<LesHouchesEvents version="1.0">
<!--
Output from the JHUGenerator v7.2.7 described in arXiv:1001.3396 [hep-ph], arXiv:1208.4018 [hep-ph], arXiv:1309.4819 [hep-ph], arXiv:1606.03107 [hep-ph]
   
   Command line: ./JHUGen Process=2 PChannel=0 MReso=22 GaReso=0.001 ColliderEnergy=13 Unweighted=1 Interf=1 DataFile=$1/$2 LHAPDF=NNPDF31_nnlo_as_0118_mc_hessian_pdfas/NNPDF31_nnlo_as_0118_mc_hessian_pdfas.info bzpzp1=1,0 bzpzp5=1,0 a1=1,0 MZprime=9.46 GaZprime=0.00005 ezp_Mu_right=0.46238,0 ezp_Mu_left=0.46238,0 ezp_El_right=0.46238,0 ezp_El_left=0.46238,0 ReadCSmax VegasNc0=5000000 VegasNc2=30 Seed=2 DataFile=Out
   
   Input Parameter:
    Collider: P-P, sqrt(s)=13000.00
    Resonance: spin=2, mass=  22.00 width=   0.00100
    DecayMode1: 0  DecayMode2: 0
    Z boson: mass=91.188, width=2.4952
    Random seed:           2
    To reproduce results using this seed, JHUGen should be compiled with the same compiler:
      GNU Fortran (GCC) 8.3.1 20190225
    
    OffXVV: TTT
    WidthScheme:   2
    PChannel: 0
    LHAPDF set NNPDF31_nnlo_as_0118_mc_hessian_pdfas/NNPDF31_nnlo_as_0118_mc_hessian_pdfas.info, member=  0
    Unweighted: T
    Interference: T
    Intermediate off-shell photons: F
    
    spin-2-VV couplings: 
      generate_bis=T
      use_dynamic_MG=T
      a1 =  0.10000000E+01  0.00000000E+00i
      a2 =  0.00000000E+00  0.00000000E+00i
      a3 =  0.00000000E+00  0.00000000E+00i
      a4 =  0.00000000E+00  0.00000000E+00i
      a5 =  0.00000000E+00  0.00000000E+00i
    Z' boson: mass= 9.460, width=0.0001
      bzpzp1 =  0.10000000E+01  0.00000000E+00i
      bzpzp5 =  0.10000000E+01  0.00000000E+00i
      Lambda=  1000.0
    
    LHE output: Out.lhe
    Histogram output: Out.dat
    Log file: Out.log
    
-->
<init>
2212 2212   6500.0000000000000000    6500.0000000000000000 0 0  325300  325300  3  1
 2.4944083E+18  4.3923227E+14  1.0000000E+00   2
</init>
<event>
 9   2   1.0000000E+00   1.0998630E+01   7.8125000E-03   1.7425016E-01
       21   -1    0    0  501  502  0.00000000000E+00  0.00000000000E+00  4.06709105963E+00  4.06709105963E+00  0.00000000000E+00 0.00000000000E+00  1.
       21   -1    0    0  502  501  0.00000000000E+00  0.00000000000E+00 -2.97435859874E+01  2.97435859874E+01  0.00000000000E+00 0.00000000000E+00  1.
       39    2    1    2    0    0 -8.88178419700E-16  4.16333634234E-17 -2.56764949277E+01  3.38106770470E+01  2.19972609795E+01 0.00000000000E+00  1.
       23    2    3    3    0    0 -5.26491897525E+00  1.75608236724E-02 -1.58183238177E+01  1.91684814822E+01  9.46000178305E+00 0.00000000000E+00  1.
       23    2    3    3    0    0  5.26491897525E+00 -1.75608236724E-02 -9.85817111006E+00  1.46421955648E+01  9.45995101060E+00 0.00000000000E+00  1.
       11    1    4    4    0    0 -6.30206712347E+00 -3.39446367306E+00 -9.26943151966E+00  1.17115667020E+01  5.10999960393E-04 0.00000000000E+00  1.
      -11    1    4    4    0    0  1.03714814822E+00  3.41202449673E+00 -6.54889229801E+00  7.45691478023E+00  5.10999988203E-04 0.00000000000E+00  1.
       13    1    5    5    0    0  1.36091168854E+00  8.91941605530E-02 -1.05809486247E+01  1.06690052984E+01  1.05660000000E-01 0.00000000000E+00  1.
      -13    1    5    5    0    0  3.90400728671E+00 -1.06754984225E-01  7.22777514679E-01  3.97319026636E+00  1.05660000000E-01 0.00000000000E+00  1.
</event>
<event>
 9   2   1.0000000E+00   1.0999975E+01   7.8125000E-03   1.7424529E-01
       21   -1    0    0  501  502  0.00000000000E+00  0.00000000000E+00  4.75181009638E-01  4.75181009638E-01  0.00000000000E+00 0.00000000000E+00  1.
       21   -1    0    0  502  501  0.00000000000E+00  0.00000000000E+00 -2.54638668022E+02  2.54638668022E+02  0.00000000000E+00 0.00000000000E+00  1.
       39    2    1    2    0    0  4.44089209850E-16  0.00000000000E+00 -2.54163487012E+02  2.55113849031E+02  2.19999508512E+01 0.00000000000E+00  1.
       23    2    3    3    0    0 -3.89532142227E+00  2.54055670233E+00 -9.06303672260E+01  9.12413421607E+01  9.45997348999E+00 0.00000000000E+00  1.
       23    2    3    3    0    0  3.89532142227E+00 -2.54055670233E+00 -1.63533119786E+02  1.63872506870E+02  9.45987757605E+00 0.00000000000E+00  1.
       11    1    4    4    0    0 -5.21927427273E+00  2.05371971798E+00 -8.85521521180E+01  8.87296017888E+01  5.10999487625E-04 0.00000000000E+00  1.
      -11    1    4    4    0    0  1.32395285046E+00  4.86836984346E-01 -2.07821510797E+00  2.51174037187E+00  5.10999593650E-04 0.00000000000E+00  1.
       13    1    5    5    0    0  2.05597026545E+00 -4.85124576282E+00 -1.45769770021E+02  1.45865001338E+02  1.05659999969E-01 0.00000000000E+00  1.
      -13    1    5    5    0    0  1.83935115683E+00  2.31068906049E+00 -1.77633497645E+01  1.80075055326E+01  1.05660000003E-01 0.00000000000E+00  1.
</event>
<event>
 9   2   1.0000000E+00   1.1000400E+01   7.8125000E-03   1.7424376E-01
       21   -1    0    0  501  502  0.00000000000E+00  0.00000000000E+00  9.38141818588E+01  9.38141818588E+01  0.00000000000E+00 0.00000000000E+00  1.
       21   -1    0    0  502  501  0.00000000000E+00  0.00000000000E+00 -1.28987758554E+00  1.28987758554E+00  0.00000000000E+00 0.00000000000E+00  1.
       39    2    1    2    0    0  4.44089209850E-16  0.00000000000E+00  9.25243042733E+01  9.51040594444E+01  2.20008009296E+01 0.00000000000E+00  1.
       23    2    3    3    0    0  3.01764867938E+00  2.15303965206E+00  4.64517826763E+01  4.75022917653E+01  9.21725695932E+00 0.00000000000E+00  1.
       23    2    3    3    0    0 -3.01764867938E+00 -2.15303965206E+00  4.60725215970E+01  4.76017676791E+01  1.13802133799E+01 0.00000000000E+00  1.
       13    1    4    4    0    0  1.34728615090E+00 -2.88482578633E+00  3.10156639222E+01  3.11788385345E+01  1.05660000000E-01 0.00000000000E+00  1.
      -13    1    4    4    0    0  1.67036252848E+00  5.03786543839E+00  1.54361187541E+01  1.63234532308E+01  1.05660000000E-01 0.00000000000E+00  1.
       13    1    5    5    0    0  3.30457121812E+00 -4.17844369370E+00  2.02248131519E+01  2.09149184484E+01  1.05660000001E-01 0.00000000000E+00  1.
      -13    1    5    5    0    0 -6.32221989750E+00  2.02540404164E+00  2.58477084451E+01  2.66868492307E+01  1.05660000002E-01 0.00000000000E+00  1.
</event>
<event>
 9   2   1.0000000E+00   1.1001217E+01   7.8125000E-03   1.7424080E-01
       21   -1    0    0  501  502  0.00000000000E+00  0.00000000000E+00  3.40590186343E+00  3.40590186343E+00  0.00000000000E+00 0.00000000000E+00  1.
       21   -1    0    0  502  501  0.00000000000E+00  0.00000000000E+00 -3.55344298738E+01  3.55344298738E+01  0.00000000000E+00 0.00000000000E+00  1.
       39    2    1    2    0    0 -4.44089209850E-16  0.00000000000E+00 -3.21285280103E+01  3.89403317372E+01  2.20024344947E+01 0.00000000000E+00  1.
       23    2    3    3    0    0 -9.03755348849E-01  1.70469781270E+00 -1.70742593506E+01  2.03186979095E+01  1.08441866457E+01 0.00000000000E+00  1.
       23    2    3    3    0    0  9.03755348849E-01 -1.70469781270E+00 -1.50542686598E+01  1.86216338276E+01  1.07894148668E+01 0.00000000000E+00  1.
       11    1    5    5    0    0 -4.14049080144E+00 -1.18397886748E+00 -1.18862929761E+01  1.26423665115E+01  5.11000043823E-04 0.00000000000E+00  1.
      -11    1    4    4    0    0  2.61231811662E+00  5.30328353339E+00 -1.03677646268E+01  1.19348048076E+01  5.10999974298E-04 0.00000000000E+00  1.
       11    1    4    4    0    0 -3.51607346547E+00 -3.59858572069E+00 -6.70649472379E+00  8.38389310196E+00  5.11000016013E-04 0.00000000000E+00  1.
      -11    1    5    5    0    0  5.04424615029E+00 -5.20718945222E-01 -3.16797568363E+00  5.97926731614E+00  5.11000026441E-04 0.00000000000E+00  1.
</event>
<event>
 9   2   1.0000000E+00   1.0999409E+01   7.8125000E-03   1.7424734E-01
       21   -1    0    0  501  502  0.00000000000E+00  0.00000000000E+00  8.49827186463E+01  8.49827186463E+01  0.00000000000E+00 0.00000000000E+00  1.
       21   -1    0    0  502  501  0.00000000000E+00  0.00000000000E+00 -1.42366595346E+00  1.42366595346E+00  0.00000000000E+00 0.00000000000E+00  1.
       39    2    1    2    0    0 -4.44089209850E-16  0.00000000000E+00  8.35590526929E+01  8.64063845998E+01  2.19988184382E+01 0.00000000000E+00  1.
       23    2    3    3    0    0  7.86465309395E-01 -5.46940497171E+00  4.56282637757E+01  4.69251287762E+01  9.46025036954E+00 0.00000000000E+00  1.
       23    2    3    3    0    0 -7.86465309395E-01  5.46940497171E+00  3.79307889172E+01  3.94812558236E+01  9.46001559712E+00 0.00000000000E+00  1.
       13    1    4    4    0    0 -3.24159006705E+00 -3.61112844120E+00  3.59737450361E+01  3.62997197060E+01  1.05660000001E-01 0.00000000000E+00  1.
      -13    1    4    4    0    0  4.02805537644E+00 -1.85827653051E+00  9.65451873964E+00  1.06254090702E+01  1.05659999999E-01 0.00000000000E+00  1.
       11    1    5    5    0    0 -4.70863812954E+00  4.89336120259E+00  2.01375417893E+01  2.12517492567E+01  5.10999876963E-04 0.00000000000E+00  1.
      -11    1    5    5    0    0  3.92217282014E+00  5.76043769120E-01  1.77932471279E+01  1.82295065668E+01  5.11000043823E-04 0.00000000000E+00  1.
</event>
<event>
 9   2   1.0000000E+00   1.1000066E+01   7.8125000E-03   1.7424497E-01
       21   -1    0    0  501  502  0.00000000000E+00  0.00000000000E+00  6.06844630062E-01  6.06844630062E-01  0.00000000000E+00 0.00000000000E+00  1.
       21   -1    0    0  502  501  0.00000000000E+00  0.00000000000E+00 -1.99394461388E+02  1.99394461388E+02  0.00000000000E+00 0.00000000000E+00  1.
       39    2    1    2    0    0  0.00000000000E+00  0.00000000000E+00 -1.98787616758E+02  2.00001306018E+02  2.20001325594E+01 0.00000000000E+00  1.
       23    2    3    3    0    0 -1.80193881752E+00  4.69834039455E+00 -1.22005782907E+02  1.22475419116E+02  9.46022404079E+00 0.00000000000E+00  1.
       23    2    3    3    0    0  1.80193881752E+00 -4.69834039455E+00 -7.67818338511E+01  7.75258869023E+01  9.46000763676E+00 0.00000000000E+00  1.
       11    1    4    4    0    0 -3.33932860626E-01  5.90519149454E+00 -1.16515726080E+02  1.16665749995E+02  5.10998597706E-04 0.00000000000E+00  1.
      -11    1    4    4    0    0 -1.46800595689E+00 -1.20685109999E+00 -5.49005682743E+00  5.80966912109E+00  5.10996574527E-04 0.00000000000E+00  1.
       13    1    5    5    0    0  1.38592498010E+00  1.05124325899E+00 -5.39228673475E+01  5.39510211901E+01  1.05660000010E-01 0.00000000000E+00  1.
      -13    1    5    5    0    0  4.16013837416E-01 -5.74958365354E+00 -2.28589665036E+01  2.35748657122E+01  1.05660000000E-01 0.00000000000E+00  1.
</event>
<event>
 9   2   1.0000000E+00   1.1000226E+01   7.8125000E-03   1.7424439E-01
       21   -1    0    0  501  502  0.00000000000E+00  0.00000000000E+00  5.33299172622E+00  5.33299172622E+00  0.00000000000E+00 0.00000000000E+00  1.
       21   -1    0    0  502  501  0.00000000000E+00  0.00000000000E+00 -2.26898874184E+01  2.26898874184E+01  0.00000000000E+00 0.00000000000E+00  1.
       39    2    1    2    0    0  0.00000000000E+00  4.44089209850E-16 -1.73568956922E+01  2.80228791446E+01  2.20004528927E+01 0.00000000000E+00  1.
       23    2    3    3    0    0  4.76606299405E+00 -1.67686527954E+00 -1.17947911431E+01  1.59416585412E+01  9.46002882171E+00 0.00000000000E+00  1.
       23    2    3    3    0    0 -4.76606299405E+00  1.67686527954E+00 -5.56210454907E+00  1.20812206034E+01  9.46000267565E+00 0.00000000000E+00  1.
       11    1    4    4    0    0  2.35018085345E-01  1.75139719101E+00 -9.74105229662E+00  9.90003665285E+00  5.11000043823E-04 0.00000000000E+00  1.
      -11    1    4    4    0    0  4.53104490871E+00 -3.42826247055E+00 -2.05373884645E+00  6.04162188839E+00  5.11000031656E-04 0.00000000000E+00  1.
       13    1    5    5    0    0 -2.48069106164E+00 -3.78646611077E+00 -3.77304219475E+00  5.89390916033E+00  1.05660000000E-01 0.00000000000E+00  1.
      -13    1    5    5    0    0 -2.28537193241E+00  5.46333139031E+00 -1.78906235432E+00  6.18731144303E+00  1.05660000000E-01 0.00000000000E+00  1.
</event>
<event>
 9   2   1.0000000E+00   1.1000605E+01   7.8125000E-03   1.7424302E-01
       21   -1    0    0  501  502  0.00000000000E+00  0.00000000000E+00  1.59774317353E+02  1.59774317353E+02  0.00000000000E+00 0.00000000000E+00  1.
       21   -1    0    0  502  501  0.00000000000E+00  0.00000000000E+00 -7.57401485494E-01  7.57401485494E-01  0.00000000000E+00 0.00000000000E+00  1.
       39    2    1    2    0    0 -2.22044604925E-16  8.88178419700E-16  1.59016915868E+02  1.60531718839E+02  2.20012095401E+01 0.00000000000E+00  1.
       23    2    3    3    0    0  7.58948729840E-01  5.50483331910E+00  7.36594200749E+01  7.44720307389E+01  9.46012703698E+00 0.00000000000E+00  1.
       23    2    3    3    0    0 -7.58948729840E-01 -5.50483331910E+00  8.53574957930E+01  8.60596881000E+01  9.45984327427E+00 0.00000000000E+00  1.
       13    1    4    4    0    0  4.01438246534E+00  2.53321357984E+00  5.82800664333E+01  5.84731540549E+01  1.05660000002E-01 0.00000000000E+00  1.
      -13    1    4    4    0    0 -3.25543373550E+00  2.97161973925E+00  1.53793536415E+01  1.59988766839E+01  1.05660000004E-01 0.00000000000E+00  1.
       11    1    5    5    0    0 -5.41061780003E-01 -2.23303303664E-01  4.87811641542E-02  5.87360262788E-01  5.10998602989E-04 0.00000000000E+00  1.
      -11    1    5    5    0    0 -2.17886949838E-01 -5.28153001544E+00  8.53087146289E+01  8.54723278372E+01  5.10999487625E-04 0.00000000000E+00  1.
</event>
<event>
 9   2   1.0000000E+00   1.1000013E+01   7.8125000E-03   1.7424516E-01
       21   -1    0    0  501  502  0.00000000000E+00  0.00000000000E+00  1.38932426857E+02  1.38932426857E+02  0.00000000000E+00 0.00000000000E+00  1.
       21   -1    0    0  502  501  0.00000000000E+00  0.00000000000E+00 -8.70928988278E-01  8.70928988278E-01  0.00000000000E+00 0.00000000000E+00  1.
       39    2    1    2    0    0  0.00000000000E+00  1.11022302463E-16  1.38061497869E+02  1.39803355846E+02  2.20000252692E+01 0.00000000000E+00  1.
       23    2    3    3    0    0 -1.58349760606E+00 -8.65064229711E-01  1.02808368813E+02  1.03258453186E+02  9.46000293031E+00 0.00000000000E+00  1.
       23    2    3    3    0    0  1.58349760606E+00  8.65064229711E-01  3.52531290558E+01  3.65449026600E+01  9.45996836242E+00 0.00000000000E+00  1.
       11    1    4    4    0    0 -1.81375425922E+00  1.64791484589E+00  6.99464719709E+00  7.41150575288E+00  5.11001399553E-04 0.00000000000E+00  1.
      -11    1    4    4    0    0  2.30256653154E-01 -2.51297907560E+00  9.58137216161E+01  9.58469474326E+01  5.11000377541E-04 0.00000000000E+00  1.
       13    1    5    5    0    0 -3.73956674330E+00  1.04120415675E-01  9.01025102529E+00  9.75658690644E+00  1.05660000001E-01 0.00000000000E+00  1.
      -13    1    5    5    0    0  5.32306434936E+00  7.60943814036E-01  2.62428780305E+01  2.67883157536E+01  1.05660000002E-01 0.00000000000E+00  1.
</event>
<event>
 9   2   1.0000000E+00   1.1000059E+01   7.8125000E-03   1.7424499E-01
       21   -1    0    0  501  502  0.00000000000E+00  0.00000000000E+00  2.62480490731E-01  2.62480490731E-01  0.00000000000E+00 0.00000000000E+00  1.
       21   -1    0    0  502  501  0.00000000000E+00  0.00000000000E+00 -4.60991610828E+02  4.60991610828E+02  0.00000000000E+00 0.00000000000E+00  1.
       39    2    1    2    0    0 -1.11022302463E-16  8.88178419700E-16 -4.60729130337E+02  4.61254091319E+02  2.20001185663E+01 0.00000000000E+00  1.
       23    2    3    3    0    0 -3.52846926562E-01  2.33589503169E+00 -1.23605435098E+02  1.23989419744E+02  9.46000614975E+00 0.00000000000E+00  1.
       23    2    3    3    0    0  3.52846926562E-01 -2.33589503169E+00 -3.37123695240E+02  3.37264671574E+02  9.46001551191E+00 0.00000000000E+00  1.
       13    1    4    4    0    0 -1.17495384325E-01  2.34934572204E+00 -7.03308894587E+00  7.41678735324E+00  1.05660000008E-01 0.00000000000E+00  1.
      -13    1    4    4    0    0 -2.35351542237E-01 -1.34506903521E-02 -1.16572346152E+02  1.16572632391E+02  1.05660000012E-01 0.00000000000E+00  1.
       11    1    5    5    0    0  3.08002628775E+00  2.61946450140E+00 -1.23836273893E+02  1.23902263450E+02  5.11009276622E-04 0.00000000000E+00  1.
      -11    1    5    5    0    0 -2.72717936119E+00 -4.95535953309E+00 -2.13287421347E+02  2.13362408124E+02  5.10991478305E-04 0.00000000000E+00  1.
</event>
<event>
 9   2   1.0000000E+00   1.1000328E+01   7.8125000E-03   1.7424402E-01
       21   -1    0    0  501  502  0.00000000000E+00  0.00000000000E+00  4.26174083298E+02  4.26174083298E+02  0.00000000000E+00 0.00000000000E+00  1.
       21   -1    0    0  502  501  0.00000000000E+00  0.00000000000E+00 -2.83938460585E-01  2.83938460585E-01  0.00000000000E+00 0.00000000000E+00  1.
       39    2    1    2    0    0 -4.44089209850E-16  0.00000000000E+00  4.25890144837E+02  4.26458021758E+02  2.20006557314E+01 0.00000000000E+00  1.
       23    2    3    3    0    0  3.09988003032E+00 -3.40906835224E-01  2.66485411889E+02  2.66746055714E+02  1.13691695208E+01 0.00000000000E+00  1.
       23    2    3    3    0    0 -3.09988003032E+00  3.40906835224E-01  1.59404732949E+02  1.59711966045E+02  9.39775174360E+00 0.00000000000E+00  1.
       13    1    5    5    0    0  1.95244261199E+00  2.22666213483E+00  2.16716008211E+01  2.18732599902E+01  1.05660000019E-01 0.00000000000E+00  1.
      -13    1    4    4    0    0  7.83856037759E-01  1.71996376458E+00  2.47626253907E+02  2.47633490250E+02  1.05660000021E-01 0.00000000000E+00  1.
       13    1    4    4    0    0  2.31602399256E+00 -2.06087059981E+00  1.88591579821E+01  1.91125654634E+01  1.05659999968E-01 0.00000000000E+00  1.
      -13    1    5    5    0    0 -5.05232264231E+00 -1.88575529961E+00  1.37733132127E+02  1.37838706055E+02  1.05659999952E-01 0.00000000000E+00  1.
</event>
<event>
 9   2   1.0000000E+00   1.1000664E+01   7.8125000E-03   1.7424281E-01
       21   -1    0    0  501  502  0.00000000000E+00  0.00000000000E+00  1.33242991109E-01  1.33242991109E-01  0.00000000000E+00 0.00000000000E+00  1.
       21   -1    0    0  502  501  0.00000000000E+00  0.00000000000E+00 -9.08224869139E+02  9.08224869139E+02  0.00000000000E+00 0.00000000000E+00  1.
       39    2    1    2    0    0 -4.44089209850E-16  4.44089209850E-16 -9.08091626148E+02  9.08358112130E+02  2.20013270657E+01 0.00000000000E+00  1.
       23    2    3    3    0    0 -2.00333770855E+00  3.68057872712E+00 -6.08322009470E+02  6.08409992344E+02  9.45999769552E+00 0.00000000000E+00  1.
       23    2    3    3    0    0  2.00333770855E+00 -3.68057872712E+00 -2.99769616678E+02  2.99948119786E+02  9.45999251598E+00 0.00000000000E+00  1.
       11    1    4    4    0    0 -4.57402840410E-01  6.02796922868E+00 -5.34964045546E+02  5.34998201546E+02  5.10941639717E-04 0.00000000000E+00  1.
      -11    1    4    4    0    0 -1.54593486814E+00 -2.34739050156E+00 -7.33579639243E+01  7.34117907980E+01  5.10973679367E-04 0.00000000000E+00  1.
       13    1    5    5    0    0  3.79024508116E+00 -4.18629471505E+00 -9.36848931038E+01  9.38550018972E+01  1.05660000030E-01 0.00000000000E+00  1.
      -13    1    5    5    0    0 -1.78690737261E+00  5.05715987930E-01 -2.06084723574E+02  2.06093117889E+02  1.05659999987E-01 0.00000000000E+00  1.
</event>
<event>
 9   2   1.0000000E+00   1.1000859E+01   7.8125000E-03   1.7424210E-01
       21   -1    0    0  501  502  0.00000000000E+00  0.00000000000E+00  1.87915743303E+02  1.87915743303E+02  0.00000000000E+00 0.00000000000E+00  1.
       21   -1    0    0  502  501  0.00000000000E+00  0.00000000000E+00 -6.44006196151E-01  6.44006196151E-01  0.00000000000E+00 0.00000000000E+00  1.
       39    2    1    2    0    0  0.00000000000E+00  8.88178419700E-16  1.87271737106E+02  1.88559749499E+02  2.20017183912E+01 0.00000000000E+00  1.
       23    2    3    3    0    0  1.86164519897E+00  4.81781578454E+00  7.21756007354E+01  7.30251499136E+01  9.83250256105E+00 0.00000000000E+00  1.
       23    2    3    3    0    0 -1.86164519897E+00 -4.81781578454E+00  1.15096136371E+02  1.15534599585E+02  8.62821082079E+00 0.00000000000E+00  1.
       13    1    5    5    0    0 -4.54422803544E+00 -1.54620547826E+00  3.51332360603E+01  3.54597828522E+01  1.05659999998E-01 0.00000000000E+00  1.
      -13    1    4    4    0    0  1.00571885111E+00  5.64031473381E+00  7.13397038700E+01  7.15694706771E+01  1.05660000008E-01 0.00000000000E+00  1.
       13    1    4    4    0    0  8.55926347856E-01 -8.22498949265E-01  8.35896865367E-01  1.45567923652E+00  1.05660000000E-01 0.00000000000E+00  1.
      -13    1    5    5    0    0  2.68258283647E+00 -3.27161030628E+00  7.99629003107E+01  8.00748167328E+01  1.05660000000E-01 0.00000000000E+00  1.
</event>
<event>
 9   2   1.0000000E+00   1.1000066E+01   7.8125000E-03   1.7424497E-01
       21   -1    0    0  501  502  0.00000000000E+00  0.00000000000E+00  3.95612585778E+01  3.95612585778E+01  0.00000000000E+00 0.00000000000E+00  1.
       21   -1    0    0  502  501  0.00000000000E+00  0.00000000000E+00 -3.05858460249E+00  3.05858460249E+00  0.00000000000E+00 0.00000000000E+00  1.
       39    2    1    2    0    0  1.55431223448E-15 -4.44089209850E-16  3.65026739753E+01  4.26198431803E+01  2.20001323943E+01 0.00000000000E+00  1.
       23    2    3    3    0    0  1.18957535456E+00 -2.67163173525E+00  2.46083940198E+01  2.58242680240E+01  7.26409368676E+00 0.00000000000E+00  1.
       23    2    3    3    0    0 -1.18957535456E+00  2.67163173525E+00  1.18942799555E+01  1.67955751563E+01  1.14919425476E+01 0.00000000000E+00  1.
       11    1    4    4    0    0 -2.01893211708E-01 -4.40665382275E+00  8.63242126600E+00  9.69422797118E+00  5.11000002108E-04 0.00000000000E+00  1.
      -11    1    4    4    0    0  1.39146856627E+00  1.73502208750E+00  1.59759727538E+01  1.61300400528E+01  5.10999849153E-04 0.00000000000E+00  1.
       11    1    5    5    0    0  4.17077974159E+00 -1.06961809568E+00  1.58433984610E+00  4.58798643552E+00  5.11000020793E-04 0.00000000000E+00  1.
      -11    1    5    5    0    0 -5.36035509616E+00  3.74124983093E+00  1.03099401094E+01  1.22075887208E+01  5.10999974298E-04 0.00000000000E+00  1.
</event>
<event>
 9   2   1.0000000E+00   1.1000188E+01   7.8125000E-03   1.7424453E-01
       21   -1    0    0  501  502  0.00000000000E+00  0.00000000000E+00  1.79106857084E+02  1.79106857084E+02  0.00000000000E+00 0.00000000000E+00  1.
       21   -1    0    0  502  501  0.00000000000E+00  0.00000000000E+00 -6.75597396183E-01  6.75597396183E-01  0.00000000000E+00 0.00000000000E+00  1.
       39    2    1    2    0    0  8.88178419700E-16  4.44089209850E-16  1.78431259688E+02  1.79782454480E+02  2.20003751136E+01 0.00000000000E+00  1.
       23    2    3    3    0    0  5.10203284794E+00 -2.32944000755E+00  9.11371304359E+01  9.17982864233E+01  9.46001142804E+00 0.00000000000E+00  1.
       23    2    3    3    0    0 -5.10203284794E+00  2.32944000755E+00  8.72941292519E+01  8.79841680570E+01  9.46001040674E+00 0.00000000000E+00  1.
       13    1    4    4    0    0 -1.27876804491E-01  3.30450849923E+00  2.68402317242E+01  2.70433971967E+01  1.05659999996E-01 0.00000000000E+00  1.
      -13    1    4    4    0    0  5.22990965244E+00 -5.63394850678E+00  6.42968987118E+01  6.47548892265E+01  1.05659999995E-01 0.00000000000E+00  1.
       11    1    5    5    0    0 -1.66407447246E+00  1.08188605414E+00  7.75640072354E+01  7.75893990179E+01  5.11000377541E-04 0.00000000000E+00  1.
      -11    1    5    5    0    0 -3.43795837548E+00  1.24755395342E+00  9.73012201656E+00  1.03947690391E+01  5.10999668389E-04 0.00000000000E+00  1.
</event>
<event>
 9   2   1.0000000E+00   1.0999934E+01   7.8125000E-03   1.7424544E-01
       21   -1    0    0  501  502  0.00000000000E+00  0.00000000000E+00  5.29953925692E+01  5.29953925692E+01  0.00000000000E+00 0.00000000000E+00  1.
       21   -1    0    0  502  501  0.00000000000E+00  0.00000000000E+00 -2.28319006469E+00  2.28319006469E+00  0.00000000000E+00 0.00000000000E+00  1.
       39    2    1    2    0    0 -8.88178419700E-16 -4.44089209850E-16  5.07122025045E+01  5.52785826339E+01  2.19998685258E+01 0.00000000000E+00  1.
       23    2    3    3    0    0  2.50584392518E+00 -3.20734943239E+00  3.50684082718E+01  3.65492930831E+01  9.45998002094E+00 0.00000000000E+00  1.
       23    2    3    3    0    0 -2.50584392518E+00  3.20734943239E+00  1.56437942327E+01  1.87292895508E+01  9.46000237441E+00 0.00000000000E+00  1.
       11    1    4    4    0    0  3.29417068055E+00  2.63714420249E+00  1.13598733489E+01  1.21182842342E+01  5.11000127252E-04 0.00000000000E+00  1.
      -11    1    4    4    0    0 -7.88326755364E-01 -5.84449363488E+00  2.37085349229E+01  2.44310088488E+01  5.10999932583E-04 0.00000000000E+00  1.
       13    1    5    5    0    0 -2.27739126934E+00  6.45647175680E+00  8.80747837800E+00  1.11559570613E+01  1.05660000000E-01 0.00000000000E+00  1.
      -13    1    5    5    0    0 -2.28452655845E-01 -3.24912232442E+00  6.83631585470E+00  7.57333248946E+00  1.05660000000E-01 0.00000000000E+00  1.
</event>
<event>
 9   2   1.0000000E+00   1.1000242E+01   7.8125000E-03   1.7424433E-01
       21   -1    0    0  501  502  0.00000000000E+00  0.00000000000E+00  2.42699902284E+00  2.42699902284E+00  0.00000000000E+00 0.00000000000E+00  1.
       21   -1    0    0  502  501  0.00000000000E+00  0.00000000000E+00 -4.98579998294E+01  4.98579998294E+01  0.00000000000E+00 0.00000000000E+00  1.
       39    2    1    2    0    0 -8.88178419700E-16  0.00000000000E+00 -4.74310008066E+01  5.22849988523E+01  2.20004833462E+01 0.00000000000E+00  1.
       23    2    3    3    0    0 -2.84799487978E+00 -8.35358925653E-01 -3.50395292267E+01  3.64152360830E+01  9.46001644744E+00 0.00000000000E+00  1.
       23    2    3    3    0    0  2.84799487978E+00  8.35358925653E-01 -1.23914715799E+01  1.58697627692E+01  9.46001601828E+00 0.00000000000E+00  1.
       13    1    4    4    0    0 -5.27302481213E-01  4.03473690249E+00 -2.06491676108E+01  2.10465302802E+01  1.05659999999E-01 0.00000000000E+00  1.
      -13    1    4    4    0    0 -2.32069239857E+00 -4.87009582814E+00 -1.43903616159E+01  1.53687058029E+01  1.05660000000E-01 0.00000000000E+00  1.
       11    1    5    5    0    0  1.31949409464E-01  4.95676605965E+00 -6.71705276338E+00  8.34899625726E+00  5.11000009060E-04 0.00000000000E+00  1.
      -11    1    5    5    0    0  2.71604547032E+00 -4.12140713399E+00 -5.67441881653E+00  7.52076651196E+00  5.11000022965E-04 0.00000000000E+00  1.
</event>
<event>
 9   2   1.0000000E+00   1.0999686E+01   7.8125000E-03   1.7424634E-01
       21   -1    0    0  501  502  0.00000000000E+00  0.00000000000E+00  7.62418390995E+00  7.62418390995E+00  0.00000000000E+00 0.00000000000E+00  1.
       21   -1    0    0  502  501  0.00000000000E+00  0.00000000000E+00 -1.58696437516E+01  1.58696437516E+01  0.00000000000E+00 0.00000000000E+00  1.
       39    2    1    2    0    0  4.44089209850E-16 -2.22044604925E-16 -8.24545984167E+00  2.34938276616E+01  2.19993711317E+01 0.00000000000E+00  1.
       23    2    3    3    0    0 -4.08871564167E-01  7.79769939251E-01 -1.04480529015E+01  1.63446694175E+01  1.25383887250E+01 0.00000000000E+00  1.
       23    2    3    3    0    0  4.08871564167E-01 -7.79769939251E-01  2.20259305982E+00  7.14915824410E+00  6.74417009705E+00 0.00000000000E+00  1.
       13    1    5    5    0    0 -1.85997390318E+00  2.19397226836E+00  1.52075135374E-01  2.88224012137E+00  1.05660000000E-01 0.00000000000E+00  1.
      -13    1    4    4    0    0  4.48766402159E+00 -1.84129377160E+00 -9.55790994220E+00  1.07188757630E+01  1.05660000000E-01 0.00000000000E+00  1.
       13    1    4    4    0    0 -4.89653558575E+00  2.62106371086E+00 -8.90142959287E-01  5.62579365445E+00  1.05660000000E-01 0.00000000000E+00  1.
      -13    1    5    5    0    0  2.26884546735E+00 -2.97374220761E+00  2.05051792444E+00  4.26691812273E+00  1.05660000000E-01 0.00000000000E+00  1.
</event>
<event>
 9   2   1.0000000E+00   1.1000178E+01   7.8125000E-03   1.7424456E-01
       21   -1    0    0  501  502  0.00000000000E+00  0.00000000000E+00  7.97642840347E+01  7.97642840347E+01  0.00000000000E+00 0.00000000000E+00  1.
       21   -1    0    0  502  501  0.00000000000E+00  0.00000000000E+00 -1.51701878804E+00  1.51701878804E+00  0.00000000000E+00 0.00000000000E+00  1.
       39    2    1    2    0    0  2.22044604925E-16 -8.88178419700E-16  7.82472652467E+01  8.12813028227E+01  2.20003561331E+01 0.00000000000E+00  1.
       23    2    3    3    0    0 -6.01246636137E-01  5.54804698663E+00  4.13670316788E+01  4.28003034841E+01  9.46003940467E+00 0.00000000000E+00  1.
       23    2    3    3    0    0  6.01246636137E-01 -5.54804698663E+00  3.68802335679E+01  3.84809993386E+01  9.46009298014E+00 0.00000000000E+00  1.
       13    1    4    4    0    0 -1.95241808670E+00  2.16275025972E+00  3.69839022395E+01  3.70986470638E+01  1.05660000003E-01 0.00000000000E+00  1.
      -13    1    4    4    0    0  1.35117145056E+00  3.38529672691E+00  4.38312943930E+00  5.70165642032E+00  1.05660000002E-01 0.00000000000E+00  1.
       11    1    5    5    0    0  6.70240604663E-01  3.90947522742E-01 -2.98109851106E-01  8.31223302203E-01  5.10999884853E-04 0.00000000000E+00  1.
      -11    1    5    5    0    0 -6.89939685267E-02 -5.93899450937E+00  3.71783434190E+01  3.76497760364E+01  5.10999710104E-04 0.00000000000E+00  1.
</event>
<event>
 9   2   1.0000000E+00   1.0999874E+01   7.8125000E-03   1.7424566E-01
       21   -1    0    0  501  502  0.00000000000E+00  0.00000000000E+00  4.76537066426E-01  4.76537066426E-01  0.00000000000E+00 0.00000000000E+00  1.
       21   -1    0    0  502  501  0.00000000000E+00  0.00000000000E+00 -2.53909357628E+02  2.53909357628E+02  0.00000000000E+00 0.00000000000E+00  1.
       39    2    1    2    0    0 -4.44089209850E-16  0.00000000000E+00 -2.53432820561E+02  2.54385894694E+02  2.19997473096E+01 0.00000000000E+00  1.
       23    2    3    3    0    0 -1.73087001780E+00 -4.54626978098E+00 -9.43365404446E+01  9.49343936868E+01  9.46000854530E+00 0.00000000000E+00  1.
       23    2    3    3    0    0  1.73087001780E+00  4.54626978098E+00 -1.59096280117E+02  1.59451501007E+02  9.45993375237E+00 0.00000000000E+00  1.
       11    1    4    4    0    0 -3.58776277712E+00  6.50475944304E-02 -1.42902813032E+01  1.47339204871E+01  5.10999237335E-04 0.00000000000E+00  1.
      -11    1    4    4    0    0  1.85689275933E+00 -4.61131737541E+00 -8.00462591414E+01  8.02004731996E+01  5.10998597706E-04 0.00000000000E+00  1.
       13    1    5    5    0    0  3.74452714318E+00 -6.21127391426E-01 -1.05636549976E+02  1.05704773485E+02  1.05659999995E-01 0.00000000000E+00  1.
      -13    1    5    5    0    0 -2.01365712538E+00  5.16739717241E+00 -5.34597301408E+01  5.37467275220E+01  1.05660000004E-01 0.00000000000E+00  1.
</event>
<event>
 9   2   1.0000000E+00   1.0999407E+01   7.8125000E-03   1.7424735E-01
       21   -1    0    0  501  502  0.00000000000E+00  0.00000000000E+00  1.11074546775E+01  1.11074546775E+01  0.00000000000E+00 0.00000000000E+00  1.
       21   -1    0    0  502  501  0.00000000000E+00  0.00000000000E+00 -1.08924113382E+01  1.08924113382E+01  0.00000000000E+00 0.00000000000E+00  1.
       39    2    1    2    0    0  8.88178419700E-16  0.00000000000E+00  2.15043339228E-01  2.19998660157E+01  2.19988149924E+01 0.00000000000E+00  1.
       23    2    3    3    0    0 -4.65969445029E+00 -3.05840324203E+00  7.61218396503E-01  1.10064174397E+01  9.46018967298E+00 0.00000000000E+00  1.
       23    2    3    3    0    0  4.65969445029E+00  3.05840324203E+00 -5.46175057274E-01  1.09934485760E+01  9.45996943119E+00 0.00000000000E+00  1.
       11    1    4    4    0    0 -6.70696215098E+00 -3.35508854753E+00  2.89107667104E+00  8.03730583190E+00  5.11000003846E-04 0.00000000000E+00  1.
      -11    1    4    4    0    0  2.04726770070E+00  2.96685305499E-01 -2.12985827454E+00  2.96911160780E+00  5.10999997762E-04 0.00000000000E+00  1.
       13    1    5    5    0    0  1.26190011283E+00  1.36121224775E+00 -4.88458573498E+00  5.22643592864E+00  1.05660000000E-01 0.00000000000E+00  1.
      -13    1    5    5    0    0  3.39779433746E+00  1.69719099429E+00  4.33841067771E+00  5.76701264736E+00  1.05660000000E-01 0.00000000000E+00  1.
</event>
<event>
 9   2   1.0000000E+00   1.0999507E+01   7.8125000E-03   1.7424699E-01
       21   -1    0    0  501  502  0.00000000000E+00  0.00000000000E+00  1.06405610328E+02  1.06405610328E+02  0.00000000000E+00 0.00000000000E+00  1.
       21   -1    0    0  502  501  0.00000000000E+00  0.00000000000E+00 -1.13705624017E+00  1.13705624017E+00  0.00000000000E+00 0.00000000000E+00  1.
       39    2    1    2    0    0  0.00000000000E+00  0.00000000000E+00  1.05268554088E+02  1.07542666569E+02  2.19990148155E+01 0.00000000000E+00  1.
       23    2    3    3    0    0 -4.47943716541E+00  3.35343822919E+00  5.47450802110E+01  5.58374956052E+01  9.45997901048E+00 0.00000000000E+00  1.
       23    2    3    3    0    0  4.47943716541E+00 -3.35343822919E+00  5.05234738772E+01  5.17051709634E+01  9.46004156707E+00 0.00000000000E+00  1.
       11    1    4    4    0    0 -5.90902927329E+00  2.24209953113E+00  5.28118962854E+01  5.31887208606E+01  5.11000822499E-04 0.00000000000E+00  1.
      -11    1    4    4    0    0  1.42959210788E+00  1.11133869806E+00  1.93318392559E+00  2.64877474467E+00  5.10999545417E-04 0.00000000000E+00  1.
       13    1    5    5    0    0 -1.08902145767E+00 -2.75580272970E+00  3.62632753995E+01  3.63842922586E+01  1.05660000001E-01 0.00000000000E+00  1.
      -13    1    5    5    0    0  5.56845862309E+00 -5.97635499491E-01  1.42601984777E+01  1.53208787048E+01  1.05659999999E-01 0.00000000000E+00  1.
</event>
<event>
 9   2   1.0000000E+00   1.0999735E+01   7.8125000E-03   1.7424616E-01
       21   -1    0    0  501  502  0.00000000000E+00  0.00000000000E+00  3.68867946522E+00  3.68867946522E+00  0.00000000000E+00 0.00000000000E+00  1.
       21   -1    0    0  502  501  0.00000000000E+00  0.00000000000E+00 -3.28014877097E+01  3.28014877097E+01  0.00000000000E+00 0.00000000000E+00  1.
       39    2    1    2    0    0 -1.11022302463E-15 -8.88178419700E-16 -2.91128082445E+01  3.64901671749E+01  2.19994703703E+01 0.00000000000E+00  1.
       23    2    3    3    0    0 -1.84300284039E+00 -3.09970841656E+00 -1.67787206121E+00  5.62046863810E+00  3.97109069661E+00 0.00000000000E+00  1.
       23    2    3    3    0    0  1.84300284039E+00  3.09970841656E+00 -2.74349361833E+01  3.08696985368E+01  1.36842139941E+01 0.00000000000E+00  1.
       11    1    4    4    0    0  4.36752313931E-02 -1.17253730247E+00  1.19867092189E+00  1.67736802510E+00  5.10999999935E-04 0.00000000000E+00  1.
      -11    1    4    4    0    0 -1.88667807178E+00 -1.92717111409E+00 -2.87654298309E+00  3.94310061300E+00  5.10999996893E-04 0.00000000000E+00  1.
       11    1    5    5    0    0  5.09566236400E+00  6.50881915117E+00 -1.09208186163E+01  1.36965244198E+01  5.10999974298E-04 0.00000000000E+00  1.
      -11    1    5    5    0    0 -3.25265952361E+00 -3.40911073461E+00 -1.65141175670E+01  1.71731741171E+01  5.10999932583E-04 0.00000000000E+00  1.
</event>
<event>
 9   2   1.0000000E+00   1.1000062E+01   7.8125000E-03   1.7424498E-01
       21   -1    0    0  501  502  0.00000000000E+00  0.00000000000E+00  1.94031657637E+00  1.94031657637E+00  0.00000000000E+00 0.00000000000E+00  1.
       21   -1    0    0  502  501  0.00000000000E+00  0.00000000000E+00 -6.23616613296E+01  6.23616613296E+01  0.00000000000E+00 0.00000000000E+00  1.
       39    2    1    2    0    0  0.00000000000E+00  0.00000000000E+00 -6.04213447532E+01  6.43019779060E+01  2.20001241095E+01 0.00000000000E+00  1.
       23    2    3    3    0    0  1.36336464002E+00  4.12790012101E+00 -1.98313857449E+01  2.23980946268E+01  9.46004544378E+00 0.00000000000E+00  1.
       23    2    3    3    0    0 -1.36336464002E+00 -4.12790012101E+00 -4.05899590084E+01  4.19038832792E+01  9.46003906036E+00 0.00000000000E+00  1.
       13    1    4    4    0    0  2.15481518832E+00  1.58676625688E+00 -1.95353495703E+01  1.97180653848E+01  1.05660000000E-01 0.00000000000E+00  1.
      -13    1    4    4    0    0 -7.91450548306E-01  2.54113386413E+00 -2.96036174600E-01  2.68002924203E+00  1.05660000000E-01 0.00000000000E+00  1.
       11    1    5    5    0    0 -3.20864442136E+00 -1.78818323558E+00 -3.72387212647E+01  3.74194516261E+01  5.10999932583E-04 0.00000000000E+00  1.
      -11    1    5    5    0    0  1.84527978135E+00 -2.33971688543E+00 -3.35123774365E+00  4.48443165306E+00  5.11000021227E-04 0.00000000000E+00  1.
</event>
<event>
 9   2   1.0000000E+00   1.1000039E+01   7.8125000E-03   1.7424506E-01
       21   -1    0    0  501  502  0.00000000000E+00  0.00000000000E+00  4.17655663691E+01  4.17655663691E+01  0.00000000000E+00 0.00000000000E+00  1.
       21   -1    0    0  502  501  0.00000000000E+00  0.00000000000E+00 -2.89714396102E+00  2.89714396102E+00  0.00000000000E+00 0.00000000000E+00  1.
       39    2    1    2    0    0  4.44089209850E-16  2.22044604925E-16  3.88684224081E+01  4.46627103301E+01  2.20000780348E+01 0.00000000000E+00  1.
       23    2    3    3    0    0 -3.99326557884E+00 -1.77801785267E+00  1.22850815521E+01  1.61097205485E+01  9.46003963747E+00 0.00000000000E+00  1.
       23    2    3    3    0    0  3.99326557884E+00  1.77801785267E+00  2.65833408559E+01  2.85529897815E+01  9.46000512338E+00 0.00000000000E+00  1.
       13    1    4    4    0    0 -2.17029400300E+00  1.80984220858E+00  1.17056978945E+01  1.20424346422E+01  1.05660000000E-01 0.00000000000E+00  1.
      -13    1    4    4    0    0 -1.82297157584E+00 -3.58786006124E+00  5.79383657613E-01  4.06728590631E+00  1.05660000000E-01 0.00000000000E+00  1.
       11    1    5    5    0    0  2.60607000833E+00 -1.85130121287E+00  2.24452280769E+00  3.90599538715E+00  5.10999907380E-04 0.00000000000E+00  1.
      -11    1    5    5    0    0  1.38719557051E+00  3.62931906554E+00  2.43388180483E+01  2.46469943944E+01  5.10999932583E-04 0.00000000000E+00  1.
</event>
<event>
 9   2   1.0000000E+00   1.0993040E+01   7.8125000E-03   1.7427039E-01
       21   -1    0    0  501  502  0.00000000000E+00  0.00000000000E+00  1.22401556080E+02  1.22401556080E+02  0.00000000000E+00 0.00000000000E+00  1.
       21   -1    0    0  502  501  0.00000000000E+00  0.00000000000E+00 -9.87298943363E-01  9.87298943363E-01  0.00000000000E+00 0.00000000000E+00  1.
       39    2    1    2    0    0 -8.88178419700E-16 -1.77635683940E-15  1.21414257137E+02  1.23388855023E+02  2.19860798674E+01 0.00000000000E+00  1.
       23    2    3    3    0    0  5.69623520628E+00  4.36100018823E+00  9.40900732834E+01  9.50552934667E+01  1.14499566545E+01 0.00000000000E+00  1.
       23    2    3    3    0    0 -5.69623520628E+00 -4.36100018823E+00  2.73241838532E+01  2.83335615567E+01  2.17123676167E+00 0.00000000000E+00  1.
       11    1    4    4    0    0 -8.94956559734E-01  6.29511149888E+00  3.56142660892E+01  3.61774145754E+01  5.11001489935E-04 0.00000000000E+00  1.
      -11    1    4    4    0    0  6.59119176602E+00 -1.93411131065E+00  5.84758071943E+01  5.88778788913E+01  5.10999932583E-04 0.00000000000E+00  1.
       11    1    5    5    0    0 -3.05719247101E+00 -1.59580942784E+00  1.64364664179E+01  1.67943580437E+01  5.11000043823E-04 0.00000000000E+00  1.
      -11    1    5    5    0    0 -2.63904273527E+00 -2.76519076039E+00  1.08877174354E+01  1.15392035130E+01  5.10999946488E-04 0.00000000000E+00  1.
</event>
<event>
 9   2   1.0000000E+00   1.0999638E+01   7.8125000E-03   1.7424652E-01
       21   -1    0    0  501  502  0.00000000000E+00  0.00000000000E+00  2.62850069710E+03  2.62850069710E+03  0.00000000000E+00 0.00000000000E+00  1.
       21   -1    0    0  502  501  0.00000000000E+00  0.00000000000E+00 -4.60308169940E-02  4.60308169940E-02  0.00000000000E+00 0.00000000000E+00  1.
       39    2    1    2    0    0 -6.66133814775E-16  0.00000000000E+00  2.62845466628E+03  2.62854672791E+03  2.19992758568E+01 0.00000000000E+00  1.
       23    2    3    3    0    0  1.79682110652E+00  3.28781298127E+00  1.81356185210E+03  1.81359039261E+03  9.45951887537E+00 0.00000000000E+00  1.
       23    2    3    3    0    0 -1.79682110652E+00 -3.28781298127E+00  8.14892814177E+02  8.14956335300E+02  9.45999832928E+00 0.00000000000E+00  1.
       13    1    4    4    0    0  1.78506224206E+00 -6.57471905659E-01  7.54228474417E+01  7.54469071385E+01  1.05659993389E-01 0.00000000000E+00  1.
      -13    1    4    4    0    0  1.17588644589E-02  3.94528488693E+00  1.73813900466E+03  1.73814348547E+03  1.05659991413E-01 0.00000000000E+00  1.
       11    1    5    5    0    0 -3.97536198040E+00 -3.62467568028E+00  7.60299277270E+02  7.60318310180E+02  5.11226366203E-04 0.00000000000E+00  1.
      -11    1    5    5    0    0  2.17854087388E+00  3.36862699014E-01  5.45935369067E+01  5.46380251205E+01  5.10971454457E-04 0.00000000000E+00  1.
</event>
<event>
 9   2   1.0000000E+00   1.0999718E+01   7.8125000E-03   1.7424623E-01
       21   -1    0    0  501  502  0.00000000000E+00  0.00000000000E+00  3.24328215872E+02  3.24328215872E+02  0.00000000000E+00 0.00000000000E+00  1.
       21   -1    0    0  502  501  0.00000000000E+00  0.00000000000E+00 -3.73059729644E-01  3.73059729644E-01  0.00000000000E+00 0.00000000000E+00  1.
       39    2    1    2    0    0 -1.77635683940E-15  2.22044604925E-16  3.23955156142E+02  3.24701275602E+02  2.19994360409E+01 0.00000000000E+00  1.
       23    2    3    3    0    0  4.36377558364E+00  1.79617522696E+00  1.93972757843E+02  1.94316003677E+02  1.05361148950E+01 0.00000000000E+00  1.
       23    2    3    3    0    0 -4.36377558364E+00 -1.79617522696E+00  1.29982398299E+02  1.30385271924E+02  9.08991113051E+00 0.00000000000E+00  1.
       11    1    4    4    0    0  2.44543313603E+00  2.58954658610E+00  1.87162262711E+02  1.87196149741E+02  5.11012836212E-04 0.00000000000E+00  1.
      -11    1    4    4    0    0  1.91834244761E+00 -7.93371359135E-01  6.81049513246E+00  7.11985393601E+00  5.11010375092E-04 0.00000000000E+00  1.
       11    1    5    5    0    0 -6.01747660831E+00  1.40450926281E+00  9.93034417146E+01  9.94955084797E+01  5.10998597706E-04 0.00000000000E+00  1.
      -11    1    5    5    0    0  1.65370102467E+00 -3.20068448977E+00  3.06789565846E+01  3.08897634446E+01  5.11001267456E-04 0.00000000000E+00  1.
</event>
<event>
 9   2   1.0000000E+00   1.1001716E+01   7.8125000E-03   1.7423900E-01
       21   -1    0    0  501  502  0.00000000000E+00  0.00000000000E+00  7.34530866978E+01  7.34530866978E+01  0.00000000000E+00 0.00000000000E+00  1.
       21   -1    0    0  502  501  0.00000000000E+00  0.00000000000E+00 -1.64782380100E+00  1.64782380100E+00  0.00000000000E+00 0.00000000000E+00  1.
       39    2    1    2    0    0  8.88178419700E-16  1.11022302463E-16  7.18052628968E+01  7.51009104988E+01  2.20034310522E+01 0.00000000000E+00  1.
       23    2    3    3    0    0  1.40792482903E+00 -2.81457026582E-01  4.81003581091E+01  5.05548530609E+01  1.54947490268E+01 0.00000000000E+00  1.
       23    2    3    3    0    0 -1.40792482903E+00  2.81457026582E-01  2.37049047877E+01  2.45460574379E+01  6.20684737754E+00 0.00000000000E+00  1.
       13    1    4    4    0    0  2.81849809725E+00  5.09445661836E+00  4.15832466464E+01  4.19889864781E+01  1.05660000001E-01 0.00000000000E+00  1.
      -13    1    4    4    0    0 -1.41057326823E+00 -5.37591364494E+00  6.51711146265E+00  8.56586658284E+00  1.05660000001E-01 0.00000000000E+00  1.
       13    1    5    5    0    0  1.45643100772E+00  7.27722888429E-01  1.86243897744E+01  1.86957168995E+01  1.05660000000E-01 0.00000000000E+00  1.
      -13    1    5    5    0    0 -2.86435583674E+00 -4.46265861847E-01  5.08051501332E+00  5.85034053839E+00  1.05660000001E-01 0.00000000000E+00  1.
</event>
<event>
 9   2   1.0000000E+00   1.1000047E+01   7.8125000E-03   1.7424504E-01
       21   -1    0    0  501  502  0.00000000000E+00  0.00000000000E+00  3.01341669046E+00  3.01341669046E+00  0.00000000000E+00 0.00000000000E+00  1.
       21   -1    0    0  502  501  0.00000000000E+00  0.00000000000E+00 -4.01540986812E+01  4.01540986812E+01  0.00000000000E+00 0.00000000000E+00  1.
       39    2    1    2    0    0 -2.22044604925E-16 -8.88178419700E-16 -3.71406819907E+01  4.31675153717E+01  2.20000937413E+01 0.00000000000E+00  1.
       23    2    3    3    0    0  1.63805582215E+00  3.18755632626E+00 -2.70474067413E+01  2.88772898751E+01  9.46001674902E+00 0.00000000000E+00  1.
       23    2    3    3    0    0 -1.63805582215E+00 -3.18755632626E+00 -1.00932752495E+01  1.42902254966E+01  9.46005270980E+00 0.00000000000E+00  1.
       13    1    4    4    0    0  1.52269288585E+00  5.54150576609E+00 -9.01693776856E+00  1.06931384793E+01  1.05660000000E-01 0.00000000000E+00  1.
      -13    1    4    4    0    0  1.15362936301E-01 -2.35394943983E+00 -1.80304689727E+01  1.81841513957E+01  1.05660000001E-01 0.00000000000E+00  1.
       11    1    5    5    0    0 -5.17324818298E+00 -2.69012545773E+00 -3.52260584566E+00  6.81234349883E+00  5.11000019489E-04 0.00000000000E+00  1.
      -11    1    5    5    0    0  3.53519236083E+00 -4.97430868535E-01 -6.57066940383E+00  7.47788199777E+00  5.11000009060E-04 0.00000000000E+00  1.
</event>
</LesHouchesEvents>
