<LesHouchesEvents version="1.0">
<!--
Output from the JHUGenerator v7.2.7 described in arXiv:1001.3396 [hep-ph], arXiv:1208.4018 [hep-ph], arXiv:1309.4819 [hep-ph], arXiv:1606.03107 [hep-ph]
   
   Command line: ./JHUGen Process=2 PChannel=0 MReso=22 GaReso=0.001 ColliderEnergy=13 Unweighted=1 Interf=1 DataFile=$1/$2 LHAPDF=NNPDF31_nnlo_as_0118_mc_hessian_pdfas/NNPDF31_nnlo_as_0118_mc_hessian_pdfas.info bzpzp1=1,0 bzpzp5=1,0 a1=1,0 MZprime=9.46 GaZprime=0.00005 ezp_Mu_right=0.46238,0 ezp_Mu_left=0.46238,0 ezp_El_right=0.46238,0 ezp_El_left=0.46238,0 ReadCSmax VegasNc0=5000000 VegasNc2=10 Seed=1 DataFile=Out
   
   Input Parameter:
    Collider: P-P, sqrt(s)=13000.00
    Resonance: spin=2, mass=  22.00 width=   0.00100
    DecayMode1: 0  DecayMode2: 0
    Z boson: mass=91.188, width=2.4952
    Random seed:           1
    To reproduce results using this seed, JHUGen should be compiled with the same compiler:
      GNU Fortran (GCC) 8.3.1 20190225
    
    OffXVV: TTT
    WidthScheme:   2
    PChannel: 0
    LHAPDF set NNPDF31_nnlo_as_0118_mc_hessian_pdfas/NNPDF31_nnlo_as_0118_mc_hessian_pdfas.info, member=  0
    Unweighted: T
    Interference: T
    Intermediate off-shell photons: F
    
    spin-2-VV couplings: 
      generate_bis=T
      use_dynamic_MG=T
      a1 =  0.10000000E+01  0.00000000E+00i
      a2 =  0.00000000E+00  0.00000000E+00i
      a3 =  0.00000000E+00  0.00000000E+00i
      a4 =  0.00000000E+00  0.00000000E+00i
      a5 =  0.00000000E+00  0.00000000E+00i
    Z' boson: mass= 9.460, width=0.0001
      bzpzp1 =  0.10000000E+01  0.00000000E+00i
      bzpzp5 =  0.10000000E+01  0.00000000E+00i
      Lambda=  1000.0
    
    LHE output: Out.lhe
    Histogram output: Out.dat
    Log file: Out.log
    
-->
<init>
2212 2212   6500.0000000000000000    6500.0000000000000000 0 0  325300  325300  3  1
 2.4944083E+18  4.3923227E+14  1.0000000E+00   2
</init>
<event>
 9   2   1.0000000E+00   1.0998424E+01   7.8125000E-03   1.7425091E-01
       21   -1    0    0  501  502  0.00000000000E+00  0.00000000000E+00  8.26477774338E+00  8.26477774338E+00  0.00000000000E+00 0.00000000000E+00  1.
       21   -1    0    0  502  501  0.00000000000E+00  0.00000000000E+00 -1.46362459854E+01  1.46362459854E+01  0.00000000000E+00 0.00000000000E+00  1.
       39    2    1    2    0    0  8.88178419700E-16 -8.88178419700E-16 -6.37146824200E+00  2.29010237288E+01  2.19968470528E+01 0.00000000000E+00  1.
       23    2    3    3    0    0 -3.89943819259E+00 -2.02220302170E+00  4.47575772793E-01  1.04396306434E+01  9.45994929262E+00 0.00000000000E+00  1.
       23    2    3    3    0    0  3.89943819259E+00  2.02220302170E+00 -6.81904401479E+00  1.24613930854E+01  9.46002288970E+00 0.00000000000E+00  1.
       11    1    4    4    0    0 -6.67806574955E+00 -1.62262177841E+00 -1.48568020389E+00  7.03112434255E+00  5.10999990375E-04 0.00000000000E+00  1.
      -11    1    4    4    0    0  2.77862755696E+00 -3.99581243290E-01  1.93325597669E+00  3.40850630083E+00  5.10999968214E-04 0.00000000000E+00  1.
       13    1    5    5    0    0  1.89541840278E+00  5.50013349536E+00 -6.01037181603E+00  8.36539376185E+00  1.05660000000E-01 0.00000000000E+00  1.
      -13    1    5    5    0    0  2.00401978981E+00 -3.47793047366E+00 -8.08672198764E-01  4.09599932352E+00  1.05660000000E-01 0.00000000000E+00  1.
</event>
<event>
 9   2   1.0000000E+00   1.0999796E+01   7.8125000E-03   1.7424594E-01
       21   -1    0    0  501  502  0.00000000000E+00  0.00000000000E+00  1.26805064830E+02  1.26805064830E+02  0.00000000000E+00 0.00000000000E+00  1.
       21   -1    0    0  502  501  0.00000000000E+00  0.00000000000E+00 -9.54185177212E-01  9.54185177212E-01  0.00000000000E+00 0.00000000000E+00  1.
       39    2    1    2    0    0  1.77635683940E-15  0.00000000000E+00  1.25850879653E+02  1.27759250007E+02  2.19995921104E+01 0.00000000000E+00  1.
       23    2    3    3    0    0 -3.57477895866E+00  2.38443619048E+00  8.38955532706E+01  8.45365046427E+01  9.46003055347E+00 0.00000000000E+00  1.
       23    2    3    3    0    0  3.57477895866E+00 -2.38443619048E+00  4.19553263820E+01  4.32227453643E+01  9.46000657826E+00 0.00000000000E+00  1.
       11    1    4    4    0    0  3.25001908773E+00  3.63381684721E-01  2.56113787720E+01  2.58193220900E+01  5.11000933738E-04 0.00000000000E+00  1.
      -11    1    4    4    0    0 -6.82479804640E+00  2.02105450576E+00  5.82841744986E+01  5.87171825527E+01  5.10999487625E-04 0.00000000000E+00  1.
       13    1    5    5    0    0 -3.15826225732E+00 -5.25248762979E-01  9.54863561124E+00  1.00716489624E+01  1.05660000000E-01 0.00000000000E+00  1.
      -13    1    5    5    0    0  6.73304121598E+00 -1.85918742750E+00  3.24066907707E+01  3.31510964019E+01  1.05660000001E-01 0.00000000000E+00  1.
</event>
<event>
 9   2   1.0000000E+00   1.0999965E+01   7.8125000E-03   1.7424533E-01
       21   -1    0    0  501  502  0.00000000000E+00  0.00000000000E+00  4.09371112905E+01  4.09371112905E+01  0.00000000000E+00 0.00000000000E+00  1.
       21   -1    0    0  502  501  0.00000000000E+00  0.00000000000E+00 -2.95573445680E+00  2.95573445680E+00  0.00000000000E+00 0.00000000000E+00  1.
       39    2    1    2    0    0 -1.77635683940E-15  5.55111512313E-17  3.79813768337E+01  4.38928457473E+01  2.19999300365E+01 0.00000000000E+00  1.
       23    2    3    3    0    0 -4.73976074460E+00  2.68150644243E-01  2.49655283294E+01  2.71166278560E+01  9.46026769339E+00 0.00000000000E+00  1.
       23    2    3    3    0    0  4.73976074460E+00 -2.68150644243E-01  1.30158485043E+01  1.67762178913E+01  9.46001785228E+00 0.00000000000E+00  1.
       11    1    4    4    0    0 -1.49274092552E+00 -3.40309362776E+00  1.91685715392E+01  1.95254566355E+01  5.10999932583E-04 0.00000000000E+00  1.
      -11    1    4    4    0    0 -3.24701981908E+00  3.67124427200E+00  5.79695679013E+00  7.59117122044E+00  5.11000050775E-04 0.00000000000E+00  1.
       13    1    5    5    0    0 -2.84485451865E+00 -5.10519964182E-03  2.38410545350E+00  3.71326623667E+00  1.05660000000E-01 0.00000000000E+00  1.
      -13    1    5    5    0    0  7.58461526325E+00 -2.63045444601E-01  1.06317430508E+01  1.30629516547E+01  1.05660000001E-01 0.00000000000E+00  1.
</event>
<event>
 9   2   1.0000000E+00   1.1001816E+01   7.8125000E-03   1.7423864E-01
       21   -1    0    0  501  502  0.00000000000E+00  0.00000000000E+00  7.81466526961E+00  7.81466526961E+00  0.00000000000E+00 0.00000000000E+00  1.
       21   -1    0    0  502  501  0.00000000000E+00  0.00000000000E+00 -1.54888225774E+01  1.54888225774E+01  0.00000000000E+00 0.00000000000E+00  1.
       39    2    1    2    0    0 -4.44089209850E-16  0.00000000000E+00 -7.67415730784E+00  2.33034878471E+01  2.20036327785E+01 0.00000000000E+00  1.
       23    2    3    3    0    0  1.95239870052E+00 -4.38032770283E+00 -6.93371957953E+00  1.26715035307E+01  9.45998959045E+00 0.00000000000E+00  1.
       23    2    3    3    0    0 -1.95239870052E+00  4.38032770283E+00 -7.40437728316E-01  1.06319843163E+01  9.46000586698E+00 0.00000000000E+00  1.
       13    1    4    4    0    0 -1.10651431074E+00 -2.20235135617E+00  1.87276184264E+00  3.09727725119E+00  1.05660000000E-01 0.00000000000E+00  1.
      -13    1    4    4    0    0  3.05891301127E+00 -2.17797634666E+00 -8.80648142216E+00  9.57422627953E+00  1.05660000000E-01 0.00000000000E+00  1.
       11    1    5    5    0    0  3.32993966435E+00  4.08467644777E+00  1.22630875586E-01  5.27144367739E+00  5.11000024841E-04 0.00000000000E+00  1.
      -11    1    5    5    0    0 -5.28233836487E+00  2.95651255058E-01 -8.63068603902E-01  5.36054063895E+00  5.11000007865E-04 0.00000000000E+00  1.
</event>
<event>
 9   2   1.0000000E+00   1.0998356E+01   7.8125000E-03   1.7425115E-01
       21   -1    0    0  501  502  0.00000000000E+00  0.00000000000E+00  3.09983984622E+00  3.09983984622E+00  0.00000000000E+00 0.00000000000E+00  1.
       21   -1    0    0  502  501  0.00000000000E+00  0.00000000000E+00 -3.90226057700E+01  3.90226057700E+01  0.00000000000E+00 0.00000000000E+00  1.
       39    2    1    2    0    0  0.00000000000E+00  8.88178419700E-16 -3.59227659238E+01  4.21224456162E+01  2.19967114151E+01 0.00000000000E+00  1.
       23    2    3    3    0    0  4.14465898273E+00  2.90121261637E+00 -2.26032535278E+01  2.50198873256E+01  9.46004540233E+00 0.00000000000E+00  1.
       23    2    3    3    0    0 -4.14465898273E+00 -2.90121261637E+00 -1.33195123959E+01  1.71025582906E+01  9.46006643156E+00 0.00000000000E+00  1.
       13    1    4    4    0    0  2.64340515183E+00  2.79693666471E+00 -2.31099957563E+01  2.34284765488E+01  1.05659999999E-01 0.00000000000E+00  1.
      -13    1    4    4    0    0  1.50125383090E+00  1.04275951660E-01  5.06742228500E-01  1.59141077684E+00  1.05660000000E-01 0.00000000000E+00  1.
       11    1    5    5    0    0 -6.02173285503E+00  8.59594082225E-01 -5.38700981512E+00  8.12527190762E+00  5.11000009060E-04 0.00000000000E+00  1.
      -11    1    5    5    0    0  1.87707387230E+00 -3.76080669859E+00 -7.93250258082E+00  8.97728638298E+00  5.11000029918E-04 0.00000000000E+00  1.
</event>
<event>
 9   2   1.0000000E+00   1.0999824E+01   7.8125000E-03   1.7424584E-01
       21   -1    0    0  501  502  0.00000000000E+00  0.00000000000E+00  1.17636943272E+01  1.17636943272E+01  0.00000000000E+00 0.00000000000E+00  1.
       21   -1    0    0  502  501  0.00000000000E+00  0.00000000000E+00 -1.02855555946E+01  1.02855555946E+01  0.00000000000E+00 0.00000000000E+00  1.
       39    2    1    2    0    0  8.88178419700E-16 -8.88178419700E-16  1.47813873256E+00  2.20492499218E+01  2.19996483609E+01 0.00000000000E+00  1.
       23    2    3    3    0    0 -4.42279945670E+00  4.36119376164E-01  4.17518926879E+00  1.12550192936E+01  9.46001578886E+00 0.00000000000E+00  1.
       23    2    3    3    0    0  4.42279945670E+00 -4.36119376164E-01 -2.69705053623E+00  1.07942306282E+01  9.45991427629E+00 0.00000000000E+00  1.
       11    1    4    4    0    0 -4.51679177818E+00  3.82853843450E+00  6.05408975651E-02  5.92138328208E+00  5.11000000651E-04 0.00000000000E+00  1.
      -11    1    4    4    0    0  9.39923214761E-02 -3.39241905834E+00  4.11464837123E+00  5.33363601156E+00  5.11000009060E-04 0.00000000000E+00  1.
       13    1    5    5    0    0  1.11406489697E+00  3.06497141834E+00  2.19127072421E+00  3.93039715707E+00  1.05660000000E-01 0.00000000000E+00  1.
      -13    1    5    5    0    0  3.30873455973E+00 -3.50109079451E+00 -4.88832126044E+00  6.86383347110E+00  1.05660000000E-01 0.00000000000E+00  1.
</event>
<event>
 9   2   1.0000000E+00   1.0999945E+01   7.8125000E-03   1.7424541E-01
       21   -1    0    0  501  502  0.00000000000E+00  0.00000000000E+00  5.24416970670E+00  5.24416970670E+00  0.00000000000E+00 0.00000000000E+00  1.
       21   -1    0    0  502  501  0.00000000000E+00  0.00000000000E+00 -2.30730112900E+01  2.30730112900E+01  0.00000000000E+00 0.00000000000E+00  1.
       39    2    1    2    0    0  0.00000000000E+00 -8.88178419700E-16 -1.78288415833E+01  2.83171809967E+01  2.19998897133E+01 0.00000000000E+00  1.
       23    2    3    3    0    0 -2.08315940609E+00 -4.17318457659E+00 -1.29339358347E+01  1.66893577867E+01  9.46007106393E+00 0.00000000000E+00  1.
       23    2    3    3    0    0  2.08315940609E+00  4.17318457659E+00 -4.89490574867E+00  1.16278232101E+01  9.45997609378E+00 0.00000000000E+00  1.
       11    1    4    4    0    0  8.93764727135E-01  1.88953620841E+00 -8.14698568807E+00  8.41085837077E+00  5.10999988203E-04 0.00000000000E+00  1.
      -11    1    4    4    0    0 -2.97692413322E+00 -6.06272078501E+00 -4.78695014659E+00  8.27849941589E+00  5.10999967345E-04 0.00000000000E+00  1.
       13    1    5    5    0    0  2.91082243874E+00  3.80811663447E+00 -7.48133505490E+00  8.88572888462E+00  1.05660000000E-01 0.00000000000E+00  1.
      -13    1    5    5    0    0 -8.27663032654E-01  3.65067942120E-01  2.58642930623E+00  2.74209432546E+00  1.05660000000E-01 0.00000000000E+00  1.
</event>
<event>
 9   2   1.0000000E+00   1.0999867E+01   7.8125000E-03   1.7424569E-01
       21   -1    0    0  501  502  0.00000000000E+00  0.00000000000E+00  1.16575507188E+00  1.16575507188E+00  0.00000000000E+00 0.00000000000E+00  1.
       21   -1    0    0  502  501  0.00000000000E+00  0.00000000000E+00 -1.03792876494E+02  1.03792876494E+02  0.00000000000E+00 0.00000000000E+00  1.
       39    2    1    2    0    0  0.00000000000E+00  0.00000000000E+00 -1.02627121422E+02  1.04958631566E+02  2.19997338345E+01 0.00000000000E+00  1.
       23    2    3    3    0    0 -7.77865787755E-01  1.18985203193E+00 -4.87838373365E+01  4.97819876390E+01  9.81644971330E+00 0.00000000000E+00  1.
       23    2    3    3    0    0  7.77865787755E-01 -1.18985203193E+00 -5.38432840853E+01  5.51766439266E+01  1.19725507252E+01 0.00000000000E+00  1.
       11    1    5    5    0    0 -4.80430258257E+00  6.22037032601E-01 -1.22792549294E+01  1.32003164832E+01  5.10999960393E-04 0.00000000000E+00  1.
      -11    1    4    4    0    0  1.07450721881E-01  1.68167257797E+00 -4.87391243349E+01  4.87682459138E+01  5.11000377541E-04 0.00000000000E+00  1.
       11    1    4    4    0    0 -8.85316509637E-01 -4.91820546048E-01 -4.47130016106E-02  1.01374172519E+00  5.11000117494E-04 0.00000000000E+00  1.
      -11    1    5    5    0    0  5.58216837033E+00 -1.81188906453E+00 -4.15640291559E+01  4.19763274433E+01  5.10999710104E-04 0.00000000000E+00  1.
</event>
<event>
 9   2   1.0000000E+00   1.0999790E+01   7.8125000E-03   1.7424597E-01
       21   -1    0    0  501  502  0.00000000000E+00  0.00000000000E+00  7.35026785796E+00  7.35026785796E+00  0.00000000000E+00 0.00000000000E+00  1.
       21   -1    0    0  502  501  0.00000000000E+00  0.00000000000E+00 -1.64613557944E+01  1.64613557944E+01  0.00000000000E+00 0.00000000000E+00  1.
       39    2    1    2    0    0 -8.88178419700E-16 -8.88178419700E-16 -9.11108793645E+00  2.38116236524E+01  2.19995794863E+01 0.00000000000E+00  1.
       23    2    3    3    0    0 -3.85381944478E+00  4.08044231226E+00 -4.51477659101E+00  1.18902112884E+01  9.46002024514E+00 0.00000000000E+00  1.
       23    2    3    3    0    0  3.85381944478E+00 -4.08044231226E+00 -4.59631134544E+00  1.19214123640E+01  9.46002436528E+00 0.00000000000E+00  1.
       11    1    4    4    0    0 -5.47803257826E+00 -5.67495503279E-01 -4.86613900155E-01  5.52880506291E+00  5.10999988746E-04 0.00000000000E+00  1.
      -11    1    4    4    0    0  1.62421313348E+00  4.64793781554E+00 -4.02816269086E+00  6.36140622545E+00  5.10999995155E-04 0.00000000000E+00  1.
       13    1    5    5    0    0 -6.64321439353E-01 -3.67878130272E+00 -6.08834143832E+00  7.14519561336E+00  1.05660000000E-01 0.00000000000E+00  1.
      -13    1    5    5    0    0  4.51814088413E+00 -4.01661009544E-01  1.49203009288E+00  4.77621675064E+00  1.05660000000E-01 0.00000000000E+00  1.
</event>
<event>
 9   2   1.0000000E+00   1.1002755E+01   7.8125000E-03   1.7423524E-01
       21   -1    0    0  501  502  0.00000000000E+00  0.00000000000E+00  6.96633784709E+00  6.96633784709E+00  0.00000000000E+00 0.00000000000E+00  1.
       21   -1    0    0  502  501  0.00000000000E+00  0.00000000000E+00 -1.73779438413E+01  1.73779438413E+01  0.00000000000E+00 0.00000000000E+00  1.
       39    2    1    2    0    0 -3.33066907388E-16  1.77635683940E-15 -1.04116059942E+01  2.43442816884E+01  2.20055109358E+01 0.00000000000E+00  1.
       23    2    3    3    0    0 -1.15800308557E-01 -5.61675200277E+00 -5.11113888236E+00  1.21316597488E+01  9.46002721002E+00 0.00000000000E+00  1.
       23    2    3    3    0    0  1.15800308557E-01  5.61675200277E+00 -5.30046711184E+00  1.22126219396E+01  9.46001428449E+00 0.00000000000E+00  1.
       11    1    4    4    0    0  3.31421660809E+00 -1.86916850283E+00 -5.86966019399E+00  6.99505065538E+00  5.10999981250E-04 0.00000000000E+00  1.
      -11    1    4    4    0    0 -3.43001691665E+00 -3.74758349994E+00  7.58521311637E-01  5.13660909344E+00  5.11000004063E-04 0.00000000000E+00  1.
       13    1    5    5    0    0  8.57620083686E-01 -1.42053735317E+00  1.61486317305E+00  2.31784073719E+00  1.05660000000E-01 0.00000000000E+00  1.
      -13    1    5    5    0    0 -7.41819775129E-01  7.03728935594E+00 -6.91533028489E+00  9.89478120237E+00  1.05660000000E-01 0.00000000000E+00  1.
</event>
</LesHouchesEvents>
