<LesHouchesEvents version="1.0">
<!--
Output from the JHUGenerator v7.0.11 described in arXiv:1001.3396 [hep-ph], arXiv:1208.4018 [hep-ph], arXiv:1309.4819 [hep-ph], arXiv:1606.03107 [hep-ph]
   
   Command line: ./JHUGen VegasNc0=99999999 Process=61 MReso=125 ghg2=1,0 ghg4=1.00618256,0 pTjetcut=15 deltaRcut=0.3 LHAPDF=NNPDF31_lo_as_0130/NNPDF31_lo_as_0130.info ReadCSmax VegasNc2=10 Seed=1 DataFile=Out
   
   Input Parameter:
    Collider: P-P, sqrt(s)=13000.00
    Resonance: spin=0, mass= 125.00 width=   0.00407
    Jet cuts:
            pT >=    15.00 GeV
        DeltaR >=     0.30
           mJJ >=     0.00 GeV
    Random seed:           1
    To reproduce results using this seed, JHUGen should be compiled with the same compiler:
      GNU Fortran (GCC) 6.3.0
    
    WidthScheme:   2
    LHAPDF set NNPDF31_lo_as_0130/NNPDF31_lo_as_0130.info, member=  0
    Unweighted: T
    
    spin-0-VV couplings: 
      generate_as=F
      ghg2=  0.10000000E+01  0.00000000E+00i
      ghg4=  0.10061826E+01  0.00000000E+00i
      ghz1=  0.20000000E+01  0.00000000E+00i
      Lambda=  1000.0
    
    LHE output: Out.lhe
    Histogram output: Out.dat
    Log file: Out.log
    
-->
<init>
2212 2212   6500.0000000000000000    6500.0000000000000000 0 0  315200  315200  3  1
2.973377E+04 1.050604E+01 1.000000E+00 61
</init>
<event>
 5  61   1.0000000E+00   1.2500000E+02   7.8125000E-03   1.2380865E-01
       21   -1    0    0  501  502  0.00000000000E+00  0.00000000000E+00  2.27612291105E+02  2.27612291105E+02  0.00000000000E+00 0.00000000000E+00  1.
       21   -1    0    0  503  501  0.00000000000E+00  0.00000000000E+00 -6.12347609243E+01  6.12347609243E+01  0.00000000000E+00 0.00000000000E+00  1.
       21    1    1    2  504  502  1.30898975904E+00  2.97112771475E+01  1.15983961916E+02  1.19736180270E+02  0.00000000000E+00 0.00000000000E+00  1.
       21    1    1    2  503  504  7.58049489427E+00 -2.93646257824E+01  2.90391036348E+01  4.19882684817E+01  0.00000000000E+00 0.00000000000E+00  1.
       25    1    1    2    0    0 -8.88948465331E+00 -3.46651365105E-01  2.13544646306E+01  1.27122603278E+02  1.25000000000E+02 0.00000000000E+00  1.
</event>
<event>
 5  61   1.0000000E+00   1.2500000E+02   7.8125000E-03   1.2380865E-01
       21   -1    0    0  501  502  0.00000000000E+00  0.00000000000E+00  8.04312185155E+01  8.04312185155E+01  0.00000000000E+00 0.00000000000E+00  1.
       21   -1    0    0  503  501  0.00000000000E+00  0.00000000000E+00 -1.94424716536E+02  1.94424716536E+02  0.00000000000E+00 0.00000000000E+00  1.
       21    1    1    2  504  502 -3.66680940309E+00 -1.71144527865E+01  3.17408298085E+01  3.62467965800E+01  0.00000000000E+00 0.00000000000E+00  1.
       21    1    1    2  503  504  1.39584623269E+01 -3.24812309486E+01  5.71215847380E+00  3.58119782879E+01  0.00000000000E+00 0.00000000000E+00  1.
       25    1    1    2    0    0 -1.02916529238E+01  4.95956837350E+01 -1.51446486303E+02  2.02797160184E+02  1.25000000000E+02 0.00000000000E+00  1.
</event>
<event>
 5  61   1.0000000E+00   1.2500000E+02   7.8125000E-03   1.2380865E-01
       21   -1    0    0  501  502  0.00000000000E+00  0.00000000000E+00  3.14420756871E+02  3.14420756871E+02  0.00000000000E+00 0.00000000000E+00  1.
       21   -1    0    0  503  501  0.00000000000E+00  0.00000000000E+00 -4.76820067245E+01  4.76820067245E+01  0.00000000000E+00 0.00000000000E+00  1.
       21    1    1    2  504  502 -4.42701968806E+01 -4.84866998121E+01  1.22911191262E+02  1.39348381146E+02  0.00000000000E+00 0.00000000000E+00  1.
       21    1    1    2  503  504 -1.36334434948E+01 -8.23473082962E+00  3.43873060354E+01  3.78968123954E+01  0.00000000000E+00 0.00000000000E+00  1.
       25    1    1    2    0    0  5.79036403753E+01  5.67214306418E+01  1.09440252849E+02  1.84857570055E+02  1.25000000000E+02 0.00000000000E+00  1.
</event>
<event>
 5  61   1.0000000E+00   1.2500000E+02   7.8125000E-03   1.2380865E-01
       21   -1    0    0  501  502  0.00000000000E+00  0.00000000000E+00  2.27993146766E+02  2.27993146766E+02  0.00000000000E+00 0.00000000000E+00  1.
       21   -1    0    0  503  501  0.00000000000E+00  0.00000000000E+00 -3.80023594996E+02  3.80023594996E+02  0.00000000000E+00 0.00000000000E+00  1.
       21    1    1    2  504  502 -1.36591686655E+02  5.81967849988E+01  1.65383587165E+02  2.22251851625E+02  0.00000000000E+00 0.00000000000E+00  1.
       21    1    1    2  503  504 -6.26127380665E+00 -2.41060173734E+01 -2.36114604249E+01  3.43191591780E+01  0.00000000000E+00 0.00000000000E+00  1.
       25    1    1    2    0    0  1.42852960461E+02 -3.40907676254E+01 -2.93802574970E+02  3.51445730958E+02  1.25000000000E+02 0.00000000000E+00  1.
</event>
<event>
 5  61   1.0000000E+00   1.2500000E+02   7.8125000E-03   1.2380865E-01
       21   -1    0    0  501  502  0.00000000000E+00  0.00000000000E+00  6.61218243136E+01  6.61218243136E+01  0.00000000000E+00 0.00000000000E+00  1.
       21   -1    0    0  503  501  0.00000000000E+00  0.00000000000E+00 -5.08456628391E+02  5.08456628391E+02  0.00000000000E+00 0.00000000000E+00  1.
       21    1    1    2  504  502 -1.67752099464E+01 -8.40678931943E+00  2.96448607360E+01  3.50841779648E+01  0.00000000000E+00 0.00000000000E+00  1.
       21    1    1    2  503  504  2.56518895976E+01 -3.83869337218E+01 -3.65819031304E+02  3.68720951106E+02  0.00000000000E+00 0.00000000000E+00  1.
       25    1    1    2    0    0 -8.87667965117E+00  4.67937230412E+01 -1.06160633509E+02  1.70773323633E+02  1.25000000000E+02 0.00000000000E+00  1.
</event>
<event>
 5  61   1.0000000E+00   1.2500000E+02   7.8125000E-03   1.2380865E-01
       21   -1    0    0  501  502  0.00000000000E+00  0.00000000000E+00  7.12561181018E+02  7.12561181018E+02  0.00000000000E+00 0.00000000000E+00  1.
       21   -1    0    0  503  501  0.00000000000E+00  0.00000000000E+00 -7.38488955007E+01  7.38488955007E+01  0.00000000000E+00 0.00000000000E+00  1.
       21    1    1    2  504  502 -2.85031051358E+01  1.87446490756E+01 -6.01167365383E+01  6.91217106513E+01  0.00000000000E+00 0.00000000000E+00  1.
       21    1    1    2  503  504 -4.75653972899E+00  1.87106992458E+01  3.53198919654E+01  4.02518285908E+01  0.00000000000E+00 0.00000000000E+00  1.
       25    1    1    2    0    0  3.32596448648E+01 -3.74553483213E+01  6.63509130091E+02  6.77036537277E+02  1.25000000000E+02 0.00000000000E+00  1.
</event>
<event>
 5  61   1.0000000E+00   1.2500000E+02   7.8125000E-03   1.2380865E-01
       21   -1    0    0  501  502  0.00000000000E+00  0.00000000000E+00  4.21342425147E+02  4.21342425147E+02  0.00000000000E+00 0.00000000000E+00  1.
       21   -1    0    0  503  501  0.00000000000E+00  0.00000000000E+00 -2.90347453483E+03  2.90347453483E+03  0.00000000000E+00 0.00000000000E+00  1.
       21    1    1    2  504  502  5.00098104331E+01  1.70249721873E+01 -8.50456899606E+01  1.00117931453E+02  0.00000000000E+00 0.00000000000E+00  1.
       21    1    1    2  503  504 -2.14496032130E+02  3.52901041771E+02  2.89863093226E+02  5.04547625004E+02  0.00000000000E+00 0.00000000000E+00  1.
       25    1    1    2    0    0  1.64486221697E+02 -3.69926013959E+02 -2.68694951295E+03  2.72015140352E+03  1.25000000000E+02 0.00000000000E+00  1.
</event>
<event>
 5  61   1.0000000E+00   1.2500000E+02   7.8125000E-03   1.2380865E-01
        1   -1    0    0  501    0  0.00000000000E+00  0.00000000000E+00  4.16360196661E+02  4.16360196661E+02  0.00000000000E+00 0.00000000000E+00  1.
       21   -1    0    0  502  501  0.00000000000E+00  0.00000000000E+00 -2.47223292341E+01  2.47223292341E+01  0.00000000000E+00 0.00000000000E+00  1.
       21    1    1    2  502  503 -1.82111658548E+01 -1.68165900328E+00  2.33334720420E+01  2.96466769863E+01  0.00000000000E+00 0.00000000000E+00  1.
        1    1    1    2  503    0 -1.21992529553E+01 -1.89555283046E+01  1.85987180908E+02  1.87348246024E+02  0.00000000000E+00 0.00000000000E+00  1.
       25    1    1    2    0    0  3.04104188101E+01  2.06371873079E+01  1.82317214476E+02  2.24087602885E+02  1.25000000000E+02 0.00000000000E+00  1.
</event>
<event>
 5  61   1.0000000E+00   1.2500000E+02   7.8125000E-03   1.2380865E-01
        1   -1    0    0  501    0  0.00000000000E+00  0.00000000000E+00  2.77402323542E+03  2.77402323542E+03  0.00000000000E+00 0.00000000000E+00  1.
       21   -1    0    0  502  501  0.00000000000E+00  0.00000000000E+00 -1.43310078789E+02  1.43310078789E+02  0.00000000000E+00 0.00000000000E+00  1.
       21    1    1    2  502  503  1.53965302101E+01 -6.63845018737E+00  7.59906363021E+02  7.60091312096E+02  0.00000000000E+00 0.00000000000E+00  1.
        1    1    1    2  503    0 -1.87150107117E+00  2.23697938048E+01  1.98592230971E+03  1.98604917623E+03  0.00000000000E+00 0.00000000000E+00  1.
       25    1    1    2    0    0 -1.35250291390E+01 -1.57313436175E+01 -1.15115516105E+02  1.71192825881E+02  1.25000000000E+02 0.00000000000E+00  1.
</event>
<event>
 5  61   1.0000000E+00   1.2500000E+02   7.8125000E-03   1.2380865E-01
       -2   -1    0    0    0  501  0.00000000000E+00  0.00000000000E+00  2.83942865847E+02  2.83942865847E+02  0.00000000000E+00 0.00000000000E+00  1.
       21   -1    0    0  501  502  0.00000000000E+00  0.00000000000E+00 -2.48146356989E+02  2.48146356989E+02  0.00000000000E+00 0.00000000000E+00  1.
       21    1    1    2  503  502  9.83674153793E+01 -1.51633407046E+02  4.35701116888E+01  1.85922546167E+02  0.00000000000E+00 0.00000000000E+00  1.
       -2    1    1    2    0  503 -2.14787807454E+01  8.44191690395E+00  1.08178605382E+02  1.10612904517E+02  0.00000000000E+00 0.00000000000E+00  1.
       25    1    1    2    0    0 -7.68886346340E+01  1.43191490142E+02 -1.15952208213E+02  2.35553772151E+02  1.25000000000E+02 0.00000000000E+00  1.
</event>
<event>
 5  61   1.0000000E+00   1.2500000E+02   7.8125000E-03   1.2380865E-01
       21   -1    0    0  501  502  0.00000000000E+00  0.00000000000E+00  4.92809640571E+01  4.92809640571E+01  0.00000000000E+00 0.00000000000E+00  1.
       21   -1    0    0  503  501  0.00000000000E+00  0.00000000000E+00 -5.82208453138E+02  5.82208453138E+02  0.00000000000E+00 0.00000000000E+00  1.
       21    1    1    2  504  502 -1.67684605479E+01 -3.66102297607E+01 -3.09759004611E+01  5.08035097375E+01  0.00000000000E+00 0.00000000000E+00  1.
       21    1    1    2  503  504 -4.93161025619E+01 -4.66869826518E+01 -3.51666698503E+02  3.58163676491E+02  0.00000000000E+00 0.00000000000E+00  1.
       25    1    1    2    0    0  6.60845631098E+01  8.32972124126E+01 -1.50284890116E+02  2.22522230966E+02  1.25000000000E+02 0.00000000000E+00  1.
</event>
<event>
 5  61   1.0000000E+00   1.2500000E+02   7.8125000E-03   1.2380865E-01
        1   -1    0    0  501    0  0.00000000000E+00  0.00000000000E+00  2.68152887073E+03  2.68152887073E+03  0.00000000000E+00 0.00000000000E+00  1.
       21   -1    0    0  502  501  0.00000000000E+00  0.00000000000E+00 -9.30258831903E+01  9.30258831903E+01  0.00000000000E+00 0.00000000000E+00  1.
       21    1    1    2  502  503 -1.74865112563E+01  4.56625102978E-01  2.72250633306E+01  3.23603253345E+01  0.00000000000E+00 0.00000000000E+00  1.
        1    1    1    2  503    0 -1.41520489786E+02  8.76240975541E+01  2.51025319244E+03  2.51576571279E+03  0.00000000000E+00 0.00000000000E+00  1.
       25    1    1    2    0    0  1.59007001043E+02 -8.80807226571E+01  5.10247317696E+01  2.26428715795E+02  1.25000000000E+02 0.00000000000E+00  1.
</event>
<event>
 5  61   1.0000000E+00   1.2500000E+02   7.8125000E-03   1.2380865E-01
       21   -1    0    0  501  502  0.00000000000E+00  0.00000000000E+00  2.15941027222E+02  2.15941027222E+02  0.00000000000E+00 0.00000000000E+00  1.
       21   -1    0    0  503  501  0.00000000000E+00  0.00000000000E+00 -1.91563681412E+02  1.91563681412E+02  0.00000000000E+00 0.00000000000E+00  1.
       21    1    1    2  504  502  4.55067313356E+00 -5.13682042251E+01  4.70038540894E+01  6.97765242079E+01  0.00000000000E+00 0.00000000000E+00  1.
       21    1    1    2  503  504 -8.62042824326E+01 -3.88393599734E+01  8.96358421996E+01  1.30285296176E+02  0.00000000000E+00 0.00000000000E+00  1.
       25    1    1    2    0    0  8.16536092990E+01  9.02075641985E+01 -1.12262350479E+02  2.07442888249E+02  1.25000000000E+02 0.00000000000E+00  1.
</event>
<event>
 5  61   1.0000000E+00   1.2500000E+02   7.8125000E-03   1.2380865E-01
       21   -1    0    0  501  502  0.00000000000E+00  0.00000000000E+00  2.92268721139E+02  2.92268721139E+02  0.00000000000E+00 0.00000000000E+00  1.
       21   -1    0    0  503  501  0.00000000000E+00  0.00000000000E+00 -2.08641621138E+02  2.08641621138E+02  0.00000000000E+00 0.00000000000E+00  1.
       21    1    1    2  504  502  2.46810422145E+01  1.28894928693E+01  2.41501266700E+02  2.43101120296E+02  0.00000000000E+00 0.00000000000E+00  1.
       21    1    1    2  503  504  4.78145608340E-01 -4.08931711200E+01 -1.12336573147E+02  1.19549093404E+02  0.00000000000E+00 0.00000000000E+00  1.
       25    1    1    2    0    0 -2.51591878228E+01  2.80036782507E+01 -4.55375935526E+01  1.38260128577E+02  1.25000000000E+02 0.00000000000E+00  1.
</event>
<event>
 5  61   1.0000000E+00   1.2500000E+02   7.8125000E-03   1.2380865E-01
       21   -1    0    0  501  502  0.00000000000E+00  0.00000000000E+00  2.57206591959E+02  2.57206591959E+02  0.00000000000E+00 0.00000000000E+00  1.
       21   -1    0    0  503  501  0.00000000000E+00  0.00000000000E+00 -7.04867503678E+01  7.04867503678E+01  0.00000000000E+00 0.00000000000E+00  1.
       21    1    1    2  504  502  4.58359571442E+01 -1.38331163600E+01  1.13472962935E+01  4.92041787730E+01  0.00000000000E+00 0.00000000000E+00  1.
       21    1    1    2  503  504  4.13783500493E+01  4.21158626259E+01  3.11506096119E+01  6.67553309985E+01  0.00000000000E+00 0.00000000000E+00  1.
       25    1    1    2    0    0 -8.72143071935E+01 -2.82827462659E+01  1.44221935686E+02  2.11733832555E+02  1.25000000000E+02 0.00000000000E+00  1.
</event>
<event>
 5  61   1.0000000E+00   1.2500000E+02   7.8125000E-03   1.2380865E-01
       21   -1    0    0  501  502  0.00000000000E+00  0.00000000000E+00  5.24384727142E+01  5.24384727142E+01  0.00000000000E+00 0.00000000000E+00  1.
       21   -1    0    0  503  501  0.00000000000E+00  0.00000000000E+00 -1.16765978458E+03  1.16765978458E+03  0.00000000000E+00 0.00000000000E+00  1.
       21    1    1    2  504  502 -1.55508936466E+01  4.12091232984E-02 -1.62429833645E+02  1.63172555441E+02  0.00000000000E+00 0.00000000000E+00  1.
       21    1    1    2  503  504 -1.08315734182E+02 -1.01945716130E+01 -8.41410480867E+02  8.48414889588E+02  0.00000000000E+00 0.00000000000E+00  1.
       25    1    1    2    0    0  1.23866627828E+02  1.01533624897E+01 -1.11380997352E+02  2.08510812263E+02  1.25000000000E+02 0.00000000000E+00  1.
</event>
<event>
 5  61   1.0000000E+00   1.2500000E+02   7.8125000E-03   1.2380865E-01
       21   -1    0    0  501  502  0.00000000000E+00  0.00000000000E+00  8.83587759289E+02  8.83587759289E+02  0.00000000000E+00 0.00000000000E+00  1.
       21   -1    0    0  503  501  0.00000000000E+00  0.00000000000E+00 -5.05727668441E+01  5.05727668441E+01  0.00000000000E+00 0.00000000000E+00  1.
       21    1    1    2  504  502 -1.00711735794E+02 -7.03501550337E+01  2.26416321176E+02  2.57597260340E+02  0.00000000000E+00 0.00000000000E+00  1.
       21    1    1    2  503  504 -1.68683996375E+01  9.08017900790E-01  3.95204655134E+02  3.95565527874E+02  0.00000000000E+00 0.00000000000E+00  1.
       25    1    1    2    0    0  1.17580135432E+02  6.94421371329E+01  2.11394016135E+02  2.80997737918E+02  1.25000000000E+02 0.00000000000E+00  1.
</event>
<event>
 5  61   1.0000000E+00   1.2500000E+02   7.8125000E-03   1.2380865E-01
       21   -1    0    0  501  502  0.00000000000E+00  0.00000000000E+00  1.10432736692E+03  1.10432736692E+03  0.00000000000E+00 0.00000000000E+00  1.
       21   -1    0    0  503  501  0.00000000000E+00  0.00000000000E+00 -2.46921196152E+02  2.46921196152E+02  0.00000000000E+00 0.00000000000E+00  1.
       21    1    1    2  504  502 -9.33918022422E+00  3.03612224414E+01 -8.16771513074E-01  3.17756389566E+01  0.00000000000E+00 0.00000000000E+00  1.
       21    1    1    2  503  504  3.54876633524E+00 -3.04450843233E+01 -2.25991796377E+02  2.28060932498E+02  0.00000000000E+00 0.00000000000E+00  1.
       25    1    1    2    0    0  5.79041388898E+00  8.38618819836E-02  1.08421473866E+03  1.09141199162E+03  1.25000000000E+02 0.00000000000E+00  1.
</event>
<event>
 5  61   1.0000000E+00   1.2500000E+02   7.8125000E-03   1.2380865E-01
       21   -1    0    0  501  502  0.00000000000E+00  0.00000000000E+00  3.75376126431E+01  3.75376126431E+01  0.00000000000E+00 0.00000000000E+00  1.
       -2   -1    0    0    0  501  0.00000000000E+00  0.00000000000E+00 -8.49174739320E+02  8.49174739320E+02  0.00000000000E+00 0.00000000000E+00  1.
       21    1    1    2  503  502 -6.26399459118E+00  1.46450941803E+01 -3.88763783557E+01  4.20129647353E+01  0.00000000000E+00 0.00000000000E+00  1.
       -2    1    1    2    0  503 -1.34287106858E+02  2.82891911269E+01 -2.20607412647E+02  2.59809422303E+02  0.00000000000E+00 0.00000000000E+00  1.
       25    1    1    2    0    0  1.40551101449E+02 -4.29342853072E+01 -5.52153335675E+02  5.84889964925E+02  1.25000000000E+02 0.00000000000E+00  1.
</event>
<event>
 5  61   1.0000000E+00   1.2500000E+02   7.8125000E-03   1.2380865E-01
       21   -1    0    0  501  502  0.00000000000E+00  0.00000000000E+00  6.97132936371E+02  6.97132936371E+02  0.00000000000E+00 0.00000000000E+00  1.
       21   -1    0    0  503  501  0.00000000000E+00  0.00000000000E+00 -6.76285940743E+02  6.76285940743E+02  0.00000000000E+00 0.00000000000E+00  1.
       21    1    1    2  504  502  3.24855103275E+00 -1.69575890226E+01  4.83022618806E+02  4.83331111339E+02  0.00000000000E+00 0.00000000000E+00  1.
       21    1    1    2  503  504 -5.46099788339E+01  4.29079475923E+00 -6.53342431156E+02  6.55634801590E+02  0.00000000000E+00 0.00000000000E+00  1.
       25    1    1    2    0    0  5.13614278011E+01  1.26667942633E+01  1.91166807977E+02  2.34452964184E+02  1.25000000000E+02 0.00000000000E+00  1.
</event>
<event>
 5  61   1.0000000E+00   1.2500000E+02   7.8125000E-03   1.2380865E-01
       21   -1    0    0  501  502  0.00000000000E+00  0.00000000000E+00  6.46459028131E+01  6.46459028131E+01  0.00000000000E+00 0.00000000000E+00  1.
       21   -1    0    0  503  501  0.00000000000E+00  0.00000000000E+00 -3.02259641586E+02  3.02259641586E+02  0.00000000000E+00 0.00000000000E+00  1.
       21    1    1    2  504  502  2.30795885107E+01 -2.44367935786E+01 -4.87942051117E+01  5.92511496826E+01  0.00000000000E+00 0.00000000000E+00  1.
       21    1    1    2  503  504 -8.06305999804E+01 -7.25630903231E-01 -1.36028069194E+02  1.58131134828E+02  0.00000000000E+00 0.00000000000E+00  1.
       25    1    1    2    0    0  5.75510114697E+01  2.51624244818E+01 -5.27914644670E+01  1.49523259888E+02  1.25000000000E+02 0.00000000000E+00  1.
</event>
<event>
 5  61   1.0000000E+00   1.2500000E+02   7.8125000E-03   1.2380865E-01
       21   -1    0    0  501  502  0.00000000000E+00  0.00000000000E+00  5.35938338990E+02  5.35938338990E+02  0.00000000000E+00 0.00000000000E+00  1.
       21   -1    0    0  503  501  0.00000000000E+00  0.00000000000E+00 -1.23441932852E+02  1.23441932852E+02  0.00000000000E+00 0.00000000000E+00  1.
        3    1    1    2  503    0  1.69496663661E+01 -2.52151618412E+01 -5.99764961209E+01  6.72329953485E+01  0.00000000000E+00 0.00000000000E+00  1.
       -3    1    1    2    0  502  6.82109730266E+00 -1.73115722385E+01 -4.96719507861E+01  5.30426299940E+01  0.00000000000E+00 0.00000000000E+00  1.
       25    1    1    2    0    0 -2.37707636688E+01  4.25267340796E+01  5.22144853044E+02  5.39104646500E+02  1.25000000000E+02 0.00000000000E+00  1.
</event>
<event>
 5  61   1.0000000E+00   1.2500000E+02   7.8125000E-03   1.2380865E-01
       21   -1    0    0  501  502  0.00000000000E+00  0.00000000000E+00  3.76948611032E+02  3.76948611032E+02  0.00000000000E+00 0.00000000000E+00  1.
       21   -1    0    0  503  501  0.00000000000E+00  0.00000000000E+00 -2.47371096489E+02  2.47371096489E+02  0.00000000000E+00 0.00000000000E+00  1.
       21    1    1    2  504  502 -1.60730751669E+01  8.72774423814E+00  3.82136982135E+01  4.23651271208E+01  0.00000000000E+00 0.00000000000E+00  1.
       21    1    1    2  503  504  5.31856892312E+01 -2.67207237020E+01 -2.28468846778E+02  2.36094744885E+02  0.00000000000E+00 0.00000000000E+00  1.
       25    1    1    2    0    0 -3.71126140643E+01  1.79929794638E+01  3.19832663107E+02  3.45859835515E+02  1.25000000000E+02 0.00000000000E+00  1.
</event>
<event>
 5  61   1.0000000E+00   1.2500000E+02   7.8125000E-03   1.2380865E-01
       21   -1    0    0  501  502  0.00000000000E+00  0.00000000000E+00  9.05451520004E+02  9.05451520004E+02  0.00000000000E+00 0.00000000000E+00  1.
       21   -1    0    0  503  501  0.00000000000E+00  0.00000000000E+00 -2.59910809154E+01  2.59910809154E+01  0.00000000000E+00 0.00000000000E+00  1.
       21    1    1    2  504  502  3.29470314679E+01 -1.34714949216E+01  5.33976649510E+02  5.35161704795E+02  0.00000000000E+00 0.00000000000E+00  1.
       21    1    1    2  503  504  1.45689211920E+01 -1.04658682764E+01  1.85642641386E+02  1.86507313970E+02  0.00000000000E+00 0.00000000000E+00  1.
       25    1    1    2    0    0 -4.75159526599E+01  2.39373631980E+01  1.59841148192E+02  2.09773582154E+02  1.25000000000E+02 0.00000000000E+00  1.
</event>
<event>
 5  61   1.0000000E+00   1.2500000E+02   7.8125000E-03   1.2380865E-01
       21   -1    0    0  501  502  0.00000000000E+00  0.00000000000E+00  2.29736440338E+02  2.29736440338E+02  0.00000000000E+00 0.00000000000E+00  1.
       21   -1    0    0  503  501  0.00000000000E+00  0.00000000000E+00 -4.23219841299E+02  4.23219841299E+02  0.00000000000E+00 0.00000000000E+00  1.
       21    1    1    2  504  502 -2.97645958881E+01 -9.35305360227E+00 -3.05881341261E+02  3.07468381645E+02  0.00000000000E+00 0.00000000000E+00  1.
       21    1    1    2  503  504 -2.99189644786E+01 -1.67592898797E+00  1.85893054174E+02  1.88292805926E+02  0.00000000000E+00 0.00000000000E+00  1.
       25    1    1    2    0    0  5.96835603667E+01  1.10289825902E+01 -7.34951138741E+01  1.57195094066E+02  1.25000000000E+02 0.00000000000E+00  1.
</event>
<event>
 5  61   1.0000000E+00   1.2500000E+02   7.8125000E-03   1.2380865E-01
       21   -1    0    0  501  502  0.00000000000E+00  0.00000000000E+00  1.32523516714E+02  1.32523516714E+02  0.00000000000E+00 0.00000000000E+00  1.
       21   -1    0    0  503  501  0.00000000000E+00  0.00000000000E+00 -1.74109585677E+02  1.74109585677E+02  0.00000000000E+00 0.00000000000E+00  1.
       21    1    1    2  504  502 -1.64060590274E+01 -2.74205172206E+00 -7.29721862208E+00  1.81638933072E+01  0.00000000000E+00 0.00000000000E+00  1.
       21    1    1    2  503  504  2.58234475149E+01  1.02679453451E+02  3.81590283557E+01  1.12543467369E+02  0.00000000000E+00 0.00000000000E+00  1.
       25    1    1    2    0    0 -9.41738848749E+00 -9.99374017285E+01 -7.24478786973E+01  1.75925741715E+02  1.25000000000E+02 0.00000000000E+00  1.
</event>
<event>
 5  61   1.0000000E+00   1.2500000E+02   7.8125000E-03   1.2380865E-01
       21   -1    0    0  502  501  0.00000000000E+00  0.00000000000E+00  7.70602086082E+01  7.70602086082E+01  0.00000000000E+00 0.00000000000E+00  1.
        2   -1    0    0  501    0  0.00000000000E+00  0.00000000000E+00 -9.30338125973E+02  9.30338125973E+02  0.00000000000E+00 0.00000000000E+00  1.
       21    1    1    2  502  503 -4.52712095058E+01  3.95044546257E+01 -5.01194968961E+01  7.82435193132E+01  0.00000000000E+00 0.00000000000E+00  1.
        2    1    1    2  503    0  1.06351212409E+02  4.53293463295E+01 -7.48361280405E+02  7.57238361436E+02  0.00000000000E+00 0.00000000000E+00  1.
       25    1    1    2    0    0 -6.10800029034E+01 -8.48338009552E+01 -5.47971400630E+01  1.71916453832E+02  1.25000000000E+02 0.00000000000E+00  1.
</event>
<event>
 5  61   1.0000000E+00   1.2500000E+02   7.8125000E-03   1.2380865E-01
       21   -1    0    0  501  502  0.00000000000E+00  0.00000000000E+00  5.32429412708E+00  5.32429412708E+00  0.00000000000E+00 0.00000000000E+00  1.
       21   -1    0    0  503  501  0.00000000000E+00  0.00000000000E+00 -2.62445286965E+03  2.62445286965E+03  0.00000000000E+00 0.00000000000E+00  1.
       21    1    1    2  504  502  1.33743445632E+01 -9.98890448147E+00 -3.93458981778E+02  3.93812927222E+02  0.00000000000E+00 0.00000000000E+00  1.
       21    1    1    2  503  504 -2.80919266856E+01  9.06612779843E+00 -1.43788264355E+03  1.43818560959E+03  0.00000000000E+00 0.00000000000E+00  1.
       25    1    1    2    0    0  1.47175821223E+01  9.22776683041E-01 -7.87786950195E+02  7.97778626963E+02  1.25000000000E+02 0.00000000000E+00  1.
</event>
<event>
 5  61   1.0000000E+00   1.2500000E+02   7.8125000E-03   1.2380865E-01
       21   -1    0    0  501  502  0.00000000000E+00  0.00000000000E+00  2.61068543294E+02  2.61068543294E+02  0.00000000000E+00 0.00000000000E+00  1.
       21   -1    0    0  503  501  0.00000000000E+00  0.00000000000E+00 -3.82304129908E+02  3.82304129908E+02  0.00000000000E+00 0.00000000000E+00  1.
       21    1    1    2  504  502 -6.83961379891E+00  2.20149452665E+01 -3.48455082061E+02  3.49216812806E+02  0.00000000000E+00 0.00000000000E+00  1.
       21    1    1    2  503  504  5.25781053560E+00  1.57416460375E+01  1.30752223165E+02  1.31801319622E+02  0.00000000000E+00 0.00000000000E+00  1.
       25    1    1    2    0    0  1.58180326331E+00 -3.77565913040E+01  9.64672722826E+01  1.62354540775E+02  1.25000000000E+02 0.00000000000E+00  1.
</event>
<event>
 5  61   1.0000000E+00   1.2500000E+02   7.8125000E-03   1.2380865E-01
       21   -1    0    0  501  502  0.00000000000E+00  0.00000000000E+00  2.32790454832E+02  2.32790454832E+02  0.00000000000E+00 0.00000000000E+00  1.
       21   -1    0    0  503  501  0.00000000000E+00  0.00000000000E+00 -4.44918674364E+01  4.44918674364E+01  0.00000000000E+00 0.00000000000E+00  1.
       21    1    1    2  504  502  1.58858848007E+01  2.67952718897E+00 -4.83460433654E+00  1.68200654264E+01  0.00000000000E+00 0.00000000000E+00  1.
       21    1    1    2  503  504  2.55639688189E+01 -3.00693314944E+01  3.39766807261E+01  5.20777882735E+01  0.00000000000E+00 0.00000000000E+00  1.
       25    1    1    2    0    0 -4.14498536195E+01  2.73898043055E+01  1.59156511006E+02  2.08384468569E+02  1.25000000000E+02 0.00000000000E+00  1.
</event>
<event>
 5  61   1.0000000E+00   1.2500000E+02   7.8125000E-03   1.2380865E-01
       21   -1    0    0  501  502  0.00000000000E+00  0.00000000000E+00  1.45804069786E+02  1.45804069786E+02  0.00000000000E+00 0.00000000000E+00  1.
       21   -1    0    0  503  501  0.00000000000E+00  0.00000000000E+00 -4.40272742217E+02  4.40272742217E+02  0.00000000000E+00 0.00000000000E+00  1.
       21    1    1    2  504  502  1.39986461235E+01  1.54387631059E+01 -1.05126058856E+02  1.07171851482E+02  0.00000000000E+00 0.00000000000E+00  1.
       21    1    1    2  503  504  5.38550518364E+01  1.15245779956E+02  7.79021378501E+01  1.49166683571E+02  0.00000000000E+00 0.00000000000E+00  1.
       25    1    1    2    0    0 -6.78536979599E+01 -1.30684543061E+02 -2.67244751425E+02  3.29738276950E+02  1.25000000000E+02 0.00000000000E+00  1.
</event>
<event>
 5  61   1.0000000E+00   1.2500000E+02   7.8125000E-03   1.2380865E-01
       21   -1    0    0  501  502  0.00000000000E+00  0.00000000000E+00  3.73114797505E+02  3.73114797505E+02  0.00000000000E+00 0.00000000000E+00  1.
       21   -1    0    0  503  501  0.00000000000E+00  0.00000000000E+00 -2.55938054547E+01  2.55938054547E+01  0.00000000000E+00 0.00000000000E+00  1.
       21    1    1    2  504  502 -2.06386979633E+01  1.70184870871E+01  8.04806752254E+01  8.48099277272E+01  0.00000000000E+00 0.00000000000E+00  1.
       21    1    1    2  503  504 -1.10543328782E+01  1.87050047596E+01  8.64318549096E+01  8.91209348108E+01  0.00000000000E+00 0.00000000000E+00  1.
       25    1    1    2    0    0  3.16930308414E+01 -3.57234918466E+01  1.80608461915E+02  2.24777740421E+02  1.25000000000E+02 0.00000000000E+00  1.
</event>
<event>
 5  61   1.0000000E+00   1.2500000E+02   7.8125000E-03   1.2380865E-01
       21   -1    0    0  501  502  0.00000000000E+00  0.00000000000E+00  4.43888553663E+02  4.43888553663E+02  0.00000000000E+00 0.00000000000E+00  1.
       21   -1    0    0  503  501  0.00000000000E+00  0.00000000000E+00 -1.49736388333E+02  1.49736388333E+02  0.00000000000E+00 0.00000000000E+00  1.
       21    1    1    2  504  502 -1.61320820299E+01  1.35164438519E+01 -9.28519610960E+01  9.52072739049E+01  0.00000000000E+00 0.00000000000E+00  1.
       21    1    1    2  503  504  2.54451778783E+01  1.86365215476E+01  3.65955814973E+02  3.67312449456E+02  0.00000000000E+00 0.00000000000E+00  1.
       25    1    1    2    0    0 -9.31309584838E+00 -3.21529653994E+01  2.10483114521E+01  1.31105218635E+02  1.25000000000E+02 0.00000000000E+00  1.
</event>
<event>
 5  61   1.0000000E+00   1.2500000E+02   7.8125000E-03   1.2380865E-01
       21   -1    0    0  501  502  0.00000000000E+00  0.00000000000E+00  2.44663608660E+02  2.44663608660E+02  0.00000000000E+00 0.00000000000E+00  1.
       21   -1    0    0  503  501  0.00000000000E+00  0.00000000000E+00 -4.39797768884E+02  4.39797768884E+02  0.00000000000E+00 0.00000000000E+00  1.
       21    1    1    2  504  502 -8.15982056267E+00 -7.68285923983E+01  2.13689259763E+02  2.27227452170E+02  0.00000000000E+00 0.00000000000E+00  1.
       21    1    1    2  503  504 -1.64763389392E+01 -7.04667008955E+00  2.90911888686E+00  1.81545662820E+01  0.00000000000E+00 0.00000000000E+00  1.
       25    1    1    2    0    0  2.46361595019E+01  8.38752624878E+01 -4.11732538875E+02  4.39079359092E+02  1.25000000000E+02 0.00000000000E+00  1.
</event>
<event>
 5  61   1.0000000E+00   1.2500000E+02   7.8125000E-03   1.2380865E-01
       21   -1    0    0  501  502  0.00000000000E+00  0.00000000000E+00  9.68766724145E+02  9.68766724145E+02  0.00000000000E+00 0.00000000000E+00  1.
       21   -1    0    0  503  501  0.00000000000E+00  0.00000000000E+00 -3.52511299940E+01  3.52511299940E+01  0.00000000000E+00 0.00000000000E+00  1.
       21    1    1    2  504  502  1.21345726792E+02  7.74921993956E+01  3.95890334922E+02  4.21258808409E+02  0.00000000000E+00 0.00000000000E+00  1.
       21    1    1    2  503  504  3.68576257334E+00  2.12377202223E+01  6.80448382483E+01  7.13773466741E+01  0.00000000000E+00 0.00000000000E+00  1.
       25    1    1    2    0    0 -1.25031489365E+02 -9.87299196179E+01  4.69580420981E+02  5.11381699056E+02  1.25000000000E+02 0.00000000000E+00  1.
</event>
<event>
 5  61   1.0000000E+00   1.2500000E+02   7.8125000E-03   1.2380865E-01
       21   -1    0    0  501  502  0.00000000000E+00  0.00000000000E+00  7.96339317079E+01  7.96339317079E+01  0.00000000000E+00 0.00000000000E+00  1.
       21   -1    0    0  503  501  0.00000000000E+00  0.00000000000E+00 -1.18212594007E+02  1.18212594007E+02  0.00000000000E+00 0.00000000000E+00  1.
       21    1    1    2  504  502  8.28030859462E+00  2.80587976196E+01  2.13867252963E+01  3.62388141801E+01  0.00000000000E+00 0.00000000000E+00  1.
       21    1    1    2  503  504  3.73577768225E+00 -1.78710919566E+01  6.22565396681E+00  1.92896534423E+01  0.00000000000E+00 0.00000000000E+00  1.
       25    1    1    2    0    0 -1.20160862769E+01 -1.01877056630E+01 -6.61910415622E+01  1.42318058092E+02  1.25000000000E+02 0.00000000000E+00  1.
</event>
<event>
 5  61   1.0000000E+00   1.2500000E+02   7.8125000E-03   1.2380865E-01
       21   -1    0    0  501  502  0.00000000000E+00  0.00000000000E+00  7.48279883409E+02  7.48279883409E+02  0.00000000000E+00 0.00000000000E+00  1.
       21   -1    0    0  503  501  0.00000000000E+00  0.00000000000E+00 -1.33375031340E+03  1.33375031340E+03  0.00000000000E+00 0.00000000000E+00  1.
       21    1    1    2  504  502 -2.69007118534E+02  9.29897317199E+02 -2.85516102004E+02  1.00925383074E+03  0.00000000000E+00 0.00000000000E+00  1.
       21    1    1    2  503  504 -1.56232835858E+01  2.27369899628E+01 -1.25080994644E+01  3.02904317365E+01  0.00000000000E+00 0.00000000000E+00  1.
       25    1    1    2    0    0  2.84630402120E+02 -9.52634307162E+02 -2.87446228523E+02  1.04248593433E+03  1.25000000000E+02 0.00000000000E+00  1.
</event>
<event>
 5  61   1.0000000E+00   1.2500000E+02   7.8125000E-03   1.2380865E-01
       21   -1    0    0  501  502  0.00000000000E+00  0.00000000000E+00  2.77948720558E+02  2.77948720558E+02  0.00000000000E+00 0.00000000000E+00  1.
       21   -1    0    0  503  501  0.00000000000E+00  0.00000000000E+00 -9.08375248319E+01  9.08375248319E+01  0.00000000000E+00 0.00000000000E+00  1.
       21    1    1    2  504  502 -3.43879757394E-01  1.82133590460E+01  6.55509934428E+00  1.93601143705E+01  0.00000000000E+00 0.00000000000E+00  1.
       21    1    1    2  503  504 -4.29816798507E+00 -7.38569002793E+01  1.98042336992E+02  2.11409751923E+02  0.00000000000E+00 0.00000000000E+00  1.
       25    1    1    2    0    0  4.64204774247E+00  5.56435412333E+01 -1.74862406102E+01  1.38016379096E+02  1.25000000000E+02 0.00000000000E+00  1.
</event>
<event>
 5  61   1.0000000E+00   1.2500000E+02   7.8125000E-03   1.2380865E-01
       21   -1    0    0  501  502  0.00000000000E+00  0.00000000000E+00  7.98971795981E+01  7.98971795981E+01  0.00000000000E+00 0.00000000000E+00  1.
       21   -1    0    0  503  501  0.00000000000E+00  0.00000000000E+00 -1.45197758964E+03  1.45197758964E+03  0.00000000000E+00 0.00000000000E+00  1.
       21    1    1    2  504  502 -1.62310928000E+01  2.74874378909E+01 -1.00221846411E+03  1.00272671123E+03  0.00000000000E+00 0.00000000000E+00  1.
       21    1    1    2  503  504  1.06875952359E+01  1.31012026481E+01 -3.94885713895E+02  3.95247508836E+02  0.00000000000E+00 0.00000000000E+00  1.
       25    1    1    2    0    0  5.54349756416E+00 -4.05886405389E+01  2.50237679596E+01  1.33900549173E+02  1.25000000000E+02 0.00000000000E+00  1.
</event>
<event>
 5  61   1.0000000E+00   1.2500000E+02   7.8125000E-03   1.2380865E-01
       -4   -1    0    0    0  501  0.00000000000E+00  0.00000000000E+00  1.26583383011E+02  1.26583383011E+02  0.00000000000E+00 0.00000000000E+00  1.
       21   -1    0    0  501  502  0.00000000000E+00  0.00000000000E+00 -1.31633735961E+02  1.31633735961E+02  0.00000000000E+00 0.00000000000E+00  1.
       21    1    1    2  503  502 -1.20361946830E+01 -1.15760969274E+01  1.92590053583E+01  2.54908864089E+01  0.00000000000E+00 0.00000000000E+00  1.
       -4    1    1    2    0  503  4.59799135964E+01  5.89317305088E+00  6.16751025557E+01  7.71537440322E+01  0.00000000000E+00 0.00000000000E+00  1.
       25    1    1    2    0    0 -3.39437189135E+01  5.68292387648E+00 -8.59844608638E+01  1.55572488530E+02  1.25000000000E+02 0.00000000000E+00  1.
</event>
</LesHouchesEvents>
