<LesHouchesEvents version="3.0">
<header>
<!--
#*********************************************************************
#                                                                    *
#                        MadGraph5_aMC@NLO                           *
#                                                                    *
#                           Going Beyond                             *
#                                                                    *
#                   http://madgraph.hep.uiuc.edu                     *
#                   http://madgraph.phys.ucl.ac.be                   *
#                   http://amcatnlo.cern.ch                          *
#                                                                    *
#                     The MadGraph5_aMC@NLO team                     *
#                                                                    *
#....................................................................*
#                                                                    *
# This file contains all the information necessary to reproduce      *
# the events generated:                                              *
#                                                                    *
# 1. software version                                                *
# 2. proc_card          : code generation info including model       *
# 3. param_card         : model primary parameters in the LH format  *
# 4. run_card           : running parameters (collider and cuts)     *
# 5. pythia_card        : present only if pythia has been run        *
# 6. pgs_card           : present only if pgs has been run           *
# 7. delphes_cards      : present only if delphes has been run       *
#                                                                    *
#                                                                    *
#*********************************************************************
-->
<MGVersion>
#2.6.5
</MGVersion>
<MG5ProcCard>
<![CDATA[
#************************************************************
#*                     MadGraph5_aMC@NLO                    *
#*                                                          *
#*                *                       *                 *
#*                  *        * *        *                   *
#*                    * * * * 5 * * * *                     *
#*                  *        * *        *                   *
#*                *                       *                 *
#*                                                          *
#*                                                          *
#*         VERSION 2.6.5                 2018-02-03         *
#*                                                          *
#*    The MadGraph5_aMC@NLO Development Team - Find us at   *
#*    https://server06.fynu.ucl.ac.be/projects/madgraph     *
#*                                                          *
#************************************************************
#*                                                          *
#*               Command File for MadGraph5_aMC@NLO         *
#*                                                          *
#*     run as ./bin/mg5_aMC  filename                       *
#*                                                          *
#************************************************************
set default_unset_couplings 99
set loop_color_flows False
set gauge unitary
set max_npoint_for_channel 0
set group_subprocesses Auto
set ignore_six_quark_processes False
set loop_optimized_output True
set complex_mass_scheme False
import model STP_UFO_freeWidth
define p = g u c d s u~ c~ d~ s~
define j = g u c d s u~ c~ d~ s~
define l+ = e+ mu+
define l- = e- mu-
define vl = ve vm vt
define vl~ = ve~ vm~ vt~
define bb = b b~
define tt = t t~
generate p p > t23 > j bb tt z / h
add process p p > t23~ > j bb tt z / h
output tZ_b_LH_M600
]]>
</MG5ProcCard>
<MGProcCard>
#*********************************************************************
#                        MadGraph/MadEvent                           *
#                   http://madgraph.hep.uiuc.edu                     *
#                                                                    *
#                          proc_card.dat                             *
#*********************************************************************
#                                                                    *
#            This Files is generated by MADGRAPH 5                   *
#                                                                    *
# WARNING: This Files is generated for MADEVENT (compatibility issue)*
#          This files is NOT a valid MG4 proc_card.dat               *
#          Running this in MG4 will NEVER reproduce the result of MG5*
#                                                                    *
#*********************************************************************
#*********************************************************************
# Process(es) requested : mg2 input                                  *
#*********************************************************************
# Begin PROCESS # This is TAG. Do not modify this line
p p > t23 > j bb tt z / h           #Process
# Be carefull the coupling are here in MG5 convention
          
end_coup           # End the couplings input

done               # this tells MG there are no more procs
# End PROCESS  # This is TAG. Do not modify this line
#*********************************************************************
# Model information                                                  *
#*********************************************************************
# Begin MODEL  # This is TAG. Do not modify this line
STP_UFO_freeWidth
# End   MODEL  # This is TAG. Do not modify this line
#*********************************************************************
# Start multiparticle definitions                                    *
#*********************************************************************
# Begin MULTIPARTICLES # This is TAG. Do not modify this line

# End  MULTIPARTICLES # This is TAG. Do not modify this line
</MGProcCard>
<MGRunCard>
<![CDATA[
#*********************************************************************
#                       MadGraph5_aMC@NLO                            *
#                                                                    *
#                     run_card.dat MadEvent                          *
#                                                                    *
#  This file is used to set the parameters of the run.               *
#                                                                    *
#  Some notation/conventions:                                        *
#                                                                    *
#   Lines starting with a '# ' are info or comments                  *
#                                                                    *
#   mind the format:   value    = variable     ! comment             *
#                                                                    *
#   To display more options, you can type the command:               *
#      update full_run_card                                          *
#*********************************************************************
#
#*******************                                                 
# Running parameters
#*******************                                                 
#                                                                    
#*********************************************************************
# Tag name for the run (one word)                                    *
#*********************************************************************
  tag_1	= run_tag ! name of the run 
#*********************************************************************
# Number of events and rnd seed                                      *
# Warning: Do not generate more than 1M events in a single run       *
# If you want to run Pythia, avoid more than 50k events in a run.    *
#*********************************************************************
  1000	= nevents ! Number of unweighted events requested 
 10 = iseed ! rnd seed (0=assigned automatically=default))
#*********************************************************************
# Collider type and energy                                           *
# lpp: 0=No PDF, 1=proton, -1=antiproton, 2=photon from proton,      *
#                                         3=photon from electron     *
#*********************************************************************
  1	= lpp1 ! beam 1 type 
  1	= lpp2 ! beam 2 type
  6500.0	= ebeam1 ! beam 1 total energy in GeV
  6500.0	= ebeam2 ! beam 2 total energy in GeV
#*********************************************************************
# Beam polarization from -100 (left-handed) to 100 (right-handed)    *
#*********************************************************************
     0.0     = polbeam1 ! beam polarization for beam 1
     0.0     = polbeam2 ! beam polarization for beam 2

#*********************************************************************
# PDF CHOICE: this automatically fixes also alpha_s and its evol.    *
#*********************************************************************
  lhapdf	= pdlabel ! PDF set                                     
  325500	= lhaid ! if pdlabel=lhapdf, this is the lhapdf number
# To see heavy ion options: type "update ion_pdf"
#*********************************************************************
# Renormalization and factorization scales                           *
#*********************************************************************
  False	= fixed_ren_scale ! if .true. use fixed ren scale
  False	= fixed_fac_scale ! if .true. use fixed fac scale
  91.188	= scale ! fixed ren scale
  91.188	= dsqrt_q2fact1 ! fixed fact scale for pdf1
  91.188	= dsqrt_q2fact2 ! fixed fact scale for pdf2
  -1	= dynamical_scale_choice ! Choose one of the preselected dynamical choices
  1.0	= scalefact ! scale factor for event-by-event scales
#*********************************************************************
# Type and output format
#*********************************************************************
  True	= gridpack !True = setting up the grid pack
  -1.0	= time_of_flight ! threshold (in mm) below which the invariant livetime is not written (-1 means not written)
  3.0	= lhe_version ! Change the way clustering information pass to shower.        
  True	= clusinfo ! include clustering tag in output
  sum	= event_norm ! average/sum. Normalization of the weight in the LHEF

#*********************************************************************
# Matching parameter (MLM only)
#*********************************************************************
  0	= ickkw ! 0 no matching, 1 MLM
  1.0	= alpsfact ! scale factor for QCD emission vx
  False	= chcluster ! cluster only according to channel diag
  5	= asrwgtflavor ! highest quark flavor for a_s reweight
  True	= auto_ptj_mjj ! Automatic setting of ptj and mjj if xqcut >0
                                   ! (turn off for VBF and single top processes) 
  0.0	= xqcut ! minimum kt jet measure between partons
#*********************************************************************
#
#*********************************************************************
# handling of the helicities:
#  0: sum over all helicities
#  1: importance sampling over helicities
#*********************************************************************
  0	= nhel ! using helicities importance sampling or not.
#*********************************************************************
# Generation bias, check the wiki page below for more information:   *
#  'cp3.irmp.ucl.ac.be/projects/madgraph/wiki/LOEventGenerationBias' *
#*********************************************************************
  None	= bias_module ! Bias type of bias, [None, ptj_bias, -custom_folder-]
  {}	= bias_parameters ! Specifies the parameters of the module.
#
#*******************************                                                 
# Parton level cuts definition *
#*******************************                                     
#                                                                    
#
#*********************************************************************
# BW cutoff (M+/-bwcutoff*Gamma) ! Define on/off-shell for "$" and decay  
#*********************************************************************
  15.0	= bwcutoff ! (M+/-bwcutoff*Gamma)
#*********************************************************************
# Apply pt/E/eta/dr/mij/kt_durham cuts on decay products or not
# (note that etmiss/ptll/ptheavy/ht/sorted cuts always apply)
#*********************************************************************
  False	= cut_decays ! Cut decay products 
#*********************************************************************
# Standard Cuts                                                      *
#*********************************************************************
# Minimum and maximum pt's (for max, -1 means no cut)                *
#*********************************************************************
  5.0	= ptj ! minimum pt for the jets 
  0.0	= ptb ! minimum pt for the b 
  0.0	= pta ! minimum pt for the photons 
  0.0	= ptl ! minimum pt for the charged leptons 
  0.0	= misset ! minimum missing Et (sum of neutrino's momenta)
  -1.0	= ptjmax ! maximum pt for the jets
  -1.0	= ptbmax ! maximum pt for the b
  -1.0	= ptamax ! maximum pt for the photons
  -1.0	= ptlmax ! maximum pt for the charged leptons
  -1.0	= missetmax ! maximum missing Et (sum of neutrino's momenta)
  {}	= pt_min_pdg ! pt cut for other particles (use pdg code). Applied on particle and anti-particle
  {}	= pt_max_pdg ! pt cut for other particles (syntax e.g. {6: 100, 25: 50}) 
#*********************************************************************
# Minimum and maximum E's (in the center of mass frame)              *
#*********************************************************************
  0.0	= ej ! minimum E for the jets 
  0.0	= eb ! minimum E for the b 
  0.0	= ea ! minimum E for the photons 
  0.0	= el ! minimum E for the charged leptons 
  -1.0	= ejmax ! maximum E for the jets
  -1.0	= ebmax ! maximum E for the b
  -1.0	= eamax ! maximum E for the photons
  -1.0	= elmax ! maximum E for the charged leptons
  {}	= e_min_pdg ! E cut for other particles (use pdg code). Applied on particle and anti-particle
  {}	= e_max_pdg ! E cut for other particles (syntax e.g. {6: 100, 25: 50}) 
#*********************************************************************
# Maximum and minimum absolute rapidity (for max, -1 means no cut)   *
#*********************************************************************
  5.0	= etaj ! max rap for the jets 
  5.0	= etab ! max rap for the b
  2.5	= etaa ! max rap for the photons 
  -1.0	= etal ! max rap for the charged leptons 
  0.0	= etajmin ! min rap for the jets
  0.0	= etabmin ! min rap for the b
  0.0	= etaamin ! min rap for the photons
  0.0	= etalmin ! main rap for the charged leptons
  {}	= eta_min_pdg ! rap cut for other particles (use pdg code). Applied on particle and anti-particle
  {}	= eta_max_pdg ! rap cut for other particles (syntax e.g. {6: 2.5, 23: 5})
#*********************************************************************
# Minimum and maximum DeltaR distance                                *
#*********************************************************************
  0.01	= drjj ! min distance between jets 
  0.01	= drbb ! min distance between b's 
  0.0	= drll ! min distance between leptons 
  0.0	= draa ! min distance between gammas 
  0.01	= drbj ! min distance between b and jet 
  0.0	= draj ! min distance between gamma and jet 
  0.0	= drjl ! min distance between jet and lepton 
  0.0	= drab ! min distance between gamma and b 
  0.0	= drbl ! min distance between b and lepton 
  0.0	= dral ! min distance between gamma and lepton 
  -1.0	= drjjmax ! max distance between jets
  -1.0	= drbbmax ! max distance between b's
  -1.0	= drllmax ! max distance between leptons
  -1.0	= draamax ! max distance between gammas
  -1.0	= drbjmax ! max distance between b and jet
  -1.0	= drajmax ! max distance between gamma and jet
  -1.0	= drjlmax ! max distance between jet and lepton
  -1.0	= drabmax ! max distance between gamma and b
  -1.0	= drblmax ! max distance between b and lepton
  -1.0	= dralmax ! maxdistance between gamma and lepton
#*********************************************************************
# Minimum and maximum invariant mass for pairs                       *
# WARNING: for four lepton final state mmll cut require to have      *
#          different lepton masses for each flavor!                  *           
#*********************************************************************
  0.0	= mmjj ! min invariant mass of a jet pair 
  0.0	= mmbb ! min invariant mass of a b pair 
  0.0	= mmaa ! min invariant mass of gamma gamma pair
  0.0	= mmll ! min invariant mass of l+l- (same flavour) lepton pair
  -1.0	= mmjjmax ! max invariant mass of a jet pair
  -1.0	= mmbbmax ! max invariant mass of a b pair
  -1.0	= mmaamax ! max invariant mass of gamma gamma pair
  -1.0	= mmllmax ! max invariant mass of l+l- (same flavour) lepton pair
  {}	= mxx_min_pdg ! min invariant mass of a pair of particles X/X~ (e.g. {6:250})
  {'default': False}	= mxx_only_part_antipart ! if True the invariant mass is applied only 
                       ! to pairs of particle/antiparticle and not to pairs of the same pdg codes.  
#*********************************************************************
# Minimum and maximum invariant mass for all letpons                 *
#*********************************************************************
  0.0	= mmnl ! min invariant mass for all letpons (l+- and vl) 
  -1.0	= mmnlmax ! max invariant mass for all letpons (l+- and vl) 
#*********************************************************************
# Minimum and maximum pt for 4-momenta sum of leptons                *
#*********************************************************************
  0.0	= ptllmin ! Minimum pt for 4-momenta sum of leptons(l and vl)
  -1.0	= ptllmax ! Maximum pt for 4-momenta sum of leptons(l and vl)
#*********************************************************************
# Inclusive cuts                                                     *
#*********************************************************************
  0.0	= ptheavy ! minimum pt for at least one heavy final state
  0.0	= xptj ! minimum pt for at least one jet  
  0.0	= xptb ! minimum pt for at least one b 
  0.0	= xpta ! minimum pt for at least one photon 
  0.0	= xptl ! minimum pt for at least one charged lepton 
#*********************************************************************
# Control the pt's of the jets sorted by pt                          *
#*********************************************************************
  0.0	= ptj1min ! minimum pt for the leading jet in pt
  0.0	= ptj2min ! minimum pt for the second jet in pt
  0.0	= ptj3min ! minimum pt for the third jet in pt
  0.0	= ptj4min ! minimum pt for the fourth jet in pt
  -1.0	= ptj1max ! maximum pt for the leading jet in pt 
  -1.0	= ptj2max ! maximum pt for the second jet in pt
  -1.0	= ptj3max ! maximum pt for the third jet in pt
  -1.0	= ptj4max ! maximum pt for the fourth jet in pt
  0	= cutuse ! reject event if fails any (0) / all (1) jet pt cuts
#*********************************************************************
# Control the pt's of leptons sorted by pt                           *
#*********************************************************************
  0.0	= ptl1min ! minimum pt for the leading lepton in pt
  0.0	= ptl2min ! minimum pt for the second lepton in pt
  0.0	= ptl3min ! minimum pt for the third lepton in pt
  0.0	= ptl4min ! minimum pt for the fourth lepton in pt
  -1.0	= ptl1max ! maximum pt for the leading lepton in pt 
  -1.0	= ptl2max ! maximum pt for the second lepton in pt
  -1.0	= ptl3max ! maximum pt for the third lepton in pt
  -1.0	= ptl4max ! maximum pt for the fourth lepton in pt
#*********************************************************************
# Control the Ht(k)=Sum of k leading jets                            *
#*********************************************************************
  0.0	= htjmin ! minimum jet HT=Sum(jet pt)
  -1.0	= htjmax ! maximum jet HT=Sum(jet pt)
  0.0	= ihtmin !inclusive Ht for all partons (including b)
  -1.0	= ihtmax !inclusive Ht for all partons (including b)
  0.0	= ht2min ! minimum Ht for the two leading jets
  0.0	= ht3min ! minimum Ht for the three leading jets
  0.0	= ht4min ! minimum Ht for the four leading jets
  -1.0	= ht2max ! maximum Ht for the two leading jets
  -1.0	= ht3max ! maximum Ht for the three leading jets
  -1.0	= ht4max ! maximum Ht for the four leading jets
#***********************************************************************
# Photon-isolation cuts, according to hep-ph/9801442                   *
# When ptgmin=0, all the other parameters are ignored                  *
# When ptgmin>0, pta and draj are not going to be used                 *
#***********************************************************************
  0.0	= ptgmin ! Min photon transverse momentum
  0.4	= r0gamma ! Radius of isolation code
  1.0	= xn ! n parameter of eq.(3.4) in hep-ph/9801442
  1.0	= epsgamma ! epsilon_gamma parameter of eq.(3.4) in hep-ph/9801442
  True	= isoem ! isolate photons from EM energy (photons and leptons)
#*********************************************************************
# WBF cuts                                                           *
#*********************************************************************
  0.0	= xetamin ! minimum rapidity for two jets in the WBF case  
  0.0	= deltaeta ! minimum rapidity for two jets in the WBF case 
#***********************************************************************
# Turn on either the ktdurham or ptlund cut to activate                *
# CKKW(L) merging with Pythia8 [arXiv:1410.3012, arXiv:1109.4829]      *
#***********************************************************************
  -1.0	= ktdurham 
  0.4	= dparameter 
  -1.0	= ptlund 
  21, 1, 2, 3, 4, 5, 6	= pdgs_for_merging_cut ! PDGs for two cuts above   
#*********************************************************************
# maximal pdg code for quark to be considered as a light jet         *
# (otherwise b cuts are applied)                                     *
#*********************************************************************
  4	= maxjetflavor ! Maximum jet pdg code
#*********************************************************************
#
#*********************************************************************
# Store info for systematics studies                                 *
# WARNING: Do not use for interference type of computation           *
#*********************************************************************
  True	= use_syst ! Enable systematics studies
#
  None	= systematics_program ! none, systematics [python], SysCalc [depreceted, C++]
['--mur=0.5,1,2', '--muf=0.5,1,2', '--pdf=errorset'] = systematics_arguments ! see: https://cp3.irmp.ucl.ac.be/projects/madgraph/wiki/Systematics#Systematicspythonmodule
# Syscalc is deprecated but to see the associate options type'update syscalc'#********************************************************************* 
#  Additional hidden parameters
#*********************************************************************
  True	= pdfwgt # hidden_parameter
  1.0	= ptonium # hidden_parameter
  1	= highestmult # hidden_parameter
  1	= ktscheme # hidden_parameter
  0.6	= etaonium # hidden_parameter
]]>
</MGRunCard>
<slha>
######################################################################
## PARAM_CARD AUTOMATICALY GENERATED BY MG5                       ####
######################################################################
###################################
## INFORMATION FOR BSM
###################################
BLOCK BSM # 
      1 1.000000e-01 # cltw
      2 0.000000e+00 # crtw
      3 1.000000e-01 # cltz
      4 0.000000e+00 # crtz
      5 1.000000e-01 # clth
      6 0.000000e+00 # crth
      7 1.000000e+00 # clbw
      8 1.000000e+00 # crbw
      9 1.000000e+00 # clbz
      10 1.000000e+00 # crbz
      11 1.000000e+00 # clbh
      12 1.000000e+00 # crbh
      13 1.000000e+00 # clxw
      14 1.000000e+00 # crxw
      15 1.000000e+00 # clyw
      16 1.000000e+00 # cryw
      17 1.000000e+00 # clvw
      18 1.000000e+00 # crvw
      19 3.000000e+03 # lambda
###################################
## INFORMATION FOR CKMBLOCK
###################################
BLOCK CKMBLOCK # 
      1 2.277360e-01 # cabi
###################################
## INFORMATION FOR MASS
###################################
BLOCK MASS # 
      1 5.040000e-03 # md
      2 2.550000e-03 # mu
      3 1.010000e-01 # ms
      4 1.270000e+00 # mc
      5 4.670000e+00 # mbot
      6 1.725000e+02 # mtop
      11 5.110000e-04 # me
      13 1.056600e-01 # mm
      15 1.777000e+00 # mta
      23 9.118760e+01 # mz
      24 8.039900e+01 # mw
      25 1.250000e+02 # mh
      8000001 6.000000e+02 # mt23
      8000002 7.000000e+02 # mb13
      8000003 7.000000e+02 # mx53
      8000004 7.000000e+02 # my43
      8000005 7.000000e+02 # mv83
      12 0.000000e+00 # ve : 0.0
      14 0.000000e+00 # vm : 0.0
      16 0.000000e+00 # vt : 0.0
      21 0.000000e+00 # g : 0.0
      22 0.000000e+00 # a : 0.0
###################################
## INFORMATION FOR SMINPUTS
###################################
BLOCK SMINPUTS # 
      1 1.279000e+02 # aewm1
      2 1.166370e-05 # gf
      3 1.184000e-01 # as
###################################
## INFORMATION FOR YUKAWA
###################################
BLOCK YUKAWA # 
      1 5.040000e-03 # ymdo
      2 2.550000e-03 # ymup
      3 1.010000e-01 # yms
      4 1.270000e+00 # ymc
      5 4.670000e+00 # ymb
      6 1.725000e+02 # ymt
      11 5.110000e-04 # yme
      13 1.056600e-01 # ymm
      15 1.777000e+00 # ymtau
###################################
## INFORMATION FOR DECAY
###################################
BLOCK QNUMBERS 8000001 #  t23
      1 2 # 3 times electric charge
      2 2 # number of spin states (2s+1)
      3 3 # colour rep (1: singlet, 3: triplet, 8: octet)
      4 1 # particle/antiparticle distinction (0=own anti)
###################################
## INFORMATION FOR QNUMBERS 8000002
###################################
BLOCK QNUMBERS 8000002 #  b13
      1 -1 # 3 times electric charge
      2 2 # number of spin states (2s+1)
      3 3 # colour rep (1: singlet, 3: triplet, 8: octet)
      4 1 # particle/antiparticle distinction (0=own anti)
###################################
## INFORMATION FOR QNUMBERS 8000003
###################################
BLOCK QNUMBERS 8000003 #  x53
      1 5 # 3 times electric charge
      2 2 # number of spin states (2s+1)
      3 3 # colour rep (1: singlet, 3: triplet, 8: octet)
      4 1 # particle/antiparticle distinction (0=own anti)
###################################
## INFORMATION FOR QNUMBERS 8000004
###################################
BLOCK QNUMBERS 8000004 #  y43
      1 -4 # 3 times electric charge
      2 2 # number of spin states (2s+1)
      3 3 # colour rep (1: singlet, 3: triplet, 8: octet)
      4 1 # particle/antiparticle distinction (0=own anti)
###################################
## INFORMATION FOR QNUMBERS 8000005
###################################
BLOCK QNUMBERS 8000005 #  v83
      1 8 # 3 times electric charge
      2 2 # number of spin states (2s+1)
      3 3 # colour rep (1: singlet, 3: triplet, 8: octet)
      4 1 # particle/antiparticle distinction (0=own anti)
#
#*************************
#      Decay widths      *
#*************************
#
#      PDG        Width
DECAY  1   0.000000e+00
#
#      PDG        Width
DECAY  2   0.000000e+00
#
#      PDG        Width
DECAY  3   0.000000e+00
#
#      PDG        Width
DECAY  4   0.000000e+00
#
#      PDG        Width
DECAY  5   0.000000e+00
#
#      PDG        Width
DECAY  6   1.476600e+00
#  BR             NDA  ID1    ID2   ...
   1.000000e+00   2    5  24 # 1.4766
#
#      PDG        Width
DECAY  11   0.000000e+00
#
#      PDG        Width
DECAY  12   0.000000e+00
#
#      PDG        Width
DECAY  13   0.000000e+00
#
#      PDG        Width
DECAY  14   0.000000e+00
#
#      PDG        Width
DECAY  15   0.000000e+00
#
#      PDG        Width
DECAY  16   0.000000e+00
#
#      PDG        Width
DECAY  21   0.000000e+00
#
#      PDG        Width
DECAY  22   0.000000e+00
#
#      PDG        Width
DECAY  23   2.444424e+00
#  BR             NDA  ID1    ID2   ...
   1.521708e-01   2    -1  1 # 0.371969955619
   1.521708e-01   2    -3  3 # 0.371969955619
   1.505549e-01   2    -5  5 # 0.368020010878
   1.181096e-01   2    -2  2 # 0.28870994087
   1.179910e-01   2    -4  4 # 0.288420032184
   6.854376e-02   2    -12  12 # 0.167550011994
   6.854376e-02   2    -14  14 # 0.167550011994
   6.854376e-02   2    -16  16 # 0.167550011994
   3.448338e-02   2    -11  11 # 0.0842920016731
   3.448297e-02   2    -13  13 # 0.0842909994593
   3.440524e-02   2    -15  15 # 0.0841009943818
#
#      PDG        Width
DECAY  24   2.046081e+00
#  BR             NDA  ID1    ID2   ...
   3.164098e-01   2    -1  2 # 0.647400079994
   3.162876e-01   2    -3  4 # 0.647150048896
   1.111344e-01   2    -11  12 # 0.227389984286
   1.111344e-01   2    -13  14 # 0.227389984286
   1.110513e-01   2    -15  16 # 0.227219954955
   1.699444e-02   2    -3  2 # 0.0347720007896
   1.698809e-02   2    -1  4 # 0.0347590081753
#
#      PDG        Width
DECAY  25   5.753088e-03
#
#      PDG        Width
DECAY  8000001   1.000000e-03
#
#      PDG        Width
DECAY  8000002   1.000000e+01
#
#      PDG        Width
DECAY  8000003   1.000000e+01
#
#      PDG        Width
DECAY  8000004   1.000000e+01
#
#      PDG        Width
DECAY  8000005   1.000000e+00
</slha>
<initrwgt>
<weightgroup name="NNPDF31_nnlo_as_0118_nf_4_mc_hessian" combine="symmhessian"> # 325500: Hessian NNPDF31_nnlo_as_0118_nf_4_mc_hessian
<weight id="1001" MUR="1.0" MUF="1.0" PDF="325500" >  </weight>
<weightgroup name="Central scale variation" combine="envelope">
</weightgroup> PDF 
<weight id="1002" MUR="1.0" MUF="1.0" DYN_SCALE="1" PDF="325500" > dyn_scale_choice=sum pt  </weight>
<weight id="1003" MUR="1.0" MUF="1.0" DYN_SCALE="2" PDF="325500" > dyn_scale_choice=HT  </weight>
<weight id="1004" MUR="1.0" MUF="1.0" DYN_SCALE="3" PDF="325500" > dyn_scale_choice=HT/2  </weight>
<weight id="1005" MUR="1.0" MUF="1.0" DYN_SCALE="4" PDF="325500" > dyn_scale_choice=sqrts  </weight>
<weight id="1006" MUR="2.0" MUF="1.0" PDF="325500" > MUR=2.0  </weight>
<weight id="1007" MUR="2.0" MUF="1.0" DYN_SCALE="1" PDF="325500" > MUR=2.0 dyn_scale_choice=sum pt  </weight>
<weight id="1008" MUR="2.0" MUF="1.0" DYN_SCALE="2" PDF="325500" > MUR=2.0 dyn_scale_choice=HT  </weight>
<weight id="1009" MUR="2.0" MUF="1.0" DYN_SCALE="3" PDF="325500" > MUR=2.0 dyn_scale_choice=HT/2  </weight>
<weight id="1010" MUR="2.0" MUF="1.0" DYN_SCALE="4" PDF="325500" > MUR=2.0 dyn_scale_choice=sqrts  </weight>
<weight id="1011" MUR="0.5" MUF="1.0" PDF="325500" > MUR=0.5  </weight>
<weight id="1012" MUR="0.5" MUF="1.0" DYN_SCALE="1" PDF="325500" > MUR=0.5 dyn_scale_choice=sum pt  </weight>
<weight id="1013" MUR="0.5" MUF="1.0" DYN_SCALE="2" PDF="325500" > MUR=0.5 dyn_scale_choice=HT  </weight>
<weight id="1014" MUR="0.5" MUF="1.0" DYN_SCALE="3" PDF="325500" > MUR=0.5 dyn_scale_choice=HT/2  </weight>
<weight id="1015" MUR="0.5" MUF="1.0" DYN_SCALE="4" PDF="325500" > MUR=0.5 dyn_scale_choice=sqrts  </weight>
<weight id="1016" MUR="1.0" MUF="2.0" PDF="325500" > MUF=2.0  </weight>
<weight id="1017" MUR="1.0" MUF="2.0" DYN_SCALE="1" PDF="325500" > MUF=2.0 dyn_scale_choice=sum pt  </weight>
<weight id="1018" MUR="1.0" MUF="2.0" DYN_SCALE="2" PDF="325500" > MUF=2.0 dyn_scale_choice=HT  </weight>
<weight id="1019" MUR="1.0" MUF="2.0" DYN_SCALE="3" PDF="325500" > MUF=2.0 dyn_scale_choice=HT/2  </weight>
<weight id="1020" MUR="1.0" MUF="2.0" DYN_SCALE="4" PDF="325500" > MUF=2.0 dyn_scale_choice=sqrts  </weight>
<weight id="1021" MUR="2.0" MUF="2.0" PDF="325500" > MUR=2.0 MUF=2.0  </weight>
<weight id="1022" MUR="2.0" MUF="2.0" DYN_SCALE="1" PDF="325500" > MUR=2.0 MUF=2.0 dyn_scale_choice=sum pt  </weight>
<weight id="1023" MUR="2.0" MUF="2.0" DYN_SCALE="2" PDF="325500" > MUR=2.0 MUF=2.0 dyn_scale_choice=HT  </weight>
<weight id="1024" MUR="2.0" MUF="2.0" DYN_SCALE="3" PDF="325500" > MUR=2.0 MUF=2.0 dyn_scale_choice=HT/2  </weight>
<weight id="1025" MUR="2.0" MUF="2.0" DYN_SCALE="4" PDF="325500" > MUR=2.0 MUF=2.0 dyn_scale_choice=sqrts  </weight>
<weight id="1026" MUR="0.5" MUF="2.0" PDF="325500" > MUR=0.5 MUF=2.0  </weight>
<weight id="1027" MUR="0.5" MUF="2.0" DYN_SCALE="1" PDF="325500" > MUR=0.5 MUF=2.0 dyn_scale_choice=sum pt  </weight>
<weight id="1028" MUR="0.5" MUF="2.0" DYN_SCALE="2" PDF="325500" > MUR=0.5 MUF=2.0 dyn_scale_choice=HT  </weight>
<weight id="1029" MUR="0.5" MUF="2.0" DYN_SCALE="3" PDF="325500" > MUR=0.5 MUF=2.0 dyn_scale_choice=HT/2  </weight>
<weight id="1030" MUR="0.5" MUF="2.0" DYN_SCALE="4" PDF="325500" > MUR=0.5 MUF=2.0 dyn_scale_choice=sqrts  </weight>
<weight id="1031" MUR="1.0" MUF="0.5" PDF="325500" > MUF=0.5  </weight>
<weight id="1032" MUR="1.0" MUF="0.5" DYN_SCALE="1" PDF="325500" > MUF=0.5 dyn_scale_choice=sum pt  </weight>
<weight id="1033" MUR="1.0" MUF="0.5" DYN_SCALE="2" PDF="325500" > MUF=0.5 dyn_scale_choice=HT  </weight>
<weight id="1034" MUR="1.0" MUF="0.5" DYN_SCALE="3" PDF="325500" > MUF=0.5 dyn_scale_choice=HT/2  </weight>
<weight id="1035" MUR="1.0" MUF="0.5" DYN_SCALE="4" PDF="325500" > MUF=0.5 dyn_scale_choice=sqrts  </weight>
<weight id="1036" MUR="2.0" MUF="0.5" PDF="325500" > MUR=2.0 MUF=0.5  </weight>
<weight id="1037" MUR="2.0" MUF="0.5" DYN_SCALE="1" PDF="325500" > MUR=2.0 MUF=0.5 dyn_scale_choice=sum pt  </weight>
<weight id="1038" MUR="2.0" MUF="0.5" DYN_SCALE="2" PDF="325500" > MUR=2.0 MUF=0.5 dyn_scale_choice=HT  </weight>
<weight id="1039" MUR="2.0" MUF="0.5" DYN_SCALE="3" PDF="325500" > MUR=2.0 MUF=0.5 dyn_scale_choice=HT/2  </weight>
<weight id="1040" MUR="2.0" MUF="0.5" DYN_SCALE="4" PDF="325500" > MUR=2.0 MUF=0.5 dyn_scale_choice=sqrts  </weight>
<weight id="1041" MUR="0.5" MUF="0.5" PDF="325500" > MUR=0.5 MUF=0.5  </weight>
<weight id="1042" MUR="0.5" MUF="0.5" DYN_SCALE="1" PDF="325500" > MUR=0.5 MUF=0.5 dyn_scale_choice=sum pt  </weight>
<weight id="1043" MUR="0.5" MUF="0.5" DYN_SCALE="2" PDF="325500" > MUR=0.5 MUF=0.5 dyn_scale_choice=HT  </weight>
<weight id="1044" MUR="0.5" MUF="0.5" DYN_SCALE="3" PDF="325500" > MUR=0.5 MUF=0.5 dyn_scale_choice=HT/2  </weight>
<weight id="1045" MUR="0.5" MUF="0.5" DYN_SCALE="4" PDF="325500" > MUR=0.5 MUF=0.5 dyn_scale_choice=sqrts  </weight>
</weightgroup> # scale
<weightgroup name="Emission scale variation" combine="envelope">
<weight id="1046" MUR="1.0" MUF="1.0" ALPSFACT="0.5" PDF="325500" > alpsfact=0.5  </weight>
<weight id="1047" MUR="1.0" MUF="1.0" ALPSFACT="2.0" PDF="325500" > alpsfact=2.0  </weight>
</weightgroup> # ALPS
<weightgroup name="NNPDF31_nnlo_as_0118_nf_4_mc_hessian" combine="symmhessian"> # 325500: Hessian NNPDF31_nnlo_as_0118_nf_4_mc_hessian
<weight id="1048" MUR="1.0" MUF="1.0" PDF="325500" >  </weight>
<weight id="1049" MUR="1.0" MUF="1.0" PDF="325501" > PDF=325500 MemberID=1 </weight>
<weight id="1050" MUR="1.0" MUF="1.0" PDF="325502" > PDF=325500 MemberID=2 </weight>
<weight id="1051" MUR="1.0" MUF="1.0" PDF="325503" > PDF=325500 MemberID=3 </weight>
<weight id="1052" MUR="1.0" MUF="1.0" PDF="325504" > PDF=325500 MemberID=4 </weight>
<weight id="1053" MUR="1.0" MUF="1.0" PDF="325505" > PDF=325500 MemberID=5 </weight>
<weight id="1054" MUR="1.0" MUF="1.0" PDF="325506" > PDF=325500 MemberID=6 </weight>
<weight id="1055" MUR="1.0" MUF="1.0" PDF="325507" > PDF=325500 MemberID=7 </weight>
<weight id="1056" MUR="1.0" MUF="1.0" PDF="325508" > PDF=325500 MemberID=8 </weight>
<weight id="1057" MUR="1.0" MUF="1.0" PDF="325509" > PDF=325500 MemberID=9 </weight>
<weight id="1058" MUR="1.0" MUF="1.0" PDF="325510" > PDF=325500 MemberID=10 </weight>
<weight id="1059" MUR="1.0" MUF="1.0" PDF="325511" > PDF=325500 MemberID=11 </weight>
<weight id="1060" MUR="1.0" MUF="1.0" PDF="325512" > PDF=325500 MemberID=12 </weight>
<weight id="1061" MUR="1.0" MUF="1.0" PDF="325513" > PDF=325500 MemberID=13 </weight>
<weight id="1062" MUR="1.0" MUF="1.0" PDF="325514" > PDF=325500 MemberID=14 </weight>
<weight id="1063" MUR="1.0" MUF="1.0" PDF="325515" > PDF=325500 MemberID=15 </weight>
<weight id="1064" MUR="1.0" MUF="1.0" PDF="325516" > PDF=325500 MemberID=16 </weight>
<weight id="1065" MUR="1.0" MUF="1.0" PDF="325517" > PDF=325500 MemberID=17 </weight>
<weight id="1066" MUR="1.0" MUF="1.0" PDF="325518" > PDF=325500 MemberID=18 </weight>
<weight id="1067" MUR="1.0" MUF="1.0" PDF="325519" > PDF=325500 MemberID=19 </weight>
<weight id="1068" MUR="1.0" MUF="1.0" PDF="325520" > PDF=325500 MemberID=20 </weight>
<weight id="1069" MUR="1.0" MUF="1.0" PDF="325521" > PDF=325500 MemberID=21 </weight>
<weight id="1070" MUR="1.0" MUF="1.0" PDF="325522" > PDF=325500 MemberID=22 </weight>
<weight id="1071" MUR="1.0" MUF="1.0" PDF="325523" > PDF=325500 MemberID=23 </weight>
<weight id="1072" MUR="1.0" MUF="1.0" PDF="325524" > PDF=325500 MemberID=24 </weight>
<weight id="1073" MUR="1.0" MUF="1.0" PDF="325525" > PDF=325500 MemberID=25 </weight>
<weight id="1074" MUR="1.0" MUF="1.0" PDF="325526" > PDF=325500 MemberID=26 </weight>
<weight id="1075" MUR="1.0" MUF="1.0" PDF="325527" > PDF=325500 MemberID=27 </weight>
<weight id="1076" MUR="1.0" MUF="1.0" PDF="325528" > PDF=325500 MemberID=28 </weight>
<weight id="1077" MUR="1.0" MUF="1.0" PDF="325529" > PDF=325500 MemberID=29 </weight>
<weight id="1078" MUR="1.0" MUF="1.0" PDF="325530" > PDF=325500 MemberID=30 </weight>
<weight id="1079" MUR="1.0" MUF="1.0" PDF="325531" > PDF=325500 MemberID=31 </weight>
<weight id="1080" MUR="1.0" MUF="1.0" PDF="325532" > PDF=325500 MemberID=32 </weight>
<weight id="1081" MUR="1.0" MUF="1.0" PDF="325533" > PDF=325500 MemberID=33 </weight>
<weight id="1082" MUR="1.0" MUF="1.0" PDF="325534" > PDF=325500 MemberID=34 </weight>
<weight id="1083" MUR="1.0" MUF="1.0" PDF="325535" > PDF=325500 MemberID=35 </weight>
<weight id="1084" MUR="1.0" MUF="1.0" PDF="325536" > PDF=325500 MemberID=36 </weight>
<weight id="1085" MUR="1.0" MUF="1.0" PDF="325537" > PDF=325500 MemberID=37 </weight>
<weight id="1086" MUR="1.0" MUF="1.0" PDF="325538" > PDF=325500 MemberID=38 </weight>
<weight id="1087" MUR="1.0" MUF="1.0" PDF="325539" > PDF=325500 MemberID=39 </weight>
<weight id="1088" MUR="1.0" MUF="1.0" PDF="325540" > PDF=325500 MemberID=40 </weight>
<weight id="1089" MUR="1.0" MUF="1.0" PDF="325541" > PDF=325500 MemberID=41 </weight>
<weight id="1090" MUR="1.0" MUF="1.0" PDF="325542" > PDF=325500 MemberID=42 </weight>
<weight id="1091" MUR="1.0" MUF="1.0" PDF="325543" > PDF=325500 MemberID=43 </weight>
<weight id="1092" MUR="1.0" MUF="1.0" PDF="325544" > PDF=325500 MemberID=44 </weight>
<weight id="1093" MUR="1.0" MUF="1.0" PDF="325545" > PDF=325500 MemberID=45 </weight>
<weight id="1094" MUR="1.0" MUF="1.0" PDF="325546" > PDF=325500 MemberID=46 </weight>
<weight id="1095" MUR="1.0" MUF="1.0" PDF="325547" > PDF=325500 MemberID=47 </weight>
<weight id="1096" MUR="1.0" MUF="1.0" PDF="325548" > PDF=325500 MemberID=48 </weight>
<weight id="1097" MUR="1.0" MUF="1.0" PDF="325549" > PDF=325500 MemberID=49 </weight>
<weight id="1098" MUR="1.0" MUF="1.0" PDF="325550" > PDF=325500 MemberID=50 </weight>
<weight id="1099" MUR="1.0" MUF="1.0" PDF="325551" > PDF=325500 MemberID=51 </weight>
<weight id="1100" MUR="1.0" MUF="1.0" PDF="325552" > PDF=325500 MemberID=52 </weight>
<weight id="1101" MUR="1.0" MUF="1.0" PDF="325553" > PDF=325500 MemberID=53 </weight>
<weight id="1102" MUR="1.0" MUF="1.0" PDF="325554" > PDF=325500 MemberID=54 </weight>
<weight id="1103" MUR="1.0" MUF="1.0" PDF="325555" > PDF=325500 MemberID=55 </weight>
<weight id="1104" MUR="1.0" MUF="1.0" PDF="325556" > PDF=325500 MemberID=56 </weight>
<weight id="1105" MUR="1.0" MUF="1.0" PDF="325557" > PDF=325500 MemberID=57 </weight>
<weight id="1106" MUR="1.0" MUF="1.0" PDF="325558" > PDF=325500 MemberID=58 </weight>
<weight id="1107" MUR="1.0" MUF="1.0" PDF="325559" > PDF=325500 MemberID=59 </weight>
<weight id="1108" MUR="1.0" MUF="1.0" PDF="325560" > PDF=325500 MemberID=60 </weight>
<weight id="1109" MUR="1.0" MUF="1.0" PDF="325561" > PDF=325500 MemberID=61 </weight>
<weight id="1110" MUR="1.0" MUF="1.0" PDF="325562" > PDF=325500 MemberID=62 </weight>
<weight id="1111" MUR="1.0" MUF="1.0" PDF="325563" > PDF=325500 MemberID=63 </weight>
<weight id="1112" MUR="1.0" MUF="1.0" PDF="325564" > PDF=325500 MemberID=64 </weight>
<weight id="1113" MUR="1.0" MUF="1.0" PDF="325565" > PDF=325500 MemberID=65 </weight>
<weight id="1114" MUR="1.0" MUF="1.0" PDF="325566" > PDF=325500 MemberID=66 </weight>
<weight id="1115" MUR="1.0" MUF="1.0" PDF="325567" > PDF=325500 MemberID=67 </weight>
<weight id="1116" MUR="1.0" MUF="1.0" PDF="325568" > PDF=325500 MemberID=68 </weight>
<weight id="1117" MUR="1.0" MUF="1.0" PDF="325569" > PDF=325500 MemberID=69 </weight>
<weight id="1118" MUR="1.0" MUF="1.0" PDF="325570" > PDF=325500 MemberID=70 </weight>
<weight id="1119" MUR="1.0" MUF="1.0" PDF="325571" > PDF=325500 MemberID=71 </weight>
<weight id="1120" MUR="1.0" MUF="1.0" PDF="325572" > PDF=325500 MemberID=72 </weight>
<weight id="1121" MUR="1.0" MUF="1.0" PDF="325573" > PDF=325500 MemberID=73 </weight>
<weight id="1122" MUR="1.0" MUF="1.0" PDF="325574" > PDF=325500 MemberID=74 </weight>
<weight id="1123" MUR="1.0" MUF="1.0" PDF="325575" > PDF=325500 MemberID=75 </weight>
<weight id="1124" MUR="1.0" MUF="1.0" PDF="325576" > PDF=325500 MemberID=76 </weight>
<weight id="1125" MUR="1.0" MUF="1.0" PDF="325577" > PDF=325500 MemberID=77 </weight>
<weight id="1126" MUR="1.0" MUF="1.0" PDF="325578" > PDF=325500 MemberID=78 </weight>
<weight id="1127" MUR="1.0" MUF="1.0" PDF="325579" > PDF=325500 MemberID=79 </weight>
<weight id="1128" MUR="1.0" MUF="1.0" PDF="325580" > PDF=325500 MemberID=80 </weight>
<weight id="1129" MUR="1.0" MUF="1.0" PDF="325581" > PDF=325500 MemberID=81 </weight>
<weight id="1130" MUR="1.0" MUF="1.0" PDF="325582" > PDF=325500 MemberID=82 </weight>
<weight id="1131" MUR="1.0" MUF="1.0" PDF="325583" > PDF=325500 MemberID=83 </weight>
<weight id="1132" MUR="1.0" MUF="1.0" PDF="325584" > PDF=325500 MemberID=84 </weight>
<weight id="1133" MUR="1.0" MUF="1.0" PDF="325585" > PDF=325500 MemberID=85 </weight>
<weight id="1134" MUR="1.0" MUF="1.0" PDF="325586" > PDF=325500 MemberID=86 </weight>
<weight id="1135" MUR="1.0" MUF="1.0" PDF="325587" > PDF=325500 MemberID=87 </weight>
<weight id="1136" MUR="1.0" MUF="1.0" PDF="325588" > PDF=325500 MemberID=88 </weight>
<weight id="1137" MUR="1.0" MUF="1.0" PDF="325589" > PDF=325500 MemberID=89 </weight>
<weight id="1138" MUR="1.0" MUF="1.0" PDF="325590" > PDF=325500 MemberID=90 </weight>
<weight id="1139" MUR="1.0" MUF="1.0" PDF="325591" > PDF=325500 MemberID=91 </weight>
<weight id="1140" MUR="1.0" MUF="1.0" PDF="325592" > PDF=325500 MemberID=92 </weight>
<weight id="1141" MUR="1.0" MUF="1.0" PDF="325593" > PDF=325500 MemberID=93 </weight>
<weight id="1142" MUR="1.0" MUF="1.0" PDF="325594" > PDF=325500 MemberID=94 </weight>
<weight id="1143" MUR="1.0" MUF="1.0" PDF="325595" > PDF=325500 MemberID=95 </weight>
<weight id="1144" MUR="1.0" MUF="1.0" PDF="325596" > PDF=325500 MemberID=96 </weight>
<weight id="1145" MUR="1.0" MUF="1.0" PDF="325597" > PDF=325500 MemberID=97 </weight>
<weight id="1146" MUR="1.0" MUF="1.0" PDF="325598" > PDF=325500 MemberID=98 </weight>
<weight id="1147" MUR="1.0" MUF="1.0" PDF="325599" > PDF=325500 MemberID=99 </weight>
<weight id="1148" MUR="1.0" MUF="1.0" PDF="325600" > PDF=325500 MemberID=100 </weight>
</weightgroup> # PDFSET -> PDFSET
<weightgroup name="NNPDF31_nnlo_as_0118_nf_4" combine="replicas"> # 320900: NNPDF3.1 NNLO global fit, nf=4. mem=0 ; average on replicas; mem=1-100 ; PDF replicas
<weight id="1149" MUR="1.0" MUF="1.0" PDF="320900" > PDF=320900 MemberID=0 </weight>
<weight id="1150" MUR="1.0" MUF="1.0" PDF="320901" > PDF=320900 MemberID=1 </weight>
<weight id="1151" MUR="1.0" MUF="1.0" PDF="320902" > PDF=320900 MemberID=2 </weight>
<weight id="1152" MUR="1.0" MUF="1.0" PDF="320903" > PDF=320900 MemberID=3 </weight>
<weight id="1153" MUR="1.0" MUF="1.0" PDF="320904" > PDF=320900 MemberID=4 </weight>
<weight id="1154" MUR="1.0" MUF="1.0" PDF="320905" > PDF=320900 MemberID=5 </weight>
<weight id="1155" MUR="1.0" MUF="1.0" PDF="320906" > PDF=320900 MemberID=6 </weight>
<weight id="1156" MUR="1.0" MUF="1.0" PDF="320907" > PDF=320900 MemberID=7 </weight>
<weight id="1157" MUR="1.0" MUF="1.0" PDF="320908" > PDF=320900 MemberID=8 </weight>
<weight id="1158" MUR="1.0" MUF="1.0" PDF="320909" > PDF=320900 MemberID=9 </weight>
<weight id="1159" MUR="1.0" MUF="1.0" PDF="320910" > PDF=320900 MemberID=10 </weight>
<weight id="1160" MUR="1.0" MUF="1.0" PDF="320911" > PDF=320900 MemberID=11 </weight>
<weight id="1161" MUR="1.0" MUF="1.0" PDF="320912" > PDF=320900 MemberID=12 </weight>
<weight id="1162" MUR="1.0" MUF="1.0" PDF="320913" > PDF=320900 MemberID=13 </weight>
<weight id="1163" MUR="1.0" MUF="1.0" PDF="320914" > PDF=320900 MemberID=14 </weight>
<weight id="1164" MUR="1.0" MUF="1.0" PDF="320915" > PDF=320900 MemberID=15 </weight>
<weight id="1165" MUR="1.0" MUF="1.0" PDF="320916" > PDF=320900 MemberID=16 </weight>
<weight id="1166" MUR="1.0" MUF="1.0" PDF="320917" > PDF=320900 MemberID=17 </weight>
<weight id="1167" MUR="1.0" MUF="1.0" PDF="320918" > PDF=320900 MemberID=18 </weight>
<weight id="1168" MUR="1.0" MUF="1.0" PDF="320919" > PDF=320900 MemberID=19 </weight>
<weight id="1169" MUR="1.0" MUF="1.0" PDF="320920" > PDF=320900 MemberID=20 </weight>
<weight id="1170" MUR="1.0" MUF="1.0" PDF="320921" > PDF=320900 MemberID=21 </weight>
<weight id="1171" MUR="1.0" MUF="1.0" PDF="320922" > PDF=320900 MemberID=22 </weight>
<weight id="1172" MUR="1.0" MUF="1.0" PDF="320923" > PDF=320900 MemberID=23 </weight>
<weight id="1173" MUR="1.0" MUF="1.0" PDF="320924" > PDF=320900 MemberID=24 </weight>
<weight id="1174" MUR="1.0" MUF="1.0" PDF="320925" > PDF=320900 MemberID=25 </weight>
<weight id="1175" MUR="1.0" MUF="1.0" PDF="320926" > PDF=320900 MemberID=26 </weight>
<weight id="1176" MUR="1.0" MUF="1.0" PDF="320927" > PDF=320900 MemberID=27 </weight>
<weight id="1177" MUR="1.0" MUF="1.0" PDF="320928" > PDF=320900 MemberID=28 </weight>
<weight id="1178" MUR="1.0" MUF="1.0" PDF="320929" > PDF=320900 MemberID=29 </weight>
<weight id="1179" MUR="1.0" MUF="1.0" PDF="320930" > PDF=320900 MemberID=30 </weight>
<weight id="1180" MUR="1.0" MUF="1.0" PDF="320931" > PDF=320900 MemberID=31 </weight>
<weight id="1181" MUR="1.0" MUF="1.0" PDF="320932" > PDF=320900 MemberID=32 </weight>
<weight id="1182" MUR="1.0" MUF="1.0" PDF="320933" > PDF=320900 MemberID=33 </weight>
<weight id="1183" MUR="1.0" MUF="1.0" PDF="320934" > PDF=320900 MemberID=34 </weight>
<weight id="1184" MUR="1.0" MUF="1.0" PDF="320935" > PDF=320900 MemberID=35 </weight>
<weight id="1185" MUR="1.0" MUF="1.0" PDF="320936" > PDF=320900 MemberID=36 </weight>
<weight id="1186" MUR="1.0" MUF="1.0" PDF="320937" > PDF=320900 MemberID=37 </weight>
<weight id="1187" MUR="1.0" MUF="1.0" PDF="320938" > PDF=320900 MemberID=38 </weight>
<weight id="1188" MUR="1.0" MUF="1.0" PDF="320939" > PDF=320900 MemberID=39 </weight>
<weight id="1189" MUR="1.0" MUF="1.0" PDF="320940" > PDF=320900 MemberID=40 </weight>
<weight id="1190" MUR="1.0" MUF="1.0" PDF="320941" > PDF=320900 MemberID=41 </weight>
<weight id="1191" MUR="1.0" MUF="1.0" PDF="320942" > PDF=320900 MemberID=42 </weight>
<weight id="1192" MUR="1.0" MUF="1.0" PDF="320943" > PDF=320900 MemberID=43 </weight>
<weight id="1193" MUR="1.0" MUF="1.0" PDF="320944" > PDF=320900 MemberID=44 </weight>
<weight id="1194" MUR="1.0" MUF="1.0" PDF="320945" > PDF=320900 MemberID=45 </weight>
<weight id="1195" MUR="1.0" MUF="1.0" PDF="320946" > PDF=320900 MemberID=46 </weight>
<weight id="1196" MUR="1.0" MUF="1.0" PDF="320947" > PDF=320900 MemberID=47 </weight>
<weight id="1197" MUR="1.0" MUF="1.0" PDF="320948" > PDF=320900 MemberID=48 </weight>
<weight id="1198" MUR="1.0" MUF="1.0" PDF="320949" > PDF=320900 MemberID=49 </weight>
<weight id="1199" MUR="1.0" MUF="1.0" PDF="320950" > PDF=320900 MemberID=50 </weight>
<weight id="1200" MUR="1.0" MUF="1.0" PDF="320951" > PDF=320900 MemberID=51 </weight>
<weight id="1201" MUR="1.0" MUF="1.0" PDF="320952" > PDF=320900 MemberID=52 </weight>
<weight id="1202" MUR="1.0" MUF="1.0" PDF="320953" > PDF=320900 MemberID=53 </weight>
<weight id="1203" MUR="1.0" MUF="1.0" PDF="320954" > PDF=320900 MemberID=54 </weight>
<weight id="1204" MUR="1.0" MUF="1.0" PDF="320955" > PDF=320900 MemberID=55 </weight>
<weight id="1205" MUR="1.0" MUF="1.0" PDF="320956" > PDF=320900 MemberID=56 </weight>
<weight id="1206" MUR="1.0" MUF="1.0" PDF="320957" > PDF=320900 MemberID=57 </weight>
<weight id="1207" MUR="1.0" MUF="1.0" PDF="320958" > PDF=320900 MemberID=58 </weight>
<weight id="1208" MUR="1.0" MUF="1.0" PDF="320959" > PDF=320900 MemberID=59 </weight>
<weight id="1209" MUR="1.0" MUF="1.0" PDF="320960" > PDF=320900 MemberID=60 </weight>
<weight id="1210" MUR="1.0" MUF="1.0" PDF="320961" > PDF=320900 MemberID=61 </weight>
<weight id="1211" MUR="1.0" MUF="1.0" PDF="320962" > PDF=320900 MemberID=62 </weight>
<weight id="1212" MUR="1.0" MUF="1.0" PDF="320963" > PDF=320900 MemberID=63 </weight>
<weight id="1213" MUR="1.0" MUF="1.0" PDF="320964" > PDF=320900 MemberID=64 </weight>
<weight id="1214" MUR="1.0" MUF="1.0" PDF="320965" > PDF=320900 MemberID=65 </weight>
<weight id="1215" MUR="1.0" MUF="1.0" PDF="320966" > PDF=320900 MemberID=66 </weight>
<weight id="1216" MUR="1.0" MUF="1.0" PDF="320967" > PDF=320900 MemberID=67 </weight>
<weight id="1217" MUR="1.0" MUF="1.0" PDF="320968" > PDF=320900 MemberID=68 </weight>
<weight id="1218" MUR="1.0" MUF="1.0" PDF="320969" > PDF=320900 MemberID=69 </weight>
<weight id="1219" MUR="1.0" MUF="1.0" PDF="320970" > PDF=320900 MemberID=70 </weight>
<weight id="1220" MUR="1.0" MUF="1.0" PDF="320971" > PDF=320900 MemberID=71 </weight>
<weight id="1221" MUR="1.0" MUF="1.0" PDF="320972" > PDF=320900 MemberID=72 </weight>
<weight id="1222" MUR="1.0" MUF="1.0" PDF="320973" > PDF=320900 MemberID=73 </weight>
<weight id="1223" MUR="1.0" MUF="1.0" PDF="320974" > PDF=320900 MemberID=74 </weight>
<weight id="1224" MUR="1.0" MUF="1.0" PDF="320975" > PDF=320900 MemberID=75 </weight>
<weight id="1225" MUR="1.0" MUF="1.0" PDF="320976" > PDF=320900 MemberID=76 </weight>
<weight id="1226" MUR="1.0" MUF="1.0" PDF="320977" > PDF=320900 MemberID=77 </weight>
<weight id="1227" MUR="1.0" MUF="1.0" PDF="320978" > PDF=320900 MemberID=78 </weight>
<weight id="1228" MUR="1.0" MUF="1.0" PDF="320979" > PDF=320900 MemberID=79 </weight>
<weight id="1229" MUR="1.0" MUF="1.0" PDF="320980" > PDF=320900 MemberID=80 </weight>
<weight id="1230" MUR="1.0" MUF="1.0" PDF="320981" > PDF=320900 MemberID=81 </weight>
<weight id="1231" MUR="1.0" MUF="1.0" PDF="320982" > PDF=320900 MemberID=82 </weight>
<weight id="1232" MUR="1.0" MUF="1.0" PDF="320983" > PDF=320900 MemberID=83 </weight>
<weight id="1233" MUR="1.0" MUF="1.0" PDF="320984" > PDF=320900 MemberID=84 </weight>
<weight id="1234" MUR="1.0" MUF="1.0" PDF="320985" > PDF=320900 MemberID=85 </weight>
<weight id="1235" MUR="1.0" MUF="1.0" PDF="320986" > PDF=320900 MemberID=86 </weight>
<weight id="1236" MUR="1.0" MUF="1.0" PDF="320987" > PDF=320900 MemberID=87 </weight>
<weight id="1237" MUR="1.0" MUF="1.0" PDF="320988" > PDF=320900 MemberID=88 </weight>
<weight id="1238" MUR="1.0" MUF="1.0" PDF="320989" > PDF=320900 MemberID=89 </weight>
<weight id="1239" MUR="1.0" MUF="1.0" PDF="320990" > PDF=320900 MemberID=90 </weight>
<weight id="1240" MUR="1.0" MUF="1.0" PDF="320991" > PDF=320900 MemberID=91 </weight>
<weight id="1241" MUR="1.0" MUF="1.0" PDF="320992" > PDF=320900 MemberID=92 </weight>
<weight id="1242" MUR="1.0" MUF="1.0" PDF="320993" > PDF=320900 MemberID=93 </weight>
<weight id="1243" MUR="1.0" MUF="1.0" PDF="320994" > PDF=320900 MemberID=94 </weight>
<weight id="1244" MUR="1.0" MUF="1.0" PDF="320995" > PDF=320900 MemberID=95 </weight>
<weight id="1245" MUR="1.0" MUF="1.0" PDF="320996" > PDF=320900 MemberID=96 </weight>
<weight id="1246" MUR="1.0" MUF="1.0" PDF="320997" > PDF=320900 MemberID=97 </weight>
<weight id="1247" MUR="1.0" MUF="1.0" PDF="320998" > PDF=320900 MemberID=98 </weight>
<weight id="1248" MUR="1.0" MUF="1.0" PDF="320999" > PDF=320900 MemberID=99 </weight>
<weight id="1249" MUR="1.0" MUF="1.0" PDF="321000" > PDF=320900 MemberID=100 </weight>
</weightgroup> # PDFSET -> PDFSET
<weightgroup name="CT10nlo_nf4" combine="unknown"> # 11082: CT10 NLO PDF fixed 4-flavour fits using the standard CTEQ PDF evolution but using the HOPPET alphas_s running solution. NEW CT12 grid type. Excluding the D0 Run-II W asymmetry data. mem=0 ; mem=0 ; NF4 high scale Q=m_Z=91.190 GeV; mem=1 ; NF4 low scale  Q=m_tau=1.778 GeV
<weight id="1250" MUR="1.0" MUF="1.0" PDF="11082" > PDF=11082 MemberID=0 </weight>
<weight id="1251" MUR="1.0" MUF="1.0" PDF="11083" > PDF=11082 MemberID=1 </weight>
</weightgroup> # PDFSET -> PDF
<weight id="1252" MUR="1.0" MUF="1.0" PDF="13091" > PDF=13091 MemberID=0 </weight>
<weight id="1253" MUR="1.0" MUF="1.0" PDF="13191" > PDF=13191 MemberID=0 </weight>
<weight id="1254" MUR="1.0" MUF="1.0" PDF="13202" > PDF=13202 MemberID=0 </weight>
<weightgroup name="MSTW2008lo68cl_nf4" combine="hessian"> # 23100: MSTW 2008 LO (68% C.L.) evolved with 4 flavours maximum.  This set has 41 member PDFs.  mem=0 ; central value; mem=1-40 ; 20 eigenvectors (+/- directions).  http://mstwpdf.hepforge.org
<weight id="1255" MUR="1.0" MUF="1.0" PDF="23100" > PDF=23100 MemberID=0 </weight>
<weight id="1256" MUR="1.0" MUF="1.0" PDF="23101" > PDF=23100 MemberID=1 </weight>
<weight id="1257" MUR="1.0" MUF="1.0" PDF="23102" > PDF=23100 MemberID=2 </weight>
<weight id="1258" MUR="1.0" MUF="1.0" PDF="23103" > PDF=23100 MemberID=3 </weight>
<weight id="1259" MUR="1.0" MUF="1.0" PDF="23104" > PDF=23100 MemberID=4 </weight>
<weight id="1260" MUR="1.0" MUF="1.0" PDF="23105" > PDF=23100 MemberID=5 </weight>
<weight id="1261" MUR="1.0" MUF="1.0" PDF="23106" > PDF=23100 MemberID=6 </weight>
<weight id="1262" MUR="1.0" MUF="1.0" PDF="23107" > PDF=23100 MemberID=7 </weight>
<weight id="1263" MUR="1.0" MUF="1.0" PDF="23108" > PDF=23100 MemberID=8 </weight>
<weight id="1264" MUR="1.0" MUF="1.0" PDF="23109" > PDF=23100 MemberID=9 </weight>
<weight id="1265" MUR="1.0" MUF="1.0" PDF="23110" > PDF=23100 MemberID=10 </weight>
<weight id="1266" MUR="1.0" MUF="1.0" PDF="23111" > PDF=23100 MemberID=11 </weight>
<weight id="1267" MUR="1.0" MUF="1.0" PDF="23112" > PDF=23100 MemberID=12 </weight>
<weight id="1268" MUR="1.0" MUF="1.0" PDF="23113" > PDF=23100 MemberID=13 </weight>
<weight id="1269" MUR="1.0" MUF="1.0" PDF="23114" > PDF=23100 MemberID=14 </weight>
<weight id="1270" MUR="1.0" MUF="1.0" PDF="23115" > PDF=23100 MemberID=15 </weight>
<weight id="1271" MUR="1.0" MUF="1.0" PDF="23116" > PDF=23100 MemberID=16 </weight>
<weight id="1272" MUR="1.0" MUF="1.0" PDF="23117" > PDF=23100 MemberID=17 </weight>
<weight id="1273" MUR="1.0" MUF="1.0" PDF="23118" > PDF=23100 MemberID=18 </weight>
<weight id="1274" MUR="1.0" MUF="1.0" PDF="23119" > PDF=23100 MemberID=19 </weight>
<weight id="1275" MUR="1.0" MUF="1.0" PDF="23120" > PDF=23100 MemberID=20 </weight>
<weight id="1276" MUR="1.0" MUF="1.0" PDF="23121" > PDF=23100 MemberID=21 </weight>
<weight id="1277" MUR="1.0" MUF="1.0" PDF="23122" > PDF=23100 MemberID=22 </weight>
<weight id="1278" MUR="1.0" MUF="1.0" PDF="23123" > PDF=23100 MemberID=23 </weight>
<weight id="1279" MUR="1.0" MUF="1.0" PDF="23124" > PDF=23100 MemberID=24 </weight>
<weight id="1280" MUR="1.0" MUF="1.0" PDF="23125" > PDF=23100 MemberID=25 </weight>
<weight id="1281" MUR="1.0" MUF="1.0" PDF="23126" > PDF=23100 MemberID=26 </weight>
<weight id="1282" MUR="1.0" MUF="1.0" PDF="23127" > PDF=23100 MemberID=27 </weight>
<weight id="1283" MUR="1.0" MUF="1.0" PDF="23128" > PDF=23100 MemberID=28 </weight>
<weight id="1284" MUR="1.0" MUF="1.0" PDF="23129" > PDF=23100 MemberID=29 </weight>
<weight id="1285" MUR="1.0" MUF="1.0" PDF="23130" > PDF=23100 MemberID=30 </weight>
<weight id="1286" MUR="1.0" MUF="1.0" PDF="23131" > PDF=23100 MemberID=31 </weight>
<weight id="1287" MUR="1.0" MUF="1.0" PDF="23132" > PDF=23100 MemberID=32 </weight>
<weight id="1288" MUR="1.0" MUF="1.0" PDF="23133" > PDF=23100 MemberID=33 </weight>
<weight id="1289" MUR="1.0" MUF="1.0" PDF="23134" > PDF=23100 MemberID=34 </weight>
<weight id="1290" MUR="1.0" MUF="1.0" PDF="23135" > PDF=23100 MemberID=35 </weight>
<weight id="1291" MUR="1.0" MUF="1.0" PDF="23136" > PDF=23100 MemberID=36 </weight>
<weight id="1292" MUR="1.0" MUF="1.0" PDF="23137" > PDF=23100 MemberID=37 </weight>
<weight id="1293" MUR="1.0" MUF="1.0" PDF="23138" > PDF=23100 MemberID=38 </weight>
<weight id="1294" MUR="1.0" MUF="1.0" PDF="23139" > PDF=23100 MemberID=39 </weight>
<weight id="1295" MUR="1.0" MUF="1.0" PDF="23140" > PDF=23100 MemberID=40 </weight>
</weightgroup> # PDFSET -> PDFSET
<weightgroup name="MSTW2008nlo68cl_nf4" combine="hessian"> # 23300: MSTW 2008 NLO (68% C.L.) evolved with 4 flavours maximum.  This set has 41 member PDFs.  mem=0 ; central value; mem=1-40 ; 20 eigenvectors (+/- directions).  http://mstwpdf.hepforge.org
<weight id="1296" MUR="1.0" MUF="1.0" PDF="23300" > PDF=23300 MemberID=0 </weight>
<weight id="1297" MUR="1.0" MUF="1.0" PDF="23301" > PDF=23300 MemberID=1 </weight>
<weight id="1298" MUR="1.0" MUF="1.0" PDF="23302" > PDF=23300 MemberID=2 </weight>
<weight id="1299" MUR="1.0" MUF="1.0" PDF="23303" > PDF=23300 MemberID=3 </weight>
<weight id="1300" MUR="1.0" MUF="1.0" PDF="23304" > PDF=23300 MemberID=4 </weight>
<weight id="1301" MUR="1.0" MUF="1.0" PDF="23305" > PDF=23300 MemberID=5 </weight>
<weight id="1302" MUR="1.0" MUF="1.0" PDF="23306" > PDF=23300 MemberID=6 </weight>
<weight id="1303" MUR="1.0" MUF="1.0" PDF="23307" > PDF=23300 MemberID=7 </weight>
<weight id="1304" MUR="1.0" MUF="1.0" PDF="23308" > PDF=23300 MemberID=8 </weight>
<weight id="1305" MUR="1.0" MUF="1.0" PDF="23309" > PDF=23300 MemberID=9 </weight>
<weight id="1306" MUR="1.0" MUF="1.0" PDF="23310" > PDF=23300 MemberID=10 </weight>
<weight id="1307" MUR="1.0" MUF="1.0" PDF="23311" > PDF=23300 MemberID=11 </weight>
<weight id="1308" MUR="1.0" MUF="1.0" PDF="23312" > PDF=23300 MemberID=12 </weight>
<weight id="1309" MUR="1.0" MUF="1.0" PDF="23313" > PDF=23300 MemberID=13 </weight>
<weight id="1310" MUR="1.0" MUF="1.0" PDF="23314" > PDF=23300 MemberID=14 </weight>
<weight id="1311" MUR="1.0" MUF="1.0" PDF="23315" > PDF=23300 MemberID=15 </weight>
<weight id="1312" MUR="1.0" MUF="1.0" PDF="23316" > PDF=23300 MemberID=16 </weight>
<weight id="1313" MUR="1.0" MUF="1.0" PDF="23317" > PDF=23300 MemberID=17 </weight>
<weight id="1314" MUR="1.0" MUF="1.0" PDF="23318" > PDF=23300 MemberID=18 </weight>
<weight id="1315" MUR="1.0" MUF="1.0" PDF="23319" > PDF=23300 MemberID=19 </weight>
<weight id="1316" MUR="1.0" MUF="1.0" PDF="23320" > PDF=23300 MemberID=20 </weight>
<weight id="1317" MUR="1.0" MUF="1.0" PDF="23321" > PDF=23300 MemberID=21 </weight>
<weight id="1318" MUR="1.0" MUF="1.0" PDF="23322" > PDF=23300 MemberID=22 </weight>
<weight id="1319" MUR="1.0" MUF="1.0" PDF="23323" > PDF=23300 MemberID=23 </weight>
<weight id="1320" MUR="1.0" MUF="1.0" PDF="23324" > PDF=23300 MemberID=24 </weight>
<weight id="1321" MUR="1.0" MUF="1.0" PDF="23325" > PDF=23300 MemberID=25 </weight>
<weight id="1322" MUR="1.0" MUF="1.0" PDF="23326" > PDF=23300 MemberID=26 </weight>
<weight id="1323" MUR="1.0" MUF="1.0" PDF="23327" > PDF=23300 MemberID=27 </weight>
<weight id="1324" MUR="1.0" MUF="1.0" PDF="23328" > PDF=23300 MemberID=28 </weight>
<weight id="1325" MUR="1.0" MUF="1.0" PDF="23329" > PDF=23300 MemberID=29 </weight>
<weight id="1326" MUR="1.0" MUF="1.0" PDF="23330" > PDF=23300 MemberID=30 </weight>
<weight id="1327" MUR="1.0" MUF="1.0" PDF="23331" > PDF=23300 MemberID=31 </weight>
<weight id="1328" MUR="1.0" MUF="1.0" PDF="23332" > PDF=23300 MemberID=32 </weight>
<weight id="1329" MUR="1.0" MUF="1.0" PDF="23333" > PDF=23300 MemberID=33 </weight>
<weight id="1330" MUR="1.0" MUF="1.0" PDF="23334" > PDF=23300 MemberID=34 </weight>
<weight id="1331" MUR="1.0" MUF="1.0" PDF="23335" > PDF=23300 MemberID=35 </weight>
<weight id="1332" MUR="1.0" MUF="1.0" PDF="23336" > PDF=23300 MemberID=36 </weight>
<weight id="1333" MUR="1.0" MUF="1.0" PDF="23337" > PDF=23300 MemberID=37 </weight>
<weight id="1334" MUR="1.0" MUF="1.0" PDF="23338" > PDF=23300 MemberID=38 </weight>
<weight id="1335" MUR="1.0" MUF="1.0" PDF="23339" > PDF=23300 MemberID=39 </weight>
<weight id="1336" MUR="1.0" MUF="1.0" PDF="23340" > PDF=23300 MemberID=40 </weight>
</weightgroup> # PDFSET -> PDFSET
<weightgroup name="MSTW2008nlo_mbrange_nf4" combine="unknown"> # 23490: MSTW 2008 NLO (fits for range of m_b values, evolve with 4 flavours maximum).  This set has 7 member PDFs.  mem=0 ; default m_b = 4.75 GeV; mem=1-6 ; m_b = 4.00, 4.25, 4.50, 5.00, 5.25, 5.50 GeV.  http://mstwpdf.hepforge.org
<weight id="1337" MUR="1.0" MUF="1.0" PDF="23490" > PDF=23490 MemberID=0 </weight>
<weight id="1338" MUR="1.0" MUF="1.0" PDF="23491" > PDF=23490 MemberID=1 </weight>
<weight id="1339" MUR="1.0" MUF="1.0" PDF="23492" > PDF=23490 MemberID=2 </weight>
<weight id="1340" MUR="1.0" MUF="1.0" PDF="23493" > PDF=23490 MemberID=3 </weight>
<weight id="1341" MUR="1.0" MUF="1.0" PDF="23494" > PDF=23490 MemberID=4 </weight>
<weight id="1342" MUR="1.0" MUF="1.0" PDF="23495" > PDF=23490 MemberID=5 </weight>
<weight id="1343" MUR="1.0" MUF="1.0" PDF="23496" > PDF=23490 MemberID=6 </weight>
</weightgroup> # PDFSET -> PDFSET
<weightgroup name="MSTW2008nnlo68cl_nf4" combine="hessian"> # 23600: MSTW 2008 NNLO (68% C.L.) evolved with 4 flavours maximum.  This set has 41 member PDFs.  mem=0 ; central value; mem=1-40 ; 20 eigenvectors (+/- directions).  http://mstwpdf.hepforge.org
<weight id="1344" MUR="1.0" MUF="1.0" PDF="23600" > PDF=23600 MemberID=0 </weight>
<weight id="1345" MUR="1.0" MUF="1.0" PDF="23601" > PDF=23600 MemberID=1 </weight>
<weight id="1346" MUR="1.0" MUF="1.0" PDF="23602" > PDF=23600 MemberID=2 </weight>
<weight id="1347" MUR="1.0" MUF="1.0" PDF="23603" > PDF=23600 MemberID=3 </weight>
<weight id="1348" MUR="1.0" MUF="1.0" PDF="23604" > PDF=23600 MemberID=4 </weight>
<weight id="1349" MUR="1.0" MUF="1.0" PDF="23605" > PDF=23600 MemberID=5 </weight>
<weight id="1350" MUR="1.0" MUF="1.0" PDF="23606" > PDF=23600 MemberID=6 </weight>
<weight id="1351" MUR="1.0" MUF="1.0" PDF="23607" > PDF=23600 MemberID=7 </weight>
<weight id="1352" MUR="1.0" MUF="1.0" PDF="23608" > PDF=23600 MemberID=8 </weight>
<weight id="1353" MUR="1.0" MUF="1.0" PDF="23609" > PDF=23600 MemberID=9 </weight>
<weight id="1354" MUR="1.0" MUF="1.0" PDF="23610" > PDF=23600 MemberID=10 </weight>
<weight id="1355" MUR="1.0" MUF="1.0" PDF="23611" > PDF=23600 MemberID=11 </weight>
<weight id="1356" MUR="1.0" MUF="1.0" PDF="23612" > PDF=23600 MemberID=12 </weight>
<weight id="1357" MUR="1.0" MUF="1.0" PDF="23613" > PDF=23600 MemberID=13 </weight>
<weight id="1358" MUR="1.0" MUF="1.0" PDF="23614" > PDF=23600 MemberID=14 </weight>
<weight id="1359" MUR="1.0" MUF="1.0" PDF="23615" > PDF=23600 MemberID=15 </weight>
<weight id="1360" MUR="1.0" MUF="1.0" PDF="23616" > PDF=23600 MemberID=16 </weight>
<weight id="1361" MUR="1.0" MUF="1.0" PDF="23617" > PDF=23600 MemberID=17 </weight>
<weight id="1362" MUR="1.0" MUF="1.0" PDF="23618" > PDF=23600 MemberID=18 </weight>
<weight id="1363" MUR="1.0" MUF="1.0" PDF="23619" > PDF=23600 MemberID=19 </weight>
<weight id="1364" MUR="1.0" MUF="1.0" PDF="23620" > PDF=23600 MemberID=20 </weight>
<weight id="1365" MUR="1.0" MUF="1.0" PDF="23621" > PDF=23600 MemberID=21 </weight>
<weight id="1366" MUR="1.0" MUF="1.0" PDF="23622" > PDF=23600 MemberID=22 </weight>
<weight id="1367" MUR="1.0" MUF="1.0" PDF="23623" > PDF=23600 MemberID=23 </weight>
<weight id="1368" MUR="1.0" MUF="1.0" PDF="23624" > PDF=23600 MemberID=24 </weight>
<weight id="1369" MUR="1.0" MUF="1.0" PDF="23625" > PDF=23600 MemberID=25 </weight>
<weight id="1370" MUR="1.0" MUF="1.0" PDF="23626" > PDF=23600 MemberID=26 </weight>
<weight id="1371" MUR="1.0" MUF="1.0" PDF="23627" > PDF=23600 MemberID=27 </weight>
<weight id="1372" MUR="1.0" MUF="1.0" PDF="23628" > PDF=23600 MemberID=28 </weight>
<weight id="1373" MUR="1.0" MUF="1.0" PDF="23629" > PDF=23600 MemberID=29 </weight>
<weight id="1374" MUR="1.0" MUF="1.0" PDF="23630" > PDF=23600 MemberID=30 </weight>
<weight id="1375" MUR="1.0" MUF="1.0" PDF="23631" > PDF=23600 MemberID=31 </weight>
<weight id="1376" MUR="1.0" MUF="1.0" PDF="23632" > PDF=23600 MemberID=32 </weight>
<weight id="1377" MUR="1.0" MUF="1.0" PDF="23633" > PDF=23600 MemberID=33 </weight>
<weight id="1378" MUR="1.0" MUF="1.0" PDF="23634" > PDF=23600 MemberID=34 </weight>
<weight id="1379" MUR="1.0" MUF="1.0" PDF="23635" > PDF=23600 MemberID=35 </weight>
<weight id="1380" MUR="1.0" MUF="1.0" PDF="23636" > PDF=23600 MemberID=36 </weight>
<weight id="1381" MUR="1.0" MUF="1.0" PDF="23637" > PDF=23600 MemberID=37 </weight>
<weight id="1382" MUR="1.0" MUF="1.0" PDF="23638" > PDF=23600 MemberID=38 </weight>
<weight id="1383" MUR="1.0" MUF="1.0" PDF="23639" > PDF=23600 MemberID=39 </weight>
<weight id="1384" MUR="1.0" MUF="1.0" PDF="23640" > PDF=23600 MemberID=40 </weight>
</weightgroup> # PDFSET -> PDFSET
<weightgroup name="MSTW2008nnlo_mbrange_nf4" combine="unknown"> # 23790: MSTW 2008 NNLO (fits for range of m_b values, evolve with 4 flavours maximum).  This set has 7 member PDFs.  mem=0 ; default m_b = 4.75 GeV; mem=1-6 ; m_b = 4.00, 4.25, 4.50, 5.00, 5.25, 5.50 GeV.  http://mstwpdf.hepforge.org
<weight id="1385" MUR="1.0" MUF="1.0" PDF="23790" > PDF=23790 MemberID=0 </weight>
<weight id="1386" MUR="1.0" MUF="1.0" PDF="23791" > PDF=23790 MemberID=1 </weight>
<weight id="1387" MUR="1.0" MUF="1.0" PDF="23792" > PDF=23790 MemberID=2 </weight>
<weight id="1388" MUR="1.0" MUF="1.0" PDF="23793" > PDF=23790 MemberID=3 </weight>
<weight id="1389" MUR="1.0" MUF="1.0" PDF="23794" > PDF=23790 MemberID=4 </weight>
<weight id="1390" MUR="1.0" MUF="1.0" PDF="23795" > PDF=23790 MemberID=5 </weight>
<weight id="1391" MUR="1.0" MUF="1.0" PDF="23796" > PDF=23790 MemberID=6 </weight>
</weightgroup> # PDFSET -> PDFSET
<weightgroup name="MMHT2014nlo68cl_nf4" combine="hessian"> # 25410: MMHT 2014 NLO (68% C.L.): evolve with 4 flavours maximum. This set has 51 member PDFs. mem=0 --.gt. central value; mem=1-50 --.gt. 20 eigenvector sets (+/- directions). Website: www.hep.ucl.ac.uk/mmht
<weight id="1392" MUR="1.0" MUF="1.0" PDF="25410" > PDF=25410 MemberID=0 </weight>
<weight id="1393" MUR="1.0" MUF="1.0" PDF="25411" > PDF=25410 MemberID=1 </weight>
<weight id="1394" MUR="1.0" MUF="1.0" PDF="25412" > PDF=25410 MemberID=2 </weight>
<weight id="1395" MUR="1.0" MUF="1.0" PDF="25413" > PDF=25410 MemberID=3 </weight>
<weight id="1396" MUR="1.0" MUF="1.0" PDF="25414" > PDF=25410 MemberID=4 </weight>
<weight id="1397" MUR="1.0" MUF="1.0" PDF="25415" > PDF=25410 MemberID=5 </weight>
<weight id="1398" MUR="1.0" MUF="1.0" PDF="25416" > PDF=25410 MemberID=6 </weight>
<weight id="1399" MUR="1.0" MUF="1.0" PDF="25417" > PDF=25410 MemberID=7 </weight>
<weight id="1400" MUR="1.0" MUF="1.0" PDF="25418" > PDF=25410 MemberID=8 </weight>
<weight id="1401" MUR="1.0" MUF="1.0" PDF="25419" > PDF=25410 MemberID=9 </weight>
<weight id="1402" MUR="1.0" MUF="1.0" PDF="25420" > PDF=25410 MemberID=10 </weight>
<weight id="1403" MUR="1.0" MUF="1.0" PDF="25421" > PDF=25410 MemberID=11 </weight>
<weight id="1404" MUR="1.0" MUF="1.0" PDF="25422" > PDF=25410 MemberID=12 </weight>
<weight id="1405" MUR="1.0" MUF="1.0" PDF="25423" > PDF=25410 MemberID=13 </weight>
<weight id="1406" MUR="1.0" MUF="1.0" PDF="25424" > PDF=25410 MemberID=14 </weight>
<weight id="1407" MUR="1.0" MUF="1.0" PDF="25425" > PDF=25410 MemberID=15 </weight>
<weight id="1408" MUR="1.0" MUF="1.0" PDF="25426" > PDF=25410 MemberID=16 </weight>
<weight id="1409" MUR="1.0" MUF="1.0" PDF="25427" > PDF=25410 MemberID=17 </weight>
<weight id="1410" MUR="1.0" MUF="1.0" PDF="25428" > PDF=25410 MemberID=18 </weight>
<weight id="1411" MUR="1.0" MUF="1.0" PDF="25429" > PDF=25410 MemberID=19 </weight>
<weight id="1412" MUR="1.0" MUF="1.0" PDF="25430" > PDF=25410 MemberID=20 </weight>
<weight id="1413" MUR="1.0" MUF="1.0" PDF="25431" > PDF=25410 MemberID=21 </weight>
<weight id="1414" MUR="1.0" MUF="1.0" PDF="25432" > PDF=25410 MemberID=22 </weight>
<weight id="1415" MUR="1.0" MUF="1.0" PDF="25433" > PDF=25410 MemberID=23 </weight>
<weight id="1416" MUR="1.0" MUF="1.0" PDF="25434" > PDF=25410 MemberID=24 </weight>
<weight id="1417" MUR="1.0" MUF="1.0" PDF="25435" > PDF=25410 MemberID=25 </weight>
<weight id="1418" MUR="1.0" MUF="1.0" PDF="25436" > PDF=25410 MemberID=26 </weight>
<weight id="1419" MUR="1.0" MUF="1.0" PDF="25437" > PDF=25410 MemberID=27 </weight>
<weight id="1420" MUR="1.0" MUF="1.0" PDF="25438" > PDF=25410 MemberID=28 </weight>
<weight id="1421" MUR="1.0" MUF="1.0" PDF="25439" > PDF=25410 MemberID=29 </weight>
<weight id="1422" MUR="1.0" MUF="1.0" PDF="25440" > PDF=25410 MemberID=30 </weight>
<weight id="1423" MUR="1.0" MUF="1.0" PDF="25441" > PDF=25410 MemberID=31 </weight>
<weight id="1424" MUR="1.0" MUF="1.0" PDF="25442" > PDF=25410 MemberID=32 </weight>
<weight id="1425" MUR="1.0" MUF="1.0" PDF="25443" > PDF=25410 MemberID=33 </weight>
<weight id="1426" MUR="1.0" MUF="1.0" PDF="25444" > PDF=25410 MemberID=34 </weight>
<weight id="1427" MUR="1.0" MUF="1.0" PDF="25445" > PDF=25410 MemberID=35 </weight>
<weight id="1428" MUR="1.0" MUF="1.0" PDF="25446" > PDF=25410 MemberID=36 </weight>
<weight id="1429" MUR="1.0" MUF="1.0" PDF="25447" > PDF=25410 MemberID=37 </weight>
<weight id="1430" MUR="1.0" MUF="1.0" PDF="25448" > PDF=25410 MemberID=38 </weight>
<weight id="1431" MUR="1.0" MUF="1.0" PDF="25449" > PDF=25410 MemberID=39 </weight>
<weight id="1432" MUR="1.0" MUF="1.0" PDF="25450" > PDF=25410 MemberID=40 </weight>
<weight id="1433" MUR="1.0" MUF="1.0" PDF="25451" > PDF=25410 MemberID=41 </weight>
<weight id="1434" MUR="1.0" MUF="1.0" PDF="25452" > PDF=25410 MemberID=42 </weight>
<weight id="1435" MUR="1.0" MUF="1.0" PDF="25453" > PDF=25410 MemberID=43 </weight>
<weight id="1436" MUR="1.0" MUF="1.0" PDF="25454" > PDF=25410 MemberID=44 </weight>
<weight id="1437" MUR="1.0" MUF="1.0" PDF="25455" > PDF=25410 MemberID=45 </weight>
<weight id="1438" MUR="1.0" MUF="1.0" PDF="25456" > PDF=25410 MemberID=46 </weight>
<weight id="1439" MUR="1.0" MUF="1.0" PDF="25457" > PDF=25410 MemberID=47 </weight>
<weight id="1440" MUR="1.0" MUF="1.0" PDF="25458" > PDF=25410 MemberID=48 </weight>
<weight id="1441" MUR="1.0" MUF="1.0" PDF="25459" > PDF=25410 MemberID=49 </weight>
<weight id="1442" MUR="1.0" MUF="1.0" PDF="25460" > PDF=25410 MemberID=50 </weight>
</weightgroup> # PDFSET -> PDFSET
<weightgroup name="MMHT2014nlo68clas118_nf4" combine="hessian"> # 25510: MMHT 2014 NLO (68% C.L.): evolve with 4 flavours maximum. This set has 51 member PDFs. mem=0 --.gt. central value; mem=1-50 --.gt. 20 eigenvector sets (+/- directions). Website: www.hep.ucl.ac.uk/mmht
<weight id="1443" MUR="1.0" MUF="1.0" PDF="25510" > PDF=25510 MemberID=0 </weight>
<weight id="1444" MUR="1.0" MUF="1.0" PDF="25511" > PDF=25510 MemberID=1 </weight>
<weight id="1445" MUR="1.0" MUF="1.0" PDF="25512" > PDF=25510 MemberID=2 </weight>
<weight id="1446" MUR="1.0" MUF="1.0" PDF="25513" > PDF=25510 MemberID=3 </weight>
<weight id="1447" MUR="1.0" MUF="1.0" PDF="25514" > PDF=25510 MemberID=4 </weight>
<weight id="1448" MUR="1.0" MUF="1.0" PDF="25515" > PDF=25510 MemberID=5 </weight>
<weight id="1449" MUR="1.0" MUF="1.0" PDF="25516" > PDF=25510 MemberID=6 </weight>
<weight id="1450" MUR="1.0" MUF="1.0" PDF="25517" > PDF=25510 MemberID=7 </weight>
<weight id="1451" MUR="1.0" MUF="1.0" PDF="25518" > PDF=25510 MemberID=8 </weight>
<weight id="1452" MUR="1.0" MUF="1.0" PDF="25519" > PDF=25510 MemberID=9 </weight>
<weight id="1453" MUR="1.0" MUF="1.0" PDF="25520" > PDF=25510 MemberID=10 </weight>
<weight id="1454" MUR="1.0" MUF="1.0" PDF="25521" > PDF=25510 MemberID=11 </weight>
<weight id="1455" MUR="1.0" MUF="1.0" PDF="25522" > PDF=25510 MemberID=12 </weight>
<weight id="1456" MUR="1.0" MUF="1.0" PDF="25523" > PDF=25510 MemberID=13 </weight>
<weight id="1457" MUR="1.0" MUF="1.0" PDF="25524" > PDF=25510 MemberID=14 </weight>
<weight id="1458" MUR="1.0" MUF="1.0" PDF="25525" > PDF=25510 MemberID=15 </weight>
<weight id="1459" MUR="1.0" MUF="1.0" PDF="25526" > PDF=25510 MemberID=16 </weight>
<weight id="1460" MUR="1.0" MUF="1.0" PDF="25527" > PDF=25510 MemberID=17 </weight>
<weight id="1461" MUR="1.0" MUF="1.0" PDF="25528" > PDF=25510 MemberID=18 </weight>
<weight id="1462" MUR="1.0" MUF="1.0" PDF="25529" > PDF=25510 MemberID=19 </weight>
<weight id="1463" MUR="1.0" MUF="1.0" PDF="25530" > PDF=25510 MemberID=20 </weight>
<weight id="1464" MUR="1.0" MUF="1.0" PDF="25531" > PDF=25510 MemberID=21 </weight>
<weight id="1465" MUR="1.0" MUF="1.0" PDF="25532" > PDF=25510 MemberID=22 </weight>
<weight id="1466" MUR="1.0" MUF="1.0" PDF="25533" > PDF=25510 MemberID=23 </weight>
<weight id="1467" MUR="1.0" MUF="1.0" PDF="25534" > PDF=25510 MemberID=24 </weight>
<weight id="1468" MUR="1.0" MUF="1.0" PDF="25535" > PDF=25510 MemberID=25 </weight>
<weight id="1469" MUR="1.0" MUF="1.0" PDF="25536" > PDF=25510 MemberID=26 </weight>
<weight id="1470" MUR="1.0" MUF="1.0" PDF="25537" > PDF=25510 MemberID=27 </weight>
<weight id="1471" MUR="1.0" MUF="1.0" PDF="25538" > PDF=25510 MemberID=28 </weight>
<weight id="1472" MUR="1.0" MUF="1.0" PDF="25539" > PDF=25510 MemberID=29 </weight>
<weight id="1473" MUR="1.0" MUF="1.0" PDF="25540" > PDF=25510 MemberID=30 </weight>
<weight id="1474" MUR="1.0" MUF="1.0" PDF="25541" > PDF=25510 MemberID=31 </weight>
<weight id="1475" MUR="1.0" MUF="1.0" PDF="25542" > PDF=25510 MemberID=32 </weight>
<weight id="1476" MUR="1.0" MUF="1.0" PDF="25543" > PDF=25510 MemberID=33 </weight>
<weight id="1477" MUR="1.0" MUF="1.0" PDF="25544" > PDF=25510 MemberID=34 </weight>
<weight id="1478" MUR="1.0" MUF="1.0" PDF="25545" > PDF=25510 MemberID=35 </weight>
<weight id="1479" MUR="1.0" MUF="1.0" PDF="25546" > PDF=25510 MemberID=36 </weight>
<weight id="1480" MUR="1.0" MUF="1.0" PDF="25547" > PDF=25510 MemberID=37 </weight>
<weight id="1481" MUR="1.0" MUF="1.0" PDF="25548" > PDF=25510 MemberID=38 </weight>
<weight id="1482" MUR="1.0" MUF="1.0" PDF="25549" > PDF=25510 MemberID=39 </weight>
<weight id="1483" MUR="1.0" MUF="1.0" PDF="25550" > PDF=25510 MemberID=40 </weight>
<weight id="1484" MUR="1.0" MUF="1.0" PDF="25551" > PDF=25510 MemberID=41 </weight>
<weight id="1485" MUR="1.0" MUF="1.0" PDF="25552" > PDF=25510 MemberID=42 </weight>
<weight id="1486" MUR="1.0" MUF="1.0" PDF="25553" > PDF=25510 MemberID=43 </weight>
<weight id="1487" MUR="1.0" MUF="1.0" PDF="25554" > PDF=25510 MemberID=44 </weight>
<weight id="1488" MUR="1.0" MUF="1.0" PDF="25555" > PDF=25510 MemberID=45 </weight>
<weight id="1489" MUR="1.0" MUF="1.0" PDF="25556" > PDF=25510 MemberID=46 </weight>
<weight id="1490" MUR="1.0" MUF="1.0" PDF="25557" > PDF=25510 MemberID=47 </weight>
<weight id="1491" MUR="1.0" MUF="1.0" PDF="25558" > PDF=25510 MemberID=48 </weight>
<weight id="1492" MUR="1.0" MUF="1.0" PDF="25559" > PDF=25510 MemberID=49 </weight>
<weight id="1493" MUR="1.0" MUF="1.0" PDF="25560" > PDF=25510 MemberID=50 </weight>
</weightgroup> # PDFSET -> PDFSET
<weightgroup name="MMHT2014nlo_asmzsmallrange_nf4" combine="unknown"> # 25570: MMHT 2014 NLO (fits for range of alpha_S values, evolve with 4 flavours maximum). This set has 5 member PDFs. mem=0 --.gt. best-fit alpha_S(M_Z) = 0.120; mem=1-4 --.gt. alpha_S(M_Z) = 0.117,...,0.121. Website: www.hep.ucl.ac.uk/mmht
<weight id="1494" MUR="1.0" MUF="1.0" PDF="25570" > PDF=25570 MemberID=0 </weight>
<weight id="1495" MUR="1.0" MUF="1.0" PDF="25571" > PDF=25570 MemberID=1 </weight>
<weight id="1496" MUR="1.0" MUF="1.0" PDF="25572" > PDF=25570 MemberID=2 </weight>
<weight id="1497" MUR="1.0" MUF="1.0" PDF="25573" > PDF=25570 MemberID=3 </weight>
<weight id="1498" MUR="1.0" MUF="1.0" PDF="25574" > PDF=25570 MemberID=4 </weight>
</weightgroup> # PDFSET -> PDFSET
<weightgroup name="MMHT2014nlo_mcrange_nf4" combine="unknown"> # 25605: MMHT 2014 NLO (range of mc, evolve with 4 flavours maximum). This set has 9 member PDFs. mem=0 --.gt. default mc = 1.40 GeV; mem=1-8 --.gt. mc = 1.15 - 1.55 GeV in steps of 0.05 GeV. Website: www.hep.ucl.ac.uk/mmht
<weight id="1499" MUR="1.0" MUF="1.0" PDF="25605" > PDF=25605 MemberID=0 </weight>
<weight id="1500" MUR="1.0" MUF="1.0" PDF="25606" > PDF=25605 MemberID=1 </weight>
<weight id="1501" MUR="1.0" MUF="1.0" PDF="25607" > PDF=25605 MemberID=2 </weight>
<weight id="1502" MUR="1.0" MUF="1.0" PDF="25608" > PDF=25605 MemberID=3 </weight>
<weight id="1503" MUR="1.0" MUF="1.0" PDF="25609" > PDF=25605 MemberID=4 </weight>
<weight id="1504" MUR="1.0" MUF="1.0" PDF="25610" > PDF=25605 MemberID=5 </weight>
<weight id="1505" MUR="1.0" MUF="1.0" PDF="25611" > PDF=25605 MemberID=6 </weight>
<weight id="1506" MUR="1.0" MUF="1.0" PDF="25612" > PDF=25605 MemberID=7 </weight>
<weight id="1507" MUR="1.0" MUF="1.0" PDF="25613" > PDF=25605 MemberID=8 </weight>
</weightgroup> # PDFSET -> PDFSET
<weightgroup name="MMHT2014nlo_mbrange_nf4" combine="unknown"> # 25620: MMHT 2014 NLO (range of mb, evolve with 4 flavours maximum). This set has 5 member PDFs. mem=0 --.gt. default mb = 4.75 GeV; mem=1-4 --.gt. mb = 4.25 - 5.25 GeV in steps of 0.25 GeV. Website: www.hep.ucl.ac.uk/mmht
<weight id="1508" MUR="1.0" MUF="1.0" PDF="25620" > PDF=25620 MemberID=0 </weight>
<weight id="1509" MUR="1.0" MUF="1.0" PDF="25621" > PDF=25620 MemberID=1 </weight>
<weight id="1510" MUR="1.0" MUF="1.0" PDF="25622" > PDF=25620 MemberID=2 </weight>
<weight id="1511" MUR="1.0" MUF="1.0" PDF="25623" > PDF=25620 MemberID=3 </weight>
<weight id="1512" MUR="1.0" MUF="1.0" PDF="25624" > PDF=25620 MemberID=4 </weight>
</weightgroup> # PDFSET -> PDFSET
<weightgroup name="MMHT2014nnlo68cl_nf4" combine="hessian"> # 25710: MMHT 2014 NNLO (68% C.L.): evolve with 4 flavours maximum. This set has 51 member PDFs. mem=0 --.gt. central value; mem=1-50 --.gt. 20 eigenvector sets (+/- directions). Website: www.hep.ucl.ac.uk/mmht
<weight id="1513" MUR="1.0" MUF="1.0" PDF="25710" > PDF=25710 MemberID=0 </weight>
<weight id="1514" MUR="1.0" MUF="1.0" PDF="25711" > PDF=25710 MemberID=1 </weight>
<weight id="1515" MUR="1.0" MUF="1.0" PDF="25712" > PDF=25710 MemberID=2 </weight>
<weight id="1516" MUR="1.0" MUF="1.0" PDF="25713" > PDF=25710 MemberID=3 </weight>
<weight id="1517" MUR="1.0" MUF="1.0" PDF="25714" > PDF=25710 MemberID=4 </weight>
<weight id="1518" MUR="1.0" MUF="1.0" PDF="25715" > PDF=25710 MemberID=5 </weight>
<weight id="1519" MUR="1.0" MUF="1.0" PDF="25716" > PDF=25710 MemberID=6 </weight>
<weight id="1520" MUR="1.0" MUF="1.0" PDF="25717" > PDF=25710 MemberID=7 </weight>
<weight id="1521" MUR="1.0" MUF="1.0" PDF="25718" > PDF=25710 MemberID=8 </weight>
<weight id="1522" MUR="1.0" MUF="1.0" PDF="25719" > PDF=25710 MemberID=9 </weight>
<weight id="1523" MUR="1.0" MUF="1.0" PDF="25720" > PDF=25710 MemberID=10 </weight>
<weight id="1524" MUR="1.0" MUF="1.0" PDF="25721" > PDF=25710 MemberID=11 </weight>
<weight id="1525" MUR="1.0" MUF="1.0" PDF="25722" > PDF=25710 MemberID=12 </weight>
<weight id="1526" MUR="1.0" MUF="1.0" PDF="25723" > PDF=25710 MemberID=13 </weight>
<weight id="1527" MUR="1.0" MUF="1.0" PDF="25724" > PDF=25710 MemberID=14 </weight>
<weight id="1528" MUR="1.0" MUF="1.0" PDF="25725" > PDF=25710 MemberID=15 </weight>
<weight id="1529" MUR="1.0" MUF="1.0" PDF="25726" > PDF=25710 MemberID=16 </weight>
<weight id="1530" MUR="1.0" MUF="1.0" PDF="25727" > PDF=25710 MemberID=17 </weight>
<weight id="1531" MUR="1.0" MUF="1.0" PDF="25728" > PDF=25710 MemberID=18 </weight>
<weight id="1532" MUR="1.0" MUF="1.0" PDF="25729" > PDF=25710 MemberID=19 </weight>
<weight id="1533" MUR="1.0" MUF="1.0" PDF="25730" > PDF=25710 MemberID=20 </weight>
<weight id="1534" MUR="1.0" MUF="1.0" PDF="25731" > PDF=25710 MemberID=21 </weight>
<weight id="1535" MUR="1.0" MUF="1.0" PDF="25732" > PDF=25710 MemberID=22 </weight>
<weight id="1536" MUR="1.0" MUF="1.0" PDF="25733" > PDF=25710 MemberID=23 </weight>
<weight id="1537" MUR="1.0" MUF="1.0" PDF="25734" > PDF=25710 MemberID=24 </weight>
<weight id="1538" MUR="1.0" MUF="1.0" PDF="25735" > PDF=25710 MemberID=25 </weight>
<weight id="1539" MUR="1.0" MUF="1.0" PDF="25736" > PDF=25710 MemberID=26 </weight>
<weight id="1540" MUR="1.0" MUF="1.0" PDF="25737" > PDF=25710 MemberID=27 </weight>
<weight id="1541" MUR="1.0" MUF="1.0" PDF="25738" > PDF=25710 MemberID=28 </weight>
<weight id="1542" MUR="1.0" MUF="1.0" PDF="25739" > PDF=25710 MemberID=29 </weight>
<weight id="1543" MUR="1.0" MUF="1.0" PDF="25740" > PDF=25710 MemberID=30 </weight>
<weight id="1544" MUR="1.0" MUF="1.0" PDF="25741" > PDF=25710 MemberID=31 </weight>
<weight id="1545" MUR="1.0" MUF="1.0" PDF="25742" > PDF=25710 MemberID=32 </weight>
<weight id="1546" MUR="1.0" MUF="1.0" PDF="25743" > PDF=25710 MemberID=33 </weight>
<weight id="1547" MUR="1.0" MUF="1.0" PDF="25744" > PDF=25710 MemberID=34 </weight>
<weight id="1548" MUR="1.0" MUF="1.0" PDF="25745" > PDF=25710 MemberID=35 </weight>
<weight id="1549" MUR="1.0" MUF="1.0" PDF="25746" > PDF=25710 MemberID=36 </weight>
<weight id="1550" MUR="1.0" MUF="1.0" PDF="25747" > PDF=25710 MemberID=37 </weight>
<weight id="1551" MUR="1.0" MUF="1.0" PDF="25748" > PDF=25710 MemberID=38 </weight>
<weight id="1552" MUR="1.0" MUF="1.0" PDF="25749" > PDF=25710 MemberID=39 </weight>
<weight id="1553" MUR="1.0" MUF="1.0" PDF="25750" > PDF=25710 MemberID=40 </weight>
<weight id="1554" MUR="1.0" MUF="1.0" PDF="25751" > PDF=25710 MemberID=41 </weight>
<weight id="1555" MUR="1.0" MUF="1.0" PDF="25752" > PDF=25710 MemberID=42 </weight>
<weight id="1556" MUR="1.0" MUF="1.0" PDF="25753" > PDF=25710 MemberID=43 </weight>
<weight id="1557" MUR="1.0" MUF="1.0" PDF="25754" > PDF=25710 MemberID=44 </weight>
<weight id="1558" MUR="1.0" MUF="1.0" PDF="25755" > PDF=25710 MemberID=45 </weight>
<weight id="1559" MUR="1.0" MUF="1.0" PDF="25756" > PDF=25710 MemberID=46 </weight>
<weight id="1560" MUR="1.0" MUF="1.0" PDF="25757" > PDF=25710 MemberID=47 </weight>
<weight id="1561" MUR="1.0" MUF="1.0" PDF="25758" > PDF=25710 MemberID=48 </weight>
<weight id="1562" MUR="1.0" MUF="1.0" PDF="25759" > PDF=25710 MemberID=49 </weight>
<weight id="1563" MUR="1.0" MUF="1.0" PDF="25760" > PDF=25710 MemberID=50 </weight>
</weightgroup> # PDFSET -> PDFSET
<weightgroup name="MMHT2014nnlo_asmzsmallrange_nf4" combine="unknown"> # 25770: MMHT 2014 NNLO (fits for range of alpha_S values, evolve with 4 flavours maximum). This set has 3 member PDFs. mem=0 --.gt. best-fit alpha_S(M_Z) = 0.118; mem=1-2 --.gt. alpha_S(M_Z) = 0.117, 0.119. Website: www.hep.ucl.ac.uk/mmht
<weight id="1564" MUR="1.0" MUF="1.0" PDF="25770" > PDF=25770 MemberID=0 </weight>
<weight id="1565" MUR="1.0" MUF="1.0" PDF="25771" > PDF=25770 MemberID=1 </weight>
<weight id="1566" MUR="1.0" MUF="1.0" PDF="25772" > PDF=25770 MemberID=2 </weight>
</weightgroup> # PDFSET -> PDFSET
<weightgroup name="MMHT2014nnlo_mcrange_nf4" combine="unknown"> # 25805: MMHT 2014 NNLO (range of mc, evolve with 4 flavours maximum). This set has 9 member PDFs. mem=0 --.gt. default mc = 1.40 GeV; mem=1-8 --.gt. mc = 1.15 - 1.55 GeV in steps of 0.05 GeV. Website: www.hep.ucl.ac.uk/mmht
<weight id="1567" MUR="1.0" MUF="1.0" PDF="25805" > PDF=25805 MemberID=0 </weight>
<weight id="1568" MUR="1.0" MUF="1.0" PDF="25806" > PDF=25805 MemberID=1 </weight>
<weight id="1569" MUR="1.0" MUF="1.0" PDF="25807" > PDF=25805 MemberID=2 </weight>
<weight id="1570" MUR="1.0" MUF="1.0" PDF="25808" > PDF=25805 MemberID=3 </weight>
<weight id="1571" MUR="1.0" MUF="1.0" PDF="25809" > PDF=25805 MemberID=4 </weight>
<weight id="1572" MUR="1.0" MUF="1.0" PDF="25810" > PDF=25805 MemberID=5 </weight>
<weight id="1573" MUR="1.0" MUF="1.0" PDF="25811" > PDF=25805 MemberID=6 </weight>
<weight id="1574" MUR="1.0" MUF="1.0" PDF="25812" > PDF=25805 MemberID=7 </weight>
<weight id="1575" MUR="1.0" MUF="1.0" PDF="25813" > PDF=25805 MemberID=8 </weight>
</weightgroup> # PDFSET -> PDFSET
<weightgroup name="MMHT2014nnlo_mbrange_nf4" combine="unknown"> # 25840: MMHT 2014 NNLO (range of mb, evolve with 4 flavours maximum). This set has 5 member PDFs. mem=0 --.gt. default mb = 4.75 GeV; mem=1-4 --.gt. mb = 4.25 - 5.25 GeV in steps of 0.25 GeV. Website: www.hep.ucl.ac.uk/mmht
<weight id="1576" MUR="1.0" MUF="1.0" PDF="25840" > PDF=25840 MemberID=0 </weight>
<weight id="1577" MUR="1.0" MUF="1.0" PDF="25841" > PDF=25840 MemberID=1 </weight>
<weight id="1578" MUR="1.0" MUF="1.0" PDF="25842" > PDF=25840 MemberID=2 </weight>
<weight id="1579" MUR="1.0" MUF="1.0" PDF="25843" > PDF=25840 MemberID=3 </weight>
<weight id="1580" MUR="1.0" MUF="1.0" PDF="25844" > PDF=25840 MemberID=4 </weight>
</weightgroup> # PDFSET -> PDFSET
<weightgroup name="PDF4LHC15_nlo_nf4_30" combine="symmhessian"> # 92000: PDF4LHC15_nlo_nf4_30, alphas(MZ)=0.1126, mem=0 ; central value; mem=1-30 ; PDF symmetric eigenvectors
<weight id="1581" MUR="1.0" MUF="1.0" PDF="92000" > PDF=92000 MemberID=0 </weight>
<weight id="1582" MUR="1.0" MUF="1.0" PDF="92001" > PDF=92000 MemberID=1 </weight>
<weight id="1583" MUR="1.0" MUF="1.0" PDF="92002" > PDF=92000 MemberID=2 </weight>
<weight id="1584" MUR="1.0" MUF="1.0" PDF="92003" > PDF=92000 MemberID=3 </weight>
<weight id="1585" MUR="1.0" MUF="1.0" PDF="92004" > PDF=92000 MemberID=4 </weight>
<weight id="1586" MUR="1.0" MUF="1.0" PDF="92005" > PDF=92000 MemberID=5 </weight>
<weight id="1587" MUR="1.0" MUF="1.0" PDF="92006" > PDF=92000 MemberID=6 </weight>
<weight id="1588" MUR="1.0" MUF="1.0" PDF="92007" > PDF=92000 MemberID=7 </weight>
<weight id="1589" MUR="1.0" MUF="1.0" PDF="92008" > PDF=92000 MemberID=8 </weight>
<weight id="1590" MUR="1.0" MUF="1.0" PDF="92009" > PDF=92000 MemberID=9 </weight>
<weight id="1591" MUR="1.0" MUF="1.0" PDF="92010" > PDF=92000 MemberID=10 </weight>
<weight id="1592" MUR="1.0" MUF="1.0" PDF="92011" > PDF=92000 MemberID=11 </weight>
<weight id="1593" MUR="1.0" MUF="1.0" PDF="92012" > PDF=92000 MemberID=12 </weight>
<weight id="1594" MUR="1.0" MUF="1.0" PDF="92013" > PDF=92000 MemberID=13 </weight>
<weight id="1595" MUR="1.0" MUF="1.0" PDF="92014" > PDF=92000 MemberID=14 </weight>
<weight id="1596" MUR="1.0" MUF="1.0" PDF="92015" > PDF=92000 MemberID=15 </weight>
<weight id="1597" MUR="1.0" MUF="1.0" PDF="92016" > PDF=92000 MemberID=16 </weight>
<weight id="1598" MUR="1.0" MUF="1.0" PDF="92017" > PDF=92000 MemberID=17 </weight>
<weight id="1599" MUR="1.0" MUF="1.0" PDF="92018" > PDF=92000 MemberID=18 </weight>
<weight id="1600" MUR="1.0" MUF="1.0" PDF="92019" > PDF=92000 MemberID=19 </weight>
<weight id="1601" MUR="1.0" MUF="1.0" PDF="92020" > PDF=92000 MemberID=20 </weight>
<weight id="1602" MUR="1.0" MUF="1.0" PDF="92021" > PDF=92000 MemberID=21 </weight>
<weight id="1603" MUR="1.0" MUF="1.0" PDF="92022" > PDF=92000 MemberID=22 </weight>
<weight id="1604" MUR="1.0" MUF="1.0" PDF="92023" > PDF=92000 MemberID=23 </weight>
<weight id="1605" MUR="1.0" MUF="1.0" PDF="92024" > PDF=92000 MemberID=24 </weight>
<weight id="1606" MUR="1.0" MUF="1.0" PDF="92025" > PDF=92000 MemberID=25 </weight>
<weight id="1607" MUR="1.0" MUF="1.0" PDF="92026" > PDF=92000 MemberID=26 </weight>
<weight id="1608" MUR="1.0" MUF="1.0" PDF="92027" > PDF=92000 MemberID=27 </weight>
<weight id="1609" MUR="1.0" MUF="1.0" PDF="92028" > PDF=92000 MemberID=28 </weight>
<weight id="1610" MUR="1.0" MUF="1.0" PDF="92029" > PDF=92000 MemberID=29 </weight>
<weight id="1611" MUR="1.0" MUF="1.0" PDF="92030" > PDF=92000 MemberID=30 </weight>
</weightgroup> # PDFSET -> PDFSET
<weightgroup name="NNPDF31_nnlo_hessian_pdfas" combine="symmhessian+as"> # 306000: Hessian conversion of NNPDF31_nnlo_as_0118_1000, mem=0 central value ; Alphas(MZ)=0.118; mem=1-100 ; PDF eig.; mem=101 ; central value Alphas(MZ)=0.116; mem=102 ; central value Alphas(MZ)=0.120
<weight id="1612" MUR="1.0" MUF="1.0" PDF="306000" > PDF=306000 MemberID=0 </weight>
<weight id="1613" MUR="1.0" MUF="1.0" PDF="306001" > PDF=306000 MemberID=1 </weight>
<weight id="1614" MUR="1.0" MUF="1.0" PDF="306002" > PDF=306000 MemberID=2 </weight>
<weight id="1615" MUR="1.0" MUF="1.0" PDF="306003" > PDF=306000 MemberID=3 </weight>
<weight id="1616" MUR="1.0" MUF="1.0" PDF="306004" > PDF=306000 MemberID=4 </weight>
<weight id="1617" MUR="1.0" MUF="1.0" PDF="306005" > PDF=306000 MemberID=5 </weight>
<weight id="1618" MUR="1.0" MUF="1.0" PDF="306006" > PDF=306000 MemberID=6 </weight>
<weight id="1619" MUR="1.0" MUF="1.0" PDF="306007" > PDF=306000 MemberID=7 </weight>
<weight id="1620" MUR="1.0" MUF="1.0" PDF="306008" > PDF=306000 MemberID=8 </weight>
<weight id="1621" MUR="1.0" MUF="1.0" PDF="306009" > PDF=306000 MemberID=9 </weight>
<weight id="1622" MUR="1.0" MUF="1.0" PDF="306010" > PDF=306000 MemberID=10 </weight>
<weight id="1623" MUR="1.0" MUF="1.0" PDF="306011" > PDF=306000 MemberID=11 </weight>
<weight id="1624" MUR="1.0" MUF="1.0" PDF="306012" > PDF=306000 MemberID=12 </weight>
<weight id="1625" MUR="1.0" MUF="1.0" PDF="306013" > PDF=306000 MemberID=13 </weight>
<weight id="1626" MUR="1.0" MUF="1.0" PDF="306014" > PDF=306000 MemberID=14 </weight>
<weight id="1627" MUR="1.0" MUF="1.0" PDF="306015" > PDF=306000 MemberID=15 </weight>
<weight id="1628" MUR="1.0" MUF="1.0" PDF="306016" > PDF=306000 MemberID=16 </weight>
<weight id="1629" MUR="1.0" MUF="1.0" PDF="306017" > PDF=306000 MemberID=17 </weight>
<weight id="1630" MUR="1.0" MUF="1.0" PDF="306018" > PDF=306000 MemberID=18 </weight>
<weight id="1631" MUR="1.0" MUF="1.0" PDF="306019" > PDF=306000 MemberID=19 </weight>
<weight id="1632" MUR="1.0" MUF="1.0" PDF="306020" > PDF=306000 MemberID=20 </weight>
<weight id="1633" MUR="1.0" MUF="1.0" PDF="306021" > PDF=306000 MemberID=21 </weight>
<weight id="1634" MUR="1.0" MUF="1.0" PDF="306022" > PDF=306000 MemberID=22 </weight>
<weight id="1635" MUR="1.0" MUF="1.0" PDF="306023" > PDF=306000 MemberID=23 </weight>
<weight id="1636" MUR="1.0" MUF="1.0" PDF="306024" > PDF=306000 MemberID=24 </weight>
<weight id="1637" MUR="1.0" MUF="1.0" PDF="306025" > PDF=306000 MemberID=25 </weight>
<weight id="1638" MUR="1.0" MUF="1.0" PDF="306026" > PDF=306000 MemberID=26 </weight>
<weight id="1639" MUR="1.0" MUF="1.0" PDF="306027" > PDF=306000 MemberID=27 </weight>
<weight id="1640" MUR="1.0" MUF="1.0" PDF="306028" > PDF=306000 MemberID=28 </weight>
<weight id="1641" MUR="1.0" MUF="1.0" PDF="306029" > PDF=306000 MemberID=29 </weight>
<weight id="1642" MUR="1.0" MUF="1.0" PDF="306030" > PDF=306000 MemberID=30 </weight>
<weight id="1643" MUR="1.0" MUF="1.0" PDF="306031" > PDF=306000 MemberID=31 </weight>
<weight id="1644" MUR="1.0" MUF="1.0" PDF="306032" > PDF=306000 MemberID=32 </weight>
<weight id="1645" MUR="1.0" MUF="1.0" PDF="306033" > PDF=306000 MemberID=33 </weight>
<weight id="1646" MUR="1.0" MUF="1.0" PDF="306034" > PDF=306000 MemberID=34 </weight>
<weight id="1647" MUR="1.0" MUF="1.0" PDF="306035" > PDF=306000 MemberID=35 </weight>
<weight id="1648" MUR="1.0" MUF="1.0" PDF="306036" > PDF=306000 MemberID=36 </weight>
<weight id="1649" MUR="1.0" MUF="1.0" PDF="306037" > PDF=306000 MemberID=37 </weight>
<weight id="1650" MUR="1.0" MUF="1.0" PDF="306038" > PDF=306000 MemberID=38 </weight>
<weight id="1651" MUR="1.0" MUF="1.0" PDF="306039" > PDF=306000 MemberID=39 </weight>
<weight id="1652" MUR="1.0" MUF="1.0" PDF="306040" > PDF=306000 MemberID=40 </weight>
<weight id="1653" MUR="1.0" MUF="1.0" PDF="306041" > PDF=306000 MemberID=41 </weight>
<weight id="1654" MUR="1.0" MUF="1.0" PDF="306042" > PDF=306000 MemberID=42 </weight>
<weight id="1655" MUR="1.0" MUF="1.0" PDF="306043" > PDF=306000 MemberID=43 </weight>
<weight id="1656" MUR="1.0" MUF="1.0" PDF="306044" > PDF=306000 MemberID=44 </weight>
<weight id="1657" MUR="1.0" MUF="1.0" PDF="306045" > PDF=306000 MemberID=45 </weight>
<weight id="1658" MUR="1.0" MUF="1.0" PDF="306046" > PDF=306000 MemberID=46 </weight>
<weight id="1659" MUR="1.0" MUF="1.0" PDF="306047" > PDF=306000 MemberID=47 </weight>
<weight id="1660" MUR="1.0" MUF="1.0" PDF="306048" > PDF=306000 MemberID=48 </weight>
<weight id="1661" MUR="1.0" MUF="1.0" PDF="306049" > PDF=306000 MemberID=49 </weight>
<weight id="1662" MUR="1.0" MUF="1.0" PDF="306050" > PDF=306000 MemberID=50 </weight>
<weight id="1663" MUR="1.0" MUF="1.0" PDF="306051" > PDF=306000 MemberID=51 </weight>
<weight id="1664" MUR="1.0" MUF="1.0" PDF="306052" > PDF=306000 MemberID=52 </weight>
<weight id="1665" MUR="1.0" MUF="1.0" PDF="306053" > PDF=306000 MemberID=53 </weight>
<weight id="1666" MUR="1.0" MUF="1.0" PDF="306054" > PDF=306000 MemberID=54 </weight>
<weight id="1667" MUR="1.0" MUF="1.0" PDF="306055" > PDF=306000 MemberID=55 </weight>
<weight id="1668" MUR="1.0" MUF="1.0" PDF="306056" > PDF=306000 MemberID=56 </weight>
<weight id="1669" MUR="1.0" MUF="1.0" PDF="306057" > PDF=306000 MemberID=57 </weight>
<weight id="1670" MUR="1.0" MUF="1.0" PDF="306058" > PDF=306000 MemberID=58 </weight>
<weight id="1671" MUR="1.0" MUF="1.0" PDF="306059" > PDF=306000 MemberID=59 </weight>
<weight id="1672" MUR="1.0" MUF="1.0" PDF="306060" > PDF=306000 MemberID=60 </weight>
<weight id="1673" MUR="1.0" MUF="1.0" PDF="306061" > PDF=306000 MemberID=61 </weight>
<weight id="1674" MUR="1.0" MUF="1.0" PDF="306062" > PDF=306000 MemberID=62 </weight>
<weight id="1675" MUR="1.0" MUF="1.0" PDF="306063" > PDF=306000 MemberID=63 </weight>
<weight id="1676" MUR="1.0" MUF="1.0" PDF="306064" > PDF=306000 MemberID=64 </weight>
<weight id="1677" MUR="1.0" MUF="1.0" PDF="306065" > PDF=306000 MemberID=65 </weight>
<weight id="1678" MUR="1.0" MUF="1.0" PDF="306066" > PDF=306000 MemberID=66 </weight>
<weight id="1679" MUR="1.0" MUF="1.0" PDF="306067" > PDF=306000 MemberID=67 </weight>
<weight id="1680" MUR="1.0" MUF="1.0" PDF="306068" > PDF=306000 MemberID=68 </weight>
<weight id="1681" MUR="1.0" MUF="1.0" PDF="306069" > PDF=306000 MemberID=69 </weight>
<weight id="1682" MUR="1.0" MUF="1.0" PDF="306070" > PDF=306000 MemberID=70 </weight>
<weight id="1683" MUR="1.0" MUF="1.0" PDF="306071" > PDF=306000 MemberID=71 </weight>
<weight id="1684" MUR="1.0" MUF="1.0" PDF="306072" > PDF=306000 MemberID=72 </weight>
<weight id="1685" MUR="1.0" MUF="1.0" PDF="306073" > PDF=306000 MemberID=73 </weight>
<weight id="1686" MUR="1.0" MUF="1.0" PDF="306074" > PDF=306000 MemberID=74 </weight>
<weight id="1687" MUR="1.0" MUF="1.0" PDF="306075" > PDF=306000 MemberID=75 </weight>
<weight id="1688" MUR="1.0" MUF="1.0" PDF="306076" > PDF=306000 MemberID=76 </weight>
<weight id="1689" MUR="1.0" MUF="1.0" PDF="306077" > PDF=306000 MemberID=77 </weight>
<weight id="1690" MUR="1.0" MUF="1.0" PDF="306078" > PDF=306000 MemberID=78 </weight>
<weight id="1691" MUR="1.0" MUF="1.0" PDF="306079" > PDF=306000 MemberID=79 </weight>
<weight id="1692" MUR="1.0" MUF="1.0" PDF="306080" > PDF=306000 MemberID=80 </weight>
<weight id="1693" MUR="1.0" MUF="1.0" PDF="306081" > PDF=306000 MemberID=81 </weight>
<weight id="1694" MUR="1.0" MUF="1.0" PDF="306082" > PDF=306000 MemberID=82 </weight>
<weight id="1695" MUR="1.0" MUF="1.0" PDF="306083" > PDF=306000 MemberID=83 </weight>
<weight id="1696" MUR="1.0" MUF="1.0" PDF="306084" > PDF=306000 MemberID=84 </weight>
<weight id="1697" MUR="1.0" MUF="1.0" PDF="306085" > PDF=306000 MemberID=85 </weight>
<weight id="1698" MUR="1.0" MUF="1.0" PDF="306086" > PDF=306000 MemberID=86 </weight>
<weight id="1699" MUR="1.0" MUF="1.0" PDF="306087" > PDF=306000 MemberID=87 </weight>
<weight id="1700" MUR="1.0" MUF="1.0" PDF="306088" > PDF=306000 MemberID=88 </weight>
<weight id="1701" MUR="1.0" MUF="1.0" PDF="306089" > PDF=306000 MemberID=89 </weight>
<weight id="1702" MUR="1.0" MUF="1.0" PDF="306090" > PDF=306000 MemberID=90 </weight>
<weight id="1703" MUR="1.0" MUF="1.0" PDF="306091" > PDF=306000 MemberID=91 </weight>
<weight id="1704" MUR="1.0" MUF="1.0" PDF="306092" > PDF=306000 MemberID=92 </weight>
<weight id="1705" MUR="1.0" MUF="1.0" PDF="306093" > PDF=306000 MemberID=93 </weight>
<weight id="1706" MUR="1.0" MUF="1.0" PDF="306094" > PDF=306000 MemberID=94 </weight>
<weight id="1707" MUR="1.0" MUF="1.0" PDF="306095" > PDF=306000 MemberID=95 </weight>
<weight id="1708" MUR="1.0" MUF="1.0" PDF="306096" > PDF=306000 MemberID=96 </weight>
<weight id="1709" MUR="1.0" MUF="1.0" PDF="306097" > PDF=306000 MemberID=97 </weight>
<weight id="1710" MUR="1.0" MUF="1.0" PDF="306098" > PDF=306000 MemberID=98 </weight>
<weight id="1711" MUR="1.0" MUF="1.0" PDF="306099" > PDF=306000 MemberID=99 </weight>
<weight id="1712" MUR="1.0" MUF="1.0" PDF="306100" > PDF=306000 MemberID=100 </weight>
<weight id="1713" MUR="1.0" MUF="1.0" PDF="306101" > PDF=306000 MemberID=101 </weight>
<weight id="1714" MUR="1.0" MUF="1.0" PDF="306102" > PDF=306000 MemberID=102 </weight>
</weightgroup> # PDFSET -> PDFSET
<weightgroup name="NNPDF31_nlo_as_0118_nf_4" combine="replicas"> # 320500: NNPDF3.1 NLO global fit, nf=4. mem=0 ; average on replicas; mem=1-100 ; PDF replicas
<weight id="1715" MUR="1.0" MUF="1.0" PDF="320500" > PDF=320500 MemberID=0 </weight>
<weight id="1716" MUR="1.0" MUF="1.0" PDF="320501" > PDF=320500 MemberID=1 </weight>
<weight id="1717" MUR="1.0" MUF="1.0" PDF="320502" > PDF=320500 MemberID=2 </weight>
<weight id="1718" MUR="1.0" MUF="1.0" PDF="320503" > PDF=320500 MemberID=3 </weight>
<weight id="1719" MUR="1.0" MUF="1.0" PDF="320504" > PDF=320500 MemberID=4 </weight>
<weight id="1720" MUR="1.0" MUF="1.0" PDF="320505" > PDF=320500 MemberID=5 </weight>
<weight id="1721" MUR="1.0" MUF="1.0" PDF="320506" > PDF=320500 MemberID=6 </weight>
<weight id="1722" MUR="1.0" MUF="1.0" PDF="320507" > PDF=320500 MemberID=7 </weight>
<weight id="1723" MUR="1.0" MUF="1.0" PDF="320508" > PDF=320500 MemberID=8 </weight>
<weight id="1724" MUR="1.0" MUF="1.0" PDF="320509" > PDF=320500 MemberID=9 </weight>
<weight id="1725" MUR="1.0" MUF="1.0" PDF="320510" > PDF=320500 MemberID=10 </weight>
<weight id="1726" MUR="1.0" MUF="1.0" PDF="320511" > PDF=320500 MemberID=11 </weight>
<weight id="1727" MUR="1.0" MUF="1.0" PDF="320512" > PDF=320500 MemberID=12 </weight>
<weight id="1728" MUR="1.0" MUF="1.0" PDF="320513" > PDF=320500 MemberID=13 </weight>
<weight id="1729" MUR="1.0" MUF="1.0" PDF="320514" > PDF=320500 MemberID=14 </weight>
<weight id="1730" MUR="1.0" MUF="1.0" PDF="320515" > PDF=320500 MemberID=15 </weight>
<weight id="1731" MUR="1.0" MUF="1.0" PDF="320516" > PDF=320500 MemberID=16 </weight>
<weight id="1732" MUR="1.0" MUF="1.0" PDF="320517" > PDF=320500 MemberID=17 </weight>
<weight id="1733" MUR="1.0" MUF="1.0" PDF="320518" > PDF=320500 MemberID=18 </weight>
<weight id="1734" MUR="1.0" MUF="1.0" PDF="320519" > PDF=320500 MemberID=19 </weight>
<weight id="1735" MUR="1.0" MUF="1.0" PDF="320520" > PDF=320500 MemberID=20 </weight>
<weight id="1736" MUR="1.0" MUF="1.0" PDF="320521" > PDF=320500 MemberID=21 </weight>
<weight id="1737" MUR="1.0" MUF="1.0" PDF="320522" > PDF=320500 MemberID=22 </weight>
<weight id="1738" MUR="1.0" MUF="1.0" PDF="320523" > PDF=320500 MemberID=23 </weight>
<weight id="1739" MUR="1.0" MUF="1.0" PDF="320524" > PDF=320500 MemberID=24 </weight>
<weight id="1740" MUR="1.0" MUF="1.0" PDF="320525" > PDF=320500 MemberID=25 </weight>
<weight id="1741" MUR="1.0" MUF="1.0" PDF="320526" > PDF=320500 MemberID=26 </weight>
<weight id="1742" MUR="1.0" MUF="1.0" PDF="320527" > PDF=320500 MemberID=27 </weight>
<weight id="1743" MUR="1.0" MUF="1.0" PDF="320528" > PDF=320500 MemberID=28 </weight>
<weight id="1744" MUR="1.0" MUF="1.0" PDF="320529" > PDF=320500 MemberID=29 </weight>
<weight id="1745" MUR="1.0" MUF="1.0" PDF="320530" > PDF=320500 MemberID=30 </weight>
<weight id="1746" MUR="1.0" MUF="1.0" PDF="320531" > PDF=320500 MemberID=31 </weight>
<weight id="1747" MUR="1.0" MUF="1.0" PDF="320532" > PDF=320500 MemberID=32 </weight>
<weight id="1748" MUR="1.0" MUF="1.0" PDF="320533" > PDF=320500 MemberID=33 </weight>
<weight id="1749" MUR="1.0" MUF="1.0" PDF="320534" > PDF=320500 MemberID=34 </weight>
<weight id="1750" MUR="1.0" MUF="1.0" PDF="320535" > PDF=320500 MemberID=35 </weight>
<weight id="1751" MUR="1.0" MUF="1.0" PDF="320536" > PDF=320500 MemberID=36 </weight>
<weight id="1752" MUR="1.0" MUF="1.0" PDF="320537" > PDF=320500 MemberID=37 </weight>
<weight id="1753" MUR="1.0" MUF="1.0" PDF="320538" > PDF=320500 MemberID=38 </weight>
<weight id="1754" MUR="1.0" MUF="1.0" PDF="320539" > PDF=320500 MemberID=39 </weight>
<weight id="1755" MUR="1.0" MUF="1.0" PDF="320540" > PDF=320500 MemberID=40 </weight>
<weight id="1756" MUR="1.0" MUF="1.0" PDF="320541" > PDF=320500 MemberID=41 </weight>
<weight id="1757" MUR="1.0" MUF="1.0" PDF="320542" > PDF=320500 MemberID=42 </weight>
<weight id="1758" MUR="1.0" MUF="1.0" PDF="320543" > PDF=320500 MemberID=43 </weight>
<weight id="1759" MUR="1.0" MUF="1.0" PDF="320544" > PDF=320500 MemberID=44 </weight>
<weight id="1760" MUR="1.0" MUF="1.0" PDF="320545" > PDF=320500 MemberID=45 </weight>
<weight id="1761" MUR="1.0" MUF="1.0" PDF="320546" > PDF=320500 MemberID=46 </weight>
<weight id="1762" MUR="1.0" MUF="1.0" PDF="320547" > PDF=320500 MemberID=47 </weight>
<weight id="1763" MUR="1.0" MUF="1.0" PDF="320548" > PDF=320500 MemberID=48 </weight>
<weight id="1764" MUR="1.0" MUF="1.0" PDF="320549" > PDF=320500 MemberID=49 </weight>
<weight id="1765" MUR="1.0" MUF="1.0" PDF="320550" > PDF=320500 MemberID=50 </weight>
<weight id="1766" MUR="1.0" MUF="1.0" PDF="320551" > PDF=320500 MemberID=51 </weight>
<weight id="1767" MUR="1.0" MUF="1.0" PDF="320552" > PDF=320500 MemberID=52 </weight>
<weight id="1768" MUR="1.0" MUF="1.0" PDF="320553" > PDF=320500 MemberID=53 </weight>
<weight id="1769" MUR="1.0" MUF="1.0" PDF="320554" > PDF=320500 MemberID=54 </weight>
<weight id="1770" MUR="1.0" MUF="1.0" PDF="320555" > PDF=320500 MemberID=55 </weight>
<weight id="1771" MUR="1.0" MUF="1.0" PDF="320556" > PDF=320500 MemberID=56 </weight>
<weight id="1772" MUR="1.0" MUF="1.0" PDF="320557" > PDF=320500 MemberID=57 </weight>
<weight id="1773" MUR="1.0" MUF="1.0" PDF="320558" > PDF=320500 MemberID=58 </weight>
<weight id="1774" MUR="1.0" MUF="1.0" PDF="320559" > PDF=320500 MemberID=59 </weight>
<weight id="1775" MUR="1.0" MUF="1.0" PDF="320560" > PDF=320500 MemberID=60 </weight>
<weight id="1776" MUR="1.0" MUF="1.0" PDF="320561" > PDF=320500 MemberID=61 </weight>
<weight id="1777" MUR="1.0" MUF="1.0" PDF="320562" > PDF=320500 MemberID=62 </weight>
<weight id="1778" MUR="1.0" MUF="1.0" PDF="320563" > PDF=320500 MemberID=63 </weight>
<weight id="1779" MUR="1.0" MUF="1.0" PDF="320564" > PDF=320500 MemberID=64 </weight>
<weight id="1780" MUR="1.0" MUF="1.0" PDF="320565" > PDF=320500 MemberID=65 </weight>
<weight id="1781" MUR="1.0" MUF="1.0" PDF="320566" > PDF=320500 MemberID=66 </weight>
<weight id="1782" MUR="1.0" MUF="1.0" PDF="320567" > PDF=320500 MemberID=67 </weight>
<weight id="1783" MUR="1.0" MUF="1.0" PDF="320568" > PDF=320500 MemberID=68 </weight>
<weight id="1784" MUR="1.0" MUF="1.0" PDF="320569" > PDF=320500 MemberID=69 </weight>
<weight id="1785" MUR="1.0" MUF="1.0" PDF="320570" > PDF=320500 MemberID=70 </weight>
<weight id="1786" MUR="1.0" MUF="1.0" PDF="320571" > PDF=320500 MemberID=71 </weight>
<weight id="1787" MUR="1.0" MUF="1.0" PDF="320572" > PDF=320500 MemberID=72 </weight>
<weight id="1788" MUR="1.0" MUF="1.0" PDF="320573" > PDF=320500 MemberID=73 </weight>
<weight id="1789" MUR="1.0" MUF="1.0" PDF="320574" > PDF=320500 MemberID=74 </weight>
<weight id="1790" MUR="1.0" MUF="1.0" PDF="320575" > PDF=320500 MemberID=75 </weight>
<weight id="1791" MUR="1.0" MUF="1.0" PDF="320576" > PDF=320500 MemberID=76 </weight>
<weight id="1792" MUR="1.0" MUF="1.0" PDF="320577" > PDF=320500 MemberID=77 </weight>
<weight id="1793" MUR="1.0" MUF="1.0" PDF="320578" > PDF=320500 MemberID=78 </weight>
<weight id="1794" MUR="1.0" MUF="1.0" PDF="320579" > PDF=320500 MemberID=79 </weight>
<weight id="1795" MUR="1.0" MUF="1.0" PDF="320580" > PDF=320500 MemberID=80 </weight>
<weight id="1796" MUR="1.0" MUF="1.0" PDF="320581" > PDF=320500 MemberID=81 </weight>
<weight id="1797" MUR="1.0" MUF="1.0" PDF="320582" > PDF=320500 MemberID=82 </weight>
<weight id="1798" MUR="1.0" MUF="1.0" PDF="320583" > PDF=320500 MemberID=83 </weight>
<weight id="1799" MUR="1.0" MUF="1.0" PDF="320584" > PDF=320500 MemberID=84 </weight>
<weight id="1800" MUR="1.0" MUF="1.0" PDF="320585" > PDF=320500 MemberID=85 </weight>
<weight id="1801" MUR="1.0" MUF="1.0" PDF="320586" > PDF=320500 MemberID=86 </weight>
<weight id="1802" MUR="1.0" MUF="1.0" PDF="320587" > PDF=320500 MemberID=87 </weight>
<weight id="1803" MUR="1.0" MUF="1.0" PDF="320588" > PDF=320500 MemberID=88 </weight>
<weight id="1804" MUR="1.0" MUF="1.0" PDF="320589" > PDF=320500 MemberID=89 </weight>
<weight id="1805" MUR="1.0" MUF="1.0" PDF="320590" > PDF=320500 MemberID=90 </weight>
<weight id="1806" MUR="1.0" MUF="1.0" PDF="320591" > PDF=320500 MemberID=91 </weight>
<weight id="1807" MUR="1.0" MUF="1.0" PDF="320592" > PDF=320500 MemberID=92 </weight>
<weight id="1808" MUR="1.0" MUF="1.0" PDF="320593" > PDF=320500 MemberID=93 </weight>
<weight id="1809" MUR="1.0" MUF="1.0" PDF="320594" > PDF=320500 MemberID=94 </weight>
<weight id="1810" MUR="1.0" MUF="1.0" PDF="320595" > PDF=320500 MemberID=95 </weight>
<weight id="1811" MUR="1.0" MUF="1.0" PDF="320596" > PDF=320500 MemberID=96 </weight>
<weight id="1812" MUR="1.0" MUF="1.0" PDF="320597" > PDF=320500 MemberID=97 </weight>
<weight id="1813" MUR="1.0" MUF="1.0" PDF="320598" > PDF=320500 MemberID=98 </weight>
<weight id="1814" MUR="1.0" MUF="1.0" PDF="320599" > PDF=320500 MemberID=99 </weight>
<weight id="1815" MUR="1.0" MUF="1.0" PDF="320600" > PDF=320500 MemberID=100 </weight>
</weightgroup> # PDFSET -> PDFSET
<weightgroup name="NNPDF30_nlo_as_0118_nf_4" combine="replicas"> # 260400: NNPDF3.0 NLO global fit, alphas(mb)=0.22278. mem=0 ; average on replicas; mem=1-100 ; PDF replicas
<weight id="1816" MUR="1.0" MUF="1.0" PDF="260400" > PDF=260400 MemberID=0 </weight>
<weight id="1817" MUR="1.0" MUF="1.0" PDF="260401" > PDF=260400 MemberID=1 </weight>
<weight id="1818" MUR="1.0" MUF="1.0" PDF="260402" > PDF=260400 MemberID=2 </weight>
<weight id="1819" MUR="1.0" MUF="1.0" PDF="260403" > PDF=260400 MemberID=3 </weight>
<weight id="1820" MUR="1.0" MUF="1.0" PDF="260404" > PDF=260400 MemberID=4 </weight>
<weight id="1821" MUR="1.0" MUF="1.0" PDF="260405" > PDF=260400 MemberID=5 </weight>
<weight id="1822" MUR="1.0" MUF="1.0" PDF="260406" > PDF=260400 MemberID=6 </weight>
<weight id="1823" MUR="1.0" MUF="1.0" PDF="260407" > PDF=260400 MemberID=7 </weight>
<weight id="1824" MUR="1.0" MUF="1.0" PDF="260408" > PDF=260400 MemberID=8 </weight>
<weight id="1825" MUR="1.0" MUF="1.0" PDF="260409" > PDF=260400 MemberID=9 </weight>
<weight id="1826" MUR="1.0" MUF="1.0" PDF="260410" > PDF=260400 MemberID=10 </weight>
<weight id="1827" MUR="1.0" MUF="1.0" PDF="260411" > PDF=260400 MemberID=11 </weight>
<weight id="1828" MUR="1.0" MUF="1.0" PDF="260412" > PDF=260400 MemberID=12 </weight>
<weight id="1829" MUR="1.0" MUF="1.0" PDF="260413" > PDF=260400 MemberID=13 </weight>
<weight id="1830" MUR="1.0" MUF="1.0" PDF="260414" > PDF=260400 MemberID=14 </weight>
<weight id="1831" MUR="1.0" MUF="1.0" PDF="260415" > PDF=260400 MemberID=15 </weight>
<weight id="1832" MUR="1.0" MUF="1.0" PDF="260416" > PDF=260400 MemberID=16 </weight>
<weight id="1833" MUR="1.0" MUF="1.0" PDF="260417" > PDF=260400 MemberID=17 </weight>
<weight id="1834" MUR="1.0" MUF="1.0" PDF="260418" > PDF=260400 MemberID=18 </weight>
<weight id="1835" MUR="1.0" MUF="1.0" PDF="260419" > PDF=260400 MemberID=19 </weight>
<weight id="1836" MUR="1.0" MUF="1.0" PDF="260420" > PDF=260400 MemberID=20 </weight>
<weight id="1837" MUR="1.0" MUF="1.0" PDF="260421" > PDF=260400 MemberID=21 </weight>
<weight id="1838" MUR="1.0" MUF="1.0" PDF="260422" > PDF=260400 MemberID=22 </weight>
<weight id="1839" MUR="1.0" MUF="1.0" PDF="260423" > PDF=260400 MemberID=23 </weight>
<weight id="1840" MUR="1.0" MUF="1.0" PDF="260424" > PDF=260400 MemberID=24 </weight>
<weight id="1841" MUR="1.0" MUF="1.0" PDF="260425" > PDF=260400 MemberID=25 </weight>
<weight id="1842" MUR="1.0" MUF="1.0" PDF="260426" > PDF=260400 MemberID=26 </weight>
<weight id="1843" MUR="1.0" MUF="1.0" PDF="260427" > PDF=260400 MemberID=27 </weight>
<weight id="1844" MUR="1.0" MUF="1.0" PDF="260428" > PDF=260400 MemberID=28 </weight>
<weight id="1845" MUR="1.0" MUF="1.0" PDF="260429" > PDF=260400 MemberID=29 </weight>
<weight id="1846" MUR="1.0" MUF="1.0" PDF="260430" > PDF=260400 MemberID=30 </weight>
<weight id="1847" MUR="1.0" MUF="1.0" PDF="260431" > PDF=260400 MemberID=31 </weight>
<weight id="1848" MUR="1.0" MUF="1.0" PDF="260432" > PDF=260400 MemberID=32 </weight>
<weight id="1849" MUR="1.0" MUF="1.0" PDF="260433" > PDF=260400 MemberID=33 </weight>
<weight id="1850" MUR="1.0" MUF="1.0" PDF="260434" > PDF=260400 MemberID=34 </weight>
<weight id="1851" MUR="1.0" MUF="1.0" PDF="260435" > PDF=260400 MemberID=35 </weight>
<weight id="1852" MUR="1.0" MUF="1.0" PDF="260436" > PDF=260400 MemberID=36 </weight>
<weight id="1853" MUR="1.0" MUF="1.0" PDF="260437" > PDF=260400 MemberID=37 </weight>
<weight id="1854" MUR="1.0" MUF="1.0" PDF="260438" > PDF=260400 MemberID=38 </weight>
<weight id="1855" MUR="1.0" MUF="1.0" PDF="260439" > PDF=260400 MemberID=39 </weight>
<weight id="1856" MUR="1.0" MUF="1.0" PDF="260440" > PDF=260400 MemberID=40 </weight>
<weight id="1857" MUR="1.0" MUF="1.0" PDF="260441" > PDF=260400 MemberID=41 </weight>
<weight id="1858" MUR="1.0" MUF="1.0" PDF="260442" > PDF=260400 MemberID=42 </weight>
<weight id="1859" MUR="1.0" MUF="1.0" PDF="260443" > PDF=260400 MemberID=43 </weight>
<weight id="1860" MUR="1.0" MUF="1.0" PDF="260444" > PDF=260400 MemberID=44 </weight>
<weight id="1861" MUR="1.0" MUF="1.0" PDF="260445" > PDF=260400 MemberID=45 </weight>
<weight id="1862" MUR="1.0" MUF="1.0" PDF="260446" > PDF=260400 MemberID=46 </weight>
<weight id="1863" MUR="1.0" MUF="1.0" PDF="260447" > PDF=260400 MemberID=47 </weight>
<weight id="1864" MUR="1.0" MUF="1.0" PDF="260448" > PDF=260400 MemberID=48 </weight>
<weight id="1865" MUR="1.0" MUF="1.0" PDF="260449" > PDF=260400 MemberID=49 </weight>
<weight id="1866" MUR="1.0" MUF="1.0" PDF="260450" > PDF=260400 MemberID=50 </weight>
<weight id="1867" MUR="1.0" MUF="1.0" PDF="260451" > PDF=260400 MemberID=51 </weight>
<weight id="1868" MUR="1.0" MUF="1.0" PDF="260452" > PDF=260400 MemberID=52 </weight>
<weight id="1869" MUR="1.0" MUF="1.0" PDF="260453" > PDF=260400 MemberID=53 </weight>
<weight id="1870" MUR="1.0" MUF="1.0" PDF="260454" > PDF=260400 MemberID=54 </weight>
<weight id="1871" MUR="1.0" MUF="1.0" PDF="260455" > PDF=260400 MemberID=55 </weight>
<weight id="1872" MUR="1.0" MUF="1.0" PDF="260456" > PDF=260400 MemberID=56 </weight>
<weight id="1873" MUR="1.0" MUF="1.0" PDF="260457" > PDF=260400 MemberID=57 </weight>
<weight id="1874" MUR="1.0" MUF="1.0" PDF="260458" > PDF=260400 MemberID=58 </weight>
<weight id="1875" MUR="1.0" MUF="1.0" PDF="260459" > PDF=260400 MemberID=59 </weight>
<weight id="1876" MUR="1.0" MUF="1.0" PDF="260460" > PDF=260400 MemberID=60 </weight>
<weight id="1877" MUR="1.0" MUF="1.0" PDF="260461" > PDF=260400 MemberID=61 </weight>
<weight id="1878" MUR="1.0" MUF="1.0" PDF="260462" > PDF=260400 MemberID=62 </weight>
<weight id="1879" MUR="1.0" MUF="1.0" PDF="260463" > PDF=260400 MemberID=63 </weight>
<weight id="1880" MUR="1.0" MUF="1.0" PDF="260464" > PDF=260400 MemberID=64 </weight>
<weight id="1881" MUR="1.0" MUF="1.0" PDF="260465" > PDF=260400 MemberID=65 </weight>
<weight id="1882" MUR="1.0" MUF="1.0" PDF="260466" > PDF=260400 MemberID=66 </weight>
<weight id="1883" MUR="1.0" MUF="1.0" PDF="260467" > PDF=260400 MemberID=67 </weight>
<weight id="1884" MUR="1.0" MUF="1.0" PDF="260468" > PDF=260400 MemberID=68 </weight>
<weight id="1885" MUR="1.0" MUF="1.0" PDF="260469" > PDF=260400 MemberID=69 </weight>
<weight id="1886" MUR="1.0" MUF="1.0" PDF="260470" > PDF=260400 MemberID=70 </weight>
<weight id="1887" MUR="1.0" MUF="1.0" PDF="260471" > PDF=260400 MemberID=71 </weight>
<weight id="1888" MUR="1.0" MUF="1.0" PDF="260472" > PDF=260400 MemberID=72 </weight>
<weight id="1889" MUR="1.0" MUF="1.0" PDF="260473" > PDF=260400 MemberID=73 </weight>
<weight id="1890" MUR="1.0" MUF="1.0" PDF="260474" > PDF=260400 MemberID=74 </weight>
<weight id="1891" MUR="1.0" MUF="1.0" PDF="260475" > PDF=260400 MemberID=75 </weight>
<weight id="1892" MUR="1.0" MUF="1.0" PDF="260476" > PDF=260400 MemberID=76 </weight>
<weight id="1893" MUR="1.0" MUF="1.0" PDF="260477" > PDF=260400 MemberID=77 </weight>
<weight id="1894" MUR="1.0" MUF="1.0" PDF="260478" > PDF=260400 MemberID=78 </weight>
<weight id="1895" MUR="1.0" MUF="1.0" PDF="260479" > PDF=260400 MemberID=79 </weight>
<weight id="1896" MUR="1.0" MUF="1.0" PDF="260480" > PDF=260400 MemberID=80 </weight>
<weight id="1897" MUR="1.0" MUF="1.0" PDF="260481" > PDF=260400 MemberID=81 </weight>
<weight id="1898" MUR="1.0" MUF="1.0" PDF="260482" > PDF=260400 MemberID=82 </weight>
<weight id="1899" MUR="1.0" MUF="1.0" PDF="260483" > PDF=260400 MemberID=83 </weight>
<weight id="1900" MUR="1.0" MUF="1.0" PDF="260484" > PDF=260400 MemberID=84 </weight>
<weight id="1901" MUR="1.0" MUF="1.0" PDF="260485" > PDF=260400 MemberID=85 </weight>
<weight id="1902" MUR="1.0" MUF="1.0" PDF="260486" > PDF=260400 MemberID=86 </weight>
<weight id="1903" MUR="1.0" MUF="1.0" PDF="260487" > PDF=260400 MemberID=87 </weight>
<weight id="1904" MUR="1.0" MUF="1.0" PDF="260488" > PDF=260400 MemberID=88 </weight>
<weight id="1905" MUR="1.0" MUF="1.0" PDF="260489" > PDF=260400 MemberID=89 </weight>
<weight id="1906" MUR="1.0" MUF="1.0" PDF="260490" > PDF=260400 MemberID=90 </weight>
<weight id="1907" MUR="1.0" MUF="1.0" PDF="260491" > PDF=260400 MemberID=91 </weight>
<weight id="1908" MUR="1.0" MUF="1.0" PDF="260492" > PDF=260400 MemberID=92 </weight>
<weight id="1909" MUR="1.0" MUF="1.0" PDF="260493" > PDF=260400 MemberID=93 </weight>
<weight id="1910" MUR="1.0" MUF="1.0" PDF="260494" > PDF=260400 MemberID=94 </weight>
<weight id="1911" MUR="1.0" MUF="1.0" PDF="260495" > PDF=260400 MemberID=95 </weight>
<weight id="1912" MUR="1.0" MUF="1.0" PDF="260496" > PDF=260400 MemberID=96 </weight>
<weight id="1913" MUR="1.0" MUF="1.0" PDF="260497" > PDF=260400 MemberID=97 </weight>
<weight id="1914" MUR="1.0" MUF="1.0" PDF="260498" > PDF=260400 MemberID=98 </weight>
<weight id="1915" MUR="1.0" MUF="1.0" PDF="260499" > PDF=260400 MemberID=99 </weight>
<weight id="1916" MUR="1.0" MUF="1.0" PDF="260500" > PDF=260400 MemberID=100 </weight>
</weightgroup> # PDFSET -> PDF
<weight id="1917" MUR="1.0" MUF="1.0" PDF="262400" > PDF=262400 MemberID=0 </weight>
<weight id="1918" MUR="1.0" MUF="1.0" PDF="263400" > PDF=263400 MemberID=0 </weight>
<weightgroup name="NNPDF30_nlo_nf_4_pdfas" combine="replicas+as"> # 292000: NNPDF3.0 NLO global fit; mem=0 to mem=100 with alphas(MZ)=0.118, mem=0 ; average on replicas 1-100; mem=1-100 ; PDF replicas with  alphas(MZ)=0.118; mem=101 ; central value for alphas=0.117; mem=102 ; central value for alphas=0.119; maximum number of active flavors NF=4
<weight id="1919" MUR="1.0" MUF="1.0" PDF="292000" > PDF=292000 MemberID=0 </weight>
<weight id="1920" MUR="1.0" MUF="1.0" PDF="292001" > PDF=292000 MemberID=1 </weight>
<weight id="1921" MUR="1.0" MUF="1.0" PDF="292002" > PDF=292000 MemberID=2 </weight>
<weight id="1922" MUR="1.0" MUF="1.0" PDF="292003" > PDF=292000 MemberID=3 </weight>
<weight id="1923" MUR="1.0" MUF="1.0" PDF="292004" > PDF=292000 MemberID=4 </weight>
<weight id="1924" MUR="1.0" MUF="1.0" PDF="292005" > PDF=292000 MemberID=5 </weight>
<weight id="1925" MUR="1.0" MUF="1.0" PDF="292006" > PDF=292000 MemberID=6 </weight>
<weight id="1926" MUR="1.0" MUF="1.0" PDF="292007" > PDF=292000 MemberID=7 </weight>
<weight id="1927" MUR="1.0" MUF="1.0" PDF="292008" > PDF=292000 MemberID=8 </weight>
<weight id="1928" MUR="1.0" MUF="1.0" PDF="292009" > PDF=292000 MemberID=9 </weight>
<weight id="1929" MUR="1.0" MUF="1.0" PDF="292010" > PDF=292000 MemberID=10 </weight>
<weight id="1930" MUR="1.0" MUF="1.0" PDF="292011" > PDF=292000 MemberID=11 </weight>
<weight id="1931" MUR="1.0" MUF="1.0" PDF="292012" > PDF=292000 MemberID=12 </weight>
<weight id="1932" MUR="1.0" MUF="1.0" PDF="292013" > PDF=292000 MemberID=13 </weight>
<weight id="1933" MUR="1.0" MUF="1.0" PDF="292014" > PDF=292000 MemberID=14 </weight>
<weight id="1934" MUR="1.0" MUF="1.0" PDF="292015" > PDF=292000 MemberID=15 </weight>
<weight id="1935" MUR="1.0" MUF="1.0" PDF="292016" > PDF=292000 MemberID=16 </weight>
<weight id="1936" MUR="1.0" MUF="1.0" PDF="292017" > PDF=292000 MemberID=17 </weight>
<weight id="1937" MUR="1.0" MUF="1.0" PDF="292018" > PDF=292000 MemberID=18 </weight>
<weight id="1938" MUR="1.0" MUF="1.0" PDF="292019" > PDF=292000 MemberID=19 </weight>
<weight id="1939" MUR="1.0" MUF="1.0" PDF="292020" > PDF=292000 MemberID=20 </weight>
<weight id="1940" MUR="1.0" MUF="1.0" PDF="292021" > PDF=292000 MemberID=21 </weight>
<weight id="1941" MUR="1.0" MUF="1.0" PDF="292022" > PDF=292000 MemberID=22 </weight>
<weight id="1942" MUR="1.0" MUF="1.0" PDF="292023" > PDF=292000 MemberID=23 </weight>
<weight id="1943" MUR="1.0" MUF="1.0" PDF="292024" > PDF=292000 MemberID=24 </weight>
<weight id="1944" MUR="1.0" MUF="1.0" PDF="292025" > PDF=292000 MemberID=25 </weight>
<weight id="1945" MUR="1.0" MUF="1.0" PDF="292026" > PDF=292000 MemberID=26 </weight>
<weight id="1946" MUR="1.0" MUF="1.0" PDF="292027" > PDF=292000 MemberID=27 </weight>
<weight id="1947" MUR="1.0" MUF="1.0" PDF="292028" > PDF=292000 MemberID=28 </weight>
<weight id="1948" MUR="1.0" MUF="1.0" PDF="292029" > PDF=292000 MemberID=29 </weight>
<weight id="1949" MUR="1.0" MUF="1.0" PDF="292030" > PDF=292000 MemberID=30 </weight>
<weight id="1950" MUR="1.0" MUF="1.0" PDF="292031" > PDF=292000 MemberID=31 </weight>
<weight id="1951" MUR="1.0" MUF="1.0" PDF="292032" > PDF=292000 MemberID=32 </weight>
<weight id="1952" MUR="1.0" MUF="1.0" PDF="292033" > PDF=292000 MemberID=33 </weight>
<weight id="1953" MUR="1.0" MUF="1.0" PDF="292034" > PDF=292000 MemberID=34 </weight>
<weight id="1954" MUR="1.0" MUF="1.0" PDF="292035" > PDF=292000 MemberID=35 </weight>
<weight id="1955" MUR="1.0" MUF="1.0" PDF="292036" > PDF=292000 MemberID=36 </weight>
<weight id="1956" MUR="1.0" MUF="1.0" PDF="292037" > PDF=292000 MemberID=37 </weight>
<weight id="1957" MUR="1.0" MUF="1.0" PDF="292038" > PDF=292000 MemberID=38 </weight>
<weight id="1958" MUR="1.0" MUF="1.0" PDF="292039" > PDF=292000 MemberID=39 </weight>
<weight id="1959" MUR="1.0" MUF="1.0" PDF="292040" > PDF=292000 MemberID=40 </weight>
<weight id="1960" MUR="1.0" MUF="1.0" PDF="292041" > PDF=292000 MemberID=41 </weight>
<weight id="1961" MUR="1.0" MUF="1.0" PDF="292042" > PDF=292000 MemberID=42 </weight>
<weight id="1962" MUR="1.0" MUF="1.0" PDF="292043" > PDF=292000 MemberID=43 </weight>
<weight id="1963" MUR="1.0" MUF="1.0" PDF="292044" > PDF=292000 MemberID=44 </weight>
<weight id="1964" MUR="1.0" MUF="1.0" PDF="292045" > PDF=292000 MemberID=45 </weight>
<weight id="1965" MUR="1.0" MUF="1.0" PDF="292046" > PDF=292000 MemberID=46 </weight>
<weight id="1966" MUR="1.0" MUF="1.0" PDF="292047" > PDF=292000 MemberID=47 </weight>
<weight id="1967" MUR="1.0" MUF="1.0" PDF="292048" > PDF=292000 MemberID=48 </weight>
<weight id="1968" MUR="1.0" MUF="1.0" PDF="292049" > PDF=292000 MemberID=49 </weight>
<weight id="1969" MUR="1.0" MUF="1.0" PDF="292050" > PDF=292000 MemberID=50 </weight>
<weight id="1970" MUR="1.0" MUF="1.0" PDF="292051" > PDF=292000 MemberID=51 </weight>
<weight id="1971" MUR="1.0" MUF="1.0" PDF="292052" > PDF=292000 MemberID=52 </weight>
<weight id="1972" MUR="1.0" MUF="1.0" PDF="292053" > PDF=292000 MemberID=53 </weight>
<weight id="1973" MUR="1.0" MUF="1.0" PDF="292054" > PDF=292000 MemberID=54 </weight>
<weight id="1974" MUR="1.0" MUF="1.0" PDF="292055" > PDF=292000 MemberID=55 </weight>
<weight id="1975" MUR="1.0" MUF="1.0" PDF="292056" > PDF=292000 MemberID=56 </weight>
<weight id="1976" MUR="1.0" MUF="1.0" PDF="292057" > PDF=292000 MemberID=57 </weight>
<weight id="1977" MUR="1.0" MUF="1.0" PDF="292058" > PDF=292000 MemberID=58 </weight>
<weight id="1978" MUR="1.0" MUF="1.0" PDF="292059" > PDF=292000 MemberID=59 </weight>
<weight id="1979" MUR="1.0" MUF="1.0" PDF="292060" > PDF=292000 MemberID=60 </weight>
<weight id="1980" MUR="1.0" MUF="1.0" PDF="292061" > PDF=292000 MemberID=61 </weight>
<weight id="1981" MUR="1.0" MUF="1.0" PDF="292062" > PDF=292000 MemberID=62 </weight>
<weight id="1982" MUR="1.0" MUF="1.0" PDF="292063" > PDF=292000 MemberID=63 </weight>
<weight id="1983" MUR="1.0" MUF="1.0" PDF="292064" > PDF=292000 MemberID=64 </weight>
<weight id="1984" MUR="1.0" MUF="1.0" PDF="292065" > PDF=292000 MemberID=65 </weight>
<weight id="1985" MUR="1.0" MUF="1.0" PDF="292066" > PDF=292000 MemberID=66 </weight>
<weight id="1986" MUR="1.0" MUF="1.0" PDF="292067" > PDF=292000 MemberID=67 </weight>
<weight id="1987" MUR="1.0" MUF="1.0" PDF="292068" > PDF=292000 MemberID=68 </weight>
<weight id="1988" MUR="1.0" MUF="1.0" PDF="292069" > PDF=292000 MemberID=69 </weight>
<weight id="1989" MUR="1.0" MUF="1.0" PDF="292070" > PDF=292000 MemberID=70 </weight>
<weight id="1990" MUR="1.0" MUF="1.0" PDF="292071" > PDF=292000 MemberID=71 </weight>
<weight id="1991" MUR="1.0" MUF="1.0" PDF="292072" > PDF=292000 MemberID=72 </weight>
<weight id="1992" MUR="1.0" MUF="1.0" PDF="292073" > PDF=292000 MemberID=73 </weight>
<weight id="1993" MUR="1.0" MUF="1.0" PDF="292074" > PDF=292000 MemberID=74 </weight>
<weight id="1994" MUR="1.0" MUF="1.0" PDF="292075" > PDF=292000 MemberID=75 </weight>
<weight id="1995" MUR="1.0" MUF="1.0" PDF="292076" > PDF=292000 MemberID=76 </weight>
<weight id="1996" MUR="1.0" MUF="1.0" PDF="292077" > PDF=292000 MemberID=77 </weight>
<weight id="1997" MUR="1.0" MUF="1.0" PDF="292078" > PDF=292000 MemberID=78 </weight>
<weight id="1998" MUR="1.0" MUF="1.0" PDF="292079" > PDF=292000 MemberID=79 </weight>
<weight id="1999" MUR="1.0" MUF="1.0" PDF="292080" > PDF=292000 MemberID=80 </weight>
<weight id="2000" MUR="1.0" MUF="1.0" PDF="292081" > PDF=292000 MemberID=81 </weight>
<weight id="2001" MUR="1.0" MUF="1.0" PDF="292082" > PDF=292000 MemberID=82 </weight>
<weight id="2002" MUR="1.0" MUF="1.0" PDF="292083" > PDF=292000 MemberID=83 </weight>
<weight id="2003" MUR="1.0" MUF="1.0" PDF="292084" > PDF=292000 MemberID=84 </weight>
<weight id="2004" MUR="1.0" MUF="1.0" PDF="292085" > PDF=292000 MemberID=85 </weight>
<weight id="2005" MUR="1.0" MUF="1.0" PDF="292086" > PDF=292000 MemberID=86 </weight>
<weight id="2006" MUR="1.0" MUF="1.0" PDF="292087" > PDF=292000 MemberID=87 </weight>
<weight id="2007" MUR="1.0" MUF="1.0" PDF="292088" > PDF=292000 MemberID=88 </weight>
<weight id="2008" MUR="1.0" MUF="1.0" PDF="292089" > PDF=292000 MemberID=89 </weight>
<weight id="2009" MUR="1.0" MUF="1.0" PDF="292090" > PDF=292000 MemberID=90 </weight>
<weight id="2010" MUR="1.0" MUF="1.0" PDF="292091" > PDF=292000 MemberID=91 </weight>
<weight id="2011" MUR="1.0" MUF="1.0" PDF="292092" > PDF=292000 MemberID=92 </weight>
<weight id="2012" MUR="1.0" MUF="1.0" PDF="292093" > PDF=292000 MemberID=93 </weight>
<weight id="2013" MUR="1.0" MUF="1.0" PDF="292094" > PDF=292000 MemberID=94 </weight>
<weight id="2014" MUR="1.0" MUF="1.0" PDF="292095" > PDF=292000 MemberID=95 </weight>
<weight id="2015" MUR="1.0" MUF="1.0" PDF="292096" > PDF=292000 MemberID=96 </weight>
<weight id="2016" MUR="1.0" MUF="1.0" PDF="292097" > PDF=292000 MemberID=97 </weight>
<weight id="2017" MUR="1.0" MUF="1.0" PDF="292098" > PDF=292000 MemberID=98 </weight>
<weight id="2018" MUR="1.0" MUF="1.0" PDF="292099" > PDF=292000 MemberID=99 </weight>
<weight id="2019" MUR="1.0" MUF="1.0" PDF="292100" > PDF=292000 MemberID=100 </weight>
<weight id="2020" MUR="1.0" MUF="1.0" PDF="292101" > PDF=292000 MemberID=101 </weight>
<weight id="2021" MUR="1.0" MUF="1.0" PDF="292102" > PDF=292000 MemberID=102 </weight>
</weightgroup> # PDFSET -> PDF
<weight id="2022" MUR="1.0" MUF="1.0" PDF="292400" > PDF=292400 MemberID=0 </weight>
</initrwgt>
<MGGenerationInfo>
#  Number of Events        :  2000
#  Integrated weight (pb)  :  1.58224E+01
</MGGenerationInfo>
<madspin>
set seed 77544695
import /local-scratch/xulyu/genproductions/bin/MadGraph5_aMCatNLO/tZ_b_LH_M600/tZ_b_LH_M600_gridpack/work//unweighted_events.lhe.gz
set ms_dir ./madspingrid
set max_running_process 1
set Nevents_for_max_weigth 250 
set max_weight_ps_point 400  
decay t > w+ b, w+ > all all
decay t~ > w- b~, w- > all all
decay z > all all
launch
</madspin>
</header>
<init>
  2212 2212 6.500000e+03 6.500000e+03 0 0 325500 325500 -3 2 
  4.30988E+00 7.57994E-02 1.358172000000E+00 2 
  1.04128E+01 2.18375E-01 1.358172000000E+00 1 
<generator name='MadGraph5_aMC@NLO' version='2.6.5'>please cite 1405.0301 </generator>
</init>
<event>
 13 2 0.0079112 2.86519000e+02 7.81860800e-03 1.07929800e-01
        1 -1    0    0  501    0 +0.0000000000e+00 +0.0000000000e+00 +9.5000696361e+02 9.5000696362e+02 5.0400000000e-03 0.0000e+00 -1.0000e+00
       21 -1    0    0  502  503 +0.0000000000e+00 +0.0000000000e+00 -4.0254990114e+02 4.0254990114e+02 0.0000000000e+00 0.0000e+00 -1.0000e+00
 -8000001  2    1    2    0  503 +8.0521403128e+01 -2.4337130519e+01 +5.9583878342e+02 8.4976439672e+02 5.9999973485e+02 0.0000e+00 0.0000e+00
        2  1    1    2  501    0 +4.8913553509e+01 -1.2635677488e+01 +2.0753444243e+02 2.1359480533e+02 2.5500000000e-03 0.0000e+00 -1.0000e+00
        5  1    1    2  502    0 -1.2943495664e+02 +3.6972808007e+01 -2.5591616339e+02 2.8919766271e+02 4.6700000000e+00 0.0000e+00 -1.0000e+00
       -6  2    3    3    0  503 -2.0394628008e+02 -9.5856097036e+01 +3.8832508762e+02 4.8071980940e+02 1.7179256379e+02 0.0000e+00 0.0000e+00
       -5  1    6    6    0  503 -5.9455349176e+01 +2.9915124814e+01 +1.5381928854e+02 1.6766644168e+02 4.6700000000e+00 0.0000e+00 1.0000e+00
      -24  2    6    6    0    0 -1.4449093090e+02 -1.2577122185e+02 +2.3450579908e+02 3.1305336771e+02 7.9456981298e+01 0.0000e+00 0.0000e+00
      -14  1    8    8    0    0 -1.4629180311e+02 -1.3434814815e+02 +2.2473912614e+02 2.9993064430e+02 0.0000000000e+00 0.0000e+00 1.0000e+00
       13  1    8    8    0    0 +1.8008722101e+00 +8.5769263044e+00 +9.7666729348e+00 1.3122723414e+01 1.0566000000e-01 0.0000e+00 -1.0000e+00
       23  2    3    3    0    0 +2.8446768321e+02 +7.1518966517e+01 +2.0751369580e+02 3.6904458732e+02 8.4232702228e+01 0.0000e+00 0.0000e+00
       16  1   11   11    0    0 +1.7005277154e+01 +2.9979840938e+01 +2.5340537469e+01 4.2779821797e+01 0.0000000000e+00 0.0000e+00 -1.0000e+00
      -16  1   11   11    0    0 +2.6746240605e+02 +4.1539125579e+01 +1.8217315834e+02 3.2626476553e+02 0.0000000000e+00 0.0000e+00 1.0000e+00
<mgrwt>
<rscale>  1 0.12031098e+03</rscale>
<asrwt>0</asrwt>
<pdfrwt beam="1">  1       21 0.61930754e-01 0.28651904e+03</pdfrwt>
<pdfrwt beam="2">  1        1 0.14615492e+00 0.50519264e+02</pdfrwt>
<totfact> 0.56576187e+02</totfact>
</mgrwt>
<rwgt>
<wgt id='1001'> +1.3581722e+00 </wgt>
<wgt id='1002'> +8.5877943e-01 </wgt>
<wgt id='1003'> +8.5872851e-01 </wgt>
<wgt id='1004'> +1.0096747e+00 </wgt>
<wgt id='1005'> +7.7229835e-01 </wgt>
<wgt id='1006'> +1.2295919e+00 </wgt>
<wgt id='1007'> +7.9449311e-01 </wgt>
<wgt id='1008'> +7.9444791e-01 </wgt>
<wgt id='1009'> +9.2768609e-01 </wgt>
<wgt id='1010'> +7.1745703e-01 </wgt>
<wgt id='1011'> +1.5178808e+00 </wgt>
<wgt id='1012'> +9.3468074e-01 </wgt>
<wgt id='1013'> +9.3462267e-01 </wgt>
<wgt id='1014'> +1.1080268e+00 </wgt>
<wgt id='1015'> +8.3644058e-01 </wgt>
<wgt id='1016'> +1.2457191e+00 </wgt>
<wgt id='1017'> +7.9808507e-01 </wgt>
<wgt id='1018'> +7.9803882e-01 </wgt>
<wgt id='1019'> +9.3462267e-01 </wgt>
<wgt id='1020'> +7.1969001e-01 </wgt>
<wgt id='1021'> +1.1277849e+00 </wgt>
<wgt id='1022'> +7.3834220e-01 </wgt>
<wgt id='1023'> +7.3830118e-01 </wgt>
<wgt id='1024'> +8.5872851e-01 </wgt>
<wgt id='1025'> +6.6858443e-01 </wgt>
<wgt id='1026'> +1.3922042e+00 </wgt>
<wgt id='1027'> +8.6862205e-01 </wgt>
<wgt id='1028'> +8.6856925e-01 </wgt>
<wgt id='1029'> +1.0256640e+00 </wgt>
<wgt id='1030'> +7.7946291e-01 </wgt>
<wgt id='1031'> +1.4895082e+00 </wgt>
<wgt id='1032'> +9.2774270e-01 </wgt>
<wgt id='1033'> +9.2768609e-01 </wgt>
<wgt id='1034'> +1.0955048e+00 </wgt>
<wgt id='1035'> +8.3190717e-01 </wgt>
<wgt id='1036'> +1.3484941e+00 </wgt>
<wgt id='1037'> +8.5829395e-01 </wgt>
<wgt id='1038'> +8.5824363e-01 </wgt>
<wgt id='1039'> +1.0065465e+00 </wgt>
<wgt id='1040'> +7.7283299e-01 </wgt>
<wgt id='1041'> +1.6646606e+00 </wgt>
<wgt id='1042'> +1.0097392e+00 </wgt>
<wgt id='1043'> +1.0096747e+00 </wgt>
<wgt id='1044'> +1.2022176e+00 </wgt>
<wgt id='1045'> +9.0100013e-01 </wgt>
<wgt id='1046'> +1.3581722e+00 </wgt>
<wgt id='1047'> +1.3581722e+00 </wgt>
<wgt id='1048'> +1.3581722e+00 </wgt>
<wgt id='1049'> +1.3613903e+00 </wgt>
<wgt id='1050'> +1.3588430e+00 </wgt>
<wgt id='1051'> +1.3620548e+00 </wgt>
<wgt id='1052'> +1.3574234e+00 </wgt>
<wgt id='1053'> +1.3603359e+00 </wgt>
<wgt id='1054'> +1.3564333e+00 </wgt>
<wgt id='1055'> +1.3491830e+00 </wgt>
<wgt id='1056'> +1.3530640e+00 </wgt>
<wgt id='1057'> +1.3547735e+00 </wgt>
<wgt id='1058'> +1.3582512e+00 </wgt>
<wgt id='1059'> +1.3599302e+00 </wgt>
<wgt id='1060'> +1.3570496e+00 </wgt>
<wgt id='1061'> +1.3600161e+00 </wgt>
<wgt id='1062'> +1.3613274e+00 </wgt>
<wgt id='1063'> +1.3584197e+00 </wgt>
<wgt id='1064'> +1.3574486e+00 </wgt>
<wgt id='1065'> +1.3651557e+00 </wgt>
<wgt id='1066'> +1.3496247e+00 </wgt>
<wgt id='1067'> +1.3606951e+00 </wgt>
<wgt id='1068'> +1.3602336e+00 </wgt>
<wgt id='1069'> +1.3546223e+00 </wgt>
<wgt id='1070'> +1.3582650e+00 </wgt>
<wgt id='1071'> +1.3546614e+00 </wgt>
<wgt id='1072'> +1.3614469e+00 </wgt>
<wgt id='1073'> +1.3562650e+00 </wgt>
<wgt id='1074'> +1.3609312e+00 </wgt>
<wgt id='1075'> +1.3544850e+00 </wgt>
<wgt id='1076'> +1.3600810e+00 </wgt>
<wgt id='1077'> +1.3645530e+00 </wgt>
<wgt id='1078'> +1.3550045e+00 </wgt>
<wgt id='1079'> +1.3687510e+00 </wgt>
<wgt id='1080'> +1.3619081e+00 </wgt>
<wgt id='1081'> +1.3634945e+00 </wgt>
<wgt id='1082'> +1.3617631e+00 </wgt>
<wgt id='1083'> +1.3551062e+00 </wgt>
<wgt id='1084'> +1.3507571e+00 </wgt>
<wgt id='1085'> +1.3658261e+00 </wgt>
<wgt id='1086'> +1.3533741e+00 </wgt>
<wgt id='1087'> +1.3554784e+00 </wgt>
<wgt id='1088'> +1.3574832e+00 </wgt>
<wgt id='1089'> +1.3589563e+00 </wgt>
<wgt id='1090'> +1.3609760e+00 </wgt>
<wgt id='1091'> +1.3563750e+00 </wgt>
<wgt id='1092'> +1.3564514e+00 </wgt>
<wgt id='1093'> +1.3619112e+00 </wgt>
<wgt id='1094'> +1.3571599e+00 </wgt>
<wgt id='1095'> +1.3576856e+00 </wgt>
<wgt id='1096'> +1.3556892e+00 </wgt>
<wgt id='1097'> +1.3540326e+00 </wgt>
<wgt id='1098'> +1.3539748e+00 </wgt>
<wgt id='1099'> +1.3565623e+00 </wgt>
<wgt id='1100'> +1.3567205e+00 </wgt>
<wgt id='1101'> +1.3597609e+00 </wgt>
<wgt id='1102'> +1.3596034e+00 </wgt>
<wgt id='1103'> +1.3637140e+00 </wgt>
<wgt id='1104'> +1.3543163e+00 </wgt>
<wgt id='1105'> +1.3579892e+00 </wgt>
<wgt id='1106'> +1.3628523e+00 </wgt>
<wgt id='1107'> +1.3569758e+00 </wgt>
<wgt id='1108'> +1.3575588e+00 </wgt>
<wgt id='1109'> +1.3627944e+00 </wgt>
<wgt id='1110'> +1.3617397e+00 </wgt>
<wgt id='1111'> +1.3577873e+00 </wgt>
<wgt id='1112'> +1.3578737e+00 </wgt>
<wgt id='1113'> +1.3591512e+00 </wgt>
<wgt id='1114'> +1.3570827e+00 </wgt>
<wgt id='1115'> +1.3581442e+00 </wgt>
<wgt id='1116'> +1.3608523e+00 </wgt>
<wgt id='1117'> +1.3581511e+00 </wgt>
<wgt id='1118'> +1.3583606e+00 </wgt>
<wgt id='1119'> +1.3589187e+00 </wgt>
<wgt id='1120'> +1.3573236e+00 </wgt>
<wgt id='1121'> +1.3589279e+00 </wgt>
<wgt id='1122'> +1.3578431e+00 </wgt>
<wgt id='1123'> +1.3562757e+00 </wgt>
<wgt id='1124'> +1.3566721e+00 </wgt>
<wgt id='1125'> +1.3602779e+00 </wgt>
<wgt id='1126'> +1.3573994e+00 </wgt>
<wgt id='1127'> +1.3564602e+00 </wgt>
<wgt id='1128'> +1.3593109e+00 </wgt>
<wgt id='1129'> +1.3582300e+00 </wgt>
<wgt id='1130'> +1.3586769e+00 </wgt>
<wgt id='1131'> +1.3603643e+00 </wgt>
<wgt id='1132'> +1.3579787e+00 </wgt>
<wgt id='1133'> +1.3583987e+00 </wgt>
<wgt id='1134'> +1.3577353e+00 </wgt>
<wgt id='1135'> +1.3595323e+00 </wgt>
<wgt id='1136'> +1.3587509e+00 </wgt>
<wgt id='1137'> +1.3584606e+00 </wgt>
<wgt id='1138'> +1.3587366e+00 </wgt>
<wgt id='1139'> +1.3584913e+00 </wgt>
<wgt id='1140'> +1.3593817e+00 </wgt>
<wgt id='1141'> +1.3580546e+00 </wgt>
<wgt id='1142'> +1.3597704e+00 </wgt>
<wgt id='1143'> +1.3582117e+00 </wgt>
<wgt id='1144'> +1.3578555e+00 </wgt>
<wgt id='1145'> +1.3580582e+00 </wgt>
<wgt id='1146'> +1.3576921e+00 </wgt>
<wgt id='1147'> +1.3588529e+00 </wgt>
<wgt id='1148'> +1.3581722e+00 </wgt>
<wgt id='1149'> +1.3017525e+00 </wgt>
<wgt id='1150'> +1.3153184e+00 </wgt>
<wgt id='1151'> +1.3031133e+00 </wgt>
<wgt id='1152'> +1.2910063e+00 </wgt>
<wgt id='1153'> +1.2725425e+00 </wgt>
<wgt id='1154'> +1.3121493e+00 </wgt>
<wgt id='1155'> +1.3462077e+00 </wgt>
<wgt id='1156'> +1.3047590e+00 </wgt>
<wgt id='1157'> +1.3037769e+00 </wgt>
<wgt id='1158'> +1.3384350e+00 </wgt>
<wgt id='1159'> +1.2266749e+00 </wgt>
<wgt id='1160'> +1.2675913e+00 </wgt>
<wgt id='1161'> +1.3172321e+00 </wgt>
<wgt id='1162'> +1.2623500e+00 </wgt>
<wgt id='1163'> +1.3099171e+00 </wgt>
<wgt id='1164'> +1.3108381e+00 </wgt>
<wgt id='1165'> +1.2874225e+00 </wgt>
<wgt id='1166'> +1.2965611e+00 </wgt>
<wgt id='1167'> +1.3287260e+00 </wgt>
<wgt id='1168'> +1.2883961e+00 </wgt>
<wgt id='1169'> +1.2832951e+00 </wgt>
<wgt id='1170'> +1.3270771e+00 </wgt>
<wgt id='1171'> +1.3237040e+00 </wgt>
<wgt id='1172'> +1.3099050e+00 </wgt>
<wgt id='1173'> +1.2863855e+00 </wgt>
<wgt id='1174'> +1.3246787e+00 </wgt>
<wgt id='1175'> +1.3051942e+00 </wgt>
<wgt id='1176'> +1.2180899e+00 </wgt>
<wgt id='1177'> +1.3300013e+00 </wgt>
<wgt id='1178'> +1.2708426e+00 </wgt>
<wgt id='1179'> +1.2942909e+00 </wgt>
<wgt id='1180'> +1.3230231e+00 </wgt>
<wgt id='1181'> +1.3261170e+00 </wgt>
<wgt id='1182'> +1.3547293e+00 </wgt>
<wgt id='1183'> +1.3156849e+00 </wgt>
<wgt id='1184'> +1.2905906e+00 </wgt>
<wgt id='1185'> +1.3452769e+00 </wgt>
<wgt id='1186'> +1.2923212e+00 </wgt>
<wgt id='1187'> +1.2830729e+00 </wgt>
<wgt id='1188'> +1.2816434e+00 </wgt>
<wgt id='1189'> +1.3078428e+00 </wgt>
<wgt id='1190'> +1.2941508e+00 </wgt>
<wgt id='1191'> +1.3326888e+00 </wgt>
<wgt id='1192'> +1.3013757e+00 </wgt>
<wgt id='1193'> +1.2910726e+00 </wgt>
<wgt id='1194'> +1.2458361e+00 </wgt>
<wgt id='1195'> +1.3131854e+00 </wgt>
<wgt id='1196'> +1.3386503e+00 </wgt>
<wgt id='1197'> +1.2897285e+00 </wgt>
<wgt id='1198'> +1.3153733e+00 </wgt>
<wgt id='1199'> +1.3008243e+00 </wgt>
<wgt id='1200'> +1.3029415e+00 </wgt>
<wgt id='1201'> +1.3278577e+00 </wgt>
<wgt id='1202'> +1.3033453e+00 </wgt>
<wgt id='1203'> +1.3164157e+00 </wgt>
<wgt id='1204'> +1.3093034e+00 </wgt>
<wgt id='1205'> +1.3000662e+00 </wgt>
<wgt id='1206'> +1.3200734e+00 </wgt>
<wgt id='1207'> +1.3590428e+00 </wgt>
<wgt id='1208'> +1.2779858e+00 </wgt>
<wgt id='1209'> +1.3387505e+00 </wgt>
<wgt id='1210'> +1.3111941e+00 </wgt>
<wgt id='1211'> +1.3279226e+00 </wgt>
<wgt id='1212'> +1.2807367e+00 </wgt>
<wgt id='1213'> +1.3162651e+00 </wgt>
<wgt id='1214'> +1.3083027e+00 </wgt>
<wgt id='1215'> +1.2714350e+00 </wgt>
<wgt id='1216'> +1.2890963e+00 </wgt>
<wgt id='1217'> +1.3055487e+00 </wgt>
<wgt id='1218'> +1.3060656e+00 </wgt>
<wgt id='1219'> +1.3065456e+00 </wgt>
<wgt id='1220'> +1.3215512e+00 </wgt>
<wgt id='1221'> +1.2186120e+00 </wgt>
<wgt id='1222'> +1.3051876e+00 </wgt>
<wgt id='1223'> +1.2624809e+00 </wgt>
<wgt id='1224'> +1.2901831e+00 </wgt>
<wgt id='1225'> +1.2965499e+00 </wgt>
<wgt id='1226'> +1.3108949e+00 </wgt>
<wgt id='1227'> +1.3348974e+00 </wgt>
<wgt id='1228'> +1.3341507e+00 </wgt>
<wgt id='1229'> +1.2834695e+00 </wgt>
<wgt id='1230'> +1.3211512e+00 </wgt>
<wgt id='1231'> +1.2874225e+00 </wgt>
<wgt id='1232'> +1.2108894e+00 </wgt>
<wgt id='1233'> +1.2900287e+00 </wgt>
<wgt id='1234'> +1.3082972e+00 </wgt>
<wgt id='1235'> +1.3294686e+00 </wgt>
<wgt id='1236'> +1.3238650e+00 </wgt>
<wgt id='1237'> +1.3047554e+00 </wgt>
<wgt id='1238'> +1.1943607e+00 </wgt>
<wgt id='1239'> +1.3482625e+00 </wgt>
<wgt id='1240'> +1.3336128e+00 </wgt>
<wgt id='1241'> +1.2898667e+00 </wgt>
<wgt id='1242'> +1.2698497e+00 </wgt>
<wgt id='1243'> +1.3024469e+00 </wgt>
<wgt id='1244'> +1.3107116e+00 </wgt>
<wgt id='1245'> +1.3236701e+00 </wgt>
<wgt id='1246'> +1.2811383e+00 </wgt>
<wgt id='1247'> +1.2907904e+00 </wgt>
<wgt id='1248'> +1.3106196e+00 </wgt>
<wgt id='1249'> +1.3007137e+00 </wgt>
<wgt id='1250'> +1.3149410e+00 </wgt>
<wgt id='1251'> +1.2975287e+00 </wgt>
<wgt id='1252'> +1.3257259e+00 </wgt>
<wgt id='1253'> +1.3287299e+00 </wgt>
<wgt id='1254'> +1.2308609e+00 </wgt>
<wgt id='1255'> +1.3079412e+00 </wgt>
<wgt id='1256'> +1.3071860e+00 </wgt>
<wgt id='1257'> +1.3082898e+00 </wgt>
<wgt id='1258'> +1.3129845e+00 </wgt>
<wgt id='1259'> +1.3054015e+00 </wgt>
<wgt id='1260'> +1.3069287e+00 </wgt>
<wgt id='1261'> +1.3092775e+00 </wgt>
<wgt id='1262'> +1.3077892e+00 </wgt>
<wgt id='1263'> +1.3080204e+00 </wgt>
<wgt id='1264'> +1.3235880e+00 </wgt>
<wgt id='1265'> +1.2971481e+00 </wgt>
<wgt id='1266'> +1.3077322e+00 </wgt>
<wgt id='1267'> +1.3081711e+00 </wgt>
<wgt id='1268'> +1.3142429e+00 </wgt>
<wgt id='1269'> +1.3015978e+00 </wgt>
<wgt id='1270'> +1.3012106e+00 </wgt>
<wgt id='1271'> +1.3143077e+00 </wgt>
<wgt id='1272'> +1.3152564e+00 </wgt>
<wgt id='1273'> +1.3011239e+00 </wgt>
<wgt id='1274'> +1.3050788e+00 </wgt>
<wgt id='1275'> +1.3110693e+00 </wgt>
<wgt id='1276'> +1.3113920e+00 </wgt>
<wgt id='1277'> +1.3037153e+00 </wgt>
<wgt id='1278'> +1.2948111e+00 </wgt>
<wgt id='1279'> +1.3182943e+00 </wgt>
<wgt id='1280'> +1.3087463e+00 </wgt>
<wgt id='1281'> +1.3019011e+00 </wgt>
<wgt id='1282'> +1.3129319e+00 </wgt>
<wgt id='1283'> +1.2995000e+00 </wgt>
<wgt id='1284'> +1.3033675e+00 </wgt>
<wgt id='1285'> +1.3059128e+00 </wgt>
<wgt id='1286'> +1.3024235e+00 </wgt>
<wgt id='1287'> +1.3080849e+00 </wgt>
<wgt id='1288'> +1.3081051e+00 </wgt>
<wgt id='1289'> +1.3071036e+00 </wgt>
<wgt id='1290'> +1.3113247e+00 </wgt>
<wgt id='1291'> +1.3067075e+00 </wgt>
<wgt id='1292'> +1.3147932e+00 </wgt>
<wgt id='1293'> +1.2988706e+00 </wgt>
<wgt id='1294'> +1.3026368e+00 </wgt>
<wgt id='1295'> +1.3070895e+00 </wgt>
<wgt id='1296'> +1.3381339e+00 </wgt>
<wgt id='1297'> +1.3413216e+00 </wgt>
<wgt id='1298'> +1.3355696e+00 </wgt>
<wgt id='1299'> +1.3403234e+00 </wgt>
<wgt id='1300'> +1.3357040e+00 </wgt>
<wgt id='1301'> +1.3370243e+00 </wgt>
<wgt id='1302'> +1.3397488e+00 </wgt>
<wgt id='1303'> +1.3442214e+00 </wgt>
<wgt id='1304'> +1.3340187e+00 </wgt>
<wgt id='1305'> +1.3383873e+00 </wgt>
<wgt id='1306'> +1.3378329e+00 </wgt>
<wgt id='1307'> +1.3396760e+00 </wgt>
<wgt id='1308'> +1.3371880e+00 </wgt>
<wgt id='1309'> +1.3279241e+00 </wgt>
<wgt id='1310'> +1.3519595e+00 </wgt>
<wgt id='1311'> +1.3413939e+00 </wgt>
<wgt id='1312'> +1.3369473e+00 </wgt>
<wgt id='1313'> +1.3329258e+00 </wgt>
<wgt id='1314'> +1.3443560e+00 </wgt>
<wgt id='1315'> +1.3285171e+00 </wgt>
<wgt id='1316'> +1.3454759e+00 </wgt>
<wgt id='1317'> +1.3316579e+00 </wgt>
<wgt id='1318'> +1.3499547e+00 </wgt>
<wgt id='1319'> +1.3339973e+00 </wgt>
<wgt id='1320'> +1.3402812e+00 </wgt>
<wgt id='1321'> +1.3258995e+00 </wgt>
<wgt id='1322'> +1.3437869e+00 </wgt>
<wgt id='1323'> +1.3236200e+00 </wgt>
<wgt id='1324'> +1.3293589e+00 </wgt>
<wgt id='1325'> +1.3389459e+00 </wgt>
<wgt id='1326'> +1.3332382e+00 </wgt>
<wgt id='1327'> +1.3338108e+00 </wgt>
<wgt id='1328'> +1.3396872e+00 </wgt>
<wgt id='1329'> +1.3362561e+00 </wgt>
<wgt id='1330'> +1.3390251e+00 </wgt>
<wgt id='1331'> +1.3395599e+00 </wgt>
<wgt id='1332'> +1.3352694e+00 </wgt>
<wgt id='1333'> +1.3485545e+00 </wgt>
<wgt id='1334'> +1.3304749e+00 </wgt>
<wgt id='1335'> +1.3458756e+00 </wgt>
<wgt id='1336'> +1.3352149e+00 </wgt>
<wgt id='1337'> +1.3381339e+00 </wgt>
<wgt id='1338'> +1.3394372e+00 </wgt>
<wgt id='1339'> +1.3389733e+00 </wgt>
<wgt id='1340'> +1.3385013e+00 </wgt>
<wgt id='1341'> +1.3375863e+00 </wgt>
<wgt id='1342'> +1.3372102e+00 </wgt>
<wgt id='1343'> +1.3367670e+00 </wgt>
<wgt id='1344'> +1.3459845e+00 </wgt>
<wgt id='1345'> +1.3497599e+00 </wgt>
<wgt id='1346'> +1.3422345e+00 </wgt>
<wgt id='1347'> +1.3441818e+00 </wgt>
<wgt id='1348'> +1.3472602e+00 </wgt>
<wgt id='1349'> +1.3503952e+00 </wgt>
<wgt id='1350'> +1.3421655e+00 </wgt>
<wgt id='1351'> +1.3457785e+00 </wgt>
<wgt id='1352'> +1.3462576e+00 </wgt>
<wgt id='1353'> +1.3486456e+00 </wgt>
<wgt id='1354'> +1.3439795e+00 </wgt>
<wgt id='1355'> +1.3590343e+00 </wgt>
<wgt id='1356'> +1.3357217e+00 </wgt>
<wgt id='1357'> +1.3527346e+00 </wgt>
<wgt id='1358'> +1.3419165e+00 </wgt>
<wgt id='1359'> +1.3438255e+00 </wgt>
<wgt id='1360'> +1.3516141e+00 </wgt>
<wgt id='1361'> +1.3419210e+00 </wgt>
<wgt id='1362'> +1.3505532e+00 </wgt>
<wgt id='1363'> +1.3541930e+00 </wgt>
<wgt id='1364'> +1.3328795e+00 </wgt>
<wgt id='1365'> +1.3388362e+00 </wgt>
<wgt id='1366'> +1.3486942e+00 </wgt>
<wgt id='1367'> +1.3314057e+00 </wgt>
<wgt id='1368'> +1.3523703e+00 </wgt>
<wgt id='1369'> +1.3445199e+00 </wgt>
<wgt id='1370'> +1.3453822e+00 </wgt>
<wgt id='1371'> +1.3421482e+00 </wgt>
<wgt id='1372'> +1.3307075e+00 </wgt>
<wgt id='1373'> +1.3541693e+00 </wgt>
<wgt id='1374'> +1.3439634e+00 </wgt>
<wgt id='1375'> +1.3397385e+00 </wgt>
<wgt id='1376'> +1.3471184e+00 </wgt>
<wgt id='1377'> +1.3459636e+00 </wgt>
<wgt id='1378'> +1.3463266e+00 </wgt>
<wgt id='1379'> +1.3401210e+00 </wgt>
<wgt id='1380'> +1.3478735e+00 </wgt>
<wgt id='1381'> +1.3359225e+00 </wgt>
<wgt id='1382'> +1.3525949e+00 </wgt>
<wgt id='1383'> +1.3424319e+00 </wgt>
<wgt id='1384'> +1.3552956e+00 </wgt>
<wgt id='1385'> +1.3459845e+00 </wgt>
<wgt id='1386'> +1.3471285e+00 </wgt>
<wgt id='1387'> +1.3467565e+00 </wgt>
<wgt id='1388'> +1.3463331e+00 </wgt>
<wgt id='1389'> +1.3454148e+00 </wgt>
<wgt id='1390'> +1.3449653e+00 </wgt>
<wgt id='1391'> +1.3444293e+00 </wgt>
<wgt id='1392'> +1.4031683e+00 </wgt>
<wgt id='1393'> +1.4029806e+00 </wgt>
<wgt id='1394'> +1.4034837e+00 </wgt>
<wgt id='1395'> +1.4049084e+00 </wgt>
<wgt id='1396'> +1.4019410e+00 </wgt>
<wgt id='1397'> +1.4073817e+00 </wgt>
<wgt id='1398'> +1.3991167e+00 </wgt>
<wgt id='1399'> +1.4000550e+00 </wgt>
<wgt id='1400'> +1.4071484e+00 </wgt>
<wgt id='1401'> +1.4034953e+00 </wgt>
<wgt id='1402'> +1.4028209e+00 </wgt>
<wgt id='1403'> +1.4001654e+00 </wgt>
<wgt id='1404'> +1.4093427e+00 </wgt>
<wgt id='1405'> +1.4084735e+00 </wgt>
<wgt id='1406'> +1.3958705e+00 </wgt>
<wgt id='1407'> +1.4078028e+00 </wgt>
<wgt id='1408'> +1.4000305e+00 </wgt>
<wgt id='1409'> +1.4054131e+00 </wgt>
<wgt id='1410'> +1.4007142e+00 </wgt>
<wgt id='1411'> +1.3969122e+00 </wgt>
<wgt id='1412'> +1.4080503e+00 </wgt>
<wgt id='1413'> +1.4134464e+00 </wgt>
<wgt id='1414'> +1.3921983e+00 </wgt>
<wgt id='1415'> +1.4120851e+00 </wgt>
<wgt id='1416'> +1.3943581e+00 </wgt>
<wgt id='1417'> +1.3947852e+00 </wgt>
<wgt id='1418'> +1.4135902e+00 </wgt>
<wgt id='1419'> +1.3954552e+00 </wgt>
<wgt id='1420'> +1.3986933e+00 </wgt>
<wgt id='1421'> +1.4041120e+00 </wgt>
<wgt id='1422'> +1.4019300e+00 </wgt>
<wgt id='1423'> +1.4086948e+00 </wgt>
<wgt id='1424'> +1.3987503e+00 </wgt>
<wgt id='1425'> +1.4024406e+00 </wgt>
<wgt id='1426'> +1.4036238e+00 </wgt>
<wgt id='1427'> +1.4055577e+00 </wgt>
<wgt id='1428'> +1.3960493e+00 </wgt>
<wgt id='1429'> +1.4030986e+00 </wgt>
<wgt id='1430'> +1.4010283e+00 </wgt>
<wgt id='1431'> +1.3969931e+00 </wgt>
<wgt id='1432'> +1.4086452e+00 </wgt>
<wgt id='1433'> +1.3813961e+00 </wgt>
<wgt id='1434'> +1.4285570e+00 </wgt>
<wgt id='1435'> +1.3992405e+00 </wgt>
<wgt id='1436'> +1.4015960e+00 </wgt>
<wgt id='1437'> +1.3977637e+00 </wgt>
<wgt id='1438'> +1.4176155e+00 </wgt>
<wgt id='1439'> +1.4113948e+00 </wgt>
<wgt id='1440'> +1.3902392e+00 </wgt>
<wgt id='1441'> +1.4058229e+00 </wgt>
<wgt id='1442'> +1.3972014e+00 </wgt>
<wgt id='1443'> +1.3964178e+00 </wgt>
<wgt id='1444'> +1.3962266e+00 </wgt>
<wgt id='1445'> +1.3966687e+00 </wgt>
<wgt id='1446'> +1.3982795e+00 </wgt>
<wgt id='1447'> +1.3951638e+00 </wgt>
<wgt id='1448'> +1.4006920e+00 </wgt>
<wgt id='1449'> +1.3924358e+00 </wgt>
<wgt id='1450'> +1.3929577e+00 </wgt>
<wgt id='1451'> +1.4003839e+00 </wgt>
<wgt id='1452'> +1.3970890e+00 </wgt>
<wgt id='1453'> +1.3958293e+00 </wgt>
<wgt id='1454'> +1.3938963e+00 </wgt>
<wgt id='1455'> +1.4019259e+00 </wgt>
<wgt id='1456'> +1.4031554e+00 </wgt>
<wgt id='1457'> +1.3844733e+00 </wgt>
<wgt id='1458'> +1.4001513e+00 </wgt>
<wgt id='1459'> +1.3943113e+00 </wgt>
<wgt id='1460'> +1.3972835e+00 </wgt>
<wgt id='1461'> +1.3954547e+00 </wgt>
<wgt id='1462'> +1.3901478e+00 </wgt>
<wgt id='1463'> +1.4018916e+00 </wgt>
<wgt id='1464'> +1.4053389e+00 </wgt>
<wgt id='1465'> +1.3846235e+00 </wgt>
<wgt id='1466'> +1.4088077e+00 </wgt>
<wgt id='1467'> +1.3883449e+00 </wgt>
<wgt id='1468'> +1.4034455e+00 </wgt>
<wgt id='1469'> +1.3896774e+00 </wgt>
<wgt id='1470'> +1.3892716e+00 </wgt>
<wgt id='1471'> +1.3931502e+00 </wgt>
<wgt id='1472'> +1.3965116e+00 </wgt>
<wgt id='1473'> +1.3959232e+00 </wgt>
<wgt id='1474'> +1.4005100e+00 </wgt>
<wgt id='1475'> +1.3911899e+00 </wgt>
<wgt id='1476'> +1.3944334e+00 </wgt>
<wgt id='1477'> +1.3979551e+00 </wgt>
<wgt id='1478'> +1.3990199e+00 </wgt>
<wgt id='1479'> +1.3886786e+00 </wgt>
<wgt id='1480'> +1.3980366e+00 </wgt>
<wgt id='1481'> +1.3946750e+00 </wgt>
<wgt id='1482'> +1.3902604e+00 </wgt>
<wgt id='1483'> +1.4026752e+00 </wgt>
<wgt id='1484'> +1.3743743e+00 </wgt>
<wgt id='1485'> +1.4208843e+00 </wgt>
<wgt id='1486'> +1.3975432e+00 </wgt>
<wgt id='1487'> +1.3930253e+00 </wgt>
<wgt id='1488'> +1.3900838e+00 </wgt>
<wgt id='1489'> +1.4124875e+00 </wgt>
<wgt id='1490'> +1.4038750e+00 </wgt>
<wgt id='1491'> +1.3837538e+00 </wgt>
<wgt id='1492'> +1.3998939e+00 </wgt>
<wgt id='1493'> +1.3887801e+00 </wgt>
<wgt id='1494'> +1.3391289e+00 </wgt>
<wgt id='1495'> +1.3294320e+00 </wgt>
<wgt id='1496'> +1.3338690e+00 </wgt>
<wgt id='1497'> +1.3364475e+00 </wgt>
<wgt id='1498'> +1.3428033e+00 </wgt>
<wgt id='1499'> +1.3393993e+00 </wgt>
<wgt id='1500'> +1.3397023e+00 </wgt>
<wgt id='1501'> +1.3403193e+00 </wgt>
<wgt id='1502'> +1.3406941e+00 </wgt>
<wgt id='1503'> +1.3404361e+00 </wgt>
<wgt id='1504'> +1.3400968e+00 </wgt>
<wgt id='1505'> +1.3390863e+00 </wgt>
<wgt id='1506'> +1.3382869e+00 </wgt>
<wgt id='1507'> +1.3375111e+00 </wgt>
<wgt id='1508'> +1.3393993e+00 </wgt>
<wgt id='1509'> +1.3412206e+00 </wgt>
<wgt id='1510'> +1.3402506e+00 </wgt>
<wgt id='1511'> +1.3386828e+00 </wgt>
<wgt id='1512'> +1.3381559e+00 </wgt>
<wgt id='1513'> +1.3593840e+00 </wgt>
<wgt id='1514'> +1.3586251e+00 </wgt>
<wgt id='1515'> +1.3604640e+00 </wgt>
<wgt id='1516'> +1.3609423e+00 </wgt>
<wgt id='1517'> +1.3579249e+00 </wgt>
<wgt id='1518'> +1.3632193e+00 </wgt>
<wgt id='1519'> +1.3578683e+00 </wgt>
<wgt id='1520'> +1.3586991e+00 </wgt>
<wgt id='1521'> +1.3601369e+00 </wgt>
<wgt id='1522'> +1.3614819e+00 </wgt>
<wgt id='1523'> +1.3573650e+00 </wgt>
<wgt id='1524'> +1.3650516e+00 </wgt>
<wgt id='1525'> +1.3569752e+00 </wgt>
<wgt id='1526'> +1.3611069e+00 </wgt>
<wgt id='1527'> +1.3573348e+00 </wgt>
<wgt id='1528'> +1.3679580e+00 </wgt>
<wgt id='1529'> +1.3501602e+00 </wgt>
<wgt id='1530'> +1.3623950e+00 </wgt>
<wgt id='1531'> +1.3577360e+00 </wgt>
<wgt id='1532'> +1.3602238e+00 </wgt>
<wgt id='1533'> +1.3582828e+00 </wgt>
<wgt id='1534'> +1.3448307e+00 </wgt>
<wgt id='1535'> +1.3694838e+00 </wgt>
<wgt id='1536'> +1.3500864e+00 </wgt>
<wgt id='1537'> +1.3682092e+00 </wgt>
<wgt id='1538'> +1.3555160e+00 </wgt>
<wgt id='1539'> +1.3691790e+00 </wgt>
<wgt id='1540'> +1.3548848e+00 </wgt>
<wgt id='1541'> +1.3530167e+00 </wgt>
<wgt id='1542'> +1.3584447e+00 </wgt>
<wgt id='1543'> +1.3628309e+00 </wgt>
<wgt id='1544'> +1.3618448e+00 </wgt>
<wgt id='1545'> +1.3524485e+00 </wgt>
<wgt id='1546'> +1.3608991e+00 </wgt>
<wgt id='1547'> +1.3545129e+00 </wgt>
<wgt id='1548'> +1.3526230e+00 </wgt>
<wgt id='1549'> +1.3606185e+00 </wgt>
<wgt id='1550'> +1.3574327e+00 </wgt>
<wgt id='1551'> +1.3503501e+00 </wgt>
<wgt id='1552'> +1.3519966e+00 </wgt>
<wgt id='1553'> +1.3641264e+00 </wgt>
<wgt id='1554'> +1.3729103e+00 </wgt>
<wgt id='1555'> +1.3352217e+00 </wgt>
<wgt id='1556'> +1.3581359e+00 </wgt>
<wgt id='1557'> +1.3539310e+00 </wgt>
<wgt id='1558'> +1.3465429e+00 </wgt>
<wgt id='1559'> +1.3701156e+00 </wgt>
<wgt id='1560'> +1.3730259e+00 </wgt>
<wgt id='1561'> +1.3534311e+00 </wgt>
<wgt id='1562'> +1.3534449e+00 </wgt>
<wgt id='1563'> +1.3632935e+00 </wgt>
<wgt id='1564'> +1.3593840e+00 </wgt>
<wgt id='1565'> +1.3553763e+00 </wgt>
<wgt id='1566'> +1.3620944e+00 </wgt>
<wgt id='1567'> +1.3579115e+00 </wgt>
<wgt id='1568'> +1.3598869e+00 </wgt>
<wgt id='1569'> +1.3603941e+00 </wgt>
<wgt id='1570'> +1.3598400e+00 </wgt>
<wgt id='1571'> +1.3588515e+00 </wgt>
<wgt id='1572'> +1.3588990e+00 </wgt>
<wgt id='1573'> +1.3564385e+00 </wgt>
<wgt id='1574'> +1.3541308e+00 </wgt>
<wgt id='1575'> +1.3527499e+00 </wgt>
<wgt id='1576'> +1.3579115e+00 </wgt>
<wgt id='1577'> +1.3593075e+00 </wgt>
<wgt id='1578'> +1.3585449e+00 </wgt>
<wgt id='1579'> +1.3574542e+00 </wgt>
<wgt id='1580'> +1.3570487e+00 </wgt>
<wgt id='1581'> +1.3414208e+00 </wgt>
<wgt id='1582'> +1.3425891e+00 </wgt>
<wgt id='1583'> +1.3603434e+00 </wgt>
<wgt id='1584'> +1.3346086e+00 </wgt>
<wgt id='1585'> +1.3455082e+00 </wgt>
<wgt id='1586'> +1.3281352e+00 </wgt>
<wgt id='1587'> +1.3344077e+00 </wgt>
<wgt id='1588'> +1.3460047e+00 </wgt>
<wgt id='1589'> +1.3398169e+00 </wgt>
<wgt id='1590'> +1.3370384e+00 </wgt>
<wgt id='1591'> +1.3381415e+00 </wgt>
<wgt id='1592'> +1.3320539e+00 </wgt>
<wgt id='1593'> +1.3423782e+00 </wgt>
<wgt id='1594'> +1.3403455e+00 </wgt>
<wgt id='1595'> +1.3405775e+00 </wgt>
<wgt id='1596'> +1.3461977e+00 </wgt>
<wgt id='1597'> +1.3387628e+00 </wgt>
<wgt id='1598'> +1.3487331e+00 </wgt>
<wgt id='1599'> +1.3593557e+00 </wgt>
<wgt id='1600'> +1.3448427e+00 </wgt>
<wgt id='1601'> +1.3391457e+00 </wgt>
<wgt id='1602'> +1.3444706e+00 </wgt>
<wgt id='1603'> +1.3410638e+00 </wgt>
<wgt id='1604'> +1.3436909e+00 </wgt>
<wgt id='1605'> +1.3398486e+00 </wgt>
<wgt id='1606'> +1.3416372e+00 </wgt>
<wgt id='1607'> +1.3442214e+00 </wgt>
<wgt id='1608'> +1.3498735e+00 </wgt>
<wgt id='1609'> +1.3421922e+00 </wgt>
<wgt id='1610'> +1.3392196e+00 </wgt>
<wgt id='1611'> +1.3494415e+00 </wgt>
<wgt id='1612'> +1.3371094e+00 </wgt>
<wgt id='1613'> +1.3354290e+00 </wgt>
<wgt id='1614'> +1.3369503e+00 </wgt>
<wgt id='1615'> +1.3381902e+00 </wgt>
<wgt id='1616'> +1.3376210e+00 </wgt>
<wgt id='1617'> +1.3361791e+00 </wgt>
<wgt id='1618'> +1.3382785e+00 </wgt>
<wgt id='1619'> +1.3351245e+00 </wgt>
<wgt id='1620'> +1.3354202e+00 </wgt>
<wgt id='1621'> +1.3357993e+00 </wgt>
<wgt id='1622'> +1.3382159e+00 </wgt>
<wgt id='1623'> +1.3308858e+00 </wgt>
<wgt id='1624'> +1.3321331e+00 </wgt>
<wgt id='1625'> +1.3318471e+00 </wgt>
<wgt id='1626'> +1.3347513e+00 </wgt>
<wgt id='1627'> +1.3380706e+00 </wgt>
<wgt id='1628'> +1.3391538e+00 </wgt>
<wgt id='1629'> +1.3363084e+00 </wgt>
<wgt id='1630'> +1.3354872e+00 </wgt>
<wgt id='1631'> +1.3344713e+00 </wgt>
<wgt id='1632'> +1.3339498e+00 </wgt>
<wgt id='1633'> +1.3367476e+00 </wgt>
<wgt id='1634'> +1.3379399e+00 </wgt>
<wgt id='1635'> +1.3333648e+00 </wgt>
<wgt id='1636'> +1.3423860e+00 </wgt>
<wgt id='1637'> +1.3379278e+00 </wgt>
<wgt id='1638'> +1.3389659e+00 </wgt>
<wgt id='1639'> +1.3432050e+00 </wgt>
<wgt id='1640'> +1.3398157e+00 </wgt>
<wgt id='1641'> +1.3218912e+00 </wgt>
<wgt id='1642'> +1.3291965e+00 </wgt>
<wgt id='1643'> +1.3351857e+00 </wgt>
<wgt id='1644'> +1.3310560e+00 </wgt>
<wgt id='1645'> +1.3360063e+00 </wgt>
<wgt id='1646'> +1.3399986e+00 </wgt>
<wgt id='1647'> +1.3377509e+00 </wgt>
<wgt id='1648'> +1.3375564e+00 </wgt>
<wgt id='1649'> +1.3422355e+00 </wgt>
<wgt id='1650'> +1.3364222e+00 </wgt>
<wgt id='1651'> +1.3359759e+00 </wgt>
<wgt id='1652'> +1.3369348e+00 </wgt>
<wgt id='1653'> +1.3366278e+00 </wgt>
<wgt id='1654'> +1.3354318e+00 </wgt>
<wgt id='1655'> +1.3369490e+00 </wgt>
<wgt id='1656'> +1.3416395e+00 </wgt>
<wgt id='1657'> +1.3332242e+00 </wgt>
<wgt id='1658'> +1.3377835e+00 </wgt>
<wgt id='1659'> +1.3406680e+00 </wgt>
<wgt id='1660'> +1.3322802e+00 </wgt>
<wgt id='1661'> +1.3408163e+00 </wgt>
<wgt id='1662'> +1.3429067e+00 </wgt>
<wgt id='1663'> +1.3446559e+00 </wgt>
<wgt id='1664'> +1.3354209e+00 </wgt>
<wgt id='1665'> +1.3376696e+00 </wgt>
<wgt id='1666'> +1.3397870e+00 </wgt>
<wgt id='1667'> +1.3358330e+00 </wgt>
<wgt id='1668'> +1.3359942e+00 </wgt>
<wgt id='1669'> +1.3354151e+00 </wgt>
<wgt id='1670'> +1.3372359e+00 </wgt>
<wgt id='1671'> +1.3352770e+00 </wgt>
<wgt id='1672'> +1.3349572e+00 </wgt>
<wgt id='1673'> +1.3367377e+00 </wgt>
<wgt id='1674'> +1.3335377e+00 </wgt>
<wgt id='1675'> +1.3379120e+00 </wgt>
<wgt id='1676'> +1.3389070e+00 </wgt>
<wgt id='1677'> +1.3363319e+00 </wgt>
<wgt id='1678'> +1.3391397e+00 </wgt>
<wgt id='1679'> +1.3367079e+00 </wgt>
<wgt id='1680'> +1.3369012e+00 </wgt>
<wgt id='1681'> +1.3374241e+00 </wgt>
<wgt id='1682'> +1.3359542e+00 </wgt>
<wgt id='1683'> +1.3346564e+00 </wgt>
<wgt id='1684'> +1.3375774e+00 </wgt>
<wgt id='1685'> +1.3382618e+00 </wgt>
<wgt id='1686'> +1.3379743e+00 </wgt>
<wgt id='1687'> +1.3377499e+00 </wgt>
<wgt id='1688'> +1.3377874e+00 </wgt>
<wgt id='1689'> +1.3368802e+00 </wgt>
<wgt id='1690'> +1.3372496e+00 </wgt>
<wgt id='1691'> +1.3414180e+00 </wgt>
<wgt id='1692'> +1.3357161e+00 </wgt>
<wgt id='1693'> +1.3362838e+00 </wgt>
<wgt id='1694'> +1.3356051e+00 </wgt>
<wgt id='1695'> +1.3373179e+00 </wgt>
<wgt id='1696'> +1.3355444e+00 </wgt>
<wgt id='1697'> +1.3378218e+00 </wgt>
<wgt id='1698'> +1.3374636e+00 </wgt>
<wgt id='1699'> +1.3365445e+00 </wgt>
<wgt id='1700'> +1.3381220e+00 </wgt>
<wgt id='1701'> +1.3365524e+00 </wgt>
<wgt id='1702'> +1.3360419e+00 </wgt>
<wgt id='1703'> +1.3389413e+00 </wgt>
<wgt id='1704'> +1.3391342e+00 </wgt>
<wgt id='1705'> +1.3365593e+00 </wgt>
<wgt id='1706'> +1.3375346e+00 </wgt>
<wgt id='1707'> +1.3367621e+00 </wgt>
<wgt id='1708'> +1.3369710e+00 </wgt>
<wgt id='1709'> +1.3382025e+00 </wgt>
<wgt id='1710'> +1.3361099e+00 </wgt>
<wgt id='1711'> +1.3367141e+00 </wgt>
<wgt id='1712'> +1.3386655e+00 </wgt>
<wgt id='1713'> +1.3180996e+00 </wgt>
<wgt id='1714'> +1.3538313e+00 </wgt>
<wgt id='1715'> +1.3284592e+00 </wgt>
<wgt id='1716'> +1.3287007e+00 </wgt>
<wgt id='1717'> +1.3710644e+00 </wgt>
<wgt id='1718'> +1.3140361e+00 </wgt>
<wgt id='1719'> +1.3032872e+00 </wgt>
<wgt id='1720'> +1.3703699e+00 </wgt>
<wgt id='1721'> +1.2993606e+00 </wgt>
<wgt id='1722'> +1.3497139e+00 </wgt>
<wgt id='1723'> +1.3556847e+00 </wgt>
<wgt id='1724'> +1.3541267e+00 </wgt>
<wgt id='1725'> +1.3289779e+00 </wgt>
<wgt id='1726'> +1.3256089e+00 </wgt>
<wgt id='1727'> +1.3428008e+00 </wgt>
<wgt id='1728'> +1.3422095e+00 </wgt>
<wgt id='1729'> +1.3315027e+00 </wgt>
<wgt id='1730'> +1.2911745e+00 </wgt>
<wgt id='1731'> +1.2278152e+00 </wgt>
<wgt id='1732'> +1.3003139e+00 </wgt>
<wgt id='1733'> +1.3392995e+00 </wgt>
<wgt id='1734'> +1.3928432e+00 </wgt>
<wgt id='1735'> +1.2698837e+00 </wgt>
<wgt id='1736'> +1.3761463e+00 </wgt>
<wgt id='1737'> +1.3095902e+00 </wgt>
<wgt id='1738'> +1.3439835e+00 </wgt>
<wgt id='1739'> +1.3566129e+00 </wgt>
<wgt id='1740'> +1.3382437e+00 </wgt>
<wgt id='1741'> +1.2990774e+00 </wgt>
<wgt id='1742'> +1.3564370e+00 </wgt>
<wgt id='1743'> +1.2722680e+00 </wgt>
<wgt id='1744'> +1.3492010e+00 </wgt>
<wgt id='1745'> +1.2877166e+00 </wgt>
<wgt id='1746'> +1.3019043e+00 </wgt>
<wgt id='1747'> +1.3592730e+00 </wgt>
<wgt id='1748'> +1.3118011e+00 </wgt>
<wgt id='1749'> +1.3599260e+00 </wgt>
<wgt id='1750'> +1.2989201e+00 </wgt>
<wgt id='1751'> +1.3329596e+00 </wgt>
<wgt id='1752'> +1.3162974e+00 </wgt>
<wgt id='1753'> +1.3734880e+00 </wgt>
<wgt id='1754'> +1.3673366e+00 </wgt>
<wgt id='1755'> +1.3391201e+00 </wgt>
<wgt id='1756'> +1.3579096e+00 </wgt>
<wgt id='1757'> +1.3628080e+00 </wgt>
<wgt id='1758'> +1.3433782e+00 </wgt>
<wgt id='1759'> +1.3210126e+00 </wgt>
<wgt id='1760'> +1.3423291e+00 </wgt>
<wgt id='1761'> +1.3226102e+00 </wgt>
<wgt id='1762'> +1.3428008e+00 </wgt>
<wgt id='1763'> +1.3206776e+00 </wgt>
<wgt id='1764'> +1.3724975e+00 </wgt>
<wgt id='1765'> +1.3303601e+00 </wgt>
<wgt id='1766'> +1.3482729e+00 </wgt>
<wgt id='1767'> +1.3437301e+00 </wgt>
<wgt id='1768'> +1.2381510e+00 </wgt>
<wgt id='1769'> +1.3360381e+00 </wgt>
<wgt id='1770'> +1.3638010e+00 </wgt>
<wgt id='1771'> +1.3447323e+00 </wgt>
<wgt id='1772'> +1.3611965e+00 </wgt>
<wgt id='1773'> +1.3368647e+00 </wgt>
<wgt id='1774'> +1.2637027e+00 </wgt>
<wgt id='1775'> +1.3080040e+00 </wgt>
<wgt id='1776'> +1.3756794e+00 </wgt>
<wgt id='1777'> +1.3473091e+00 </wgt>
<wgt id='1778'> +1.3034361e+00 </wgt>
<wgt id='1779'> +1.3185807e+00 </wgt>
<wgt id='1780'> +1.3106006e+00 </wgt>
<wgt id='1781'> +1.3415938e+00 </wgt>
<wgt id='1782'> +1.3616333e+00 </wgt>
<wgt id='1783'> +1.3252357e+00 </wgt>
<wgt id='1784'> +1.3069769e+00 </wgt>
<wgt id='1785'> +1.3303253e+00 </wgt>
<wgt id='1786'> +1.3504327e+00 </wgt>
<wgt id='1787'> +1.3105275e+00 </wgt>
<wgt id='1788'> +1.3487920e+00 </wgt>
<wgt id='1789'> +1.3218370e+00 </wgt>
<wgt id='1790'> +1.3062334e+00 </wgt>
<wgt id='1791'> +1.2432752e+00 </wgt>
<wgt id='1792'> +1.3014795e+00 </wgt>
<wgt id='1793'> +1.3370609e+00 </wgt>
<wgt id='1794'> +1.2943206e+00 </wgt>
<wgt id='1795'> +1.2770214e+00 </wgt>
<wgt id='1796'> +1.3223166e+00 </wgt>
<wgt id='1797'> +1.3307842e+00 </wgt>
<wgt id='1798'> +1.3075801e+00 </wgt>
<wgt id='1799'> +1.3459073e+00 </wgt>
<wgt id='1800'> +1.3592890e+00 </wgt>
<wgt id='1801'> +1.2923339e+00 </wgt>
<wgt id='1802'> +1.3453201e+00 </wgt>
<wgt id='1803'> +1.3313457e+00 </wgt>
<wgt id='1804'> +1.3544416e+00 </wgt>
<wgt id='1805'> +1.3605047e+00 </wgt>
<wgt id='1806'> +1.3077972e+00 </wgt>
<wgt id='1807'> +1.3236140e+00 </wgt>
<wgt id='1808'> +1.2923582e+00 </wgt>
<wgt id='1809'> +1.3371426e+00 </wgt>
<wgt id='1810'> +1.3049051e+00 </wgt>
<wgt id='1811'> +1.3448893e+00 </wgt>
<wgt id='1812'> +1.3150499e+00 </wgt>
<wgt id='1813'> +1.3566459e+00 </wgt>
<wgt id='1814'> +1.2939299e+00 </wgt>
<wgt id='1815'> +1.3514425e+00 </wgt>
<wgt id='1816'> +1.3690535e+00 </wgt>
<wgt id='1817'> +1.3965656e+00 </wgt>
<wgt id='1818'> +1.3923844e+00 </wgt>
<wgt id='1819'> +1.3828268e+00 </wgt>
<wgt id='1820'> +1.3909598e+00 </wgt>
<wgt id='1821'> +1.3876009e+00 </wgt>
<wgt id='1822'> +1.3683260e+00 </wgt>
<wgt id='1823'> +1.3749573e+00 </wgt>
<wgt id='1824'> +1.4224535e+00 </wgt>
<wgt id='1825'> +1.3691215e+00 </wgt>
<wgt id='1826'> +1.4076449e+00 </wgt>
<wgt id='1827'> +1.3441132e+00 </wgt>
<wgt id='1828'> +1.3620516e+00 </wgt>
<wgt id='1829'> +1.3014796e+00 </wgt>
<wgt id='1830'> +1.3471661e+00 </wgt>
<wgt id='1831'> +1.3885894e+00 </wgt>
<wgt id='1832'> +1.4035090e+00 </wgt>
<wgt id='1833'> +1.3356672e+00 </wgt>
<wgt id='1834'> +1.2842950e+00 </wgt>
<wgt id='1835'> +1.3791289e+00 </wgt>
<wgt id='1836'> +1.4591969e+00 </wgt>
<wgt id='1837'> +1.3941104e+00 </wgt>
<wgt id='1838'> +1.4052601e+00 </wgt>
<wgt id='1839'> +1.4135512e+00 </wgt>
<wgt id='1840'> +1.3414248e+00 </wgt>
<wgt id='1841'> +1.3369281e+00 </wgt>
<wgt id='1842'> +1.3422926e+00 </wgt>
<wgt id='1843'> +1.3329041e+00 </wgt>
<wgt id='1844'> +1.3298158e+00 </wgt>
<wgt id='1845'> +1.3896833e+00 </wgt>
<wgt id='1846'> +1.3963216e+00 </wgt>
<wgt id='1847'> +1.3754233e+00 </wgt>
<wgt id='1848'> +1.3737535e+00 </wgt>
<wgt id='1849'> +1.3880290e+00 </wgt>
<wgt id='1850'> +1.3663274e+00 </wgt>
<wgt id='1851'> +1.3833198e+00 </wgt>
<wgt id='1852'> +1.3593083e+00 </wgt>
<wgt id='1853'> +1.3464577e+00 </wgt>
<wgt id='1854'> +1.3719123e+00 </wgt>
<wgt id='1855'> +1.3807195e+00 </wgt>
<wgt id='1856'> +1.3682816e+00 </wgt>
<wgt id='1857'> +1.3934628e+00 </wgt>
<wgt id='1858'> +1.3748360e+00 </wgt>
<wgt id='1859'> +1.3622804e+00 </wgt>
<wgt id='1860'> +1.3795172e+00 </wgt>
<wgt id='1861'> +1.3787637e+00 </wgt>
<wgt id='1862'> +1.3495066e+00 </wgt>
<wgt id='1863'> +1.3947398e+00 </wgt>
<wgt id='1864'> +1.3653052e+00 </wgt>
<wgt id='1865'> +1.3808744e+00 </wgt>
<wgt id='1866'> +1.3627304e+00 </wgt>
<wgt id='1867'> +1.3728998e+00 </wgt>
<wgt id='1868'> +1.3601924e+00 </wgt>
<wgt id='1869'> +1.3722260e+00 </wgt>
<wgt id='1870'> +1.3603348e+00 </wgt>
<wgt id='1871'> +1.3340465e+00 </wgt>
<wgt id='1872'> +1.3121886e+00 </wgt>
<wgt id='1873'> +1.3218056e+00 </wgt>
<wgt id='1874'> +1.3417890e+00 </wgt>
<wgt id='1875'> +1.3885448e+00 </wgt>
<wgt id='1876'> +1.3977328e+00 </wgt>
<wgt id='1877'> +1.2932873e+00 </wgt>
<wgt id='1878'> +1.3745521e+00 </wgt>
<wgt id='1879'> +1.3055667e+00 </wgt>
<wgt id='1880'> +1.2695257e+00 </wgt>
<wgt id='1881'> +1.3580209e+00 </wgt>
<wgt id='1882'> +1.3249012e+00 </wgt>
<wgt id='1883'> +1.5513372e+00 </wgt>
<wgt id='1884'> +1.3251401e+00 </wgt>
<wgt id='1885'> +1.3706875e+00 </wgt>
<wgt id='1886'> +1.3423295e+00 </wgt>
<wgt id='1887'> +1.3612143e+00 </wgt>
<wgt id='1888'> +1.3885067e+00 </wgt>
<wgt id='1889'> +1.4075809e+00 </wgt>
<wgt id='1890'> +1.3873338e+00 </wgt>
<wgt id='1891'> +1.3651050e+00 </wgt>
<wgt id='1892'> +1.4213765e+00 </wgt>
<wgt id='1893'> +1.3442012e+00 </wgt>
<wgt id='1894'> +1.4029459e+00 </wgt>
<wgt id='1895'> +1.3689387e+00 </wgt>
<wgt id='1896'> +1.3681370e+00 </wgt>
<wgt id='1897'> +1.3834206e+00 </wgt>
<wgt id='1898'> +1.3873001e+00 </wgt>
<wgt id='1899'> +1.4202218e+00 </wgt>
<wgt id='1900'> +1.3683452e+00 </wgt>
<wgt id='1901'> +1.3516367e+00 </wgt>
<wgt id='1902'> +1.3693506e+00 </wgt>
<wgt id='1903'> +1.3732449e+00 </wgt>
<wgt id='1904'> +1.3499505e+00 </wgt>
<wgt id='1905'> +1.3464264e+00 </wgt>
<wgt id='1906'> +1.3637306e+00 </wgt>
<wgt id='1907'> +1.4084421e+00 </wgt>
<wgt id='1908'> +1.4020810e+00 </wgt>
<wgt id='1909'> +1.3582240e+00 </wgt>
<wgt id='1910'> +1.4196701e+00 </wgt>
<wgt id='1911'> +1.3178085e+00 </wgt>
<wgt id='1912'> +1.3869134e+00 </wgt>
<wgt id='1913'> +1.3288900e+00 </wgt>
<wgt id='1914'> +1.3461224e+00 </wgt>
<wgt id='1915'> +1.3531426e+00 </wgt>
<wgt id='1916'> +1.3358098e+00 </wgt>
<wgt id='1917'> +1.3343099e+00 </wgt>
<wgt id='1918'> +1.3818699e+00 </wgt>
<wgt id='1919'> +1.3690535e+00 </wgt>
<wgt id='1920'> +1.3965656e+00 </wgt>
<wgt id='1921'> +1.3923844e+00 </wgt>
<wgt id='1922'> +1.3828268e+00 </wgt>
<wgt id='1923'> +1.3909598e+00 </wgt>
<wgt id='1924'> +1.3876009e+00 </wgt>
<wgt id='1925'> +1.3683260e+00 </wgt>
<wgt id='1926'> +1.3749573e+00 </wgt>
<wgt id='1927'> +1.4224535e+00 </wgt>
<wgt id='1928'> +1.3691215e+00 </wgt>
<wgt id='1929'> +1.4076449e+00 </wgt>
<wgt id='1930'> +1.3441132e+00 </wgt>
<wgt id='1931'> +1.3620516e+00 </wgt>
<wgt id='1932'> +1.3014796e+00 </wgt>
<wgt id='1933'> +1.3471661e+00 </wgt>
<wgt id='1934'> +1.3885894e+00 </wgt>
<wgt id='1935'> +1.4035090e+00 </wgt>
<wgt id='1936'> +1.3356672e+00 </wgt>
<wgt id='1937'> +1.2842950e+00 </wgt>
<wgt id='1938'> +1.3791289e+00 </wgt>
<wgt id='1939'> +1.4591969e+00 </wgt>
<wgt id='1940'> +1.3941104e+00 </wgt>
<wgt id='1941'> +1.4052601e+00 </wgt>
<wgt id='1942'> +1.4135512e+00 </wgt>
<wgt id='1943'> +1.3414248e+00 </wgt>
<wgt id='1944'> +1.3369281e+00 </wgt>
<wgt id='1945'> +1.3422926e+00 </wgt>
<wgt id='1946'> +1.3329041e+00 </wgt>
<wgt id='1947'> +1.3298158e+00 </wgt>
<wgt id='1948'> +1.3896833e+00 </wgt>
<wgt id='1949'> +1.3963216e+00 </wgt>
<wgt id='1950'> +1.3754233e+00 </wgt>
<wgt id='1951'> +1.3737535e+00 </wgt>
<wgt id='1952'> +1.3880290e+00 </wgt>
<wgt id='1953'> +1.3663274e+00 </wgt>
<wgt id='1954'> +1.3833198e+00 </wgt>
<wgt id='1955'> +1.3593083e+00 </wgt>
<wgt id='1956'> +1.3464577e+00 </wgt>
<wgt id='1957'> +1.3719123e+00 </wgt>
<wgt id='1958'> +1.3807195e+00 </wgt>
<wgt id='1959'> +1.3682816e+00 </wgt>
<wgt id='1960'> +1.3934628e+00 </wgt>
<wgt id='1961'> +1.3748360e+00 </wgt>
<wgt id='1962'> +1.3622804e+00 </wgt>
<wgt id='1963'> +1.3795172e+00 </wgt>
<wgt id='1964'> +1.3787637e+00 </wgt>
<wgt id='1965'> +1.3495066e+00 </wgt>
<wgt id='1966'> +1.3947398e+00 </wgt>
<wgt id='1967'> +1.3653052e+00 </wgt>
<wgt id='1968'> +1.3808744e+00 </wgt>
<wgt id='1969'> +1.3627304e+00 </wgt>
<wgt id='1970'> +1.3728998e+00 </wgt>
<wgt id='1971'> +1.3601924e+00 </wgt>
<wgt id='1972'> +1.3722260e+00 </wgt>
<wgt id='1973'> +1.3603348e+00 </wgt>
<wgt id='1974'> +1.3340465e+00 </wgt>
<wgt id='1975'> +1.3121886e+00 </wgt>
<wgt id='1976'> +1.3218056e+00 </wgt>
<wgt id='1977'> +1.3417890e+00 </wgt>
<wgt id='1978'> +1.3885448e+00 </wgt>
<wgt id='1979'> +1.3977328e+00 </wgt>
<wgt id='1980'> +1.2932873e+00 </wgt>
<wgt id='1981'> +1.3745521e+00 </wgt>
<wgt id='1982'> +1.3055667e+00 </wgt>
<wgt id='1983'> +1.2695257e+00 </wgt>
<wgt id='1984'> +1.3580209e+00 </wgt>
<wgt id='1985'> +1.3249012e+00 </wgt>
<wgt id='1986'> +1.5513372e+00 </wgt>
<wgt id='1987'> +1.3251401e+00 </wgt>
<wgt id='1988'> +1.3706875e+00 </wgt>
<wgt id='1989'> +1.3423295e+00 </wgt>
<wgt id='1990'> +1.3612143e+00 </wgt>
<wgt id='1991'> +1.3885067e+00 </wgt>
<wgt id='1992'> +1.4075809e+00 </wgt>
<wgt id='1993'> +1.3873338e+00 </wgt>
<wgt id='1994'> +1.3651050e+00 </wgt>
<wgt id='1995'> +1.4213765e+00 </wgt>
<wgt id='1996'> +1.3442012e+00 </wgt>
<wgt id='1997'> +1.4029459e+00 </wgt>
<wgt id='1998'> +1.3689387e+00 </wgt>
<wgt id='1999'> +1.3681370e+00 </wgt>
<wgt id='2000'> +1.3834206e+00 </wgt>
<wgt id='2001'> +1.3873001e+00 </wgt>
<wgt id='2002'> +1.4202218e+00 </wgt>
<wgt id='2003'> +1.3683452e+00 </wgt>
<wgt id='2004'> +1.3516367e+00 </wgt>
<wgt id='2005'> +1.3693506e+00 </wgt>
<wgt id='2006'> +1.3732449e+00 </wgt>
<wgt id='2007'> +1.3499505e+00 </wgt>
<wgt id='2008'> +1.3464264e+00 </wgt>
<wgt id='2009'> +1.3637306e+00 </wgt>
<wgt id='2010'> +1.4084421e+00 </wgt>
<wgt id='2011'> +1.4020810e+00 </wgt>
<wgt id='2012'> +1.3582240e+00 </wgt>
<wgt id='2013'> +1.4196701e+00 </wgt>
<wgt id='2014'> +1.3178085e+00 </wgt>
<wgt id='2015'> +1.3869134e+00 </wgt>
<wgt id='2016'> +1.3288900e+00 </wgt>
<wgt id='2017'> +1.3461224e+00 </wgt>
<wgt id='2018'> +1.3531426e+00 </wgt>
<wgt id='2019'> +1.3358098e+00 </wgt>
<wgt id='2020'> +1.3633598e+00 </wgt>
<wgt id='2021'> +1.3699396e+00 </wgt>
<wgt id='2022'> +1.3605831e+00 </wgt>
</rwgt>
</event>
<event>
 13 1 0.0079112 6.84398800e+01 7.81860800e-03 1.22829700e-01
       21 -1    0    0  502  503 +0.0000000000e+00 +0.0000000000e+00 +1.9994464415e+02 1.9994464415e+02 0.0000000000e+00 0.0000e+00 1.0000e+00
        2 -1    0    0  501    0 +0.0000000000e+00 +0.0000000000e+00 -2.9103985169e+03 2.9103985169e+03 2.5500000000e-03 0.0000e+00 -1.0000e+00
  8000001  2    1    2  502    0 +3.7325561596e+01 -2.7590354571e+01 -1.0620463224e+03 1.2206948639e+03 5.9999927868e+02 0.0000e+00 0.0000e+00
        1  1    1    2  501    0 -3.7091635746e+01 +2.1363618017e+01 -1.7686430333e+03 1.7691609234e+03 5.0400000000e-03 0.0000e+00 -1.0000e+00
       -5  1    1    2    0  503 -2.3392584985e-01 +6.2267365544e+00 +1.2023548300e+02 1.2048737379e+02 4.6700000000e+00 0.0000e+00 1.0000e+00
        6  2    3    3  502    0 +2.1167471490e+02 +1.7062074637e+02 -5.3859902034e+02 6.2728425076e+02 1.7169450344e+02 0.0000e+00 0.0000e+00
        5  1    6    6  502    0 +1.0860452203e+02 +2.4487187934e+01 -1.0996882434e+02 1.5655515260e+02 4.6700000000e+00 0.0000e+00 -1.0000e+00
       24  2    6    6    0    0 +1.0307019288e+02 +1.4613355844e+02 -4.2863019601e+02 4.7072909816e+02 7.6704350374e+01 0.0000e+00 0.0000e+00
       16  1    8    8    0    0 +1.0724489738e+02 +1.0986030020e+02 -3.8037974005e+02 4.1019446634e+02 0.0000000000e+00 0.0000e+00 -1.0000e+00
      -15  1    8    8    0    0 -4.1747045052e+00 +3.6273258242e+01 -4.8250455953e+01 6.0534631821e+01 1.7770000000e+00 0.0000e+00 1.0000e+00
       23  2    3    3    0    0 -1.7434915331e+02 -1.9821110094e+02 -5.2344730210e+02 5.9341061310e+02 9.1944602137e+01 0.0000e+00 0.0000e+00
        3  1   11   11  504    0 -1.3876106533e+02 -1.7430444783e+02 -4.9245911177e+02 5.4051148068e+02 1.0100000000e-01 0.0000e+00 1.0000e+00
       -3  1   11   11    0  504 -3.5588087979e+01 -2.3906653120e+01 -3.0988190336e+01 5.2899132419e+01 1.0100000000e-01 0.0000e+00 -1.0000e+00
<mgrwt>
<rscale>  1 0.54131753e+02</rscale>
<asrwt>0</asrwt>
<pdfrwt beam="1">  1       21 0.30760714e-01 0.68439877e+02</pdfrwt>
<pdfrwt beam="2">  1        2 0.44775362e+00 0.42814903e+02</pdfrwt>
<totfact> 0.45127344e+02</totfact>
</mgrwt>
<rwgt>
<wgt id='1001'> +1.3581722e+00 </wgt>
<wgt id='1002'> +6.2810686e-01 </wgt>
<wgt id='1003'> +6.2767108e-01 </wgt>
<wgt id='1004'> +7.5888932e-01 </wgt>
<wgt id='1005'> +4.9953769e-01 </wgt>
<wgt id='1006'> +1.2127948e+00 </wgt>
<wgt id='1007'> +5.7992017e-01 </wgt>
<wgt id='1008'> +5.7953254e-01 </wgt>
<wgt id='1009'> +6.9560691e-01 </wgt>
<wgt id='1010'> +4.6484170e-01 </wgt>
<wgt id='1011'> +1.5448482e+00 </wgt>
<wgt id='1012'> +6.8526924e-01 </wgt>
<wgt id='1013'> +6.8477307e-01 </wgt>
<wgt id='1014'> +8.3521520e-01 </wgt>
<wgt id='1015'> +5.3996682e-01 </wgt>
<wgt id='1016'> +1.2003836e+00 </wgt>
<wgt id='1017'> +5.6999830e-01 </wgt>
<wgt id='1018'> +5.6961354e-01 </wgt>
<wgt id='1019'> +6.8477307e-01 </wgt>
<wgt id='1020'> +4.5618405e-01 </wgt>
<wgt id='1021'> +1.0718957e+00 </wgt>
<wgt id='1022'> +5.2626955e-01 </wgt>
<wgt id='1023'> +5.2592766e-01 </wgt>
<wgt id='1024'> +6.2767108e-01 </wgt>
<wgt id='1025'> +4.2449924e-01 </wgt>
<wgt id='1026'> +1.3653721e+00 </wgt>
<wgt id='1027'> +6.2187238e-01 </wgt>
<wgt id='1028'> +6.2143378e-01 </wgt>
<wgt id='1029'> +7.5364465e-01 </wgt>
<wgt id='1030'> +4.9310444e-01 </wgt>
<wgt id='1031'> +1.5497503e+00 </wgt>
<wgt id='1032'> +6.9610659e-01 </wgt>
<wgt id='1033'> +6.9560691e-01 </wgt>
<wgt id='1034'> +8.4572385e-01 </wgt>
<wgt id='1035'> +5.4967699e-01 </wgt>
<wgt id='1036'> +1.3838665e+00 </wgt>
<wgt id='1037'> +6.4270314e-01 </wgt>
<wgt id='1038'> +6.4225811e-01 </wgt>
<wgt id='1039'> +7.7520046e-01 </wgt>
<wgt id='1040'> +5.1149852e-01 </wgt>
<wgt id='1041'> +1.7627580e+00 </wgt>
<wgt id='1042'> +7.5945745e-01 </wgt>
<wgt id='1043'> +7.5888932e-01 </wgt>
<wgt id='1044'> +9.3078318e-01 </wgt>
<wgt id='1045'> +5.9416405e-01 </wgt>
<wgt id='1046'> +1.3581722e+00 </wgt>
<wgt id='1047'> +1.3581722e+00 </wgt>
<wgt id='1048'> +1.3581722e+00 </wgt>
<wgt id='1049'> +1.3631885e+00 </wgt>
<wgt id='1050'> +1.3558566e+00 </wgt>
<wgt id='1051'> +1.3639891e+00 </wgt>
<wgt id='1052'> +1.3601026e+00 </wgt>
<wgt id='1053'> +1.3638053e+00 </wgt>
<wgt id='1054'> +1.3574705e+00 </wgt>
<wgt id='1055'> +1.3599623e+00 </wgt>
<wgt id='1056'> +1.3631212e+00 </wgt>
<wgt id='1057'> +1.3594374e+00 </wgt>
<wgt id='1058'> +1.3597929e+00 </wgt>
<wgt id='1059'> +1.3470645e+00 </wgt>
<wgt id='1060'> +1.3573011e+00 </wgt>
<wgt id='1061'> +1.3618572e+00 </wgt>
<wgt id='1062'> +1.3572808e+00 </wgt>
<wgt id='1063'> +1.3600621e+00 </wgt>
<wgt id='1064'> +1.3569272e+00 </wgt>
<wgt id='1065'> +1.3555291e+00 </wgt>
<wgt id='1066'> +1.3542340e+00 </wgt>
<wgt id='1067'> +1.3623165e+00 </wgt>
<wgt id='1068'> +1.3493334e+00 </wgt>
<wgt id='1069'> +1.3618062e+00 </wgt>
<wgt id='1070'> +1.3580271e+00 </wgt>
<wgt id='1071'> +1.3559981e+00 </wgt>
<wgt id='1072'> +1.3643372e+00 </wgt>
<wgt id='1073'> +1.3625848e+00 </wgt>
<wgt id='1074'> +1.3595928e+00 </wgt>
<wgt id='1075'> +1.3518573e+00 </wgt>
<wgt id='1076'> +1.3624050e+00 </wgt>
<wgt id='1077'> +1.3676951e+00 </wgt>
<wgt id='1078'> +1.3606681e+00 </wgt>
<wgt id='1079'> +1.3642770e+00 </wgt>
<wgt id='1080'> +1.3603234e+00 </wgt>
<wgt id='1081'> +1.3549326e+00 </wgt>
<wgt id='1082'> +1.3630345e+00 </wgt>
<wgt id='1083'> +1.3573648e+00 </wgt>
<wgt id='1084'> +1.3515366e+00 </wgt>
<wgt id='1085'> +1.3627260e+00 </wgt>
<wgt id='1086'> +1.3506815e+00 </wgt>
<wgt id='1087'> +1.3513069e+00 </wgt>
<wgt id='1088'> +1.3602027e+00 </wgt>
<wgt id='1089'> +1.3550981e+00 </wgt>
<wgt id='1090'> +1.3531563e+00 </wgt>
<wgt id='1091'> +1.3564972e+00 </wgt>
<wgt id='1092'> +1.3599441e+00 </wgt>
<wgt id='1093'> +1.3593163e+00 </wgt>
<wgt id='1094'> +1.3605720e+00 </wgt>
<wgt id='1095'> +1.3550808e+00 </wgt>
<wgt id='1096'> +1.3604896e+00 </wgt>
<wgt id='1097'> +1.3611881e+00 </wgt>
<wgt id='1098'> +1.3539905e+00 </wgt>
<wgt id='1099'> +1.3608321e+00 </wgt>
<wgt id='1100'> +1.3592526e+00 </wgt>
<wgt id='1101'> +1.3544959e+00 </wgt>
<wgt id='1102'> +1.3645248e+00 </wgt>
<wgt id='1103'> +1.3616358e+00 </wgt>
<wgt id='1104'> +1.3578110e+00 </wgt>
<wgt id='1105'> +1.3529119e+00 </wgt>
<wgt id='1106'> +1.3618323e+00 </wgt>
<wgt id='1107'> +1.3547723e+00 </wgt>
<wgt id='1108'> +1.3561062e+00 </wgt>
<wgt id='1109'> +1.3628967e+00 </wgt>
<wgt id='1110'> +1.3623838e+00 </wgt>
<wgt id='1111'> +1.3616402e+00 </wgt>
<wgt id='1112'> +1.3661816e+00 </wgt>
<wgt id='1113'> +1.3565555e+00 </wgt>
<wgt id='1114'> +1.3604422e+00 </wgt>
<wgt id='1115'> +1.3622891e+00 </wgt>
<wgt id='1116'> +1.3627413e+00 </wgt>
<wgt id='1117'> +1.3568769e+00 </wgt>
<wgt id='1118'> +1.3572258e+00 </wgt>
<wgt id='1119'> +1.3600416e+00 </wgt>
<wgt id='1120'> +1.3559809e+00 </wgt>
<wgt id='1121'> +1.3565511e+00 </wgt>
<wgt id='1122'> +1.3593702e+00 </wgt>
<wgt id='1123'> +1.3577137e+00 </wgt>
<wgt id='1124'> +1.3585277e+00 </wgt>
<wgt id='1125'> +1.3564468e+00 </wgt>
<wgt id='1126'> +1.3579866e+00 </wgt>
<wgt id='1127'> +1.3574564e+00 </wgt>
<wgt id='1128'> +1.3581591e+00 </wgt>
<wgt id='1129'> +1.3588566e+00 </wgt>
<wgt id='1130'> +1.3575518e+00 </wgt>
<wgt id='1131'> +1.3596466e+00 </wgt>
<wgt id='1132'> +1.3591276e+00 </wgt>
<wgt id='1133'> +1.3580851e+00 </wgt>
<wgt id='1134'> +1.3575071e+00 </wgt>
<wgt id='1135'> +1.3571546e+00 </wgt>
<wgt id='1136'> +1.3572207e+00 </wgt>
<wgt id='1137'> +1.3559194e+00 </wgt>
<wgt id='1138'> +1.3596798e+00 </wgt>
<wgt id='1139'> +1.3584642e+00 </wgt>
<wgt id='1140'> +1.3586138e+00 </wgt>
<wgt id='1141'> +1.3566132e+00 </wgt>
<wgt id='1142'> +1.3598269e+00 </wgt>
<wgt id='1143'> +1.3588843e+00 </wgt>
<wgt id='1144'> +1.3572169e+00 </wgt>
<wgt id='1145'> +1.3573824e+00 </wgt>
<wgt id='1146'> +1.3585134e+00 </wgt>
<wgt id='1147'> +1.3579411e+00 </wgt>
<wgt id='1148'> +1.3581722e+00 </wgt>
<wgt id='1149'> +1.2926306e+00 </wgt>
<wgt id='1150'> +1.2862003e+00 </wgt>
<wgt id='1151'> +1.2952218e+00 </wgt>
<wgt id='1152'> +1.3400044e+00 </wgt>
<wgt id='1153'> +1.2794934e+00 </wgt>
<wgt id='1154'> +1.3216674e+00 </wgt>
<wgt id='1155'> +1.2860542e+00 </wgt>
<wgt id='1156'> +1.2438782e+00 </wgt>
<wgt id='1157'> +1.3113830e+00 </wgt>
<wgt id='1158'> +1.2663251e+00 </wgt>
<wgt id='1159'> +1.2909219e+00 </wgt>
<wgt id='1160'> +1.3172857e+00 </wgt>
<wgt id='1161'> +1.2812902e+00 </wgt>
<wgt id='1162'> +1.2732510e+00 </wgt>
<wgt id='1163'> +1.2932435e+00 </wgt>
<wgt id='1164'> +1.2991768e+00 </wgt>
<wgt id='1165'> +1.3212242e+00 </wgt>
<wgt id='1166'> +1.3206316e+00 </wgt>
<wgt id='1167'> +1.2971860e+00 </wgt>
<wgt id='1168'> +1.2804006e+00 </wgt>
<wgt id='1169'> +1.2811019e+00 </wgt>
<wgt id='1170'> +1.3393191e+00 </wgt>
<wgt id='1171'> +1.3371150e+00 </wgt>
<wgt id='1172'> +1.2970273e+00 </wgt>
<wgt id='1173'> +1.2628547e+00 </wgt>
<wgt id='1174'> +1.3276797e+00 </wgt>
<wgt id='1175'> +1.3379894e+00 </wgt>
<wgt id='1176'> +1.2523034e+00 </wgt>
<wgt id='1177'> +1.3114530e+00 </wgt>
<wgt id='1178'> +1.2751305e+00 </wgt>
<wgt id='1179'> +1.2976948e+00 </wgt>
<wgt id='1180'> +1.3277287e+00 </wgt>
<wgt id='1181'> +1.2786356e+00 </wgt>
<wgt id='1182'> +1.3126841e+00 </wgt>
<wgt id='1183'> +1.3082746e+00 </wgt>
<wgt id='1184'> +1.2704426e+00 </wgt>
<wgt id='1185'> +1.3205251e+00 </wgt>
<wgt id='1186'> +1.2687630e+00 </wgt>
<wgt id='1187'> +1.2494852e+00 </wgt>
<wgt id='1188'> +1.2026861e+00 </wgt>
<wgt id='1189'> +1.2463231e+00 </wgt>
<wgt id='1190'> +1.3088412e+00 </wgt>
<wgt id='1191'> +1.2780345e+00 </wgt>
<wgt id='1192'> +1.2811343e+00 </wgt>
<wgt id='1193'> +1.2549477e+00 </wgt>
<wgt id='1194'> +1.2773572e+00 </wgt>
<wgt id='1195'> +1.2957715e+00 </wgt>
<wgt id='1196'> +1.3277381e+00 </wgt>
<wgt id='1197'> +1.2632448e+00 </wgt>
<wgt id='1198'> +1.2791587e+00 </wgt>
<wgt id='1199'> +1.2746499e+00 </wgt>
<wgt id='1200'> +1.3214562e+00 </wgt>
<wgt id='1201'> +1.2911926e+00 </wgt>
<wgt id='1202'> +1.2845671e+00 </wgt>
<wgt id='1203'> +1.3474208e+00 </wgt>
<wgt id='1204'> +1.3086197e+00 </wgt>
<wgt id='1205'> +1.2341347e+00 </wgt>
<wgt id='1206'> +1.3226176e+00 </wgt>
<wgt id='1207'> +1.3263331e+00 </wgt>
<wgt id='1208'> +1.3080758e+00 </wgt>
<wgt id='1209'> +1.3492204e+00 </wgt>
<wgt id='1210'> +1.2340397e+00 </wgt>
<wgt id='1211'> +1.3139582e+00 </wgt>
<wgt id='1212'> +1.2664066e+00 </wgt>
<wgt id='1213'> +1.3032817e+00 </wgt>
<wgt id='1214'> +1.3403478e+00 </wgt>
<wgt id='1215'> +1.2519269e+00 </wgt>
<wgt id='1216'> +1.2934390e+00 </wgt>
<wgt id='1217'> +1.3068458e+00 </wgt>
<wgt id='1218'> +1.2687455e+00 </wgt>
<wgt id='1219'> +1.2743274e+00 </wgt>
<wgt id='1220'> +1.3156672e+00 </wgt>
<wgt id='1221'> +1.2495695e+00 </wgt>
<wgt id='1222'> +1.3175469e+00 </wgt>
<wgt id='1223'> +1.3149503e+00 </wgt>
<wgt id='1224'> +1.2819060e+00 </wgt>
<wgt id='1225'> +1.3883462e+00 </wgt>
<wgt id='1226'> +1.2544689e+00 </wgt>
<wgt id='1227'> +1.3472890e+00 </wgt>
<wgt id='1228'> +1.3411591e+00 </wgt>
<wgt id='1229'> +1.2490587e+00 </wgt>
<wgt id='1230'> +1.2678612e+00 </wgt>
<wgt id='1231'> +1.3212242e+00 </wgt>
<wgt id='1232'> +1.2401170e+00 </wgt>
<wgt id='1233'> +1.3038997e+00 </wgt>
<wgt id='1234'> +1.3438982e+00 </wgt>
<wgt id='1235'> +1.1681104e+00 </wgt>
<wgt id='1236'> +1.3169082e+00 </wgt>
<wgt id='1237'> +1.2773086e+00 </wgt>
<wgt id='1238'> +1.2500144e+00 </wgt>
<wgt id='1239'> +1.2971021e+00 </wgt>
<wgt id='1240'> +1.3034653e+00 </wgt>
<wgt id='1241'> +1.2878568e+00 </wgt>
<wgt id='1242'> +1.2778702e+00 </wgt>
<wgt id='1243'> +1.2845887e+00 </wgt>
<wgt id='1244'> +1.2861278e+00 </wgt>
<wgt id='1245'> +1.3060205e+00 </wgt>
<wgt id='1246'> +1.2475590e+00 </wgt>
<wgt id='1247'> +1.3121903e+00 </wgt>
<wgt id='1248'> +1.3240072e+00 </wgt>
<wgt id='1249'> +1.2856465e+00 </wgt>
<wgt id='1250'> +1.3558317e+00 </wgt>
<wgt id='1251'> +1.3338389e+00 </wgt>
<wgt id='1252'> +1.3403157e+00 </wgt>
<wgt id='1253'> +1.3612300e+00 </wgt>
<wgt id='1254'> +1.4088378e+00 </wgt>
<wgt id='1255'> +1.5874899e+00 </wgt>
<wgt id='1256'> +1.6018099e+00 </wgt>
<wgt id='1257'> +1.5792661e+00 </wgt>
<wgt id='1258'> +1.5857683e+00 </wgt>
<wgt id='1259'> +1.5883858e+00 </wgt>
<wgt id='1260'> +1.5920439e+00 </wgt>
<wgt id='1261'> +1.5813846e+00 </wgt>
<wgt id='1262'> +1.5908323e+00 </wgt>
<wgt id='1263'> +1.5853930e+00 </wgt>
<wgt id='1264'> +1.5858187e+00 </wgt>
<wgt id='1265'> +1.5886744e+00 </wgt>
<wgt id='1266'> +1.5872351e+00 </wgt>
<wgt id='1267'> +1.5877508e+00 </wgt>
<wgt id='1268'> +1.5931717e+00 </wgt>
<wgt id='1269'> +1.5815320e+00 </wgt>
<wgt id='1270'> +1.5816565e+00 </wgt>
<wgt id='1271'> +1.5924727e+00 </wgt>
<wgt id='1272'> +1.5941544e+00 </wgt>
<wgt id='1273'> +1.5824504e+00 </wgt>
<wgt id='1274'> +1.5838262e+00 </wgt>
<wgt id='1275'> +1.5922284e+00 </wgt>
<wgt id='1276'> +1.5839292e+00 </wgt>
<wgt id='1277'> +1.5913735e+00 </wgt>
<wgt id='1278'> +1.5807966e+00 </wgt>
<wgt id='1279'> +1.5931545e+00 </wgt>
<wgt id='1280'> +1.5906389e+00 </wgt>
<wgt id='1281'> +1.5793510e+00 </wgt>
<wgt id='1282'> +1.6008662e+00 </wgt>
<wgt id='1283'> +1.5731532e+00 </wgt>
<wgt id='1284'> +1.5835739e+00 </wgt>
<wgt id='1285'> +1.5921282e+00 </wgt>
<wgt id='1286'> +1.5995922e+00 </wgt>
<wgt id='1287'> +1.5865517e+00 </wgt>
<wgt id='1288'> +1.5872378e+00 </wgt>
<wgt id='1289'> +1.5876381e+00 </wgt>
<wgt id='1290'> +1.5893769e+00 </wgt>
<wgt id='1291'> +1.5868531e+00 </wgt>
<wgt id='1292'> +1.5938647e+00 </wgt>
<wgt id='1293'> +1.5776615e+00 </wgt>
<wgt id='1294'> +1.5749416e+00 </wgt>
<wgt id='1295'> +1.5928570e+00 </wgt>
<wgt id='1296'> +1.3808188e+00 </wgt>
<wgt id='1297'> +1.3844273e+00 </wgt>
<wgt id='1298'> +1.3779173e+00 </wgt>
<wgt id='1299'> +1.3740577e+00 </wgt>
<wgt id='1300'> +1.3883738e+00 </wgt>
<wgt id='1301'> +1.3769402e+00 </wgt>
<wgt id='1302'> +1.3866339e+00 </wgt>
<wgt id='1303'> +1.3801964e+00 </wgt>
<wgt id='1304'> +1.3812732e+00 </wgt>
<wgt id='1305'> +1.3826254e+00 </wgt>
<wgt id='1306'> +1.3783644e+00 </wgt>
<wgt id='1307'> +1.3896863e+00 </wgt>
<wgt id='1308'> +1.3753943e+00 </wgt>
<wgt id='1309'> +1.3826704e+00 </wgt>
<wgt id='1310'> +1.3783802e+00 </wgt>
<wgt id='1311'> +1.3826820e+00 </wgt>
<wgt id='1312'> +1.3800410e+00 </wgt>
<wgt id='1313'> +1.3838874e+00 </wgt>
<wgt id='1314'> +1.3763653e+00 </wgt>
<wgt id='1315'> +1.3757031e+00 </wgt>
<wgt id='1316'> +1.3857694e+00 </wgt>
<wgt id='1317'> +1.3708582e+00 </wgt>
<wgt id='1318'> +1.3989562e+00 </wgt>
<wgt id='1319'> +1.3865056e+00 </wgt>
<wgt id='1320'> +1.3780634e+00 </wgt>
<wgt id='1321'> +1.3784520e+00 </wgt>
<wgt id='1322'> +1.3823069e+00 </wgt>
<wgt id='1323'> +1.3862892e+00 </wgt>
<wgt id='1324'> +1.3753585e+00 </wgt>
<wgt id='1325'> +1.3804322e+00 </wgt>
<wgt id='1326'> +1.3822183e+00 </wgt>
<wgt id='1327'> +1.3832613e+00 </wgt>
<wgt id='1328'> +1.3798546e+00 </wgt>
<wgt id='1329'> +1.3817533e+00 </wgt>
<wgt id='1330'> +1.3802239e+00 </wgt>
<wgt id='1331'> +1.3847186e+00 </wgt>
<wgt id='1332'> +1.3815307e+00 </wgt>
<wgt id='1333'> +1.3882661e+00 </wgt>
<wgt id='1334'> +1.3687291e+00 </wgt>
<wgt id='1335'> +1.3844790e+00 </wgt>
<wgt id='1336'> +1.3801505e+00 </wgt>
<wgt id='1337'> +1.3808188e+00 </wgt>
<wgt id='1338'> +1.3807625e+00 </wgt>
<wgt id='1339'> +1.3807902e+00 </wgt>
<wgt id='1340'> +1.3808157e+00 </wgt>
<wgt id='1341'> +1.3808773e+00 </wgt>
<wgt id='1342'> +1.3810403e+00 </wgt>
<wgt id='1343'> +1.3810173e+00 </wgt>
<wgt id='1344'> +1.3498358e+00 </wgt>
<wgt id='1345'> +1.3551244e+00 </wgt>
<wgt id='1346'> +1.3446623e+00 </wgt>
<wgt id='1347'> +1.3617131e+00 </wgt>
<wgt id='1348'> +1.3411750e+00 </wgt>
<wgt id='1349'> +1.3481094e+00 </wgt>
<wgt id='1350'> +1.3513353e+00 </wgt>
<wgt id='1351'> +1.3499464e+00 </wgt>
<wgt id='1352'> +1.3497450e+00 </wgt>
<wgt id='1353'> +1.3538787e+00 </wgt>
<wgt id='1354'> +1.3470401e+00 </wgt>
<wgt id='1355'> +1.3462273e+00 </wgt>
<wgt id='1356'> +1.3526940e+00 </wgt>
<wgt id='1357'> +1.3525477e+00 </wgt>
<wgt id='1358'> +1.3481529e+00 </wgt>
<wgt id='1359'> +1.3488431e+00 </wgt>
<wgt id='1360'> +1.3519469e+00 </wgt>
<wgt id='1361'> +1.3586738e+00 </wgt>
<wgt id='1362'> +1.3431590e+00 </wgt>
<wgt id='1363'> +1.3565383e+00 </wgt>
<wgt id='1364'> +1.3418352e+00 </wgt>
<wgt id='1365'> +1.3513636e+00 </wgt>
<wgt id='1366'> +1.3496741e+00 </wgt>
<wgt id='1367'> +1.3456919e+00 </wgt>
<wgt id='1368'> +1.3521907e+00 </wgt>
<wgt id='1369'> +1.3445694e+00 </wgt>
<wgt id='1370'> +1.3550563e+00 </wgt>
<wgt id='1371'> +1.3477045e+00 </wgt>
<wgt id='1372'> +1.3534755e+00 </wgt>
<wgt id='1373'> +1.3520081e+00 </wgt>
<wgt id='1374'> +1.3485699e+00 </wgt>
<wgt id='1375'> +1.3541597e+00 </wgt>
<wgt id='1376'> +1.3485486e+00 </wgt>
<wgt id='1377'> +1.3501438e+00 </wgt>
<wgt id='1378'> +1.3491454e+00 </wgt>
<wgt id='1379'> +1.3527479e+00 </wgt>
<wgt id='1380'> +1.3521627e+00 </wgt>
<wgt id='1381'> +1.3455711e+00 </wgt>
<wgt id='1382'> +1.3467310e+00 </wgt>
<wgt id='1383'> +1.3493663e+00 </wgt>
<wgt id='1384'> +1.3532062e+00 </wgt>
<wgt id='1385'> +1.3498358e+00 </wgt>
<wgt id='1386'> +1.3495143e+00 </wgt>
<wgt id='1387'> +1.3495313e+00 </wgt>
<wgt id='1388'> +1.3497033e+00 </wgt>
<wgt id='1389'> +1.3498779e+00 </wgt>
<wgt id='1390'> +1.3500564e+00 </wgt>
<wgt id='1391'> +1.3502112e+00 </wgt>
<wgt id='1392'> +1.4328133e+00 </wgt>
<wgt id='1393'> +1.4330293e+00 </wgt>
<wgt id='1394'> +1.4325552e+00 </wgt>
<wgt id='1395'> +1.4335866e+00 </wgt>
<wgt id='1396'> +1.4322189e+00 </wgt>
<wgt id='1397'> +1.4386613e+00 </wgt>
<wgt id='1398'> +1.4271485e+00 </wgt>
<wgt id='1399'> +1.4421324e+00 </wgt>
<wgt id='1400'> +1.4213453e+00 </wgt>
<wgt id='1401'> +1.4265006e+00 </wgt>
<wgt id='1402'> +1.4405159e+00 </wgt>
<wgt id='1403'> +1.4307637e+00 </wgt>
<wgt id='1404'> +1.4368647e+00 </wgt>
<wgt id='1405'> +1.4314454e+00 </wgt>
<wgt id='1406'> +1.4346694e+00 </wgt>
<wgt id='1407'> +1.4303473e+00 </wgt>
<wgt id='1408'> +1.4345171e+00 </wgt>
<wgt id='1409'> +1.4306027e+00 </wgt>
<wgt id='1410'> +1.4351240e+00 </wgt>
<wgt id='1411'> +1.4330200e+00 </wgt>
<wgt id='1412'> +1.4326123e+00 </wgt>
<wgt id='1413'> +1.4405294e+00 </wgt>
<wgt id='1414'> +1.4245814e+00 </wgt>
<wgt id='1415'> +1.4390018e+00 </wgt>
<wgt id='1416'> +1.4257785e+00 </wgt>
<wgt id='1417'> +1.4341925e+00 </wgt>
<wgt id='1418'> +1.4309525e+00 </wgt>
<wgt id='1419'> +1.4355137e+00 </wgt>
<wgt id='1420'> +1.4309831e+00 </wgt>
<wgt id='1421'> +1.4395833e+00 </wgt>
<wgt id='1422'> +1.4250334e+00 </wgt>
<wgt id='1423'> +1.4391696e+00 </wgt>
<wgt id='1424'> +1.4280166e+00 </wgt>
<wgt id='1425'> +1.4333418e+00 </wgt>
<wgt id='1426'> +1.4320610e+00 </wgt>
<wgt id='1427'> +1.4306102e+00 </wgt>
<wgt id='1428'> +1.4365145e+00 </wgt>
<wgt id='1429'> +1.4322893e+00 </wgt>
<wgt id='1430'> +1.4335488e+00 </wgt>
<wgt id='1431'> +1.4329071e+00 </wgt>
<wgt id='1432'> +1.4324803e+00 </wgt>
<wgt id='1433'> +1.4268510e+00 </wgt>
<wgt id='1434'> +1.4387028e+00 </wgt>
<wgt id='1435'> +1.4331772e+00 </wgt>
<wgt id='1436'> +1.4351165e+00 </wgt>
<wgt id='1437'> +1.4325528e+00 </wgt>
<wgt id='1438'> +1.4336914e+00 </wgt>
<wgt id='1439'> +1.4372332e+00 </wgt>
<wgt id='1440'> +1.4212843e+00 </wgt>
<wgt id='1441'> +1.4362111e+00 </wgt>
<wgt id='1442'> +1.4315350e+00 </wgt>
<wgt id='1443'> +1.4288462e+00 </wgt>
<wgt id='1444'> +1.4291676e+00 </wgt>
<wgt id='1445'> +1.4285562e+00 </wgt>
<wgt id='1446'> +1.4295946e+00 </wgt>
<wgt id='1447'> +1.4282894e+00 </wgt>
<wgt id='1448'> +1.4351819e+00 </wgt>
<wgt id='1449'> +1.4230215e+00 </wgt>
<wgt id='1450'> +1.4378916e+00 </wgt>
<wgt id='1451'> +1.4187642e+00 </wgt>
<wgt id='1452'> +1.4229453e+00 </wgt>
<wgt id='1453'> +1.4345196e+00 </wgt>
<wgt id='1454'> +1.4264747e+00 </wgt>
<wgt id='1455'> +1.4339098e+00 </wgt>
<wgt id='1456'> +1.4272482e+00 </wgt>
<wgt id='1457'> +1.4316833e+00 </wgt>
<wgt id='1458'> +1.4265431e+00 </wgt>
<wgt id='1459'> +1.4301480e+00 </wgt>
<wgt id='1460'> +1.4265848e+00 </wgt>
<wgt id='1461'> +1.4313124e+00 </wgt>
<wgt id='1462'> +1.4298062e+00 </wgt>
<wgt id='1463'> +1.4280392e+00 </wgt>
<wgt id='1464'> +1.4356096e+00 </wgt>
<wgt id='1465'> +1.4199783e+00 </wgt>
<wgt id='1466'> +1.4364799e+00 </wgt>
<wgt id='1467'> +1.4228446e+00 </wgt>
<wgt id='1468'> +1.4247305e+00 </wgt>
<wgt id='1469'> +1.4329365e+00 </wgt>
<wgt id='1470'> +1.4314207e+00 </wgt>
<wgt id='1471'> +1.4274577e+00 </wgt>
<wgt id='1472'> +1.4343345e+00 </wgt>
<wgt id='1473'> +1.4222959e+00 </wgt>
<wgt id='1474'> +1.4334762e+00 </wgt>
<wgt id='1475'> +1.4237110e+00 </wgt>
<wgt id='1476'> +1.4290275e+00 </wgt>
<wgt id='1477'> +1.4286085e+00 </wgt>
<wgt id='1478'> +1.4269323e+00 </wgt>
<wgt id='1479'> +1.4323122e+00 </wgt>
<wgt id='1480'> +1.4283461e+00 </wgt>
<wgt id='1481'> +1.4296744e+00 </wgt>
<wgt id='1482'> +1.4286939e+00 </wgt>
<wgt id='1483'> +1.4288514e+00 </wgt>
<wgt id='1484'> +1.4226283e+00 </wgt>
<wgt id='1485'> +1.4349387e+00 </wgt>
<wgt id='1486'> +1.4300412e+00 </wgt>
<wgt id='1487'> +1.4305663e+00 </wgt>
<wgt id='1488'> +1.4283378e+00 </wgt>
<wgt id='1489'> +1.4302858e+00 </wgt>
<wgt id='1490'> +1.4344896e+00 </wgt>
<wgt id='1491'> +1.4165601e+00 </wgt>
<wgt id='1492'> +1.4337744e+00 </wgt>
<wgt id='1493'> +1.4267010e+00 </wgt>
<wgt id='1494'> +1.3757737e+00 </wgt>
<wgt id='1495'> +1.3712626e+00 </wgt>
<wgt id='1496'> +1.3731757e+00 </wgt>
<wgt id='1497'> +1.3748131e+00 </wgt>
<wgt id='1498'> +1.3757245e+00 </wgt>
<wgt id='1499'> +1.3755561e+00 </wgt>
<wgt id='1500'> +1.3857480e+00 </wgt>
<wgt id='1501'> +1.3836661e+00 </wgt>
<wgt id='1502'> +1.3816667e+00 </wgt>
<wgt id='1503'> +1.3796687e+00 </wgt>
<wgt id='1504'> +1.3776245e+00 </wgt>
<wgt id='1505'> +1.3738437e+00 </wgt>
<wgt id='1506'> +1.3719681e+00 </wgt>
<wgt id='1507'> +1.3701438e+00 </wgt>
<wgt id='1508'> +1.3755561e+00 </wgt>
<wgt id='1509'> +1.3760892e+00 </wgt>
<wgt id='1510'> +1.3758055e+00 </wgt>
<wgt id='1511'> +1.3753612e+00 </wgt>
<wgt id='1512'> +1.3751654e+00 </wgt>
<wgt id='1513'> +1.3539538e+00 </wgt>
<wgt id='1514'> +1.3534710e+00 </wgt>
<wgt id='1515'> +1.3545052e+00 </wgt>
<wgt id='1516'> +1.3565621e+00 </wgt>
<wgt id='1517'> +1.3513048e+00 </wgt>
<wgt id='1518'> +1.3563113e+00 </wgt>
<wgt id='1519'> +1.3529350e+00 </wgt>
<wgt id='1520'> +1.3657004e+00 </wgt>
<wgt id='1521'> +1.3422580e+00 </wgt>
<wgt id='1522'> +1.3507398e+00 </wgt>
<wgt id='1523'> +1.3569754e+00 </wgt>
<wgt id='1524'> +1.3629360e+00 </wgt>
<wgt id='1525'> +1.3500602e+00 </wgt>
<wgt id='1526'> +1.3548248e+00 </wgt>
<wgt id='1527'> +1.3528564e+00 </wgt>
<wgt id='1528'> +1.3506201e+00 </wgt>
<wgt id='1529'> +1.3575286e+00 </wgt>
<wgt id='1530'> +1.3584051e+00 </wgt>
<wgt id='1531'> +1.3513631e+00 </wgt>
<wgt id='1532'> +1.3507932e+00 </wgt>
<wgt id='1533'> +1.3582279e+00 </wgt>
<wgt id='1534'> +1.3460670e+00 </wgt>
<wgt id='1535'> +1.3595158e+00 </wgt>
<wgt id='1536'> +1.3530078e+00 </wgt>
<wgt id='1537'> +1.3547456e+00 </wgt>
<wgt id='1538'> +1.3523836e+00 </wgt>
<wgt id='1539'> +1.3568418e+00 </wgt>
<wgt id='1540'> +1.3570769e+00 </wgt>
<wgt id='1541'> +1.3510866e+00 </wgt>
<wgt id='1542'> +1.3495987e+00 </wgt>
<wgt id='1543'> +1.3664124e+00 </wgt>
<wgt id='1544'> +1.3549680e+00 </wgt>
<wgt id='1545'> +1.3511772e+00 </wgt>
<wgt id='1546'> +1.3506946e+00 </wgt>
<wgt id='1547'> +1.3593791e+00 </wgt>
<wgt id='1548'> +1.3583601e+00 </wgt>
<wgt id='1549'> +1.3511564e+00 </wgt>
<wgt id='1550'> +1.3539840e+00 </wgt>
<wgt id='1551'> +1.3539277e+00 </wgt>
<wgt id='1552'> +1.3542118e+00 </wgt>
<wgt id='1553'> +1.3535909e+00 </wgt>
<wgt id='1554'> +1.3547347e+00 </wgt>
<wgt id='1555'> +1.3503965e+00 </wgt>
<wgt id='1556'> +1.3541599e+00 </wgt>
<wgt id='1557'> +1.3566840e+00 </wgt>
<wgt id='1558'> +1.3446186e+00 </wgt>
<wgt id='1559'> +1.3584342e+00 </wgt>
<wgt id='1560'> +1.3571665e+00 </wgt>
<wgt id='1561'> +1.3523134e+00 </wgt>
<wgt id='1562'> +1.3473233e+00 </wgt>
<wgt id='1563'> +1.3571670e+00 </wgt>
<wgt id='1564'> +1.3539538e+00 </wgt>
<wgt id='1565'> +1.3536076e+00 </wgt>
<wgt id='1566'> +1.3488435e+00 </wgt>
<wgt id='1567'> +1.3516896e+00 </wgt>
<wgt id='1568'> +1.3604608e+00 </wgt>
<wgt id='1569'> +1.3587087e+00 </wgt>
<wgt id='1570'> +1.3568960e+00 </wgt>
<wgt id='1571'> +1.3552516e+00 </wgt>
<wgt id='1572'> +1.3532842e+00 </wgt>
<wgt id='1573'> +1.3500592e+00 </wgt>
<wgt id='1574'> +1.3477839e+00 </wgt>
<wgt id='1575'> +1.3461968e+00 </wgt>
<wgt id='1576'> +1.3516896e+00 </wgt>
<wgt id='1577'> +1.3524525e+00 </wgt>
<wgt id='1578'> +1.3520533e+00 </wgt>
<wgt id='1579'> +1.3513243e+00 </wgt>
<wgt id='1580'> +1.3510234e+00 </wgt>
<wgt id='1581'> +1.3721704e+00 </wgt>
<wgt id='1582'> +1.3714104e+00 </wgt>
<wgt id='1583'> +1.3784236e+00 </wgt>
<wgt id='1584'> +1.3656091e+00 </wgt>
<wgt id='1585'> +1.3755631e+00 </wgt>
<wgt id='1586'> +1.3686684e+00 </wgt>
<wgt id='1587'> +1.3477741e+00 </wgt>
<wgt id='1588'> +1.3738842e+00 </wgt>
<wgt id='1589'> +1.3728975e+00 </wgt>
<wgt id='1590'> +1.3682252e+00 </wgt>
<wgt id='1591'> +1.3695232e+00 </wgt>
<wgt id='1592'> +1.3818541e+00 </wgt>
<wgt id='1593'> +1.3757366e+00 </wgt>
<wgt id='1594'> +1.3701931e+00 </wgt>
<wgt id='1595'> +1.3720843e+00 </wgt>
<wgt id='1596'> +1.3813664e+00 </wgt>
<wgt id='1597'> +1.3757159e+00 </wgt>
<wgt id='1598'> +1.3787277e+00 </wgt>
<wgt id='1599'> +1.3726780e+00 </wgt>
<wgt id='1600'> +1.3770461e+00 </wgt>
<wgt id='1601'> +1.3707259e+00 </wgt>
<wgt id='1602'> +1.3711690e+00 </wgt>
<wgt id='1603'> +1.3710571e+00 </wgt>
<wgt id='1604'> +1.3735238e+00 </wgt>
<wgt id='1605'> +1.3741296e+00 </wgt>
<wgt id='1606'> +1.3719798e+00 </wgt>
<wgt id='1607'> +1.3759266e+00 </wgt>
<wgt id='1608'> +1.3697845e+00 </wgt>
<wgt id='1609'> +1.3712134e+00 </wgt>
<wgt id='1610'> +1.3708347e+00 </wgt>
<wgt id='1611'> +1.3772469e+00 </wgt>
<wgt id='1612'> +1.3498389e+00 </wgt>
<wgt id='1613'> +1.3465667e+00 </wgt>
<wgt id='1614'> +1.3550929e+00 </wgt>
<wgt id='1615'> +1.3549955e+00 </wgt>
<wgt id='1616'> +1.3489243e+00 </wgt>
<wgt id='1617'> +1.3490789e+00 </wgt>
<wgt id='1618'> +1.3502727e+00 </wgt>
<wgt id='1619'> +1.3428469e+00 </wgt>
<wgt id='1620'> +1.3490457e+00 </wgt>
<wgt id='1621'> +1.3528319e+00 </wgt>
<wgt id='1622'> +1.3526522e+00 </wgt>
<wgt id='1623'> +1.3496471e+00 </wgt>
<wgt id='1624'> +1.3495949e+00 </wgt>
<wgt id='1625'> +1.3537371e+00 </wgt>
<wgt id='1626'> +1.3575848e+00 </wgt>
<wgt id='1627'> +1.3483000e+00 </wgt>
<wgt id='1628'> +1.3499440e+00 </wgt>
<wgt id='1629'> +1.3512651e+00 </wgt>
<wgt id='1630'> +1.3531219e+00 </wgt>
<wgt id='1631'> +1.3506939e+00 </wgt>
<wgt id='1632'> +1.3534689e+00 </wgt>
<wgt id='1633'> +1.3458715e+00 </wgt>
<wgt id='1634'> +1.3548189e+00 </wgt>
<wgt id='1635'> +1.3485177e+00 </wgt>
<wgt id='1636'> +1.3521117e+00 </wgt>
<wgt id='1637'> +1.3545069e+00 </wgt>
<wgt id='1638'> +1.3490601e+00 </wgt>
<wgt id='1639'> +1.3529393e+00 </wgt>
<wgt id='1640'> +1.3504834e+00 </wgt>
<wgt id='1641'> +1.3366661e+00 </wgt>
<wgt id='1642'> +1.3471496e+00 </wgt>
<wgt id='1643'> +1.3483029e+00 </wgt>
<wgt id='1644'> +1.3474638e+00 </wgt>
<wgt id='1645'> +1.3500578e+00 </wgt>
<wgt id='1646'> +1.3502382e+00 </wgt>
<wgt id='1647'> +1.3480498e+00 </wgt>
<wgt id='1648'> +1.3491083e+00 </wgt>
<wgt id='1649'> +1.3512776e+00 </wgt>
<wgt id='1650'> +1.3477342e+00 </wgt>
<wgt id='1651'> +1.3502523e+00 </wgt>
<wgt id='1652'> +1.3512455e+00 </wgt>
<wgt id='1653'> +1.3487983e+00 </wgt>
<wgt id='1654'> +1.3472647e+00 </wgt>
<wgt id='1655'> +1.3523750e+00 </wgt>
<wgt id='1656'> +1.3491267e+00 </wgt>
<wgt id='1657'> +1.3517868e+00 </wgt>
<wgt id='1658'> +1.3520689e+00 </wgt>
<wgt id='1659'> +1.3539687e+00 </wgt>
<wgt id='1660'> +1.3543977e+00 </wgt>
<wgt id='1661'> +1.3520248e+00 </wgt>
<wgt id='1662'> +1.3596309e+00 </wgt>
<wgt id='1663'> +1.3579291e+00 </wgt>
<wgt id='1664'> +1.3492514e+00 </wgt>
<wgt id='1665'> +1.3517583e+00 </wgt>
<wgt id='1666'> +1.3558435e+00 </wgt>
<wgt id='1667'> +1.3512648e+00 </wgt>
<wgt id='1668'> +1.3499086e+00 </wgt>
<wgt id='1669'> +1.3518957e+00 </wgt>
<wgt id='1670'> +1.3610327e+00 </wgt>
<wgt id='1671'> +1.3566865e+00 </wgt>
<wgt id='1672'> +1.3501249e+00 </wgt>
<wgt id='1673'> +1.3535324e+00 </wgt>
<wgt id='1674'> +1.3495677e+00 </wgt>
<wgt id='1675'> +1.3522563e+00 </wgt>
<wgt id='1676'> +1.3542896e+00 </wgt>
<wgt id='1677'> +1.3522301e+00 </wgt>
<wgt id='1678'> +1.3479928e+00 </wgt>
<wgt id='1679'> +1.3525719e+00 </wgt>
<wgt id='1680'> +1.3474294e+00 </wgt>
<wgt id='1681'> +1.3514605e+00 </wgt>
<wgt id='1682'> +1.3467932e+00 </wgt>
<wgt id='1683'> +1.3514981e+00 </wgt>
<wgt id='1684'> +1.3470589e+00 </wgt>
<wgt id='1685'> +1.3472196e+00 </wgt>
<wgt id='1686'> +1.3504369e+00 </wgt>
<wgt id='1687'> +1.3495825e+00 </wgt>
<wgt id='1688'> +1.3523448e+00 </wgt>
<wgt id='1689'> +1.3487641e+00 </wgt>
<wgt id='1690'> +1.3531323e+00 </wgt>
<wgt id='1691'> +1.3522004e+00 </wgt>
<wgt id='1692'> +1.3514523e+00 </wgt>
<wgt id='1693'> +1.3458921e+00 </wgt>
<wgt id='1694'> +1.3487600e+00 </wgt>
<wgt id='1695'> +1.3521408e+00 </wgt>
<wgt id='1696'> +1.3527074e+00 </wgt>
<wgt id='1697'> +1.3500079e+00 </wgt>
<wgt id='1698'> +1.3470103e+00 </wgt>
<wgt id='1699'> +1.3529946e+00 </wgt>
<wgt id='1700'> +1.3457999e+00 </wgt>
<wgt id='1701'> +1.3517524e+00 </wgt>
<wgt id='1702'> +1.3491188e+00 </wgt>
<wgt id='1703'> +1.3510126e+00 </wgt>
<wgt id='1704'> +1.3485582e+00 </wgt>
<wgt id='1705'> +1.3528406e+00 </wgt>
<wgt id='1706'> +1.3520655e+00 </wgt>
<wgt id='1707'> +1.3488485e+00 </wgt>
<wgt id='1708'> +1.3504693e+00 </wgt>
<wgt id='1709'> +1.3531735e+00 </wgt>
<wgt id='1710'> +1.3497546e+00 </wgt>
<wgt id='1711'> +1.3506294e+00 </wgt>
<wgt id='1712'> +1.3507629e+00 </wgt>
<wgt id='1713'> +1.3278647e+00 </wgt>
<wgt id='1714'> +1.3663208e+00 </wgt>
<wgt id='1715'> +1.3120483e+00 </wgt>
<wgt id='1716'> +1.2930387e+00 </wgt>
<wgt id='1717'> +1.3028981e+00 </wgt>
<wgt id='1718'> +1.2334434e+00 </wgt>
<wgt id='1719'> +1.2687433e+00 </wgt>
<wgt id='1720'> +1.3413246e+00 </wgt>
<wgt id='1721'> +1.2488383e+00 </wgt>
<wgt id='1722'> +1.2966671e+00 </wgt>
<wgt id='1723'> +1.3285243e+00 </wgt>
<wgt id='1724'> +1.3694612e+00 </wgt>
<wgt id='1725'> +1.3436215e+00 </wgt>
<wgt id='1726'> +1.3546625e+00 </wgt>
<wgt id='1727'> +1.3039027e+00 </wgt>
<wgt id='1728'> +1.3295148e+00 </wgt>
<wgt id='1729'> +1.3184663e+00 </wgt>
<wgt id='1730'> +1.3384617e+00 </wgt>
<wgt id='1731'> +1.2725955e+00 </wgt>
<wgt id='1732'> +1.3382885e+00 </wgt>
<wgt id='1733'> +1.3569086e+00 </wgt>
<wgt id='1734'> +1.3317764e+00 </wgt>
<wgt id='1735'> +1.2927158e+00 </wgt>
<wgt id='1736'> +1.2928898e+00 </wgt>
<wgt id='1737'> +1.3101475e+00 </wgt>
<wgt id='1738'> +1.3101219e+00 </wgt>
<wgt id='1739'> +1.2507716e+00 </wgt>
<wgt id='1740'> +1.2880327e+00 </wgt>
<wgt id='1741'> +1.3386113e+00 </wgt>
<wgt id='1742'> +1.3646254e+00 </wgt>
<wgt id='1743'> +1.3205092e+00 </wgt>
<wgt id='1744'> +1.3215330e+00 </wgt>
<wgt id='1745'> +1.2673946e+00 </wgt>
<wgt id='1746'> +1.2243201e+00 </wgt>
<wgt id='1747'> +1.2917579e+00 </wgt>
<wgt id='1748'> +1.3108238e+00 </wgt>
<wgt id='1749'> +1.3366467e+00 </wgt>
<wgt id='1750'> +1.3292152e+00 </wgt>
<wgt id='1751'> +1.3054434e+00 </wgt>
<wgt id='1752'> +1.2423375e+00 </wgt>
<wgt id='1753'> +1.2924177e+00 </wgt>
<wgt id='1754'> +1.3591411e+00 </wgt>
<wgt id='1755'> +1.3145729e+00 </wgt>
<wgt id='1756'> +1.3045311e+00 </wgt>
<wgt id='1757'> +1.2781821e+00 </wgt>
<wgt id='1758'> +1.2607096e+00 </wgt>
<wgt id='1759'> +1.2795195e+00 </wgt>
<wgt id='1760'> +1.2622316e+00 </wgt>
<wgt id='1761'> +1.3153073e+00 </wgt>
<wgt id='1762'> +1.3039027e+00 </wgt>
<wgt id='1763'> +1.3008243e+00 </wgt>
<wgt id='1764'> +1.3475547e+00 </wgt>
<wgt id='1765'> +1.3225180e+00 </wgt>
<wgt id='1766'> +1.4033238e+00 </wgt>
<wgt id='1767'> +1.3326004e+00 </wgt>
<wgt id='1768'> +1.2915795e+00 </wgt>
<wgt id='1769'> +1.3034933e+00 </wgt>
<wgt id='1770'> +1.3217752e+00 </wgt>
<wgt id='1771'> +1.3087538e+00 </wgt>
<wgt id='1772'> +1.3383134e+00 </wgt>
<wgt id='1773'> +1.3127818e+00 </wgt>
<wgt id='1774'> +1.3309327e+00 </wgt>
<wgt id='1775'> +1.3520066e+00 </wgt>
<wgt id='1776'> +1.3363894e+00 </wgt>
<wgt id='1777'> +1.3209974e+00 </wgt>
<wgt id='1778'> +1.2991274e+00 </wgt>
<wgt id='1779'> +1.2957209e+00 </wgt>
<wgt id='1780'> +1.3309601e+00 </wgt>
<wgt id='1781'> +1.2999526e+00 </wgt>
<wgt id='1782'> +1.3503095e+00 </wgt>
<wgt id='1783'> +1.2590655e+00 </wgt>
<wgt id='1784'> +1.3382372e+00 </wgt>
<wgt id='1785'> +1.2863859e+00 </wgt>
<wgt id='1786'> +1.3446937e+00 </wgt>
<wgt id='1787'> +1.3399491e+00 </wgt>
<wgt id='1788'> +1.3046726e+00 </wgt>
<wgt id='1789'> +1.3190902e+00 </wgt>
<wgt id='1790'> +1.2882814e+00 </wgt>
<wgt id='1791'> +1.2558422e+00 </wgt>
<wgt id='1792'> +1.2971738e+00 </wgt>
<wgt id='1793'> +1.3905076e+00 </wgt>
<wgt id='1794'> +1.3451211e+00 </wgt>
<wgt id='1795'> +1.3374362e+00 </wgt>
<wgt id='1796'> +1.2904669e+00 </wgt>
<wgt id='1797'> +1.2541663e+00 </wgt>
<wgt id='1798'> +1.4062555e+00 </wgt>
<wgt id='1799'> +1.3626185e+00 </wgt>
<wgt id='1800'> +1.3300461e+00 </wgt>
<wgt id='1801'> +1.3116492e+00 </wgt>
<wgt id='1802'> +1.3212093e+00 </wgt>
<wgt id='1803'> +1.3134974e+00 </wgt>
<wgt id='1804'> +1.2820747e+00 </wgt>
<wgt id='1805'> +1.3138377e+00 </wgt>
<wgt id='1806'> +1.3513241e+00 </wgt>
<wgt id='1807'> +1.2527856e+00 </wgt>
<wgt id='1808'> +1.3350244e+00 </wgt>
<wgt id='1809'> +1.3075242e+00 </wgt>
<wgt id='1810'> +1.3009913e+00 </wgt>
<wgt id='1811'> +1.3250648e+00 </wgt>
<wgt id='1812'> +1.2772592e+00 </wgt>
<wgt id='1813'> +1.3423970e+00 </wgt>
<wgt id='1814'> +1.2618733e+00 </wgt>
<wgt id='1815'> +1.3209871e+00 </wgt>
<wgt id='1816'> +1.3882744e+00 </wgt>
<wgt id='1817'> +1.4015807e+00 </wgt>
<wgt id='1818'> +1.3356578e+00 </wgt>
<wgt id='1819'> +1.3820485e+00 </wgt>
<wgt id='1820'> +1.4078470e+00 </wgt>
<wgt id='1821'> +1.4351190e+00 </wgt>
<wgt id='1822'> +1.3895175e+00 </wgt>
<wgt id='1823'> +1.3958229e+00 </wgt>
<wgt id='1824'> +1.3456833e+00 </wgt>
<wgt id='1825'> +1.4045004e+00 </wgt>
<wgt id='1826'> +1.3814668e+00 </wgt>
<wgt id='1827'> +1.3516279e+00 </wgt>
<wgt id='1828'> +1.4210693e+00 </wgt>
<wgt id='1829'> +1.3833663e+00 </wgt>
<wgt id='1830'> +1.3428111e+00 </wgt>
<wgt id='1831'> +1.3655118e+00 </wgt>
<wgt id='1832'> +1.4099615e+00 </wgt>
<wgt id='1833'> +1.3677097e+00 </wgt>
<wgt id='1834'> +1.3933258e+00 </wgt>
<wgt id='1835'> +1.3997999e+00 </wgt>
<wgt id='1836'> +1.4055531e+00 </wgt>
<wgt id='1837'> +1.4081619e+00 </wgt>
<wgt id='1838'> +1.3738131e+00 </wgt>
<wgt id='1839'> +1.4624377e+00 </wgt>
<wgt id='1840'> +1.3830484e+00 </wgt>
<wgt id='1841'> +1.3601198e+00 </wgt>
<wgt id='1842'> +1.4092377e+00 </wgt>
<wgt id='1843'> +1.3791551e+00 </wgt>
<wgt id='1844'> +1.3770939e+00 </wgt>
<wgt id='1845'> +1.3696722e+00 </wgt>
<wgt id='1846'> +1.4051874e+00 </wgt>
<wgt id='1847'> +1.3819646e+00 </wgt>
<wgt id='1848'> +1.3673134e+00 </wgt>
<wgt id='1849'> +1.3775304e+00 </wgt>
<wgt id='1850'> +1.4241664e+00 </wgt>
<wgt id='1851'> +1.4037174e+00 </wgt>
<wgt id='1852'> +1.3998135e+00 </wgt>
<wgt id='1853'> +1.3447125e+00 </wgt>
<wgt id='1854'> +1.4146374e+00 </wgt>
<wgt id='1855'> +1.4177621e+00 </wgt>
<wgt id='1856'> +1.3924521e+00 </wgt>
<wgt id='1857'> +1.4388206e+00 </wgt>
<wgt id='1858'> +1.3810361e+00 </wgt>
<wgt id='1859'> +1.4103662e+00 </wgt>
<wgt id='1860'> +1.3949253e+00 </wgt>
<wgt id='1861'> +1.3921714e+00 </wgt>
<wgt id='1862'> +1.4456618e+00 </wgt>
<wgt id='1863'> +1.3532623e+00 </wgt>
<wgt id='1864'> +1.3847162e+00 </wgt>
<wgt id='1865'> +1.3364878e+00 </wgt>
<wgt id='1866'> +1.3725666e+00 </wgt>
<wgt id='1867'> +1.3946267e+00 </wgt>
<wgt id='1868'> +1.3756041e+00 </wgt>
<wgt id='1869'> +1.4045281e+00 </wgt>
<wgt id='1870'> +1.4014982e+00 </wgt>
<wgt id='1871'> +1.3940301e+00 </wgt>
<wgt id='1872'> +1.3775267e+00 </wgt>
<wgt id='1873'> +1.4329539e+00 </wgt>
<wgt id='1874'> +1.3644589e+00 </wgt>
<wgt id='1875'> +1.3306258e+00 </wgt>
<wgt id='1876'> +1.3694524e+00 </wgt>
<wgt id='1877'> +1.3665832e+00 </wgt>
<wgt id='1878'> +1.3362312e+00 </wgt>
<wgt id='1879'> +1.4364989e+00 </wgt>
<wgt id='1880'> +1.3284082e+00 </wgt>
<wgt id='1881'> +1.4263866e+00 </wgt>
<wgt id='1882'> +1.3936604e+00 </wgt>
<wgt id='1883'> +1.4786591e+00 </wgt>
<wgt id='1884'> +1.3853458e+00 </wgt>
<wgt id='1885'> +1.3987692e+00 </wgt>
<wgt id='1886'> +1.3531033e+00 </wgt>
<wgt id='1887'> +1.4413628e+00 </wgt>
<wgt id='1888'> +1.3870361e+00 </wgt>
<wgt id='1889'> +1.4074125e+00 </wgt>
<wgt id='1890'> +1.4218214e+00 </wgt>
<wgt id='1891'> +1.3346500e+00 </wgt>
<wgt id='1892'> +1.3566310e+00 </wgt>
<wgt id='1893'> +1.3848934e+00 </wgt>
<wgt id='1894'> +1.4140863e+00 </wgt>
<wgt id='1895'> +1.4054551e+00 </wgt>
<wgt id='1896'> +1.3804684e+00 </wgt>
<wgt id='1897'> +1.3858910e+00 </wgt>
<wgt id='1898'> +1.3663230e+00 </wgt>
<wgt id='1899'> +1.3880283e+00 </wgt>
<wgt id='1900'> +1.4199766e+00 </wgt>
<wgt id='1901'> +1.3207780e+00 </wgt>
<wgt id='1902'> +1.3694664e+00 </wgt>
<wgt id='1903'> +1.3550509e+00 </wgt>
<wgt id='1904'> +1.3858571e+00 </wgt>
<wgt id='1905'> +1.4035855e+00 </wgt>
<wgt id='1906'> +1.3557484e+00 </wgt>
<wgt id='1907'> +1.4016190e+00 </wgt>
<wgt id='1908'> +1.4191741e+00 </wgt>
<wgt id='1909'> +1.3969866e+00 </wgt>
<wgt id='1910'> +1.4184604e+00 </wgt>
<wgt id='1911'> +1.2878562e+00 </wgt>
<wgt id='1912'> +1.4083938e+00 </wgt>
<wgt id='1913'> +1.3877173e+00 </wgt>
<wgt id='1914'> +1.4307893e+00 </wgt>
<wgt id='1915'> +1.4028840e+00 </wgt>
<wgt id='1916'> +1.3547067e+00 </wgt>
<wgt id='1917'> +1.5668104e+00 </wgt>
<wgt id='1918'> +1.6506675e+00 </wgt>
<wgt id='1919'> +1.3882744e+00 </wgt>
<wgt id='1920'> +1.4015807e+00 </wgt>
<wgt id='1921'> +1.3356578e+00 </wgt>
<wgt id='1922'> +1.3820485e+00 </wgt>
<wgt id='1923'> +1.4078470e+00 </wgt>
<wgt id='1924'> +1.4351190e+00 </wgt>
<wgt id='1925'> +1.3895175e+00 </wgt>
<wgt id='1926'> +1.3958229e+00 </wgt>
<wgt id='1927'> +1.3456833e+00 </wgt>
<wgt id='1928'> +1.4045004e+00 </wgt>
<wgt id='1929'> +1.3814668e+00 </wgt>
<wgt id='1930'> +1.3516279e+00 </wgt>
<wgt id='1931'> +1.4210693e+00 </wgt>
<wgt id='1932'> +1.3833663e+00 </wgt>
<wgt id='1933'> +1.3428111e+00 </wgt>
<wgt id='1934'> +1.3655118e+00 </wgt>
<wgt id='1935'> +1.4099615e+00 </wgt>
<wgt id='1936'> +1.3677097e+00 </wgt>
<wgt id='1937'> +1.3933258e+00 </wgt>
<wgt id='1938'> +1.3997999e+00 </wgt>
<wgt id='1939'> +1.4055531e+00 </wgt>
<wgt id='1940'> +1.4081619e+00 </wgt>
<wgt id='1941'> +1.3738131e+00 </wgt>
<wgt id='1942'> +1.4624377e+00 </wgt>
<wgt id='1943'> +1.3830484e+00 </wgt>
<wgt id='1944'> +1.3601198e+00 </wgt>
<wgt id='1945'> +1.4092377e+00 </wgt>
<wgt id='1946'> +1.3791551e+00 </wgt>
<wgt id='1947'> +1.3770939e+00 </wgt>
<wgt id='1948'> +1.3696722e+00 </wgt>
<wgt id='1949'> +1.4051874e+00 </wgt>
<wgt id='1950'> +1.3819646e+00 </wgt>
<wgt id='1951'> +1.3673134e+00 </wgt>
<wgt id='1952'> +1.3775304e+00 </wgt>
<wgt id='1953'> +1.4241664e+00 </wgt>
<wgt id='1954'> +1.4037174e+00 </wgt>
<wgt id='1955'> +1.3998135e+00 </wgt>
<wgt id='1956'> +1.3447125e+00 </wgt>
<wgt id='1957'> +1.4146374e+00 </wgt>
<wgt id='1958'> +1.4177621e+00 </wgt>
<wgt id='1959'> +1.3924521e+00 </wgt>
<wgt id='1960'> +1.4388206e+00 </wgt>
<wgt id='1961'> +1.3810361e+00 </wgt>
<wgt id='1962'> +1.4103662e+00 </wgt>
<wgt id='1963'> +1.3949253e+00 </wgt>
<wgt id='1964'> +1.3921714e+00 </wgt>
<wgt id='1965'> +1.4456618e+00 </wgt>
<wgt id='1966'> +1.3532623e+00 </wgt>
<wgt id='1967'> +1.3847162e+00 </wgt>
<wgt id='1968'> +1.3364878e+00 </wgt>
<wgt id='1969'> +1.3725666e+00 </wgt>
<wgt id='1970'> +1.3946267e+00 </wgt>
<wgt id='1971'> +1.3756041e+00 </wgt>
<wgt id='1972'> +1.4045281e+00 </wgt>
<wgt id='1973'> +1.4014982e+00 </wgt>
<wgt id='1974'> +1.3940301e+00 </wgt>
<wgt id='1975'> +1.3775267e+00 </wgt>
<wgt id='1976'> +1.4329539e+00 </wgt>
<wgt id='1977'> +1.3644589e+00 </wgt>
<wgt id='1978'> +1.3306258e+00 </wgt>
<wgt id='1979'> +1.3694524e+00 </wgt>
<wgt id='1980'> +1.3665832e+00 </wgt>
<wgt id='1981'> +1.3362312e+00 </wgt>
<wgt id='1982'> +1.4364989e+00 </wgt>
<wgt id='1983'> +1.3284082e+00 </wgt>
<wgt id='1984'> +1.4263866e+00 </wgt>
<wgt id='1985'> +1.3936604e+00 </wgt>
<wgt id='1986'> +1.4786591e+00 </wgt>
<wgt id='1987'> +1.3853458e+00 </wgt>
<wgt id='1988'> +1.3987692e+00 </wgt>
<wgt id='1989'> +1.3531033e+00 </wgt>
<wgt id='1990'> +1.4413628e+00 </wgt>
<wgt id='1991'> +1.3870361e+00 </wgt>
<wgt id='1992'> +1.4074125e+00 </wgt>
<wgt id='1993'> +1.4218214e+00 </wgt>
<wgt id='1994'> +1.3346500e+00 </wgt>
<wgt id='1995'> +1.3566310e+00 </wgt>
<wgt id='1996'> +1.3848934e+00 </wgt>
<wgt id='1997'> +1.4140863e+00 </wgt>
<wgt id='1998'> +1.4054551e+00 </wgt>
<wgt id='1999'> +1.3804684e+00 </wgt>
<wgt id='2000'> +1.3858910e+00 </wgt>
<wgt id='2001'> +1.3663230e+00 </wgt>
<wgt id='2002'> +1.3880283e+00 </wgt>
<wgt id='2003'> +1.4199766e+00 </wgt>
<wgt id='2004'> +1.3207780e+00 </wgt>
<wgt id='2005'> +1.3694664e+00 </wgt>
<wgt id='2006'> +1.3550509e+00 </wgt>
<wgt id='2007'> +1.3858571e+00 </wgt>
<wgt id='2008'> +1.4035855e+00 </wgt>
<wgt id='2009'> +1.3557484e+00 </wgt>
<wgt id='2010'> +1.4016190e+00 </wgt>
<wgt id='2011'> +1.4191741e+00 </wgt>
<wgt id='2012'> +1.3969866e+00 </wgt>
<wgt id='2013'> +1.4184604e+00 </wgt>
<wgt id='2014'> +1.2878562e+00 </wgt>
<wgt id='2015'> +1.4083938e+00 </wgt>
<wgt id='2016'> +1.3877173e+00 </wgt>
<wgt id='2017'> +1.4307893e+00 </wgt>
<wgt id='2018'> +1.4028840e+00 </wgt>
<wgt id='2019'> +1.3547067e+00 </wgt>
<wgt id='2020'> +1.3905678e+00 </wgt>
<wgt id='2021'> +1.3919907e+00 </wgt>
<wgt id='2022'> +1.3686457e+00 </wgt>
</rwgt>
</event>
<event>
 13 1 0.0079112 8.31084900e+01 7.81860800e-03 1.21346800e-01
        2 -1    0    0  501    0 +0.0000000000e+00 +0.0000000000e+00 +8.6335959303e+02 8.6335959303e+02 2.5500000000e-03 0.0000e+00 -1.0000e+00
       21 -1    0    0  502  503 +0.0000000000e+00 +0.0000000000e+00 -2.6261839652e+02 2.6261839652e+02 0.0000000000e+00 0.0000e+00 -1.0000e+00
  8000001  2    1    2  502    0 +7.2727226899e+00 -3.4709920127e+01 +2.2053385139e+02 6.4022533700e+02 5.9999635956e+02 0.0000e+00 0.0000e+00
        1  1    1    2  501    0 -1.7592331974e+01 +3.6610948170e+01 +4.3138954549e+02 4.3329757864e+02 5.0400000000e-03 0.0000e+00 -1.0000e+00
       -5  1    1    2    0  503 +1.0319609285e+01 -1.9010280427e+00 -5.1182200370e+01 5.2455073910e+01 4.6700000000e+00 0.0000e+00 1.0000e+00
        6  2    3    3  502    0 +4.6016603418e+01 +2.0877697675e+02 -1.9728518691e+01 2.8322569644e+02 1.8472202593e+02 0.0000e+00 0.0000e+00
        5  1    6    6  502    0 +8.4786791830e+01 +1.4874090457e+02 +9.2777527924e+00 1.7152417427e+02 4.6700000000e+00 0.0000e+00 -1.0000e+00
       24  2    6    6    0    0 -3.8770188412e+01 +6.0036072178e+01 -2.9006271483e+01 1.1170152217e+02 8.0798569276e+01 0.0000e+00 0.0000e+00
       14  1    8    8    0    0 -5.6337268621e+01 +5.8168201446e+01 -3.9901043615e+00 8.1076189032e+01 0.0000000000e+00 0.0000e+00 -1.0000e+00
      -13  1    8    8    0    0 +1.7567080209e+01 +1.8678707322e+00 -2.5016167122e+01 3.0625333135e+01 1.0566000000e-01 0.0000e+00 1.0000e+00
       23  2    3    3    0    0 -3.8743880728e+01 -2.4348689688e+02 +2.4026237008e+02 3.5699964056e+02 9.4529252816e+01 0.0000e+00 0.0000e+00
       16  1   11   11    0    0 -2.2068439373e+00 -1.5232185853e+02 +1.9864184762e+02 2.5033058616e+02 0.0000000000e+00 0.0000e+00 -1.0000e+00
      -16  1   11   11    0    0 -3.6537036791e+01 -9.1165038354e+01 +4.1620522462e+01 1.0666905440e+02 0.0000000000e+00 0.0000e+00 1.0000e+00
<mgrwt>
<rscale>  1 0.58081038e+02</rscale>
<asrwt>0</asrwt>
<pdfrwt beam="1">  1       21 0.40402830e-01 0.83108490e+02</pdfrwt>
<pdfrwt beam="2">  1        2 0.13282455e+00 0.40590402e+02</pdfrwt>
<totfact> 0.31029432e+03</totfact>
</mgrwt>
<rwgt>
<wgt id='1001'> +1.3581722e+00 </wgt>
<wgt id='1002'> +8.1999435e-01 </wgt>
<wgt id='1003'> +8.1972697e-01 </wgt>
<wgt id='1004'> +9.4352932e-01 </wgt>
<wgt id='1005'> +7.4373122e-01 </wgt>
<wgt id='1006'> +1.2144536e+00 </wgt>
<wgt id='1007'> +7.5653347e-01 </wgt>
<wgt id='1008'> +7.5629913e-01 </wgt>
<wgt id='1009'> +8.6409343e-01 </wgt>
<wgt id='1010'> +6.8940445e-01 </wgt>
<wgt id='1011'> +1.5421059e+00 </wgt>
<wgt id='1012'> +8.9539349e-01 </wgt>
<wgt id='1013'> +8.9508427e-01 </wgt>
<wgt id='1014'> +1.0395465e+00 </wgt>
<wgt id='1015'> +8.0758868e-01 </wgt>
<wgt id='1016'> +1.2858177e+00 </wgt>
<wgt id='1017'> +7.7914099e-01 </wgt>
<wgt id='1018'> +7.7888990e-01 </wgt>
<wgt id='1019'> +8.9508427e-01 </wgt>
<wgt id='1020'> +7.0737449e-01 </wgt>
<wgt id='1021'> +1.1497555e+00 </wgt>
<wgt id='1022'> +7.1884182e-01 </wgt>
<wgt id='1023'> +7.1862190e-01 </wgt>
<wgt id='1024'> +8.1972697e-01 </wgt>
<wgt id='1025'> +6.5570343e-01 </wgt>
<wgt id='1026'> +1.4599526e+00 </wgt>
<wgt id='1027'> +8.5078362e-01 </wgt>
<wgt id='1028'> +8.5049306e-01 </wgt>
<wgt id='1029'> +9.8617152e-01 </wgt>
<wgt id='1030'> +7.6811032e-01 </wgt>
<wgt id='1031'> +1.4327856e+00 </wgt>
<wgt id='1032'> +8.6437764e-01 </wgt>
<wgt id='1033'> +8.6409343e-01 </wgt>
<wgt id='1034'> +9.9502421e-01 </wgt>
<wgt id='1035'> +7.8307073e-01 </wgt>
<wgt id='1036'> +1.2811716e+00 </wgt>
<wgt id='1037'> +7.9748185e-01 </wgt>
<wgt id='1038'> +7.9723265e-01 </wgt>
<wgt id='1039'> +9.1125295e-01 </wgt>
<wgt id='1040'> +7.2587035e-01 </wgt>
<wgt id='1041'> +1.6268240e+00 </wgt>
<wgt id='1042'> +9.4385785e-01 </wgt>
<wgt id='1043'> +9.4352932e-01 </wgt>
<wgt id='1044'> +1.0962817e+00 </wgt>
<wgt id='1045'> +8.5030591e-01 </wgt>
<wgt id='1046'> +1.3581722e+00 </wgt>
<wgt id='1047'> +1.3581722e+00 </wgt>
<wgt id='1048'> +1.3581722e+00 </wgt>
<wgt id='1049'> +1.3607107e+00 </wgt>
<wgt id='1050'> +1.3555629e+00 </wgt>
<wgt id='1051'> +1.3580249e+00 </wgt>
<wgt id='1052'> +1.3574295e+00 </wgt>
<wgt id='1053'> +1.3641600e+00 </wgt>
<wgt id='1054'> +1.3568747e+00 </wgt>
<wgt id='1055'> +1.3602906e+00 </wgt>
<wgt id='1056'> +1.3603585e+00 </wgt>
<wgt id='1057'> +1.3596263e+00 </wgt>
<wgt id='1058'> +1.3570908e+00 </wgt>
<wgt id='1059'> +1.3552676e+00 </wgt>
<wgt id='1060'> +1.3566608e+00 </wgt>
<wgt id='1061'> +1.3585809e+00 </wgt>
<wgt id='1062'> +1.3621081e+00 </wgt>
<wgt id='1063'> +1.3597127e+00 </wgt>
<wgt id='1064'> +1.3590002e+00 </wgt>
<wgt id='1065'> +1.3592776e+00 </wgt>
<wgt id='1066'> +1.3552110e+00 </wgt>
<wgt id='1067'> +1.3632335e+00 </wgt>
<wgt id='1068'> +1.3524538e+00 </wgt>
<wgt id='1069'> +1.3565540e+00 </wgt>
<wgt id='1070'> +1.3580831e+00 </wgt>
<wgt id='1071'> +1.3567087e+00 </wgt>
<wgt id='1072'> +1.3603407e+00 </wgt>
<wgt id='1073'> +1.3580839e+00 </wgt>
<wgt id='1074'> +1.3567447e+00 </wgt>
<wgt id='1075'> +1.3542691e+00 </wgt>
<wgt id='1076'> +1.3610784e+00 </wgt>
<wgt id='1077'> +1.3620006e+00 </wgt>
<wgt id='1078'> +1.3577094e+00 </wgt>
<wgt id='1079'> +1.3641210e+00 </wgt>
<wgt id='1080'> +1.3578805e+00 </wgt>
<wgt id='1081'> +1.3600002e+00 </wgt>
<wgt id='1082'> +1.3604429e+00 </wgt>
<wgt id='1083'> +1.3574979e+00 </wgt>
<wgt id='1084'> +1.3560931e+00 </wgt>
<wgt id='1085'> +1.3613758e+00 </wgt>
<wgt id='1086'> +1.3569093e+00 </wgt>
<wgt id='1087'> +1.3579029e+00 </wgt>
<wgt id='1088'> +1.3612086e+00 </wgt>
<wgt id='1089'> +1.3628542e+00 </wgt>
<wgt id='1090'> +1.3599935e+00 </wgt>
<wgt id='1091'> +1.3578640e+00 </wgt>
<wgt id='1092'> +1.3562876e+00 </wgt>
<wgt id='1093'> +1.3576902e+00 </wgt>
<wgt id='1094'> +1.3568888e+00 </wgt>
<wgt id='1095'> +1.3567735e+00 </wgt>
<wgt id='1096'> +1.3543473e+00 </wgt>
<wgt id='1097'> +1.3588307e+00 </wgt>
<wgt id='1098'> +1.3561237e+00 </wgt>
<wgt id='1099'> +1.3577169e+00 </wgt>
<wgt id='1100'> +1.3596827e+00 </wgt>
<wgt id='1101'> +1.3588089e+00 </wgt>
<wgt id='1102'> +1.3596032e+00 </wgt>
<wgt id='1103'> +1.3592340e+00 </wgt>
<wgt id='1104'> +1.3591304e+00 </wgt>
<wgt id='1105'> +1.3600659e+00 </wgt>
<wgt id='1106'> +1.3584641e+00 </wgt>
<wgt id='1107'> +1.3597218e+00 </wgt>
<wgt id='1108'> +1.3576369e+00 </wgt>
<wgt id='1109'> +1.3587485e+00 </wgt>
<wgt id='1110'> +1.3579308e+00 </wgt>
<wgt id='1111'> +1.3574439e+00 </wgt>
<wgt id='1112'> +1.3571798e+00 </wgt>
<wgt id='1113'> +1.3591026e+00 </wgt>
<wgt id='1114'> +1.3577738e+00 </wgt>
<wgt id='1115'> +1.3585730e+00 </wgt>
<wgt id='1116'> +1.3576262e+00 </wgt>
<wgt id='1117'> +1.3584996e+00 </wgt>
<wgt id='1118'> +1.3573252e+00 </wgt>
<wgt id='1119'> +1.3577986e+00 </wgt>
<wgt id='1120'> +1.3588873e+00 </wgt>
<wgt id='1121'> +1.3574678e+00 </wgt>
<wgt id='1122'> +1.3582703e+00 </wgt>
<wgt id='1123'> +1.3577166e+00 </wgt>
<wgt id='1124'> +1.3589258e+00 </wgt>
<wgt id='1125'> +1.3597019e+00 </wgt>
<wgt id='1126'> +1.3586515e+00 </wgt>
<wgt id='1127'> +1.3585669e+00 </wgt>
<wgt id='1128'> +1.3585539e+00 </wgt>
<wgt id='1129'> +1.3573449e+00 </wgt>
<wgt id='1130'> +1.3580744e+00 </wgt>
<wgt id='1131'> +1.3581816e+00 </wgt>
<wgt id='1132'> +1.3587805e+00 </wgt>
<wgt id='1133'> +1.3584787e+00 </wgt>
<wgt id='1134'> +1.3574248e+00 </wgt>
<wgt id='1135'> +1.3576505e+00 </wgt>
<wgt id='1136'> +1.3570600e+00 </wgt>
<wgt id='1137'> +1.3578370e+00 </wgt>
<wgt id='1138'> +1.3589161e+00 </wgt>
<wgt id='1139'> +1.3584175e+00 </wgt>
<wgt id='1140'> +1.3588666e+00 </wgt>
<wgt id='1141'> +1.3582361e+00 </wgt>
<wgt id='1142'> +1.3579577e+00 </wgt>
<wgt id='1143'> +1.3592525e+00 </wgt>
<wgt id='1144'> +1.3580302e+00 </wgt>
<wgt id='1145'> +1.3582427e+00 </wgt>
<wgt id='1146'> +1.3583144e+00 </wgt>
<wgt id='1147'> +1.3585902e+00 </wgt>
<wgt id='1148'> +1.3581722e+00 </wgt>
<wgt id='1149'> +1.3642106e+00 </wgt>
<wgt id='1150'> +1.3744461e+00 </wgt>
<wgt id='1151'> +1.3817168e+00 </wgt>
<wgt id='1152'> +1.3859768e+00 </wgt>
<wgt id='1153'> +1.3407868e+00 </wgt>
<wgt id='1154'> +1.3465592e+00 </wgt>
<wgt id='1155'> +1.3811842e+00 </wgt>
<wgt id='1156'> +1.3877095e+00 </wgt>
<wgt id='1157'> +1.3695869e+00 </wgt>
<wgt id='1158'> +1.3700074e+00 </wgt>
<wgt id='1159'> +1.3165705e+00 </wgt>
<wgt id='1160'> +1.3734913e+00 </wgt>
<wgt id='1161'> +1.3663090e+00 </wgt>
<wgt id='1162'> +1.3502540e+00 </wgt>
<wgt id='1163'> +1.3852951e+00 </wgt>
<wgt id='1164'> +1.3713928e+00 </wgt>
<wgt id='1165'> +1.3662944e+00 </wgt>
<wgt id='1166'> +1.3676052e+00 </wgt>
<wgt id='1167'> +1.3696312e+00 </wgt>
<wgt id='1168'> +1.3626815e+00 </wgt>
<wgt id='1169'> +1.3455680e+00 </wgt>
<wgt id='1170'> +1.3579258e+00 </wgt>
<wgt id='1171'> +1.3554500e+00 </wgt>
<wgt id='1172'> +1.3692697e+00 </wgt>
<wgt id='1173'> +1.3414377e+00 </wgt>
<wgt id='1174'> +1.3801065e+00 </wgt>
<wgt id='1175'> +1.3923106e+00 </wgt>
<wgt id='1176'> +1.3009904e+00 </wgt>
<wgt id='1177'> +1.3909513e+00 </wgt>
<wgt id='1178'> +1.3691758e+00 </wgt>
<wgt id='1179'> +1.3810819e+00 </wgt>
<wgt id='1180'> +1.3742947e+00 </wgt>
<wgt id='1181'> +1.3761205e+00 </wgt>
<wgt id='1182'> +1.3690895e+00 </wgt>
<wgt id='1183'> +1.3444215e+00 </wgt>
<wgt id='1184'> +1.3528706e+00 </wgt>
<wgt id='1185'> +1.3854516e+00 </wgt>
<wgt id='1186'> +1.3731311e+00 </wgt>
<wgt id='1187'> +1.3568960e+00 </wgt>
<wgt id='1188'> +1.3766851e+00 </wgt>
<wgt id='1189'> +1.3705393e+00 </wgt>
<wgt id='1190'> +1.3708997e+00 </wgt>
<wgt id='1191'> +1.3638987e+00 </wgt>
<wgt id='1192'> +1.3420087e+00 </wgt>
<wgt id='1193'> +1.3555505e+00 </wgt>
<wgt id='1194'> +1.3822891e+00 </wgt>
<wgt id='1195'> +1.3640814e+00 </wgt>
<wgt id='1196'> +1.3663540e+00 </wgt>
<wgt id='1197'> +1.3612767e+00 </wgt>
<wgt id='1198'> +1.3855749e+00 </wgt>
<wgt id='1199'> +1.3526958e+00 </wgt>
<wgt id='1200'> +1.3710175e+00 </wgt>
<wgt id='1201'> +1.3655464e+00 </wgt>
<wgt id='1202'> +1.3649752e+00 </wgt>
<wgt id='1203'> +1.3717623e+00 </wgt>
<wgt id='1204'> +1.3757053e+00 </wgt>
<wgt id='1205'> +1.3540383e+00 </wgt>
<wgt id='1206'> +1.3653469e+00 </wgt>
<wgt id='1207'> +1.3713420e+00 </wgt>
<wgt id='1208'> +1.3884549e+00 </wgt>
<wgt id='1209'> +1.3896395e+00 </wgt>
<wgt id='1210'> +1.3460388e+00 </wgt>
<wgt id='1211'> +1.3570130e+00 </wgt>
<wgt id='1212'> +1.3335701e+00 </wgt>
<wgt id='1213'> +1.3792985e+00 </wgt>
<wgt id='1214'> +1.3695755e+00 </wgt>
<wgt id='1215'> +1.4008078e+00 </wgt>
<wgt id='1216'> +1.3591810e+00 </wgt>
<wgt id='1217'> +1.3706605e+00 </wgt>
<wgt id='1218'> +1.3715637e+00 </wgt>
<wgt id='1219'> +1.3376256e+00 </wgt>
<wgt id='1220'> +1.3713803e+00 </wgt>
<wgt id='1221'> +1.3531577e+00 </wgt>
<wgt id='1222'> +1.3548332e+00 </wgt>
<wgt id='1223'> +1.3570340e+00 </wgt>
<wgt id='1224'> +1.3666776e+00 </wgt>
<wgt id='1225'> +1.3882851e+00 </wgt>
<wgt id='1226'> +1.3247547e+00 </wgt>
<wgt id='1227'> +1.3991862e+00 </wgt>
<wgt id='1228'> +1.3607669e+00 </wgt>
<wgt id='1229'> +1.3474668e+00 </wgt>
<wgt id='1230'> +1.3341939e+00 </wgt>
<wgt id='1231'> +1.3662944e+00 </wgt>
<wgt id='1232'> +1.3230570e+00 </wgt>
<wgt id='1233'> +1.3585412e+00 </wgt>
<wgt id='1234'> +1.3933683e+00 </wgt>
<wgt id='1235'> +1.3502088e+00 </wgt>
<wgt id='1236'> +1.3759550e+00 </wgt>
<wgt id='1237'> +1.3384010e+00 </wgt>
<wgt id='1238'> +1.3214029e+00 </wgt>
<wgt id='1239'> +1.3710224e+00 </wgt>
<wgt id='1240'> +1.3756223e+00 </wgt>
<wgt id='1241'> +1.3695195e+00 </wgt>
<wgt id='1242'> +1.3583160e+00 </wgt>
<wgt id='1243'> +1.3553127e+00 </wgt>
<wgt id='1244'> +1.3503156e+00 </wgt>
<wgt id='1245'> +1.3730010e+00 </wgt>
<wgt id='1246'> +1.3422446e+00 </wgt>
<wgt id='1247'> +1.3774907e+00 </wgt>
<wgt id='1248'> +1.3727798e+00 </wgt>
<wgt id='1249'> +1.3669931e+00 </wgt>
<wgt id='1250'> +1.3143347e+00 </wgt>
<wgt id='1251'> +1.3051206e+00 </wgt>
<wgt id='1252'> +1.3409289e+00 </wgt>
<wgt id='1253'> +1.3270128e+00 </wgt>
<wgt id='1254'> +1.1366953e+00 </wgt>
<wgt id='1255'> +1.3291296e+00 </wgt>
<wgt id='1256'> +1.3341414e+00 </wgt>
<wgt id='1257'> +1.3262272e+00 </wgt>
<wgt id='1258'> +1.3259905e+00 </wgt>
<wgt id='1259'> +1.3307385e+00 </wgt>
<wgt id='1260'> +1.3305887e+00 </wgt>
<wgt id='1261'> +1.3271289e+00 </wgt>
<wgt id='1262'> +1.3303504e+00 </wgt>
<wgt id='1263'> +1.3283491e+00 </wgt>
<wgt id='1264'> +1.3285507e+00 </wgt>
<wgt id='1265'> +1.3295587e+00 </wgt>
<wgt id='1266'> +1.3300780e+00 </wgt>
<wgt id='1267'> +1.3281871e+00 </wgt>
<wgt id='1268'> +1.3401865e+00 </wgt>
<wgt id='1269'> +1.3180407e+00 </wgt>
<wgt id='1270'> +1.3266138e+00 </wgt>
<wgt id='1271'> +1.3302509e+00 </wgt>
<wgt id='1272'> +1.3292043e+00 </wgt>
<wgt id='1273'> +1.3290373e+00 </wgt>
<wgt id='1274'> +1.3288158e+00 </wgt>
<wgt id='1275'> +1.3297578e+00 </wgt>
<wgt id='1276'> +1.3261385e+00 </wgt>
<wgt id='1277'> +1.3323006e+00 </wgt>
<wgt id='1278'> +1.3218628e+00 </wgt>
<wgt id='1279'> +1.3347320e+00 </wgt>
<wgt id='1280'> +1.3260368e+00 </wgt>
<wgt id='1281'> +1.3369055e+00 </wgt>
<wgt id='1282'> +1.3380378e+00 </wgt>
<wgt id='1283'> +1.3185172e+00 </wgt>
<wgt id='1284'> +1.3268628e+00 </wgt>
<wgt id='1285'> +1.3301696e+00 </wgt>
<wgt id='1286'> +1.3287164e+00 </wgt>
<wgt id='1287'> +1.3290751e+00 </wgt>
<wgt id='1288'> +1.3291568e+00 </wgt>
<wgt id='1289'> +1.3288848e+00 </wgt>
<wgt id='1290'> +1.3311346e+00 </wgt>
<wgt id='1291'> +1.3284150e+00 </wgt>
<wgt id='1292'> +1.3342370e+00 </wgt>
<wgt id='1293'> +1.3210433e+00 </wgt>
<wgt id='1294'> +1.3212849e+00 </wgt>
<wgt id='1295'> +1.3301678e+00 </wgt>
<wgt id='1296'> +1.3407003e+00 </wgt>
<wgt id='1297'> +1.3440613e+00 </wgt>
<wgt id='1298'> +1.3379709e+00 </wgt>
<wgt id='1299'> +1.3394355e+00 </wgt>
<wgt id='1300'> +1.3420799e+00 </wgt>
<wgt id='1301'> +1.3380779e+00 </wgt>
<wgt id='1302'> +1.3446237e+00 </wgt>
<wgt id='1303'> +1.3378517e+00 </wgt>
<wgt id='1304'> +1.3425915e+00 </wgt>
<wgt id='1305'> +1.3413516e+00 </wgt>
<wgt id='1306'> +1.3397417e+00 </wgt>
<wgt id='1307'> +1.3442118e+00 </wgt>
<wgt id='1308'> +1.3384645e+00 </wgt>
<wgt id='1309'> +1.3417739e+00 </wgt>
<wgt id='1310'> +1.3392728e+00 </wgt>
<wgt id='1311'> +1.3511680e+00 </wgt>
<wgt id='1312'> +1.3369175e+00 </wgt>
<wgt id='1313'> +1.3422256e+00 </wgt>
<wgt id='1314'> +1.3382365e+00 </wgt>
<wgt id='1315'> +1.3407487e+00 </wgt>
<wgt id='1316'> +1.3405795e+00 </wgt>
<wgt id='1317'> +1.3358782e+00 </wgt>
<wgt id='1318'> +1.3497213e+00 </wgt>
<wgt id='1319'> +1.3460644e+00 </wgt>
<wgt id='1320'> +1.3378670e+00 </wgt>
<wgt id='1321'> +1.3363131e+00 </wgt>
<wgt id='1322'> +1.3427844e+00 </wgt>
<wgt id='1323'> +1.3389254e+00 </wgt>
<wgt id='1324'> +1.3424645e+00 </wgt>
<wgt id='1325'> +1.3408401e+00 </wgt>
<wgt id='1326'> +1.3402145e+00 </wgt>
<wgt id='1327'> +1.3426758e+00 </wgt>
<wgt id='1328'> +1.3399456e+00 </wgt>
<wgt id='1329'> +1.3421272e+00 </wgt>
<wgt id='1330'> +1.3399044e+00 </wgt>
<wgt id='1331'> +1.3361428e+00 </wgt>
<wgt id='1332'> +1.3433832e+00 </wgt>
<wgt id='1333'> +1.3498199e+00 </wgt>
<wgt id='1334'> +1.3286163e+00 </wgt>
<wgt id='1335'> +1.3425534e+00 </wgt>
<wgt id='1336'> +1.3402093e+00 </wgt>
<wgt id='1337'> +1.3407003e+00 </wgt>
<wgt id='1338'> +1.3396122e+00 </wgt>
<wgt id='1339'> +1.3401042e+00 </wgt>
<wgt id='1340'> +1.3405255e+00 </wgt>
<wgt id='1341'> +1.3411577e+00 </wgt>
<wgt id='1342'> +1.3414484e+00 </wgt>
<wgt id='1343'> +1.3416493e+00 </wgt>
<wgt id='1344'> +1.3304786e+00 </wgt>
<wgt id='1345'> +1.3348309e+00 </wgt>
<wgt id='1346'> +1.3261959e+00 </wgt>
<wgt id='1347'> +1.3339211e+00 </wgt>
<wgt id='1348'> +1.3278977e+00 </wgt>
<wgt id='1349'> +1.3269723e+00 </wgt>
<wgt id='1350'> +1.3334868e+00 </wgt>
<wgt id='1351'> +1.3304633e+00 </wgt>
<wgt id='1352'> +1.3305350e+00 </wgt>
<wgt id='1353'> +1.3331969e+00 </wgt>
<wgt id='1354'> +1.3285835e+00 </wgt>
<wgt id='1355'> +1.3285509e+00 </wgt>
<wgt id='1356'> +1.3319878e+00 </wgt>
<wgt id='1357'> +1.3295950e+00 </wgt>
<wgt id='1358'> +1.3309798e+00 </wgt>
<wgt id='1359'> +1.3263145e+00 </wgt>
<wgt id='1360'> +1.3408411e+00 </wgt>
<wgt id='1361'> +1.3368297e+00 </wgt>
<wgt id='1362'> +1.3262546e+00 </wgt>
<wgt id='1363'> +1.3312364e+00 </wgt>
<wgt id='1364'> +1.3296805e+00 </wgt>
<wgt id='1365'> +1.3338105e+00 </wgt>
<wgt id='1366'> +1.3293964e+00 </wgt>
<wgt id='1367'> +1.3243471e+00 </wgt>
<wgt id='1368'> +1.3333387e+00 </wgt>
<wgt id='1369'> +1.3288653e+00 </wgt>
<wgt id='1370'> +1.3317519e+00 </wgt>
<wgt id='1371'> +1.3315425e+00 </wgt>
<wgt id='1372'> +1.3295147e+00 </wgt>
<wgt id='1373'> +1.3348073e+00 </wgt>
<wgt id='1374'> +1.3290654e+00 </wgt>
<wgt id='1375'> +1.3338609e+00 </wgt>
<wgt id='1376'> +1.3296132e+00 </wgt>
<wgt id='1377'> +1.3307062e+00 </wgt>
<wgt id='1378'> +1.3303687e+00 </wgt>
<wgt id='1379'> +1.3353240e+00 </wgt>
<wgt id='1380'> +1.3258269e+00 </wgt>
<wgt id='1381'> +1.3246325e+00 </wgt>
<wgt id='1382'> +1.3299453e+00 </wgt>
<wgt id='1383'> +1.3300781e+00 </wgt>
<wgt id='1384'> +1.3314950e+00 </wgt>
<wgt id='1385'> +1.3304786e+00 </wgt>
<wgt id='1386'> +1.3288068e+00 </wgt>
<wgt id='1387'> +1.3295437e+00 </wgt>
<wgt id='1388'> +1.3300125e+00 </wgt>
<wgt id='1389'> +1.3307850e+00 </wgt>
<wgt id='1390'> +1.3310838e+00 </wgt>
<wgt id='1391'> +1.3312085e+00 </wgt>
<wgt id='1392'> +1.3840372e+00 </wgt>
<wgt id='1393'> +1.3838739e+00 </wgt>
<wgt id='1394'> +1.3842287e+00 </wgt>
<wgt id='1395'> +1.3853867e+00 </wgt>
<wgt id='1396'> +1.3830914e+00 </wgt>
<wgt id='1397'> +1.3884162e+00 </wgt>
<wgt id='1398'> +1.3798309e+00 </wgt>
<wgt id='1399'> +1.3843448e+00 </wgt>
<wgt id='1400'> +1.3836876e+00 </wgt>
<wgt id='1401'> +1.3802809e+00 </wgt>
<wgt id='1402'> +1.3886763e+00 </wgt>
<wgt id='1403'> +1.3840506e+00 </wgt>
<wgt id='1404'> +1.3840514e+00 </wgt>
<wgt id='1405'> +1.3815063e+00 </wgt>
<wgt id='1406'> +1.3875777e+00 </wgt>
<wgt id='1407'> +1.3833970e+00 </wgt>
<wgt id='1408'> +1.3845046e+00 </wgt>
<wgt id='1409'> +1.3899448e+00 </wgt>
<wgt id='1410'> +1.3772490e+00 </wgt>
<wgt id='1411'> +1.3815364e+00 </wgt>
<wgt id='1412'> +1.3859938e+00 </wgt>
<wgt id='1413'> +1.3844202e+00 </wgt>
<wgt id='1414'> +1.3836741e+00 </wgt>
<wgt id='1415'> +1.3930253e+00 </wgt>
<wgt id='1416'> +1.3750062e+00 </wgt>
<wgt id='1417'> +1.3824791e+00 </wgt>
<wgt id='1418'> +1.3859283e+00 </wgt>
<wgt id='1419'> +1.3861613e+00 </wgt>
<wgt id='1420'> +1.3824749e+00 </wgt>
<wgt id='1421'> +1.3890888e+00 </wgt>
<wgt id='1422'> +1.3785123e+00 </wgt>
<wgt id='1423'> +1.3843899e+00 </wgt>
<wgt id='1424'> +1.3831486e+00 </wgt>
<wgt id='1425'> +1.3853406e+00 </wgt>
<wgt id='1426'> +1.3827539e+00 </wgt>
<wgt id='1427'> +1.3823053e+00 </wgt>
<wgt id='1428'> +1.3814299e+00 </wgt>
<wgt id='1429'> +1.3818733e+00 </wgt>
<wgt id='1430'> +1.3860366e+00 </wgt>
<wgt id='1431'> +1.3824422e+00 </wgt>
<wgt id='1432'> +1.3851979e+00 </wgt>
<wgt id='1433'> +1.3784821e+00 </wgt>
<wgt id='1434'> +1.3909164e+00 </wgt>
<wgt id='1435'> +1.3850025e+00 </wgt>
<wgt id='1436'> +1.3831684e+00 </wgt>
<wgt id='1437'> +1.3815373e+00 </wgt>
<wgt id='1438'> +1.3902292e+00 </wgt>
<wgt id='1439'> +1.3924477e+00 </wgt>
<wgt id='1440'> +1.3688900e+00 </wgt>
<wgt id='1441'> +1.3874055e+00 </wgt>
<wgt id='1442'> +1.3843641e+00 </wgt>
<wgt id='1443'> +1.3646306e+00 </wgt>
<wgt id='1444'> +1.3644620e+00 </wgt>
<wgt id='1445'> +1.3647966e+00 </wgt>
<wgt id='1446'> +1.3660460e+00 </wgt>
<wgt id='1447'> +1.3636779e+00 </wgt>
<wgt id='1448'> +1.3691597e+00 </wgt>
<wgt id='1449'> +1.3604379e+00 </wgt>
<wgt id='1450'> +1.3647575e+00 </wgt>
<wgt id='1451'> +1.3644835e+00 </wgt>
<wgt id='1452'> +1.3607550e+00 </wgt>
<wgt id='1453'> +1.3683751e+00 </wgt>
<wgt id='1454'> +1.3643086e+00 </wgt>
<wgt id='1455'> +1.3653166e+00 </wgt>
<wgt id='1456'> +1.3615948e+00 </wgt>
<wgt id='1457'> +1.3700549e+00 </wgt>
<wgt id='1458'> +1.3643931e+00 </wgt>
<wgt id='1459'> +1.3647808e+00 </wgt>
<wgt id='1460'> +1.3700782e+00 </wgt>
<wgt id='1461'> +1.3580178e+00 </wgt>
<wgt id='1462'> +1.3608901e+00 </wgt>
<wgt id='1463'> +1.3678351e+00 </wgt>
<wgt id='1464'> +1.3652598e+00 </wgt>
<wgt id='1465'> +1.3638088e+00 </wgt>
<wgt id='1466'> +1.3766060e+00 </wgt>
<wgt id='1467'> +1.3565283e+00 </wgt>
<wgt id='1468'> +1.3646186e+00 </wgt>
<wgt id='1469'> +1.3647955e+00 </wgt>
<wgt id='1470'> +1.3668028e+00 </wgt>
<wgt id='1471'> +1.3632950e+00 </wgt>
<wgt id='1472'> +1.3687648e+00 </wgt>
<wgt id='1473'> +1.3599143e+00 </wgt>
<wgt id='1474'> +1.3653023e+00 </wgt>
<wgt id='1475'> +1.3632755e+00 </wgt>
<wgt id='1476'> +1.3665151e+00 </wgt>
<wgt id='1477'> +1.3631501e+00 </wgt>
<wgt id='1478'> +1.3631940e+00 </wgt>
<wgt id='1479'> +1.3618229e+00 </wgt>
<wgt id='1480'> +1.3628441e+00 </wgt>
<wgt id='1481'> +1.3663279e+00 </wgt>
<wgt id='1482'> +1.3629729e+00 </wgt>
<wgt id='1483'> +1.3660061e+00 </wgt>
<wgt id='1484'> +1.3591909e+00 </wgt>
<wgt id='1485'> +1.3712587e+00 </wgt>
<wgt id='1486'> +1.3666745e+00 </wgt>
<wgt id='1487'> +1.3629974e+00 </wgt>
<wgt id='1488'> +1.3619578e+00 </wgt>
<wgt id='1489'> +1.3709718e+00 </wgt>
<wgt id='1490'> +1.3755088e+00 </wgt>
<wgt id='1491'> +1.3484289e+00 </wgt>
<wgt id='1492'> +1.3702064e+00 </wgt>
<wgt id='1493'> +1.3643033e+00 </wgt>
<wgt id='1494'> +1.3281209e+00 </wgt>
<wgt id='1495'> +1.3015028e+00 </wgt>
<wgt id='1496'> +1.3106572e+00 </wgt>
<wgt id='1497'> +1.3195070e+00 </wgt>
<wgt id='1498'> +1.3359330e+00 </wgt>
<wgt id='1499'> +1.3278145e+00 </wgt>
<wgt id='1500'> +1.3359248e+00 </wgt>
<wgt id='1501'> +1.3345602e+00 </wgt>
<wgt id='1502'> +1.3330079e+00 </wgt>
<wgt id='1503'> +1.3313704e+00 </wgt>
<wgt id='1504'> +1.3297491e+00 </wgt>
<wgt id='1505'> +1.3261742e+00 </wgt>
<wgt id='1506'> +1.3242464e+00 </wgt>
<wgt id='1507'> +1.3223284e+00 </wgt>
<wgt id='1508'> +1.3278145e+00 </wgt>
<wgt id='1509'> +1.3277587e+00 </wgt>
<wgt id='1510'> +1.3277709e+00 </wgt>
<wgt id='1511'> +1.3279469e+00 </wgt>
<wgt id='1512'> +1.3280373e+00 </wgt>
<wgt id='1513'> +1.3292572e+00 </wgt>
<wgt id='1514'> +1.3284709e+00 </wgt>
<wgt id='1515'> +1.3302790e+00 </wgt>
<wgt id='1516'> +1.3311314e+00 </wgt>
<wgt id='1517'> +1.3274172e+00 </wgt>
<wgt id='1518'> +1.3324593e+00 </wgt>
<wgt id='1519'> +1.3279911e+00 </wgt>
<wgt id='1520'> +1.3315545e+00 </wgt>
<wgt id='1521'> +1.3269383e+00 </wgt>
<wgt id='1522'> +1.3272299e+00 </wgt>
<wgt id='1523'> +1.3312644e+00 </wgt>
<wgt id='1524'> +1.3332008e+00 </wgt>
<wgt id='1525'> +1.3275476e+00 </wgt>
<wgt id='1526'> +1.3282332e+00 </wgt>
<wgt id='1527'> +1.3304942e+00 </wgt>
<wgt id='1528'> +1.3269165e+00 </wgt>
<wgt id='1529'> +1.3318243e+00 </wgt>
<wgt id='1530'> +1.3377605e+00 </wgt>
<wgt id='1531'> +1.3244477e+00 </wgt>
<wgt id='1532'> +1.3350251e+00 </wgt>
<wgt id='1533'> +1.3213493e+00 </wgt>
<wgt id='1534'> +1.3260766e+00 </wgt>
<wgt id='1535'> +1.3314727e+00 </wgt>
<wgt id='1536'> +1.3304944e+00 </wgt>
<wgt id='1537'> +1.3282054e+00 </wgt>
<wgt id='1538'> +1.3254423e+00 </wgt>
<wgt id='1539'> +1.3383554e+00 </wgt>
<wgt id='1540'> +1.3299895e+00 </wgt>
<wgt id='1541'> +1.3282820e+00 </wgt>
<wgt id='1542'> +1.3264153e+00 </wgt>
<wgt id='1543'> +1.3376361e+00 </wgt>
<wgt id='1544'> +1.3282325e+00 </wgt>
<wgt id='1545'> +1.3294808e+00 </wgt>
<wgt id='1546'> +1.3268188e+00 </wgt>
<wgt id='1547'> +1.3320472e+00 </wgt>
<wgt id='1548'> +1.3285847e+00 </wgt>
<wgt id='1549'> +1.3274285e+00 </wgt>
<wgt id='1550'> +1.3295679e+00 </wgt>
<wgt id='1551'> +1.3282065e+00 </wgt>
<wgt id='1552'> +1.3270768e+00 </wgt>
<wgt id='1553'> +1.3304472e+00 </wgt>
<wgt id='1554'> +1.3307664e+00 </wgt>
<wgt id='1555'> +1.3242190e+00 </wgt>
<wgt id='1556'> +1.3305737e+00 </wgt>
<wgt id='1557'> +1.3262004e+00 </wgt>
<wgt id='1558'> +1.3192130e+00 </wgt>
<wgt id='1559'> +1.3354819e+00 </wgt>
<wgt id='1560'> +1.3375578e+00 </wgt>
<wgt id='1561'> +1.3253270e+00 </wgt>
<wgt id='1562'> +1.3223896e+00 </wgt>
<wgt id='1563'> +1.3327078e+00 </wgt>
<wgt id='1564'> +1.3292572e+00 </wgt>
<wgt id='1565'> +1.3198988e+00 </wgt>
<wgt id='1566'> +1.3340585e+00 </wgt>
<wgt id='1567'> +1.3268705e+00 </wgt>
<wgt id='1568'> +1.3346097e+00 </wgt>
<wgt id='1569'> +1.3333903e+00 </wgt>
<wgt id='1570'> +1.3317476e+00 </wgt>
<wgt id='1571'> +1.3299555e+00 </wgt>
<wgt id='1572'> +1.3285512e+00 </wgt>
<wgt id='1573'> +1.3250129e+00 </wgt>
<wgt id='1574'> +1.3224200e+00 </wgt>
<wgt id='1575'> +1.3206165e+00 </wgt>
<wgt id='1576'> +1.3268705e+00 </wgt>
<wgt id='1577'> +1.3263921e+00 </wgt>
<wgt id='1578'> +1.3266409e+00 </wgt>
<wgt id='1579'> +1.3270668e+00 </wgt>
<wgt id='1580'> +1.3272959e+00 </wgt>
<wgt id='1581'> +1.3265767e+00 </wgt>
<wgt id='1582'> +1.3279566e+00 </wgt>
<wgt id='1583'> +1.3318254e+00 </wgt>
<wgt id='1584'> +1.3204535e+00 </wgt>
<wgt id='1585'> +1.3306048e+00 </wgt>
<wgt id='1586'> +1.3153097e+00 </wgt>
<wgt id='1587'> +1.3166866e+00 </wgt>
<wgt id='1588'> +1.3371403e+00 </wgt>
<wgt id='1589'> +1.3258896e+00 </wgt>
<wgt id='1590'> +1.3311257e+00 </wgt>
<wgt id='1591'> +1.3236854e+00 </wgt>
<wgt id='1592'> +1.3268683e+00 </wgt>
<wgt id='1593'> +1.3290532e+00 </wgt>
<wgt id='1594'> +1.3263953e+00 </wgt>
<wgt id='1595'> +1.3252031e+00 </wgt>
<wgt id='1596'> +1.3365094e+00 </wgt>
<wgt id='1597'> +1.3307059e+00 </wgt>
<wgt id='1598'> +1.3260426e+00 </wgt>
<wgt id='1599'> +1.3277856e+00 </wgt>
<wgt id='1600'> +1.3319963e+00 </wgt>
<wgt id='1601'> +1.3239863e+00 </wgt>
<wgt id='1602'> +1.3297957e+00 </wgt>
<wgt id='1603'> +1.3283018e+00 </wgt>
<wgt id='1604'> +1.3269951e+00 </wgt>
<wgt id='1605'> +1.3252949e+00 </wgt>
<wgt id='1606'> +1.3281188e+00 </wgt>
<wgt id='1607'> +1.3282435e+00 </wgt>
<wgt id='1608'> +1.3268754e+00 </wgt>
<wgt id='1609'> +1.3292956e+00 </wgt>
<wgt id='1610'> +1.3251722e+00 </wgt>
<wgt id='1611'> +1.3344204e+00 </wgt>
<wgt id='1612'> +1.3498253e+00 </wgt>
<wgt id='1613'> +1.3491847e+00 </wgt>
<wgt id='1614'> +1.3508397e+00 </wgt>
<wgt id='1615'> +1.3511108e+00 </wgt>
<wgt id='1616'> +1.3498937e+00 </wgt>
<wgt id='1617'> +1.3490282e+00 </wgt>
<wgt id='1618'> +1.3504064e+00 </wgt>
<wgt id='1619'> +1.3453008e+00 </wgt>
<wgt id='1620'> +1.3465537e+00 </wgt>
<wgt id='1621'> +1.3513919e+00 </wgt>
<wgt id='1622'> +1.3520388e+00 </wgt>
<wgt id='1623'> +1.3482618e+00 </wgt>
<wgt id='1624'> +1.3489236e+00 </wgt>
<wgt id='1625'> +1.3508625e+00 </wgt>
<wgt id='1626'> +1.3558927e+00 </wgt>
<wgt id='1627'> +1.3496927e+00 </wgt>
<wgt id='1628'> +1.3508701e+00 </wgt>
<wgt id='1629'> +1.3509693e+00 </wgt>
<wgt id='1630'> +1.3514826e+00 </wgt>
<wgt id='1631'> +1.3509415e+00 </wgt>
<wgt id='1632'> +1.3547026e+00 </wgt>
<wgt id='1633'> +1.3486054e+00 </wgt>
<wgt id='1634'> +1.3553394e+00 </wgt>
<wgt id='1635'> +1.3481352e+00 </wgt>
<wgt id='1636'> +1.3493243e+00 </wgt>
<wgt id='1637'> +1.3548940e+00 </wgt>
<wgt id='1638'> +1.3494220e+00 </wgt>
<wgt id='1639'> +1.3524654e+00 </wgt>
<wgt id='1640'> +1.3501665e+00 </wgt>
<wgt id='1641'> +1.3378351e+00 </wgt>
<wgt id='1642'> +1.3477403e+00 </wgt>
<wgt id='1643'> +1.3503440e+00 </wgt>
<wgt id='1644'> +1.3460372e+00 </wgt>
<wgt id='1645'> +1.3479332e+00 </wgt>
<wgt id='1646'> +1.3518696e+00 </wgt>
<wgt id='1647'> +1.3478080e+00 </wgt>
<wgt id='1648'> +1.3491836e+00 </wgt>
<wgt id='1649'> +1.3512252e+00 </wgt>
<wgt id='1650'> +1.3488046e+00 </wgt>
<wgt id='1651'> +1.3505269e+00 </wgt>
<wgt id='1652'> +1.3492847e+00 </wgt>
<wgt id='1653'> +1.3500319e+00 </wgt>
<wgt id='1654'> +1.3484189e+00 </wgt>
<wgt id='1655'> +1.3523927e+00 </wgt>
<wgt id='1656'> +1.3506772e+00 </wgt>
<wgt id='1657'> +1.3489026e+00 </wgt>
<wgt id='1658'> +1.3520131e+00 </wgt>
<wgt id='1659'> +1.3537810e+00 </wgt>
<wgt id='1660'> +1.3495480e+00 </wgt>
<wgt id='1661'> +1.3498837e+00 </wgt>
<wgt id='1662'> +1.3486107e+00 </wgt>
<wgt id='1663'> +1.3505441e+00 </wgt>
<wgt id='1664'> +1.3497115e+00 </wgt>
<wgt id='1665'> +1.3494334e+00 </wgt>
<wgt id='1666'> +1.3499152e+00 </wgt>
<wgt id='1667'> +1.3486884e+00 </wgt>
<wgt id='1668'> +1.3498218e+00 </wgt>
<wgt id='1669'> +1.3497932e+00 </wgt>
<wgt id='1670'> +1.3490987e+00 </wgt>
<wgt id='1671'> +1.3497908e+00 </wgt>
<wgt id='1672'> +1.3531971e+00 </wgt>
<wgt id='1673'> +1.3501881e+00 </wgt>
<wgt id='1674'> +1.3502643e+00 </wgt>
<wgt id='1675'> +1.3499267e+00 </wgt>
<wgt id='1676'> +1.3489788e+00 </wgt>
<wgt id='1677'> +1.3504441e+00 </wgt>
<wgt id='1678'> +1.3492740e+00 </wgt>
<wgt id='1679'> +1.3505002e+00 </wgt>
<wgt id='1680'> +1.3517857e+00 </wgt>
<wgt id='1681'> +1.3504982e+00 </wgt>
<wgt id='1682'> +1.3491256e+00 </wgt>
<wgt id='1683'> +1.3494054e+00 </wgt>
<wgt id='1684'> +1.3501540e+00 </wgt>
<wgt id='1685'> +1.3504342e+00 </wgt>
<wgt id='1686'> +1.3490391e+00 </wgt>
<wgt id='1687'> +1.3488317e+00 </wgt>
<wgt id='1688'> +1.3497841e+00 </wgt>
<wgt id='1689'> +1.3495879e+00 </wgt>
<wgt id='1690'> +1.3505379e+00 </wgt>
<wgt id='1691'> +1.3486111e+00 </wgt>
<wgt id='1692'> +1.3511309e+00 </wgt>
<wgt id='1693'> +1.3503885e+00 </wgt>
<wgt id='1694'> +1.3502158e+00 </wgt>
<wgt id='1695'> +1.3500523e+00 </wgt>
<wgt id='1696'> +1.3505234e+00 </wgt>
<wgt id='1697'> +1.3494267e+00 </wgt>
<wgt id='1698'> +1.3490451e+00 </wgt>
<wgt id='1699'> +1.3491380e+00 </wgt>
<wgt id='1700'> +1.3490548e+00 </wgt>
<wgt id='1701'> +1.3503750e+00 </wgt>
<wgt id='1702'> +1.3506159e+00 </wgt>
<wgt id='1703'> +1.3487080e+00 </wgt>
<wgt id='1704'> +1.3501706e+00 </wgt>
<wgt id='1705'> +1.3493525e+00 </wgt>
<wgt id='1706'> +1.3505705e+00 </wgt>
<wgt id='1707'> +1.3498270e+00 </wgt>
<wgt id='1708'> +1.3504667e+00 </wgt>
<wgt id='1709'> +1.3501573e+00 </wgt>
<wgt id='1710'> +1.3500294e+00 </wgt>
<wgt id='1711'> +1.3503226e+00 </wgt>
<wgt id='1712'> +1.3499830e+00 </wgt>
<wgt id='1713'> +1.3236900e+00 </wgt>
<wgt id='1714'> +1.3711593e+00 </wgt>
<wgt id='1715'> +1.3689095e+00 </wgt>
<wgt id='1716'> +1.3588493e+00 </wgt>
<wgt id='1717'> +1.3634981e+00 </wgt>
<wgt id='1718'> +1.3511062e+00 </wgt>
<wgt id='1719'> +1.3484986e+00 </wgt>
<wgt id='1720'> +1.3910171e+00 </wgt>
<wgt id='1721'> +1.3350279e+00 </wgt>
<wgt id='1722'> +1.3770052e+00 </wgt>
<wgt id='1723'> +1.3928451e+00 </wgt>
<wgt id='1724'> +1.3694512e+00 </wgt>
<wgt id='1725'> +1.3941544e+00 </wgt>
<wgt id='1726'> +1.3905169e+00 </wgt>
<wgt id='1727'> +1.3731998e+00 </wgt>
<wgt id='1728'> +1.3702316e+00 </wgt>
<wgt id='1729'> +1.3735188e+00 </wgt>
<wgt id='1730'> +1.3659689e+00 </wgt>
<wgt id='1731'> +1.2745888e+00 </wgt>
<wgt id='1732'> +1.4143616e+00 </wgt>
<wgt id='1733'> +1.3772498e+00 </wgt>
<wgt id='1734'> +1.3539745e+00 </wgt>
<wgt id='1735'> +1.3183949e+00 </wgt>
<wgt id='1736'> +1.3491094e+00 </wgt>
<wgt id='1737'> +1.3742763e+00 </wgt>
<wgt id='1738'> +1.3772857e+00 </wgt>
<wgt id='1739'> +1.3752073e+00 </wgt>
<wgt id='1740'> +1.3648504e+00 </wgt>
<wgt id='1741'> +1.3516124e+00 </wgt>
<wgt id='1742'> +1.4013840e+00 </wgt>
<wgt id='1743'> +1.3425679e+00 </wgt>
<wgt id='1744'> +1.3727871e+00 </wgt>
<wgt id='1745'> +1.3280472e+00 </wgt>
<wgt id='1746'> +1.3600178e+00 </wgt>
<wgt id='1747'> +1.3628257e+00 </wgt>
<wgt id='1748'> +1.3392172e+00 </wgt>
<wgt id='1749'> +1.4024792e+00 </wgt>
<wgt id='1750'> +1.3718536e+00 </wgt>
<wgt id='1751'> +1.3743250e+00 </wgt>
<wgt id='1752'> +1.3413667e+00 </wgt>
<wgt id='1753'> +1.3492254e+00 </wgt>
<wgt id='1754'> +1.3752820e+00 </wgt>
<wgt id='1755'> +1.3761936e+00 </wgt>
<wgt id='1756'> +1.3551666e+00 </wgt>
<wgt id='1757'> +1.3483095e+00 </wgt>
<wgt id='1758'> +1.3617644e+00 </wgt>
<wgt id='1759'> +1.3568794e+00 </wgt>
<wgt id='1760'> +1.3461800e+00 </wgt>
<wgt id='1761'> +1.3781348e+00 </wgt>
<wgt id='1762'> +1.3731998e+00 </wgt>
<wgt id='1763'> +1.3775819e+00 </wgt>
<wgt id='1764'> +1.3933311e+00 </wgt>
<wgt id='1765'> +1.3901734e+00 </wgt>
<wgt id='1766'> +1.4005747e+00 </wgt>
<wgt id='1767'> +1.3411876e+00 </wgt>
<wgt id='1768'> +1.3416207e+00 </wgt>
<wgt id='1769'> +1.3835973e+00 </wgt>
<wgt id='1770'> +1.4055209e+00 </wgt>
<wgt id='1771'> +1.3732838e+00 </wgt>
<wgt id='1772'> +1.3522100e+00 </wgt>
<wgt id='1773'> +1.3706710e+00 </wgt>
<wgt id='1774'> +1.3314087e+00 </wgt>
<wgt id='1775'> +1.3703694e+00 </wgt>
<wgt id='1776'> +1.3733916e+00 </wgt>
<wgt id='1777'> +1.3911312e+00 </wgt>
<wgt id='1778'> +1.3416206e+00 </wgt>
<wgt id='1779'> +1.3520403e+00 </wgt>
<wgt id='1780'> +1.4007816e+00 </wgt>
<wgt id='1781'> +1.3745489e+00 </wgt>
<wgt id='1782'> +1.4004688e+00 </wgt>
<wgt id='1783'> +1.3416684e+00 </wgt>
<wgt id='1784'> +1.3915047e+00 </wgt>
<wgt id='1785'> +1.3785004e+00 </wgt>
<wgt id='1786'> +1.3940167e+00 </wgt>
<wgt id='1787'> +1.3894572e+00 </wgt>
<wgt id='1788'> +1.3506219e+00 </wgt>
<wgt id='1789'> +1.3767690e+00 </wgt>
<wgt id='1790'> +1.3999820e+00 </wgt>
<wgt id='1791'> +1.3175514e+00 </wgt>
<wgt id='1792'> +1.3980063e+00 </wgt>
<wgt id='1793'> +1.3925990e+00 </wgt>
<wgt id='1794'> +1.3627147e+00 </wgt>
<wgt id='1795'> +1.3728647e+00 </wgt>
<wgt id='1796'> +1.3864046e+00 </wgt>
<wgt id='1797'> +1.3629086e+00 </wgt>
<wgt id='1798'> +1.3943843e+00 </wgt>
<wgt id='1799'> +1.3710742e+00 </wgt>
<wgt id='1800'> +1.3763922e+00 </wgt>
<wgt id='1801'> +1.3568782e+00 </wgt>
<wgt id='1802'> +1.3807822e+00 </wgt>
<wgt id='1803'> +1.3746197e+00 </wgt>
<wgt id='1804'> +1.3919101e+00 </wgt>
<wgt id='1805'> +1.3601794e+00 </wgt>
<wgt id='1806'> +1.3715166e+00 </wgt>
<wgt id='1807'> +1.3395838e+00 </wgt>
<wgt id='1808'> +1.3550648e+00 </wgt>
<wgt id='1809'> +1.3589316e+00 </wgt>
<wgt id='1810'> +1.3595628e+00 </wgt>
<wgt id='1811'> +1.3816024e+00 </wgt>
<wgt id='1812'> +1.3602377e+00 </wgt>
<wgt id='1813'> +1.3868829e+00 </wgt>
<wgt id='1814'> +1.3842671e+00 </wgt>
<wgt id='1815'> +1.4008053e+00 </wgt>
<wgt id='1816'> +1.3487498e+00 </wgt>
<wgt id='1817'> +1.3714820e+00 </wgt>
<wgt id='1818'> +1.3338069e+00 </wgt>
<wgt id='1819'> +1.3640332e+00 </wgt>
<wgt id='1820'> +1.3592683e+00 </wgt>
<wgt id='1821'> +1.3893121e+00 </wgt>
<wgt id='1822'> +1.3781966e+00 </wgt>
<wgt id='1823'> +1.3406228e+00 </wgt>
<wgt id='1824'> +1.3405977e+00 </wgt>
<wgt id='1825'> +1.3491897e+00 </wgt>
<wgt id='1826'> +1.3199116e+00 </wgt>
<wgt id='1827'> +1.3026909e+00 </wgt>
<wgt id='1828'> +1.3797968e+00 </wgt>
<wgt id='1829'> +1.3793891e+00 </wgt>
<wgt id='1830'> +1.3156498e+00 </wgt>
<wgt id='1831'> +1.3581050e+00 </wgt>
<wgt id='1832'> +1.3383251e+00 </wgt>
<wgt id='1833'> +1.3300703e+00 </wgt>
<wgt id='1834'> +1.3319549e+00 </wgt>
<wgt id='1835'> +1.3614135e+00 </wgt>
<wgt id='1836'> +1.3499698e+00 </wgt>
<wgt id='1837'> +1.3725993e+00 </wgt>
<wgt id='1838'> +1.3203188e+00 </wgt>
<wgt id='1839'> +1.4218906e+00 </wgt>
<wgt id='1840'> +1.3428085e+00 </wgt>
<wgt id='1841'> +1.3497397e+00 </wgt>
<wgt id='1842'> +1.3602405e+00 </wgt>
<wgt id='1843'> +1.3175887e+00 </wgt>
<wgt id='1844'> +1.3332367e+00 </wgt>
<wgt id='1845'> +1.3436203e+00 </wgt>
<wgt id='1846'> +1.3688177e+00 </wgt>
<wgt id='1847'> +1.3385288e+00 </wgt>
<wgt id='1848'> +1.3273846e+00 </wgt>
<wgt id='1849'> +1.3320468e+00 </wgt>
<wgt id='1850'> +1.3624642e+00 </wgt>
<wgt id='1851'> +1.3431989e+00 </wgt>
<wgt id='1852'> +1.3665605e+00 </wgt>
<wgt id='1853'> +1.3358664e+00 </wgt>
<wgt id='1854'> +1.3676545e+00 </wgt>
<wgt id='1855'> +1.3450968e+00 </wgt>
<wgt id='1856'> +1.3405595e+00 </wgt>
<wgt id='1857'> +1.3787936e+00 </wgt>
<wgt id='1858'> +1.3602562e+00 </wgt>
<wgt id='1859'> +1.3525357e+00 </wgt>
<wgt id='1860'> +1.3410144e+00 </wgt>
<wgt id='1861'> +1.3269845e+00 </wgt>
<wgt id='1862'> +1.3828059e+00 </wgt>
<wgt id='1863'> +1.3413006e+00 </wgt>
<wgt id='1864'> +1.3448391e+00 </wgt>
<wgt id='1865'> +1.3376274e+00 </wgt>
<wgt id='1866'> +1.3489189e+00 </wgt>
<wgt id='1867'> +1.3580353e+00 </wgt>
<wgt id='1868'> +1.3475481e+00 </wgt>
<wgt id='1869'> +1.3696506e+00 </wgt>
<wgt id='1870'> +1.3557293e+00 </wgt>
<wgt id='1871'> +1.3466203e+00 </wgt>
<wgt id='1872'> +1.3257279e+00 </wgt>
<wgt id='1873'> +1.3788425e+00 </wgt>
<wgt id='1874'> +1.3483316e+00 </wgt>
<wgt id='1875'> +1.3385390e+00 </wgt>
<wgt id='1876'> +1.3552847e+00 </wgt>
<wgt id='1877'> +1.3550781e+00 </wgt>
<wgt id='1878'> +1.3470589e+00 </wgt>
<wgt id='1879'> +1.3712291e+00 </wgt>
<wgt id='1880'> +1.2862756e+00 </wgt>
<wgt id='1881'> +1.3488818e+00 </wgt>
<wgt id='1882'> +1.3274388e+00 </wgt>
<wgt id='1883'> +1.4097213e+00 </wgt>
<wgt id='1884'> +1.3409744e+00 </wgt>
<wgt id='1885'> +1.3231315e+00 </wgt>
<wgt id='1886'> +1.3128038e+00 </wgt>
<wgt id='1887'> +1.3616451e+00 </wgt>
<wgt id='1888'> +1.3709528e+00 </wgt>
<wgt id='1889'> +1.3329339e+00 </wgt>
<wgt id='1890'> +1.3759861e+00 </wgt>
<wgt id='1891'> +1.3482839e+00 </wgt>
<wgt id='1892'> +1.3532733e+00 </wgt>
<wgt id='1893'> +1.3383166e+00 </wgt>
<wgt id='1894'> +1.3718111e+00 </wgt>
<wgt id='1895'> +1.3531891e+00 </wgt>
<wgt id='1896'> +1.3364213e+00 </wgt>
<wgt id='1897'> +1.3432244e+00 </wgt>
<wgt id='1898'> +1.3466494e+00 </wgt>
<wgt id='1899'> +1.3492824e+00 </wgt>
<wgt id='1900'> +1.3388988e+00 </wgt>
<wgt id='1901'> +1.3306970e+00 </wgt>
<wgt id='1902'> +1.3240849e+00 </wgt>
<wgt id='1903'> +1.3468228e+00 </wgt>
<wgt id='1904'> +1.3619501e+00 </wgt>
<wgt id='1905'> +1.3642398e+00 </wgt>
<wgt id='1906'> +1.3289113e+00 </wgt>
<wgt id='1907'> +1.3469401e+00 </wgt>
<wgt id='1908'> +1.3419792e+00 </wgt>
<wgt id='1909'> +1.3363952e+00 </wgt>
<wgt id='1910'> +1.3530153e+00 </wgt>
<wgt id='1911'> +1.3024680e+00 </wgt>
<wgt id='1912'> +1.3521461e+00 </wgt>
<wgt id='1913'> +1.3398302e+00 </wgt>
<wgt id='1914'> +1.3780145e+00 </wgt>
<wgt id='1915'> +1.3645209e+00 </wgt>
<wgt id='1916'> +1.3313291e+00 </wgt>
<wgt id='1917'> +1.2880845e+00 </wgt>
<wgt id='1918'> +1.3695227e+00 </wgt>
<wgt id='1919'> +1.3487498e+00 </wgt>
<wgt id='1920'> +1.3714820e+00 </wgt>
<wgt id='1921'> +1.3338069e+00 </wgt>
<wgt id='1922'> +1.3640332e+00 </wgt>
<wgt id='1923'> +1.3592683e+00 </wgt>
<wgt id='1924'> +1.3893121e+00 </wgt>
<wgt id='1925'> +1.3781966e+00 </wgt>
<wgt id='1926'> +1.3406228e+00 </wgt>
<wgt id='1927'> +1.3405977e+00 </wgt>
<wgt id='1928'> +1.3491897e+00 </wgt>
<wgt id='1929'> +1.3199116e+00 </wgt>
<wgt id='1930'> +1.3026909e+00 </wgt>
<wgt id='1931'> +1.3797968e+00 </wgt>
<wgt id='1932'> +1.3793891e+00 </wgt>
<wgt id='1933'> +1.3156498e+00 </wgt>
<wgt id='1934'> +1.3581050e+00 </wgt>
<wgt id='1935'> +1.3383251e+00 </wgt>
<wgt id='1936'> +1.3300703e+00 </wgt>
<wgt id='1937'> +1.3319549e+00 </wgt>
<wgt id='1938'> +1.3614135e+00 </wgt>
<wgt id='1939'> +1.3499698e+00 </wgt>
<wgt id='1940'> +1.3725993e+00 </wgt>
<wgt id='1941'> +1.3203188e+00 </wgt>
<wgt id='1942'> +1.4218906e+00 </wgt>
<wgt id='1943'> +1.3428085e+00 </wgt>
<wgt id='1944'> +1.3497397e+00 </wgt>
<wgt id='1945'> +1.3602405e+00 </wgt>
<wgt id='1946'> +1.3175887e+00 </wgt>
<wgt id='1947'> +1.3332367e+00 </wgt>
<wgt id='1948'> +1.3436203e+00 </wgt>
<wgt id='1949'> +1.3688177e+00 </wgt>
<wgt id='1950'> +1.3385288e+00 </wgt>
<wgt id='1951'> +1.3273846e+00 </wgt>
<wgt id='1952'> +1.3320468e+00 </wgt>
<wgt id='1953'> +1.3624642e+00 </wgt>
<wgt id='1954'> +1.3431989e+00 </wgt>
<wgt id='1955'> +1.3665605e+00 </wgt>
<wgt id='1956'> +1.3358664e+00 </wgt>
<wgt id='1957'> +1.3676545e+00 </wgt>
<wgt id='1958'> +1.3450968e+00 </wgt>
<wgt id='1959'> +1.3405595e+00 </wgt>
<wgt id='1960'> +1.3787936e+00 </wgt>
<wgt id='1961'> +1.3602562e+00 </wgt>
<wgt id='1962'> +1.3525357e+00 </wgt>
<wgt id='1963'> +1.3410144e+00 </wgt>
<wgt id='1964'> +1.3269845e+00 </wgt>
<wgt id='1965'> +1.3828059e+00 </wgt>
<wgt id='1966'> +1.3413006e+00 </wgt>
<wgt id='1967'> +1.3448391e+00 </wgt>
<wgt id='1968'> +1.3376274e+00 </wgt>
<wgt id='1969'> +1.3489189e+00 </wgt>
<wgt id='1970'> +1.3580353e+00 </wgt>
<wgt id='1971'> +1.3475481e+00 </wgt>
<wgt id='1972'> +1.3696506e+00 </wgt>
<wgt id='1973'> +1.3557293e+00 </wgt>
<wgt id='1974'> +1.3466203e+00 </wgt>
<wgt id='1975'> +1.3257279e+00 </wgt>
<wgt id='1976'> +1.3788425e+00 </wgt>
<wgt id='1977'> +1.3483316e+00 </wgt>
<wgt id='1978'> +1.3385390e+00 </wgt>
<wgt id='1979'> +1.3552847e+00 </wgt>
<wgt id='1980'> +1.3550781e+00 </wgt>
<wgt id='1981'> +1.3470589e+00 </wgt>
<wgt id='1982'> +1.3712291e+00 </wgt>
<wgt id='1983'> +1.2862756e+00 </wgt>
<wgt id='1984'> +1.3488818e+00 </wgt>
<wgt id='1985'> +1.3274388e+00 </wgt>
<wgt id='1986'> +1.4097213e+00 </wgt>
<wgt id='1987'> +1.3409744e+00 </wgt>
<wgt id='1988'> +1.3231315e+00 </wgt>
<wgt id='1989'> +1.3128038e+00 </wgt>
<wgt id='1990'> +1.3616451e+00 </wgt>
<wgt id='1991'> +1.3709528e+00 </wgt>
<wgt id='1992'> +1.3329339e+00 </wgt>
<wgt id='1993'> +1.3759861e+00 </wgt>
<wgt id='1994'> +1.3482839e+00 </wgt>
<wgt id='1995'> +1.3532733e+00 </wgt>
<wgt id='1996'> +1.3383166e+00 </wgt>
<wgt id='1997'> +1.3718111e+00 </wgt>
<wgt id='1998'> +1.3531891e+00 </wgt>
<wgt id='1999'> +1.3364213e+00 </wgt>
<wgt id='2000'> +1.3432244e+00 </wgt>
<wgt id='2001'> +1.3466494e+00 </wgt>
<wgt id='2002'> +1.3492824e+00 </wgt>
<wgt id='2003'> +1.3388988e+00 </wgt>
<wgt id='2004'> +1.3306970e+00 </wgt>
<wgt id='2005'> +1.3240849e+00 </wgt>
<wgt id='2006'> +1.3468228e+00 </wgt>
<wgt id='2007'> +1.3619501e+00 </wgt>
<wgt id='2008'> +1.3642398e+00 </wgt>
<wgt id='2009'> +1.3289113e+00 </wgt>
<wgt id='2010'> +1.3469401e+00 </wgt>
<wgt id='2011'> +1.3419792e+00 </wgt>
<wgt id='2012'> +1.3363952e+00 </wgt>
<wgt id='2013'> +1.3530153e+00 </wgt>
<wgt id='2014'> +1.3024680e+00 </wgt>
<wgt id='2015'> +1.3521461e+00 </wgt>
<wgt id='2016'> +1.3398302e+00 </wgt>
<wgt id='2017'> +1.3780145e+00 </wgt>
<wgt id='2018'> +1.3645209e+00 </wgt>
<wgt id='2019'> +1.3313291e+00 </wgt>
<wgt id='2020'> +1.3427257e+00 </wgt>
<wgt id='2021'> +1.3565956e+00 </wgt>
<wgt id='2022'> +1.3453472e+00 </wgt>
</rwgt>
</event>
<event>
 13 2 0.0079112 9.55089200e+01 7.81860800e-03 1.33820100e-01
        1 -1    0    0  501    0 +0.0000000000e+00 +0.0000000000e+00 +2.0441348762e+03 2.0441348762e+03 5.0400000000e-03 0.0000e+00 -1.0000e+00
       21 -1    0    0  502  503 +0.0000000000e+00 +0.0000000000e+00 -2.6993417017e+02 2.6993417017e+02 0.0000000000e+00 0.0000e+00 -1.0000e+00
 -8000001  2    1    2    0  503 -6.8226510037e+00 -6.1913208247e+00 +1.2275497253e+03 1.3663686182e+03 5.9999999299e+02 0.0000e+00 0.0000e+00
        2  1    1    2  501    0 +8.7294494494e+00 -8.1481092275e+00 +7.4683983190e+02 7.4693529137e+02 2.5500000000e-03 0.0000e+00 -1.0000e+00
        5  1    1    2  502    0 -1.9067984457e+00 +1.4339430052e+01 -2.0018885118e+02 2.0076513684e+02 4.6700000000e+00 0.0000e+00 -1.0000e+00
       -6  2    3    3    0  503 -1.0638472666e+02 -7.6494188382e+01 +1.1863714238e+02 2.4704385898e+02 1.7258860271e+02 0.0000e+00 0.0000e+00
       -5  1    6    6    0  503 +3.7064822728e+01 -8.5177134688e+00 +1.3931900055e+01 4.0770813904e+01 4.6700000000e+00 0.0000e+00 1.0000e+00
      -24  2    6    6    0    0 -1.4344954939e+02 -6.7976474913e+01 +1.0470524232e+02 2.0627304507e+02 7.9917501168e+01 0.0000e+00 0.0000e+00
        3  1    8    8  504    0 -3.6832701372e+01 -4.0868245754e+01 +7.3701151110e+01 9.1971361180e+01 1.0100000000e-01 0.0000e+00 -1.0000e+00
       -4  1    8    8    0  504 -1.0661684802e+02 -2.7108229160e+01 +3.1004091211e+01 1.1430168389e+02 1.2700000000e+00 0.0000e+00 1.0000e+00
       23  2    3    3    0    0 +9.9562075656e+01 +7.0302867558e+01 +1.1089125829e+03 1.1193247592e+03 9.1354801953e+01 0.0000e+00 0.0000e+00
       16  1   11   11    0    0 +7.8067266736e+01 +8.6764852794e+01 +7.1321955155e+02 7.2270655631e+02 0.0000000000e+00 0.0000e+00 -1.0000e+00
      -16  1   11   11    0    0 +2.1494808920e+01 -1.6461985237e+01 +3.9569303138e+02 3.9661820287e+02 0.0000000000e+00 0.0000e+00 1.0000e+00
<mgrwt>
<rscale>  1 0.33771319e+02</rscale>
<asrwt>0</asrwt>
<pdfrwt beam="1">  1       21 0.41528335e-01 0.95508917e+02</pdfrwt>
<pdfrwt beam="2">  1        1 0.31448228e+00 0.11941314e+02</pdfrwt>
<totfact> 0.34471297e+02</totfact>
</mgrwt>
<rwgt>
<wgt id='1001'> +1.3581722e+00 </wgt>
<wgt id='1002'> +5.5309889e-01 </wgt>
<wgt id='1003'> +5.5278795e-01 </wgt>
<wgt id='1004'> +6.7378838e-01 </wgt>
<wgt id='1005'> +3.8825591e-01 </wgt>
<wgt id='1006'> +1.2005613e+00 </wgt>
<wgt id='1007'> +5.0805903e-01 </wgt>
<wgt id='1008'> +5.0778468e-01 </wgt>
<wgt id='1009'> +6.1380939e-01 </wgt>
<wgt id='1010'> +3.6121401e-01 </wgt>
<wgt id='1011'> +1.5657336e+00 </wgt>
<wgt id='1012'> +6.0716207e-01 </wgt>
<wgt id='1013'> +6.0680416e-01 </wgt>
<wgt id='1014'> +7.4718856e-01 </wgt>
<wgt id='1015'> +4.1978024e-01 </wgt>
<wgt id='1016'> +1.1734633e+00 </wgt>
<wgt id='1017'> +5.0106672e-01 </wgt>
<wgt id='1018'> +5.0079398e-01 </wgt>
<wgt id='1019'> +6.0680416e-01 </wgt>
<wgt id='1020'> +3.5536108e-01 </wgt>
<wgt id='1021'> +1.0372872e+00 </wgt>
<wgt id='1022'> +4.6026394e-01 </wgt>
<wgt id='1023'> +4.6002362e-01 </wgt>
<wgt id='1024'> +5.5278795e-01 </wgt>
<wgt id='1025'> +3.3061029e-01 </wgt>
<wgt id='1026'> +1.3527967e+00 </wgt>
<wgt id='1027'> +5.5004397e-01 </wgt>
<wgt id='1028'> +5.4972956e-01 </wgt>
<wgt id='1029'> +6.7290731e-01 </wgt>
<wgt id='1030'> +3.8421452e-01 </wgt>
<wgt id='1031'> +1.6012423e+00 </wgt>
<wgt id='1032'> +6.1416588e-01 </wgt>
<wgt id='1033'> +6.1380939e-01 </wgt>
<wgt id='1034'> +7.5299588e-01 </wgt>
<wgt id='1035'> +4.2631429e-01 </wgt>
<wgt id='1036'> +1.4154240e+00 </wgt>
<wgt id='1037'> +5.6415323e-01 </wgt>
<wgt id='1038'> +5.6383829e-01 </wgt>
<wgt id='1039'> +6.8596603e-01 </wgt>
<wgt id='1040'> +3.9662164e-01 </wgt>
<wgt id='1041'> +1.8459506e+00 </wgt>
<wgt id='1042'> +6.7419811e-01 </wgt>
<wgt id='1043'> +6.7378838e-01 </wgt>
<wgt id='1044'> +8.3502464e-01 </wgt>
<wgt id='1045'> +4.6092876e-01 </wgt>
<wgt id='1046'> +1.3581722e+00 </wgt>
<wgt id='1047'> +1.3581722e+00 </wgt>
<wgt id='1048'> +1.3581722e+00 </wgt>
<wgt id='1049'> +1.3592631e+00 </wgt>
<wgt id='1050'> +1.3486808e+00 </wgt>
<wgt id='1051'> +1.3681395e+00 </wgt>
<wgt id='1052'> +1.3501343e+00 </wgt>
<wgt id='1053'> +1.3723549e+00 </wgt>
<wgt id='1054'> +1.3514162e+00 </wgt>
<wgt id='1055'> +1.3507449e+00 </wgt>
<wgt id='1056'> +1.3621678e+00 </wgt>
<wgt id='1057'> +1.3577656e+00 </wgt>
<wgt id='1058'> +1.3689895e+00 </wgt>
<wgt id='1059'> +1.3541234e+00 </wgt>
<wgt id='1060'> +1.3638165e+00 </wgt>
<wgt id='1061'> +1.3618175e+00 </wgt>
<wgt id='1062'> +1.3552750e+00 </wgt>
<wgt id='1063'> +1.3593322e+00 </wgt>
<wgt id='1064'> +1.3607870e+00 </wgt>
<wgt id='1065'> +1.3552216e+00 </wgt>
<wgt id='1066'> +1.3597203e+00 </wgt>
<wgt id='1067'> +1.3614116e+00 </wgt>
<wgt id='1068'> +1.3590325e+00 </wgt>
<wgt id='1069'> +1.3578803e+00 </wgt>
<wgt id='1070'> +1.3593794e+00 </wgt>
<wgt id='1071'> +1.3510698e+00 </wgt>
<wgt id='1072'> +1.3662286e+00 </wgt>
<wgt id='1073'> +1.3472420e+00 </wgt>
<wgt id='1074'> +1.3603164e+00 </wgt>
<wgt id='1075'> +1.3606520e+00 </wgt>
<wgt id='1076'> +1.3749116e+00 </wgt>
<wgt id='1077'> +1.3640353e+00 </wgt>
<wgt id='1078'> +1.3505199e+00 </wgt>
<wgt id='1079'> +1.3633886e+00 </wgt>
<wgt id='1080'> +1.3611799e+00 </wgt>
<wgt id='1081'> +1.3575204e+00 </wgt>
<wgt id='1082'> +1.3597779e+00 </wgt>
<wgt id='1083'> +1.3632977e+00 </wgt>
<wgt id='1084'> +1.3451028e+00 </wgt>
<wgt id='1085'> +1.3557227e+00 </wgt>
<wgt id='1086'> +1.3502796e+00 </wgt>
<wgt id='1087'> +1.3622600e+00 </wgt>
<wgt id='1088'> +1.3625121e+00 </wgt>
<wgt id='1089'> +1.3611933e+00 </wgt>
<wgt id='1090'> +1.3458254e+00 </wgt>
<wgt id='1091'> +1.3563153e+00 </wgt>
<wgt id='1092'> +1.3524731e+00 </wgt>
<wgt id='1093'> +1.3525608e+00 </wgt>
<wgt id='1094'> +1.3598627e+00 </wgt>
<wgt id='1095'> +1.3603882e+00 </wgt>
<wgt id='1096'> +1.3572372e+00 </wgt>
<wgt id='1097'> +1.3730763e+00 </wgt>
<wgt id='1098'> +1.3594785e+00 </wgt>
<wgt id='1099'> +1.3536360e+00 </wgt>
<wgt id='1100'> +1.3580193e+00 </wgt>
<wgt id='1101'> +1.3597586e+00 </wgt>
<wgt id='1102'> +1.3585571e+00 </wgt>
<wgt id='1103'> +1.3525317e+00 </wgt>
<wgt id='1104'> +1.3571111e+00 </wgt>
<wgt id='1105'> +1.3525387e+00 </wgt>
<wgt id='1106'> +1.3641981e+00 </wgt>
<wgt id='1107'> +1.3606803e+00 </wgt>
<wgt id='1108'> +1.3541615e+00 </wgt>
<wgt id='1109'> +1.3601812e+00 </wgt>
<wgt id='1110'> +1.3589327e+00 </wgt>
<wgt id='1111'> +1.3536108e+00 </wgt>
<wgt id='1112'> +1.3573243e+00 </wgt>
<wgt id='1113'> +1.3592099e+00 </wgt>
<wgt id='1114'> +1.3606481e+00 </wgt>
<wgt id='1115'> +1.3588615e+00 </wgt>
<wgt id='1116'> +1.3591384e+00 </wgt>
<wgt id='1117'> +1.3549248e+00 </wgt>
<wgt id='1118'> +1.3546322e+00 </wgt>
<wgt id='1119'> +1.3569784e+00 </wgt>
<wgt id='1120'> +1.3578321e+00 </wgt>
<wgt id='1121'> +1.3637748e+00 </wgt>
<wgt id='1122'> +1.3641609e+00 </wgt>
<wgt id='1123'> +1.3559555e+00 </wgt>
<wgt id='1124'> +1.3583461e+00 </wgt>
<wgt id='1125'> +1.3586651e+00 </wgt>
<wgt id='1126'> +1.3607259e+00 </wgt>
<wgt id='1127'> +1.3601817e+00 </wgt>
<wgt id='1128'> +1.3569873e+00 </wgt>
<wgt id='1129'> +1.3606092e+00 </wgt>
<wgt id='1130'> +1.3588076e+00 </wgt>
<wgt id='1131'> +1.3605378e+00 </wgt>
<wgt id='1132'> +1.3573409e+00 </wgt>
<wgt id='1133'> +1.3564914e+00 </wgt>
<wgt id='1134'> +1.3575925e+00 </wgt>
<wgt id='1135'> +1.3579948e+00 </wgt>
<wgt id='1136'> +1.3602667e+00 </wgt>
<wgt id='1137'> +1.3556376e+00 </wgt>
<wgt id='1138'> +1.3605656e+00 </wgt>
<wgt id='1139'> +1.3579618e+00 </wgt>
<wgt id='1140'> +1.3568553e+00 </wgt>
<wgt id='1141'> +1.3589994e+00 </wgt>
<wgt id='1142'> +1.3595606e+00 </wgt>
<wgt id='1143'> +1.3568800e+00 </wgt>
<wgt id='1144'> +1.3592864e+00 </wgt>
<wgt id='1145'> +1.3608318e+00 </wgt>
<wgt id='1146'> +1.3587864e+00 </wgt>
<wgt id='1147'> +1.3602055e+00 </wgt>
<wgt id='1148'> +1.3581722e+00 </wgt>
<wgt id='1149'> +1.3205137e+00 </wgt>
<wgt id='1150'> +1.3666177e+00 </wgt>
<wgt id='1151'> +1.3310670e+00 </wgt>
<wgt id='1152'> +1.3081784e+00 </wgt>
<wgt id='1153'> +1.3823362e+00 </wgt>
<wgt id='1154'> +1.3702001e+00 </wgt>
<wgt id='1155'> +1.3291712e+00 </wgt>
<wgt id='1156'> +1.3247556e+00 </wgt>
<wgt id='1157'> +1.3112827e+00 </wgt>
<wgt id='1158'> +1.3550276e+00 </wgt>
<wgt id='1159'> +1.2675157e+00 </wgt>
<wgt id='1160'> +1.2870841e+00 </wgt>
<wgt id='1161'> +1.4202266e+00 </wgt>
<wgt id='1162'> +1.2546353e+00 </wgt>
<wgt id='1163'> +1.3371760e+00 </wgt>
<wgt id='1164'> +1.3034702e+00 </wgt>
<wgt id='1165'> +1.3619779e+00 </wgt>
<wgt id='1166'> +1.3139737e+00 </wgt>
<wgt id='1167'> +1.3538451e+00 </wgt>
<wgt id='1168'> +1.3587264e+00 </wgt>
<wgt id='1169'> +1.3164654e+00 </wgt>
<wgt id='1170'> +1.3478800e+00 </wgt>
<wgt id='1171'> +1.2984441e+00 </wgt>
<wgt id='1172'> +1.3934749e+00 </wgt>
<wgt id='1173'> +1.3463032e+00 </wgt>
<wgt id='1174'> +1.4397122e+00 </wgt>
<wgt id='1175'> +1.3537857e+00 </wgt>
<wgt id='1176'> +1.2685808e+00 </wgt>
<wgt id='1177'> +1.3428302e+00 </wgt>
<wgt id='1178'> +1.3411804e+00 </wgt>
<wgt id='1179'> +1.2141588e+00 </wgt>
<wgt id='1180'> +1.2261603e+00 </wgt>
<wgt id='1181'> +1.3195434e+00 </wgt>
<wgt id='1182'> +1.3359798e+00 </wgt>
<wgt id='1183'> +1.2904802e+00 </wgt>
<wgt id='1184'> +1.2411461e+00 </wgt>
<wgt id='1185'> +1.2848988e+00 </wgt>
<wgt id='1186'> +1.3310837e+00 </wgt>
<wgt id='1187'> +1.2532766e+00 </wgt>
<wgt id='1188'> +1.2093432e+00 </wgt>
<wgt id='1189'> +1.2594279e+00 </wgt>
<wgt id='1190'> +1.3496894e+00 </wgt>
<wgt id='1191'> +1.3702501e+00 </wgt>
<wgt id='1192'> +1.3328946e+00 </wgt>
<wgt id='1193'> +1.3091891e+00 </wgt>
<wgt id='1194'> +1.3334654e+00 </wgt>
<wgt id='1195'> +1.3026129e+00 </wgt>
<wgt id='1196'> +1.3117329e+00 </wgt>
<wgt id='1197'> +1.3226035e+00 </wgt>
<wgt id='1198'> +1.3234983e+00 </wgt>
<wgt id='1199'> +1.3366101e+00 </wgt>
<wgt id='1200'> +1.3562361e+00 </wgt>
<wgt id='1201'> +1.4045996e+00 </wgt>
<wgt id='1202'> +1.2794548e+00 </wgt>
<wgt id='1203'> +1.3877062e+00 </wgt>
<wgt id='1204'> +1.2244945e+00 </wgt>
<wgt id='1205'> +1.3427772e+00 </wgt>
<wgt id='1206'> +1.3553919e+00 </wgt>
<wgt id='1207'> +1.2790555e+00 </wgt>
<wgt id='1208'> +1.3424941e+00 </wgt>
<wgt id='1209'> +1.4010079e+00 </wgt>
<wgt id='1210'> +1.2824239e+00 </wgt>
<wgt id='1211'> +1.3652954e+00 </wgt>
<wgt id='1212'> +1.2829424e+00 </wgt>
<wgt id='1213'> +1.2860713e+00 </wgt>
<wgt id='1214'> +1.3639884e+00 </wgt>
<wgt id='1215'> +1.3478648e+00 </wgt>
<wgt id='1216'> +1.3746465e+00 </wgt>
<wgt id='1217'> +1.3479061e+00 </wgt>
<wgt id='1218'> +1.3277684e+00 </wgt>
<wgt id='1219'> +1.2524339e+00 </wgt>
<wgt id='1220'> +1.3250442e+00 </wgt>
<wgt id='1221'> +1.3250502e+00 </wgt>
<wgt id='1222'> +1.3604995e+00 </wgt>
<wgt id='1223'> +1.3457980e+00 </wgt>
<wgt id='1224'> +1.2869143e+00 </wgt>
<wgt id='1225'> +1.2894312e+00 </wgt>
<wgt id='1226'> +1.2291843e+00 </wgt>
<wgt id='1227'> +1.3677362e+00 </wgt>
<wgt id='1228'> +1.3680460e+00 </wgt>
<wgt id='1229'> +1.1587847e+00 </wgt>
<wgt id='1230'> +1.3049602e+00 </wgt>
<wgt id='1231'> +1.3619779e+00 </wgt>
<wgt id='1232'> +1.2320154e+00 </wgt>
<wgt id='1233'> +1.3426342e+00 </wgt>
<wgt id='1234'> +1.3284267e+00 </wgt>
<wgt id='1235'> +1.2788832e+00 </wgt>
<wgt id='1236'> +1.3283001e+00 </wgt>
<wgt id='1237'> +1.2267523e+00 </wgt>
<wgt id='1238'> +1.2930654e+00 </wgt>
<wgt id='1239'> +1.2838585e+00 </wgt>
<wgt id='1240'> +1.3041783e+00 </wgt>
<wgt id='1241'> +1.3127274e+00 </wgt>
<wgt id='1242'> +1.3567503e+00 </wgt>
<wgt id='1243'> +1.3752199e+00 </wgt>
<wgt id='1244'> +1.3525934e+00 </wgt>
<wgt id='1245'> +1.2979629e+00 </wgt>
<wgt id='1246'> +1.3545846e+00 </wgt>
<wgt id='1247'> +1.2796047e+00 </wgt>
<wgt id='1248'> +1.3830857e+00 </wgt>
<wgt id='1249'> +1.3386102e+00 </wgt>
<wgt id='1250'> +1.2837400e+00 </wgt>
<wgt id='1251'> +1.2664624e+00 </wgt>
<wgt id='1252'> +1.2814878e+00 </wgt>
<wgt id='1253'> +1.2969328e+00 </wgt>
<wgt id='1254'> +1.1568503e+00 </wgt>
<wgt id='1255'> +1.4212440e+00 </wgt>
<wgt id='1256'> +1.4206789e+00 </wgt>
<wgt id='1257'> +1.4215814e+00 </wgt>
<wgt id='1258'> +1.4241655e+00 </wgt>
<wgt id='1259'> +1.4197167e+00 </wgt>
<wgt id='1260'> +1.4161100e+00 </wgt>
<wgt id='1261'> +1.4281384e+00 </wgt>
<wgt id='1262'> +1.4188629e+00 </wgt>
<wgt id='1263'> +1.4226568e+00 </wgt>
<wgt id='1264'> +1.4527373e+00 </wgt>
<wgt id='1265'> +1.3997477e+00 </wgt>
<wgt id='1266'> +1.4200701e+00 </wgt>
<wgt id='1267'> +1.4224340e+00 </wgt>
<wgt id='1268'> +1.4159331e+00 </wgt>
<wgt id='1269'> +1.4260499e+00 </wgt>
<wgt id='1270'> +1.4231996e+00 </wgt>
<wgt id='1271'> +1.4167568e+00 </wgt>
<wgt id='1272'> +1.4049280e+00 </wgt>
<wgt id='1273'> +1.4336059e+00 </wgt>
<wgt id='1274'> +1.4219352e+00 </wgt>
<wgt id='1275'> +1.4200575e+00 </wgt>
<wgt id='1276'> +1.4032569e+00 </wgt>
<wgt id='1277'> +1.4404692e+00 </wgt>
<wgt id='1278'> +1.4104442e+00 </wgt>
<wgt id='1279'> +1.4288376e+00 </wgt>
<wgt id='1280'> +1.4200468e+00 </wgt>
<wgt id='1281'> +1.4240618e+00 </wgt>
<wgt id='1282'> +1.4413896e+00 </wgt>
<wgt id='1283'> +1.4016436e+00 </wgt>
<wgt id='1284'> +1.4274871e+00 </wgt>
<wgt id='1285'> +1.4150800e+00 </wgt>
<wgt id='1286'> +1.3966620e+00 </wgt>
<wgt id='1287'> +1.4230510e+00 </wgt>
<wgt id='1288'> +1.4225455e+00 </wgt>
<wgt id='1289'> +1.4200690e+00 </wgt>
<wgt id='1290'> +1.4256006e+00 </wgt>
<wgt id='1291'> +1.4196563e+00 </wgt>
<wgt id='1292'> +1.4293032e+00 </wgt>
<wgt id='1293'> +1.4106041e+00 </wgt>
<wgt id='1294'> +1.4082559e+00 </wgt>
<wgt id='1295'> +1.4268427e+00 </wgt>
<wgt id='1296'> +1.3357163e+00 </wgt>
<wgt id='1297'> +1.3388233e+00 </wgt>
<wgt id='1298'> +1.3332873e+00 </wgt>
<wgt id='1299'> +1.3365429e+00 </wgt>
<wgt id='1300'> +1.3347975e+00 </wgt>
<wgt id='1301'> +1.3355885e+00 </wgt>
<wgt id='1302'> +1.3360123e+00 </wgt>
<wgt id='1303'> +1.3362064e+00 </wgt>
<wgt id='1304'> +1.3354655e+00 </wgt>
<wgt id='1305'> +1.3342434e+00 </wgt>
<wgt id='1306'> +1.3378915e+00 </wgt>
<wgt id='1307'> +1.3296758e+00 </wgt>
<wgt id='1308'> +1.3395014e+00 </wgt>
<wgt id='1309'> +1.3164538e+00 </wgt>
<wgt id='1310'> +1.3622196e+00 </wgt>
<wgt id='1311'> +1.3280554e+00 </wgt>
<wgt id='1312'> +1.3384879e+00 </wgt>
<wgt id='1313'> +1.3410078e+00 </wgt>
<wgt id='1314'> +1.3287218e+00 </wgt>
<wgt id='1315'> +1.3501338e+00 </wgt>
<wgt id='1316'> +1.3216407e+00 </wgt>
<wgt id='1317'> +1.3291522e+00 </wgt>
<wgt id='1318'> +1.3479359e+00 </wgt>
<wgt id='1319'> +1.3490408e+00 </wgt>
<wgt id='1320'> +1.3263508e+00 </wgt>
<wgt id='1321'> +1.3310507e+00 </wgt>
<wgt id='1322'> +1.3374324e+00 </wgt>
<wgt id='1323'> +1.3420288e+00 </wgt>
<wgt id='1324'> +1.3230440e+00 </wgt>
<wgt id='1325'> +1.3358852e+00 </wgt>
<wgt id='1326'> +1.3353580e+00 </wgt>
<wgt id='1327'> +1.3338094e+00 </wgt>
<wgt id='1328'> +1.3361707e+00 </wgt>
<wgt id='1329'> +1.3349301e+00 </wgt>
<wgt id='1330'> +1.3357846e+00 </wgt>
<wgt id='1331'> +1.3236720e+00 </wgt>
<wgt id='1332'> +1.3420314e+00 </wgt>
<wgt id='1333'> +1.3461085e+00 </wgt>
<wgt id='1334'> +1.3226343e+00 </wgt>
<wgt id='1335'> +1.3349847e+00 </wgt>
<wgt id='1336'> +1.3357288e+00 </wgt>
<wgt id='1337'> +1.3357163e+00 </wgt>
<wgt id='1338'> +1.3347681e+00 </wgt>
<wgt id='1339'> +1.3351795e+00 </wgt>
<wgt id='1340'> +1.3356960e+00 </wgt>
<wgt id='1341'> +1.3361038e+00 </wgt>
<wgt id='1342'> +1.3364727e+00 </wgt>
<wgt id='1343'> +1.3366952e+00 </wgt>
<wgt id='1344'> +1.3131892e+00 </wgt>
<wgt id='1345'> +1.3165720e+00 </wgt>
<wgt id='1346'> +1.3098565e+00 </wgt>
<wgt id='1347'> +1.3109009e+00 </wgt>
<wgt id='1348'> +1.3147419e+00 </wgt>
<wgt id='1349'> +1.3125667e+00 </wgt>
<wgt id='1350'> +1.3135691e+00 </wgt>
<wgt id='1351'> +1.3127253e+00 </wgt>
<wgt id='1352'> +1.3138825e+00 </wgt>
<wgt id='1353'> +1.3118933e+00 </wgt>
<wgt id='1354'> +1.3139900e+00 </wgt>
<wgt id='1355'> +1.3389831e+00 </wgt>
<wgt id='1356'> +1.2931752e+00 </wgt>
<wgt id='1357'> +1.3208460e+00 </wgt>
<wgt id='1358'> +1.3085855e+00 </wgt>
<wgt id='1359'> +1.3157099e+00 </wgt>
<wgt id='1360'> +1.3069947e+00 </wgt>
<wgt id='1361'> +1.3321447e+00 </wgt>
<wgt id='1362'> +1.2993043e+00 </wgt>
<wgt id='1363'> +1.3018614e+00 </wgt>
<wgt id='1364'> +1.3254456e+00 </wgt>
<wgt id='1365'> +1.3221239e+00 </wgt>
<wgt id='1366'> +1.3087326e+00 </wgt>
<wgt id='1367'> +1.3054956e+00 </wgt>
<wgt id='1368'> +1.3158697e+00 </wgt>
<wgt id='1369'> +1.3050045e+00 </wgt>
<wgt id='1370'> +1.3193046e+00 </wgt>
<wgt id='1371'> +1.3073911e+00 </wgt>
<wgt id='1372'> +1.3118935e+00 </wgt>
<wgt id='1373'> +1.3238203e+00 </wgt>
<wgt id='1374'> +1.3083703e+00 </wgt>
<wgt id='1375'> +1.3131755e+00 </wgt>
<wgt id='1376'> +1.3127714e+00 </wgt>
<wgt id='1377'> +1.3139826e+00 </wgt>
<wgt id='1378'> +1.3115181e+00 </wgt>
<wgt id='1379'> +1.3192593e+00 </wgt>
<wgt id='1380'> +1.3053107e+00 </wgt>
<wgt id='1381'> +1.3060836e+00 </wgt>
<wgt id='1382'> +1.3134977e+00 </wgt>
<wgt id='1383'> +1.3126962e+00 </wgt>
<wgt id='1384'> +1.3105963e+00 </wgt>
<wgt id='1385'> +1.3131892e+00 </wgt>
<wgt id='1386'> +1.3116350e+00 </wgt>
<wgt id='1387'> +1.3120376e+00 </wgt>
<wgt id='1388'> +1.3126615e+00 </wgt>
<wgt id='1389'> +1.3132899e+00 </wgt>
<wgt id='1390'> +1.3135972e+00 </wgt>
<wgt id='1391'> +1.3138920e+00 </wgt>
<wgt id='1392'> +1.4741088e+00 </wgt>
<wgt id='1393'> +1.4744536e+00 </wgt>
<wgt id='1394'> +1.4737973e+00 </wgt>
<wgt id='1395'> +1.4752068e+00 </wgt>
<wgt id='1396'> +1.4734507e+00 </wgt>
<wgt id='1397'> +1.4791845e+00 </wgt>
<wgt id='1398'> +1.4693477e+00 </wgt>
<wgt id='1399'> +1.4711565e+00 </wgt>
<wgt id='1400'> +1.4779499e+00 </wgt>
<wgt id='1401'> +1.4780706e+00 </wgt>
<wgt id='1402'> +1.4693453e+00 </wgt>
<wgt id='1403'> +1.4685877e+00 </wgt>
<wgt id='1404'> +1.4853399e+00 </wgt>
<wgt id='1405'> +1.4810108e+00 </wgt>
<wgt id='1406'> +1.4647229e+00 </wgt>
<wgt id='1407'> +1.4978854e+00 </wgt>
<wgt id='1408'> +1.4578598e+00 </wgt>
<wgt id='1409'> +1.4813265e+00 </wgt>
<wgt id='1410'> +1.4662217e+00 </wgt>
<wgt id='1411'> +1.4667850e+00 </wgt>
<wgt id='1412'> +1.4798649e+00 </wgt>
<wgt id='1413'> +1.4643086e+00 </wgt>
<wgt id='1414'> +1.4842322e+00 </wgt>
<wgt id='1415'> +1.4746663e+00 </wgt>
<wgt id='1416'> +1.4733130e+00 </wgt>
<wgt id='1417'> +1.4744703e+00 </wgt>
<wgt id='1418'> +1.4737460e+00 </wgt>
<wgt id='1419'> +1.4545311e+00 </wgt>
<wgt id='1420'> +1.4660757e+00 </wgt>
<wgt id='1421'> +1.4819826e+00 </wgt>
<wgt id='1422'> +1.4644030e+00 </wgt>
<wgt id='1423'> +1.4877968e+00 </wgt>
<wgt id='1424'> +1.4641464e+00 </wgt>
<wgt id='1425'> +1.4718173e+00 </wgt>
<wgt id='1426'> +1.4775109e+00 </wgt>
<wgt id='1427'> +1.4742995e+00 </wgt>
<wgt id='1428'> +1.4743379e+00 </wgt>
<wgt id='1429'> +1.4739155e+00 </wgt>
<wgt id='1430'> +1.4766314e+00 </wgt>
<wgt id='1431'> +1.4691827e+00 </wgt>
<wgt id='1432'> +1.4780689e+00 </wgt>
<wgt id='1433'> +1.4607241e+00 </wgt>
<wgt id='1434'> +1.4895881e+00 </wgt>
<wgt id='1435'> +1.4716410e+00 </wgt>
<wgt id='1436'> +1.4786358e+00 </wgt>
<wgt id='1437'> +1.4658716e+00 </wgt>
<wgt id='1438'> +1.4956488e+00 </wgt>
<wgt id='1439'> +1.4835180e+00 </wgt>
<wgt id='1440'> +1.4533638e+00 </wgt>
<wgt id='1441'> +1.4827426e+00 </wgt>
<wgt id='1442'> +1.4632938e+00 </wgt>
<wgt id='1443'> +1.4629394e+00 </wgt>
<wgt id='1444'> +1.4632950e+00 </wgt>
<wgt id='1445'> +1.4625518e+00 </wgt>
<wgt id='1446'> +1.4640454e+00 </wgt>
<wgt id='1447'> +1.4622564e+00 </wgt>
<wgt id='1448'> +1.4680737e+00 </wgt>
<wgt id='1449'> +1.4582360e+00 </wgt>
<wgt id='1450'> +1.4594878e+00 </wgt>
<wgt id='1451'> +1.4668218e+00 </wgt>
<wgt id='1452'> +1.4676346e+00 </wgt>
<wgt id='1453'> +1.4584248e+00 </wgt>
<wgt id='1454'> +1.4586740e+00 </wgt>
<wgt id='1455'> +1.4722692e+00 </wgt>
<wgt id='1456'> +1.4728453e+00 </wgt>
<wgt id='1457'> +1.4454063e+00 </wgt>
<wgt id='1458'> +1.4866004e+00 </wgt>
<wgt id='1459'> +1.4496883e+00 </wgt>
<wgt id='1460'> +1.4687910e+00 </wgt>
<wgt id='1461'> +1.4561052e+00 </wgt>
<wgt id='1462'> +1.4540359e+00 </wgt>
<wgt id='1463'> +1.4706994e+00 </wgt>
<wgt id='1464'> +1.4545725e+00 </wgt>
<wgt id='1465'> +1.4735301e+00 </wgt>
<wgt id='1466'> +1.4634603e+00 </wgt>
<wgt id='1467'> +1.4622082e+00 </wgt>
<wgt id='1468'> +1.4617549e+00 </wgt>
<wgt id='1469'> +1.4643851e+00 </wgt>
<wgt id='1470'> +1.4432207e+00 </wgt>
<wgt id='1471'> +1.4587505e+00 </wgt>
<wgt id='1472'> +1.4685934e+00 </wgt>
<wgt id='1473'> +1.4554215e+00 </wgt>
<wgt id='1474'> +1.4720855e+00 </wgt>
<wgt id='1475'> +1.4531349e+00 </wgt>
<wgt id='1476'> +1.4578727e+00 </wgt>
<wgt id='1477'> +1.4683934e+00 </wgt>
<wgt id='1478'> +1.4637352e+00 </wgt>
<wgt id='1479'> +1.4618325e+00 </wgt>
<wgt id='1480'> +1.4589107e+00 </wgt>
<wgt id='1481'> +1.4657560e+00 </wgt>
<wgt id='1482'> +1.4580732e+00 </wgt>
<wgt id='1483'> +1.4674896e+00 </wgt>
<wgt id='1484'> +1.4503813e+00 </wgt>
<wgt id='1485'> +1.4769380e+00 </wgt>
<wgt id='1486'> +1.4653932e+00 </wgt>
<wgt id='1487'> +1.4637281e+00 </wgt>
<wgt id='1488'> +1.4542280e+00 </wgt>
<wgt id='1489'> +1.4846447e+00 </wgt>
<wgt id='1490'> +1.4707446e+00 </wgt>
<wgt id='1491'> +1.4432091e+00 </wgt>
<wgt id='1492'> +1.4738075e+00 </wgt>
<wgt id='1493'> +1.4491932e+00 </wgt>
<wgt id='1494'> +1.4219278e+00 </wgt>
<wgt id='1495'> +1.4059374e+00 </wgt>
<wgt id='1496'> +1.4123629e+00 </wgt>
<wgt id='1497'> +1.4169787e+00 </wgt>
<wgt id='1498'> +1.4249771e+00 </wgt>
<wgt id='1499'> +1.4214003e+00 </wgt>
<wgt id='1500'> +1.4189729e+00 </wgt>
<wgt id='1501'> +1.4198696e+00 </wgt>
<wgt id='1502'> +1.4211944e+00 </wgt>
<wgt id='1503'> +1.4216660e+00 </wgt>
<wgt id='1504'> +1.4215916e+00 </wgt>
<wgt id='1505'> +1.4214416e+00 </wgt>
<wgt id='1506'> +1.4213180e+00 </wgt>
<wgt id='1507'> +1.4210392e+00 </wgt>
<wgt id='1508'> +1.4214003e+00 </wgt>
<wgt id='1509'> +1.4220981e+00 </wgt>
<wgt id='1510'> +1.4216892e+00 </wgt>
<wgt id='1511'> +1.4212701e+00 </wgt>
<wgt id='1512'> +1.4207696e+00 </wgt>
<wgt id='1513'> +1.3905890e+00 </wgt>
<wgt id='1514'> +1.3901683e+00 </wgt>
<wgt id='1515'> +1.3910580e+00 </wgt>
<wgt id='1516'> +1.3931863e+00 </wgt>
<wgt id='1517'> +1.3880022e+00 </wgt>
<wgt id='1518'> +1.3933382e+00 </wgt>
<wgt id='1519'> +1.3894929e+00 </wgt>
<wgt id='1520'> +1.3922185e+00 </wgt>
<wgt id='1521'> +1.3889455e+00 </wgt>
<wgt id='1522'> +1.3970956e+00 </wgt>
<wgt id='1523'> +1.3843064e+00 </wgt>
<wgt id='1524'> +1.4023896e+00 </wgt>
<wgt id='1525'> +1.3854451e+00 </wgt>
<wgt id='1526'> +1.3858554e+00 </wgt>
<wgt id='1527'> +1.3963384e+00 </wgt>
<wgt id='1528'> +1.4129962e+00 </wgt>
<wgt id='1529'> +1.3663848e+00 </wgt>
<wgt id='1530'> +1.3789344e+00 </wgt>
<wgt id='1531'> +1.3971359e+00 </wgt>
<wgt id='1532'> +1.3970126e+00 </wgt>
<wgt id='1533'> +1.3817992e+00 </wgt>
<wgt id='1534'> +1.3907001e+00 </wgt>
<wgt id='1535'> +1.3904152e+00 </wgt>
<wgt id='1536'> +1.3891850e+00 </wgt>
<wgt id='1537'> +1.3918537e+00 </wgt>
<wgt id='1538'> +1.3895252e+00 </wgt>
<wgt id='1539'> +1.3930964e+00 </wgt>
<wgt id='1540'> +1.3779205e+00 </wgt>
<wgt id='1541'> +1.3780836e+00 </wgt>
<wgt id='1542'> +1.3840798e+00 </wgt>
<wgt id='1543'> +1.4082429e+00 </wgt>
<wgt id='1544'> +1.3966522e+00 </wgt>
<wgt id='1545'> +1.3755106e+00 </wgt>
<wgt id='1546'> +1.3896278e+00 </wgt>
<wgt id='1547'> +1.3913532e+00 </wgt>
<wgt id='1548'> +1.3918020e+00 </wgt>
<wgt id='1549'> +1.3892587e+00 </wgt>
<wgt id='1550'> +1.3903576e+00 </wgt>
<wgt id='1551'> +1.3889476e+00 </wgt>
<wgt id='1552'> +1.3853558e+00 </wgt>
<wgt id='1553'> +1.3935639e+00 </wgt>
<wgt id='1554'> +1.3984436e+00 </wgt>
<wgt id='1555'> +1.3729914e+00 </wgt>
<wgt id='1556'> +1.3852904e+00 </wgt>
<wgt id='1557'> +1.3955432e+00 </wgt>
<wgt id='1558'> +1.3754660e+00 </wgt>
<wgt id='1559'> +1.4009399e+00 </wgt>
<wgt id='1560'> +1.4125470e+00 </wgt>
<wgt id='1561'> +1.3811016e+00 </wgt>
<wgt id='1562'> +1.3812531e+00 </wgt>
<wgt id='1563'> +1.3964711e+00 </wgt>
<wgt id='1564'> +1.3905890e+00 </wgt>
<wgt id='1565'> +1.3866348e+00 </wgt>
<wgt id='1566'> +1.3890767e+00 </wgt>
<wgt id='1567'> +1.3884262e+00 </wgt>
<wgt id='1568'> +1.3863669e+00 </wgt>
<wgt id='1569'> +1.3871853e+00 </wgt>
<wgt id='1570'> +1.3877293e+00 </wgt>
<wgt id='1571'> +1.3880233e+00 </wgt>
<wgt id='1572'> +1.3882677e+00 </wgt>
<wgt id='1573'> +1.3885390e+00 </wgt>
<wgt id='1574'> +1.3872476e+00 </wgt>
<wgt id='1575'> +1.3872601e+00 </wgt>
<wgt id='1576'> +1.3884262e+00 </wgt>
<wgt id='1577'> +1.3893423e+00 </wgt>
<wgt id='1578'> +1.3889793e+00 </wgt>
<wgt id='1579'> +1.3882708e+00 </wgt>
<wgt id='1580'> +1.3880602e+00 </wgt>
<wgt id='1581'> +1.3388757e+00 </wgt>
<wgt id='1582'> +1.3395553e+00 </wgt>
<wgt id='1583'> +1.3545897e+00 </wgt>
<wgt id='1584'> +1.3335258e+00 </wgt>
<wgt id='1585'> +1.3333823e+00 </wgt>
<wgt id='1586'> +1.3507536e+00 </wgt>
<wgt id='1587'> +1.3415254e+00 </wgt>
<wgt id='1588'> +1.3159737e+00 </wgt>
<wgt id='1589'> +1.3392463e+00 </wgt>
<wgt id='1590'> +1.3017838e+00 </wgt>
<wgt id='1591'> +1.3371990e+00 </wgt>
<wgt id='1592'> +1.3445478e+00 </wgt>
<wgt id='1593'> +1.3409275e+00 </wgt>
<wgt id='1594'> +1.3341309e+00 </wgt>
<wgt id='1595'> +1.3456146e+00 </wgt>
<wgt id='1596'> +1.3471110e+00 </wgt>
<wgt id='1597'> +1.3351608e+00 </wgt>
<wgt id='1598'> +1.3361657e+00 </wgt>
<wgt id='1599'> +1.3625640e+00 </wgt>
<wgt id='1600'> +1.3449661e+00 </wgt>
<wgt id='1601'> +1.3387706e+00 </wgt>
<wgt id='1602'> +1.3386635e+00 </wgt>
<wgt id='1603'> +1.3316975e+00 </wgt>
<wgt id='1604'> +1.3671987e+00 </wgt>
<wgt id='1605'> +1.3400731e+00 </wgt>
<wgt id='1606'> +1.3401116e+00 </wgt>
<wgt id='1607'> +1.3431303e+00 </wgt>
<wgt id='1608'> +1.3307888e+00 </wgt>
<wgt id='1609'> +1.3394586e+00 </wgt>
<wgt id='1610'> +1.3347400e+00 </wgt>
<wgt id='1611'> +1.3431463e+00 </wgt>
<wgt id='1612'> +1.3450977e+00 </wgt>
<wgt id='1613'> +1.3405450e+00 </wgt>
<wgt id='1614'> +1.3520420e+00 </wgt>
<wgt id='1615'> +1.3494644e+00 </wgt>
<wgt id='1616'> +1.3407964e+00 </wgt>
<wgt id='1617'> +1.3434853e+00 </wgt>
<wgt id='1618'> +1.3487060e+00 </wgt>
<wgt id='1619'> +1.3400326e+00 </wgt>
<wgt id='1620'> +1.3452024e+00 </wgt>
<wgt id='1621'> +1.3406231e+00 </wgt>
<wgt id='1622'> +1.3495795e+00 </wgt>
<wgt id='1623'> +1.3402958e+00 </wgt>
<wgt id='1624'> +1.3424217e+00 </wgt>
<wgt id='1625'> +1.3448027e+00 </wgt>
<wgt id='1626'> +1.3496501e+00 </wgt>
<wgt id='1627'> +1.3470973e+00 </wgt>
<wgt id='1628'> +1.3484855e+00 </wgt>
<wgt id='1629'> +1.3478367e+00 </wgt>
<wgt id='1630'> +1.3471034e+00 </wgt>
<wgt id='1631'> +1.3399785e+00 </wgt>
<wgt id='1632'> +1.3452745e+00 </wgt>
<wgt id='1633'> +1.3413761e+00 </wgt>
<wgt id='1634'> +1.3498808e+00 </wgt>
<wgt id='1635'> +1.3406224e+00 </wgt>
<wgt id='1636'> +1.3527394e+00 </wgt>
<wgt id='1637'> +1.3467529e+00 </wgt>
<wgt id='1638'> +1.3478696e+00 </wgt>
<wgt id='1639'> +1.3535572e+00 </wgt>
<wgt id='1640'> +1.3459148e+00 </wgt>
<wgt id='1641'> +1.3308141e+00 </wgt>
<wgt id='1642'> +1.3413870e+00 </wgt>
<wgt id='1643'> +1.3439581e+00 </wgt>
<wgt id='1644'> +1.3355516e+00 </wgt>
<wgt id='1645'> +1.3491817e+00 </wgt>
<wgt id='1646'> +1.3445445e+00 </wgt>
<wgt id='1647'> +1.3469152e+00 </wgt>
<wgt id='1648'> +1.3471314e+00 </wgt>
<wgt id='1649'> +1.3478312e+00 </wgt>
<wgt id='1650'> +1.3326481e+00 </wgt>
<wgt id='1651'> +1.3415562e+00 </wgt>
<wgt id='1652'> +1.3462172e+00 </wgt>
<wgt id='1653'> +1.3404656e+00 </wgt>
<wgt id='1654'> +1.3435676e+00 </wgt>
<wgt id='1655'> +1.3479256e+00 </wgt>
<wgt id='1656'> +1.3439211e+00 </wgt>
<wgt id='1657'> +1.3496088e+00 </wgt>
<wgt id='1658'> +1.3433108e+00 </wgt>
<wgt id='1659'> +1.3410547e+00 </wgt>
<wgt id='1660'> +1.3510312e+00 </wgt>
<wgt id='1661'> +1.3412302e+00 </wgt>
<wgt id='1662'> +1.3522619e+00 </wgt>
<wgt id='1663'> +1.3513968e+00 </wgt>
<wgt id='1664'> +1.3420097e+00 </wgt>
<wgt id='1665'> +1.3502418e+00 </wgt>
<wgt id='1666'> +1.3468560e+00 </wgt>
<wgt id='1667'> +1.3579417e+00 </wgt>
<wgt id='1668'> +1.3563656e+00 </wgt>
<wgt id='1669'> +1.3440142e+00 </wgt>
<wgt id='1670'> +1.3412733e+00 </wgt>
<wgt id='1671'> +1.3472137e+00 </wgt>
<wgt id='1672'> +1.3419664e+00 </wgt>
<wgt id='1673'> +1.3391959e+00 </wgt>
<wgt id='1674'> +1.3507908e+00 </wgt>
<wgt id='1675'> +1.3435633e+00 </wgt>
<wgt id='1676'> +1.3480788e+00 </wgt>
<wgt id='1677'> +1.3479828e+00 </wgt>
<wgt id='1678'> +1.3379795e+00 </wgt>
<wgt id='1679'> +1.3402793e+00 </wgt>
<wgt id='1680'> +1.3368230e+00 </wgt>
<wgt id='1681'> +1.3507484e+00 </wgt>
<wgt id='1682'> +1.3401878e+00 </wgt>
<wgt id='1683'> +1.3488336e+00 </wgt>
<wgt id='1684'> +1.3455321e+00 </wgt>
<wgt id='1685'> +1.3451015e+00 </wgt>
<wgt id='1686'> +1.3434953e+00 </wgt>
<wgt id='1687'> +1.3434613e+00 </wgt>
<wgt id='1688'> +1.3408901e+00 </wgt>
<wgt id='1689'> +1.3454999e+00 </wgt>
<wgt id='1690'> +1.3440650e+00 </wgt>
<wgt id='1691'> +1.3372839e+00 </wgt>
<wgt id='1692'> +1.3479526e+00 </wgt>
<wgt id='1693'> +1.3478511e+00 </wgt>
<wgt id='1694'> +1.3493853e+00 </wgt>
<wgt id='1695'> +1.3411793e+00 </wgt>
<wgt id='1696'> +1.3462174e+00 </wgt>
<wgt id='1697'> +1.3420413e+00 </wgt>
<wgt id='1698'> +1.3410323e+00 </wgt>
<wgt id='1699'> +1.3448110e+00 </wgt>
<wgt id='1700'> +1.3442603e+00 </wgt>
<wgt id='1701'> +1.3471127e+00 </wgt>
<wgt id='1702'> +1.3448440e+00 </wgt>
<wgt id='1703'> +1.3458609e+00 </wgt>
<wgt id='1704'> +1.3414789e+00 </wgt>
<wgt id='1705'> +1.3437676e+00 </wgt>
<wgt id='1706'> +1.3435951e+00 </wgt>
<wgt id='1707'> +1.3430178e+00 </wgt>
<wgt id='1708'> +1.3430837e+00 </wgt>
<wgt id='1709'> +1.3468739e+00 </wgt>
<wgt id='1710'> +1.3433343e+00 </wgt>
<wgt id='1711'> +1.3440852e+00 </wgt>
<wgt id='1712'> +1.3456364e+00 </wgt>
<wgt id='1713'> +1.3122614e+00 </wgt>
<wgt id='1714'> +1.3740981e+00 </wgt>
<wgt id='1715'> +1.2972962e+00 </wgt>
<wgt id='1716'> +1.2875503e+00 </wgt>
<wgt id='1717'> +1.2822850e+00 </wgt>
<wgt id='1718'> +1.3128464e+00 </wgt>
<wgt id='1719'> +1.2145436e+00 </wgt>
<wgt id='1720'> +1.3523548e+00 </wgt>
<wgt id='1721'> +1.3242023e+00 </wgt>
<wgt id='1722'> +1.3710472e+00 </wgt>
<wgt id='1723'> +1.3397847e+00 </wgt>
<wgt id='1724'> +1.3224250e+00 </wgt>
<wgt id='1725'> +1.2834632e+00 </wgt>
<wgt id='1726'> +1.2855779e+00 </wgt>
<wgt id='1727'> +1.3166251e+00 </wgt>
<wgt id='1728'> +1.2637259e+00 </wgt>
<wgt id='1729'> +1.2424472e+00 </wgt>
<wgt id='1730'> +1.2387198e+00 </wgt>
<wgt id='1731'> +1.2208862e+00 </wgt>
<wgt id='1732'> +1.2837251e+00 </wgt>
<wgt id='1733'> +1.3435342e+00 </wgt>
<wgt id='1734'> +1.3740349e+00 </wgt>
<wgt id='1735'> +1.2941125e+00 </wgt>
<wgt id='1736'> +1.3127088e+00 </wgt>
<wgt id='1737'> +1.2994095e+00 </wgt>
<wgt id='1738'> +1.3036346e+00 </wgt>
<wgt id='1739'> +1.3090291e+00 </wgt>
<wgt id='1740'> +1.2737004e+00 </wgt>
<wgt id='1741'> +1.2067112e+00 </wgt>
<wgt id='1742'> +1.3445990e+00 </wgt>
<wgt id='1743'> +1.2826501e+00 </wgt>
<wgt id='1744'> +1.2513615e+00 </wgt>
<wgt id='1745'> +1.2491349e+00 </wgt>
<wgt id='1746'> +1.2325431e+00 </wgt>
<wgt id='1747'> +1.3095358e+00 </wgt>
<wgt id='1748'> +1.2847069e+00 </wgt>
<wgt id='1749'> +1.3167061e+00 </wgt>
<wgt id='1750'> +1.3113593e+00 </wgt>
<wgt id='1751'> +1.3054996e+00 </wgt>
<wgt id='1752'> +1.2537814e+00 </wgt>
<wgt id='1753'> +1.3156494e+00 </wgt>
<wgt id='1754'> +1.3371520e+00 </wgt>
<wgt id='1755'> +1.2258241e+00 </wgt>
<wgt id='1756'> +1.2913230e+00 </wgt>
<wgt id='1757'> +1.2592230e+00 </wgt>
<wgt id='1758'> +1.3108276e+00 </wgt>
<wgt id='1759'> +1.3770625e+00 </wgt>
<wgt id='1760'> +1.3994445e+00 </wgt>
<wgt id='1761'> +1.3363214e+00 </wgt>
<wgt id='1762'> +1.3166251e+00 </wgt>
<wgt id='1763'> +1.3164535e+00 </wgt>
<wgt id='1764'> +1.3750747e+00 </wgt>
<wgt id='1765'> +1.2926635e+00 </wgt>
<wgt id='1766'> +1.2868447e+00 </wgt>
<wgt id='1767'> +1.2914170e+00 </wgt>
<wgt id='1768'> +1.1846277e+00 </wgt>
<wgt id='1769'> +1.2208133e+00 </wgt>
<wgt id='1770'> +1.3672831e+00 </wgt>
<wgt id='1771'> +1.2898344e+00 </wgt>
<wgt id='1772'> +1.4222559e+00 </wgt>
<wgt id='1773'> +1.2743652e+00 </wgt>
<wgt id='1774'> +1.3215039e+00 </wgt>
<wgt id='1775'> +1.3058165e+00 </wgt>
<wgt id='1776'> +1.2484727e+00 </wgt>
<wgt id='1777'> +1.3308703e+00 </wgt>
<wgt id='1778'> +1.3245223e+00 </wgt>
<wgt id='1779'> +1.2752556e+00 </wgt>
<wgt id='1780'> +1.3189656e+00 </wgt>
<wgt id='1781'> +1.2928478e+00 </wgt>
<wgt id='1782'> +1.2987117e+00 </wgt>
<wgt id='1783'> +1.2305718e+00 </wgt>
<wgt id='1784'> +1.2830227e+00 </wgt>
<wgt id='1785'> +1.3051141e+00 </wgt>
<wgt id='1786'> +1.4096948e+00 </wgt>
<wgt id='1787'> +1.3112935e+00 </wgt>
<wgt id='1788'> +1.2714842e+00 </wgt>
<wgt id='1789'> +1.2563457e+00 </wgt>
<wgt id='1790'> +1.2278791e+00 </wgt>
<wgt id='1791'> +1.2075422e+00 </wgt>
<wgt id='1792'> +1.3227625e+00 </wgt>
<wgt id='1793'> +1.3378979e+00 </wgt>
<wgt id='1794'> +1.3616910e+00 </wgt>
<wgt id='1795'> +1.3637160e+00 </wgt>
<wgt id='1796'> +1.2554762e+00 </wgt>
<wgt id='1797'> +1.2660647e+00 </wgt>
<wgt id='1798'> +1.3136142e+00 </wgt>
<wgt id='1799'> +1.2533923e+00 </wgt>
<wgt id='1800'> +1.3089639e+00 </wgt>
<wgt id='1801'> +1.2093906e+00 </wgt>
<wgt id='1802'> +1.3162326e+00 </wgt>
<wgt id='1803'> +1.2573289e+00 </wgt>
<wgt id='1804'> +1.3050262e+00 </wgt>
<wgt id='1805'> +1.3777520e+00 </wgt>
<wgt id='1806'> +1.2566492e+00 </wgt>
<wgt id='1807'> +1.2973138e+00 </wgt>
<wgt id='1808'> +1.3358510e+00 </wgt>
<wgt id='1809'> +1.2867044e+00 </wgt>
<wgt id='1810'> +1.3345767e+00 </wgt>
<wgt id='1811'> +1.3291357e+00 </wgt>
<wgt id='1812'> +1.2873668e+00 </wgt>
<wgt id='1813'> +1.3669288e+00 </wgt>
<wgt id='1814'> +1.1413545e+00 </wgt>
<wgt id='1815'> +1.3302122e+00 </wgt>
<wgt id='1816'> +1.3120631e+00 </wgt>
<wgt id='1817'> +1.3362730e+00 </wgt>
<wgt id='1818'> +1.2764421e+00 </wgt>
<wgt id='1819'> +1.2992078e+00 </wgt>
<wgt id='1820'> +1.2863023e+00 </wgt>
<wgt id='1821'> +1.3385630e+00 </wgt>
<wgt id='1822'> +1.3481253e+00 </wgt>
<wgt id='1823'> +1.3729189e+00 </wgt>
<wgt id='1824'> +1.3191062e+00 </wgt>
<wgt id='1825'> +1.3317783e+00 </wgt>
<wgt id='1826'> +1.2712819e+00 </wgt>
<wgt id='1827'> +1.2651892e+00 </wgt>
<wgt id='1828'> +1.3421914e+00 </wgt>
<wgt id='1829'> +1.3771343e+00 </wgt>
<wgt id='1830'> +1.2562205e+00 </wgt>
<wgt id='1831'> +1.3039764e+00 </wgt>
<wgt id='1832'> +1.3237198e+00 </wgt>
<wgt id='1833'> +1.2360589e+00 </wgt>
<wgt id='1834'> +1.2868234e+00 </wgt>
<wgt id='1835'> +1.3426234e+00 </wgt>
<wgt id='1836'> +1.2841584e+00 </wgt>
<wgt id='1837'> +1.4173872e+00 </wgt>
<wgt id='1838'> +1.3074706e+00 </wgt>
<wgt id='1839'> +1.4370859e+00 </wgt>
<wgt id='1840'> +1.3541351e+00 </wgt>
<wgt id='1841'> +1.3185207e+00 </wgt>
<wgt id='1842'> +1.3420829e+00 </wgt>
<wgt id='1843'> +1.2515004e+00 </wgt>
<wgt id='1844'> +1.2923337e+00 </wgt>
<wgt id='1845'> +1.3143518e+00 </wgt>
<wgt id='1846'> +1.3370230e+00 </wgt>
<wgt id='1847'> +1.2974529e+00 </wgt>
<wgt id='1848'> +1.3737818e+00 </wgt>
<wgt id='1849'> +1.2345401e+00 </wgt>
<wgt id='1850'> +1.3442505e+00 </wgt>
<wgt id='1851'> +1.3564203e+00 </wgt>
<wgt id='1852'> +1.3602228e+00 </wgt>
<wgt id='1853'> +1.2561420e+00 </wgt>
<wgt id='1854'> +1.4079625e+00 </wgt>
<wgt id='1855'> +1.2875925e+00 </wgt>
<wgt id='1856'> +1.2734309e+00 </wgt>
<wgt id='1857'> +1.3827948e+00 </wgt>
<wgt id='1858'> +1.2370394e+00 </wgt>
<wgt id='1859'> +1.2635141e+00 </wgt>
<wgt id='1860'> +1.2808715e+00 </wgt>
<wgt id='1861'> +1.3701107e+00 </wgt>
<wgt id='1862'> +1.2813752e+00 </wgt>
<wgt id='1863'> +1.3093207e+00 </wgt>
<wgt id='1864'> +1.3161003e+00 </wgt>
<wgt id='1865'> +1.1988400e+00 </wgt>
<wgt id='1866'> +1.2803888e+00 </wgt>
<wgt id='1867'> +1.3255140e+00 </wgt>
<wgt id='1868'> +1.3801713e+00 </wgt>
<wgt id='1869'> +1.2395977e+00 </wgt>
<wgt id='1870'> +1.3891344e+00 </wgt>
<wgt id='1871'> +1.2994845e+00 </wgt>
<wgt id='1872'> +1.2818432e+00 </wgt>
<wgt id='1873'> +1.2657132e+00 </wgt>
<wgt id='1874'> +1.2999194e+00 </wgt>
<wgt id='1875'> +1.2429112e+00 </wgt>
<wgt id='1876'> +1.3794250e+00 </wgt>
<wgt id='1877'> +1.3413411e+00 </wgt>
<wgt id='1878'> +1.2313334e+00 </wgt>
<wgt id='1879'> +1.4047078e+00 </wgt>
<wgt id='1880'> +1.2118795e+00 </wgt>
<wgt id='1881'> +1.2675085e+00 </wgt>
<wgt id='1882'> +1.3456693e+00 </wgt>
<wgt id='1883'> +1.5013855e+00 </wgt>
<wgt id='1884'> +1.2519877e+00 </wgt>
<wgt id='1885'> +1.3333435e+00 </wgt>
<wgt id='1886'> +1.2673671e+00 </wgt>
<wgt id='1887'> +1.3437378e+00 </wgt>
<wgt id='1888'> +1.3128531e+00 </wgt>
<wgt id='1889'> +1.3519003e+00 </wgt>
<wgt id='1890'> +1.3327720e+00 </wgt>
<wgt id='1891'> +1.2696042e+00 </wgt>
<wgt id='1892'> +1.3108796e+00 </wgt>
<wgt id='1893'> +1.3149259e+00 </wgt>
<wgt id='1894'> +1.3753253e+00 </wgt>
<wgt id='1895'> +1.2451447e+00 </wgt>
<wgt id='1896'> +1.3011173e+00 </wgt>
<wgt id='1897'> +1.3053693e+00 </wgt>
<wgt id='1898'> +1.3580515e+00 </wgt>
<wgt id='1899'> +1.1950766e+00 </wgt>
<wgt id='1900'> +1.3185615e+00 </wgt>
<wgt id='1901'> +1.3214175e+00 </wgt>
<wgt id='1902'> +1.3518810e+00 </wgt>
<wgt id='1903'> +1.2644559e+00 </wgt>
<wgt id='1904'> +1.3009332e+00 </wgt>
<wgt id='1905'> +1.3339215e+00 </wgt>
<wgt id='1906'> +1.3396050e+00 </wgt>
<wgt id='1907'> +1.3490423e+00 </wgt>
<wgt id='1908'> +1.3558503e+00 </wgt>
<wgt id='1909'> +1.2897119e+00 </wgt>
<wgt id='1910'> +1.2764983e+00 </wgt>
<wgt id='1911'> +1.2070911e+00 </wgt>
<wgt id='1912'> +1.3546621e+00 </wgt>
<wgt id='1913'> +1.3416893e+00 </wgt>
<wgt id='1914'> +1.3360484e+00 </wgt>
<wgt id='1915'> +1.3216061e+00 </wgt>
<wgt id='1916'> +1.1789568e+00 </wgt>
<wgt id='1917'> +1.3097577e+00 </wgt>
<wgt id='1918'> +1.4337435e+00 </wgt>
<wgt id='1919'> +1.3120631e+00 </wgt>
<wgt id='1920'> +1.3362730e+00 </wgt>
<wgt id='1921'> +1.2764421e+00 </wgt>
<wgt id='1922'> +1.2992078e+00 </wgt>
<wgt id='1923'> +1.2863023e+00 </wgt>
<wgt id='1924'> +1.3385630e+00 </wgt>
<wgt id='1925'> +1.3481253e+00 </wgt>
<wgt id='1926'> +1.3729189e+00 </wgt>
<wgt id='1927'> +1.3191062e+00 </wgt>
<wgt id='1928'> +1.3317783e+00 </wgt>
<wgt id='1929'> +1.2712819e+00 </wgt>
<wgt id='1930'> +1.2651892e+00 </wgt>
<wgt id='1931'> +1.3421914e+00 </wgt>
<wgt id='1932'> +1.3771343e+00 </wgt>
<wgt id='1933'> +1.2562205e+00 </wgt>
<wgt id='1934'> +1.3039764e+00 </wgt>
<wgt id='1935'> +1.3237198e+00 </wgt>
<wgt id='1936'> +1.2360589e+00 </wgt>
<wgt id='1937'> +1.2868234e+00 </wgt>
<wgt id='1938'> +1.3426234e+00 </wgt>
<wgt id='1939'> +1.2841584e+00 </wgt>
<wgt id='1940'> +1.4173872e+00 </wgt>
<wgt id='1941'> +1.3074706e+00 </wgt>
<wgt id='1942'> +1.4370859e+00 </wgt>
<wgt id='1943'> +1.3541351e+00 </wgt>
<wgt id='1944'> +1.3185207e+00 </wgt>
<wgt id='1945'> +1.3420829e+00 </wgt>
<wgt id='1946'> +1.2515004e+00 </wgt>
<wgt id='1947'> +1.2923337e+00 </wgt>
<wgt id='1948'> +1.3143518e+00 </wgt>
<wgt id='1949'> +1.3370230e+00 </wgt>
<wgt id='1950'> +1.2974529e+00 </wgt>
<wgt id='1951'> +1.3737818e+00 </wgt>
<wgt id='1952'> +1.2345401e+00 </wgt>
<wgt id='1953'> +1.3442505e+00 </wgt>
<wgt id='1954'> +1.3564203e+00 </wgt>
<wgt id='1955'> +1.3602228e+00 </wgt>
<wgt id='1956'> +1.2561420e+00 </wgt>
<wgt id='1957'> +1.4079625e+00 </wgt>
<wgt id='1958'> +1.2875925e+00 </wgt>
<wgt id='1959'> +1.2734309e+00 </wgt>
<wgt id='1960'> +1.3827948e+00 </wgt>
<wgt id='1961'> +1.2370394e+00 </wgt>
<wgt id='1962'> +1.2635141e+00 </wgt>
<wgt id='1963'> +1.2808715e+00 </wgt>
<wgt id='1964'> +1.3701107e+00 </wgt>
<wgt id='1965'> +1.2813752e+00 </wgt>
<wgt id='1966'> +1.3093207e+00 </wgt>
<wgt id='1967'> +1.3161003e+00 </wgt>
<wgt id='1968'> +1.1988400e+00 </wgt>
<wgt id='1969'> +1.2803888e+00 </wgt>
<wgt id='1970'> +1.3255140e+00 </wgt>
<wgt id='1971'> +1.3801713e+00 </wgt>
<wgt id='1972'> +1.2395977e+00 </wgt>
<wgt id='1973'> +1.3891344e+00 </wgt>
<wgt id='1974'> +1.2994845e+00 </wgt>
<wgt id='1975'> +1.2818432e+00 </wgt>
<wgt id='1976'> +1.2657132e+00 </wgt>
<wgt id='1977'> +1.2999194e+00 </wgt>
<wgt id='1978'> +1.2429112e+00 </wgt>
<wgt id='1979'> +1.3794250e+00 </wgt>
<wgt id='1980'> +1.3413411e+00 </wgt>
<wgt id='1981'> +1.2313334e+00 </wgt>
<wgt id='1982'> +1.4047078e+00 </wgt>
<wgt id='1983'> +1.2118795e+00 </wgt>
<wgt id='1984'> +1.2675085e+00 </wgt>
<wgt id='1985'> +1.3456693e+00 </wgt>
<wgt id='1986'> +1.5013855e+00 </wgt>
<wgt id='1987'> +1.2519877e+00 </wgt>
<wgt id='1988'> +1.3333435e+00 </wgt>
<wgt id='1989'> +1.2673671e+00 </wgt>
<wgt id='1990'> +1.3437378e+00 </wgt>
<wgt id='1991'> +1.3128531e+00 </wgt>
<wgt id='1992'> +1.3519003e+00 </wgt>
<wgt id='1993'> +1.3327720e+00 </wgt>
<wgt id='1994'> +1.2696042e+00 </wgt>
<wgt id='1995'> +1.3108796e+00 </wgt>
<wgt id='1996'> +1.3149259e+00 </wgt>
<wgt id='1997'> +1.3753253e+00 </wgt>
<wgt id='1998'> +1.2451447e+00 </wgt>
<wgt id='1999'> +1.3011173e+00 </wgt>
<wgt id='2000'> +1.3053693e+00 </wgt>
<wgt id='2001'> +1.3580515e+00 </wgt>
<wgt id='2002'> +1.1950766e+00 </wgt>
<wgt id='2003'> +1.3185615e+00 </wgt>
<wgt id='2004'> +1.3214175e+00 </wgt>
<wgt id='2005'> +1.3518810e+00 </wgt>
<wgt id='2006'> +1.2644559e+00 </wgt>
<wgt id='2007'> +1.3009332e+00 </wgt>
<wgt id='2008'> +1.3339215e+00 </wgt>
<wgt id='2009'> +1.3396050e+00 </wgt>
<wgt id='2010'> +1.3490423e+00 </wgt>
<wgt id='2011'> +1.3558503e+00 </wgt>
<wgt id='2012'> +1.2897119e+00 </wgt>
<wgt id='2013'> +1.2764983e+00 </wgt>
<wgt id='2014'> +1.2070911e+00 </wgt>
<wgt id='2015'> +1.3546621e+00 </wgt>
<wgt id='2016'> +1.3416893e+00 </wgt>
<wgt id='2017'> +1.3360484e+00 </wgt>
<wgt id='2018'> +1.3216061e+00 </wgt>
<wgt id='2019'> +1.1789568e+00 </wgt>
<wgt id='2020'> +1.3131713e+00 </wgt>
<wgt id='2021'> +1.3210292e+00 </wgt>
<wgt id='2022'> +1.2914155e+00 </wgt>
</rwgt>
</event>
<event>
 13 2 0.0079112 8.07628800e+01 7.81860800e-03 1.20971400e-01
       21 -1    0    0  502  503 +0.0000000000e+00 +0.0000000000e+00 +1.9733668090e+02 1.9733668090e+02 0.0000000000e+00 0.0000e+00 1.0000e+00
        1 -1    0    0  501    0 +0.0000000000e+00 +0.0000000000e+00 -6.0781424660e+02 6.0781424662e+02 5.0400000000e-03 0.0000e+00 -1.0000e+00
 -8000001  2    1    2    0  503 +5.2452893113e+01 +2.1072368703e+00 -3.7603913321e+02 7.1003967203e+02 5.9999596641e+02 0.0000e+00 0.0000e+00
        2  1    1    2  501    0 -4.2912365902e+01 +6.9600781108e-02 -5.6252007905e+01 7.0751426779e+01 2.5500000000e-03 0.0000e+00 -1.0000e+00
        5  1    1    2  502    0 -9.5405272111e+00 -2.1768376515e+00 +2.1813575416e+01 2.4359828710e+01 4.6700000000e+00 0.0000e+00 -1.0000e+00
       -6  2    3    3    0  503 +9.8082094211e+01 -1.0958718989e+02 +7.1004382844e+01 2.3858369166e+02 1.7392845124e+02 0.0000e+00 0.0000e+00
       -5  1    6    6    0  503 +2.9059910988e+01 -1.0079677249e+02 +7.7032721725e+01 1.3023178141e+02 4.6700000000e+00 0.0000e+00 1.0000e+00
      -24  2    6    6    0    0 +6.9022183224e+01 -8.7904173940e+00 -6.0283388813e+00 1.0835191025e+02 8.2839980512e+01 0.0000e+00 0.0000e+00
      -14  1    8    8    0    0 -5.1261602795e+00 +1.9742282863e+01 -1.8971306438e+01 2.7855802265e+01 0.0000000000e+00 0.0000e+00 1.0000e+00
       13  1    8    8    0    0 +7.4148343503e+01 -2.8532700258e+01 +1.2942967556e+01 8.0496107989e+01 1.0566000000e-01 0.0000e+00 -1.0000e+00
       23  2    3    3    0    0 -4.5629201099e+01 +1.1169442675e+02 -4.4704351605e+02 4.7145598037e+02 8.8685777995e+01 0.0000e+00 0.0000e+00
        5  1   11   11  504    0 -4.6582316144e+01 +1.0779834616e+02 -2.7199993818e+02 2.9630418640e+02 4.6700000000e+00 0.0000e+00 -1.0000e+00
       -5  1   11   11    0  504 +9.5311504568e-01 +3.8960805980e+00 -1.7504357788e+02 1.7515179397e+02 4.6700000000e+00 0.0000e+00 1.0000e+00
<mgrwt>
<rscale>  1 0.59142068e+02</rscale>
<asrwt>0</asrwt>
<pdfrwt beam="1">  1       21 0.30359490e-01 0.80762876e+02</pdfrwt>
<pdfrwt beam="2">  1        1 0.93509883e-01 0.43309307e+02</pdfrwt>
<totfact> 0.49417171e+03</totfact>
</mgrwt>
<rwgt>
<wgt id='1001'> +1.3581722e+00 </wgt>
<wgt id='1002'> +9.2729249e-01 </wgt>
<wgt id='1003'> +9.2587922e-01 </wgt>
<wgt id='1004'> +1.0570704e+00 </wgt>
<wgt id='1005'> +8.3141747e-01 </wgt>
<wgt id='1006'> +1.2148750e+00 </wgt>
<wgt id='1007'> +8.5191952e-01 </wgt>
<wgt id='1008'> +8.5069650e-01 </wgt>
<wgt id='1009'> +9.6324338e-01 </wgt>
<wgt id='1010'> +7.6848475e-01 </wgt>
<wgt id='1011'> +1.5414161e+00 </wgt>
<wgt id='1012'> +1.0177285e+00 </wgt>
<wgt id='1013'> +1.0160667e+00 </wgt>
<wgt id='1014'> +1.1718224e+00 </wgt>
<wgt id='1015'> +9.0587617e-01 </wgt>
<wgt id='1016'> +1.3075074e+00 </wgt>
<wgt id='1017'> +8.9074516e-01 </wgt>
<wgt id='1018'> +8.8938753e-01 </wgt>
<wgt id='1019'> +1.0160667e+00 </wgt>
<wgt id='1020'> +7.9859092e-01 </wgt>
<wgt id='1021'> +1.1695557e+00 </wgt>
<wgt id='1022'> +8.1834287e-01 </wgt>
<wgt id='1023'> +8.1716799e-01 </wgt>
<wgt id='1024'> +9.2587922e-01 </wgt>
<wgt id='1025'> +7.3814295e-01 </wgt>
<wgt id='1026'> +1.4839157e+00 </wgt>
<wgt id='1027'> +9.7761681e-01 </wgt>
<wgt id='1028'> +9.7602046e-01 </wgt>
<wgt id='1029'> +1.1263674e+00 </wgt>
<wgt id='1030'> +8.7010979e-01 </wgt>
<wgt id='1031'> +1.4044457e+00 </wgt>
<wgt id='1032'> +9.6469962e-01 </wgt>
<wgt id='1033'> +9.6324338e-01 </wgt>
<wgt id='1034'> +1.0977469e+00 </wgt>
<wgt id='1035'> +8.6555112e-01 </wgt>
<wgt id='1036'> +1.2562662e+00 </wgt>
<wgt id='1037'> +8.8628610e-01 </wgt>
<wgt id='1038'> +8.8502664e-01 </wgt>
<wgt id='1039'> +1.0003093e+00 </wgt>
<wgt id='1040'> +8.0003472e-01 </wgt>
<wgt id='1041'> +1.5939328e+00 </wgt>
<wgt id='1042'> +1.0587838e+00 </wgt>
<wgt id='1043'> +1.0570704e+00 </wgt>
<wgt id='1044'> +1.2169145e+00 </wgt>
<wgt id='1045'> +9.4306671e-01 </wgt>
<wgt id='1046'> +1.3581722e+00 </wgt>
<wgt id='1047'> +1.3581722e+00 </wgt>
<wgt id='1048'> +1.3581722e+00 </wgt>
<wgt id='1049'> +1.3594241e+00 </wgt>
<wgt id='1050'> +1.3566868e+00 </wgt>
<wgt id='1051'> +1.3568049e+00 </wgt>
<wgt id='1052'> +1.3562414e+00 </wgt>
<wgt id='1053'> +1.3639811e+00 </wgt>
<wgt id='1054'> +1.3577145e+00 </wgt>
<wgt id='1055'> +1.3563118e+00 </wgt>
<wgt id='1056'> +1.3602915e+00 </wgt>
<wgt id='1057'> +1.3552203e+00 </wgt>
<wgt id='1058'> +1.3571722e+00 </wgt>
<wgt id='1059'> +1.3527001e+00 </wgt>
<wgt id='1060'> +1.3613235e+00 </wgt>
<wgt id='1061'> +1.3599915e+00 </wgt>
<wgt id='1062'> +1.3623231e+00 </wgt>
<wgt id='1063'> +1.3632581e+00 </wgt>
<wgt id='1064'> +1.3576461e+00 </wgt>
<wgt id='1065'> +1.3588599e+00 </wgt>
<wgt id='1066'> +1.3564275e+00 </wgt>
<wgt id='1067'> +1.3676125e+00 </wgt>
<wgt id='1068'> +1.3584673e+00 </wgt>
<wgt id='1069'> +1.3585650e+00 </wgt>
<wgt id='1070'> +1.3553134e+00 </wgt>
<wgt id='1071'> +1.3583228e+00 </wgt>
<wgt id='1072'> +1.3623160e+00 </wgt>
<wgt id='1073'> +1.3525825e+00 </wgt>
<wgt id='1074'> +1.3575985e+00 </wgt>
<wgt id='1075'> +1.3604706e+00 </wgt>
<wgt id='1076'> +1.3601587e+00 </wgt>
<wgt id='1077'> +1.3660346e+00 </wgt>
<wgt id='1078'> +1.3547162e+00 </wgt>
<wgt id='1079'> +1.3681897e+00 </wgt>
<wgt id='1080'> +1.3596546e+00 </wgt>
<wgt id='1081'> +1.3638509e+00 </wgt>
<wgt id='1082'> +1.3612832e+00 </wgt>
<wgt id='1083'> +1.3533283e+00 </wgt>
<wgt id='1084'> +1.3512857e+00 </wgt>
<wgt id='1085'> +1.3589194e+00 </wgt>
<wgt id='1086'> +1.3550834e+00 </wgt>
<wgt id='1087'> +1.3569608e+00 </wgt>
<wgt id='1088'> +1.3585792e+00 </wgt>
<wgt id='1089'> +1.3604645e+00 </wgt>
<wgt id='1090'> +1.3610620e+00 </wgt>
<wgt id='1091'> +1.3565971e+00 </wgt>
<wgt id='1092'> +1.3538036e+00 </wgt>
<wgt id='1093'> +1.3572716e+00 </wgt>
<wgt id='1094'> +1.3602494e+00 </wgt>
<wgt id='1095'> +1.3538988e+00 </wgt>
<wgt id='1096'> +1.3544640e+00 </wgt>
<wgt id='1097'> +1.3581572e+00 </wgt>
<wgt id='1098'> +1.3571476e+00 </wgt>
<wgt id='1099'> +1.3562573e+00 </wgt>
<wgt id='1100'> +1.3597463e+00 </wgt>
<wgt id='1101'> +1.3607326e+00 </wgt>
<wgt id='1102'> +1.3619467e+00 </wgt>
<wgt id='1103'> +1.3625234e+00 </wgt>
<wgt id='1104'> +1.3562982e+00 </wgt>
<wgt id='1105'> +1.3591918e+00 </wgt>
<wgt id='1106'> +1.3600725e+00 </wgt>
<wgt id='1107'> +1.3587536e+00 </wgt>
<wgt id='1108'> +1.3608339e+00 </wgt>
<wgt id='1109'> +1.3615475e+00 </wgt>
<wgt id='1110'> +1.3605258e+00 </wgt>
<wgt id='1111'> +1.3559042e+00 </wgt>
<wgt id='1112'> +1.3569839e+00 </wgt>
<wgt id='1113'> +1.3620684e+00 </wgt>
<wgt id='1114'> +1.3592198e+00 </wgt>
<wgt id='1115'> +1.3600652e+00 </wgt>
<wgt id='1116'> +1.3576943e+00 </wgt>
<wgt id='1117'> +1.3577673e+00 </wgt>
<wgt id='1118'> +1.3607627e+00 </wgt>
<wgt id='1119'> +1.3592629e+00 </wgt>
<wgt id='1120'> +1.3575933e+00 </wgt>
<wgt id='1121'> +1.3579586e+00 </wgt>
<wgt id='1122'> +1.3561159e+00 </wgt>
<wgt id='1123'> +1.3581391e+00 </wgt>
<wgt id='1124'> +1.3578839e+00 </wgt>
<wgt id='1125'> +1.3590433e+00 </wgt>
<wgt id='1126'> +1.3572240e+00 </wgt>
<wgt id='1127'> +1.3575450e+00 </wgt>
<wgt id='1128'> +1.3578239e+00 </wgt>
<wgt id='1129'> +1.3586917e+00 </wgt>
<wgt id='1130'> +1.3590319e+00 </wgt>
<wgt id='1131'> +1.3605073e+00 </wgt>
<wgt id='1132'> +1.3576786e+00 </wgt>
<wgt id='1133'> +1.3575799e+00 </wgt>
<wgt id='1134'> +1.3579676e+00 </wgt>
<wgt id='1135'> +1.3592354e+00 </wgt>
<wgt id='1136'> +1.3596003e+00 </wgt>
<wgt id='1137'> +1.3593253e+00 </wgt>
<wgt id='1138'> +1.3590014e+00 </wgt>
<wgt id='1139'> +1.3577944e+00 </wgt>
<wgt id='1140'> +1.3581765e+00 </wgt>
<wgt id='1141'> +1.3580779e+00 </wgt>
<wgt id='1142'> +1.3583005e+00 </wgt>
<wgt id='1143'> +1.3583690e+00 </wgt>
<wgt id='1144'> +1.3575630e+00 </wgt>
<wgt id='1145'> +1.3580557e+00 </wgt>
<wgt id='1146'> +1.3585162e+00 </wgt>
<wgt id='1147'> +1.3593073e+00 </wgt>
<wgt id='1148'> +1.3581722e+00 </wgt>
<wgt id='1149'> +1.3829992e+00 </wgt>
<wgt id='1150'> +1.3904784e+00 </wgt>
<wgt id='1151'> +1.4052989e+00 </wgt>
<wgt id='1152'> +1.3824347e+00 </wgt>
<wgt id='1153'> +1.3841625e+00 </wgt>
<wgt id='1154'> +1.4049204e+00 </wgt>
<wgt id='1155'> +1.3891619e+00 </wgt>
<wgt id='1156'> +1.4097709e+00 </wgt>
<wgt id='1157'> +1.3777858e+00 </wgt>
<wgt id='1158'> +1.4248484e+00 </wgt>
<wgt id='1159'> +1.3130894e+00 </wgt>
<wgt id='1160'> +1.3614604e+00 </wgt>
<wgt id='1161'> +1.3846380e+00 </wgt>
<wgt id='1162'> +1.3471817e+00 </wgt>
<wgt id='1163'> +1.3596825e+00 </wgt>
<wgt id='1164'> +1.4217033e+00 </wgt>
<wgt id='1165'> +1.3856022e+00 </wgt>
<wgt id='1166'> +1.4025870e+00 </wgt>
<wgt id='1167'> +1.4044704e+00 </wgt>
<wgt id='1168'> +1.3858952e+00 </wgt>
<wgt id='1169'> +1.3781326e+00 </wgt>
<wgt id='1170'> +1.3943447e+00 </wgt>
<wgt id='1171'> +1.4004454e+00 </wgt>
<wgt id='1172'> +1.4013153e+00 </wgt>
<wgt id='1173'> +1.3578923e+00 </wgt>
<wgt id='1174'> +1.3954909e+00 </wgt>
<wgt id='1175'> +1.3741858e+00 </wgt>
<wgt id='1176'> +1.3372657e+00 </wgt>
<wgt id='1177'> +1.4110298e+00 </wgt>
<wgt id='1178'> +1.3745596e+00 </wgt>
<wgt id='1179'> +1.4190016e+00 </wgt>
<wgt id='1180'> +1.4101300e+00 </wgt>
<wgt id='1181'> +1.4069837e+00 </wgt>
<wgt id='1182'> +1.4143067e+00 </wgt>
<wgt id='1183'> +1.3635047e+00 </wgt>
<wgt id='1184'> +1.3708809e+00 </wgt>
<wgt id='1185'> +1.3712017e+00 </wgt>
<wgt id='1186'> +1.3890266e+00 </wgt>
<wgt id='1187'> +1.3660468e+00 </wgt>
<wgt id='1188'> +1.3918303e+00 </wgt>
<wgt id='1189'> +1.3501652e+00 </wgt>
<wgt id='1190'> +1.4051966e+00 </wgt>
<wgt id='1191'> +1.3855059e+00 </wgt>
<wgt id='1192'> +1.3929607e+00 </wgt>
<wgt id='1193'> +1.3848146e+00 </wgt>
<wgt id='1194'> +1.3893608e+00 </wgt>
<wgt id='1195'> +1.3636945e+00 </wgt>
<wgt id='1196'> +1.3726152e+00 </wgt>
<wgt id='1197'> +1.3605499e+00 </wgt>
<wgt id='1198'> +1.4204797e+00 </wgt>
<wgt id='1199'> +1.3761143e+00 </wgt>
<wgt id='1200'> +1.3895832e+00 </wgt>
<wgt id='1201'> +1.4020450e+00 </wgt>
<wgt id='1202'> +1.3843404e+00 </wgt>
<wgt id='1203'> +1.4034696e+00 </wgt>
<wgt id='1204'> +1.3460119e+00 </wgt>
<wgt id='1205'> +1.3877705e+00 </wgt>
<wgt id='1206'> +1.3943122e+00 </wgt>
<wgt id='1207'> +1.4090006e+00 </wgt>
<wgt id='1208'> +1.4074435e+00 </wgt>
<wgt id='1209'> +1.4094585e+00 </wgt>
<wgt id='1210'> +1.3721262e+00 </wgt>
<wgt id='1211'> +1.3877716e+00 </wgt>
<wgt id='1212'> +1.3402854e+00 </wgt>
<wgt id='1213'> +1.3617176e+00 </wgt>
<wgt id='1214'> +1.3860495e+00 </wgt>
<wgt id='1215'> +1.3766829e+00 </wgt>
<wgt id='1216'> +1.3576473e+00 </wgt>
<wgt id='1217'> +1.3981031e+00 </wgt>
<wgt id='1218'> +1.3717757e+00 </wgt>
<wgt id='1219'> +1.3636833e+00 </wgt>
<wgt id='1220'> +1.4408689e+00 </wgt>
<wgt id='1221'> +1.3841112e+00 </wgt>
<wgt id='1222'> +1.3766430e+00 </wgt>
<wgt id='1223'> +1.3601141e+00 </wgt>
<wgt id='1224'> +1.3783934e+00 </wgt>
<wgt id='1225'> +1.3950262e+00 </wgt>
<wgt id='1226'> +1.3501357e+00 </wgt>
<wgt id='1227'> +1.4403276e+00 </wgt>
<wgt id='1228'> +1.3859949e+00 </wgt>
<wgt id='1229'> +1.3326661e+00 </wgt>
<wgt id='1230'> +1.3749295e+00 </wgt>
<wgt id='1231'> +1.3856022e+00 </wgt>
<wgt id='1232'> +1.2891880e+00 </wgt>
<wgt id='1233'> +1.3843124e+00 </wgt>
<wgt id='1234'> +1.4237814e+00 </wgt>
<wgt id='1235'> +1.3981687e+00 </wgt>
<wgt id='1236'> +1.3974244e+00 </wgt>
<wgt id='1237'> +1.3757974e+00 </wgt>
<wgt id='1238'> +1.2584949e+00 </wgt>
<wgt id='1239'> +1.3903038e+00 </wgt>
<wgt id='1240'> +1.4095193e+00 </wgt>
<wgt id='1241'> +1.3841645e+00 </wgt>
<wgt id='1242'> +1.3865509e+00 </wgt>
<wgt id='1243'> +1.3897974e+00 </wgt>
<wgt id='1244'> +1.3912497e+00 </wgt>
<wgt id='1245'> +1.4231876e+00 </wgt>
<wgt id='1246'> +1.3432064e+00 </wgt>
<wgt id='1247'> +1.3718005e+00 </wgt>
<wgt id='1248'> +1.3436746e+00 </wgt>
<wgt id='1249'> +1.4151400e+00 </wgt>
<wgt id='1250'> +1.3124876e+00 </wgt>
<wgt id='1251'> +1.3062468e+00 </wgt>
<wgt id='1252'> +1.3340664e+00 </wgt>
<wgt id='1253'> +1.3295814e+00 </wgt>
<wgt id='1254'> +1.1416499e+00 </wgt>
<wgt id='1255'> +1.3243462e+00 </wgt>
<wgt id='1256'> +1.3218152e+00 </wgt>
<wgt id='1257'> +1.3257990e+00 </wgt>
<wgt id='1258'> +1.3296217e+00 </wgt>
<wgt id='1259'> +1.3216941e+00 </wgt>
<wgt id='1260'> +1.3251330e+00 </wgt>
<wgt id='1261'> +1.3232768e+00 </wgt>
<wgt id='1262'> +1.3252038e+00 </wgt>
<wgt id='1263'> +1.3237934e+00 </wgt>
<wgt id='1264'> +1.3330271e+00 </wgt>
<wgt id='1265'> +1.3183073e+00 </wgt>
<wgt id='1266'> +1.3247855e+00 </wgt>
<wgt id='1267'> +1.3238974e+00 </wgt>
<wgt id='1268'> +1.3301029e+00 </wgt>
<wgt id='1269'> +1.3185269e+00 </wgt>
<wgt id='1270'> +1.3196150e+00 </wgt>
<wgt id='1271'> +1.3280989e+00 </wgt>
<wgt id='1272'> +1.3366205e+00 </wgt>
<wgt id='1273'> +1.3137541e+00 </wgt>
<wgt id='1274'> +1.3209792e+00 </wgt>
<wgt id='1275'> +1.3278542e+00 </wgt>
<wgt id='1276'> +1.3219460e+00 </wgt>
<wgt id='1277'> +1.3255232e+00 </wgt>
<wgt id='1278'> +1.3106588e+00 </wgt>
<wgt id='1279'> +1.3346404e+00 </wgt>
<wgt id='1280'> +1.3247974e+00 </wgt>
<wgt id='1281'> +1.3191332e+00 </wgt>
<wgt id='1282'> +1.3280696e+00 </wgt>
<wgt id='1283'> +1.3153137e+00 </wgt>
<wgt id='1284'> +1.3127762e+00 </wgt>
<wgt id='1285'> +1.3283593e+00 </wgt>
<wgt id='1286'> +1.3243481e+00 </wgt>
<wgt id='1287'> +1.3241462e+00 </wgt>
<wgt id='1288'> +1.3234506e+00 </wgt>
<wgt id='1289'> +1.3245218e+00 </wgt>
<wgt id='1290'> +1.3278932e+00 </wgt>
<wgt id='1291'> +1.3231377e+00 </wgt>
<wgt id='1292'> +1.3284467e+00 </wgt>
<wgt id='1293'> +1.3165871e+00 </wgt>
<wgt id='1294'> +1.3159407e+00 </wgt>
<wgt id='1295'> +1.3256165e+00 </wgt>
<wgt id='1296'> +1.3484469e+00 </wgt>
<wgt id='1297'> +1.3515690e+00 </wgt>
<wgt id='1298'> +1.3458600e+00 </wgt>
<wgt id='1299'> +1.3525551e+00 </wgt>
<wgt id='1300'> +1.3438665e+00 </wgt>
<wgt id='1301'> +1.3473461e+00 </wgt>
<wgt id='1302'> +1.3500310e+00 </wgt>
<wgt id='1303'> +1.3558427e+00 </wgt>
<wgt id='1304'> +1.3434908e+00 </wgt>
<wgt id='1305'> +1.3489243e+00 </wgt>
<wgt id='1306'> +1.3478206e+00 </wgt>
<wgt id='1307'> +1.3506895e+00 </wgt>
<wgt id='1308'> +1.3470561e+00 </wgt>
<wgt id='1309'> +1.3435396e+00 </wgt>
<wgt id='1310'> +1.3550043e+00 </wgt>
<wgt id='1311'> +1.3511757e+00 </wgt>
<wgt id='1312'> +1.3474899e+00 </wgt>
<wgt id='1313'> +1.3505085e+00 </wgt>
<wgt id='1314'> +1.3451413e+00 </wgt>
<wgt id='1315'> +1.3373849e+00 </wgt>
<wgt id='1316'> +1.3576134e+00 </wgt>
<wgt id='1317'> +1.3384465e+00 </wgt>
<wgt id='1318'> +1.3659992e+00 </wgt>
<wgt id='1319'> +1.3516235e+00 </wgt>
<wgt id='1320'> +1.3454214e+00 </wgt>
<wgt id='1321'> +1.3398287e+00 </wgt>
<wgt id='1322'> +1.3522507e+00 </wgt>
<wgt id='1323'> +1.3380074e+00 </wgt>
<wgt id='1324'> +1.3404199e+00 </wgt>
<wgt id='1325'> +1.3482043e+00 </wgt>
<wgt id='1326'> +1.3447306e+00 </wgt>
<wgt id='1327'> +1.3451452e+00 </wgt>
<wgt id='1328'> +1.3497536e+00 </wgt>
<wgt id='1329'> +1.3460659e+00 </wgt>
<wgt id='1330'> +1.3499439e+00 </wgt>
<wgt id='1331'> +1.3480768e+00 </wgt>
<wgt id='1332'> +1.3470020e+00 </wgt>
<wgt id='1333'> +1.3568203e+00 </wgt>
<wgt id='1334'> +1.3351762e+00 </wgt>
<wgt id='1335'> +1.3545120e+00 </wgt>
<wgt id='1336'> +1.3461408e+00 </wgt>
<wgt id='1337'> +1.3484469e+00 </wgt>
<wgt id='1338'> +1.3468416e+00 </wgt>
<wgt id='1339'> +1.3475252e+00 </wgt>
<wgt id='1340'> +1.3481206e+00 </wgt>
<wgt id='1341'> +1.3490788e+00 </wgt>
<wgt id='1342'> +1.3494860e+00 </wgt>
<wgt id='1343'> +1.3497729e+00 </wgt>
<wgt id='1344'> +1.3505442e+00 </wgt>
<wgt id='1345'> +1.3534880e+00 </wgt>
<wgt id='1346'> +1.3476718e+00 </wgt>
<wgt id='1347'> +1.3466412e+00 </wgt>
<wgt id='1348'> +1.3534303e+00 </wgt>
<wgt id='1349'> +1.3559702e+00 </wgt>
<wgt id='1350'> +1.3459901e+00 </wgt>
<wgt id='1351'> +1.3504784e+00 </wgt>
<wgt id='1352'> +1.3507056e+00 </wgt>
<wgt id='1353'> +1.3541989e+00 </wgt>
<wgt id='1354'> +1.3479472e+00 </wgt>
<wgt id='1355'> +1.3563672e+00 </wgt>
<wgt id='1356'> +1.3459137e+00 </wgt>
<wgt id='1357'> +1.3530575e+00 </wgt>
<wgt id='1358'> +1.3490157e+00 </wgt>
<wgt id='1359'> +1.3492851e+00 </wgt>
<wgt id='1360'> +1.3540163e+00 </wgt>
<wgt id='1361'> +1.3556251e+00 </wgt>
<wgt id='1362'> +1.3472285e+00 </wgt>
<wgt id='1363'> +1.3596806e+00 </wgt>
<wgt id='1364'> +1.3375574e+00 </wgt>
<wgt id='1365'> +1.3490461e+00 </wgt>
<wgt id='1366'> +1.3505206e+00 </wgt>
<wgt id='1367'> +1.3418688e+00 </wgt>
<wgt id='1368'> +1.3541958e+00 </wgt>
<wgt id='1369'> +1.3439089e+00 </wgt>
<wgt id='1370'> +1.3546493e+00 </wgt>
<wgt id='1371'> +1.3452953e+00 </wgt>
<wgt id='1372'> +1.3449229e+00 </wgt>
<wgt id='1373'> +1.3549680e+00 </wgt>
<wgt id='1374'> +1.3482887e+00 </wgt>
<wgt id='1375'> +1.3461927e+00 </wgt>
<wgt id='1376'> +1.3513116e+00 </wgt>
<wgt id='1377'> +1.3511239e+00 </wgt>
<wgt id='1378'> +1.3501389e+00 </wgt>
<wgt id='1379'> +1.3482956e+00 </wgt>
<wgt id='1380'> +1.3500015e+00 </wgt>
<wgt id='1381'> +1.3440098e+00 </wgt>
<wgt id='1382'> +1.3489285e+00 </wgt>
<wgt id='1383'> +1.3487493e+00 </wgt>
<wgt id='1384'> +1.3527387e+00 </wgt>
<wgt id='1385'> +1.3505442e+00 </wgt>
<wgt id='1386'> +1.3482815e+00 </wgt>
<wgt id='1387'> +1.3491807e+00 </wgt>
<wgt id='1388'> +1.3499520e+00 </wgt>
<wgt id='1389'> +1.3510215e+00 </wgt>
<wgt id='1390'> +1.3514773e+00 </wgt>
<wgt id='1391'> +1.3517583e+00 </wgt>
<wgt id='1392'> +1.3781676e+00 </wgt>
<wgt id='1393'> +1.3765433e+00 </wgt>
<wgt id='1394'> +1.3798938e+00 </wgt>
<wgt id='1395'> +1.3798323e+00 </wgt>
<wgt id='1396'> +1.3769454e+00 </wgt>
<wgt id='1397'> +1.3803897e+00 </wgt>
<wgt id='1398'> +1.3760114e+00 </wgt>
<wgt id='1399'> +1.3740784e+00 </wgt>
<wgt id='1400'> +1.3832232e+00 </wgt>
<wgt id='1401'> +1.3771079e+00 </wgt>
<wgt id='1402'> +1.3794860e+00 </wgt>
<wgt id='1403'> +1.3764837e+00 </wgt>
<wgt id='1404'> +1.3814736e+00 </wgt>
<wgt id='1405'> +1.3824566e+00 </wgt>
<wgt id='1406'> +1.3721842e+00 </wgt>
<wgt id='1407'> +1.3749836e+00 </wgt>
<wgt id='1408'> +1.3803565e+00 </wgt>
<wgt id='1409'> +1.3778090e+00 </wgt>
<wgt id='1410'> +1.3785601e+00 </wgt>
<wgt id='1411'> +1.3713050e+00 </wgt>
<wgt id='1412'> +1.3833623e+00 </wgt>
<wgt id='1413'> +1.3894114e+00 </wgt>
<wgt id='1414'> +1.3660658e+00 </wgt>
<wgt id='1415'> +1.3853945e+00 </wgt>
<wgt id='1416'> +1.3710488e+00 </wgt>
<wgt id='1417'> +1.3788009e+00 </wgt>
<wgt id='1418'> +1.3773478e+00 </wgt>
<wgt id='1419'> +1.3718406e+00 </wgt>
<wgt id='1420'> +1.3796950e+00 </wgt>
<wgt id='1421'> +1.3845502e+00 </wgt>
<wgt id='1422'> +1.3706094e+00 </wgt>
<wgt id='1423'> +1.3919446e+00 </wgt>
<wgt id='1424'> +1.3674682e+00 </wgt>
<wgt id='1425'> +1.3797093e+00 </wgt>
<wgt id='1426'> +1.3749081e+00 </wgt>
<wgt id='1427'> +1.3796285e+00 </wgt>
<wgt id='1428'> +1.3738580e+00 </wgt>
<wgt id='1429'> +1.3753224e+00 </wgt>
<wgt id='1430'> +1.3770521e+00 </wgt>
<wgt id='1431'> +1.3736133e+00 </wgt>
<wgt id='1432'> +1.3821214e+00 </wgt>
<wgt id='1433'> +1.3567767e+00 </wgt>
<wgt id='1434'> +1.4050657e+00 </wgt>
<wgt id='1435'> +1.3761519e+00 </wgt>
<wgt id='1436'> +1.3749245e+00 </wgt>
<wgt id='1437'> +1.3732757e+00 </wgt>
<wgt id='1438'> +1.3915089e+00 </wgt>
<wgt id='1439'> +1.3828516e+00 </wgt>
<wgt id='1440'> +1.3655375e+00 </wgt>
<wgt id='1441'> +1.3792360e+00 </wgt>
<wgt id='1442'> +1.3760966e+00 </wgt>
<wgt id='1443'> +1.3686288e+00 </wgt>
<wgt id='1444'> +1.3670012e+00 </wgt>
<wgt id='1445'> +1.3704076e+00 </wgt>
<wgt id='1446'> +1.3703696e+00 </wgt>
<wgt id='1447'> +1.3674967e+00 </wgt>
<wgt id='1448'> +1.3709826e+00 </wgt>
<wgt id='1449'> +1.3665296e+00 </wgt>
<wgt id='1450'> +1.3644187e+00 </wgt>
<wgt id='1451'> +1.3733444e+00 </wgt>
<wgt id='1452'> +1.3678649e+00 </wgt>
<wgt id='1453'> +1.3694162e+00 </wgt>
<wgt id='1454'> +1.3672174e+00 </wgt>
<wgt id='1455'> +1.3717284e+00 </wgt>
<wgt id='1456'> +1.3735561e+00 </wgt>
<wgt id='1457'> +1.3598191e+00 </wgt>
<wgt id='1458'> +1.3642478e+00 </wgt>
<wgt id='1459'> +1.3711310e+00 </wgt>
<wgt id='1460'> +1.3664672e+00 </wgt>
<wgt id='1461'> +1.3711815e+00 </wgt>
<wgt id='1462'> +1.3626289e+00 </wgt>
<wgt id='1463'> +1.3737955e+00 </wgt>
<wgt id='1464'> +1.3781224e+00 </wgt>
<wgt id='1465'> +1.3560174e+00 </wgt>
<wgt id='1466'> +1.3773171e+00 </wgt>
<wgt id='1467'> +1.3630424e+00 </wgt>
<wgt id='1468'> +1.3646909e+00 </wgt>
<wgt id='1469'> +1.3727550e+00 </wgt>
<wgt id='1470'> +1.3627369e+00 </wgt>
<wgt id='1471'> +1.3699738e+00 </wgt>
<wgt id='1472'> +1.3730692e+00 </wgt>
<wgt id='1473'> +1.3630585e+00 </wgt>
<wgt id='1474'> +1.3793472e+00 </wgt>
<wgt id='1475'> +1.3558381e+00 </wgt>
<wgt id='1476'> +1.3689629e+00 </wgt>
<wgt id='1477'> +1.3669379e+00 </wgt>
<wgt id='1478'> +1.3702107e+00 </wgt>
<wgt id='1479'> +1.3641315e+00 </wgt>
<wgt id='1480'> +1.3677788e+00 </wgt>
<wgt id='1481'> +1.3680110e+00 </wgt>
<wgt id='1482'> +1.3639613e+00 </wgt>
<wgt id='1483'> +1.3733949e+00 </wgt>
<wgt id='1484'> +1.3471444e+00 </wgt>
<wgt id='1485'> +1.3942196e+00 </wgt>
<wgt id='1486'> +1.3718314e+00 </wgt>
<wgt id='1487'> +1.3638107e+00 </wgt>
<wgt id='1488'> +1.3630098e+00 </wgt>
<wgt id='1489'> +1.3831416e+00 </wgt>
<wgt id='1490'> +1.3741808e+00 </wgt>
<wgt id='1491'> +1.3545178e+00 </wgt>
<wgt id='1492'> +1.3701123e+00 </wgt>
<wgt id='1493'> +1.3657403e+00 </wgt>
<wgt id='1494'> +1.3222832e+00 </wgt>
<wgt id='1495'> +1.3088830e+00 </wgt>
<wgt id='1496'> +1.3142940e+00 </wgt>
<wgt id='1497'> +1.3186262e+00 </wgt>
<wgt id='1498'> +1.3265869e+00 </wgt>
<wgt id='1499'> +1.3225411e+00 </wgt>
<wgt id='1500'> +1.3143003e+00 </wgt>
<wgt id='1501'> +1.3164887e+00 </wgt>
<wgt id='1502'> +1.3183415e+00 </wgt>
<wgt id='1503'> +1.3198390e+00 </wgt>
<wgt id='1504'> +1.3214037e+00 </wgt>
<wgt id='1505'> +1.3240712e+00 </wgt>
<wgt id='1506'> +1.3252164e+00 </wgt>
<wgt id='1507'> +1.3263008e+00 </wgt>
<wgt id='1508'> +1.3225411e+00 </wgt>
<wgt id='1509'> +1.3225812e+00 </wgt>
<wgt id='1510'> +1.3225727e+00 </wgt>
<wgt id='1511'> +1.3225545e+00 </wgt>
<wgt id='1512'> +1.3228298e+00 </wgt>
<wgt id='1513'> +1.3408063e+00 </wgt>
<wgt id='1514'> +1.3388122e+00 </wgt>
<wgt id='1515'> +1.3434585e+00 </wgt>
<wgt id='1516'> +1.3412733e+00 </wgt>
<wgt id='1517'> +1.3404044e+00 </wgt>
<wgt id='1518'> +1.3443597e+00 </wgt>
<wgt id='1519'> +1.3393888e+00 </wgt>
<wgt id='1520'> +1.3374984e+00 </wgt>
<wgt id='1521'> +1.3441549e+00 </wgt>
<wgt id='1522'> +1.3412017e+00 </wgt>
<wgt id='1523'> +1.3404662e+00 </wgt>
<wgt id='1524'> +1.3427424e+00 </wgt>
<wgt id='1525'> +1.3400160e+00 </wgt>
<wgt id='1526'> +1.3445787e+00 </wgt>
<wgt id='1527'> +1.3362478e+00 </wgt>
<wgt id='1528'> +1.3435709e+00 </wgt>
<wgt id='1529'> +1.3378123e+00 </wgt>
<wgt id='1530'> +1.3436582e+00 </wgt>
<wgt id='1531'> +1.3392170e+00 </wgt>
<wgt id='1532'> +1.3423648e+00 </wgt>
<wgt id='1533'> +1.3387566e+00 </wgt>
<wgt id='1534'> +1.3264914e+00 </wgt>
<wgt id='1535'> +1.3507070e+00 </wgt>
<wgt id='1536'> +1.3386850e+00 </wgt>
<wgt id='1537'> +1.3427058e+00 </wgt>
<wgt id='1538'> +1.3401837e+00 </wgt>
<wgt id='1539'> +1.3424037e+00 </wgt>
<wgt id='1540'> +1.3369292e+00 </wgt>
<wgt id='1541'> +1.3410673e+00 </wgt>
<wgt id='1542'> +1.3359644e+00 </wgt>
<wgt id='1543'> +1.3545672e+00 </wgt>
<wgt id='1544'> +1.3445696e+00 </wgt>
<wgt id='1545'> +1.3324035e+00 </wgt>
<wgt id='1546'> +1.3383213e+00 </wgt>
<wgt id='1547'> +1.3432334e+00 </wgt>
<wgt id='1548'> +1.3376834e+00 </wgt>
<wgt id='1549'> +1.3410399e+00 </wgt>
<wgt id='1550'> +1.3412218e+00 </wgt>
<wgt id='1551'> +1.3311589e+00 </wgt>
<wgt id='1552'> +1.3356943e+00 </wgt>
<wgt id='1553'> +1.3441015e+00 </wgt>
<wgt id='1554'> +1.3545562e+00 </wgt>
<wgt id='1555'> +1.3171907e+00 </wgt>
<wgt id='1556'> +1.3418126e+00 </wgt>
<wgt id='1557'> +1.3337481e+00 </wgt>
<wgt id='1558'> +1.3283546e+00 </wgt>
<wgt id='1559'> +1.3489893e+00 </wgt>
<wgt id='1560'> +1.3517932e+00 </wgt>
<wgt id='1561'> +1.3357302e+00 </wgt>
<wgt id='1562'> +1.3350007e+00 </wgt>
<wgt id='1563'> +1.3423608e+00 </wgt>
<wgt id='1564'> +1.3408063e+00 </wgt>
<wgt id='1565'> +1.3372551e+00 </wgt>
<wgt id='1566'> +1.3432955e+00 </wgt>
<wgt id='1567'> +1.3394941e+00 </wgt>
<wgt id='1568'> +1.3336885e+00 </wgt>
<wgt id='1569'> +1.3357711e+00 </wgt>
<wgt id='1570'> +1.3368081e+00 </wgt>
<wgt id='1571'> +1.3371940e+00 </wgt>
<wgt id='1572'> +1.3387958e+00 </wgt>
<wgt id='1573'> +1.3400204e+00 </wgt>
<wgt id='1574'> +1.3391979e+00 </wgt>
<wgt id='1575'> +1.3396419e+00 </wgt>
<wgt id='1576'> +1.3394941e+00 </wgt>
<wgt id='1577'> +1.3392481e+00 </wgt>
<wgt id='1578'> +1.3393004e+00 </wgt>
<wgt id='1579'> +1.3397028e+00 </wgt>
<wgt id='1580'> +1.3398143e+00 </wgt>
<wgt id='1581'> +1.3273380e+00 </wgt>
<wgt id='1582'> +1.3280102e+00 </wgt>
<wgt id='1583'> +1.3418432e+00 </wgt>
<wgt id='1584'> +1.3181878e+00 </wgt>
<wgt id='1585'> +1.3306810e+00 </wgt>
<wgt id='1586'> +1.3090363e+00 </wgt>
<wgt id='1587'> +1.3183970e+00 </wgt>
<wgt id='1588'> +1.3337456e+00 </wgt>
<wgt id='1589'> +1.3264032e+00 </wgt>
<wgt id='1590'> +1.3261122e+00 </wgt>
<wgt id='1591'> +1.3249045e+00 </wgt>
<wgt id='1592'> +1.3349548e+00 </wgt>
<wgt id='1593'> +1.3264867e+00 </wgt>
<wgt id='1594'> +1.3306862e+00 </wgt>
<wgt id='1595'> +1.3263342e+00 </wgt>
<wgt id='1596'> +1.3313658e+00 </wgt>
<wgt id='1597'> +1.3243656e+00 </wgt>
<wgt id='1598'> +1.3300773e+00 </wgt>
<wgt id='1599'> +1.3352804e+00 </wgt>
<wgt id='1600'> +1.3307080e+00 </wgt>
<wgt id='1601'> +1.3283537e+00 </wgt>
<wgt id='1602'> +1.3290844e+00 </wgt>
<wgt id='1603'> +1.3285421e+00 </wgt>
<wgt id='1604'> +1.3299900e+00 </wgt>
<wgt id='1605'> +1.3249606e+00 </wgt>
<wgt id='1606'> +1.3266616e+00 </wgt>
<wgt id='1607'> +1.3291388e+00 </wgt>
<wgt id='1608'> +1.3429502e+00 </wgt>
<wgt id='1609'> +1.3281563e+00 </wgt>
<wgt id='1610'> +1.3255493e+00 </wgt>
<wgt id='1611'> +1.3332616e+00 </wgt>
<wgt id='1612'> +1.3510019e+00 </wgt>
<wgt id='1613'> +1.3504534e+00 </wgt>
<wgt id='1614'> +1.3524436e+00 </wgt>
<wgt id='1615'> +1.3529330e+00 </wgt>
<wgt id='1616'> +1.3502114e+00 </wgt>
<wgt id='1617'> +1.3492820e+00 </wgt>
<wgt id='1618'> +1.3505207e+00 </wgt>
<wgt id='1619'> +1.3445393e+00 </wgt>
<wgt id='1620'> +1.3453225e+00 </wgt>
<wgt id='1621'> +1.3526546e+00 </wgt>
<wgt id='1622'> +1.3520343e+00 </wgt>
<wgt id='1623'> +1.3460751e+00 </wgt>
<wgt id='1624'> +1.3502863e+00 </wgt>
<wgt id='1625'> +1.3520720e+00 </wgt>
<wgt id='1626'> +1.3551108e+00 </wgt>
<wgt id='1627'> +1.3553678e+00 </wgt>
<wgt id='1628'> +1.3528470e+00 </wgt>
<wgt id='1629'> +1.3504374e+00 </wgt>
<wgt id='1630'> +1.3532273e+00 </wgt>
<wgt id='1631'> +1.3477833e+00 </wgt>
<wgt id='1632'> +1.3538129e+00 </wgt>
<wgt id='1633'> +1.3494224e+00 </wgt>
<wgt id='1634'> +1.3566853e+00 </wgt>
<wgt id='1635'> +1.3478477e+00 </wgt>
<wgt id='1636'> +1.3590137e+00 </wgt>
<wgt id='1637'> +1.3542071e+00 </wgt>
<wgt id='1638'> +1.3503359e+00 </wgt>
<wgt id='1639'> +1.3564454e+00 </wgt>
<wgt id='1640'> +1.3540090e+00 </wgt>
<wgt id='1641'> +1.3348387e+00 </wgt>
<wgt id='1642'> +1.3496769e+00 </wgt>
<wgt id='1643'> +1.3501654e+00 </wgt>
<wgt id='1644'> +1.3483572e+00 </wgt>
<wgt id='1645'> +1.3474592e+00 </wgt>
<wgt id='1646'> +1.3508874e+00 </wgt>
<wgt id='1647'> +1.3531897e+00 </wgt>
<wgt id='1648'> +1.3504001e+00 </wgt>
<wgt id='1649'> +1.3544405e+00 </wgt>
<wgt id='1650'> +1.3498508e+00 </wgt>
<wgt id='1651'> +1.3522863e+00 </wgt>
<wgt id='1652'> +1.3504409e+00 </wgt>
<wgt id='1653'> +1.3494194e+00 </wgt>
<wgt id='1654'> +1.3496229e+00 </wgt>
<wgt id='1655'> +1.3504351e+00 </wgt>
<wgt id='1656'> +1.3546659e+00 </wgt>
<wgt id='1657'> +1.3472537e+00 </wgt>
<wgt id='1658'> +1.3538199e+00 </wgt>
<wgt id='1659'> +1.3560326e+00 </wgt>
<wgt id='1660'> +1.3491255e+00 </wgt>
<wgt id='1661'> +1.3555446e+00 </wgt>
<wgt id='1662'> +1.3528753e+00 </wgt>
<wgt id='1663'> +1.3524232e+00 </wgt>
<wgt id='1664'> +1.3492638e+00 </wgt>
<wgt id='1665'> +1.3487486e+00 </wgt>
<wgt id='1666'> +1.3511571e+00 </wgt>
<wgt id='1667'> +1.3473501e+00 </wgt>
<wgt id='1668'> +1.3534237e+00 </wgt>
<wgt id='1669'> +1.3489998e+00 </wgt>
<wgt id='1670'> +1.3510514e+00 </wgt>
<wgt id='1671'> +1.3515977e+00 </wgt>
<wgt id='1672'> +1.3514454e+00 </wgt>
<wgt id='1673'> +1.3500322e+00 </wgt>
<wgt id='1674'> +1.3529676e+00 </wgt>
<wgt id='1675'> +1.3517650e+00 </wgt>
<wgt id='1676'> +1.3492377e+00 </wgt>
<wgt id='1677'> +1.3518748e+00 </wgt>
<wgt id='1678'> +1.3512381e+00 </wgt>
<wgt id='1679'> +1.3517012e+00 </wgt>
<wgt id='1680'> +1.3526013e+00 </wgt>
<wgt id='1681'> +1.3497736e+00 </wgt>
<wgt id='1682'> +1.3496608e+00 </wgt>
<wgt id='1683'> +1.3486326e+00 </wgt>
<wgt id='1684'> +1.3535350e+00 </wgt>
<wgt id='1685'> +1.3487521e+00 </wgt>
<wgt id='1686'> +1.3519665e+00 </wgt>
<wgt id='1687'> +1.3504835e+00 </wgt>
<wgt id='1688'> +1.3499085e+00 </wgt>
<wgt id='1689'> +1.3519339e+00 </wgt>
<wgt id='1690'> +1.3507447e+00 </wgt>
<wgt id='1691'> +1.3522649e+00 </wgt>
<wgt id='1692'> +1.3522568e+00 </wgt>
<wgt id='1693'> +1.3502967e+00 </wgt>
<wgt id='1694'> +1.3509672e+00 </wgt>
<wgt id='1695'> +1.3503889e+00 </wgt>
<wgt id='1696'> +1.3498943e+00 </wgt>
<wgt id='1697'> +1.3511329e+00 </wgt>
<wgt id='1698'> +1.3513366e+00 </wgt>
<wgt id='1699'> +1.3500314e+00 </wgt>
<wgt id='1700'> +1.3507423e+00 </wgt>
<wgt id='1701'> +1.3511210e+00 </wgt>
<wgt id='1702'> +1.3511748e+00 </wgt>
<wgt id='1703'> +1.3526878e+00 </wgt>
<wgt id='1704'> +1.3501439e+00 </wgt>
<wgt id='1705'> +1.3501616e+00 </wgt>
<wgt id='1706'> +1.3504710e+00 </wgt>
<wgt id='1707'> +1.3503951e+00 </wgt>
<wgt id='1708'> +1.3499928e+00 </wgt>
<wgt id='1709'> +1.3526410e+00 </wgt>
<wgt id='1710'> +1.3507211e+00 </wgt>
<wgt id='1711'> +1.3503549e+00 </wgt>
<wgt id='1712'> +1.3526043e+00 </wgt>
<wgt id='1713'> +1.3290108e+00 </wgt>
<wgt id='1714'> +1.3679891e+00 </wgt>
<wgt id='1715'> +1.3965279e+00 </wgt>
<wgt id='1716'> +1.3959337e+00 </wgt>
<wgt id='1717'> +1.4161604e+00 </wgt>
<wgt id='1718'> +1.3502121e+00 </wgt>
<wgt id='1719'> +1.3758434e+00 </wgt>
<wgt id='1720'> +1.4287341e+00 </wgt>
<wgt id='1721'> +1.3660482e+00 </wgt>
<wgt id='1722'> +1.3756419e+00 </wgt>
<wgt id='1723'> +1.4270992e+00 </wgt>
<wgt id='1724'> +1.3981453e+00 </wgt>
<wgt id='1725'> +1.4020305e+00 </wgt>
<wgt id='1726'> +1.4127338e+00 </wgt>
<wgt id='1727'> +1.4003202e+00 </wgt>
<wgt id='1728'> +1.4086912e+00 </wgt>
<wgt id='1729'> +1.3872709e+00 </wgt>
<wgt id='1730'> +1.3893908e+00 </wgt>
<wgt id='1731'> +1.3181686e+00 </wgt>
<wgt id='1732'> +1.4369699e+00 </wgt>
<wgt id='1733'> +1.4182271e+00 </wgt>
<wgt id='1734'> +1.4077373e+00 </wgt>
<wgt id='1735'> +1.3096735e+00 </wgt>
<wgt id='1736'> +1.4092649e+00 </wgt>
<wgt id='1737'> +1.3807983e+00 </wgt>
<wgt id='1738'> +1.4246846e+00 </wgt>
<wgt id='1739'> +1.3971543e+00 </wgt>
<wgt id='1740'> +1.3794150e+00 </wgt>
<wgt id='1741'> +1.3882741e+00 </wgt>
<wgt id='1742'> +1.4501255e+00 </wgt>
<wgt id='1743'> +1.3526478e+00 </wgt>
<wgt id='1744'> +1.3942975e+00 </wgt>
<wgt id='1745'> +1.3377357e+00 </wgt>
<wgt id='1746'> +1.3898949e+00 </wgt>
<wgt id='1747'> +1.4051594e+00 </wgt>
<wgt id='1748'> +1.3672732e+00 </wgt>
<wgt id='1749'> +1.4327328e+00 </wgt>
<wgt id='1750'> +1.4040187e+00 </wgt>
<wgt id='1751'> +1.4124736e+00 </wgt>
<wgt id='1752'> +1.3779252e+00 </wgt>
<wgt id='1753'> +1.3724879e+00 </wgt>
<wgt id='1754'> +1.3965925e+00 </wgt>
<wgt id='1755'> +1.3990081e+00 </wgt>
<wgt id='1756'> +1.4018200e+00 </wgt>
<wgt id='1757'> +1.4034733e+00 </wgt>
<wgt id='1758'> +1.3888083e+00 </wgt>
<wgt id='1759'> +1.3704784e+00 </wgt>
<wgt id='1760'> +1.3820383e+00 </wgt>
<wgt id='1761'> +1.3937310e+00 </wgt>
<wgt id='1762'> +1.4003202e+00 </wgt>
<wgt id='1763'> +1.3775661e+00 </wgt>
<wgt id='1764'> +1.4046396e+00 </wgt>
<wgt id='1765'> +1.3980592e+00 </wgt>
<wgt id='1766'> +1.4330347e+00 </wgt>
<wgt id='1767'> +1.3830097e+00 </wgt>
<wgt id='1768'> +1.3551452e+00 </wgt>
<wgt id='1769'> +1.4005834e+00 </wgt>
<wgt id='1770'> +1.4537053e+00 </wgt>
<wgt id='1771'> +1.3894506e+00 </wgt>
<wgt id='1772'> +1.4002386e+00 </wgt>
<wgt id='1773'> +1.3987065e+00 </wgt>
<wgt id='1774'> +1.3624947e+00 </wgt>
<wgt id='1775'> +1.3842333e+00 </wgt>
<wgt id='1776'> +1.4296999e+00 </wgt>
<wgt id='1777'> +1.4424620e+00 </wgt>
<wgt id='1778'> +1.3862544e+00 </wgt>
<wgt id='1779'> +1.4044295e+00 </wgt>
<wgt id='1780'> +1.3970285e+00 </wgt>
<wgt id='1781'> +1.4135420e+00 </wgt>
<wgt id='1782'> +1.4615045e+00 </wgt>
<wgt id='1783'> +1.4044790e+00 </wgt>
<wgt id='1784'> +1.4196208e+00 </wgt>
<wgt id='1785'> +1.3999012e+00 </wgt>
<wgt id='1786'> +1.4359877e+00 </wgt>
<wgt id='1787'> +1.3875152e+00 </wgt>
<wgt id='1788'> +1.4035012e+00 </wgt>
<wgt id='1789'> +1.3929979e+00 </wgt>
<wgt id='1790'> +1.3989914e+00 </wgt>
<wgt id='1791'> +1.3125936e+00 </wgt>
<wgt id='1792'> +1.4178139e+00 </wgt>
<wgt id='1793'> +1.4339615e+00 </wgt>
<wgt id='1794'> +1.4158928e+00 </wgt>
<wgt id='1795'> +1.3171093e+00 </wgt>
<wgt id='1796'> +1.3844094e+00 </wgt>
<wgt id='1797'> +1.3578435e+00 </wgt>
<wgt id='1798'> +1.3762661e+00 </wgt>
<wgt id='1799'> +1.4244960e+00 </wgt>
<wgt id='1800'> +1.4458966e+00 </wgt>
<wgt id='1801'> +1.3744040e+00 </wgt>
<wgt id='1802'> +1.4287831e+00 </wgt>
<wgt id='1803'> +1.3989689e+00 </wgt>
<wgt id='1804'> +1.4233469e+00 </wgt>
<wgt id='1805'> +1.4209977e+00 </wgt>
<wgt id='1806'> +1.3696873e+00 </wgt>
<wgt id='1807'> +1.3643776e+00 </wgt>
<wgt id='1808'> +1.3592943e+00 </wgt>
<wgt id='1809'> +1.4188629e+00 </wgt>
<wgt id='1810'> +1.3795133e+00 </wgt>
<wgt id='1811'> +1.4287316e+00 </wgt>
<wgt id='1812'> +1.3925311e+00 </wgt>
<wgt id='1813'> +1.4204306e+00 </wgt>
<wgt id='1814'> +1.4002061e+00 </wgt>
<wgt id='1815'> +1.4290473e+00 </wgt>
<wgt id='1816'> +1.3436229e+00 </wgt>
<wgt id='1817'> +1.3733452e+00 </wgt>
<wgt id='1818'> +1.3345601e+00 </wgt>
<wgt id='1819'> +1.3216320e+00 </wgt>
<wgt id='1820'> +1.3848537e+00 </wgt>
<wgt id='1821'> +1.3160811e+00 </wgt>
<wgt id='1822'> +1.3621968e+00 </wgt>
<wgt id='1823'> +1.3616732e+00 </wgt>
<wgt id='1824'> +1.3683481e+00 </wgt>
<wgt id='1825'> +1.3392668e+00 </wgt>
<wgt id='1826'> +1.3217937e+00 </wgt>
<wgt id='1827'> +1.3282369e+00 </wgt>
<wgt id='1828'> +1.3304917e+00 </wgt>
<wgt id='1829'> +1.3544262e+00 </wgt>
<wgt id='1830'> +1.2912925e+00 </wgt>
<wgt id='1831'> +1.3526594e+00 </wgt>
<wgt id='1832'> +1.3319250e+00 </wgt>
<wgt id='1833'> +1.2958513e+00 </wgt>
<wgt id='1834'> +1.2639340e+00 </wgt>
<wgt id='1835'> +1.3686432e+00 </wgt>
<wgt id='1836'> +1.3979338e+00 </wgt>
<wgt id='1837'> +1.3872965e+00 </wgt>
<wgt id='1838'> +1.3661338e+00 </wgt>
<wgt id='1839'> +1.3943495e+00 </wgt>
<wgt id='1840'> +1.3256298e+00 </wgt>
<wgt id='1841'> +1.3258796e+00 </wgt>
<wgt id='1842'> +1.3401538e+00 </wgt>
<wgt id='1843'> +1.2885973e+00 </wgt>
<wgt id='1844'> +1.3172432e+00 </wgt>
<wgt id='1845'> +1.3449078e+00 </wgt>
<wgt id='1846'> +1.3507593e+00 </wgt>
<wgt id='1847'> +1.3371995e+00 </wgt>
<wgt id='1848'> +1.3624284e+00 </wgt>
<wgt id='1849'> +1.3729101e+00 </wgt>
<wgt id='1850'> +1.3344964e+00 </wgt>
<wgt id='1851'> +1.3351491e+00 </wgt>
<wgt id='1852'> +1.3360840e+00 </wgt>
<wgt id='1853'> +1.3100445e+00 </wgt>
<wgt id='1854'> +1.3832098e+00 </wgt>
<wgt id='1855'> +1.3381235e+00 </wgt>
<wgt id='1856'> +1.3539779e+00 </wgt>
<wgt id='1857'> +1.4016675e+00 </wgt>
<wgt id='1858'> +1.3510327e+00 </wgt>
<wgt id='1859'> +1.3545525e+00 </wgt>
<wgt id='1860'> +1.3399316e+00 </wgt>
<wgt id='1861'> +1.3502867e+00 </wgt>
<wgt id='1862'> +1.3504392e+00 </wgt>
<wgt id='1863'> +1.3474093e+00 </wgt>
<wgt id='1864'> +1.3389974e+00 </wgt>
<wgt id='1865'> +1.3201657e+00 </wgt>
<wgt id='1866'> +1.3506176e+00 </wgt>
<wgt id='1867'> +1.3592222e+00 </wgt>
<wgt id='1868'> +1.3428208e+00 </wgt>
<wgt id='1869'> +1.3223736e+00 </wgt>
<wgt id='1870'> +1.3705394e+00 </wgt>
<wgt id='1871'> +1.3487487e+00 </wgt>
<wgt id='1872'> +1.2863301e+00 </wgt>
<wgt id='1873'> +1.3398733e+00 </wgt>
<wgt id='1874'> +1.3434199e+00 </wgt>
<wgt id='1875'> +1.3152086e+00 </wgt>
<wgt id='1876'> +1.3737738e+00 </wgt>
<wgt id='1877'> +1.3423451e+00 </wgt>
<wgt id='1878'> +1.3340633e+00 </wgt>
<wgt id='1879'> +1.3097153e+00 </wgt>
<wgt id='1880'> +1.2466705e+00 </wgt>
<wgt id='1881'> +1.3505182e+00 </wgt>
<wgt id='1882'> +1.3176630e+00 </wgt>
<wgt id='1883'> +1.4981947e+00 </wgt>
<wgt id='1884'> +1.3268640e+00 </wgt>
<wgt id='1885'> +1.3131760e+00 </wgt>
<wgt id='1886'> +1.3497422e+00 </wgt>
<wgt id='1887'> +1.3712126e+00 </wgt>
<wgt id='1888'> +1.3385723e+00 </wgt>
<wgt id='1889'> +1.3608284e+00 </wgt>
<wgt id='1890'> +1.3408188e+00 </wgt>
<wgt id='1891'> +1.3428533e+00 </wgt>
<wgt id='1892'> +1.3619275e+00 </wgt>
<wgt id='1893'> +1.3311711e+00 </wgt>
<wgt id='1894'> +1.3840020e+00 </wgt>
<wgt id='1895'> +1.3648819e+00 </wgt>
<wgt id='1896'> +1.3475118e+00 </wgt>
<wgt id='1897'> +1.3560637e+00 </wgt>
<wgt id='1898'> +1.3482648e+00 </wgt>
<wgt id='1899'> +1.3775910e+00 </wgt>
<wgt id='1900'> +1.3377651e+00 </wgt>
<wgt id='1901'> +1.3352428e+00 </wgt>
<wgt id='1902'> +1.3226795e+00 </wgt>
<wgt id='1903'> +1.3599305e+00 </wgt>
<wgt id='1904'> +1.3541534e+00 </wgt>
<wgt id='1905'> +1.3449684e+00 </wgt>
<wgt id='1906'> +1.3244218e+00 </wgt>
<wgt id='1907'> +1.3545507e+00 </wgt>
<wgt id='1908'> +1.3715876e+00 </wgt>
<wgt id='1909'> +1.3301789e+00 </wgt>
<wgt id='1910'> +1.3659264e+00 </wgt>
<wgt id='1911'> +1.2637237e+00 </wgt>
<wgt id='1912'> +1.3573468e+00 </wgt>
<wgt id='1913'> +1.3078505e+00 </wgt>
<wgt id='1914'> +1.3628054e+00 </wgt>
<wgt id='1915'> +1.3615828e+00 </wgt>
<wgt id='1916'> +1.2778352e+00 </wgt>
<wgt id='1917'> +1.3056318e+00 </wgt>
<wgt id='1918'> +1.4153614e+00 </wgt>
<wgt id='1919'> +1.3436229e+00 </wgt>
<wgt id='1920'> +1.3733452e+00 </wgt>
<wgt id='1921'> +1.3345601e+00 </wgt>
<wgt id='1922'> +1.3216320e+00 </wgt>
<wgt id='1923'> +1.3848537e+00 </wgt>
<wgt id='1924'> +1.3160811e+00 </wgt>
<wgt id='1925'> +1.3621968e+00 </wgt>
<wgt id='1926'> +1.3616732e+00 </wgt>
<wgt id='1927'> +1.3683481e+00 </wgt>
<wgt id='1928'> +1.3392668e+00 </wgt>
<wgt id='1929'> +1.3217937e+00 </wgt>
<wgt id='1930'> +1.3282369e+00 </wgt>
<wgt id='1931'> +1.3304917e+00 </wgt>
<wgt id='1932'> +1.3544262e+00 </wgt>
<wgt id='1933'> +1.2912925e+00 </wgt>
<wgt id='1934'> +1.3526594e+00 </wgt>
<wgt id='1935'> +1.3319250e+00 </wgt>
<wgt id='1936'> +1.2958513e+00 </wgt>
<wgt id='1937'> +1.2639340e+00 </wgt>
<wgt id='1938'> +1.3686432e+00 </wgt>
<wgt id='1939'> +1.3979338e+00 </wgt>
<wgt id='1940'> +1.3872965e+00 </wgt>
<wgt id='1941'> +1.3661338e+00 </wgt>
<wgt id='1942'> +1.3943495e+00 </wgt>
<wgt id='1943'> +1.3256298e+00 </wgt>
<wgt id='1944'> +1.3258796e+00 </wgt>
<wgt id='1945'> +1.3401538e+00 </wgt>
<wgt id='1946'> +1.2885973e+00 </wgt>
<wgt id='1947'> +1.3172432e+00 </wgt>
<wgt id='1948'> +1.3449078e+00 </wgt>
<wgt id='1949'> +1.3507593e+00 </wgt>
<wgt id='1950'> +1.3371995e+00 </wgt>
<wgt id='1951'> +1.3624284e+00 </wgt>
<wgt id='1952'> +1.3729101e+00 </wgt>
<wgt id='1953'> +1.3344964e+00 </wgt>
<wgt id='1954'> +1.3351491e+00 </wgt>
<wgt id='1955'> +1.3360840e+00 </wgt>
<wgt id='1956'> +1.3100445e+00 </wgt>
<wgt id='1957'> +1.3832098e+00 </wgt>
<wgt id='1958'> +1.3381235e+00 </wgt>
<wgt id='1959'> +1.3539779e+00 </wgt>
<wgt id='1960'> +1.4016675e+00 </wgt>
<wgt id='1961'> +1.3510327e+00 </wgt>
<wgt id='1962'> +1.3545525e+00 </wgt>
<wgt id='1963'> +1.3399316e+00 </wgt>
<wgt id='1964'> +1.3502867e+00 </wgt>
<wgt id='1965'> +1.3504392e+00 </wgt>
<wgt id='1966'> +1.3474093e+00 </wgt>
<wgt id='1967'> +1.3389974e+00 </wgt>
<wgt id='1968'> +1.3201657e+00 </wgt>
<wgt id='1969'> +1.3506176e+00 </wgt>
<wgt id='1970'> +1.3592222e+00 </wgt>
<wgt id='1971'> +1.3428208e+00 </wgt>
<wgt id='1972'> +1.3223736e+00 </wgt>
<wgt id='1973'> +1.3705394e+00 </wgt>
<wgt id='1974'> +1.3487487e+00 </wgt>
<wgt id='1975'> +1.2863301e+00 </wgt>
<wgt id='1976'> +1.3398733e+00 </wgt>
<wgt id='1977'> +1.3434199e+00 </wgt>
<wgt id='1978'> +1.3152086e+00 </wgt>
<wgt id='1979'> +1.3737738e+00 </wgt>
<wgt id='1980'> +1.3423451e+00 </wgt>
<wgt id='1981'> +1.3340633e+00 </wgt>
<wgt id='1982'> +1.3097153e+00 </wgt>
<wgt id='1983'> +1.2466705e+00 </wgt>
<wgt id='1984'> +1.3505182e+00 </wgt>
<wgt id='1985'> +1.3176630e+00 </wgt>
<wgt id='1986'> +1.4981947e+00 </wgt>
<wgt id='1987'> +1.3268640e+00 </wgt>
<wgt id='1988'> +1.3131760e+00 </wgt>
<wgt id='1989'> +1.3497422e+00 </wgt>
<wgt id='1990'> +1.3712126e+00 </wgt>
<wgt id='1991'> +1.3385723e+00 </wgt>
<wgt id='1992'> +1.3608284e+00 </wgt>
<wgt id='1993'> +1.3408188e+00 </wgt>
<wgt id='1994'> +1.3428533e+00 </wgt>
<wgt id='1995'> +1.3619275e+00 </wgt>
<wgt id='1996'> +1.3311711e+00 </wgt>
<wgt id='1997'> +1.3840020e+00 </wgt>
<wgt id='1998'> +1.3648819e+00 </wgt>
<wgt id='1999'> +1.3475118e+00 </wgt>
<wgt id='2000'> +1.3560637e+00 </wgt>
<wgt id='2001'> +1.3482648e+00 </wgt>
<wgt id='2002'> +1.3775910e+00 </wgt>
<wgt id='2003'> +1.3377651e+00 </wgt>
<wgt id='2004'> +1.3352428e+00 </wgt>
<wgt id='2005'> +1.3226795e+00 </wgt>
<wgt id='2006'> +1.3599305e+00 </wgt>
<wgt id='2007'> +1.3541534e+00 </wgt>
<wgt id='2008'> +1.3449684e+00 </wgt>
<wgt id='2009'> +1.3244218e+00 </wgt>
<wgt id='2010'> +1.3545507e+00 </wgt>
<wgt id='2011'> +1.3715876e+00 </wgt>
<wgt id='2012'> +1.3301789e+00 </wgt>
<wgt id='2013'> +1.3659264e+00 </wgt>
<wgt id='2014'> +1.2637237e+00 </wgt>
<wgt id='2015'> +1.3573468e+00 </wgt>
<wgt id='2016'> +1.3078505e+00 </wgt>
<wgt id='2017'> +1.3628054e+00 </wgt>
<wgt id='2018'> +1.3615828e+00 </wgt>
<wgt id='2019'> +1.2778352e+00 </wgt>
<wgt id='2020'> +1.3432052e+00 </wgt>
<wgt id='2021'> +1.3510489e+00 </wgt>
<wgt id='2022'> +1.3504216e+00 </wgt>
</rwgt>
</event>
<event>
 13 1 0.0079112 2.13365600e+02 7.81860800e-03 1.25991200e-01
        2 -1    0    0  501    0 +0.0000000000e+00 +0.0000000000e+00 +2.0964169922e+02 2.0964169923e+02 2.5500000000e-03 0.0000e+00 -1.0000e+00
       21 -1    0    0  502  503 +0.0000000000e+00 +0.0000000000e+00 -7.2562029428e+02 7.2562029428e+02 0.0000000000e+00 0.0000e+00 -1.0000e+00
  8000001  2    1    2  502    0 +6.3014849427e+01 -2.2558887140e+01 -4.8063968347e+02 7.7168272140e+02 5.9999995213e+02 0.0000e+00 0.0000e+00
        1  1    1    2  501    0 +6.5990367917e+00 -7.8920932187e+00 +4.8939949875e+01 5.0009510507e+01 5.0400000000e-03 0.0000e+00 -1.0000e+00
       -5  1    1    2    0  503 -6.9613886219e+01 +3.0450980359e+01 -8.4278861466e+01 1.1356976160e+02 4.6700000000e+00 0.0000e+00 1.0000e+00
        6  2    3    3  502    0 +1.9008360488e+02 +2.0490589619e+02 -2.4790344778e+02 4.1141550387e+02 1.7230320445e+02 0.0000e+00 0.0000e+00
        5  1    6    6  502    0 +1.4298731255e+02 +1.0187795128e+02 -1.9530939849e+02 2.6266339400e+02 4.6700000000e+00 0.0000e+00 -1.0000e+00
       24  2    6    6    0    0 +4.7096292335e+01 +1.0302794491e+02 -5.2594049291e+01 1.4875210987e+02 8.0797512253e+01 0.0000e+00 0.0000e+00
       14  1    8    8    0    0 +1.9590456061e+01 +1.0451191264e+02 -5.7329017292e+01 1.2080207811e+02 0.0000000000e+00 0.0000e+00 -1.0000e+00
      -13  1    8    8    0    0 +2.7505836274e+01 -1.4839677316e+00 +4.7349680007e+00 2.7950031759e+01 1.0566000000e-01 0.0000e+00 1.0000e+00
       23  2    3    3    0    0 -1.2706875546e+02 -2.2746478333e+02 -2.3273623569e+02 3.6026721754e+02 8.7975089438e+01 0.0000e+00 0.0000e+00
        1  1   11   11  504    0 -8.5619213602e+01 -2.1455092055e+02 -1.8699924192e+02 2.9720609642e+02 5.0400000000e-03 0.0000e+00 -1.0000e+00
       -1  1   11   11    0  504 -4.1449541855e+01 -1.2913862777e+01 -4.5736993766e+01 6.3061121112e+01 5.0400000000e-03 0.0000e+00 1.0000e+00
<mgrwt>
<rscale>  1 0.46850791e+02</rscale>
<asrwt>0</asrwt>
<pdfrwt beam="1">  1       21 0.11163389e+00 0.21336562e+03</pdfrwt>
<pdfrwt beam="2">  1        2 0.32252569e-01 0.10287490e+02</pdfrwt>
<totfact> 0.12079918e+03</totfact>
</mgrwt>
<rwgt>
<wgt id='1001'> +1.3581722e+00 </wgt>
<wgt id='1002'> +9.2079140e-01 </wgt>
<wgt id='1003'> +9.2076057e-01 </wgt>
<wgt id='1004'> +1.0612562e+00 </wgt>
<wgt id='1005'> +8.9373912e-01 </wgt>
<wgt id='1006'> +1.2092576e+00 </wgt>
<wgt id='1007'> +8.5083164e-01 </wgt>
<wgt id='1008'> +8.5080451e-01 </wgt>
<wgt id='1009'> +9.7366806e-01 </wgt>
<wgt id='1010'> +8.2698945e-01 </wgt>
<wgt id='1011'> +1.5507698e+00 </wgt>
<wgt id='1012'> +1.0036248e+00 </wgt>
<wgt id='1013'> +1.0035893e+00 </wgt>
<wgt id='1014'> +1.1666863e+00 </wgt>
<wgt id='1015'> +9.7251689e-01 </wgt>
<wgt id='1016'> +1.3153734e+00 </wgt>
<wgt id='1017'> +8.7263307e-01 </wgt>
<wgt id='1018'> +8.7260441e-01 </wgt>
<wgt id='1019'> +1.0035893e+00 </wgt>
<wgt id='1020'> +8.4746379e-01 </wgt>
<wgt id='1021'> +1.1711515e+00 </wgt>
<wgt id='1022'> +8.0633228e-01 </wgt>
<wgt id='1023'> +8.0630708e-01 </wgt>
<wgt id='1024'> +9.2076057e-01 </wgt>
<wgt id='1025'> +7.8417024e-01 </wgt>
<wgt id='1026'> +1.5019019e+00 </wgt>
<wgt id='1027'> +9.5113425e-01 </wgt>
<wgt id='1028'> +9.5110118e-01 </wgt>
<wgt id='1029'> +1.1032905e+00 </wgt>
<wgt id='1030'> +9.2216267e-01 </wgt>
<wgt id='1031'> +1.3861842e+00 </wgt>
<wgt id='1032'> +9.7370121e-01 </wgt>
<wgt id='1033'> +9.7366806e-01 </wgt>
<wgt id='1034'> +1.1248421e+00 </wgt>
<wgt id='1035'> +9.4463669e-01 </wgt>
<wgt id='1036'> +1.2341983e+00 </wgt>
<wgt id='1037'> +8.9972148e-01 </wgt>
<wgt id='1038'> +8.9969228e-01 </wgt>
<wgt id='1039'> +1.0320060e+00 </wgt>
<wgt id='1040'> +8.7408569e-01 </wgt>
<wgt id='1041'> +1.5827541e+00 </wgt>
<wgt id='1042'> +1.0612944e+00 </wgt>
<wgt id='1043'> +1.0612562e+00 </wgt>
<wgt id='1044'> +1.2365890e+00 </wgt>
<wgt id='1045'> +1.0279008e+00 </wgt>
<wgt id='1046'> +1.3581722e+00 </wgt>
<wgt id='1047'> +1.3581722e+00 </wgt>
<wgt id='1048'> +1.3581722e+00 </wgt>
<wgt id='1049'> +1.3539389e+00 </wgt>
<wgt id='1050'> +1.3584228e+00 </wgt>
<wgt id='1051'> +1.3584758e+00 </wgt>
<wgt id='1052'> +1.3598093e+00 </wgt>
<wgt id='1053'> +1.3536650e+00 </wgt>
<wgt id='1054'> +1.3554525e+00 </wgt>
<wgt id='1055'> +1.3574015e+00 </wgt>
<wgt id='1056'> +1.3515154e+00 </wgt>
<wgt id='1057'> +1.3657117e+00 </wgt>
<wgt id='1058'> +1.3560954e+00 </wgt>
<wgt id='1059'> +1.3634840e+00 </wgt>
<wgt id='1060'> +1.3573008e+00 </wgt>
<wgt id='1061'> +1.3598043e+00 </wgt>
<wgt id='1062'> +1.3582064e+00 </wgt>
<wgt id='1063'> +1.3602556e+00 </wgt>
<wgt id='1064'> +1.3581128e+00 </wgt>
<wgt id='1065'> +1.3602022e+00 </wgt>
<wgt id='1066'> +1.3488349e+00 </wgt>
<wgt id='1067'> +1.3468321e+00 </wgt>
<wgt id='1068'> +1.3579533e+00 </wgt>
<wgt id='1069'> +1.3570363e+00 </wgt>
<wgt id='1070'> +1.3642635e+00 </wgt>
<wgt id='1071'> +1.3603302e+00 </wgt>
<wgt id='1072'> +1.3469442e+00 </wgt>
<wgt id='1073'> +1.3578351e+00 </wgt>
<wgt id='1074'> +1.3545070e+00 </wgt>
<wgt id='1075'> +1.3672138e+00 </wgt>
<wgt id='1076'> +1.3606347e+00 </wgt>
<wgt id='1077'> +1.3593754e+00 </wgt>
<wgt id='1078'> +1.3624100e+00 </wgt>
<wgt id='1079'> +1.3565225e+00 </wgt>
<wgt id='1080'> +1.3548528e+00 </wgt>
<wgt id='1081'> +1.3587967e+00 </wgt>
<wgt id='1082'> +1.3545624e+00 </wgt>
<wgt id='1083'> +1.3624765e+00 </wgt>
<wgt id='1084'> +1.3625258e+00 </wgt>
<wgt id='1085'> +1.3546548e+00 </wgt>
<wgt id='1086'> +1.3586454e+00 </wgt>
<wgt id='1087'> +1.3609756e+00 </wgt>
<wgt id='1088'> +1.3585539e+00 </wgt>
<wgt id='1089'> +1.3612379e+00 </wgt>
<wgt id='1090'> +1.3589250e+00 </wgt>
<wgt id='1091'> +1.3516037e+00 </wgt>
<wgt id='1092'> +1.3616431e+00 </wgt>
<wgt id='1093'> +1.3588097e+00 </wgt>
<wgt id='1094'> +1.3604419e+00 </wgt>
<wgt id='1095'> +1.3568102e+00 </wgt>
<wgt id='1096'> +1.3586994e+00 </wgt>
<wgt id='1097'> +1.3560417e+00 </wgt>
<wgt id='1098'> +1.3581820e+00 </wgt>
<wgt id='1099'> +1.3592003e+00 </wgt>
<wgt id='1100'> +1.3611495e+00 </wgt>
<wgt id='1101'> +1.3561313e+00 </wgt>
<wgt id='1102'> +1.3576596e+00 </wgt>
<wgt id='1103'> +1.3572641e+00 </wgt>
<wgt id='1104'> +1.3616266e+00 </wgt>
<wgt id='1105'> +1.3592408e+00 </wgt>
<wgt id='1106'> +1.3589918e+00 </wgt>
<wgt id='1107'> +1.3567723e+00 </wgt>
<wgt id='1108'> +1.3578998e+00 </wgt>
<wgt id='1109'> +1.3583553e+00 </wgt>
<wgt id='1110'> +1.3570746e+00 </wgt>
<wgt id='1111'> +1.3587717e+00 </wgt>
<wgt id='1112'> +1.3590460e+00 </wgt>
<wgt id='1113'> +1.3574575e+00 </wgt>
<wgt id='1114'> +1.3581584e+00 </wgt>
<wgt id='1115'> +1.3573060e+00 </wgt>
<wgt id='1116'> +1.3591932e+00 </wgt>
<wgt id='1117'> +1.3587213e+00 </wgt>
<wgt id='1118'> +1.3563648e+00 </wgt>
<wgt id='1119'> +1.3582401e+00 </wgt>
<wgt id='1120'> +1.3601381e+00 </wgt>
<wgt id='1121'> +1.3590200e+00 </wgt>
<wgt id='1122'> +1.3598714e+00 </wgt>
<wgt id='1123'> +1.3573905e+00 </wgt>
<wgt id='1124'> +1.3578077e+00 </wgt>
<wgt id='1125'> +1.3589742e+00 </wgt>
<wgt id='1126'> +1.3590305e+00 </wgt>
<wgt id='1127'> +1.3565882e+00 </wgt>
<wgt id='1128'> +1.3599357e+00 </wgt>
<wgt id='1129'> +1.3585707e+00 </wgt>
<wgt id='1130'> +1.3578143e+00 </wgt>
<wgt id='1131'> +1.3594537e+00 </wgt>
<wgt id='1132'> +1.3585560e+00 </wgt>
<wgt id='1133'> +1.3587969e+00 </wgt>
<wgt id='1134'> +1.3577778e+00 </wgt>
<wgt id='1135'> +1.3603966e+00 </wgt>
<wgt id='1136'> +1.3576427e+00 </wgt>
<wgt id='1137'> +1.3582156e+00 </wgt>
<wgt id='1138'> +1.3586269e+00 </wgt>
<wgt id='1139'> +1.3587238e+00 </wgt>
<wgt id='1140'> +1.3589547e+00 </wgt>
<wgt id='1141'> +1.3588408e+00 </wgt>
<wgt id='1142'> +1.3586413e+00 </wgt>
<wgt id='1143'> +1.3581773e+00 </wgt>
<wgt id='1144'> +1.3586667e+00 </wgt>
<wgt id='1145'> +1.3585295e+00 </wgt>
<wgt id='1146'> +1.3583998e+00 </wgt>
<wgt id='1147'> +1.3577821e+00 </wgt>
<wgt id='1148'> +1.3581722e+00 </wgt>
<wgt id='1149'> +1.3632974e+00 </wgt>
<wgt id='1150'> +1.4309570e+00 </wgt>
<wgt id='1151'> +1.3516668e+00 </wgt>
<wgt id='1152'> +1.3557722e+00 </wgt>
<wgt id='1153'> +1.3514994e+00 </wgt>
<wgt id='1154'> +1.3657835e+00 </wgt>
<wgt id='1155'> +1.3907915e+00 </wgt>
<wgt id='1156'> +1.3557863e+00 </wgt>
<wgt id='1157'> +1.3379422e+00 </wgt>
<wgt id='1158'> +1.3102614e+00 </wgt>
<wgt id='1159'> +1.3706287e+00 </wgt>
<wgt id='1160'> +1.3510492e+00 </wgt>
<wgt id='1161'> +1.3424317e+00 </wgt>
<wgt id='1162'> +1.3350053e+00 </wgt>
<wgt id='1163'> +1.3828696e+00 </wgt>
<wgt id='1164'> +1.3317179e+00 </wgt>
<wgt id='1165'> +1.3662851e+00 </wgt>
<wgt id='1166'> +1.3848935e+00 </wgt>
<wgt id='1167'> +1.3474395e+00 </wgt>
<wgt id='1168'> +1.3629293e+00 </wgt>
<wgt id='1169'> +1.3238317e+00 </wgt>
<wgt id='1170'> +1.3276398e+00 </wgt>
<wgt id='1171'> +1.3490322e+00 </wgt>
<wgt id='1172'> +1.3619561e+00 </wgt>
<wgt id='1173'> +1.3818480e+00 </wgt>
<wgt id='1174'> +1.3354980e+00 </wgt>
<wgt id='1175'> +1.3816101e+00 </wgt>
<wgt id='1176'> +1.3714045e+00 </wgt>
<wgt id='1177'> +1.3457421e+00 </wgt>
<wgt id='1178'> +1.3936846e+00 </wgt>
<wgt id='1179'> +1.3288381e+00 </wgt>
<wgt id='1180'> +1.3686563e+00 </wgt>
<wgt id='1181'> +1.3042068e+00 </wgt>
<wgt id='1182'> +1.3532086e+00 </wgt>
<wgt id='1183'> +1.3882614e+00 </wgt>
<wgt id='1184'> +1.3621734e+00 </wgt>
<wgt id='1185'> +1.3405881e+00 </wgt>
<wgt id='1186'> +1.3382873e+00 </wgt>
<wgt id='1187'> +1.3598427e+00 </wgt>
<wgt id='1188'> +1.3358815e+00 </wgt>
<wgt id='1189'> +1.3902647e+00 </wgt>
<wgt id='1190'> +1.3601607e+00 </wgt>
<wgt id='1191'> +1.3988159e+00 </wgt>
<wgt id='1192'> +1.3880885e+00 </wgt>
<wgt id='1193'> +1.3990982e+00 </wgt>
<wgt id='1194'> +1.3879616e+00 </wgt>
<wgt id='1195'> +1.4011973e+00 </wgt>
<wgt id='1196'> +1.3808473e+00 </wgt>
<wgt id='1197'> +1.3846589e+00 </wgt>
<wgt id='1198'> +1.3551294e+00 </wgt>
<wgt id='1199'> +1.3794824e+00 </wgt>
<wgt id='1200'> +1.3680049e+00 </wgt>
<wgt id='1201'> +1.3349526e+00 </wgt>
<wgt id='1202'> +1.3757637e+00 </wgt>
<wgt id='1203'> +1.3731612e+00 </wgt>
<wgt id='1204'> +1.4154711e+00 </wgt>
<wgt id='1205'> +1.3529601e+00 </wgt>
<wgt id='1206'> +1.3686857e+00 </wgt>
<wgt id='1207'> +1.3578888e+00 </wgt>
<wgt id='1208'> +1.3191854e+00 </wgt>
<wgt id='1209'> +1.3686332e+00 </wgt>
<wgt id='1210'> +1.3502814e+00 </wgt>
<wgt id='1211'> +1.3753190e+00 </wgt>
<wgt id='1212'> +1.3957560e+00 </wgt>
<wgt id='1213'> +1.3855482e+00 </wgt>
<wgt id='1214'> +1.3466214e+00 </wgt>
<wgt id='1215'> +1.3808715e+00 </wgt>
<wgt id='1216'> +1.4192912e+00 </wgt>
<wgt id='1217'> +1.3493647e+00 </wgt>
<wgt id='1218'> +1.3763281e+00 </wgt>
<wgt id='1219'> +1.4011910e+00 </wgt>
<wgt id='1220'> +1.3219435e+00 </wgt>
<wgt id='1221'> +1.4054642e+00 </wgt>
<wgt id='1222'> +1.2796219e+00 </wgt>
<wgt id='1223'> +1.3049789e+00 </wgt>
<wgt id='1224'> +1.3539504e+00 </wgt>
<wgt id='1225'> +1.4033757e+00 </wgt>
<wgt id='1226'> +1.3613030e+00 </wgt>
<wgt id='1227'> +1.3250706e+00 </wgt>
<wgt id='1228'> +1.3430929e+00 </wgt>
<wgt id='1229'> +1.4268652e+00 </wgt>
<wgt id='1230'> +1.3842241e+00 </wgt>
<wgt id='1231'> +1.3662851e+00 </wgt>
<wgt id='1232'> +1.3810343e+00 </wgt>
<wgt id='1233'> +1.3379170e+00 </wgt>
<wgt id='1234'> +1.3275716e+00 </wgt>
<wgt id='1235'> +1.4195981e+00 </wgt>
<wgt id='1236'> +1.3258212e+00 </wgt>
<wgt id='1237'> +1.3740837e+00 </wgt>
<wgt id='1238'> +1.3372791e+00 </wgt>
<wgt id='1239'> +1.3785777e+00 </wgt>
<wgt id='1240'> +1.3890817e+00 </wgt>
<wgt id='1241'> +1.3504718e+00 </wgt>
<wgt id='1242'> +1.3492511e+00 </wgt>
<wgt id='1243'> +1.3940480e+00 </wgt>
<wgt id='1244'> +1.3481747e+00 </wgt>
<wgt id='1245'> +1.3488596e+00 </wgt>
<wgt id='1246'> +1.4303029e+00 </wgt>
<wgt id='1247'> +1.3531047e+00 </wgt>
<wgt id='1248'> +1.3447358e+00 </wgt>
<wgt id='1249'> +1.3451897e+00 </wgt>
<wgt id='1250'> +1.3494496e+00 </wgt>
<wgt id='1251'> +1.3400116e+00 </wgt>
<wgt id='1252'> +1.4178588e+00 </wgt>
<wgt id='1253'> +1.3896304e+00 </wgt>
<wgt id='1254'> +1.4410759e+00 </wgt>
<wgt id='1255'> +1.4037239e+00 </wgt>
<wgt id='1256'> +1.4024929e+00 </wgt>
<wgt id='1257'> +1.4044218e+00 </wgt>
<wgt id='1258'> +1.4013804e+00 </wgt>
<wgt id='1259'> +1.4049414e+00 </wgt>
<wgt id='1260'> +1.4054684e+00 </wgt>
<wgt id='1261'> +1.4013813e+00 </wgt>
<wgt id='1262'> +1.4053072e+00 </wgt>
<wgt id='1263'> +1.4027095e+00 </wgt>
<wgt id='1264'> +1.4051468e+00 </wgt>
<wgt id='1265'> +1.4027706e+00 </wgt>
<wgt id='1266'> +1.4070287e+00 </wgt>
<wgt id='1267'> +1.4004528e+00 </wgt>
<wgt id='1268'> +1.4112075e+00 </wgt>
<wgt id='1269'> +1.3960391e+00 </wgt>
<wgt id='1270'> +1.3873474e+00 </wgt>
<wgt id='1271'> +1.4217086e+00 </wgt>
<wgt id='1272'> +1.3972562e+00 </wgt>
<wgt id='1273'> +1.4086595e+00 </wgt>
<wgt id='1274'> +1.4045303e+00 </wgt>
<wgt id='1275'> +1.4026153e+00 </wgt>
<wgt id='1276'> +1.4164294e+00 </wgt>
<wgt id='1277'> +1.3900912e+00 </wgt>
<wgt id='1278'> +1.3975442e+00 </wgt>
<wgt id='1279'> +1.4082823e+00 </wgt>
<wgt id='1280'> +1.4015457e+00 </wgt>
<wgt id='1281'> +1.4102776e+00 </wgt>
<wgt id='1282'> +1.4014930e+00 </wgt>
<wgt id='1283'> +1.4026014e+00 </wgt>
<wgt id='1284'> +1.4056435e+00 </wgt>
<wgt id='1285'> +1.4016233e+00 </wgt>
<wgt id='1286'> +1.3989852e+00 </wgt>
<wgt id='1287'> +1.4041121e+00 </wgt>
<wgt id='1288'> +1.4062238e+00 </wgt>
<wgt id='1289'> +1.4033018e+00 </wgt>
<wgt id='1290'> +1.4046169e+00 </wgt>
<wgt id='1291'> +1.4034286e+00 </wgt>
<wgt id='1292'> +1.4134713e+00 </wgt>
<wgt id='1293'> +1.3914754e+00 </wgt>
<wgt id='1294'> +1.4006174e+00 </wgt>
<wgt id='1295'> +1.4000554e+00 </wgt>
<wgt id='1296'> +1.3756242e+00 </wgt>
<wgt id='1297'> +1.3793635e+00 </wgt>
<wgt id='1298'> +1.3725246e+00 </wgt>
<wgt id='1299'> +1.3794629e+00 </wgt>
<wgt id='1300'> +1.3712988e+00 </wgt>
<wgt id='1301'> +1.3731538e+00 </wgt>
<wgt id='1302'> +1.3792346e+00 </wgt>
<wgt id='1303'> +1.3747548e+00 </wgt>
<wgt id='1304'> +1.3761973e+00 </wgt>
<wgt id='1305'> +1.3758374e+00 </wgt>
<wgt id='1306'> +1.3752891e+00 </wgt>
<wgt id='1307'> +1.3768566e+00 </wgt>
<wgt id='1308'> +1.3748034e+00 </wgt>
<wgt id='1309'> +1.3754286e+00 </wgt>
<wgt id='1310'> +1.3759131e+00 </wgt>
<wgt id='1311'> +1.3778399e+00 </wgt>
<wgt id='1312'> +1.3747353e+00 </wgt>
<wgt id='1313'> +1.3648053e+00 </wgt>
<wgt id='1314'> +1.3887814e+00 </wgt>
<wgt id='1315'> +1.3791888e+00 </wgt>
<wgt id='1316'> +1.3721730e+00 </wgt>
<wgt id='1317'> +1.3863524e+00 </wgt>
<wgt id='1318'> +1.3575492e+00 </wgt>
<wgt id='1319'> +1.3594851e+00 </wgt>
<wgt id='1320'> +1.3858103e+00 </wgt>
<wgt id='1321'> +1.3674513e+00 </wgt>
<wgt id='1322'> +1.3795174e+00 </wgt>
<wgt id='1323'> +1.3720758e+00 </wgt>
<wgt id='1324'> +1.3793606e+00 </wgt>
<wgt id='1325'> +1.3739239e+00 </wgt>
<wgt id='1326'> +1.3757371e+00 </wgt>
<wgt id='1327'> +1.3754377e+00 </wgt>
<wgt id='1328'> +1.3756976e+00 </wgt>
<wgt id='1329'> +1.3754395e+00 </wgt>
<wgt id='1330'> +1.3759463e+00 </wgt>
<wgt id='1331'> +1.3681358e+00 </wgt>
<wgt id='1332'> +1.3785025e+00 </wgt>
<wgt id='1333'> +1.3761059e+00 </wgt>
<wgt id='1334'> +1.3804660e+00 </wgt>
<wgt id='1335'> +1.3751770e+00 </wgt>
<wgt id='1336'> +1.3756492e+00 </wgt>
<wgt id='1337'> +1.3756242e+00 </wgt>
<wgt id='1338'> +1.3743092e+00 </wgt>
<wgt id='1339'> +1.3747041e+00 </wgt>
<wgt id='1340'> +1.3750005e+00 </wgt>
<wgt id='1341'> +1.3754945e+00 </wgt>
<wgt id='1342'> +1.3756471e+00 </wgt>
<wgt id='1343'> +1.3758211e+00 </wgt>
<wgt id='1344'> +1.3330728e+00 </wgt>
<wgt id='1345'> +1.3373929e+00 </wgt>
<wgt id='1346'> +1.3287925e+00 </wgt>
<wgt id='1347'> +1.3302563e+00 </wgt>
<wgt id='1348'> +1.3351007e+00 </wgt>
<wgt id='1349'> +1.3309974e+00 </wgt>
<wgt id='1350'> +1.3348350e+00 </wgt>
<wgt id='1351'> +1.3329868e+00 </wgt>
<wgt id='1352'> +1.3331730e+00 </wgt>
<wgt id='1353'> +1.3372571e+00 </wgt>
<wgt id='1354'> +1.3301092e+00 </wgt>
<wgt id='1355'> +1.3335340e+00 </wgt>
<wgt id='1356'> +1.3327278e+00 </wgt>
<wgt id='1357'> +1.3339309e+00 </wgt>
<wgt id='1358'> +1.3325430e+00 </wgt>
<wgt id='1359'> +1.3317831e+00 </wgt>
<wgt id='1360'> +1.3361138e+00 </wgt>
<wgt id='1361'> +1.3141978e+00 </wgt>
<wgt id='1362'> +1.3499165e+00 </wgt>
<wgt id='1363'> +1.3277711e+00 </wgt>
<wgt id='1364'> +1.3396176e+00 </wgt>
<wgt id='1365'> +1.3226031e+00 </wgt>
<wgt id='1366'> +1.3374645e+00 </wgt>
<wgt id='1367'> +1.3246648e+00 </wgt>
<wgt id='1368'> +1.3369917e+00 </wgt>
<wgt id='1369'> +1.3409930e+00 </wgt>
<wgt id='1370'> +1.3251908e+00 </wgt>
<wgt id='1371'> +1.3331557e+00 </wgt>
<wgt id='1372'> +1.3329408e+00 </wgt>
<wgt id='1373'> +1.3362488e+00 </wgt>
<wgt id='1374'> +1.3345001e+00 </wgt>
<wgt id='1375'> +1.3319563e+00 </wgt>
<wgt id='1376'> +1.3335777e+00 </wgt>
<wgt id='1377'> +1.3334024e+00 </wgt>
<wgt id='1378'> +1.3333476e+00 </wgt>
<wgt id='1379'> +1.3377519e+00 </wgt>
<wgt id='1380'> +1.3256019e+00 </wgt>
<wgt id='1381'> +1.3294861e+00 </wgt>
<wgt id='1382'> +1.3388876e+00 </wgt>
<wgt id='1383'> +1.3327174e+00 </wgt>
<wgt id='1384'> +1.3342052e+00 </wgt>
<wgt id='1385'> +1.3330728e+00 </wgt>
<wgt id='1386'> +1.3321432e+00 </wgt>
<wgt id='1387'> +1.3324837e+00 </wgt>
<wgt id='1388'> +1.3326266e+00 </wgt>
<wgt id='1389'> +1.3328470e+00 </wgt>
<wgt id='1390'> +1.3328522e+00 </wgt>
<wgt id='1391'> +1.3327177e+00 </wgt>
<wgt id='1392'> +1.4487063e+00 </wgt>
<wgt id='1393'> +1.4454830e+00 </wgt>
<wgt id='1394'> +1.4521516e+00 </wgt>
<wgt id='1395'> +1.4473450e+00 </wgt>
<wgt id='1396'> +1.4496779e+00 </wgt>
<wgt id='1397'> +1.4490834e+00 </wgt>
<wgt id='1398'> +1.4483430e+00 </wgt>
<wgt id='1399'> +1.4462018e+00 </wgt>
<wgt id='1400'> +1.4517960e+00 </wgt>
<wgt id='1401'> +1.4455856e+00 </wgt>
<wgt id='1402'> +1.4526034e+00 </wgt>
<wgt id='1403'> +1.4480279e+00 </wgt>
<wgt id='1404'> +1.4501349e+00 </wgt>
<wgt id='1405'> +1.4473313e+00 </wgt>
<wgt id='1406'> +1.4506027e+00 </wgt>
<wgt id='1407'> +1.4497240e+00 </wgt>
<wgt id='1408'> +1.4480237e+00 </wgt>
<wgt id='1409'> +1.4486066e+00 </wgt>
<wgt id='1410'> +1.4487120e+00 </wgt>
<wgt id='1411'> +1.4419610e+00 </wgt>
<wgt id='1412'> +1.4538463e+00 </wgt>
<wgt id='1413'> +1.4459668e+00 </wgt>
<wgt id='1414'> +1.4515797e+00 </wgt>
<wgt id='1415'> +1.4523696e+00 </wgt>
<wgt id='1416'> +1.4445382e+00 </wgt>
<wgt id='1417'> +1.4353320e+00 </wgt>
<wgt id='1418'> +1.4649178e+00 </wgt>
<wgt id='1419'> +1.4520025e+00 </wgt>
<wgt id='1420'> +1.4450668e+00 </wgt>
<wgt id='1421'> +1.4405397e+00 </wgt>
<wgt id='1422'> +1.4583810e+00 </wgt>
<wgt id='1423'> +1.4254088e+00 </wgt>
<wgt id='1424'> +1.4673830e+00 </wgt>
<wgt id='1425'> +1.4493125e+00 </wgt>
<wgt id='1426'> +1.4480031e+00 </wgt>
<wgt id='1427'> +1.4459512e+00 </wgt>
<wgt id='1428'> +1.4562737e+00 </wgt>
<wgt id='1429'> +1.4459099e+00 </wgt>
<wgt id='1430'> +1.4510181e+00 </wgt>
<wgt id='1431'> +1.4458230e+00 </wgt>
<wgt id='1432'> +1.4514809e+00 </wgt>
<wgt id='1433'> +1.4386286e+00 </wgt>
<wgt id='1434'> +1.4643778e+00 </wgt>
<wgt id='1435'> +1.4511305e+00 </wgt>
<wgt id='1436'> +1.4467176e+00 </wgt>
<wgt id='1437'> +1.4456293e+00 </wgt>
<wgt id='1438'> +1.4577503e+00 </wgt>
<wgt id='1439'> +1.4534547e+00 </wgt>
<wgt id='1440'> +1.4463360e+00 </wgt>
<wgt id='1441'> +1.4461927e+00 </wgt>
<wgt id='1442'> +1.4490047e+00 </wgt>
<wgt id='1443'> +1.4223509e+00 </wgt>
<wgt id='1444'> +1.4191657e+00 </wgt>
<wgt id='1445'> +1.4257613e+00 </wgt>
<wgt id='1446'> +1.4209432e+00 </wgt>
<wgt id='1447'> +1.4233149e+00 </wgt>
<wgt id='1448'> +1.4229594e+00 </wgt>
<wgt id='1449'> +1.4217943e+00 </wgt>
<wgt id='1450'> +1.4198420e+00 </wgt>
<wgt id='1451'> +1.4251277e+00 </wgt>
<wgt id='1452'> +1.4191841e+00 </wgt>
<wgt id='1453'> +1.4254450e+00 </wgt>
<wgt id='1454'> +1.4214568e+00 </wgt>
<wgt id='1455'> +1.4243361e+00 </wgt>
<wgt id='1456'> +1.4208044e+00 </wgt>
<wgt id='1457'> +1.4251013e+00 </wgt>
<wgt id='1458'> +1.4235644e+00 </wgt>
<wgt id='1459'> +1.4216568e+00 </wgt>
<wgt id='1460'> +1.4208233e+00 </wgt>
<wgt id='1461'> +1.4240141e+00 </wgt>
<wgt id='1462'> +1.4159472e+00 </wgt>
<wgt id='1463'> +1.4278875e+00 </wgt>
<wgt id='1464'> +1.4202920e+00 </wgt>
<wgt id='1465'> +1.4250586e+00 </wgt>
<wgt id='1466'> +1.4293166e+00 </wgt>
<wgt id='1467'> +1.4171690e+00 </wgt>
<wgt id='1468'> +1.4391682e+00 </wgt>
<wgt id='1469'> +1.4057045e+00 </wgt>
<wgt id='1470'> +1.4259298e+00 </wgt>
<wgt id='1471'> +1.4191877e+00 </wgt>
<wgt id='1472'> +1.4165436e+00 </wgt>
<wgt id='1473'> +1.4293131e+00 </wgt>
<wgt id='1474'> +1.4052424e+00 </wgt>
<wgt id='1475'> +1.4425791e+00 </wgt>
<wgt id='1476'> +1.4262283e+00 </wgt>
<wgt id='1477'> +1.4188910e+00 </wgt>
<wgt id='1478'> +1.4199430e+00 </wgt>
<wgt id='1479'> +1.4297470e+00 </wgt>
<wgt id='1480'> +1.4197362e+00 </wgt>
<wgt id='1481'> +1.4242677e+00 </wgt>
<wgt id='1482'> +1.4195280e+00 </wgt>
<wgt id='1483'> +1.4254982e+00 </wgt>
<wgt id='1484'> +1.4120393e+00 </wgt>
<wgt id='1485'> +1.4371348e+00 </wgt>
<wgt id='1486'> +1.4259362e+00 </wgt>
<wgt id='1487'> +1.4208840e+00 </wgt>
<wgt id='1488'> +1.4189269e+00 </wgt>
<wgt id='1489'> +1.4318014e+00 </wgt>
<wgt id='1490'> +1.4272109e+00 </wgt>
<wgt id='1491'> +1.4207517e+00 </wgt>
<wgt id='1492'> +1.4198276e+00 </wgt>
<wgt id='1493'> +1.4226584e+00 </wgt>
<wgt id='1494'> +1.3928517e+00 </wgt>
<wgt id='1495'> +1.3570586e+00 </wgt>
<wgt id='1496'> +1.3687126e+00 </wgt>
<wgt id='1497'> +1.3812490e+00 </wgt>
<wgt id='1498'> +1.4069521e+00 </wgt>
<wgt id='1499'> +1.3939806e+00 </wgt>
<wgt id='1500'> +1.3910770e+00 </wgt>
<wgt id='1501'> +1.3927872e+00 </wgt>
<wgt id='1502'> +1.3935707e+00 </wgt>
<wgt id='1503'> +1.3939788e+00 </wgt>
<wgt id='1504'> +1.3942636e+00 </wgt>
<wgt id='1505'> +1.3933929e+00 </wgt>
<wgt id='1506'> +1.3923525e+00 </wgt>
<wgt id='1507'> +1.3909535e+00 </wgt>
<wgt id='1508'> +1.3939806e+00 </wgt>
<wgt id='1509'> +1.3940490e+00 </wgt>
<wgt id='1510'> +1.3940542e+00 </wgt>
<wgt id='1511'> +1.3941494e+00 </wgt>
<wgt id='1512'> +1.3947260e+00 </wgt>
<wgt id='1513'> +1.3884318e+00 </wgt>
<wgt id='1514'> +1.3849864e+00 </wgt>
<wgt id='1515'> +1.3928560e+00 </wgt>
<wgt id='1516'> +1.3883759e+00 </wgt>
<wgt id='1517'> +1.3884817e+00 </wgt>
<wgt id='1518'> +1.3870183e+00 </wgt>
<wgt id='1519'> +1.3889972e+00 </wgt>
<wgt id='1520'> +1.3863408e+00 </wgt>
<wgt id='1521'> +1.3904926e+00 </wgt>
<wgt id='1522'> +1.3871692e+00 </wgt>
<wgt id='1523'> +1.3896595e+00 </wgt>
<wgt id='1524'> +1.3934323e+00 </wgt>
<wgt id='1525'> +1.3863179e+00 </wgt>
<wgt id='1526'> +1.3876258e+00 </wgt>
<wgt id='1527'> +1.3894159e+00 </wgt>
<wgt id='1528'> +1.3880747e+00 </wgt>
<wgt id='1529'> +1.3888404e+00 </wgt>
<wgt id='1530'> +1.3824067e+00 </wgt>
<wgt id='1531'> +1.3917765e+00 </wgt>
<wgt id='1532'> +1.3937753e+00 </wgt>
<wgt id='1533'> +1.3811476e+00 </wgt>
<wgt id='1534'> +1.3843263e+00 </wgt>
<wgt id='1535'> +1.3913009e+00 </wgt>
<wgt id='1536'> +1.3873040e+00 </wgt>
<wgt id='1537'> +1.3895909e+00 </wgt>
<wgt id='1538'> +1.3838816e+00 </wgt>
<wgt id='1539'> +1.3988275e+00 </wgt>
<wgt id='1540'> +1.3893050e+00 </wgt>
<wgt id='1541'> +1.3860614e+00 </wgt>
<wgt id='1542'> +1.3953392e+00 </wgt>
<wgt id='1543'> +1.3714225e+00 </wgt>
<wgt id='1544'> +1.3799757e+00 </wgt>
<wgt id='1545'> +1.4068577e+00 </wgt>
<wgt id='1546'> +1.3886669e+00 </wgt>
<wgt id='1547'> +1.3880735e+00 </wgt>
<wgt id='1548'> +1.3923359e+00 </wgt>
<wgt id='1549'> +1.3869999e+00 </wgt>
<wgt id='1550'> +1.3859420e+00 </wgt>
<wgt id='1551'> +1.3917147e+00 </wgt>
<wgt id='1552'> +1.3843425e+00 </wgt>
<wgt id='1553'> +1.3915066e+00 </wgt>
<wgt id='1554'> +1.3964892e+00 </wgt>
<wgt id='1555'> +1.3771174e+00 </wgt>
<wgt id='1556'> +1.3899438e+00 </wgt>
<wgt id='1557'> +1.3769388e+00 </wgt>
<wgt id='1558'> +1.3813959e+00 </wgt>
<wgt id='1559'> +1.3953758e+00 </wgt>
<wgt id='1560'> +1.3964866e+00 </wgt>
<wgt id='1561'> +1.3848640e+00 </wgt>
<wgt id='1562'> +1.3870721e+00 </wgt>
<wgt id='1563'> +1.3889249e+00 </wgt>
<wgt id='1564'> +1.3884318e+00 </wgt>
<wgt id='1565'> +1.3702458e+00 </wgt>
<wgt id='1566'> +1.4045464e+00 </wgt>
<wgt id='1567'> +1.3877111e+00 </wgt>
<wgt id='1568'> +1.3891721e+00 </wgt>
<wgt id='1569'> +1.3897910e+00 </wgt>
<wgt id='1570'> +1.3903049e+00 </wgt>
<wgt id='1571'> +1.3890359e+00 </wgt>
<wgt id='1572'> +1.3887104e+00 </wgt>
<wgt id='1573'> +1.3857072e+00 </wgt>
<wgt id='1574'> +1.3828395e+00 </wgt>
<wgt id='1575'> +1.3811221e+00 </wgt>
<wgt id='1576'> +1.3877111e+00 </wgt>
<wgt id='1577'> +1.3870493e+00 </wgt>
<wgt id='1578'> +1.3867750e+00 </wgt>
<wgt id='1579'> +1.3882560e+00 </wgt>
<wgt id='1580'> +1.3889790e+00 </wgt>
<wgt id='1581'> +1.3716637e+00 </wgt>
<wgt id='1582'> +1.3711831e+00 </wgt>
<wgt id='1583'> +1.3696559e+00 </wgt>
<wgt id='1584'> +1.3705239e+00 </wgt>
<wgt id='1585'> +1.3687210e+00 </wgt>
<wgt id='1586'> +1.3529684e+00 </wgt>
<wgt id='1587'> +1.3750377e+00 </wgt>
<wgt id='1588'> +1.3635118e+00 </wgt>
<wgt id='1589'> +1.3714362e+00 </wgt>
<wgt id='1590'> +1.3779692e+00 </wgt>
<wgt id='1591'> +1.3703899e+00 </wgt>
<wgt id='1592'> +1.3514808e+00 </wgt>
<wgt id='1593'> +1.3705144e+00 </wgt>
<wgt id='1594'> +1.3552933e+00 </wgt>
<wgt id='1595'> +1.3754292e+00 </wgt>
<wgt id='1596'> +1.3752564e+00 </wgt>
<wgt id='1597'> +1.3784769e+00 </wgt>
<wgt id='1598'> +1.3577466e+00 </wgt>
<wgt id='1599'> +1.3671556e+00 </wgt>
<wgt id='1600'> +1.3727193e+00 </wgt>
<wgt id='1601'> +1.3679188e+00 </wgt>
<wgt id='1602'> +1.3716715e+00 </wgt>
<wgt id='1603'> +1.3724794e+00 </wgt>
<wgt id='1604'> +1.3688240e+00 </wgt>
<wgt id='1605'> +1.3738550e+00 </wgt>
<wgt id='1606'> +1.3718193e+00 </wgt>
<wgt id='1607'> +1.3736437e+00 </wgt>
<wgt id='1608'> +1.3663525e+00 </wgt>
<wgt id='1609'> +1.3698727e+00 </wgt>
<wgt id='1610'> +1.3718651e+00 </wgt>
<wgt id='1611'> +1.3752559e+00 </wgt>
<wgt id='1612'> +1.3363945e+00 </wgt>
<wgt id='1613'> +1.3362132e+00 </wgt>
<wgt id='1614'> +1.3366120e+00 </wgt>
<wgt id='1615'> +1.3349943e+00 </wgt>
<wgt id='1616'> +1.3393124e+00 </wgt>
<wgt id='1617'> +1.3387516e+00 </wgt>
<wgt id='1618'> +1.3355961e+00 </wgt>
<wgt id='1619'> +1.3382890e+00 </wgt>
<wgt id='1620'> +1.3367565e+00 </wgt>
<wgt id='1621'> +1.3403944e+00 </wgt>
<wgt id='1622'> +1.3326386e+00 </wgt>
<wgt id='1623'> +1.3324752e+00 </wgt>
<wgt id='1624'> +1.3347317e+00 </wgt>
<wgt id='1625'> +1.3289473e+00 </wgt>
<wgt id='1626'> +1.3380948e+00 </wgt>
<wgt id='1627'> +1.3351111e+00 </wgt>
<wgt id='1628'> +1.3427600e+00 </wgt>
<wgt id='1629'> +1.3338935e+00 </wgt>
<wgt id='1630'> +1.3289558e+00 </wgt>
<wgt id='1631'> +1.3383581e+00 </wgt>
<wgt id='1632'> +1.3295880e+00 </wgt>
<wgt id='1633'> +1.3450212e+00 </wgt>
<wgt id='1634'> +1.3325013e+00 </wgt>
<wgt id='1635'> +1.3300521e+00 </wgt>
<wgt id='1636'> +1.3329671e+00 </wgt>
<wgt id='1637'> +1.3341224e+00 </wgt>
<wgt id='1638'> +1.3271766e+00 </wgt>
<wgt id='1639'> +1.3335028e+00 </wgt>
<wgt id='1640'> +1.3341165e+00 </wgt>
<wgt id='1641'> +1.3430713e+00 </wgt>
<wgt id='1642'> +1.3470973e+00 </wgt>
<wgt id='1643'> +1.3382727e+00 </wgt>
<wgt id='1644'> +1.3389156e+00 </wgt>
<wgt id='1645'> +1.3362671e+00 </wgt>
<wgt id='1646'> +1.3364142e+00 </wgt>
<wgt id='1647'> +1.3351997e+00 </wgt>
<wgt id='1648'> +1.3319913e+00 </wgt>
<wgt id='1649'> +1.3331991e+00 </wgt>
<wgt id='1650'> +1.3368836e+00 </wgt>
<wgt id='1651'> +1.3376223e+00 </wgt>
<wgt id='1652'> +1.3358520e+00 </wgt>
<wgt id='1653'> +1.3345128e+00 </wgt>
<wgt id='1654'> +1.3318261e+00 </wgt>
<wgt id='1655'> +1.3406789e+00 </wgt>
<wgt id='1656'> +1.3364421e+00 </wgt>
<wgt id='1657'> +1.3360952e+00 </wgt>
<wgt id='1658'> +1.3393287e+00 </wgt>
<wgt id='1659'> +1.3379893e+00 </wgt>
<wgt id='1660'> +1.3372003e+00 </wgt>
<wgt id='1661'> +1.3324012e+00 </wgt>
<wgt id='1662'> +1.3371180e+00 </wgt>
<wgt id='1663'> +1.3386935e+00 </wgt>
<wgt id='1664'> +1.3335984e+00 </wgt>
<wgt id='1665'> +1.3372156e+00 </wgt>
<wgt id='1666'> +1.3379030e+00 </wgt>
<wgt id='1667'> +1.3396066e+00 </wgt>
<wgt id='1668'> +1.3344043e+00 </wgt>
<wgt id='1669'> +1.3360381e+00 </wgt>
<wgt id='1670'> +1.3380114e+00 </wgt>
<wgt id='1671'> +1.3347481e+00 </wgt>
<wgt id='1672'> +1.3371222e+00 </wgt>
<wgt id='1673'> +1.3360316e+00 </wgt>
<wgt id='1674'> +1.3350666e+00 </wgt>
<wgt id='1675'> +1.3356199e+00 </wgt>
<wgt id='1676'> +1.3365354e+00 </wgt>
<wgt id='1677'> +1.3351929e+00 </wgt>
<wgt id='1678'> +1.3359216e+00 </wgt>
<wgt id='1679'> +1.3360528e+00 </wgt>
<wgt id='1680'> +1.3382970e+00 </wgt>
<wgt id='1681'> +1.3383765e+00 </wgt>
<wgt id='1682'> +1.3354117e+00 </wgt>
<wgt id='1683'> +1.3347748e+00 </wgt>
<wgt id='1684'> +1.3375068e+00 </wgt>
<wgt id='1685'> +1.3392303e+00 </wgt>
<wgt id='1686'> +1.3357535e+00 </wgt>
<wgt id='1687'> +1.3366195e+00 </wgt>
<wgt id='1688'> +1.3372127e+00 </wgt>
<wgt id='1689'> +1.3353992e+00 </wgt>
<wgt id='1690'> +1.3378639e+00 </wgt>
<wgt id='1691'> +1.3372010e+00 </wgt>
<wgt id='1692'> +1.3357856e+00 </wgt>
<wgt id='1693'> +1.3371371e+00 </wgt>
<wgt id='1694'> +1.3368525e+00 </wgt>
<wgt id='1695'> +1.3375955e+00 </wgt>
<wgt id='1696'> +1.3358263e+00 </wgt>
<wgt id='1697'> +1.3357534e+00 </wgt>
<wgt id='1698'> +1.3359679e+00 </wgt>
<wgt id='1699'> +1.3353903e+00 </wgt>
<wgt id='1700'> +1.3367240e+00 </wgt>
<wgt id='1701'> +1.3361393e+00 </wgt>
<wgt id='1702'> +1.3347118e+00 </wgt>
<wgt id='1703'> +1.3372015e+00 </wgt>
<wgt id='1704'> +1.3368694e+00 </wgt>
<wgt id='1705'> +1.3369248e+00 </wgt>
<wgt id='1706'> +1.3354151e+00 </wgt>
<wgt id='1707'> +1.3355204e+00 </wgt>
<wgt id='1708'> +1.3360930e+00 </wgt>
<wgt id='1709'> +1.3366176e+00 </wgt>
<wgt id='1710'> +1.3368089e+00 </wgt>
<wgt id='1711'> +1.3364211e+00 </wgt>
<wgt id='1712'> +1.3370123e+00 </wgt>
<wgt id='1713'> +1.3158101e+00 </wgt>
<wgt id='1714'> +1.3624728e+00 </wgt>
<wgt id='1715'> +1.3942210e+00 </wgt>
<wgt id='1716'> +1.3550497e+00 </wgt>
<wgt id='1717'> +1.4400555e+00 </wgt>
<wgt id='1718'> +1.3980015e+00 </wgt>
<wgt id='1719'> +1.3803157e+00 </wgt>
<wgt id='1720'> +1.4401481e+00 </wgt>
<wgt id='1721'> +1.4628097e+00 </wgt>
<wgt id='1722'> +1.4184898e+00 </wgt>
<wgt id='1723'> +1.3712931e+00 </wgt>
<wgt id='1724'> +1.4016964e+00 </wgt>
<wgt id='1725'> +1.3674410e+00 </wgt>
<wgt id='1726'> +1.3608104e+00 </wgt>
<wgt id='1727'> +1.3962193e+00 </wgt>
<wgt id='1728'> +1.3908509e+00 </wgt>
<wgt id='1729'> +1.3758665e+00 </wgt>
<wgt id='1730'> +1.3652297e+00 </wgt>
<wgt id='1731'> +1.3820153e+00 </wgt>
<wgt id='1732'> +1.4047803e+00 </wgt>
<wgt id='1733'> +1.3871058e+00 </wgt>
<wgt id='1734'> +1.4413890e+00 </wgt>
<wgt id='1735'> +1.3656968e+00 </wgt>
<wgt id='1736'> +1.4082268e+00 </wgt>
<wgt id='1737'> +1.3836236e+00 </wgt>
<wgt id='1738'> +1.4412519e+00 </wgt>
<wgt id='1739'> +1.4418750e+00 </wgt>
<wgt id='1740'> +1.4112491e+00 </wgt>
<wgt id='1741'> +1.3952012e+00 </wgt>
<wgt id='1742'> +1.3627064e+00 </wgt>
<wgt id='1743'> +1.3980430e+00 </wgt>
<wgt id='1744'> +1.3842205e+00 </wgt>
<wgt id='1745'> +1.4193627e+00 </wgt>
<wgt id='1746'> +1.3525952e+00 </wgt>
<wgt id='1747'> +1.3980397e+00 </wgt>
<wgt id='1748'> +1.3849832e+00 </wgt>
<wgt id='1749'> +1.3465754e+00 </wgt>
<wgt id='1750'> +1.3510575e+00 </wgt>
<wgt id='1751'> +1.4425410e+00 </wgt>
<wgt id='1752'> +1.4382419e+00 </wgt>
<wgt id='1753'> +1.3885930e+00 </wgt>
<wgt id='1754'> +1.3562918e+00 </wgt>
<wgt id='1755'> +1.3678125e+00 </wgt>
<wgt id='1756'> +1.4713545e+00 </wgt>
<wgt id='1757'> +1.3834913e+00 </wgt>
<wgt id='1758'> +1.3875865e+00 </wgt>
<wgt id='1759'> +1.3840576e+00 </wgt>
<wgt id='1760'> +1.3669011e+00 </wgt>
<wgt id='1761'> +1.3698718e+00 </wgt>
<wgt id='1762'> +1.3962193e+00 </wgt>
<wgt id='1763'> +1.4551350e+00 </wgt>
<wgt id='1764'> +1.3810552e+00 </wgt>
<wgt id='1765'> +1.4063191e+00 </wgt>
<wgt id='1766'> +1.3737478e+00 </wgt>
<wgt id='1767'> +1.3754041e+00 </wgt>
<wgt id='1768'> +1.3030524e+00 </wgt>
<wgt id='1769'> +1.3955194e+00 </wgt>
<wgt id='1770'> +1.3777919e+00 </wgt>
<wgt id='1771'> +1.4186795e+00 </wgt>
<wgt id='1772'> +1.3952211e+00 </wgt>
<wgt id='1773'> +1.4197104e+00 </wgt>
<wgt id='1774'> +1.4303220e+00 </wgt>
<wgt id='1775'> +1.4226520e+00 </wgt>
<wgt id='1776'> +1.3976511e+00 </wgt>
<wgt id='1777'> +1.3706368e+00 </wgt>
<wgt id='1778'> +1.4041632e+00 </wgt>
<wgt id='1779'> +1.4119408e+00 </wgt>
<wgt id='1780'> +1.4519541e+00 </wgt>
<wgt id='1781'> +1.4038198e+00 </wgt>
<wgt id='1782'> +1.3554979e+00 </wgt>
<wgt id='1783'> +1.4102602e+00 </wgt>
<wgt id='1784'> +1.3782070e+00 </wgt>
<wgt id='1785'> +1.3992042e+00 </wgt>
<wgt id='1786'> +1.3690428e+00 </wgt>
<wgt id='1787'> +1.3777833e+00 </wgt>
<wgt id='1788'> +1.3869630e+00 </wgt>
<wgt id='1789'> +1.3930007e+00 </wgt>
<wgt id='1790'> +1.3969598e+00 </wgt>
<wgt id='1791'> +1.4163615e+00 </wgt>
<wgt id='1792'> +1.4204780e+00 </wgt>
<wgt id='1793'> +1.4173739e+00 </wgt>
<wgt id='1794'> +1.3981731e+00 </wgt>
<wgt id='1795'> +1.4263302e+00 </wgt>
<wgt id='1796'> +1.3698937e+00 </wgt>
<wgt id='1797'> +1.4097853e+00 </wgt>
<wgt id='1798'> +1.4393057e+00 </wgt>
<wgt id='1799'> +1.3838996e+00 </wgt>
<wgt id='1800'> +1.3884186e+00 </wgt>
<wgt id='1801'> +1.3951153e+00 </wgt>
<wgt id='1802'> +1.3877610e+00 </wgt>
<wgt id='1803'> +1.3818434e+00 </wgt>
<wgt id='1804'> +1.3993773e+00 </wgt>
<wgt id='1805'> +1.4015261e+00 </wgt>
<wgt id='1806'> +1.4290929e+00 </wgt>
<wgt id='1807'> +1.4044500e+00 </wgt>
<wgt id='1808'> +1.3370767e+00 </wgt>
<wgt id='1809'> +1.4216283e+00 </wgt>
<wgt id='1810'> +1.3802578e+00 </wgt>
<wgt id='1811'> +1.3670102e+00 </wgt>
<wgt id='1812'> +1.3617181e+00 </wgt>
<wgt id='1813'> +1.3809735e+00 </wgt>
<wgt id='1814'> +1.3405668e+00 </wgt>
<wgt id='1815'> +1.3619858e+00 </wgt>
<wgt id='1816'> +1.3591322e+00 </wgt>
<wgt id='1817'> +1.3744242e+00 </wgt>
<wgt id='1818'> +1.3842678e+00 </wgt>
<wgt id='1819'> +1.3939804e+00 </wgt>
<wgt id='1820'> +1.3265948e+00 </wgt>
<wgt id='1821'> +1.3854753e+00 </wgt>
<wgt id='1822'> +1.3230028e+00 </wgt>
<wgt id='1823'> +1.3653647e+00 </wgt>
<wgt id='1824'> +1.3507912e+00 </wgt>
<wgt id='1825'> +1.3332275e+00 </wgt>
<wgt id='1826'> +1.3890503e+00 </wgt>
<wgt id='1827'> +1.4098077e+00 </wgt>
<wgt id='1828'> +1.3410401e+00 </wgt>
<wgt id='1829'> +1.3225698e+00 </wgt>
<wgt id='1830'> +1.4152303e+00 </wgt>
<wgt id='1831'> +1.3688593e+00 </wgt>
<wgt id='1832'> +1.3473391e+00 </wgt>
<wgt id='1833'> +1.4184711e+00 </wgt>
<wgt id='1834'> +1.3549514e+00 </wgt>
<wgt id='1835'> +1.3564262e+00 </wgt>
<wgt id='1836'> +1.3356085e+00 </wgt>
<wgt id='1837'> +1.3454784e+00 </wgt>
<wgt id='1838'> +1.3451581e+00 </wgt>
<wgt id='1839'> +1.3414700e+00 </wgt>
<wgt id='1840'> +1.3558455e+00 </wgt>
<wgt id='1841'> +1.3573685e+00 </wgt>
<wgt id='1842'> +1.3231473e+00 </wgt>
<wgt id='1843'> +1.3798232e+00 </wgt>
<wgt id='1844'> +1.4117794e+00 </wgt>
<wgt id='1845'> +1.3774011e+00 </wgt>
<wgt id='1846'> +1.3265417e+00 </wgt>
<wgt id='1847'> +1.3375847e+00 </wgt>
<wgt id='1848'> +1.3487106e+00 </wgt>
<wgt id='1849'> +1.3472359e+00 </wgt>
<wgt id='1850'> +1.3196024e+00 </wgt>
<wgt id='1851'> +1.3392520e+00 </wgt>
<wgt id='1852'> +1.3428913e+00 </wgt>
<wgt id='1853'> +1.3447008e+00 </wgt>
<wgt id='1854'> +1.3514303e+00 </wgt>
<wgt id='1855'> +1.3539951e+00 </wgt>
<wgt id='1856'> +1.3422440e+00 </wgt>
<wgt id='1857'> +1.3818016e+00 </wgt>
<wgt id='1858'> +1.3558832e+00 </wgt>
<wgt id='1859'> +1.3286817e+00 </wgt>
<wgt id='1860'> +1.3411706e+00 </wgt>
<wgt id='1861'> +1.3891114e+00 </wgt>
<wgt id='1862'> +1.3426956e+00 </wgt>
<wgt id='1863'> +1.3607279e+00 </wgt>
<wgt id='1864'> +1.3688457e+00 </wgt>
<wgt id='1865'> +1.3569076e+00 </wgt>
<wgt id='1866'> +1.3723426e+00 </wgt>
<wgt id='1867'> +1.3639476e+00 </wgt>
<wgt id='1868'> +1.3505882e+00 </wgt>
<wgt id='1869'> +1.3625821e+00 </wgt>
<wgt id='1870'> +1.3463040e+00 </wgt>
<wgt id='1871'> +1.3613274e+00 </wgt>
<wgt id='1872'> +1.3951246e+00 </wgt>
<wgt id='1873'> +1.3238828e+00 </wgt>
<wgt id='1874'> +1.3801897e+00 </wgt>
<wgt id='1875'> +1.3773457e+00 </wgt>
<wgt id='1876'> +1.3523940e+00 </wgt>
<wgt id='1877'> +1.3406337e+00 </wgt>
<wgt id='1878'> +1.3811940e+00 </wgt>
<wgt id='1879'> +1.3628894e+00 </wgt>
<wgt id='1880'> +1.3721326e+00 </wgt>
<wgt id='1881'> +1.3126431e+00 </wgt>
<wgt id='1882'> +1.3472698e+00 </wgt>
<wgt id='1883'> +1.3853934e+00 </wgt>
<wgt id='1884'> +1.3443752e+00 </wgt>
<wgt id='1885'> +1.3645669e+00 </wgt>
<wgt id='1886'> +1.3336641e+00 </wgt>
<wgt id='1887'> +1.3561406e+00 </wgt>
<wgt id='1888'> +1.3530109e+00 </wgt>
<wgt id='1889'> +1.4263393e+00 </wgt>
<wgt id='1890'> +1.3676273e+00 </wgt>
<wgt id='1891'> +1.4042430e+00 </wgt>
<wgt id='1892'> +1.3502076e+00 </wgt>
<wgt id='1893'> +1.3284152e+00 </wgt>
<wgt id='1894'> +1.3266244e+00 </wgt>
<wgt id='1895'> +1.3610123e+00 </wgt>
<wgt id='1896'> +1.3398088e+00 </wgt>
<wgt id='1897'> +1.3563027e+00 </wgt>
<wgt id='1898'> +1.3719688e+00 </wgt>
<wgt id='1899'> +1.3437284e+00 </wgt>
<wgt id='1900'> +1.3787165e+00 </wgt>
<wgt id='1901'> +1.4012958e+00 </wgt>
<wgt id='1902'> +1.3911669e+00 </wgt>
<wgt id='1903'> +1.3967667e+00 </wgt>
<wgt id='1904'> +1.3780215e+00 </wgt>
<wgt id='1905'> +1.3404172e+00 </wgt>
<wgt id='1906'> +1.3797134e+00 </wgt>
<wgt id='1907'> +1.3356913e+00 </wgt>
<wgt id='1908'> +1.3138369e+00 </wgt>
<wgt id='1909'> +1.3594441e+00 </wgt>
<wgt id='1910'> +1.3960412e+00 </wgt>
<wgt id='1911'> +1.3931201e+00 </wgt>
<wgt id='1912'> +1.3365507e+00 </wgt>
<wgt id='1913'> +1.3676213e+00 </wgt>
<wgt id='1914'> +1.3269471e+00 </wgt>
<wgt id='1915'> +1.3456475e+00 </wgt>
<wgt id='1916'> +1.3339404e+00 </wgt>
<wgt id='1917'> +1.3475547e+00 </wgt>
<wgt id='1918'> +1.3681152e+00 </wgt>
<wgt id='1919'> +1.3591322e+00 </wgt>
<wgt id='1920'> +1.3744242e+00 </wgt>
<wgt id='1921'> +1.3842678e+00 </wgt>
<wgt id='1922'> +1.3939804e+00 </wgt>
<wgt id='1923'> +1.3265948e+00 </wgt>
<wgt id='1924'> +1.3854753e+00 </wgt>
<wgt id='1925'> +1.3230028e+00 </wgt>
<wgt id='1926'> +1.3653647e+00 </wgt>
<wgt id='1927'> +1.3507912e+00 </wgt>
<wgt id='1928'> +1.3332275e+00 </wgt>
<wgt id='1929'> +1.3890503e+00 </wgt>
<wgt id='1930'> +1.4098077e+00 </wgt>
<wgt id='1931'> +1.3410401e+00 </wgt>
<wgt id='1932'> +1.3225698e+00 </wgt>
<wgt id='1933'> +1.4152303e+00 </wgt>
<wgt id='1934'> +1.3688593e+00 </wgt>
<wgt id='1935'> +1.3473391e+00 </wgt>
<wgt id='1936'> +1.4184711e+00 </wgt>
<wgt id='1937'> +1.3549514e+00 </wgt>
<wgt id='1938'> +1.3564262e+00 </wgt>
<wgt id='1939'> +1.3356085e+00 </wgt>
<wgt id='1940'> +1.3454784e+00 </wgt>
<wgt id='1941'> +1.3451581e+00 </wgt>
<wgt id='1942'> +1.3414700e+00 </wgt>
<wgt id='1943'> +1.3558455e+00 </wgt>
<wgt id='1944'> +1.3573685e+00 </wgt>
<wgt id='1945'> +1.3231473e+00 </wgt>
<wgt id='1946'> +1.3798232e+00 </wgt>
<wgt id='1947'> +1.4117794e+00 </wgt>
<wgt id='1948'> +1.3774011e+00 </wgt>
<wgt id='1949'> +1.3265417e+00 </wgt>
<wgt id='1950'> +1.3375847e+00 </wgt>
<wgt id='1951'> +1.3487106e+00 </wgt>
<wgt id='1952'> +1.3472359e+00 </wgt>
<wgt id='1953'> +1.3196024e+00 </wgt>
<wgt id='1954'> +1.3392520e+00 </wgt>
<wgt id='1955'> +1.3428913e+00 </wgt>
<wgt id='1956'> +1.3447008e+00 </wgt>
<wgt id='1957'> +1.3514303e+00 </wgt>
<wgt id='1958'> +1.3539951e+00 </wgt>
<wgt id='1959'> +1.3422440e+00 </wgt>
<wgt id='1960'> +1.3818016e+00 </wgt>
<wgt id='1961'> +1.3558832e+00 </wgt>
<wgt id='1962'> +1.3286817e+00 </wgt>
<wgt id='1963'> +1.3411706e+00 </wgt>
<wgt id='1964'> +1.3891114e+00 </wgt>
<wgt id='1965'> +1.3426956e+00 </wgt>
<wgt id='1966'> +1.3607279e+00 </wgt>
<wgt id='1967'> +1.3688457e+00 </wgt>
<wgt id='1968'> +1.3569076e+00 </wgt>
<wgt id='1969'> +1.3723426e+00 </wgt>
<wgt id='1970'> +1.3639476e+00 </wgt>
<wgt id='1971'> +1.3505882e+00 </wgt>
<wgt id='1972'> +1.3625821e+00 </wgt>
<wgt id='1973'> +1.3463040e+00 </wgt>
<wgt id='1974'> +1.3613274e+00 </wgt>
<wgt id='1975'> +1.3951246e+00 </wgt>
<wgt id='1976'> +1.3238828e+00 </wgt>
<wgt id='1977'> +1.3801897e+00 </wgt>
<wgt id='1978'> +1.3773457e+00 </wgt>
<wgt id='1979'> +1.3523940e+00 </wgt>
<wgt id='1980'> +1.3406337e+00 </wgt>
<wgt id='1981'> +1.3811940e+00 </wgt>
<wgt id='1982'> +1.3628894e+00 </wgt>
<wgt id='1983'> +1.3721326e+00 </wgt>
<wgt id='1984'> +1.3126431e+00 </wgt>
<wgt id='1985'> +1.3472698e+00 </wgt>
<wgt id='1986'> +1.3853934e+00 </wgt>
<wgt id='1987'> +1.3443752e+00 </wgt>
<wgt id='1988'> +1.3645669e+00 </wgt>
<wgt id='1989'> +1.3336641e+00 </wgt>
<wgt id='1990'> +1.3561406e+00 </wgt>
<wgt id='1991'> +1.3530109e+00 </wgt>
<wgt id='1992'> +1.4263393e+00 </wgt>
<wgt id='1993'> +1.3676273e+00 </wgt>
<wgt id='1994'> +1.4042430e+00 </wgt>
<wgt id='1995'> +1.3502076e+00 </wgt>
<wgt id='1996'> +1.3284152e+00 </wgt>
<wgt id='1997'> +1.3266244e+00 </wgt>
<wgt id='1998'> +1.3610123e+00 </wgt>
<wgt id='1999'> +1.3398088e+00 </wgt>
<wgt id='2000'> +1.3563027e+00 </wgt>
<wgt id='2001'> +1.3719688e+00 </wgt>
<wgt id='2002'> +1.3437284e+00 </wgt>
<wgt id='2003'> +1.3787165e+00 </wgt>
<wgt id='2004'> +1.4012958e+00 </wgt>
<wgt id='2005'> +1.3911669e+00 </wgt>
<wgt id='2006'> +1.3967667e+00 </wgt>
<wgt id='2007'> +1.3780215e+00 </wgt>
<wgt id='2008'> +1.3404172e+00 </wgt>
<wgt id='2009'> +1.3797134e+00 </wgt>
<wgt id='2010'> +1.3356913e+00 </wgt>
<wgt id='2011'> +1.3138369e+00 </wgt>
<wgt id='2012'> +1.3594441e+00 </wgt>
<wgt id='2013'> +1.3960412e+00 </wgt>
<wgt id='2014'> +1.3931201e+00 </wgt>
<wgt id='2015'> +1.3365507e+00 </wgt>
<wgt id='2016'> +1.3676213e+00 </wgt>
<wgt id='2017'> +1.3269471e+00 </wgt>
<wgt id='2018'> +1.3456475e+00 </wgt>
<wgt id='2019'> +1.3339404e+00 </wgt>
<wgt id='2020'> +1.3464214e+00 </wgt>
<wgt id='2021'> +1.3642423e+00 </wgt>
<wgt id='2022'> +1.3503306e+00 </wgt>
</rwgt>
</event>
<event>
 13 1 0.0079112 1.42631000e+02 7.81860800e-03 1.09983100e-01
       21 -1    0    0  502  503 +0.0000000000e+00 +0.0000000000e+00 +5.8068989437e+02 5.8068989437e+02 0.0000000000e+00 0.0000e+00 -1.0000e+00
        2 -1    0    0  501    0 +0.0000000000e+00 +0.0000000000e+00 -6.8061676822e+02 6.8061676822e+02 2.5500000000e-03 0.0000e+00 -1.0000e+00
  8000001  2    1    2  502    0 +9.5164069846e+01 +1.0460837503e+02 -8.2091746708e+01 6.2188424496e+02 6.0000153911e+02 0.0000e+00 0.0000e+00
        1  1    1    2  501    0 -1.0251001684e+02 -9.9295201804e+01 -3.1304200498e+02 3.4403944187e+02 5.0400000000e-03 0.0000e+00 -1.0000e+00
       -5  1    1    2    0  503 +7.3459469909e+00 -5.3131732268e+00 +2.9520687784e+02 2.9538297576e+02 4.6700000000e+00 0.0000e+00 -1.0000e+00
        6  2    3    3  502    0 -8.6236890172e+01 -1.5738066760e+02 -1.4038773708e+02 2.8557990746e+02 1.7216762489e+02 0.0000e+00 0.0000e+00
        5  1    6    6  502    0 -5.7890940132e+01 -5.8004178191e+01 -1.2915640199e+02 1.5303277660e+02 4.6700000000e+00 0.0000e+00 -1.0000e+00
       24  2    6    6    0    0 -2.8345950040e+01 -9.9376489408e+01 -1.1231335094e+01 1.3254713086e+02 8.2240011434e+01 0.0000e+00 0.0000e+00
       12  1    8    8    0    0 -1.7556323838e+01 -1.1312746904e+02 -7.9010420142e+00 1.1475397693e+02 0.0000000000e+00 0.0000e+00 -1.0000e+00
      -11  1    8    8    0    0 -1.0789626203e+01 +1.3750979629e+01 -3.3302930800e+00 1.7793153926e+01 5.1100000000e-04 0.0000e+00 1.0000e+00
       23  2    3    3    0    0 +1.8140096002e+02 +2.6198904263e+02 +5.8295990377e+01 3.3630433750e+02 9.0319533741e+01 0.0000e+00 0.0000e+00
       16  1   11   11    0    0 +1.6999603800e+02 +2.5886024400e+02 +7.2257740861e+01 3.1800701246e+02 0.0000000000e+00 0.0000e+00 -1.0000e+00
      -16  1   11   11    0    0 +1.1404922021e+01 +3.1287986294e+00 -1.3961750484e+01 1.8297325043e+01 0.0000000000e+00 0.0000e+00 1.0000e+00
<mgrwt>
<rscale>  1 0.10635532e+03</rscale>
<asrwt>0</asrwt>
<pdfrwt beam="1">  1       21 0.89336907e-01 0.79305738e+02</pdfrwt>
<pdfrwt beam="2">  1        2 0.10471027e+00 0.14263098e+03</pdfrwt>
<totfact> 0.70103769e+02</totfact>
</mgrwt>
<rwgt>
<wgt id='1001'> +1.3581722e+00 </wgt>
<wgt id='1002'> +8.4444078e-01 </wgt>
<wgt id='1003'> +8.4411166e-01 </wgt>
<wgt id='1004'> +9.8873044e-01 </wgt>
<wgt id='1005'> +7.4236005e-01 </wgt>
<wgt id='1006'> +1.2272563e+00 </wgt>
<wgt id='1007'> +7.8046522e-01 </wgt>
<wgt id='1008'> +7.8017401e-01 </wgt>
<wgt id='1009'> +9.0740009e-01 </wgt>
<wgt id='1010'> +6.8973697e-01 </wgt>
<wgt id='1011'> +1.5215092e+00 </wgt>
<wgt id='1012'> +9.2014641e-01 </wgt>
<wgt id='1013'> +9.1976946e-01 </wgt>
<wgt id='1014'> +1.0865634e+00 </wgt>
<wgt id='1015'> +8.0388871e-01 </wgt>
<wgt id='1016'> +1.2523010e+00 </wgt>
<wgt id='1017'> +7.8863785e-01 </wgt>
<wgt id='1018'> +7.8833716e-01 </wgt>
<wgt id='1019'> +9.1976946e-01 </wgt>
<wgt id='1020'> +6.9548469e-01 </wgt>
<wgt id='1021'> +1.1315901e+00 </wgt>
<wgt id='1022'> +7.2888998e-01 </wgt>
<wgt id='1023'> +7.2862417e-01 </wgt>
<wgt id='1024'> +8.4411166e-01 </wgt>
<wgt id='1025'> +6.4618443e-01 </wgt>
<wgt id='1026'> +1.4029056e+00 </wgt>
<wgt id='1027'> +8.5934066e-01 </wgt>
<wgt id='1028'> +8.5899589e-01 </wgt>
<wgt id='1029'> +1.0107789e+00 </wgt>
<wgt id='1030'> +7.5312821e-01 </wgt>
<wgt id='1031'> +1.4802951e+00 </wgt>
<wgt id='1032'> +9.0776480e-01 </wgt>
<wgt id='1033'> +9.0740009e-01 </wgt>
<wgt id='1034'> +1.0672819e+00 </wgt>
<wgt id='1035'> +7.9523272e-01 </wgt>
<wgt id='1036'> +1.3376076e+00 </wgt>
<wgt id='1037'> +8.3899177e-01 </wgt>
<wgt id='1038'> +8.3866862e-01 </wgt>
<wgt id='1039'> +9.7949008e-01 </wgt>
<wgt id='1040'> +7.3886170e-01 </wgt>
<wgt id='1041'> +1.6583189e+00 </wgt>
<wgt id='1042'> +9.8914755e-01 </wgt>
<wgt id='1043'> +9.8873044e-01 </wgt>
<wgt id='1044'> +1.1728873e+00 </wgt>
<wgt id='1045'> +8.6114360e-01 </wgt>
<wgt id='1046'> +1.3581722e+00 </wgt>
<wgt id='1047'> +1.3581722e+00 </wgt>
<wgt id='1048'> +1.3581722e+00 </wgt>
<wgt id='1049'> +1.3558183e+00 </wgt>
<wgt id='1050'> +1.3566668e+00 </wgt>
<wgt id='1051'> +1.3617740e+00 </wgt>
<wgt id='1052'> +1.3576083e+00 </wgt>
<wgt id='1053'> +1.3597539e+00 </wgt>
<wgt id='1054'> +1.3562941e+00 </wgt>
<wgt id='1055'> +1.3549541e+00 </wgt>
<wgt id='1056'> +1.3538331e+00 </wgt>
<wgt id='1057'> +1.3608354e+00 </wgt>
<wgt id='1058'> +1.3565495e+00 </wgt>
<wgt id='1059'> +1.3627618e+00 </wgt>
<wgt id='1060'> +1.3539886e+00 </wgt>
<wgt id='1061'> +1.3590400e+00 </wgt>
<wgt id='1062'> +1.3613349e+00 </wgt>
<wgt id='1063'> +1.3591596e+00 </wgt>
<wgt id='1064'> +1.3611824e+00 </wgt>
<wgt id='1065'> +1.3641868e+00 </wgt>
<wgt id='1066'> +1.3561531e+00 </wgt>
<wgt id='1067'> +1.3484465e+00 </wgt>
<wgt id='1068'> +1.3591016e+00 </wgt>
<wgt id='1069'> +1.3546223e+00 </wgt>
<wgt id='1070'> +1.3639689e+00 </wgt>
<wgt id='1071'> +1.3626487e+00 </wgt>
<wgt id='1072'> +1.3562312e+00 </wgt>
<wgt id='1073'> +1.3569149e+00 </wgt>
<wgt id='1074'> +1.3548500e+00 </wgt>
<wgt id='1075'> +1.3559729e+00 </wgt>
<wgt id='1076'> +1.3608099e+00 </wgt>
<wgt id='1077'> +1.3599917e+00 </wgt>
<wgt id='1078'> +1.3594976e+00 </wgt>
<wgt id='1079'> +1.3615330e+00 </wgt>
<wgt id='1080'> +1.3589500e+00 </wgt>
<wgt id='1081'> +1.3594814e+00 </wgt>
<wgt id='1082'> +1.3584136e+00 </wgt>
<wgt id='1083'> +1.3573469e+00 </wgt>
<wgt id='1084'> +1.3569615e+00 </wgt>
<wgt id='1085'> +1.3603143e+00 </wgt>
<wgt id='1086'> +1.3561990e+00 </wgt>
<wgt id='1087'> +1.3573350e+00 </wgt>
<wgt id='1088'> +1.3613420e+00 </wgt>
<wgt id='1089'> +1.3619923e+00 </wgt>
<wgt id='1090'> +1.3614615e+00 </wgt>
<wgt id='1091'> +1.3564886e+00 </wgt>
<wgt id='1092'> +1.3578571e+00 </wgt>
<wgt id='1093'> +1.3570484e+00 </wgt>
<wgt id='1094'> +1.3571785e+00 </wgt>
<wgt id='1095'> +1.3563705e+00 </wgt>
<wgt id='1096'> +1.3546926e+00 </wgt>
<wgt id='1097'> +1.3591556e+00 </wgt>
<wgt id='1098'> +1.3558287e+00 </wgt>
<wgt id='1099'> +1.3574888e+00 </wgt>
<wgt id='1100'> +1.3604220e+00 </wgt>
<wgt id='1101'> +1.3587665e+00 </wgt>
<wgt id='1102'> +1.3596028e+00 </wgt>
<wgt id='1103'> +1.3588936e+00 </wgt>
<wgt id='1104'> +1.3580594e+00 </wgt>
<wgt id='1105'> +1.3603556e+00 </wgt>
<wgt id='1106'> +1.3591310e+00 </wgt>
<wgt id='1107'> +1.3589266e+00 </wgt>
<wgt id='1108'> +1.3576929e+00 </wgt>
<wgt id='1109'> +1.3585511e+00 </wgt>
<wgt id='1110'> +1.3584300e+00 </wgt>
<wgt id='1111'> +1.3570633e+00 </wgt>
<wgt id='1112'> +1.3571983e+00 </wgt>
<wgt id='1113'> +1.3595564e+00 </wgt>
<wgt id='1114'> +1.3578728e+00 </wgt>
<wgt id='1115'> +1.3583003e+00 </wgt>
<wgt id='1116'> +1.3577488e+00 </wgt>
<wgt id='1117'> +1.3587279e+00 </wgt>
<wgt id='1118'> +1.3577480e+00 </wgt>
<wgt id='1119'> +1.3575013e+00 </wgt>
<wgt id='1120'> +1.3588462e+00 </wgt>
<wgt id='1121'> +1.3566393e+00 </wgt>
<wgt id='1122'> +1.3581365e+00 </wgt>
<wgt id='1123'> +1.3573455e+00 </wgt>
<wgt id='1124'> +1.3582771e+00 </wgt>
<wgt id='1125'> +1.3600029e+00 </wgt>
<wgt id='1126'> +1.3588806e+00 </wgt>
<wgt id='1127'> +1.3579383e+00 </wgt>
<wgt id='1128'> +1.3590175e+00 </wgt>
<wgt id='1129'> +1.3571356e+00 </wgt>
<wgt id='1130'> +1.3580105e+00 </wgt>
<wgt id='1131'> +1.3583401e+00 </wgt>
<wgt id='1132'> +1.3587313e+00 </wgt>
<wgt id='1133'> +1.3587052e+00 </wgt>
<wgt id='1134'> +1.3578406e+00 </wgt>
<wgt id='1135'> +1.3574383e+00 </wgt>
<wgt id='1136'> +1.3575790e+00 </wgt>
<wgt id='1137'> +1.3581137e+00 </wgt>
<wgt id='1138'> +1.3582654e+00 </wgt>
<wgt id='1139'> +1.3580782e+00 </wgt>
<wgt id='1140'> +1.3590666e+00 </wgt>
<wgt id='1141'> +1.3583981e+00 </wgt>
<wgt id='1142'> +1.3581911e+00 </wgt>
<wgt id='1143'> +1.3588171e+00 </wgt>
<wgt id='1144'> +1.3577111e+00 </wgt>
<wgt id='1145'> +1.3585048e+00 </wgt>
<wgt id='1146'> +1.3581634e+00 </wgt>
<wgt id='1147'> +1.3585244e+00 </wgt>
<wgt id='1148'> +1.3581722e+00 </wgt>
<wgt id='1149'> +1.3199014e+00 </wgt>
<wgt id='1150'> +1.3339649e+00 </wgt>
<wgt id='1151'> +1.3275721e+00 </wgt>
<wgt id='1152'> +1.2860045e+00 </wgt>
<wgt id='1153'> +1.3041899e+00 </wgt>
<wgt id='1154'> +1.3221135e+00 </wgt>
<wgt id='1155'> +1.3282277e+00 </wgt>
<wgt id='1156'> +1.3364030e+00 </wgt>
<wgt id='1157'> +1.3287563e+00 </wgt>
<wgt id='1158'> +1.3063213e+00 </wgt>
<wgt id='1159'> +1.2893100e+00 </wgt>
<wgt id='1160'> +1.2979032e+00 </wgt>
<wgt id='1161'> +1.3317131e+00 </wgt>
<wgt id='1162'> +1.2990987e+00 </wgt>
<wgt id='1163'> +1.3511741e+00 </wgt>
<wgt id='1164'> +1.2967265e+00 </wgt>
<wgt id='1165'> +1.3097673e+00 </wgt>
<wgt id='1166'> +1.3277974e+00 </wgt>
<wgt id='1167'> +1.3222616e+00 </wgt>
<wgt id='1168'> +1.3180305e+00 </wgt>
<wgt id='1169'> +1.2960859e+00 </wgt>
<wgt id='1170'> +1.3019067e+00 </wgt>
<wgt id='1171'> +1.3000767e+00 </wgt>
<wgt id='1172'> +1.3243059e+00 </wgt>
<wgt id='1173'> +1.3266464e+00 </wgt>
<wgt id='1174'> +1.3402770e+00 </wgt>
<wgt id='1175'> +1.3295432e+00 </wgt>
<wgt id='1176'> +1.2689847e+00 </wgt>
<wgt id='1177'> +1.3314649e+00 </wgt>
<wgt id='1178'> +1.3282023e+00 </wgt>
<wgt id='1179'> +1.3207187e+00 </wgt>
<wgt id='1180'> +1.3179168e+00 </wgt>
<wgt id='1181'> +1.3090035e+00 </wgt>
<wgt id='1182'> +1.3281846e+00 </wgt>
<wgt id='1183'> +1.3424090e+00 </wgt>
<wgt id='1184'> +1.2653527e+00 </wgt>
<wgt id='1185'> +1.3224281e+00 </wgt>
<wgt id='1186'> +1.2897524e+00 </wgt>
<wgt id='1187'> +1.3172325e+00 </wgt>
<wgt id='1188'> +1.3112991e+00 </wgt>
<wgt id='1189'> +1.3368486e+00 </wgt>
<wgt id='1190'> +1.3317463e+00 </wgt>
<wgt id='1191'> +1.3498548e+00 </wgt>
<wgt id='1192'> +1.3208380e+00 </wgt>
<wgt id='1193'> +1.3478008e+00 </wgt>
<wgt id='1194'> +1.3364292e+00 </wgt>
<wgt id='1195'> +1.3207280e+00 </wgt>
<wgt id='1196'> +1.3373691e+00 </wgt>
<wgt id='1197'> +1.3572511e+00 </wgt>
<wgt id='1198'> +1.3051387e+00 </wgt>
<wgt id='1199'> +1.2886560e+00 </wgt>
<wgt id='1200'> +1.3149309e+00 </wgt>
<wgt id='1201'> +1.3154382e+00 </wgt>
<wgt id='1202'> +1.3268505e+00 </wgt>
<wgt id='1203'> +1.3023631e+00 </wgt>
<wgt id='1204'> +1.3613430e+00 </wgt>
<wgt id='1205'> +1.3231677e+00 </wgt>
<wgt id='1206'> +1.3153182e+00 </wgt>
<wgt id='1207'> +1.3518238e+00 </wgt>
<wgt id='1208'> +1.3179028e+00 </wgt>
<wgt id='1209'> +1.3315836e+00 </wgt>
<wgt id='1210'> +1.2961255e+00 </wgt>
<wgt id='1211'> +1.3185849e+00 </wgt>
<wgt id='1212'> +1.3104485e+00 </wgt>
<wgt id='1213'> +1.3556206e+00 </wgt>
<wgt id='1214'> +1.3178959e+00 </wgt>
<wgt id='1215'> +1.3789313e+00 </wgt>
<wgt id='1216'> +1.3275080e+00 </wgt>
<wgt id='1217'> +1.3100515e+00 </wgt>
<wgt id='1218'> +1.3443218e+00 </wgt>
<wgt id='1219'> +1.3254776e+00 </wgt>
<wgt id='1220'> +1.2993424e+00 </wgt>
<wgt id='1221'> +1.2856078e+00 </wgt>
<wgt id='1222'> +1.3045927e+00 </wgt>
<wgt id='1223'> +1.2814791e+00 </wgt>
<wgt id='1224'> +1.3208079e+00 </wgt>
<wgt id='1225'> +1.3415359e+00 </wgt>
<wgt id='1226'> +1.3112381e+00 </wgt>
<wgt id='1227'> +1.3071938e+00 </wgt>
<wgt id='1228'> +1.3134505e+00 </wgt>
<wgt id='1229'> +1.3393571e+00 </wgt>
<wgt id='1230'> +1.3251285e+00 </wgt>
<wgt id='1231'> +1.3097673e+00 </wgt>
<wgt id='1232'> +1.2910070e+00 </wgt>
<wgt id='1233'> +1.3084581e+00 </wgt>
<wgt id='1234'> +1.2843683e+00 </wgt>
<wgt id='1235'> +1.3526835e+00 </wgt>
<wgt id='1236'> +1.3057928e+00 </wgt>
<wgt id='1237'> +1.3088901e+00 </wgt>
<wgt id='1238'> +1.2882714e+00 </wgt>
<wgt id='1239'> +1.3599770e+00 </wgt>
<wgt id='1240'> +1.3493146e+00 </wgt>
<wgt id='1241'> +1.3198607e+00 </wgt>
<wgt id='1242'> +1.3050806e+00 </wgt>
<wgt id='1243'> +1.3319563e+00 </wgt>
<wgt id='1244'> +1.3202625e+00 </wgt>
<wgt id='1245'> +1.3316693e+00 </wgt>
<wgt id='1246'> +1.3418758e+00 </wgt>
<wgt id='1247'> +1.3366433e+00 </wgt>
<wgt id='1248'> +1.3221821e+00 </wgt>
<wgt id='1249'> +1.3194519e+00 </wgt>
<wgt id='1250'> +1.3338772e+00 </wgt>
<wgt id='1251'> +1.3188916e+00 </wgt>
<wgt id='1252'> +1.3765411e+00 </wgt>
<wgt id='1253'> +1.3597755e+00 </wgt>
<wgt id='1254'> +1.2655425e+00 </wgt>
<wgt id='1255'> +1.3546628e+00 </wgt>
<wgt id='1256'> +1.3595218e+00 </wgt>
<wgt id='1257'> +1.3518109e+00 </wgt>
<wgt id='1258'> +1.3512958e+00 </wgt>
<wgt id='1259'> +1.3563193e+00 </wgt>
<wgt id='1260'> +1.3556171e+00 </wgt>
<wgt id='1261'> +1.3532861e+00 </wgt>
<wgt id='1262'> +1.3555026e+00 </wgt>
<wgt id='1263'> +1.3540879e+00 </wgt>
<wgt id='1264'> +1.3546946e+00 </wgt>
<wgt id='1265'> +1.3545857e+00 </wgt>
<wgt id='1266'> +1.3563890e+00 </wgt>
<wgt id='1267'> +1.3528782e+00 </wgt>
<wgt id='1268'> +1.3670209e+00 </wgt>
<wgt id='1269'> +1.3422134e+00 </wgt>
<wgt id='1270'> +1.3451469e+00 </wgt>
<wgt id='1271'> +1.3642107e+00 </wgt>
<wgt id='1272'> +1.3518822e+00 </wgt>
<wgt id='1273'> +1.3567483e+00 </wgt>
<wgt id='1274'> +1.3567472e+00 </wgt>
<wgt id='1275'> +1.3523476e+00 </wgt>
<wgt id='1276'> +1.3604035e+00 </wgt>
<wgt id='1277'> +1.3487894e+00 </wgt>
<wgt id='1278'> +1.3457086e+00 </wgt>
<wgt id='1279'> +1.3616521e+00 </wgt>
<wgt id='1280'> +1.3513244e+00 </wgt>
<wgt id='1281'> +1.3635163e+00 </wgt>
<wgt id='1282'> +1.3601438e+00 </wgt>
<wgt id='1283'> +1.3475044e+00 </wgt>
<wgt id='1284'> +1.3544922e+00 </wgt>
<wgt id='1285'> +1.3538606e+00 </wgt>
<wgt id='1286'> +1.3534753e+00 </wgt>
<wgt id='1287'> +1.3546150e+00 </wgt>
<wgt id='1288'> +1.3574260e+00 </wgt>
<wgt id='1289'> +1.3532333e+00 </wgt>
<wgt id='1290'> +1.3566984e+00 </wgt>
<wgt id='1291'> +1.3539008e+00 </wgt>
<wgt id='1292'> +1.3638398e+00 </wgt>
<wgt id='1293'> +1.3433781e+00 </wgt>
<wgt id='1294'> +1.3485369e+00 </wgt>
<wgt id='1295'> +1.3537010e+00 </wgt>
<wgt id='1296'> +1.3721553e+00 </wgt>
<wgt id='1297'> +1.3758573e+00 </wgt>
<wgt id='1298'> +1.3691220e+00 </wgt>
<wgt id='1299'> +1.3710040e+00 </wgt>
<wgt id='1300'> +1.3734368e+00 </wgt>
<wgt id='1301'> +1.3692418e+00 </wgt>
<wgt id='1302'> +1.3764743e+00 </wgt>
<wgt id='1303'> +1.3690652e+00 </wgt>
<wgt id='1304'> +1.3741826e+00 </wgt>
<wgt id='1305'> +1.3726788e+00 </wgt>
<wgt id='1306'> +1.3713311e+00 </wgt>
<wgt id='1307'> +1.3751440e+00 </wgt>
<wgt id='1308'> +1.3702385e+00 </wgt>
<wgt id='1309'> +1.3725208e+00 </wgt>
<wgt id='1310'> +1.3716689e+00 </wgt>
<wgt id='1311'> +1.3827832e+00 </wgt>
<wgt id='1312'> +1.3682471e+00 </wgt>
<wgt id='1313'> +1.3635650e+00 </wgt>
<wgt id='1314'> +1.3825422e+00 </wgt>
<wgt id='1315'> +1.3741405e+00 </wgt>
<wgt id='1316'> +1.3702511e+00 </wgt>
<wgt id='1317'> +1.3768276e+00 </wgt>
<wgt id='1318'> +1.3647305e+00 </wgt>
<wgt id='1319'> +1.3685355e+00 </wgt>
<wgt id='1320'> +1.3751465e+00 </wgt>
<wgt id='1321'> +1.3634712e+00 </wgt>
<wgt id='1322'> +1.3763190e+00 </wgt>
<wgt id='1323'> +1.3687125e+00 </wgt>
<wgt id='1324'> +1.3755821e+00 </wgt>
<wgt id='1325'> +1.3717770e+00 </wgt>
<wgt id='1326'> +1.3726088e+00 </wgt>
<wgt id='1327'> +1.3729425e+00 </wgt>
<wgt id='1328'> +1.3718374e+00 </wgt>
<wgt id='1329'> +1.3739601e+00 </wgt>
<wgt id='1330'> +1.3711645e+00 </wgt>
<wgt id='1331'> +1.3694787e+00 </wgt>
<wgt id='1332'> +1.3735922e+00 </wgt>
<wgt id='1333'> +1.3828507e+00 </wgt>
<wgt id='1334'> +1.3668990e+00 </wgt>
<wgt id='1335'> +1.3749760e+00 </wgt>
<wgt id='1336'> +1.3713588e+00 </wgt>
<wgt id='1337'> +1.3721553e+00 </wgt>
<wgt id='1338'> +1.3726085e+00 </wgt>
<wgt id='1339'> +1.3723834e+00 </wgt>
<wgt id='1340'> +1.3721443e+00 </wgt>
<wgt id='1341'> +1.3716747e+00 </wgt>
<wgt id='1342'> +1.3714632e+00 </wgt>
<wgt id='1343'> +1.3712593e+00 </wgt>
<wgt id='1344'> +1.3585690e+00 </wgt>
<wgt id='1345'> +1.3638179e+00 </wgt>
<wgt id='1346'> +1.3534303e+00 </wgt>
<wgt id='1347'> +1.3620828e+00 </wgt>
<wgt id='1348'> +1.3559755e+00 </wgt>
<wgt id='1349'> +1.3546542e+00 </wgt>
<wgt id='1350'> +1.3618916e+00 </wgt>
<wgt id='1351'> +1.3585609e+00 </wgt>
<wgt id='1352'> +1.3586423e+00 </wgt>
<wgt id='1353'> +1.3616331e+00 </wgt>
<wgt id='1354'> +1.3563963e+00 </wgt>
<wgt id='1355'> +1.3577262e+00 </wgt>
<wgt id='1356'> +1.3592692e+00 </wgt>
<wgt id='1357'> +1.3587282e+00 </wgt>
<wgt id='1358'> +1.3584764e+00 </wgt>
<wgt id='1359'> +1.3540769e+00 </wgt>
<wgt id='1360'> +1.3698772e+00 </wgt>
<wgt id='1361'> +1.3474593e+00 </wgt>
<wgt id='1362'> +1.3689743e+00 </wgt>
<wgt id='1363'> +1.3558261e+00 </wgt>
<wgt id='1364'> +1.3620310e+00 </wgt>
<wgt id='1365'> +1.3576048e+00 </wgt>
<wgt id='1366'> +1.3594470e+00 </wgt>
<wgt id='1367'> +1.3485308e+00 </wgt>
<wgt id='1368'> +1.3633826e+00 </wgt>
<wgt id='1369'> +1.3633605e+00 </wgt>
<wgt id='1370'> +1.3541746e+00 </wgt>
<wgt id='1371'> +1.3591837e+00 </wgt>
<wgt id='1372'> +1.3579090e+00 </wgt>
<wgt id='1373'> +1.3666855e+00 </wgt>
<wgt id='1374'> +1.3572785e+00 </wgt>
<wgt id='1375'> +1.3622725e+00 </wgt>
<wgt id='1376'> +1.3576996e+00 </wgt>
<wgt id='1377'> +1.3585878e+00 </wgt>
<wgt id='1378'> +1.3591317e+00 </wgt>
<wgt id='1379'> +1.3618452e+00 </wgt>
<wgt id='1380'> +1.3552758e+00 </wgt>
<wgt id='1381'> +1.3500851e+00 </wgt>
<wgt id='1382'> +1.3671975e+00 </wgt>
<wgt id='1383'> +1.3573548e+00 </wgt>
<wgt id='1384'> +1.3649379e+00 </wgt>
<wgt id='1385'> +1.3585690e+00 </wgt>
<wgt id='1386'> +1.3591372e+00 </wgt>
<wgt id='1387'> +1.3589869e+00 </wgt>
<wgt id='1388'> +1.3586475e+00 </wgt>
<wgt id='1389'> +1.3580616e+00 </wgt>
<wgt id='1390'> +1.3577126e+00 </wgt>
<wgt id='1391'> +1.3572681e+00 </wgt>
<wgt id='1392'> +1.4123373e+00 </wgt>
<wgt id='1393'> +1.4122344e+00 </wgt>
<wgt id='1394'> +1.4124190e+00 </wgt>
<wgt id='1395'> +1.4137964e+00 </wgt>
<wgt id='1396'> +1.4112522e+00 </wgt>
<wgt id='1397'> +1.4172766e+00 </wgt>
<wgt id='1398'> +1.4076022e+00 </wgt>
<wgt id='1399'> +1.4124124e+00 </wgt>
<wgt id='1400'> +1.4122364e+00 </wgt>
<wgt id='1401'> +1.4084401e+00 </wgt>
<wgt id='1402'> +1.4170828e+00 </wgt>
<wgt id='1403'> +1.4120527e+00 </wgt>
<wgt id='1404'> +1.4128741e+00 </wgt>
<wgt id='1405'> +1.4097807e+00 </wgt>
<wgt id='1406'> +1.4158731e+00 </wgt>
<wgt id='1407'> +1.4127382e+00 </wgt>
<wgt id='1408'> +1.4121004e+00 </wgt>
<wgt id='1409'> +1.4177434e+00 </wgt>
<wgt id='1410'> +1.4060172e+00 </wgt>
<wgt id='1411'> +1.4081272e+00 </wgt>
<wgt id='1412'> +1.4155108e+00 </wgt>
<wgt id='1413'> +1.4113624e+00 </wgt>
<wgt id='1414'> +1.4134094e+00 </wgt>
<wgt id='1415'> +1.4206854e+00 </wgt>
<wgt id='1416'> +1.4037753e+00 </wgt>
<wgt id='1417'> +1.4017938e+00 </wgt>
<wgt id='1418'> +1.4251931e+00 </wgt>
<wgt id='1419'> +1.4138794e+00 </wgt>
<wgt id='1420'> +1.4102939e+00 </wgt>
<wgt id='1421'> +1.4092490e+00 </wgt>
<wgt id='1422'> +1.4161510e+00 </wgt>
<wgt id='1423'> +1.4000676e+00 </wgt>
<wgt id='1424'> +1.4213584e+00 </wgt>
<wgt id='1425'> +1.4141084e+00 </wgt>
<wgt id='1426'> +1.4105709e+00 </wgt>
<wgt id='1427'> +1.4121836e+00 </wgt>
<wgt id='1428'> +1.4067306e+00 </wgt>
<wgt id='1429'> +1.4095902e+00 </wgt>
<wgt id='1430'> +1.4146437e+00 </wgt>
<wgt id='1431'> +1.4090015e+00 </wgt>
<wgt id='1432'> +1.4152193e+00 </wgt>
<wgt id='1433'> +1.4038851e+00 </wgt>
<wgt id='1434'> +1.4234391e+00 </wgt>
<wgt id='1435'> +1.4126787e+00 </wgt>
<wgt id='1436'> +1.4125613e+00 </wgt>
<wgt id='1437'> +1.4094007e+00 </wgt>
<wgt id='1438'> +1.4198779e+00 </wgt>
<wgt id='1439'> +1.4231569e+00 </wgt>
<wgt id='1440'> +1.4009568e+00 </wgt>
<wgt id='1441'> +1.4155441e+00 </wgt>
<wgt id='1442'> +1.4122757e+00 </wgt>
<wgt id='1443'> +1.3922006e+00 </wgt>
<wgt id='1444'> +1.3921064e+00 </wgt>
<wgt id='1445'> +1.3923067e+00 </wgt>
<wgt id='1446'> +1.3937330e+00 </wgt>
<wgt id='1447'> +1.3911062e+00 </wgt>
<wgt id='1448'> +1.3973158e+00 </wgt>
<wgt id='1449'> +1.3874803e+00 </wgt>
<wgt id='1450'> +1.3920850e+00 </wgt>
<wgt id='1451'> +1.3923062e+00 </wgt>
<wgt id='1452'> +1.3882168e+00 </wgt>
<wgt id='1453'> +1.3960273e+00 </wgt>
<wgt id='1454'> +1.3916011e+00 </wgt>
<wgt id='1455'> +1.3934546e+00 </wgt>
<wgt id='1456'> +1.3891941e+00 </wgt>
<wgt id='1457'> +1.3975390e+00 </wgt>
<wgt id='1458'> +1.3930347e+00 </wgt>
<wgt id='1459'> +1.3917075e+00 </wgt>
<wgt id='1460'> +1.3968914e+00 </wgt>
<wgt id='1461'> +1.3864617e+00 </wgt>
<wgt id='1462'> +1.3870076e+00 </wgt>
<wgt id='1463'> +1.3966664e+00 </wgt>
<wgt id='1464'> +1.3918271e+00 </wgt>
<wgt id='1465'> +1.3927038e+00 </wgt>
<wgt id='1466'> +1.4046751e+00 </wgt>
<wgt id='1467'> +1.3836607e+00 </wgt>
<wgt id='1468'> +1.4043810e+00 </wgt>
<wgt id='1469'> +1.3802692e+00 </wgt>
<wgt id='1470'> +1.3941142e+00 </wgt>
<wgt id='1471'> +1.3904091e+00 </wgt>
<wgt id='1472'> +1.3899222e+00 </wgt>
<wgt id='1473'> +1.3950013e+00 </wgt>
<wgt id='1474'> +1.3838761e+00 </wgt>
<wgt id='1475'> +1.4013323e+00 </wgt>
<wgt id='1476'> +1.3963198e+00 </wgt>
<wgt id='1477'> +1.3888065e+00 </wgt>
<wgt id='1478'> +1.3923004e+00 </wgt>
<wgt id='1479'> +1.3860550e+00 </wgt>
<wgt id='1480'> +1.3899198e+00 </wgt>
<wgt id='1481'> +1.3939938e+00 </wgt>
<wgt id='1482'> +1.3889631e+00 </wgt>
<wgt id='1483'> +1.3953907e+00 </wgt>
<wgt id='1484'> +1.3837087e+00 </wgt>
<wgt id='1485'> +1.4030755e+00 </wgt>
<wgt id='1486'> +1.3938826e+00 </wgt>
<wgt id='1487'> +1.3915956e+00 </wgt>
<wgt id='1488'> +1.3888019e+00 </wgt>
<wgt id='1489'> +1.4004703e+00 </wgt>
<wgt id='1490'> +1.4047819e+00 </wgt>
<wgt id='1491'> +1.3816246e+00 </wgt>
<wgt id='1492'> +1.3974189e+00 </wgt>
<wgt id='1493'> +1.3917807e+00 </wgt>
<wgt id='1494'> +1.3490017e+00 </wgt>
<wgt id='1495'> +1.3213872e+00 </wgt>
<wgt id='1496'> +1.3309503e+00 </wgt>
<wgt id='1497'> +1.3396795e+00 </wgt>
<wgt id='1498'> +1.3582847e+00 </wgt>
<wgt id='1499'> +1.3487784e+00 </wgt>
<wgt id='1500'> +1.3605716e+00 </wgt>
<wgt id='1501'> +1.3587221e+00 </wgt>
<wgt id='1502'> +1.3565791e+00 </wgt>
<wgt id='1503'> +1.3542679e+00 </wgt>
<wgt id='1504'> +1.3517134e+00 </wgt>
<wgt id='1505'> +1.3458880e+00 </wgt>
<wgt id='1506'> +1.3428649e+00 </wgt>
<wgt id='1507'> +1.3397022e+00 </wgt>
<wgt id='1508'> +1.3487784e+00 </wgt>
<wgt id='1509'> +1.3497547e+00 </wgt>
<wgt id='1510'> +1.3492159e+00 </wgt>
<wgt id='1511'> +1.3485155e+00 </wgt>
<wgt id='1512'> +1.3481905e+00 </wgt>
<wgt id='1513'> +1.3507513e+00 </wgt>
<wgt id='1514'> +1.3499752e+00 </wgt>
<wgt id='1515'> +1.3517198e+00 </wgt>
<wgt id='1516'> +1.3525947e+00 </wgt>
<wgt id='1517'> +1.3488815e+00 </wgt>
<wgt id='1518'> +1.3540931e+00 </wgt>
<wgt id='1519'> +1.3493750e+00 </wgt>
<wgt id='1520'> +1.3533283e+00 </wgt>
<wgt id='1521'> +1.3481100e+00 </wgt>
<wgt id='1522'> +1.3487091e+00 </wgt>
<wgt id='1523'> +1.3526714e+00 </wgt>
<wgt id='1524'> +1.3561827e+00 </wgt>
<wgt id='1525'> +1.3483564e+00 </wgt>
<wgt id='1526'> +1.3493723e+00 </wgt>
<wgt id='1527'> +1.3523871e+00 </wgt>
<wgt id='1528'> +1.3491414e+00 </wgt>
<wgt id='1529'> +1.3524721e+00 </wgt>
<wgt id='1530'> +1.3560794e+00 </wgt>
<wgt id='1531'> +1.3476928e+00 </wgt>
<wgt id='1532'> +1.3572594e+00 </wgt>
<wgt id='1533'> +1.3417474e+00 </wgt>
<wgt id='1534'> +1.3474326e+00 </wgt>
<wgt id='1535'> +1.3530249e+00 </wgt>
<wgt id='1536'> +1.3492213e+00 </wgt>
<wgt id='1537'> +1.3523461e+00 </wgt>
<wgt id='1538'> +1.3451370e+00 </wgt>
<wgt id='1539'> +1.3641095e+00 </wgt>
<wgt id='1540'> +1.3499819e+00 </wgt>
<wgt id='1541'> +1.3501277e+00 </wgt>
<wgt id='1542'> +1.3534798e+00 </wgt>
<wgt id='1543'> +1.3444924e+00 </wgt>
<wgt id='1544'> +1.3460200e+00 </wgt>
<wgt id='1545'> +1.3588944e+00 </wgt>
<wgt id='1546'> +1.3504064e+00 </wgt>
<wgt id='1547'> +1.3499323e+00 </wgt>
<wgt id='1548'> +1.3457358e+00 </wgt>
<wgt id='1549'> +1.3511190e+00 </wgt>
<wgt id='1550'> +1.3505788e+00 </wgt>
<wgt id='1551'> +1.3502769e+00 </wgt>
<wgt id='1552'> +1.3463879e+00 </wgt>
<wgt id='1553'> +1.3536135e+00 </wgt>
<wgt id='1554'> +1.3555975e+00 </wgt>
<wgt id='1555'> +1.3422419e+00 </wgt>
<wgt id='1556'> +1.3519398e+00 </wgt>
<wgt id='1557'> +1.3463097e+00 </wgt>
<wgt id='1558'> +1.3409423e+00 </wgt>
<wgt id='1559'> +1.3594940e+00 </wgt>
<wgt id='1560'> +1.3610428e+00 </wgt>
<wgt id='1561'> +1.3462097e+00 </wgt>
<wgt id='1562'> +1.3442482e+00 </wgt>
<wgt id='1563'> +1.3559329e+00 </wgt>
<wgt id='1564'> +1.3507513e+00 </wgt>
<wgt id='1565'> +1.3380573e+00 </wgt>
<wgt id='1566'> +1.3593619e+00 </wgt>
<wgt id='1567'> +1.3481843e+00 </wgt>
<wgt id='1568'> +1.3612415e+00 </wgt>
<wgt id='1569'> +1.3591022e+00 </wgt>
<wgt id='1570'> +1.3564403e+00 </wgt>
<wgt id='1571'> +1.3535812e+00 </wgt>
<wgt id='1572'> +1.3511225e+00 </wgt>
<wgt id='1573'> +1.3444825e+00 </wgt>
<wgt id='1574'> +1.3404661e+00 </wgt>
<wgt id='1575'> +1.3371344e+00 </wgt>
<wgt id='1576'> +1.3481843e+00 </wgt>
<wgt id='1577'> +1.3484609e+00 </wgt>
<wgt id='1578'> +1.3481971e+00 </wgt>
<wgt id='1579'> +1.3481323e+00 </wgt>
<wgt id='1580'> +1.3481716e+00 </wgt>
<wgt id='1581'> +1.3522592e+00 </wgt>
<wgt id='1582'> +1.3538877e+00 </wgt>
<wgt id='1583'> +1.3556080e+00 </wgt>
<wgt id='1584'> +1.3480630e+00 </wgt>
<wgt id='1585'> +1.3555037e+00 </wgt>
<wgt id='1586'> +1.3350590e+00 </wgt>
<wgt id='1587'> +1.3471162e+00 </wgt>
<wgt id='1588'> +1.3601975e+00 </wgt>
<wgt id='1589'> +1.3516843e+00 </wgt>
<wgt id='1590'> +1.3616933e+00 </wgt>
<wgt id='1591'> +1.3494015e+00 </wgt>
<wgt id='1592'> +1.3337071e+00 </wgt>
<wgt id='1593'> +1.3550997e+00 </wgt>
<wgt id='1594'> +1.3436215e+00 </wgt>
<wgt id='1595'> +1.3512333e+00 </wgt>
<wgt id='1596'> +1.3611958e+00 </wgt>
<wgt id='1597'> +1.3575909e+00 </wgt>
<wgt id='1598'> +1.3515424e+00 </wgt>
<wgt id='1599'> +1.3516005e+00 </wgt>
<wgt id='1600'> +1.3571908e+00 </wgt>
<wgt id='1601'> +1.3477772e+00 </wgt>
<wgt id='1602'> +1.3555878e+00 </wgt>
<wgt id='1603'> +1.3535187e+00 </wgt>
<wgt id='1604'> +1.3506746e+00 </wgt>
<wgt id='1605'> +1.3512929e+00 </wgt>
<wgt id='1606'> +1.3538297e+00 </wgt>
<wgt id='1607'> +1.3537098e+00 </wgt>
<wgt id='1608'> +1.3499734e+00 </wgt>
<wgt id='1609'> +1.3539143e+00 </wgt>
<wgt id='1610'> +1.3517651e+00 </wgt>
<wgt id='1611'> +1.3627505e+00 </wgt>
<wgt id='1612'> +1.3549412e+00 </wgt>
<wgt id='1613'> +1.3552494e+00 </wgt>
<wgt id='1614'> +1.3550968e+00 </wgt>
<wgt id='1615'> +1.3543768e+00 </wgt>
<wgt id='1616'> +1.3564354e+00 </wgt>
<wgt id='1617'> +1.3561331e+00 </wgt>
<wgt id='1618'> +1.3561645e+00 </wgt>
<wgt id='1619'> +1.3559418e+00 </wgt>
<wgt id='1620'> +1.3554207e+00 </wgt>
<wgt id='1621'> +1.3556403e+00 </wgt>
<wgt id='1622'> +1.3555239e+00 </wgt>
<wgt id='1623'> +1.3508672e+00 </wgt>
<wgt id='1624'> +1.3505311e+00 </wgt>
<wgt id='1625'> +1.3491587e+00 </wgt>
<wgt id='1626'> +1.3539619e+00 </wgt>
<wgt id='1627'> +1.3510522e+00 </wgt>
<wgt id='1628'> +1.3568323e+00 </wgt>
<wgt id='1629'> +1.3548854e+00 </wgt>
<wgt id='1630'> +1.3500889e+00 </wgt>
<wgt id='1631'> +1.3563928e+00 </wgt>
<wgt id='1632'> +1.3504379e+00 </wgt>
<wgt id='1633'> +1.3585704e+00 </wgt>
<wgt id='1634'> +1.3517410e+00 </wgt>
<wgt id='1635'> +1.3506478e+00 </wgt>
<wgt id='1636'> +1.3518997e+00 </wgt>
<wgt id='1637'> +1.3512412e+00 </wgt>
<wgt id='1638'> +1.3513340e+00 </wgt>
<wgt id='1639'> +1.3564344e+00 </wgt>
<wgt id='1640'> +1.3564098e+00 </wgt>
<wgt id='1641'> +1.3519803e+00 </wgt>
<wgt id='1642'> +1.3543768e+00 </wgt>
<wgt id='1643'> +1.3547291e+00 </wgt>
<wgt id='1644'> +1.3533991e+00 </wgt>
<wgt id='1645'> +1.3540132e+00 </wgt>
<wgt id='1646'> +1.3590476e+00 </wgt>
<wgt id='1647'> +1.3522245e+00 </wgt>
<wgt id='1648'> +1.3518188e+00 </wgt>
<wgt id='1649'> +1.3584359e+00 </wgt>
<wgt id='1650'> +1.3527183e+00 </wgt>
<wgt id='1651'> +1.3529788e+00 </wgt>
<wgt id='1652'> +1.3518371e+00 </wgt>
<wgt id='1653'> +1.3526102e+00 </wgt>
<wgt id='1654'> +1.3534465e+00 </wgt>
<wgt id='1655'> +1.3568893e+00 </wgt>
<wgt id='1656'> +1.3569557e+00 </wgt>
<wgt id='1657'> +1.3526637e+00 </wgt>
<wgt id='1658'> +1.3598880e+00 </wgt>
<wgt id='1659'> +1.3606852e+00 </wgt>
<wgt id='1660'> +1.3536302e+00 </wgt>
<wgt id='1661'> +1.3543451e+00 </wgt>
<wgt id='1662'> +1.3548009e+00 </wgt>
<wgt id='1663'> +1.3560823e+00 </wgt>
<wgt id='1664'> +1.3540472e+00 </wgt>
<wgt id='1665'> +1.3548534e+00 </wgt>
<wgt id='1666'> +1.3558838e+00 </wgt>
<wgt id='1667'> +1.3542504e+00 </wgt>
<wgt id='1668'> +1.3550512e+00 </wgt>
<wgt id='1669'> +1.3547409e+00 </wgt>
<wgt id='1670'> +1.3547429e+00 </wgt>
<wgt id='1671'> +1.3541240e+00 </wgt>
<wgt id='1672'> +1.3581154e+00 </wgt>
<wgt id='1673'> +1.3556620e+00 </wgt>
<wgt id='1674'> +1.3565605e+00 </wgt>
<wgt id='1675'> +1.3548274e+00 </wgt>
<wgt id='1676'> +1.3544589e+00 </wgt>
<wgt id='1677'> +1.3560991e+00 </wgt>
<wgt id='1678'> +1.3539780e+00 </wgt>
<wgt id='1679'> +1.3556542e+00 </wgt>
<wgt id='1680'> +1.3566333e+00 </wgt>
<wgt id='1681'> +1.3560260e+00 </wgt>
<wgt id='1682'> +1.3537289e+00 </wgt>
<wgt id='1683'> +1.3533720e+00 </wgt>
<wgt id='1684'> +1.3553593e+00 </wgt>
<wgt id='1685'> +1.3559127e+00 </wgt>
<wgt id='1686'> +1.3532594e+00 </wgt>
<wgt id='1687'> +1.3549850e+00 </wgt>
<wgt id='1688'> +1.3550547e+00 </wgt>
<wgt id='1689'> +1.3546357e+00 </wgt>
<wgt id='1690'> +1.3552745e+00 </wgt>
<wgt id='1691'> +1.3540695e+00 </wgt>
<wgt id='1692'> +1.3560042e+00 </wgt>
<wgt id='1693'> +1.3550664e+00 </wgt>
<wgt id='1694'> +1.3552554e+00 </wgt>
<wgt id='1695'> +1.3545420e+00 </wgt>
<wgt id='1696'> +1.3558435e+00 </wgt>
<wgt id='1697'> +1.3541398e+00 </wgt>
<wgt id='1698'> +1.3548005e+00 </wgt>
<wgt id='1699'> +1.3539761e+00 </wgt>
<wgt id='1700'> +1.3550731e+00 </wgt>
<wgt id='1701'> +1.3553743e+00 </wgt>
<wgt id='1702'> +1.3558067e+00 </wgt>
<wgt id='1703'> +1.3535843e+00 </wgt>
<wgt id='1704'> +1.3553792e+00 </wgt>
<wgt id='1705'> +1.3547949e+00 </wgt>
<wgt id='1706'> +1.3557961e+00 </wgt>
<wgt id='1707'> +1.3551868e+00 </wgt>
<wgt id='1708'> +1.3554254e+00 </wgt>
<wgt id='1709'> +1.3552535e+00 </wgt>
<wgt id='1710'> +1.3547550e+00 </wgt>
<wgt id='1711'> +1.3559038e+00 </wgt>
<wgt id='1712'> +1.3551370e+00 </wgt>
<wgt id='1713'> +1.3301339e+00 </wgt>
<wgt id='1714'> +1.3805493e+00 </wgt>
<wgt id='1715'> +1.3436187e+00 </wgt>
<wgt id='1716'> +1.3344342e+00 </wgt>
<wgt id='1717'> +1.3834320e+00 </wgt>
<wgt id='1718'> +1.3464448e+00 </wgt>
<wgt id='1719'> +1.3214005e+00 </wgt>
<wgt id='1720'> +1.3803319e+00 </wgt>
<wgt id='1721'> +1.3591064e+00 </wgt>
<wgt id='1722'> +1.3478371e+00 </wgt>
<wgt id='1723'> +1.3596773e+00 </wgt>
<wgt id='1724'> +1.3229378e+00 </wgt>
<wgt id='1725'> +1.3409359e+00 </wgt>
<wgt id='1726'> +1.3193614e+00 </wgt>
<wgt id='1727'> +1.3530759e+00 </wgt>
<wgt id='1728'> +1.3454014e+00 </wgt>
<wgt id='1729'> +1.3471847e+00 </wgt>
<wgt id='1730'> +1.3220124e+00 </wgt>
<wgt id='1731'> +1.2859373e+00 </wgt>
<wgt id='1732'> +1.3127613e+00 </wgt>
<wgt id='1733'> +1.3392022e+00 </wgt>
<wgt id='1734'> +1.3794626e+00 </wgt>
<wgt id='1735'> +1.2962725e+00 </wgt>
<wgt id='1736'> +1.3665586e+00 </wgt>
<wgt id='1737'> +1.3388093e+00 </wgt>
<wgt id='1738'> +1.3725389e+00 </wgt>
<wgt id='1739'> +1.3698362e+00 </wgt>
<wgt id='1740'> +1.3713958e+00 </wgt>
<wgt id='1741'> +1.3223036e+00 </wgt>
<wgt id='1742'> +1.3369105e+00 </wgt>
<wgt id='1743'> +1.3248925e+00 </wgt>
<wgt id='1744'> +1.3565350e+00 </wgt>
<wgt id='1745'> +1.3323939e+00 </wgt>
<wgt id='1746'> +1.3454564e+00 </wgt>
<wgt id='1747'> +1.3636282e+00 </wgt>
<wgt id='1748'> +1.3139249e+00 </wgt>
<wgt id='1749'> +1.3496543e+00 </wgt>
<wgt id='1750'> +1.3215678e+00 </wgt>
<wgt id='1751'> +1.3368901e+00 </wgt>
<wgt id='1752'> +1.3491192e+00 </wgt>
<wgt id='1753'> +1.3419660e+00 </wgt>
<wgt id='1754'> +1.3243018e+00 </wgt>
<wgt id='1755'> +1.3426829e+00 </wgt>
<wgt id='1756'> +1.3854138e+00 </wgt>
<wgt id='1757'> +1.3204986e+00 </wgt>
<wgt id='1758'> +1.3604948e+00 </wgt>
<wgt id='1759'> +1.3591911e+00 </wgt>
<wgt id='1760'> +1.3255300e+00 </wgt>
<wgt id='1761'> +1.3245196e+00 </wgt>
<wgt id='1762'> +1.3530759e+00 </wgt>
<wgt id='1763'> +1.3615560e+00 </wgt>
<wgt id='1764'> +1.3714426e+00 </wgt>
<wgt id='1765'> +1.3760875e+00 </wgt>
<wgt id='1766'> +1.3435610e+00 </wgt>
<wgt id='1767'> +1.3110471e+00 </wgt>
<wgt id='1768'> +1.2988243e+00 </wgt>
<wgt id='1769'> +1.3750247e+00 </wgt>
<wgt id='1770'> +1.2976199e+00 </wgt>
<wgt id='1771'> +1.3301665e+00 </wgt>
<wgt id='1772'> +1.3241461e+00 </wgt>
<wgt id='1773'> +1.3518080e+00 </wgt>
<wgt id='1774'> +1.3277932e+00 </wgt>
<wgt id='1775'> +1.3514406e+00 </wgt>
<wgt id='1776'> +1.3615365e+00 </wgt>
<wgt id='1777'> +1.3330040e+00 </wgt>
<wgt id='1778'> +1.3395097e+00 </wgt>
<wgt id='1779'> +1.3386524e+00 </wgt>
<wgt id='1780'> +1.3909199e+00 </wgt>
<wgt id='1781'> +1.3568366e+00 </wgt>
<wgt id='1782'> +1.2960488e+00 </wgt>
<wgt id='1783'> +1.3485938e+00 </wgt>
<wgt id='1784'> +1.3256479e+00 </wgt>
<wgt id='1785'> +1.3468871e+00 </wgt>
<wgt id='1786'> +1.3292652e+00 </wgt>
<wgt id='1787'> +1.3619259e+00 </wgt>
<wgt id='1788'> +1.3465280e+00 </wgt>
<wgt id='1789'> +1.3473225e+00 </wgt>
<wgt id='1790'> +1.3527790e+00 </wgt>
<wgt id='1791'> +1.3497541e+00 </wgt>
<wgt id='1792'> +1.3631523e+00 </wgt>
<wgt id='1793'> +1.3374326e+00 </wgt>
<wgt id='1794'> +1.3082667e+00 </wgt>
<wgt id='1795'> +1.3539306e+00 </wgt>
<wgt id='1796'> +1.3509461e+00 </wgt>
<wgt id='1797'> +1.3795624e+00 </wgt>
<wgt id='1798'> +1.3298909e+00 </wgt>
<wgt id='1799'> +1.3348157e+00 </wgt>
<wgt id='1800'> +1.3473977e+00 </wgt>
<wgt id='1801'> +1.3422522e+00 </wgt>
<wgt id='1802'> +1.3473239e+00 </wgt>
<wgt id='1803'> +1.3481599e+00 </wgt>
<wgt id='1804'> +1.3704310e+00 </wgt>
<wgt id='1805'> +1.3455194e+00 </wgt>
<wgt id='1806'> +1.3549220e+00 </wgt>
<wgt id='1807'> +1.3517046e+00 </wgt>
<wgt id='1808'> +1.3016567e+00 </wgt>
<wgt id='1809'> +1.3603009e+00 </wgt>
<wgt id='1810'> +1.3362322e+00 </wgt>
<wgt id='1811'> +1.3506384e+00 </wgt>
<wgt id='1812'> +1.3298826e+00 </wgt>
<wgt id='1813'> +1.3582245e+00 </wgt>
<wgt id='1814'> +1.3268406e+00 </wgt>
<wgt id='1815'> +1.3653236e+00 </wgt>
<wgt id='1816'> +1.3773082e+00 </wgt>
<wgt id='1817'> +1.4158617e+00 </wgt>
<wgt id='1818'> +1.3927527e+00 </wgt>
<wgt id='1819'> +1.4213591e+00 </wgt>
<wgt id='1820'> +1.3618715e+00 </wgt>
<wgt id='1821'> +1.4403920e+00 </wgt>
<wgt id='1822'> +1.3858568e+00 </wgt>
<wgt id='1823'> +1.3660775e+00 </wgt>
<wgt id='1824'> +1.3575935e+00 </wgt>
<wgt id='1825'> +1.3799902e+00 </wgt>
<wgt id='1826'> +1.4024652e+00 </wgt>
<wgt id='1827'> +1.3501344e+00 </wgt>
<wgt id='1828'> +1.3878508e+00 </wgt>
<wgt id='1829'> +1.3590629e+00 </wgt>
<wgt id='1830'> +1.3866746e+00 </wgt>
<wgt id='1831'> +1.3938620e+00 </wgt>
<wgt id='1832'> +1.3792241e+00 </wgt>
<wgt id='1833'> +1.3865762e+00 </wgt>
<wgt id='1834'> +1.3746442e+00 </wgt>
<wgt id='1835'> +1.3656065e+00 </wgt>
<wgt id='1836'> +1.3900327e+00 </wgt>
<wgt id='1837'> +1.3853728e+00 </wgt>
<wgt id='1838'> +1.3664836e+00 </wgt>
<wgt id='1839'> +1.3969992e+00 </wgt>
<wgt id='1840'> +1.3755775e+00 </wgt>
<wgt id='1841'> +1.3652369e+00 </wgt>
<wgt id='1842'> +1.3771062e+00 </wgt>
<wgt id='1843'> +1.3673620e+00 </wgt>
<wgt id='1844'> +1.3757348e+00 </wgt>
<wgt id='1845'> +1.3997159e+00 </wgt>
<wgt id='1846'> +1.3946079e+00 </wgt>
<wgt id='1847'> +1.3593996e+00 </wgt>
<wgt id='1848'> +1.3644748e+00 </wgt>
<wgt id='1849'> +1.3460963e+00 </wgt>
<wgt id='1850'> +1.3867695e+00 </wgt>
<wgt id='1851'> +1.3729828e+00 </wgt>
<wgt id='1852'> +1.3646757e+00 </wgt>
<wgt id='1853'> +1.3633409e+00 </wgt>
<wgt id='1854'> +1.3734515e+00 </wgt>
<wgt id='1855'> +1.3826397e+00 </wgt>
<wgt id='1856'> +1.3535077e+00 </wgt>
<wgt id='1857'> +1.3922822e+00 </wgt>
<wgt id='1858'> +1.3827454e+00 </wgt>
<wgt id='1859'> +1.3628041e+00 </wgt>
<wgt id='1860'> +1.3889448e+00 </wgt>
<wgt id='1861'> +1.3871905e+00 </wgt>
<wgt id='1862'> +1.3981373e+00 </wgt>
<wgt id='1863'> +1.3728585e+00 </wgt>
<wgt id='1864'> +1.3811942e+00 </wgt>
<wgt id='1865'> +1.3802655e+00 </wgt>
<wgt id='1866'> +1.3771768e+00 </wgt>
<wgt id='1867'> +1.3785457e+00 </wgt>
<wgt id='1868'> +1.3882643e+00 </wgt>
<wgt id='1869'> +1.4057379e+00 </wgt>
<wgt id='1870'> +1.3514308e+00 </wgt>
<wgt id='1871'> +1.3660119e+00 </wgt>
<wgt id='1872'> +1.3920060e+00 </wgt>
<wgt id='1873'> +1.3700136e+00 </wgt>
<wgt id='1874'> +1.3835577e+00 </wgt>
<wgt id='1875'> +1.3938742e+00 </wgt>
<wgt id='1876'> +1.3781598e+00 </wgt>
<wgt id='1877'> +1.3724709e+00 </wgt>
<wgt id='1878'> +1.3986560e+00 </wgt>
<wgt id='1879'> +1.3639962e+00 </wgt>
<wgt id='1880'> +1.3524090e+00 </wgt>
<wgt id='1881'> +1.3394229e+00 </wgt>
<wgt id='1882'> +1.3597302e+00 </wgt>
<wgt id='1883'> +1.4153331e+00 </wgt>
<wgt id='1884'> +1.3709014e+00 </wgt>
<wgt id='1885'> +1.3519174e+00 </wgt>
<wgt id='1886'> +1.3350930e+00 </wgt>
<wgt id='1887'> +1.3739301e+00 </wgt>
<wgt id='1888'> +1.3899613e+00 </wgt>
<wgt id='1889'> +1.4005199e+00 </wgt>
<wgt id='1890'> +1.4118586e+00 </wgt>
<wgt id='1891'> +1.3831002e+00 </wgt>
<wgt id='1892'> +1.3857257e+00 </wgt>
<wgt id='1893'> +1.3549945e+00 </wgt>
<wgt id='1894'> +1.3703972e+00 </wgt>
<wgt id='1895'> +1.3780742e+00 </wgt>
<wgt id='1896'> +1.3525403e+00 </wgt>
<wgt id='1897'> +1.3743077e+00 </wgt>
<wgt id='1898'> +1.3752110e+00 </wgt>
<wgt id='1899'> +1.3798708e+00 </wgt>
<wgt id='1900'> +1.3752749e+00 </wgt>
<wgt id='1901'> +1.3855892e+00 </wgt>
<wgt id='1902'> +1.3594793e+00 </wgt>
<wgt id='1903'> +1.3967214e+00 </wgt>
<wgt id='1904'> +1.3906617e+00 </wgt>
<wgt id='1905'> +1.3753232e+00 </wgt>
<wgt id='1906'> +1.3597992e+00 </wgt>
<wgt id='1907'> +1.3640012e+00 </wgt>
<wgt id='1908'> +1.3527228e+00 </wgt>
<wgt id='1909'> +1.3778064e+00 </wgt>
<wgt id='1910'> +1.4035566e+00 </wgt>
<wgt id='1911'> +1.3633010e+00 </wgt>
<wgt id='1912'> +1.3577628e+00 </wgt>
<wgt id='1913'> +1.3697977e+00 </wgt>
<wgt id='1914'> +1.3684236e+00 </wgt>
<wgt id='1915'> +1.3713810e+00 </wgt>
<wgt id='1916'> +1.3570740e+00 </wgt>
<wgt id='1917'> +1.3431877e+00 </wgt>
<wgt id='1918'> +1.3651466e+00 </wgt>
<wgt id='1919'> +1.3773082e+00 </wgt>
<wgt id='1920'> +1.4158617e+00 </wgt>
<wgt id='1921'> +1.3927527e+00 </wgt>
<wgt id='1922'> +1.4213591e+00 </wgt>
<wgt id='1923'> +1.3618715e+00 </wgt>
<wgt id='1924'> +1.4403920e+00 </wgt>
<wgt id='1925'> +1.3858568e+00 </wgt>
<wgt id='1926'> +1.3660775e+00 </wgt>
<wgt id='1927'> +1.3575935e+00 </wgt>
<wgt id='1928'> +1.3799902e+00 </wgt>
<wgt id='1929'> +1.4024652e+00 </wgt>
<wgt id='1930'> +1.3501344e+00 </wgt>
<wgt id='1931'> +1.3878508e+00 </wgt>
<wgt id='1932'> +1.3590629e+00 </wgt>
<wgt id='1933'> +1.3866746e+00 </wgt>
<wgt id='1934'> +1.3938620e+00 </wgt>
<wgt id='1935'> +1.3792241e+00 </wgt>
<wgt id='1936'> +1.3865762e+00 </wgt>
<wgt id='1937'> +1.3746442e+00 </wgt>
<wgt id='1938'> +1.3656065e+00 </wgt>
<wgt id='1939'> +1.3900327e+00 </wgt>
<wgt id='1940'> +1.3853728e+00 </wgt>
<wgt id='1941'> +1.3664836e+00 </wgt>
<wgt id='1942'> +1.3969992e+00 </wgt>
<wgt id='1943'> +1.3755775e+00 </wgt>
<wgt id='1944'> +1.3652369e+00 </wgt>
<wgt id='1945'> +1.3771062e+00 </wgt>
<wgt id='1946'> +1.3673620e+00 </wgt>
<wgt id='1947'> +1.3757348e+00 </wgt>
<wgt id='1948'> +1.3997159e+00 </wgt>
<wgt id='1949'> +1.3946079e+00 </wgt>
<wgt id='1950'> +1.3593996e+00 </wgt>
<wgt id='1951'> +1.3644748e+00 </wgt>
<wgt id='1952'> +1.3460963e+00 </wgt>
<wgt id='1953'> +1.3867695e+00 </wgt>
<wgt id='1954'> +1.3729828e+00 </wgt>
<wgt id='1955'> +1.3646757e+00 </wgt>
<wgt id='1956'> +1.3633409e+00 </wgt>
<wgt id='1957'> +1.3734515e+00 </wgt>
<wgt id='1958'> +1.3826397e+00 </wgt>
<wgt id='1959'> +1.3535077e+00 </wgt>
<wgt id='1960'> +1.3922822e+00 </wgt>
<wgt id='1961'> +1.3827454e+00 </wgt>
<wgt id='1962'> +1.3628041e+00 </wgt>
<wgt id='1963'> +1.3889448e+00 </wgt>
<wgt id='1964'> +1.3871905e+00 </wgt>
<wgt id='1965'> +1.3981373e+00 </wgt>
<wgt id='1966'> +1.3728585e+00 </wgt>
<wgt id='1967'> +1.3811942e+00 </wgt>
<wgt id='1968'> +1.3802655e+00 </wgt>
<wgt id='1969'> +1.3771768e+00 </wgt>
<wgt id='1970'> +1.3785457e+00 </wgt>
<wgt id='1971'> +1.3882643e+00 </wgt>
<wgt id='1972'> +1.4057379e+00 </wgt>
<wgt id='1973'> +1.3514308e+00 </wgt>
<wgt id='1974'> +1.3660119e+00 </wgt>
<wgt id='1975'> +1.3920060e+00 </wgt>
<wgt id='1976'> +1.3700136e+00 </wgt>
<wgt id='1977'> +1.3835577e+00 </wgt>
<wgt id='1978'> +1.3938742e+00 </wgt>
<wgt id='1979'> +1.3781598e+00 </wgt>
<wgt id='1980'> +1.3724709e+00 </wgt>
<wgt id='1981'> +1.3986560e+00 </wgt>
<wgt id='1982'> +1.3639962e+00 </wgt>
<wgt id='1983'> +1.3524090e+00 </wgt>
<wgt id='1984'> +1.3394229e+00 </wgt>
<wgt id='1985'> +1.3597302e+00 </wgt>
<wgt id='1986'> +1.4153331e+00 </wgt>
<wgt id='1987'> +1.3709014e+00 </wgt>
<wgt id='1988'> +1.3519174e+00 </wgt>
<wgt id='1989'> +1.3350930e+00 </wgt>
<wgt id='1990'> +1.3739301e+00 </wgt>
<wgt id='1991'> +1.3899613e+00 </wgt>
<wgt id='1992'> +1.4005199e+00 </wgt>
<wgt id='1993'> +1.4118586e+00 </wgt>
<wgt id='1994'> +1.3831002e+00 </wgt>
<wgt id='1995'> +1.3857257e+00 </wgt>
<wgt id='1996'> +1.3549945e+00 </wgt>
<wgt id='1997'> +1.3703972e+00 </wgt>
<wgt id='1998'> +1.3780742e+00 </wgt>
<wgt id='1999'> +1.3525403e+00 </wgt>
<wgt id='2000'> +1.3743077e+00 </wgt>
<wgt id='2001'> +1.3752110e+00 </wgt>
<wgt id='2002'> +1.3798708e+00 </wgt>
<wgt id='2003'> +1.3752749e+00 </wgt>
<wgt id='2004'> +1.3855892e+00 </wgt>
<wgt id='2005'> +1.3594793e+00 </wgt>
<wgt id='2006'> +1.3967214e+00 </wgt>
<wgt id='2007'> +1.3906617e+00 </wgt>
<wgt id='2008'> +1.3753232e+00 </wgt>
<wgt id='2009'> +1.3597992e+00 </wgt>
<wgt id='2010'> +1.3640012e+00 </wgt>
<wgt id='2011'> +1.3527228e+00 </wgt>
<wgt id='2012'> +1.3778064e+00 </wgt>
<wgt id='2013'> +1.4035566e+00 </wgt>
<wgt id='2014'> +1.3633010e+00 </wgt>
<wgt id='2015'> +1.3577628e+00 </wgt>
<wgt id='2016'> +1.3697977e+00 </wgt>
<wgt id='2017'> +1.3684236e+00 </wgt>
<wgt id='2018'> +1.3713810e+00 </wgt>
<wgt id='2019'> +1.3570740e+00 </wgt>
<wgt id='2020'> +1.3690485e+00 </wgt>
<wgt id='2021'> +1.3831862e+00 </wgt>
<wgt id='2022'> +1.3598279e+00 </wgt>
</rwgt>
</event>
<event>
 13 1 0.0079112 1.17184500e+02 7.81860800e-03 1.26748300e-01
        2 -1    0    0  501    0 +0.0000000000e+00 +0.0000000000e+00 +7.9114545360e+02 7.9114545361e+02 2.5500000000e-03 0.0000e+00 -1.0000e+00
       21 -1    0    0  502  503 +0.0000000000e+00 +0.0000000000e+00 -2.7370897977e+02 2.7370897977e+02 0.0000000000e+00 0.0000e+00 -1.0000e+00
  8000001  2    1    2  502    0 -1.5704856491e+00 +4.8544863775e+00 +2.5080943857e+02 6.5033344557e+02 6.0000181957e+02 0.0000e+00 0.0000e+00
        1  1    1    2  501    0 -4.5196641188e-01 +1.7512394546e+01 +3.3856318950e+02 3.3901610809e+02 5.0400000000e-03 0.0000e+00 -1.0000e+00
       -5  1    1    2    0  503 +2.0224520610e+00 -2.2366880924e+01 -7.1936154235e+01 7.5504879720e+01 4.6700000000e+00 0.0000e+00 1.0000e+00
        6  2    3    3  502    0 -2.3139037039e+02 +1.1030281310e+02 +2.9295501884e+01 3.0073310622e+02 1.5451200814e+02 0.0000e+00 0.0000e+00
        5  1    6    6  502    0 -1.8206700837e+02 +6.7999780723e+01 +2.7134384001e+01 1.9629174565e+02 4.6700000000e+00 0.0000e+00 -1.0000e+00
       24  2    6    6    0    0 -4.9323362018e+01 +4.2303032378e+01 +2.1611178831e+00 1.0444136056e+02 8.1737303461e+01 0.0000e+00 0.0000e+00
       12  1    8    8    0    0 +4.1572914158e+00 -6.2783689587e+00 -2.5869148727e+01 2.6942788359e+01 0.0000000000e+00 0.0000e+00 -1.0000e+00
      -11  1    8    8    0    0 -5.3480653434e+01 +4.8581401337e+01 +2.8030266610e+01 7.7498572206e+01 5.1100000000e-04 0.0000e+00 1.0000e+00
       23  2    3    3    0    0 +2.2981988474e+02 -1.0544832672e+02 +2.2151393668e+02 3.4960033935e+02 9.5997104632e+01 0.0000e+00 0.0000e+00
        4  1   11   11  504    0 +5.2489649032e+01 -1.7440489238e+01 +1.0811958072e+02 1.2145283264e+02 1.2700000000e+00 0.0000e+00 -1.0000e+00
       -4  1   11   11    0  504 +1.7733023571e+02 -8.8007837486e+01 +1.1339435596e+02 2.2814750671e+02 1.2700000000e+00 0.0000e+00 1.0000e+00
<mgrwt>
<rscale>  1 0.45308551e+02</rscale>
<asrwt>0</asrwt>
<pdfrwt beam="1">  1       21 0.42109074e-01 0.11718451e+03</pdfrwt>
<pdfrwt beam="2">  1        2 0.12171468e+00 0.17518226e+02</pdfrwt>
<totfact> 0.32157588e+03</totfact>
</mgrwt>
<rwgt>
<wgt id='1001'> +1.3581722e+00 </wgt>
<wgt id='1002'> +7.7826388e-01 </wgt>
<wgt id='1003'> +7.7814350e-01 </wgt>
<wgt id='1004'> +8.9465447e-01 </wgt>
<wgt id='1005'> +7.0849794e-01 </wgt>
<wgt id='1006'> +1.2084128e+00 </wgt>
<wgt id='1007'> +7.1798146e-01 </wgt>
<wgt id='1008'> +7.1787601e-01 </wgt>
<wgt id='1009'> +8.1925611e-01 </wgt>
<wgt id='1010'> +6.5661395e-01 </wgt>
<wgt id='1011'> +1.5521917e+00 </wgt>
<wgt id='1012'> +8.4989747e-01 </wgt>
<wgt id='1013'> +8.4975815e-01 </wgt>
<wgt id='1014'> +9.8581326e-01 </wgt>
<wgt id='1015'> +7.6951224e-01 </wgt>
<wgt id='1016'> +1.2859144e+00 </wgt>
<wgt id='1017'> +7.4030173e-01 </wgt>
<wgt id='1018'> +7.4018855e-01 </wgt>
<wgt id='1019'> +8.4975815e-01 </wgt>
<wgt id='1020'> +6.7456426e-01 </wgt>
<wgt id='1021'> +1.1441225e+00 </wgt>
<wgt id='1022'> +6.8295977e-01 </wgt>
<wgt id='1023'> +6.8286068e-01 </wgt>
<wgt id='1024'> +7.7814350e-01 </wgt>
<wgt id='1025'> +6.2516527e-01 </wgt>
<wgt id='1026'> +1.4696116e+00 </wgt>
<wgt id='1027'> +8.0844118e-01 </wgt>
<wgt id='1028'> +8.0831011e-01 </wgt>
<wgt id='1029'> +9.3634234e-01 </wgt>
<wgt id='1030'> +7.3265627e-01 </wgt>
<wgt id='1031'> +1.4331346e+00 </wgt>
<wgt id='1032'> +8.1938380e-01 </wgt>
<wgt id='1033'> +8.1925611e-01 </wgt>
<wgt id='1034'> +9.4228962e-01 </wgt>
<wgt id='1035'> +7.4514958e-01 </wgt>
<wgt id='1036'> +1.2751095e+00 </wgt>
<wgt id='1037'> +7.5591633e-01 </wgt>
<wgt id='1038'> +7.5580443e-01 </wgt>
<wgt id='1039'> +8.6287674e-01 </wgt>
<wgt id='1040'> +6.9058156e-01 </wgt>
<wgt id='1041'> +1.6378628e+00 </wgt>
<wgt id='1042'> +8.9480218e-01 </wgt>
<wgt id='1043'> +8.9465447e-01 </wgt>
<wgt id='1044'> +1.0383021e+00 </wgt>
<wgt id='1045'> +8.0932025e-01 </wgt>
<wgt id='1046'> +1.3581722e+00 </wgt>
<wgt id='1047'> +1.3581722e+00 </wgt>
<wgt id='1048'> +1.3581722e+00 </wgt>
<wgt id='1049'> +1.3605094e+00 </wgt>
<wgt id='1050'> +1.3556999e+00 </wgt>
<wgt id='1051'> +1.3578943e+00 </wgt>
<wgt id='1052'> +1.3582158e+00 </wgt>
<wgt id='1053'> +1.3634898e+00 </wgt>
<wgt id='1054'> +1.3570313e+00 </wgt>
<wgt id='1055'> +1.3595496e+00 </wgt>
<wgt id='1056'> +1.3597016e+00 </wgt>
<wgt id='1057'> +1.3600877e+00 </wgt>
<wgt id='1058'> +1.3571326e+00 </wgt>
<wgt id='1059'> +1.3559100e+00 </wgt>
<wgt id='1060'> +1.3565189e+00 </wgt>
<wgt id='1061'> +1.3585799e+00 </wgt>
<wgt id='1062'> +1.3625872e+00 </wgt>
<wgt id='1063'> +1.3598491e+00 </wgt>
<wgt id='1064'> +1.3589051e+00 </wgt>
<wgt id='1065'> +1.3599849e+00 </wgt>
<wgt id='1066'> +1.3555551e+00 </wgt>
<wgt id='1067'> +1.3621074e+00 </wgt>
<wgt id='1068'> +1.3532463e+00 </wgt>
<wgt id='1069'> +1.3567093e+00 </wgt>
<wgt id='1070'> +1.3591127e+00 </wgt>
<wgt id='1071'> +1.3570835e+00 </wgt>
<wgt id='1072'> +1.3598684e+00 </wgt>
<wgt id='1073'> +1.3583802e+00 </wgt>
<wgt id='1074'> +1.3563509e+00 </wgt>
<wgt id='1075'> +1.3551932e+00 </wgt>
<wgt id='1076'> +1.3608776e+00 </wgt>
<wgt id='1077'> +1.3616194e+00 </wgt>
<wgt id='1078'> +1.3576143e+00 </wgt>
<wgt id='1079'> +1.3636878e+00 </wgt>
<wgt id='1080'> +1.3577155e+00 </wgt>
<wgt id='1081'> +1.3602099e+00 </wgt>
<wgt id='1082'> +1.3603103e+00 </wgt>
<wgt id='1083'> +1.3574995e+00 </wgt>
<wgt id='1084'> +1.3561169e+00 </wgt>
<wgt id='1085'> +1.3607188e+00 </wgt>
<wgt id='1086'> +1.3572836e+00 </wgt>
<wgt id='1087'> +1.3580722e+00 </wgt>
<wgt id='1088'> +1.3614214e+00 </wgt>
<wgt id='1089'> +1.3635043e+00 </wgt>
<wgt id='1090'> +1.3602339e+00 </wgt>
<wgt id='1091'> +1.3577011e+00 </wgt>
<wgt id='1092'> +1.3568111e+00 </wgt>
<wgt id='1093'> +1.3577378e+00 </wgt>
<wgt id='1094'> +1.3570258e+00 </wgt>
<wgt id='1095'> +1.3564876e+00 </wgt>
<wgt id='1096'> +1.3542240e+00 </wgt>
<wgt id='1097'> +1.3593287e+00 </wgt>
<wgt id='1098'> +1.3557830e+00 </wgt>
<wgt id='1099'> +1.3577943e+00 </wgt>
<wgt id='1100'> +1.3601359e+00 </wgt>
<wgt id='1101'> +1.3590152e+00 </wgt>
<wgt id='1102'> +1.3596269e+00 </wgt>
<wgt id='1103'> +1.3591131e+00 </wgt>
<wgt id='1104'> +1.3589575e+00 </wgt>
<wgt id='1105'> +1.3603551e+00 </wgt>
<wgt id='1106'> +1.3586309e+00 </wgt>
<wgt id='1107'> +1.3598221e+00 </wgt>
<wgt id='1108'> +1.3575472e+00 </wgt>
<wgt id='1109'> +1.3586552e+00 </wgt>
<wgt id='1110'> +1.3581244e+00 </wgt>
<wgt id='1111'> +1.3571112e+00 </wgt>
<wgt id='1112'> +1.3569780e+00 </wgt>
<wgt id='1113'> +1.3591833e+00 </wgt>
<wgt id='1114'> +1.3582711e+00 </wgt>
<wgt id='1115'> +1.3583853e+00 </wgt>
<wgt id='1116'> +1.3577157e+00 </wgt>
<wgt id='1117'> +1.3587231e+00 </wgt>
<wgt id='1118'> +1.3575705e+00 </wgt>
<wgt id='1119'> +1.3578248e+00 </wgt>
<wgt id='1120'> +1.3591658e+00 </wgt>
<wgt id='1121'> +1.3565930e+00 </wgt>
<wgt id='1122'> +1.3584125e+00 </wgt>
<wgt id='1123'> +1.3573526e+00 </wgt>
<wgt id='1124'> +1.3587818e+00 </wgt>
<wgt id='1125'> +1.3600866e+00 </wgt>
<wgt id='1126'> +1.3588037e+00 </wgt>
<wgt id='1127'> +1.3580407e+00 </wgt>
<wgt id='1128'> +1.3587552e+00 </wgt>
<wgt id='1129'> +1.3569063e+00 </wgt>
<wgt id='1130'> +1.3579560e+00 </wgt>
<wgt id='1131'> +1.3580965e+00 </wgt>
<wgt id='1132'> +1.3587421e+00 </wgt>
<wgt id='1133'> +1.3583541e+00 </wgt>
<wgt id='1134'> +1.3578343e+00 </wgt>
<wgt id='1135'> +1.3572641e+00 </wgt>
<wgt id='1136'> +1.3572230e+00 </wgt>
<wgt id='1137'> +1.3579780e+00 </wgt>
<wgt id='1138'> +1.3585900e+00 </wgt>
<wgt id='1139'> +1.3583968e+00 </wgt>
<wgt id='1140'> +1.3588774e+00 </wgt>
<wgt id='1141'> +1.3584177e+00 </wgt>
<wgt id='1142'> +1.3579941e+00 </wgt>
<wgt id='1143'> +1.3590330e+00 </wgt>
<wgt id='1144'> +1.3580031e+00 </wgt>
<wgt id='1145'> +1.3583085e+00 </wgt>
<wgt id='1146'> +1.3583652e+00 </wgt>
<wgt id='1147'> +1.3585082e+00 </wgt>
<wgt id='1148'> +1.3581722e+00 </wgt>
<wgt id='1149'> +1.3723483e+00 </wgt>
<wgt id='1150'> +1.3822470e+00 </wgt>
<wgt id='1151'> +1.3902376e+00 </wgt>
<wgt id='1152'> +1.3888763e+00 </wgt>
<wgt id='1153'> +1.3444425e+00 </wgt>
<wgt id='1154'> +1.3542560e+00 </wgt>
<wgt id='1155'> +1.3877090e+00 </wgt>
<wgt id='1156'> +1.3971244e+00 </wgt>
<wgt id='1157'> +1.3775729e+00 </wgt>
<wgt id='1158'> +1.3775372e+00 </wgt>
<wgt id='1159'> +1.3317452e+00 </wgt>
<wgt id='1160'> +1.3769665e+00 </wgt>
<wgt id='1161'> +1.3749390e+00 </wgt>
<wgt id='1162'> +1.3600777e+00 </wgt>
<wgt id='1163'> +1.3927213e+00 </wgt>
<wgt id='1164'> +1.3742413e+00 </wgt>
<wgt id='1165'> +1.3744385e+00 </wgt>
<wgt id='1166'> +1.3782121e+00 </wgt>
<wgt id='1167'> +1.3744970e+00 </wgt>
<wgt id='1168'> +1.3723221e+00 </wgt>
<wgt id='1169'> +1.3544739e+00 </wgt>
<wgt id='1170'> +1.3610500e+00 </wgt>
<wgt id='1171'> +1.3585102e+00 </wgt>
<wgt id='1172'> +1.3790490e+00 </wgt>
<wgt id='1173'> +1.3528855e+00 </wgt>
<wgt id='1174'> +1.3894727e+00 </wgt>
<wgt id='1175'> +1.3968853e+00 </wgt>
<wgt id='1176'> +1.3131573e+00 </wgt>
<wgt id='1177'> +1.3980800e+00 </wgt>
<wgt id='1178'> +1.3817674e+00 </wgt>
<wgt id='1179'> +1.3918416e+00 </wgt>
<wgt id='1180'> +1.3847234e+00 </wgt>
<wgt id='1181'> +1.3793553e+00 </wgt>
<wgt id='1182'> +1.3765149e+00 </wgt>
<wgt id='1183'> +1.3581226e+00 </wgt>
<wgt id='1184'> +1.3543681e+00 </wgt>
<wgt id='1185'> +1.3919588e+00 </wgt>
<wgt id='1186'> +1.3768479e+00 </wgt>
<wgt id='1187'> +1.3639884e+00 </wgt>
<wgt id='1188'> +1.3865338e+00 </wgt>
<wgt id='1189'> +1.3779363e+00 </wgt>
<wgt id='1190'> +1.3797461e+00 </wgt>
<wgt id='1191'> +1.3741347e+00 </wgt>
<wgt id='1192'> +1.3531903e+00 </wgt>
<wgt id='1193'> +1.3687954e+00 </wgt>
<wgt id='1194'> +1.3841675e+00 </wgt>
<wgt id='1195'> +1.3717236e+00 </wgt>
<wgt id='1196'> +1.3774931e+00 </wgt>
<wgt id='1197'> +1.3748284e+00 </wgt>
<wgt id='1198'> +1.3951449e+00 </wgt>
<wgt id='1199'> +1.3629041e+00 </wgt>
<wgt id='1200'> +1.3760025e+00 </wgt>
<wgt id='1201'> +1.3730000e+00 </wgt>
<wgt id='1202'> +1.3719808e+00 </wgt>
<wgt id='1203'> +1.3730628e+00 </wgt>
<wgt id='1204'> +1.3880004e+00 </wgt>
<wgt id='1205'> +1.3651908e+00 </wgt>
<wgt id='1206'> +1.3758561e+00 </wgt>
<wgt id='1207'> +1.3813553e+00 </wgt>
<wgt id='1208'> +1.3923862e+00 </wgt>
<wgt id='1209'> +1.3974726e+00 </wgt>
<wgt id='1210'> +1.3551511e+00 </wgt>
<wgt id='1211'> +1.3659144e+00 </wgt>
<wgt id='1212'> +1.3431409e+00 </wgt>
<wgt id='1213'> +1.3870938e+00 </wgt>
<wgt id='1214'> +1.3785587e+00 </wgt>
<wgt id='1215'> +1.4173431e+00 </wgt>
<wgt id='1216'> +1.3670842e+00 </wgt>
<wgt id='1217'> +1.3813650e+00 </wgt>
<wgt id='1218'> +1.3850375e+00 </wgt>
<wgt id='1219'> +1.3485873e+00 </wgt>
<wgt id='1220'> +1.3746228e+00 </wgt>
<wgt id='1221'> +1.3691006e+00 </wgt>
<wgt id='1222'> +1.3573711e+00 </wgt>
<wgt id='1223'> +1.3616119e+00 </wgt>
<wgt id='1224'> +1.3783874e+00 </wgt>
<wgt id='1225'> +1.3977292e+00 </wgt>
<wgt id='1226'> +1.3362644e+00 </wgt>
<wgt id='1227'> +1.4011799e+00 </wgt>
<wgt id='1228'> +1.3680497e+00 </wgt>
<wgt id='1229'> +1.3590113e+00 </wgt>
<wgt id='1230'> +1.3417759e+00 </wgt>
<wgt id='1231'> +1.3744385e+00 </wgt>
<wgt id='1232'> +1.3283189e+00 </wgt>
<wgt id='1233'> +1.3641665e+00 </wgt>
<wgt id='1234'> +1.3903839e+00 </wgt>
<wgt id='1235'> +1.3663988e+00 </wgt>
<wgt id='1236'> +1.3764939e+00 </wgt>
<wgt id='1237'> +1.3479767e+00 </wgt>
<wgt id='1238'> +1.3272066e+00 </wgt>
<wgt id='1239'> +1.3813806e+00 </wgt>
<wgt id='1240'> +1.3842835e+00 </wgt>
<wgt id='1241'> +1.3773204e+00 </wgt>
<wgt id='1242'> +1.3619571e+00 </wgt>
<wgt id='1243'> +1.3683551e+00 </wgt>
<wgt id='1244'> +1.3588887e+00 </wgt>
<wgt id='1245'> +1.3830840e+00 </wgt>
<wgt id='1246'> +1.3519680e+00 </wgt>
<wgt id='1247'> +1.3870003e+00 </wgt>
<wgt id='1248'> +1.3795595e+00 </wgt>
<wgt id='1249'> +1.3725951e+00 </wgt>
<wgt id='1250'> +1.3169440e+00 </wgt>
<wgt id='1251'> +1.3084119e+00 </wgt>
<wgt id='1252'> +1.3432527e+00 </wgt>
<wgt id='1253'> +1.3275826e+00 </wgt>
<wgt id='1254'> +1.1324507e+00 </wgt>
<wgt id='1255'> +1.3300099e+00 </wgt>
<wgt id='1256'> +1.3343351e+00 </wgt>
<wgt id='1257'> +1.3274765e+00 </wgt>
<wgt id='1258'> +1.3265241e+00 </wgt>
<wgt id='1259'> +1.3317911e+00 </wgt>
<wgt id='1260'> +1.3314190e+00 </wgt>
<wgt id='1261'> +1.3281120e+00 </wgt>
<wgt id='1262'> +1.3312201e+00 </wgt>
<wgt id='1263'> +1.3292211e+00 </wgt>
<wgt id='1264'> +1.3298646e+00 </wgt>
<wgt id='1265'> +1.3301289e+00 </wgt>
<wgt id='1266'> +1.3309815e+00 </wgt>
<wgt id='1267'> +1.3290494e+00 </wgt>
<wgt id='1268'> +1.3411315e+00 </wgt>
<wgt id='1269'> +1.3188407e+00 </wgt>
<wgt id='1270'> +1.3266977e+00 </wgt>
<wgt id='1271'> +1.3321149e+00 </wgt>
<wgt id='1272'> +1.3296490e+00 </wgt>
<wgt id='1273'> +1.3301951e+00 </wgt>
<wgt id='1274'> +1.3298745e+00 </wgt>
<wgt id='1275'> +1.3304671e+00 </wgt>
<wgt id='1276'> +1.3275305e+00 </wgt>
<wgt id='1277'> +1.3326332e+00 </wgt>
<wgt id='1278'> +1.3228727e+00 </wgt>
<wgt id='1279'> +1.3354446e+00 </wgt>
<wgt id='1280'> +1.3263805e+00 </wgt>
<wgt id='1281'> +1.3393205e+00 </wgt>
<wgt id='1282'> +1.3383166e+00 </wgt>
<wgt id='1283'> +1.3198523e+00 </wgt>
<wgt id='1284'> +1.3287947e+00 </wgt>
<wgt id='1285'> +1.3298358e+00 </wgt>
<wgt id='1286'> +1.3281456e+00 </wgt>
<wgt id='1287'> +1.3300518e+00 </wgt>
<wgt id='1288'> +1.3302421e+00 </wgt>
<wgt id='1289'> +1.3297270e+00 </wgt>
<wgt id='1290'> +1.3319860e+00 </wgt>
<wgt id='1291'> +1.3293205e+00 </wgt>
<wgt id='1292'> +1.3352098e+00 </wgt>
<wgt id='1293'> +1.3219003e+00 </wgt>
<wgt id='1294'> +1.3229668e+00 </wgt>
<wgt id='1295'> +1.3303113e+00 </wgt>
<wgt id='1296'> +1.3461665e+00 </wgt>
<wgt id='1297'> +1.3495316e+00 </wgt>
<wgt id='1298'> +1.3434769e+00 </wgt>
<wgt id='1299'> +1.3456080e+00 </wgt>
<wgt id='1300'> +1.3468510e+00 </wgt>
<wgt id='1301'> +1.3435265e+00 </wgt>
<wgt id='1302'> +1.3501157e+00 </wgt>
<wgt id='1303'> +1.3429319e+00 </wgt>
<wgt id='1304'> +1.3483618e+00 </wgt>
<wgt id='1305'> +1.3468226e+00 </wgt>
<wgt id='1306'> +1.3452535e+00 </wgt>
<wgt id='1307'> +1.3497584e+00 </wgt>
<wgt id='1308'> +1.3438946e+00 </wgt>
<wgt id='1309'> +1.3469431e+00 </wgt>
<wgt id='1310'> +1.3451790e+00 </wgt>
<wgt id='1311'> +1.3563999e+00 </wgt>
<wgt id='1312'> +1.3424507e+00 </wgt>
<wgt id='1313'> +1.3467997e+00 </wgt>
<wgt id='1314'> +1.3448701e+00 </wgt>
<wgt id='1315'> +1.3465790e+00 </wgt>
<wgt id='1316'> +1.3457564e+00 </wgt>
<wgt id='1317'> +1.3422027e+00 </wgt>
<wgt id='1318'> +1.3537319e+00 </wgt>
<wgt id='1319'> +1.3506434e+00 </wgt>
<wgt id='1320'> +1.3440773e+00 </wgt>
<wgt id='1321'> +1.3416225e+00 </wgt>
<wgt id='1322'> +1.3483691e+00 </wgt>
<wgt id='1323'> +1.3441783e+00 </wgt>
<wgt id='1324'> +1.3480782e+00 </wgt>
<wgt id='1325'> +1.3463943e+00 </wgt>
<wgt id='1326'> +1.3453137e+00 </wgt>
<wgt id='1327'> +1.3484616e+00 </wgt>
<wgt id='1328'> +1.3453121e+00 </wgt>
<wgt id='1329'> +1.3477352e+00 </wgt>
<wgt id='1330'> +1.3453380e+00 </wgt>
<wgt id='1331'> +1.3403577e+00 </wgt>
<wgt id='1332'> +1.3492479e+00 </wgt>
<wgt id='1333'> +1.3551225e+00 </wgt>
<wgt id='1334'> +1.3350755e+00 </wgt>
<wgt id='1335'> +1.3474663e+00 </wgt>
<wgt id='1336'> +1.3458126e+00 </wgt>
<wgt id='1337'> +1.3461665e+00 </wgt>
<wgt id='1338'> +1.3447248e+00 </wgt>
<wgt id='1339'> +1.3453599e+00 </wgt>
<wgt id='1340'> +1.3458990e+00 </wgt>
<wgt id='1341'> +1.3467233e+00 </wgt>
<wgt id='1342'> +1.3470957e+00 </wgt>
<wgt id='1343'> +1.3473287e+00 </wgt>
<wgt id='1344'> +1.3323109e+00 </wgt>
<wgt id='1345'> +1.3366226e+00 </wgt>
<wgt id='1346'> +1.3280467e+00 </wgt>
<wgt id='1347'> +1.3350078e+00 </wgt>
<wgt id='1348'> +1.3302604e+00 </wgt>
<wgt id='1349'> +1.3284087e+00 </wgt>
<wgt id='1350'> +1.3356041e+00 </wgt>
<wgt id='1351'> +1.3322919e+00 </wgt>
<wgt id='1352'> +1.3323467e+00 </wgt>
<wgt id='1353'> +1.3351003e+00 </wgt>
<wgt id='1354'> +1.3303198e+00 </wgt>
<wgt id='1355'> +1.3307270e+00 </wgt>
<wgt id='1356'> +1.3335377e+00 </wgt>
<wgt id='1357'> +1.3318383e+00 </wgt>
<wgt id='1358'> +1.3325857e+00 </wgt>
<wgt id='1359'> +1.3282185e+00 </wgt>
<wgt id='1360'> +1.3425354e+00 </wgt>
<wgt id='1361'> +1.3371509e+00 </wgt>
<wgt id='1362'> +1.3293648e+00 </wgt>
<wgt id='1363'> +1.3325991e+00 </wgt>
<wgt id='1364'> +1.3320331e+00 </wgt>
<wgt id='1365'> +1.3351147e+00 </wgt>
<wgt id='1366'> +1.3315507e+00 </wgt>
<wgt id='1367'> +1.3260467e+00 </wgt>
<wgt id='1368'> +1.3352092e+00 </wgt>
<wgt id='1369'> +1.3310596e+00 </wgt>
<wgt id='1370'> +1.3331049e+00 </wgt>
<wgt id='1371'> +1.3334164e+00 </wgt>
<wgt id='1372'> +1.3311398e+00 </wgt>
<wgt id='1373'> +1.3367702e+00 </wgt>
<wgt id='1374'> +1.3310793e+00 </wgt>
<wgt id='1375'> +1.3359547e+00 </wgt>
<wgt id='1376'> +1.3313294e+00 </wgt>
<wgt id='1377'> +1.3325633e+00 </wgt>
<wgt id='1378'> +1.3322334e+00 </wgt>
<wgt id='1379'> +1.3377488e+00 </wgt>
<wgt id='1380'> +1.3265154e+00 </wgt>
<wgt id='1381'> +1.3264562e+00 </wgt>
<wgt id='1382'> +1.3324398e+00 </wgt>
<wgt id='1383'> +1.3320118e+00 </wgt>
<wgt id='1384'> +1.3327735e+00 </wgt>
<wgt id='1385'> +1.3323109e+00 </wgt>
<wgt id='1386'> +1.3303563e+00 </wgt>
<wgt id='1387'> +1.3312143e+00 </wgt>
<wgt id='1388'> +1.3317357e+00 </wgt>
<wgt id='1389'> +1.3326783e+00 </wgt>
<wgt id='1390'> +1.3330111e+00 </wgt>
<wgt id='1391'> +1.3331133e+00 </wgt>
<wgt id='1392'> +1.3841553e+00 </wgt>
<wgt id='1393'> +1.3837233e+00 </wgt>
<wgt id='1394'> +1.3846040e+00 </wgt>
<wgt id='1395'> +1.3855764e+00 </wgt>
<wgt id='1396'> +1.3831233e+00 </wgt>
<wgt id='1397'> +1.3881412e+00 </wgt>
<wgt id='1398'> +1.3803338e+00 </wgt>
<wgt id='1399'> +1.3837026e+00 </wgt>
<wgt id='1400'> +1.3847350e+00 </wgt>
<wgt id='1401'> +1.3802643e+00 </wgt>
<wgt id='1402'> +1.3889756e+00 </wgt>
<wgt id='1403'> +1.3841675e+00 </wgt>
<wgt id='1404'> +1.3841101e+00 </wgt>
<wgt id='1405'> +1.3815463e+00 </wgt>
<wgt id='1406'> +1.3878208e+00 </wgt>
<wgt id='1407'> +1.3838503e+00 </wgt>
<wgt id='1408'> +1.3843568e+00 </wgt>
<wgt id='1409'> +1.3900562e+00 </wgt>
<wgt id='1410'> +1.3773838e+00 </wgt>
<wgt id='1411'> +1.3812324e+00 </wgt>
<wgt id='1412'> +1.3864394e+00 </wgt>
<wgt id='1413'> +1.3835295e+00 </wgt>
<wgt id='1414'> +1.3848791e+00 </wgt>
<wgt id='1415'> +1.3940025e+00 </wgt>
<wgt id='1416'> +1.3742784e+00 </wgt>
<wgt id='1417'> +1.3814859e+00 </wgt>
<wgt id='1418'> +1.3873943e+00 </wgt>
<wgt id='1419'> +1.3865461e+00 </wgt>
<wgt id='1420'> +1.3822161e+00 </wgt>
<wgt id='1421'> +1.3886138e+00 </wgt>
<wgt id='1422'> +1.3792810e+00 </wgt>
<wgt id='1423'> +1.3834140e+00 </wgt>
<wgt id='1424'> +1.3842436e+00 </wgt>
<wgt id='1425'> +1.3854395e+00 </wgt>
<wgt id='1426'> +1.3830332e+00 </wgt>
<wgt id='1427'> +1.3823803e+00 </wgt>
<wgt id='1428'> +1.3821018e+00 </wgt>
<wgt id='1429'> +1.3817118e+00 </wgt>
<wgt id='1430'> +1.3863574e+00 </wgt>
<wgt id='1431'> +1.3824997e+00 </wgt>
<wgt id='1432'> +1.3853657e+00 </wgt>
<wgt id='1433'> +1.3789783e+00 </wgt>
<wgt id='1434'> +1.3911989e+00 </wgt>
<wgt id='1435'> +1.3846848e+00 </wgt>
<wgt id='1436'> +1.3832127e+00 </wgt>
<wgt id='1437'> +1.3815170e+00 </wgt>
<wgt id='1438'> +1.3907962e+00 </wgt>
<wgt id='1439'> +1.3926811e+00 </wgt>
<wgt id='1440'> +1.3694928e+00 </wgt>
<wgt id='1441'> +1.3873703e+00 </wgt>
<wgt id='1442'> +1.3840182e+00 </wgt>
<wgt id='1443'> +1.3610766e+00 </wgt>
<wgt id='1444'> +1.3606767e+00 </wgt>
<wgt id='1445'> +1.3614935e+00 </wgt>
<wgt id='1446'> +1.3625384e+00 </wgt>
<wgt id='1447'> +1.3600737e+00 </wgt>
<wgt id='1448'> +1.3651990e+00 </wgt>
<wgt id='1449'> +1.3572770e+00 </wgt>
<wgt id='1450'> +1.3604998e+00 </wgt>
<wgt id='1451'> +1.3617119e+00 </wgt>
<wgt id='1452'> +1.3570689e+00 </wgt>
<wgt id='1453'> +1.3649608e+00 </wgt>
<wgt id='1454'> +1.3607339e+00 </wgt>
<wgt id='1455'> +1.3617739e+00 </wgt>
<wgt id='1456'> +1.3579348e+00 </wgt>
<wgt id='1457'> +1.3666684e+00 </wgt>
<wgt id='1458'> +1.3612019e+00 </wgt>
<wgt id='1459'> +1.3609952e+00 </wgt>
<wgt id='1460'> +1.3664662e+00 </wgt>
<wgt id='1461'> +1.3545492e+00 </wgt>
<wgt id='1462'> +1.3569644e+00 </wgt>
<wgt id='1463'> +1.3646200e+00 </wgt>
<wgt id='1464'> +1.3609066e+00 </wgt>
<wgt id='1465'> +1.3613315e+00 </wgt>
<wgt id='1466'> +1.3743739e+00 </wgt>
<wgt id='1467'> +1.3520937e+00 </wgt>
<wgt id='1468'> +1.3622678e+00 </wgt>
<wgt id='1469'> +1.3600436e+00 </wgt>
<wgt id='1470'> +1.3635066e+00 </wgt>
<wgt id='1471'> +1.3594739e+00 </wgt>
<wgt id='1472'> +1.3647973e+00 </wgt>
<wgt id='1473'> +1.3568529e+00 </wgt>
<wgt id='1474'> +1.3609948e+00 </wgt>
<wgt id='1475'> +1.3607735e+00 </wgt>
<wgt id='1476'> +1.3631031e+00 </wgt>
<wgt id='1477'> +1.3596607e+00 </wgt>
<wgt id='1478'> +1.3596727e+00 </wgt>
<wgt id='1479'> +1.3587531e+00 </wgt>
<wgt id='1480'> +1.3589766e+00 </wgt>
<wgt id='1481'> +1.3629802e+00 </wgt>
<wgt id='1482'> +1.3593799e+00 </wgt>
<wgt id='1483'> +1.3625221e+00 </wgt>
<wgt id='1484'> +1.3559834e+00 </wgt>
<wgt id='1485'> +1.3678586e+00 </wgt>
<wgt id='1486'> +1.3628607e+00 </wgt>
<wgt id='1487'> +1.3594344e+00 </wgt>
<wgt id='1488'> +1.3582508e+00 </wgt>
<wgt id='1489'> +1.3678846e+00 </wgt>
<wgt id='1490'> +1.3718887e+00 </wgt>
<wgt id='1491'> +1.3454748e+00 </wgt>
<wgt id='1492'> +1.3665587e+00 </wgt>
<wgt id='1493'> +1.3602037e+00 </wgt>
<wgt id='1494'> +1.3312076e+00 </wgt>
<wgt id='1495'> +1.2992306e+00 </wgt>
<wgt id='1496'> +1.3101585e+00 </wgt>
<wgt id='1497'> +1.3207478e+00 </wgt>
<wgt id='1498'> +1.3409424e+00 </wgt>
<wgt id='1499'> +1.3309485e+00 </wgt>
<wgt id='1500'> +1.3390576e+00 </wgt>
<wgt id='1501'> +1.3377404e+00 </wgt>
<wgt id='1502'> +1.3361941e+00 </wgt>
<wgt id='1503'> +1.3345462e+00 </wgt>
<wgt id='1504'> +1.3328798e+00 </wgt>
<wgt id='1505'> +1.3291533e+00 </wgt>
<wgt id='1506'> +1.3271399e+00 </wgt>
<wgt id='1507'> +1.3251232e+00 </wgt>
<wgt id='1508'> +1.3309485e+00 </wgt>
<wgt id='1509'> +1.3306025e+00 </wgt>
<wgt id='1510'> +1.3307387e+00 </wgt>
<wgt id='1511'> +1.3311908e+00 </wgt>
<wgt id='1512'> +1.3313652e+00 </wgt>
<wgt id='1513'> +1.3319707e+00 </wgt>
<wgt id='1514'> +1.3310166e+00 </wgt>
<wgt id='1515'> +1.3332182e+00 </wgt>
<wgt id='1516'> +1.3335072e+00 </wgt>
<wgt id='1517'> +1.3304294e+00 </wgt>
<wgt id='1518'> +1.3352393e+00 </wgt>
<wgt id='1519'> +1.3306594e+00 </wgt>
<wgt id='1520'> +1.3333415e+00 </wgt>
<wgt id='1521'> +1.3305570e+00 </wgt>
<wgt id='1522'> +1.3298555e+00 </wgt>
<wgt id='1523'> +1.3339910e+00 </wgt>
<wgt id='1524'> +1.3361465e+00 </wgt>
<wgt id='1525'> +1.3301384e+00 </wgt>
<wgt id='1526'> +1.3307297e+00 </wgt>
<wgt id='1527'> +1.3334843e+00 </wgt>
<wgt id='1528'> +1.3297558e+00 </wgt>
<wgt id='1529'> +1.3343188e+00 </wgt>
<wgt id='1530'> +1.3398058e+00 </wgt>
<wgt id='1531'> +1.3275131e+00 </wgt>
<wgt id='1532'> +1.3381248e+00 </wgt>
<wgt id='1533'> +1.3234858e+00 </wgt>
<wgt id='1534'> +1.3289471e+00 </wgt>
<wgt id='1535'> +1.3340688e+00 </wgt>
<wgt id='1536'> +1.3337462e+00 </wgt>
<wgt id='1537'> +1.3303809e+00 </wgt>
<wgt id='1538'> +1.3274505e+00 </wgt>
<wgt id='1539'> +1.3427813e+00 </wgt>
<wgt id='1540'> +1.3328654e+00 </wgt>
<wgt id='1541'> +1.3306536e+00 </wgt>
<wgt id='1542'> +1.3296142e+00 </wgt>
<wgt id='1543'> +1.3390876e+00 </wgt>
<wgt id='1544'> +1.3305294e+00 </wgt>
<wgt id='1545'> +1.3333198e+00 </wgt>
<wgt id='1546'> +1.3297197e+00 </wgt>
<wgt id='1547'> +1.3348928e+00 </wgt>
<wgt id='1548'> +1.3320088e+00 </wgt>
<wgt id='1549'> +1.3300487e+00 </wgt>
<wgt id='1550'> +1.3322143e+00 </wgt>
<wgt id='1551'> +1.3309743e+00 </wgt>
<wgt id='1552'> +1.3296918e+00 </wgt>
<wgt id='1553'> +1.3331981e+00 </wgt>
<wgt id='1554'> +1.3336308e+00 </wgt>
<wgt id='1555'> +1.3271892e+00 </wgt>
<wgt id='1556'> +1.3330857e+00 </wgt>
<wgt id='1557'> +1.3282026e+00 </wgt>
<wgt id='1558'> +1.3221405e+00 </wgt>
<wgt id='1559'> +1.3383673e+00 </wgt>
<wgt id='1560'> +1.3405357e+00 </wgt>
<wgt id='1561'> +1.3279085e+00 </wgt>
<wgt id='1562'> +1.3251106e+00 </wgt>
<wgt id='1563'> +1.3355041e+00 </wgt>
<wgt id='1564'> +1.3319707e+00 </wgt>
<wgt id='1565'> +1.3205248e+00 </wgt>
<wgt id='1566'> +1.3388465e+00 </wgt>
<wgt id='1567'> +1.3293915e+00 </wgt>
<wgt id='1568'> +1.3369453e+00 </wgt>
<wgt id='1569'> +1.3358500e+00 </wgt>
<wgt id='1570'> +1.3342841e+00 </wgt>
<wgt id='1571'> +1.3324357e+00 </wgt>
<wgt id='1572'> +1.3310869e+00 </wgt>
<wgt id='1573'> +1.3274262e+00 </wgt>
<wgt id='1574'> +1.3247835e+00 </wgt>
<wgt id='1575'> +1.3228994e+00 </wgt>
<wgt id='1576'> +1.3293915e+00 </wgt>
<wgt id='1577'> +1.3286442e+00 </wgt>
<wgt id='1578'> +1.3289767e+00 </wgt>
<wgt id='1579'> +1.3297143e+00 </wgt>
<wgt id='1580'> +1.3301013e+00 </wgt>
<wgt id='1581'> +1.3252655e+00 </wgt>
<wgt id='1582'> +1.3266320e+00 </wgt>
<wgt id='1583'> +1.3296987e+00 </wgt>
<wgt id='1584'> +1.3195611e+00 </wgt>
<wgt id='1585'> +1.3288238e+00 </wgt>
<wgt id='1586'> +1.3130631e+00 </wgt>
<wgt id='1587'> +1.3160911e+00 </wgt>
<wgt id='1588'> +1.3349251e+00 </wgt>
<wgt id='1589'> +1.3246836e+00 </wgt>
<wgt id='1590'> +1.3305081e+00 </wgt>
<wgt id='1591'> +1.3223755e+00 </wgt>
<wgt id='1592'> +1.3237154e+00 </wgt>
<wgt id='1593'> +1.3275287e+00 </wgt>
<wgt id='1594'> +1.3247856e+00 </wgt>
<wgt id='1595'> +1.3243064e+00 </wgt>
<wgt id='1596'> +1.3350410e+00 </wgt>
<wgt id='1597'> +1.3295579e+00 </wgt>
<wgt id='1598'> +1.3233282e+00 </wgt>
<wgt id='1599'> +1.3264194e+00 </wgt>
<wgt id='1600'> +1.3307487e+00 </wgt>
<wgt id='1601'> +1.3225759e+00 </wgt>
<wgt id='1602'> +1.3284209e+00 </wgt>
<wgt id='1603'> +1.3265398e+00 </wgt>
<wgt id='1604'> +1.3254147e+00 </wgt>
<wgt id='1605'> +1.3242476e+00 </wgt>
<wgt id='1606'> +1.3267044e+00 </wgt>
<wgt id='1607'> +1.3269036e+00 </wgt>
<wgt id='1608'> +1.3251813e+00 </wgt>
<wgt id='1609'> +1.3276566e+00 </wgt>
<wgt id='1610'> +1.3240412e+00 </wgt>
<wgt id='1611'> +1.3332388e+00 </wgt>
<wgt id='1612'> +1.3435498e+00 </wgt>
<wgt id='1613'> +1.3431132e+00 </wgt>
<wgt id='1614'> +1.3442501e+00 </wgt>
<wgt id='1615'> +1.3445037e+00 </wgt>
<wgt id='1616'> +1.3439933e+00 </wgt>
<wgt id='1617'> +1.3431104e+00 </wgt>
<wgt id='1618'> +1.3440816e+00 </wgt>
<wgt id='1619'> +1.3397879e+00 </wgt>
<wgt id='1620'> +1.3405596e+00 </wgt>
<wgt id='1621'> +1.3451736e+00 </wgt>
<wgt id='1622'> +1.3453844e+00 </wgt>
<wgt id='1623'> +1.3415850e+00 </wgt>
<wgt id='1624'> +1.3423544e+00 </wgt>
<wgt id='1625'> +1.3437549e+00 </wgt>
<wgt id='1626'> +1.3488716e+00 </wgt>
<wgt id='1627'> +1.3431064e+00 </wgt>
<wgt id='1628'> +1.3449687e+00 </wgt>
<wgt id='1629'> +1.3444007e+00 </wgt>
<wgt id='1630'> +1.3444827e+00 </wgt>
<wgt id='1631'> +1.3445656e+00 </wgt>
<wgt id='1632'> +1.3475096e+00 </wgt>
<wgt id='1633'> +1.3428928e+00 </wgt>
<wgt id='1634'> +1.3482593e+00 </wgt>
<wgt id='1635'> +1.3411705e+00 </wgt>
<wgt id='1636'> +1.3431759e+00 </wgt>
<wgt id='1637'> +1.3478890e+00 </wgt>
<wgt id='1638'> +1.3426149e+00 </wgt>
<wgt id='1639'> +1.3458382e+00 </wgt>
<wgt id='1640'> +1.3437571e+00 </wgt>
<wgt id='1641'> +1.3325514e+00 </wgt>
<wgt id='1642'> +1.3422887e+00 </wgt>
<wgt id='1643'> +1.3442750e+00 </wgt>
<wgt id='1644'> +1.3400118e+00 </wgt>
<wgt id='1645'> +1.3416664e+00 </wgt>
<wgt id='1646'> +1.3458572e+00 </wgt>
<wgt id='1647'> +1.3417445e+00 </wgt>
<wgt id='1648'> +1.3426612e+00 </wgt>
<wgt id='1649'> +1.3447608e+00 </wgt>
<wgt id='1650'> +1.3423773e+00 </wgt>
<wgt id='1651'> +1.3440828e+00 </wgt>
<wgt id='1652'> +1.3429138e+00 </wgt>
<wgt id='1653'> +1.3436151e+00 </wgt>
<wgt id='1654'> +1.3424726e+00 </wgt>
<wgt id='1655'> +1.3459577e+00 </wgt>
<wgt id='1656'> +1.3444031e+00 </wgt>
<wgt id='1657'> +1.3423155e+00 </wgt>
<wgt id='1658'> +1.3461324e+00 </wgt>
<wgt id='1659'> +1.3480185e+00 </wgt>
<wgt id='1660'> +1.3431367e+00 </wgt>
<wgt id='1661'> +1.3434517e+00 </wgt>
<wgt id='1662'> +1.3417891e+00 </wgt>
<wgt id='1663'> +1.3438744e+00 </wgt>
<wgt id='1664'> +1.3433146e+00 </wgt>
<wgt id='1665'> +1.3429660e+00 </wgt>
<wgt id='1666'> +1.3432997e+00 </wgt>
<wgt id='1667'> +1.3423314e+00 </wgt>
<wgt id='1668'> +1.3437535e+00 </wgt>
<wgt id='1669'> +1.3436816e+00 </wgt>
<wgt id='1670'> +1.3433702e+00 </wgt>
<wgt id='1671'> +1.3431751e+00 </wgt>
<wgt id='1672'> +1.3471923e+00 </wgt>
<wgt id='1673'> +1.3438632e+00 </wgt>
<wgt id='1674'> +1.3443086e+00 </wgt>
<wgt id='1675'> +1.3441392e+00 </wgt>
<wgt id='1676'> +1.3430204e+00 </wgt>
<wgt id='1677'> +1.3443799e+00 </wgt>
<wgt id='1678'> +1.3425100e+00 </wgt>
<wgt id='1679'> +1.3439603e+00 </wgt>
<wgt id='1680'> +1.3450792e+00 </wgt>
<wgt id='1681'> +1.3448282e+00 </wgt>
<wgt id='1682'> +1.3427302e+00 </wgt>
<wgt id='1683'> +1.3428605e+00 </wgt>
<wgt id='1684'> +1.3439878e+00 </wgt>
<wgt id='1685'> +1.3445714e+00 </wgt>
<wgt id='1686'> +1.3428420e+00 </wgt>
<wgt id='1687'> +1.3430784e+00 </wgt>
<wgt id='1688'> +1.3438835e+00 </wgt>
<wgt id='1689'> +1.3432175e+00 </wgt>
<wgt id='1690'> +1.3438492e+00 </wgt>
<wgt id='1691'> +1.3421100e+00 </wgt>
<wgt id='1692'> +1.3451089e+00 </wgt>
<wgt id='1693'> +1.3436895e+00 </wgt>
<wgt id='1694'> +1.3437392e+00 </wgt>
<wgt id='1695'> +1.3432044e+00 </wgt>
<wgt id='1696'> +1.3446598e+00 </wgt>
<wgt id='1697'> +1.3429341e+00 </wgt>
<wgt id='1698'> +1.3430175e+00 </wgt>
<wgt id='1699'> +1.3425291e+00 </wgt>
<wgt id='1700'> +1.3431911e+00 </wgt>
<wgt id='1701'> +1.3438432e+00 </wgt>
<wgt id='1702'> +1.3444421e+00 </wgt>
<wgt id='1703'> +1.3422552e+00 </wgt>
<wgt id='1704'> +1.3440305e+00 </wgt>
<wgt id='1705'> +1.3433411e+00 </wgt>
<wgt id='1706'> +1.3446536e+00 </wgt>
<wgt id='1707'> +1.3438140e+00 </wgt>
<wgt id='1708'> +1.3443054e+00 </wgt>
<wgt id='1709'> +1.3436189e+00 </wgt>
<wgt id='1710'> +1.3437695e+00 </wgt>
<wgt id='1711'> +1.3442564e+00 </wgt>
<wgt id='1712'> +1.3438706e+00 </wgt>
<wgt id='1713'> +1.3149133e+00 </wgt>
<wgt id='1714'> +1.3678324e+00 </wgt>
<wgt id='1715'> +1.3770763e+00 </wgt>
<wgt id='1716'> +1.3685511e+00 </wgt>
<wgt id='1717'> +1.3792665e+00 </wgt>
<wgt id='1718'> +1.3635483e+00 </wgt>
<wgt id='1719'> +1.3548377e+00 </wgt>
<wgt id='1720'> +1.3984188e+00 </wgt>
<wgt id='1721'> +1.3504082e+00 </wgt>
<wgt id='1722'> +1.3862560e+00 </wgt>
<wgt id='1723'> +1.4050488e+00 </wgt>
<wgt id='1724'> +1.3735776e+00 </wgt>
<wgt id='1725'> +1.4011374e+00 </wgt>
<wgt id='1726'> +1.3883473e+00 </wgt>
<wgt id='1727'> +1.3826144e+00 </wgt>
<wgt id='1728'> +1.3792647e+00 </wgt>
<wgt id='1729'> +1.3795605e+00 </wgt>
<wgt id='1730'> +1.3758718e+00 </wgt>
<wgt id='1731'> +1.2867014e+00 </wgt>
<wgt id='1732'> +1.4118432e+00 </wgt>
<wgt id='1733'> +1.3835622e+00 </wgt>
<wgt id='1734'> +1.3626730e+00 </wgt>
<wgt id='1735'> +1.3228113e+00 </wgt>
<wgt id='1736'> +1.3555635e+00 </wgt>
<wgt id='1737'> +1.3810125e+00 </wgt>
<wgt id='1738'> +1.3854096e+00 </wgt>
<wgt id='1739'> +1.3894626e+00 </wgt>
<wgt id='1740'> +1.3779585e+00 </wgt>
<wgt id='1741'> +1.3613155e+00 </wgt>
<wgt id='1742'> +1.4024976e+00 </wgt>
<wgt id='1743'> +1.3507975e+00 </wgt>
<wgt id='1744'> +1.3818691e+00 </wgt>
<wgt id='1745'> +1.3360737e+00 </wgt>
<wgt id='1746'> +1.3676142e+00 </wgt>
<wgt id='1747'> +1.3740714e+00 </wgt>
<wgt id='1748'> +1.3458477e+00 </wgt>
<wgt id='1749'> +1.4055894e+00 </wgt>
<wgt id='1750'> +1.3767526e+00 </wgt>
<wgt id='1751'> +1.3856896e+00 </wgt>
<wgt id='1752'> +1.3571675e+00 </wgt>
<wgt id='1753'> +1.3552485e+00 </wgt>
<wgt id='1754'> +1.3769827e+00 </wgt>
<wgt id='1755'> +1.3772788e+00 </wgt>
<wgt id='1756'> +1.3716694e+00 </wgt>
<wgt id='1757'> +1.3558470e+00 </wgt>
<wgt id='1758'> +1.3718400e+00 </wgt>
<wgt id='1759'> +1.3634586e+00 </wgt>
<wgt id='1760'> +1.3554846e+00 </wgt>
<wgt id='1761'> +1.3800960e+00 </wgt>
<wgt id='1762'> +1.3826144e+00 </wgt>
<wgt id='1763'> +1.3885667e+00 </wgt>
<wgt id='1764'> +1.4016704e+00 </wgt>
<wgt id='1765'> +1.4038479e+00 </wgt>
<wgt id='1766'> +1.4042629e+00 </wgt>
<wgt id='1767'> +1.3434640e+00 </wgt>
<wgt id='1768'> +1.3491246e+00 </wgt>
<wgt id='1769'> +1.3943199e+00 </wgt>
<wgt id='1770'> +1.4055817e+00 </wgt>
<wgt id='1771'> +1.3827540e+00 </wgt>
<wgt id='1772'> +1.3624811e+00 </wgt>
<wgt id='1773'> +1.3781219e+00 </wgt>
<wgt id='1774'> +1.3428025e+00 </wgt>
<wgt id='1775'> +1.3777660e+00 </wgt>
<wgt id='1776'> +1.3789476e+00 </wgt>
<wgt id='1777'> +1.3966330e+00 </wgt>
<wgt id='1778'> +1.3507917e+00 </wgt>
<wgt id='1779'> +1.3610379e+00 </wgt>
<wgt id='1780'> +1.4118376e+00 </wgt>
<wgt id='1781'> +1.3808463e+00 </wgt>
<wgt id='1782'> +1.4020676e+00 </wgt>
<wgt id='1783'> +1.3583484e+00 </wgt>
<wgt id='1784'> +1.3958671e+00 </wgt>
<wgt id='1785'> +1.3870749e+00 </wgt>
<wgt id='1786'> +1.4009184e+00 </wgt>
<wgt id='1787'> +1.3971774e+00 </wgt>
<wgt id='1788'> +1.3616511e+00 </wgt>
<wgt id='1789'> +1.3837097e+00 </wgt>
<wgt id='1790'> +1.4030050e+00 </wgt>
<wgt id='1791'> +1.3296830e+00 </wgt>
<wgt id='1792'> +1.4068383e+00 </wgt>
<wgt id='1793'> +1.3948852e+00 </wgt>
<wgt id='1794'> +1.3712917e+00 </wgt>
<wgt id='1795'> +1.3944559e+00 </wgt>
<wgt id='1796'> +1.3929704e+00 </wgt>
<wgt id='1797'> +1.3756485e+00 </wgt>
<wgt id='1798'> +1.4006778e+00 </wgt>
<wgt id='1799'> +1.3796689e+00 </wgt>
<wgt id='1800'> +1.3857893e+00 </wgt>
<wgt id='1801'> +1.3645573e+00 </wgt>
<wgt id='1802'> +1.3910405e+00 </wgt>
<wgt id='1803'> +1.3842589e+00 </wgt>
<wgt id='1804'> +1.4032567e+00 </wgt>
<wgt id='1805'> +1.3694880e+00 </wgt>
<wgt id='1806'> +1.3804545e+00 </wgt>
<wgt id='1807'> +1.3515933e+00 </wgt>
<wgt id='1808'> +1.3573548e+00 </wgt>
<wgt id='1809'> +1.3712007e+00 </wgt>
<wgt id='1810'> +1.3682271e+00 </wgt>
<wgt id='1811'> +1.3895748e+00 </wgt>
<wgt id='1812'> +1.3685799e+00 </wgt>
<wgt id='1813'> +1.3946385e+00 </wgt>
<wgt id='1814'> +1.3876849e+00 </wgt>
<wgt id='1815'> +1.4062446e+00 </wgt>
<wgt id='1816'> +1.3458707e+00 </wgt>
<wgt id='1817'> +1.3728537e+00 </wgt>
<wgt id='1818'> +1.3369689e+00 </wgt>
<wgt id='1819'> +1.3617724e+00 </wgt>
<wgt id='1820'> +1.3536039e+00 </wgt>
<wgt id='1821'> +1.3892816e+00 </wgt>
<wgt id='1822'> +1.3757994e+00 </wgt>
<wgt id='1823'> +1.3352459e+00 </wgt>
<wgt id='1824'> +1.3340079e+00 </wgt>
<wgt id='1825'> +1.3442116e+00 </wgt>
<wgt id='1826'> +1.3245209e+00 </wgt>
<wgt id='1827'> +1.3002883e+00 </wgt>
<wgt id='1828'> +1.3728096e+00 </wgt>
<wgt id='1829'> +1.3750508e+00 </wgt>
<wgt id='1830'> +1.3148669e+00 </wgt>
<wgt id='1831'> +1.3562518e+00 </wgt>
<wgt id='1832'> +1.3369852e+00 </wgt>
<wgt id='1833'> +1.3282096e+00 </wgt>
<wgt id='1834'> +1.3287715e+00 </wgt>
<wgt id='1835'> +1.3565256e+00 </wgt>
<wgt id='1836'> +1.3475072e+00 </wgt>
<wgt id='1837'> +1.3691859e+00 </wgt>
<wgt id='1838'> +1.3194858e+00 </wgt>
<wgt id='1839'> +1.4158450e+00 </wgt>
<wgt id='1840'> +1.3399847e+00 </wgt>
<wgt id='1841'> +1.3458030e+00 </wgt>
<wgt id='1842'> +1.3529499e+00 </wgt>
<wgt id='1843'> +1.3148940e+00 </wgt>
<wgt id='1844'> +1.3292885e+00 </wgt>
<wgt id='1845'> +1.3413749e+00 </wgt>
<wgt id='1846'> +1.3650655e+00 </wgt>
<wgt id='1847'> +1.3369411e+00 </wgt>
<wgt id='1848'> +1.3224991e+00 </wgt>
<wgt id='1849'> +1.3243569e+00 </wgt>
<wgt id='1850'> +1.3623754e+00 </wgt>
<wgt id='1851'> +1.3376446e+00 </wgt>
<wgt id='1852'> +1.3607102e+00 </wgt>
<wgt id='1853'> +1.3314803e+00 </wgt>
<wgt id='1854'> +1.3601346e+00 </wgt>
<wgt id='1855'> +1.3463381e+00 </wgt>
<wgt id='1856'> +1.3359273e+00 </wgt>
<wgt id='1857'> +1.3749674e+00 </wgt>
<wgt id='1858'> +1.3597648e+00 </wgt>
<wgt id='1859'> +1.3486918e+00 </wgt>
<wgt id='1860'> +1.3405715e+00 </wgt>
<wgt id='1861'> +1.3286829e+00 </wgt>
<wgt id='1862'> +1.3818125e+00 </wgt>
<wgt id='1863'> +1.3386108e+00 </wgt>
<wgt id='1864'> +1.3459429e+00 </wgt>
<wgt id='1865'> +1.3291421e+00 </wgt>
<wgt id='1866'> +1.3461585e+00 </wgt>
<wgt id='1867'> +1.3524180e+00 </wgt>
<wgt id='1868'> +1.3431281e+00 </wgt>
<wgt id='1869'> +1.3670407e+00 </wgt>
<wgt id='1870'> +1.3567160e+00 </wgt>
<wgt id='1871'> +1.3415320e+00 </wgt>
<wgt id='1872'> +1.3310542e+00 </wgt>
<wgt id='1873'> +1.3728637e+00 </wgt>
<wgt id='1874'> +1.3443763e+00 </wgt>
<wgt id='1875'> +1.3393985e+00 </wgt>
<wgt id='1876'> +1.3521869e+00 </wgt>
<wgt id='1877'> +1.3470159e+00 </wgt>
<wgt id='1878'> +1.3451334e+00 </wgt>
<wgt id='1879'> +1.3635724e+00 </wgt>
<wgt id='1880'> +1.2851407e+00 </wgt>
<wgt id='1881'> +1.3416702e+00 </wgt>
<wgt id='1882'> +1.3244643e+00 </wgt>
<wgt id='1883'> +1.4016055e+00 </wgt>
<wgt id='1884'> +1.3408237e+00 </wgt>
<wgt id='1885'> +1.3221550e+00 </wgt>
<wgt id='1886'> +1.3117512e+00 </wgt>
<wgt id='1887'> +1.3564461e+00 </wgt>
<wgt id='1888'> +1.3648883e+00 </wgt>
<wgt id='1889'> +1.3341349e+00 </wgt>
<wgt id='1890'> +1.3753999e+00 </wgt>
<wgt id='1891'> +1.3455665e+00 </wgt>
<wgt id='1892'> +1.3523428e+00 </wgt>
<wgt id='1893'> +1.3393832e+00 </wgt>
<wgt id='1894'> +1.3681112e+00 </wgt>
<wgt id='1895'> +1.3461036e+00 </wgt>
<wgt id='1896'> +1.3336465e+00 </wgt>
<wgt id='1897'> +1.3441735e+00 </wgt>
<wgt id='1898'> +1.3436732e+00 </wgt>
<wgt id='1899'> +1.3486111e+00 </wgt>
<wgt id='1900'> +1.3371883e+00 </wgt>
<wgt id='1901'> +1.3261607e+00 </wgt>
<wgt id='1902'> +1.3208231e+00 </wgt>
<wgt id='1903'> +1.3471630e+00 </wgt>
<wgt id='1904'> +1.3586771e+00 </wgt>
<wgt id='1905'> +1.3634742e+00 </wgt>
<wgt id='1906'> +1.3266109e+00 </wgt>
<wgt id='1907'> +1.3438965e+00 </wgt>
<wgt id='1908'> +1.3350333e+00 </wgt>
<wgt id='1909'> +1.3350123e+00 </wgt>
<wgt id='1910'> +1.3539661e+00 </wgt>
<wgt id='1911'> +1.2995377e+00 </wgt>
<wgt id='1912'> +1.3487467e+00 </wgt>
<wgt id='1913'> +1.3366418e+00 </wgt>
<wgt id='1914'> +1.3703585e+00 </wgt>
<wgt id='1915'> +1.3585817e+00 </wgt>
<wgt id='1916'> +1.3314221e+00 </wgt>
<wgt id='1917'> +1.2666142e+00 </wgt>
<wgt id='1918'> +1.3562705e+00 </wgt>
<wgt id='1919'> +1.3458707e+00 </wgt>
<wgt id='1920'> +1.3728537e+00 </wgt>
<wgt id='1921'> +1.3369689e+00 </wgt>
<wgt id='1922'> +1.3617724e+00 </wgt>
<wgt id='1923'> +1.3536039e+00 </wgt>
<wgt id='1924'> +1.3892816e+00 </wgt>
<wgt id='1925'> +1.3757994e+00 </wgt>
<wgt id='1926'> +1.3352459e+00 </wgt>
<wgt id='1927'> +1.3340079e+00 </wgt>
<wgt id='1928'> +1.3442116e+00 </wgt>
<wgt id='1929'> +1.3245209e+00 </wgt>
<wgt id='1930'> +1.3002883e+00 </wgt>
<wgt id='1931'> +1.3728096e+00 </wgt>
<wgt id='1932'> +1.3750508e+00 </wgt>
<wgt id='1933'> +1.3148669e+00 </wgt>
<wgt id='1934'> +1.3562518e+00 </wgt>
<wgt id='1935'> +1.3369852e+00 </wgt>
<wgt id='1936'> +1.3282096e+00 </wgt>
<wgt id='1937'> +1.3287715e+00 </wgt>
<wgt id='1938'> +1.3565256e+00 </wgt>
<wgt id='1939'> +1.3475072e+00 </wgt>
<wgt id='1940'> +1.3691859e+00 </wgt>
<wgt id='1941'> +1.3194858e+00 </wgt>
<wgt id='1942'> +1.4158450e+00 </wgt>
<wgt id='1943'> +1.3399847e+00 </wgt>
<wgt id='1944'> +1.3458030e+00 </wgt>
<wgt id='1945'> +1.3529499e+00 </wgt>
<wgt id='1946'> +1.3148940e+00 </wgt>
<wgt id='1947'> +1.3292885e+00 </wgt>
<wgt id='1948'> +1.3413749e+00 </wgt>
<wgt id='1949'> +1.3650655e+00 </wgt>
<wgt id='1950'> +1.3369411e+00 </wgt>
<wgt id='1951'> +1.3224991e+00 </wgt>
<wgt id='1952'> +1.3243569e+00 </wgt>
<wgt id='1953'> +1.3623754e+00 </wgt>
<wgt id='1954'> +1.3376446e+00 </wgt>
<wgt id='1955'> +1.3607102e+00 </wgt>
<wgt id='1956'> +1.3314803e+00 </wgt>
<wgt id='1957'> +1.3601346e+00 </wgt>
<wgt id='1958'> +1.3463381e+00 </wgt>
<wgt id='1959'> +1.3359273e+00 </wgt>
<wgt id='1960'> +1.3749674e+00 </wgt>
<wgt id='1961'> +1.3597648e+00 </wgt>
<wgt id='1962'> +1.3486918e+00 </wgt>
<wgt id='1963'> +1.3405715e+00 </wgt>
<wgt id='1964'> +1.3286829e+00 </wgt>
<wgt id='1965'> +1.3818125e+00 </wgt>
<wgt id='1966'> +1.3386108e+00 </wgt>
<wgt id='1967'> +1.3459429e+00 </wgt>
<wgt id='1968'> +1.3291421e+00 </wgt>
<wgt id='1969'> +1.3461585e+00 </wgt>
<wgt id='1970'> +1.3524180e+00 </wgt>
<wgt id='1971'> +1.3431281e+00 </wgt>
<wgt id='1972'> +1.3670407e+00 </wgt>
<wgt id='1973'> +1.3567160e+00 </wgt>
<wgt id='1974'> +1.3415320e+00 </wgt>
<wgt id='1975'> +1.3310542e+00 </wgt>
<wgt id='1976'> +1.3728637e+00 </wgt>
<wgt id='1977'> +1.3443763e+00 </wgt>
<wgt id='1978'> +1.3393985e+00 </wgt>
<wgt id='1979'> +1.3521869e+00 </wgt>
<wgt id='1980'> +1.3470159e+00 </wgt>
<wgt id='1981'> +1.3451334e+00 </wgt>
<wgt id='1982'> +1.3635724e+00 </wgt>
<wgt id='1983'> +1.2851407e+00 </wgt>
<wgt id='1984'> +1.3416702e+00 </wgt>
<wgt id='1985'> +1.3244643e+00 </wgt>
<wgt id='1986'> +1.4016055e+00 </wgt>
<wgt id='1987'> +1.3408237e+00 </wgt>
<wgt id='1988'> +1.3221550e+00 </wgt>
<wgt id='1989'> +1.3117512e+00 </wgt>
<wgt id='1990'> +1.3564461e+00 </wgt>
<wgt id='1991'> +1.3648883e+00 </wgt>
<wgt id='1992'> +1.3341349e+00 </wgt>
<wgt id='1993'> +1.3753999e+00 </wgt>
<wgt id='1994'> +1.3455665e+00 </wgt>
<wgt id='1995'> +1.3523428e+00 </wgt>
<wgt id='1996'> +1.3393832e+00 </wgt>
<wgt id='1997'> +1.3681112e+00 </wgt>
<wgt id='1998'> +1.3461036e+00 </wgt>
<wgt id='1999'> +1.3336465e+00 </wgt>
<wgt id='2000'> +1.3441735e+00 </wgt>
<wgt id='2001'> +1.3436732e+00 </wgt>
<wgt id='2002'> +1.3486111e+00 </wgt>
<wgt id='2003'> +1.3371883e+00 </wgt>
<wgt id='2004'> +1.3261607e+00 </wgt>
<wgt id='2005'> +1.3208231e+00 </wgt>
<wgt id='2006'> +1.3471630e+00 </wgt>
<wgt id='2007'> +1.3586771e+00 </wgt>
<wgt id='2008'> +1.3634742e+00 </wgt>
<wgt id='2009'> +1.3266109e+00 </wgt>
<wgt id='2010'> +1.3438965e+00 </wgt>
<wgt id='2011'> +1.3350333e+00 </wgt>
<wgt id='2012'> +1.3350123e+00 </wgt>
<wgt id='2013'> +1.3539661e+00 </wgt>
<wgt id='2014'> +1.2995377e+00 </wgt>
<wgt id='2015'> +1.3487467e+00 </wgt>
<wgt id='2016'> +1.3366418e+00 </wgt>
<wgt id='2017'> +1.3703585e+00 </wgt>
<wgt id='2018'> +1.3585817e+00 </wgt>
<wgt id='2019'> +1.3314221e+00 </wgt>
<wgt id='2020'> +1.3379466e+00 </wgt>
<wgt id='2021'> +1.3553304e+00 </wgt>
<wgt id='2022'> +1.3412832e+00 </wgt>
</rwgt>
</event>
<event>
 13 1 0.0079112 1.73803800e+02 7.81860800e-03 1.08748400e-01
        2 -1    0    0  501    0 +0.0000000000e+00 +0.0000000000e+00 +2.9033264586e+03 2.9033264586e+03 2.5500000000e-03 0.0000e+00 -1.0000e+00
       21 -1    0    0  502  503 +0.0000000000e+00 +0.0000000000e+00 -1.8541449532e+02 1.8541449532e+02 0.0000000000e+00 0.0000e+00 1.0000e+00
  8000001  2    1    2  502    0 -1.1326371472e+02 -3.7477689196e+00 +6.6974639387e+02 9.0631233813e+02 5.9999925610e+02 0.0000e+00 0.0000e+00
        1  1    1    2  501    0 +6.9827054144e+01 +2.7971674599e+01 +2.1052386968e+03 2.1065821139e+03 5.0400000000e-03 0.0000e+00 -1.0000e+00
       -5  1    1    2    0  503 +4.3436660579e+01 -2.4223905680e+01 -5.7073127354e+01 7.5846501932e+01 4.6700000000e+00 0.0000e+00 1.0000e+00
        6  2    3    3  502    0 -7.0288480011e+01 +2.1431643766e+02 +1.2344457057e+02 3.1030890338e+02 1.7372693412e+02 0.0000e+00 0.0000e+00
        5  1    6    6  502    0 +2.2586953508e+01 +1.2926686277e+02 +8.5056189581e+01 1.5644953361e+02 4.6700000000e+00 0.0000e+00 -1.0000e+00
       24  2    6    6    0    0 -9.2875433519e+01 +8.5049574891e+01 +3.8388380988e+01 1.5385936977e+02 7.9622619464e+01 0.0000e+00 0.0000e+00
        2  1    8    8  504    0 -8.6002092146e+01 +7.8614371263e+01 +5.9435616197e+01 1.3080203248e+02 2.5500000000e-03 0.0000e+00 -1.0000e+00
       -1  1    8    8    0  504 -6.8733413732e+00 +6.4352036283e+00 -2.1047235209e+01 2.3057337286e+01 5.0400000000e-03 0.0000e+00 1.0000e+00
       23  2    3    3    0    0 -4.2975234713e+01 -2.1806420658e+02 +5.4630182330e+02 5.9600343475e+02 8.5880982153e+01 0.0000e+00 0.0000e+00
        1  1   11   11  505    0 +2.4329929121e+01 -4.8857166320e+01 +1.5699339729e+02 1.6621039369e+02 5.0400000000e-03 0.0000e+00 -1.0000e+00
       -1  1   11   11    0  505 -6.7305163834e+01 -1.6920704026e+02 +3.8930842601e+02 4.2979304106e+02 5.0400000000e-03 0.0000e+00 1.0000e+00
<mgrwt>
<rscale>  1 0.11447499e+03</rscale>
<asrwt>0</asrwt>
<pdfrwt beam="1">  1       21 0.28525309e-01 0.17380384e+03</pdfrwt>
<pdfrwt beam="2">  1        2 0.44666558e+00 0.75398360e+02</pdfrwt>
<totfact> 0.47197442e+02</totfact>
</mgrwt>
<rwgt>
<wgt id='1001'> +1.3581722e+00 </wgt>
<wgt id='1002'> +7.9477065e-01 </wgt>
<wgt id='1003'> +7.9472109e-01 </wgt>
<wgt id='1004'> +9.5823119e-01 </wgt>
<wgt id='1005'> +6.4071639e-01 </wgt>
<wgt id='1006'> +1.2286620e+00 </wgt>
<wgt id='1007'> +7.3383009e-01 </wgt>
<wgt id='1008'> +7.3378603e-01 </wgt>
<wgt id='1009'> +8.7834771e-01 </wgt>
<wgt id='1010'> +5.9603292e-01 </wgt>
<wgt id='1011'> +1.5193267e+00 </wgt>
<wgt id='1012'> +8.6705540e-01 </wgt>
<wgt id='1013'> +8.6699894e-01 </wgt>
<wgt id='1014'> +1.0545744e+00 </wgt>
<wgt id='1015'> +6.9281745e-01 </wgt>
<wgt id='1016'> +1.2100478e+00 </wgt>
<wgt id='1017'> +7.2298726e-01 </wgt>
<wgt id='1018'> +7.2294334e-01 </wgt>
<wgt id='1019'> +8.6699894e-01 </wgt>
<wgt id='1020'> +5.8617646e-01 </wgt>
<wgt id='1021'> +1.0946622e+00 </wgt>
<wgt id='1022'> +6.6755083e-01 </wgt>
<wgt id='1023'> +6.6751182e-01 </wgt>
<wgt id='1024'> +7.9472109e-01 </wgt>
<wgt id='1025'> +5.4529660e-01 </wgt>
<wgt id='1026'> +1.3536265e+00 </wgt>
<wgt id='1027'> +7.8874328e-01 </wgt>
<wgt id='1028'> +7.8869318e-01 </wgt>
<wgt id='1029'> +9.5416943e-01 </wgt>
<wgt id='1030'> +6.3384251e-01 </wgt>
<wgt id='1031'> +1.5372733e+00 </wgt>
<wgt id='1032'> +8.7840431e-01 </wgt>
<wgt id='1033'> +8.7834771e-01 </wgt>
<wgt id='1034'> +1.0645499e+00 </wgt>
<wgt id='1035'> +7.0357979e-01 </wgt>
<wgt id='1036'> +1.3906847e+00 </wgt>
<wgt id='1037'> +8.1105098e-01 </wgt>
<wgt id='1038'> +8.1100060e-01 </wgt>
<wgt id='1039'> +9.7580311e-01 </wgt>
<wgt id='1040'> +6.5451224e-01 </wgt>
<wgt id='1041'> +1.7196791e+00 </wgt>
<wgt id='1042'> +9.5829557e-01 </wgt>
<wgt id='1043'> +9.5823119e-01 </wgt>
<wgt id='1044'> +1.1715827e+00 </wgt>
<wgt id='1045'> +7.6079271e-01 </wgt>
<wgt id='1046'> +1.3581722e+00 </wgt>
<wgt id='1047'> +1.3581722e+00 </wgt>
<wgt id='1048'> +1.3581722e+00 </wgt>
<wgt id='1049'> +1.3628687e+00 </wgt>
<wgt id='1050'> +1.3561285e+00 </wgt>
<wgt id='1051'> +1.3642368e+00 </wgt>
<wgt id='1052'> +1.3600101e+00 </wgt>
<wgt id='1053'> +1.3636401e+00 </wgt>
<wgt id='1054'> +1.3570426e+00 </wgt>
<wgt id='1055'> +1.3592634e+00 </wgt>
<wgt id='1056'> +1.3619512e+00 </wgt>
<wgt id='1057'> +1.3596258e+00 </wgt>
<wgt id='1058'> +1.3596987e+00 </wgt>
<wgt id='1059'> +1.3479881e+00 </wgt>
<wgt id='1060'> +1.3571234e+00 </wgt>
<wgt id='1061'> +1.3618314e+00 </wgt>
<wgt id='1062'> +1.3572260e+00 </wgt>
<wgt id='1063'> +1.3597075e+00 </wgt>
<wgt id='1064'> +1.3570773e+00 </wgt>
<wgt id='1065'> +1.3561663e+00 </wgt>
<wgt id='1066'> +1.3537250e+00 </wgt>
<wgt id='1067'> +1.3606572e+00 </wgt>
<wgt id='1068'> +1.3493600e+00 </wgt>
<wgt id='1069'> +1.3612714e+00 </wgt>
<wgt id='1070'> +1.3588982e+00 </wgt>
<wgt id='1071'> +1.3560500e+00 </wgt>
<wgt id='1072'> +1.3640379e+00 </wgt>
<wgt id='1073'> +1.3621066e+00 </wgt>
<wgt id='1074'> +1.3600480e+00 </wgt>
<wgt id='1075'> +1.3520432e+00 </wgt>
<wgt id='1076'> +1.3619924e+00 </wgt>
<wgt id='1077'> +1.3675872e+00 </wgt>
<wgt id='1078'> +1.3604629e+00 </wgt>
<wgt id='1079'> +1.3651964e+00 </wgt>
<wgt id='1080'> +1.3601778e+00 </wgt>
<wgt id='1081'> +1.3546853e+00 </wgt>
<wgt id='1082'> +1.3628156e+00 </wgt>
<wgt id='1083'> +1.3577587e+00 </wgt>
<wgt id='1084'> +1.3513938e+00 </wgt>
<wgt id='1085'> +1.3627109e+00 </wgt>
<wgt id='1086'> +1.3503242e+00 </wgt>
<wgt id='1087'> +1.3513738e+00 </wgt>
<wgt id='1088'> +1.3601140e+00 </wgt>
<wgt id='1089'> +1.3548363e+00 </wgt>
<wgt id='1090'> +1.3527308e+00 </wgt>
<wgt id='1091'> +1.3566434e+00 </wgt>
<wgt id='1092'> +1.3600695e+00 </wgt>
<wgt id='1093'> +1.3595272e+00 </wgt>
<wgt id='1094'> +1.3601534e+00 </wgt>
<wgt id='1095'> +1.3556076e+00 </wgt>
<wgt id='1096'> +1.3607001e+00 </wgt>
<wgt id='1097'> +1.3614953e+00 </wgt>
<wgt id='1098'> +1.3536912e+00 </wgt>
<wgt id='1099'> +1.3607302e+00 </wgt>
<wgt id='1100'> +1.3588584e+00 </wgt>
<wgt id='1101'> +1.3543773e+00 </wgt>
<wgt id='1102'> +1.3645920e+00 </wgt>
<wgt id='1103'> +1.3611804e+00 </wgt>
<wgt id='1104'> +1.3581664e+00 </wgt>
<wgt id='1105'> +1.3529364e+00 </wgt>
<wgt id='1106'> +1.3619770e+00 </wgt>
<wgt id='1107'> +1.3550204e+00 </wgt>
<wgt id='1108'> +1.3560839e+00 </wgt>
<wgt id='1109'> +1.3630349e+00 </wgt>
<wgt id='1110'> +1.3624275e+00 </wgt>
<wgt id='1111'> +1.3615756e+00 </wgt>
<wgt id='1112'> +1.3661489e+00 </wgt>
<wgt id='1113'> +1.3568014e+00 </wgt>
<wgt id='1114'> +1.3602783e+00 </wgt>
<wgt id='1115'> +1.3622563e+00 </wgt>
<wgt id='1116'> +1.3626667e+00 </wgt>
<wgt id='1117'> +1.3569922e+00 </wgt>
<wgt id='1118'> +1.3570328e+00 </wgt>
<wgt id='1119'> +1.3599235e+00 </wgt>
<wgt id='1120'> +1.3558569e+00 </wgt>
<wgt id='1121'> +1.3565338e+00 </wgt>
<wgt id='1122'> +1.3592599e+00 </wgt>
<wgt id='1123'> +1.3575043e+00 </wgt>
<wgt id='1124'> +1.3585817e+00 </wgt>
<wgt id='1125'> +1.3565417e+00 </wgt>
<wgt id='1126'> +1.3580318e+00 </wgt>
<wgt id='1127'> +1.3573978e+00 </wgt>
<wgt id='1128'> +1.3583726e+00 </wgt>
<wgt id='1129'> +1.3590659e+00 </wgt>
<wgt id='1130'> +1.3575080e+00 </wgt>
<wgt id='1131'> +1.3595616e+00 </wgt>
<wgt id='1132'> +1.3588924e+00 </wgt>
<wgt id='1133'> +1.3581124e+00 </wgt>
<wgt id='1134'> +1.3574784e+00 </wgt>
<wgt id='1135'> +1.3571585e+00 </wgt>
<wgt id='1136'> +1.3573026e+00 </wgt>
<wgt id='1137'> +1.3559982e+00 </wgt>
<wgt id='1138'> +1.3597055e+00 </wgt>
<wgt id='1139'> +1.3583525e+00 </wgt>
<wgt id='1140'> +1.3586612e+00 </wgt>
<wgt id='1141'> +1.3565647e+00 </wgt>
<wgt id='1142'> +1.3598466e+00 </wgt>
<wgt id='1143'> +1.3589020e+00 </wgt>
<wgt id='1144'> +1.3572825e+00 </wgt>
<wgt id='1145'> +1.3574010e+00 </wgt>
<wgt id='1146'> +1.3585038e+00 </wgt>
<wgt id='1147'> +1.3578720e+00 </wgt>
<wgt id='1148'> +1.3581722e+00 </wgt>
<wgt id='1149'> +1.2706848e+00 </wgt>
<wgt id='1150'> +1.2695309e+00 </wgt>
<wgt id='1151'> +1.2728484e+00 </wgt>
<wgt id='1152'> +1.3119659e+00 </wgt>
<wgt id='1153'> +1.2561744e+00 </wgt>
<wgt id='1154'> +1.3002930e+00 </wgt>
<wgt id='1155'> +1.2681319e+00 </wgt>
<wgt id='1156'> +1.2216469e+00 </wgt>
<wgt id='1157'> +1.2903159e+00 </wgt>
<wgt id='1158'> +1.2459716e+00 </wgt>
<wgt id='1159'> +1.2695587e+00 </wgt>
<wgt id='1160'> +1.2894342e+00 </wgt>
<wgt id='1161'> +1.2607288e+00 </wgt>
<wgt id='1162'> +1.2516423e+00 </wgt>
<wgt id='1163'> +1.2764578e+00 </wgt>
<wgt id='1164'> +1.2722500e+00 </wgt>
<wgt id='1165'> +1.2935345e+00 </wgt>
<wgt id='1166'> +1.2932382e+00 </wgt>
<wgt id='1167'> +1.2754388e+00 </wgt>
<wgt id='1168'> +1.2577525e+00 </wgt>
<wgt id='1169'> +1.2566750e+00 </wgt>
<wgt id='1170'> +1.3212628e+00 </wgt>
<wgt id='1171'> +1.3163714e+00 </wgt>
<wgt id='1172'> +1.2736535e+00 </wgt>
<wgt id='1173'> +1.2437020e+00 </wgt>
<wgt id='1174'> +1.3088160e+00 </wgt>
<wgt id='1175'> +1.3170344e+00 </wgt>
<wgt id='1176'> +1.2318742e+00 </wgt>
<wgt id='1177'> +1.2874153e+00 </wgt>
<wgt id='1178'> +1.2501931e+00 </wgt>
<wgt id='1179'> +1.2703507e+00 </wgt>
<wgt id='1180'> +1.3042170e+00 </wgt>
<wgt id='1181'> +1.2533187e+00 </wgt>
<wgt id='1182'> +1.2937165e+00 </wgt>
<wgt id='1183'> +1.2871259e+00 </wgt>
<wgt id='1184'> +1.2469076e+00 </wgt>
<wgt id='1185'> +1.2986023e+00 </wgt>
<wgt id='1186'> +1.2433286e+00 </wgt>
<wgt id='1187'> +1.2276441e+00 </wgt>
<wgt id='1188'> +1.1813677e+00 </wgt>
<wgt id='1189'> +1.2288600e+00 </wgt>
<wgt id='1190'> +1.2859017e+00 </wgt>
<wgt id='1191'> +1.2608553e+00 </wgt>
<wgt id='1192'> +1.2605305e+00 </wgt>
<wgt id='1193'> +1.2356208e+00 </wgt>
<wgt id='1194'> +1.2554581e+00 </wgt>
<wgt id='1195'> +1.2740422e+00 </wgt>
<wgt id='1196'> +1.3077875e+00 </wgt>
<wgt id='1197'> +1.2465422e+00 </wgt>
<wgt id='1198'> +1.2540338e+00 </wgt>
<wgt id='1199'> +1.2546917e+00 </wgt>
<wgt id='1200'> +1.3044664e+00 </wgt>
<wgt id='1201'> +1.2702764e+00 </wgt>
<wgt id='1202'> +1.2642125e+00 </wgt>
<wgt id='1203'> +1.3278237e+00 </wgt>
<wgt id='1204'> +1.2901824e+00 </wgt>
<wgt id='1205'> +1.2142643e+00 </wgt>
<wgt id='1206'> +1.2962471e+00 </wgt>
<wgt id='1207'> +1.3094989e+00 </wgt>
<wgt id='1208'> +1.2820191e+00 </wgt>
<wgt id='1209'> +1.3296725e+00 </wgt>
<wgt id='1210'> +1.2148832e+00 </wgt>
<wgt id='1211'> +1.2908631e+00 </wgt>
<wgt id='1212'> +1.2447423e+00 </wgt>
<wgt id='1213'> +1.2841675e+00 </wgt>
<wgt id='1214'> +1.3193266e+00 </wgt>
<wgt id='1215'> +1.2344723e+00 </wgt>
<wgt id='1216'> +1.2755727e+00 </wgt>
<wgt id='1217'> +1.2829144e+00 </wgt>
<wgt id='1218'> +1.2495928e+00 </wgt>
<wgt id='1219'> +1.2557004e+00 </wgt>
<wgt id='1220'> +1.2893248e+00 </wgt>
<wgt id='1221'> +1.2233022e+00 </wgt>
<wgt id='1222'> +1.2940988e+00 </wgt>
<wgt id='1223'> +1.2880824e+00 </wgt>
<wgt id='1224'> +1.2573403e+00 </wgt>
<wgt id='1225'> +1.3641488e+00 </wgt>
<wgt id='1226'> +1.2331653e+00 </wgt>
<wgt id='1227'> +1.3189878e+00 </wgt>
<wgt id='1228'> +1.3219302e+00 </wgt>
<wgt id='1229'> +1.2290856e+00 </wgt>
<wgt id='1230'> +1.2505234e+00 </wgt>
<wgt id='1231'> +1.2935345e+00 </wgt>
<wgt id='1232'> +1.2202508e+00 </wgt>
<wgt id='1233'> +1.2796523e+00 </wgt>
<wgt id='1234'> +1.3109406e+00 </wgt>
<wgt id='1235'> +1.1500277e+00 </wgt>
<wgt id='1236'> +1.2926007e+00 </wgt>
<wgt id='1237'> +1.2486580e+00 </wgt>
<wgt id='1238'> +1.2257387e+00 </wgt>
<wgt id='1239'> +1.2741783e+00 </wgt>
<wgt id='1240'> +1.2807981e+00 </wgt>
<wgt id='1241'> +1.2656958e+00 </wgt>
<wgt id='1242'> +1.2553313e+00 </wgt>
<wgt id='1243'> +1.2664013e+00 </wgt>
<wgt id='1244'> +1.2656361e+00 </wgt>
<wgt id='1245'> +1.2833988e+00 </wgt>
<wgt id='1246'> +1.2317652e+00 </wgt>
<wgt id='1247'> +1.2890811e+00 </wgt>
<wgt id='1248'> +1.3016246e+00 </wgt>
<wgt id='1249'> +1.2639163e+00 </wgt>
<wgt id='1250'> +1.3610207e+00 </wgt>
<wgt id='1251'> +1.3369385e+00 </wgt>
<wgt id='1252'> +1.3438686e+00 </wgt>
<wgt id='1253'> +1.3670869e+00 </wgt>
<wgt id='1254'> +1.4430080e+00 </wgt>
<wgt id='1255'> +1.5612425e+00 </wgt>
<wgt id='1256'> +1.5757483e+00 </wgt>
<wgt id='1257'> +1.5529499e+00 </wgt>
<wgt id='1258'> +1.5594266e+00 </wgt>
<wgt id='1259'> +1.5621293e+00 </wgt>
<wgt id='1260'> +1.5660039e+00 </wgt>
<wgt id='1261'> +1.5549263e+00 </wgt>
<wgt id='1262'> +1.5646913e+00 </wgt>
<wgt id='1263'> +1.5589979e+00 </wgt>
<wgt id='1264'> +1.5601042e+00 </wgt>
<wgt id='1265'> +1.5620129e+00 </wgt>
<wgt id='1266'> +1.5606905e+00 </wgt>
<wgt id='1267'> +1.5618299e+00 </wgt>
<wgt id='1268'> +1.5673521e+00 </wgt>
<wgt id='1269'> +1.5548379e+00 </wgt>
<wgt id='1270'> +1.5545273e+00 </wgt>
<wgt id='1271'> +1.5673879e+00 </wgt>
<wgt id='1272'> +1.5676347e+00 </wgt>
<wgt id='1273'> +1.5563868e+00 </wgt>
<wgt id='1274'> +1.5579685e+00 </wgt>
<wgt id='1275'> +1.5654869e+00 </wgt>
<wgt id='1276'> +1.5584403e+00 </wgt>
<wgt id='1277'> +1.5643331e+00 </wgt>
<wgt id='1278'> +1.5546177e+00 </wgt>
<wgt id='1279'> +1.5668015e+00 </wgt>
<wgt id='1280'> +1.5643285e+00 </wgt>
<wgt id='1281'> +1.5531925e+00 </wgt>
<wgt id='1282'> +1.5730080e+00 </wgt>
<wgt id='1283'> +1.5485838e+00 </wgt>
<wgt id='1284'> +1.5582531e+00 </wgt>
<wgt id='1285'> +1.5648653e+00 </wgt>
<wgt id='1286'> +1.5729065e+00 </wgt>
<wgt id='1287'> +1.5603907e+00 </wgt>
<wgt id='1288'> +1.5608823e+00 </wgt>
<wgt id='1289'> +1.5614048e+00 </wgt>
<wgt id='1290'> +1.5630369e+00 </wgt>
<wgt id='1291'> +1.5606685e+00 </wgt>
<wgt id='1292'> +1.5677239e+00 </wgt>
<wgt id='1293'> +1.5517287e+00 </wgt>
<wgt id='1294'> +1.5502587e+00 </wgt>
<wgt id='1295'> +1.5655506e+00 </wgt>
<wgt id='1296'> +1.3814635e+00 </wgt>
<wgt id='1297'> +1.3849023e+00 </wgt>
<wgt id='1298'> +1.3785328e+00 </wgt>
<wgt id='1299'> +1.3744459e+00 </wgt>
<wgt id='1300'> +1.3891424e+00 </wgt>
<wgt id='1301'> +1.3773707e+00 </wgt>
<wgt id='1302'> +1.3873782e+00 </wgt>
<wgt id='1303'> +1.3806167e+00 </wgt>
<wgt id='1304'> +1.3818590e+00 </wgt>
<wgt id='1305'> +1.3833431e+00 </wgt>
<wgt id='1306'> +1.3786941e+00 </wgt>
<wgt id='1307'> +1.3912701e+00 </wgt>
<wgt id='1308'> +1.3753067e+00 </wgt>
<wgt id='1309'> +1.3829180e+00 </wgt>
<wgt id='1310'> +1.3792680e+00 </wgt>
<wgt id='1311'> +1.3833523e+00 </wgt>
<wgt id='1312'> +1.3805774e+00 </wgt>
<wgt id='1313'> +1.3831687e+00 </wgt>
<wgt id='1314'> +1.3785611e+00 </wgt>
<wgt id='1315'> +1.3764487e+00 </wgt>
<wgt id='1316'> +1.3861576e+00 </wgt>
<wgt id='1317'> +1.3721196e+00 </wgt>
<wgt id='1318'> +1.3984736e+00 </wgt>
<wgt id='1319'> +1.3865062e+00 </wgt>
<wgt id='1320'> +1.3789712e+00 </wgt>
<wgt id='1321'> +1.3784328e+00 </wgt>
<wgt id='1322'> +1.3830435e+00 </wgt>
<wgt id='1323'> +1.3868780e+00 </wgt>
<wgt id='1324'> +1.3757428e+00 </wgt>
<wgt id='1325'> +1.3814592e+00 </wgt>
<wgt id='1326'> +1.3819642e+00 </wgt>
<wgt id='1327'> +1.3837464e+00 </wgt>
<wgt id='1328'> +1.3805055e+00 </wgt>
<wgt id='1329'> +1.3822426e+00 </wgt>
<wgt id='1330'> +1.3808320e+00 </wgt>
<wgt id='1331'> +1.3856373e+00 </wgt>
<wgt id='1332'> +1.3819234e+00 </wgt>
<wgt id='1333'> +1.3881352e+00 </wgt>
<wgt id='1334'> +1.3712932e+00 </wgt>
<wgt id='1335'> +1.3852340e+00 </wgt>
<wgt id='1336'> +1.3806087e+00 </wgt>
<wgt id='1337'> +1.3814635e+00 </wgt>
<wgt id='1338'> +1.3822256e+00 </wgt>
<wgt id='1339'> +1.3818879e+00 </wgt>
<wgt id='1340'> +1.3816363e+00 </wgt>
<wgt id='1341'> +1.3812017e+00 </wgt>
<wgt id='1342'> +1.3810972e+00 </wgt>
<wgt id='1343'> +1.3808962e+00 </wgt>
<wgt id='1344'> +1.3569713e+00 </wgt>
<wgt id='1345'> +1.3623087e+00 </wgt>
<wgt id='1346'> +1.3517292e+00 </wgt>
<wgt id='1347'> +1.3693550e+00 </wgt>
<wgt id='1348'> +1.3478647e+00 </wgt>
<wgt id='1349'> +1.3550527e+00 </wgt>
<wgt id='1350'> +1.3585472e+00 </wgt>
<wgt id='1351'> +1.3571095e+00 </wgt>
<wgt id='1352'> +1.3568708e+00 </wgt>
<wgt id='1353'> +1.3612655e+00 </wgt>
<wgt id='1354'> +1.3540407e+00 </wgt>
<wgt id='1355'> +1.3535188e+00 </wgt>
<wgt id='1356'> +1.3596605e+00 </wgt>
<wgt id='1357'> +1.3608672e+00 </wgt>
<wgt id='1358'> +1.3545992e+00 </wgt>
<wgt id='1359'> +1.3557772e+00 </wgt>
<wgt id='1360'> +1.3595227e+00 </wgt>
<wgt id='1361'> +1.3645013e+00 </wgt>
<wgt id='1362'> +1.3514750e+00 </wgt>
<wgt id='1363'> +1.3634510e+00 </wgt>
<wgt id='1364'> +1.3491936e+00 </wgt>
<wgt id='1365'> +1.3584449e+00 </wgt>
<wgt id='1366'> +1.3568416e+00 </wgt>
<wgt id='1367'> +1.3522891e+00 </wgt>
<wgt id='1368'> +1.3595689e+00 </wgt>
<wgt id='1369'> +1.3517026e+00 </wgt>
<wgt id='1370'> +1.3621231e+00 </wgt>
<wgt id='1371'> +1.3548566e+00 </wgt>
<wgt id='1372'> +1.3604941e+00 </wgt>
<wgt id='1373'> +1.3592052e+00 </wgt>
<wgt id='1374'> +1.3559167e+00 </wgt>
<wgt id='1375'> +1.3611798e+00 </wgt>
<wgt id='1376'> +1.3557251e+00 </wgt>
<wgt id='1377'> +1.3572647e+00 </wgt>
<wgt id='1378'> +1.3563444e+00 </wgt>
<wgt id='1379'> +1.3598701e+00 </wgt>
<wgt id='1380'> +1.3594654e+00 </wgt>
<wgt id='1381'> +1.3529418e+00 </wgt>
<wgt id='1382'> +1.3547837e+00 </wgt>
<wgt id='1383'> +1.3564765e+00 </wgt>
<wgt id='1384'> +1.3609429e+00 </wgt>
<wgt id='1385'> +1.3569713e+00 </wgt>
<wgt id='1386'> +1.3575357e+00 </wgt>
<wgt id='1387'> +1.3572638e+00 </wgt>
<wgt id='1388'> +1.3571385e+00 </wgt>
<wgt id='1389'> +1.3567417e+00 </wgt>
<wgt id='1390'> +1.3566601e+00 </wgt>
<wgt id='1391'> +1.3566544e+00 </wgt>
<wgt id='1392'> +1.4407742e+00 </wgt>
<wgt id='1393'> +1.4409173e+00 </wgt>
<wgt id='1394'> +1.4406294e+00 </wgt>
<wgt id='1395'> +1.4415369e+00 </wgt>
<wgt id='1396'> +1.4403051e+00 </wgt>
<wgt id='1397'> +1.4464985e+00 </wgt>
<wgt id='1398'> +1.4352738e+00 </wgt>
<wgt id='1399'> +1.4505664e+00 </wgt>
<wgt id='1400'> +1.4287634e+00 </wgt>
<wgt id='1401'> +1.4340970e+00 </wgt>
<wgt id='1402'> +1.4490317e+00 </wgt>
<wgt id='1403'> +1.4385226e+00 </wgt>
<wgt id='1404'> +1.4453536e+00 </wgt>
<wgt id='1405'> +1.4395278e+00 </wgt>
<wgt id='1406'> +1.4426179e+00 </wgt>
<wgt id='1407'> +1.4385259e+00 </wgt>
<wgt id='1408'> +1.4423837e+00 </wgt>
<wgt id='1409'> +1.4389107e+00 </wgt>
<wgt id='1410'> +1.4428506e+00 </wgt>
<wgt id='1411'> +1.4412147e+00 </wgt>
<wgt id='1412'> +1.4405141e+00 </wgt>
<wgt id='1413'> +1.4486249e+00 </wgt>
<wgt id='1414'> +1.4324239e+00 </wgt>
<wgt id='1415'> +1.4476133e+00 </wgt>
<wgt id='1416'> +1.4332146e+00 </wgt>
<wgt id='1417'> +1.4404708e+00 </wgt>
<wgt id='1418'> +1.4410133e+00 </wgt>
<wgt id='1419'> +1.4433617e+00 </wgt>
<wgt id='1420'> +1.4389106e+00 </wgt>
<wgt id='1421'> +1.4465858e+00 </wgt>
<wgt id='1422'> +1.4341899e+00 </wgt>
<wgt id='1423'> +1.4469584e+00 </wgt>
<wgt id='1424'> +1.4363364e+00 </wgt>
<wgt id='1425'> +1.4413690e+00 </wgt>
<wgt id='1426'> +1.4400963e+00 </wgt>
<wgt id='1427'> +1.4388365e+00 </wgt>
<wgt id='1428'> +1.4440443e+00 </wgt>
<wgt id='1429'> +1.4400818e+00 </wgt>
<wgt id='1430'> +1.4415748e+00 </wgt>
<wgt id='1431'> +1.4409562e+00 </wgt>
<wgt id='1432'> +1.4404553e+00 </wgt>
<wgt id='1433'> +1.4349421e+00 </wgt>
<wgt id='1434'> +1.4466311e+00 </wgt>
<wgt id='1435'> +1.4403434e+00 </wgt>
<wgt id='1436'> +1.4433685e+00 </wgt>
<wgt id='1437'> +1.4406145e+00 </wgt>
<wgt id='1438'> +1.4416274e+00 </wgt>
<wgt id='1439'> +1.4449777e+00 </wgt>
<wgt id='1440'> +1.4306708e+00 </wgt>
<wgt id='1441'> +1.4440304e+00 </wgt>
<wgt id='1442'> +1.4396755e+00 </wgt>
<wgt id='1443'> +1.4412345e+00 </wgt>
<wgt id='1444'> +1.4414188e+00 </wgt>
<wgt id='1445'> +1.4410109e+00 </wgt>
<wgt id='1446'> +1.4420183e+00 </wgt>
<wgt id='1447'> +1.4406794e+00 </wgt>
<wgt id='1448'> +1.4473510e+00 </wgt>
<wgt id='1449'> +1.4354647e+00 </wgt>
<wgt id='1450'> +1.4507545e+00 </wgt>
<wgt id='1451'> +1.4306405e+00 </wgt>
<wgt id='1452'> +1.4348880e+00 </wgt>
<wgt id='1453'> +1.4473008e+00 </wgt>
<wgt id='1454'> +1.4386760e+00 </wgt>
<wgt id='1455'> +1.4468117e+00 </wgt>
<wgt id='1456'> +1.4397507e+00 </wgt>
<wgt id='1457'> +1.4438076e+00 </wgt>
<wgt id='1458'> +1.4391695e+00 </wgt>
<wgt id='1459'> +1.4423295e+00 </wgt>
<wgt id='1460'> +1.4392642e+00 </wgt>
<wgt id='1461'> +1.4433063e+00 </wgt>
<wgt id='1462'> +1.4422261e+00 </wgt>
<wgt id='1463'> +1.4403184e+00 </wgt>
<wgt id='1464'> +1.4481239e+00 </wgt>
<wgt id='1465'> +1.4320970e+00 </wgt>
<wgt id='1466'> +1.4498459e+00 </wgt>
<wgt id='1467'> +1.4344837e+00 </wgt>
<wgt id='1468'> +1.4388289e+00 </wgt>
<wgt id='1469'> +1.4437245e+00 </wgt>
<wgt id='1470'> +1.4435983e+00 </wgt>
<wgt id='1471'> +1.4396688e+00 </wgt>
<wgt id='1472'> +1.4459169e+00 </wgt>
<wgt id='1473'> +1.4356266e+00 </wgt>
<wgt id='1474'> +1.4457226e+00 </wgt>
<wgt id='1475'> +1.4363257e+00 </wgt>
<wgt id='1476'> +1.4413479e+00 </wgt>
<wgt id='1477'> +1.4410556e+00 </wgt>
<wgt id='1478'> +1.4395288e+00 </wgt>
<wgt id='1479'> +1.4442479e+00 </wgt>
<wgt id='1480'> +1.4405333e+00 </wgt>
<wgt id='1481'> +1.4421542e+00 </wgt>
<wgt id='1482'> +1.4411047e+00 </wgt>
<wgt id='1483'> +1.4411925e+00 </wgt>
<wgt id='1484'> +1.4350473e+00 </wgt>
<wgt id='1485'> +1.4472302e+00 </wgt>
<wgt id='1486'> +1.4415702e+00 </wgt>
<wgt id='1487'> +1.4432252e+00 </wgt>
<wgt id='1488'> +1.4407410e+00 </wgt>
<wgt id='1489'> +1.4425798e+00 </wgt>
<wgt id='1490'> +1.4465593e+00 </wgt>
<wgt id='1491'> +1.4304444e+00 </wgt>
<wgt id='1492'> +1.4458619e+00 </wgt>
<wgt id='1493'> +1.4393694e+00 </wgt>
<wgt id='1494'> +1.3754771e+00 </wgt>
<wgt id='1495'> +1.3772832e+00 </wgt>
<wgt id='1496'> +1.3771385e+00 </wgt>
<wgt id='1497'> +1.3766399e+00 </wgt>
<wgt id='1498'> +1.3736474e+00 </wgt>
<wgt id='1499'> +1.3751963e+00 </wgt>
<wgt id='1500'> +1.3866228e+00 </wgt>
<wgt id='1501'> +1.3843244e+00 </wgt>
<wgt id='1502'> +1.3821187e+00 </wgt>
<wgt id='1503'> +1.3797298e+00 </wgt>
<wgt id='1504'> +1.3775093e+00 </wgt>
<wgt id='1505'> +1.3732337e+00 </wgt>
<wgt id='1506'> +1.3710617e+00 </wgt>
<wgt id='1507'> +1.3690513e+00 </wgt>
<wgt id='1508'> +1.3751963e+00 </wgt>
<wgt id='1509'> +1.3763726e+00 </wgt>
<wgt id='1510'> +1.3757348e+00 </wgt>
<wgt id='1511'> +1.3747076e+00 </wgt>
<wgt id='1512'> +1.3742846e+00 </wgt>
<wgt id='1513'> +1.3586423e+00 </wgt>
<wgt id='1514'> +1.3581327e+00 </wgt>
<wgt id='1515'> +1.3592283e+00 </wgt>
<wgt id='1516'> +1.3610609e+00 </wgt>
<wgt id='1517'> +1.3561889e+00 </wgt>
<wgt id='1518'> +1.3608860e+00 </wgt>
<wgt id='1519'> +1.3577282e+00 </wgt>
<wgt id='1520'> +1.3707519e+00 </wgt>
<wgt id='1521'> +1.3465514e+00 </wgt>
<wgt id='1522'> +1.3552934e+00 </wgt>
<wgt id='1523'> +1.3619038e+00 </wgt>
<wgt id='1524'> +1.3684678e+00 </wgt>
<wgt id='1525'> +1.3543807e+00 </wgt>
<wgt id='1526'> +1.3595073e+00 </wgt>
<wgt id='1527'> +1.3574804e+00 </wgt>
<wgt id='1528'> +1.3554701e+00 </wgt>
<wgt id='1529'> +1.3620801e+00 </wgt>
<wgt id='1530'> +1.3630817e+00 </wgt>
<wgt id='1531'> +1.3560732e+00 </wgt>
<wgt id='1532'> +1.3553649e+00 </wgt>
<wgt id='1533'> +1.3630637e+00 </wgt>
<wgt id='1534'> +1.3508923e+00 </wgt>
<wgt id='1535'> +1.3640396e+00 </wgt>
<wgt id='1536'> +1.3566736e+00 </wgt>
<wgt id='1537'> +1.3604844e+00 </wgt>
<wgt id='1538'> +1.3565128e+00 </wgt>
<wgt id='1539'> +1.3630052e+00 </wgt>
<wgt id='1540'> +1.3614993e+00 </wgt>
<wgt id='1541'> +1.3558176e+00 </wgt>
<wgt id='1542'> +1.3548672e+00 </wgt>
<wgt id='1543'> +1.3695412e+00 </wgt>
<wgt id='1544'> +1.3596081e+00 </wgt>
<wgt id='1545'> +1.3559168e+00 </wgt>
<wgt id='1546'> +1.3555516e+00 </wgt>
<wgt id='1547'> +1.3636412e+00 </wgt>
<wgt id='1548'> +1.3625350e+00 </wgt>
<wgt id='1549'> +1.3560571e+00 </wgt>
<wgt id='1550'> +1.3586200e+00 </wgt>
<wgt id='1551'> +1.3584740e+00 </wgt>
<wgt id='1552'> +1.3589507e+00 </wgt>
<wgt id='1553'> +1.3582643e+00 </wgt>
<wgt id='1554'> +1.3598231e+00 </wgt>
<wgt id='1555'> +1.3547134e+00 </wgt>
<wgt id='1556'> +1.3587608e+00 </wgt>
<wgt id='1557'> +1.3614960e+00 </wgt>
<wgt id='1558'> +1.3502389e+00 </wgt>
<wgt id='1559'> +1.3627990e+00 </wgt>
<wgt id='1560'> +1.3616616e+00 </wgt>
<wgt id='1561'> +1.3570690e+00 </wgt>
<wgt id='1562'> +1.3523387e+00 </wgt>
<wgt id='1563'> +1.3617385e+00 </wgt>
<wgt id='1564'> +1.3586423e+00 </wgt>
<wgt id='1565'> +1.3599624e+00 </wgt>
<wgt id='1566'> +1.3521807e+00 </wgt>
<wgt id='1567'> +1.3563770e+00 </wgt>
<wgt id='1568'> +1.3661688e+00 </wgt>
<wgt id='1569'> +1.3641946e+00 </wgt>
<wgt id='1570'> +1.3621877e+00 </wgt>
<wgt id='1571'> +1.3602618e+00 </wgt>
<wgt id='1572'> +1.3581915e+00 </wgt>
<wgt id='1573'> +1.3544439e+00 </wgt>
<wgt id='1574'> +1.3520770e+00 </wgt>
<wgt id='1575'> +1.3502044e+00 </wgt>
<wgt id='1576'> +1.3563770e+00 </wgt>
<wgt id='1577'> +1.3577348e+00 </wgt>
<wgt id='1578'> +1.3569932e+00 </wgt>
<wgt id='1579'> +1.3557205e+00 </wgt>
<wgt id='1580'> +1.3551900e+00 </wgt>
<wgt id='1581'> +1.3757026e+00 </wgt>
<wgt id='1582'> +1.3748921e+00 </wgt>
<wgt id='1583'> +1.3811780e+00 </wgt>
<wgt id='1584'> +1.3697082e+00 </wgt>
<wgt id='1585'> +1.3786610e+00 </wgt>
<wgt id='1586'> +1.3719448e+00 </wgt>
<wgt id='1587'> +1.3513724e+00 </wgt>
<wgt id='1588'> +1.3764598e+00 </wgt>
<wgt id='1589'> +1.3765184e+00 </wgt>
<wgt id='1590'> +1.3723001e+00 </wgt>
<wgt id='1591'> +1.3732484e+00 </wgt>
<wgt id='1592'> +1.3829043e+00 </wgt>
<wgt id='1593'> +1.3790714e+00 </wgt>
<wgt id='1594'> +1.3731573e+00 </wgt>
<wgt id='1595'> +1.3759904e+00 </wgt>
<wgt id='1596'> +1.3842566e+00 </wgt>
<wgt id='1597'> +1.3792583e+00 </wgt>
<wgt id='1598'> +1.3814290e+00 </wgt>
<wgt id='1599'> +1.3761075e+00 </wgt>
<wgt id='1600'> +1.3799702e+00 </wgt>
<wgt id='1601'> +1.3743753e+00 </wgt>
<wgt id='1602'> +1.3742966e+00 </wgt>
<wgt id='1603'> +1.3747443e+00 </wgt>
<wgt id='1604'> +1.3770647e+00 </wgt>
<wgt id='1605'> +1.3775649e+00 </wgt>
<wgt id='1606'> +1.3754185e+00 </wgt>
<wgt id='1607'> +1.3790298e+00 </wgt>
<wgt id='1608'> +1.3733758e+00 </wgt>
<wgt id='1609'> +1.3743510e+00 </wgt>
<wgt id='1610'> +1.3745997e+00 </wgt>
<wgt id='1611'> +1.3799501e+00 </wgt>
<wgt id='1612'> +1.3420198e+00 </wgt>
<wgt id='1613'> +1.3386329e+00 </wgt>
<wgt id='1614'> +1.3472662e+00 </wgt>
<wgt id='1615'> +1.3469238e+00 </wgt>
<wgt id='1616'> +1.3411605e+00 </wgt>
<wgt id='1617'> +1.3415138e+00 </wgt>
<wgt id='1618'> +1.3428969e+00 </wgt>
<wgt id='1619'> +1.3356359e+00 </wgt>
<wgt id='1620'> +1.3418323e+00 </wgt>
<wgt id='1621'> +1.3449800e+00 </wgt>
<wgt id='1622'> +1.3446398e+00 </wgt>
<wgt id='1623'> +1.3414888e+00 </wgt>
<wgt id='1624'> +1.3412569e+00 </wgt>
<wgt id='1625'> +1.3450157e+00 </wgt>
<wgt id='1626'> +1.3490794e+00 </wgt>
<wgt id='1627'> +1.3398610e+00 </wgt>
<wgt id='1628'> +1.3423320e+00 </wgt>
<wgt id='1629'> +1.3434023e+00 </wgt>
<wgt id='1630'> +1.3445227e+00 </wgt>
<wgt id='1631'> +1.3430087e+00 </wgt>
<wgt id='1632'> +1.3445746e+00 </wgt>
<wgt id='1633'> +1.3385927e+00 </wgt>
<wgt id='1634'> +1.3462310e+00 </wgt>
<wgt id='1635'> +1.3404128e+00 </wgt>
<wgt id='1636'> +1.3441557e+00 </wgt>
<wgt id='1637'> +1.3458054e+00 </wgt>
<wgt id='1638'> +1.3410892e+00 </wgt>
<wgt id='1639'> +1.3454088e+00 </wgt>
<wgt id='1640'> +1.3428155e+00 </wgt>
<wgt id='1641'> +1.3290099e+00 </wgt>
<wgt id='1642'> +1.3392185e+00 </wgt>
<wgt id='1643'> +1.3401372e+00 </wgt>
<wgt id='1644'> +1.3391995e+00 </wgt>
<wgt id='1645'> +1.3427905e+00 </wgt>
<wgt id='1646'> +1.3422964e+00 </wgt>
<wgt id='1647'> +1.3403986e+00 </wgt>
<wgt id='1648'> +1.3412726e+00 </wgt>
<wgt id='1649'> +1.3438248e+00 </wgt>
<wgt id='1650'> +1.3395558e+00 </wgt>
<wgt id='1651'> +1.3422570e+00 </wgt>
<wgt id='1652'> +1.3434049e+00 </wgt>
<wgt id='1653'> +1.3411369e+00 </wgt>
<wgt id='1654'> +1.3394951e+00 </wgt>
<wgt id='1655'> +1.3444710e+00 </wgt>
<wgt id='1656'> +1.3413103e+00 </wgt>
<wgt id='1657'> +1.3441948e+00 </wgt>
<wgt id='1658'> +1.3439167e+00 </wgt>
<wgt id='1659'> +1.3458342e+00 </wgt>
<wgt id='1660'> +1.3457771e+00 </wgt>
<wgt id='1661'> +1.3438687e+00 </wgt>
<wgt id='1662'> +1.3518180e+00 </wgt>
<wgt id='1663'> +1.3502574e+00 </wgt>
<wgt id='1664'> +1.3412754e+00 </wgt>
<wgt id='1665'> +1.3440898e+00 </wgt>
<wgt id='1666'> +1.3481819e+00 </wgt>
<wgt id='1667'> +1.3435418e+00 </wgt>
<wgt id='1668'> +1.3422275e+00 </wgt>
<wgt id='1669'> +1.3442005e+00 </wgt>
<wgt id='1670'> +1.3532569e+00 </wgt>
<wgt id='1671'> +1.3489403e+00 </wgt>
<wgt id='1672'> +1.3427225e+00 </wgt>
<wgt id='1673'> +1.3456522e+00 </wgt>
<wgt id='1674'> +1.3413651e+00 </wgt>
<wgt id='1675'> +1.3441672e+00 </wgt>
<wgt id='1676'> +1.3465560e+00 </wgt>
<wgt id='1677'> +1.3446071e+00 </wgt>
<wgt id='1678'> +1.3400313e+00 </wgt>
<wgt id='1679'> +1.3447124e+00 </wgt>
<wgt id='1680'> +1.3395516e+00 </wgt>
<wgt id='1681'> +1.3433830e+00 </wgt>
<wgt id='1682'> +1.3390307e+00 </wgt>
<wgt id='1683'> +1.3438353e+00 </wgt>
<wgt id='1684'> +1.3395576e+00 </wgt>
<wgt id='1685'> +1.3393420e+00 </wgt>
<wgt id='1686'> +1.3427327e+00 </wgt>
<wgt id='1687'> +1.3415347e+00 </wgt>
<wgt id='1688'> +1.3447203e+00 </wgt>
<wgt id='1689'> +1.3410273e+00 </wgt>
<wgt id='1690'> +1.3454986e+00 </wgt>
<wgt id='1691'> +1.3445336e+00 </wgt>
<wgt id='1692'> +1.3435977e+00 </wgt>
<wgt id='1693'> +1.3381036e+00 </wgt>
<wgt id='1694'> +1.3409269e+00 </wgt>
<wgt id='1695'> +1.3444393e+00 </wgt>
<wgt id='1696'> +1.3448284e+00 </wgt>
<wgt id='1697'> +1.3421658e+00 </wgt>
<wgt id='1698'> +1.3394375e+00 </wgt>
<wgt id='1699'> +1.3451441e+00 </wgt>
<wgt id='1700'> +1.3378625e+00 </wgt>
<wgt id='1701'> +1.3436607e+00 </wgt>
<wgt id='1702'> +1.3412073e+00 </wgt>
<wgt id='1703'> +1.3430860e+00 </wgt>
<wgt id='1704'> +1.3405814e+00 </wgt>
<wgt id='1705'> +1.3447998e+00 </wgt>
<wgt id='1706'> +1.3442370e+00 </wgt>
<wgt id='1707'> +1.3410823e+00 </wgt>
<wgt id='1708'> +1.3425777e+00 </wgt>
<wgt id='1709'> +1.3450857e+00 </wgt>
<wgt id='1710'> +1.3419105e+00 </wgt>
<wgt id='1711'> +1.3429782e+00 </wgt>
<wgt id='1712'> +1.3427982e+00 </wgt>
<wgt id='1713'> +1.3253058e+00 </wgt>
<wgt id='1714'> +1.3545564e+00 </wgt>
<wgt id='1715'> +1.2928293e+00 </wgt>
<wgt id='1716'> +1.2722083e+00 </wgt>
<wgt id='1717'> +1.2892858e+00 </wgt>
<wgt id='1718'> +1.2181365e+00 </wgt>
<wgt id='1719'> +1.2472666e+00 </wgt>
<wgt id='1720'> +1.3251217e+00 </wgt>
<wgt id='1721'> +1.2333542e+00 </wgt>
<wgt id='1722'> +1.2783684e+00 </wgt>
<wgt id='1723'> +1.3074540e+00 </wgt>
<wgt id='1724'> +1.3484576e+00 </wgt>
<wgt id='1725'> +1.3216749e+00 </wgt>
<wgt id='1726'> +1.3315619e+00 </wgt>
<wgt id='1727'> +1.2866668e+00 </wgt>
<wgt id='1728'> +1.3073428e+00 </wgt>
<wgt id='1729'> +1.2985336e+00 </wgt>
<wgt id='1730'> +1.3186749e+00 </wgt>
<wgt id='1731'> +1.2521259e+00 </wgt>
<wgt id='1732'> +1.3095477e+00 </wgt>
<wgt id='1733'> +1.3357091e+00 </wgt>
<wgt id='1734'> +1.3169013e+00 </wgt>
<wgt id='1735'> +1.2716668e+00 </wgt>
<wgt id='1736'> +1.2767342e+00 </wgt>
<wgt id='1737'> +1.2934524e+00 </wgt>
<wgt id='1738'> +1.2940786e+00 </wgt>
<wgt id='1739'> +1.2372952e+00 </wgt>
<wgt id='1740'> +1.2725458e+00 </wgt>
<wgt id='1741'> +1.3136729e+00 </wgt>
<wgt id='1742'> +1.3411744e+00 </wgt>
<wgt id='1743'> +1.3009645e+00 </wgt>
<wgt id='1744'> +1.3014926e+00 </wgt>
<wgt id='1745'> +1.2531777e+00 </wgt>
<wgt id='1746'> +1.2066804e+00 </wgt>
<wgt id='1747'> +1.2755344e+00 </wgt>
<wgt id='1748'> +1.2898167e+00 </wgt>
<wgt id='1749'> +1.3139182e+00 </wgt>
<wgt id='1750'> +1.3072223e+00 </wgt>
<wgt id='1751'> +1.2855437e+00 </wgt>
<wgt id='1752'> +1.2261126e+00 </wgt>
<wgt id='1753'> +1.2778448e+00 </wgt>
<wgt id='1754'> +1.3405683e+00 </wgt>
<wgt id='1755'> +1.2932640e+00 </wgt>
<wgt id='1756'> +1.2878078e+00 </wgt>
<wgt id='1757'> +1.2625609e+00 </wgt>
<wgt id='1758'> +1.2468604e+00 </wgt>
<wgt id='1759'> +1.2670059e+00 </wgt>
<wgt id='1760'> +1.2468687e+00 </wgt>
<wgt id='1761'> +1.2896493e+00 </wgt>
<wgt id='1762'> +1.2866668e+00 </wgt>
<wgt id='1763'> +1.2824064e+00 </wgt>
<wgt id='1764'> +1.3349502e+00 </wgt>
<wgt id='1765'> +1.3065584e+00 </wgt>
<wgt id='1766'> +1.3805695e+00 </wgt>
<wgt id='1767'> +1.3160596e+00 </wgt>
<wgt id='1768'> +1.2755468e+00 </wgt>
<wgt id='1769'> +1.2833621e+00 </wgt>
<wgt id='1770'> +1.2963552e+00 </wgt>
<wgt id='1771'> +1.2890047e+00 </wgt>
<wgt id='1772'> +1.3214392e+00 </wgt>
<wgt id='1773'> +1.2934063e+00 </wgt>
<wgt id='1774'> +1.3145652e+00 </wgt>
<wgt id='1775'> +1.3314563e+00 </wgt>
<wgt id='1776'> +1.3172186e+00 </wgt>
<wgt id='1777'> +1.3000462e+00 </wgt>
<wgt id='1778'> +1.2795011e+00 </wgt>
<wgt id='1779'> +1.2769705e+00 </wgt>
<wgt id='1780'> +1.3164060e+00 </wgt>
<wgt id='1781'> +1.2797030e+00 </wgt>
<wgt id='1782'> +1.3242788e+00 </wgt>
<wgt id='1783'> +1.2399307e+00 </wgt>
<wgt id='1784'> +1.3143400e+00 </wgt>
<wgt id='1785'> +1.2712961e+00 </wgt>
<wgt id='1786'> +1.3231321e+00 </wgt>
<wgt id='1787'> +1.3215380e+00 </wgt>
<wgt id='1788'> +1.2887773e+00 </wgt>
<wgt id='1789'> +1.2993588e+00 </wgt>
<wgt id='1790'> +1.2679880e+00 </wgt>
<wgt id='1791'> +1.2372967e+00 </wgt>
<wgt id='1792'> +1.2761895e+00 </wgt>
<wgt id='1793'> +1.3671165e+00 </wgt>
<wgt id='1794'> +1.3214889e+00 </wgt>
<wgt id='1795'> +1.3140993e+00 </wgt>
<wgt id='1796'> +1.2707870e+00 </wgt>
<wgt id='1797'> +1.2401871e+00 </wgt>
<wgt id='1798'> +1.3820852e+00 </wgt>
<wgt id='1799'> +1.3436672e+00 </wgt>
<wgt id='1800'> +1.3055565e+00 </wgt>
<wgt id='1801'> +1.2882614e+00 </wgt>
<wgt id='1802'> +1.2991021e+00 </wgt>
<wgt id='1803'> +1.2924324e+00 </wgt>
<wgt id='1804'> +1.2623506e+00 </wgt>
<wgt id='1805'> +1.2955650e+00 </wgt>
<wgt id='1806'> +1.3325354e+00 </wgt>
<wgt id='1807'> +1.2374207e+00 </wgt>
<wgt id='1808'> +1.3141860e+00 </wgt>
<wgt id='1809'> +1.2876668e+00 </wgt>
<wgt id='1810'> +1.2817980e+00 </wgt>
<wgt id='1811'> +1.3060855e+00 </wgt>
<wgt id='1812'> +1.2577805e+00 </wgt>
<wgt id='1813'> +1.3235744e+00 </wgt>
<wgt id='1814'> +1.2407197e+00 </wgt>
<wgt id='1815'> +1.3009020e+00 </wgt>
<wgt id='1816'> +1.3889968e+00 </wgt>
<wgt id='1817'> +1.4029969e+00 </wgt>
<wgt id='1818'> +1.3396641e+00 </wgt>
<wgt id='1819'> +1.3849285e+00 </wgt>
<wgt id='1820'> +1.4093341e+00 </wgt>
<wgt id='1821'> +1.4415353e+00 </wgt>
<wgt id='1822'> +1.3889622e+00 </wgt>
<wgt id='1823'> +1.3975130e+00 </wgt>
<wgt id='1824'> +1.3434114e+00 </wgt>
<wgt id='1825'> +1.4046885e+00 </wgt>
<wgt id='1826'> +1.3887980e+00 </wgt>
<wgt id='1827'> +1.3572947e+00 </wgt>
<wgt id='1828'> +1.4188038e+00 </wgt>
<wgt id='1829'> +1.3812748e+00 </wgt>
<wgt id='1830'> +1.3493765e+00 </wgt>
<wgt id='1831'> +1.3670781e+00 </wgt>
<wgt id='1832'> +1.4093331e+00 </wgt>
<wgt id='1833'> +1.3715315e+00 </wgt>
<wgt id='1834'> +1.3958121e+00 </wgt>
<wgt id='1835'> +1.3966619e+00 </wgt>
<wgt id='1836'> +1.4039626e+00 </wgt>
<wgt id='1837'> +1.4067471e+00 </wgt>
<wgt id='1838'> +1.3770308e+00 </wgt>
<wgt id='1839'> +1.4573712e+00 </wgt>
<wgt id='1840'> +1.3846002e+00 </wgt>
<wgt id='1841'> +1.3594844e+00 </wgt>
<wgt id='1842'> +1.4097853e+00 </wgt>
<wgt id='1843'> +1.3818515e+00 </wgt>
<wgt id='1844'> +1.3796825e+00 </wgt>
<wgt id='1845'> +1.3717530e+00 </wgt>
<wgt id='1846'> +1.4043758e+00 </wgt>
<wgt id='1847'> +1.3820153e+00 </wgt>
<wgt id='1848'> +1.3710342e+00 </wgt>
<wgt id='1849'> +1.3759035e+00 </wgt>
<wgt id='1850'> +1.4228704e+00 </wgt>
<wgt id='1851'> +1.4047684e+00 </wgt>
<wgt id='1852'> +1.3960655e+00 </wgt>
<wgt id='1853'> +1.3452587e+00 </wgt>
<wgt id='1854'> +1.4114129e+00 </wgt>
<wgt id='1855'> +1.4211572e+00 </wgt>
<wgt id='1856'> +1.3898845e+00 </wgt>
<wgt id='1857'> +1.4386526e+00 </wgt>
<wgt id='1858'> +1.3811858e+00 </wgt>
<wgt id='1859'> +1.4082553e+00 </wgt>
<wgt id='1860'> +1.3959662e+00 </wgt>
<wgt id='1861'> +1.3960295e+00 </wgt>
<wgt id='1862'> +1.4427642e+00 </wgt>
<wgt id='1863'> +1.3557442e+00 </wgt>
<wgt id='1864'> +1.3870127e+00 </wgt>
<wgt id='1865'> +1.3372092e+00 </wgt>
<wgt id='1866'> +1.3720039e+00 </wgt>
<wgt id='1867'> +1.3954832e+00 </wgt>
<wgt id='1868'> +1.3781067e+00 </wgt>
<wgt id='1869'> +1.4046505e+00 </wgt>
<wgt id='1870'> +1.4020397e+00 </wgt>
<wgt id='1871'> +1.3956791e+00 </wgt>
<wgt id='1872'> +1.3823875e+00 </wgt>
<wgt id='1873'> +1.4289136e+00 </wgt>
<wgt id='1874'> +1.3660481e+00 </wgt>
<wgt id='1875'> +1.3321876e+00 </wgt>
<wgt id='1876'> +1.3697556e+00 </wgt>
<wgt id='1877'> +1.3672358e+00 </wgt>
<wgt id='1878'> +1.3355336e+00 </wgt>
<wgt id='1879'> +1.4350929e+00 </wgt>
<wgt id='1880'> +1.3333965e+00 </wgt>
<wgt id='1881'> +1.4265750e+00 </wgt>
<wgt id='1882'> +1.3956377e+00 </wgt>
<wgt id='1883'> +1.4754582e+00 </wgt>
<wgt id='1884'> +1.3861923e+00 </wgt>
<wgt id='1885'> +1.4028589e+00 </wgt>
<wgt id='1886'> +1.3534569e+00 </wgt>
<wgt id='1887'> +1.4400922e+00 </wgt>
<wgt id='1888'> +1.3871837e+00 </wgt>
<wgt id='1889'> +1.4156459e+00 </wgt>
<wgt id='1890'> +1.4240123e+00 </wgt>
<wgt id='1891'> +1.3350821e+00 </wgt>
<wgt id='1892'> +1.3582965e+00 </wgt>
<wgt id='1893'> +1.3862487e+00 </wgt>
<wgt id='1894'> +1.4123121e+00 </wgt>
<wgt id='1895'> +1.4054689e+00 </wgt>
<wgt id='1896'> +1.3801164e+00 </wgt>
<wgt id='1897'> +1.3852957e+00 </wgt>
<wgt id='1898'> +1.3671476e+00 </wgt>
<wgt id='1899'> +1.3842703e+00 </wgt>
<wgt id='1900'> +1.4218682e+00 </wgt>
<wgt id='1901'> +1.3259451e+00 </wgt>
<wgt id='1902'> +1.3722745e+00 </wgt>
<wgt id='1903'> +1.3578965e+00 </wgt>
<wgt id='1904'> +1.3861415e+00 </wgt>
<wgt id='1905'> +1.4001135e+00 </wgt>
<wgt id='1906'> +1.3573480e+00 </wgt>
<wgt id='1907'> +1.4009643e+00 </wgt>
<wgt id='1908'> +1.4169524e+00 </wgt>
<wgt id='1909'> +1.3980992e+00 </wgt>
<wgt id='1910'> +1.4195206e+00 </wgt>
<wgt id='1911'> +1.2916121e+00 </wgt>
<wgt id='1912'> +1.4065947e+00 </wgt>
<wgt id='1913'> +1.3904512e+00 </wgt>
<wgt id='1914'> +1.4267178e+00 </wgt>
<wgt id='1915'> +1.3994272e+00 </wgt>
<wgt id='1916'> +1.3551951e+00 </wgt>
<wgt id='1917'> +1.5864817e+00 </wgt>
<wgt id='1918'> +1.6385850e+00 </wgt>
<wgt id='1919'> +1.3889968e+00 </wgt>
<wgt id='1920'> +1.4029969e+00 </wgt>
<wgt id='1921'> +1.3396641e+00 </wgt>
<wgt id='1922'> +1.3849285e+00 </wgt>
<wgt id='1923'> +1.4093341e+00 </wgt>
<wgt id='1924'> +1.4415353e+00 </wgt>
<wgt id='1925'> +1.3889622e+00 </wgt>
<wgt id='1926'> +1.3975130e+00 </wgt>
<wgt id='1927'> +1.3434114e+00 </wgt>
<wgt id='1928'> +1.4046885e+00 </wgt>
<wgt id='1929'> +1.3887980e+00 </wgt>
<wgt id='1930'> +1.3572947e+00 </wgt>
<wgt id='1931'> +1.4188038e+00 </wgt>
<wgt id='1932'> +1.3812748e+00 </wgt>
<wgt id='1933'> +1.3493765e+00 </wgt>
<wgt id='1934'> +1.3670781e+00 </wgt>
<wgt id='1935'> +1.4093331e+00 </wgt>
<wgt id='1936'> +1.3715315e+00 </wgt>
<wgt id='1937'> +1.3958121e+00 </wgt>
<wgt id='1938'> +1.3966619e+00 </wgt>
<wgt id='1939'> +1.4039626e+00 </wgt>
<wgt id='1940'> +1.4067471e+00 </wgt>
<wgt id='1941'> +1.3770308e+00 </wgt>
<wgt id='1942'> +1.4573712e+00 </wgt>
<wgt id='1943'> +1.3846002e+00 </wgt>
<wgt id='1944'> +1.3594844e+00 </wgt>
<wgt id='1945'> +1.4097853e+00 </wgt>
<wgt id='1946'> +1.3818515e+00 </wgt>
<wgt id='1947'> +1.3796825e+00 </wgt>
<wgt id='1948'> +1.3717530e+00 </wgt>
<wgt id='1949'> +1.4043758e+00 </wgt>
<wgt id='1950'> +1.3820153e+00 </wgt>
<wgt id='1951'> +1.3710342e+00 </wgt>
<wgt id='1952'> +1.3759035e+00 </wgt>
<wgt id='1953'> +1.4228704e+00 </wgt>
<wgt id='1954'> +1.4047684e+00 </wgt>
<wgt id='1955'> +1.3960655e+00 </wgt>
<wgt id='1956'> +1.3452587e+00 </wgt>
<wgt id='1957'> +1.4114129e+00 </wgt>
<wgt id='1958'> +1.4211572e+00 </wgt>
<wgt id='1959'> +1.3898845e+00 </wgt>
<wgt id='1960'> +1.4386526e+00 </wgt>
<wgt id='1961'> +1.3811858e+00 </wgt>
<wgt id='1962'> +1.4082553e+00 </wgt>
<wgt id='1963'> +1.3959662e+00 </wgt>
<wgt id='1964'> +1.3960295e+00 </wgt>
<wgt id='1965'> +1.4427642e+00 </wgt>
<wgt id='1966'> +1.3557442e+00 </wgt>
<wgt id='1967'> +1.3870127e+00 </wgt>
<wgt id='1968'> +1.3372092e+00 </wgt>
<wgt id='1969'> +1.3720039e+00 </wgt>
<wgt id='1970'> +1.3954832e+00 </wgt>
<wgt id='1971'> +1.3781067e+00 </wgt>
<wgt id='1972'> +1.4046505e+00 </wgt>
<wgt id='1973'> +1.4020397e+00 </wgt>
<wgt id='1974'> +1.3956791e+00 </wgt>
<wgt id='1975'> +1.3823875e+00 </wgt>
<wgt id='1976'> +1.4289136e+00 </wgt>
<wgt id='1977'> +1.3660481e+00 </wgt>
<wgt id='1978'> +1.3321876e+00 </wgt>
<wgt id='1979'> +1.3697556e+00 </wgt>
<wgt id='1980'> +1.3672358e+00 </wgt>
<wgt id='1981'> +1.3355336e+00 </wgt>
<wgt id='1982'> +1.4350929e+00 </wgt>
<wgt id='1983'> +1.3333965e+00 </wgt>
<wgt id='1984'> +1.4265750e+00 </wgt>
<wgt id='1985'> +1.3956377e+00 </wgt>
<wgt id='1986'> +1.4754582e+00 </wgt>
<wgt id='1987'> +1.3861923e+00 </wgt>
<wgt id='1988'> +1.4028589e+00 </wgt>
<wgt id='1989'> +1.3534569e+00 </wgt>
<wgt id='1990'> +1.4400922e+00 </wgt>
<wgt id='1991'> +1.3871837e+00 </wgt>
<wgt id='1992'> +1.4156459e+00 </wgt>
<wgt id='1993'> +1.4240123e+00 </wgt>
<wgt id='1994'> +1.3350821e+00 </wgt>
<wgt id='1995'> +1.3582965e+00 </wgt>
<wgt id='1996'> +1.3862487e+00 </wgt>
<wgt id='1997'> +1.4123121e+00 </wgt>
<wgt id='1998'> +1.4054689e+00 </wgt>
<wgt id='1999'> +1.3801164e+00 </wgt>
<wgt id='2000'> +1.3852957e+00 </wgt>
<wgt id='2001'> +1.3671476e+00 </wgt>
<wgt id='2002'> +1.3842703e+00 </wgt>
<wgt id='2003'> +1.4218682e+00 </wgt>
<wgt id='2004'> +1.3259451e+00 </wgt>
<wgt id='2005'> +1.3722745e+00 </wgt>
<wgt id='2006'> +1.3578965e+00 </wgt>
<wgt id='2007'> +1.3861415e+00 </wgt>
<wgt id='2008'> +1.4001135e+00 </wgt>
<wgt id='2009'> +1.3573480e+00 </wgt>
<wgt id='2010'> +1.4009643e+00 </wgt>
<wgt id='2011'> +1.4169524e+00 </wgt>
<wgt id='2012'> +1.3980992e+00 </wgt>
<wgt id='2013'> +1.4195206e+00 </wgt>
<wgt id='2014'> +1.2916121e+00 </wgt>
<wgt id='2015'> +1.4065947e+00 </wgt>
<wgt id='2016'> +1.3904512e+00 </wgt>
<wgt id='2017'> +1.4267178e+00 </wgt>
<wgt id='2018'> +1.3994272e+00 </wgt>
<wgt id='2019'> +1.3551951e+00 </wgt>
<wgt id='2020'> +1.3934133e+00 </wgt>
<wgt id='2021'> +1.3905982e+00 </wgt>
<wgt id='2022'> +1.3684932e+00 </wgt>
</rwgt>
</event>
<event>
 13 1 0.0079112 1.30336600e+02 7.81860800e-03 1.07397500e-01
       21 -1    0    0  502  503 +0.0000000000e+00 +0.0000000000e+00 +1.0196240065e+03 1.0196240065e+03 0.0000000000e+00 0.0000e+00 -1.0000e+00
        2 -1    0    0  501    0 +0.0000000000e+00 +0.0000000000e+00 -1.7023378675e+03 1.7023378675e+03 2.5500000000e-03 0.0000e+00 -1.0000e+00
  8000001  2    1    2  502    0 -7.1531761144e+01 -1.2420768095e+02 +5.8866298987e+02 8.5268259454e+02 5.9999929212e+02 0.0000e+00 0.0000e+00
        1  1    1    2  501    0 +4.9823574553e+01 +1.0752163264e+02 -1.5674413964e+03 1.5719146991e+03 5.0400000000e-03 0.0000e+00 -1.0000e+00
       -5  1    1    2    0  503 +2.1708186591e+01 +1.6686048300e+01 +2.9606454558e+02 2.9736458031e+02 4.6700000000e+00 0.0000e+00 1.0000e+00
        6  2    3    3  502    0 +1.4821359464e+02 +1.3307222835e+02 +2.9570613636e+02 3.9583090605e+02 1.7194330318e+02 0.0000e+00 0.0000e+00
        5  1    6    6  502    0 +8.1115994918e+01 -1.1387626456e+01 +1.0974349079e+02 1.3702162362e+02 4.6700000000e+00 0.0000e+00 -1.0000e+00
       24  2    6    6    0    0 +6.7097599726e+01 +1.4445985481e+02 +1.8596264557e+02 2.5880928243e+02 8.3841526611e+01 0.0000e+00 0.0000e+00
        2  1    8    8  504    0 +6.8623357851e+01 +1.4190181751e+02 +1.3435237906e+02 2.0711314014e+02 2.5500000000e-03 0.0000e+00 -1.0000e+00
       -1  1    8    8    0  504 -1.5257581252e+00 +2.5580373035e+00 +5.1610266513e+01 5.1696142290e+01 5.0400000000e-03 0.0000e+00 1.0000e+00
       23  2    3    3    0    0 -2.1974535579e+02 -2.5727990930e+02 +2.9295685351e+02 4.5685168849e+02 9.1699368242e+01 0.0000e+00 0.0000e+00
        3  1   11   11  505    0 -1.0109333419e+01 -2.2862866011e+01 -2.7876957208e+00 2.5153343969e+01 1.0100000000e-01 0.0000e+00 -1.0000e+00
       -3  1   11   11    0  505 -2.0963602237e+02 -2.3441704329e+02 +2.9574454924e+02 4.3169834452e+02 1.0100000000e-01 0.0000e+00 1.0000e+00
<mgrwt>
<rscale>  1 0.12431912e+03</rscale>
<asrwt>0</asrwt>
<pdfrwt beam="1">  1       21 0.15686523e+00 0.13033659e+03</pdfrwt>
<pdfrwt beam="2">  1        2 0.26189813e+00 0.11857947e+03</pdfrwt>
<totfact> 0.39548826e+01</totfact>
</mgrwt>
<rwgt>
<wgt id='1001'> +1.3581722e+00 </wgt>
<wgt id='1002'> +7.6573399e-01 </wgt>
<wgt id='1003'> +7.6558849e-01 </wgt>
<wgt id='1004'> +9.4511734e-01 </wgt>
<wgt id='1005'> +5.3925962e-01 </wgt>
<wgt id='1006'> +1.2301923e+00 </wgt>
<wgt id='1007'> +7.0809816e-01 </wgt>
<wgt id='1008'> +7.0796787e-01 </wgt>
<wgt id='1009'> +8.6791578e-01 </wgt>
<wgt id='1010'> +5.0381813e-01 </wgt>
<wgt id='1011'> +1.5169434e+00 </wgt>
<wgt id='1012'> +8.3385242e-01 </wgt>
<wgt id='1013'> +8.3368799e-01 </wgt>
<wgt id='1014'> +1.0378487e+00 </wgt>
<wgt id='1015'> +5.8018328e-01 </wgt>
<wgt id='1016'> +1.1787000e+00 </wgt>
<wgt id='1017'> +6.8154079e-01 </wgt>
<wgt id='1018'> +6.8141575e-01 </wgt>
<wgt id='1019'> +8.3368799e-01 </wgt>
<wgt id='1020'> +4.8638587e-01 </wgt>
<wgt id='1021'> +1.0676317e+00 </wgt>
<wgt id='1022'> +6.3024207e-01 </wgt>
<wgt id='1023'> +6.3013024e-01 </wgt>
<wgt id='1024'> +7.6558849e-01 </wgt>
<wgt id='1025'> +4.5441938e-01 </wgt>
<wgt id='1026'> +1.3164908e+00 </wgt>
<wgt id='1027'> +7.4216953e-01 </wgt>
<wgt id='1028'> +7.4202804e-01 </wgt>
<wgt id='1029'> +9.1548632e-01 </wgt>
<wgt id='1030'> +5.2329702e-01 </wgt>
<wgt id='1031'> +1.5857893e+00 </wgt>
<wgt id='1032'> +8.6808945e-01 </wgt>
<wgt id='1033'> +8.6791578e-01 </wgt>
<wgt id='1034'> +1.0823082e+00 </wgt>
<wgt id='1035'> +6.0191647e-01 </wgt>
<wgt id='1036'> +1.4363611e+00 </wgt>
<wgt id='1037'> +8.0274945e-01 </wgt>
<wgt id='1038'> +8.0259369e-01 </wgt>
<wgt id='1039'> +9.9390026e-01 </wgt>
<wgt id='1040'> +5.6235701e-01 </wgt>
<wgt id='1041'> +1.7711691e+00 </wgt>
<wgt id='1042'> +9.4531325e-01 </wgt>
<wgt id='1043'> +9.4511734e-01 </wgt>
<wgt id='1044'> +1.1885002e+00 </wgt>
<wgt id='1045'> +6.4759507e-01 </wgt>
<wgt id='1046'> +1.3581722e+00 </wgt>
<wgt id='1047'> +1.3581722e+00 </wgt>
<wgt id='1048'> +1.3581722e+00 </wgt>
<wgt id='1049'> +1.3548088e+00 </wgt>
<wgt id='1050'> +1.3580769e+00 </wgt>
<wgt id='1051'> +1.3589501e+00 </wgt>
<wgt id='1052'> +1.3585758e+00 </wgt>
<wgt id='1053'> +1.3570812e+00 </wgt>
<wgt id='1054'> +1.3576755e+00 </wgt>
<wgt id='1055'> +1.3540744e+00 </wgt>
<wgt id='1056'> +1.3527510e+00 </wgt>
<wgt id='1057'> +1.3609464e+00 </wgt>
<wgt id='1058'> +1.3572938e+00 </wgt>
<wgt id='1059'> +1.3626027e+00 </wgt>
<wgt id='1060'> +1.3590755e+00 </wgt>
<wgt id='1061'> +1.3591464e+00 </wgt>
<wgt id='1062'> +1.3602771e+00 </wgt>
<wgt id='1063'> +1.3570934e+00 </wgt>
<wgt id='1064'> +1.3595181e+00 </wgt>
<wgt id='1065'> +1.3618776e+00 </wgt>
<wgt id='1066'> +1.3481645e+00 </wgt>
<wgt id='1067'> +1.3498358e+00 </wgt>
<wgt id='1068'> +1.3521693e+00 </wgt>
<wgt id='1069'> +1.3580202e+00 </wgt>
<wgt id='1070'> +1.3591752e+00 </wgt>
<wgt id='1071'> +1.3577605e+00 </wgt>
<wgt id='1072'> +1.3525891e+00 </wgt>
<wgt id='1073'> +1.3622289e+00 </wgt>
<wgt id='1074'> +1.3622600e+00 </wgt>
<wgt id='1075'> +1.3617946e+00 </wgt>
<wgt id='1076'> +1.3539300e+00 </wgt>
<wgt id='1077'> +1.3631287e+00 </wgt>
<wgt id='1078'> +1.3592286e+00 </wgt>
<wgt id='1079'> +1.3624039e+00 </wgt>
<wgt id='1080'> +1.3603422e+00 </wgt>
<wgt id='1081'> +1.3587305e+00 </wgt>
<wgt id='1082'> +1.3568662e+00 </wgt>
<wgt id='1083'> +1.3576179e+00 </wgt>
<wgt id='1084'> +1.3550044e+00 </wgt>
<wgt id='1085'> +1.3580660e+00 </wgt>
<wgt id='1086'> +1.3542709e+00 </wgt>
<wgt id='1087'> +1.3566076e+00 </wgt>
<wgt id='1088'> +1.3559741e+00 </wgt>
<wgt id='1089'> +1.3553300e+00 </wgt>
<wgt id='1090'> +1.3597120e+00 </wgt>
<wgt id='1091'> +1.3563178e+00 </wgt>
<wgt id='1092'> +1.3567291e+00 </wgt>
<wgt id='1093'> +1.3579614e+00 </wgt>
<wgt id='1094'> +1.3571016e+00 </wgt>
<wgt id='1095'> +1.3561960e+00 </wgt>
<wgt id='1096'> +1.3560520e+00 </wgt>
<wgt id='1097'> +1.3569537e+00 </wgt>
<wgt id='1098'> +1.3567033e+00 </wgt>
<wgt id='1099'> +1.3570018e+00 </wgt>
<wgt id='1100'> +1.3607294e+00 </wgt>
<wgt id='1101'> +1.3571565e+00 </wgt>
<wgt id='1102'> +1.3570371e+00 </wgt>
<wgt id='1103'> +1.3585855e+00 </wgt>
<wgt id='1104'> +1.3575744e+00 </wgt>
<wgt id='1105'> +1.3588648e+00 </wgt>
<wgt id='1106'> +1.3603449e+00 </wgt>
<wgt id='1107'> +1.3565043e+00 </wgt>
<wgt id='1108'> +1.3584944e+00 </wgt>
<wgt id='1109'> +1.3587105e+00 </wgt>
<wgt id='1110'> +1.3589240e+00 </wgt>
<wgt id='1111'> +1.3568072e+00 </wgt>
<wgt id='1112'> +1.3592255e+00 </wgt>
<wgt id='1113'> +1.3575031e+00 </wgt>
<wgt id='1114'> +1.3538866e+00 </wgt>
<wgt id='1115'> +1.3585286e+00 </wgt>
<wgt id='1116'> +1.3598891e+00 </wgt>
<wgt id='1117'> +1.3592050e+00 </wgt>
<wgt id='1118'> +1.3585058e+00 </wgt>
<wgt id='1119'> +1.3588408e+00 </wgt>
<wgt id='1120'> +1.3564297e+00 </wgt>
<wgt id='1121'> +1.3601781e+00 </wgt>
<wgt id='1122'> +1.3583299e+00 </wgt>
<wgt id='1123'> +1.3587092e+00 </wgt>
<wgt id='1124'> +1.3572869e+00 </wgt>
<wgt id='1125'> +1.3578749e+00 </wgt>
<wgt id='1126'> +1.3587250e+00 </wgt>
<wgt id='1127'> +1.3582156e+00 </wgt>
<wgt id='1128'> +1.3582168e+00 </wgt>
<wgt id='1129'> +1.3576730e+00 </wgt>
<wgt id='1130'> +1.3588523e+00 </wgt>
<wgt id='1131'> +1.3597029e+00 </wgt>
<wgt id='1132'> +1.3576317e+00 </wgt>
<wgt id='1133'> +1.3588449e+00 </wgt>
<wgt id='1134'> +1.3577061e+00 </wgt>
<wgt id='1135'> +1.3589041e+00 </wgt>
<wgt id='1136'> +1.3587183e+00 </wgt>
<wgt id='1137'> +1.3576154e+00 </wgt>
<wgt id='1138'> +1.3590786e+00 </wgt>
<wgt id='1139'> +1.3584219e+00 </wgt>
<wgt id='1140'> +1.3597293e+00 </wgt>
<wgt id='1141'> +1.3575563e+00 </wgt>
<wgt id='1142'> +1.3587626e+00 </wgt>
<wgt id='1143'> +1.3592396e+00 </wgt>
<wgt id='1144'> +1.3574590e+00 </wgt>
<wgt id='1145'> +1.3581223e+00 </wgt>
<wgt id='1146'> +1.3583190e+00 </wgt>
<wgt id='1147'> +1.3588850e+00 </wgt>
<wgt id='1148'> +1.3581722e+00 </wgt>
<wgt id='1149'> +1.2320325e+00 </wgt>
<wgt id='1150'> +1.2670077e+00 </wgt>
<wgt id='1151'> +1.2233071e+00 </wgt>
<wgt id='1152'> +1.2434497e+00 </wgt>
<wgt id='1153'> +1.2192679e+00 </wgt>
<wgt id='1154'> +1.2437959e+00 </wgt>
<wgt id='1155'> +1.2370802e+00 </wgt>
<wgt id='1156'> +1.2135429e+00 </wgt>
<wgt id='1157'> +1.2198073e+00 </wgt>
<wgt id='1158'> +1.2199945e+00 </wgt>
<wgt id='1159'> +1.2160929e+00 </wgt>
<wgt id='1160'> +1.2248411e+00 </wgt>
<wgt id='1161'> +1.2360509e+00 </wgt>
<wgt id='1162'> +1.2088179e+00 </wgt>
<wgt id='1163'> +1.2507570e+00 </wgt>
<wgt id='1164'> +1.2153826e+00 </wgt>
<wgt id='1165'> +1.2082196e+00 </wgt>
<wgt id='1166'> +1.2304676e+00 </wgt>
<wgt id='1167'> +1.2189905e+00 </wgt>
<wgt id='1168'> +1.2164522e+00 </wgt>
<wgt id='1169'> +1.2032787e+00 </wgt>
<wgt id='1170'> +1.2540506e+00 </wgt>
<wgt id='1171'> +1.2233693e+00 </wgt>
<wgt id='1172'> +1.2358981e+00 </wgt>
<wgt id='1173'> +1.2319546e+00 </wgt>
<wgt id='1174'> +1.2411158e+00 </wgt>
<wgt id='1175'> +1.2248500e+00 </wgt>
<wgt id='1176'> +1.2191073e+00 </wgt>
<wgt id='1177'> +1.2211400e+00 </wgt>
<wgt id='1178'> +1.2245048e+00 </wgt>
<wgt id='1179'> +1.1920246e+00 </wgt>
<wgt id='1180'> +1.2859835e+00 </wgt>
<wgt id='1181'> +1.2126209e+00 </wgt>
<wgt id='1182'> +1.2373320e+00 </wgt>
<wgt id='1183'> +1.2431223e+00 </wgt>
<wgt id='1184'> +1.2439840e+00 </wgt>
<wgt id='1185'> +1.2588370e+00 </wgt>
<wgt id='1186'> +1.2097522e+00 </wgt>
<wgt id='1187'> +1.2343374e+00 </wgt>
<wgt id='1188'> +1.2121092e+00 </wgt>
<wgt id='1189'> +1.2360053e+00 </wgt>
<wgt id='1190'> +1.2246240e+00 </wgt>
<wgt id='1191'> +1.2452023e+00 </wgt>
<wgt id='1192'> +1.2379647e+00 </wgt>
<wgt id='1193'> +1.2619467e+00 </wgt>
<wgt id='1194'> +1.2271724e+00 </wgt>
<wgt id='1195'> +1.2184743e+00 </wgt>
<wgt id='1196'> +1.2528203e+00 </wgt>
<wgt id='1197'> +1.2631935e+00 </wgt>
<wgt id='1198'> +1.2417211e+00 </wgt>
<wgt id='1199'> +1.2511427e+00 </wgt>
<wgt id='1200'> +1.2403938e+00 </wgt>
<wgt id='1201'> +1.2407854e+00 </wgt>
<wgt id='1202'> +1.2505453e+00 </wgt>
<wgt id='1203'> +1.2403912e+00 </wgt>
<wgt id='1204'> +1.2595502e+00 </wgt>
<wgt id='1205'> +1.2147431e+00 </wgt>
<wgt id='1206'> +1.2283036e+00 </wgt>
<wgt id='1207'> +1.2730780e+00 </wgt>
<wgt id='1208'> +1.1953832e+00 </wgt>
<wgt id='1209'> +1.2530453e+00 </wgt>
<wgt id='1210'> +1.2126952e+00 </wgt>
<wgt id='1211'> +1.2463763e+00 </wgt>
<wgt id='1212'> +1.2359183e+00 </wgt>
<wgt id='1213'> +1.2801167e+00 </wgt>
<wgt id='1214'> +1.2244260e+00 </wgt>
<wgt id='1215'> +1.2275384e+00 </wgt>
<wgt id='1216'> +1.2457298e+00 </wgt>
<wgt id='1217'> +1.1911139e+00 </wgt>
<wgt id='1218'> +1.2247634e+00 </wgt>
<wgt id='1219'> +1.2623295e+00 </wgt>
<wgt id='1220'> +1.2280957e+00 </wgt>
<wgt id='1221'> +1.1893186e+00 </wgt>
<wgt id='1222'> +1.2205322e+00 </wgt>
<wgt id='1223'> +1.1926589e+00 </wgt>
<wgt id='1224'> +1.2013622e+00 </wgt>
<wgt id='1225'> +1.2611791e+00 </wgt>
<wgt id='1226'> +1.2278376e+00 </wgt>
<wgt id='1227'> +1.2529173e+00 </wgt>
<wgt id='1228'> +1.2312944e+00 </wgt>
<wgt id='1229'> +1.2437412e+00 </wgt>
<wgt id='1230'> +1.2669002e+00 </wgt>
<wgt id='1231'> +1.2082196e+00 </wgt>
<wgt id='1232'> +1.2178573e+00 </wgt>
<wgt id='1233'> +1.2117706e+00 </wgt>
<wgt id='1234'> +1.2367912e+00 </wgt>
<wgt id='1235'> +1.2544242e+00 </wgt>
<wgt id='1236'> +1.2298891e+00 </wgt>
<wgt id='1237'> +1.2155791e+00 </wgt>
<wgt id='1238'> +1.1876338e+00 </wgt>
<wgt id='1239'> +1.2549272e+00 </wgt>
<wgt id='1240'> +1.2529471e+00 </wgt>
<wgt id='1241'> +1.2423646e+00 </wgt>
<wgt id='1242'> +1.2228084e+00 </wgt>
<wgt id='1243'> +1.2334154e+00 </wgt>
<wgt id='1244'> +1.2144180e+00 </wgt>
<wgt id='1245'> +1.2525186e+00 </wgt>
<wgt id='1246'> +1.2756913e+00 </wgt>
<wgt id='1247'> +1.2044557e+00 </wgt>
<wgt id='1248'> +1.2051836e+00 </wgt>
<wgt id='1249'> +1.2206179e+00 </wgt>
<wgt id='1250'> +1.3988104e+00 </wgt>
<wgt id='1251'> +1.3678358e+00 </wgt>
<wgt id='1252'> +1.4570749e+00 </wgt>
<wgt id='1253'> +1.4476388e+00 </wgt>
<wgt id='1254'> +1.6571408e+00 </wgt>
<wgt id='1255'> +1.5127555e+00 </wgt>
<wgt id='1256'> +1.5251605e+00 </wgt>
<wgt id='1257'> +1.5055835e+00 </wgt>
<wgt id='1258'> +1.5110644e+00 </wgt>
<wgt id='1259'> +1.5135701e+00 </wgt>
<wgt id='1260'> +1.5152918e+00 </wgt>
<wgt id='1261'> +1.5093616e+00 </wgt>
<wgt id='1262'> +1.5145280e+00 </wgt>
<wgt id='1263'> +1.5115933e+00 </wgt>
<wgt id='1264'> +1.5123691e+00 </wgt>
<wgt id='1265'> +1.5130430e+00 </wgt>
<wgt id='1266'> +1.5143163e+00 </wgt>
<wgt id='1267'> +1.5112103e+00 </wgt>
<wgt id='1268'> +1.5295666e+00 </wgt>
<wgt id='1269'> +1.4960258e+00 </wgt>
<wgt id='1270'> +1.4961773e+00 </wgt>
<wgt id='1271'> +1.5310781e+00 </wgt>
<wgt id='1272'> +1.5082096e+00 </wgt>
<wgt id='1273'> +1.5162683e+00 </wgt>
<wgt id='1274'> +1.5166737e+00 </wgt>
<wgt id='1275'> +1.5079584e+00 </wgt>
<wgt id='1276'> +1.5328782e+00 </wgt>
<wgt id='1277'> +1.4925733e+00 </wgt>
<wgt id='1278'> +1.5024292e+00 </wgt>
<wgt id='1279'> +1.5213866e+00 </wgt>
<wgt id='1280'> +1.5132275e+00 </wgt>
<wgt id='1281'> +1.5119678e+00 </wgt>
<wgt id='1282'> +1.5036653e+00 </wgt>
<wgt id='1283'> +1.5199197e+00 </wgt>
<wgt id='1284'> +1.5136356e+00 </wgt>
<wgt id='1285'> +1.5127500e+00 </wgt>
<wgt id='1286'> +1.5215578e+00 </wgt>
<wgt id='1287'> +1.5122426e+00 </wgt>
<wgt id='1288'> +1.5175845e+00 </wgt>
<wgt id='1289'> +1.5102368e+00 </wgt>
<wgt id='1290'> +1.5154309e+00 </wgt>
<wgt id='1291'> +1.5118321e+00 </wgt>
<wgt id='1292'> +1.5245835e+00 </wgt>
<wgt id='1293'> +1.4997435e+00 </wgt>
<wgt id='1294'> +1.5157832e+00 </wgt>
<wgt id='1295'> +1.5049055e+00 </wgt>
<wgt id='1296'> +1.4386261e+00 </wgt>
<wgt id='1297'> +1.4427483e+00 </wgt>
<wgt id='1298'> +1.4352835e+00 </wgt>
<wgt id='1299'> +1.4320238e+00 </wgt>
<wgt id='1300'> +1.4459459e+00 </wgt>
<wgt id='1301'> +1.4345786e+00 </wgt>
<wgt id='1302'> +1.4445982e+00 </wgt>
<wgt id='1303'> +1.4380622e+00 </wgt>
<wgt id='1304'> +1.4389548e+00 </wgt>
<wgt id='1305'> +1.4399937e+00 </wgt>
<wgt id='1306'> +1.4366740e+00 </wgt>
<wgt id='1307'> +1.4453891e+00 </wgt>
<wgt id='1308'> +1.4343885e+00 </wgt>
<wgt id='1309'> +1.4392502e+00 </wgt>
<wgt id='1310'> +1.4377983e+00 </wgt>
<wgt id='1311'> +1.4513411e+00 </wgt>
<wgt id='1312'> +1.4339712e+00 </wgt>
<wgt id='1313'> +1.4202483e+00 </wgt>
<wgt id='1314'> +1.4617943e+00 </wgt>
<wgt id='1315'> +1.4413774e+00 </wgt>
<wgt id='1316'> +1.4360636e+00 </wgt>
<wgt id='1317'> +1.4531937e+00 </wgt>
<wgt id='1318'> +1.4150376e+00 </wgt>
<wgt id='1319'> +1.4227043e+00 </wgt>
<wgt id='1320'> +1.4492914e+00 </wgt>
<wgt id='1321'> +1.4245038e+00 </wgt>
<wgt id='1322'> +1.4457669e+00 </wgt>
<wgt id='1323'> +1.4353460e+00 </wgt>
<wgt id='1324'> +1.4426904e+00 </wgt>
<wgt id='1325'> +1.4378055e+00 </wgt>
<wgt id='1326'> +1.4413864e+00 </wgt>
<wgt id='1327'> +1.4355415e+00 </wgt>
<wgt id='1328'> +1.4399614e+00 </wgt>
<wgt id='1329'> +1.4399419e+00 </wgt>
<wgt id='1330'> +1.4378072e+00 </wgt>
<wgt id='1331'> +1.4497036e+00 </wgt>
<wgt id='1332'> +1.4347267e+00 </wgt>
<wgt id='1333'> +1.4330462e+00 </wgt>
<wgt id='1334'> +1.4570823e+00 </wgt>
<wgt id='1335'> +1.4468722e+00 </wgt>
<wgt id='1336'> +1.4366151e+00 </wgt>
<wgt id='1337'> +1.4386261e+00 </wgt>
<wgt id='1338'> +1.4421140e+00 </wgt>
<wgt id='1339'> +1.4407010e+00 </wgt>
<wgt id='1340'> +1.4393430e+00 </wgt>
<wgt id='1341'> +1.4371120e+00 </wgt>
<wgt id='1342'> +1.4361402e+00 </wgt>
<wgt id='1343'> +1.4352097e+00 </wgt>
<wgt id='1344'> +1.4017748e+00 </wgt>
<wgt id='1345'> +1.4083907e+00 </wgt>
<wgt id='1346'> +1.3951951e+00 </wgt>
<wgt id='1347'> +1.4134684e+00 </wgt>
<wgt id='1348'> +1.3931760e+00 </wgt>
<wgt id='1349'> +1.3998004e+00 </wgt>
<wgt id='1350'> +1.4034140e+00 </wgt>
<wgt id='1351'> +1.4017944e+00 </wgt>
<wgt id='1352'> +1.4017332e+00 </wgt>
<wgt id='1353'> +1.4060870e+00 </wgt>
<wgt id='1354'> +1.3987291e+00 </wgt>
<wgt id='1355'> +1.4003156e+00 </wgt>
<wgt id='1356'> +1.4029031e+00 </wgt>
<wgt id='1357'> +1.4052283e+00 </wgt>
<wgt id='1358'> +1.3996590e+00 </wgt>
<wgt id='1359'> +1.3959008e+00 </wgt>
<wgt id='1360'> +1.4164116e+00 </wgt>
<wgt id='1361'> +1.3754860e+00 </wgt>
<wgt id='1362'> +1.4251957e+00 </wgt>
<wgt id='1363'> +1.3968761e+00 </wgt>
<wgt id='1364'> +1.4079161e+00 </wgt>
<wgt id='1365'> +1.3942222e+00 </wgt>
<wgt id='1366'> +1.4052981e+00 </wgt>
<wgt id='1367'> +1.3878258e+00 </wgt>
<wgt id='1368'> +1.4088486e+00 </wgt>
<wgt id='1369'> +1.4125607e+00 </wgt>
<wgt id='1370'> +1.3930393e+00 </wgt>
<wgt id='1371'> +1.4002064e+00 </wgt>
<wgt id='1372'> +1.4044156e+00 </wgt>
<wgt id='1373'> +1.4023302e+00 </wgt>
<wgt id='1374'> +1.4060886e+00 </wgt>
<wgt id='1375'> +1.3991538e+00 </wgt>
<wgt id='1376'> +1.4029813e+00 </wgt>
<wgt id='1377'> +1.3996211e+00 </wgt>
<wgt id='1378'> +1.4056982e+00 </wgt>
<wgt id='1379'> +1.3982240e+00 </wgt>
<wgt id='1380'> +1.4097565e+00 </wgt>
<wgt id='1381'> +1.4026022e+00 </wgt>
<wgt id='1382'> +1.4113421e+00 </wgt>
<wgt id='1383'> +1.3998201e+00 </wgt>
<wgt id='1384'> +1.4156847e+00 </wgt>
<wgt id='1385'> +1.4017748e+00 </wgt>
<wgt id='1386'> +1.4048979e+00 </wgt>
<wgt id='1387'> +1.4035849e+00 </wgt>
<wgt id='1388'> +1.4023458e+00 </wgt>
<wgt id='1389'> +1.4003563e+00 </wgt>
<wgt id='1390'> +1.3993281e+00 </wgt>
<wgt id='1391'> +1.3985094e+00 </wgt>
<wgt id='1392'> +1.4708903e+00 </wgt>
<wgt id='1393'> +1.4717188e+00 </wgt>
<wgt id='1394'> +1.4699754e+00 </wgt>
<wgt id='1395'> +1.4717474e+00 </wgt>
<wgt id='1396'> +1.4702587e+00 </wgt>
<wgt id='1397'> +1.4780176e+00 </wgt>
<wgt id='1398'> +1.4639887e+00 </wgt>
<wgt id='1399'> +1.4788631e+00 </wgt>
<wgt id='1400'> +1.4611117e+00 </wgt>
<wgt id='1401'> +1.4655756e+00 </wgt>
<wgt id='1402'> +1.4773970e+00 </wgt>
<wgt id='1403'> +1.4689522e+00 </wgt>
<wgt id='1404'> +1.4747672e+00 </wgt>
<wgt id='1405'> +1.4692496e+00 </wgt>
<wgt id='1406'> +1.4731686e+00 </wgt>
<wgt id='1407'> +1.4710512e+00 </wgt>
<wgt id='1408'> +1.4707855e+00 </wgt>
<wgt id='1409'> +1.4759893e+00 </wgt>
<wgt id='1410'> +1.4649962e+00 </wgt>
<wgt id='1411'> +1.4676206e+00 </wgt>
<wgt id='1412'> +1.4733845e+00 </wgt>
<wgt id='1413'> +1.4763190e+00 </wgt>
<wgt id='1414'> +1.4650959e+00 </wgt>
<wgt id='1415'> +1.4729291e+00 </wgt>
<wgt id='1416'> +1.4681224e+00 </wgt>
<wgt id='1417'> +1.4519449e+00 </wgt>
<wgt id='1418'> +1.4942796e+00 </wgt>
<wgt id='1419'> +1.4690832e+00 </wgt>
<wgt id='1420'> +1.4706288e+00 </wgt>
<wgt id='1421'> +1.4581559e+00 </wgt>
<wgt id='1422'> +1.4861945e+00 </wgt>
<wgt id='1423'> +1.4456346e+00 </wgt>
<wgt id='1424'> +1.4898944e+00 </wgt>
<wgt id='1425'> +1.4726976e+00 </wgt>
<wgt id='1426'> +1.4684727e+00 </wgt>
<wgt id='1427'> +1.4726210e+00 </wgt>
<wgt id='1428'> +1.4591208e+00 </wgt>
<wgt id='1429'> +1.4684049e+00 </wgt>
<wgt id='1430'> +1.4725914e+00 </wgt>
<wgt id='1431'> +1.4657081e+00 </wgt>
<wgt id='1432'> +1.4754938e+00 </wgt>
<wgt id='1433'> +1.4557885e+00 </wgt>
<wgt id='1434'> +1.4873810e+00 </wgt>
<wgt id='1435'> +1.4674388e+00 </wgt>
<wgt id='1436'> +1.4768774e+00 </wgt>
<wgt id='1437'> +1.4683766e+00 </wgt>
<wgt id='1438'> +1.4771871e+00 </wgt>
<wgt id='1439'> +1.4699144e+00 </wgt>
<wgt id='1440'> +1.4825599e+00 </wgt>
<wgt id='1441'> +1.4693467e+00 </wgt>
<wgt id='1442'> +1.4750785e+00 </wgt>
<wgt id='1443'> +1.4550988e+00 </wgt>
<wgt id='1444'> +1.4560002e+00 </wgt>
<wgt id='1445'> +1.4541028e+00 </wgt>
<wgt id='1446'> +1.4560327e+00 </wgt>
<wgt id='1447'> +1.4544403e+00 </wgt>
<wgt id='1448'> +1.4625848e+00 </wgt>
<wgt id='1449'> +1.4481259e+00 </wgt>
<wgt id='1450'> +1.4626340e+00 </wgt>
<wgt id='1451'> +1.4467450e+00 </wgt>
<wgt id='1452'> +1.4499412e+00 </wgt>
<wgt id='1453'> +1.4600657e+00 </wgt>
<wgt id='1454'> +1.4528932e+00 </wgt>
<wgt id='1455'> +1.4598710e+00 </wgt>
<wgt id='1456'> +1.4533429e+00 </wgt>
<wgt id='1457'> +1.4582053e+00 </wgt>
<wgt id='1458'> +1.4556482e+00 </wgt>
<wgt id='1459'> +1.4547874e+00 </wgt>
<wgt id='1460'> +1.4597315e+00 </wgt>
<wgt id='1461'> +1.4494942e+00 </wgt>
<wgt id='1462'> +1.4508447e+00 </wgt>
<wgt id='1463'> +1.4587561e+00 </wgt>
<wgt id='1464'> +1.4602937e+00 </wgt>
<wgt id='1465'> +1.4482317e+00 </wgt>
<wgt id='1466'> +1.4599125e+00 </wgt>
<wgt id='1467'> +1.4510112e+00 </wgt>
<wgt id='1468'> +1.4784187e+00 </wgt>
<wgt id='1469'> +1.4323051e+00 </wgt>
<wgt id='1470'> +1.4542016e+00 </wgt>
<wgt id='1471'> +1.4545037e+00 </wgt>
<wgt id='1472'> +1.4452384e+00 </wgt>
<wgt id='1473'> +1.4670255e+00 </wgt>
<wgt id='1474'> +1.4371278e+00 </wgt>
<wgt id='1475'> +1.4751069e+00 </wgt>
<wgt id='1476'> +1.4608660e+00 </wgt>
<wgt id='1477'> +1.4494447e+00 </wgt>
<wgt id='1478'> +1.4568607e+00 </wgt>
<wgt id='1479'> +1.4430183e+00 </wgt>
<wgt id='1480'> +1.4537896e+00 </wgt>
<wgt id='1481'> +1.4554652e+00 </wgt>
<wgt id='1482'> +1.4503127e+00 </wgt>
<wgt id='1483'> +1.4600657e+00 </wgt>
<wgt id='1484'> +1.4393536e+00 </wgt>
<wgt id='1485'> +1.4719047e+00 </wgt>
<wgt id='1486'> +1.4519686e+00 </wgt>
<wgt id='1487'> +1.4603939e+00 </wgt>
<wgt id='1488'> +1.4518649e+00 </wgt>
<wgt id='1489'> +1.4628205e+00 </wgt>
<wgt id='1490'> +1.4544759e+00 </wgt>
<wgt id='1491'> +1.4689974e+00 </wgt>
<wgt id='1492'> +1.4523121e+00 </wgt>
<wgt id='1493'> +1.4612262e+00 </wgt>
<wgt id='1494'> +1.4034549e+00 </wgt>
<wgt id='1495'> +1.3827392e+00 </wgt>
<wgt id='1496'> +1.3896187e+00 </wgt>
<wgt id='1497'> +1.3968090e+00 </wgt>
<wgt id='1498'> +1.4132673e+00 </wgt>
<wgt id='1499'> +1.4045028e+00 </wgt>
<wgt id='1500'> +1.4258726e+00 </wgt>
<wgt id='1501'> +1.4220484e+00 </wgt>
<wgt id='1502'> +1.4181079e+00 </wgt>
<wgt id='1503'> +1.4137640e+00 </wgt>
<wgt id='1504'> +1.4092564e+00 </wgt>
<wgt id='1505'> +1.3997779e+00 </wgt>
<wgt id='1506'> +1.3951086e+00 </wgt>
<wgt id='1507'> +1.3903651e+00 </wgt>
<wgt id='1508'> +1.4045028e+00 </wgt>
<wgt id='1509'> +1.4070493e+00 </wgt>
<wgt id='1510'> +1.4056440e+00 </wgt>
<wgt id='1511'> +1.4036342e+00 </wgt>
<wgt id='1512'> +1.4029996e+00 </wgt>
<wgt id='1513'> +1.4141488e+00 </wgt>
<wgt id='1514'> +1.4142469e+00 </wgt>
<wgt id='1515'> +1.4140803e+00 </wgt>
<wgt id='1516'> +1.4172640e+00 </wgt>
<wgt id='1517'> +1.4110772e+00 </wgt>
<wgt id='1518'> +1.4167788e+00 </wgt>
<wgt id='1519'> +1.4131050e+00 </wgt>
<wgt id='1520'> +1.4260636e+00 </wgt>
<wgt id='1521'> +1.4023126e+00 </wgt>
<wgt id='1522'> +1.4116615e+00 </wgt>
<wgt id='1523'> +1.4165351e+00 </wgt>
<wgt id='1524'> +1.4240865e+00 </wgt>
<wgt id='1525'> +1.4098713e+00 </wgt>
<wgt id='1526'> +1.4140582e+00 </wgt>
<wgt id='1527'> +1.4142977e+00 </wgt>
<wgt id='1528'> +1.4129219e+00 </wgt>
<wgt id='1529'> +1.4155086e+00 </wgt>
<wgt id='1530'> +1.4179170e+00 </wgt>
<wgt id='1531'> +1.4120210e+00 </wgt>
<wgt id='1532'> +1.4180019e+00 </wgt>
<wgt id='1533'> +1.4088643e+00 </wgt>
<wgt id='1534'> +1.4097805e+00 </wgt>
<wgt id='1535'> +1.4172043e+00 </wgt>
<wgt id='1536'> +1.4001984e+00 </wgt>
<wgt id='1537'> +1.4276171e+00 </wgt>
<wgt id='1538'> +1.4098252e+00 </wgt>
<wgt id='1539'> +1.4241089e+00 </wgt>
<wgt id='1540'> +1.4087710e+00 </wgt>
<wgt id='1541'> +1.4166823e+00 </wgt>
<wgt id='1542'> +1.4239009e+00 </wgt>
<wgt id='1543'> +1.3902620e+00 </wgt>
<wgt id='1544'> +1.4054187e+00 </wgt>
<wgt id='1545'> +1.4298062e+00 </wgt>
<wgt id='1546'> +1.4165786e+00 </wgt>
<wgt id='1547'> +1.4063953e+00 </wgt>
<wgt id='1548'> +1.3997414e+00 </wgt>
<wgt id='1549'> +1.4178566e+00 </wgt>
<wgt id='1550'> +1.4135318e+00 </wgt>
<wgt id='1551'> +1.4146881e+00 </wgt>
<wgt id='1552'> +1.4076473e+00 </wgt>
<wgt id='1553'> +1.4186558e+00 </wgt>
<wgt id='1554'> +1.4286535e+00 </wgt>
<wgt id='1555'> +1.3910934e+00 </wgt>
<wgt id='1556'> +1.4162558e+00 </wgt>
<wgt id='1557'> +1.4135704e+00 </wgt>
<wgt id='1558'> +1.4159374e+00 </wgt>
<wgt id='1559'> +1.4151779e+00 </wgt>
<wgt id='1560'> +1.4191659e+00 </wgt>
<wgt id='1561'> +1.4121321e+00 </wgt>
<wgt id='1562'> +1.4175400e+00 </wgt>
<wgt id='1563'> +1.4136387e+00 </wgt>
<wgt id='1564'> +1.4141488e+00 </wgt>
<wgt id='1565'> +1.4003818e+00 </wgt>
<wgt id='1566'> +1.4307329e+00 </wgt>
<wgt id='1567'> +1.4159520e+00 </wgt>
<wgt id='1568'> +1.4420232e+00 </wgt>
<wgt id='1569'> +1.4367332e+00 </wgt>
<wgt id='1570'> +1.4316115e+00 </wgt>
<wgt id='1571'> +1.4266092e+00 </wgt>
<wgt id='1572'> +1.4211642e+00 </wgt>
<wgt id='1573'> +1.4097257e+00 </wgt>
<wgt id='1574'> +1.4035945e+00 </wgt>
<wgt id='1575'> +1.3980815e+00 </wgt>
<wgt id='1576'> +1.4159520e+00 </wgt>
<wgt id='1577'> +1.4174079e+00 </wgt>
<wgt id='1578'> +1.4165359e+00 </wgt>
<wgt id='1579'> +1.4155299e+00 </wgt>
<wgt id='1580'> +1.4153021e+00 </wgt>
<wgt id='1581'> +1.4219866e+00 </wgt>
<wgt id='1582'> +1.4239129e+00 </wgt>
<wgt id='1583'> +1.4182089e+00 </wgt>
<wgt id='1584'> +1.4186381e+00 </wgt>
<wgt id='1585'> +1.4219226e+00 </wgt>
<wgt id='1586'> +1.3988149e+00 </wgt>
<wgt id='1587'> +1.4157928e+00 </wgt>
<wgt id='1588'> +1.4218884e+00 </wgt>
<wgt id='1589'> +1.4210840e+00 </wgt>
<wgt id='1590'> +1.4386249e+00 </wgt>
<wgt id='1591'> +1.4238210e+00 </wgt>
<wgt id='1592'> +1.3936298e+00 </wgt>
<wgt id='1593'> +1.4230921e+00 </wgt>
<wgt id='1594'> +1.4005097e+00 </wgt>
<wgt id='1595'> +1.4237396e+00 </wgt>
<wgt id='1596'> +1.4286727e+00 </wgt>
<wgt id='1597'> +1.4262804e+00 </wgt>
<wgt id='1598'> +1.4214691e+00 </wgt>
<wgt id='1599'> +1.4146194e+00 </wgt>
<wgt id='1600'> +1.4182320e+00 </wgt>
<wgt id='1601'> +1.4162526e+00 </wgt>
<wgt id='1602'> +1.4212828e+00 </wgt>
<wgt id='1603'> +1.4292883e+00 </wgt>
<wgt id='1604'> +1.4182152e+00 </wgt>
<wgt id='1605'> +1.4152942e+00 </wgt>
<wgt id='1606'> +1.4214910e+00 </wgt>
<wgt id='1607'> +1.4205347e+00 </wgt>
<wgt id='1608'> +1.4202617e+00 </wgt>
<wgt id='1609'> +1.4200789e+00 </wgt>
<wgt id='1610'> +1.4245096e+00 </wgt>
<wgt id='1611'> +1.4108023e+00 </wgt>
<wgt id='1612'> +1.3403854e+00 </wgt>
<wgt id='1613'> +1.3398297e+00 </wgt>
<wgt id='1614'> +1.3402487e+00 </wgt>
<wgt id='1615'> +1.3392001e+00 </wgt>
<wgt id='1616'> +1.3405083e+00 </wgt>
<wgt id='1617'> +1.3409429e+00 </wgt>
<wgt id='1618'> +1.3413110e+00 </wgt>
<wgt id='1619'> +1.3405459e+00 </wgt>
<wgt id='1620'> +1.3413296e+00 </wgt>
<wgt id='1621'> +1.3400100e+00 </wgt>
<wgt id='1622'> +1.3412467e+00 </wgt>
<wgt id='1623'> +1.3376813e+00 </wgt>
<wgt id='1624'> +1.3361932e+00 </wgt>
<wgt id='1625'> +1.3356138e+00 </wgt>
<wgt id='1626'> +1.3401244e+00 </wgt>
<wgt id='1627'> +1.3357033e+00 </wgt>
<wgt id='1628'> +1.3426971e+00 </wgt>
<wgt id='1629'> +1.3418658e+00 </wgt>
<wgt id='1630'> +1.3366764e+00 </wgt>
<wgt id='1631'> +1.3426071e+00 </wgt>
<wgt id='1632'> +1.3370940e+00 </wgt>
<wgt id='1633'> +1.3425223e+00 </wgt>
<wgt id='1634'> +1.3385162e+00 </wgt>
<wgt id='1635'> +1.3377578e+00 </wgt>
<wgt id='1636'> +1.3385139e+00 </wgt>
<wgt id='1637'> +1.3387523e+00 </wgt>
<wgt id='1638'> +1.3379462e+00 </wgt>
<wgt id='1639'> +1.3421268e+00 </wgt>
<wgt id='1640'> +1.3423863e+00 </wgt>
<wgt id='1641'> +1.3363396e+00 </wgt>
<wgt id='1642'> +1.3401168e+00 </wgt>
<wgt id='1643'> +1.3388670e+00 </wgt>
<wgt id='1644'> +1.3425032e+00 </wgt>
<wgt id='1645'> +1.3408952e+00 </wgt>
<wgt id='1646'> +1.3364525e+00 </wgt>
<wgt id='1647'> +1.3378404e+00 </wgt>
<wgt id='1648'> +1.3377820e+00 </wgt>
<wgt id='1649'> +1.3372018e+00 </wgt>
<wgt id='1650'> +1.3399043e+00 </wgt>
<wgt id='1651'> +1.3475636e+00 </wgt>
<wgt id='1652'> +1.3452207e+00 </wgt>
<wgt id='1653'> +1.3409787e+00 </wgt>
<wgt id='1654'> +1.3318879e+00 </wgt>
<wgt id='1655'> +1.3423180e+00 </wgt>
<wgt id='1656'> +1.3388603e+00 </wgt>
<wgt id='1657'> +1.3396668e+00 </wgt>
<wgt id='1658'> +1.3424036e+00 </wgt>
<wgt id='1659'> +1.3445642e+00 </wgt>
<wgt id='1660'> +1.3378607e+00 </wgt>
<wgt id='1661'> +1.3400879e+00 </wgt>
<wgt id='1662'> +1.3428014e+00 </wgt>
<wgt id='1663'> +1.3461278e+00 </wgt>
<wgt id='1664'> +1.3425783e+00 </wgt>
<wgt id='1665'> +1.3435852e+00 </wgt>
<wgt id='1666'> +1.3433268e+00 </wgt>
<wgt id='1667'> +1.3411297e+00 </wgt>
<wgt id='1668'> +1.3380869e+00 </wgt>
<wgt id='1669'> +1.3400766e+00 </wgt>
<wgt id='1670'> +1.3384781e+00 </wgt>
<wgt id='1671'> +1.3403208e+00 </wgt>
<wgt id='1672'> +1.3395502e+00 </wgt>
<wgt id='1673'> +1.3391004e+00 </wgt>
<wgt id='1674'> +1.3394203e+00 </wgt>
<wgt id='1675'> +1.3413676e+00 </wgt>
<wgt id='1676'> +1.3372530e+00 </wgt>
<wgt id='1677'> +1.3424344e+00 </wgt>
<wgt id='1678'> +1.3424560e+00 </wgt>
<wgt id='1679'> +1.3423384e+00 </wgt>
<wgt id='1680'> +1.3427650e+00 </wgt>
<wgt id='1681'> +1.3411992e+00 </wgt>
<wgt id='1682'> +1.3383068e+00 </wgt>
<wgt id='1683'> +1.3389690e+00 </wgt>
<wgt id='1684'> +1.3401246e+00 </wgt>
<wgt id='1685'> +1.3366732e+00 </wgt>
<wgt id='1686'> +1.3401236e+00 </wgt>
<wgt id='1687'> +1.3402596e+00 </wgt>
<wgt id='1688'> +1.3407211e+00 </wgt>
<wgt id='1689'> +1.3407835e+00 </wgt>
<wgt id='1690'> +1.3400338e+00 </wgt>
<wgt id='1691'> +1.3427395e+00 </wgt>
<wgt id='1692'> +1.3401929e+00 </wgt>
<wgt id='1693'> +1.3420559e+00 </wgt>
<wgt id='1694'> +1.3426393e+00 </wgt>
<wgt id='1695'> +1.3405106e+00 </wgt>
<wgt id='1696'> +1.3404109e+00 </wgt>
<wgt id='1697'> +1.3408205e+00 </wgt>
<wgt id='1698'> +1.3406710e+00 </wgt>
<wgt id='1699'> +1.3396265e+00 </wgt>
<wgt id='1700'> +1.3420363e+00 </wgt>
<wgt id='1701'> +1.3391214e+00 </wgt>
<wgt id='1702'> +1.3409003e+00 </wgt>
<wgt id='1703'> +1.3412903e+00 </wgt>
<wgt id='1704'> +1.3410184e+00 </wgt>
<wgt id='1705'> +1.3409526e+00 </wgt>
<wgt id='1706'> +1.3399214e+00 </wgt>
<wgt id='1707'> +1.3410371e+00 </wgt>
<wgt id='1708'> +1.3389843e+00 </wgt>
<wgt id='1709'> +1.3411462e+00 </wgt>
<wgt id='1710'> +1.3394315e+00 </wgt>
<wgt id='1711'> +1.3409897e+00 </wgt>
<wgt id='1712'> +1.3392708e+00 </wgt>
<wgt id='1713'> +1.3265143e+00 </wgt>
<wgt id='1714'> +1.3625445e+00 </wgt>
<wgt id='1715'> +1.2904783e+00 </wgt>
<wgt id='1716'> +1.2476303e+00 </wgt>
<wgt id='1717'> +1.3188288e+00 </wgt>
<wgt id='1718'> +1.2716346e+00 </wgt>
<wgt id='1719'> +1.2557679e+00 </wgt>
<wgt id='1720'> +1.3243496e+00 </wgt>
<wgt id='1721'> +1.2910550e+00 </wgt>
<wgt id='1722'> +1.2311230e+00 </wgt>
<wgt id='1723'> +1.2839768e+00 </wgt>
<wgt id='1724'> +1.3029636e+00 </wgt>
<wgt id='1725'> +1.3111782e+00 </wgt>
<wgt id='1726'> +1.2815087e+00 </wgt>
<wgt id='1727'> +1.2917998e+00 </wgt>
<wgt id='1728'> +1.2793439e+00 </wgt>
<wgt id='1729'> +1.2864981e+00 </wgt>
<wgt id='1730'> +1.2729631e+00 </wgt>
<wgt id='1731'> +1.2436566e+00 </wgt>
<wgt id='1732'> +1.3012321e+00 </wgt>
<wgt id='1733'> +1.2950085e+00 </wgt>
<wgt id='1734'> +1.3472822e+00 </wgt>
<wgt id='1735'> +1.2501658e+00 </wgt>
<wgt id='1736'> +1.3137225e+00 </wgt>
<wgt id='1737'> +1.2543356e+00 </wgt>
<wgt id='1738'> +1.3395544e+00 </wgt>
<wgt id='1739'> +1.2915346e+00 </wgt>
<wgt id='1740'> +1.2903128e+00 </wgt>
<wgt id='1741'> +1.2715866e+00 </wgt>
<wgt id='1742'> +1.3010704e+00 </wgt>
<wgt id='1743'> +1.2660006e+00 </wgt>
<wgt id='1744'> +1.3158524e+00 </wgt>
<wgt id='1745'> +1.2887797e+00 </wgt>
<wgt id='1746'> +1.2648901e+00 </wgt>
<wgt id='1747'> +1.3029649e+00 </wgt>
<wgt id='1748'> +1.2659334e+00 </wgt>
<wgt id='1749'> +1.2673198e+00 </wgt>
<wgt id='1750'> +1.2623248e+00 </wgt>
<wgt id='1751'> +1.3215966e+00 </wgt>
<wgt id='1752'> +1.3185516e+00 </wgt>
<wgt id='1753'> +1.2976079e+00 </wgt>
<wgt id='1754'> +1.3073616e+00 </wgt>
<wgt id='1755'> +1.2804081e+00 </wgt>
<wgt id='1756'> +1.3360920e+00 </wgt>
<wgt id='1757'> +1.2908774e+00 </wgt>
<wgt id='1758'> +1.2408866e+00 </wgt>
<wgt id='1759'> +1.3071593e+00 </wgt>
<wgt id='1760'> +1.2813547e+00 </wgt>
<wgt id='1761'> +1.3022407e+00 </wgt>
<wgt id='1762'> +1.2917998e+00 </wgt>
<wgt id='1763'> +1.2941795e+00 </wgt>
<wgt id='1764'> +1.3054999e+00 </wgt>
<wgt id='1765'> +1.3071039e+00 </wgt>
<wgt id='1766'> +1.3319350e+00 </wgt>
<wgt id='1767'> +1.2712696e+00 </wgt>
<wgt id='1768'> +1.2837877e+00 </wgt>
<wgt id='1769'> +1.2861852e+00 </wgt>
<wgt id='1770'> +1.3128187e+00 </wgt>
<wgt id='1771'> +1.2621981e+00 </wgt>
<wgt id='1772'> +1.3004647e+00 </wgt>
<wgt id='1773'> +1.2943727e+00 </wgt>
<wgt id='1774'> +1.2966067e+00 </wgt>
<wgt id='1775'> +1.3133500e+00 </wgt>
<wgt id='1776'> +1.3137037e+00 </wgt>
<wgt id='1777'> +1.3015773e+00 </wgt>
<wgt id='1778'> +1.2913010e+00 </wgt>
<wgt id='1779'> +1.2837266e+00 </wgt>
<wgt id='1780'> +1.3249567e+00 </wgt>
<wgt id='1781'> +1.2916388e+00 </wgt>
<wgt id='1782'> +1.3651397e+00 </wgt>
<wgt id='1783'> +1.2922132e+00 </wgt>
<wgt id='1784'> +1.2940335e+00 </wgt>
<wgt id='1785'> +1.3112853e+00 </wgt>
<wgt id='1786'> +1.3288978e+00 </wgt>
<wgt id='1787'> +1.2820944e+00 </wgt>
<wgt id='1788'> +1.2769839e+00 </wgt>
<wgt id='1789'> +1.3215594e+00 </wgt>
<wgt id='1790'> +1.2829788e+00 </wgt>
<wgt id='1791'> +1.2782105e+00 </wgt>
<wgt id='1792'> +1.3003605e+00 </wgt>
<wgt id='1793'> +1.3143794e+00 </wgt>
<wgt id='1794'> +1.2715436e+00 </wgt>
<wgt id='1795'> +1.2166254e+00 </wgt>
<wgt id='1796'> +1.2790784e+00 </wgt>
<wgt id='1797'> +1.2723746e+00 </wgt>
<wgt id='1798'> +1.3349429e+00 </wgt>
<wgt id='1799'> +1.2943203e+00 </wgt>
<wgt id='1800'> +1.3083278e+00 </wgt>
<wgt id='1801'> +1.2581162e+00 </wgt>
<wgt id='1802'> +1.2628401e+00 </wgt>
<wgt id='1803'> +1.2814583e+00 </wgt>
<wgt id='1804'> +1.2921223e+00 </wgt>
<wgt id='1805'> +1.2892578e+00 </wgt>
<wgt id='1806'> +1.3005590e+00 </wgt>
<wgt id='1807'> +1.2967504e+00 </wgt>
<wgt id='1808'> +1.2801540e+00 </wgt>
<wgt id='1809'> +1.3101606e+00 </wgt>
<wgt id='1810'> +1.2763874e+00 </wgt>
<wgt id='1811'> +1.2703386e+00 </wgt>
<wgt id='1812'> +1.2577436e+00 </wgt>
<wgt id='1813'> +1.2805988e+00 </wgt>
<wgt id='1814'> +1.2450284e+00 </wgt>
<wgt id='1815'> +1.2811776e+00 </wgt>
<wgt id='1816'> +1.4281678e+00 </wgt>
<wgt id='1817'> +1.4607279e+00 </wgt>
<wgt id='1818'> +1.4502948e+00 </wgt>
<wgt id='1819'> +1.4426114e+00 </wgt>
<wgt id='1820'> +1.4107711e+00 </wgt>
<wgt id='1821'> +1.5004263e+00 </wgt>
<wgt id='1822'> +1.4055888e+00 </wgt>
<wgt id='1823'> +1.4386440e+00 </wgt>
<wgt id='1824'> +1.4314069e+00 </wgt>
<wgt id='1825'> +1.3796716e+00 </wgt>
<wgt id='1826'> +1.4848975e+00 </wgt>
<wgt id='1827'> +1.4741065e+00 </wgt>
<wgt id='1828'> +1.4139247e+00 </wgt>
<wgt id='1829'> +1.4523810e+00 </wgt>
<wgt id='1830'> +1.4921948e+00 </wgt>
<wgt id='1831'> +1.4448077e+00 </wgt>
<wgt id='1832'> +1.4276094e+00 </wgt>
<wgt id='1833'> +1.4763519e+00 </wgt>
<wgt id='1834'> +1.4369175e+00 </wgt>
<wgt id='1835'> +1.3982615e+00 </wgt>
<wgt id='1836'> +1.4101736e+00 </wgt>
<wgt id='1837'> +1.3912505e+00 </wgt>
<wgt id='1838'> +1.4168014e+00 </wgt>
<wgt id='1839'> +1.4189782e+00 </wgt>
<wgt id='1840'> +1.3848004e+00 </wgt>
<wgt id='1841'> +1.4244635e+00 </wgt>
<wgt id='1842'> +1.3822853e+00 </wgt>
<wgt id='1843'> +1.4688763e+00 </wgt>
<wgt id='1844'> +1.4616511e+00 </wgt>
<wgt id='1845'> +1.4411445e+00 </wgt>
<wgt id='1846'> +1.3766827e+00 </wgt>
<wgt id='1847'> +1.4056379e+00 </wgt>
<wgt id='1848'> +1.4437432e+00 </wgt>
<wgt id='1849'> +1.4293172e+00 </wgt>
<wgt id='1850'> +1.3670928e+00 </wgt>
<wgt id='1851'> +1.4396475e+00 </wgt>
<wgt id='1852'> +1.4176448e+00 </wgt>
<wgt id='1853'> +1.4121792e+00 </wgt>
<wgt id='1854'> +1.4368521e+00 </wgt>
<wgt id='1855'> +1.4348837e+00 </wgt>
<wgt id='1856'> +1.4172259e+00 </wgt>
<wgt id='1857'> +1.4314290e+00 </wgt>
<wgt id='1858'> +1.3803144e+00 </wgt>
<wgt id='1859'> +1.3801276e+00 </wgt>
<wgt id='1860'> +1.4122727e+00 </wgt>
<wgt id='1861'> +1.4453266e+00 </wgt>
<wgt id='1862'> +1.3938330e+00 </wgt>
<wgt id='1863'> +1.4340824e+00 </wgt>
<wgt id='1864'> +1.4381227e+00 </wgt>
<wgt id='1865'> +1.4906033e+00 </wgt>
<wgt id='1866'> +1.4466551e+00 </wgt>
<wgt id='1867'> +1.4190042e+00 </wgt>
<wgt id='1868'> +1.4359785e+00 </wgt>
<wgt id='1869'> +1.3952692e+00 </wgt>
<wgt id='1870'> +1.4306240e+00 </wgt>
<wgt id='1871'> +1.4322545e+00 </wgt>
<wgt id='1872'> +1.4581394e+00 </wgt>
<wgt id='1873'> +1.4288971e+00 </wgt>
<wgt id='1874'> +1.4559143e+00 </wgt>
<wgt id='1875'> +1.3974450e+00 </wgt>
<wgt id='1876'> +1.4264293e+00 </wgt>
<wgt id='1877'> +1.4417027e+00 </wgt>
<wgt id='1878'> +1.4149115e+00 </wgt>
<wgt id='1879'> +1.4176156e+00 </wgt>
<wgt id='1880'> +1.4509231e+00 </wgt>
<wgt id='1881'> +1.3565383e+00 </wgt>
<wgt id='1882'> +1.4122314e+00 </wgt>
<wgt id='1883'> +1.4459069e+00 </wgt>
<wgt id='1884'> +1.4176195e+00 </wgt>
<wgt id='1885'> +1.4293639e+00 </wgt>
<wgt id='1886'> +1.4194448e+00 </wgt>
<wgt id='1887'> +1.4062787e+00 </wgt>
<wgt id='1888'> +1.4123695e+00 </wgt>
<wgt id='1889'> +1.4950356e+00 </wgt>
<wgt id='1890'> +1.4029887e+00 </wgt>
<wgt id='1891'> +1.4665302e+00 </wgt>
<wgt id='1892'> +1.4145488e+00 </wgt>
<wgt id='1893'> +1.3992265e+00 </wgt>
<wgt id='1894'> +1.4039105e+00 </wgt>
<wgt id='1895'> +1.4596901e+00 </wgt>
<wgt id='1896'> +1.4164667e+00 </wgt>
<wgt id='1897'> +1.4144467e+00 </wgt>
<wgt id='1898'> +1.4644752e+00 </wgt>
<wgt id='1899'> +1.3623544e+00 </wgt>
<wgt id='1900'> +1.4634415e+00 </wgt>
<wgt id='1901'> +1.4453278e+00 </wgt>
<wgt id='1902'> +1.4292435e+00 </wgt>
<wgt id='1903'> +1.4464789e+00 </wgt>
<wgt id='1904'> +1.4561005e+00 </wgt>
<wgt id='1905'> +1.3776091e+00 </wgt>
<wgt id='1906'> +1.4080057e+00 </wgt>
<wgt id='1907'> +1.4374127e+00 </wgt>
<wgt id='1908'> +1.4116048e+00 </wgt>
<wgt id='1909'> +1.4527538e+00 </wgt>
<wgt id='1910'> +1.4277148e+00 </wgt>
<wgt id='1911'> +1.4817617e+00 </wgt>
<wgt id='1912'> +1.3764062e+00 </wgt>
<wgt id='1913'> +1.4345115e+00 </wgt>
<wgt id='1914'> +1.4024599e+00 </wgt>
<wgt id='1915'> +1.4388980e+00 </wgt>
<wgt id='1916'> +1.4429730e+00 </wgt>
<wgt id='1917'> +1.4895546e+00 </wgt>
<wgt id='1918'> +1.4568033e+00 </wgt>
<wgt id='1919'> +1.4281678e+00 </wgt>
<wgt id='1920'> +1.4607279e+00 </wgt>
<wgt id='1921'> +1.4502948e+00 </wgt>
<wgt id='1922'> +1.4426114e+00 </wgt>
<wgt id='1923'> +1.4107711e+00 </wgt>
<wgt id='1924'> +1.5004263e+00 </wgt>
<wgt id='1925'> +1.4055888e+00 </wgt>
<wgt id='1926'> +1.4386440e+00 </wgt>
<wgt id='1927'> +1.4314069e+00 </wgt>
<wgt id='1928'> +1.3796716e+00 </wgt>
<wgt id='1929'> +1.4848975e+00 </wgt>
<wgt id='1930'> +1.4741065e+00 </wgt>
<wgt id='1931'> +1.4139247e+00 </wgt>
<wgt id='1932'> +1.4523810e+00 </wgt>
<wgt id='1933'> +1.4921948e+00 </wgt>
<wgt id='1934'> +1.4448077e+00 </wgt>
<wgt id='1935'> +1.4276094e+00 </wgt>
<wgt id='1936'> +1.4763519e+00 </wgt>
<wgt id='1937'> +1.4369175e+00 </wgt>
<wgt id='1938'> +1.3982615e+00 </wgt>
<wgt id='1939'> +1.4101736e+00 </wgt>
<wgt id='1940'> +1.3912505e+00 </wgt>
<wgt id='1941'> +1.4168014e+00 </wgt>
<wgt id='1942'> +1.4189782e+00 </wgt>
<wgt id='1943'> +1.3848004e+00 </wgt>
<wgt id='1944'> +1.4244635e+00 </wgt>
<wgt id='1945'> +1.3822853e+00 </wgt>
<wgt id='1946'> +1.4688763e+00 </wgt>
<wgt id='1947'> +1.4616511e+00 </wgt>
<wgt id='1948'> +1.4411445e+00 </wgt>
<wgt id='1949'> +1.3766827e+00 </wgt>
<wgt id='1950'> +1.4056379e+00 </wgt>
<wgt id='1951'> +1.4437432e+00 </wgt>
<wgt id='1952'> +1.4293172e+00 </wgt>
<wgt id='1953'> +1.3670928e+00 </wgt>
<wgt id='1954'> +1.4396475e+00 </wgt>
<wgt id='1955'> +1.4176448e+00 </wgt>
<wgt id='1956'> +1.4121792e+00 </wgt>
<wgt id='1957'> +1.4368521e+00 </wgt>
<wgt id='1958'> +1.4348837e+00 </wgt>
<wgt id='1959'> +1.4172259e+00 </wgt>
<wgt id='1960'> +1.4314290e+00 </wgt>
<wgt id='1961'> +1.3803144e+00 </wgt>
<wgt id='1962'> +1.3801276e+00 </wgt>
<wgt id='1963'> +1.4122727e+00 </wgt>
<wgt id='1964'> +1.4453266e+00 </wgt>
<wgt id='1965'> +1.3938330e+00 </wgt>
<wgt id='1966'> +1.4340824e+00 </wgt>
<wgt id='1967'> +1.4381227e+00 </wgt>
<wgt id='1968'> +1.4906033e+00 </wgt>
<wgt id='1969'> +1.4466551e+00 </wgt>
<wgt id='1970'> +1.4190042e+00 </wgt>
<wgt id='1971'> +1.4359785e+00 </wgt>
<wgt id='1972'> +1.3952692e+00 </wgt>
<wgt id='1973'> +1.4306240e+00 </wgt>
<wgt id='1974'> +1.4322545e+00 </wgt>
<wgt id='1975'> +1.4581394e+00 </wgt>
<wgt id='1976'> +1.4288971e+00 </wgt>
<wgt id='1977'> +1.4559143e+00 </wgt>
<wgt id='1978'> +1.3974450e+00 </wgt>
<wgt id='1979'> +1.4264293e+00 </wgt>
<wgt id='1980'> +1.4417027e+00 </wgt>
<wgt id='1981'> +1.4149115e+00 </wgt>
<wgt id='1982'> +1.4176156e+00 </wgt>
<wgt id='1983'> +1.4509231e+00 </wgt>
<wgt id='1984'> +1.3565383e+00 </wgt>
<wgt id='1985'> +1.4122314e+00 </wgt>
<wgt id='1986'> +1.4459069e+00 </wgt>
<wgt id='1987'> +1.4176195e+00 </wgt>
<wgt id='1988'> +1.4293639e+00 </wgt>
<wgt id='1989'> +1.4194448e+00 </wgt>
<wgt id='1990'> +1.4062787e+00 </wgt>
<wgt id='1991'> +1.4123695e+00 </wgt>
<wgt id='1992'> +1.4950356e+00 </wgt>
<wgt id='1993'> +1.4029887e+00 </wgt>
<wgt id='1994'> +1.4665302e+00 </wgt>
<wgt id='1995'> +1.4145488e+00 </wgt>
<wgt id='1996'> +1.3992265e+00 </wgt>
<wgt id='1997'> +1.4039105e+00 </wgt>
<wgt id='1998'> +1.4596901e+00 </wgt>
<wgt id='1999'> +1.4164667e+00 </wgt>
<wgt id='2000'> +1.4144467e+00 </wgt>
<wgt id='2001'> +1.4644752e+00 </wgt>
<wgt id='2002'> +1.3623544e+00 </wgt>
<wgt id='2003'> +1.4634415e+00 </wgt>
<wgt id='2004'> +1.4453278e+00 </wgt>
<wgt id='2005'> +1.4292435e+00 </wgt>
<wgt id='2006'> +1.4464789e+00 </wgt>
<wgt id='2007'> +1.4561005e+00 </wgt>
<wgt id='2008'> +1.3776091e+00 </wgt>
<wgt id='2009'> +1.4080057e+00 </wgt>
<wgt id='2010'> +1.4374127e+00 </wgt>
<wgt id='2011'> +1.4116048e+00 </wgt>
<wgt id='2012'> +1.4527538e+00 </wgt>
<wgt id='2013'> +1.4277148e+00 </wgt>
<wgt id='2014'> +1.4817617e+00 </wgt>
<wgt id='2015'> +1.3764062e+00 </wgt>
<wgt id='2016'> +1.4345115e+00 </wgt>
<wgt id='2017'> +1.4024599e+00 </wgt>
<wgt id='2018'> +1.4388980e+00 </wgt>
<wgt id='2019'> +1.4429730e+00 </wgt>
<wgt id='2020'> +1.4238064e+00 </wgt>
<wgt id='2021'> +1.4345452e+00 </wgt>
<wgt id='2022'> +1.4132306e+00 </wgt>
</rwgt>
</event>
<event>
 13 2 0.0079112 1.86312200e+02 7.81860800e-03 1.09088500e-01
       21 -1    0    0  502  503 +0.0000000000e+00 +0.0000000000e+00 +5.5459986395e+01 5.5459986395e+01 0.0000000000e+00 0.0000e+00 1.0000e+00
        1 -1    0    0  501    0 +0.0000000000e+00 +0.0000000000e+00 -3.2228083488e+03 3.2228083488e+03 5.0400000000e-03 0.0000e+00 -1.0000e+00
 -8000001  2    1    2    0  503 +1.0226068337e+02 -2.8442603804e+01 -2.4784793517e+03 2.5522787183e+03 6.0000044173e+02 0.0000e+00 0.0000e+00
        2  1    1    2  501    0 -6.4646166645e+01 -1.4783898554e+01 -6.5683958342e+02 6.6017870980e+02 2.5500000000e-03 0.0000e+00 -1.0000e+00
        5  1    1    2  502    0 -3.7614516724e+01 +4.3226502357e+01 -3.2029427266e+01 6.5810907045e+01 4.6700000000e+00 0.0000e+00 -1.0000e+00
       -6  2    3    3    0  503 -3.8788819737e+01 -1.1119756663e+02 -3.2623162489e+02 3.9190271416e+02 1.8245874308e+02 0.0000e+00 0.0000e+00
       -5  1    6    6    0  503 -4.7706606257e+01 +3.0981132939e+00 -1.5125076137e+01 5.0359660597e+01 4.6700000000e+00 0.0000e+00 1.0000e+00
      -24  2    6    6    0    0 +8.9177865201e+00 -1.1429567992e+02 -3.1110654875e+02 3.4154305356e+02 8.1983799591e+01 0.0000e+00 0.0000e+00
      -14  1    8    8    0    0 -1.4877267074e+01 -1.0331177445e+02 -2.8895017966e+02 3.0722444913e+02 0.0000000000e+00 0.0000e+00 1.0000e+00
       13  1    8    8    0    0 +2.3795053594e+01 -1.0983905469e+01 -2.2156369087e+01 3.4318604431e+01 1.0566000000e-01 0.0000e+00 -1.0000e+00
       23  2    3    3    0    0 +1.4104950311e+02 +8.2754962824e+01 -2.1522477268e+03 2.1603760042e+03 9.1163894497e+01 0.0000e+00 0.0000e+00
       16  1   11   11    0    0 +1.3974365544e+02 +9.2072842681e+01 -1.7418884013e+03 1.7499088263e+03 0.0000000000e+00 0.0000e+00 -1.0000e+00
      -16  1   11   11    0    0 +1.3058476651e+00 -9.3178798568e+00 -4.1035932552e+02 4.1046717794e+02 0.0000000000e+00 0.0000e+00 1.0000e+00
<mgrwt>
<rscale>  1 0.11216022e+03</rscale>
<asrwt>0</asrwt>
<pdfrwt beam="1">  1       21 0.85323056e-02 0.18631219e+03</pdfrwt>
<pdfrwt beam="2">  1        1 0.49581667e+00 0.67520627e+02</pdfrwt>
<totfact> 0.61925902e+02</totfact>
</mgrwt>
<rwgt>
<wgt id='1001'> +5.2878984e-01 </wgt>
<wgt id='1002'> +3.1828315e-01 </wgt>
<wgt id='1003'> +3.1827239e-01 </wgt>
<wgt id='1004'> +3.7985287e-01 </wgt>
<wgt id='1005'> +2.7746865e-01 </wgt>
<wgt id='1006'> +4.7821524e-01 </wgt>
<wgt id='1007'> +2.9313450e-01 </wgt>
<wgt id='1008'> +2.9312500e-01 </wgt>
<wgt id='1009'> +3.4712922e-01 </wgt>
<wgt id='1010'> +2.5693230e-01 </wgt>
<wgt id='1011'> +5.9176723e-01 </wgt>
<wgt id='1012'> +3.4828811e-01 </wgt>
<wgt id='1013'> +3.4827574e-01 </wgt>
<wgt id='1014'> +4.1960172e-01 </wgt>
<wgt id='1015'> +3.0166717e-01 </wgt>
<wgt id='1016'> +4.7549345e-01 </wgt>
<wgt id='1017'> +2.9256927e-01 </wgt>
<wgt id='1018'> +2.9255948e-01 </wgt>
<wgt id='1019'> +3.4827574e-01 </wgt>
<wgt id='1020'> +2.5572806e-01 </wgt>
<wgt id='1021'> +4.3001624e-01 </wgt>
<wgt id='1022'> +2.6945235e-01 </wgt>
<wgt id='1023'> +2.6944372e-01 </wgt>
<wgt id='1024'> +3.1827239e-01 </wgt>
<wgt id='1025'> +2.3680080e-01 </wgt>
<wgt id='1026'> +5.3212340e-01 </wgt>
<wgt id='1027'> +3.2015014e-01 </wgt>
<wgt id='1028'> +3.2013888e-01 </wgt>
<wgt id='1029'> +3.8472026e-01 </wgt>
<wgt id='1030'> +2.7803055e-01 </wgt>
<wgt id='1031'> +5.9209489e-01 </wgt>
<wgt id='1032'> +3.4714122e-01 </wgt>
<wgt id='1033'> +3.4712922e-01 </wgt>
<wgt id='1034'> +4.1531596e-01 </wgt>
<wgt id='1035'> +3.0196821e-01 </wgt>
<wgt id='1036'> +5.3546566e-01 </wgt>
<wgt id='1037'> +3.1971238e-01 </wgt>
<wgt id='1038'> +3.1970178e-01 </wgt>
<wgt id='1039'> +3.7953722e-01 </wgt>
<wgt id='1040'> +2.7961856e-01 </wgt>
<wgt id='1041'> +6.6261174e-01 </wgt>
<wgt id='1042'> +3.7986665e-01 </wgt>
<wgt id='1043'> +3.7985287e-01 </wgt>
<wgt id='1044'> +4.5877576e-01 </wgt>
<wgt id='1045'> +3.2830338e-01 </wgt>
<wgt id='1046'> +5.2878984e-01 </wgt>
<wgt id='1047'> +5.2878984e-01 </wgt>
<wgt id='1048'> +5.2878984e-01 </wgt>
<wgt id='1049'> +5.4136690e-01 </wgt>
<wgt id='1050'> +5.2806144e-01 </wgt>
<wgt id='1051'> +5.3301285e-01 </wgt>
<wgt id='1052'> +5.4112057e-01 </wgt>
<wgt id='1053'> +5.3403450e-01 </wgt>
<wgt id='1054'> +5.4068877e-01 </wgt>
<wgt id='1055'> +5.1707561e-01 </wgt>
<wgt id='1056'> +5.2856146e-01 </wgt>
<wgt id='1057'> +5.4458758e-01 </wgt>
<wgt id='1058'> +5.4886312e-01 </wgt>
<wgt id='1059'> +5.2003201e-01 </wgt>
<wgt id='1060'> +5.4731145e-01 </wgt>
<wgt id='1061'> +5.3608313e-01 </wgt>
<wgt id='1062'> +5.3002971e-01 </wgt>
<wgt id='1063'> +5.2180795e-01 </wgt>
<wgt id='1064'> +5.4661744e-01 </wgt>
<wgt id='1065'> +5.1919809e-01 </wgt>
<wgt id='1066'> +5.1199328e-01 </wgt>
<wgt id='1067'> +5.2762098e-01 </wgt>
<wgt id='1068'> +5.0104010e-01 </wgt>
<wgt id='1069'> +5.2827811e-01 </wgt>
<wgt id='1070'> +5.4505161e-01 </wgt>
<wgt id='1071'> +5.3338691e-01 </wgt>
<wgt id='1072'> +5.3423281e-01 </wgt>
<wgt id='1073'> +4.9683556e-01 </wgt>
<wgt id='1074'> +5.4708609e-01 </wgt>
<wgt id='1075'> +5.3374482e-01 </wgt>
<wgt id='1076'> +5.2764924e-01 </wgt>
<wgt id='1077'> +5.4067678e-01 </wgt>
<wgt id='1078'> +5.1087564e-01 </wgt>
<wgt id='1079'> +5.4413372e-01 </wgt>
<wgt id='1080'> +5.0400617e-01 </wgt>
<wgt id='1081'> +4.6803121e-01 </wgt>
<wgt id='1082'> +5.4106597e-01 </wgt>
<wgt id='1083'> +5.2993739e-01 </wgt>
<wgt id='1084'> +5.2033514e-01 </wgt>
<wgt id='1085'> +5.3199254e-01 </wgt>
<wgt id='1086'> +5.1660229e-01 </wgt>
<wgt id='1087'> +5.3005685e-01 </wgt>
<wgt id='1088'> +5.2272450e-01 </wgt>
<wgt id='1089'> +5.1175663e-01 </wgt>
<wgt id='1090'> +5.2554119e-01 </wgt>
<wgt id='1091'> +5.1226177e-01 </wgt>
<wgt id='1092'> +5.2777766e-01 </wgt>
<wgt id='1093'> +5.2623916e-01 </wgt>
<wgt id='1094'> +5.1563180e-01 </wgt>
<wgt id='1095'> +5.2133447e-01 </wgt>
<wgt id='1096'> +5.4368663e-01 </wgt>
<wgt id='1097'> +5.2544353e-01 </wgt>
<wgt id='1098'> +5.1245085e-01 </wgt>
<wgt id='1099'> +5.3819137e-01 </wgt>
<wgt id='1100'> +5.2282959e-01 </wgt>
<wgt id='1101'> +5.4206397e-01 </wgt>
<wgt id='1102'> +5.3561338e-01 </wgt>
<wgt id='1103'> +5.3232065e-01 </wgt>
<wgt id='1104'> +5.3746186e-01 </wgt>
<wgt id='1105'> +5.2326147e-01 </wgt>
<wgt id='1106'> +5.1797641e-01 </wgt>
<wgt id='1107'> +5.2229427e-01 </wgt>
<wgt id='1108'> +5.3104984e-01 </wgt>
<wgt id='1109'> +5.3011059e-01 </wgt>
<wgt id='1110'> +5.3211763e-01 </wgt>
<wgt id='1111'> +5.2417474e-01 </wgt>
<wgt id='1112'> +5.2970429e-01 </wgt>
<wgt id='1113'> +5.2899568e-01 </wgt>
<wgt id='1114'> +5.2709302e-01 </wgt>
<wgt id='1115'> +5.2475456e-01 </wgt>
<wgt id='1116'> +5.2568900e-01 </wgt>
<wgt id='1117'> +5.3369302e-01 </wgt>
<wgt id='1118'> +5.2443465e-01 </wgt>
<wgt id='1119'> +5.2977635e-01 </wgt>
<wgt id='1120'> +5.3620731e-01 </wgt>
<wgt id='1121'> +5.2907638e-01 </wgt>
<wgt id='1122'> +5.2413638e-01 </wgt>
<wgt id='1123'> +5.2755948e-01 </wgt>
<wgt id='1124'> +5.3175540e-01 </wgt>
<wgt id='1125'> +5.2739563e-01 </wgt>
<wgt id='1126'> +5.2898073e-01 </wgt>
<wgt id='1127'> +5.3120723e-01 </wgt>
<wgt id='1128'> +5.3009893e-01 </wgt>
<wgt id='1129'> +5.2366549e-01 </wgt>
<wgt id='1130'> +5.2986276e-01 </wgt>
<wgt id='1131'> +5.2956631e-01 </wgt>
<wgt id='1132'> +5.2866739e-01 </wgt>
<wgt id='1133'> +5.3236151e-01 </wgt>
<wgt id='1134'> +5.2797068e-01 </wgt>
<wgt id='1135'> +5.3233401e-01 </wgt>
<wgt id='1136'> +5.2477028e-01 </wgt>
<wgt id='1137'> +5.2694520e-01 </wgt>
<wgt id='1138'> +5.2798073e-01 </wgt>
<wgt id='1139'> +5.2544514e-01 </wgt>
<wgt id='1140'> +5.2750390e-01 </wgt>
<wgt id='1141'> +5.3127979e-01 </wgt>
<wgt id='1142'> +5.3055903e-01 </wgt>
<wgt id='1143'> +5.2773011e-01 </wgt>
<wgt id='1144'> +5.3076311e-01 </wgt>
<wgt id='1145'> +5.2844501e-01 </wgt>
<wgt id='1146'> +5.3278742e-01 </wgt>
<wgt id='1147'> +5.3092816e-01 </wgt>
<wgt id='1148'> +5.2878984e-01 </wgt>
<wgt id='1149'> +5.0165640e-01 </wgt>
<wgt id='1150'> +5.3330937e-01 </wgt>
<wgt id='1151'> +5.2758924e-01 </wgt>
<wgt id='1152'> +6.0590783e-01 </wgt>
<wgt id='1153'> +6.4159914e-01 </wgt>
<wgt id='1154'> +5.5170830e-01 </wgt>
<wgt id='1155'> +4.8102085e-01 </wgt>
<wgt id='1156'> +3.5693831e-01 </wgt>
<wgt id='1157'> +3.4578766e-01 </wgt>
<wgt id='1158'> +6.3074178e-01 </wgt>
<wgt id='1159'> +3.4383152e-01 </wgt>
<wgt id='1160'> +5.0909183e-01 </wgt>
<wgt id='1161'> +5.2326345e-01 </wgt>
<wgt id='1162'> +4.2789964e-01 </wgt>
<wgt id='1163'> +5.8796195e-01 </wgt>
<wgt id='1164'> +3.6006140e-01 </wgt>
<wgt id='1165'> +5.2958625e-01 </wgt>
<wgt id='1166'> +5.3899484e-01 </wgt>
<wgt id='1167'> +5.3217737e-01 </wgt>
<wgt id='1168'> +4.2725319e-01 </wgt>
<wgt id='1169'> +3.9411322e-01 </wgt>
<wgt id='1170'> +6.7523495e-01 </wgt>
<wgt id='1171'> +6.9100117e-01 </wgt>
<wgt id='1172'> +3.8836711e-01 </wgt>
<wgt id='1173'> +5.5315618e-01 </wgt>
<wgt id='1174'> +3.0648782e-01 </wgt>
<wgt id='1175'> +4.9329345e-01 </wgt>
<wgt id='1176'> +5.7780858e-01 </wgt>
<wgt id='1177'> +4.9119172e-01 </wgt>
<wgt id='1178'> +5.8432489e-01 </wgt>
<wgt id='1179'> +3.4925259e-01 </wgt>
<wgt id='1180'> +6.1333060e-01 </wgt>
<wgt id='1181'> +5.0991508e-01 </wgt>
<wgt id='1182'> +5.5119900e-01 </wgt>
<wgt id='1183'> +4.9308530e-01 </wgt>
<wgt id='1184'> +5.2110767e-01 </wgt>
<wgt id='1185'> +5.3325051e-01 </wgt>
<wgt id='1186'> +3.8776582e-01 </wgt>
<wgt id='1187'> +4.9210382e-01 </wgt>
<wgt id='1188'> +4.5018541e-01 </wgt>
<wgt id='1189'> +3.4145218e-01 </wgt>
<wgt id='1190'> +6.7909225e-01 </wgt>
<wgt id='1191'> +4.8131816e-01 </wgt>
<wgt id='1192'> +4.5204666e-01 </wgt>
<wgt id='1193'> +4.0268968e-01 </wgt>
<wgt id='1194'> +3.8667955e-01 </wgt>
<wgt id='1195'> +5.7211814e-01 </wgt>
<wgt id='1196'> +5.6331720e-01 </wgt>
<wgt id='1197'> +6.4832729e-01 </wgt>
<wgt id='1198'> +6.6544563e-01 </wgt>
<wgt id='1199'> +4.3892630e-01 </wgt>
<wgt id='1200'> +7.5100107e-01 </wgt>
<wgt id='1201'> +2.5813019e-01 </wgt>
<wgt id='1202'> +4.9532746e-01 </wgt>
<wgt id='1203'> +8.2842392e-01 </wgt>
<wgt id='1204'> +5.5159071e-01 </wgt>
<wgt id='1205'> +4.6323154e-01 </wgt>
<wgt id='1206'> +3.8716168e-01 </wgt>
<wgt id='1207'> +5.2554682e-01 </wgt>
<wgt id='1208'> +4.3790401e-01 </wgt>
<wgt id='1209'> +7.3414032e-01 </wgt>
<wgt id='1210'> +5.4268818e-01 </wgt>
<wgt id='1211'> +6.9303984e-01 </wgt>
<wgt id='1212'> +3.7619736e-01 </wgt>
<wgt id='1213'> +5.1529435e-01 </wgt>
<wgt id='1214'> +6.3244802e-01 </wgt>
<wgt id='1215'> +5.3569380e-01 </wgt>
<wgt id='1216'> +4.2559498e-01 </wgt>
<wgt id='1217'> +4.7021996e-01 </wgt>
<wgt id='1218'> +4.7731733e-01 </wgt>
<wgt id='1219'> +3.8544871e-01 </wgt>
<wgt id='1220'> +5.3946289e-01 </wgt>
<wgt id='1221'> +5.1508213e-01 </wgt>
<wgt id='1222'> +6.1649770e-01 </wgt>
<wgt id='1223'> +4.4706393e-01 </wgt>
<wgt id='1224'> +4.3746298e-01 </wgt>
<wgt id='1225'> +6.1465127e-01 </wgt>
<wgt id='1226'> +4.5158393e-01 </wgt>
<wgt id='1227'> +5.0318282e-01 </wgt>
<wgt id='1228'> +5.3123676e-01 </wgt>
<wgt id='1229'> +4.3847680e-01 </wgt>
<wgt id='1230'> +3.6369084e-01 </wgt>
<wgt id='1231'> +5.2958625e-01 </wgt>
<wgt id='1232'> +5.1765939e-01 </wgt>
<wgt id='1233'> +5.0205655e-01 </wgt>
<wgt id='1234'> +3.4557177e-01 </wgt>
<wgt id='1235'> +4.4184075e-01 </wgt>
<wgt id='1236'> +6.1985030e-01 </wgt>
<wgt id='1237'> +1.8652195e-01 </wgt>
<wgt id='1238'> +5.8332043e-01 </wgt>
<wgt id='1239'> +4.6086909e-01 </wgt>
<wgt id='1240'> +3.8458655e-01 </wgt>
<wgt id='1241'> +3.7220701e-01 </wgt>
<wgt id='1242'> +4.5283357e-01 </wgt>
<wgt id='1243'> +6.2778143e-01 </wgt>
<wgt id='1244'> +4.0726437e-01 </wgt>
<wgt id='1245'> +4.9331622e-01 </wgt>
<wgt id='1246'> +5.9506327e-01 </wgt>
<wgt id='1247'> +4.8156281e-01 </wgt>
<wgt id='1248'> +4.7399730e-01 </wgt>
<wgt id='1249'> +5.9853981e-01 </wgt>
<wgt id='1250'> +6.3230004e-01 </wgt>
<wgt id='1251'> +6.2360525e-01 </wgt>
<wgt id='1252'> +6.0195327e-01 </wgt>
<wgt id='1253'> +6.0679237e-01 </wgt>
<wgt id='1254'> +5.3789760e-01 </wgt>
<wgt id='1255'> +6.6545082e-01 </wgt>
<wgt id='1256'> +6.6527887e-01 </wgt>
<wgt id='1257'> +6.6560574e-01 </wgt>
<wgt id='1258'> +6.6728283e-01 </wgt>
<wgt id='1259'> +6.6457393e-01 </wgt>
<wgt id='1260'> +6.6273326e-01 </wgt>
<wgt id='1261'> +6.6915595e-01 </wgt>
<wgt id='1262'> +6.6436642e-01 </wgt>
<wgt id='1263'> +6.6614706e-01 </wgt>
<wgt id='1264'> +6.8441422e-01 </wgt>
<wgt id='1265'> +6.5265210e-01 </wgt>
<wgt id='1266'> +6.6417251e-01 </wgt>
<wgt id='1267'> +6.6679301e-01 </wgt>
<wgt id='1268'> +6.5554379e-01 </wgt>
<wgt id='1269'> +6.7515062e-01 </wgt>
<wgt id='1270'> +6.6829739e-01 </wgt>
<wgt id='1271'> +6.6134352e-01 </wgt>
<wgt id='1272'> +6.4165843e-01 </wgt>
<wgt id='1273'> +6.8459778e-01 </wgt>
<wgt id='1274'> +6.6608479e-01 </wgt>
<wgt id='1275'> +6.6438143e-01 </wgt>
<wgt id='1276'> +6.4885706e-01 </wgt>
<wgt id='1277'> +6.8370886e-01 </wgt>
<wgt id='1278'> +6.7349171e-01 </wgt>
<wgt id='1279'> +6.5810666e-01 </wgt>
<wgt id='1280'> +6.4989729e-01 </wgt>
<wgt id='1281'> +7.2086173e-01 </wgt>
<wgt id='1282'> +6.6545631e-01 </wgt>
<wgt id='1283'> +6.6515458e-01 </wgt>
<wgt id='1284'> +6.4583667e-01 </wgt>
<wgt id='1285'> +6.8815119e-01 </wgt>
<wgt id='1286'> +6.4704612e-01 </wgt>
<wgt id='1287'> +6.6739226e-01 </wgt>
<wgt id='1288'> +6.6317460e-01 </wgt>
<wgt id='1289'> +6.6670406e-01 </wgt>
<wgt id='1290'> +6.6674256e-01 </wgt>
<wgt id='1291'> +6.6500714e-01 </wgt>
<wgt id='1292'> +6.6777070e-01 </wgt>
<wgt id='1293'> +6.6117120e-01 </wgt>
<wgt id='1294'> +6.5907516e-01 </wgt>
<wgt id='1295'> +6.6929400e-01 </wgt>
<wgt id='1296'> +5.3785785e-01 </wgt>
<wgt id='1297'> +5.3860018e-01 </wgt>
<wgt id='1298'> +5.3724226e-01 </wgt>
<wgt id='1299'> +5.3793598e-01 </wgt>
<wgt id='1300'> +5.3775146e-01 </wgt>
<wgt id='1301'> +5.3803222e-01 </wgt>
<wgt id='1302'> +5.3757285e-01 </wgt>
<wgt id='1303'> +5.3843840e-01 </wgt>
<wgt id='1304'> +5.3747685e-01 </wgt>
<wgt id='1305'> +5.3700534e-01 </wgt>
<wgt id='1306'> +5.3907131e-01 </wgt>
<wgt id='1307'> +5.3434554e-01 </wgt>
<wgt id='1308'> +5.4000913e-01 </wgt>
<wgt id='1309'> +5.2794886e-01 </wgt>
<wgt id='1310'> +5.5151510e-01 </wgt>
<wgt id='1311'> +5.2766805e-01 </wgt>
<wgt id='1312'> +5.4150497e-01 </wgt>
<wgt id='1313'> +5.4267202e-01 </wgt>
<wgt id='1314'> +5.3104166e-01 </wgt>
<wgt id='1315'> +5.5855157e-01 </wgt>
<wgt id='1316'> +5.1920978e-01 </wgt>
<wgt id='1317'> +5.3671270e-01 </wgt>
<wgt id='1318'> +5.3986014e-01 </wgt>
<wgt id='1319'> +5.4174466e-01 </wgt>
<wgt id='1320'> +5.3466517e-01 </wgt>
<wgt id='1321'> +5.4983976e-01 </wgt>
<wgt id='1322'> +5.3199941e-01 </wgt>
<wgt id='1323'> +5.1020404e-01 </wgt>
<wgt id='1324'> +5.7333568e-01 </wgt>
<wgt id='1325'> +5.4486006e-01 </wgt>
<wgt id='1326'> +5.2863918e-01 </wgt>
<wgt id='1327'> +5.3288921e-01 </wgt>
<wgt id='1328'> +5.3981611e-01 </wgt>
<wgt id='1329'> +5.3302440e-01 </wgt>
<wgt id='1330'> +5.4085462e-01 </wgt>
<wgt id='1331'> +5.3383040e-01 </wgt>
<wgt id='1332'> +5.4059314e-01 </wgt>
<wgt id='1333'> +5.4112169e-01 </wgt>
<wgt id='1334'> +5.3189763e-01 </wgt>
<wgt id='1335'> +5.3938964e-01 </wgt>
<wgt id='1336'> +5.3757569e-01 </wgt>
<wgt id='1337'> +5.3785785e-01 </wgt>
<wgt id='1338'> +5.3721981e-01 </wgt>
<wgt id='1339'> +5.3753103e-01 </wgt>
<wgt id='1340'> +5.3772447e-01 </wgt>
<wgt id='1341'> +5.3820998e-01 </wgt>
<wgt id='1342'> +5.3832559e-01 </wgt>
<wgt id='1343'> +5.3850045e-01 </wgt>
<wgt id='1344'> +5.2217791e-01 </wgt>
<wgt id='1345'> +5.2254777e-01 </wgt>
<wgt id='1346'> +5.2181482e-01 </wgt>
<wgt id='1347'> +5.2148992e-01 </wgt>
<wgt id='1348'> +5.2261495e-01 </wgt>
<wgt id='1349'> +5.2224952e-01 </wgt>
<wgt id='1350'> +5.2204144e-01 </wgt>
<wgt id='1351'> +5.2195531e-01 </wgt>
<wgt id='1352'> +5.2250730e-01 </wgt>
<wgt id='1353'> +5.2115918e-01 </wgt>
<wgt id='1354'> +5.2286393e-01 </wgt>
<wgt id='1355'> +5.3554690e-01 </wgt>
<wgt id='1356'> +5.1192783e-01 </wgt>
<wgt id='1357'> +5.2649825e-01 </wgt>
<wgt id='1358'> +5.1955369e-01 </wgt>
<wgt id='1359'> +5.2595570e-01 </wgt>
<wgt id='1360'> +5.1259434e-01 </wgt>
<wgt id='1361'> +5.3856350e-01 </wgt>
<wgt id='1362'> +5.0941077e-01 </wgt>
<wgt id='1363'> +5.0459185e-01 </wgt>
<wgt id='1364'> +5.4477764e-01 </wgt>
<wgt id='1365'> +5.2505753e-01 </wgt>
<wgt id='1366'> +5.2051686e-01 </wgt>
<wgt id='1367'> +5.3224774e-01 </wgt>
<wgt id='1368'> +5.1709509e-01 </wgt>
<wgt id='1369'> +5.3143110e-01 </wgt>
<wgt id='1370'> +5.1387609e-01 </wgt>
<wgt id='1371'> +5.4156198e-01 </wgt>
<wgt id='1372'> +4.9953639e-01 </wgt>
<wgt id='1373'> +5.2702947e-01 </wgt>
<wgt id='1374'> +5.1815089e-01 </wgt>
<wgt id='1375'> +5.1368177e-01 </wgt>
<wgt id='1376'> +5.2470268e-01 </wgt>
<wgt id='1377'> +5.2334882e-01 </wgt>
<wgt id='1378'> +5.1997637e-01 </wgt>
<wgt id='1379'> +5.2627914e-01 </wgt>
<wgt id='1380'> +5.1867538e-01 </wgt>
<wgt id='1381'> +5.1658345e-01 </wgt>
<wgt id='1382'> +5.2431392e-01 </wgt>
<wgt id='1383'> +5.2125374e-01 </wgt>
<wgt id='1384'> +5.2732405e-01 </wgt>
<wgt id='1385'> +5.2217791e-01 </wgt>
<wgt id='1386'> +5.2193914e-01 </wgt>
<wgt id='1387'> +5.2198355e-01 </wgt>
<wgt id='1388'> +5.2207279e-01 </wgt>
<wgt id='1389'> +5.2219484e-01 </wgt>
<wgt id='1390'> +5.2233187e-01 </wgt>
<wgt id='1391'> +5.2252145e-01 </wgt>
<wgt id='1392'> +6.4533152e-01 </wgt>
<wgt id='1393'> +6.4536719e-01 </wgt>
<wgt id='1394'> +6.4534332e-01 </wgt>
<wgt id='1395'> +6.4549367e-01 </wgt>
<wgt id='1396'> +6.4523587e-01 </wgt>
<wgt id='1397'> +6.4682180e-01 </wgt>
<wgt id='1398'> +6.4398480e-01 </wgt>
<wgt id='1399'> +6.4493707e-01 </wgt>
<wgt id='1400'> +6.4581709e-01 </wgt>
<wgt id='1401'> +6.4813222e-01 </wgt>
<wgt id='1402'> +6.4191904e-01 </wgt>
<wgt id='1403'> +6.4122091e-01 </wgt>
<wgt id='1404'> +6.5358004e-01 </wgt>
<wgt id='1405'> +6.4994261e-01 </wgt>
<wgt id='1406'> +6.3902729e-01 </wgt>
<wgt id='1407'> +6.6600936e-01 </wgt>
<wgt id='1408'> +6.3121986e-01 </wgt>
<wgt id='1409'> +6.5293427e-01 </wgt>
<wgt id='1410'> +6.3683491e-01 </wgt>
<wgt id='1411'> +6.3872093e-01 </wgt>
<wgt id='1412'> +6.5038715e-01 </wgt>
<wgt id='1413'> +6.1292748e-01 </wgt>
<wgt id='1414'> +6.7905534e-01 </wgt>
<wgt id='1415'> +6.2732439e-01 </wgt>
<wgt id='1416'> +6.6189237e-01 </wgt>
<wgt id='1417'> +6.5444622e-01 </wgt>
<wgt id='1418'> +6.3369717e-01 </wgt>
<wgt id='1419'> +6.3274639e-01 </wgt>
<wgt id='1420'> +6.3952881e-01 </wgt>
<wgt id='1421'> +6.4565683e-01 </wgt>
<wgt id='1422'> +6.4369609e-01 </wgt>
<wgt id='1423'> +6.5351723e-01 </wgt>
<wgt id='1424'> +6.3956886e-01 </wgt>
<wgt id='1425'> +6.3751306e-01 </wgt>
<wgt id='1426'> +6.5600525e-01 </wgt>
<wgt id='1427'> +6.4330847e-01 </wgt>
<wgt id='1428'> +6.5051423e-01 </wgt>
<wgt id='1429'> +6.2946524e-01 </wgt>
<wgt id='1430'> +6.4293095e-01 </wgt>
<wgt id='1431'> +6.4516604e-01 </wgt>
<wgt id='1432'> +6.4532345e-01 </wgt>
<wgt id='1433'> +6.5006716e-01 </wgt>
<wgt id='1434'> +6.3882324e-01 </wgt>
<wgt id='1435'> +6.3834449e-01 </wgt>
<wgt id='1436'> +6.4993907e-01 </wgt>
<wgt id='1437'> +6.4009270e-01 </wgt>
<wgt id='1438'> +6.5894093e-01 </wgt>
<wgt id='1439'> +6.4967463e-01 </wgt>
<wgt id='1440'> +6.3521228e-01 </wgt>
<wgt id='1441'> +6.4461934e-01 </wgt>
<wgt id='1442'> +6.4490400e-01 </wgt>
<wgt id='1443'> +6.3811094e-01 </wgt>
<wgt id='1444'> +6.3815569e-01 </wgt>
<wgt id='1445'> +6.3805564e-01 </wgt>
<wgt id='1446'> +6.3825952e-01 </wgt>
<wgt id='1447'> +6.3801873e-01 </wgt>
<wgt id='1448'> +6.3960602e-01 </wgt>
<wgt id='1449'> +6.3676007e-01 </wgt>
<wgt id='1450'> +6.3759036e-01 </wgt>
<wgt id='1451'> +6.3869972e-01 </wgt>
<wgt id='1452'> +6.4151678e-01 </wgt>
<wgt id='1453'> +6.3484214e-01 </wgt>
<wgt id='1454'> +6.3493281e-01 </wgt>
<wgt id='1455'> +6.4509139e-01 </wgt>
<wgt id='1456'> +6.4502145e-01 </wgt>
<wgt id='1457'> +6.2586943e-01 </wgt>
<wgt id='1458'> +6.5930799e-01 </wgt>
<wgt id='1459'> +6.2620507e-01 </wgt>
<wgt id='1460'> +6.4499969e-01 </wgt>
<wgt id='1461'> +6.3009761e-01 </wgt>
<wgt id='1462'> +6.2968329e-01 </wgt>
<wgt id='1463'> +6.4540183e-01 </wgt>
<wgt id='1464'> +6.0953349e-01 </wgt>
<wgt id='1465'> +6.7496996e-01 </wgt>
<wgt id='1466'> +6.1208360e-01 </wgt>
<wgt id='1467'> +6.5390200e-01 </wgt>
<wgt id='1468'> +6.3155629e-01 </wgt>
<wgt id='1469'> +6.4431859e-01 </wgt>
<wgt id='1470'> +6.2719210e-01 </wgt>
<wgt id='1471'> +6.3347799e-01 </wgt>
<wgt id='1472'> +6.3751293e-01 </wgt>
<wgt id='1473'> +6.3758109e-01 </wgt>
<wgt id='1474'> +6.4034175e-01 </wgt>
<wgt id='1475'> +6.3584733e-01 </wgt>
<wgt id='1476'> +6.2596614e-01 </wgt>
<wgt id='1477'> +6.5039525e-01 </wgt>
<wgt id='1478'> +6.3594350e-01 </wgt>
<wgt id='1479'> +6.4359297e-01 </wgt>
<wgt id='1480'> +6.2085986e-01 </wgt>
<wgt id='1481'> +6.3107202e-01 </wgt>
<wgt id='1482'> +6.3779008e-01 </wgt>
<wgt id='1483'> +6.3832938e-01 </wgt>
<wgt id='1484'> +6.4115460e-01 </wgt>
<wgt id='1485'> +6.3268182e-01 </wgt>
<wgt id='1486'> +6.2947913e-01 </wgt>
<wgt id='1487'> +6.4300582e-01 </wgt>
<wgt id='1488'> +6.3314943e-01 </wgt>
<wgt id='1489'> +6.5029174e-01 </wgt>
<wgt id='1490'> +6.4226594e-01 </wgt>
<wgt id='1491'> +6.2858388e-01 </wgt>
<wgt id='1492'> +6.3682677e-01 </wgt>
<wgt id='1493'> +6.3768920e-01 </wgt>
<wgt id='1494'> +6.1616953e-01 </wgt>
<wgt id='1495'> +6.0582267e-01 </wgt>
<wgt id='1496'> +6.0981652e-01 </wgt>
<wgt id='1497'> +6.1240842e-01 </wgt>
<wgt id='1498'> +6.1693186e-01 </wgt>
<wgt id='1499'> +6.1523112e-01 </wgt>
<wgt id='1500'> +6.1552593e-01 </wgt>
<wgt id='1501'> +6.1532112e-01 </wgt>
<wgt id='1502'> +6.1558690e-01 </wgt>
<wgt id='1503'> +6.1563175e-01 </wgt>
<wgt id='1504'> +6.1543131e-01 </wgt>
<wgt id='1505'> +6.1483227e-01 </wgt>
<wgt id='1506'> +6.1496991e-01 </wgt>
<wgt id='1507'> +6.1502271e-01 </wgt>
<wgt id='1508'> +6.1523112e-01 </wgt>
<wgt id='1509'> +6.1556512e-01 </wgt>
<wgt id='1510'> +6.1535608e-01 </wgt>
<wgt id='1511'> +6.1512501e-01 </wgt>
<wgt id='1512'> +6.1462649e-01 </wgt>
<wgt id='1513'> +5.7478124e-01 </wgt>
<wgt id='1514'> +5.7457350e-01 </wgt>
<wgt id='1515'> +5.7506669e-01 </wgt>
<wgt id='1516'> +5.7580815e-01 </wgt>
<wgt id='1517'> +5.7376266e-01 </wgt>
<wgt id='1518'> +5.7539363e-01 </wgt>
<wgt id='1519'> +5.7450344e-01 </wgt>
<wgt id='1520'> +5.7718805e-01 </wgt>
<wgt id='1521'> +5.7236874e-01 </wgt>
<wgt id='1522'> +5.7953011e-01 </wgt>
<wgt id='1523'> +5.7026578e-01 </wgt>
<wgt id='1524'> +5.8454940e-01 </wgt>
<wgt id='1525'> +5.7051752e-01 </wgt>
<wgt id='1526'> +5.6990416e-01 </wgt>
<wgt id='1527'> +5.8065390e-01 </wgt>
<wgt id='1528'> +5.9305600e-01 </wgt>
<wgt id='1529'> +5.5514902e-01 </wgt>
<wgt id='1530'> +5.5110041e-01 </wgt>
<wgt id='1531'> +5.8812302e-01 </wgt>
<wgt id='1532'> +5.8708193e-01 </wgt>
<wgt id='1533'> +5.5782658e-01 </wgt>
<wgt id='1534'> +5.9668614e-01 </wgt>
<wgt id='1535'> +5.5930494e-01 </wgt>
<wgt id='1536'> +5.8774196e-01 </wgt>
<wgt id='1537'> +5.6244876e-01 </wgt>
<wgt id='1538'> +5.7995409e-01 </wgt>
<wgt id='1539'> +5.6119095e-01 </wgt>
<wgt id='1540'> +5.6098204e-01 </wgt>
<wgt id='1541'> +5.7455165e-01 </wgt>
<wgt id='1542'> +5.7132883e-01 </wgt>
<wgt id='1543'> +5.8343182e-01 </wgt>
<wgt id='1544'> +5.8040127e-01 </wgt>
<wgt id='1545'> +5.6304854e-01 </wgt>
<wgt id='1546'> +5.7825091e-01 </wgt>
<wgt id='1547'> +5.6839289e-01 </wgt>
<wgt id='1548'> +5.8943971e-01 </wgt>
<wgt id='1549'> +5.6892066e-01 </wgt>
<wgt id='1550'> +5.7142824e-01 </wgt>
<wgt id='1551'> +5.8062436e-01 </wgt>
<wgt id='1552'> +5.7466220e-01 </wgt>
<wgt id='1553'> +5.7476357e-01 </wgt>
<wgt id='1554'> +5.7250979e-01 </wgt>
<wgt id='1555'> +5.7650561e-01 </wgt>
<wgt id='1556'> +5.7402094e-01 </wgt>
<wgt id='1557'> +5.7597210e-01 </wgt>
<wgt id='1558'> +5.7292558e-01 </wgt>
<wgt id='1559'> +5.7491527e-01 </wgt>
<wgt id='1560'> +5.9089119e-01 </wgt>
<wgt id='1561'> +5.6813512e-01 </wgt>
<wgt id='1562'> +5.6931379e-01 </wgt>
<wgt id='1563'> +5.7847091e-01 </wgt>
<wgt id='1564'> +5.7478124e-01 </wgt>
<wgt id='1565'> +5.7540300e-01 </wgt>
<wgt id='1566'> +5.6902467e-01 </wgt>
<wgt id='1567'> +5.7290370e-01 </wgt>
<wgt id='1568'> +5.6794017e-01 </wgt>
<wgt id='1569'> +5.6911430e-01 </wgt>
<wgt id='1570'> +5.7005214e-01 </wgt>
<wgt id='1571'> +5.7084881e-01 </wgt>
<wgt id='1572'> +5.7207397e-01 </wgt>
<wgt id='1573'> +5.7384355e-01 </wgt>
<wgt id='1574'> +5.7442564e-01 </wgt>
<wgt id='1575'> +5.7529428e-01 </wgt>
<wgt id='1576'> +5.7290370e-01 </wgt>
<wgt id='1577'> +5.7332534e-01 </wgt>
<wgt id='1578'> +5.7320370e-01 </wgt>
<wgt id='1579'> +5.7275882e-01 </wgt>
<wgt id='1580'> +5.7254237e-01 </wgt>
<wgt id='1581'> +6.0212036e-01 </wgt>
<wgt id='1582'> +6.0591205e-01 </wgt>
<wgt id='1583'> +5.9358022e-01 </wgt>
<wgt id='1584'> +5.9800234e-01 </wgt>
<wgt id='1585'> +5.9576544e-01 </wgt>
<wgt id='1586'> +6.0453576e-01 </wgt>
<wgt id='1587'> +6.1612927e-01 </wgt>
<wgt id='1588'> +6.0754466e-01 </wgt>
<wgt id='1589'> +5.9734678e-01 </wgt>
<wgt id='1590'> +5.8863687e-01 </wgt>
<wgt id='1591'> +6.0659255e-01 </wgt>
<wgt id='1592'> +6.0294250e-01 </wgt>
<wgt id='1593'> +5.6866349e-01 </wgt>
<wgt id='1594'> +6.0526632e-01 </wgt>
<wgt id='1595'> +6.0728244e-01 </wgt>
<wgt id='1596'> +6.0803781e-01 </wgt>
<wgt id='1597'> +6.0174055e-01 </wgt>
<wgt id='1598'> +5.9029464e-01 </wgt>
<wgt id='1599'> +5.9655600e-01 </wgt>
<wgt id='1600'> +5.9926935e-01 </wgt>
<wgt id='1601'> +6.0643803e-01 </wgt>
<wgt id='1602'> +6.0215494e-01 </wgt>
<wgt id='1603'> +6.0314443e-01 </wgt>
<wgt id='1604'> +6.3675800e-01 </wgt>
<wgt id='1605'> +5.9650851e-01 </wgt>
<wgt id='1606'> +6.0115818e-01 </wgt>
<wgt id='1607'> +6.0327029e-01 </wgt>
<wgt id='1608'> +6.0258798e-01 </wgt>
<wgt id='1609'> +5.9875037e-01 </wgt>
<wgt id='1610'> +5.9805441e-01 </wgt>
<wgt id='1611'> +6.0067360e-01 </wgt>
<wgt id='1612'> +5.1482484e-01 </wgt>
<wgt id='1613'> +5.0818505e-01 </wgt>
<wgt id='1614'> +5.2556460e-01 </wgt>
<wgt id='1615'> +5.1624606e-01 </wgt>
<wgt id='1616'> +5.1191323e-01 </wgt>
<wgt id='1617'> +5.1238440e-01 </wgt>
<wgt id='1618'> +5.1750610e-01 </wgt>
<wgt id='1619'> +5.1609910e-01 </wgt>
<wgt id='1620'> +5.2151649e-01 </wgt>
<wgt id='1621'> +5.1676505e-01 </wgt>
<wgt id='1622'> +5.1451849e-01 </wgt>
<wgt id='1623'> +5.1325958e-01 </wgt>
<wgt id='1624'> +5.1771973e-01 </wgt>
<wgt id='1625'> +5.0838293e-01 </wgt>
<wgt id='1626'> +5.1820559e-01 </wgt>
<wgt id='1627'> +5.1622134e-01 </wgt>
<wgt id='1628'> +5.1833286e-01 </wgt>
<wgt id='1629'> +5.1492042e-01 </wgt>
<wgt id='1630'> +5.1490877e-01 </wgt>
<wgt id='1631'> +5.1676575e-01 </wgt>
<wgt id='1632'> +5.0726945e-01 </wgt>
<wgt id='1633'> +5.1130808e-01 </wgt>
<wgt id='1634'> +5.2137680e-01 </wgt>
<wgt id='1635'> +5.0500674e-01 </wgt>
<wgt id='1636'> +5.1849609e-01 </wgt>
<wgt id='1637'> +5.0838833e-01 </wgt>
<wgt id='1638'> +5.1704946e-01 </wgt>
<wgt id='1639'> +5.2529608e-01 </wgt>
<wgt id='1640'> +5.0786801e-01 </wgt>
<wgt id='1641'> +5.1623840e-01 </wgt>
<wgt id='1642'> +5.3448942e-01 </wgt>
<wgt id='1643'> +4.9252977e-01 </wgt>
<wgt id='1644'> +4.7988001e-01 </wgt>
<wgt id='1645'> +5.7663801e-01 </wgt>
<wgt id='1646'> +4.9797150e-01 </wgt>
<wgt id='1647'> +5.5145557e-01 </wgt>
<wgt id='1648'> +5.1247245e-01 </wgt>
<wgt id='1649'> +5.3789653e-01 </wgt>
<wgt id='1650'> +5.2155901e-01 </wgt>
<wgt id='1651'> +5.2368902e-01 </wgt>
<wgt id='1652'> +5.1390036e-01 </wgt>
<wgt id='1653'> +5.2499701e-01 </wgt>
<wgt id='1654'> +5.2023832e-01 </wgt>
<wgt id='1655'> +5.1983849e-01 </wgt>
<wgt id='1656'> +5.1311309e-01 </wgt>
<wgt id='1657'> +5.1918969e-01 </wgt>
<wgt id='1658'> +5.2571708e-01 </wgt>
<wgt id='1659'> +5.2121831e-01 </wgt>
<wgt id='1660'> +5.1507701e-01 </wgt>
<wgt id='1661'> +5.1432316e-01 </wgt>
<wgt id='1662'> +5.2064106e-01 </wgt>
<wgt id='1663'> +5.1913581e-01 </wgt>
<wgt id='1664'> +5.1340730e-01 </wgt>
<wgt id='1665'> +5.1338383e-01 </wgt>
<wgt id='1666'> +5.1915274e-01 </wgt>
<wgt id='1667'> +5.0559901e-01 </wgt>
<wgt id='1668'> +5.0090666e-01 </wgt>
<wgt id='1669'> +5.1448940e-01 </wgt>
<wgt id='1670'> +5.2305132e-01 </wgt>
<wgt id='1671'> +5.1397797e-01 </wgt>
<wgt id='1672'> +5.1555000e-01 </wgt>
<wgt id='1673'> +5.1445686e-01 </wgt>
<wgt id='1674'> +5.1468838e-01 </wgt>
<wgt id='1675'> +5.2439488e-01 </wgt>
<wgt id='1676'> +5.1748935e-01 </wgt>
<wgt id='1677'> +5.1458052e-01 </wgt>
<wgt id='1678'> +5.1606086e-01 </wgt>
<wgt id='1679'> +5.1641795e-01 </wgt>
<wgt id='1680'> +5.2738760e-01 </wgt>
<wgt id='1681'> +5.0795647e-01 </wgt>
<wgt id='1682'> +5.2570918e-01 </wgt>
<wgt id='1683'> +5.2590748e-01 </wgt>
<wgt id='1684'> +5.1798142e-01 </wgt>
<wgt id='1685'> +5.1569710e-01 </wgt>
<wgt id='1686'> +5.1000102e-01 </wgt>
<wgt id='1687'> +5.2540997e-01 </wgt>
<wgt id='1688'> +5.1482719e-01 </wgt>
<wgt id='1689'> +5.0485176e-01 </wgt>
<wgt id='1690'> +5.0961416e-01 </wgt>
<wgt id='1691'> +5.0896346e-01 </wgt>
<wgt id='1692'> +5.1414571e-01 </wgt>
<wgt id='1693'> +5.1197519e-01 </wgt>
<wgt id='1694'> +5.1548697e-01 </wgt>
<wgt id='1695'> +5.1330778e-01 </wgt>
<wgt id='1696'> +5.1116798e-01 </wgt>
<wgt id='1697'> +5.1523379e-01 </wgt>
<wgt id='1698'> +5.1562496e-01 </wgt>
<wgt id='1699'> +5.1095739e-01 </wgt>
<wgt id='1700'> +5.1547575e-01 </wgt>
<wgt id='1701'> +5.1732921e-01 </wgt>
<wgt id='1702'> +5.1419993e-01 </wgt>
<wgt id='1703'> +5.1386588e-01 </wgt>
<wgt id='1704'> +5.1914540e-01 </wgt>
<wgt id='1705'> +5.0779125e-01 </wgt>
<wgt id='1706'> +5.1555855e-01 </wgt>
<wgt id='1707'> +5.1778881e-01 </wgt>
<wgt id='1708'> +5.1369816e-01 </wgt>
<wgt id='1709'> +5.1478609e-01 </wgt>
<wgt id='1710'> +5.1062108e-01 </wgt>
<wgt id='1711'> +5.1319288e-01 </wgt>
<wgt id='1712'> +5.1452129e-01 </wgt>
<wgt id='1713'> +5.1112327e-01 </wgt>
<wgt id='1714'> +5.2018770e-01 </wgt>
<wgt id='1715'> +4.4325576e-01 </wgt>
<wgt id='1716'> +3.8000473e-01 </wgt>
<wgt id='1717'> +4.6790394e-01 </wgt>
<wgt id='1718'> +3.1185041e-01 </wgt>
<wgt id='1719'> +3.6337122e-01 </wgt>
<wgt id='1720'> +4.8987066e-01 </wgt>
<wgt id='1721'> +4.4900077e-01 </wgt>
<wgt id='1722'> +5.8799251e-01 </wgt>
<wgt id='1723'> +4.2255440e-01 </wgt>
<wgt id='1724'> +4.4747622e-01 </wgt>
<wgt id='1725'> +4.0022254e-01 </wgt>
<wgt id='1726'> +5.3077073e-01 </wgt>
<wgt id='1727'> +5.3014114e-01 </wgt>
<wgt id='1728'> +4.3389530e-01 </wgt>
<wgt id='1729'> +3.5606609e-01 </wgt>
<wgt id='1730'> +3.1540751e-01 </wgt>
<wgt id='1731'> +3.3137883e-01 </wgt>
<wgt id='1732'> +3.6121573e-01 </wgt>
<wgt id='1733'> +3.8785843e-01 </wgt>
<wgt id='1734'> +3.7382326e-01 </wgt>
<wgt id='1735'> +4.7198247e-01 </wgt>
<wgt id='1736'> +2.5114488e-01 </wgt>
<wgt id='1737'> +4.3653521e-01 </wgt>
<wgt id='1738'> +4.9151275e-01 </wgt>
<wgt id='1739'> +4.0236566e-01 </wgt>
<wgt id='1740'> +4.3073681e-01 </wgt>
<wgt id='1741'> +1.8458486e-01 </wgt>
<wgt id='1742'> +4.7609631e-01 </wgt>
<wgt id='1743'> +4.3541373e-01 </wgt>
<wgt id='1744'> +4.6335261e-01 </wgt>
<wgt id='1745'> +3.8722663e-01 </wgt>
<wgt id='1746'> +3.5291778e-01 </wgt>
<wgt id='1747'> +3.8196958e-01 </wgt>
<wgt id='1748'> +4.2604451e-01 </wgt>
<wgt id='1749'> +3.8768619e-01 </wgt>
<wgt id='1750'> +6.1561098e-01 </wgt>
<wgt id='1751'> +3.8542040e-01 </wgt>
<wgt id='1752'> +3.9164601e-01 </wgt>
<wgt id='1753'> +7.8498668e-01 </wgt>
<wgt id='1754'> +4.4577291e-01 </wgt>
<wgt id='1755'> +3.9463245e-01 </wgt>
<wgt id='1756'> +4.8824498e-01 </wgt>
<wgt id='1757'> +6.5774093e-01 </wgt>
<wgt id='1758'> +3.4974478e-01 </wgt>
<wgt id='1759'> +3.8981096e-01 </wgt>
<wgt id='1760'> +3.9034946e-01 </wgt>
<wgt id='1761'> +4.4460827e-01 </wgt>
<wgt id='1762'> +5.3014114e-01 </wgt>
<wgt id='1763'> +4.7121328e-01 </wgt>
<wgt id='1764'> +5.6059849e-01 </wgt>
<wgt id='1765'> +5.5185452e-01 </wgt>
<wgt id='1766'> +4.0841067e-01 </wgt>
<wgt id='1767'> +4.7004974e-01 </wgt>
<wgt id='1768'> +5.2583009e-01 </wgt>
<wgt id='1769'> +5.6429212e-01 </wgt>
<wgt id='1770'> +6.0508753e-01 </wgt>
<wgt id='1771'> +4.6590858e-01 </wgt>
<wgt id='1772'> +4.1105366e-01 </wgt>
<wgt id='1773'> +5.3550609e-01 </wgt>
<wgt id='1774'> +5.1306802e-01 </wgt>
<wgt id='1775'> +4.6011789e-01 </wgt>
<wgt id='1776'> +5.5920973e-01 </wgt>
<wgt id='1777'> +4.8581448e-01 </wgt>
<wgt id='1778'> +5.4443470e-01 </wgt>
<wgt id='1779'> +5.2903835e-01 </wgt>
<wgt id='1780'> +6.6612444e-01 </wgt>
<wgt id='1781'> +4.2739219e-01 </wgt>
<wgt id='1782'> +4.3310652e-01 </wgt>
<wgt id='1783'> +3.7698369e-01 </wgt>
<wgt id='1784'> +3.0154555e-01 </wgt>
<wgt id='1785'> +6.5683889e-01 </wgt>
<wgt id='1786'> +4.6189536e-01 </wgt>
<wgt id='1787'> +4.1601194e-01 </wgt>
<wgt id='1788'> +5.3774430e-01 </wgt>
<wgt id='1789'> +3.8631634e-01 </wgt>
<wgt id='1790'> +4.8912700e-01 </wgt>
<wgt id='1791'> +3.0561237e-01 </wgt>
<wgt id='1792'> +4.4073965e-01 </wgt>
<wgt id='1793'> +4.7770020e-01 </wgt>
<wgt id='1794'> +4.5091531e-01 </wgt>
<wgt id='1795'> +3.7090333e-01 </wgt>
<wgt id='1796'> +4.6084244e-01 </wgt>
<wgt id='1797'> +3.9855245e-01 </wgt>
<wgt id='1798'> +5.1986374e-01 </wgt>
<wgt id='1799'> +4.2112935e-01 </wgt>
<wgt id='1800'> +3.0693756e-01 </wgt>
<wgt id='1801'> +4.2897739e-01 </wgt>
<wgt id='1802'> +3.7687802e-01 </wgt>
<wgt id='1803'> +3.2497807e-01 </wgt>
<wgt id='1804'> +4.8950915e-01 </wgt>
<wgt id='1805'> +3.7503389e-01 </wgt>
<wgt id='1806'> +4.8311409e-01 </wgt>
<wgt id='1807'> +4.3389252e-01 </wgt>
<wgt id='1808'> +4.5060106e-01 </wgt>
<wgt id='1809'> +4.4243512e-01 </wgt>
<wgt id='1810'> +2.5579605e-01 </wgt>
<wgt id='1811'> +4.2286165e-01 </wgt>
<wgt id='1812'> +3.5926000e-01 </wgt>
<wgt id='1813'> +4.4253946e-01 </wgt>
<wgt id='1814'> +4.0149474e-01 </wgt>
<wgt id='1815'> +4.8504150e-01 </wgt>
<wgt id='1816'> +5.7501703e-01 </wgt>
<wgt id='1817'> +5.8495900e-01 </wgt>
<wgt id='1818'> +5.7940994e-01 </wgt>
<wgt id='1819'> +5.3461613e-01 </wgt>
<wgt id='1820'> +5.6937316e-01 </wgt>
<wgt id='1821'> +4.5828489e-01 </wgt>
<wgt id='1822'> +5.9369222e-01 </wgt>
<wgt id='1823'> +5.5734394e-01 </wgt>
<wgt id='1824'> +6.0470711e-01 </wgt>
<wgt id='1825'> +4.7800316e-01 </wgt>
<wgt id='1826'> +6.2911214e-01 </wgt>
<wgt id='1827'> +6.9281551e-01 </wgt>
<wgt id='1828'> +5.8978769e-01 </wgt>
<wgt id='1829'> +5.7427343e-01 </wgt>
<wgt id='1830'> +5.8651108e-01 </wgt>
<wgt id='1831'> +5.2792541e-01 </wgt>
<wgt id='1832'> +5.6682024e-01 </wgt>
<wgt id='1833'> +5.6043142e-01 </wgt>
<wgt id='1834'> +5.0895943e-01 </wgt>
<wgt id='1835'> +4.9314383e-01 </wgt>
<wgt id='1836'> +5.8962650e-01 </wgt>
<wgt id='1837'> +7.3573644e-01 </wgt>
<wgt id='1838'> +6.1429952e-01 </wgt>
<wgt id='1839'> +6.8241593e-01 </wgt>
<wgt id='1840'> +6.6136660e-01 </wgt>
<wgt id='1841'> +5.9239255e-01 </wgt>
<wgt id='1842'> +6.0947815e-01 </wgt>
<wgt id='1843'> +5.3019995e-01 </wgt>
<wgt id='1844'> +5.6658471e-01 </wgt>
<wgt id='1845'> +6.1748648e-01 </wgt>
<wgt id='1846'> +5.9980540e-01 </wgt>
<wgt id='1847'> +6.0175118e-01 </wgt>
<wgt id='1848'> +5.4040054e-01 </wgt>
<wgt id='1849'> +5.8400828e-01 </wgt>
<wgt id='1850'> +5.2903173e-01 </wgt>
<wgt id='1851'> +5.3105633e-01 </wgt>
<wgt id='1852'> +5.1058699e-01 </wgt>
<wgt id='1853'> +4.1098787e-01 </wgt>
<wgt id='1854'> +5.8138267e-01 </wgt>
<wgt id='1855'> +5.7273159e-01 </wgt>
<wgt id='1856'> +6.4422876e-01 </wgt>
<wgt id='1857'> +5.0008585e-01 </wgt>
<wgt id='1858'> +6.4359901e-01 </wgt>
<wgt id='1859'> +6.5701761e-01 </wgt>
<wgt id='1860'> +6.1843284e-01 </wgt>
<wgt id='1861'> +4.8812496e-01 </wgt>
<wgt id='1862'> +5.9563156e-01 </wgt>
<wgt id='1863'> +6.3459819e-01 </wgt>
<wgt id='1864'> +5.6563362e-01 </wgt>
<wgt id='1865'> +4.5741170e-01 </wgt>
<wgt id='1866'> +6.9122040e-01 </wgt>
<wgt id='1867'> +6.8303472e-01 </wgt>
<wgt id='1868'> +5.5193476e-01 </wgt>
<wgt id='1869'> +6.0100021e-01 </wgt>
<wgt id='1870'> +6.5604598e-01 </wgt>
<wgt id='1871'> +5.8939071e-01 </wgt>
<wgt id='1872'> +5.1353882e-01 </wgt>
<wgt id='1873'> +4.7880449e-01 </wgt>
<wgt id='1874'> +7.0087850e-01 </wgt>
<wgt id='1875'> +4.3888290e-01 </wgt>
<wgt id='1876'> +6.4821797e-01 </wgt>
<wgt id='1877'> +6.4891349e-01 </wgt>
<wgt id='1878'> +4.3087235e-01 </wgt>
<wgt id='1879'> +5.0500263e-01 </wgt>
<wgt id='1880'> +6.7989309e-01 </wgt>
<wgt id='1881'> +4.5382278e-01 </wgt>
<wgt id='1882'> +6.1479901e-01 </wgt>
<wgt id='1883'> +6.7425412e-01 </wgt>
<wgt id='1884'> +6.7071345e-01 </wgt>
<wgt id='1885'> +4.3190918e-01 </wgt>
<wgt id='1886'> +6.5368016e-01 </wgt>
<wgt id='1887'> +6.2086329e-01 </wgt>
<wgt id='1888'> +6.7678190e-01 </wgt>
<wgt id='1889'> +4.8900862e-01 </wgt>
<wgt id='1890'> +5.9154686e-01 </wgt>
<wgt id='1891'> +4.9564800e-01 </wgt>
<wgt id='1892'> +7.1743550e-01 </wgt>
<wgt id='1893'> +5.8324713e-01 </wgt>
<wgt id='1894'> +5.7406379e-01 </wgt>
<wgt id='1895'> +6.4943349e-01 </wgt>
<wgt id='1896'> +4.1854494e-01 </wgt>
<wgt id='1897'> +7.1354879e-01 </wgt>
<wgt id='1898'> +5.9667193e-01 </wgt>
<wgt id='1899'> +6.9046696e-01 </wgt>
<wgt id='1900'> +4.8738928e-01 </wgt>
<wgt id='1901'> +3.7467486e-01 </wgt>
<wgt id='1902'> +4.8749969e-01 </wgt>
<wgt id='1903'> +5.1471784e-01 </wgt>
<wgt id='1904'> +5.9280457e-01 </wgt>
<wgt id='1905'> +6.6128563e-01 </wgt>
<wgt id='1906'> +6.2808943e-01 </wgt>
<wgt id='1907'> +5.5759546e-01 </wgt>
<wgt id='1908'> +5.7007975e-01 </wgt>
<wgt id='1909'> +6.1540454e-01 </wgt>
<wgt id='1910'> +7.2788891e-01 </wgt>
<wgt id='1911'> +3.5463898e-01 </wgt>
<wgt id='1912'> +5.4502213e-01 </wgt>
<wgt id='1913'> +4.7622185e-01 </wgt>
<wgt id='1914'> +5.3498274e-01 </wgt>
<wgt id='1915'> +6.1928646e-01 </wgt>
<wgt id='1916'> +4.6816283e-01 </wgt>
<wgt id='1917'> +6.5621893e-01 </wgt>
<wgt id='1918'> +7.4437565e-01 </wgt>
<wgt id='1919'> +5.7501703e-01 </wgt>
<wgt id='1920'> +5.8495900e-01 </wgt>
<wgt id='1921'> +5.7940994e-01 </wgt>
<wgt id='1922'> +5.3461613e-01 </wgt>
<wgt id='1923'> +5.6937316e-01 </wgt>
<wgt id='1924'> +4.5828489e-01 </wgt>
<wgt id='1925'> +5.9369222e-01 </wgt>
<wgt id='1926'> +5.5734394e-01 </wgt>
<wgt id='1927'> +6.0470711e-01 </wgt>
<wgt id='1928'> +4.7800316e-01 </wgt>
<wgt id='1929'> +6.2911214e-01 </wgt>
<wgt id='1930'> +6.9281551e-01 </wgt>
<wgt id='1931'> +5.8978769e-01 </wgt>
<wgt id='1932'> +5.7427343e-01 </wgt>
<wgt id='1933'> +5.8651108e-01 </wgt>
<wgt id='1934'> +5.2792541e-01 </wgt>
<wgt id='1935'> +5.6682024e-01 </wgt>
<wgt id='1936'> +5.6043142e-01 </wgt>
<wgt id='1937'> +5.0895943e-01 </wgt>
<wgt id='1938'> +4.9314383e-01 </wgt>
<wgt id='1939'> +5.8962650e-01 </wgt>
<wgt id='1940'> +7.3573644e-01 </wgt>
<wgt id='1941'> +6.1429952e-01 </wgt>
<wgt id='1942'> +6.8241593e-01 </wgt>
<wgt id='1943'> +6.6136660e-01 </wgt>
<wgt id='1944'> +5.9239255e-01 </wgt>
<wgt id='1945'> +6.0947815e-01 </wgt>
<wgt id='1946'> +5.3019995e-01 </wgt>
<wgt id='1947'> +5.6658471e-01 </wgt>
<wgt id='1948'> +6.1748648e-01 </wgt>
<wgt id='1949'> +5.9980540e-01 </wgt>
<wgt id='1950'> +6.0175118e-01 </wgt>
<wgt id='1951'> +5.4040054e-01 </wgt>
<wgt id='1952'> +5.8400828e-01 </wgt>
<wgt id='1953'> +5.2903173e-01 </wgt>
<wgt id='1954'> +5.3105633e-01 </wgt>
<wgt id='1955'> +5.1058699e-01 </wgt>
<wgt id='1956'> +4.1098787e-01 </wgt>
<wgt id='1957'> +5.8138267e-01 </wgt>
<wgt id='1958'> +5.7273159e-01 </wgt>
<wgt id='1959'> +6.4422876e-01 </wgt>
<wgt id='1960'> +5.0008585e-01 </wgt>
<wgt id='1961'> +6.4359901e-01 </wgt>
<wgt id='1962'> +6.5701761e-01 </wgt>
<wgt id='1963'> +6.1843284e-01 </wgt>
<wgt id='1964'> +4.8812496e-01 </wgt>
<wgt id='1965'> +5.9563156e-01 </wgt>
<wgt id='1966'> +6.3459819e-01 </wgt>
<wgt id='1967'> +5.6563362e-01 </wgt>
<wgt id='1968'> +4.5741170e-01 </wgt>
<wgt id='1969'> +6.9122040e-01 </wgt>
<wgt id='1970'> +6.8303472e-01 </wgt>
<wgt id='1971'> +5.5193476e-01 </wgt>
<wgt id='1972'> +6.0100021e-01 </wgt>
<wgt id='1973'> +6.5604598e-01 </wgt>
<wgt id='1974'> +5.8939071e-01 </wgt>
<wgt id='1975'> +5.1353882e-01 </wgt>
<wgt id='1976'> +4.7880449e-01 </wgt>
<wgt id='1977'> +7.0087850e-01 </wgt>
<wgt id='1978'> +4.3888290e-01 </wgt>
<wgt id='1979'> +6.4821797e-01 </wgt>
<wgt id='1980'> +6.4891349e-01 </wgt>
<wgt id='1981'> +4.3087235e-01 </wgt>
<wgt id='1982'> +5.0500263e-01 </wgt>
<wgt id='1983'> +6.7989309e-01 </wgt>
<wgt id='1984'> +4.5382278e-01 </wgt>
<wgt id='1985'> +6.1479901e-01 </wgt>
<wgt id='1986'> +6.7425412e-01 </wgt>
<wgt id='1987'> +6.7071345e-01 </wgt>
<wgt id='1988'> +4.3190918e-01 </wgt>
<wgt id='1989'> +6.5368016e-01 </wgt>
<wgt id='1990'> +6.2086329e-01 </wgt>
<wgt id='1991'> +6.7678190e-01 </wgt>
<wgt id='1992'> +4.8900862e-01 </wgt>
<wgt id='1993'> +5.9154686e-01 </wgt>
<wgt id='1994'> +4.9564800e-01 </wgt>
<wgt id='1995'> +7.1743550e-01 </wgt>
<wgt id='1996'> +5.8324713e-01 </wgt>
<wgt id='1997'> +5.7406379e-01 </wgt>
<wgt id='1998'> +6.4943349e-01 </wgt>
<wgt id='1999'> +4.1854494e-01 </wgt>
<wgt id='2000'> +7.1354879e-01 </wgt>
<wgt id='2001'> +5.9667193e-01 </wgt>
<wgt id='2002'> +6.9046696e-01 </wgt>
<wgt id='2003'> +4.8738928e-01 </wgt>
<wgt id='2004'> +3.7467486e-01 </wgt>
<wgt id='2005'> +4.8749969e-01 </wgt>
<wgt id='2006'> +5.1471784e-01 </wgt>
<wgt id='2007'> +5.9280457e-01 </wgt>
<wgt id='2008'> +6.6128563e-01 </wgt>
<wgt id='2009'> +6.2808943e-01 </wgt>
<wgt id='2010'> +5.5759546e-01 </wgt>
<wgt id='2011'> +5.7007975e-01 </wgt>
<wgt id='2012'> +6.1540454e-01 </wgt>
<wgt id='2013'> +7.2788891e-01 </wgt>
<wgt id='2014'> +3.5463898e-01 </wgt>
<wgt id='2015'> +5.4502213e-01 </wgt>
<wgt id='2016'> +4.7622185e-01 </wgt>
<wgt id='2017'> +5.3498274e-01 </wgt>
<wgt id='2018'> +6.1928646e-01 </wgt>
<wgt id='2019'> +4.6816283e-01 </wgt>
<wgt id='2020'> +5.8685354e-01 </wgt>
<wgt id='2021'> +5.9065115e-01 </wgt>
<wgt id='2022'> +6.1164113e-01 </wgt>
</rwgt>
</event>
<event>
 13 2 0.0079112 7.71991000e+01 7.81860800e-03 1.18253800e-01
       21 -1    0    0  502  503 +0.0000000000e+00 +0.0000000000e+00 +1.0027501001e+03 1.0027501001e+03 0.0000000000e+00 0.0000e+00 1.0000e+00
        3 -1    0    0  501    0 +0.0000000000e+00 +0.0000000000e+00 -3.6924858356e+02 3.6924859737e+02 1.0100000000e-01 0.0000e+00 -1.0000e+00
 -8000001  2    1    2    0  503 +3.7961044442e+00 -6.2689106935e+01 +6.9424232731e+02 9.1973725679e+02 5.9999989830e+02 0.0000e+00 0.0000e+00
        4  1    1    2  501    0 +4.1618636273e+00 +5.9143888385e+01 -2.5294462875e+02 2.5980361575e+02 1.2700000000e+00 0.0000e+00 -1.0000e+00
        5  1    1    2  502    0 -7.9579680715e+00 +3.5452185500e+00 +1.9220381798e+02 1.9245782493e+02 4.6700000000e+00 0.0000e+00 1.0000e+00
       -6  2    3    3    0  503 +1.9023678077e+02 -8.1494031713e+01 +9.7883364883e+01 2.8794941312e+02 1.7464936711e+02 0.0000e+00 0.0000e+00
       -5  1    6    6    0  503 +7.6300428239e+01 -7.1110320497e+01 -1.9922854852e+01 1.0628810882e+02 4.6700000000e+00 0.0000e+00 1.0000e+00
      -24  2    6    6    0    0 +1.1393635253e+02 -1.0383711217e+01 +1.1780621973e+02 1.8166130430e+02 7.7673741928e+01 0.0000e+00 0.0000e+00
      -16  1    8    8    0    0 +1.2482100051e+02 -1.2270736494e+01 +1.1491033375e+02 1.7010360944e+02 0.0000000000e+00 0.0000e+00 1.0000e+00
       15  1    8    8    0    0 -1.0884647979e+01 +1.8870252774e+00 +2.8958859886e+00 1.1557694861e+01 1.7770000000e+00 0.0000e+00 -1.0000e+00
       23  2    3    3    0    0 -1.8644067632e+02 +1.8804924778e+01 +5.9635896243e+02 6.3178784367e+02 9.1641237223e+01 0.0000e+00 0.0000e+00
        3  1   11   11  504    0 -9.8675339394e+00 -1.3326999412e+01 +1.1945776650e+01 2.0437439178e+01 1.0100000000e-01 0.0000e+00 -1.0000e+00
       -3  1   11   11    0  504 -1.7657314238e+02 +3.2131924190e+01 +5.8441318578e+02 6.1135040449e+02 1.0100000000e-01 0.0000e+00 1.0000e+00
<mgrwt>
<rscale>  1 0.67669553e+02</rscale>
<asrwt>0</asrwt>
<pdfrwt beam="1">  1       21 0.15426925e+00 0.77199096e+02</pdfrwt>
<pdfrwt beam="2">  1        3 0.56807476e-01 0.59316349e+02</pdfrwt>
<totfact> 0.62719386e+01</totfact>
</mgrwt>
<rwgt>
<wgt id='1001'> +5.2878984e-01 </wgt>
<wgt id='1002'> +3.2091263e-01 </wgt>
<wgt id='1003'> +3.2073670e-01 </wgt>
<wgt id='1004'> +3.7894116e-01 </wgt>
<wgt id='1005'> +2.6372670e-01 </wgt>
<wgt id='1006'> +4.7418678e-01 </wgt>
<wgt id='1007'> +2.9571431e-01 </wgt>
<wgt id='1008'> +2.9555922e-01 </wgt>
<wgt id='1009'> +3.4653051e-01 </wgt>
<wgt id='1010'> +2.4496702e-01 </wgt>
<wgt id='1011'> +5.9818355e-01 </wgt>
<wgt id='1012'> +3.5093739e-01 </wgt>
<wgt id='1013'> +3.5073488e-01 </wgt>
<wgt id='1014'> +4.1825262e-01 </wgt>
<wgt id='1015'> +2.8567471e-01 </wgt>
<wgt id='1016'> +4.8796901e-01 </wgt>
<wgt id='1017'> +2.9793883e-01 </wgt>
<wgt id='1018'> +2.9777814e-01 </wgt>
<wgt id='1019'> +3.5073488e-01 </wgt>
<wgt id='1020'> +2.4592327e-01 </wgt>
<wgt id='1021'> +4.3758112e-01 </wgt>
<wgt id='1022'> +2.7454443e-01 </wgt>
<wgt id='1023'> +2.7440288e-01 </wgt>
<wgt id='1024'> +3.2073670e-01 </wgt>
<wgt id='1025'> +2.2843000e-01 </wgt>
<wgt id='1026'> +5.5200575e-01 </wgt>
<wgt id='1027'> +3.2581415e-01 </wgt>
<wgt id='1028'> +3.2562903e-01 </wgt>
<wgt id='1029'> +3.8712022e-01 </wgt>
<wgt id='1030'> +2.6638963e-01 </wgt>
<wgt id='1031'> +5.7348711e-01 </wgt>
<wgt id='1032'> +3.4672497e-01 </wgt>
<wgt id='1033'> +3.4653051e-01 </wgt>
<wgt id='1034'> +4.1070685e-01 </wgt>
<wgt id='1035'> +2.8382478e-01 </wgt>
<wgt id='1036'> +5.1426859e-01 </wgt>
<wgt id='1037'> +3.1949985e-01 </wgt>
<wgt id='1038'> +3.1932824e-01 </wgt>
<wgt id='1039'> +3.7557929e-01 </wgt>
<wgt id='1040'> +2.6363546e-01 </wgt>
<wgt id='1041'> +6.4874650e-01 </wgt>
<wgt id='1042'> +3.7916475e-01 </wgt>
<wgt id='1043'> +3.7894116e-01 </wgt>
<wgt id='1044'> +4.5331369e-01 </wgt>
<wgt id='1045'> +3.0744540e-01 </wgt>
<wgt id='1046'> +5.2878984e-01 </wgt>
<wgt id='1047'> +5.2878984e-01 </wgt>
<wgt id='1048'> +5.2878984e-01 </wgt>
<wgt id='1049'> +5.2406438e-01 </wgt>
<wgt id='1050'> +5.3010266e-01 </wgt>
<wgt id='1051'> +5.2451038e-01 </wgt>
<wgt id='1052'> +5.2593563e-01 </wgt>
<wgt id='1053'> +5.2792373e-01 </wgt>
<wgt id='1054'> +5.3255639e-01 </wgt>
<wgt id='1055'> +5.3142883e-01 </wgt>
<wgt id='1056'> +5.3633747e-01 </wgt>
<wgt id='1057'> +5.2360637e-01 </wgt>
<wgt id='1058'> +5.2461456e-01 </wgt>
<wgt id='1059'> +5.2221509e-01 </wgt>
<wgt id='1060'> +5.3224600e-01 </wgt>
<wgt id='1061'> +5.2707694e-01 </wgt>
<wgt id='1062'> +5.2521074e-01 </wgt>
<wgt id='1063'> +5.1823768e-01 </wgt>
<wgt id='1064'> +5.3350735e-01 </wgt>
<wgt id='1065'> +5.2555522e-01 </wgt>
<wgt id='1066'> +5.3325632e-01 </wgt>
<wgt id='1067'> +5.2452853e-01 </wgt>
<wgt id='1068'> +5.3648574e-01 </wgt>
<wgt id='1069'> +5.3133472e-01 </wgt>
<wgt id='1070'> +5.2974410e-01 </wgt>
<wgt id='1071'> +5.2988061e-01 </wgt>
<wgt id='1072'> +5.3142446e-01 </wgt>
<wgt id='1073'> +5.3446950e-01 </wgt>
<wgt id='1074'> +5.3217776e-01 </wgt>
<wgt id='1075'> +5.2400522e-01 </wgt>
<wgt id='1076'> +5.3010713e-01 </wgt>
<wgt id='1077'> +5.2195946e-01 </wgt>
<wgt id='1078'> +5.2408760e-01 </wgt>
<wgt id='1079'> +5.1825085e-01 </wgt>
<wgt id='1080'> +5.3091854e-01 </wgt>
<wgt id='1081'> +5.2213548e-01 </wgt>
<wgt id='1082'> +5.3035466e-01 </wgt>
<wgt id='1083'> +5.3218684e-01 </wgt>
<wgt id='1084'> +5.2424306e-01 </wgt>
<wgt id='1085'> +5.2361872e-01 </wgt>
<wgt id='1086'> +5.3008638e-01 </wgt>
<wgt id='1087'> +5.2303714e-01 </wgt>
<wgt id='1088'> +5.2707583e-01 </wgt>
<wgt id='1089'> +5.2725692e-01 </wgt>
<wgt id='1090'> +5.2357368e-01 </wgt>
<wgt id='1091'> +5.3041328e-01 </wgt>
<wgt id='1092'> +5.3527963e-01 </wgt>
<wgt id='1093'> +5.2905716e-01 </wgt>
<wgt id='1094'> +5.2268886e-01 </wgt>
<wgt id='1095'> +5.3412367e-01 </wgt>
<wgt id='1096'> +5.2187330e-01 </wgt>
<wgt id='1097'> +5.3557280e-01 </wgt>
<wgt id='1098'> +5.2881737e-01 </wgt>
<wgt id='1099'> +5.2905586e-01 </wgt>
<wgt id='1100'> +5.2998856e-01 </wgt>
<wgt id='1101'> +5.2375046e-01 </wgt>
<wgt id='1102'> +5.2755416e-01 </wgt>
<wgt id='1103'> +5.2904638e-01 </wgt>
<wgt id='1104'> +5.3017787e-01 </wgt>
<wgt id='1105'> +5.3080954e-01 </wgt>
<wgt id='1106'> +5.2457188e-01 </wgt>
<wgt id='1107'> +5.3035871e-01 </wgt>
<wgt id='1108'> +5.2915173e-01 </wgt>
<wgt id='1109'> +5.2569292e-01 </wgt>
<wgt id='1110'> +5.3266663e-01 </wgt>
<wgt id='1111'> +5.3218340e-01 </wgt>
<wgt id='1112'> +5.3378914e-01 </wgt>
<wgt id='1113'> +5.2180581e-01 </wgt>
<wgt id='1114'> +5.2653979e-01 </wgt>
<wgt id='1115'> +5.2940590e-01 </wgt>
<wgt id='1116'> +5.2989924e-01 </wgt>
<wgt id='1117'> +5.3105477e-01 </wgt>
<wgt id='1118'> +5.2738091e-01 </wgt>
<wgt id='1119'> +5.3077438e-01 </wgt>
<wgt id='1120'> +5.2565493e-01 </wgt>
<wgt id='1121'> +5.3091998e-01 </wgt>
<wgt id='1122'> +5.2611320e-01 </wgt>
<wgt id='1123'> +5.3053884e-01 </wgt>
<wgt id='1124'> +5.3068126e-01 </wgt>
<wgt id='1125'> +5.3173242e-01 </wgt>
<wgt id='1126'> +5.3119500e-01 </wgt>
<wgt id='1127'> +5.2908663e-01 </wgt>
<wgt id='1128'> +5.2857649e-01 </wgt>
<wgt id='1129'> +5.2895498e-01 </wgt>
<wgt id='1130'> +5.2977160e-01 </wgt>
<wgt id='1131'> +5.2953334e-01 </wgt>
<wgt id='1132'> +5.2947654e-01 </wgt>
<wgt id='1133'> +5.3019268e-01 </wgt>
<wgt id='1134'> +5.2798582e-01 </wgt>
<wgt id='1135'> +5.2788002e-01 </wgt>
<wgt id='1136'> +5.2857003e-01 </wgt>
<wgt id='1137'> +5.2860346e-01 </wgt>
<wgt id='1138'> +5.2680416e-01 </wgt>
<wgt id='1139'> +5.2768913e-01 </wgt>
<wgt id='1140'> +5.2808970e-01 </wgt>
<wgt id='1141'> +5.2907335e-01 </wgt>
<wgt id='1142'> +5.2890765e-01 </wgt>
<wgt id='1143'> +5.3004234e-01 </wgt>
<wgt id='1144'> +5.2834905e-01 </wgt>
<wgt id='1145'> +5.2947334e-01 </wgt>
<wgt id='1146'> +5.2904416e-01 </wgt>
<wgt id='1147'> +5.2965335e-01 </wgt>
<wgt id='1148'> +5.2878984e-01 </wgt>
<wgt id='1149'> +5.2113286e-01 </wgt>
<wgt id='1150'> +4.1577149e-01 </wgt>
<wgt id='1151'> +5.2233291e-01 </wgt>
<wgt id='1152'> +4.8176695e-01 </wgt>
<wgt id='1153'> +5.3861643e-01 </wgt>
<wgt id='1154'> +5.0705341e-01 </wgt>
<wgt id='1155'> +5.3817347e-01 </wgt>
<wgt id='1156'> +4.9983564e-01 </wgt>
<wgt id='1157'> +4.9694977e-01 </wgt>
<wgt id='1158'> +5.0371538e-01 </wgt>
<wgt id='1159'> +5.3361856e-01 </wgt>
<wgt id='1160'> +4.8483553e-01 </wgt>
<wgt id='1161'> +5.5528198e-01 </wgt>
<wgt id='1162'> +5.6053277e-01 </wgt>
<wgt id='1163'> +4.5753203e-01 </wgt>
<wgt id='1164'> +4.7123636e-01 </wgt>
<wgt id='1165'> +4.9934847e-01 </wgt>
<wgt id='1166'> +4.8210034e-01 </wgt>
<wgt id='1167'> +4.7440602e-01 </wgt>
<wgt id='1168'> +5.4141234e-01 </wgt>
<wgt id='1169'> +5.7578056e-01 </wgt>
<wgt id='1170'> +5.2019456e-01 </wgt>
<wgt id='1171'> +5.0162279e-01 </wgt>
<wgt id='1172'> +5.1409332e-01 </wgt>
<wgt id='1173'> +5.2964172e-01 </wgt>
<wgt id='1174'> +5.3800343e-01 </wgt>
<wgt id='1175'> +4.8247353e-01 </wgt>
<wgt id='1176'> +5.5096679e-01 </wgt>
<wgt id='1177'> +5.0186428e-01 </wgt>
<wgt id='1178'> +5.3245972e-01 </wgt>
<wgt id='1179'> +5.0077053e-01 </wgt>
<wgt id='1180'> +4.9620774e-01 </wgt>
<wgt id='1181'> +5.1088265e-01 </wgt>
<wgt id='1182'> +5.0275072e-01 </wgt>
<wgt id='1183'> +5.0756057e-01 </wgt>
<wgt id='1184'> +4.9907424e-01 </wgt>
<wgt id='1185'> +5.1327104e-01 </wgt>
<wgt id='1186'> +5.1274248e-01 </wgt>
<wgt id='1187'> +5.4238127e-01 </wgt>
<wgt id='1188'> +5.2659228e-01 </wgt>
<wgt id='1189'> +5.3222075e-01 </wgt>
<wgt id='1190'> +5.3901607e-01 </wgt>
<wgt id='1191'> +5.2820674e-01 </wgt>
<wgt id='1192'> +5.3335953e-01 </wgt>
<wgt id='1193'> +5.6005741e-01 </wgt>
<wgt id='1194'> +5.3366128e-01 </wgt>
<wgt id='1195'> +5.1800317e-01 </wgt>
<wgt id='1196'> +5.5484758e-01 </wgt>
<wgt id='1197'> +4.5403871e-01 </wgt>
<wgt id='1198'> +5.1993665e-01 </wgt>
<wgt id='1199'> +5.4988038e-01 </wgt>
<wgt id='1200'> +5.1597825e-01 </wgt>
<wgt id='1201'> +5.4902115e-01 </wgt>
<wgt id='1202'> +5.2376430e-01 </wgt>
<wgt id='1203'> +5.1733379e-01 </wgt>
<wgt id='1204'> +4.8208522e-01 </wgt>
<wgt id='1205'> +5.2029139e-01 </wgt>
<wgt id='1206'> +5.0718332e-01 </wgt>
<wgt id='1207'> +5.3246518e-01 </wgt>
<wgt id='1208'> +5.1744521e-01 </wgt>
<wgt id='1209'> +4.9566083e-01 </wgt>
<wgt id='1210'> +5.0760691e-01 </wgt>
<wgt id='1211'> +5.0614326e-01 </wgt>
<wgt id='1212'> +5.4336235e-01 </wgt>
<wgt id='1213'> +5.0740243e-01 </wgt>
<wgt id='1214'> +5.1042109e-01 </wgt>
<wgt id='1215'> +4.9140074e-01 </wgt>
<wgt id='1216'> +5.2199267e-01 </wgt>
<wgt id='1217'> +5.4258471e-01 </wgt>
<wgt id='1218'> +5.6215252e-01 </wgt>
<wgt id='1219'> +5.3281952e-01 </wgt>
<wgt id='1220'> +5.2349746e-01 </wgt>
<wgt id='1221'> +5.3236439e-01 </wgt>
<wgt id='1222'> +6.1411749e-01 </wgt>
<wgt id='1223'> +5.8123245e-01 </wgt>
<wgt id='1224'> +5.4065633e-01 </wgt>
<wgt id='1225'> +5.5956259e-01 </wgt>
<wgt id='1226'> +5.4337434e-01 </wgt>
<wgt id='1227'> +5.4840032e-01 </wgt>
<wgt id='1228'> +5.4320254e-01 </wgt>
<wgt id='1229'> +5.0766758e-01 </wgt>
<wgt id='1230'> +5.4018804e-01 </wgt>
<wgt id='1231'> +4.9934847e-01 </wgt>
<wgt id='1232'> +6.0796912e-01 </wgt>
<wgt id='1233'> +4.9197825e-01 </wgt>
<wgt id='1234'> +5.1787631e-01 </wgt>
<wgt id='1235'> +4.1750105e-01 </wgt>
<wgt id='1236'> +5.1954606e-01 </wgt>
<wgt id='1237'> +4.8293157e-01 </wgt>
<wgt id='1238'> +6.5293068e-01 </wgt>
<wgt id='1239'> +5.6244576e-01 </wgt>
<wgt id='1240'> +5.0942572e-01 </wgt>
<wgt id='1241'> +5.5196304e-01 </wgt>
<wgt id='1242'> +5.3083100e-01 </wgt>
<wgt id='1243'> +5.0696538e-01 </wgt>
<wgt id='1244'> +4.6864898e-01 </wgt>
<wgt id='1245'> +5.1009544e-01 </wgt>
<wgt id='1246'> +5.2491040e-01 </wgt>
<wgt id='1247'> +5.4728700e-01 </wgt>
<wgt id='1248'> +5.2293442e-01 </wgt>
<wgt id='1249'> +4.9945719e-01 </wgt>
<wgt id='1250'> +5.9110442e-01 </wgt>
<wgt id='1251'> +5.8466665e-01 </wgt>
<wgt id='1252'> +5.7578684e-01 </wgt>
<wgt id='1253'> +5.4032651e-01 </wgt>
<wgt id='1254'> +5.0179829e-01 </wgt>
<wgt id='1255'> +5.8933865e-01 </wgt>
<wgt id='1256'> +5.8909134e-01 </wgt>
<wgt id='1257'> +5.8948727e-01 </wgt>
<wgt id='1258'> +5.9055182e-01 </wgt>
<wgt id='1259'> +5.8869928e-01 </wgt>
<wgt id='1260'> +5.7231697e-01 </wgt>
<wgt id='1261'> +6.1228337e-01 </wgt>
<wgt id='1262'> +5.9228360e-01 </wgt>
<wgt id='1263'> +5.8740554e-01 </wgt>
<wgt id='1264'> +5.8188168e-01 </wgt>
<wgt id='1265'> +5.9443512e-01 </wgt>
<wgt id='1266'> +5.8174053e-01 </wgt>
<wgt id='1267'> +5.9680751e-01 </wgt>
<wgt id='1268'> +5.9012312e-01 </wgt>
<wgt id='1269'> +5.8836764e-01 </wgt>
<wgt id='1270'> +5.7943721e-01 </wgt>
<wgt id='1271'> +6.0001926e-01 </wgt>
<wgt id='1272'> +5.8282973e-01 </wgt>
<wgt id='1273'> +5.9431642e-01 </wgt>
<wgt id='1274'> +5.9132723e-01 </wgt>
<wgt id='1275'> +5.8693609e-01 </wgt>
<wgt id='1276'> +6.0098091e-01 </wgt>
<wgt id='1277'> +5.7707604e-01 </wgt>
<wgt id='1278'> +5.8523655e-01 </wgt>
<wgt id='1279'> +5.9229535e-01 </wgt>
<wgt id='1280'> +5.9053847e-01 </wgt>
<wgt id='1281'> +5.8595488e-01 </wgt>
<wgt id='1282'> +5.9090582e-01 </wgt>
<wgt id='1283'> +5.8605963e-01 </wgt>
<wgt id='1284'> +5.8904928e-01 </wgt>
<wgt id='1285'> +5.9008904e-01 </wgt>
<wgt id='1286'> +5.9101861e-01 </wgt>
<wgt id='1287'> +5.8919212e-01 </wgt>
<wgt id='1288'> +5.8501882e-01 </wgt>
<wgt id='1289'> +5.8936279e-01 </wgt>
<wgt id='1290'> +5.9205217e-01 </wgt>
<wgt id='1291'> +5.8004080e-01 </wgt>
<wgt id='1292'> +5.9545569e-01 </wgt>
<wgt id='1293'> +5.8142233e-01 </wgt>
<wgt id='1294'> +5.8553847e-01 </wgt>
<wgt id='1295'> +5.8799489e-01 </wgt>
<wgt id='1296'> +6.0074607e-01 </wgt>
<wgt id='1297'> +6.0352070e-01 </wgt>
<wgt id='1298'> +5.9844144e-01 </wgt>
<wgt id='1299'> +5.9421312e-01 </wgt>
<wgt id='1300'> +6.0805826e-01 </wgt>
<wgt id='1301'> +6.0788643e-01 </wgt>
<wgt id='1302'> +5.9011061e-01 </wgt>
<wgt id='1303'> +5.9639691e-01 </wgt>
<wgt id='1304'> +6.0363207e-01 </wgt>
<wgt id='1305'> +5.9627053e-01 </wgt>
<wgt id='1306'> +6.0709041e-01 </wgt>
<wgt id='1307'> +6.2535882e-01 </wgt>
<wgt id='1308'> +5.8547157e-01 </wgt>
<wgt id='1309'> +6.0176535e-01 </wgt>
<wgt id='1310'> +5.9935908e-01 </wgt>
<wgt id='1311'> +5.9991235e-01 </wgt>
<wgt id='1312'> +6.0099745e-01 </wgt>
<wgt id='1313'> +5.9274682e-01 </wgt>
<wgt id='1314'> +6.1058458e-01 </wgt>
<wgt id='1315'> +6.0224513e-01 </wgt>
<wgt id='1316'> +5.9931939e-01 </wgt>
<wgt id='1317'> +6.0910941e-01 </wgt>
<wgt id='1318'> +5.8711258e-01 </wgt>
<wgt id='1319'> +5.9392396e-01 </wgt>
<wgt id='1320'> +6.0508346e-01 </wgt>
<wgt id='1321'> +5.9829736e-01 </wgt>
<wgt id='1322'> +6.0189703e-01 </wgt>
<wgt id='1323'> +5.9886015e-01 </wgt>
<wgt id='1324'> +6.0322703e-01 </wgt>
<wgt id='1325'> +5.9727244e-01 </wgt>
<wgt id='1326'> +6.0606899e-01 </wgt>
<wgt id='1327'> +5.9782570e-01 </wgt>
<wgt id='1328'> +6.0178771e-01 </wgt>
<wgt id='1329'> +6.0336115e-01 </wgt>
<wgt id='1330'> +5.9789735e-01 </wgt>
<wgt id='1331'> +6.0539084e-01 </wgt>
<wgt id='1332'> +5.9811203e-01 </wgt>
<wgt id='1333'> +6.0430800e-01 </wgt>
<wgt id='1334'> +6.0175567e-01 </wgt>
<wgt id='1335'> +6.0196683e-01 </wgt>
<wgt id='1336'> +5.9156924e-01 </wgt>
<wgt id='1337'> +6.0074607e-01 </wgt>
<wgt id='1338'> +6.0084502e-01 </wgt>
<wgt id='1339'> +6.0074104e-01 </wgt>
<wgt id='1340'> +6.0059831e-01 </wgt>
<wgt id='1341'> +6.0046553e-01 </wgt>
<wgt id='1342'> +6.0037071e-01 </wgt>
<wgt id='1343'> +6.0024047e-01 </wgt>
<wgt id='1344'> +5.6167325e-01 </wgt>
<wgt id='1345'> +5.6472619e-01 </wgt>
<wgt id='1346'> +5.5863204e-01 </wgt>
<wgt id='1347'> +5.6184327e-01 </wgt>
<wgt id='1348'> +5.6152172e-01 </wgt>
<wgt id='1349'> +5.6325518e-01 </wgt>
<wgt id='1350'> +5.6033907e-01 </wgt>
<wgt id='1351'> +5.5596524e-01 </wgt>
<wgt id='1352'> +5.7001841e-01 </wgt>
<wgt id='1353'> +5.4977626e-01 </wgt>
<wgt id='1354'> +5.7006620e-01 </wgt>
<wgt id='1355'> +5.5664692e-01 </wgt>
<wgt id='1356'> +5.6556293e-01 </wgt>
<wgt id='1357'> +5.7334905e-01 </wgt>
<wgt id='1358'> +5.5458553e-01 </wgt>
<wgt id='1359'> +5.6128871e-01 </wgt>
<wgt id='1360'> +5.6267888e-01 </wgt>
<wgt id='1361'> +5.5042608e-01 </wgt>
<wgt id='1362'> +5.7212109e-01 </wgt>
<wgt id='1363'> +5.5947176e-01 </wgt>
<wgt id='1364'> +5.6442798e-01 </wgt>
<wgt id='1365'> +5.5905675e-01 </wgt>
<wgt id='1366'> +5.6280799e-01 </wgt>
<wgt id='1367'> +5.5972984e-01 </wgt>
<wgt id='1368'> +5.6259669e-01 </wgt>
<wgt id='1369'> +5.6959805e-01 </wgt>
<wgt id='1370'> +5.5458188e-01 </wgt>
<wgt id='1371'> +5.6098705e-01 </wgt>
<wgt id='1372'> +5.6302124e-01 </wgt>
<wgt id='1373'> +5.6426367e-01 </wgt>
<wgt id='1374'> +5.6256514e-01 </wgt>
<wgt id='1375'> +5.6177342e-01 </wgt>
<wgt id='1376'> +5.6175644e-01 </wgt>
<wgt id='1377'> +5.5898039e-01 </wgt>
<wgt id='1378'> +5.6477515e-01 </wgt>
<wgt id='1379'> +5.5777206e-01 </wgt>
<wgt id='1380'> +5.6560893e-01 </wgt>
<wgt id='1381'> +5.6027774e-01 </wgt>
<wgt id='1382'> +5.6563568e-01 </wgt>
<wgt id='1383'> +5.5317897e-01 </wgt>
<wgt id='1384'> +5.6612140e-01 </wgt>
<wgt id='1385'> +5.6167325e-01 </wgt>
<wgt id='1386'> +5.6072154e-01 </wgt>
<wgt id='1387'> +5.6084848e-01 </wgt>
<wgt id='1388'> +5.6110772e-01 </wgt>
<wgt id='1389'> +5.6133531e-01 </wgt>
<wgt id='1390'> +5.6150109e-01 </wgt>
<wgt id='1391'> +5.6130756e-01 </wgt>
<wgt id='1392'> +6.5221918e-01 </wgt>
<wgt id='1393'> +6.5184318e-01 </wgt>
<wgt id='1394'> +6.5262661e-01 </wgt>
<wgt id='1395'> +6.5077653e-01 </wgt>
<wgt id='1396'> +6.5323100e-01 </wgt>
<wgt id='1397'> +6.5490063e-01 </wgt>
<wgt id='1398'> +6.4961558e-01 </wgt>
<wgt id='1399'> +6.5057859e-01 </wgt>
<wgt id='1400'> +6.5427255e-01 </wgt>
<wgt id='1401'> +6.5402599e-01 </wgt>
<wgt id='1402'> +6.4997228e-01 </wgt>
<wgt id='1403'> +6.4898278e-01 </wgt>
<wgt id='1404'> +6.5863501e-01 </wgt>
<wgt id='1405'> +6.5171282e-01 </wgt>
<wgt id='1406'> +6.5289620e-01 </wgt>
<wgt id='1407'> +6.5010879e-01 </wgt>
<wgt id='1408'> +6.5367055e-01 </wgt>
<wgt id='1409'> +6.5999476e-01 </wgt>
<wgt id='1410'> +6.4353961e-01 </wgt>
<wgt id='1411'> +7.0006422e-01 </wgt>
<wgt id='1412'> +6.1563584e-01 </wgt>
<wgt id='1413'> +6.4745239e-01 </wgt>
<wgt id='1414'> +6.5724952e-01 </wgt>
<wgt id='1415'> +6.4355124e-01 </wgt>
<wgt id='1416'> +6.6076469e-01 </wgt>
<wgt id='1417'> +6.5243846e-01 </wgt>
<wgt id='1418'> +6.5190761e-01 </wgt>
<wgt id='1419'> +6.5621388e-01 </wgt>
<wgt id='1420'> +6.4855684e-01 </wgt>
<wgt id='1421'> +6.4126122e-01 </wgt>
<wgt id='1422'> +6.6527371e-01 </wgt>
<wgt id='1423'> +6.2985343e-01 </wgt>
<wgt id='1424'> +6.6961115e-01 </wgt>
<wgt id='1425'> +6.5142629e-01 </wgt>
<wgt id='1426'> +6.5322213e-01 </wgt>
<wgt id='1427'> +6.5510606e-01 </wgt>
<wgt id='1428'> +6.4586352e-01 </wgt>
<wgt id='1429'> +6.5592626e-01 </wgt>
<wgt id='1430'> +6.4927081e-01 </wgt>
<wgt id='1431'> +6.6398191e-01 </wgt>
<wgt id='1432'> +6.4156569e-01 </wgt>
<wgt id='1433'> +6.9020135e-01 </wgt>
<wgt id='1434'> +5.9189692e-01 </wgt>
<wgt id='1435'> +6.2711281e-01 </wgt>
<wgt id='1436'> +6.5300598e-01 </wgt>
<wgt id='1437'> +6.5986361e-01 </wgt>
<wgt id='1438'> +6.2011081e-01 </wgt>
<wgt id='1439'> +6.5199060e-01 </wgt>
<wgt id='1440'> +6.5714255e-01 </wgt>
<wgt id='1441'> +6.4993980e-01 </wgt>
<wgt id='1442'> +6.5346679e-01 </wgt>
<wgt id='1443'> +6.1586876e-01 </wgt>
<wgt id='1444'> +6.1539346e-01 </wgt>
<wgt id='1445'> +6.1635014e-01 </wgt>
<wgt id='1446'> +6.1421090e-01 </wgt>
<wgt id='1447'> +6.1696024e-01 </wgt>
<wgt id='1448'> +6.1838633e-01 </wgt>
<wgt id='1449'> +6.1351573e-01 </wgt>
<wgt id='1450'> +6.1418055e-01 </wgt>
<wgt id='1451'> +6.1771526e-01 </wgt>
<wgt id='1452'> +6.1809540e-01 </wgt>
<wgt id='1453'> +6.1373655e-01 </wgt>
<wgt id='1454'> +6.1317507e-01 </wgt>
<wgt id='1455'> +6.2162500e-01 </wgt>
<wgt id='1456'> +6.1556931e-01 </wgt>
<wgt id='1457'> +6.1643349e-01 </wgt>
<wgt id='1458'> +6.1434586e-01 </wgt>
<wgt id='1459'> +6.1675143e-01 </wgt>
<wgt id='1460'> +6.3636106e-01 </wgt>
<wgt id='1461'> +5.9196218e-01 </wgt>
<wgt id='1462'> +6.5916162e-01 </wgt>
<wgt id='1463'> +5.7844448e-01 </wgt>
<wgt id='1464'> +6.1227187e-01 </wgt>
<wgt id='1465'> +6.2059571e-01 </wgt>
<wgt id='1466'> +6.0502631e-01 </wgt>
<wgt id='1467'> +6.2300216e-01 </wgt>
<wgt id='1468'> +6.2167771e-01 </wgt>
<wgt id='1469'> +6.1025615e-01 </wgt>
<wgt id='1470'> +6.1897138e-01 </wgt>
<wgt id='1471'> +6.1342373e-01 </wgt>
<wgt id='1472'> +6.0845883e-01 </wgt>
<wgt id='1473'> +6.2491754e-01 </wgt>
<wgt id='1474'> +5.9922959e-01 </wgt>
<wgt id='1475'> +6.3504978e-01 </wgt>
<wgt id='1476'> +6.1847935e-01 </wgt>
<wgt id='1477'> +6.1336868e-01 </wgt>
<wgt id='1478'> +6.1856116e-01 </wgt>
<wgt id='1479'> +6.0939410e-01 </wgt>
<wgt id='1480'> +6.1929509e-01 </wgt>
<wgt id='1481'> +6.1321283e-01 </wgt>
<wgt id='1482'> +6.2795675e-01 </wgt>
<wgt id='1483'> +6.0313243e-01 </wgt>
<wgt id='1484'> +6.5293752e-01 </wgt>
<wgt id='1485'> +5.6009549e-01 </wgt>
<wgt id='1486'> +5.8541280e-01 </wgt>
<wgt id='1487'> +6.1727427e-01 </wgt>
<wgt id='1488'> +6.2447167e-01 </wgt>
<wgt id='1489'> +5.8215175e-01 </wgt>
<wgt id='1490'> +6.1655401e-01 </wgt>
<wgt id='1491'> +6.2013946e-01 </wgt>
<wgt id='1492'> +6.1473304e-01 </wgt>
<wgt id='1493'> +6.1676866e-01 </wgt>
<wgt id='1494'> +6.2507539e-01 </wgt>
<wgt id='1495'> +5.7638739e-01 </wgt>
<wgt id='1496'> +5.9076196e-01 </wgt>
<wgt id='1497'> +6.0546585e-01 </wgt>
<wgt id='1498'> +6.3640920e-01 </wgt>
<wgt id='1499'> +6.2183279e-01 </wgt>
<wgt id='1500'> +6.3980954e-01 </wgt>
<wgt id='1501'> +6.3562725e-01 </wgt>
<wgt id='1502'> +6.3284924e-01 </wgt>
<wgt id='1503'> +6.2961346e-01 </wgt>
<wgt id='1504'> +6.2557168e-01 </wgt>
<wgt id='1505'> +6.1689472e-01 </wgt>
<wgt id='1506'> +6.1266033e-01 </wgt>
<wgt id='1507'> +6.0862194e-01 </wgt>
<wgt id='1508'> +6.2183279e-01 </wgt>
<wgt id='1509'> +6.1797221e-01 </wgt>
<wgt id='1510'> +6.1984891e-01 </wgt>
<wgt id='1511'> +6.2369407e-01 </wgt>
<wgt id='1512'> +6.2385968e-01 </wgt>
<wgt id='1513'> +5.5536743e-01 </wgt>
<wgt id='1514'> +5.5427994e-01 </wgt>
<wgt id='1515'> +5.5678497e-01 </wgt>
<wgt id='1516'> +5.5706972e-01 </wgt>
<wgt id='1517'> +5.5372162e-01 </wgt>
<wgt id='1518'> +5.5307878e-01 </wgt>
<wgt id='1519'> +5.5632246e-01 </wgt>
<wgt id='1520'> +5.5586576e-01 </wgt>
<wgt id='1521'> +5.5488186e-01 </wgt>
<wgt id='1522'> +5.5828025e-01 </wgt>
<wgt id='1523'> +5.5264008e-01 </wgt>
<wgt id='1524'> +5.6100903e-01 </wgt>
<wgt id='1525'> +5.5290132e-01 </wgt>
<wgt id='1526'> +5.5546752e-01 </wgt>
<wgt id='1527'> +5.5530456e-01 </wgt>
<wgt id='1528'> +5.5571643e-01 </wgt>
<wgt id='1529'> +5.5507739e-01 </wgt>
<wgt id='1530'> +5.9890536e-01 </wgt>
<wgt id='1531'> +5.3097554e-01 </wgt>
<wgt id='1532'> +5.2941084e-01 </wgt>
<wgt id='1533'> +5.9019765e-01 </wgt>
<wgt id='1534'> +5.9427920e-01 </wgt>
<wgt id='1535'> +5.2818258e-01 </wgt>
<wgt id='1536'> +5.5153064e-01 </wgt>
<wgt id='1537'> +5.5916102e-01 </wgt>
<wgt id='1538'> +5.5730644e-01 </wgt>
<wgt id='1539'> +5.5047255e-01 </wgt>
<wgt id='1540'> +5.5701354e-01 </wgt>
<wgt id='1541'> +5.5320873e-01 </wgt>
<wgt id='1542'> +5.6175964e-01 </wgt>
<wgt id='1543'> +5.3934279e-01 </wgt>
<wgt id='1544'> +5.4909339e-01 </wgt>
<wgt id='1545'> +5.6864405e-01 </wgt>
<wgt id='1546'> +5.5976051e-01 </wgt>
<wgt id='1547'> +5.4710394e-01 </wgt>
<wgt id='1548'> +5.4780973e-01 </wgt>
<wgt id='1549'> +5.5879892e-01 </wgt>
<wgt id='1550'> +5.5479150e-01 </wgt>
<wgt id='1551'> +5.5620408e-01 </wgt>
<wgt id='1552'> +5.6967041e-01 </wgt>
<wgt id='1553'> +5.4572843e-01 </wgt>
<wgt id='1554'> +5.1972921e-01 </wgt>
<wgt id='1555'> +6.0789041e-01 </wgt>
<wgt id='1556'> +5.5340629e-01 </wgt>
<wgt id='1557'> +5.6495306e-01 </wgt>
<wgt id='1558'> +5.6562515e-01 </wgt>
<wgt id='1559'> +5.4364679e-01 </wgt>
<wgt id='1560'> +5.3579818e-01 </wgt>
<wgt id='1561'> +5.6116050e-01 </wgt>
<wgt id='1562'> +5.5021501e-01 </wgt>
<wgt id='1563'> +5.5696631e-01 </wgt>
<wgt id='1564'> +5.5536743e-01 </wgt>
<wgt id='1565'> +5.4074585e-01 </wgt>
<wgt id='1566'> +5.6885907e-01 </wgt>
<wgt id='1567'> +5.5461518e-01 </wgt>
<wgt id='1568'> +5.5843706e-01 </wgt>
<wgt id='1569'> +5.5751547e-01 </wgt>
<wgt id='1570'> +5.5659162e-01 </wgt>
<wgt id='1571'> +5.5592104e-01 </wgt>
<wgt id='1572'> +5.5550830e-01 </wgt>
<wgt id='1573'> +5.5410768e-01 </wgt>
<wgt id='1574'> +5.5773349e-01 </wgt>
<wgt id='1575'> +5.5678338e-01 </wgt>
<wgt id='1576'> +5.5461518e-01 </wgt>
<wgt id='1577'> +5.5104008e-01 </wgt>
<wgt id='1578'> +5.5310152e-01 </wgt>
<wgt id='1579'> +5.5633330e-01 </wgt>
<wgt id='1580'> +5.5800263e-01 </wgt>
<wgt id='1581'> +5.5073520e-01 </wgt>
<wgt id='1582'> +5.4730797e-01 </wgt>
<wgt id='1583'> +5.4259544e-01 </wgt>
<wgt id='1584'> +5.4988599e-01 </wgt>
<wgt id='1585'> +5.4487053e-01 </wgt>
<wgt id='1586'> +6.0800549e-01 </wgt>
<wgt id='1587'> +5.5822088e-01 </wgt>
<wgt id='1588'> +5.3862699e-01 </wgt>
<wgt id='1589'> +5.5257531e-01 </wgt>
<wgt id='1590'> +5.5895680e-01 </wgt>
<wgt id='1591'> +5.5379411e-01 </wgt>
<wgt id='1592'> +5.3896719e-01 </wgt>
<wgt id='1593'> +5.4991379e-01 </wgt>
<wgt id='1594'> +5.3831537e-01 </wgt>
<wgt id='1595'> +5.5260286e-01 </wgt>
<wgt id='1596'> +5.5557022e-01 </wgt>
<wgt id='1597'> +5.5359906e-01 </wgt>
<wgt id='1598'> +5.5236369e-01 </wgt>
<wgt id='1599'> +5.4803381e-01 </wgt>
<wgt id='1600'> +5.5091769e-01 </wgt>
<wgt id='1601'> +5.5192442e-01 </wgt>
<wgt id='1602'> +5.5133832e-01 </wgt>
<wgt id='1603'> +5.5188028e-01 </wgt>
<wgt id='1604'> +5.5149188e-01 </wgt>
<wgt id='1605'> +5.4890370e-01 </wgt>
<wgt id='1606'> +5.4821571e-01 </wgt>
<wgt id='1607'> +5.5056475e-01 </wgt>
<wgt id='1608'> +5.5192257e-01 </wgt>
<wgt id='1609'> +5.4633660e-01 </wgt>
<wgt id='1610'> +5.4948204e-01 </wgt>
<wgt id='1611'> +5.4214563e-01 </wgt>
<wgt id='1612'> +5.2785195e-01 </wgt>
<wgt id='1613'> +5.2698654e-01 </wgt>
<wgt id='1614'> +5.2569829e-01 </wgt>
<wgt id='1615'> +5.2590735e-01 </wgt>
<wgt id='1616'> +5.2590575e-01 </wgt>
<wgt id='1617'> +5.2666816e-01 </wgt>
<wgt id='1618'> +5.2585455e-01 </wgt>
<wgt id='1619'> +5.2797503e-01 </wgt>
<wgt id='1620'> +5.2538599e-01 </wgt>
<wgt id='1621'> +5.2317939e-01 </wgt>
<wgt id='1622'> +5.3077296e-01 </wgt>
<wgt id='1623'> +5.2715652e-01 </wgt>
<wgt id='1624'> +5.2680092e-01 </wgt>
<wgt id='1625'> +5.2808432e-01 </wgt>
<wgt id='1626'> +5.2120110e-01 </wgt>
<wgt id='1627'> +5.2895462e-01 </wgt>
<wgt id='1628'> +5.2314900e-01 </wgt>
<wgt id='1629'> +5.2871878e-01 </wgt>
<wgt id='1630'> +5.2963985e-01 </wgt>
<wgt id='1631'> +5.2485397e-01 </wgt>
<wgt id='1632'> +5.2798078e-01 </wgt>
<wgt id='1633'> +5.2255795e-01 </wgt>
<wgt id='1634'> +5.2380838e-01 </wgt>
<wgt id='1635'> +5.3330879e-01 </wgt>
<wgt id='1636'> +5.2787162e-01 </wgt>
<wgt id='1637'> +5.2467892e-01 </wgt>
<wgt id='1638'> +5.3476913e-01 </wgt>
<wgt id='1639'> +5.2732999e-01 </wgt>
<wgt id='1640'> +5.2710726e-01 </wgt>
<wgt id='1641'> +5.3724873e-01 </wgt>
<wgt id='1642'> +5.2374972e-01 </wgt>
<wgt id='1643'> +5.2569347e-01 </wgt>
<wgt id='1644'> +5.2788315e-01 </wgt>
<wgt id='1645'> +5.3396335e-01 </wgt>
<wgt id='1646'> +5.2788057e-01 </wgt>
<wgt id='1647'> +5.1775781e-01 </wgt>
<wgt id='1648'> +5.2523941e-01 </wgt>
<wgt id='1649'> +5.2106303e-01 </wgt>
<wgt id='1650'> +5.2420618e-01 </wgt>
<wgt id='1651'> +5.2999141e-01 </wgt>
<wgt id='1652'> +5.3261906e-01 </wgt>
<wgt id='1653'> +5.2678559e-01 </wgt>
<wgt id='1654'> +5.3261060e-01 </wgt>
<wgt id='1655'> +5.3296248e-01 </wgt>
<wgt id='1656'> +5.2111968e-01 </wgt>
<wgt id='1657'> +5.3900551e-01 </wgt>
<wgt id='1658'> +5.2674150e-01 </wgt>
<wgt id='1659'> +5.2693673e-01 </wgt>
<wgt id='1660'> +5.3223111e-01 </wgt>
<wgt id='1661'> +5.2529720e-01 </wgt>
<wgt id='1662'> +5.3527920e-01 </wgt>
<wgt id='1663'> +5.3117907e-01 </wgt>
<wgt id='1664'> +5.3080911e-01 </wgt>
<wgt id='1665'> +5.3208526e-01 </wgt>
<wgt id='1666'> +5.2824141e-01 </wgt>
<wgt id='1667'> +5.3023777e-01 </wgt>
<wgt id='1668'> +5.2357854e-01 </wgt>
<wgt id='1669'> +5.3093574e-01 </wgt>
<wgt id='1670'> +5.2605930e-01 </wgt>
<wgt id='1671'> +5.2511292e-01 </wgt>
<wgt id='1672'> +5.3233700e-01 </wgt>
<wgt id='1673'> +5.2890012e-01 </wgt>
<wgt id='1674'> +5.2672828e-01 </wgt>
<wgt id='1675'> +5.3093245e-01 </wgt>
<wgt id='1676'> +5.2485988e-01 </wgt>
<wgt id='1677'> +5.2957264e-01 </wgt>
<wgt id='1678'> +5.3116150e-01 </wgt>
<wgt id='1679'> +5.2338331e-01 </wgt>
<wgt id='1680'> +5.3048241e-01 </wgt>
<wgt id='1681'> +5.2894778e-01 </wgt>
<wgt id='1682'> +5.2846548e-01 </wgt>
<wgt id='1683'> +5.2522686e-01 </wgt>
<wgt id='1684'> +5.2593847e-01 </wgt>
<wgt id='1685'> +5.3073939e-01 </wgt>
<wgt id='1686'> +5.2413404e-01 </wgt>
<wgt id='1687'> +5.2314269e-01 </wgt>
<wgt id='1688'> +5.2914757e-01 </wgt>
<wgt id='1689'> +5.2813769e-01 </wgt>
<wgt id='1690'> +5.2763941e-01 </wgt>
<wgt id='1691'> +5.2875473e-01 </wgt>
<wgt id='1692'> +5.2852310e-01 </wgt>
<wgt id='1693'> +5.2845426e-01 </wgt>
<wgt id='1694'> +5.2803273e-01 </wgt>
<wgt id='1695'> +5.2961461e-01 </wgt>
<wgt id='1696'> +5.2928721e-01 </wgt>
<wgt id='1697'> +5.2866169e-01 </wgt>
<wgt id='1698'> +5.2602425e-01 </wgt>
<wgt id='1699'> +5.2490519e-01 </wgt>
<wgt id='1700'> +5.2904831e-01 </wgt>
<wgt id='1701'> +5.3055093e-01 </wgt>
<wgt id='1702'> +5.3140165e-01 </wgt>
<wgt id='1703'> +5.2795326e-01 </wgt>
<wgt id='1704'> +5.2716959e-01 </wgt>
<wgt id='1705'> +5.2666836e-01 </wgt>
<wgt id='1706'> +5.3051406e-01 </wgt>
<wgt id='1707'> +5.2791014e-01 </wgt>
<wgt id='1708'> +5.2805908e-01 </wgt>
<wgt id='1709'> +5.2853515e-01 </wgt>
<wgt id='1710'> +5.2747135e-01 </wgt>
<wgt id='1711'> +5.2867878e-01 </wgt>
<wgt id='1712'> +5.2942517e-01 </wgt>
<wgt id='1713'> +5.2312779e-01 </wgt>
<wgt id='1714'> +5.4184080e-01 </wgt>
<wgt id='1715'> +5.3375313e-01 </wgt>
<wgt id='1716'> +5.0240404e-01 </wgt>
<wgt id='1717'> +5.4765896e-01 </wgt>
<wgt id='1718'> +5.5600203e-01 </wgt>
<wgt id='1719'> +5.3146648e-01 </wgt>
<wgt id='1720'> +5.2827003e-01 </wgt>
<wgt id='1721'> +5.3779419e-01 </wgt>
<wgt id='1722'> +5.5052497e-01 </wgt>
<wgt id='1723'> +5.3878090e-01 </wgt>
<wgt id='1724'> +5.4161528e-01 </wgt>
<wgt id='1725'> +5.6960667e-01 </wgt>
<wgt id='1726'> +5.1709682e-01 </wgt>
<wgt id='1727'> +5.4912772e-01 </wgt>
<wgt id='1728'> +5.1440303e-01 </wgt>
<wgt id='1729'> +5.1880812e-01 </wgt>
<wgt id='1730'> +5.4438545e-01 </wgt>
<wgt id='1731'> +5.6482530e-01 </wgt>
<wgt id='1732'> +5.1411508e-01 </wgt>
<wgt id='1733'> +5.3606424e-01 </wgt>
<wgt id='1734'> +5.3705763e-01 </wgt>
<wgt id='1735'> +6.5262638e-01 </wgt>
<wgt id='1736'> +5.2282140e-01 </wgt>
<wgt id='1737'> +4.7954254e-01 </wgt>
<wgt id='1738'> +5.6152616e-01 </wgt>
<wgt id='1739'> +5.1377926e-01 </wgt>
<wgt id='1740'> +5.4318760e-01 </wgt>
<wgt id='1741'> +5.4298157e-01 </wgt>
<wgt id='1742'> +5.0913788e-01 </wgt>
<wgt id='1743'> +5.1484187e-01 </wgt>
<wgt id='1744'> +5.5339919e-01 </wgt>
<wgt id='1745'> +6.1106707e-01 </wgt>
<wgt id='1746'> +5.3594041e-01 </wgt>
<wgt id='1747'> +5.4285553e-01 </wgt>
<wgt id='1748'> +5.3262735e-01 </wgt>
<wgt id='1749'> +5.1666491e-01 </wgt>
<wgt id='1750'> +5.0821795e-01 </wgt>
<wgt id='1751'> +5.4299801e-01 </wgt>
<wgt id='1752'> +5.4852989e-01 </wgt>
<wgt id='1753'> +5.3491387e-01 </wgt>
<wgt id='1754'> +5.5064802e-01 </wgt>
<wgt id='1755'> +5.5358594e-01 </wgt>
<wgt id='1756'> +5.3227755e-01 </wgt>
<wgt id='1757'> +5.5893764e-01 </wgt>
<wgt id='1758'> +4.9555091e-01 </wgt>
<wgt id='1759'> +5.1449328e-01 </wgt>
<wgt id='1760'> +5.4415512e-01 </wgt>
<wgt id='1761'> +6.2532620e-01 </wgt>
<wgt id='1762'> +5.4912772e-01 </wgt>
<wgt id='1763'> +5.5608279e-01 </wgt>
<wgt id='1764'> +5.1889731e-01 </wgt>
<wgt id='1765'> +5.2992982e-01 </wgt>
<wgt id='1766'> +5.3690956e-01 </wgt>
<wgt id='1767'> +5.5022130e-01 </wgt>
<wgt id='1768'> +5.0593169e-01 </wgt>
<wgt id='1769'> +4.4651863e-01 </wgt>
<wgt id='1770'> +5.6492946e-01 </wgt>
<wgt id='1771'> +5.0536518e-01 </wgt>
<wgt id='1772'> +5.3149835e-01 </wgt>
<wgt id='1773'> +5.1472230e-01 </wgt>
<wgt id='1774'> +4.7518065e-01 </wgt>
<wgt id='1775'> +5.3056509e-01 </wgt>
<wgt id='1776'> +5.0324901e-01 </wgt>
<wgt id='1777'> +5.5751353e-01 </wgt>
<wgt id='1778'> +5.2782638e-01 </wgt>
<wgt id='1779'> +4.8312381e-01 </wgt>
<wgt id='1780'> +4.7459049e-01 </wgt>
<wgt id='1781'> +5.2659552e-01 </wgt>
<wgt id='1782'> +5.4509007e-01 </wgt>
<wgt id='1783'> +4.9988852e-01 </wgt>
<wgt id='1784'> +5.1657891e-01 </wgt>
<wgt id='1785'> +5.4149185e-01 </wgt>
<wgt id='1786'> +5.6574250e-01 </wgt>
<wgt id='1787'> +5.5200987e-01 </wgt>
<wgt id='1788'> +5.4848439e-01 </wgt>
<wgt id='1789'> +5.4592689e-01 </wgt>
<wgt id='1790'> +5.0445342e-01 </wgt>
<wgt id='1791'> +5.6014987e-01 </wgt>
<wgt id='1792'> +5.4058694e-01 </wgt>
<wgt id='1793'> +5.3797093e-01 </wgt>
<wgt id='1794'> +4.7951245e-01 </wgt>
<wgt id='1795'> +5.6833191e-01 </wgt>
<wgt id='1796'> +5.0912835e-01 </wgt>
<wgt id='1797'> +5.2687362e-01 </wgt>
<wgt id='1798'> +5.1960361e-01 </wgt>
<wgt id='1799'> +5.1743580e-01 </wgt>
<wgt id='1800'> +5.4906651e-01 </wgt>
<wgt id='1801'> +5.4576048e-01 </wgt>
<wgt id='1802'> +4.9115471e-01 </wgt>
<wgt id='1803'> +5.2430294e-01 </wgt>
<wgt id='1804'> +5.1296215e-01 </wgt>
<wgt id='1805'> +5.4219353e-01 </wgt>
<wgt id='1806'> +5.2246150e-01 </wgt>
<wgt id='1807'> +5.3898635e-01 </wgt>
<wgt id='1808'> +5.9341046e-01 </wgt>
<wgt id='1809'> +5.8366085e-01 </wgt>
<wgt id='1810'> +5.3824245e-01 </wgt>
<wgt id='1811'> +5.0986849e-01 </wgt>
<wgt id='1812'> +5.3835298e-01 </wgt>
<wgt id='1813'> +5.3856389e-01 </wgt>
<wgt id='1814'> +4.8631826e-01 </wgt>
<wgt id='1815'> +5.4367117e-01 </wgt>
<wgt id='1816'> +5.2776485e-01 </wgt>
<wgt id='1817'> +5.3740625e-01 </wgt>
<wgt id='1818'> +5.4206038e-01 </wgt>
<wgt id='1819'> +5.3948224e-01 </wgt>
<wgt id='1820'> +4.9601252e-01 </wgt>
<wgt id='1821'> +5.1094201e-01 </wgt>
<wgt id='1822'> +5.0184881e-01 </wgt>
<wgt id='1823'> +5.1060708e-01 </wgt>
<wgt id='1824'> +5.4186951e-01 </wgt>
<wgt id='1825'> +5.2084026e-01 </wgt>
<wgt id='1826'> +4.9735239e-01 </wgt>
<wgt id='1827'> +4.9132320e-01 </wgt>
<wgt id='1828'> +5.1930813e-01 </wgt>
<wgt id='1829'> +5.3667175e-01 </wgt>
<wgt id='1830'> +5.0673321e-01 </wgt>
<wgt id='1831'> +5.4525964e-01 </wgt>
<wgt id='1832'> +5.6945358e-01 </wgt>
<wgt id='1833'> +5.4723228e-01 </wgt>
<wgt id='1834'> +6.1360317e-01 </wgt>
<wgt id='1835'> +5.0782342e-01 </wgt>
<wgt id='1836'> +5.3946703e-01 </wgt>
<wgt id='1837'> +4.7348860e-01 </wgt>
<wgt id='1838'> +4.9666886e-01 </wgt>
<wgt id='1839'> +5.4519186e-01 </wgt>
<wgt id='1840'> +4.8806072e-01 </wgt>
<wgt id='1841'> +5.4524021e-01 </wgt>
<wgt id='1842'> +5.3157548e-01 </wgt>
<wgt id='1843'> +5.5885459e-01 </wgt>
<wgt id='1844'> +5.1361763e-01 </wgt>
<wgt id='1845'> +5.4113910e-01 </wgt>
<wgt id='1846'> +5.3245495e-01 </wgt>
<wgt id='1847'> +5.5829505e-01 </wgt>
<wgt id='1848'> +4.8672959e-01 </wgt>
<wgt id='1849'> +5.2772945e-01 </wgt>
<wgt id='1850'> +5.0922809e-01 </wgt>
<wgt id='1851'> +5.5686501e-01 </wgt>
<wgt id='1852'> +5.9422206e-01 </wgt>
<wgt id='1853'> +5.4078839e-01 </wgt>
<wgt id='1854'> +5.4478549e-01 </wgt>
<wgt id='1855'> +4.8016145e-01 </wgt>
<wgt id='1856'> +5.2278505e-01 </wgt>
<wgt id='1857'> +5.0472509e-01 </wgt>
<wgt id='1858'> +5.3074870e-01 </wgt>
<wgt id='1859'> +5.0807081e-01 </wgt>
<wgt id='1860'> +5.6347441e-01 </wgt>
<wgt id='1861'> +5.2028853e-01 </wgt>
<wgt id='1862'> +5.3728546e-01 </wgt>
<wgt id='1863'> +5.4389809e-01 </wgt>
<wgt id='1864'> +4.9841948e-01 </wgt>
<wgt id='1865'> +5.4576274e-01 </wgt>
<wgt id='1866'> +5.4468515e-01 </wgt>
<wgt id='1867'> +5.2891214e-01 </wgt>
<wgt id='1868'> +5.3904469e-01 </wgt>
<wgt id='1869'> +4.7067037e-01 </wgt>
<wgt id='1870'> +4.9936217e-01 </wgt>
<wgt id='1871'> +5.2333351e-01 </wgt>
<wgt id='1872'> +5.5108870e-01 </wgt>
<wgt id='1873'> +5.7609625e-01 </wgt>
<wgt id='1874'> +5.2457943e-01 </wgt>
<wgt id='1875'> +5.5105791e-01 </wgt>
<wgt id='1876'> +5.1878503e-01 </wgt>
<wgt id='1877'> +5.6689862e-01 </wgt>
<wgt id='1878'> +5.3123994e-01 </wgt>
<wgt id='1879'> +4.8393642e-01 </wgt>
<wgt id='1880'> +6.7428238e-01 </wgt>
<wgt id='1881'> +4.7969727e-01 </wgt>
<wgt id='1882'> +5.4483099e-01 </wgt>
<wgt id='1883'> +5.1902984e-01 </wgt>
<wgt id='1884'> +4.9696592e-01 </wgt>
<wgt id='1885'> +5.1488988e-01 </wgt>
<wgt id='1886'> +5.1856870e-01 </wgt>
<wgt id='1887'> +5.1714999e-01 </wgt>
<wgt id='1888'> +5.3136562e-01 </wgt>
<wgt id='1889'> +4.4630777e-01 </wgt>
<wgt id='1890'> +5.3940684e-01 </wgt>
<wgt id='1891'> +5.3873793e-01 </wgt>
<wgt id='1892'> +5.1470888e-01 </wgt>
<wgt id='1893'> +5.0798908e-01 </wgt>
<wgt id='1894'> +5.1857682e-01 </wgt>
<wgt id='1895'> +5.2533265e-01 </wgt>
<wgt id='1896'> +5.2661370e-01 </wgt>
<wgt id='1897'> +4.9909223e-01 </wgt>
<wgt id='1898'> +4.6817592e-01 </wgt>
<wgt id='1899'> +5.3143580e-01 </wgt>
<wgt id='1900'> +5.2471437e-01 </wgt>
<wgt id='1901'> +5.5744400e-01 </wgt>
<wgt id='1902'> +5.1644510e-01 </wgt>
<wgt id='1903'> +5.6294524e-01 </wgt>
<wgt id='1904'> +5.0114093e-01 </wgt>
<wgt id='1905'> +5.5072888e-01 </wgt>
<wgt id='1906'> +4.9967687e-01 </wgt>
<wgt id='1907'> +5.2883466e-01 </wgt>
<wgt id='1908'> +5.0459567e-01 </wgt>
<wgt id='1909'> +5.5254882e-01 </wgt>
<wgt id='1910'> +4.8713100e-01 </wgt>
<wgt id='1911'> +5.7736021e-01 </wgt>
<wgt id='1912'> +4.8142981e-01 </wgt>
<wgt id='1913'> +5.5581156e-01 </wgt>
<wgt id='1914'> +5.2753590e-01 </wgt>
<wgt id='1915'> +5.6939131e-01 </wgt>
<wgt id='1916'> +5.8414228e-01 </wgt>
<wgt id='1917'> +4.2238553e-01 </wgt>
<wgt id='1918'> +4.2403285e-01 </wgt>
<wgt id='1919'> +5.2776485e-01 </wgt>
<wgt id='1920'> +5.3740625e-01 </wgt>
<wgt id='1921'> +5.4206038e-01 </wgt>
<wgt id='1922'> +5.3948224e-01 </wgt>
<wgt id='1923'> +4.9601252e-01 </wgt>
<wgt id='1924'> +5.1094201e-01 </wgt>
<wgt id='1925'> +5.0184881e-01 </wgt>
<wgt id='1926'> +5.1060708e-01 </wgt>
<wgt id='1927'> +5.4186951e-01 </wgt>
<wgt id='1928'> +5.2084026e-01 </wgt>
<wgt id='1929'> +4.9735239e-01 </wgt>
<wgt id='1930'> +4.9132320e-01 </wgt>
<wgt id='1931'> +5.1930813e-01 </wgt>
<wgt id='1932'> +5.3667175e-01 </wgt>
<wgt id='1933'> +5.0673321e-01 </wgt>
<wgt id='1934'> +5.4525964e-01 </wgt>
<wgt id='1935'> +5.6945358e-01 </wgt>
<wgt id='1936'> +5.4723228e-01 </wgt>
<wgt id='1937'> +6.1360317e-01 </wgt>
<wgt id='1938'> +5.0782342e-01 </wgt>
<wgt id='1939'> +5.3946703e-01 </wgt>
<wgt id='1940'> +4.7348860e-01 </wgt>
<wgt id='1941'> +4.9666886e-01 </wgt>
<wgt id='1942'> +5.4519186e-01 </wgt>
<wgt id='1943'> +4.8806072e-01 </wgt>
<wgt id='1944'> +5.4524021e-01 </wgt>
<wgt id='1945'> +5.3157548e-01 </wgt>
<wgt id='1946'> +5.5885459e-01 </wgt>
<wgt id='1947'> +5.1361763e-01 </wgt>
<wgt id='1948'> +5.4113910e-01 </wgt>
<wgt id='1949'> +5.3245495e-01 </wgt>
<wgt id='1950'> +5.5829505e-01 </wgt>
<wgt id='1951'> +4.8672959e-01 </wgt>
<wgt id='1952'> +5.2772945e-01 </wgt>
<wgt id='1953'> +5.0922809e-01 </wgt>
<wgt id='1954'> +5.5686501e-01 </wgt>
<wgt id='1955'> +5.9422206e-01 </wgt>
<wgt id='1956'> +5.4078839e-01 </wgt>
<wgt id='1957'> +5.4478549e-01 </wgt>
<wgt id='1958'> +4.8016145e-01 </wgt>
<wgt id='1959'> +5.2278505e-01 </wgt>
<wgt id='1960'> +5.0472509e-01 </wgt>
<wgt id='1961'> +5.3074870e-01 </wgt>
<wgt id='1962'> +5.0807081e-01 </wgt>
<wgt id='1963'> +5.6347441e-01 </wgt>
<wgt id='1964'> +5.2028853e-01 </wgt>
<wgt id='1965'> +5.3728546e-01 </wgt>
<wgt id='1966'> +5.4389809e-01 </wgt>
<wgt id='1967'> +4.9841948e-01 </wgt>
<wgt id='1968'> +5.4576274e-01 </wgt>
<wgt id='1969'> +5.4468515e-01 </wgt>
<wgt id='1970'> +5.2891214e-01 </wgt>
<wgt id='1971'> +5.3904469e-01 </wgt>
<wgt id='1972'> +4.7067037e-01 </wgt>
<wgt id='1973'> +4.9936217e-01 </wgt>
<wgt id='1974'> +5.2333351e-01 </wgt>
<wgt id='1975'> +5.5108870e-01 </wgt>
<wgt id='1976'> +5.7609625e-01 </wgt>
<wgt id='1977'> +5.2457943e-01 </wgt>
<wgt id='1978'> +5.5105791e-01 </wgt>
<wgt id='1979'> +5.1878503e-01 </wgt>
<wgt id='1980'> +5.6689862e-01 </wgt>
<wgt id='1981'> +5.3123994e-01 </wgt>
<wgt id='1982'> +4.8393642e-01 </wgt>
<wgt id='1983'> +6.7428238e-01 </wgt>
<wgt id='1984'> +4.7969727e-01 </wgt>
<wgt id='1985'> +5.4483099e-01 </wgt>
<wgt id='1986'> +5.1902984e-01 </wgt>
<wgt id='1987'> +4.9696592e-01 </wgt>
<wgt id='1988'> +5.1488988e-01 </wgt>
<wgt id='1989'> +5.1856870e-01 </wgt>
<wgt id='1990'> +5.1714999e-01 </wgt>
<wgt id='1991'> +5.3136562e-01 </wgt>
<wgt id='1992'> +4.4630777e-01 </wgt>
<wgt id='1993'> +5.3940684e-01 </wgt>
<wgt id='1994'> +5.3873793e-01 </wgt>
<wgt id='1995'> +5.1470888e-01 </wgt>
<wgt id='1996'> +5.0798908e-01 </wgt>
<wgt id='1997'> +5.1857682e-01 </wgt>
<wgt id='1998'> +5.2533265e-01 </wgt>
<wgt id='1999'> +5.2661370e-01 </wgt>
<wgt id='2000'> +4.9909223e-01 </wgt>
<wgt id='2001'> +4.6817592e-01 </wgt>
<wgt id='2002'> +5.3143580e-01 </wgt>
<wgt id='2003'> +5.2471437e-01 </wgt>
<wgt id='2004'> +5.5744400e-01 </wgt>
<wgt id='2005'> +5.1644510e-01 </wgt>
<wgt id='2006'> +5.6294524e-01 </wgt>
<wgt id='2007'> +5.0114093e-01 </wgt>
<wgt id='2008'> +5.5072888e-01 </wgt>
<wgt id='2009'> +4.9967687e-01 </wgt>
<wgt id='2010'> +5.2883466e-01 </wgt>
<wgt id='2011'> +5.0459567e-01 </wgt>
<wgt id='2012'> +5.5254882e-01 </wgt>
<wgt id='2013'> +4.8713100e-01 </wgt>
<wgt id='2014'> +5.7736021e-01 </wgt>
<wgt id='2015'> +4.8142981e-01 </wgt>
<wgt id='2016'> +5.5581156e-01 </wgt>
<wgt id='2017'> +5.2753590e-01 </wgt>
<wgt id='2018'> +5.6939131e-01 </wgt>
<wgt id='2019'> +5.8414228e-01 </wgt>
<wgt id='2020'> +5.2152583e-01 </wgt>
<wgt id='2021'> +5.3898490e-01 </wgt>
<wgt id='2022'> +5.1248371e-01 </wgt>
</rwgt>
</event>
<event>
 13 1 0.0079112 7.63097900e+01 7.81860800e-03 1.29096600e-01
       21 -1    0    0  502  503 +0.0000000000e+00 +0.0000000000e+00 +9.8374756989e+02 9.8374756989e+02 0.0000000000e+00 0.0000e+00 -1.0000e+00
        2 -1    0    0  501    0 +0.0000000000e+00 +0.0000000000e+00 -1.5152033881e+02 1.5152033883e+02 2.5500000000e-03 0.0000e+00 -1.0000e+00
  8000001  2    1    2  502    0 -3.5569415805e+00 -1.4935346453e+01 +6.5298897662e+02 8.8692165707e+02 5.9999975483e+02 0.0000e+00 0.0000e+00
        1  1    1    2  501    0 -1.2191894424e+00 +2.1967176757e+01 -3.0928712308e+01 3.7955612865e+01 5.0400000000e-03 0.0000e+00 -1.0000e+00
       -5  1    1    2    0  503 +4.7761310229e+00 -7.0318303039e+00 +2.1016696677e+02 2.1039063878e+02 4.6700000000e+00 0.0000e+00 1.0000e+00
        6  2    3    3  502    0 -1.9695447988e+02 -3.6358011204e+01 +6.1364170751e+02 6.6817261104e+02 1.7258482209e+02 0.0000e+00 0.0000e+00
        5  1    6    6  502    0 -2.6964435636e+01 +1.8655444874e+01 +2.6579857745e+02 2.6785406304e+02 4.6700000000e+00 0.0000e+00 -1.0000e+00
       24  2    6    6    0    0 -1.6999004425e+02 -5.5013456078e+01 +3.4784313007e+02 4.0031854800e+02 8.5656297165e+01 0.0000e+00 0.0000e+00
       14  1    8    8    0    0 -1.0744714846e+02 -7.6448477300e+01 +2.3915658375e+02 2.7310278458e+02 0.0000000000e+00 0.0000e+00 -1.0000e+00
      -13  1    8    8    0    0 -6.2542895782e+01 +2.1435021222e+01 +1.0868654631e+02 1.2721576341e+02 1.0566000000e-01 0.0000e+00 1.0000e+00
       23  2    3    3    0    0 +1.9339753830e+02 +2.1422664751e+01 +3.9347269105e+01 2.1874904604e+02 9.1877087300e+01 0.0000e+00 0.0000e+00
       16  1   11   11    0    0 +2.4075795099e+01 -6.2912085263e+00 -2.5217686943e+01 3.5428166043e+01 0.0000000000e+00 0.0000e+00 -1.0000e+00
      -16  1   11   11    0    0 +1.6932174320e+02 +2.7713873277e+01 +6.4564956048e+01 1.8332088000e+02 0.0000000000e+00 0.0000e+00 1.0000e+00
<mgrwt>
<rscale>  1 0.40943446e+02</rscale>
<asrwt>0</asrwt>
<pdfrwt beam="1">  1       21 0.15134578e+00 0.76309792e+02</pdfrwt>
<pdfrwt beam="2">  1        2 0.23310822e-01 0.21967898e+02</pdfrwt>
<totfact> 0.85293941e+02</totfact>
</mgrwt>
<rwgt>
<wgt id='1001'> +5.2878984e-01 </wgt>
<wgt id='1002'> +3.2829137e-01 </wgt>
<wgt id='1003'> +3.2805886e-01 </wgt>
<wgt id='1004'> +3.8256494e-01 </wgt>
<wgt id='1005'> +2.9444693e-01 </wgt>
<wgt id='1006'> +4.6946675e-01 </wgt>
<wgt id='1007'> +3.0220972e-01 </wgt>
<wgt id='1008'> +3.0200608e-01 </wgt>
<wgt id='1009'> +3.4942348e-01 </wgt>
<wgt id='1010'> +2.7243074e-01 </wgt>
<wgt id='1011'> +6.0606858e-01 </wgt>
<wgt id='1012'> +3.5944337e-01 </wgt>
<wgt id='1013'> +3.5917396e-01 </wgt>
<wgt id='1014'> +4.2287082e-01 </wgt>
<wgt id='1015'> +3.2043554e-01 </wgt>
<wgt id='1016'> +5.0067579e-01 </wgt>
<wgt id='1017'> +3.0908716e-01 </wgt>
<wgt id='1018'> +3.0887193e-01 </wgt>
<wgt id='1019'> +3.5917396e-01 </wgt>
<wgt id='1020'> +2.7780544e-01 </wgt>
<wgt id='1021'> +4.4450672e-01 </wgt>
<wgt id='1022'> +2.8453122e-01 </wgt>
<wgt id='1023'> +2.8434288e-01 </wgt>
<wgt id='1024'> +3.2805886e-01 </wgt>
<wgt id='1025'> +2.5703356e-01 </wgt>
<wgt id='1026'> +5.7384588e-01 </wgt>
<wgt id='1027'> +3.3841685e-01 </wgt>
<wgt id='1028'> +3.3816723e-01 </wgt>
<wgt id='1029'> +3.9701544e-01 </wgt>
<wgt id='1030'> +3.0232523e-01 </wgt>
<wgt id='1031'> +5.5640896e-01 </wgt>
<wgt id='1032'> +3.4967623e-01 </wgt>
<wgt id='1033'> +3.4942348e-01 </wgt>
<wgt id='1034'> +4.0863635e-01 </wgt>
<wgt id='1035'> +3.1294207e-01 </wgt>
<wgt id='1036'> +4.9398738e-01 </wgt>
<wgt id='1037'> +3.2189562e-01 </wgt>
<wgt id='1038'> +3.2167404e-01 </wgt>
<wgt id='1039'> +3.7323634e-01 </wgt>
<wgt id='1040'> +2.8954297e-01 </wgt>
<wgt id='1041'> +6.3772404e-01 </wgt>
<wgt id='1042'> +3.8285747e-01 </wgt>
<wgt id='1043'> +3.8256494e-01 </wgt>
<wgt id='1044'> +4.5168904e-01 </wgt>
<wgt id='1045'> +3.4056310e-01 </wgt>
<wgt id='1046'> +5.2878984e-01 </wgt>
<wgt id='1047'> +5.2878984e-01 </wgt>
<wgt id='1048'> +5.2878984e-01 </wgt>
<wgt id='1049'> +5.2692528e-01 </wgt>
<wgt id='1050'> +5.2907166e-01 </wgt>
<wgt id='1051'> +5.2778176e-01 </wgt>
<wgt id='1052'> +5.3087910e-01 </wgt>
<wgt id='1053'> +5.2618272e-01 </wgt>
<wgt id='1054'> +5.2789619e-01 </wgt>
<wgt id='1055'> +5.2888088e-01 </wgt>
<wgt id='1056'> +5.2653211e-01 </wgt>
<wgt id='1057'> +5.3248941e-01 </wgt>
<wgt id='1058'> +5.2778990e-01 </wgt>
<wgt id='1059'> +5.3095050e-01 </wgt>
<wgt id='1060'> +5.2952693e-01 </wgt>
<wgt id='1061'> +5.2926249e-01 </wgt>
<wgt id='1062'> +5.2898697e-01 </wgt>
<wgt id='1063'> +5.3025384e-01 </wgt>
<wgt id='1064'> +5.2811680e-01 </wgt>
<wgt id='1065'> +5.2887065e-01 </wgt>
<wgt id='1066'> +5.2322099e-01 </wgt>
<wgt id='1067'> +5.2451356e-01 </wgt>
<wgt id='1068'> +5.2708104e-01 </wgt>
<wgt id='1069'> +5.2874946e-01 </wgt>
<wgt id='1070'> +5.3068926e-01 </wgt>
<wgt id='1071'> +5.2865602e-01 </wgt>
<wgt id='1072'> +5.2308790e-01 </wgt>
<wgt id='1073'> +5.2974208e-01 </wgt>
<wgt id='1074'> +5.2877372e-01 </wgt>
<wgt id='1075'> +5.3486790e-01 </wgt>
<wgt id='1076'> +5.2721350e-01 </wgt>
<wgt id='1077'> +5.2831021e-01 </wgt>
<wgt id='1078'> +5.3075170e-01 </wgt>
<wgt id='1079'> +5.2762610e-01 </wgt>
<wgt id='1080'> +5.2732979e-01 </wgt>
<wgt id='1081'> +5.2827388e-01 </wgt>
<wgt id='1082'> +5.2658243e-01 </wgt>
<wgt id='1083'> +5.3037319e-01 </wgt>
<wgt id='1084'> +5.3102888e-01 </wgt>
<wgt id='1085'> +5.2625490e-01 </wgt>
<wgt id='1086'> +5.2902681e-01 </wgt>
<wgt id='1087'> +5.2967455e-01 </wgt>
<wgt id='1088'> +5.2802548e-01 </wgt>
<wgt id='1089'> +5.2953417e-01 </wgt>
<wgt id='1090'> +5.2960943e-01 </wgt>
<wgt id='1091'> +5.2667566e-01 </wgt>
<wgt id='1092'> +5.2990459e-01 </wgt>
<wgt id='1093'> +5.2852824e-01 </wgt>
<wgt id='1094'> +5.2962419e-01 </wgt>
<wgt id='1095'> +5.2821537e-01 </wgt>
<wgt id='1096'> +5.2885925e-01 </wgt>
<wgt id='1097'> +5.2787158e-01 </wgt>
<wgt id='1098'> +5.2874538e-01 </wgt>
<wgt id='1099'> +5.2852889e-01 </wgt>
<wgt id='1100'> +5.2989756e-01 </wgt>
<wgt id='1101'> +5.2786497e-01 </wgt>
<wgt id='1102'> +5.2864812e-01 </wgt>
<wgt id='1103'> +5.2843861e-01 </wgt>
<wgt id='1104'> +5.3008321e-01 </wgt>
<wgt id='1105'> +5.2936241e-01 </wgt>
<wgt id='1106'> +5.2900088e-01 </wgt>
<wgt id='1107'> +5.2812945e-01 </wgt>
<wgt id='1108'> +5.2885868e-01 </wgt>
<wgt id='1109'> +5.2856432e-01 </wgt>
<wgt id='1110'> +5.2886081e-01 </wgt>
<wgt id='1111'> +5.2893129e-01 </wgt>
<wgt id='1112'> +5.2905186e-01 </wgt>
<wgt id='1113'> +5.2856942e-01 </wgt>
<wgt id='1114'> +5.2843343e-01 </wgt>
<wgt id='1115'> +5.2821041e-01 </wgt>
<wgt id='1116'> +5.2964983e-01 </wgt>
<wgt id='1117'> +5.2911662e-01 </wgt>
<wgt id='1118'> +5.2836420e-01 </wgt>
<wgt id='1119'> +5.2897192e-01 </wgt>
<wgt id='1120'> +5.2910041e-01 </wgt>
<wgt id='1121'> +5.2920730e-01 </wgt>
<wgt id='1122'> +5.2935406e-01 </wgt>
<wgt id='1123'> +5.2863144e-01 </wgt>
<wgt id='1124'> +5.2857968e-01 </wgt>
<wgt id='1125'> +5.2944622e-01 </wgt>
<wgt id='1126'> +5.2894986e-01 </wgt>
<wgt id='1127'> +5.2839223e-01 </wgt>
<wgt id='1128'> +5.2924752e-01 </wgt>
<wgt id='1129'> +5.2901079e-01 </wgt>
<wgt id='1130'> +5.2868382e-01 </wgt>
<wgt id='1131'> +5.2941583e-01 </wgt>
<wgt id='1132'> +5.2900653e-01 </wgt>
<wgt id='1133'> +5.2908923e-01 </wgt>
<wgt id='1134'> +5.2863730e-01 </wgt>
<wgt id='1135'> +5.2921847e-01 </wgt>
<wgt id='1136'> +5.2849189e-01 </wgt>
<wgt id='1137'> +5.2883231e-01 </wgt>
<wgt id='1138'> +5.2905825e-01 </wgt>
<wgt id='1139'> +5.2904050e-01 </wgt>
<wgt id='1140'> +5.2921657e-01 </wgt>
<wgt id='1141'> +5.2876782e-01 </wgt>
<wgt id='1142'> +5.2912084e-01 </wgt>
<wgt id='1143'> +5.2893614e-01 </wgt>
<wgt id='1144'> +5.2889230e-01 </wgt>
<wgt id='1145'> +5.2911387e-01 </wgt>
<wgt id='1146'> +5.2889659e-01 </wgt>
<wgt id='1147'> +5.2881257e-01 </wgt>
<wgt id='1148'> +5.2878984e-01 </wgt>
<wgt id='1149'> +5.3357254e-01 </wgt>
<wgt id='1150'> +5.7267984e-01 </wgt>
<wgt id='1151'> +5.2666031e-01 </wgt>
<wgt id='1152'> +5.3159129e-01 </wgt>
<wgt id='1153'> +5.2957445e-01 </wgt>
<wgt id='1154'> +5.3539172e-01 </wgt>
<wgt id='1155'> +5.4045405e-01 </wgt>
<wgt id='1156'> +5.2214484e-01 </wgt>
<wgt id='1157'> +5.1327283e-01 </wgt>
<wgt id='1158'> +5.1016375e-01 </wgt>
<wgt id='1159'> +5.5165165e-01 </wgt>
<wgt id='1160'> +5.3732834e-01 </wgt>
<wgt id='1161'> +5.1815939e-01 </wgt>
<wgt id='1162'> +5.2876920e-01 </wgt>
<wgt id='1163'> +5.3440136e-01 </wgt>
<wgt id='1164'> +5.1844381e-01 </wgt>
<wgt id='1165'> +5.2918811e-01 </wgt>
<wgt id='1166'> +5.3868415e-01 </wgt>
<wgt id='1167'> +5.2083706e-01 </wgt>
<wgt id='1168'> +5.2825167e-01 </wgt>
<wgt id='1169'> +5.1573302e-01 </wgt>
<wgt id='1170'> +5.2271063e-01 </wgt>
<wgt id='1171'> +5.2347749e-01 </wgt>
<wgt id='1172'> +5.3100081e-01 </wgt>
<wgt id='1173'> +5.3754908e-01 </wgt>
<wgt id='1174'> +5.1383998e-01 </wgt>
<wgt id='1175'> +5.3805412e-01 </wgt>
<wgt id='1176'> +5.4665712e-01 </wgt>
<wgt id='1177'> +5.1901746e-01 </wgt>
<wgt id='1178'> +5.4334704e-01 </wgt>
<wgt id='1179'> +5.1933615e-01 </wgt>
<wgt id='1180'> +5.5426398e-01 </wgt>
<wgt id='1181'> +5.0946574e-01 </wgt>
<wgt id='1182'> +5.2185249e-01 </wgt>
<wgt id='1183'> +5.4009131e-01 </wgt>
<wgt id='1184'> +5.5423259e-01 </wgt>
<wgt id='1185'> +5.3068013e-01 </wgt>
<wgt id='1186'> +5.2638737e-01 </wgt>
<wgt id='1187'> +5.2929236e-01 </wgt>
<wgt id='1188'> +5.2877882e-01 </wgt>
<wgt id='1189'> +5.3560375e-01 </wgt>
<wgt id='1190'> +5.3004428e-01 </wgt>
<wgt id='1191'> +5.4334619e-01 </wgt>
<wgt id='1192'> +5.4718603e-01 </wgt>
<wgt id='1193'> +5.5010327e-01 </wgt>
<wgt id='1194'> +5.4249593e-01 </wgt>
<wgt id='1195'> +5.4472589e-01 </wgt>
<wgt id='1196'> +5.4257475e-01 </wgt>
<wgt id='1197'> +5.4292406e-01 </wgt>
<wgt id='1198'> +5.3801201e-01 </wgt>
<wgt id='1199'> +5.5356935e-01 </wgt>
<wgt id='1200'> +5.3888232e-01 </wgt>
<wgt id='1201'> +5.2001243e-01 </wgt>
<wgt id='1202'> +5.4316606e-01 </wgt>
<wgt id='1203'> +5.3734739e-01 </wgt>
<wgt id='1204'> +5.5102156e-01 </wgt>
<wgt id='1205'> +5.2709015e-01 </wgt>
<wgt id='1206'> +5.3455087e-01 </wgt>
<wgt id='1207'> +5.3343683e-01 </wgt>
<wgt id='1208'> +5.0868120e-01 </wgt>
<wgt id='1209'> +5.3617795e-01 </wgt>
<wgt id='1210'> +5.3075117e-01 </wgt>
<wgt id='1211'> +5.4001761e-01 </wgt>
<wgt id='1212'> +5.4891167e-01 </wgt>
<wgt id='1213'> +5.4225368e-01 </wgt>
<wgt id='1214'> +5.2192401e-01 </wgt>
<wgt id='1215'> +5.4336224e-01 </wgt>
<wgt id='1216'> +5.5613066e-01 </wgt>
<wgt id='1217'> +5.2377694e-01 </wgt>
<wgt id='1218'> +5.3384765e-01 </wgt>
<wgt id='1219'> +5.5305461e-01 </wgt>
<wgt id='1220'> +5.2023900e-01 </wgt>
<wgt id='1221'> +5.5876647e-01 </wgt>
<wgt id='1222'> +4.9910758e-01 </wgt>
<wgt id='1223'> +5.0940295e-01 </wgt>
<wgt id='1224'> +5.2622500e-01 </wgt>
<wgt id='1225'> +5.5404632e-01 </wgt>
<wgt id='1226'> +5.3051923e-01 </wgt>
<wgt id='1227'> +5.2256870e-01 </wgt>
<wgt id='1228'> +5.2616134e-01 </wgt>
<wgt id='1229'> +5.6670329e-01 </wgt>
<wgt id='1230'> +5.4400592e-01 </wgt>
<wgt id='1231'> +5.2918811e-01 </wgt>
<wgt id='1232'> +5.4053330e-01 </wgt>
<wgt id='1233'> +5.1921255e-01 </wgt>
<wgt id='1234'> +5.2300047e-01 </wgt>
<wgt id='1235'> +5.6081838e-01 </wgt>
<wgt id='1236'> +5.1932246e-01 </wgt>
<wgt id='1237'> +5.3783005e-01 </wgt>
<wgt id='1238'> +5.2322147e-01 </wgt>
<wgt id='1239'> +5.3374355e-01 </wgt>
<wgt id='1240'> +5.3739619e-01 </wgt>
<wgt id='1241'> +5.3128510e-01 </wgt>
<wgt id='1242'> +5.2723879e-01 </wgt>
<wgt id='1243'> +5.4834368e-01 </wgt>
<wgt id='1244'> +5.2164531e-01 </wgt>
<wgt id='1245'> +5.2631935e-01 </wgt>
<wgt id='1246'> +5.6974155e-01 </wgt>
<wgt id='1247'> +5.2583531e-01 </wgt>
<wgt id='1248'> +5.1752457e-01 </wgt>
<wgt id='1249'> +5.2205131e-01 </wgt>
<wgt id='1250'> +5.3229323e-01 </wgt>
<wgt id='1251'> +5.2873584e-01 </wgt>
<wgt id='1252'> +5.7081282e-01 </wgt>
<wgt id='1253'> +5.5754962e-01 </wgt>
<wgt id='1254'> +6.0971791e-01 </wgt>
<wgt id='1255'> +5.8135484e-01 </wgt>
<wgt id='1256'> +5.8042767e-01 </wgt>
<wgt id='1257'> +5.8189292e-01 </wgt>
<wgt id='1258'> +5.8064091e-01 </wgt>
<wgt id='1259'> +5.8173223e-01 </wgt>
<wgt id='1260'> +5.8178110e-01 </wgt>
<wgt id='1261'> +5.8077087e-01 </wgt>
<wgt id='1262'> +5.8176099e-01 </wgt>
<wgt id='1263'> +5.8109273e-01 </wgt>
<wgt id='1264'> +5.8155099e-01 </wgt>
<wgt id='1265'> +5.8123505e-01 </wgt>
<wgt id='1266'> +5.8318433e-01 </wgt>
<wgt id='1267'> +5.7954556e-01 </wgt>
<wgt id='1268'> +5.8380404e-01 </wgt>
<wgt id='1269'> +5.7879253e-01 </wgt>
<wgt id='1270'> +5.7287572e-01 </wgt>
<wgt id='1271'> +5.9084052e-01 </wgt>
<wgt id='1272'> +5.7792104e-01 </wgt>
<wgt id='1273'> +5.8399399e-01 </wgt>
<wgt id='1274'> +5.8281239e-01 </wgt>
<wgt id='1275'> +5.7947896e-01 </wgt>
<wgt id='1276'> +5.8949964e-01 </wgt>
<wgt id='1277'> +5.7273197e-01 </wgt>
<wgt id='1278'> +5.7815801e-01 </wgt>
<wgt id='1279'> +5.8373721e-01 </wgt>
<wgt id='1280'> +5.8096530e-01 </wgt>
<wgt id='1281'> +5.8275621e-01 </wgt>
<wgt id='1282'> +5.7881778e-01 </wgt>
<wgt id='1283'> +5.8225681e-01 </wgt>
<wgt id='1284'> +5.8199730e-01 </wgt>
<wgt id='1285'> +5.8087428e-01 </wgt>
<wgt id='1286'> +5.8045912e-01 </wgt>
<wgt id='1287'> +5.8142805e-01 </wgt>
<wgt id='1288'> +5.8309131e-01 </wgt>
<wgt id='1289'> +5.8082718e-01 </wgt>
<wgt id='1290'> +5.8163558e-01 </wgt>
<wgt id='1291'> +5.8127160e-01 </wgt>
<wgt id='1292'> +5.8601474e-01 </wgt>
<wgt id='1293'> +5.7552673e-01 </wgt>
<wgt id='1294'> +5.8064221e-01 </wgt>
<wgt id='1295'> +5.7912367e-01 </wgt>
<wgt id='1296'> +5.5185265e-01 </wgt>
<wgt id='1297'> +5.5352682e-01 </wgt>
<wgt id='1298'> +5.5049207e-01 </wgt>
<wgt id='1299'> +5.5344656e-01 </wgt>
<wgt id='1300'> +5.5008116e-01 </wgt>
<wgt id='1301'> +5.5102915e-01 </wgt>
<wgt id='1302'> +5.5307595e-01 </wgt>
<wgt id='1303'> +5.5183197e-01 </wgt>
<wgt id='1304'> +5.5187358e-01 </wgt>
<wgt id='1305'> +5.5172718e-01 </wgt>
<wgt id='1306'> +5.5203473e-01 </wgt>
<wgt id='1307'> +5.5107518e-01 </wgt>
<wgt id='1308'> +5.5233290e-01 </wgt>
<wgt id='1309'> +5.5202108e-01 </wgt>
<wgt id='1310'> +5.5164199e-01 </wgt>
<wgt id='1311'> +5.5191630e-01 </wgt>
<wgt id='1312'> +5.5180270e-01 </wgt>
<wgt id='1313'> +5.4583874e-01 </wgt>
<wgt id='1314'> +5.5923580e-01 </wgt>
<wgt id='1315'> +5.5353629e-01 </wgt>
<wgt id='1316'> +5.5026059e-01 </wgt>
<wgt id='1317'> +5.5917192e-01 </wgt>
<wgt id='1318'> +5.3945116e-01 </wgt>
<wgt id='1319'> +5.4361713e-01 </wgt>
<wgt id='1320'> +5.5702080e-01 </wgt>
<wgt id='1321'> +5.4742133e-01 </wgt>
<wgt id='1322'> +5.5398693e-01 </wgt>
<wgt id='1323'> +5.5012607e-01 </wgt>
<wgt id='1324'> +5.5399101e-01 </wgt>
<wgt id='1325'> +5.5022107e-01 </wgt>
<wgt id='1326'> +5.5365809e-01 </wgt>
<wgt id='1327'> +5.5106974e-01 </wgt>
<wgt id='1328'> +5.5217239e-01 </wgt>
<wgt id='1329'> +5.5189924e-01 </wgt>
<wgt id='1330'> +5.5191210e-01 </wgt>
<wgt id='1331'> +5.5061606e-01 </wgt>
<wgt id='1332'> +5.5211045e-01 </wgt>
<wgt id='1333'> +5.4982121e-01 </wgt>
<wgt id='1334'> +5.5665860e-01 </wgt>
<wgt id='1335'> +5.5218862e-01 </wgt>
<wgt id='1336'> +5.5174388e-01 </wgt>
<wgt id='1337'> +5.5185265e-01 </wgt>
<wgt id='1338'> +5.5124915e-01 </wgt>
<wgt id='1339'> +5.5142343e-01 </wgt>
<wgt id='1340'> +5.5153847e-01 </wgt>
<wgt id='1341'> +5.5177146e-01 </wgt>
<wgt id='1342'> +5.5182571e-01 </wgt>
<wgt id='1343'> +5.5191184e-01 </wgt>
<wgt id='1344'> +5.2660852e-01 </wgt>
<wgt id='1345'> +5.2842831e-01 </wgt>
<wgt id='1346'> +5.2479638e-01 </wgt>
<wgt id='1347'> +5.2518457e-01 </wgt>
<wgt id='1348'> +5.2763182e-01 </wgt>
<wgt id='1349'> +5.2606089e-01 </wgt>
<wgt id='1350'> +5.2706350e-01 </wgt>
<wgt id='1351'> +5.2657056e-01 </wgt>
<wgt id='1352'> +5.2665820e-01 </wgt>
<wgt id='1353'> +5.2810558e-01 </wgt>
<wgt id='1354'> +5.2553763e-01 </wgt>
<wgt id='1355'> +5.2677376e-01 </wgt>
<wgt id='1356'> +5.2646921e-01 </wgt>
<wgt id='1357'> +5.2611736e-01 </wgt>
<wgt id='1358'> +5.2688741e-01 </wgt>
<wgt id='1359'> +5.2645441e-01 </wgt>
<wgt id='1360'> +5.2689373e-01 </wgt>
<wgt id='1361'> +5.1522172e-01 </wgt>
<wgt id='1362'> +5.3656996e-01 </wgt>
<wgt id='1363'> +5.2372554e-01 </wgt>
<wgt id='1364'> +5.3019509e-01 </wgt>
<wgt id='1365'> +5.2203383e-01 </wgt>
<wgt id='1366'> +5.2849733e-01 </wgt>
<wgt id='1367'> +5.2243880e-01 </wgt>
<wgt id='1368'> +5.2856495e-01 </wgt>
<wgt id='1369'> +5.3190918e-01 </wgt>
<wgt id='1370'> +5.2171312e-01 </wgt>
<wgt id='1371'> +5.2615667e-01 </wgt>
<wgt id='1372'> +5.2749815e-01 </wgt>
<wgt id='1373'> +5.2687971e-01 </wgt>
<wgt id='1374'> +5.2781651e-01 </wgt>
<wgt id='1375'> +5.2531019e-01 </wgt>
<wgt id='1376'> +5.2707779e-01 </wgt>
<wgt id='1377'> +5.2639619e-01 </wgt>
<wgt id='1378'> +5.2724662e-01 </wgt>
<wgt id='1379'> +5.2702065e-01 </wgt>
<wgt id='1380'> +5.2524344e-01 </wgt>
<wgt id='1381'> +5.2639008e-01 </wgt>
<wgt id='1382'> +5.2903000e-01 </wgt>
<wgt id='1383'> +5.2640892e-01 </wgt>
<wgt id='1384'> +5.2768458e-01 </wgt>
<wgt id='1385'> +5.2660852e-01 </wgt>
<wgt id='1386'> +5.2605442e-01 </wgt>
<wgt id='1387'> +5.2621943e-01 </wgt>
<wgt id='1388'> +5.2632038e-01 </wgt>
<wgt id='1389'> +5.2648948e-01 </wgt>
<wgt id='1390'> +5.2651798e-01 </wgt>
<wgt id='1391'> +5.2648411e-01 </wgt>
<wgt id='1392'> +5.7618057e-01 </wgt>
<wgt id='1393'> +5.7509333e-01 </wgt>
<wgt id='1394'> +5.7734941e-01 </wgt>
<wgt id='1395'> +5.7530269e-01 </wgt>
<wgt id='1396'> +5.7680747e-01 </wgt>
<wgt id='1397'> +5.7670596e-01 </wgt>
<wgt id='1398'> +5.7567512e-01 </wgt>
<wgt id='1399'> +5.7511353e-01 </wgt>
<wgt id='1400'> +5.7749326e-01 </wgt>
<wgt id='1401'> +5.7549993e-01 </wgt>
<wgt id='1402'> +5.7702399e-01 </wgt>
<wgt id='1403'> +5.7602436e-01 </wgt>
<wgt id='1404'> +5.7648576e-01 </wgt>
<wgt id='1405'> +5.7573406e-01 </wgt>
<wgt id='1406'> +5.7679871e-01 </wgt>
<wgt id='1407'> +5.7655254e-01 </wgt>
<wgt id='1408'> +5.7592633e-01 </wgt>
<wgt id='1409'> +5.7542601e-01 </wgt>
<wgt id='1410'> +5.7700292e-01 </wgt>
<wgt id='1411'> +5.7385582e-01 </wgt>
<wgt id='1412'> +5.7795202e-01 </wgt>
<wgt id='1413'> +5.7513912e-01 </wgt>
<wgt id='1414'> +5.7726994e-01 </wgt>
<wgt id='1415'> +5.7616288e-01 </wgt>
<wgt id='1416'> +5.7599955e-01 </wgt>
<wgt id='1417'> +5.7014905e-01 </wgt>
<wgt id='1418'> +5.8350437e-01 </wgt>
<wgt id='1419'> +5.7718532e-01 </wgt>
<wgt id='1420'> +5.7506604e-01 </wgt>
<wgt id='1421'> +5.7044178e-01 </wgt>
<wgt id='1422'> +5.8294801e-01 </wgt>
<wgt id='1423'> +5.6334778e-01 </wgt>
<wgt id='1424'> +5.8637422e-01 </wgt>
<wgt id='1425'> +5.7683042e-01 </wgt>
<wgt id='1426'> +5.7529274e-01 </wgt>
<wgt id='1427'> +5.7589476e-01 </wgt>
<wgt id='1428'> +5.7750654e-01 </wgt>
<wgt id='1429'> +5.7512050e-01 </wgt>
<wgt id='1430'> +5.7706001e-01 </wgt>
<wgt id='1431'> +5.7437398e-01 </wgt>
<wgt id='1432'> +5.7794355e-01 </wgt>
<wgt id='1433'> +5.6987159e-01 </wgt>
<wgt id='1434'> +5.8454980e-01 </wgt>
<wgt id='1435'> +5.7840633e-01 </wgt>
<wgt id='1436'> +5.7488053e-01 </wgt>
<wgt id='1437'> +5.7469652e-01 </wgt>
<wgt id='1438'> +5.8040523e-01 </wgt>
<wgt id='1439'> +5.7654535e-01 </wgt>
<wgt id='1440'> +5.7799532e-01 </wgt>
<wgt id='1441'> +5.7469717e-01 </wgt>
<wgt id='1442'> +5.7661833e-01 </wgt>
<wgt id='1443'> +5.6435329e-01 </wgt>
<wgt id='1444'> +5.6329055e-01 </wgt>
<wgt id='1445'> +5.6548409e-01 </wgt>
<wgt id='1446'> +5.6345214e-01 </wgt>
<wgt id='1447'> +5.6495094e-01 </wgt>
<wgt id='1448'> +5.6497714e-01 </wgt>
<wgt id='1449'> +5.6376778e-01 </wgt>
<wgt id='1450'> +5.6325942e-01 </wgt>
<wgt id='1451'> +5.6557244e-01 </wgt>
<wgt id='1452'> +5.6363125e-01 </wgt>
<wgt id='1453'> +5.6504937e-01 </wgt>
<wgt id='1454'> +5.6414122e-01 </wgt>
<wgt id='1455'> +5.6480648e-01 </wgt>
<wgt id='1456'> +5.6384692e-01 </wgt>
<wgt id='1457'> +5.6524573e-01 </wgt>
<wgt id='1458'> +5.6478011e-01 </wgt>
<wgt id='1459'> +5.6411102e-01 </wgt>
<wgt id='1460'> +5.6310219e-01 </wgt>
<wgt id='1461'> +5.6577470e-01 </wgt>
<wgt id='1462'> +5.6234478e-01 </wgt>
<wgt id='1463'> +5.6608669e-01 </wgt>
<wgt id='1464'> +5.6354798e-01 </wgt>
<wgt id='1465'> +5.6540841e-01 </wgt>
<wgt id='1466'> +5.6524068e-01 </wgt>
<wgt id='1467'> +5.6355566e-01 </wgt>
<wgt id='1468'> +5.7269909e-01 </wgt>
<wgt id='1469'> +5.5608379e-01 </wgt>
<wgt id='1470'> +5.6552124e-01 </wgt>
<wgt id='1471'> +5.6333674e-01 </wgt>
<wgt id='1472'> +5.6007787e-01 </wgt>
<wgt id='1473'> +5.6948284e-01 </wgt>
<wgt id='1474'> +5.5501783e-01 </wgt>
<wgt id='1475'> +5.7531882e-01 </wgt>
<wgt id='1476'> +5.6696585e-01 </wgt>
<wgt id='1477'> +5.6185251e-01 </wgt>
<wgt id='1478'> +5.6411888e-01 </wgt>
<wgt id='1479'> +5.6562590e-01 </wgt>
<wgt id='1480'> +5.6350411e-01 </wgt>
<wgt id='1481'> +5.6496450e-01 </wgt>
<wgt id='1482'> +5.6262886e-01 </wgt>
<wgt id='1483'> +5.6630145e-01 </wgt>
<wgt id='1484'> +5.5794333e-01 </wgt>
<wgt id='1485'> +5.7221627e-01 </wgt>
<wgt id='1486'> +5.6693367e-01 </wgt>
<wgt id='1487'> +5.6317505e-01 </wgt>
<wgt id='1488'> +5.6267595e-01 </wgt>
<wgt id='1489'> +5.6881943e-01 </wgt>
<wgt id='1490'> +5.6444887e-01 </wgt>
<wgt id='1491'> +5.6673025e-01 </wgt>
<wgt id='1492'> +5.6238610e-01 </wgt>
<wgt id='1493'> +5.6507857e-01 </wgt>
<wgt id='1494'> +5.5468620e-01 </wgt>
<wgt id='1495'> +5.3856801e-01 </wgt>
<wgt id='1496'> +5.4377302e-01 </wgt>
<wgt id='1497'> +5.4946195e-01 </wgt>
<wgt id='1498'> +5.6145072e-01 </wgt>
<wgt id='1499'> +5.5533940e-01 </wgt>
<wgt id='1500'> +5.5311680e-01 </wgt>
<wgt id='1501'> +5.5409546e-01 </wgt>
<wgt id='1502'> +5.5467101e-01 </wgt>
<wgt id='1503'> +5.5501890e-01 </wgt>
<wgt id='1504'> +5.5530453e-01 </wgt>
<wgt id='1505'> +5.5519655e-01 </wgt>
<wgt id='1506'> +5.5488589e-01 </wgt>
<wgt id='1507'> +5.5438710e-01 </wgt>
<wgt id='1508'> +5.5533940e-01 </wgt>
<wgt id='1509'> +5.5523658e-01 </wgt>
<wgt id='1510'> +5.5530799e-01 </wgt>
<wgt id='1511'> +5.5546851e-01 </wgt>
<wgt id='1512'> +5.5582871e-01 </wgt>
<wgt id='1513'> +5.4968966e-01 </wgt>
<wgt id='1514'> +5.4844499e-01 </wgt>
<wgt id='1515'> +5.5129416e-01 </wgt>
<wgt id='1516'> +5.5012219e-01 </wgt>
<wgt id='1517'> +5.4925972e-01 </wgt>
<wgt id='1518'> +5.4871472e-01 </wgt>
<wgt id='1519'> +5.5008260e-01 </wgt>
<wgt id='1520'> +5.4898816e-01 </wgt>
<wgt id='1521'> +5.5038111e-01 </wgt>
<wgt id='1522'> +5.4946667e-01 </wgt>
<wgt id='1523'> +5.4990024e-01 </wgt>
<wgt id='1524'> +5.5096436e-01 </wgt>
<wgt id='1525'> +5.4915952e-01 </wgt>
<wgt id='1526'> +5.4937637e-01 </wgt>
<wgt id='1527'> +5.5007779e-01 </wgt>
<wgt id='1528'> +5.4959709e-01 </wgt>
<wgt id='1529'> +5.4979641e-01 </wgt>
<wgt id='1530'> +5.4690023e-01 </wgt>
<wgt id='1531'> +5.5125074e-01 </wgt>
<wgt id='1532'> +5.5116063e-01 </wgt>
<wgt id='1533'> +5.4768327e-01 </wgt>
<wgt id='1534'> +5.4834907e-01 </wgt>
<wgt id='1535'> +5.5063167e-01 </wgt>
<wgt id='1536'> +5.4901524e-01 </wgt>
<wgt id='1537'> +5.5036119e-01 </wgt>
<wgt id='1538'> +5.4841613e-01 </wgt>
<wgt id='1539'> +5.5253629e-01 </wgt>
<wgt id='1540'> +5.4954272e-01 </wgt>
<wgt id='1541'> +5.4921503e-01 </wgt>
<wgt id='1542'> +5.5397400e-01 </wgt>
<wgt id='1543'> +5.3896199e-01 </wgt>
<wgt id='1544'> +5.4543475e-01 </wgt>
<wgt id='1545'> +5.5892798e-01 </wgt>
<wgt id='1546'> +5.5033844e-01 </wgt>
<wgt id='1547'> +5.4847163e-01 </wgt>
<wgt id='1548'> +5.4871727e-01 </wgt>
<wgt id='1549'> +5.5030837e-01 </wgt>
<wgt id='1550'> +5.4865870e-01 </wgt>
<wgt id='1551'> +5.5118452e-01 </wgt>
<wgt id='1552'> +5.4727686e-01 </wgt>
<wgt id='1553'> +5.5151342e-01 </wgt>
<wgt id='1554'> +5.5487803e-01 </wgt>
<wgt id='1555'> +5.4185274e-01 </wgt>
<wgt id='1556'> +5.5037003e-01 </wgt>
<wgt id='1557'> +5.4486628e-01 </wgt>
<wgt id='1558'> +5.4730791e-01 </wgt>
<wgt id='1559'> +5.5217438e-01 </wgt>
<wgt id='1560'> +5.5263691e-01 </wgt>
<wgt id='1561'> +5.4840356e-01 </wgt>
<wgt id='1562'> +5.5075156e-01 </wgt>
<wgt id='1563'> +5.4880808e-01 </wgt>
<wgt id='1564'> +5.4968966e-01 </wgt>
<wgt id='1565'> +5.4146766e-01 </wgt>
<wgt id='1566'> +5.5855863e-01 </wgt>
<wgt id='1567'> +5.5019036e-01 </wgt>
<wgt id='1568'> +5.5097571e-01 </wgt>
<wgt id='1569'> +5.5118355e-01 </wgt>
<wgt id='1570'> +5.5140691e-01 </wgt>
<wgt id='1571'> +5.5086211e-01 </wgt>
<wgt id='1572'> +5.5065701e-01 </wgt>
<wgt id='1573'> +5.4923583e-01 </wgt>
<wgt id='1574'> +5.4793271e-01 </wgt>
<wgt id='1575'> +5.4715239e-01 </wgt>
<wgt id='1576'> +5.5019036e-01 </wgt>
<wgt id='1577'> +5.4969124e-01 </wgt>
<wgt id='1578'> +5.4965862e-01 </wgt>
<wgt id='1579'> +5.5053983e-01 </wgt>
<wgt id='1580'> +5.5095986e-01 </wgt>
<wgt id='1581'> +5.4568962e-01 </wgt>
<wgt id='1582'> +5.4500818e-01 </wgt>
<wgt id='1583'> +5.4365515e-01 </wgt>
<wgt id='1584'> +5.4509319e-01 </wgt>
<wgt id='1585'> +5.4328712e-01 </wgt>
<wgt id='1586'> +5.3610222e-01 </wgt>
<wgt id='1587'> +5.4877233e-01 </wgt>
<wgt id='1588'> +5.4019472e-01 </wgt>
<wgt id='1589'> +5.4553297e-01 </wgt>
<wgt id='1590'> +5.4990898e-01 </wgt>
<wgt id='1591'> +5.4603792e-01 </wgt>
<wgt id='1592'> +5.3624102e-01 </wgt>
<wgt id='1593'> +5.4473639e-01 </wgt>
<wgt id='1594'> +5.3551807e-01 </wgt>
<wgt id='1595'> +5.4781757e-01 </wgt>
<wgt id='1596'> +5.4680853e-01 </wgt>
<wgt id='1597'> +5.4897198e-01 </wgt>
<wgt id='1598'> +5.4030067e-01 </wgt>
<wgt id='1599'> +5.4254215e-01 </wgt>
<wgt id='1600'> +5.4475787e-01 </wgt>
<wgt id='1601'> +5.4394972e-01 </wgt>
<wgt id='1602'> +5.4504972e-01 </wgt>
<wgt id='1603'> +5.4680070e-01 </wgt>
<wgt id='1604'> +5.4409433e-01 </wgt>
<wgt id='1605'> +5.4586873e-01 </wgt>
<wgt id='1606'> +5.4515985e-01 </wgt>
<wgt id='1607'> +5.4569201e-01 </wgt>
<wgt id='1608'> +5.4341692e-01 </wgt>
<wgt id='1609'> +5.4410959e-01 </wgt>
<wgt id='1610'> +5.4590336e-01 </wgt>
<wgt id='1611'> +5.4356465e-01 </wgt>
<wgt id='1612'> +5.2485359e-01 </wgt>
<wgt id='1613'> +5.2471507e-01 </wgt>
<wgt id='1614'> +5.2460119e-01 </wgt>
<wgt id='1615'> +5.2392486e-01 </wgt>
<wgt id='1616'> +5.2625763e-01 </wgt>
<wgt id='1617'> +5.2575145e-01 </wgt>
<wgt id='1618'> +5.2382924e-01 </wgt>
<wgt id='1619'> +5.2530483e-01 </wgt>
<wgt id='1620'> +5.2491746e-01 </wgt>
<wgt id='1621'> +5.2670423e-01 </wgt>
<wgt id='1622'> +5.2287584e-01 </wgt>
<wgt id='1623'> +5.2344408e-01 </wgt>
<wgt id='1624'> +5.2481239e-01 </wgt>
<wgt id='1625'> +5.2193899e-01 </wgt>
<wgt id='1626'> +5.2569077e-01 </wgt>
<wgt id='1627'> +5.2448743e-01 </wgt>
<wgt id='1628'> +5.2794675e-01 </wgt>
<wgt id='1629'> +5.2391314e-01 </wgt>
<wgt id='1630'> +5.2186021e-01 </wgt>
<wgt id='1631'> +5.2591083e-01 </wgt>
<wgt id='1632'> +5.2278773e-01 </wgt>
<wgt id='1633'> +5.2824665e-01 </wgt>
<wgt id='1634'> +5.2366851e-01 </wgt>
<wgt id='1635'> +5.2270293e-01 </wgt>
<wgt id='1636'> +5.2378309e-01 </wgt>
<wgt id='1637'> +5.2435669e-01 </wgt>
<wgt id='1638'> +5.2126868e-01 </wgt>
<wgt id='1639'> +5.2314147e-01 </wgt>
<wgt id='1640'> +5.2363066e-01 </wgt>
<wgt id='1641'> +5.2861366e-01 </wgt>
<wgt id='1642'> +5.3008222e-01 </wgt>
<wgt id='1643'> +5.2567371e-01 </wgt>
<wgt id='1644'> +5.2699690e-01 </wgt>
<wgt id='1645'> +5.2512228e-01 </wgt>
<wgt id='1646'> +5.2303407e-01 </wgt>
<wgt id='1647'> +5.2437761e-01 </wgt>
<wgt id='1648'> +5.2353321e-01 </wgt>
<wgt id='1649'> +5.2197543e-01 </wgt>
<wgt id='1650'> +5.2533444e-01 </wgt>
<wgt id='1651'> +5.2729294e-01 </wgt>
<wgt id='1652'> +5.2671580e-01 </wgt>
<wgt id='1653'> +5.2513427e-01 </wgt>
<wgt id='1654'> +5.2140523e-01 </wgt>
<wgt id='1655'> +5.2606127e-01 </wgt>
<wgt id='1656'> +5.2435376e-01 </wgt>
<wgt id='1657'> +5.2491954e-01 </wgt>
<wgt id='1658'> +5.2570468e-01 </wgt>
<wgt id='1659'> +5.2570767e-01 </wgt>
<wgt id='1660'> +5.2448619e-01 </wgt>
<wgt id='1661'> +5.2298929e-01 </wgt>
<wgt id='1662'> +5.2487613e-01 </wgt>
<wgt id='1663'> +5.2664824e-01 </wgt>
<wgt id='1664'> +5.2470716e-01 </wgt>
<wgt id='1665'> +5.2591143e-01 </wgt>
<wgt id='1666'> +5.2563315e-01 </wgt>
<wgt id='1667'> +5.2593772e-01 </wgt>
<wgt id='1668'> +5.2400237e-01 </wgt>
<wgt id='1669'> +5.2534496e-01 </wgt>
<wgt id='1670'> +5.2524687e-01 </wgt>
<wgt id='1671'> +5.2386793e-01 </wgt>
<wgt id='1672'> +5.2485678e-01 </wgt>
<wgt id='1673'> +5.2412787e-01 </wgt>
<wgt id='1674'> +5.2424896e-01 </wgt>
<wgt id='1675'> +5.2499786e-01 </wgt>
<wgt id='1676'> +5.2442526e-01 </wgt>
<wgt id='1677'> +5.2513301e-01 </wgt>
<wgt id='1678'> +5.2512733e-01 </wgt>
<wgt id='1679'> +5.2461375e-01 </wgt>
<wgt id='1680'> +5.2552970e-01 </wgt>
<wgt id='1681'> +5.2560305e-01 </wgt>
<wgt id='1682'> +5.2403687e-01 </wgt>
<wgt id='1683'> +5.2422470e-01 </wgt>
<wgt id='1684'> +5.2550065e-01 </wgt>
<wgt id='1685'> +5.2534717e-01 </wgt>
<wgt id='1686'> +5.2467681e-01 </wgt>
<wgt id='1687'> +5.2501558e-01 </wgt>
<wgt id='1688'> +5.2498914e-01 </wgt>
<wgt id='1689'> +5.2465333e-01 </wgt>
<wgt id='1690'> +5.2527509e-01 </wgt>
<wgt id='1691'> +5.2510892e-01 </wgt>
<wgt id='1692'> +5.2510021e-01 </wgt>
<wgt id='1693'> +5.2498240e-01 </wgt>
<wgt id='1694'> +5.2493463e-01 </wgt>
<wgt id='1695'> +5.2528806e-01 </wgt>
<wgt id='1696'> +5.2446265e-01 </wgt>
<wgt id='1697'> +5.2487392e-01 </wgt>
<wgt id='1698'> +5.2473006e-01 </wgt>
<wgt id='1699'> +5.2438284e-01 </wgt>
<wgt id='1700'> +5.2496853e-01 </wgt>
<wgt id='1701'> +5.2441972e-01 </wgt>
<wgt id='1702'> +5.2488671e-01 </wgt>
<wgt id='1703'> +5.2553622e-01 </wgt>
<wgt id='1704'> +5.2474237e-01 </wgt>
<wgt id='1705'> +5.2480151e-01 </wgt>
<wgt id='1706'> +5.2461456e-01 </wgt>
<wgt id='1707'> +5.2485966e-01 </wgt>
<wgt id='1708'> +5.2473694e-01 </wgt>
<wgt id='1709'> +5.2522999e-01 </wgt>
<wgt id='1710'> +5.2497152e-01 </wgt>
<wgt id='1711'> +5.2497429e-01 </wgt>
<wgt id='1712'> +5.2480664e-01 </wgt>
<wgt id='1713'> +5.1642014e-01 </wgt>
<wgt id='1714'> +5.3671632e-01 </wgt>
<wgt id='1715'> +5.5364657e-01 </wgt>
<wgt id='1716'> +5.3386376e-01 </wgt>
<wgt id='1717'> +5.7289399e-01 </wgt>
<wgt id='1718'> +5.5007289e-01 </wgt>
<wgt id='1719'> +5.4633836e-01 </wgt>
<wgt id='1720'> +5.6327193e-01 </wgt>
<wgt id='1721'> +5.8305176e-01 </wgt>
<wgt id='1722'> +5.5034621e-01 </wgt>
<wgt id='1723'> +5.3951054e-01 </wgt>
<wgt id='1724'> +5.5816926e-01 </wgt>
<wgt id='1725'> +5.5018423e-01 </wgt>
<wgt id='1726'> +5.4125744e-01 </wgt>
<wgt id='1727'> +5.5118566e-01 </wgt>
<wgt id='1728'> +5.4988545e-01 </wgt>
<wgt id='1729'> +5.4174569e-01 </wgt>
<wgt id='1730'> +5.4827811e-01 </wgt>
<wgt id='1731'> +5.5895414e-01 </wgt>
<wgt id='1732'> +5.5904572e-01 </wgt>
<wgt id='1733'> +5.4851983e-01 </wgt>
<wgt id='1734'> +5.7591344e-01 </wgt>
<wgt id='1735'> +5.4158059e-01 </wgt>
<wgt id='1736'> +5.5600266e-01 </wgt>
<wgt id='1737'> +5.4118699e-01 </wgt>
<wgt id='1738'> +5.7840248e-01 </wgt>
<wgt id='1739'> +5.7578398e-01 </wgt>
<wgt id='1740'> +5.5196777e-01 </wgt>
<wgt id='1741'> +5.5212392e-01 </wgt>
<wgt id='1742'> +5.4429740e-01 </wgt>
<wgt id='1743'> +5.5736203e-01 </wgt>
<wgt id='1744'> +5.4943774e-01 </wgt>
<wgt id='1745'> +5.6596394e-01 </wgt>
<wgt id='1746'> +5.3132902e-01 </wgt>
<wgt id='1747'> +5.4598750e-01 </wgt>
<wgt id='1748'> +5.4594449e-01 </wgt>
<wgt id='1749'> +5.2223340e-01 </wgt>
<wgt id='1750'> +5.3556622e-01 </wgt>
<wgt id='1751'> +5.7875480e-01 </wgt>
<wgt id='1752'> +5.9324395e-01 </wgt>
<wgt id='1753'> +5.4934442e-01 </wgt>
<wgt id='1754'> +5.4369202e-01 </wgt>
<wgt id='1755'> +5.3707734e-01 </wgt>
<wgt id='1756'> +5.9142510e-01 </wgt>
<wgt id='1757'> +5.6347559e-01 </wgt>
<wgt id='1758'> +5.3488293e-01 </wgt>
<wgt id='1759'> +5.4859837e-01 </wgt>
<wgt id='1760'> +5.4312635e-01 </wgt>
<wgt id='1761'> +5.5137805e-01 </wgt>
<wgt id='1762'> +5.5118566e-01 </wgt>
<wgt id='1763'> +5.8005015e-01 </wgt>
<wgt id='1764'> +5.4434880e-01 </wgt>
<wgt id='1765'> +5.5447222e-01 </wgt>
<wgt id='1766'> +5.4866870e-01 </wgt>
<wgt id='1767'> +5.4346591e-01 </wgt>
<wgt id='1768'> +5.4424300e-01 </wgt>
<wgt id='1769'> +5.4616871e-01 </wgt>
<wgt id='1770'> +5.5287255e-01 </wgt>
<wgt id='1771'> +5.5871873e-01 </wgt>
<wgt id='1772'> +5.5235482e-01 </wgt>
<wgt id='1773'> +5.5844119e-01 </wgt>
<wgt id='1774'> +5.7135006e-01 </wgt>
<wgt id='1775'> +5.6985544e-01 </wgt>
<wgt id='1776'> +5.5398366e-01 </wgt>
<wgt id='1777'> +5.4805350e-01 </wgt>
<wgt id='1778'> +5.5540014e-01 </wgt>
<wgt id='1779'> +5.6093922e-01 </wgt>
<wgt id='1780'> +5.7526820e-01 </wgt>
<wgt id='1781'> +5.5263696e-01 </wgt>
<wgt id='1782'> +5.7659202e-01 </wgt>
<wgt id='1783'> +5.5978307e-01 </wgt>
<wgt id='1784'> +5.5043128e-01 </wgt>
<wgt id='1785'> +5.5704850e-01 </wgt>
<wgt id='1786'> +5.5446564e-01 </wgt>
<wgt id='1787'> +5.4369631e-01 </wgt>
<wgt id='1788'> +5.4867061e-01 </wgt>
<wgt id='1789'> +5.5575244e-01 </wgt>
<wgt id='1790'> +5.5605691e-01 </wgt>
<wgt id='1791'> +5.6182079e-01 </wgt>
<wgt id='1792'> +5.6583678e-01 </wgt>
<wgt id='1793'> +5.6325413e-01 </wgt>
<wgt id='1794'> +5.6166238e-01 </wgt>
<wgt id='1795'> +5.5803227e-01 </wgt>
<wgt id='1796'> +5.4904370e-01 </wgt>
<wgt id='1797'> +5.4760153e-01 </wgt>
<wgt id='1798'> +5.8402923e-01 </wgt>
<wgt id='1799'> +5.5140436e-01 </wgt>
<wgt id='1800'> +5.5706815e-01 </wgt>
<wgt id='1801'> +5.4897940e-01 </wgt>
<wgt id='1802'> +5.4925751e-01 </wgt>
<wgt id='1803'> +5.4470159e-01 </wgt>
<wgt id='1804'> +5.4960518e-01 </wgt>
<wgt id='1805'> +5.5145861e-01 </wgt>
<wgt id='1806'> +5.6748086e-01 </wgt>
<wgt id='1807'> +5.5697653e-01 </wgt>
<wgt id='1808'> +5.2862204e-01 </wgt>
<wgt id='1809'> +5.6668656e-01 </wgt>
<wgt id='1810'> +5.4573578e-01 </wgt>
<wgt id='1811'> +5.3388391e-01 </wgt>
<wgt id='1812'> +5.3655352e-01 </wgt>
<wgt id='1813'> +5.4096883e-01 </wgt>
<wgt id='1814'> +5.3298257e-01 </wgt>
<wgt id='1815'> +5.3305465e-01 </wgt>
<wgt id='1816'> +5.3543809e-01 </wgt>
<wgt id='1817'> +5.4085408e-01 </wgt>
<wgt id='1818'> +5.5030266e-01 </wgt>
<wgt id='1819'> +5.3818036e-01 </wgt>
<wgt id='1820'> +5.1408690e-01 </wgt>
<wgt id='1821'> +5.4914023e-01 </wgt>
<wgt id='1822'> +5.2003977e-01 </wgt>
<wgt id='1823'> +5.3905758e-01 </wgt>
<wgt id='1824'> +5.3341017e-01 </wgt>
<wgt id='1825'> +5.1466834e-01 </wgt>
<wgt id='1826'> +5.4975677e-01 </wgt>
<wgt id='1827'> +5.6330999e-01 </wgt>
<wgt id='1828'> +5.2358587e-01 </wgt>
<wgt id='1829'> +5.3802702e-01 </wgt>
<wgt id='1830'> +5.6470968e-01 </wgt>
<wgt id='1831'> +5.3924035e-01 </wgt>
<wgt id='1832'> +5.3198268e-01 </wgt>
<wgt id='1833'> +5.6446936e-01 </wgt>
<wgt id='1834'> +5.3745211e-01 </wgt>
<wgt id='1835'> +5.3089470e-01 </wgt>
<wgt id='1836'> +5.2343273e-01 </wgt>
<wgt id='1837'> +5.2125165e-01 </wgt>
<wgt id='1838'> +5.3268429e-01 </wgt>
<wgt id='1839'> +5.2888234e-01 </wgt>
<wgt id='1840'> +5.2561045e-01 </wgt>
<wgt id='1841'> +5.3813145e-01 </wgt>
<wgt id='1842'> +5.0712849e-01 </wgt>
<wgt id='1843'> +5.5516027e-01 </wgt>
<wgt id='1844'> +5.5967021e-01 </wgt>
<wgt id='1845'> +5.4135598e-01 </wgt>
<wgt id='1846'> +5.1553433e-01 </wgt>
<wgt id='1847'> +5.2634086e-01 </wgt>
<wgt id='1848'> +5.2822393e-01 </wgt>
<wgt id='1849'> +5.3241022e-01 </wgt>
<wgt id='1850'> +5.0353564e-01 </wgt>
<wgt id='1851'> +5.3135893e-01 </wgt>
<wgt id='1852'> +5.3500726e-01 </wgt>
<wgt id='1853'> +5.3303045e-01 </wgt>
<wgt id='1854'> +5.3877493e-01 </wgt>
<wgt id='1855'> +5.3308931e-01 </wgt>
<wgt id='1856'> +5.2897643e-01 </wgt>
<wgt id='1857'> +5.4195001e-01 </wgt>
<wgt id='1858'> +5.2676880e-01 </wgt>
<wgt id='1859'> +5.1876001e-01 </wgt>
<wgt id='1860'> +5.2192487e-01 </wgt>
<wgt id='1861'> +5.4883266e-01 </wgt>
<wgt id='1862'> +5.2561091e-01 </wgt>
<wgt id='1863'> +5.3906255e-01 </wgt>
<wgt id='1864'> +5.3980907e-01 </wgt>
<wgt id='1865'> +5.4427676e-01 </wgt>
<wgt id='1866'> +5.4373203e-01 </wgt>
<wgt id='1867'> +5.3723827e-01 </wgt>
<wgt id='1868'> +5.3592106e-01 </wgt>
<wgt id='1869'> +5.1709941e-01 </wgt>
<wgt id='1870'> +5.3579212e-01 </wgt>
<wgt id='1871'> +5.3769812e-01 </wgt>
<wgt id='1872'> +5.5167924e-01 </wgt>
<wgt id='1873'> +5.2960063e-01 </wgt>
<wgt id='1874'> +5.4664988e-01 </wgt>
<wgt id='1875'> +5.3589240e-01 </wgt>
<wgt id='1876'> +5.3582058e-01 </wgt>
<wgt id='1877'> +5.3370699e-01 </wgt>
<wgt id='1878'> +5.4189663e-01 </wgt>
<wgt id='1879'> +5.3142903e-01 </wgt>
<wgt id='1880'> +5.4874970e-01 </wgt>
<wgt id='1881'> +5.0336166e-01 </wgt>
<wgt id='1882'> +5.3357761e-01 </wgt>
<wgt id='1883'> +5.4162039e-01 </wgt>
<wgt id='1884'> +5.2930199e-01 </wgt>
<wgt id='1885'> +5.4275040e-01 </wgt>
<wgt id='1886'> +5.3073387e-01 </wgt>
<wgt id='1887'> +5.3381722e-01 </wgt>
<wgt id='1888'> +5.2767862e-01 </wgt>
<wgt id='1889'> +5.6241221e-01 </wgt>
<wgt id='1890'> +5.2184763e-01 </wgt>
<wgt id='1891'> +5.6073823e-01 </wgt>
<wgt id='1892'> +5.2562710e-01 </wgt>
<wgt id='1893'> +5.2130390e-01 </wgt>
<wgt id='1894'> +5.1837961e-01 </wgt>
<wgt id='1895'> +5.4121186e-01 </wgt>
<wgt id='1896'> +5.3117726e-01 </wgt>
<wgt id='1897'> +5.2988898e-01 </wgt>
<wgt id='1898'> +5.4441786e-01 </wgt>
<wgt id='1899'> +5.1600257e-01 </wgt>
<wgt id='1900'> +5.4730804e-01 </wgt>
<wgt id='1901'> +5.5845810e-01 </wgt>
<wgt id='1902'> +5.5072716e-01 </wgt>
<wgt id='1903'> +5.5298857e-01 </wgt>
<wgt id='1904'> +5.4457360e-01 </wgt>
<wgt id='1905'> +5.2244244e-01 </wgt>
<wgt id='1906'> +5.4241194e-01 </wgt>
<wgt id='1907'> +5.3192765e-01 </wgt>
<wgt id='1908'> +5.1725981e-01 </wgt>
<wgt id='1909'> +5.4128320e-01 </wgt>
<wgt id='1910'> +5.4092366e-01 </wgt>
<wgt id='1911'> +5.6400168e-01 </wgt>
<wgt id='1912'> +5.1924492e-01 </wgt>
<wgt id='1913'> +5.3688011e-01 </wgt>
<wgt id='1914'> +5.2377797e-01 </wgt>
<wgt id='1915'> +5.3096624e-01 </wgt>
<wgt id='1916'> +5.4683917e-01 </wgt>
<wgt id='1917'> +5.3344750e-01 </wgt>
<wgt id='1918'> +5.3802285e-01 </wgt>
<wgt id='1919'> +5.3543809e-01 </wgt>
<wgt id='1920'> +5.4085408e-01 </wgt>
<wgt id='1921'> +5.5030266e-01 </wgt>
<wgt id='1922'> +5.3818036e-01 </wgt>
<wgt id='1923'> +5.1408690e-01 </wgt>
<wgt id='1924'> +5.4914023e-01 </wgt>
<wgt id='1925'> +5.2003977e-01 </wgt>
<wgt id='1926'> +5.3905758e-01 </wgt>
<wgt id='1927'> +5.3341017e-01 </wgt>
<wgt id='1928'> +5.1466834e-01 </wgt>
<wgt id='1929'> +5.4975677e-01 </wgt>
<wgt id='1930'> +5.6330999e-01 </wgt>
<wgt id='1931'> +5.2358587e-01 </wgt>
<wgt id='1932'> +5.3802702e-01 </wgt>
<wgt id='1933'> +5.6470968e-01 </wgt>
<wgt id='1934'> +5.3924035e-01 </wgt>
<wgt id='1935'> +5.3198268e-01 </wgt>
<wgt id='1936'> +5.6446936e-01 </wgt>
<wgt id='1937'> +5.3745211e-01 </wgt>
<wgt id='1938'> +5.3089470e-01 </wgt>
<wgt id='1939'> +5.2343273e-01 </wgt>
<wgt id='1940'> +5.2125165e-01 </wgt>
<wgt id='1941'> +5.3268429e-01 </wgt>
<wgt id='1942'> +5.2888234e-01 </wgt>
<wgt id='1943'> +5.2561045e-01 </wgt>
<wgt id='1944'> +5.3813145e-01 </wgt>
<wgt id='1945'> +5.0712849e-01 </wgt>
<wgt id='1946'> +5.5516027e-01 </wgt>
<wgt id='1947'> +5.5967021e-01 </wgt>
<wgt id='1948'> +5.4135598e-01 </wgt>
<wgt id='1949'> +5.1553433e-01 </wgt>
<wgt id='1950'> +5.2634086e-01 </wgt>
<wgt id='1951'> +5.2822393e-01 </wgt>
<wgt id='1952'> +5.3241022e-01 </wgt>
<wgt id='1953'> +5.0353564e-01 </wgt>
<wgt id='1954'> +5.3135893e-01 </wgt>
<wgt id='1955'> +5.3500726e-01 </wgt>
<wgt id='1956'> +5.3303045e-01 </wgt>
<wgt id='1957'> +5.3877493e-01 </wgt>
<wgt id='1958'> +5.3308931e-01 </wgt>
<wgt id='1959'> +5.2897643e-01 </wgt>
<wgt id='1960'> +5.4195001e-01 </wgt>
<wgt id='1961'> +5.2676880e-01 </wgt>
<wgt id='1962'> +5.1876001e-01 </wgt>
<wgt id='1963'> +5.2192487e-01 </wgt>
<wgt id='1964'> +5.4883266e-01 </wgt>
<wgt id='1965'> +5.2561091e-01 </wgt>
<wgt id='1966'> +5.3906255e-01 </wgt>
<wgt id='1967'> +5.3980907e-01 </wgt>
<wgt id='1968'> +5.4427676e-01 </wgt>
<wgt id='1969'> +5.4373203e-01 </wgt>
<wgt id='1970'> +5.3723827e-01 </wgt>
<wgt id='1971'> +5.3592106e-01 </wgt>
<wgt id='1972'> +5.1709941e-01 </wgt>
<wgt id='1973'> +5.3579212e-01 </wgt>
<wgt id='1974'> +5.3769812e-01 </wgt>
<wgt id='1975'> +5.5167924e-01 </wgt>
<wgt id='1976'> +5.2960063e-01 </wgt>
<wgt id='1977'> +5.4664988e-01 </wgt>
<wgt id='1978'> +5.3589240e-01 </wgt>
<wgt id='1979'> +5.3582058e-01 </wgt>
<wgt id='1980'> +5.3370699e-01 </wgt>
<wgt id='1981'> +5.4189663e-01 </wgt>
<wgt id='1982'> +5.3142903e-01 </wgt>
<wgt id='1983'> +5.4874970e-01 </wgt>
<wgt id='1984'> +5.0336166e-01 </wgt>
<wgt id='1985'> +5.3357761e-01 </wgt>
<wgt id='1986'> +5.4162039e-01 </wgt>
<wgt id='1987'> +5.2930199e-01 </wgt>
<wgt id='1988'> +5.4275040e-01 </wgt>
<wgt id='1989'> +5.3073387e-01 </wgt>
<wgt id='1990'> +5.3381722e-01 </wgt>
<wgt id='1991'> +5.2767862e-01 </wgt>
<wgt id='1992'> +5.6241221e-01 </wgt>
<wgt id='1993'> +5.2184763e-01 </wgt>
<wgt id='1994'> +5.6073823e-01 </wgt>
<wgt id='1995'> +5.2562710e-01 </wgt>
<wgt id='1996'> +5.2130390e-01 </wgt>
<wgt id='1997'> +5.1837961e-01 </wgt>
<wgt id='1998'> +5.4121186e-01 </wgt>
<wgt id='1999'> +5.3117726e-01 </wgt>
<wgt id='2000'> +5.2988898e-01 </wgt>
<wgt id='2001'> +5.4441786e-01 </wgt>
<wgt id='2002'> +5.1600257e-01 </wgt>
<wgt id='2003'> +5.4730804e-01 </wgt>
<wgt id='2004'> +5.5845810e-01 </wgt>
<wgt id='2005'> +5.5072716e-01 </wgt>
<wgt id='2006'> +5.5298857e-01 </wgt>
<wgt id='2007'> +5.4457360e-01 </wgt>
<wgt id='2008'> +5.2244244e-01 </wgt>
<wgt id='2009'> +5.4241194e-01 </wgt>
<wgt id='2010'> +5.3192765e-01 </wgt>
<wgt id='2011'> +5.1725981e-01 </wgt>
<wgt id='2012'> +5.4128320e-01 </wgt>
<wgt id='2013'> +5.4092366e-01 </wgt>
<wgt id='2014'> +5.6400168e-01 </wgt>
<wgt id='2015'> +5.1924492e-01 </wgt>
<wgt id='2016'> +5.3688011e-01 </wgt>
<wgt id='2017'> +5.2377797e-01 </wgt>
<wgt id='2018'> +5.3096624e-01 </wgt>
<wgt id='2019'> +5.4683917e-01 </wgt>
<wgt id='2020'> +5.3062367e-01 </wgt>
<wgt id='2021'> +5.3915284e-01 </wgt>
<wgt id='2022'> +5.3183867e-01 </wgt>
</rwgt>
</event>
<event>
 13 2 0.0079112 3.42089200e+02 7.81860800e-03 1.15543300e-01
       21 -1    0    0  502  503 +0.0000000000e+00 +0.0000000000e+00 +2.2133070468e+02 2.2133070468e+02 0.0000000000e+00 0.0000e+00 1.0000e+00
        1 -1    0    0  501    0 +0.0000000000e+00 +0.0000000000e+00 -9.3847095434e+02 9.3847095435e+02 5.0400000000e-03 0.0000e+00 -1.0000e+00
 -8000001  2    1    2    0  503 +1.5050408064e+02 -1.2135990696e+02 -4.4371074579e+02 7.7088127220e+02 5.9999917049e+02 0.0000e+00 0.0000e+00
        2  1    1    2  501    0 +2.1792036201e+00 +1.7605454988e+01 -1.8200664317e+02 1.8286913118e+02 2.5500000000e-03 0.0000e+00 -1.0000e+00
        5  1    1    2  502    0 -1.5268328426e+02 +1.0375445197e+02 -9.1422860695e+01 2.0605125565e+02 4.6700000000e+00 0.0000e+00 -1.0000e+00
       -6  2    3    3    0  503 +3.2861767964e+02 +2.1081366961e+01 -3.4057805249e+02 5.0406747578e+02 1.7221093722e+02 0.0000e+00 0.0000e+00
       -5  1    6    6    0  503 +1.4438860468e+02 +4.1733401020e+01 -2.2635098936e+02 2.7174680349e+02 4.6700000000e+00 0.0000e+00 1.0000e+00
      -24  2    6    6    0    0 +1.8422907496e+02 -2.0652034060e+01 -1.1422706313e+02 2.3232067229e+02 8.0982802195e+01 0.0000e+00 0.0000e+00
        3  1    8    8  504    0 +2.1723751775e+01 +8.6593449713e+00 +1.0243959978e+01 2.5531442645e+01 1.0100000000e-01 0.0000e+00 -1.0000e+00
       -4  1    8    8    0  504 +1.6250532319e+02 -2.9311379031e+01 -1.2447102311e+02 2.0678922965e+02 1.2700000000e+00 0.0000e+00 1.0000e+00
       23  2    3    3    0    0 -1.7811359899e+02 -1.4244127392e+02 -1.0313269330e+02 2.6681379642e+02 9.2408218622e+01 0.0000e+00 0.0000e+00
       16  1   11   11    0    0 -7.7015954452e+01 -1.4588814711e+01 -9.8168807481e+00 7.8997860113e+01 0.0000000000e+00 0.0000e+00 -1.0000e+00
      -16  1   11   11    0    0 -1.0109764454e+02 -1.2785245921e+02 -9.3315812556e+01 1.8781593631e+02 0.0000000000e+00 0.0000e+00 1.0000e+00
<mgrwt>
<rscale>  1 0.77901210e+02</rscale>
<asrwt>0</asrwt>
<pdfrwt beam="1">  1       21 0.34050877e-01 0.34208920e+03</pdfrwt>
<pdfrwt beam="2">  1        1 0.14438015e+00 0.17739813e+02</pdfrwt>
<totfact> 0.21806549e+03</totfact>
</mgrwt>
<rwgt>
<wgt id='1001'> +5.2878984e-01 </wgt>
<wgt id='1002'> +2.9987604e-01 </wgt>
<wgt id='1003'> +2.9987122e-01 </wgt>
<wgt id='1004'> +3.4536843e-01 </wgt>
<wgt id='1005'> +2.9101293e-01 </wgt>
<wgt id='1006'> +4.7537411e-01 </wgt>
<wgt id='1007'> +2.7748778e-01 </wgt>
<wgt id='1008'> +2.7748352e-01 </wgt>
<wgt id='1009'> +3.1740355e-01 </wgt>
<wgt id='1010'> +2.6965284e-01 </wgt>
<wgt id='1011'> +5.9626565e-01 </wgt>
<wgt id='1012'> +3.2629694e-01 </wgt>
<wgt id='1013'> +3.2629141e-01 </wgt>
<wgt id='1014'> +3.7889331e-01 </wgt>
<wgt id='1015'> +3.1614253e-01 </wgt>
<wgt id='1016'> +4.9242954e-01 </wgt>
<wgt id='1017'> +2.8374126e-01 </wgt>
<wgt id='1018'> +2.8373675e-01 </wgt>
<wgt id='1019'> +3.2629141e-01 </wgt>
<wgt id='1020'> +2.7548079e-01 </wgt>
<wgt id='1021'> +4.4268675e-01 </wgt>
<wgt id='1022'> +2.6255759e-01 </wgt>
<wgt id='1023'> +2.6255362e-01 </wgt>
<wgt id='1024'> +2.9987122e-01 </wgt>
<wgt id='1025'> +2.5526074e-01 </wgt>
<wgt id='1026'> +5.5526563e-01 </wgt>
<wgt id='1027'> +3.0874059e-01 </wgt>
<wgt id='1028'> +3.0873541e-01 </wgt>
<wgt id='1029'> +3.5796448e-01 </wgt>
<wgt id='1030'> +2.9926916e-01 </wgt>
<wgt id='1031'> +5.7027388e-01 </wgt>
<wgt id='1032'> +3.1740872e-01 </wgt>
<wgt id='1033'> +3.1740355e-01 </wgt>
<wgt id='1034'> +3.6604550e-01 </wgt>
<wgt id='1035'> +3.0793391e-01 </wgt>
<wgt id='1036'> +5.1266763e-01 </wgt>
<wgt id='1037'> +2.9371150e-01 </wgt>
<wgt id='1038'> +2.9370693e-01 </wgt>
<wgt id='1039'> +3.3640638e-01 </wgt>
<wgt id='1040'> +2.8533183e-01 </wgt>
<wgt id='1041'> +6.4304323e-01 </wgt>
<wgt id='1042'> +3.4537435e-01 </wgt>
<wgt id='1043'> +3.4536843e-01 </wgt>
<wgt id='1044'> +4.0157750e-01 </wgt>
<wgt id='1045'> +3.3452467e-01 </wgt>
<wgt id='1046'> +5.2878984e-01 </wgt>
<wgt id='1047'> +5.2878984e-01 </wgt>
<wgt id='1048'> +5.2878984e-01 </wgt>
<wgt id='1049'> +5.3051996e-01 </wgt>
<wgt id='1050'> +5.2899463e-01 </wgt>
<wgt id='1051'> +5.2921508e-01 </wgt>
<wgt id='1052'> +5.2843199e-01 </wgt>
<wgt id='1053'> +5.3013327e-01 </wgt>
<wgt id='1054'> +5.2851679e-01 </wgt>
<wgt id='1055'> +5.2630420e-01 </wgt>
<wgt id='1056'> +5.2817939e-01 </wgt>
<wgt id='1057'> +5.2725241e-01 </wgt>
<wgt id='1058'> +5.2872325e-01 </wgt>
<wgt id='1059'> +5.2761011e-01 </wgt>
<wgt id='1060'> +5.2933466e-01 </wgt>
<wgt id='1061'> +5.2932013e-01 </wgt>
<wgt id='1062'> +5.3012403e-01 </wgt>
<wgt id='1063'> +5.2901850e-01 </wgt>
<wgt id='1064'> +5.2826753e-01 </wgt>
<wgt id='1065'> +5.3016834e-01 </wgt>
<wgt id='1066'> +5.2626328e-01 </wgt>
<wgt id='1067'> +5.3252968e-01 </wgt>
<wgt id='1068'> +5.2854982e-01 </wgt>
<wgt id='1069'> +5.2849709e-01 </wgt>
<wgt id='1070'> +5.2749145e-01 </wgt>
<wgt id='1071'> +5.2734710e-01 </wgt>
<wgt id='1072'> +5.3048321e-01 </wgt>
<wgt id='1073'> +5.2820691e-01 </wgt>
<wgt id='1074'> +5.2970314e-01 </wgt>
<wgt id='1075'> +5.2782570e-01 </wgt>
<wgt id='1076'> +5.2957232e-01 </wgt>
<wgt id='1077'> +5.3211349e-01 </wgt>
<wgt id='1078'> +5.2735556e-01 </wgt>
<wgt id='1079'> +5.3330101e-01 </wgt>
<wgt id='1080'> +5.2990981e-01 </wgt>
<wgt id='1081'> +5.3113206e-01 </wgt>
<wgt id='1082'> +5.3040382e-01 </wgt>
<wgt id='1083'> +5.2738381e-01 </wgt>
<wgt id='1084'> +5.2569099e-01 </wgt>
<wgt id='1085'> +5.3155267e-01 </wgt>
<wgt id='1086'> +5.2728078e-01 </wgt>
<wgt id='1087'> +5.2762314e-01 </wgt>
<wgt id='1088'> +5.2872863e-01 </wgt>
<wgt id='1089'> +5.2919168e-01 </wgt>
<wgt id='1090'> +5.3002435e-01 </wgt>
<wgt id='1091'> +5.2800032e-01 </wgt>
<wgt id='1092'> +5.2780751e-01 </wgt>
<wgt id='1093'> +5.3025109e-01 </wgt>
<wgt id='1094'> +5.2850843e-01 </wgt>
<wgt id='1095'> +5.2832811e-01 </wgt>
<wgt id='1096'> +5.2762407e-01 </wgt>
<wgt id='1097'> +5.2728438e-01 </wgt>
<wgt id='1098'> +5.2730432e-01 </wgt>
<wgt id='1099'> +5.2815071e-01 </wgt>
<wgt id='1100'> +5.2820328e-01 </wgt>
<wgt id='1101'> +5.2942954e-01 </wgt>
<wgt id='1102'> +5.2966991e-01 </wgt>
<wgt id='1103'> +5.3121268e-01 </wgt>
<wgt id='1104'> +5.2760605e-01 </wgt>
<wgt id='1105'> +5.2877344e-01 </wgt>
<wgt id='1106'> +5.3056247e-01 </wgt>
<wgt id='1107'> +5.2840219e-01 </wgt>
<wgt id='1108'> +5.2866268e-01 </wgt>
<wgt id='1109'> +5.3074878e-01 </wgt>
<wgt id='1110'> +5.3007112e-01 </wgt>
<wgt id='1111'> +5.2852356e-01 </wgt>
<wgt id='1112'> +5.2860889e-01 </wgt>
<wgt id='1113'> +5.2930102e-01 </wgt>
<wgt id='1114'> +5.2861661e-01 </wgt>
<wgt id='1115'> +5.2877495e-01 </wgt>
<wgt id='1116'> +5.2972125e-01 </wgt>
<wgt id='1117'> +5.2872627e-01 </wgt>
<wgt id='1118'> +5.2899939e-01 </wgt>
<wgt id='1119'> +5.2903233e-01 </wgt>
<wgt id='1120'> +5.2843815e-01 </wgt>
<wgt id='1121'> +5.2914796e-01 </wgt>
<wgt id='1122'> +5.2847962e-01 </wgt>
<wgt id='1123'> +5.2817794e-01 </wgt>
<wgt id='1124'> +5.2817601e-01 </wgt>
<wgt id='1125'> +5.2959866e-01 </wgt>
<wgt id='1126'> +5.2830070e-01 </wgt>
<wgt id='1127'> +5.2814031e-01 </wgt>
<wgt id='1128'> +5.2931470e-01 </wgt>
<wgt id='1129'> +5.2879927e-01 </wgt>
<wgt id='1130'> +5.2905578e-01 </wgt>
<wgt id='1131'> +5.2982735e-01 </wgt>
<wgt id='1132'> +5.2874032e-01 </wgt>
<wgt id='1133'> +5.2885479e-01 </wgt>
<wgt id='1134'> +5.2850849e-01 </wgt>
<wgt id='1135'> +5.2944012e-01 </wgt>
<wgt id='1136'> +5.2902921e-01 </wgt>
<wgt id='1137'> +5.2902039e-01 </wgt>
<wgt id='1138'> +5.2910715e-01 </wgt>
<wgt id='1139'> +5.2900424e-01 </wgt>
<wgt id='1140'> +5.2924239e-01 </wgt>
<wgt id='1141'> +5.2875178e-01 </wgt>
<wgt id='1142'> +5.2938737e-01 </wgt>
<wgt id='1143'> +5.2877312e-01 </wgt>
<wgt id='1144'> +5.2868014e-01 </wgt>
<wgt id='1145'> +5.2872486e-01 </wgt>
<wgt id='1146'> +5.2864451e-01 </wgt>
<wgt id='1147'> +5.2909970e-01 </wgt>
<wgt id='1148'> +5.2878984e-01 </wgt>
<wgt id='1149'> +5.2420872e-01 </wgt>
<wgt id='1150'> +5.2501811e-01 </wgt>
<wgt id='1151'> +5.2933926e-01 </wgt>
<wgt id='1152'> +5.3082188e-01 </wgt>
<wgt id='1153'> +5.1431032e-01 </wgt>
<wgt id='1154'> +5.2743349e-01 </wgt>
<wgt id='1155'> +5.3701097e-01 </wgt>
<wgt id='1156'> +5.2649970e-01 </wgt>
<wgt id='1157'> +5.2388284e-01 </wgt>
<wgt id='1158'> +5.4434069e-01 </wgt>
<wgt id='1159'> +4.9242488e-01 </wgt>
<wgt id='1160'> +5.1482712e-01 </wgt>
<wgt id='1161'> +5.2502087e-01 </wgt>
<wgt id='1162'> +5.0844426e-01 </wgt>
<wgt id='1163'> +5.2182125e-01 </wgt>
<wgt id='1164'> +5.3827291e-01 </wgt>
<wgt id='1165'> +5.2218903e-01 </wgt>
<wgt id='1166'> +5.2262531e-01 </wgt>
<wgt id='1167'> +5.3338892e-01 </wgt>
<wgt id='1168'> +5.2117768e-01 </wgt>
<wgt id='1169'> +5.1961352e-01 </wgt>
<wgt id='1170'> +5.3563069e-01 </wgt>
<wgt id='1171'> +5.3642153e-01 </wgt>
<wgt id='1172'> +5.2722615e-01 </wgt>
<wgt id='1173'> +5.1257788e-01 </wgt>
<wgt id='1174'> +5.3130789e-01 </wgt>
<wgt id='1175'> +5.2659121e-01 </wgt>
<wgt id='1176'> +4.9303585e-01 </wgt>
<wgt id='1177'> +5.3740015e-01 </wgt>
<wgt id='1178'> +5.1263421e-01 </wgt>
<wgt id='1179'> +5.2716998e-01 </wgt>
<wgt id='1180'> +5.3575698e-01 </wgt>
<wgt id='1181'> +5.3374046e-01 </wgt>
<wgt id='1182'> +5.4447178e-01 </wgt>
<wgt id='1183'> +5.2258774e-01 </wgt>
<wgt id='1184'> +5.2507656e-01 </wgt>
<wgt id='1185'> +5.3763671e-01 </wgt>
<wgt id='1186'> +5.2452622e-01 </wgt>
<wgt id='1187'> +5.1765302e-01 </wgt>
<wgt id='1188'> +5.2162129e-01 </wgt>
<wgt id='1189'> +5.2400763e-01 </wgt>
<wgt id='1190'> +5.2345983e-01 </wgt>
<wgt id='1191'> +5.3006384e-01 </wgt>
<wgt id='1192'> +5.2253695e-01 </wgt>
<wgt id='1193'> +5.1657896e-01 </wgt>
<wgt id='1194'> +5.0292328e-01 </wgt>
<wgt id='1195'> +5.2795603e-01 </wgt>
<wgt id='1196'> +5.3409656e-01 </wgt>
<wgt id='1197'> +5.1249633e-01 </wgt>
<wgt id='1198'> +5.3969255e-01 </wgt>
<wgt id='1199'> +5.2608749e-01 </wgt>
<wgt id='1200'> +5.2515682e-01 </wgt>
<wgt id='1201'> +5.3304243e-01 </wgt>
<wgt id='1202'> +5.2550542e-01 </wgt>
<wgt id='1203'> +5.3297878e-01 </wgt>
<wgt id='1204'> +5.1974150e-01 </wgt>
<wgt id='1205'> +5.2145216e-01 </wgt>
<wgt id='1206'> +5.3186091e-01 </wgt>
<wgt id='1207'> +5.4326258e-01 </wgt>
<wgt id='1208'> +5.2045098e-01 </wgt>
<wgt id='1209'> +5.3793269e-01 </wgt>
<wgt id='1210'> +5.2907095e-01 </wgt>
<wgt id='1211'> +5.3262261e-01 </wgt>
<wgt id='1212'> +5.1196780e-01 </wgt>
<wgt id='1213'> +5.2546472e-01 </wgt>
<wgt id='1214'> +5.2491447e-01 </wgt>
<wgt id='1215'> +5.0870535e-01 </wgt>
<wgt id='1216'> +5.1565764e-01 </wgt>
<wgt id='1217'> +5.3055335e-01 </wgt>
<wgt id='1218'> +5.2175076e-01 </wgt>
<wgt id='1219'> +5.2145276e-01 </wgt>
<wgt id='1220'> +5.4085826e-01 </wgt>
<wgt id='1221'> +5.0201702e-01 </wgt>
<wgt id='1222'> +5.2422120e-01 </wgt>
<wgt id='1223'> +5.1499303e-01 </wgt>
<wgt id='1224'> +5.1979453e-01 </wgt>
<wgt id='1225'> +5.2471460e-01 </wgt>
<wgt id='1226'> +5.2291106e-01 </wgt>
<wgt id='1227'> +5.4484573e-01 </wgt>
<wgt id='1228'> +5.3754313e-01 </wgt>
<wgt id='1229'> +5.1121409e-01 </wgt>
<wgt id='1230'> +5.2517338e-01 </wgt>
<wgt id='1231'> +5.2218903e-01 </wgt>
<wgt id='1232'> +4.8306873e-01 </wgt>
<wgt id='1233'> +5.2108808e-01 </wgt>
<wgt id='1234'> +5.4287106e-01 </wgt>
<wgt id='1235'> +5.2743914e-01 </wgt>
<wgt id='1236'> +5.3641746e-01 </wgt>
<wgt id='1237'> +5.2389571e-01 </wgt>
<wgt id='1238'> +4.7716041e-01 </wgt>
<wgt id='1239'> +5.3642515e-01 </wgt>
<wgt id='1240'> +5.3488613e-01 </wgt>
<wgt id='1241'> +5.2084248e-01 </wgt>
<wgt id='1242'> +5.1350740e-01 </wgt>
<wgt id='1243'> +5.2048712e-01 </wgt>
<wgt id='1244'> +5.2356907e-01 </wgt>
<wgt id='1245'> +5.3482625e-01 </wgt>
<wgt id='1246'> +5.0721205e-01 </wgt>
<wgt id='1247'> +5.1770688e-01 </wgt>
<wgt id='1248'> +5.2538260e-01 </wgt>
<wgt id='1249'> +5.2674044e-01 </wgt>
<wgt id='1250'> +5.1077495e-01 </wgt>
<wgt id='1251'> +5.0629987e-01 </wgt>
<wgt id='1252'> +5.1252505e-01 </wgt>
<wgt id='1253'> +5.1368688e-01 </wgt>
<wgt id='1254'> +4.5347933e-01 </wgt>
<wgt id='1255'> +5.1094263e-01 </wgt>
<wgt id='1256'> +5.1041021e-01 </wgt>
<wgt id='1257'> +5.1124772e-01 </wgt>
<wgt id='1258'> +5.1301998e-01 </wgt>
<wgt id='1259'> +5.0988763e-01 </wgt>
<wgt id='1260'> +5.1079114e-01 </wgt>
<wgt id='1261'> +5.1116368e-01 </wgt>
<wgt id='1262'> +5.1103557e-01 </wgt>
<wgt id='1263'> +5.1089454e-01 </wgt>
<wgt id='1264'> +5.1645324e-01 </wgt>
<wgt id='1265'> +5.0712387e-01 </wgt>
<wgt id='1266'> +5.1074283e-01 </wgt>
<wgt id='1267'> +5.1113821e-01 </wgt>
<wgt id='1268'> +5.1325466e-01 </wgt>
<wgt id='1269'> +5.0861032e-01 </wgt>
<wgt id='1270'> +5.0948181e-01 </wgt>
<wgt id='1271'> +5.1201804e-01 </wgt>
<wgt id='1272'> +5.1507207e-01 </wgt>
<wgt id='1273'> +5.0726029e-01 </wgt>
<wgt id='1274'> +5.0913726e-01 </wgt>
<wgt id='1275'> +5.1299633e-01 </wgt>
<wgt id='1276'> +5.1078070e-01 </wgt>
<wgt id='1277'> +5.1074917e-01 </wgt>
<wgt id='1278'> +5.0607154e-01 </wgt>
<wgt id='1279'> +5.1473196e-01 </wgt>
<wgt id='1280'> +5.1123265e-01 </wgt>
<wgt id='1281'> +5.0852320e-01 </wgt>
<wgt id='1282'> +5.1311554e-01 </wgt>
<wgt id='1283'> +5.0715990e-01 </wgt>
<wgt id='1284'> +5.0828553e-01 </wgt>
<wgt id='1285'> +5.1070139e-01 </wgt>
<wgt id='1286'> +5.0922897e-01 </wgt>
<wgt id='1287'> +5.1097298e-01 </wgt>
<wgt id='1288'> +5.1047279e-01 </wgt>
<wgt id='1289'> +5.1087521e-01 </wgt>
<wgt id='1290'> +5.1227536e-01 </wgt>
<wgt id='1291'> +5.1046482e-01 </wgt>
<wgt id='1292'> +5.1267828e-01 </wgt>
<wgt id='1293'> +5.0808466e-01 </wgt>
<wgt id='1294'> +5.0861466e-01 </wgt>
<wgt id='1295'> +5.1086484e-01 </wgt>
<wgt id='1296'> +5.1831959e-01 </wgt>
<wgt id='1297'> +5.1947288e-01 </wgt>
<wgt id='1298'> +5.1737841e-01 </wgt>
<wgt id='1299'> +5.1942194e-01 </wgt>
<wgt id='1300'> +5.1708878e-01 </wgt>
<wgt id='1301'> +5.1794859e-01 </wgt>
<wgt id='1302'> +5.1885430e-01 </wgt>
<wgt id='1303'> +5.2089756e-01 </wgt>
<wgt id='1304'> +5.1658892e-01 </wgt>
<wgt id='1305'> +5.1845941e-01 </wgt>
<wgt id='1306'> +5.1814262e-01 </wgt>
<wgt id='1307'> +5.1913093e-01 </wgt>
<wgt id='1308'> +5.1781231e-01 </wgt>
<wgt id='1309'> +5.1481008e-01 </wgt>
<wgt id='1310'> +5.2305743e-01 </wgt>
<wgt id='1311'> +5.1954493e-01 </wgt>
<wgt id='1312'> +5.1788637e-01 </wgt>
<wgt id='1313'> +5.1833111e-01 </wgt>
<wgt id='1314'> +5.1809747e-01 </wgt>
<wgt id='1315'> +5.1368406e-01 </wgt>
<wgt id='1316'> +5.2201543e-01 </wgt>
<wgt id='1317'> +5.1377227e-01 </wgt>
<wgt id='1318'> +5.2642935e-01 </wgt>
<wgt id='1319'> +5.1816294e-01 </wgt>
<wgt id='1320'> +5.1819997e-01 </wgt>
<wgt id='1321'> +5.1443785e-01 </wgt>
<wgt id='1322'> +5.2007113e-01 </wgt>
<wgt id='1323'> +5.1253542e-01 </wgt>
<wgt id='1324'> +5.1475736e-01 </wgt>
<wgt id='1325'> +5.1873017e-01 </wgt>
<wgt id='1326'> +5.1608023e-01 </wgt>
<wgt id='1327'> +5.1685952e-01 </wgt>
<wgt id='1328'> +5.1884378e-01 </wgt>
<wgt id='1329'> +5.1748561e-01 </wgt>
<wgt id='1330'> +5.1876137e-01 </wgt>
<wgt id='1331'> +5.1835283e-01 </wgt>
<wgt id='1332'> +5.1744473e-01 </wgt>
<wgt id='1333'> +5.2151381e-01 </wgt>
<wgt id='1334'> +5.1429987e-01 </wgt>
<wgt id='1335'> +5.2112251e-01 </wgt>
<wgt id='1336'> +5.1722768e-01 </wgt>
<wgt id='1337'> +5.1831959e-01 </wgt>
<wgt id='1338'> +5.1819837e-01 </wgt>
<wgt id='1339'> +5.1826681e-01 </wgt>
<wgt id='1340'> +5.1831760e-01 </wgt>
<wgt id='1341'> +5.1839586e-01 </wgt>
<wgt id='1342'> +5.1841696e-01 </wgt>
<wgt id='1343'> +5.1840137e-01 </wgt>
<wgt id='1344'> +5.1938904e-01 </wgt>
<wgt id='1345'> +5.2060196e-01 </wgt>
<wgt id='1346'> +5.1817512e-01 </wgt>
<wgt id='1347'> +5.1837378e-01 </wgt>
<wgt id='1348'> +5.2010281e-01 </wgt>
<wgt id='1349'> +5.2129887e-01 </wgt>
<wgt id='1350'> +5.1774784e-01 </wgt>
<wgt id='1351'> +5.1931102e-01 </wgt>
<wgt id='1352'> +5.1949104e-01 </wgt>
<wgt id='1353'> +5.2047501e-01 </wgt>
<wgt id='1354'> +5.1858892e-01 </wgt>
<wgt id='1355'> +5.2378419e-01 </wgt>
<wgt id='1356'> +5.1593059e-01 </wgt>
<wgt id='1357'> +5.2162755e-01 </wgt>
<wgt id='1358'> +5.1801268e-01 </wgt>
<wgt id='1359'> +5.1865419e-01 </wgt>
<wgt id='1360'> +5.2132721e-01 </wgt>
<wgt id='1361'> +5.2108939e-01 </wgt>
<wgt id='1362'> +5.1839001e-01 </wgt>
<wgt id='1363'> +5.2365381e-01 </wgt>
<wgt id='1364'> +5.1301310e-01 </wgt>
<wgt id='1365'> +5.1709015e-01 </wgt>
<wgt id='1366'> +5.2019130e-01 </wgt>
<wgt id='1367'> +5.1466742e-01 </wgt>
<wgt id='1368'> +5.2138513e-01 </wgt>
<wgt id='1369'> +5.1747942e-01 </wgt>
<wgt id='1370'> +5.2028690e-01 </wgt>
<wgt id='1371'> +5.1804833e-01 </wgt>
<wgt id='1372'> +5.1333346e-01 </wgt>
<wgt id='1373'> +5.2161664e-01 </wgt>
<wgt id='1374'> +5.1855978e-01 </wgt>
<wgt id='1375'> +5.1681711e-01 </wgt>
<wgt id='1376'> +5.1982341e-01 </wgt>
<wgt id='1377'> +5.1945463e-01 </wgt>
<wgt id='1378'> +5.1938993e-01 </wgt>
<wgt id='1379'> +5.1749130e-01 </wgt>
<wgt id='1380'> +5.1966089e-01 </wgt>
<wgt id='1381'> +5.1634382e-01 </wgt>
<wgt id='1382'> +5.1989659e-01 </wgt>
<wgt id='1383'> +5.1823917e-01 </wgt>
<wgt id='1384'> +5.2163784e-01 </wgt>
<wgt id='1385'> +5.1938904e-01 </wgt>
<wgt id='1386'> +5.1902268e-01 </wgt>
<wgt id='1387'> +5.1917008e-01 </wgt>
<wgt id='1388'> +5.1928860e-01 </wgt>
<wgt id='1389'> +5.1939471e-01 </wgt>
<wgt id='1390'> +5.1943856e-01 </wgt>
<wgt id='1391'> +5.1942878e-01 </wgt>
<wgt id='1392'> +5.4093180e-01 </wgt>
<wgt id='1393'> +5.4069319e-01 </wgt>
<wgt id='1394'> +5.4120796e-01 </wgt>
<wgt id='1395'> +5.4160838e-01 </wgt>
<wgt id='1396'> +5.4044735e-01 </wgt>
<wgt id='1397'> +5.4223837e-01 </wgt>
<wgt id='1398'> +5.3966896e-01 </wgt>
<wgt id='1399'> +5.3952327e-01 </wgt>
<wgt id='1400'> +5.4270388e-01 </wgt>
<wgt id='1401'> +5.4095338e-01 </wgt>
<wgt id='1402'> +5.4091964e-01 </wgt>
<wgt id='1403'> +5.3991132e-01 </wgt>
<wgt id='1404'> +5.4297662e-01 </wgt>
<wgt id='1405'> +5.4292947e-01 </wgt>
<wgt id='1406'> +5.3816768e-01 </wgt>
<wgt id='1407'> +5.4186963e-01 </wgt>
<wgt id='1408'> +5.4027704e-01 </wgt>
<wgt id='1409'> +5.4159660e-01 </wgt>
<wgt id='1410'> +5.4020055e-01 </wgt>
<wgt id='1411'> +5.3873390e-01 </wgt>
<wgt id='1412'> +5.4260403e-01 </wgt>
<wgt id='1413'> +5.4542538e-01 </wgt>
<wgt id='1414'> +5.3612152e-01 </wgt>
<wgt id='1415'> +5.4475276e-01 </wgt>
<wgt id='1416'> +5.3719283e-01 </wgt>
<wgt id='1417'> +5.3961560e-01 </wgt>
<wgt id='1418'> +5.4256578e-01 </wgt>
<wgt id='1419'> +5.3849287e-01 </wgt>
<wgt id='1420'> +5.3938759e-01 </wgt>
<wgt id='1421'> +5.4306635e-01 </wgt>
<wgt id='1422'> +5.3837402e-01 </wgt>
<wgt id='1423'> +5.4570559e-01 </wgt>
<wgt id='1424'> +5.3719513e-01 </wgt>
<wgt id='1425'> +5.4060629e-01 </wgt>
<wgt id='1426'> +5.4106889e-01 </wgt>
<wgt id='1427'> +5.4151649e-01 </wgt>
<wgt id='1428'> +5.3900818e-01 </wgt>
<wgt id='1429'> +5.4073545e-01 </wgt>
<wgt id='1430'> +5.4012731e-01 </wgt>
<wgt id='1431'> +5.3889280e-01 </wgt>
<wgt id='1432'> +5.4267467e-01 </wgt>
<wgt id='1433'> +5.3302419e-01 </wgt>
<wgt id='1434'> +5.5014625e-01 </wgt>
<wgt id='1435'> +5.3962423e-01 </wgt>
<wgt id='1436'> +5.3979982e-01 </wgt>
<wgt id='1437'> +5.3894838e-01 </wgt>
<wgt id='1438'> +5.4619083e-01 </wgt>
<wgt id='1439'> +5.4317659e-01 </wgt>
<wgt id='1440'> +5.3573028e-01 </wgt>
<wgt id='1441'> +5.4156664e-01 </wgt>
<wgt id='1442'> +5.3891941e-01 </wgt>
<wgt id='1443'> +5.3710999e-01 </wgt>
<wgt id='1444'> +5.3684754e-01 </wgt>
<wgt id='1445'> +5.3737333e-01 </wgt>
<wgt id='1446'> +5.3780340e-01 </wgt>
<wgt id='1447'> +5.3664023e-01 </wgt>
<wgt id='1448'> +5.3844239e-01 </wgt>
<wgt id='1449'> +5.3587135e-01 </wgt>
<wgt id='1450'> +5.3560484e-01 </wgt>
<wgt id='1451'> +5.3879779e-01 </wgt>
<wgt id='1452'> +5.3725500e-01 </wgt>
<wgt id='1453'> +5.3696320e-01 </wgt>
<wgt id='1454'> +5.3627155e-01 </wgt>
<wgt id='1455'> +5.3892281e-01 </wgt>
<wgt id='1456'> +5.3956432e-01 </wgt>
<wgt id='1457'> +5.3270654e-01 </wgt>
<wgt id='1458'> +5.3765840e-01 </wgt>
<wgt id='1459'> +5.3679292e-01 </wgt>
<wgt id='1460'> +5.3724903e-01 </wgt>
<wgt id='1461'> +5.3693363e-01 </wgt>
<wgt id='1462'> +5.3498889e-01 </wgt>
<wgt id='1463'> +5.3892554e-01 </wgt>
<wgt id='1464'> +5.4094774e-01 </wgt>
<wgt id='1465'> +5.3201361e-01 </wgt>
<wgt id='1466'> +5.4206980e-01 </wgt>
<wgt id='1467'> +5.3387687e-01 </wgt>
<wgt id='1468'> +5.3708518e-01 </wgt>
<wgt id='1469'> +5.3719557e-01 </wgt>
<wgt id='1470'> +5.3481016e-01 </wgt>
<wgt id='1471'> +5.3596441e-01 </wgt>
<wgt id='1472'> +5.3857439e-01 </wgt>
<wgt id='1473'> +5.3522872e-01 </wgt>
<wgt id='1474'> +5.4059928e-01 </wgt>
<wgt id='1475'> +5.3288631e-01 </wgt>
<wgt id='1476'> +5.3597503e-01 </wgt>
<wgt id='1477'> +5.3792533e-01 </wgt>
<wgt id='1478'> +5.3776834e-01 </wgt>
<wgt id='1479'> +5.3504088e-01 </wgt>
<wgt id='1480'> +5.3764991e-01 </wgt>
<wgt id='1481'> +5.3649502e-01 </wgt>
<wgt id='1482'> +5.3504099e-01 </wgt>
<wgt id='1483'> +5.3914125e-01 </wgt>
<wgt id='1484'> +5.2914635e-01 </wgt>
<wgt id='1485'> +5.4593417e-01 </wgt>
<wgt id='1486'> +5.3775934e-01 </wgt>
<wgt id='1487'> +5.3533748e-01 </wgt>
<wgt id='1488'> +5.3481570e-01 </wgt>
<wgt id='1489'> +5.4286166e-01 </wgt>
<wgt id='1490'> +5.3913120e-01 </wgt>
<wgt id='1491'> +5.3158675e-01 </wgt>
<wgt id='1492'> +5.3793169e-01 </wgt>
<wgt id='1493'> +5.3444967e-01 </wgt>
<wgt id='1494'> +5.1784000e-01 </wgt>
<wgt id='1495'> +5.1235453e-01 </wgt>
<wgt id='1496'> +5.1463884e-01 </wgt>
<wgt id='1497'> +5.1627372e-01 </wgt>
<wgt id='1498'> +5.1962848e-01 </wgt>
<wgt id='1499'> +5.1792531e-01 </wgt>
<wgt id='1500'> +5.1680950e-01 </wgt>
<wgt id='1501'> +5.1722080e-01 </wgt>
<wgt id='1502'> +5.1757460e-01 </wgt>
<wgt id='1503'> +5.1774272e-01 </wgt>
<wgt id='1504'> +5.1791291e-01 </wgt>
<wgt id='1505'> +5.1812650e-01 </wgt>
<wgt id='1506'> +5.1816259e-01 </wgt>
<wgt id='1507'> +5.1821215e-01 </wgt>
<wgt id='1508'> +5.1792531e-01 </wgt>
<wgt id='1509'> +5.1818481e-01 </wgt>
<wgt id='1510'> +5.1805613e-01 </wgt>
<wgt id='1511'> +5.1783739e-01 </wgt>
<wgt id='1512'> +5.1782220e-01 </wgt>
<wgt id='1513'> +5.2470423e-01 </wgt>
<wgt id='1514'> +5.2426429e-01 </wgt>
<wgt id='1515'> +5.2527507e-01 </wgt>
<wgt id='1516'> +5.2516881e-01 </wgt>
<wgt id='1517'> +5.2424887e-01 </wgt>
<wgt id='1518'> +5.2612825e-01 </wgt>
<wgt id='1519'> +5.2413347e-01 </wgt>
<wgt id='1520'> +5.2395412e-01 </wgt>
<wgt id='1521'> +5.2545249e-01 </wgt>
<wgt id='1522'> +5.2537827e-01 </wgt>
<wgt id='1523'> +5.2405949e-01 </wgt>
<wgt id='1524'> +5.2628817e-01 </wgt>
<wgt id='1525'> +5.2402786e-01 </wgt>
<wgt id='1526'> +5.2562788e-01 </wgt>
<wgt id='1527'> +5.2358739e-01 </wgt>
<wgt id='1528'> +5.2742397e-01 </wgt>
<wgt id='1529'> +5.2175195e-01 </wgt>
<wgt id='1530'> +5.2653248e-01 </wgt>
<wgt id='1531'> +5.2367500e-01 </wgt>
<wgt id='1532'> +5.2477632e-01 </wgt>
<wgt id='1533'> +5.2459469e-01 </wgt>
<wgt id='1534'> +5.1883252e-01 </wgt>
<wgt id='1535'> +5.2877085e-01 </wgt>
<wgt id='1536'> +5.2197300e-01 </wgt>
<wgt id='1537'> +5.2727050e-01 </wgt>
<wgt id='1538'> +5.2354012e-01 </wgt>
<wgt id='1539'> +5.2766095e-01 </wgt>
<wgt id='1540'> +5.2362725e-01 </wgt>
<wgt id='1541'> +5.2231038e-01 </wgt>
<wgt id='1542'> +5.2314613e-01 </wgt>
<wgt id='1543'> +5.2918649e-01 </wgt>
<wgt id='1544'> +5.2634209e-01 </wgt>
<wgt id='1545'> +5.2068179e-01 </wgt>
<wgt id='1546'> +5.2482355e-01 </wgt>
<wgt id='1547'> +5.2367393e-01 </wgt>
<wgt id='1548'> +5.2329780e-01 </wgt>
<wgt id='1549'> +5.2466393e-01 </wgt>
<wgt id='1550'> +5.2397195e-01 </wgt>
<wgt id='1551'> +5.2105924e-01 </wgt>
<wgt id='1552'> +5.2230057e-01 </wgt>
<wgt id='1553'> +5.2619063e-01 </wgt>
<wgt id='1554'> +5.2935610e-01 </wgt>
<wgt id='1555'> +5.1602307e-01 </wgt>
<wgt id='1556'> +5.2441929e-01 </wgt>
<wgt id='1557'> +5.2218003e-01 </wgt>
<wgt id='1558'> +5.1988744e-01 </wgt>
<wgt id='1559'> +5.2813257e-01 </wgt>
<wgt id='1560'> +5.2930313e-01 </wgt>
<wgt id='1561'> +5.2261512e-01 </wgt>
<wgt id='1562'> +5.2249326e-01 </wgt>
<wgt id='1563'> +5.2561314e-01 </wgt>
<wgt id='1564'> +5.2470423e-01 </wgt>
<wgt id='1565'> +5.2319259e-01 </wgt>
<wgt id='1566'> +5.2572790e-01 </wgt>
<wgt id='1567'> +5.2420189e-01 </wgt>
<wgt id='1568'> +5.2333401e-01 </wgt>
<wgt id='1569'> +5.2383994e-01 </wgt>
<wgt id='1570'> +5.2394588e-01 </wgt>
<wgt id='1571'> +5.2386648e-01 </wgt>
<wgt id='1572'> +5.2422134e-01 </wgt>
<wgt id='1573'> +5.2410814e-01 </wgt>
<wgt id='1574'> +5.2356722e-01 </wgt>
<wgt id='1575'> +5.2347218e-01 </wgt>
<wgt id='1576'> +5.2420189e-01 </wgt>
<wgt id='1577'> +5.2434926e-01 </wgt>
<wgt id='1578'> +5.2426190e-01 </wgt>
<wgt id='1579'> +5.2417198e-01 </wgt>
<wgt id='1580'> +5.2415602e-01 </wgt>
<wgt id='1581'> +5.1726106e-01 </wgt>
<wgt id='1582'> +5.1737990e-01 </wgt>
<wgt id='1583'> +5.2419081e-01 </wgt>
<wgt id='1584'> +5.1421702e-01 </wgt>
<wgt id='1585'> +5.1878388e-01 </wgt>
<wgt id='1586'> +5.1253238e-01 </wgt>
<wgt id='1587'> +5.1361849e-01 </wgt>
<wgt id='1588'> +5.1914051e-01 </wgt>
<wgt id='1589'> +5.1679552e-01 </wgt>
<wgt id='1590'> +5.1532234e-01 </wgt>
<wgt id='1591'> +5.1603553e-01 </wgt>
<wgt id='1592'> +5.1818700e-01 </wgt>
<wgt id='1593'> +5.1730746e-01 </wgt>
<wgt id='1594'> +5.1826231e-01 </wgt>
<wgt id='1595'> +5.1690889e-01 </wgt>
<wgt id='1596'> +5.1883889e-01 </wgt>
<wgt id='1597'> +5.1595445e-01 </wgt>
<wgt id='1598'> +5.1937666e-01 </wgt>
<wgt id='1599'> +5.2389871e-01 </wgt>
<wgt id='1600'> +5.1837618e-01 </wgt>
<wgt id='1601'> +5.1693129e-01 </wgt>
<wgt id='1602'> +5.1826324e-01 </wgt>
<wgt id='1603'> +5.1725720e-01 </wgt>
<wgt id='1604'> +5.1820239e-01 </wgt>
<wgt id='1605'> +5.1649068e-01 </wgt>
<wgt id='1606'> +5.1719357e-01 </wgt>
<wgt id='1607'> +5.1822330e-01 </wgt>
<wgt id='1608'> +5.2182178e-01 </wgt>
<wgt id='1609'> +5.1763799e-01 </wgt>
<wgt id='1610'> +5.1626328e-01 </wgt>
<wgt id='1611'> +5.1989257e-01 </wgt>
<wgt id='1612'> +5.2038885e-01 </wgt>
<wgt id='1613'> +5.1970240e-01 </wgt>
<wgt id='1614'> +5.2056296e-01 </wgt>
<wgt id='1615'> +5.2119358e-01 </wgt>
<wgt id='1616'> +5.2038927e-01 </wgt>
<wgt id='1617'> +5.1968651e-01 </wgt>
<wgt id='1618'> +5.2056522e-01 </wgt>
<wgt id='1619'> +5.1859054e-01 </wgt>
<wgt id='1620'> +5.1894500e-01 </wgt>
<wgt id='1621'> +5.2024680e-01 </wgt>
<wgt id='1622'> +5.2098838e-01 </wgt>
<wgt id='1623'> +5.1848413e-01 </wgt>
<wgt id='1624'> +5.1939873e-01 </wgt>
<wgt id='1625'> +5.1996337e-01 </wgt>
<wgt id='1626'> +5.2090351e-01 </wgt>
<wgt id='1627'> +5.2162899e-01 </wgt>
<wgt id='1628'> +5.2087418e-01 </wgt>
<wgt id='1629'> +5.2019270e-01 </wgt>
<wgt id='1630'> +5.2108359e-01 </wgt>
<wgt id='1631'> +5.1919744e-01 </wgt>
<wgt id='1632'> +5.2079117e-01 </wgt>
<wgt id='1633'> +5.1945857e-01 </wgt>
<wgt id='1634'> +5.2204674e-01 </wgt>
<wgt id='1635'> +5.1935325e-01 </wgt>
<wgt id='1636'> +5.2311321e-01 </wgt>
<wgt id='1637'> +5.2187466e-01 </wgt>
<wgt id='1638'> +5.2107039e-01 </wgt>
<wgt id='1639'> +5.2278492e-01 </wgt>
<wgt id='1640'> +5.2147303e-01 </wgt>
<wgt id='1641'> +5.1311504e-01 </wgt>
<wgt id='1642'> +5.1748097e-01 </wgt>
<wgt id='1643'> +5.1968552e-01 </wgt>
<wgt id='1644'> +5.1825057e-01 </wgt>
<wgt id='1645'> +5.1973441e-01 </wgt>
<wgt id='1646'> +5.2074520e-01 </wgt>
<wgt id='1647'> +5.2078132e-01 </wgt>
<wgt id='1648'> +5.2067647e-01 </wgt>
<wgt id='1649'> +5.2179365e-01 </wgt>
<wgt id='1650'> +5.2041408e-01 </wgt>
<wgt id='1651'> +5.2080364e-01 </wgt>
<wgt id='1652'> +5.2049354e-01 </wgt>
<wgt id='1653'> +5.2025567e-01 </wgt>
<wgt id='1654'> +5.1969465e-01 </wgt>
<wgt id='1655'> +5.2060928e-01 </wgt>
<wgt id='1656'> +5.2205025e-01 </wgt>
<wgt id='1657'> +5.1899069e-01 </wgt>
<wgt id='1658'> +5.2050778e-01 </wgt>
<wgt id='1659'> +5.2180970e-01 </wgt>
<wgt id='1660'> +5.1886143e-01 </wgt>
<wgt id='1661'> +5.2223741e-01 </wgt>
<wgt id='1662'> +5.2243446e-01 </wgt>
<wgt id='1663'> +5.2279409e-01 </wgt>
<wgt id='1664'> +5.1950344e-01 </wgt>
<wgt id='1665'> +5.2017392e-01 </wgt>
<wgt id='1666'> +5.2118545e-01 </wgt>
<wgt id='1667'> +5.1965941e-01 </wgt>
<wgt id='1668'> +5.2008391e-01 </wgt>
<wgt id='1669'> +5.1946733e-01 </wgt>
<wgt id='1670'> +5.2053953e-01 </wgt>
<wgt id='1671'> +5.1980053e-01 </wgt>
<wgt id='1672'> +5.1972169e-01 </wgt>
<wgt id='1673'> +5.2040431e-01 </wgt>
<wgt id='1674'> +5.1911836e-01 </wgt>
<wgt id='1675'> +5.2089326e-01 </wgt>
<wgt id='1676'> +5.2084207e-01 </wgt>
<wgt id='1677'> +5.1989932e-01 </wgt>
<wgt id='1678'> +5.2131977e-01 </wgt>
<wgt id='1679'> +5.2032438e-01 </wgt>
<wgt id='1680'> +5.2051417e-01 </wgt>
<wgt id='1681'> +5.2033935e-01 </wgt>
<wgt id='1682'> +5.2002380e-01 </wgt>
<wgt id='1683'> +5.1933839e-01 </wgt>
<wgt id='1684'> +5.2078145e-01 </wgt>
<wgt id='1685'> +5.2061329e-01 </wgt>
<wgt id='1686'> +5.2077121e-01 </wgt>
<wgt id='1687'> +5.2057599e-01 </wgt>
<wgt id='1688'> +5.2065176e-01 </wgt>
<wgt id='1689'> +5.2044920e-01 </wgt>
<wgt id='1690'> +5.2057522e-01 </wgt>
<wgt id='1691'> +5.2221766e-01 </wgt>
<wgt id='1692'> +5.1985223e-01 </wgt>
<wgt id='1693'> +5.2001456e-01 </wgt>
<wgt id='1694'> +5.1977735e-01 </wgt>
<wgt id='1695'> +5.2056898e-01 </wgt>
<wgt id='1696'> +5.1973840e-01 </wgt>
<wgt id='1697'> +5.2069826e-01 </wgt>
<wgt id='1698'> +5.2061811e-01 </wgt>
<wgt id='1699'> +5.2005240e-01 </wgt>
<wgt id='1700'> +5.2070644e-01 </wgt>
<wgt id='1701'> +5.2026442e-01 </wgt>
<wgt id='1702'> +5.1994215e-01 </wgt>
<wgt id='1703'> +5.2120750e-01 </wgt>
<wgt id='1704'> +5.2112467e-01 </wgt>
<wgt id='1705'> +5.2027007e-01 </wgt>
<wgt id='1706'> +5.2043869e-01 </wgt>
<wgt id='1707'> +5.2011166e-01 </wgt>
<wgt id='1708'> +5.2023172e-01 </wgt>
<wgt id='1709'> +5.2083196e-01 </wgt>
<wgt id='1710'> +5.2005244e-01 </wgt>
<wgt id='1711'> +5.2023324e-01 </wgt>
<wgt id='1712'> +5.2118768e-01 </wgt>
<wgt id='1713'> +5.1195670e-01 </wgt>
<wgt id='1714'> +5.2737380e-01 </wgt>
<wgt id='1715'> +5.3096547e-01 </wgt>
<wgt id='1716'> +5.3158999e-01 </wgt>
<wgt id='1717'> +5.4196113e-01 </wgt>
<wgt id='1718'> +5.1888436e-01 </wgt>
<wgt id='1719'> +5.2089306e-01 </wgt>
<wgt id='1720'> +5.4368935e-01 </wgt>
<wgt id='1721'> +5.1044168e-01 </wgt>
<wgt id='1722'> +5.3772872e-01 </wgt>
<wgt id='1723'> +5.4184367e-01 </wgt>
<wgt id='1724'> +5.4345201e-01 </wgt>
<wgt id='1725'> +5.3639106e-01 </wgt>
<wgt id='1726'> +5.3531359e-01 </wgt>
<wgt id='1727'> +5.3480152e-01 </wgt>
<wgt id='1728'> +5.3647966e-01 </wgt>
<wgt id='1729'> +5.3262832e-01 </wgt>
<wgt id='1730'> +5.1910288e-01 </wgt>
<wgt id='1731'> +4.8768617e-01 </wgt>
<wgt id='1732'> +5.4105283e-01 </wgt>
<wgt id='1733'> +5.3986777e-01 </wgt>
<wgt id='1734'> +5.4590527e-01 </wgt>
<wgt id='1735'> +5.0561641e-01 </wgt>
<wgt id='1736'> +5.4260837e-01 </wgt>
<wgt id='1737'> +5.2546512e-01 </wgt>
<wgt id='1738'> +5.3896594e-01 </wgt>
<wgt id='1739'> +5.3554143e-01 </wgt>
<wgt id='1740'> +5.2765678e-01 </wgt>
<wgt id='1741'> +5.2402164e-01 </wgt>
<wgt id='1742'> +5.5181426e-01 </wgt>
<wgt id='1743'> +5.0958951e-01 </wgt>
<wgt id='1744'> +5.3928294e-01 </wgt>
<wgt id='1745'> +5.0790576e-01 </wgt>
<wgt id='1746'> +5.2037488e-01 </wgt>
<wgt id='1747'> +5.3834286e-01 </wgt>
<wgt id='1748'> +5.2495303e-01 </wgt>
<wgt id='1749'> +5.4819249e-01 </wgt>
<wgt id='1750'> +5.2725328e-01 </wgt>
<wgt id='1751'> +5.3515570e-01 </wgt>
<wgt id='1752'> +5.2169502e-01 </wgt>
<wgt id='1753'> +5.4253566e-01 </wgt>
<wgt id='1754'> +5.4542299e-01 </wgt>
<wgt id='1755'> +5.3767382e-01 </wgt>
<wgt id='1756'> +5.3521512e-01 </wgt>
<wgt id='1757'> +5.4386208e-01 </wgt>
<wgt id='1758'> +5.2900665e-01 </wgt>
<wgt id='1759'> +5.1945971e-01 </wgt>
<wgt id='1760'> +5.3102459e-01 </wgt>
<wgt id='1761'> +5.3057689e-01 </wgt>
<wgt id='1762'> +5.3480152e-01 </wgt>
<wgt id='1763'> +5.2422591e-01 </wgt>
<wgt id='1764'> +5.4325678e-01 </wgt>
<wgt id='1765'> +5.2900777e-01 </wgt>
<wgt id='1766'> +5.4603765e-01 </wgt>
<wgt id='1767'> +5.3791946e-01 </wgt>
<wgt id='1768'> +4.9570823e-01 </wgt>
<wgt id='1769'> +5.3199032e-01 </wgt>
<wgt id='1770'> +5.5746064e-01 </wgt>
<wgt id='1771'> +5.4267039e-01 </wgt>
<wgt id='1772'> +5.4145335e-01 </wgt>
<wgt id='1773'> +5.3386803e-01 </wgt>
<wgt id='1774'> +5.0388653e-01 </wgt>
<wgt id='1775'> +5.2316075e-01 </wgt>
<wgt id='1776'> +5.4722572e-01 </wgt>
<wgt id='1777'> +5.4433497e-01 </wgt>
<wgt id='1778'> +5.1973453e-01 </wgt>
<wgt id='1779'> +5.2750892e-01 </wgt>
<wgt id='1780'> +5.2247044e-01 </wgt>
<wgt id='1781'> +5.3507917e-01 </wgt>
<wgt id='1782'> +5.5862360e-01 </wgt>
<wgt id='1783'> +5.2718234e-01 </wgt>
<wgt id='1784'> +5.3177438e-01 </wgt>
<wgt id='1785'> +5.3443027e-01 </wgt>
<wgt id='1786'> +5.4518057e-01 </wgt>
<wgt id='1787'> +5.2124288e-01 </wgt>
<wgt id='1788'> +5.3592400e-01 </wgt>
<wgt id='1789'> +5.2857471e-01 </wgt>
<wgt id='1790'> +5.2681218e-01 </wgt>
<wgt id='1791'> +4.8819175e-01 </wgt>
<wgt id='1792'> +5.2362779e-01 </wgt>
<wgt id='1793'> +5.4423497e-01 </wgt>
<wgt id='1794'> +5.2499200e-01 </wgt>
<wgt id='1795'> +5.0689145e-01 </wgt>
<wgt id='1796'> +5.2996720e-01 </wgt>
<wgt id='1797'> +5.2051420e-01 </wgt>
<wgt id='1798'> +5.2887875e-01 </wgt>
<wgt id='1799'> +5.4051790e-01 </wgt>
<wgt id='1800'> +5.4549569e-01 </wgt>
<wgt id='1801'> +5.1498644e-01 </wgt>
<wgt id='1802'> +5.3741057e-01 </wgt>
<wgt id='1803'> +5.3048050e-01 </wgt>
<wgt id='1804'> +5.4111230e-01 </wgt>
<wgt id='1805'> +5.4211102e-01 </wgt>
<wgt id='1806'> +5.1950155e-01 </wgt>
<wgt id='1807'> +5.2120647e-01 </wgt>
<wgt id='1808'> +5.1871992e-01 </wgt>
<wgt id='1809'> +5.3262057e-01 </wgt>
<wgt id='1810'> +5.2127069e-01 </wgt>
<wgt id='1811'> +5.3721722e-01 </wgt>
<wgt id='1812'> +5.2755800e-01 </wgt>
<wgt id='1813'> +5.4181072e-01 </wgt>
<wgt id='1814'> +5.2569831e-01 </wgt>
<wgt id='1815'> +5.4163591e-01 </wgt>
<wgt id='1816'> +5.2606470e-01 </wgt>
<wgt id='1817'> +5.3337816e-01 </wgt>
<wgt id='1818'> +5.3084303e-01 </wgt>
<wgt id='1819'> +5.2448700e-01 </wgt>
<wgt id='1820'> +5.4002271e-01 </wgt>
<wgt id='1821'> +5.2328043e-01 </wgt>
<wgt id='1822'> +5.2610769e-01 </wgt>
<wgt id='1823'> +5.3006182e-01 </wgt>
<wgt id='1824'> +5.4864118e-01 </wgt>
<wgt id='1825'> +5.2406063e-01 </wgt>
<wgt id='1826'> +5.3197352e-01 </wgt>
<wgt id='1827'> +5.1571419e-01 </wgt>
<wgt id='1828'> +5.2436786e-01 </wgt>
<wgt id='1829'> +5.0583938e-01 </wgt>
<wgt id='1830'> +5.1013709e-01 </wgt>
<wgt id='1831'> +5.3007473e-01 </wgt>
<wgt id='1832'> +5.3658740e-01 </wgt>
<wgt id='1833'> +5.0672254e-01 </wgt>
<wgt id='1834'> +4.8909669e-01 </wgt>
<wgt id='1835'> +5.3324381e-01 </wgt>
<wgt id='1836'> +5.5919394e-01 </wgt>
<wgt id='1837'> +5.3668142e-01 </wgt>
<wgt id='1838'> +5.3988099e-01 </wgt>
<wgt id='1839'> +5.4782500e-01 </wgt>
<wgt id='1840'> +5.1441224e-01 </wgt>
<wgt id='1841'> +5.1745822e-01 </wgt>
<wgt id='1842'> +5.1566883e-01 </wgt>
<wgt id='1843'> +5.0642502e-01 </wgt>
<wgt id='1844'> +5.1108705e-01 </wgt>
<wgt id='1845'> +5.2753085e-01 </wgt>
<wgt id='1846'> +5.3487018e-01 </wgt>
<wgt id='1847'> +5.3093586e-01 </wgt>
<wgt id='1848'> +5.2784937e-01 </wgt>
<wgt id='1849'> +5.4004334e-01 </wgt>
<wgt id='1850'> +5.2654857e-01 </wgt>
<wgt id='1851'> +5.2995738e-01 </wgt>
<wgt id='1852'> +5.2916613e-01 </wgt>
<wgt id='1853'> +5.1599387e-01 </wgt>
<wgt id='1854'> +5.3336293e-01 </wgt>
<wgt id='1855'> +5.2637145e-01 </wgt>
<wgt id='1856'> +5.3155959e-01 </wgt>
<wgt id='1857'> +5.3918813e-01 </wgt>
<wgt id='1858'> +5.3079451e-01 </wgt>
<wgt id='1859'> +5.2859224e-01 </wgt>
<wgt id='1860'> +5.2734072e-01 </wgt>
<wgt id='1861'> +5.2681640e-01 </wgt>
<wgt id='1862'> +5.2133129e-01 </wgt>
<wgt id='1863'> +5.3531738e-01 </wgt>
<wgt id='1864'> +5.2187810e-01 </wgt>
<wgt id='1865'> +5.2907672e-01 </wgt>
<wgt id='1866'> +5.2613967e-01 </wgt>
<wgt id='1867'> +5.2882108e-01 </wgt>
<wgt id='1868'> +5.2006393e-01 </wgt>
<wgt id='1869'> +5.2693074e-01 </wgt>
<wgt id='1870'> +5.2711859e-01 </wgt>
<wgt id='1871'> +5.1539393e-01 </wgt>
<wgt id='1872'> +4.9879019e-01 </wgt>
<wgt id='1873'> +5.1559043e-01 </wgt>
<wgt id='1874'> +5.1625703e-01 </wgt>
<wgt id='1875'> +5.2655901e-01 </wgt>
<wgt id='1876'> +5.3787845e-01 </wgt>
<wgt id='1877'> +4.9995122e-01 </wgt>
<wgt id='1878'> +5.2417535e-01 </wgt>
<wgt id='1879'> +5.0750016e-01 </wgt>
<wgt id='1880'> +4.8175340e-01 </wgt>
<wgt id='1881'> +5.3149067e-01 </wgt>
<wgt id='1882'> +5.1019594e-01 </wgt>
<wgt id='1883'> +5.9639848e-01 </wgt>
<wgt id='1884'> +5.0903030e-01 </wgt>
<wgt id='1885'> +5.2417851e-01 </wgt>
<wgt id='1886'> +5.2248082e-01 </wgt>
<wgt id='1887'> +5.3015856e-01 </wgt>
<wgt id='1888'> +5.3187484e-01 </wgt>
<wgt id='1889'> +5.3309511e-01 </wgt>
<wgt id='1890'> +5.3068727e-01 </wgt>
<wgt id='1891'> +5.2399161e-01 </wgt>
<wgt id='1892'> +5.4632491e-01 </wgt>
<wgt id='1893'> +5.1679232e-01 </wgt>
<wgt id='1894'> +5.4239752e-01 </wgt>
<wgt id='1895'> +5.2792415e-01 </wgt>
<wgt id='1896'> +5.2860738e-01 </wgt>
<wgt id='1897'> +5.3415206e-01 </wgt>
<wgt id='1898'> +5.3300940e-01 </wgt>
<wgt id='1899'> +5.4633471e-01 </wgt>
<wgt id='1900'> +5.2690228e-01 </wgt>
<wgt id='1901'> +5.1429128e-01 </wgt>
<wgt id='1902'> +5.2279147e-01 </wgt>
<wgt id='1903'> +5.2688445e-01 </wgt>
<wgt id='1904'> +5.1881738e-01 </wgt>
<wgt id='1905'> +5.1855965e-01 </wgt>
<wgt id='1906'> +5.2190317e-01 </wgt>
<wgt id='1907'> +5.4138362e-01 </wgt>
<wgt id='1908'> +5.4481678e-01 </wgt>
<wgt id='1909'> +5.1967147e-01 </wgt>
<wgt id='1910'> +5.4245996e-01 </wgt>
<wgt id='1911'> +4.9925578e-01 </wgt>
<wgt id='1912'> +5.3664539e-01 </wgt>
<wgt id='1913'> +5.1020980e-01 </wgt>
<wgt id='1914'> +5.2602680e-01 </wgt>
<wgt id='1915'> +5.2543102e-01 </wgt>
<wgt id='1916'> +5.0933824e-01 </wgt>
<wgt id='1917'> +5.0292490e-01 </wgt>
<wgt id='1918'> +5.4105195e-01 </wgt>
<wgt id='1919'> +5.2606470e-01 </wgt>
<wgt id='1920'> +5.3337816e-01 </wgt>
<wgt id='1921'> +5.3084303e-01 </wgt>
<wgt id='1922'> +5.2448700e-01 </wgt>
<wgt id='1923'> +5.4002271e-01 </wgt>
<wgt id='1924'> +5.2328043e-01 </wgt>
<wgt id='1925'> +5.2610769e-01 </wgt>
<wgt id='1926'> +5.3006182e-01 </wgt>
<wgt id='1927'> +5.4864118e-01 </wgt>
<wgt id='1928'> +5.2406063e-01 </wgt>
<wgt id='1929'> +5.3197352e-01 </wgt>
<wgt id='1930'> +5.1571419e-01 </wgt>
<wgt id='1931'> +5.2436786e-01 </wgt>
<wgt id='1932'> +5.0583938e-01 </wgt>
<wgt id='1933'> +5.1013709e-01 </wgt>
<wgt id='1934'> +5.3007473e-01 </wgt>
<wgt id='1935'> +5.3658740e-01 </wgt>
<wgt id='1936'> +5.0672254e-01 </wgt>
<wgt id='1937'> +4.8909669e-01 </wgt>
<wgt id='1938'> +5.3324381e-01 </wgt>
<wgt id='1939'> +5.5919394e-01 </wgt>
<wgt id='1940'> +5.3668142e-01 </wgt>
<wgt id='1941'> +5.3988099e-01 </wgt>
<wgt id='1942'> +5.4782500e-01 </wgt>
<wgt id='1943'> +5.1441224e-01 </wgt>
<wgt id='1944'> +5.1745822e-01 </wgt>
<wgt id='1945'> +5.1566883e-01 </wgt>
<wgt id='1946'> +5.0642502e-01 </wgt>
<wgt id='1947'> +5.1108705e-01 </wgt>
<wgt id='1948'> +5.2753085e-01 </wgt>
<wgt id='1949'> +5.3487018e-01 </wgt>
<wgt id='1950'> +5.3093586e-01 </wgt>
<wgt id='1951'> +5.2784937e-01 </wgt>
<wgt id='1952'> +5.4004334e-01 </wgt>
<wgt id='1953'> +5.2654857e-01 </wgt>
<wgt id='1954'> +5.2995738e-01 </wgt>
<wgt id='1955'> +5.2916613e-01 </wgt>
<wgt id='1956'> +5.1599387e-01 </wgt>
<wgt id='1957'> +5.3336293e-01 </wgt>
<wgt id='1958'> +5.2637145e-01 </wgt>
<wgt id='1959'> +5.3155959e-01 </wgt>
<wgt id='1960'> +5.3918813e-01 </wgt>
<wgt id='1961'> +5.3079451e-01 </wgt>
<wgt id='1962'> +5.2859224e-01 </wgt>
<wgt id='1963'> +5.2734072e-01 </wgt>
<wgt id='1964'> +5.2681640e-01 </wgt>
<wgt id='1965'> +5.2133129e-01 </wgt>
<wgt id='1966'> +5.3531738e-01 </wgt>
<wgt id='1967'> +5.2187810e-01 </wgt>
<wgt id='1968'> +5.2907672e-01 </wgt>
<wgt id='1969'> +5.2613967e-01 </wgt>
<wgt id='1970'> +5.2882108e-01 </wgt>
<wgt id='1971'> +5.2006393e-01 </wgt>
<wgt id='1972'> +5.2693074e-01 </wgt>
<wgt id='1973'> +5.2711859e-01 </wgt>
<wgt id='1974'> +5.1539393e-01 </wgt>
<wgt id='1975'> +4.9879019e-01 </wgt>
<wgt id='1976'> +5.1559043e-01 </wgt>
<wgt id='1977'> +5.1625703e-01 </wgt>
<wgt id='1978'> +5.2655901e-01 </wgt>
<wgt id='1979'> +5.3787845e-01 </wgt>
<wgt id='1980'> +4.9995122e-01 </wgt>
<wgt id='1981'> +5.2417535e-01 </wgt>
<wgt id='1982'> +5.0750016e-01 </wgt>
<wgt id='1983'> +4.8175340e-01 </wgt>
<wgt id='1984'> +5.3149067e-01 </wgt>
<wgt id='1985'> +5.1019594e-01 </wgt>
<wgt id='1986'> +5.9639848e-01 </wgt>
<wgt id='1987'> +5.0903030e-01 </wgt>
<wgt id='1988'> +5.2417851e-01 </wgt>
<wgt id='1989'> +5.2248082e-01 </wgt>
<wgt id='1990'> +5.3015856e-01 </wgt>
<wgt id='1991'> +5.3187484e-01 </wgt>
<wgt id='1992'> +5.3309511e-01 </wgt>
<wgt id='1993'> +5.3068727e-01 </wgt>
<wgt id='1994'> +5.2399161e-01 </wgt>
<wgt id='1995'> +5.4632491e-01 </wgt>
<wgt id='1996'> +5.1679232e-01 </wgt>
<wgt id='1997'> +5.4239752e-01 </wgt>
<wgt id='1998'> +5.2792415e-01 </wgt>
<wgt id='1999'> +5.2860738e-01 </wgt>
<wgt id='2000'> +5.3415206e-01 </wgt>
<wgt id='2001'> +5.3300940e-01 </wgt>
<wgt id='2002'> +5.4633471e-01 </wgt>
<wgt id='2003'> +5.2690228e-01 </wgt>
<wgt id='2004'> +5.1429128e-01 </wgt>
<wgt id='2005'> +5.2279147e-01 </wgt>
<wgt id='2006'> +5.2688445e-01 </wgt>
<wgt id='2007'> +5.1881738e-01 </wgt>
<wgt id='2008'> +5.1855965e-01 </wgt>
<wgt id='2009'> +5.2190317e-01 </wgt>
<wgt id='2010'> +5.4138362e-01 </wgt>
<wgt id='2011'> +5.4481678e-01 </wgt>
<wgt id='2012'> +5.1967147e-01 </wgt>
<wgt id='2013'> +5.4245996e-01 </wgt>
<wgt id='2014'> +4.9925578e-01 </wgt>
<wgt id='2015'> +5.3664539e-01 </wgt>
<wgt id='2016'> +5.1020980e-01 </wgt>
<wgt id='2017'> +5.2602680e-01 </wgt>
<wgt id='2018'> +5.2543102e-01 </wgt>
<wgt id='2019'> +5.0933824e-01 </wgt>
<wgt id='2020'> +5.2382368e-01 </wgt>
<wgt id='2021'> +5.2722233e-01 </wgt>
<wgt id='2022'> +5.2636364e-01 </wgt>
</rwgt>
</event>
<event>
 13 1 0.0079112 8.90896200e+01 7.81860800e-03 1.13192200e-01
       21 -1    0    0  502  503 +0.0000000000e+00 +0.0000000000e+00 +1.0484556246e+02 1.0484556246e+02 0.0000000000e+00 0.0000e+00 -1.0000e+00
        2 -1    0    0  501    0 +0.0000000000e+00 +0.0000000000e+00 -1.9268235490e+03 1.9268235490e+03 2.5500000000e-03 0.0000e+00 -1.0000e+00
  8000001  2    1    2  502    0 +3.4301388126e+01 -8.9138951272e+01 -1.0699596446e+03 1.2304211872e+03 6.0000026589e+02 0.0000e+00 0.0000e+00
        1  1    1    2  501    0 -4.0609746020e+01 +7.9085211342e+01 -7.7223963524e+02 7.7734012914e+02 5.0400000000e-03 0.0000e+00 -1.0000e+00
       -5  1    1    2    0  503 +6.3083578938e+00 +1.0053739930e+01 +2.0221293253e+01 2.3907795119e+01 4.6700000000e+00 0.0000e+00 1.0000e+00
        6  2    3    3  502    0 -2.0549010060e+02 -5.8294781802e+01 -2.5234631290e+02 3.7289831129e+02 1.7248195820e+02 0.0000e+00 0.0000e+00
        5  1    6    6  502    0 -6.0861107359e+01 -7.2429829928e+01 -1.5891532649e+02 1.8500282308e+02 4.6700000000e+00 0.0000e+00 -1.0000e+00
       24  2    6    6    0    0 -1.4462899324e+02 +1.4135048126e+01 -9.3430986402e+01 1.8789548821e+02 7.3878413622e+01 0.0000e+00 0.0000e+00
       14  1    8    8    0    0 -1.0512233280e+02 -7.9081578226e+00 -2.9304086963e+01 1.0941651305e+02 0.0000000000e+00 0.0000e+00 -1.0000e+00
      -13  1    8    8    0    0 -3.9506660433e+01 +2.2043205948e+01 -6.4126899440e+01 7.8478975164e+01 1.0566000000e-01 0.0000e+00 1.0000e+00
       23  2    3    3    0    0 +2.3979148872e+02 -3.0844169470e+01 -8.1761333166e+02 8.5752287590e+02 9.1665706431e+01 0.0000e+00 0.0000e+00
        5  1   11   11  504    0 +8.4992867655e+01 -1.4991697517e+01 -4.5128946545e+02 4.5949159848e+02 4.6700000000e+00 0.0000e+00 -1.0000e+00
       -5  1   11   11    0  504 +1.5479862107e+02 -1.5852471953e+01 -3.6632386621e+02 3.9803127742e+02 4.6700000000e+00 0.0000e+00 1.0000e+00
<mgrwt>
<rscale>  1 0.88522305e+02</rscale>
<asrwt>0</asrwt>
<pdfrwt beam="1">  1       21 0.16130088e-01 0.87958599e+02</pdfrwt>
<pdfrwt beam="2">  1        2 0.29643437e+00 0.89089624e+02</pdfrwt>
<totfact> 0.44338283e+03</totfact>
</mgrwt>
<rwgt>
<wgt id='1001'> +5.2878984e-01 </wgt>
<wgt id='1002'> +3.5023997e-01 </wgt>
<wgt id='1003'> +3.5013050e-01 </wgt>
<wgt id='1004'> +4.0422273e-01 </wgt>
<wgt id='1005'> +3.2228475e-01 </wgt>
<wgt id='1006'> +4.7640760e-01 </wgt>
<wgt id='1007'> +3.2322503e-01 </wgt>
<wgt id='1008'> +3.2312894e-01 </wgt>
<wgt id='1009'> +3.7031318e-01 </wgt>
<wgt id='1010'> +2.9859301e-01 </wgt>
<wgt id='1011'> +5.9461486e-01 </wgt>
<wgt id='1012'> +3.8231829e-01 </wgt>
<wgt id='1013'> +3.8219192e-01 </wgt>
<wgt id='1014'> +4.4517564e-01 </wgt>
<wgt id='1015'> +3.5016547e-01 </wgt>
<wgt id='1016'> +5.0083256e-01 </wgt>
<wgt id='1017'> +3.3161521e-01 </wgt>
<wgt id='1018'> +3.3151211e-01 </wgt>
<wgt id='1019'> +3.8219192e-01 </wgt>
<wgt id='1020'> +3.0521150e-01 </wgt>
<wgt id='1021'> +4.5121979e-01 </wgt>
<wgt id='1022'> +3.0603685e-01 </wgt>
<wgt id='1023'> +3.0594637e-01 </wgt>
<wgt id='1024'> +3.5013050e-01 </wgt>
<wgt id='1025'> +2.8277484e-01 </wgt>
<wgt id='1026'> +5.6317738e-01 </wgt>
<wgt id='1027'> +3.6198771e-01 </wgt>
<wgt id='1028'> +3.6186865e-01 </wgt>
<wgt id='1029'> +4.2091283e-01 </wgt>
<wgt id='1030'> +3.3161522e-01 </wgt>
<wgt id='1031'> +5.5645726e-01 </wgt>
<wgt id='1032'> +3.7042954e-01 </wgt>
<wgt id='1033'> +3.7031318e-01 </wgt>
<wgt id='1034'> +4.2723609e-01 </wgt>
<wgt id='1035'> +3.4058293e-01 </wgt>
<wgt id='1036'> +5.0133427e-01 </wgt>
<wgt id='1037'> +3.4185733e-01 </wgt>
<wgt id='1038'> +3.4175516e-01 </wgt>
<wgt id='1039'> +3.9139599e-01 </wgt>
<wgt id='1040'> +3.1554605e-01 </wgt>
<wgt id='1041'> +6.2572638e-01 </wgt>
<wgt id='1042'> +4.0435702e-01 </wgt>
<wgt id='1043'> +4.0422273e-01 </wgt>
<wgt id='1044'> +4.7052055e-01 </wgt>
<wgt id='1045'> +3.7004662e-01 </wgt>
<wgt id='1046'> +5.2878984e-01 </wgt>
<wgt id='1047'> +5.2878984e-01 </wgt>
<wgt id='1048'> +5.2878984e-01 </wgt>
<wgt id='1049'> +5.2901007e-01 </wgt>
<wgt id='1050'> +5.2808115e-01 </wgt>
<wgt id='1051'> +5.2993632e-01 </wgt>
<wgt id='1052'> +5.2815493e-01 </wgt>
<wgt id='1053'> +5.3119920e-01 </wgt>
<wgt id='1054'> +5.2907359e-01 </wgt>
<wgt id='1055'> +5.3038657e-01 </wgt>
<wgt id='1056'> +5.3091262e-01 </wgt>
<wgt id='1057'> +5.2784683e-01 </wgt>
<wgt id='1058'> +5.2870469e-01 </wgt>
<wgt id='1059'> +5.2589427e-01 </wgt>
<wgt id='1060'> +5.2925539e-01 </wgt>
<wgt id='1061'> +5.2825728e-01 </wgt>
<wgt id='1062'> +5.2912138e-01 </wgt>
<wgt id='1063'> +5.2789903e-01 </wgt>
<wgt id='1064'> +5.2764263e-01 </wgt>
<wgt id='1065'> +5.2838243e-01 </wgt>
<wgt id='1066'> +5.2954961e-01 </wgt>
<wgt id='1067'> +5.2991375e-01 </wgt>
<wgt id='1068'> +5.2726587e-01 </wgt>
<wgt id='1069'> +5.3001008e-01 </wgt>
<wgt id='1070'> +5.2927629e-01 </wgt>
<wgt id='1071'> +5.2833424e-01 </wgt>
<wgt id='1072'> +5.2989297e-01 </wgt>
<wgt id='1073'> +5.2869348e-01 </wgt>
<wgt id='1074'> +5.2977619e-01 </wgt>
<wgt id='1075'> +5.2651080e-01 </wgt>
<wgt id='1076'> +5.3038306e-01 </wgt>
<wgt id='1077'> +5.3118913e-01 </wgt>
<wgt id='1078'> +5.2767594e-01 </wgt>
<wgt id='1079'> +5.3187205e-01 </wgt>
<wgt id='1080'> +5.3098322e-01 </wgt>
<wgt id='1081'> +5.2935881e-01 </wgt>
<wgt id='1082'> +5.3005979e-01 </wgt>
<wgt id='1083'> +5.2784507e-01 </wgt>
<wgt id='1084'> +5.2686377e-01 </wgt>
<wgt id='1085'> +5.2968311e-01 </wgt>
<wgt id='1086'> +5.2804204e-01 </wgt>
<wgt id='1087'> +5.2879815e-01 </wgt>
<wgt id='1088'> +5.2849111e-01 </wgt>
<wgt id='1089'> +5.2798907e-01 </wgt>
<wgt id='1090'> +5.2820847e-01 </wgt>
<wgt id='1091'> +5.2756964e-01 </wgt>
<wgt id='1092'> +5.2822140e-01 </wgt>
<wgt id='1093'> +5.2866780e-01 </wgt>
<wgt id='1094'> +5.2955414e-01 </wgt>
<wgt id='1095'> +5.2773568e-01 </wgt>
<wgt id='1096'> +5.2856285e-01 </wgt>
<wgt id='1097'> +5.2865174e-01 </wgt>
<wgt id='1098'> +5.2873197e-01 </wgt>
<wgt id='1099'> +5.2911952e-01 </wgt>
<wgt id='1100'> +5.2899487e-01 </wgt>
<wgt id='1101'> +5.2859157e-01 </wgt>
<wgt id='1102'> +5.2814230e-01 </wgt>
<wgt id='1103'> +5.2954355e-01 </wgt>
<wgt id='1104'> +5.2897799e-01 </wgt>
<wgt id='1105'> +5.2860506e-01 </wgt>
<wgt id='1106'> +5.2905401e-01 </wgt>
<wgt id='1107'> +5.2797733e-01 </wgt>
<wgt id='1108'> +5.2883884e-01 </wgt>
<wgt id='1109'> +5.2951553e-01 </wgt>
<wgt id='1110'> +5.2879071e-01 </wgt>
<wgt id='1111'> +5.2830674e-01 </wgt>
<wgt id='1112'> +5.2936184e-01 </wgt>
<wgt id='1113'> +5.2786452e-01 </wgt>
<wgt id='1114'> +5.2753213e-01 </wgt>
<wgt id='1115'> +5.2946929e-01 </wgt>
<wgt id='1116'> +5.2915698e-01 </wgt>
<wgt id='1117'> +5.2934660e-01 </wgt>
<wgt id='1118'> +5.2906536e-01 </wgt>
<wgt id='1119'> +5.2959096e-01 </wgt>
<wgt id='1120'> +5.2853159e-01 </wgt>
<wgt id='1121'> +5.2928590e-01 </wgt>
<wgt id='1122'> +5.2931987e-01 </wgt>
<wgt id='1123'> +5.2911457e-01 </wgt>
<wgt id='1124'> +5.2841382e-01 </wgt>
<wgt id='1125'> +5.2863766e-01 </wgt>
<wgt id='1126'> +5.2893435e-01 </wgt>
<wgt id='1127'> +5.2855696e-01 </wgt>
<wgt id='1128'> +5.2885711e-01 </wgt>
<wgt id='1129'> +5.2832084e-01 </wgt>
<wgt id='1130'> +5.2891796e-01 </wgt>
<wgt id='1131'> +5.2887573e-01 </wgt>
<wgt id='1132'> +5.2894384e-01 </wgt>
<wgt id='1133'> +5.2888006e-01 </wgt>
<wgt id='1134'> +5.2854221e-01 </wgt>
<wgt id='1135'> +5.2886561e-01 </wgt>
<wgt id='1136'> +5.2912098e-01 </wgt>
<wgt id='1137'> +5.2864662e-01 </wgt>
<wgt id='1138'> +5.2907901e-01 </wgt>
<wgt id='1139'> +5.2889523e-01 </wgt>
<wgt id='1140'> +5.2923314e-01 </wgt>
<wgt id='1141'> +5.2856339e-01 </wgt>
<wgt id='1142'> +5.2891884e-01 </wgt>
<wgt id='1143'> +5.2892195e-01 </wgt>
<wgt id='1144'> +5.2876350e-01 </wgt>
<wgt id='1145'> +5.2875620e-01 </wgt>
<wgt id='1146'> +5.2883596e-01 </wgt>
<wgt id='1147'> +5.2884829e-01 </wgt>
<wgt id='1148'> +5.2878984e-01 </wgt>
<wgt id='1149'> +5.2354423e-01 </wgt>
<wgt id='1150'> +5.1190796e-01 </wgt>
<wgt id='1151'> +5.1913170e-01 </wgt>
<wgt id='1152'> +5.2717061e-01 </wgt>
<wgt id='1153'> +5.1589101e-01 </wgt>
<wgt id='1154'> +5.2472223e-01 </wgt>
<wgt id='1155'> +5.2227434e-01 </wgt>
<wgt id='1156'> +5.2248241e-01 </wgt>
<wgt id='1157'> +5.3053140e-01 </wgt>
<wgt id='1158'> +5.3444458e-01 </wgt>
<wgt id='1159'> +4.9994402e-01 </wgt>
<wgt id='1160'> +5.1895618e-01 </wgt>
<wgt id='1161'> +5.2494880e-01 </wgt>
<wgt id='1162'> +5.1111748e-01 </wgt>
<wgt id='1163'> +5.2305344e-01 </wgt>
<wgt id='1164'> +5.4087638e-01 </wgt>
<wgt id='1165'> +5.3012120e-01 </wgt>
<wgt id='1166'> +5.3573816e-01 </wgt>
<wgt id='1167'> +5.2386758e-01 </wgt>
<wgt id='1168'> +5.2448363e-01 </wgt>
<wgt id='1169'> +5.2415314e-01 </wgt>
<wgt id='1170'> +5.3112538e-01 </wgt>
<wgt id='1171'> +5.3330397e-01 </wgt>
<wgt id='1172'> +5.3375475e-01 </wgt>
<wgt id='1173'> +5.1610967e-01 </wgt>
<wgt id='1174'> +5.3427951e-01 </wgt>
<wgt id='1175'> +5.2836204e-01 </wgt>
<wgt id='1176'> +5.1203597e-01 </wgt>
<wgt id='1177'> +5.2511482e-01 </wgt>
<wgt id='1178'> +5.2830127e-01 </wgt>
<wgt id='1179'> +5.1715885e-01 </wgt>
<wgt id='1180'> +5.3440780e-01 </wgt>
<wgt id='1181'> +5.1882939e-01 </wgt>
<wgt id='1182'> +5.2969232e-01 </wgt>
<wgt id='1183'> +5.1730488e-01 </wgt>
<wgt id='1184'> +5.2750743e-01 </wgt>
<wgt id='1185'> +5.2905870e-01 </wgt>
<wgt id='1186'> +5.2082568e-01 </wgt>
<wgt id='1187'> +5.2208279e-01 </wgt>
<wgt id='1188'> +5.0936641e-01 </wgt>
<wgt id='1189'> +5.2590974e-01 </wgt>
<wgt id='1190'> +5.2724371e-01 </wgt>
<wgt id='1191'> +5.1147063e-01 </wgt>
<wgt id='1192'> +5.1764521e-01 </wgt>
<wgt id='1193'> +5.2017461e-01 </wgt>
<wgt id='1194'> +5.2314868e-01 </wgt>
<wgt id='1195'> +5.2060584e-01 </wgt>
<wgt id='1196'> +5.1093248e-01 </wgt>
<wgt id='1197'> +5.1549168e-01 </wgt>
<wgt id='1198'> +5.2941693e-01 </wgt>
<wgt id='1199'> +5.2854433e-01 </wgt>
<wgt id='1200'> +5.2080222e-01 </wgt>
<wgt id='1201'> +5.2990492e-01 </wgt>
<wgt id='1202'> +5.2100248e-01 </wgt>
<wgt id='1203'> +5.2989603e-01 </wgt>
<wgt id='1204'> +5.2814768e-01 </wgt>
<wgt id='1205'> +5.1612256e-01 </wgt>
<wgt id='1206'> +5.2771698e-01 </wgt>
<wgt id='1207'> +5.2612486e-01 </wgt>
<wgt id='1208'> +5.4042142e-01 </wgt>
<wgt id='1209'> +5.3834371e-01 </wgt>
<wgt id='1210'> +5.1354972e-01 </wgt>
<wgt id='1211'> +5.2313839e-01 </wgt>
<wgt id='1212'> +5.2022032e-01 </wgt>
<wgt id='1213'> +5.3094638e-01 </wgt>
<wgt id='1214'> +5.3516872e-01 </wgt>
<wgt id='1215'> +5.1245329e-01 </wgt>
<wgt id='1216'> +5.1772819e-01 </wgt>
<wgt id='1217'> +5.2106781e-01 </wgt>
<wgt id='1218'> +5.1679083e-01 </wgt>
<wgt id='1219'> +5.1524213e-01 </wgt>
<wgt id='1220'> +5.3228423e-01 </wgt>
<wgt id='1221'> +5.0974294e-01 </wgt>
<wgt id='1222'> +5.2972999e-01 </wgt>
<wgt id='1223'> +5.3035020e-01 </wgt>
<wgt id='1224'> +5.1507271e-01 </wgt>
<wgt id='1225'> +5.3221248e-01 </wgt>
<wgt id='1226'> +5.1231536e-01 </wgt>
<wgt id='1227'> +5.4043463e-01 </wgt>
<wgt id='1228'> +5.2701048e-01 </wgt>
<wgt id='1229'> +4.9744125e-01 </wgt>
<wgt id='1230'> +5.1922333e-01 </wgt>
<wgt id='1231'> +5.3012120e-01 </wgt>
<wgt id='1232'> +5.1530842e-01 </wgt>
<wgt id='1233'> +5.2694972e-01 </wgt>
<wgt id='1234'> +5.3098024e-01 </wgt>
<wgt id='1235'> +5.0151031e-01 </wgt>
<wgt id='1236'> +5.3668678e-01 </wgt>
<wgt id='1237'> +5.1551671e-01 </wgt>
<wgt id='1238'> +5.1956900e-01 </wgt>
<wgt id='1239'> +5.2971084e-01 </wgt>
<wgt id='1240'> +5.3609362e-01 </wgt>
<wgt id='1241'> +5.3694395e-01 </wgt>
<wgt id='1242'> +5.2957493e-01 </wgt>
<wgt id='1243'> +5.1929452e-01 </wgt>
<wgt id='1244'> +5.1673486e-01 </wgt>
<wgt id='1245'> +5.3109272e-01 </wgt>
<wgt id='1246'> +5.0714127e-01 </wgt>
<wgt id='1247'> +5.1933781e-01 </wgt>
<wgt id='1248'> +5.2508562e-01 </wgt>
<wgt id='1249'> +5.2968553e-01 </wgt>
<wgt id='1250'> +5.2417938e-01 </wgt>
<wgt id='1251'> +5.1957220e-01 </wgt>
<wgt id='1252'> +5.2241726e-01 </wgt>
<wgt id='1253'> +5.2584761e-01 </wgt>
<wgt id='1254'> +5.0999121e-01 </wgt>
<wgt id='1255'> +5.7573565e-01 </wgt>
<wgt id='1256'> +5.7974360e-01 </wgt>
<wgt id='1257'> +5.7342497e-01 </wgt>
<wgt id='1258'> +5.7517172e-01 </wgt>
<wgt id='1259'> +5.7601518e-01 </wgt>
<wgt id='1260'> +5.7712699e-01 </wgt>
<wgt id='1261'> +5.7388234e-01 </wgt>
<wgt id='1262'> +5.7673563e-01 </wgt>
<wgt id='1263'> +5.7510348e-01 </wgt>
<wgt id='1264'> +5.7483800e-01 </wgt>
<wgt id='1265'> +5.7636267e-01 </wgt>
<wgt id='1266'> +5.7573303e-01 </wgt>
<wgt id='1267'> +5.7575083e-01 </wgt>
<wgt id='1268'> +5.7950485e-01 </wgt>
<wgt id='1269'> +5.7195072e-01 </wgt>
<wgt id='1270'> +5.7645468e-01 </wgt>
<wgt id='1271'> +5.7416583e-01 </wgt>
<wgt id='1272'> +5.7725799e-01 </wgt>
<wgt id='1273'> +5.7456369e-01 </wgt>
<wgt id='1274'> +5.7374389e-01 </wgt>
<wgt id='1275'> +5.7824724e-01 </wgt>
<wgt id='1276'> +5.7337318e-01 </wgt>
<wgt id='1277'> +5.7821017e-01 </wgt>
<wgt id='1278'> +5.7386304e-01 </wgt>
<wgt id='1279'> +5.7730390e-01 </wgt>
<wgt id='1280'> +5.7607293e-01 </wgt>
<wgt id='1281'> +5.7472708e-01 </wgt>
<wgt id='1282'> +5.7931600e-01 </wgt>
<wgt id='1283'> +5.7143656e-01 </wgt>
<wgt id='1284'> +5.7363934e-01 </wgt>
<wgt id='1285'> +5.7777283e-01 </wgt>
<wgt id='1286'> +5.7877912e-01 </wgt>
<wgt id='1287'> +5.7556623e-01 </wgt>
<wgt id='1288'> +5.7515051e-01 </wgt>
<wgt id='1289'> +5.7593943e-01 </wgt>
<wgt id='1290'> +5.7656269e-01 </wgt>
<wgt id='1291'> +5.7545186e-01 </wgt>
<wgt id='1292'> +5.7692166e-01 </wgt>
<wgt id='1293'> +5.7289366e-01 </wgt>
<wgt id='1294'> +5.7218875e-01 </wgt>
<wgt id='1295'> +5.7689238e-01 </wgt>
<wgt id='1296'> +5.2653792e-01 </wgt>
<wgt id='1297'> +5.2766815e-01 </wgt>
<wgt id='1298'> +5.2561049e-01 </wgt>
<wgt id='1299'> +5.2466961e-01 </wgt>
<wgt id='1300'> +5.2860523e-01 </wgt>
<wgt id='1301'> +5.2538086e-01 </wgt>
<wgt id='1302'> +5.2823929e-01 </wgt>
<wgt id='1303'> +5.2645291e-01 </wgt>
<wgt id='1304'> +5.2658979e-01 </wgt>
<wgt id='1305'> +5.2701796e-01 </wgt>
<wgt id='1306'> +5.2585798e-01 </wgt>
<wgt id='1307'> +5.2886761e-01 </wgt>
<wgt id='1308'> +5.2507588e-01 </wgt>
<wgt id='1309'> +5.2746757e-01 </wgt>
<wgt id='1310'> +5.2527694e-01 </wgt>
<wgt id='1311'> +5.2986834e-01 </wgt>
<wgt id='1312'> +5.2531075e-01 </wgt>
<wgt id='1313'> +5.2885918e-01 </wgt>
<wgt id='1314'> +5.2311060e-01 </wgt>
<wgt id='1315'> +5.2561661e-01 </wgt>
<wgt id='1316'> +5.2740976e-01 </wgt>
<wgt id='1317'> +5.2146471e-01 </wgt>
<wgt id='1318'> +5.3567833e-01 </wgt>
<wgt id='1319'> +5.2861931e-01 </wgt>
<wgt id='1320'> +5.2543488e-01 </wgt>
<wgt id='1321'> +5.2645545e-01 </wgt>
<wgt id='1322'> +5.2666169e-01 </wgt>
<wgt id='1323'> +5.2754237e-01 </wgt>
<wgt id='1324'> +5.2571473e-01 </wgt>
<wgt id='1325'> +5.2697103e-01 </wgt>
<wgt id='1326'> +5.2613109e-01 </wgt>
<wgt id='1327'> +5.2713622e-01 </wgt>
<wgt id='1328'> +5.2631981e-01 </wgt>
<wgt id='1329'> +5.2664026e-01 </wgt>
<wgt id='1330'> +5.2645865e-01 </wgt>
<wgt id='1331'> +5.2704552e-01 </wgt>
<wgt id='1332'> +5.2702858e-01 </wgt>
<wgt id='1333'> +5.2705377e-01 </wgt>
<wgt id='1334'> +5.2350982e-01 </wgt>
<wgt id='1335'> +5.2779741e-01 </wgt>
<wgt id='1336'> +5.2626548e-01 </wgt>
<wgt id='1337'> +5.2653792e-01 </wgt>
<wgt id='1338'> +5.2601355e-01 </wgt>
<wgt id='1339'> +5.2621944e-01 </wgt>
<wgt id='1340'> +5.2640566e-01 </wgt>
<wgt id='1341'> +5.2670057e-01 </wgt>
<wgt id='1342'> +5.2685981e-01 </wgt>
<wgt id='1343'> +5.2694334e-01 </wgt>
<wgt id='1344'> +5.2090331e-01 </wgt>
<wgt id='1345'> +5.2230630e-01 </wgt>
<wgt id='1346'> +5.1950600e-01 </wgt>
<wgt id='1347'> +5.2428723e-01 </wgt>
<wgt id='1348'> +5.1841295e-01 </wgt>
<wgt id='1349'> +5.2045998e-01 </wgt>
<wgt id='1350'> +5.2127615e-01 </wgt>
<wgt id='1351'> +5.2092888e-01 </wgt>
<wgt id='1352'> +5.2087886e-01 </wgt>
<wgt id='1353'> +5.2214453e-01 </wgt>
<wgt id='1354'> +5.2003450e-01 </wgt>
<wgt id='1355'> +5.1937732e-01 </wgt>
<wgt id='1356'> +5.2208424e-01 </wgt>
<wgt id='1357'> +5.2080833e-01 </wgt>
<wgt id='1358'> +5.2093885e-01 </wgt>
<wgt id='1359'> +5.1958025e-01 </wgt>
<wgt id='1360'> +5.2417448e-01 </wgt>
<wgt id='1361'> +5.2720663e-01 </wgt>
<wgt id='1362'> +5.1587550e-01 </wgt>
<wgt id='1363'> +5.2272413e-01 </wgt>
<wgt id='1364'> +5.1875149e-01 </wgt>
<wgt id='1365'> +5.2078216e-01 </wgt>
<wgt id='1366'> +5.2107638e-01 </wgt>
<wgt id='1367'> +5.2025503e-01 </wgt>
<wgt id='1368'> +5.2132074e-01 </wgt>
<wgt id='1369'> +5.1838157e-01 </wgt>
<wgt id='1370'> +5.2332739e-01 </wgt>
<wgt id='1371'> +5.2100604e-01 </wgt>
<wgt id='1372'> +5.2120247e-01 </wgt>
<wgt id='1373'> +5.2112449e-01 </wgt>
<wgt id='1374'> +5.1984005e-01 </wgt>
<wgt id='1375'> +5.2179265e-01 </wgt>
<wgt id='1376'> +5.2060226e-01 </wgt>
<wgt id='1377'> +5.2101326e-01 </wgt>
<wgt id='1378'> +5.2054383e-01 </wgt>
<wgt id='1379'> +5.2217524e-01 </wgt>
<wgt id='1380'> +5.2105118e-01 </wgt>
<wgt id='1381'> +5.2016207e-01 </wgt>
<wgt id='1382'> +5.1911885e-01 </wgt>
<wgt id='1383'> +5.2079843e-01 </wgt>
<wgt id='1384'> +5.2168351e-01 </wgt>
<wgt id='1385'> +5.2090331e-01 </wgt>
<wgt id='1386'> +5.2014107e-01 </wgt>
<wgt id='1387'> +5.2040085e-01 </wgt>
<wgt id='1388'> +5.2066302e-01 </wgt>
<wgt id='1389'> +5.2107020e-01 </wgt>
<wgt id='1390'> +5.2125922e-01 </wgt>
<wgt id='1391'> +5.2141779e-01 </wgt>
<wgt id='1392'> +5.5024916e-01 </wgt>
<wgt id='1393'> +5.5027425e-01 </wgt>
<wgt id='1394'> +5.5021990e-01 </wgt>
<wgt id='1395'> +5.5047607e-01 </wgt>
<wgt id='1396'> +5.5008515e-01 </wgt>
<wgt id='1397'> +5.5199997e-01 </wgt>
<wgt id='1398'> +5.4855332e-01 </wgt>
<wgt id='1399'> +5.5270535e-01 </wgt>
<wgt id='1400'> +5.4721337e-01 </wgt>
<wgt id='1401'> +5.4849916e-01 </wgt>
<wgt id='1402'> +5.5239521e-01 </wgt>
<wgt id='1403'> +5.4990711e-01 </wgt>
<wgt id='1404'> +5.5093585e-01 </wgt>
<wgt id='1405'> +5.4957909e-01 </wgt>
<wgt id='1406'> +5.5118458e-01 </wgt>
<wgt id='1407'> +5.4920319e-01 </wgt>
<wgt id='1408'> +5.5097398e-01 </wgt>
<wgt id='1409'> +5.5148341e-01 </wgt>
<wgt id='1410'> +5.4881058e-01 </wgt>
<wgt id='1411'> +5.5007638e-01 </wgt>
<wgt id='1412'> +5.5038777e-01 </wgt>
<wgt id='1413'> +5.5301871e-01 </wgt>
<wgt id='1414'> +5.4731843e-01 </wgt>
<wgt id='1415'> +5.5179023e-01 </wgt>
<wgt id='1416'> +5.4849852e-01 </wgt>
<wgt id='1417'> +5.5143624e-01 </wgt>
<wgt id='1418'> +5.4864145e-01 </wgt>
<wgt id='1419'> +5.5094121e-01 </wgt>
<wgt id='1420'> +5.5004282e-01 </wgt>
<wgt id='1421'> +5.5429971e-01 </wgt>
<wgt id='1422'> +5.4564883e-01 </wgt>
<wgt id='1423'> +5.5337611e-01 </wgt>
<wgt id='1424'> +5.4755745e-01 </wgt>
<wgt id='1425'> +5.5024419e-01 </wgt>
<wgt id='1426'> +5.5021285e-01 </wgt>
<wgt id='1427'> +5.4888179e-01 </wgt>
<wgt id='1428'> +5.5112437e-01 </wgt>
<wgt id='1429'> +5.5011329e-01 </wgt>
<wgt id='1430'> +5.5054165e-01 </wgt>
<wgt id='1431'> +5.5025278e-01 </wgt>
<wgt id='1432'> +5.5006794e-01 </wgt>
<wgt id='1433'> +5.4845799e-01 </wgt>
<wgt id='1434'> +5.5174927e-01 </wgt>
<wgt id='1435'> +5.5041866e-01 </wgt>
<wgt id='1436'> +5.5092248e-01 </wgt>
<wgt id='1437'> +5.4988395e-01 </wgt>
<wgt id='1438'> +5.5110522e-01 </wgt>
<wgt id='1439'> +5.5023595e-01 </wgt>
<wgt id='1440'> +5.4792665e-01 </wgt>
<wgt id='1441'> +5.5063454e-01 </wgt>
<wgt id='1442'> +5.5097643e-01 </wgt>
<wgt id='1443'> +5.4776955e-01 </wgt>
<wgt id='1444'> +5.4781913e-01 </wgt>
<wgt id='1445'> +5.4771352e-01 </wgt>
<wgt id='1446'> +5.4801043e-01 </wgt>
<wgt id='1447'> +5.4760884e-01 </wgt>
<wgt id='1448'> +5.4965447e-01 </wgt>
<wgt id='1449'> +5.4601364e-01 </wgt>
<wgt id='1450'> +5.5014331e-01 </wgt>
<wgt id='1451'> +5.4512367e-01 </wgt>
<wgt id='1452'> +5.4607537e-01 </wgt>
<wgt id='1453'> +5.4940265e-01 </wgt>
<wgt id='1454'> +5.4731946e-01 </wgt>
<wgt id='1455'> +5.4875399e-01 </wgt>
<wgt id='1456'> +5.4693787e-01 </wgt>
<wgt id='1457'> +5.4925933e-01 </wgt>
<wgt id='1458'> +5.4682097e-01 </wgt>
<wgt id='1459'> +5.4831139e-01 </wgt>
<wgt id='1460'> +5.4894096e-01 </wgt>
<wgt id='1461'> +5.4633606e-01 </wgt>
<wgt id='1462'> +5.4735325e-01 </wgt>
<wgt id='1463'> +5.4811675e-01 </wgt>
<wgt id='1464'> +5.5018820e-01 </wgt>
<wgt id='1465'> +5.4459923e-01 </wgt>
<wgt id='1466'> +5.4951948e-01 </wgt>
<wgt id='1467'> +5.4635994e-01 </wgt>
<wgt id='1468'> +5.4511382e-01 </wgt>
<wgt id='1469'> +5.5031841e-01 </wgt>
<wgt id='1470'> +5.4848127e-01 </wgt>
<wgt id='1471'> +5.4757574e-01 </wgt>
<wgt id='1472'> +5.5112523e-01 </wgt>
<wgt id='1473'> +5.4382615e-01 </wgt>
<wgt id='1474'> +5.5005519e-01 </wgt>
<wgt id='1475'> +5.4486523e-01 </wgt>
<wgt id='1476'> +5.4736415e-01 </wgt>
<wgt id='1477'> +5.4805541e-01 </wgt>
<wgt id='1478'> +5.4650111e-01 </wgt>
<wgt id='1479'> +5.4876863e-01 </wgt>
<wgt id='1480'> +5.4781146e-01 </wgt>
<wgt id='1481'> +5.4799296e-01 </wgt>
<wgt id='1482'> +5.4769483e-01 </wgt>
<wgt id='1483'> +5.4766279e-01 </wgt>
<wgt id='1484'> +5.4594128e-01 </wgt>
<wgt id='1485'> +5.4938726e-01 </wgt>
<wgt id='1486'> +5.4795327e-01 </wgt>
<wgt id='1487'> +5.4837799e-01 </wgt>
<wgt id='1488'> +5.4736578e-01 </wgt>
<wgt id='1489'> +5.4864834e-01 </wgt>
<wgt id='1490'> +5.4812590e-01 </wgt>
<wgt id='1491'> +5.4531253e-01 </wgt>
<wgt id='1492'> +5.4822780e-01 </wgt>
<wgt id='1493'> +5.4860431e-01 </wgt>
<wgt id='1494'> +5.2625706e-01 </wgt>
<wgt id='1495'> +5.2324777e-01 </wgt>
<wgt id='1496'> +5.2435178e-01 </wgt>
<wgt id='1497'> +5.2539940e-01 </wgt>
<wgt id='1498'> +5.2666712e-01 </wgt>
<wgt id='1499'> +5.2613737e-01 </wgt>
<wgt id='1500'> +5.2874785e-01 </wgt>
<wgt id='1501'> +5.2816579e-01 </wgt>
<wgt id='1502'> +5.2764873e-01 </wgt>
<wgt id='1503'> +5.2711998e-01 </wgt>
<wgt id='1504'> +5.2663106e-01 </wgt>
<wgt id='1505'> +5.2572817e-01 </wgt>
<wgt id='1506'> +5.2535240e-01 </wgt>
<wgt id='1507'> +5.2501926e-01 </wgt>
<wgt id='1508'> +5.2613737e-01 </wgt>
<wgt id='1509'> +5.2606988e-01 </wgt>
<wgt id='1510'> +5.2609855e-01 </wgt>
<wgt id='1511'> +5.2618342e-01 </wgt>
<wgt id='1512'> +5.2614364e-01 </wgt>
<wgt id='1513'> +5.2371892e-01 </wgt>
<wgt id='1514'> +5.2352371e-01 </wgt>
<wgt id='1515'> +5.2397845e-01 </wgt>
<wgt id='1516'> +5.2467177e-01 </wgt>
<wgt id='1517'> +5.2278213e-01 </wgt>
<wgt id='1518'> +5.2451041e-01 </wgt>
<wgt id='1519'> +5.2340803e-01 </wgt>
<wgt id='1520'> +5.2685941e-01 </wgt>
<wgt id='1521'> +5.2058851e-01 </wgt>
<wgt id='1522'> +5.2280287e-01 </wgt>
<wgt id='1523'> +5.2460761e-01 </wgt>
<wgt id='1524'> +5.2558071e-01 </wgt>
<wgt id='1525'> +5.2290999e-01 </wgt>
<wgt id='1526'> +5.2396061e-01 </wgt>
<wgt id='1527'> +5.2344005e-01 </wgt>
<wgt id='1528'> +5.2234796e-01 </wgt>
<wgt id='1529'> +5.2521496e-01 </wgt>
<wgt id='1530'> +5.2656679e-01 </wgt>
<wgt id='1531'> +5.2209430e-01 </wgt>
<wgt id='1532'> +5.2420590e-01 </wgt>
<wgt id='1533'> +5.2303964e-01 </wgt>
<wgt id='1534'> +5.2178043e-01 </wgt>
<wgt id='1535'> +5.2509051e-01 </wgt>
<wgt id='1536'> +5.2222626e-01 </wgt>
<wgt id='1537'> +5.2514295e-01 </wgt>
<wgt id='1538'> +5.2356097e-01 </wgt>
<wgt id='1539'> +5.2385662e-01 </wgt>
<wgt id='1540'> +5.2424587e-01 </wgt>
<wgt id='1541'> +5.2344629e-01 </wgt>
<wgt id='1542'> +5.2134958e-01 </wgt>
<wgt id='1543'> +5.3032259e-01 </wgt>
<wgt id='1544'> +5.2408883e-01 </wgt>
<wgt id='1545'> +5.2211036e-01 </wgt>
<wgt id='1546'> +5.2246773e-01 </wgt>
<wgt id='1547'> +5.2521625e-01 </wgt>
<wgt id='1548'> +5.2542040e-01 </wgt>
<wgt id='1549'> +5.2210481e-01 </wgt>
<wgt id='1550'> +5.2385197e-01 </wgt>
<wgt id='1551'> +5.2352243e-01 </wgt>
<wgt id='1552'> +5.2377615e-01 </wgt>
<wgt id='1553'> +5.2349944e-01 </wgt>
<wgt id='1554'> +5.2394188e-01 </wgt>
<wgt id='1555'> +5.2197462e-01 </wgt>
<wgt id='1556'> +5.2425792e-01 </wgt>
<wgt id='1557'> +5.2439651e-01 </wgt>
<wgt id='1558'> +5.2145520e-01 </wgt>
<wgt id='1559'> +5.2418684e-01 </wgt>
<wgt id='1560'> +5.2473289e-01 </wgt>
<wgt id='1561'> +5.2311890e-01 </wgt>
<wgt id='1562'> +5.2211851e-01 </wgt>
<wgt id='1563'> +5.2399586e-01 </wgt>
<wgt id='1564'> +5.2371892e-01 </wgt>
<wgt id='1565'> +5.2301609e-01 </wgt>
<wgt id='1566'> +5.2289189e-01 </wgt>
<wgt id='1567'> +5.2320633e-01 </wgt>
<wgt id='1568'> +5.2559071e-01 </wgt>
<wgt id='1569'> +5.2502682e-01 </wgt>
<wgt id='1570'> +5.2450871e-01 </wgt>
<wgt id='1571'> +5.2407610e-01 </wgt>
<wgt id='1572'> +5.2354301e-01 </wgt>
<wgt id='1573'> +5.2296411e-01 </wgt>
<wgt id='1574'> +5.2241806e-01 </wgt>
<wgt id='1575'> +5.2211929e-01 </wgt>
<wgt id='1576'> +5.2320633e-01 </wgt>
<wgt id='1577'> +5.2311207e-01 </wgt>
<wgt id='1578'> +5.2317283e-01 </wgt>
<wgt id='1579'> +5.2321615e-01 </wgt>
<wgt id='1580'> +5.2323385e-01 </wgt>
<wgt id='1581'> +5.2636158e-01 </wgt>
<wgt id='1582'> +5.2652182e-01 </wgt>
<wgt id='1583'> +5.2743245e-01 </wgt>
<wgt id='1584'> +5.2355767e-01 </wgt>
<wgt id='1585'> +5.2774493e-01 </wgt>
<wgt id='1586'> +5.2451353e-01 </wgt>
<wgt id='1587'> +5.1984902e-01 </wgt>
<wgt id='1588'> +5.2897495e-01 </wgt>
<wgt id='1589'> +5.2615406e-01 </wgt>
<wgt id='1590'> +5.2601112e-01 </wgt>
<wgt id='1591'> +5.2518813e-01 </wgt>
<wgt id='1592'> +5.3166851e-01 </wgt>
<wgt id='1593'> +5.2703990e-01 </wgt>
<wgt id='1594'> +5.2634320e-01 </wgt>
<wgt id='1595'> +5.2616648e-01 </wgt>
<wgt id='1596'> +5.2804516e-01 </wgt>
<wgt id='1597'> +5.2724000e-01 </wgt>
<wgt id='1598'> +5.2682970e-01 </wgt>
<wgt id='1599'> +5.2674788e-01 </wgt>
<wgt id='1600'> +5.2711292e-01 </wgt>
<wgt id='1601'> +5.2585929e-01 </wgt>
<wgt id='1602'> +5.2729392e-01 </wgt>
<wgt id='1603'> +5.2698037e-01 </wgt>
<wgt id='1604'> +5.2685393e-01 </wgt>
<wgt id='1605'> +5.2595772e-01 </wgt>
<wgt id='1606'> +5.2657497e-01 </wgt>
<wgt id='1607'> +5.2692504e-01 </wgt>
<wgt id='1608'> +5.2695060e-01 </wgt>
<wgt id='1609'> +5.2699782e-01 </wgt>
<wgt id='1610'> +5.2632467e-01 </wgt>
<wgt id='1611'> +5.2812500e-01 </wgt>
<wgt id='1612'> +5.2561537e-01 </wgt>
<wgt id='1613'> +5.2526591e-01 </wgt>
<wgt id='1614'> +5.2732956e-01 </wgt>
<wgt id='1615'> +5.2736214e-01 </wgt>
<wgt id='1616'> +5.2493677e-01 </wgt>
<wgt id='1617'> +5.2472268e-01 </wgt>
<wgt id='1618'> +5.2599355e-01 </wgt>
<wgt id='1619'> +5.2347865e-01 </wgt>
<wgt id='1620'> +5.2478491e-01 </wgt>
<wgt id='1621'> +5.2548562e-01 </wgt>
<wgt id='1622'> +5.2695382e-01 </wgt>
<wgt id='1623'> +5.2650429e-01 </wgt>
<wgt id='1624'> +5.2590820e-01 </wgt>
<wgt id='1625'> +5.2844418e-01 </wgt>
<wgt id='1626'> +5.2850949e-01 </wgt>
<wgt id='1627'> +5.2549020e-01 </wgt>
<wgt id='1628'> +5.2489574e-01 </wgt>
<wgt id='1629'> +5.2637763e-01 </wgt>
<wgt id='1630'> +5.2721213e-01 </wgt>
<wgt id='1631'> +5.2570432e-01 </wgt>
<wgt id='1632'> +5.2668124e-01 </wgt>
<wgt id='1633'> +5.2468170e-01 </wgt>
<wgt id='1634'> +5.2685140e-01 </wgt>
<wgt id='1635'> +5.2442288e-01 </wgt>
<wgt id='1636'> +5.2609705e-01 </wgt>
<wgt id='1637'> +5.2621870e-01 </wgt>
<wgt id='1638'> +5.2470054e-01 </wgt>
<wgt id='1639'> +5.2728676e-01 </wgt>
<wgt id='1640'> +5.2675490e-01 </wgt>
<wgt id='1641'> +5.2055254e-01 </wgt>
<wgt id='1642'> +5.2445192e-01 </wgt>
<wgt id='1643'> +5.2514422e-01 </wgt>
<wgt id='1644'> +5.2472990e-01 </wgt>
<wgt id='1645'> +5.2501193e-01 </wgt>
<wgt id='1646'> +5.2630083e-01 </wgt>
<wgt id='1647'> +5.2498211e-01 </wgt>
<wgt id='1648'> +5.2469965e-01 </wgt>
<wgt id='1649'> +5.2606041e-01 </wgt>
<wgt id='1650'> +5.2524460e-01 </wgt>
<wgt id='1651'> +5.2547970e-01 </wgt>
<wgt id='1652'> +5.2510109e-01 </wgt>
<wgt id='1653'> +5.2486893e-01 </wgt>
<wgt id='1654'> +5.2574287e-01 </wgt>
<wgt id='1655'> +5.2660500e-01 </wgt>
<wgt id='1656'> +5.2526006e-01 </wgt>
<wgt id='1657'> +5.2567109e-01 </wgt>
<wgt id='1658'> +5.2585749e-01 </wgt>
<wgt id='1659'> +5.2598221e-01 </wgt>
<wgt id='1660'> +5.2670850e-01 </wgt>
<wgt id='1661'> +5.2619031e-01 </wgt>
<wgt id='1662'> +5.2688038e-01 </wgt>
<wgt id='1663'> +5.2727185e-01 </wgt>
<wgt id='1664'> +5.2617670e-01 </wgt>
<wgt id='1665'> +5.2631798e-01 </wgt>
<wgt id='1666'> +5.2653463e-01 </wgt>
<wgt id='1667'> +5.2600839e-01 </wgt>
<wgt id='1668'> +5.2471739e-01 </wgt>
<wgt id='1669'> +5.2526919e-01 </wgt>
<wgt id='1670'> +5.2560944e-01 </wgt>
<wgt id='1671'> +5.2608127e-01 </wgt>
<wgt id='1672'> +5.2498589e-01 </wgt>
<wgt id='1673'> +5.2582514e-01 </wgt>
<wgt id='1674'> +5.2553798e-01 </wgt>
<wgt id='1675'> +5.2584141e-01 </wgt>
<wgt id='1676'> +5.2461472e-01 </wgt>
<wgt id='1677'> +5.2590966e-01 </wgt>
<wgt id='1678'> +5.2592792e-01 </wgt>
<wgt id='1679'> +5.2665551e-01 </wgt>
<wgt id='1680'> +5.2617247e-01 </wgt>
<wgt id='1681'> +5.2583515e-01 </wgt>
<wgt id='1682'> +5.2544486e-01 </wgt>
<wgt id='1683'> +5.2512634e-01 </wgt>
<wgt id='1684'> +5.2518599e-01 </wgt>
<wgt id='1685'> +5.2427241e-01 </wgt>
<wgt id='1686'> +5.2580709e-01 </wgt>
<wgt id='1687'> +5.2620150e-01 </wgt>
<wgt id='1688'> +5.2579553e-01 </wgt>
<wgt id='1689'> +5.2616569e-01 </wgt>
<wgt id='1690'> +5.2518221e-01 </wgt>
<wgt id='1691'> +5.2640797e-01 </wgt>
<wgt id='1692'> +5.2535814e-01 </wgt>
<wgt id='1693'> +5.2602886e-01 </wgt>
<wgt id='1694'> +5.2617804e-01 </wgt>
<wgt id='1695'> +5.2530844e-01 </wgt>
<wgt id='1696'> +5.2585345e-01 </wgt>
<wgt id='1697'> +5.2560220e-01 </wgt>
<wgt id='1698'> +5.2585393e-01 </wgt>
<wgt id='1699'> +5.2548024e-01 </wgt>
<wgt id='1700'> +5.2641729e-01 </wgt>
<wgt id='1701'> +5.2526775e-01 </wgt>
<wgt id='1702'> +5.2576623e-01 </wgt>
<wgt id='1703'> +5.2579513e-01 </wgt>
<wgt id='1704'> +5.2581075e-01 </wgt>
<wgt id='1705'> +5.2596569e-01 </wgt>
<wgt id='1706'> +5.2558059e-01 </wgt>
<wgt id='1707'> +5.2597236e-01 </wgt>
<wgt id='1708'> +5.2525211e-01 </wgt>
<wgt id='1709'> +5.2549280e-01 </wgt>
<wgt id='1710'> +5.2563842e-01 </wgt>
<wgt id='1711'> +5.2578160e-01 </wgt>
<wgt id='1712'> +5.2527617e-01 </wgt>
<wgt id='1713'> +5.2005197e-01 </wgt>
<wgt id='1714'> +5.2971045e-01 </wgt>
<wgt id='1715'> +5.2478601e-01 </wgt>
<wgt id='1716'> +5.2201426e-01 </wgt>
<wgt id='1717'> +5.2200413e-01 </wgt>
<wgt id='1718'> +5.1005352e-01 </wgt>
<wgt id='1719'> +5.2092171e-01 </wgt>
<wgt id='1720'> +5.3646229e-01 </wgt>
<wgt id='1721'> +4.9841130e-01 </wgt>
<wgt id='1722'> +5.1603059e-01 </wgt>
<wgt id='1723'> +5.2383602e-01 </wgt>
<wgt id='1724'> +5.2700977e-01 </wgt>
<wgt id='1725'> +5.3225950e-01 </wgt>
<wgt id='1726'> +5.3557034e-01 </wgt>
<wgt id='1727'> +5.2019746e-01 </wgt>
<wgt id='1728'> +5.2664257e-01 </wgt>
<wgt id='1729'> +5.2623801e-01 </wgt>
<wgt id='1730'> +5.1207509e-01 </wgt>
<wgt id='1731'> +4.9631548e-01 </wgt>
<wgt id='1732'> +5.3776465e-01 </wgt>
<wgt id='1733'> +5.3482329e-01 </wgt>
<wgt id='1734'> +5.2189208e-01 </wgt>
<wgt id='1735'> +5.1771556e-01 </wgt>
<wgt id='1736'> +5.1999598e-01 </wgt>
<wgt id='1737'> +5.2795624e-01 </wgt>
<wgt id='1738'> +5.3594479e-01 </wgt>
<wgt id='1739'> +5.1203928e-01 </wgt>
<wgt id='1740'> +5.1553646e-01 </wgt>
<wgt id='1741'> +5.2915397e-01 </wgt>
<wgt id='1742'> +5.4316622e-01 </wgt>
<wgt id='1743'> +5.1430767e-01 </wgt>
<wgt id='1744'> +5.3243952e-01 </wgt>
<wgt id='1745'> +5.1103630e-01 </wgt>
<wgt id='1746'> +5.2498372e-01 </wgt>
<wgt id='1747'> +5.2443878e-01 </wgt>
<wgt id='1748'> +5.2838684e-01 </wgt>
<wgt id='1749'> +5.4416602e-01 </wgt>
<wgt id='1750'> +5.2966283e-01 </wgt>
<wgt id='1751'> +5.2302205e-01 </wgt>
<wgt id='1752'> +4.9499599e-01 </wgt>
<wgt id='1753'> +5.2664429e-01 </wgt>
<wgt id='1754'> +5.2800304e-01 </wgt>
<wgt id='1755'> +5.2523771e-01 </wgt>
<wgt id='1756'> +5.1699362e-01 </wgt>
<wgt id='1757'> +5.1312183e-01 </wgt>
<wgt id='1758'> +5.1014265e-01 </wgt>
<wgt id='1759'> +5.2099515e-01 </wgt>
<wgt id='1760'> +5.1483828e-01 </wgt>
<wgt id='1761'> +5.2531248e-01 </wgt>
<wgt id='1762'> +5.2019746e-01 </wgt>
<wgt id='1763'> +5.1648633e-01 </wgt>
<wgt id='1764'> +5.2879818e-01 </wgt>
<wgt id='1765'> +5.3181066e-01 </wgt>
<wgt id='1766'> +5.4976527e-01 </wgt>
<wgt id='1767'> +5.3073063e-01 </wgt>
<wgt id='1768'> +5.0232511e-01 </wgt>
<wgt id='1769'> +5.2760435e-01 </wgt>
<wgt id='1770'> +5.3496355e-01 </wgt>
<wgt id='1771'> +5.2657500e-01 </wgt>
<wgt id='1772'> +5.3054010e-01 </wgt>
<wgt id='1773'> +5.2992193e-01 </wgt>
<wgt id='1774'> +5.1924378e-01 </wgt>
<wgt id='1775'> +5.2713085e-01 </wgt>
<wgt id='1776'> +5.3415864e-01 </wgt>
<wgt id='1777'> +5.2337024e-01 </wgt>
<wgt id='1778'> +5.3647777e-01 </wgt>
<wgt id='1779'> +5.2289002e-01 </wgt>
<wgt id='1780'> +5.3703395e-01 </wgt>
<wgt id='1781'> +5.2846567e-01 </wgt>
<wgt id='1782'> +5.4253383e-01 </wgt>
<wgt id='1783'> +5.2162984e-01 </wgt>
<wgt id='1784'> +5.3847009e-01 </wgt>
<wgt id='1785'> +5.3780968e-01 </wgt>
<wgt id='1786'> +5.3178101e-01 </wgt>
<wgt id='1787'> +5.2786724e-01 </wgt>
<wgt id='1788'> +5.1661215e-01 </wgt>
<wgt id='1789'> +5.3431524e-01 </wgt>
<wgt id='1790'> +5.3030578e-01 </wgt>
<wgt id='1791'> +5.0874320e-01 </wgt>
<wgt id='1792'> +5.2093488e-01 </wgt>
<wgt id='1793'> +5.4969014e-01 </wgt>
<wgt id='1794'> +5.2718985e-01 </wgt>
<wgt id='1795'> +5.1207973e-01 </wgt>
<wgt id='1796'> +5.2540896e-01 </wgt>
<wgt id='1797'> +5.0387500e-01 </wgt>
<wgt id='1798'> +5.2567793e-01 </wgt>
<wgt id='1799'> +5.4685514e-01 </wgt>
<wgt id='1800'> +5.3338979e-01 </wgt>
<wgt id='1801'> +5.1214293e-01 </wgt>
<wgt id='1802'> +5.1825618e-01 </wgt>
<wgt id='1803'> +5.2333207e-01 </wgt>
<wgt id='1804'> +5.3246744e-01 </wgt>
<wgt id='1805'> +5.2720396e-01 </wgt>
<wgt id='1806'> +5.3116685e-01 </wgt>
<wgt id='1807'> +5.1208798e-01 </wgt>
<wgt id='1808'> +5.3140615e-01 </wgt>
<wgt id='1809'> +5.2193061e-01 </wgt>
<wgt id='1810'> +5.2502789e-01 </wgt>
<wgt id='1811'> +5.2599478e-01 </wgt>
<wgt id='1812'> +5.2167330e-01 </wgt>
<wgt id='1813'> +5.2599603e-01 </wgt>
<wgt id='1814'> +5.1429087e-01 </wgt>
<wgt id='1815'> +5.3184039e-01 </wgt>
<wgt id='1816'> +5.3068215e-01 </wgt>
<wgt id='1817'> +5.3332514e-01 </wgt>
<wgt id='1818'> +5.2348631e-01 </wgt>
<wgt id='1819'> +5.3182621e-01 </wgt>
<wgt id='1820'> +5.4507100e-01 </wgt>
<wgt id='1821'> +5.3582282e-01 </wgt>
<wgt id='1822'> +5.2881217e-01 </wgt>
<wgt id='1823'> +5.3477265e-01 </wgt>
<wgt id='1824'> +5.1851017e-01 </wgt>
<wgt id='1825'> +5.2656713e-01 </wgt>
<wgt id='1826'> +5.2747341e-01 </wgt>
<wgt id='1827'> +5.2708432e-01 </wgt>
<wgt id='1828'> +5.3676825e-01 </wgt>
<wgt id='1829'> +5.3138305e-01 </wgt>
<wgt id='1830'> +5.1789189e-01 </wgt>
<wgt id='1831'> +5.2313977e-01 </wgt>
<wgt id='1832'> +5.3209855e-01 </wgt>
<wgt id='1833'> +5.1736207e-01 </wgt>
<wgt id='1834'> +5.2201832e-01 </wgt>
<wgt id='1835'> +5.3450594e-01 </wgt>
<wgt id='1836'> +5.3573088e-01 </wgt>
<wgt id='1837'> +5.3284156e-01 </wgt>
<wgt id='1838'> +5.2355944e-01 </wgt>
<wgt id='1839'> +5.5835105e-01 </wgt>
<wgt id='1840'> +5.3279796e-01 </wgt>
<wgt id='1841'> +5.3193115e-01 </wgt>
<wgt id='1842'> +5.2846208e-01 </wgt>
<wgt id='1843'> +5.1924787e-01 </wgt>
<wgt id='1844'> +5.2754383e-01 </wgt>
<wgt id='1845'> +5.2236046e-01 </wgt>
<wgt id='1846'> +5.3228755e-01 </wgt>
<wgt id='1847'> +5.3066898e-01 </wgt>
<wgt id='1848'> +5.2744211e-01 </wgt>
<wgt id='1849'> +5.4215858e-01 </wgt>
<wgt id='1850'> +5.4112595e-01 </wgt>
<wgt id='1851'> +5.3237272e-01 </wgt>
<wgt id='1852'> +5.3820040e-01 </wgt>
<wgt id='1853'> +5.1659351e-01 </wgt>
<wgt id='1854'> +5.2467371e-01 </wgt>
<wgt id='1855'> +5.3047318e-01 </wgt>
<wgt id='1856'> +5.3811520e-01 </wgt>
<wgt id='1857'> +5.3947707e-01 </wgt>
<wgt id='1858'> +5.3216261e-01 </wgt>
<wgt id='1859'> +5.3328014e-01 </wgt>
<wgt id='1860'> +5.3088858e-01 </wgt>
<wgt id='1861'> +5.3314823e-01 </wgt>
<wgt id='1862'> +5.3693872e-01 </wgt>
<wgt id='1863'> +5.1803618e-01 </wgt>
<wgt id='1864'> +5.2553095e-01 </wgt>
<wgt id='1865'> +5.3485095e-01 </wgt>
<wgt id='1866'> +5.3298592e-01 </wgt>
<wgt id='1867'> +5.3107158e-01 </wgt>
<wgt id='1868'> +5.2590745e-01 </wgt>
<wgt id='1869'> +5.4561548e-01 </wgt>
<wgt id='1870'> +5.3252014e-01 </wgt>
<wgt id='1871'> +5.3539184e-01 </wgt>
<wgt id='1872'> +5.1556829e-01 </wgt>
<wgt id='1873'> +5.4537140e-01 </wgt>
<wgt id='1874'> +5.2931626e-01 </wgt>
<wgt id='1875'> +5.1946169e-01 </wgt>
<wgt id='1876'> +5.2778788e-01 </wgt>
<wgt id='1877'> +5.3375224e-01 </wgt>
<wgt id='1878'> +5.2335988e-01 </wgt>
<wgt id='1879'> +5.4716158e-01 </wgt>
<wgt id='1880'> +5.1206271e-01 </wgt>
<wgt id='1881'> +5.4108544e-01 </wgt>
<wgt id='1882'> +5.2645818e-01 </wgt>
<wgt id='1883'> +5.4882517e-01 </wgt>
<wgt id='1884'> +5.2879804e-01 </wgt>
<wgt id='1885'> +5.2349015e-01 </wgt>
<wgt id='1886'> +5.2579338e-01 </wgt>
<wgt id='1887'> +5.3882245e-01 </wgt>
<wgt id='1888'> +5.2843037e-01 </wgt>
<wgt id='1889'> +5.2206692e-01 </wgt>
<wgt id='1890'> +5.4100286e-01 </wgt>
<wgt id='1891'> +5.2677419e-01 </wgt>
<wgt id='1892'> +5.3093172e-01 </wgt>
<wgt id='1893'> +5.3738619e-01 </wgt>
<wgt id='1894'> +5.4387570e-01 </wgt>
<wgt id='1895'> +5.3942198e-01 </wgt>
<wgt id='1896'> +5.2788094e-01 </wgt>
<wgt id='1897'> +5.3396059e-01 </wgt>
<wgt id='1898'> +5.3612592e-01 </wgt>
<wgt id='1899'> +5.2546593e-01 </wgt>
<wgt id='1900'> +5.3648447e-01 </wgt>
<wgt id='1901'> +5.1036124e-01 </wgt>
<wgt id='1902'> +5.1927311e-01 </wgt>
<wgt id='1903'> +5.2606664e-01 </wgt>
<wgt id='1904'> +5.3350664e-01 </wgt>
<wgt id='1905'> +5.2749986e-01 </wgt>
<wgt id='1906'> +5.2208306e-01 </wgt>
<wgt id='1907'> +5.2754363e-01 </wgt>
<wgt id='1908'> +5.4127351e-01 </wgt>
<wgt id='1909'> +5.2643849e-01 </wgt>
<wgt id='1910'> +5.4293759e-01 </wgt>
<wgt id='1911'> +5.0843894e-01 </wgt>
<wgt id='1912'> +5.3266328e-01 </wgt>
<wgt id='1913'> +5.3766254e-01 </wgt>
<wgt id='1914'> +5.4624528e-01 </wgt>
<wgt id='1915'> +5.3916229e-01 </wgt>
<wgt id='1916'> +5.0678906e-01 </wgt>
<wgt id='1917'> +5.6943973e-01 </wgt>
<wgt id='1918'> +6.0773818e-01 </wgt>
<wgt id='1919'> +5.3068215e-01 </wgt>
<wgt id='1920'> +5.3332514e-01 </wgt>
<wgt id='1921'> +5.2348631e-01 </wgt>
<wgt id='1922'> +5.3182621e-01 </wgt>
<wgt id='1923'> +5.4507100e-01 </wgt>
<wgt id='1924'> +5.3582282e-01 </wgt>
<wgt id='1925'> +5.2881217e-01 </wgt>
<wgt id='1926'> +5.3477265e-01 </wgt>
<wgt id='1927'> +5.1851017e-01 </wgt>
<wgt id='1928'> +5.2656713e-01 </wgt>
<wgt id='1929'> +5.2747341e-01 </wgt>
<wgt id='1930'> +5.2708432e-01 </wgt>
<wgt id='1931'> +5.3676825e-01 </wgt>
<wgt id='1932'> +5.3138305e-01 </wgt>
<wgt id='1933'> +5.1789189e-01 </wgt>
<wgt id='1934'> +5.2313977e-01 </wgt>
<wgt id='1935'> +5.3209855e-01 </wgt>
<wgt id='1936'> +5.1736207e-01 </wgt>
<wgt id='1937'> +5.2201832e-01 </wgt>
<wgt id='1938'> +5.3450594e-01 </wgt>
<wgt id='1939'> +5.3573088e-01 </wgt>
<wgt id='1940'> +5.3284156e-01 </wgt>
<wgt id='1941'> +5.2355944e-01 </wgt>
<wgt id='1942'> +5.5835105e-01 </wgt>
<wgt id='1943'> +5.3279796e-01 </wgt>
<wgt id='1944'> +5.3193115e-01 </wgt>
<wgt id='1945'> +5.2846208e-01 </wgt>
<wgt id='1946'> +5.1924787e-01 </wgt>
<wgt id='1947'> +5.2754383e-01 </wgt>
<wgt id='1948'> +5.2236046e-01 </wgt>
<wgt id='1949'> +5.3228755e-01 </wgt>
<wgt id='1950'> +5.3066898e-01 </wgt>
<wgt id='1951'> +5.2744211e-01 </wgt>
<wgt id='1952'> +5.4215858e-01 </wgt>
<wgt id='1953'> +5.4112595e-01 </wgt>
<wgt id='1954'> +5.3237272e-01 </wgt>
<wgt id='1955'> +5.3820040e-01 </wgt>
<wgt id='1956'> +5.1659351e-01 </wgt>
<wgt id='1957'> +5.2467371e-01 </wgt>
<wgt id='1958'> +5.3047318e-01 </wgt>
<wgt id='1959'> +5.3811520e-01 </wgt>
<wgt id='1960'> +5.3947707e-01 </wgt>
<wgt id='1961'> +5.3216261e-01 </wgt>
<wgt id='1962'> +5.3328014e-01 </wgt>
<wgt id='1963'> +5.3088858e-01 </wgt>
<wgt id='1964'> +5.3314823e-01 </wgt>
<wgt id='1965'> +5.3693872e-01 </wgt>
<wgt id='1966'> +5.1803618e-01 </wgt>
<wgt id='1967'> +5.2553095e-01 </wgt>
<wgt id='1968'> +5.3485095e-01 </wgt>
<wgt id='1969'> +5.3298592e-01 </wgt>
<wgt id='1970'> +5.3107158e-01 </wgt>
<wgt id='1971'> +5.2590745e-01 </wgt>
<wgt id='1972'> +5.4561548e-01 </wgt>
<wgt id='1973'> +5.3252014e-01 </wgt>
<wgt id='1974'> +5.3539184e-01 </wgt>
<wgt id='1975'> +5.1556829e-01 </wgt>
<wgt id='1976'> +5.4537140e-01 </wgt>
<wgt id='1977'> +5.2931626e-01 </wgt>
<wgt id='1978'> +5.1946169e-01 </wgt>
<wgt id='1979'> +5.2778788e-01 </wgt>
<wgt id='1980'> +5.3375224e-01 </wgt>
<wgt id='1981'> +5.2335988e-01 </wgt>
<wgt id='1982'> +5.4716158e-01 </wgt>
<wgt id='1983'> +5.1206271e-01 </wgt>
<wgt id='1984'> +5.4108544e-01 </wgt>
<wgt id='1985'> +5.2645818e-01 </wgt>
<wgt id='1986'> +5.4882517e-01 </wgt>
<wgt id='1987'> +5.2879804e-01 </wgt>
<wgt id='1988'> +5.2349015e-01 </wgt>
<wgt id='1989'> +5.2579338e-01 </wgt>
<wgt id='1990'> +5.3882245e-01 </wgt>
<wgt id='1991'> +5.2843037e-01 </wgt>
<wgt id='1992'> +5.2206692e-01 </wgt>
<wgt id='1993'> +5.4100286e-01 </wgt>
<wgt id='1994'> +5.2677419e-01 </wgt>
<wgt id='1995'> +5.3093172e-01 </wgt>
<wgt id='1996'> +5.3738619e-01 </wgt>
<wgt id='1997'> +5.4387570e-01 </wgt>
<wgt id='1998'> +5.3942198e-01 </wgt>
<wgt id='1999'> +5.2788094e-01 </wgt>
<wgt id='2000'> +5.3396059e-01 </wgt>
<wgt id='2001'> +5.3612592e-01 </wgt>
<wgt id='2002'> +5.2546593e-01 </wgt>
<wgt id='2003'> +5.3648447e-01 </wgt>
<wgt id='2004'> +5.1036124e-01 </wgt>
<wgt id='2005'> +5.1927311e-01 </wgt>
<wgt id='2006'> +5.2606664e-01 </wgt>
<wgt id='2007'> +5.3350664e-01 </wgt>
<wgt id='2008'> +5.2749986e-01 </wgt>
<wgt id='2009'> +5.2208306e-01 </wgt>
<wgt id='2010'> +5.2754363e-01 </wgt>
<wgt id='2011'> +5.4127351e-01 </wgt>
<wgt id='2012'> +5.2643849e-01 </wgt>
<wgt id='2013'> +5.4293759e-01 </wgt>
<wgt id='2014'> +5.0843894e-01 </wgt>
<wgt id='2015'> +5.3266328e-01 </wgt>
<wgt id='2016'> +5.3766254e-01 </wgt>
<wgt id='2017'> +5.4624528e-01 </wgt>
<wgt id='2018'> +5.3916229e-01 </wgt>
<wgt id='2019'> +5.0678906e-01 </wgt>
<wgt id='2020'> +5.2977910e-01 </wgt>
<wgt id='2021'> +5.3089246e-01 </wgt>
<wgt id='2022'> +5.3092552e-01 </wgt>
</rwgt>
</event>
<event>
 13 2 0.0079112 6.06273600e+02 7.81860800e-03 1.11019500e-01
        3 -1    0    0  501    0 +0.0000000000e+00 +0.0000000000e+00 +4.4948083648e+02 4.4948084783e+02 1.0100000000e-01 0.0000e+00 -1.0000e+00
       21 -1    0    0  502  503 +0.0000000000e+00 +0.0000000000e+00 -2.1184998472e+03 2.1184998472e+03 0.0000000000e+00 0.0000e+00 1.0000e+00
 -8000001  2    1    2    0  503 -6.5706224182e+01 +3.1965560737e+01 -1.8132393904e+03 1.9113283376e+03 5.9999985182e+02 0.0000e+00 0.0000e+00
        4  1    1    2  501    0 -1.6054021998e+01 +3.7343520227e+00 +3.9246966507e+02 3.9281767769e+02 1.2700000000e+00 0.0000e+00 -1.0000e+00
        5  1    1    2  502    0 +8.1760246180e+01 -3.5699912760e+01 -2.4824928541e+02 2.6383467974e+02 4.6700000000e+00 0.0000e+00 -1.0000e+00
       -6  2    3    3    0  503 -2.7654715299e+02 +5.2680991750e+01 -1.3920437148e+03 1.4315926861e+03 1.8005082721e+02 0.0000e+00 0.0000e+00
       -5  1    6    6    0  503 -2.3592893656e+02 +5.3663363231e+01 -9.4269510151e+02 9.7326156965e+02 4.6700000000e+00 0.0000e+00 1.0000e+00
      -24  2    6    6    0    0 -4.0618216436e+01 -9.8237148079e-01 -4.4934861326e+02 4.5833111645e+02 8.0637655673e+01 0.0000e+00 0.0000e+00
      -14  1    8    8    0    0 -2.2639813146e+01 -3.6423560190e+01 -3.2419990353e+02 3.2702418003e+02 0.0000000000e+00 0.0000e+00 1.0000e+00
       13  1    8    8    0    0 -1.7978403290e+01 +3.5441188709e+01 -1.2514870973e+02 1.3130693643e+02 1.0566000000e-01 0.0000e+00 -1.0000e+00
       23  2    3    3    0    0 +2.1084092881e+02 -2.0715431013e+01 -4.2119567561e+02 4.7973565150e+02 8.8642381615e+01 0.0000e+00 0.0000e+00
        1  1   11   11  504    0 +1.2755117289e+02 -5.3707565453e+01 -2.2682147749e+02 2.6570996776e+02 5.0400000000e-03 0.0000e+00 -1.0000e+00
       -1  1   11   11    0  504 +8.3289755919e+01 +3.2992134440e+01 -1.9437419813e+02 2.1402568374e+02 5.0400000000e-03 0.0000e+00 1.0000e+00
<mgrwt>
<rscale>  1 0.10011294e+03</rscale>
<asrwt>0</asrwt>
<pdfrwt beam="1">  1       21 0.32592305e+00 0.60627359e+03</pdfrwt>
<pdfrwt beam="2">  1        3 0.69150899e-01 0.16531482e+02</pdfrwt>
<totfact> 0.20242885e+00</totfact>
</mgrwt>
<rwgt>
<wgt id='1001'> +5.2878984e-01 </wgt>
<wgt id='1002'> +4.1155676e-01 </wgt>
<wgt id='1003'> +4.1152066e-01 </wgt>
<wgt id='1004'> +5.0660907e-01 </wgt>
<wgt id='1005'> +3.0574099e-01 </wgt>
<wgt id='1006'> +4.7736262e-01 </wgt>
<wgt id='1007'> +3.8022310e-01 </wgt>
<wgt id='1008'> +3.8019084e-01 </wgt>
<wgt id='1009'> +4.6470333e-01 </wgt>
<wgt id='1010'> +2.8503559e-01 </wgt>
<wgt id='1011'> +5.9310087e-01 </wgt>
<wgt id='1012'> +4.4867142e-01 </wgt>
<wgt id='1013'> +4.4863052e-01 </wgt>
<wgt id='1014'> +5.5707294e-01 </wgt>
<wgt id='1015'> +3.2976490e-01 </wgt>
<wgt id='1016'> +4.8378857e-01 </wgt>
<wgt id='1017'> +3.6714988e-01 </wgt>
<wgt id='1018'> +3.6711895e-01 </wgt>
<wgt id='1019'> +4.4863052e-01 </wgt>
<wgt id='1020'> +2.7567765e-01 </wgt>
<wgt id='1021'> +4.3673793e-01 </wgt>
<wgt id='1022'> +3.3919712e-01 </wgt>
<wgt id='1023'> +3.3916951e-01 </wgt>
<wgt id='1024'> +4.1152066e-01 </wgt>
<wgt id='1025'> +2.5700820e-01 </wgt>
<wgt id='1026'> +5.4262658e-01 </wgt>
<wgt id='1027'> +4.0025988e-01 </wgt>
<wgt id='1028'> +4.0022478e-01 </wgt>
<wgt id='1029'> +4.9331908e-01 </wgt>
<wgt id='1030'> +2.9733929e-01 </wgt>
<wgt id='1031'> +5.7310229e-01 </wgt>
<wgt id='1032'> +4.6474565e-01 </wgt>
<wgt id='1033'> +4.6470333e-01 </wgt>
<wgt id='1034'> +5.7707173e-01 </wgt>
<wgt id='1035'> +3.4128554e-01 </wgt>
<wgt id='1036'> +5.1736548e-01 </wgt>
<wgt id='1037'> +4.2936249e-01 </wgt>
<wgt id='1038'> +4.2932462e-01 </wgt>
<wgt id='1039'> +5.2933745e-01 </wgt>
<wgt id='1040'> +3.1817299e-01 </wgt>
<wgt id='1041'> +6.4280257e-01 </wgt>
<wgt id='1042'> +5.0665695e-01 </wgt>
<wgt id='1043'> +5.0660907e-01 </wgt>
<wgt id='1044'> +6.3455446e-01 </wgt>
<wgt id='1045'> +3.6810239e-01 </wgt>
<wgt id='1046'> +5.2878984e-01 </wgt>
<wgt id='1047'> +5.2878984e-01 </wgt>
<wgt id='1048'> +5.2878984e-01 </wgt>
<wgt id='1049'> +5.2520036e-01 </wgt>
<wgt id='1050'> +5.2963486e-01 </wgt>
<wgt id='1051'> +5.2466944e-01 </wgt>
<wgt id='1052'> +5.2180894e-01 </wgt>
<wgt id='1053'> +5.2707285e-01 </wgt>
<wgt id='1054'> +5.3737006e-01 </wgt>
<wgt id='1055'> +5.3133045e-01 </wgt>
<wgt id='1056'> +5.3615968e-01 </wgt>
<wgt id='1057'> +5.2067351e-01 </wgt>
<wgt id='1058'> +5.2448214e-01 </wgt>
<wgt id='1059'> +5.2481972e-01 </wgt>
<wgt id='1060'> +5.2967113e-01 </wgt>
<wgt id='1061'> +5.2928371e-01 </wgt>
<wgt id='1062'> +5.2590561e-01 </wgt>
<wgt id='1063'> +5.1736994e-01 </wgt>
<wgt id='1064'> +5.3505427e-01 </wgt>
<wgt id='1065'> +5.2627314e-01 </wgt>
<wgt id='1066'> +5.3635149e-01 </wgt>
<wgt id='1067'> +5.2239970e-01 </wgt>
<wgt id='1068'> +5.4397981e-01 </wgt>
<wgt id='1069'> +5.3012057e-01 </wgt>
<wgt id='1070'> +5.3063588e-01 </wgt>
<wgt id='1071'> +5.3313328e-01 </wgt>
<wgt id='1072'> +5.2988303e-01 </wgt>
<wgt id='1073'> +5.3340798e-01 </wgt>
<wgt id='1074'> +5.3167094e-01 </wgt>
<wgt id='1075'> +5.1501414e-01 </wgt>
<wgt id='1076'> +5.3503198e-01 </wgt>
<wgt id='1077'> +5.1267284e-01 </wgt>
<wgt id='1078'> +5.1705445e-01 </wgt>
<wgt id='1079'> +5.1922300e-01 </wgt>
<wgt id='1080'> +5.3364104e-01 </wgt>
<wgt id='1081'> +5.2044941e-01 </wgt>
<wgt id='1082'> +5.3327171e-01 </wgt>
<wgt id='1083'> +5.3519167e-01 </wgt>
<wgt id='1084'> +5.2471924e-01 </wgt>
<wgt id='1085'> +5.2176996e-01 </wgt>
<wgt id='1086'> +5.3576542e-01 </wgt>
<wgt id='1087'> +5.2488815e-01 </wgt>
<wgt id='1088'> +5.2818635e-01 </wgt>
<wgt id='1089'> +5.2600521e-01 </wgt>
<wgt id='1090'> +5.2206096e-01 </wgt>
<wgt id='1091'> +5.3068478e-01 </wgt>
<wgt id='1092'> +5.3623263e-01 </wgt>
<wgt id='1093'> +5.2800479e-01 </wgt>
<wgt id='1094'> +5.2005949e-01 </wgt>
<wgt id='1095'> +5.3717875e-01 </wgt>
<wgt id='1096'> +5.2406459e-01 </wgt>
<wgt id='1097'> +5.3461359e-01 </wgt>
<wgt id='1098'> +5.2768799e-01 </wgt>
<wgt id='1099'> +5.3031265e-01 </wgt>
<wgt id='1100'> +5.2895788e-01 </wgt>
<wgt id='1101'> +5.2196843e-01 </wgt>
<wgt id='1102'> +5.2715228e-01 </wgt>
<wgt id='1103'> +5.2386251e-01 </wgt>
<wgt id='1104'> +5.3116701e-01 </wgt>
<wgt id='1105'> +5.2903275e-01 </wgt>
<wgt id='1106'> +5.2462735e-01 </wgt>
<wgt id='1107'> +5.3404170e-01 </wgt>
<wgt id='1108'> +5.2744274e-01 </wgt>
<wgt id='1109'> +5.2436079e-01 </wgt>
<wgt id='1110'> +5.3282537e-01 </wgt>
<wgt id='1111'> +5.3480601e-01 </wgt>
<wgt id='1112'> +5.3442366e-01 </wgt>
<wgt id='1113'> +5.1894210e-01 </wgt>
<wgt id='1114'> +5.2536082e-01 </wgt>
<wgt id='1115'> +5.2636367e-01 </wgt>
<wgt id='1116'> +5.3381974e-01 </wgt>
<wgt id='1117'> +5.3204124e-01 </wgt>
<wgt id='1118'> +5.2967242e-01 </wgt>
<wgt id='1119'> +5.2783047e-01 </wgt>
<wgt id='1120'> +5.2159737e-01 </wgt>
<wgt id='1121'> +5.3361260e-01 </wgt>
<wgt id='1122'> +5.2361497e-01 </wgt>
<wgt id='1123'> +5.3157068e-01 </wgt>
<wgt id='1124'> +5.3358974e-01 </wgt>
<wgt id='1125'> +5.3239481e-01 </wgt>
<wgt id='1126'> +5.3226099e-01 </wgt>
<wgt id='1127'> +5.3038697e-01 </wgt>
<wgt id='1128'> +5.2810815e-01 </wgt>
<wgt id='1129'> +5.2686829e-01 </wgt>
<wgt id='1130'> +5.3079019e-01 </wgt>
<wgt id='1131'> +5.3127661e-01 </wgt>
<wgt id='1132'> +5.3252541e-01 </wgt>
<wgt id='1133'> +5.3057260e-01 </wgt>
<wgt id='1134'> +5.2798284e-01 </wgt>
<wgt id='1135'> +5.2858467e-01 </wgt>
<wgt id='1136'> +5.2719122e-01 </wgt>
<wgt id='1137'> +5.2709063e-01 </wgt>
<wgt id='1138'> +5.2635075e-01 </wgt>
<wgt id='1139'> +5.2807397e-01 </wgt>
<wgt id='1140'> +5.2924627e-01 </wgt>
<wgt id='1141'> +5.2801137e-01 </wgt>
<wgt id='1142'> +5.2829594e-01 </wgt>
<wgt id='1143'> +5.3018604e-01 </wgt>
<wgt id='1144'> +5.2776235e-01 </wgt>
<wgt id='1145'> +5.2974349e-01 </wgt>
<wgt id='1146'> +5.2978835e-01 </wgt>
<wgt id='1147'> +5.3107083e-01 </wgt>
<wgt id='1148'> +5.2878984e-01 </wgt>
<wgt id='1149'> +4.8757232e-01 </wgt>
<wgt id='1150'> +3.4944592e-01 </wgt>
<wgt id='1151'> +4.8210578e-01 </wgt>
<wgt id='1152'> +3.9871089e-01 </wgt>
<wgt id='1153'> +5.0677349e-01 </wgt>
<wgt id='1154'> +4.2935617e-01 </wgt>
<wgt id='1155'> +5.4618391e-01 </wgt>
<wgt id='1156'> +4.7525484e-01 </wgt>
<wgt id='1157'> +4.8111202e-01 </wgt>
<wgt id='1158'> +4.7961315e-01 </wgt>
<wgt id='1159'> +5.0905217e-01 </wgt>
<wgt id='1160'> +4.1808621e-01 </wgt>
<wgt id='1161'> +5.6407750e-01 </wgt>
<wgt id='1162'> +5.1774905e-01 </wgt>
<wgt id='1163'> +4.3454522e-01 </wgt>
<wgt id='1164'> +4.1343062e-01 </wgt>
<wgt id='1165'> +4.6411931e-01 </wgt>
<wgt id='1166'> +4.2817066e-01 </wgt>
<wgt id='1167'> +4.4040728e-01 </wgt>
<wgt id='1168'> +4.9972250e-01 </wgt>
<wgt id='1169'> +5.3068204e-01 </wgt>
<wgt id='1170'> +4.9079275e-01 </wgt>
<wgt id='1171'> +4.6596098e-01 </wgt>
<wgt id='1172'> +4.6313019e-01 </wgt>
<wgt id='1173'> +5.1159072e-01 </wgt>
<wgt id='1174'> +5.0501623e-01 </wgt>
<wgt id='1175'> +4.5116448e-01 </wgt>
<wgt id='1176'> +5.3795959e-01 </wgt>
<wgt id='1177'> +5.0171961e-01 </wgt>
<wgt id='1178'> +4.9561184e-01 </wgt>
<wgt id='1179'> +4.7546262e-01 </wgt>
<wgt id='1180'> +4.4610886e-01 </wgt>
<wgt id='1181'> +4.5096147e-01 </wgt>
<wgt id='1182'> +4.6884892e-01 </wgt>
<wgt id='1183'> +4.8392889e-01 </wgt>
<wgt id='1184'> +4.3010206e-01 </wgt>
<wgt id='1185'> +4.8532227e-01 </wgt>
<wgt id='1186'> +4.7836954e-01 </wgt>
<wgt id='1187'> +5.5363915e-01 </wgt>
<wgt id='1188'> +5.1296295e-01 </wgt>
<wgt id='1189'> +5.2785026e-01 </wgt>
<wgt id='1190'> +5.1346560e-01 </wgt>
<wgt id='1191'> +5.3296463e-01 </wgt>
<wgt id='1192'> +4.8804035e-01 </wgt>
<wgt id='1193'> +5.1764071e-01 </wgt>
<wgt id='1194'> +4.8609016e-01 </wgt>
<wgt id='1195'> +5.0692075e-01 </wgt>
<wgt id='1196'> +4.8782826e-01 </wgt>
<wgt id='1197'> +3.9396954e-01 </wgt>
<wgt id='1198'> +4.6315501e-01 </wgt>
<wgt id='1199'> +5.2466503e-01 </wgt>
<wgt id='1200'> +4.7293096e-01 </wgt>
<wgt id='1201'> +5.6019266e-01 </wgt>
<wgt id='1202'> +4.6484926e-01 </wgt>
<wgt id='1203'> +5.0738372e-01 </wgt>
<wgt id='1204'> +4.3031673e-01 </wgt>
<wgt id='1205'> +5.0881966e-01 </wgt>
<wgt id='1206'> +4.6525773e-01 </wgt>
<wgt id='1207'> +5.2326576e-01 </wgt>
<wgt id='1208'> +5.1332029e-01 </wgt>
<wgt id='1209'> +4.5539441e-01 </wgt>
<wgt id='1210'> +4.8411375e-01 </wgt>
<wgt id='1211'> +4.9674209e-01 </wgt>
<wgt id='1212'> +4.9231861e-01 </wgt>
<wgt id='1213'> +4.4702381e-01 </wgt>
<wgt id='1214'> +4.8272245e-01 </wgt>
<wgt id='1215'> +4.7862247e-01 </wgt>
<wgt id='1216'> +4.8568085e-01 </wgt>
<wgt id='1217'> +5.2513935e-01 </wgt>
<wgt id='1218'> +5.1383988e-01 </wgt>
<wgt id='1219'> +4.8287254e-01 </wgt>
<wgt id='1220'> +4.7032750e-01 </wgt>
<wgt id='1221'> +4.5639705e-01 </wgt>
<wgt id='1222'> +5.8767693e-01 </wgt>
<wgt id='1223'> +5.6140178e-01 </wgt>
<wgt id='1224'> +4.8308160e-01 </wgt>
<wgt id='1225'> +5.0771005e-01 </wgt>
<wgt id='1226'> +5.0139772e-01 </wgt>
<wgt id='1227'> +4.8327091e-01 </wgt>
<wgt id='1228'> +4.6541710e-01 </wgt>
<wgt id='1229'> +4.6170308e-01 </wgt>
<wgt id='1230'> +5.0307375e-01 </wgt>
<wgt id='1231'> +4.6411931e-01 </wgt>
<wgt id='1232'> +6.0349915e-01 </wgt>
<wgt id='1233'> +4.5684136e-01 </wgt>
<wgt id='1234'> +4.8349688e-01 </wgt>
<wgt id='1235'> +3.7461149e-01 </wgt>
<wgt id='1236'> +5.2567019e-01 </wgt>
<wgt id='1237'> +4.7726957e-01 </wgt>
<wgt id='1238'> +7.0892105e-01 </wgt>
<wgt id='1239'> +5.5319058e-01 </wgt>
<wgt id='1240'> +4.8601623e-01 </wgt>
<wgt id='1241'> +5.1383498e-01 </wgt>
<wgt id='1242'> +4.9790873e-01 </wgt>
<wgt id='1243'> +4.4436816e-01 </wgt>
<wgt id='1244'> +4.5040858e-01 </wgt>
<wgt id='1245'> +4.5734674e-01 </wgt>
<wgt id='1246'> +5.0491854e-01 </wgt>
<wgt id='1247'> +5.0497841e-01 </wgt>
<wgt id='1248'> +4.9901399e-01 </wgt>
<wgt id='1249'> +4.5774384e-01 </wgt>
<wgt id='1250'> +7.1259426e-01 </wgt>
<wgt id='1251'> +6.9660242e-01 </wgt>
<wgt id='1252'> +6.0370136e-01 </wgt>
<wgt id='1253'> +5.5838524e-01 </wgt>
<wgt id='1254'> +5.8701679e-01 </wgt>
<wgt id='1255'> +6.1589623e-01 </wgt>
<wgt id='1256'> +6.1704984e-01 </wgt>
<wgt id='1257'> +6.1523744e-01 </wgt>
<wgt id='1258'> +6.1729520e-01 </wgt>
<wgt id='1259'> +6.1515829e-01 </wgt>
<wgt id='1260'> +5.9394393e-01 </wgt>
<wgt id='1261'> +6.4553614e-01 </wgt>
<wgt id='1262'> +6.2147341e-01 </wgt>
<wgt id='1263'> +6.1231802e-01 </wgt>
<wgt id='1264'> +6.0731360e-01 </wgt>
<wgt id='1265'> +6.2175138e-01 </wgt>
<wgt id='1266'> +6.0565468e-01 </wgt>
<wgt id='1267'> +6.2604769e-01 </wgt>
<wgt id='1268'> +6.1756246e-01 </wgt>
<wgt id='1269'> +6.1408501e-01 </wgt>
<wgt id='1270'> +6.0118868e-01 </wgt>
<wgt id='1271'> +6.3288617e-01 </wgt>
<wgt id='1272'> +6.0644995e-01 </wgt>
<wgt id='1273'> +6.2327335e-01 </wgt>
<wgt id='1274'> +6.2197415e-01 </wgt>
<wgt id='1275'> +6.0863255e-01 </wgt>
<wgt id='1276'> +6.4026510e-01 </wgt>
<wgt id='1277'> +5.9210838e-01 </wgt>
<wgt id='1278'> +6.1438822e-01 </wgt>
<wgt id='1279'> +6.1672877e-01 </wgt>
<wgt id='1280'> +6.1730724e-01 </wgt>
<wgt id='1281'> +6.1262963e-01 </wgt>
<wgt id='1282'> +5.9486009e-01 </wgt>
<wgt id='1283'> +6.3491089e-01 </wgt>
<wgt id='1284'> +6.2336289e-01 </wgt>
<wgt id='1285'> +6.0988500e-01 </wgt>
<wgt id='1286'> +6.1911108e-01 </wgt>
<wgt id='1287'> +6.1562597e-01 </wgt>
<wgt id='1288'> +6.0568048e-01 </wgt>
<wgt id='1289'> +6.1836807e-01 </wgt>
<wgt id='1290'> +6.1439989e-01 </wgt>
<wgt id='1291'> +6.0350027e-01 </wgt>
<wgt id='1292'> +6.1595137e-01 </wgt>
<wgt id='1293'> +6.1353593e-01 </wgt>
<wgt id='1294'> +6.3319165e-01 </wgt>
<wgt id='1295'> +5.9855301e-01 </wgt>
<wgt id='1296'> +6.4322723e-01 </wgt>
<wgt id='1297'> +6.4627309e-01 </wgt>
<wgt id='1298'> +6.4073118e-01 </wgt>
<wgt id='1299'> +6.3394164e-01 </wgt>
<wgt id='1300'> +6.5366737e-01 </wgt>
<wgt id='1301'> +6.5218360e-01 </wgt>
<wgt id='1302'> +6.2992888e-01 </wgt>
<wgt id='1303'> +6.3733990e-01 </wgt>
<wgt id='1304'> +6.4715640e-01 </wgt>
<wgt id='1305'> +6.3723641e-01 </wgt>
<wgt id='1306'> +6.5173128e-01 </wgt>
<wgt id='1307'> +6.7956339e-01 </wgt>
<wgt id='1308'> +6.2077031e-01 </wgt>
<wgt id='1309'> +6.4406129e-01 </wgt>
<wgt id='1310'> +6.4210164e-01 </wgt>
<wgt id='1311'> +6.4132852e-01 </wgt>
<wgt id='1312'> +6.4389391e-01 </wgt>
<wgt id='1313'> +6.2908642e-01 </wgt>
<wgt id='1314'> +6.6145837e-01 </wgt>
<wgt id='1315'> +6.4609832e-01 </wgt>
<wgt id='1316'> +6.4064203e-01 </wgt>
<wgt id='1317'> +6.6639945e-01 </wgt>
<wgt id='1318'> +6.0752233e-01 </wgt>
<wgt id='1319'> +6.2733097e-01 </wgt>
<wgt id='1320'> +6.5377639e-01 </wgt>
<wgt id='1321'> +6.3618715e-01 </wgt>
<wgt id='1322'> +6.4670103e-01 </wgt>
<wgt id='1323'> +6.3815546e-01 </wgt>
<wgt id='1324'> +6.5030180e-01 </wgt>
<wgt id='1325'> +6.3718699e-01 </wgt>
<wgt id='1326'> +6.5263027e-01 </wgt>
<wgt id='1327'> +6.3849745e-01 </wgt>
<wgt id='1328'> +6.4494939e-01 </wgt>
<wgt id='1329'> +6.4557405e-01 </wgt>
<wgt id='1330'> +6.4021692e-01 </wgt>
<wgt id='1331'> +6.5406696e-01 </wgt>
<wgt id='1332'> +6.3739638e-01 </wgt>
<wgt id='1333'> +6.2210468e-01 </wgt>
<wgt id='1334'> +6.7602099e-01 </wgt>
<wgt id='1335'> +6.3971747e-01 </wgt>
<wgt id='1336'> +6.3067882e-01 </wgt>
<wgt id='1337'> +6.4322723e-01 </wgt>
<wgt id='1338'> +6.4577686e-01 </wgt>
<wgt id='1339'> +6.4512187e-01 </wgt>
<wgt id='1340'> +6.4431081e-01 </wgt>
<wgt id='1341'> +6.4353408e-01 </wgt>
<wgt id='1342'> +6.4288359e-01 </wgt>
<wgt id='1343'> +6.4243807e-01 </wgt>
<wgt id='1344'> +5.8997506e-01 </wgt>
<wgt id='1345'> +5.9343690e-01 </wgt>
<wgt id='1346'> +5.8653744e-01 </wgt>
<wgt id='1347'> +5.9197254e-01 </wgt>
<wgt id='1348'> +5.8854692e-01 </wgt>
<wgt id='1349'> +5.9167449e-01 </wgt>
<wgt id='1350'> +5.8854846e-01 </wgt>
<wgt id='1351'> +5.8195487e-01 </wgt>
<wgt id='1352'> +6.0171591e-01 </wgt>
<wgt id='1353'> +5.7524118e-01 </wgt>
<wgt id='1354'> +6.0039863e-01 </wgt>
<wgt id='1355'> +5.8367044e-01 </wgt>
<wgt id='1356'> +5.9486120e-01 </wgt>
<wgt id='1357'> +6.0803324e-01 </wgt>
<wgt id='1358'> +5.7911459e-01 </wgt>
<wgt id='1359'> +5.8948787e-01 </wgt>
<wgt id='1360'> +5.9124116e-01 </wgt>
<wgt id='1361'> +5.6940440e-01 </wgt>
<wgt id='1362'> +6.0924401e-01 </wgt>
<wgt id='1363'> +5.8523619e-01 </wgt>
<wgt id='1364'> +5.9617422e-01 </wgt>
<wgt id='1365'> +5.8588381e-01 </wgt>
<wgt id='1366'> +5.9175035e-01 </wgt>
<wgt id='1367'> +5.8639188e-01 </wgt>
<wgt id='1368'> +5.9176644e-01 </wgt>
<wgt id='1369'> +6.0538247e-01 </wgt>
<wgt id='1370'> +5.7678038e-01 </wgt>
<wgt id='1371'> +5.8779173e-01 </wgt>
<wgt id='1372'> +5.9447791e-01 </wgt>
<wgt id='1373'> +5.6698868e-01 </wgt>
<wgt id='1374'> +6.0822070e-01 </wgt>
<wgt id='1375'> +5.7764708e-01 </wgt>
<wgt id='1376'> +5.9402761e-01 </wgt>
<wgt id='1377'> +5.8342997e-01 </wgt>
<wgt id='1378'> +5.9939345e-01 </wgt>
<wgt id='1379'> +5.8225175e-01 </wgt>
<wgt id='1380'> +5.9837250e-01 </wgt>
<wgt id='1381'> +6.0196319e-01 </wgt>
<wgt id='1382'> +5.8677000e-01 </wgt>
<wgt id='1383'> +5.7904400e-01 </wgt>
<wgt id='1384'> +5.8714504e-01 </wgt>
<wgt id='1385'> +5.8997506e-01 </wgt>
<wgt id='1386'> +5.9125367e-01 </wgt>
<wgt id='1387'> +5.9079460e-01 </wgt>
<wgt id='1388'> +5.9025226e-01 </wgt>
<wgt id='1389'> +5.8970595e-01 </wgt>
<wgt id='1390'> +5.8932359e-01 </wgt>
<wgt id='1391'> +5.8886693e-01 </wgt>
<wgt id='1392'> +6.8662882e-01 </wgt>
<wgt id='1393'> +6.8609311e-01 </wgt>
<wgt id='1394'> +6.8719589e-01 </wgt>
<wgt id='1395'> +6.8476780e-01 </wgt>
<wgt id='1396'> +6.8794038e-01 </wgt>
<wgt id='1397'> +6.8926186e-01 </wgt>
<wgt id='1398'> +6.8407750e-01 </wgt>
<wgt id='1399'> +6.8631620e-01 </wgt>
<wgt id='1400'> +6.8702928e-01 </wgt>
<wgt id='1401'> +6.8847282e-01 </wgt>
<wgt id='1402'> +6.8435843e-01 </wgt>
<wgt id='1403'> +6.8124127e-01 </wgt>
<wgt id='1404'> +6.9741647e-01 </wgt>
<wgt id='1405'> +6.8588870e-01 </wgt>
<wgt id='1406'> +6.8766185e-01 </wgt>
<wgt id='1407'> +6.8454886e-01 </wgt>
<wgt id='1408'> +6.8808080e-01 </wgt>
<wgt id='1409'> +6.9704020e-01 </wgt>
<wgt id='1410'> +6.7500855e-01 </wgt>
<wgt id='1411'> +7.4880916e-01 </wgt>
<wgt id='1412'> +6.3906952e-01 </wgt>
<wgt id='1413'> +6.7831071e-01 </wgt>
<wgt id='1414'> +6.9542365e-01 </wgt>
<wgt id='1415'> +6.7511999e-01 </wgt>
<wgt id='1416'> +6.9782722e-01 </wgt>
<wgt id='1417'> +6.8351202e-01 </wgt>
<wgt id='1418'> +6.9052124e-01 </wgt>
<wgt id='1419'> +6.9033109e-01 </wgt>
<wgt id='1420'> +6.8296143e-01 </wgt>
<wgt id='1421'> +6.6446185e-01 </wgt>
<wgt id='1422'> +7.1407170e-01 </wgt>
<wgt id='1423'> +6.4764882e-01 </wgt>
<wgt id='1424'> +7.1901493e-01 </wgt>
<wgt id='1425'> +6.8589465e-01 </wgt>
<wgt id='1426'> +6.8763992e-01 </wgt>
<wgt id='1427'> +6.9206399e-01 </wgt>
<wgt id='1428'> +6.7545850e-01 </wgt>
<wgt id='1429'> +6.8950218e-01 </wgt>
<wgt id='1430'> +6.8276783e-01 </wgt>
<wgt id='1431'> +7.0182307e-01 </wgt>
<wgt id='1432'> +6.7288638e-01 </wgt>
<wgt id='1433'> +7.3114781e-01 </wgt>
<wgt id='1434'> +6.1288650e-01 </wgt>
<wgt id='1435'> +6.4991824e-01 </wgt>
<wgt id='1436'> +6.9101701e-01 </wgt>
<wgt id='1437'> +6.9458376e-01 </wgt>
<wgt id='1438'> +6.4729340e-01 </wgt>
<wgt id='1439'> +6.6893665e-01 </wgt>
<wgt id='1440'> +7.2316269e-01 </wgt>
<wgt id='1441'> +6.7593504e-01 </wgt>
<wgt id='1442'> +6.9238896e-01 </wgt>
<wgt id='1443'> +6.2997681e-01 </wgt>
<wgt id='1444'> +6.2935464e-01 </wgt>
<wgt id='1445'> +6.3066563e-01 </wgt>
<wgt id='1446'> +6.2794529e-01 </wgt>
<wgt id='1447'> +6.3138503e-01 </wgt>
<wgt id='1448'> +6.3233707e-01 </wgt>
<wgt id='1449'> +6.2784080e-01 </wgt>
<wgt id='1450'> +6.2978179e-01 </wgt>
<wgt id='1451'> +6.3024270e-01 </wgt>
<wgt id='1452'> +6.3239383e-01 </wgt>
<wgt id='1453'> +6.2767680e-01 </wgt>
<wgt id='1454'> +6.2540825e-01 </wgt>
<wgt id='1455'> +6.3993538e-01 </wgt>
<wgt id='1456'> +6.2962741e-01 </wgt>
<wgt id='1457'> +6.3067627e-01 </wgt>
<wgt id='1458'> +6.2890889e-01 </wgt>
<wgt id='1459'> +6.3062373e-01 </wgt>
<wgt id='1460'> +6.5655615e-01 </wgt>
<wgt id='1461'> +5.9899276e-01 </wgt>
<wgt id='1462'> +6.8475719e-01 </wgt>
<wgt id='1463'> +5.8259527e-01 </wgt>
<wgt id='1464'> +6.2385919e-01 </wgt>
<wgt id='1465'> +6.3802426e-01 </wgt>
<wgt id='1466'> +6.1663732e-01 </wgt>
<wgt id='1467'> +6.3858239e-01 </wgt>
<wgt id='1468'> +6.3978580e-01 </wgt>
<wgt id='1469'> +6.2076359e-01 </wgt>
<wgt id='1470'> +6.3263810e-01 </wgt>
<wgt id='1471'> +6.2765835e-01 </wgt>
<wgt id='1472'> +6.1535299e-01 </wgt>
<wgt id='1473'> +6.4829895e-01 </wgt>
<wgt id='1474'> +6.0264809e-01 </wgt>
<wgt id='1475'> +6.6337632e-01 </wgt>
<wgt id='1476'> +6.3474714e-01 </wgt>
<wgt id='1477'> +6.2561704e-01 </wgt>
<wgt id='1478'> +6.3457964e-01 </wgt>
<wgt id='1479'> +6.1952404e-01 </wgt>
<wgt id='1480'> +6.3280078e-01 </wgt>
<wgt id='1481'> +6.2597039e-01 </wgt>
<wgt id='1482'> +6.4574160e-01 </wgt>
<wgt id='1483'> +6.1343334e-01 </wgt>
<wgt id='1484'> +6.7263280e-01 </wgt>
<wgt id='1485'> +5.6291565e-01 </wgt>
<wgt id='1486'> +5.8704122e-01 </wgt>
<wgt id='1487'> +6.3549307e-01 </wgt>
<wgt id='1488'> +6.3916936e-01 </wgt>
<wgt id='1489'> +5.8875173e-01 </wgt>
<wgt id='1490'> +6.1427018e-01 </wgt>
<wgt id='1491'> +6.6146289e-01 </wgt>
<wgt id='1492'> +6.1832835e-01 </wgt>
<wgt id='1493'> +6.3664798e-01 </wgt>
<wgt id='1494'> +6.5610799e-01 </wgt>
<wgt id='1495'> +5.8244345e-01 </wgt>
<wgt id='1496'> +6.0250975e-01 </wgt>
<wgt id='1497'> +6.2917968e-01 </wgt>
<wgt id='1498'> +6.8351840e-01 </wgt>
<wgt id='1499'> +6.5548991e-01 </wgt>
<wgt id='1500'> +6.8566597e-01 </wgt>
<wgt id='1501'> +6.7921176e-01 </wgt>
<wgt id='1502'> +6.7290956e-01 </wgt>
<wgt id='1503'> +6.6740036e-01 </wgt>
<wgt id='1504'> +6.6127271e-01 </wgt>
<wgt id='1505'> +6.4945197e-01 </wgt>
<wgt id='1506'> +6.4313998e-01 </wgt>
<wgt id='1507'> +6.3698062e-01 </wgt>
<wgt id='1508'> +6.5548991e-01 </wgt>
<wgt id='1509'> +6.5087030e-01 </wgt>
<wgt id='1510'> +6.5304971e-01 </wgt>
<wgt id='1511'> +6.5776383e-01 </wgt>
<wgt id='1512'> +6.5973343e-01 </wgt>
<wgt id='1513'> +6.4286291e-01 </wgt>
<wgt id='1514'> +6.4151090e-01 </wgt>
<wgt id='1515'> +6.4463644e-01 </wgt>
<wgt id='1516'> +6.4489797e-01 </wgt>
<wgt id='1517'> +6.4086963e-01 </wgt>
<wgt id='1518'> +6.3953707e-01 </wgt>
<wgt id='1519'> +6.4420664e-01 </wgt>
<wgt id='1520'> +6.4437852e-01 </wgt>
<wgt id='1521'> +6.4135743e-01 </wgt>
<wgt id='1522'> +6.4741919e-01 </wgt>
<wgt id='1523'> +6.3853370e-01 </wgt>
<wgt id='1524'> +6.5376851e-01 </wgt>
<wgt id='1525'> +6.3808956e-01 </wgt>
<wgt id='1526'> +6.4296547e-01 </wgt>
<wgt id='1527'> +6.4273570e-01 </wgt>
<wgt id='1528'> +6.4315821e-01 </wgt>
<wgt id='1529'> +6.4263222e-01 </wgt>
<wgt id='1530'> +7.0253870e-01 </wgt>
<wgt id='1531'> +6.0909687e-01 </wgt>
<wgt id='1532'> +6.0504267e-01 </wgt>
<wgt id='1533'> +6.9367190e-01 </wgt>
<wgt id='1534'> +7.0181253e-01 </wgt>
<wgt id='1535'> +6.0179845e-01 </wgt>
<wgt id='1536'> +6.3612343e-01 </wgt>
<wgt id='1537'> +6.4943350e-01 </wgt>
<wgt id='1538'> +6.4494410e-01 </wgt>
<wgt id='1539'> +6.3745110e-01 </wgt>
<wgt id='1540'> +6.4257444e-01 </wgt>
<wgt id='1541'> +6.4255197e-01 </wgt>
<wgt id='1542'> +6.6038233e-01 </wgt>
<wgt id='1543'> +6.0068092e-01 </wgt>
<wgt id='1544'> +6.2861171e-01 </wgt>
<wgt id='1545'> +6.7449499e-01 </wgt>
<wgt id='1546'> +6.5232058e-01 </wgt>
<wgt id='1547'> +6.2570226e-01 </wgt>
<wgt id='1548'> +6.2384759e-01 </wgt>
<wgt id='1549'> +6.5226043e-01 </wgt>
<wgt id='1550'> +6.4130102e-01 </wgt>
<wgt id='1551'> +6.4549573e-01 </wgt>
<wgt id='1552'> +6.6314662e-01 </wgt>
<wgt id='1553'> +6.2920270e-01 </wgt>
<wgt id='1554'> +6.0270569e-01 </wgt>
<wgt id='1555'> +6.9889302e-01 </wgt>
<wgt id='1556'> +6.4063352e-01 </wgt>
<wgt id='1557'> +6.5323219e-01 </wgt>
<wgt id='1558'> +6.7782398e-01 </wgt>
<wgt id='1559'> +6.1130443e-01 </wgt>
<wgt id='1560'> +6.0672689e-01 </wgt>
<wgt id='1561'> +6.5358582e-01 </wgt>
<wgt id='1562'> +6.5330132e-01 </wgt>
<wgt id='1563'> +6.3155926e-01 </wgt>
<wgt id='1564'> +6.4286291e-01 </wgt>
<wgt id='1565'> +6.1165023e-01 </wgt>
<wgt id='1566'> +6.8694971e-01 </wgt>
<wgt id='1567'> +6.4926900e-01 </wgt>
<wgt id='1568'> +6.6541629e-01 </wgt>
<wgt id='1569'> +6.6175621e-01 </wgt>
<wgt id='1570'> +6.5851236e-01 </wgt>
<wgt id='1571'> +6.5563001e-01 </wgt>
<wgt id='1572'> +6.5237294e-01 </wgt>
<wgt id='1573'> +6.4645817e-01 </wgt>
<wgt id='1574'> +6.4963493e-01 </wgt>
<wgt id='1575'> +6.4630202e-01 </wgt>
<wgt id='1576'> +6.4926900e-01 </wgt>
<wgt id='1577'> +6.4435891e-01 </wgt>
<wgt id='1578'> +6.4699527e-01 </wgt>
<wgt id='1579'> +6.5179821e-01 </wgt>
<wgt id='1580'> +6.5428870e-01 </wgt>
<wgt id='1581'> +5.7788568e-01 </wgt>
<wgt id='1582'> +5.7962783e-01 </wgt>
<wgt id='1583'> +5.7356148e-01 </wgt>
<wgt id='1584'> +5.7649072e-01 </wgt>
<wgt id='1585'> +5.7274467e-01 </wgt>
<wgt id='1586'> +6.4959643e-01 </wgt>
<wgt id='1587'> +5.9268278e-01 </wgt>
<wgt id='1588'> +5.7388525e-01 </wgt>
<wgt id='1589'> +5.7870640e-01 </wgt>
<wgt id='1590'> +5.9356091e-01 </wgt>
<wgt id='1591'> +5.8819912e-01 </wgt>
<wgt id='1592'> +5.5200439e-01 </wgt>
<wgt id='1593'> +5.8081546e-01 </wgt>
<wgt id='1594'> +5.9081796e-01 </wgt>
<wgt id='1595'> +5.8127658e-01 </wgt>
<wgt id='1596'> +5.8823628e-01 </wgt>
<wgt id='1597'> +5.8428375e-01 </wgt>
<wgt id='1598'> +5.8781227e-01 </wgt>
<wgt id='1599'> +5.6348185e-01 </wgt>
<wgt id='1600'> +5.7377052e-01 </wgt>
<wgt id='1601'> +5.7272112e-01 </wgt>
<wgt id='1602'> +5.7614049e-01 </wgt>
<wgt id='1603'> +5.8435093e-01 </wgt>
<wgt id='1604'> +5.6686954e-01 </wgt>
<wgt id='1605'> +5.7197410e-01 </wgt>
<wgt id='1606'> +5.7482007e-01 </wgt>
<wgt id='1607'> +5.7489236e-01 </wgt>
<wgt id='1608'> +5.7308755e-01 </wgt>
<wgt id='1609'> +5.6659279e-01 </wgt>
<wgt id='1610'> +5.8007347e-01 </wgt>
<wgt id='1611'> +5.5225862e-01 </wgt>
<wgt id='1612'> +5.2190051e-01 </wgt>
<wgt id='1613'> +5.2080641e-01 </wgt>
<wgt id='1614'> +5.1845553e-01 </wgt>
<wgt id='1615'> +5.2008820e-01 </wgt>
<wgt id='1616'> +5.1987367e-01 </wgt>
<wgt id='1617'> +5.2059298e-01 </wgt>
<wgt id='1618'> +5.2038097e-01 </wgt>
<wgt id='1619'> +5.2263135e-01 </wgt>
<wgt id='1620'> +5.1735256e-01 </wgt>
<wgt id='1621'> +5.1776913e-01 </wgt>
<wgt id='1622'> +5.2702097e-01 </wgt>
<wgt id='1623'> +5.1925344e-01 </wgt>
<wgt id='1624'> +5.1836542e-01 </wgt>
<wgt id='1625'> +5.1854257e-01 </wgt>
<wgt id='1626'> +5.1317621e-01 </wgt>
<wgt id='1627'> +5.2364251e-01 </wgt>
<wgt id='1628'> +5.1653649e-01 </wgt>
<wgt id='1629'> +5.2212062e-01 </wgt>
<wgt id='1630'> +5.2364406e-01 </wgt>
<wgt id='1631'> +5.1745235e-01 </wgt>
<wgt id='1632'> +5.2072088e-01 </wgt>
<wgt id='1633'> +5.1678483e-01 </wgt>
<wgt id='1634'> +5.1669863e-01 </wgt>
<wgt id='1635'> +5.2887742e-01 </wgt>
<wgt id='1636'> +5.1965631e-01 </wgt>
<wgt id='1637'> +5.1887863e-01 </wgt>
<wgt id='1638'> +5.3374701e-01 </wgt>
<wgt id='1639'> +5.2084378e-01 </wgt>
<wgt id='1640'> +5.1790708e-01 </wgt>
<wgt id='1641'> +5.3629225e-01 </wgt>
<wgt id='1642'> +5.1681261e-01 </wgt>
<wgt id='1643'> +5.2021408e-01 </wgt>
<wgt id='1644'> +5.1932747e-01 </wgt>
<wgt id='1645'> +5.2793506e-01 </wgt>
<wgt id='1646'> +5.2885422e-01 </wgt>
<wgt id='1647'> +5.1307865e-01 </wgt>
<wgt id='1648'> +5.1798549e-01 </wgt>
<wgt id='1649'> +5.2141187e-01 </wgt>
<wgt id='1650'> +5.2008629e-01 </wgt>
<wgt id='1651'> +5.1633288e-01 </wgt>
<wgt id='1652'> +5.2036543e-01 </wgt>
<wgt id='1653'> +5.1707684e-01 </wgt>
<wgt id='1654'> +5.3449233e-01 </wgt>
<wgt id='1655'> +5.3055503e-01 </wgt>
<wgt id='1656'> +5.1601345e-01 </wgt>
<wgt id='1657'> +5.3665269e-01 </wgt>
<wgt id='1658'> +5.1669723e-01 </wgt>
<wgt id='1659'> +5.1322637e-01 </wgt>
<wgt id='1660'> +5.3090652e-01 </wgt>
<wgt id='1661'> +5.1874014e-01 </wgt>
<wgt id='1662'> +5.2639505e-01 </wgt>
<wgt id='1663'> +5.1982457e-01 </wgt>
<wgt id='1664'> +5.2304276e-01 </wgt>
<wgt id='1665'> +5.2628295e-01 </wgt>
<wgt id='1666'> +5.2176712e-01 </wgt>
<wgt id='1667'> +5.2351963e-01 </wgt>
<wgt id='1668'> +5.1589584e-01 </wgt>
<wgt id='1669'> +5.2461954e-01 </wgt>
<wgt id='1670'> +5.1958982e-01 </wgt>
<wgt id='1671'> +5.1943014e-01 </wgt>
<wgt id='1672'> +5.2489838e-01 </wgt>
<wgt id='1673'> +5.2321008e-01 </wgt>
<wgt id='1674'> +5.1601098e-01 </wgt>
<wgt id='1675'> +5.2645144e-01 </wgt>
<wgt id='1676'> +5.2186809e-01 </wgt>
<wgt id='1677'> +5.2352212e-01 </wgt>
<wgt id='1678'> +5.3011281e-01 </wgt>
<wgt id='1679'> +5.1628836e-01 </wgt>
<wgt id='1680'> +5.2553608e-01 </wgt>
<wgt id='1681'> +5.2455640e-01 </wgt>
<wgt id='1682'> +5.1832211e-01 </wgt>
<wgt id='1683'> +5.2027263e-01 </wgt>
<wgt id='1684'> +5.1830350e-01 </wgt>
<wgt id='1685'> +5.2263092e-01 </wgt>
<wgt id='1686'> +5.1567754e-01 </wgt>
<wgt id='1687'> +5.1300747e-01 </wgt>
<wgt id='1688'> +5.2386524e-01 </wgt>
<wgt id='1689'> +5.1714116e-01 </wgt>
<wgt id='1690'> +5.2379943e-01 </wgt>
<wgt id='1691'> +5.2302385e-01 </wgt>
<wgt id='1692'> +5.2493813e-01 </wgt>
<wgt id='1693'> +5.2515829e-01 </wgt>
<wgt id='1694'> +5.2480522e-01 </wgt>
<wgt id='1695'> +5.2437388e-01 </wgt>
<wgt id='1696'> +5.2404431e-01 </wgt>
<wgt id='1697'> +5.2472432e-01 </wgt>
<wgt id='1698'> +5.2037729e-01 </wgt>
<wgt id='1699'> +5.1760051e-01 </wgt>
<wgt id='1700'> +5.2277295e-01 </wgt>
<wgt id='1701'> +5.2446340e-01 </wgt>
<wgt id='1702'> +5.2735672e-01 </wgt>
<wgt id='1703'> +5.2014160e-01 </wgt>
<wgt id='1704'> +5.2280608e-01 </wgt>
<wgt id='1705'> +5.2292955e-01 </wgt>
<wgt id='1706'> +5.2411215e-01 </wgt>
<wgt id='1707'> +5.2280673e-01 </wgt>
<wgt id='1708'> +5.2159233e-01 </wgt>
<wgt id='1709'> +5.2508315e-01 </wgt>
<wgt id='1710'> +5.2022648e-01 </wgt>
<wgt id='1711'> +5.2358511e-01 </wgt>
<wgt id='1712'> +5.2395003e-01 </wgt>
<wgt id='1713'> +5.1085361e-01 </wgt>
<wgt id='1714'> +5.4467725e-01 </wgt>
<wgt id='1715'> +5.2056244e-01 </wgt>
<wgt id='1716'> +5.4885892e-01 </wgt>
<wgt id='1717'> +5.1255124e-01 </wgt>
<wgt id='1718'> +5.6013372e-01 </wgt>
<wgt id='1719'> +5.2646002e-01 </wgt>
<wgt id='1720'> +5.4981319e-01 </wgt>
<wgt id='1721'> +5.6568248e-01 </wgt>
<wgt id='1722'> +6.1076751e-01 </wgt>
<wgt id='1723'> +5.1781887e-01 </wgt>
<wgt id='1724'> +5.2401973e-01 </wgt>
<wgt id='1725'> +5.1904700e-01 </wgt>
<wgt id='1726'> +5.0443445e-01 </wgt>
<wgt id='1727'> +5.4068227e-01 </wgt>
<wgt id='1728'> +5.3817083e-01 </wgt>
<wgt id='1729'> +5.4624324e-01 </wgt>
<wgt id='1730'> +5.2936961e-01 </wgt>
<wgt id='1731'> +5.4411604e-01 </wgt>
<wgt id='1732'> +4.6947425e-01 </wgt>
<wgt id='1733'> +5.0960431e-01 </wgt>
<wgt id='1734'> +4.8058653e-01 </wgt>
<wgt id='1735'> +7.2998383e-01 </wgt>
<wgt id='1736'> +5.7897327e-01 </wgt>
<wgt id='1737'> +4.9275802e-01 </wgt>
<wgt id='1738'> +5.3217110e-01 </wgt>
<wgt id='1739'> +5.1188192e-01 </wgt>
<wgt id='1740'> +5.6842580e-01 </wgt>
<wgt id='1741'> +5.2650987e-01 </wgt>
<wgt id='1742'> +4.7833470e-01 </wgt>
<wgt id='1743'> +4.5597559e-01 </wgt>
<wgt id='1744'> +5.5143165e-01 </wgt>
<wgt id='1745'> +5.8528946e-01 </wgt>
<wgt id='1746'> +5.2745840e-01 </wgt>
<wgt id='1747'> +5.6168533e-01 </wgt>
<wgt id='1748'> +5.6249414e-01 </wgt>
<wgt id='1749'> +5.2947711e-01 </wgt>
<wgt id='1750'> +4.9166875e-01 </wgt>
<wgt id='1751'> +5.0320579e-01 </wgt>
<wgt id='1752'> +5.1125810e-01 </wgt>
<wgt id='1753'> +5.0116360e-01 </wgt>
<wgt id='1754'> +5.3047620e-01 </wgt>
<wgt id='1755'> +5.6150562e-01 </wgt>
<wgt id='1756'> +4.4709030e-01 </wgt>
<wgt id='1757'> +5.6269607e-01 </wgt>
<wgt id='1758'> +5.3940104e-01 </wgt>
<wgt id='1759'> +4.8711912e-01 </wgt>
<wgt id='1760'> +5.6858391e-01 </wgt>
<wgt id='1761'> +6.1590778e-01 </wgt>
<wgt id='1762'> +5.4068227e-01 </wgt>
<wgt id='1763'> +5.4388032e-01 </wgt>
<wgt id='1764'> +5.1346462e-01 </wgt>
<wgt id='1765'> +5.0028311e-01 </wgt>
<wgt id='1766'> +4.8523151e-01 </wgt>
<wgt id='1767'> +4.9555227e-01 </wgt>
<wgt id='1768'> +5.1062935e-01 </wgt>
<wgt id='1769'> +4.1679646e-01 </wgt>
<wgt id='1770'> +5.1695074e-01 </wgt>
<wgt id='1771'> +5.7280950e-01 </wgt>
<wgt id='1772'> +4.8060132e-01 </wgt>
<wgt id='1773'> +5.0031491e-01 </wgt>
<wgt id='1774'> +4.2969071e-01 </wgt>
<wgt id='1775'> +4.7466572e-01 </wgt>
<wgt id='1776'> +4.8677788e-01 </wgt>
<wgt id='1777'> +5.1724891e-01 </wgt>
<wgt id='1778'> +4.9866802e-01 </wgt>
<wgt id='1779'> +4.3437879e-01 </wgt>
<wgt id='1780'> +4.2035096e-01 </wgt>
<wgt id='1781'> +5.3742688e-01 </wgt>
<wgt id='1782'> +4.5692798e-01 </wgt>
<wgt id='1783'> +4.5645231e-01 </wgt>
<wgt id='1784'> +4.6033496e-01 </wgt>
<wgt id='1785'> +5.2812639e-01 </wgt>
<wgt id='1786'> +4.9657608e-01 </wgt>
<wgt id='1787'> +5.5594722e-01 </wgt>
<wgt id='1788'> +5.5454168e-01 </wgt>
<wgt id='1789'> +5.2573467e-01 </wgt>
<wgt id='1790'> +4.7227154e-01 </wgt>
<wgt id='1791'> +5.8269027e-01 </wgt>
<wgt id='1792'> +5.0030200e-01 </wgt>
<wgt id='1793'> +5.1861884e-01 </wgt>
<wgt id='1794'> +4.7395856e-01 </wgt>
<wgt id='1795'> +5.6538850e-01 </wgt>
<wgt id='1796'> +4.9573773e-01 </wgt>
<wgt id='1797'> +5.7420994e-01 </wgt>
<wgt id='1798'> +4.6893755e-01 </wgt>
<wgt id='1799'> +4.7997503e-01 </wgt>
<wgt id='1800'> +5.1255724e-01 </wgt>
<wgt id='1801'> +5.2244815e-01 </wgt>
<wgt id='1802'> +4.6486050e-01 </wgt>
<wgt id='1803'> +5.2405215e-01 </wgt>
<wgt id='1804'> +5.1110854e-01 </wgt>
<wgt id='1805'> +5.1588019e-01 </wgt>
<wgt id='1806'> +4.7504963e-01 </wgt>
<wgt id='1807'> +5.2774057e-01 </wgt>
<wgt id='1808'> +5.8328900e-01 </wgt>
<wgt id='1809'> +5.5457937e-01 </wgt>
<wgt id='1810'> +5.5527779e-01 </wgt>
<wgt id='1811'> +5.2380284e-01 </wgt>
<wgt id='1812'> +5.4469295e-01 </wgt>
<wgt id='1813'> +5.7416689e-01 </wgt>
<wgt id='1814'> +4.7326203e-01 </wgt>
<wgt id='1815'> +5.4414683e-01 </wgt>
<wgt id='1816'> +5.7109039e-01 </wgt>
<wgt id='1817'> +5.5241348e-01 </wgt>
<wgt id='1818'> +6.0220342e-01 </wgt>
<wgt id='1819'> +5.8069613e-01 </wgt>
<wgt id='1820'> +5.6917646e-01 </wgt>
<wgt id='1821'> +5.0658603e-01 </wgt>
<wgt id='1822'> +5.7363590e-01 </wgt>
<wgt id='1823'> +5.2304228e-01 </wgt>
<wgt id='1824'> +6.0279752e-01 </wgt>
<wgt id='1825'> +5.7503637e-01 </wgt>
<wgt id='1826'> +5.1507387e-01 </wgt>
<wgt id='1827'> +5.4636643e-01 </wgt>
<wgt id='1828'> +5.5604038e-01 </wgt>
<wgt id='1829'> +5.8455516e-01 </wgt>
<wgt id='1830'> +5.2911099e-01 </wgt>
<wgt id='1831'> +5.8729188e-01 </wgt>
<wgt id='1832'> +5.8436339e-01 </wgt>
<wgt id='1833'> +7.4707350e-01 </wgt>
<wgt id='1834'> +7.0819337e-01 </wgt>
<wgt id='1835'> +5.3643187e-01 </wgt>
<wgt id='1836'> +5.7516142e-01 </wgt>
<wgt id='1837'> +4.8419710e-01 </wgt>
<wgt id='1838'> +4.2217230e-01 </wgt>
<wgt id='1839'> +5.0774077e-01 </wgt>
<wgt id='1840'> +4.8074102e-01 </wgt>
<wgt id='1841'> +6.1217688e-01 </wgt>
<wgt id='1842'> +5.9102636e-01 </wgt>
<wgt id='1843'> +6.9603881e-01 </wgt>
<wgt id='1844'> +6.1772452e-01 </wgt>
<wgt id='1845'> +6.3306751e-01 </wgt>
<wgt id='1846'> +5.5957556e-01 </wgt>
<wgt id='1847'> +5.7668920e-01 </wgt>
<wgt id='1848'> +5.1146462e-01 </wgt>
<wgt id='1849'> +5.8253839e-01 </wgt>
<wgt id='1850'> +4.9123970e-01 </wgt>
<wgt id='1851'> +6.4037945e-01 </wgt>
<wgt id='1852'> +6.0504712e-01 </wgt>
<wgt id='1853'> +6.3806618e-01 </wgt>
<wgt id='1854'> +5.0740021e-01 </wgt>
<wgt id='1855'> +4.9688081e-01 </wgt>
<wgt id='1856'> +5.6881676e-01 </wgt>
<wgt id='1857'> +4.7053646e-01 </wgt>
<wgt id='1858'> +6.2614832e-01 </wgt>
<wgt id='1859'> +5.3663867e-01 </wgt>
<wgt id='1860'> +6.3654870e-01 </wgt>
<wgt id='1861'> +4.6623393e-01 </wgt>
<wgt id='1862'> +4.6759301e-01 </wgt>
<wgt id='1863'> +6.6550531e-01 </wgt>
<wgt id='1864'> +5.5922746e-01 </wgt>
<wgt id='1865'> +5.9490574e-01 </wgt>
<wgt id='1866'> +5.6943130e-01 </wgt>
<wgt id='1867'> +5.9103227e-01 </wgt>
<wgt id='1868'> +5.4744318e-01 </wgt>
<wgt id='1869'> +5.0905857e-01 </wgt>
<wgt id='1870'> +5.8341811e-01 </wgt>
<wgt id='1871'> +5.5667785e-01 </wgt>
<wgt id='1872'> +6.5144657e-01 </wgt>
<wgt id='1873'> +5.9133888e-01 </wgt>
<wgt id='1874'> +5.7127163e-01 </wgt>
<wgt id='1875'> +5.9024119e-01 </wgt>
<wgt id='1876'> +5.1206487e-01 </wgt>
<wgt id='1877'> +5.7979335e-01 </wgt>
<wgt id='1878'> +5.3302590e-01 </wgt>
<wgt id='1879'> +5.9243626e-01 </wgt>
<wgt id='1880'> +8.4175060e-01 </wgt>
<wgt id='1881'> +5.9455910e-01 </wgt>
<wgt id='1882'> +5.7130765e-01 </wgt>
<wgt id='1883'> +4.7982373e-01 </wgt>
<wgt id='1884'> +5.2869885e-01 </wgt>
<wgt id='1885'> +6.1717788e-01 </wgt>
<wgt id='1886'> +6.1467961e-01 </wgt>
<wgt id='1887'> +4.6399755e-01 </wgt>
<wgt id='1888'> +5.8494744e-01 </wgt>
<wgt id='1889'> +4.6274078e-01 </wgt>
<wgt id='1890'> +6.8135488e-01 </wgt>
<wgt id='1891'> +5.6278213e-01 </wgt>
<wgt id='1892'> +5.3544032e-01 </wgt>
<wgt id='1893'> +5.1318591e-01 </wgt>
<wgt id='1894'> +6.0738077e-01 </wgt>
<wgt id='1895'> +5.5597427e-01 </wgt>
<wgt id='1896'> +5.5161674e-01 </wgt>
<wgt id='1897'> +4.6762334e-01 </wgt>
<wgt id='1898'> +4.7348994e-01 </wgt>
<wgt id='1899'> +6.5679850e-01 </wgt>
<wgt id='1900'> +5.2267429e-01 </wgt>
<wgt id='1901'> +6.4364071e-01 </wgt>
<wgt id='1902'> +6.3172192e-01 </wgt>
<wgt id='1903'> +6.0617796e-01 </wgt>
<wgt id='1904'> +5.7251201e-01 </wgt>
<wgt id='1905'> +6.4023444e-01 </wgt>
<wgt id='1906'> +5.5404432e-01 </wgt>
<wgt id='1907'> +5.9663210e-01 </wgt>
<wgt id='1908'> +4.9000914e-01 </wgt>
<wgt id='1909'> +5.9622917e-01 </wgt>
<wgt id='1910'> +4.7786668e-01 </wgt>
<wgt id='1911'> +7.1947007e-01 </wgt>
<wgt id='1912'> +5.4471157e-01 </wgt>
<wgt id='1913'> +6.2826199e-01 </wgt>
<wgt id='1914'> +4.7030619e-01 </wgt>
<wgt id='1915'> +6.3521614e-01 </wgt>
<wgt id='1916'> +6.7858732e-01 </wgt>
<wgt id='1917'> +3.7788506e-01 </wgt>
<wgt id='1918'> +3.5347280e-01 </wgt>
<wgt id='1919'> +5.7109039e-01 </wgt>
<wgt id='1920'> +5.5241348e-01 </wgt>
<wgt id='1921'> +6.0220342e-01 </wgt>
<wgt id='1922'> +5.8069613e-01 </wgt>
<wgt id='1923'> +5.6917646e-01 </wgt>
<wgt id='1924'> +5.0658603e-01 </wgt>
<wgt id='1925'> +5.7363590e-01 </wgt>
<wgt id='1926'> +5.2304228e-01 </wgt>
<wgt id='1927'> +6.0279752e-01 </wgt>
<wgt id='1928'> +5.7503637e-01 </wgt>
<wgt id='1929'> +5.1507387e-01 </wgt>
<wgt id='1930'> +5.4636643e-01 </wgt>
<wgt id='1931'> +5.5604038e-01 </wgt>
<wgt id='1932'> +5.8455516e-01 </wgt>
<wgt id='1933'> +5.2911099e-01 </wgt>
<wgt id='1934'> +5.8729188e-01 </wgt>
<wgt id='1935'> +5.8436339e-01 </wgt>
<wgt id='1936'> +7.4707350e-01 </wgt>
<wgt id='1937'> +7.0819337e-01 </wgt>
<wgt id='1938'> +5.3643187e-01 </wgt>
<wgt id='1939'> +5.7516142e-01 </wgt>
<wgt id='1940'> +4.8419710e-01 </wgt>
<wgt id='1941'> +4.2217230e-01 </wgt>
<wgt id='1942'> +5.0774077e-01 </wgt>
<wgt id='1943'> +4.8074102e-01 </wgt>
<wgt id='1944'> +6.1217688e-01 </wgt>
<wgt id='1945'> +5.9102636e-01 </wgt>
<wgt id='1946'> +6.9603881e-01 </wgt>
<wgt id='1947'> +6.1772452e-01 </wgt>
<wgt id='1948'> +6.3306751e-01 </wgt>
<wgt id='1949'> +5.5957556e-01 </wgt>
<wgt id='1950'> +5.7668920e-01 </wgt>
<wgt id='1951'> +5.1146462e-01 </wgt>
<wgt id='1952'> +5.8253839e-01 </wgt>
<wgt id='1953'> +4.9123970e-01 </wgt>
<wgt id='1954'> +6.4037945e-01 </wgt>
<wgt id='1955'> +6.0504712e-01 </wgt>
<wgt id='1956'> +6.3806618e-01 </wgt>
<wgt id='1957'> +5.0740021e-01 </wgt>
<wgt id='1958'> +4.9688081e-01 </wgt>
<wgt id='1959'> +5.6881676e-01 </wgt>
<wgt id='1960'> +4.7053646e-01 </wgt>
<wgt id='1961'> +6.2614832e-01 </wgt>
<wgt id='1962'> +5.3663867e-01 </wgt>
<wgt id='1963'> +6.3654870e-01 </wgt>
<wgt id='1964'> +4.6623393e-01 </wgt>
<wgt id='1965'> +4.6759301e-01 </wgt>
<wgt id='1966'> +6.6550531e-01 </wgt>
<wgt id='1967'> +5.5922746e-01 </wgt>
<wgt id='1968'> +5.9490574e-01 </wgt>
<wgt id='1969'> +5.6943130e-01 </wgt>
<wgt id='1970'> +5.9103227e-01 </wgt>
<wgt id='1971'> +5.4744318e-01 </wgt>
<wgt id='1972'> +5.0905857e-01 </wgt>
<wgt id='1973'> +5.8341811e-01 </wgt>
<wgt id='1974'> +5.5667785e-01 </wgt>
<wgt id='1975'> +6.5144657e-01 </wgt>
<wgt id='1976'> +5.9133888e-01 </wgt>
<wgt id='1977'> +5.7127163e-01 </wgt>
<wgt id='1978'> +5.9024119e-01 </wgt>
<wgt id='1979'> +5.1206487e-01 </wgt>
<wgt id='1980'> +5.7979335e-01 </wgt>
<wgt id='1981'> +5.3302590e-01 </wgt>
<wgt id='1982'> +5.9243626e-01 </wgt>
<wgt id='1983'> +8.4175060e-01 </wgt>
<wgt id='1984'> +5.9455910e-01 </wgt>
<wgt id='1985'> +5.7130765e-01 </wgt>
<wgt id='1986'> +4.7982373e-01 </wgt>
<wgt id='1987'> +5.2869885e-01 </wgt>
<wgt id='1988'> +6.1717788e-01 </wgt>
<wgt id='1989'> +6.1467961e-01 </wgt>
<wgt id='1990'> +4.6399755e-01 </wgt>
<wgt id='1991'> +5.8494744e-01 </wgt>
<wgt id='1992'> +4.6274078e-01 </wgt>
<wgt id='1993'> +6.8135488e-01 </wgt>
<wgt id='1994'> +5.6278213e-01 </wgt>
<wgt id='1995'> +5.3544032e-01 </wgt>
<wgt id='1996'> +5.1318591e-01 </wgt>
<wgt id='1997'> +6.0738077e-01 </wgt>
<wgt id='1998'> +5.5597427e-01 </wgt>
<wgt id='1999'> +5.5161674e-01 </wgt>
<wgt id='2000'> +4.6762334e-01 </wgt>
<wgt id='2001'> +4.7348994e-01 </wgt>
<wgt id='2002'> +6.5679850e-01 </wgt>
<wgt id='2003'> +5.2267429e-01 </wgt>
<wgt id='2004'> +6.4364071e-01 </wgt>
<wgt id='2005'> +6.3172192e-01 </wgt>
<wgt id='2006'> +6.0617796e-01 </wgt>
<wgt id='2007'> +5.7251201e-01 </wgt>
<wgt id='2008'> +6.4023444e-01 </wgt>
<wgt id='2009'> +5.5404432e-01 </wgt>
<wgt id='2010'> +5.9663210e-01 </wgt>
<wgt id='2011'> +4.9000914e-01 </wgt>
<wgt id='2012'> +5.9622917e-01 </wgt>
<wgt id='2013'> +4.7786668e-01 </wgt>
<wgt id='2014'> +7.1947007e-01 </wgt>
<wgt id='2015'> +5.4471157e-01 </wgt>
<wgt id='2016'> +6.2826199e-01 </wgt>
<wgt id='2017'> +4.7030619e-01 </wgt>
<wgt id='2018'> +6.3521614e-01 </wgt>
<wgt id='2019'> +6.7858732e-01 </wgt>
<wgt id='2020'> +5.5480417e-01 </wgt>
<wgt id='2021'> +6.0003129e-01 </wgt>
<wgt id='2022'> +5.4979799e-01 </wgt>
</rwgt>
</event>
<event>
 12 2 0.0079112 9.27680200e+01 7.81860800e-03 1.13424500e-01
       21 -1    0    0  502  503 +0.0000000000e+00 +0.0000000000e+00 +2.8655158411e+02 2.8655158411e+02 0.0000000000e+00 0.0000e+00 1.0000e+00
       -4 -1    0    0    0  501 +0.0000000000e+00 +0.0000000000e+00 -4.7654082540e+02 4.7654251769e+02 1.2700000000e+00 0.0000e+00 1.0000e+00
       -3  1    1    2    0  501 +9.2917402372e+00 -9.1761403215e+01 -7.2509292245e+01 1.1732049786e+02 1.0100000000e-01 0.0000e+00 1.0000e+00
        5  1    1    2  502    0 -6.7748484738e+00 -7.5444250577e+00 -2.9186273245e+01 3.1248429848e+01 4.6700000000e+00 0.0000e+00 -1.0000e+00
       -6  2    1    2    0  503 -1.4361459901e+02 +6.2618941056e+01 +1.8133899097e+02 2.9513029055e+02 1.7225496778e+02 0.0000e+00 0.0000e+00
       -5  1    5    5    0  503 -1.0981953514e+02 -2.4720080212e+01 +9.8338699151e+01 1.4954504778e+02 4.6700000000e+00 0.0000e+00 1.0000e+00
      -24  2    5    5    0    0 -3.3795063865e+01 +8.7339021268e+01 +8.3000291823e+01 1.4558524277e+02 7.4402980391e+01 0.0000e+00 0.0000e+00
      -12  1    7    7    0    0 +1.9037811447e+01 +7.6821228763e+00 +2.9816090906e+01 3.6200173390e+01 0.0000000000e+00 0.0000e+00 1.0000e+00
       11  1    7    7    0    0 -5.2832875312e+01 +7.9656898391e+01 +5.3184200917e+01 1.0938506938e+02 5.1100000000e-04 0.0000e+00 -1.0000e+00
       23  2    1    2    0    0 +1.4109770724e+02 +3.6686887217e+01 -2.6963266677e+02 3.1939488354e+02 8.9759823737e+01 0.0000e+00 0.0000e+00
       16  1   10   10    0    0 +5.0402241457e+01 -9.1721654412e+00 -1.6811537555e+02 1.7574781381e+02 0.0000000000e+00 0.0000e+00 -1.0000e+00
      -16  1   10   10    0    0 +9.0695465786e+01 +4.5859052658e+01 -1.0151729123e+02 1.4364706973e+02 0.0000000000e+00 0.0000e+00 1.0000e+00
<mgrwt>
<rscale>  1 0.87391092e+02</rscale>
<asrwt>0</asrwt>
<pdfrwt beam="1">  1       21 0.44084859e-01 0.82325815e+02</pdfrwt>
<pdfrwt beam="2">  1       -4 0.73314319e-01 0.92768022e+02</pdfrwt>
<totfact> 0.38773023e+02</totfact>
</mgrwt>
<rwgt>
<wgt id='1001'> +5.2878984e-01 </wgt>
<wgt id='1002'> +4.0680717e-01 </wgt>
<wgt id='1003'> +4.0669078e-01 </wgt>
<wgt id='1004'> +4.5121044e-01 </wgt>
<wgt id='1005'> +3.8206852e-01 </wgt>
<wgt id='1006'> +4.7630514e-01 </wgt>
<wgt id='1007'> +3.7470336e-01 </wgt>
<wgt id='1008'> +3.7460365e-01 </wgt>
<wgt id='1009'> +4.1240138e-01 </wgt>
<wgt id='1010'> +3.5335987e-01 </wgt>
<wgt id='1011'> +5.9477653e-01 </wgt>
<wgt id='1012'> +4.4510059e-01 </wgt>
<wgt id='1013'> +4.4496245e-01 </wgt>
<wgt id='1014'> +4.9833565e-01 </wgt>
<wgt id='1015'> +4.1598772e-01 </wgt>
<wgt id='1016'> +5.2878830e-01 </wgt>
<wgt id='1017'> +3.9852982e-01 </wgt>
<wgt id='1018'> +3.9840693e-01 </wgt>
<wgt id='1019'> +4.4496245e-01 </wgt>
<wgt id='1020'> +3.7345809e-01 </wgt>
<wgt id='1021'> +4.7630375e-01 </wgt>
<wgt id='1022'> +3.6707923e-01 </wgt>
<wgt id='1023'> +3.6697337e-01 </wgt>
<wgt id='1024'> +4.0669078e-01 </wgt>
<wgt id='1025'> +3.4539642e-01 </wgt>
<wgt id='1026'> +5.9477480e-01 </wgt>
<wgt id='1027'> +4.3604408e-01 </wgt>
<wgt id='1028'> +4.3589904e-01 </wgt>
<wgt id='1029'> +4.9143510e-01 </wgt>
<wgt id='1030'> +4.0661287e-01 </wgt>
<wgt id='1031'> +5.1928543e-01 </wgt>
<wgt id='1032'> +4.1251340e-01 </wgt>
<wgt id='1033'> +4.1240138e-01 </wgt>
<wgt id='1034'> +4.5339647e-01 </wgt>
<wgt id='1035'> +3.8890207e-01 </wgt>
<wgt id='1036'> +4.6774408e-01 </wgt>
<wgt id='1037'> +3.7995928e-01 </wgt>
<wgt id='1038'> +3.7986369e-01 </wgt>
<wgt id='1039'> +4.1439939e-01 </wgt>
<wgt id='1040'> +3.5967994e-01 </wgt>
<wgt id='1041'> +5.8408608e-01 </wgt>
<wgt id='1042'> +4.5134396e-01 </wgt>
<wgt id='1043'> +4.5121044e-01 </wgt>
<wgt id='1044'> +5.0074999e-01 </wgt>
<wgt id='1045'> +4.2342793e-01 </wgt>
<wgt id='1046'> +5.2878984e-01 </wgt>
<wgt id='1047'> +5.2878984e-01 </wgt>
<wgt id='1048'> +5.2878984e-01 </wgt>
<wgt id='1049'> +5.3344305e-01 </wgt>
<wgt id='1050'> +5.2821830e-01 </wgt>
<wgt id='1051'> +5.2604711e-01 </wgt>
<wgt id='1052'> +5.2783640e-01 </wgt>
<wgt id='1053'> +5.2479609e-01 </wgt>
<wgt id='1054'> +5.3199495e-01 </wgt>
<wgt id='1055'> +5.3297975e-01 </wgt>
<wgt id='1056'> +5.3577447e-01 </wgt>
<wgt id='1057'> +5.2291671e-01 </wgt>
<wgt id='1058'> +5.3163909e-01 </wgt>
<wgt id='1059'> +5.2904421e-01 </wgt>
<wgt id='1060'> +5.2829651e-01 </wgt>
<wgt id='1061'> +5.2557548e-01 </wgt>
<wgt id='1062'> +5.3366685e-01 </wgt>
<wgt id='1063'> +5.1898470e-01 </wgt>
<wgt id='1064'> +5.3992143e-01 </wgt>
<wgt id='1065'> +5.3404875e-01 </wgt>
<wgt id='1066'> +5.3552502e-01 </wgt>
<wgt id='1067'> +5.2064710e-01 </wgt>
<wgt id='1068'> +5.2814244e-01 </wgt>
<wgt id='1069'> +5.3027973e-01 </wgt>
<wgt id='1070'> +5.1641567e-01 </wgt>
<wgt id='1071'> +5.2890027e-01 </wgt>
<wgt id='1072'> +5.3601407e-01 </wgt>
<wgt id='1073'> +5.3183472e-01 </wgt>
<wgt id='1074'> +5.2544232e-01 </wgt>
<wgt id='1075'> +5.1677489e-01 </wgt>
<wgt id='1076'> +5.2982887e-01 </wgt>
<wgt id='1077'> +5.1247995e-01 </wgt>
<wgt id='1078'> +5.2900261e-01 </wgt>
<wgt id='1079'> +5.0938311e-01 </wgt>
<wgt id='1080'> +5.3441517e-01 </wgt>
<wgt id='1081'> +5.2352325e-01 </wgt>
<wgt id='1082'> +5.2138540e-01 </wgt>
<wgt id='1083'> +5.2640612e-01 </wgt>
<wgt id='1084'> +5.3583231e-01 </wgt>
<wgt id='1085'> +5.3296893e-01 </wgt>
<wgt id='1086'> +5.2294154e-01 </wgt>
<wgt id='1087'> +5.2629714e-01 </wgt>
<wgt id='1088'> +5.2218625e-01 </wgt>
<wgt id='1089'> +5.2831119e-01 </wgt>
<wgt id='1090'> +5.2845333e-01 </wgt>
<wgt id='1091'> +5.3257462e-01 </wgt>
<wgt id='1092'> +5.2645630e-01 </wgt>
<wgt id='1093'> +5.3164172e-01 </wgt>
<wgt id='1094'> +5.3031657e-01 </wgt>
<wgt id='1095'> +5.3166130e-01 </wgt>
<wgt id='1096'> +5.2459120e-01 </wgt>
<wgt id='1097'> +5.2891521e-01 </wgt>
<wgt id='1098'> +5.2915910e-01 </wgt>
<wgt id='1099'> +5.2880901e-01 </wgt>
<wgt id='1100'> +5.2562055e-01 </wgt>
<wgt id='1101'> +5.2694092e-01 </wgt>
<wgt id='1102'> +5.2591407e-01 </wgt>
<wgt id='1103'> +5.2881207e-01 </wgt>
<wgt id='1104'> +5.2141780e-01 </wgt>
<wgt id='1105'> +5.2734242e-01 </wgt>
<wgt id='1106'> +5.2588460e-01 </wgt>
<wgt id='1107'> +5.2564625e-01 </wgt>
<wgt id='1108'> +5.2646634e-01 </wgt>
<wgt id='1109'> +5.2523204e-01 </wgt>
<wgt id='1110'> +5.2698995e-01 </wgt>
<wgt id='1111'> +5.3615412e-01 </wgt>
<wgt id='1112'> +5.3227896e-01 </wgt>
<wgt id='1113'> +5.2936675e-01 </wgt>
<wgt id='1114'> +5.2110819e-01 </wgt>
<wgt id='1115'> +5.2748567e-01 </wgt>
<wgt id='1116'> +5.2402485e-01 </wgt>
<wgt id='1117'> +5.2735686e-01 </wgt>
<wgt id='1118'> +5.2165863e-01 </wgt>
<wgt id='1119'> +5.2870827e-01 </wgt>
<wgt id='1120'> +5.3230807e-01 </wgt>
<wgt id='1121'> +5.3144459e-01 </wgt>
<wgt id='1122'> +5.3178526e-01 </wgt>
<wgt id='1123'> +5.2889330e-01 </wgt>
<wgt id='1124'> +5.2895980e-01 </wgt>
<wgt id='1125'> +5.2641289e-01 </wgt>
<wgt id='1126'> +5.2664786e-01 </wgt>
<wgt id='1127'> +5.3037837e-01 </wgt>
<wgt id='1128'> +5.2836194e-01 </wgt>
<wgt id='1129'> +5.2935685e-01 </wgt>
<wgt id='1130'> +5.2400579e-01 </wgt>
<wgt id='1131'> +5.2771860e-01 </wgt>
<wgt id='1132'> +5.2583723e-01 </wgt>
<wgt id='1133'> +5.3015556e-01 </wgt>
<wgt id='1134'> +5.2805704e-01 </wgt>
<wgt id='1135'> +5.2619097e-01 </wgt>
<wgt id='1136'> +5.2896764e-01 </wgt>
<wgt id='1137'> +5.2766394e-01 </wgt>
<wgt id='1138'> +5.3384694e-01 </wgt>
<wgt id='1139'> +5.2884364e-01 </wgt>
<wgt id='1140'> +5.2762591e-01 </wgt>
<wgt id='1141'> +5.2838679e-01 </wgt>
<wgt id='1142'> +5.2367577e-01 </wgt>
<wgt id='1143'> +5.2679235e-01 </wgt>
<wgt id='1144'> +5.3043122e-01 </wgt>
<wgt id='1145'> +5.3279636e-01 </wgt>
<wgt id='1146'> +5.2886463e-01 </wgt>
<wgt id='1147'> +5.2631101e-01 </wgt>
<wgt id='1148'> +5.2878984e-01 </wgt>
<wgt id='1149'> +5.5884799e-01 </wgt>
<wgt id='1150'> +4.5881666e-01 </wgt>
<wgt id='1151'> +5.7734452e-01 </wgt>
<wgt id='1152'> +5.9392777e-01 </wgt>
<wgt id='1153'> +5.8591944e-01 </wgt>
<wgt id='1154'> +5.7065699e-01 </wgt>
<wgt id='1155'> +6.0285763e-01 </wgt>
<wgt id='1156'> +5.4074655e-01 </wgt>
<wgt id='1157'> +5.8000792e-01 </wgt>
<wgt id='1158'> +5.3723021e-01 </wgt>
<wgt id='1159'> +6.0453412e-01 </wgt>
<wgt id='1160'> +6.0244527e-01 </wgt>
<wgt id='1161'> +5.7547116e-01 </wgt>
<wgt id='1162'> +5.8812054e-01 </wgt>
<wgt id='1163'> +5.6888257e-01 </wgt>
<wgt id='1164'> +5.3130603e-01 </wgt>
<wgt id='1165'> +5.8529975e-01 </wgt>
<wgt id='1166'> +5.3973781e-01 </wgt>
<wgt id='1167'> +5.8126681e-01 </wgt>
<wgt id='1168'> +5.0526950e-01 </wgt>
<wgt id='1169'> +5.5904363e-01 </wgt>
<wgt id='1170'> +5.1000157e-01 </wgt>
<wgt id='1171'> +4.9362181e-01 </wgt>
<wgt id='1172'> +5.0741968e-01 </wgt>
<wgt id='1173'> +5.6109500e-01 </wgt>
<wgt id='1174'> +5.4860590e-01 </wgt>
<wgt id='1175'> +5.2358131e-01 </wgt>
<wgt id='1176'> +4.9901220e-01 </wgt>
<wgt id='1177'> +5.4247062e-01 </wgt>
<wgt id='1178'> +5.8144599e-01 </wgt>
<wgt id='1179'> +5.8968287e-01 </wgt>
<wgt id='1180'> +5.3503225e-01 </wgt>
<wgt id='1181'> +6.7426443e-01 </wgt>
<wgt id='1182'> +5.1020593e-01 </wgt>
<wgt id='1183'> +5.8396918e-01 </wgt>
<wgt id='1184'> +6.0216507e-01 </wgt>
<wgt id='1185'> +5.5268362e-01 </wgt>
<wgt id='1186'> +5.1779263e-01 </wgt>
<wgt id='1187'> +5.9379523e-01 </wgt>
<wgt id='1188'> +5.0861176e-01 </wgt>
<wgt id='1189'> +5.7788927e-01 </wgt>
<wgt id='1190'> +5.1509352e-01 </wgt>
<wgt id='1191'> +5.7970471e-01 </wgt>
<wgt id='1192'> +5.1543676e-01 </wgt>
<wgt id='1193'> +5.1169462e-01 </wgt>
<wgt id='1194'> +5.7204009e-01 </wgt>
<wgt id='1195'> +5.4490144e-01 </wgt>
<wgt id='1196'> +5.9019920e-01 </wgt>
<wgt id='1197'> +5.6083905e-01 </wgt>
<wgt id='1198'> +5.2536392e-01 </wgt>
<wgt id='1199'> +5.4539092e-01 </wgt>
<wgt id='1200'> +5.4151214e-01 </wgt>
<wgt id='1201'> +5.6057915e-01 </wgt>
<wgt id='1202'> +6.2319938e-01 </wgt>
<wgt id='1203'> +5.0184266e-01 </wgt>
<wgt id='1204'> +4.7432807e-01 </wgt>
<wgt id='1205'> +5.2951067e-01 </wgt>
<wgt id='1206'> +4.6180117e-01 </wgt>
<wgt id='1207'> +4.9674644e-01 </wgt>
<wgt id='1208'> +5.4021968e-01 </wgt>
<wgt id='1209'> +4.5865201e-01 </wgt>
<wgt id='1210'> +5.4604322e-01 </wgt>
<wgt id='1211'> +5.5285293e-01 </wgt>
<wgt id='1212'> +5.4855458e-01 </wgt>
<wgt id='1213'> +6.4286247e-01 </wgt>
<wgt id='1214'> +5.2518169e-01 </wgt>
<wgt id='1215'> +5.6162838e-01 </wgt>
<wgt id='1216'> +5.2218208e-01 </wgt>
<wgt id='1217'> +5.2766970e-01 </wgt>
<wgt id='1218'> +5.8040706e-01 </wgt>
<wgt id='1219'> +6.0339542e-01 </wgt>
<wgt id='1220'> +5.0754691e-01 </wgt>
<wgt id='1221'> +5.1844873e-01 </wgt>
<wgt id='1222'> +6.9581623e-01 </wgt>
<wgt id='1223'> +6.5856847e-01 </wgt>
<wgt id='1224'> +5.7931124e-01 </wgt>
<wgt id='1225'> +4.7784109e-01 </wgt>
<wgt id='1226'> +6.2410175e-01 </wgt>
<wgt id='1227'> +5.2369702e-01 </wgt>
<wgt id='1228'> +5.9084944e-01 </wgt>
<wgt id='1229'> +5.8056974e-01 </wgt>
<wgt id='1230'> +5.7567148e-01 </wgt>
<wgt id='1231'> +5.8529975e-01 </wgt>
<wgt id='1232'> +6.5146331e-01 </wgt>
<wgt id='1233'> +5.8436010e-01 </wgt>
<wgt id='1234'> +5.6829909e-01 </wgt>
<wgt id='1235'> +5.3928057e-01 </wgt>
<wgt id='1236'> +5.7059352e-01 </wgt>
<wgt id='1237'> +6.0860851e-01 </wgt>
<wgt id='1238'> +7.2472724e-01 </wgt>
<wgt id='1239'> +5.8434874e-01 </wgt>
<wgt id='1240'> +5.2080199e-01 </wgt>
<wgt id='1241'> +6.2502095e-01 </wgt>
<wgt id='1242'> +5.6797059e-01 </wgt>
<wgt id='1243'> +6.0283758e-01 </wgt>
<wgt id='1244'> +5.7962546e-01 </wgt>
<wgt id='1245'> +5.3031012e-01 </wgt>
<wgt id='1246'> +5.3160072e-01 </wgt>
<wgt id='1247'> +5.5843187e-01 </wgt>
<wgt id='1248'> +5.4946724e-01 </wgt>
<wgt id='1249'> +5.1710469e-01 </wgt>
<wgt id='1250'> +5.4436116e-01 </wgt>
<wgt id='1251'> +5.4541155e-01 </wgt>
<wgt id='1252'> +6.3171167e-01 </wgt>
<wgt id='1253'> +5.6737828e-01 </wgt>
<wgt id='1254'> +4.7315286e-01 </wgt>
<wgt id='1255'> +6.4339461e-01 </wgt>
<wgt id='1256'> +6.4134490e-01 </wgt>
<wgt id='1257'> +6.4459945e-01 </wgt>
<wgt id='1258'> +6.4380832e-01 </wgt>
<wgt id='1259'> +6.4319530e-01 </wgt>
<wgt id='1260'> +6.4087925e-01 </wgt>
<wgt id='1261'> +6.4678051e-01 </wgt>
<wgt id='1262'> +6.4130500e-01 </wgt>
<wgt id='1263'> +6.4473647e-01 </wgt>
<wgt id='1264'> +6.4053899e-01 </wgt>
<wgt id='1265'> +6.4537597e-01 </wgt>
<wgt id='1266'> +6.4677328e-01 </wgt>
<wgt id='1267'> +6.4004309e-01 </wgt>
<wgt id='1268'> +6.4194376e-01 </wgt>
<wgt id='1269'> +6.4456467e-01 </wgt>
<wgt id='1270'> +6.3374883e-01 </wgt>
<wgt id='1271'> +6.5332445e-01 </wgt>
<wgt id='1272'> +6.4051639e-01 </wgt>
<wgt id='1273'> +6.4557757e-01 </wgt>
<wgt id='1274'> +6.4643441e-01 </wgt>
<wgt id='1275'> +6.3962955e-01 </wgt>
<wgt id='1276'> +6.5299311e-01 </wgt>
<wgt id='1277'> +6.3313862e-01 </wgt>
<wgt id='1278'> +6.3737744e-01 </wgt>
<wgt id='1279'> +6.4783671e-01 </wgt>
<wgt id='1280'> +6.4345888e-01 </wgt>
<wgt id='1281'> +6.4367345e-01 </wgt>
<wgt id='1282'> +6.5414626e-01 </wgt>
<wgt id='1283'> +6.3176992e-01 </wgt>
<wgt id='1284'> +6.3891605e-01 </wgt>
<wgt id='1285'> +6.4801599e-01 </wgt>
<wgt id='1286'> +6.4378731e-01 </wgt>
<wgt id='1287'> +6.4338604e-01 </wgt>
<wgt id='1288'> +6.4851757e-01 </wgt>
<wgt id='1289'> +6.4095244e-01 </wgt>
<wgt id='1290'> +6.4309700e-01 </wgt>
<wgt id='1291'> +6.4348322e-01 </wgt>
<wgt id='1292'> +6.5180312e-01 </wgt>
<wgt id='1293'> +6.3264960e-01 </wgt>
<wgt id='1294'> +6.3055502e-01 </wgt>
<wgt id='1295'> +6.4873229e-01 </wgt>
<wgt id='1296'> +5.9338907e-01 </wgt>
<wgt id='1297'> +5.9617704e-01 </wgt>
<wgt id='1298'> +5.9111025e-01 </wgt>
<wgt id='1299'> +5.9385073e-01 </wgt>
<wgt id='1300'> +5.9287269e-01 </wgt>
<wgt id='1301'> +5.9391045e-01 </wgt>
<wgt id='1302'> +5.9262029e-01 </wgt>
<wgt id='1303'> +5.9408365e-01 </wgt>
<wgt id='1304'> +5.9291115e-01 </wgt>
<wgt id='1305'> +5.9212370e-01 </wgt>
<wgt id='1306'> +5.9518141e-01 </wgt>
<wgt id='1307'> +5.8603656e-01 </wgt>
<wgt id='1308'> +5.9793448e-01 </wgt>
<wgt id='1309'> +5.9494935e-01 </wgt>
<wgt id='1310'> +5.9126862e-01 </wgt>
<wgt id='1311'> +5.9149801e-01 </wgt>
<wgt id='1312'> +5.9407439e-01 </wgt>
<wgt id='1313'> +5.8800160e-01 </wgt>
<wgt id='1314'> +5.9973348e-01 </wgt>
<wgt id='1315'> +5.9327612e-01 </wgt>
<wgt id='1316'> +5.9345726e-01 </wgt>
<wgt id='1317'> +6.0342910e-01 </wgt>
<wgt id='1318'> +5.7604132e-01 </wgt>
<wgt id='1319'> +5.8669165e-01 </wgt>
<wgt id='1320'> +5.9763167e-01 </wgt>
<wgt id='1321'> +5.8945705e-01 </wgt>
<wgt id='1322'> +5.9525112e-01 </wgt>
<wgt id='1323'> +5.9085412e-01 </wgt>
<wgt id='1324'> +5.9628956e-01 </wgt>
<wgt id='1325'> +5.8712662e-01 </wgt>
<wgt id='1326'> +6.0434698e-01 </wgt>
<wgt id='1327'> +5.9183779e-01 </wgt>
<wgt id='1328'> +5.9399832e-01 </wgt>
<wgt id='1329'> +5.9508709e-01 </wgt>
<wgt id='1330'> +5.9235958e-01 </wgt>
<wgt id='1331'> +5.9486982e-01 </wgt>
<wgt id='1332'> +5.9257781e-01 </wgt>
<wgt id='1333'> +6.0720997e-01 </wgt>
<wgt id='1334'> +5.8033477e-01 </wgt>
<wgt id='1335'> +5.9386398e-01 </wgt>
<wgt id='1336'> +5.9327136e-01 </wgt>
<wgt id='1337'> +5.9338907e-01 </wgt>
<wgt id='1338'> +5.9160713e-01 </wgt>
<wgt id='1339'> +5.9228173e-01 </wgt>
<wgt id='1340'> +5.9276985e-01 </wgt>
<wgt id='1341'> +5.9388279e-01 </wgt>
<wgt id='1342'> +5.9423635e-01 </wgt>
<wgt id='1343'> +5.9456873e-01 </wgt>
<wgt id='1344'> +5.9570286e-01 </wgt>
<wgt id='1345'> +5.9886804e-01 </wgt>
<wgt id='1346'> +5.9260552e-01 </wgt>
<wgt id='1347'> +5.9276907e-01 </wgt>
<wgt id='1348'> +5.9789857e-01 </wgt>
<wgt id='1349'> +5.9647370e-01 </wgt>
<wgt id='1350'> +5.9507786e-01 </wgt>
<wgt id='1351'> +5.9564223e-01 </wgt>
<wgt id='1352'> +5.9580690e-01 </wgt>
<wgt id='1353'> +5.9455598e-01 </wgt>
<wgt id='1354'> +5.9653108e-01 </wgt>
<wgt id='1355'> +5.9514592e-01 </wgt>
<wgt id='1356'> +5.9615827e-01 </wgt>
<wgt id='1357'> +5.8797405e-01 </wgt>
<wgt id='1358'> +6.0037903e-01 </wgt>
<wgt id='1359'> +5.9728583e-01 </wgt>
<wgt id='1360'> +5.9169025e-01 </wgt>
<wgt id='1361'> +5.8108438e-01 </wgt>
<wgt id='1362'> +6.0860508e-01 </wgt>
<wgt id='1363'> +5.9358619e-01 </wgt>
<wgt id='1364'> +5.9841760e-01 </wgt>
<wgt id='1365'> +5.9321227e-01 </wgt>
<wgt id='1366'> +5.9678342e-01 </wgt>
<wgt id='1367'> +5.9268077e-01 </wgt>
<wgt id='1368'> +5.9714486e-01 </wgt>
<wgt id='1369'> +6.0614629e-01 </wgt>
<wgt id='1370'> +5.8707230e-01 </wgt>
<wgt id='1371'> +5.9373680e-01 </wgt>
<wgt id='1372'> +5.9934521e-01 </wgt>
<wgt id='1373'> +6.0109887e-01 </wgt>
<wgt id='1374'> +5.9464795e-01 </wgt>
<wgt id='1375'> +5.9734871e-01 </wgt>
<wgt id='1376'> +5.9539814e-01 </wgt>
<wgt id='1377'> +5.9533281e-01 </wgt>
<wgt id='1378'> +5.9657359e-01 </wgt>
<wgt id='1379'> +5.9345514e-01 </wgt>
<wgt id='1380'> +5.9792295e-01 </wgt>
<wgt id='1381'> +5.8598944e-01 </wgt>
<wgt id='1382'> +6.0063656e-01 </wgt>
<wgt id='1383'> +5.9505961e-01 </wgt>
<wgt id='1384'> +5.9841022e-01 </wgt>
<wgt id='1385'> +5.9570286e-01 </wgt>
<wgt id='1386'> +5.9363863e-01 </wgt>
<wgt id='1387'> +5.9448890e-01 </wgt>
<wgt id='1388'> +5.9511132e-01 </wgt>
<wgt id='1389'> +5.9617755e-01 </wgt>
<wgt id='1390'> +5.9650498e-01 </wgt>
<wgt id='1391'> +5.9680768e-01 </wgt>
<wgt id='1392'> +6.1087960e-01 </wgt>
<wgt id='1393'> +6.1152028e-01 </wgt>
<wgt id='1394'> +6.1020006e-01 </wgt>
<wgt id='1395'> +6.1158401e-01 </wgt>
<wgt id='1396'> +6.1038720e-01 </wgt>
<wgt id='1397'> +6.1536700e-01 </wgt>
<wgt id='1398'> +6.0656341e-01 </wgt>
<wgt id='1399'> +6.0798203e-01 </wgt>
<wgt id='1400'> +6.1451396e-01 </wgt>
<wgt id='1401'> +6.1250646e-01 </wgt>
<wgt id='1402'> +6.0885432e-01 </wgt>
<wgt id='1403'> +6.1185445e-01 </wgt>
<wgt id='1404'> +6.0894573e-01 </wgt>
<wgt id='1405'> +6.1064291e-01 </wgt>
<wgt id='1406'> +6.1122343e-01 </wgt>
<wgt id='1407'> +6.0970507e-01 </wgt>
<wgt id='1408'> +6.1171501e-01 </wgt>
<wgt id='1409'> +6.0734857e-01 </wgt>
<wgt id='1410'> +6.1488837e-01 </wgt>
<wgt id='1411'> +6.0999641e-01 </wgt>
<wgt id='1412'> +6.1157603e-01 </wgt>
<wgt id='1413'> +6.0888516e-01 </wgt>
<wgt id='1414'> +6.1300703e-01 </wgt>
<wgt id='1415'> +6.0699959e-01 </wgt>
<wgt id='1416'> +6.1481983e-01 </wgt>
<wgt id='1417'> +6.1212580e-01 </wgt>
<wgt id='1418'> +6.0942420e-01 </wgt>
<wgt id='1419'> +6.1159791e-01 </wgt>
<wgt id='1420'> +6.1060853e-01 </wgt>
<wgt id='1421'> +6.0548305e-01 </wgt>
<wgt id='1422'> +6.1730678e-01 </wgt>
<wgt id='1423'> +5.9516368e-01 </wgt>
<wgt id='1424'> +6.2282446e-01 </wgt>
<wgt id='1425'> +6.1271885e-01 </wgt>
<wgt id='1426'> +6.0844892e-01 </wgt>
<wgt id='1427'> +6.1284846e-01 </wgt>
<wgt id='1428'> +6.0677806e-01 </wgt>
<wgt id='1429'> +6.1140455e-01 </wgt>
<wgt id='1430'> +6.1072125e-01 </wgt>
<wgt id='1431'> +6.0803383e-01 </wgt>
<wgt id='1432'> +6.1367408e-01 </wgt>
<wgt id='1433'> +6.0326885e-01 </wgt>
<wgt id='1434'> +6.2008341e-01 </wgt>
<wgt id='1435'> +6.1780879e-01 </wgt>
<wgt id='1436'> +6.0823769e-01 </wgt>
<wgt id='1437'> +6.1010929e-01 </wgt>
<wgt id='1438'> +6.1296356e-01 </wgt>
<wgt id='1439'> +6.2088291e-01 </wgt>
<wgt id='1440'> +5.9692127e-01 </wgt>
<wgt id='1441'> +6.1369725e-01 </wgt>
<wgt id='1442'> +6.0948675e-01 </wgt>
<wgt id='1443'> +5.9151128e-01 </wgt>
<wgt id='1444'> +5.9218377e-01 </wgt>
<wgt id='1445'> +5.9079521e-01 </wgt>
<wgt id='1446'> +5.9225629e-01 </wgt>
<wgt id='1447'> +5.9101629e-01 </wgt>
<wgt id='1448'> +5.9596211e-01 </wgt>
<wgt id='1449'> +5.8740009e-01 </wgt>
<wgt id='1450'> +5.8840601e-01 </wgt>
<wgt id='1451'> +5.9501658e-01 </wgt>
<wgt id='1452'> +5.9295022e-01 </wgt>
<wgt id='1453'> +5.9009471e-01 </wgt>
<wgt id='1454'> +5.9249898e-01 </wgt>
<wgt id='1455'> +5.8937764e-01 </wgt>
<wgt id='1456'> +5.9108868e-01 </wgt>
<wgt id='1457'> +5.9228821e-01 </wgt>
<wgt id='1458'> +5.9018786e-01 </wgt>
<wgt id='1459'> +5.9227776e-01 </wgt>
<wgt id='1460'> +5.8751088e-01 </wgt>
<wgt id='1461'> +5.9621346e-01 </wgt>
<wgt id='1462'> +5.9159641e-01 </wgt>
<wgt id='1463'> +5.9145139e-01 </wgt>
<wgt id='1464'> +5.8959114e-01 </wgt>
<wgt id='1465'> +5.9404794e-01 </wgt>
<wgt id='1466'> +5.8600822e-01 </wgt>
<wgt id='1467'> +5.9524132e-01 </wgt>
<wgt id='1468'> +5.9512478e-01 </wgt>
<wgt id='1469'> +5.8803714e-01 </wgt>
<wgt id='1470'> +5.9220591e-01 </wgt>
<wgt id='1471'> +5.9132991e-01 </wgt>
<wgt id='1472'> +5.8750583e-01 </wgt>
<wgt id='1473'> +5.9639375e-01 </wgt>
<wgt id='1474'> +5.8061014e-01 </wgt>
<wgt id='1475'> +6.0388288e-01 </wgt>
<wgt id='1476'> +5.9633513e-01 </wgt>
<wgt id='1477'> +5.8683765e-01 </wgt>
<wgt id='1478'> +5.9340840e-01 </wgt>
<wgt id='1479'> +5.8716776e-01 </wgt>
<wgt id='1480'> +5.9235592e-01 </wgt>
<wgt id='1481'> +5.9115870e-01 </wgt>
<wgt id='1482'> +5.8882061e-01 </wgt>
<wgt id='1483'> +5.9457542e-01 </wgt>
<wgt id='1484'> +5.8438489e-01 </wgt>
<wgt id='1485'> +5.9969035e-01 </wgt>
<wgt id='1486'> +5.9899532e-01 </wgt>
<wgt id='1487'> +5.8823988e-01 </wgt>
<wgt id='1488'> +5.9044990e-01 </wgt>
<wgt id='1489'> +5.9425134e-01 </wgt>
<wgt id='1490'> +6.0273647e-01 </wgt>
<wgt id='1491'> +5.7782653e-01 </wgt>
<wgt id='1492'> +5.9619458e-01 </wgt>
<wgt id='1493'> +5.8921510e-01 </wgt>
<wgt id='1494'> +5.8429925e-01 </wgt>
<wgt id='1495'> +5.5751512e-01 </wgt>
<wgt id='1496'> +5.6627717e-01 </wgt>
<wgt id='1497'> +5.7517467e-01 </wgt>
<wgt id='1498'> +5.9355371e-01 </wgt>
<wgt id='1499'> +5.8408455e-01 </wgt>
<wgt id='1500'> +6.4028815e-01 </wgt>
<wgt id='1501'> +6.2798405e-01 </wgt>
<wgt id='1502'> +6.1650135e-01 </wgt>
<wgt id='1503'> +6.0543515e-01 </wgt>
<wgt id='1504'> +5.9458882e-01 </wgt>
<wgt id='1505'> +5.7431014e-01 </wgt>
<wgt id='1506'> +5.6466093e-01 </wgt>
<wgt id='1507'> +5.5534568e-01 </wgt>
<wgt id='1508'> +5.8408455e-01 </wgt>
<wgt id='1509'> +5.8257464e-01 </wgt>
<wgt id='1510'> +5.8330758e-01 </wgt>
<wgt id='1511'> +5.8493717e-01 </wgt>
<wgt id='1512'> +5.8574353e-01 </wgt>
<wgt id='1513'> +5.9572675e-01 </wgt>
<wgt id='1514'> +5.9566858e-01 </wgt>
<wgt id='1515'> +5.9581203e-01 </wgt>
<wgt id='1516'> +5.9842178e-01 </wgt>
<wgt id='1517'> +5.9306586e-01 </wgt>
<wgt id='1518'> +5.9793069e-01 </wgt>
<wgt id='1519'> +5.9485683e-01 </wgt>
<wgt id='1520'> +5.9482703e-01 </wgt>
<wgt id='1521'> +5.9663975e-01 </wgt>
<wgt id='1522'> +5.9665865e-01 </wgt>
<wgt id='1523'> +5.9485855e-01 </wgt>
<wgt id='1524'> +5.9230202e-01 </wgt>
<wgt id='1525'> +5.9722016e-01 </wgt>
<wgt id='1526'> +5.9555880e-01 </wgt>
<wgt id='1527'> +5.9593416e-01 </wgt>
<wgt id='1528'> +5.9514524e-01 </wgt>
<wgt id='1529'> +5.9637629e-01 </wgt>
<wgt id='1530'> +5.9514040e-01 </wgt>
<wgt id='1531'> +5.9608514e-01 </wgt>
<wgt id='1532'> +5.9592576e-01 </wgt>
<wgt id='1533'> +5.9548239e-01 </wgt>
<wgt id='1534'> +5.9413132e-01 </wgt>
<wgt id='1535'> +5.9684718e-01 </wgt>
<wgt id='1536'> +6.0350065e-01 </wgt>
<wgt id='1537'> +5.8841915e-01 </wgt>
<wgt id='1538'> +5.9826375e-01 </wgt>
<wgt id='1539'> +5.8943040e-01 </wgt>
<wgt id='1540'> +5.9639584e-01 </wgt>
<wgt id='1541'> +5.9489678e-01 </wgt>
<wgt id='1542'> +5.9890486e-01 </wgt>
<wgt id='1543'> +5.8786357e-01 </wgt>
<wgt id='1544'> +5.9103705e-01 </wgt>
<wgt id='1545'> +6.0553148e-01 </wgt>
<wgt id='1546'> +5.9718591e-01 </wgt>
<wgt id='1547'> +5.9295501e-01 </wgt>
<wgt id='1548'> +5.8940363e-01 </wgt>
<wgt id='1549'> +5.9861641e-01 </wgt>
<wgt id='1550'> +5.9546513e-01 </wgt>
<wgt id='1551'> +5.9599946e-01 </wgt>
<wgt id='1552'> +5.9186108e-01 </wgt>
<wgt id='1553'> +5.9868745e-01 </wgt>
<wgt id='1554'> +5.9702395e-01 </wgt>
<wgt id='1555'> +5.9354708e-01 </wgt>
<wgt id='1556'> +5.9661627e-01 </wgt>
<wgt id='1557'> +5.9062791e-01 </wgt>
<wgt id='1558'> +5.8298323e-01 </wgt>
<wgt id='1559'> +6.0509435e-01 </wgt>
<wgt id='1560'> +6.0149084e-01 </wgt>
<wgt id='1561'> +5.9323291e-01 </wgt>
<wgt id='1562'> +5.8988833e-01 </wgt>
<wgt id='1563'> +5.9988174e-01 </wgt>
<wgt id='1564'> +5.9572675e-01 </wgt>
<wgt id='1565'> +5.8518496e-01 </wgt>
<wgt id='1566'> +6.0386155e-01 </wgt>
<wgt id='1567'> +5.9433148e-01 </wgt>
<wgt id='1568'> +6.5701016e-01 </wgt>
<wgt id='1569'> +6.4308186e-01 </wgt>
<wgt id='1570'> +6.2977174e-01 </wgt>
<wgt id='1571'> +6.1749006e-01 </wgt>
<wgt id='1572'> +6.0569123e-01 </wgt>
<wgt id='1573'> +5.8321411e-01 </wgt>
<wgt id='1574'> +5.7215347e-01 </wgt>
<wgt id='1575'> +5.6226175e-01 </wgt>
<wgt id='1576'> +5.9433148e-01 </wgt>
<wgt id='1577'> +5.9219584e-01 </wgt>
<wgt id='1578'> +5.9331717e-01 </wgt>
<wgt id='1579'> +5.9536662e-01 </wgt>
<wgt id='1580'> +5.9636793e-01 </wgt>
<wgt id='1581'> +5.8188705e-01 </wgt>
<wgt id='1582'> +5.8379015e-01 </wgt>
<wgt id='1583'> +5.9205303e-01 </wgt>
<wgt id='1584'> +5.7596443e-01 </wgt>
<wgt id='1585'> +5.8738668e-01 </wgt>
<wgt id='1586'> +5.7347677e-01 </wgt>
<wgt id='1587'> +5.8467931e-01 </wgt>
<wgt id='1588'> +5.9547220e-01 </wgt>
<wgt id='1589'> +5.8129987e-01 </wgt>
<wgt id='1590'> +5.8745133e-01 </wgt>
<wgt id='1591'> +5.7908897e-01 </wgt>
<wgt id='1592'> +5.7242024e-01 </wgt>
<wgt id='1593'> +5.8641311e-01 </wgt>
<wgt id='1594'> +5.7710242e-01 </wgt>
<wgt id='1595'> +5.7820389e-01 </wgt>
<wgt id='1596'> +5.9133415e-01 </wgt>
<wgt id='1597'> +5.8564612e-01 </wgt>
<wgt id='1598'> +5.9424694e-01 </wgt>
<wgt id='1599'> +5.7965139e-01 </wgt>
<wgt id='1600'> +5.8735405e-01 </wgt>
<wgt id='1601'> +5.7797048e-01 </wgt>
<wgt id='1602'> +5.8453326e-01 </wgt>
<wgt id='1603'> +5.8156591e-01 </wgt>
<wgt id='1604'> +5.7942996e-01 </wgt>
<wgt id='1605'> +5.8217769e-01 </wgt>
<wgt id='1606'> +5.8283590e-01 </wgt>
<wgt id='1607'> +5.8546908e-01 </wgt>
<wgt id='1608'> +5.7882727e-01 </wgt>
<wgt id='1609'> +5.8350325e-01 </wgt>
<wgt id='1610'> +5.8122979e-01 </wgt>
<wgt id='1611'> +5.9137573e-01 </wgt>
<wgt id='1612'> +5.2002257e-01 </wgt>
<wgt id='1613'> +5.1872523e-01 </wgt>
<wgt id='1614'> +5.1638884e-01 </wgt>
<wgt id='1615'> +5.1837977e-01 </wgt>
<wgt id='1616'> +5.2248509e-01 </wgt>
<wgt id='1617'> +5.1908715e-01 </wgt>
<wgt id='1618'> +5.1680594e-01 </wgt>
<wgt id='1619'> +5.2319671e-01 </wgt>
<wgt id='1620'> +5.1810593e-01 </wgt>
<wgt id='1621'> +5.1524610e-01 </wgt>
<wgt id='1622'> +5.2283940e-01 </wgt>
<wgt id='1623'> +5.2182571e-01 </wgt>
<wgt id='1624'> +5.1807945e-01 </wgt>
<wgt id='1625'> +5.1887179e-01 </wgt>
<wgt id='1626'> +5.1308657e-01 </wgt>
<wgt id='1627'> +5.1801014e-01 </wgt>
<wgt id='1628'> +5.1440593e-01 </wgt>
<wgt id='1629'> +5.2286126e-01 </wgt>
<wgt id='1630'> +5.2332447e-01 </wgt>
<wgt id='1631'> +5.2154907e-01 </wgt>
<wgt id='1632'> +5.2392876e-01 </wgt>
<wgt id='1633'> +5.1490455e-01 </wgt>
<wgt id='1634'> +5.1715196e-01 </wgt>
<wgt id='1635'> +5.3260581e-01 </wgt>
<wgt id='1636'> +5.1381305e-01 </wgt>
<wgt id='1637'> +5.2250193e-01 </wgt>
<wgt id='1638'> +5.3364826e-01 </wgt>
<wgt id='1639'> +5.1314170e-01 </wgt>
<wgt id='1640'> +5.1316450e-01 </wgt>
<wgt id='1641'> +5.3912263e-01 </wgt>
<wgt id='1642'> +5.1691289e-01 </wgt>
<wgt id='1643'> +5.1916798e-01 </wgt>
<wgt id='1644'> +5.1966503e-01 </wgt>
<wgt id='1645'> +5.2066072e-01 </wgt>
<wgt id='1646'> +5.2610521e-01 </wgt>
<wgt id='1647'> +5.0926396e-01 </wgt>
<wgt id='1648'> +5.2130259e-01 </wgt>
<wgt id='1649'> +5.2682332e-01 </wgt>
<wgt id='1650'> +5.1800799e-01 </wgt>
<wgt id='1651'> +5.1957136e-01 </wgt>
<wgt id='1652'> +5.2049892e-01 </wgt>
<wgt id='1653'> +5.2066061e-01 </wgt>
<wgt id='1654'> +5.1549772e-01 </wgt>
<wgt id='1655'> +5.1946700e-01 </wgt>
<wgt id='1656'> +5.1951954e-01 </wgt>
<wgt id='1657'> +5.2043094e-01 </wgt>
<wgt id='1658'> +5.1778973e-01 </wgt>
<wgt id='1659'> +5.1820513e-01 </wgt>
<wgt id='1660'> +5.1755150e-01 </wgt>
<wgt id='1661'> +5.2091391e-01 </wgt>
<wgt id='1662'> +5.2054028e-01 </wgt>
<wgt id='1663'> +5.2056490e-01 </wgt>
<wgt id='1664'> +5.2512068e-01 </wgt>
<wgt id='1665'> +5.2035054e-01 </wgt>
<wgt id='1666'> +5.1992608e-01 </wgt>
<wgt id='1667'> +5.2274784e-01 </wgt>
<wgt id='1668'> +5.1926396e-01 </wgt>
<wgt id='1669'> +5.1762810e-01 </wgt>
<wgt id='1670'> +5.1027557e-01 </wgt>
<wgt id='1671'> +5.1987396e-01 </wgt>
<wgt id='1672'> +5.1598239e-01 </wgt>
<wgt id='1673'> +5.2059729e-01 </wgt>
<wgt id='1674'> +5.1912192e-01 </wgt>
<wgt id='1675'> +5.2076947e-01 </wgt>
<wgt id='1676'> +5.2563786e-01 </wgt>
<wgt id='1677'> +5.1239938e-01 </wgt>
<wgt id='1678'> +5.2183246e-01 </wgt>
<wgt id='1679'> +5.2073280e-01 </wgt>
<wgt id='1680'> +5.1754092e-01 </wgt>
<wgt id='1681'> +5.1461992e-01 </wgt>
<wgt id='1682'> +5.2534327e-01 </wgt>
<wgt id='1683'> +5.2825883e-01 </wgt>
<wgt id='1684'> +5.1857758e-01 </wgt>
<wgt id='1685'> +5.1441729e-01 </wgt>
<wgt id='1686'> +5.2267112e-01 </wgt>
<wgt id='1687'> +5.1934564e-01 </wgt>
<wgt id='1688'> +5.1738236e-01 </wgt>
<wgt id='1689'> +5.2505048e-01 </wgt>
<wgt id='1690'> +5.2088991e-01 </wgt>
<wgt id='1691'> +5.2078766e-01 </wgt>
<wgt id='1692'> +5.1720891e-01 </wgt>
<wgt id='1693'> +5.1848665e-01 </wgt>
<wgt id='1694'> +5.1747178e-01 </wgt>
<wgt id='1695'> +5.2149050e-01 </wgt>
<wgt id='1696'> +5.1965293e-01 </wgt>
<wgt id='1697'> +5.1899257e-01 </wgt>
<wgt id='1698'> +5.2046857e-01 </wgt>
<wgt id='1699'> +5.2478460e-01 </wgt>
<wgt id='1700'> +5.1646025e-01 </wgt>
<wgt id='1701'> +5.2264949e-01 </wgt>
<wgt id='1702'> +5.2146491e-01 </wgt>
<wgt id='1703'> +5.2284286e-01 </wgt>
<wgt id='1704'> +5.1867999e-01 </wgt>
<wgt id='1705'> +5.2190059e-01 </wgt>
<wgt id='1706'> +5.1857262e-01 </wgt>
<wgt id='1707'> +5.1963056e-01 </wgt>
<wgt id='1708'> +5.1976042e-01 </wgt>
<wgt id='1709'> +5.1327923e-01 </wgt>
<wgt id='1710'> +5.2678101e-01 </wgt>
<wgt id='1711'> +5.2046899e-01 </wgt>
<wgt id='1712'> +5.1646054e-01 </wgt>
<wgt id='1713'> +4.8113575e-01 </wgt>
<wgt id='1714'> +5.6241161e-01 </wgt>
<wgt id='1715'> +5.0659061e-01 </wgt>
<wgt id='1716'> +4.9533363e-01 </wgt>
<wgt id='1717'> +5.3347485e-01 </wgt>
<wgt id='1718'> +5.5614670e-01 </wgt>
<wgt id='1719'> +5.5557811e-01 </wgt>
<wgt id='1720'> +5.0542131e-01 </wgt>
<wgt id='1721'> +4.9763813e-01 </wgt>
<wgt id='1722'> +4.9992078e-01 </wgt>
<wgt id='1723'> +5.0993050e-01 </wgt>
<wgt id='1724'> +4.9476324e-01 </wgt>
<wgt id='1725'> +4.8595374e-01 </wgt>
<wgt id='1726'> +5.2226797e-01 </wgt>
<wgt id='1727'> +4.9030278e-01 </wgt>
<wgt id='1728'> +4.8698949e-01 </wgt>
<wgt id='1729'> +5.5847959e-01 </wgt>
<wgt id='1730'> +5.0495508e-01 </wgt>
<wgt id='1731'> +6.1630030e-01 </wgt>
<wgt id='1732'> +4.6724361e-01 </wgt>
<wgt id='1733'> +5.1828528e-01 </wgt>
<wgt id='1734'> +5.0636289e-01 </wgt>
<wgt id='1735'> +5.7696270e-01 </wgt>
<wgt id='1736'> +6.2383962e-01 </wgt>
<wgt id='1737'> +4.9563099e-01 </wgt>
<wgt id='1738'> +4.2046138e-01 </wgt>
<wgt id='1739'> +5.1401336e-01 </wgt>
<wgt id='1740'> +5.0836295e-01 </wgt>
<wgt id='1741'> +4.9038803e-01 </wgt>
<wgt id='1742'> +5.4880670e-01 </wgt>
<wgt id='1743'> +5.3511073e-01 </wgt>
<wgt id='1744'> +5.1292911e-01 </wgt>
<wgt id='1745'> +5.5765267e-01 </wgt>
<wgt id='1746'> +5.6183689e-01 </wgt>
<wgt id='1747'> +5.2005318e-01 </wgt>
<wgt id='1748'> +5.3240321e-01 </wgt>
<wgt id='1749'> +4.8206615e-01 </wgt>
<wgt id='1750'> +4.6072309e-01 </wgt>
<wgt id='1751'> +4.9413897e-01 </wgt>
<wgt id='1752'> +5.0399670e-01 </wgt>
<wgt id='1753'> +6.0451203e-01 </wgt>
<wgt id='1754'> +6.2296115e-01 </wgt>
<wgt id='1755'> +5.8047340e-01 </wgt>
<wgt id='1756'> +4.3349595e-01 </wgt>
<wgt id='1757'> +5.1456726e-01 </wgt>
<wgt id='1758'> +5.2517620e-01 </wgt>
<wgt id='1759'> +4.8633772e-01 </wgt>
<wgt id='1760'> +5.0425051e-01 </wgt>
<wgt id='1761'> +5.5899089e-01 </wgt>
<wgt id='1762'> +4.9030278e-01 </wgt>
<wgt id='1763'> +4.9247105e-01 </wgt>
<wgt id='1764'> +4.4056013e-01 </wgt>
<wgt id='1765'> +4.1579636e-01 </wgt>
<wgt id='1766'> +4.6093937e-01 </wgt>
<wgt id='1767'> +5.0103766e-01 </wgt>
<wgt id='1768'> +5.6171702e-01 </wgt>
<wgt id='1769'> +5.0539029e-01 </wgt>
<wgt id='1770'> +4.4109152e-01 </wgt>
<wgt id='1771'> +5.0440559e-01 </wgt>
<wgt id='1772'> +4.9634172e-01 </wgt>
<wgt id='1773'> +5.3675377e-01 </wgt>
<wgt id='1774'> +5.1891329e-01 </wgt>
<wgt id='1775'> +4.6218450e-01 </wgt>
<wgt id='1776'> +5.5662394e-01 </wgt>
<wgt id='1777'> +4.3919661e-01 </wgt>
<wgt id='1778'> +4.9601825e-01 </wgt>
<wgt id='1779'> +5.0567482e-01 </wgt>
<wgt id='1780'> +5.1226495e-01 </wgt>
<wgt id='1781'> +5.3061916e-01 </wgt>
<wgt id='1782'> +4.8546861e-01 </wgt>
<wgt id='1783'> +4.1003136e-01 </wgt>
<wgt id='1784'> +4.3446976e-01 </wgt>
<wgt id='1785'> +4.7815914e-01 </wgt>
<wgt id='1786'> +4.7485914e-01 </wgt>
<wgt id='1787'> +4.6579009e-01 </wgt>
<wgt id='1788'> +4.9295581e-01 </wgt>
<wgt id='1789'> +4.4708679e-01 </wgt>
<wgt id='1790'> +4.9541075e-01 </wgt>
<wgt id='1791'> +5.9552341e-01 </wgt>
<wgt id='1792'> +4.5083170e-01 </wgt>
<wgt id='1793'> +4.0532297e-01 </wgt>
<wgt id='1794'> +4.3748278e-01 </wgt>
<wgt id='1795'> +5.1671864e-01 </wgt>
<wgt id='1796'> +5.2176895e-01 </wgt>
<wgt id='1797'> +5.1498797e-01 </wgt>
<wgt id='1798'> +4.7110591e-01 </wgt>
<wgt id='1799'> +5.4599656e-01 </wgt>
<wgt id='1800'> +4.9439869e-01 </wgt>
<wgt id='1801'> +5.0737279e-01 </wgt>
<wgt id='1802'> +5.1717607e-01 </wgt>
<wgt id='1803'> +5.3621555e-01 </wgt>
<wgt id='1804'> +4.6040067e-01 </wgt>
<wgt id='1805'> +4.6456495e-01 </wgt>
<wgt id='1806'> +5.0986963e-01 </wgt>
<wgt id='1807'> +5.5326917e-01 </wgt>
<wgt id='1808'> +6.5835570e-01 </wgt>
<wgt id='1809'> +4.5044570e-01 </wgt>
<wgt id='1810'> +5.4570207e-01 </wgt>
<wgt id='1811'> +4.9562011e-01 </wgt>
<wgt id='1812'> +4.9719894e-01 </wgt>
<wgt id='1813'> +5.0248203e-01 </wgt>
<wgt id='1814'> +5.0273739e-01 </wgt>
<wgt id='1815'> +4.8158391e-01 </wgt>
<wgt id='1816'> +6.1626056e-01 </wgt>
<wgt id='1817'> +6.4020116e-01 </wgt>
<wgt id='1818'> +6.2508969e-01 </wgt>
<wgt id='1819'> +6.3064805e-01 </wgt>
<wgt id='1820'> +5.9248889e-01 </wgt>
<wgt id='1821'> +6.3024404e-01 </wgt>
<wgt id='1822'> +6.3313647e-01 </wgt>
<wgt id='1823'> +6.1487176e-01 </wgt>
<wgt id='1824'> +6.2558531e-01 </wgt>
<wgt id='1825'> +6.2484154e-01 </wgt>
<wgt id='1826'> +6.0213701e-01 </wgt>
<wgt id='1827'> +5.6338112e-01 </wgt>
<wgt id='1828'> +6.2677878e-01 </wgt>
<wgt id='1829'> +6.0894108e-01 </wgt>
<wgt id='1830'> +6.0627194e-01 </wgt>
<wgt id='1831'> +6.3946595e-01 </wgt>
<wgt id='1832'> +6.3455538e-01 </wgt>
<wgt id='1833'> +6.3016075e-01 </wgt>
<wgt id='1834'> +6.3842274e-01 </wgt>
<wgt id='1835'> +6.2594231e-01 </wgt>
<wgt id='1836'> +6.6117584e-01 </wgt>
<wgt id='1837'> +6.1278607e-01 </wgt>
<wgt id='1838'> +6.0625704e-01 </wgt>
<wgt id='1839'> +6.4121227e-01 </wgt>
<wgt id='1840'> +6.1277042e-01 </wgt>
<wgt id='1841'> +6.0876093e-01 </wgt>
<wgt id='1842'> +6.1732053e-01 </wgt>
<wgt id='1843'> +6.2372105e-01 </wgt>
<wgt id='1844'> +6.1101089e-01 </wgt>
<wgt id='1845'> +6.4600190e-01 </wgt>
<wgt id='1846'> +6.4274582e-01 </wgt>
<wgt id='1847'> +6.0302936e-01 </wgt>
<wgt id='1848'> +5.8259505e-01 </wgt>
<wgt id='1849'> +5.9313039e-01 </wgt>
<wgt id='1850'> +6.0798077e-01 </wgt>
<wgt id='1851'> +6.0872160e-01 </wgt>
<wgt id='1852'> +6.1304304e-01 </wgt>
<wgt id='1853'> +6.3557303e-01 </wgt>
<wgt id='1854'> +6.2427372e-01 </wgt>
<wgt id='1855'> +6.1730454e-01 </wgt>
<wgt id='1856'> +6.0216546e-01 </wgt>
<wgt id='1857'> +6.2077001e-01 </wgt>
<wgt id='1858'> +6.0557945e-01 </wgt>
<wgt id='1859'> +6.0021454e-01 </wgt>
<wgt id='1860'> +6.2100368e-01 </wgt>
<wgt id='1861'> +6.1145507e-01 </wgt>
<wgt id='1862'> +6.2966013e-01 </wgt>
<wgt id='1863'> +6.1559607e-01 </wgt>
<wgt id='1864'> +6.2165654e-01 </wgt>
<wgt id='1865'> +6.1807771e-01 </wgt>
<wgt id='1866'> +6.0820919e-01 </wgt>
<wgt id='1867'> +6.0868534e-01 </wgt>
<wgt id='1868'> +6.0853227e-01 </wgt>
<wgt id='1869'> +6.2521226e-01 </wgt>
<wgt id='1870'> +6.0069403e-01 </wgt>
<wgt id='1871'> +5.9613074e-01 </wgt>
<wgt id='1872'> +6.2673778e-01 </wgt>
<wgt id='1873'> +6.1982207e-01 </wgt>
<wgt id='1874'> +6.0362966e-01 </wgt>
<wgt id='1875'> +6.4687425e-01 </wgt>
<wgt id='1876'> +6.1486783e-01 </wgt>
<wgt id='1877'> +6.1682874e-01 </wgt>
<wgt id='1878'> +6.3508938e-01 </wgt>
<wgt id='1879'> +5.8749970e-01 </wgt>
<wgt id='1880'> +6.2327744e-01 </wgt>
<wgt id='1881'> +5.7737559e-01 </wgt>
<wgt id='1882'> +6.1136075e-01 </wgt>
<wgt id='1883'> +6.6685633e-01 </wgt>
<wgt id='1884'> +6.0030681e-01 </wgt>
<wgt id='1885'> +5.8167426e-01 </wgt>
<wgt id='1886'> +5.9325764e-01 </wgt>
<wgt id='1887'> +6.0183924e-01 </wgt>
<wgt id='1888'> +6.2346912e-01 </wgt>
<wgt id='1889'> +5.9708338e-01 </wgt>
<wgt id='1890'> +6.1855032e-01 </wgt>
<wgt id='1891'> +6.1802846e-01 </wgt>
<wgt id='1892'> +5.8973431e-01 </wgt>
<wgt id='1893'> +6.0030334e-01 </wgt>
<wgt id='1894'> +6.1322980e-01 </wgt>
<wgt id='1895'> +6.1405960e-01 </wgt>
<wgt id='1896'> +6.0635766e-01 </wgt>
<wgt id='1897'> +6.0168600e-01 </wgt>
<wgt id='1898'> +5.9546820e-01 </wgt>
<wgt id='1899'> +6.5621309e-01 </wgt>
<wgt id='1900'> +6.1464939e-01 </wgt>
<wgt id='1901'> +6.2064512e-01 </wgt>
<wgt id='1902'> +6.1027775e-01 </wgt>
<wgt id='1903'> +6.1581338e-01 </wgt>
<wgt id='1904'> +6.1277736e-01 </wgt>
<wgt id='1905'> +6.5030380e-01 </wgt>
<wgt id='1906'> +6.0430087e-01 </wgt>
<wgt id='1907'> +6.1303814e-01 </wgt>
<wgt id='1908'> +6.0752900e-01 </wgt>
<wgt id='1909'> +6.3129121e-01 </wgt>
<wgt id='1910'> +6.3198525e-01 </wgt>
<wgt id='1911'> +6.2378083e-01 </wgt>
<wgt id='1912'> +6.0697028e-01 </wgt>
<wgt id='1913'> +6.1839662e-01 </wgt>
<wgt id='1914'> +6.0599565e-01 </wgt>
<wgt id='1915'> +6.2392068e-01 </wgt>
<wgt id='1916'> +6.4538982e-01 </wgt>
<wgt id='1917'> +5.8059538e-01 </wgt>
<wgt id='1918'> +6.0570561e-01 </wgt>
<wgt id='1919'> +6.1626056e-01 </wgt>
<wgt id='1920'> +6.4020116e-01 </wgt>
<wgt id='1921'> +6.2508969e-01 </wgt>
<wgt id='1922'> +6.3064805e-01 </wgt>
<wgt id='1923'> +5.9248889e-01 </wgt>
<wgt id='1924'> +6.3024404e-01 </wgt>
<wgt id='1925'> +6.3313647e-01 </wgt>
<wgt id='1926'> +6.1487176e-01 </wgt>
<wgt id='1927'> +6.2558531e-01 </wgt>
<wgt id='1928'> +6.2484154e-01 </wgt>
<wgt id='1929'> +6.0213701e-01 </wgt>
<wgt id='1930'> +5.6338112e-01 </wgt>
<wgt id='1931'> +6.2677878e-01 </wgt>
<wgt id='1932'> +6.0894108e-01 </wgt>
<wgt id='1933'> +6.0627194e-01 </wgt>
<wgt id='1934'> +6.3946595e-01 </wgt>
<wgt id='1935'> +6.3455538e-01 </wgt>
<wgt id='1936'> +6.3016075e-01 </wgt>
<wgt id='1937'> +6.3842274e-01 </wgt>
<wgt id='1938'> +6.2594231e-01 </wgt>
<wgt id='1939'> +6.6117584e-01 </wgt>
<wgt id='1940'> +6.1278607e-01 </wgt>
<wgt id='1941'> +6.0625704e-01 </wgt>
<wgt id='1942'> +6.4121227e-01 </wgt>
<wgt id='1943'> +6.1277042e-01 </wgt>
<wgt id='1944'> +6.0876093e-01 </wgt>
<wgt id='1945'> +6.1732053e-01 </wgt>
<wgt id='1946'> +6.2372105e-01 </wgt>
<wgt id='1947'> +6.1101089e-01 </wgt>
<wgt id='1948'> +6.4600190e-01 </wgt>
<wgt id='1949'> +6.4274582e-01 </wgt>
<wgt id='1950'> +6.0302936e-01 </wgt>
<wgt id='1951'> +5.8259505e-01 </wgt>
<wgt id='1952'> +5.9313039e-01 </wgt>
<wgt id='1953'> +6.0798077e-01 </wgt>
<wgt id='1954'> +6.0872160e-01 </wgt>
<wgt id='1955'> +6.1304304e-01 </wgt>
<wgt id='1956'> +6.3557303e-01 </wgt>
<wgt id='1957'> +6.2427372e-01 </wgt>
<wgt id='1958'> +6.1730454e-01 </wgt>
<wgt id='1959'> +6.0216546e-01 </wgt>
<wgt id='1960'> +6.2077001e-01 </wgt>
<wgt id='1961'> +6.0557945e-01 </wgt>
<wgt id='1962'> +6.0021454e-01 </wgt>
<wgt id='1963'> +6.2100368e-01 </wgt>
<wgt id='1964'> +6.1145507e-01 </wgt>
<wgt id='1965'> +6.2966013e-01 </wgt>
<wgt id='1966'> +6.1559607e-01 </wgt>
<wgt id='1967'> +6.2165654e-01 </wgt>
<wgt id='1968'> +6.1807771e-01 </wgt>
<wgt id='1969'> +6.0820919e-01 </wgt>
<wgt id='1970'> +6.0868534e-01 </wgt>
<wgt id='1971'> +6.0853227e-01 </wgt>
<wgt id='1972'> +6.2521226e-01 </wgt>
<wgt id='1973'> +6.0069403e-01 </wgt>
<wgt id='1974'> +5.9613074e-01 </wgt>
<wgt id='1975'> +6.2673778e-01 </wgt>
<wgt id='1976'> +6.1982207e-01 </wgt>
<wgt id='1977'> +6.0362966e-01 </wgt>
<wgt id='1978'> +6.4687425e-01 </wgt>
<wgt id='1979'> +6.1486783e-01 </wgt>
<wgt id='1980'> +6.1682874e-01 </wgt>
<wgt id='1981'> +6.3508938e-01 </wgt>
<wgt id='1982'> +5.8749970e-01 </wgt>
<wgt id='1983'> +6.2327744e-01 </wgt>
<wgt id='1984'> +5.7737559e-01 </wgt>
<wgt id='1985'> +6.1136075e-01 </wgt>
<wgt id='1986'> +6.6685633e-01 </wgt>
<wgt id='1987'> +6.0030681e-01 </wgt>
<wgt id='1988'> +5.8167426e-01 </wgt>
<wgt id='1989'> +5.9325764e-01 </wgt>
<wgt id='1990'> +6.0183924e-01 </wgt>
<wgt id='1991'> +6.2346912e-01 </wgt>
<wgt id='1992'> +5.9708338e-01 </wgt>
<wgt id='1993'> +6.1855032e-01 </wgt>
<wgt id='1994'> +6.1802846e-01 </wgt>
<wgt id='1995'> +5.8973431e-01 </wgt>
<wgt id='1996'> +6.0030334e-01 </wgt>
<wgt id='1997'> +6.1322980e-01 </wgt>
<wgt id='1998'> +6.1405960e-01 </wgt>
<wgt id='1999'> +6.0635766e-01 </wgt>
<wgt id='2000'> +6.0168600e-01 </wgt>
<wgt id='2001'> +5.9546820e-01 </wgt>
<wgt id='2002'> +6.5621309e-01 </wgt>
<wgt id='2003'> +6.1464939e-01 </wgt>
<wgt id='2004'> +6.2064512e-01 </wgt>
<wgt id='2005'> +6.1027775e-01 </wgt>
<wgt id='2006'> +6.1581338e-01 </wgt>
<wgt id='2007'> +6.1277736e-01 </wgt>
<wgt id='2008'> +6.5030380e-01 </wgt>
<wgt id='2009'> +6.0430087e-01 </wgt>
<wgt id='2010'> +6.1303814e-01 </wgt>
<wgt id='2011'> +6.0752900e-01 </wgt>
<wgt id='2012'> +6.3129121e-01 </wgt>
<wgt id='2013'> +6.3198525e-01 </wgt>
<wgt id='2014'> +6.2378083e-01 </wgt>
<wgt id='2015'> +6.0697028e-01 </wgt>
<wgt id='2016'> +6.1839662e-01 </wgt>
<wgt id='2017'> +6.0599565e-01 </wgt>
<wgt id='2018'> +6.2392068e-01 </wgt>
<wgt id='2019'> +6.4538982e-01 </wgt>
<wgt id='2020'> +6.0595659e-01 </wgt>
<wgt id='2021'> +6.2469870e-01 </wgt>
<wgt id='2022'> +6.4697373e-01 </wgt>
</rwgt>
</event>
<event>
 13 1 0.0079112 1.78120600e+02 7.81860800e-03 1.10728300e-01
       21 -1    0    0  502  503 +0.0000000000e+00 +0.0000000000e+00 +5.6127112659e+02 5.6127112659e+02 0.0000000000e+00 0.0000e+00 -1.0000e+00
       -1 -1    0    0    0  501 +0.0000000000e+00 +0.0000000000e+00 -4.8359308570e+02 4.8359308572e+02 5.0400000000e-03 0.0000e+00 1.0000e+00
  8000001  2    1    2  502    0 -5.6856712807e+01 +8.8436537538e+01 +3.4405687426e+02 6.9959597203e+02 6.0000473697e+02 0.0000e+00 0.0000e+00
       -2  1    1    2    0  501 +4.4126522529e+01 -3.7582473750e+01 -2.8393173854e+02 2.8978755059e+02 2.5500000000e-03 0.0000e+00 1.0000e+00
       -5  1    1    2    0  503 +1.2730190278e+01 -5.0854063788e+01 +1.7552905160e+01 5.5480689690e+01 4.6700000000e+00 0.0000e+00 1.0000e+00
        6  2    3    3  502    0 -1.4946557497e+02 -1.8113758334e+02 +2.5613705542e+02 3.8790244937e+02 1.7236976784e+02 0.0000e+00 0.0000e+00
        5  1    6    6  502    0 +8.0995687523e+00 -9.1471622475e+01 +8.3459943122e+01 1.2417742041e+02 4.6700000000e+00 0.0000e+00 -1.0000e+00
       24  2    6    6    0    0 -1.5756514372e+02 -8.9665960869e+01 +1.7267711230e+02 2.6372502896e+02 8.2865835746e+01 0.0000e+00 0.0000e+00
       12  1    8    8    0    0 -1.6340553486e+02 -6.8693128484e+01 +1.5814243112e+02 2.3754819141e+02 0.0000000000e+00 0.0000e+00 -1.0000e+00
      -11  1    8    8    0    0 +5.8403911343e+00 -2.0972832385e+01 +1.4534681182e+01 2.6176837551e+01 5.1100000000e-04 0.0000e+00 1.0000e+00
       23  2    3    3    0    0 +9.2608862161e+01 +2.6957412088e+02 +8.7919818845e+01 3.1169352266e+02 9.0423169174e+01 0.0000e+00 0.0000e+00
        4  1   11   11  504    0 -1.1883867180e+01 +7.7589969182e+01 +3.9197978069e+01 8.7746931578e+01 1.2700000000e+00 0.0000e+00 -1.0000e+00
       -4  1   11   11    0  504 +1.0449272934e+02 +1.9198415170e+02 +4.8721840777e+01 2.2394659108e+02 1.2700000000e+00 0.0000e+00 1.0000e+00
<mgrwt>
<rscale>  1 0.10181685e+03</rscale>
<asrwt>0</asrwt>
<pdfrwt beam="1">  1       21 0.86349404e-01 0.17812061e+03</pdfrwt>
<pdfrwt beam="2">  1       -1 0.74398937e-01 0.58200292e+02</pdfrwt>
<totfact> 0.28302243e+02</totfact>
</mgrwt>
<rwgt>
<wgt id='1001'> +5.2878984e-01 </wgt>
<wgt id='1002'> +3.3654730e-01 </wgt>
<wgt id='1003'> +3.3653900e-01 </wgt>
<wgt id='1004'> +3.9556120e-01 </wgt>
<wgt id='1005'> +3.0808078e-01 </wgt>
<wgt id='1006'> +4.7749066e-01 </wgt>
<wgt id='1007'> +3.1109756e-01 </wgt>
<wgt id='1008'> +3.1109020e-01 </wgt>
<wgt id='1009'> +3.6308282e-01 </wgt>
<wgt id='1010'> +2.8579638e-01 </wgt>
<wgt id='1011'> +5.9289883e-01 </wgt>
<wgt id='1012'> +3.6665249e-01 </wgt>
<wgt id='1013'> +3.6664299e-01 </wgt>
<wgt id='1014'> +4.3461524e-01 </wgt>
<wgt id='1015'> +3.3422907e-01 </wgt>
<wgt id='1016'> +4.8787477e-01 </wgt>
<wgt id='1017'> +3.1310350e-01 </wgt>
<wgt id='1018'> +3.1309597e-01 </wgt>
<wgt id='1019'> +3.6664299e-01 </wgt>
<wgt id='1020'> +2.8727282e-01 </wgt>
<wgt id='1021'> +4.4054486e-01 </wgt>
<wgt id='1022'> +2.8942658e-01 </wgt>
<wgt id='1023'> +2.8941991e-01 </wgt>
<wgt id='1024'> +3.3653900e-01 </wgt>
<wgt id='1025'> +2.6649352e-01 </wgt>
<wgt id='1026'> +5.4702333e-01 </wgt>
<wgt id='1027'> +3.4111157e-01 </wgt>
<wgt id='1028'> +3.4110294e-01 </wgt>
<wgt id='1029'> +4.0284191e-01 </wgt>
<wgt id='1030'> +3.1165503e-01 </wgt>
<wgt id='1031'> +5.7530994e-01 </wgt>
<wgt id='1032'> +3.6309203e-01 </wgt>
<wgt id='1033'> +3.6308282e-01 </wgt>
<wgt id='1034'> +4.2852033e-01 </wgt>
<wgt id='1035'> +3.3168563e-01 </wgt>
<wgt id='1036'> +5.1949773e-01 </wgt>
<wgt id='1037'> +3.3563496e-01 </wgt>
<wgt id='1038'> +3.3562680e-01 </wgt>
<wgt id='1039'> +3.9333577e-01 </wgt>
<wgt id='1040'> +3.0769382e-01 </wgt>
<wgt id='1041'> +6.4505889e-01 </wgt>
<wgt id='1042'> +3.9557171e-01 </wgt>
<wgt id='1043'> +3.9556120e-01 </wgt>
<wgt id='1044'> +4.7082843e-01 </wgt>
<wgt id='1045'> +3.5983737e-01 </wgt>
<wgt id='1046'> +5.2878984e-01 </wgt>
<wgt id='1047'> +5.2878984e-01 </wgt>
<wgt id='1048'> +5.2878984e-01 </wgt>
<wgt id='1049'> +5.2747270e-01 </wgt>
<wgt id='1050'> +5.2857059e-01 </wgt>
<wgt id='1051'> +5.3081490e-01 </wgt>
<wgt id='1052'> +5.3190586e-01 </wgt>
<wgt id='1053'> +5.2330400e-01 </wgt>
<wgt id='1054'> +5.2901052e-01 </wgt>
<wgt id='1055'> +5.2692215e-01 </wgt>
<wgt id='1056'> +5.2358298e-01 </wgt>
<wgt id='1057'> +5.3462197e-01 </wgt>
<wgt id='1058'> +5.2907685e-01 </wgt>
<wgt id='1059'> +5.3313287e-01 </wgt>
<wgt id='1060'> +5.2803866e-01 </wgt>
<wgt id='1061'> +5.3256179e-01 </wgt>
<wgt id='1062'> +5.2639023e-01 </wgt>
<wgt id='1063'> +5.3484975e-01 </wgt>
<wgt id='1064'> +5.3054117e-01 </wgt>
<wgt id='1065'> +5.2881086e-01 </wgt>
<wgt id='1066'> +5.2406687e-01 </wgt>
<wgt id='1067'> +5.2528460e-01 </wgt>
<wgt id='1068'> +5.2743336e-01 </wgt>
<wgt id='1069'> +5.2374402e-01 </wgt>
<wgt id='1070'> +5.3127038e-01 </wgt>
<wgt id='1071'> +5.3015129e-01 </wgt>
<wgt id='1072'> +5.2142553e-01 </wgt>
<wgt id='1073'> +5.2851826e-01 </wgt>
<wgt id='1074'> +5.2857177e-01 </wgt>
<wgt id='1075'> +5.3313516e-01 </wgt>
<wgt id='1076'> +5.2599054e-01 </wgt>
<wgt id='1077'> +5.3492483e-01 </wgt>
<wgt id='1078'> +5.3301870e-01 </wgt>
<wgt id='1079'> +5.3062195e-01 </wgt>
<wgt id='1080'> +5.2440657e-01 </wgt>
<wgt id='1081'> +5.2919251e-01 </wgt>
<wgt id='1082'> +5.2928417e-01 </wgt>
<wgt id='1083'> +5.2964345e-01 </wgt>
<wgt id='1084'> +5.2941414e-01 </wgt>
<wgt id='1085'> +5.2961385e-01 </wgt>
<wgt id='1086'> +5.3063236e-01 </wgt>
<wgt id='1087'> +5.2763094e-01 </wgt>
<wgt id='1088'> +5.2792983e-01 </wgt>
<wgt id='1089'> +5.2594672e-01 </wgt>
<wgt id='1090'> +5.2685660e-01 </wgt>
<wgt id='1091'> +5.2828100e-01 </wgt>
<wgt id='1092'> +5.2963175e-01 </wgt>
<wgt id='1093'> +5.3193334e-01 </wgt>
<wgt id='1094'> +5.3007836e-01 </wgt>
<wgt id='1095'> +5.2905484e-01 </wgt>
<wgt id='1096'> +5.3014928e-01 </wgt>
<wgt id='1097'> +5.2605675e-01 </wgt>
<wgt id='1098'> +5.2913024e-01 </wgt>
<wgt id='1099'> +5.3095818e-01 </wgt>
<wgt id='1100'> +5.2680323e-01 </wgt>
<wgt id='1101'> +5.2863339e-01 </wgt>
<wgt id='1102'> +5.2856113e-01 </wgt>
<wgt id='1103'> +5.3074012e-01 </wgt>
<wgt id='1104'> +5.2905026e-01 </wgt>
<wgt id='1105'> +5.2735983e-01 </wgt>
<wgt id='1106'> +5.2855842e-01 </wgt>
<wgt id='1107'> +5.2858736e-01 </wgt>
<wgt id='1108'> +5.3056359e-01 </wgt>
<wgt id='1109'> +5.3074916e-01 </wgt>
<wgt id='1110'> +5.2884940e-01 </wgt>
<wgt id='1111'> +5.2953717e-01 </wgt>
<wgt id='1112'> +5.2904512e-01 </wgt>
<wgt id='1113'> +5.2873711e-01 </wgt>
<wgt id='1114'> +5.3342296e-01 </wgt>
<wgt id='1115'> +5.3010115e-01 </wgt>
<wgt id='1116'> +5.2768163e-01 </wgt>
<wgt id='1117'> +5.2637100e-01 </wgt>
<wgt id='1118'> +5.2853903e-01 </wgt>
<wgt id='1119'> +5.2862406e-01 </wgt>
<wgt id='1120'> +5.2777117e-01 </wgt>
<wgt id='1121'> +5.2956342e-01 </wgt>
<wgt id='1122'> +5.2792244e-01 </wgt>
<wgt id='1123'> +5.2755034e-01 </wgt>
<wgt id='1124'> +5.2928079e-01 </wgt>
<wgt id='1125'> +5.2992138e-01 </wgt>
<wgt id='1126'> +5.2941653e-01 </wgt>
<wgt id='1127'> +5.2696467e-01 </wgt>
<wgt id='1128'> +5.2837740e-01 </wgt>
<wgt id='1129'> +5.2969785e-01 </wgt>
<wgt id='1130'> +5.3071951e-01 </wgt>
<wgt id='1131'> +5.2915945e-01 </wgt>
<wgt id='1132'> +5.2859208e-01 </wgt>
<wgt id='1133'> +5.2785990e-01 </wgt>
<wgt id='1134'> +5.2990132e-01 </wgt>
<wgt id='1135'> +5.3083319e-01 </wgt>
<wgt id='1136'> +5.2877982e-01 </wgt>
<wgt id='1137'> +5.2803397e-01 </wgt>
<wgt id='1138'> +5.2842727e-01 </wgt>
<wgt id='1139'> +5.2982607e-01 </wgt>
<wgt id='1140'> +5.2816791e-01 </wgt>
<wgt id='1141'> +5.2756743e-01 </wgt>
<wgt id='1142'> +5.2846894e-01 </wgt>
<wgt id='1143'> +5.2874333e-01 </wgt>
<wgt id='1144'> +5.2779032e-01 </wgt>
<wgt id='1145'> +5.2841481e-01 </wgt>
<wgt id='1146'> +5.2859578e-01 </wgt>
<wgt id='1147'> +5.2857060e-01 </wgt>
<wgt id='1148'> +5.2878984e-01 </wgt>
<wgt id='1149'> +5.1168388e-01 </wgt>
<wgt id='1150'> +5.6875259e-01 </wgt>
<wgt id='1151'> +5.0647222e-01 </wgt>
<wgt id='1152'> +5.4931526e-01 </wgt>
<wgt id='1153'> +5.4336082e-01 </wgt>
<wgt id='1154'> +5.0822014e-01 </wgt>
<wgt id='1155'> +5.1352418e-01 </wgt>
<wgt id='1156'> +4.9456890e-01 </wgt>
<wgt id='1157'> +4.9870914e-01 </wgt>
<wgt id='1158'> +4.8277682e-01 </wgt>
<wgt id='1159'> +5.1356636e-01 </wgt>
<wgt id='1160'> +5.0204329e-01 </wgt>
<wgt id='1161'> +5.0684642e-01 </wgt>
<wgt id='1162'> +5.1611614e-01 </wgt>
<wgt id='1163'> +5.2206562e-01 </wgt>
<wgt id='1164'> +4.8452807e-01 </wgt>
<wgt id='1165'> +5.0435822e-01 </wgt>
<wgt id='1166'> +5.3098534e-01 </wgt>
<wgt id='1167'> +5.0730118e-01 </wgt>
<wgt id='1168'> +5.2048844e-01 </wgt>
<wgt id='1169'> +4.9192328e-01 </wgt>
<wgt id='1170'> +5.1268342e-01 </wgt>
<wgt id='1171'> +5.2921825e-01 </wgt>
<wgt id='1172'> +4.9935698e-01 </wgt>
<wgt id='1173'> +5.2110699e-01 </wgt>
<wgt id='1174'> +4.8521630e-01 </wgt>
<wgt id='1175'> +5.2064378e-01 </wgt>
<wgt id='1176'> +5.5209588e-01 </wgt>
<wgt id='1177'> +5.1865689e-01 </wgt>
<wgt id='1178'> +4.9765214e-01 </wgt>
<wgt id='1179'> +5.0089362e-01 </wgt>
<wgt id='1180'> +5.2723988e-01 </wgt>
<wgt id='1181'> +5.0247160e-01 </wgt>
<wgt id='1182'> +5.4948406e-01 </wgt>
<wgt id='1183'> +5.2037311e-01 </wgt>
<wgt id='1184'> +5.1468865e-01 </wgt>
<wgt id='1185'> +5.1109467e-01 </wgt>
<wgt id='1186'> +5.0088821e-01 </wgt>
<wgt id='1187'> +5.0707071e-01 </wgt>
<wgt id='1188'> +4.9608241e-01 </wgt>
<wgt id='1189'> +5.2005219e-01 </wgt>
<wgt id='1190'> +5.3569259e-01 </wgt>
<wgt id='1191'> +5.2478768e-01 </wgt>
<wgt id='1192'> +5.6342745e-01 </wgt>
<wgt id='1193'> +5.1862552e-01 </wgt>
<wgt id='1194'> +5.0804042e-01 </wgt>
<wgt id='1195'> +5.1076978e-01 </wgt>
<wgt id='1196'> +5.2184052e-01 </wgt>
<wgt id='1197'> +5.2572366e-01 </wgt>
<wgt id='1198'> +4.8400260e-01 </wgt>
<wgt id='1199'> +4.9851649e-01 </wgt>
<wgt id='1200'> +5.1456009e-01 </wgt>
<wgt id='1201'> +4.8347867e-01 </wgt>
<wgt id='1202'> +5.1050475e-01 </wgt>
<wgt id='1203'> +5.1603067e-01 </wgt>
<wgt id='1204'> +5.5404603e-01 </wgt>
<wgt id='1205'> +5.1407783e-01 </wgt>
<wgt id='1206'> +5.0309541e-01 </wgt>
<wgt id='1207'> +5.1634040e-01 </wgt>
<wgt id='1208'> +4.7692404e-01 </wgt>
<wgt id='1209'> +5.1190267e-01 </wgt>
<wgt id='1210'> +5.0630658e-01 </wgt>
<wgt id='1211'> +5.2042031e-01 </wgt>
<wgt id='1212'> +5.2678059e-01 </wgt>
<wgt id='1213'> +5.3104385e-01 </wgt>
<wgt id='1214'> +5.1200241e-01 </wgt>
<wgt id='1215'> +4.9601480e-01 </wgt>
<wgt id='1216'> +5.3563225e-01 </wgt>
<wgt id='1217'> +5.1251991e-01 </wgt>
<wgt id='1218'> +4.9231422e-01 </wgt>
<wgt id='1219'> +5.1346843e-01 </wgt>
<wgt id='1220'> +5.1207574e-01 </wgt>
<wgt id='1221'> +4.9515361e-01 </wgt>
<wgt id='1222'> +4.6210527e-01 </wgt>
<wgt id='1223'> +4.8360928e-01 </wgt>
<wgt id='1224'> +5.0103326e-01 </wgt>
<wgt id='1225'> +5.5048724e-01 </wgt>
<wgt id='1226'> +5.0667266e-01 </wgt>
<wgt id='1227'> +4.7812969e-01 </wgt>
<wgt id='1228'> +5.0522651e-01 </wgt>
<wgt id='1229'> +5.5666737e-01 </wgt>
<wgt id='1230'> +5.3054389e-01 </wgt>
<wgt id='1231'> +5.0435822e-01 </wgt>
<wgt id='1232'> +4.9828191e-01 </wgt>
<wgt id='1233'> +5.0887916e-01 </wgt>
<wgt id='1234'> +4.8420538e-01 </wgt>
<wgt id='1235'> +5.4636109e-01 </wgt>
<wgt id='1236'> +4.8920969e-01 </wgt>
<wgt id='1237'> +5.3461755e-01 </wgt>
<wgt id='1238'> +4.4539683e-01 </wgt>
<wgt id='1239'> +5.0387242e-01 </wgt>
<wgt id='1240'> +5.0890156e-01 </wgt>
<wgt id='1241'> +4.4870250e-01 </wgt>
<wgt id='1242'> +4.9850734e-01 </wgt>
<wgt id='1243'> +5.0104563e-01 </wgt>
<wgt id='1244'> +5.1145810e-01 </wgt>
<wgt id='1245'> +5.0443129e-01 </wgt>
<wgt id='1246'> +5.5678532e-01 </wgt>
<wgt id='1247'> +5.3619995e-01 </wgt>
<wgt id='1248'> +5.1543447e-01 </wgt>
<wgt id='1249'> +5.0073869e-01 </wgt>
<wgt id='1250'> +4.8934076e-01 </wgt>
<wgt id='1251'> +4.8376026e-01 </wgt>
<wgt id='1252'> +5.0073407e-01 </wgt>
<wgt id='1253'> +5.0936086e-01 </wgt>
<wgt id='1254'> +5.3474452e-01 </wgt>
<wgt id='1255'> +5.9059149e-01 </wgt>
<wgt id='1256'> +5.8911888e-01 </wgt>
<wgt id='1257'> +5.9149028e-01 </wgt>
<wgt id='1258'> +5.9406570e-01 </wgt>
<wgt id='1259'> +5.8882817e-01 </wgt>
<wgt id='1260'> +5.9366927e-01 </wgt>
<wgt id='1261'> +5.8649476e-01 </wgt>
<wgt id='1262'> +5.9269761e-01 </wgt>
<wgt id='1263'> +5.8927968e-01 </wgt>
<wgt id='1264'> +5.8933138e-01 </wgt>
<wgt id='1265'> +5.9146306e-01 </wgt>
<wgt id='1266'> +5.9138169e-01 </wgt>
<wgt id='1267'> +5.8984107e-01 </wgt>
<wgt id='1268'> +5.9648670e-01 </wgt>
<wgt id='1269'> +5.8482851e-01 </wgt>
<wgt id='1270'> +5.7917896e-01 </wgt>
<wgt id='1271'> +6.0363709e-01 </wgt>
<wgt id='1272'> +5.8467238e-01 </wgt>
<wgt id='1273'> +5.9507099e-01 </wgt>
<wgt id='1274'> +5.9201288e-01 </wgt>
<wgt id='1275'> +5.8828692e-01 </wgt>
<wgt id='1276'> +5.9294589e-01 </wgt>
<wgt id='1277'> +5.8731046e-01 </wgt>
<wgt id='1278'> +5.9952563e-01 </wgt>
<wgt id='1279'> +5.8312118e-01 </wgt>
<wgt id='1280'> +5.8934109e-01 </wgt>
<wgt id='1281'> +5.9516091e-01 </wgt>
<wgt id='1282'> +5.9268530e-01 </wgt>
<wgt id='1283'> +5.8680875e-01 </wgt>
<wgt id='1284'> +5.8970524e-01 </wgt>
<wgt id='1285'> +5.9158296e-01 </wgt>
<wgt id='1286'> +5.9041106e-01 </wgt>
<wgt id='1287'> +5.9076518e-01 </wgt>
<wgt id='1288'> +5.9524001e-01 </wgt>
<wgt id='1289'> +5.8859560e-01 </wgt>
<wgt id='1290'> +5.8944852e-01 </wgt>
<wgt id='1291'> +5.9101083e-01 </wgt>
<wgt id='1292'> +5.9636300e-01 </wgt>
<wgt id='1293'> +5.8375099e-01 </wgt>
<wgt id='1294'> +5.8583277e-01 </wgt>
<wgt id='1295'> +5.9138625e-01 </wgt>
<wgt id='1296'> +5.5837525e-01 </wgt>
<wgt id='1297'> +5.6014029e-01 </wgt>
<wgt id='1298'> +5.5688138e-01 </wgt>
<wgt id='1299'> +5.6194164e-01 </wgt>
<wgt id='1300'> +5.5433764e-01 </wgt>
<wgt id='1301'> +5.5659773e-01 </wgt>
<wgt id='1302'> +5.6098069e-01 </wgt>
<wgt id='1303'> +5.6433048e-01 </wgt>
<wgt id='1304'> +5.5436865e-01 </wgt>
<wgt id='1305'> +5.5973721e-01 </wgt>
<wgt id='1306'> +5.5639423e-01 </wgt>
<wgt id='1307'> +5.6515832e-01 </wgt>
<wgt id='1308'> +5.5413604e-01 </wgt>
<wgt id='1309'> +5.5869890e-01 </wgt>
<wgt id='1310'> +5.5787680e-01 </wgt>
<wgt id='1311'> +5.5999079e-01 </wgt>
<wgt id='1312'> +5.5777126e-01 </wgt>
<wgt id='1313'> +5.5285259e-01 </wgt>
<wgt id='1314'> +5.6513362e-01 </wgt>
<wgt id='1315'> +5.6199289e-01 </wgt>
<wgt id='1316'> +5.5482926e-01 </wgt>
<wgt id='1317'> +5.6432886e-01 </wgt>
<wgt id='1318'> +5.4799348e-01 </wgt>
<wgt id='1319'> +5.5379888e-01 </wgt>
<wgt id='1320'> +5.6032153e-01 </wgt>
<wgt id='1321'> +5.6450197e-01 </wgt>
<wgt id='1322'> +5.5556776e-01 </wgt>
<wgt id='1323'> +5.5483885e-01 </wgt>
<wgt id='1324'> +5.6187486e-01 </wgt>
<wgt id='1325'> +5.5729187e-01 </wgt>
<wgt id='1326'> +5.5744575e-01 </wgt>
<wgt id='1327'> +5.5930465e-01 </wgt>
<wgt id='1328'> +5.5805540e-01 </wgt>
<wgt id='1329'> +5.5930226e-01 </wgt>
<wgt id='1330'> +5.5804256e-01 </wgt>
<wgt id='1331'> +5.5900051e-01 </wgt>
<wgt id='1332'> +5.5813785e-01 </wgt>
<wgt id='1333'> +5.6413602e-01 </wgt>
<wgt id='1334'> +5.5542370e-01 </wgt>
<wgt id='1335'> +5.5694947e-01 </wgt>
<wgt id='1336'> +5.5874531e-01 </wgt>
<wgt id='1337'> +5.5837525e-01 </wgt>
<wgt id='1338'> +5.5879274e-01 </wgt>
<wgt id='1339'> +5.5860162e-01 </wgt>
<wgt id='1340'> +5.5839307e-01 </wgt>
<wgt id='1341'> +5.5808695e-01 </wgt>
<wgt id='1342'> +5.5789176e-01 </wgt>
<wgt id='1343'> +5.5775426e-01 </wgt>
<wgt id='1344'> +5.2752921e-01 </wgt>
<wgt id='1345'> +5.2939561e-01 </wgt>
<wgt id='1346'> +5.2563972e-01 </wgt>
<wgt id='1347'> +5.2584900e-01 </wgt>
<wgt id='1348'> +5.2875646e-01 </wgt>
<wgt id='1349'> +5.3155371e-01 </wgt>
<wgt id='1350'> +5.2411052e-01 </wgt>
<wgt id='1351'> +5.2758521e-01 </wgt>
<wgt id='1352'> +5.2741684e-01 </wgt>
<wgt id='1353'> +5.3252651e-01 </wgt>
<wgt id='1354'> +5.2400474e-01 </wgt>
<wgt id='1355'> +5.2642450e-01 </wgt>
<wgt id='1356'> +5.2837044e-01 </wgt>
<wgt id='1357'> +5.3194575e-01 </wgt>
<wgt id='1358'> +5.2486421e-01 </wgt>
<wgt id='1359'> +5.2632922e-01 </wgt>
<wgt id='1360'> +5.3062885e-01 </wgt>
<wgt id='1361'> +5.2037799e-01 </wgt>
<wgt id='1362'> +5.3417936e-01 </wgt>
<wgt id='1363'> +5.2411094e-01 </wgt>
<wgt id='1364'> +5.3168711e-01 </wgt>
<wgt id='1365'> +5.2712443e-01 </wgt>
<wgt id='1366'> +5.2704193e-01 </wgt>
<wgt id='1367'> +5.3209346e-01 </wgt>
<wgt id='1368'> +5.2531959e-01 </wgt>
<wgt id='1369'> +5.3202809e-01 </wgt>
<wgt id='1370'> +5.2259559e-01 </wgt>
<wgt id='1371'> +5.3030165e-01 </wgt>
<wgt id='1372'> +5.2345966e-01 </wgt>
<wgt id='1373'> +5.3040338e-01 </wgt>
<wgt id='1374'> +5.2748499e-01 </wgt>
<wgt id='1375'> +5.2900515e-01 </wgt>
<wgt id='1376'> +5.2719003e-01 </wgt>
<wgt id='1377'> +5.2778780e-01 </wgt>
<wgt id='1378'> +5.2769926e-01 </wgt>
<wgt id='1379'> +5.2710731e-01 </wgt>
<wgt id='1380'> +5.2808964e-01 </wgt>
<wgt id='1381'> +5.2307893e-01 </wgt>
<wgt id='1382'> +5.3189745e-01 </wgt>
<wgt id='1383'> +5.2706922e-01 </wgt>
<wgt id='1384'> +5.2979742e-01 </wgt>
<wgt id='1385'> +5.2752921e-01 </wgt>
<wgt id='1386'> +5.2827038e-01 </wgt>
<wgt id='1387'> +5.2792614e-01 </wgt>
<wgt id='1388'> +5.2765775e-01 </wgt>
<wgt id='1389'> +5.2717273e-01 </wgt>
<wgt id='1390'> +5.2692676e-01 </wgt>
<wgt id='1391'> +5.2671018e-01 </wgt>
<wgt id='1392'> +5.7507914e-01 </wgt>
<wgt id='1393'> +5.7300203e-01 </wgt>
<wgt id='1394'> +5.7733109e-01 </wgt>
<wgt id='1395'> +5.7611838e-01 </wgt>
<wgt id='1396'> +5.7440997e-01 </wgt>
<wgt id='1397'> +5.7500441e-01 </wgt>
<wgt id='1398'> +5.7521524e-01 </wgt>
<wgt id='1399'> +5.7392737e-01 </wgt>
<wgt id='1400'> +5.7657864e-01 </wgt>
<wgt id='1401'> +5.7179748e-01 </wgt>
<wgt id='1402'> +5.7925376e-01 </wgt>
<wgt id='1403'> +5.7375297e-01 </wgt>
<wgt id='1404'> +5.7775636e-01 </wgt>
<wgt id='1405'> +5.7780489e-01 </wgt>
<wgt id='1406'> +5.7140307e-01 </wgt>
<wgt id='1407'> +5.6993506e-01 </wgt>
<wgt id='1408'> +5.7865882e-01 </wgt>
<wgt id='1409'> +5.7595557e-01 </wgt>
<wgt id='1410'> +5.7412802e-01 </wgt>
<wgt id='1411'> +5.6730429e-01 </wgt>
<wgt id='1412'> +5.8105178e-01 </wgt>
<wgt id='1413'> +5.7253484e-01 </wgt>
<wgt id='1414'> +5.7786805e-01 </wgt>
<wgt id='1415'> +5.7005176e-01 </wgt>
<wgt id='1416'> +5.8014666e-01 </wgt>
<wgt id='1417'> +5.7322522e-01 </wgt>
<wgt id='1418'> +5.7741610e-01 </wgt>
<wgt id='1419'> +5.7418289e-01 </wgt>
<wgt id='1420'> +5.7566872e-01 </wgt>
<wgt id='1421'> +5.6676191e-01 </wgt>
<wgt id='1422'> +5.8470759e-01 </wgt>
<wgt id='1423'> +5.7925209e-01 </wgt>
<wgt id='1424'> +5.7223839e-01 </wgt>
<wgt id='1425'> +5.7323620e-01 </wgt>
<wgt id='1426'> +5.7660858e-01 </wgt>
<wgt id='1427'> +5.7623080e-01 </wgt>
<wgt id='1428'> +5.7246406e-01 </wgt>
<wgt id='1429'> +5.7389231e-01 </wgt>
<wgt id='1430'> +5.7613129e-01 </wgt>
<wgt id='1431'> +5.7201096e-01 </wgt>
<wgt id='1432'> +5.7782735e-01 </wgt>
<wgt id='1433'> +5.6384916e-01 </wgt>
<wgt id='1434'> +5.9286534e-01 </wgt>
<wgt id='1435'> +5.7298884e-01 </wgt>
<wgt id='1436'> +5.7532871e-01 </wgt>
<wgt id='1437'> +5.7198205e-01 </wgt>
<wgt id='1438'> +5.8399179e-01 </wgt>
<wgt id='1439'> +5.7992620e-01 </wgt>
<wgt id='1440'> +5.7047008e-01 </wgt>
<wgt id='1441'> +5.7564512e-01 </wgt>
<wgt id='1442'> +5.7460280e-01 </wgt>
<wgt id='1443'> +5.7115098e-01 </wgt>
<wgt id='1444'> +5.6896436e-01 </wgt>
<wgt id='1445'> +5.7348132e-01 </wgt>
<wgt id='1446'> +5.7215902e-01 </wgt>
<wgt id='1447'> +5.7045855e-01 </wgt>
<wgt id='1448'> +5.7107251e-01 </wgt>
<wgt id='1449'> +5.7125373e-01 </wgt>
<wgt id='1450'> +5.6991739e-01 </wgt>
<wgt id='1451'> +5.7244677e-01 </wgt>
<wgt id='1452'> +5.6800832e-01 </wgt>
<wgt id='1453'> +5.7418557e-01 </wgt>
<wgt id='1454'> +5.6973364e-01 </wgt>
<wgt id='1455'> +5.7415806e-01 </wgt>
<wgt id='1456'> +5.7402546e-01 </wgt>
<wgt id='1457'> +5.6601521e-01 </wgt>
<wgt id='1458'> +5.6490399e-01 </wgt>
<wgt id='1459'> +5.7470494e-01 </wgt>
<wgt id='1460'> +5.7015890e-01 </wgt>
<wgt id='1461'> +5.7232345e-01 </wgt>
<wgt id='1462'> +5.6397499e-01 </wgt>
<wgt id='1463'> +5.7726601e-01 </wgt>
<wgt id='1464'> +5.6887814e-01 </wgt>
<wgt id='1465'> +5.7405768e-01 </wgt>
<wgt id='1466'> +5.6418105e-01 </wgt>
<wgt id='1467'> +5.7570819e-01 </wgt>
<wgt id='1468'> +5.7483404e-01 </wgt>
<wgt id='1469'> +5.6753170e-01 </wgt>
<wgt id='1470'> +5.7038396e-01 </wgt>
<wgt id='1471'> +5.7155736e-01 </wgt>
<wgt id='1472'> +5.6351935e-01 </wgt>
<wgt id='1473'> +5.8008223e-01 </wgt>
<wgt id='1474'> +5.7300996e-01 </wgt>
<wgt id='1475'> +5.6882055e-01 </wgt>
<wgt id='1476'> +5.6780023e-01 </wgt>
<wgt id='1477'> +5.7327336e-01 </wgt>
<wgt id='1478'> +5.7219646e-01 </wgt>
<wgt id='1479'> +5.6837234e-01 </wgt>
<wgt id='1480'> +5.6992533e-01 </wgt>
<wgt id='1481'> +5.7210872e-01 </wgt>
<wgt id='1482'> +5.6804813e-01 </wgt>
<wgt id='1483'> +5.7420480e-01 </wgt>
<wgt id='1484'> +5.5973496e-01 </wgt>
<wgt id='1485'> +5.8797578e-01 </wgt>
<wgt id='1486'> +5.7196419e-01 </wgt>
<wgt id='1487'> +5.7036148e-01 </wgt>
<wgt id='1488'> +5.6759378e-01 </wgt>
<wgt id='1489'> +5.8061833e-01 </wgt>
<wgt id='1490'> +5.7621411e-01 </wgt>
<wgt id='1491'> +5.6707907e-01 </wgt>
<wgt id='1492'> +5.7177754e-01 </wgt>
<wgt id='1493'> +5.7064176e-01 </wgt>
<wgt id='1494'> +5.4945340e-01 </wgt>
<wgt id='1495'> +5.4396000e-01 </wgt>
<wgt id='1496'> +5.4618569e-01 </wgt>
<wgt id='1497'> +5.4780849e-01 </wgt>
<wgt id='1498'> +5.5189197e-01 </wgt>
<wgt id='1499'> +5.4974028e-01 </wgt>
<wgt id='1500'> +5.4299566e-01 </wgt>
<wgt id='1501'> +5.4499209e-01 </wgt>
<wgt id='1502'> +5.4688814e-01 </wgt>
<wgt id='1503'> +5.4816684e-01 </wgt>
<wgt id='1504'> +5.4906552e-01 </wgt>
<wgt id='1505'> +5.5036403e-01 </wgt>
<wgt id='1506'> +5.5077016e-01 </wgt>
<wgt id='1507'> +5.5101283e-01 </wgt>
<wgt id='1508'> +5.4974028e-01 </wgt>
<wgt id='1509'> +5.5065163e-01 </wgt>
<wgt id='1510'> +5.5019393e-01 </wgt>
<wgt id='1511'> +5.4937052e-01 </wgt>
<wgt id='1512'> +5.4927794e-01 </wgt>
<wgt id='1513'> +5.3243165e-01 </wgt>
<wgt id='1514'> +5.3035481e-01 </wgt>
<wgt id='1515'> +5.3516795e-01 </wgt>
<wgt id='1516'> +5.3119752e-01 </wgt>
<wgt id='1517'> +5.3371912e-01 </wgt>
<wgt id='1518'> +5.3425080e-01 </wgt>
<wgt id='1519'> +5.3173297e-01 </wgt>
<wgt id='1520'> +5.3121511e-01 </wgt>
<wgt id='1521'> +5.3368822e-01 </wgt>
<wgt id='1522'> +5.3112479e-01 </wgt>
<wgt id='1523'> +5.3376350e-01 </wgt>
<wgt id='1524'> +5.3740099e-01 </wgt>
<wgt id='1525'> +5.3034531e-01 </wgt>
<wgt id='1526'> +5.3573191e-01 </wgt>
<wgt id='1527'> +5.2845964e-01 </wgt>
<wgt id='1528'> +5.3376816e-01 </wgt>
<wgt id='1529'> +5.3102220e-01 </wgt>
<wgt id='1530'> +5.2597192e-01 </wgt>
<wgt id='1531'> +5.3604579e-01 </wgt>
<wgt id='1532'> +5.3911950e-01 </wgt>
<wgt id='1533'> +5.2344145e-01 </wgt>
<wgt id='1534'> +5.3136359e-01 </wgt>
<wgt id='1535'> +5.3319186e-01 </wgt>
<wgt id='1536'> +5.3325997e-01 </wgt>
<wgt id='1537'> +5.3173167e-01 </wgt>
<wgt id='1538'> +5.3432836e-01 </wgt>
<wgt id='1539'> +5.2779729e-01 </wgt>
<wgt id='1540'> +5.3237174e-01 </wgt>
<wgt id='1541'> +5.3194220e-01 </wgt>
<wgt id='1542'> +5.3490372e-01 </wgt>
<wgt id='1543'> +5.2642002e-01 </wgt>
<wgt id='1544'> +5.3665963e-01 </wgt>
<wgt id='1545'> +5.2405393e-01 </wgt>
<wgt id='1546'> +5.3325148e-01 </wgt>
<wgt id='1547'> +5.2932501e-01 </wgt>
<wgt id='1548'> +5.3050006e-01 </wgt>
<wgt id='1549'> +5.3315520e-01 </wgt>
<wgt id='1550'> +5.3097911e-01 </wgt>
<wgt id='1551'> +5.3430057e-01 </wgt>
<wgt id='1552'> +5.2903160e-01 </wgt>
<wgt id='1553'> +5.3460298e-01 </wgt>
<wgt id='1554'> +5.4143549e-01 </wgt>
<wgt id='1555'> +5.1903671e-01 </wgt>
<wgt id='1556'> +5.3289364e-01 </wgt>
<wgt id='1557'> +5.3089253e-01 </wgt>
<wgt id='1558'> +5.2744830e-01 </wgt>
<wgt id='1559'> +5.3767371e-01 </wgt>
<wgt id='1560'> +5.4173557e-01 </wgt>
<wgt id='1561'> +5.2839482e-01 </wgt>
<wgt id='1562'> +5.2946888e-01 </wgt>
<wgt id='1563'> +5.3398336e-01 </wgt>
<wgt id='1564'> +5.3243165e-01 </wgt>
<wgt id='1565'> +5.3025836e-01 </wgt>
<wgt id='1566'> +5.3512432e-01 </wgt>
<wgt id='1567'> +5.3241380e-01 </wgt>
<wgt id='1568'> +5.2634914e-01 </wgt>
<wgt id='1569'> +5.2862578e-01 </wgt>
<wgt id='1570'> +5.2999502e-01 </wgt>
<wgt id='1571'> +5.3040330e-01 </wgt>
<wgt id='1572'> +5.3187628e-01 </wgt>
<wgt id='1573'> +5.3234616e-01 </wgt>
<wgt id='1574'> +5.3151569e-01 </wgt>
<wgt id='1575'> +5.3155347e-01 </wgt>
<wgt id='1576'> +5.3241380e-01 </wgt>
<wgt id='1577'> +5.3315182e-01 </wgt>
<wgt id='1578'> +5.3253589e-01 </wgt>
<wgt id='1579'> +5.3211200e-01 </wgt>
<wgt id='1580'> +5.3193211e-01 </wgt>
<wgt id='1581'> +5.2850268e-01 </wgt>
<wgt id='1582'> +5.2885358e-01 </wgt>
<wgt id='1583'> +5.3484169e-01 </wgt>
<wgt id='1584'> +5.2775962e-01 </wgt>
<wgt id='1585'> +5.2865925e-01 </wgt>
<wgt id='1586'> +5.2480606e-01 </wgt>
<wgt id='1587'> +5.3339017e-01 </wgt>
<wgt id='1588'> +5.2733091e-01 </wgt>
<wgt id='1589'> +5.2932747e-01 </wgt>
<wgt id='1590'> +5.0705879e-01 </wgt>
<wgt id='1591'> +5.2805035e-01 </wgt>
<wgt id='1592'> +5.2053863e-01 </wgt>
<wgt id='1593'> +5.2793931e-01 </wgt>
<wgt id='1594'> +5.2397675e-01 </wgt>
<wgt id='1595'> +5.2806800e-01 </wgt>
<wgt id='1596'> +5.3170373e-01 </wgt>
<wgt id='1597'> +5.2997410e-01 </wgt>
<wgt id='1598'> +5.3273631e-01 </wgt>
<wgt id='1599'> +5.2818848e-01 </wgt>
<wgt id='1600'> +5.2597211e-01 </wgt>
<wgt id='1601'> +5.2658880e-01 </wgt>
<wgt id='1602'> +5.2832785e-01 </wgt>
<wgt id='1603'> +5.2775716e-01 </wgt>
<wgt id='1604'> +5.2751837e-01 </wgt>
<wgt id='1605'> +5.2905631e-01 </wgt>
<wgt id='1606'> +5.2840249e-01 </wgt>
<wgt id='1607'> +5.2648560e-01 </wgt>
<wgt id='1608'> +5.2641990e-01 </wgt>
<wgt id='1609'> +5.2792060e-01 </wgt>
<wgt id='1610'> +5.2715226e-01 </wgt>
<wgt id='1611'> +5.3206556e-01 </wgt>
<wgt id='1612'> +5.2516618e-01 </wgt>
<wgt id='1613'> +5.2439180e-01 </wgt>
<wgt id='1614'> +5.2686378e-01 </wgt>
<wgt id='1615'> +5.2470095e-01 </wgt>
<wgt id='1616'> +5.2734137e-01 </wgt>
<wgt id='1617'> +5.2655207e-01 </wgt>
<wgt id='1618'> +5.2516356e-01 </wgt>
<wgt id='1619'> +5.2715080e-01 </wgt>
<wgt id='1620'> +5.2784433e-01 </wgt>
<wgt id='1621'> +5.3009840e-01 </wgt>
<wgt id='1622'> +5.2321102e-01 </wgt>
<wgt id='1623'> +5.2472082e-01 </wgt>
<wgt id='1624'> +5.2517326e-01 </wgt>
<wgt id='1625'> +5.2177306e-01 </wgt>
<wgt id='1626'> +5.2669700e-01 </wgt>
<wgt id='1627'> +5.2244935e-01 </wgt>
<wgt id='1628'> +5.2793145e-01 </wgt>
<wgt id='1629'> +5.2368375e-01 </wgt>
<wgt id='1630'> +5.2193071e-01 </wgt>
<wgt id='1631'> +5.2841359e-01 </wgt>
<wgt id='1632'> +5.2286264e-01 </wgt>
<wgt id='1633'> +5.2847635e-01 </wgt>
<wgt id='1634'> +5.2277003e-01 </wgt>
<wgt id='1635'> +5.2342097e-01 </wgt>
<wgt id='1636'> +5.2089801e-01 </wgt>
<wgt id='1637'> +5.2383319e-01 </wgt>
<wgt id='1638'> +5.1993567e-01 </wgt>
<wgt id='1639'> +5.2221891e-01 </wgt>
<wgt id='1640'> +5.2531057e-01 </wgt>
<wgt id='1641'> +5.2917228e-01 </wgt>
<wgt id='1642'> +5.2219569e-01 </wgt>
<wgt id='1643'> +5.2800426e-01 </wgt>
<wgt id='1644'> +5.2812427e-01 </wgt>
<wgt id='1645'> +5.2788140e-01 </wgt>
<wgt id='1646'> +5.2317579e-01 </wgt>
<wgt id='1647'> +5.3314164e-01 </wgt>
<wgt id='1648'> +5.2771526e-01 </wgt>
<wgt id='1649'> +5.1994499e-01 </wgt>
<wgt id='1650'> +5.2763489e-01 </wgt>
<wgt id='1651'> +5.2256423e-01 </wgt>
<wgt id='1652'> +5.2499301e-01 </wgt>
<wgt id='1653'> +5.2538842e-01 </wgt>
<wgt id='1654'> +5.2710199e-01 </wgt>
<wgt id='1655'> +5.2347362e-01 </wgt>
<wgt id='1656'> +5.2806839e-01 </wgt>
<wgt id='1657'> +5.2199871e-01 </wgt>
<wgt id='1658'> +5.2526505e-01 </wgt>
<wgt id='1659'> +5.2468587e-01 </wgt>
<wgt id='1660'> +5.2567303e-01 </wgt>
<wgt id='1661'> +5.2596174e-01 </wgt>
<wgt id='1662'> +5.2497406e-01 </wgt>
<wgt id='1663'> +5.2668978e-01 </wgt>
<wgt id='1664'> +5.2194883e-01 </wgt>
<wgt id='1665'> +5.2461493e-01 </wgt>
<wgt id='1666'> +5.2599199e-01 </wgt>
<wgt id='1667'> +5.2647846e-01 </wgt>
<wgt id='1668'> +5.2753446e-01 </wgt>
<wgt id='1669'> +5.2466254e-01 </wgt>
<wgt id='1670'> +5.2831640e-01 </wgt>
<wgt id='1671'> +5.2369172e-01 </wgt>
<wgt id='1672'> +5.2318998e-01 </wgt>
<wgt id='1673'> +5.2429220e-01 </wgt>
<wgt id='1674'> +5.2521794e-01 </wgt>
<wgt id='1675'> +5.2479088e-01 </wgt>
<wgt id='1676'> +5.2438990e-01 </wgt>
<wgt id='1677'> +5.2620365e-01 </wgt>
<wgt id='1678'> +5.2343025e-01 </wgt>
<wgt id='1679'> +5.2512310e-01 </wgt>
<wgt id='1680'> +5.2464785e-01 </wgt>
<wgt id='1681'> +5.2435181e-01 </wgt>
<wgt id='1682'> +5.2497980e-01 </wgt>
<wgt id='1683'> +5.2470453e-01 </wgt>
<wgt id='1684'> +5.2569854e-01 </wgt>
<wgt id='1685'> +5.2688057e-01 </wgt>
<wgt id='1686'> +5.2419757e-01 </wgt>
<wgt id='1687'> +5.2425037e-01 </wgt>
<wgt id='1688'> +5.2682336e-01 </wgt>
<wgt id='1689'> +5.2476778e-01 </wgt>
<wgt id='1690'> +5.2584775e-01 </wgt>
<wgt id='1691'> +5.2545173e-01 </wgt>
<wgt id='1692'> +5.2349761e-01 </wgt>
<wgt id='1693'> +5.2427420e-01 </wgt>
<wgt id='1694'> +5.2507332e-01 </wgt>
<wgt id='1695'> +5.2632763e-01 </wgt>
<wgt id='1696'> +5.2537996e-01 </wgt>
<wgt id='1697'> +5.2554747e-01 </wgt>
<wgt id='1698'> +5.2410491e-01 </wgt>
<wgt id='1699'> +5.2542053e-01 </wgt>
<wgt id='1700'> +5.2648242e-01 </wgt>
<wgt id='1701'> +5.2583321e-01 </wgt>
<wgt id='1702'> +5.2627462e-01 </wgt>
<wgt id='1703'> +5.2610990e-01 </wgt>
<wgt id='1704'> +5.2649525e-01 </wgt>
<wgt id='1705'> +5.2477473e-01 </wgt>
<wgt id='1706'> +5.2452898e-01 </wgt>
<wgt id='1707'> +5.2476920e-01 </wgt>
<wgt id='1708'> +5.2483667e-01 </wgt>
<wgt id='1709'> +5.2551003e-01 </wgt>
<wgt id='1710'> +5.2375349e-01 </wgt>
<wgt id='1711'> +5.2416583e-01 </wgt>
<wgt id='1712'> +5.2485909e-01 </wgt>
<wgt id='1713'> +5.2107271e-01 </wgt>
<wgt id='1714'> +5.3046653e-01 </wgt>
<wgt id='1715'> +5.3929112e-01 </wgt>
<wgt id='1716'> +5.7605265e-01 </wgt>
<wgt id='1717'> +5.5080945e-01 </wgt>
<wgt id='1718'> +5.3688306e-01 </wgt>
<wgt id='1719'> +5.3361132e-01 </wgt>
<wgt id='1720'> +5.4297730e-01 </wgt>
<wgt id='1721'> +5.8370276e-01 </wgt>
<wgt id='1722'> +5.8507519e-01 </wgt>
<wgt id='1723'> +5.2709298e-01 </wgt>
<wgt id='1724'> +5.4052317e-01 </wgt>
<wgt id='1725'> +5.3432611e-01 </wgt>
<wgt id='1726'> +5.2911500e-01 </wgt>
<wgt id='1727'> +5.5158081e-01 </wgt>
<wgt id='1728'> +5.4178470e-01 </wgt>
<wgt id='1729'> +5.3628515e-01 </wgt>
<wgt id='1730'> +5.4037466e-01 </wgt>
<wgt id='1731'> +5.7479249e-01 </wgt>
<wgt id='1732'> +5.1269022e-01 </wgt>
<wgt id='1733'> +5.3060753e-01 </wgt>
<wgt id='1734'> +5.5621488e-01 </wgt>
<wgt id='1735'> +5.4410819e-01 </wgt>
<wgt id='1736'> +5.2914689e-01 </wgt>
<wgt id='1737'> +5.4622105e-01 </wgt>
<wgt id='1738'> +5.1680137e-01 </wgt>
<wgt id='1739'> +5.4998935e-01 </wgt>
<wgt id='1740'> +5.3223580e-01 </wgt>
<wgt id='1741'> +5.4333009e-01 </wgt>
<wgt id='1742'> +5.1669038e-01 </wgt>
<wgt id='1743'> +5.4646975e-01 </wgt>
<wgt id='1744'> +5.4557386e-01 </wgt>
<wgt id='1745'> +5.2945500e-01 </wgt>
<wgt id='1746'> +5.5387322e-01 </wgt>
<wgt id='1747'> +5.0816827e-01 </wgt>
<wgt id='1748'> +5.2797025e-01 </wgt>
<wgt id='1749'> +5.1712182e-01 </wgt>
<wgt id='1750'> +5.2480848e-01 </wgt>
<wgt id='1751'> +5.4448260e-01 </wgt>
<wgt id='1752'> +5.7401005e-01 </wgt>
<wgt id='1753'> +5.4566497e-01 </wgt>
<wgt id='1754'> +5.0903784e-01 </wgt>
<wgt id='1755'> +5.3664306e-01 </wgt>
<wgt id='1756'> +5.8164154e-01 </wgt>
<wgt id='1757'> +5.4024377e-01 </wgt>
<wgt id='1758'> +5.4210587e-01 </wgt>
<wgt id='1759'> +5.4522901e-01 </wgt>
<wgt id='1760'> +5.5044442e-01 </wgt>
<wgt id='1761'> +5.0462711e-01 </wgt>
<wgt id='1762'> +5.5158081e-01 </wgt>
<wgt id='1763'> +5.7328187e-01 </wgt>
<wgt id='1764'> +5.3969983e-01 </wgt>
<wgt id='1765'> +5.5201755e-01 </wgt>
<wgt id='1766'> +5.1459881e-01 </wgt>
<wgt id='1767'> +5.5391766e-01 </wgt>
<wgt id='1768'> +5.4146070e-01 </wgt>
<wgt id='1769'> +5.3689050e-01 </wgt>
<wgt id='1770'> +5.3590056e-01 </wgt>
<wgt id='1771'> +5.5565624e-01 </wgt>
<wgt id='1772'> +5.1859107e-01 </wgt>
<wgt id='1773'> +5.3709644e-01 </wgt>
<wgt id='1774'> +5.5423622e-01 </wgt>
<wgt id='1775'> +5.5116322e-01 </wgt>
<wgt id='1776'> +5.1473147e-01 </wgt>
<wgt id='1777'> +5.2956411e-01 </wgt>
<wgt id='1778'> +5.4103750e-01 </wgt>
<wgt id='1779'> +5.5945859e-01 </wgt>
<wgt id='1780'> +5.2660807e-01 </wgt>
<wgt id='1781'> +5.3105531e-01 </wgt>
<wgt id='1782'> +5.0354099e-01 </wgt>
<wgt id='1783'> +5.7069971e-01 </wgt>
<wgt id='1784'> +5.1770043e-01 </wgt>
<wgt id='1785'> +5.5076059e-01 </wgt>
<wgt id='1786'> +5.1956697e-01 </wgt>
<wgt id='1787'> +5.3586147e-01 </wgt>
<wgt id='1788'> +5.6076156e-01 </wgt>
<wgt id='1789'> +5.3879296e-01 </wgt>
<wgt id='1790'> +5.4407287e-01 </wgt>
<wgt id='1791'> +5.1941016e-01 </wgt>
<wgt id='1792'> +5.1847427e-01 </wgt>
<wgt id='1793'> +5.2811570e-01 </wgt>
<wgt id='1794'> +5.4887688e-01 </wgt>
<wgt id='1795'> +5.2445515e-01 </wgt>
<wgt id='1796'> +5.5147557e-01 </wgt>
<wgt id='1797'> +5.6355095e-01 </wgt>
<wgt id='1798'> +5.2927650e-01 </wgt>
<wgt id='1799'> +5.1807336e-01 </wgt>
<wgt id='1800'> +5.3849366e-01 </wgt>
<wgt id='1801'> +5.4423370e-01 </wgt>
<wgt id='1802'> +5.3809642e-01 </wgt>
<wgt id='1803'> +5.2536481e-01 </wgt>
<wgt id='1804'> +5.3600028e-01 </wgt>
<wgt id='1805'> +5.7199191e-01 </wgt>
<wgt id='1806'> +5.4613000e-01 </wgt>
<wgt id='1807'> +5.4639610e-01 </wgt>
<wgt id='1808'> +4.9771909e-01 </wgt>
<wgt id='1809'> +5.3935831e-01 </wgt>
<wgt id='1810'> +5.6293240e-01 </wgt>
<wgt id='1811'> +5.2448629e-01 </wgt>
<wgt id='1812'> +5.1741272e-01 </wgt>
<wgt id='1813'> +5.2614073e-01 </wgt>
<wgt id='1814'> +5.3822673e-01 </wgt>
<wgt id='1815'> +5.2419333e-01 </wgt>
<wgt id='1816'> +5.3112540e-01 </wgt>
<wgt id='1817'> +5.1932409e-01 </wgt>
<wgt id='1818'> +5.2562723e-01 </wgt>
<wgt id='1819'> +5.5419023e-01 </wgt>
<wgt id='1820'> +5.1975022e-01 </wgt>
<wgt id='1821'> +5.7690779e-01 </wgt>
<wgt id='1822'> +5.1436168e-01 </wgt>
<wgt id='1823'> +5.2167280e-01 </wgt>
<wgt id='1824'> +5.2510319e-01 </wgt>
<wgt id='1825'> +5.5072890e-01 </wgt>
<wgt id='1826'> +5.4932406e-01 </wgt>
<wgt id='1827'> +4.9913023e-01 </wgt>
<wgt id='1828'> +5.3299610e-01 </wgt>
<wgt id='1829'> +5.3416632e-01 </wgt>
<wgt id='1830'> +5.3577917e-01 </wgt>
<wgt id='1831'> +5.3501798e-01 </wgt>
<wgt id='1832'> +5.7602557e-01 </wgt>
<wgt id='1833'> +5.3567209e-01 </wgt>
<wgt id='1834'> +5.3165467e-01 </wgt>
<wgt id='1835'> +5.2478484e-01 </wgt>
<wgt id='1836'> +5.6224168e-01 </wgt>
<wgt id='1837'> +5.4307499e-01 </wgt>
<wgt id='1838'> +5.2571528e-01 </wgt>
<wgt id='1839'> +5.5820652e-01 </wgt>
<wgt id='1840'> +5.6676514e-01 </wgt>
<wgt id='1841'> +5.2311941e-01 </wgt>
<wgt id='1842'> +5.2467586e-01 </wgt>
<wgt id='1843'> +5.4518450e-01 </wgt>
<wgt id='1844'> +5.3313328e-01 </wgt>
<wgt id='1845'> +5.3555000e-01 </wgt>
<wgt id='1846'> +5.4465291e-01 </wgt>
<wgt id='1847'> +5.4836393e-01 </wgt>
<wgt id='1848'> +5.2470440e-01 </wgt>
<wgt id='1849'> +5.2863278e-01 </wgt>
<wgt id='1850'> +5.4031719e-01 </wgt>
<wgt id='1851'> +5.4004204e-01 </wgt>
<wgt id='1852'> +5.1846477e-01 </wgt>
<wgt id='1853'> +5.4552762e-01 </wgt>
<wgt id='1854'> +5.3381318e-01 </wgt>
<wgt id='1855'> +5.2261007e-01 </wgt>
<wgt id='1856'> +5.1893451e-01 </wgt>
<wgt id='1857'> +4.9978458e-01 </wgt>
<wgt id='1858'> +5.1770108e-01 </wgt>
<wgt id='1859'> +5.2061375e-01 </wgt>
<wgt id='1860'> +5.3812815e-01 </wgt>
<wgt id='1861'> +5.1649010e-01 </wgt>
<wgt id='1862'> +5.1325957e-01 </wgt>
<wgt id='1863'> +5.1942073e-01 </wgt>
<wgt id='1864'> +5.2981511e-01 </wgt>
<wgt id='1865'> +5.5252001e-01 </wgt>
<wgt id='1866'> +5.1960419e-01 </wgt>
<wgt id='1867'> +5.1280773e-01 </wgt>
<wgt id='1868'> +5.3000461e-01 </wgt>
<wgt id='1869'> +5.5594352e-01 </wgt>
<wgt id='1870'> +5.2065427e-01 </wgt>
<wgt id='1871'> +5.3678064e-01 </wgt>
<wgt id='1872'> +5.1919482e-01 </wgt>
<wgt id='1873'> +5.0517688e-01 </wgt>
<wgt id='1874'> +5.0651097e-01 </wgt>
<wgt id='1875'> +5.5741264e-01 </wgt>
<wgt id='1876'> +5.1813279e-01 </wgt>
<wgt id='1877'> +5.2763458e-01 </wgt>
<wgt id='1878'> +5.3658386e-01 </wgt>
<wgt id='1879'> +5.3818005e-01 </wgt>
<wgt id='1880'> +5.0520694e-01 </wgt>
<wgt id='1881'> +5.1517105e-01 </wgt>
<wgt id='1882'> +5.4718462e-01 </wgt>
<wgt id='1883'> +5.3115280e-01 </wgt>
<wgt id='1884'> +5.1631697e-01 </wgt>
<wgt id='1885'> +5.3194638e-01 </wgt>
<wgt id='1886'> +5.4940511e-01 </wgt>
<wgt id='1887'> +5.2321355e-01 </wgt>
<wgt id='1888'> +5.4300864e-01 </wgt>
<wgt id='1889'> +5.2061706e-01 </wgt>
<wgt id='1890'> +5.5645679e-01 </wgt>
<wgt id='1891'> +5.1677706e-01 </wgt>
<wgt id='1892'> +5.2679907e-01 </wgt>
<wgt id='1893'> +5.2814375e-01 </wgt>
<wgt id='1894'> +5.2443096e-01 </wgt>
<wgt id='1895'> +5.2031958e-01 </wgt>
<wgt id='1896'> +5.3688586e-01 </wgt>
<wgt id='1897'> +5.1961918e-01 </wgt>
<wgt id='1898'> +5.1716366e-01 </wgt>
<wgt id='1899'> +5.2256418e-01 </wgt>
<wgt id='1900'> +5.4346845e-01 </wgt>
<wgt id='1901'> +5.5162209e-01 </wgt>
<wgt id='1902'> +5.3032104e-01 </wgt>
<wgt id='1903'> +5.1170875e-01 </wgt>
<wgt id='1904'> +5.1558589e-01 </wgt>
<wgt id='1905'> +5.3757469e-01 </wgt>
<wgt id='1906'> +5.4369033e-01 </wgt>
<wgt id='1907'> +5.2753329e-01 </wgt>
<wgt id='1908'> +5.3905249e-01 </wgt>
<wgt id='1909'> +5.3819070e-01 </wgt>
<wgt id='1910'> +5.3967825e-01 </wgt>
<wgt id='1911'> +5.1854453e-01 </wgt>
<wgt id='1912'> +5.0941131e-01 </wgt>
<wgt id='1913'> +5.6366954e-01 </wgt>
<wgt id='1914'> +5.1933442e-01 </wgt>
<wgt id='1915'> +5.1942762e-01 </wgt>
<wgt id='1916'> +5.1091210e-01 </wgt>
<wgt id='1917'> +5.4754222e-01 </wgt>
<wgt id='1918'> +5.3749359e-01 </wgt>
<wgt id='1919'> +5.3112540e-01 </wgt>
<wgt id='1920'> +5.1932409e-01 </wgt>
<wgt id='1921'> +5.2562723e-01 </wgt>
<wgt id='1922'> +5.5419023e-01 </wgt>
<wgt id='1923'> +5.1975022e-01 </wgt>
<wgt id='1924'> +5.7690779e-01 </wgt>
<wgt id='1925'> +5.1436168e-01 </wgt>
<wgt id='1926'> +5.2167280e-01 </wgt>
<wgt id='1927'> +5.2510319e-01 </wgt>
<wgt id='1928'> +5.5072890e-01 </wgt>
<wgt id='1929'> +5.4932406e-01 </wgt>
<wgt id='1930'> +4.9913023e-01 </wgt>
<wgt id='1931'> +5.3299610e-01 </wgt>
<wgt id='1932'> +5.3416632e-01 </wgt>
<wgt id='1933'> +5.3577917e-01 </wgt>
<wgt id='1934'> +5.3501798e-01 </wgt>
<wgt id='1935'> +5.7602557e-01 </wgt>
<wgt id='1936'> +5.3567209e-01 </wgt>
<wgt id='1937'> +5.3165467e-01 </wgt>
<wgt id='1938'> +5.2478484e-01 </wgt>
<wgt id='1939'> +5.6224168e-01 </wgt>
<wgt id='1940'> +5.4307499e-01 </wgt>
<wgt id='1941'> +5.2571528e-01 </wgt>
<wgt id='1942'> +5.5820652e-01 </wgt>
<wgt id='1943'> +5.6676514e-01 </wgt>
<wgt id='1944'> +5.2311941e-01 </wgt>
<wgt id='1945'> +5.2467586e-01 </wgt>
<wgt id='1946'> +5.4518450e-01 </wgt>
<wgt id='1947'> +5.3313328e-01 </wgt>
<wgt id='1948'> +5.3555000e-01 </wgt>
<wgt id='1949'> +5.4465291e-01 </wgt>
<wgt id='1950'> +5.4836393e-01 </wgt>
<wgt id='1951'> +5.2470440e-01 </wgt>
<wgt id='1952'> +5.2863278e-01 </wgt>
<wgt id='1953'> +5.4031719e-01 </wgt>
<wgt id='1954'> +5.4004204e-01 </wgt>
<wgt id='1955'> +5.1846477e-01 </wgt>
<wgt id='1956'> +5.4552762e-01 </wgt>
<wgt id='1957'> +5.3381318e-01 </wgt>
<wgt id='1958'> +5.2261007e-01 </wgt>
<wgt id='1959'> +5.1893451e-01 </wgt>
<wgt id='1960'> +4.9978458e-01 </wgt>
<wgt id='1961'> +5.1770108e-01 </wgt>
<wgt id='1962'> +5.2061375e-01 </wgt>
<wgt id='1963'> +5.3812815e-01 </wgt>
<wgt id='1964'> +5.1649010e-01 </wgt>
<wgt id='1965'> +5.1325957e-01 </wgt>
<wgt id='1966'> +5.1942073e-01 </wgt>
<wgt id='1967'> +5.2981511e-01 </wgt>
<wgt id='1968'> +5.5252001e-01 </wgt>
<wgt id='1969'> +5.1960419e-01 </wgt>
<wgt id='1970'> +5.1280773e-01 </wgt>
<wgt id='1971'> +5.3000461e-01 </wgt>
<wgt id='1972'> +5.5594352e-01 </wgt>
<wgt id='1973'> +5.2065427e-01 </wgt>
<wgt id='1974'> +5.3678064e-01 </wgt>
<wgt id='1975'> +5.1919482e-01 </wgt>
<wgt id='1976'> +5.0517688e-01 </wgt>
<wgt id='1977'> +5.0651097e-01 </wgt>
<wgt id='1978'> +5.5741264e-01 </wgt>
<wgt id='1979'> +5.1813279e-01 </wgt>
<wgt id='1980'> +5.2763458e-01 </wgt>
<wgt id='1981'> +5.3658386e-01 </wgt>
<wgt id='1982'> +5.3818005e-01 </wgt>
<wgt id='1983'> +5.0520694e-01 </wgt>
<wgt id='1984'> +5.1517105e-01 </wgt>
<wgt id='1985'> +5.4718462e-01 </wgt>
<wgt id='1986'> +5.3115280e-01 </wgt>
<wgt id='1987'> +5.1631697e-01 </wgt>
<wgt id='1988'> +5.3194638e-01 </wgt>
<wgt id='1989'> +5.4940511e-01 </wgt>
<wgt id='1990'> +5.2321355e-01 </wgt>
<wgt id='1991'> +5.4300864e-01 </wgt>
<wgt id='1992'> +5.2061706e-01 </wgt>
<wgt id='1993'> +5.5645679e-01 </wgt>
<wgt id='1994'> +5.1677706e-01 </wgt>
<wgt id='1995'> +5.2679907e-01 </wgt>
<wgt id='1996'> +5.2814375e-01 </wgt>
<wgt id='1997'> +5.2443096e-01 </wgt>
<wgt id='1998'> +5.2031958e-01 </wgt>
<wgt id='1999'> +5.3688586e-01 </wgt>
<wgt id='2000'> +5.1961918e-01 </wgt>
<wgt id='2001'> +5.1716366e-01 </wgt>
<wgt id='2002'> +5.2256418e-01 </wgt>
<wgt id='2003'> +5.4346845e-01 </wgt>
<wgt id='2004'> +5.5162209e-01 </wgt>
<wgt id='2005'> +5.3032104e-01 </wgt>
<wgt id='2006'> +5.1170875e-01 </wgt>
<wgt id='2007'> +5.1558589e-01 </wgt>
<wgt id='2008'> +5.3757469e-01 </wgt>
<wgt id='2009'> +5.4369033e-01 </wgt>
<wgt id='2010'> +5.2753329e-01 </wgt>
<wgt id='2011'> +5.3905249e-01 </wgt>
<wgt id='2012'> +5.3819070e-01 </wgt>
<wgt id='2013'> +5.3967825e-01 </wgt>
<wgt id='2014'> +5.1854453e-01 </wgt>
<wgt id='2015'> +5.0941131e-01 </wgt>
<wgt id='2016'> +5.6366954e-01 </wgt>
<wgt id='2017'> +5.1933442e-01 </wgt>
<wgt id='2018'> +5.1942762e-01 </wgt>
<wgt id='2019'> +5.1091210e-01 </wgt>
<wgt id='2020'> +5.2636912e-01 </wgt>
<wgt id='2021'> +5.3005642e-01 </wgt>
<wgt id='2022'> +5.1397926e-01 </wgt>
</rwgt>
</event>
<event>
 13 2 0.0079112 7.75059600e+01 7.81860800e-03 1.15931100e-01
        1 -1    0    0  501    0 +0.0000000000e+00 +0.0000000000e+00 +1.5688486335e+03 1.5688486335e+03 5.0400000000e-03 0.0000e+00 -1.0000e+00
       21 -1    0    0  502  503 +0.0000000000e+00 +0.0000000000e+00 -8.0781954654e+02 8.0781954654e+02 0.0000000000e+00 0.0000e+00 1.0000e+00
 -8000001  2    1    2    0  503 +7.0469883894e+01 +1.5774129157e+01 +3.1281554906e+02 6.8049197412e+02 6.0000077618e+02 0.0000e+00 0.0000e+00
        2  1    1    2  501    0 -7.6799334598e+01 -1.0750535196e+01 +1.0707576512e+03 1.0735621358e+03 2.5500000000e-03 0.0000e+00 -1.0000e+00
        5  1    1    2  502    0 +6.3294507041e+00 -5.0235939618e+00 -6.2254411329e+02 6.2261407014e+02 4.6700000000e+00 0.0000e+00 -1.0000e+00
       -6  2    3    3    0  503 -1.3887543318e+02 -1.8546515436e+02 +8.7426342518e+01 3.0182688846e+02 1.7254679310e+02 0.0000e+00 0.0000e+00
       -5  1    6    6    0  503 -5.0275311304e+01 -1.4964664617e+02 +7.8901606980e+01 1.7654743873e+02 4.6700000000e+00 0.0000e+00 1.0000e+00
      -24  2    6    6    0    0 -8.8600121877e+01 -3.5818508186e+01 +8.5247355383e+00 1.2527944973e+02 8.0556329881e+01 0.0000e+00 0.0000e+00
        1  1    8    8  504    0 -9.8261220313e-01 +2.5119366373e+00 -2.4086581704e+01 2.4237136712e+01 5.0400000000e-03 0.0000e+00 -1.0000e+00
       -2  1    8    8    0  504 -8.7617509674e+01 -3.8330444824e+01 +3.2611317242e+01 1.0104231302e+02 2.5500000000e-03 0.0000e+00 1.0000e+00
       23  2    3    3    0    0 +2.0934531707e+02 +2.0123928351e+02 +2.2538920654e+02 3.7866508566e+02 9.0907874570e+01 0.0000e+00 0.0000e+00
        1  1   11   11  505    0 +1.8525554805e+02 +2.0456449914e+02 +1.8752512843e+02 3.3366439158e+02 5.0400000000e-03 0.0000e+00 -1.0000e+00
       -1  1   11   11    0  505 +2.4089769024e+01 -3.3252156231e+00 +3.7864078113e+01 4.5000694076e+01 5.0400000000e-03 0.0000e+00 1.0000e+00
<mgrwt>
<rscale>  1 0.76315145e+02</rscale>
<asrwt>0</asrwt>
<pdfrwt beam="1">  1       21 0.12427993e+00 0.75142626e+02</pdfrwt>
<pdfrwt beam="2">  1        1 0.24136133e+00 0.77505960e+02</pdfrwt>
<totfact> 0.43254413e+01</totfact>
</mgrwt>
<rwgt>
<wgt id='1001'> +5.2878984e-01 </wgt>
<wgt id='1002'> +2.6064952e-01 </wgt>
<wgt id='1003'> +2.6050131e-01 </wgt>
<wgt id='1004'> +3.2124909e-01 </wgt>
<wgt id='1005'> +1.8543670e-01 </wgt>
<wgt id='1006'> +4.7520424e-01 </wgt>
<wgt id='1007'> +2.4074859e-01 </wgt>
<wgt id='1008'> +2.4061621e-01 </wgt>
<wgt id='1009'> +2.9459831e-01 </wgt>
<wgt id='1010'> +1.7305859e-01 </wgt>
<wgt id='1011'> +5.9654107e-01 </wgt>
<wgt id='1012'> +2.8423554e-01 </wgt>
<wgt id='1013'> +2.8406751e-01 </wgt>
<wgt id='1014'> +3.5336022e-01 </wgt>
<wgt id='1015'> +1.9976594e-01 </wgt>
<wgt id='1016'> +4.5731423e-01 </wgt>
<wgt id='1017'> +2.3252698e-01 </wgt>
<wgt id='1018'> +2.3239962e-01 </wgt>
<wgt id='1019'> +2.8406751e-01 </wgt>
<wgt id='1020'> +1.6750489e-01 </wgt>
<wgt id='1021'> +4.1097170e-01 </wgt>
<wgt id='1022'> +2.1477325e-01 </wgt>
<wgt id='1023'> +2.1465963e-01 </wgt>
<wgt id='1024'> +2.6050131e-01 </wgt>
<wgt id='1025'> +1.5632375e-01 </wgt>
<wgt id='1026'> +5.1590764e-01 </wgt>
<wgt id='1027'> +2.5356822e-01 </wgt>
<wgt id='1028'> +2.5342361e-01 </wgt>
<wgt id='1029'> +3.1246208e-01 </wgt>
<wgt id='1030'> +1.8044848e-01 </wgt>
<wgt id='1031'> +6.2009431e-01 </wgt>
<wgt id='1032'> +2.9477444e-01 </wgt>
<wgt id='1033'> +2.9459831e-01 </wgt>
<wgt id='1034'> +3.6682317e-01 </wgt>
<wgt id='1035'> +2.0661140e-01 </wgt>
<wgt id='1036'> +5.5725625e-01 </wgt>
<wgt id='1037'> +2.7226803e-01 </wgt>
<wgt id='1038'> +2.7211045e-01 </wgt>
<wgt id='1039'> +3.3639157e-01 </wgt>
<wgt id='1040'> +1.9281986e-01 </wgt>
<wgt id='1041'> +6.9954393e-01 </wgt>
<wgt id='1042'> +3.2144841e-01 </wgt>
<wgt id='1043'> +3.2124909e-01 </wgt>
<wgt id='1044'> +4.0348975e-01 </wgt>
<wgt id='1045'> +2.2257687e-01 </wgt>
<wgt id='1046'> +5.2878984e-01 </wgt>
<wgt id='1047'> +5.2878984e-01 </wgt>
<wgt id='1048'> +5.2878984e-01 </wgt>
<wgt id='1049'> +5.2922025e-01 </wgt>
<wgt id='1050'> +5.2765273e-01 </wgt>
<wgt id='1051'> +5.3225687e-01 </wgt>
<wgt id='1052'> +5.2817144e-01 </wgt>
<wgt id='1053'> +5.3092574e-01 </wgt>
<wgt id='1054'> +5.2711795e-01 </wgt>
<wgt id='1055'> +5.2527571e-01 </wgt>
<wgt id='1056'> +5.2646895e-01 </wgt>
<wgt id='1057'> +5.2969645e-01 </wgt>
<wgt id='1058'> +5.2995534e-01 </wgt>
<wgt id='1059'> +5.3102913e-01 </wgt>
<wgt id='1060'> +5.2937415e-01 </wgt>
<wgt id='1061'> +5.2970199e-01 </wgt>
<wgt id='1062'> +5.2771994e-01 </wgt>
<wgt id='1063'> +5.2803969e-01 </wgt>
<wgt id='1064'> +5.2955951e-01 </wgt>
<wgt id='1065'> +5.3023778e-01 </wgt>
<wgt id='1066'> +5.2711230e-01 </wgt>
<wgt id='1067'> +5.2443685e-01 </wgt>
<wgt id='1068'> +5.3008084e-01 </wgt>
<wgt id='1069'> +5.2808655e-01 </wgt>
<wgt id='1070'> +5.2903956e-01 </wgt>
<wgt id='1071'> +5.2871806e-01 </wgt>
<wgt id='1072'> +5.2800449e-01 </wgt>
<wgt id='1073'> +5.2885314e-01 </wgt>
<wgt id='1074'> +5.3023099e-01 </wgt>
<wgt id='1075'> +5.2933479e-01 </wgt>
<wgt id='1076'> +5.3325280e-01 </wgt>
<wgt id='1077'> +5.3158719e-01 </wgt>
<wgt id='1078'> +5.2733422e-01 </wgt>
<wgt id='1079'> +5.3061289e-01 </wgt>
<wgt id='1080'> +5.2953106e-01 </wgt>
<wgt id='1081'> +5.2896084e-01 </wgt>
<wgt id='1082'> +5.2856974e-01 </wgt>
<wgt id='1083'> +5.3088667e-01 </wgt>
<wgt id='1084'> +5.2413719e-01 </wgt>
<wgt id='1085'> +5.3101796e-01 </wgt>
<wgt id='1086'> +5.2509925e-01 </wgt>
<wgt id='1087'> +5.2795956e-01 </wgt>
<wgt id='1088'> +5.2851250e-01 </wgt>
<wgt id='1089'> +5.2917509e-01 </wgt>
<wgt id='1090'> +5.2760500e-01 </wgt>
<wgt id='1091'> +5.2857837e-01 </wgt>
<wgt id='1092'> +5.2820682e-01 </wgt>
<wgt id='1093'> +5.2869134e-01 </wgt>
<wgt id='1094'> +5.2892399e-01 </wgt>
<wgt id='1095'> +5.3000816e-01 </wgt>
<wgt id='1096'> +5.2897886e-01 </wgt>
<wgt id='1097'> +5.2946062e-01 </wgt>
<wgt id='1098'> +5.2714015e-01 </wgt>
<wgt id='1099'> +5.2779087e-01 </wgt>
<wgt id='1100'> +5.2858056e-01 </wgt>
<wgt id='1101'> +5.2975056e-01 </wgt>
<wgt id='1102'> +5.2817770e-01 </wgt>
<wgt id='1103'> +5.2831440e-01 </wgt>
<wgt id='1104'> +5.2595771e-01 </wgt>
<wgt id='1105'> +5.2805672e-01 </wgt>
<wgt id='1106'> +5.3022663e-01 </wgt>
<wgt id='1107'> +5.2914128e-01 </wgt>
<wgt id='1108'> +5.2793864e-01 </wgt>
<wgt id='1109'> +5.2967489e-01 </wgt>
<wgt id='1110'> +5.3046270e-01 </wgt>
<wgt id='1111'> +5.2814575e-01 </wgt>
<wgt id='1112'> +5.2887802e-01 </wgt>
<wgt id='1113'> +5.2848415e-01 </wgt>
<wgt id='1114'> +5.2840259e-01 </wgt>
<wgt id='1115'> +5.2858355e-01 </wgt>
<wgt id='1116'> +5.2966971e-01 </wgt>
<wgt id='1117'> +5.2864043e-01 </wgt>
<wgt id='1118'> +5.2773659e-01 </wgt>
<wgt id='1119'> +5.2935814e-01 </wgt>
<wgt id='1120'> +5.2905924e-01 </wgt>
<wgt id='1121'> +5.3021470e-01 </wgt>
<wgt id='1122'> +5.3059051e-01 </wgt>
<wgt id='1123'> +5.2751600e-01 </wgt>
<wgt id='1124'> +5.2907372e-01 </wgt>
<wgt id='1125'> +5.2907433e-01 </wgt>
<wgt id='1126'> +5.2949714e-01 </wgt>
<wgt id='1127'> +5.2862206e-01 </wgt>
<wgt id='1128'> +5.2870775e-01 </wgt>
<wgt id='1129'> +5.2863103e-01 </wgt>
<wgt id='1130'> +5.2895414e-01 </wgt>
<wgt id='1131'> +5.2866724e-01 </wgt>
<wgt id='1132'> +5.2809366e-01 </wgt>
<wgt id='1133'> +5.2890429e-01 </wgt>
<wgt id='1134'> +5.2964156e-01 </wgt>
<wgt id='1135'> +5.2879968e-01 </wgt>
<wgt id='1136'> +5.2922047e-01 </wgt>
<wgt id='1137'> +5.2781755e-01 </wgt>
<wgt id='1138'> +5.2870063e-01 </wgt>
<wgt id='1139'> +5.2809555e-01 </wgt>
<wgt id='1140'> +5.2861318e-01 </wgt>
<wgt id='1141'> +5.2875667e-01 </wgt>
<wgt id='1142'> +5.2913200e-01 </wgt>
<wgt id='1143'> +5.2828822e-01 </wgt>
<wgt id='1144'> +5.2889241e-01 </wgt>
<wgt id='1145'> +5.2930036e-01 </wgt>
<wgt id='1146'> +5.2902662e-01 </wgt>
<wgt id='1147'> +5.2887640e-01 </wgt>
<wgt id='1148'> +5.2878984e-01 </wgt>
<wgt id='1149'> +4.8728171e-01 </wgt>
<wgt id='1150'> +4.9609939e-01 </wgt>
<wgt id='1151'> +4.9034723e-01 </wgt>
<wgt id='1152'> +4.9137562e-01 </wgt>
<wgt id='1153'> +4.9155130e-01 </wgt>
<wgt id='1154'> +4.9743289e-01 </wgt>
<wgt id='1155'> +4.9801931e-01 </wgt>
<wgt id='1156'> +4.7825092e-01 </wgt>
<wgt id='1157'> +4.8173798e-01 </wgt>
<wgt id='1158'> +4.9648926e-01 </wgt>
<wgt id='1159'> +4.7189011e-01 </wgt>
<wgt id='1160'> +4.6277654e-01 </wgt>
<wgt id='1161'> +5.0382044e-01 </wgt>
<wgt id='1162'> +4.5879696e-01 </wgt>
<wgt id='1163'> +4.9896254e-01 </wgt>
<wgt id='1164'> +4.7411388e-01 </wgt>
<wgt id='1165'> +4.9136683e-01 </wgt>
<wgt id='1166'> +4.8109874e-01 </wgt>
<wgt id='1167'> +4.9468745e-01 </wgt>
<wgt id='1168'> +4.9125362e-01 </wgt>
<wgt id='1169'> +4.8315738e-01 </wgt>
<wgt id='1170'> +4.8838134e-01 </wgt>
<wgt id='1171'> +4.8490472e-01 </wgt>
<wgt id='1172'> +5.0337334e-01 </wgt>
<wgt id='1173'> +4.9430679e-01 </wgt>
<wgt id='1174'> +5.0814239e-01 </wgt>
<wgt id='1175'> +4.9068606e-01 </wgt>
<wgt id='1176'> +4.7383584e-01 </wgt>
<wgt id='1177'> +4.8744464e-01 </wgt>
<wgt id='1178'> +4.7913354e-01 </wgt>
<wgt id='1179'> +4.5550197e-01 </wgt>
<wgt id='1180'> +4.7275441e-01 </wgt>
<wgt id='1181'> +4.7381422e-01 </wgt>
<wgt id='1182'> +5.0358920e-01 </wgt>
<wgt id='1183'> +4.8869262e-01 </wgt>
<wgt id='1184'> +4.7485040e-01 </wgt>
<wgt id='1185'> +4.9533949e-01 </wgt>
<wgt id='1186'> +4.8328813e-01 </wgt>
<wgt id='1187'> +4.7326351e-01 </wgt>
<wgt id='1188'> +4.4671701e-01 </wgt>
<wgt id='1189'> +4.8202681e-01 </wgt>
<wgt id='1190'> +4.7990858e-01 </wgt>
<wgt id='1191'> +5.0007015e-01 </wgt>
<wgt id='1192'> +4.9320053e-01 </wgt>
<wgt id='1193'> +4.8368268e-01 </wgt>
<wgt id='1194'> +4.8205996e-01 </wgt>
<wgt id='1195'> +4.8496661e-01 </wgt>
<wgt id='1196'> +5.0984653e-01 </wgt>
<wgt id='1197'> +4.9250647e-01 </wgt>
<wgt id='1198'> +4.7323204e-01 </wgt>
<wgt id='1199'> +4.8300443e-01 </wgt>
<wgt id='1200'> +4.7998370e-01 </wgt>
<wgt id='1201'> +5.0353244e-01 </wgt>
<wgt id='1202'> +4.9008466e-01 </wgt>
<wgt id='1203'> +4.9500054e-01 </wgt>
<wgt id='1204'> +4.8629755e-01 </wgt>
<wgt id='1205'> +4.8858772e-01 </wgt>
<wgt id='1206'> +4.9366426e-01 </wgt>
<wgt id='1207'> +5.0117054e-01 </wgt>
<wgt id='1208'> +4.7900966e-01 </wgt>
<wgt id='1209'> +5.0587769e-01 </wgt>
<wgt id='1210'> +4.8315120e-01 </wgt>
<wgt id='1211'> +5.1044727e-01 </wgt>
<wgt id='1212'> +4.8186981e-01 </wgt>
<wgt id='1213'> +4.9382861e-01 </wgt>
<wgt id='1214'> +4.9791647e-01 </wgt>
<wgt id='1215'> +4.9651496e-01 </wgt>
<wgt id='1216'> +4.9775095e-01 </wgt>
<wgt id='1217'> +4.8531190e-01 </wgt>
<wgt id='1218'> +4.9112956e-01 </wgt>
<wgt id='1219'> +4.8773313e-01 </wgt>
<wgt id='1220'> +4.7975970e-01 </wgt>
<wgt id='1221'> +4.6013891e-01 </wgt>
<wgt id='1222'> +5.0259144e-01 </wgt>
<wgt id='1223'> +4.7726878e-01 </wgt>
<wgt id='1224'> +4.8337761e-01 </wgt>
<wgt id='1225'> +4.8599719e-01 </wgt>
<wgt id='1226'> +4.8789757e-01 </wgt>
<wgt id='1227'> +4.9262215e-01 </wgt>
<wgt id='1228'> +4.9949774e-01 </wgt>
<wgt id='1229'> +4.6407193e-01 </wgt>
<wgt id='1230'> +5.0049030e-01 </wgt>
<wgt id='1231'> +4.9136683e-01 </wgt>
<wgt id='1232'> +4.6219148e-01 </wgt>
<wgt id='1233'> +4.8050497e-01 </wgt>
<wgt id='1234'> +4.8009545e-01 </wgt>
<wgt id='1235'> +5.0329673e-01 </wgt>
<wgt id='1236'> +4.8687886e-01 </wgt>
<wgt id='1237'> +4.6963567e-01 </wgt>
<wgt id='1238'> +4.6950386e-01 </wgt>
<wgt id='1239'> +4.9455217e-01 </wgt>
<wgt id='1240'> +4.8975303e-01 </wgt>
<wgt id='1241'> +4.8169325e-01 </wgt>
<wgt id='1242'> +4.8053720e-01 </wgt>
<wgt id='1243'> +5.0865572e-01 </wgt>
<wgt id='1244'> +4.8447058e-01 </wgt>
<wgt id='1245'> +4.9407781e-01 </wgt>
<wgt id='1246'> +5.0942700e-01 </wgt>
<wgt id='1247'> +4.8712405e-01 </wgt>
<wgt id='1248'> +5.0604544e-01 </wgt>
<wgt id='1249'> +4.8140890e-01 </wgt>
<wgt id='1250'> +5.2061237e-01 </wgt>
<wgt id='1251'> +5.1006236e-01 </wgt>
<wgt id='1252'> +5.2807086e-01 </wgt>
<wgt id='1253'> +5.3429930e-01 </wgt>
<wgt id='1254'> +5.6254355e-01 </wgt>
<wgt id='1255'> +5.6155967e-01 </wgt>
<wgt id='1256'> +5.6156386e-01 </wgt>
<wgt id='1257'> +5.6152096e-01 </wgt>
<wgt id='1258'> +5.6298685e-01 </wgt>
<wgt id='1259'> +5.6081360e-01 </wgt>
<wgt id='1260'> +5.5968754e-01 </wgt>
<wgt id='1261'> +5.6406289e-01 </wgt>
<wgt id='1262'> +5.6062979e-01 </wgt>
<wgt id='1263'> +5.6212374e-01 </wgt>
<wgt id='1264'> +5.7232777e-01 </wgt>
<wgt id='1265'> +5.5417435e-01 </wgt>
<wgt id='1266'> +5.6158571e-01 </wgt>
<wgt id='1267'> +5.6150601e-01 </wgt>
<wgt id='1268'> +5.6193008e-01 </wgt>
<wgt id='1269'> +5.6103670e-01 </wgt>
<wgt id='1270'> +5.5785809e-01 </wgt>
<wgt id='1271'> +5.6521440e-01 </wgt>
<wgt id='1272'> +5.5726943e-01 </wgt>
<wgt id='1273'> +5.6461595e-01 </wgt>
<wgt id='1274'> +5.6275148e-01 </wgt>
<wgt id='1275'> +5.5999393e-01 </wgt>
<wgt id='1276'> +5.6275332e-01 </wgt>
<wgt id='1277'> +5.6044598e-01 </wgt>
<wgt id='1278'> +5.5585284e-01 </wgt>
<wgt id='1279'> +5.6598888e-01 </wgt>
<wgt id='1280'> +5.6201092e-01 </wgt>
<wgt id='1281'> +5.5955774e-01 </wgt>
<wgt id='1282'> +5.6493350e-01 </wgt>
<wgt id='1283'> +5.5784319e-01 </wgt>
<wgt id='1284'> +5.6484805e-01 </wgt>
<wgt id='1285'> +5.5765251e-01 </wgt>
<wgt id='1286'> +5.5474055e-01 </wgt>
<wgt id='1287'> +5.6197575e-01 </wgt>
<wgt id='1288'> +5.6327527e-01 </wgt>
<wgt id='1289'> +5.6042570e-01 </wgt>
<wgt id='1290'> +5.6318065e-01 </wgt>
<wgt id='1291'> +5.6095274e-01 </wgt>
<wgt id='1292'> +5.6633687e-01 </wgt>
<wgt id='1293'> +5.5621339e-01 </wgt>
<wgt id='1294'> +5.5947705e-01 </wgt>
<wgt id='1295'> +5.6100017e-01 </wgt>
<wgt id='1296'> +5.4292280e-01 </wgt>
<wgt id='1297'> +5.4432798e-01 </wgt>
<wgt id='1298'> +5.4178202e-01 </wgt>
<wgt id='1299'> +5.4304772e-01 </wgt>
<wgt id='1300'> +5.4272910e-01 </wgt>
<wgt id='1301'> +5.4263081e-01 </wgt>
<wgt id='1302'> +5.4333670e-01 </wgt>
<wgt id='1303'> +5.4376353e-01 </wgt>
<wgt id='1304'> +5.4233047e-01 </wgt>
<wgt id='1305'> +5.4243525e-01 </wgt>
<wgt id='1306'> +5.4360706e-01 </wgt>
<wgt id='1307'> +5.4089232e-01 </wgt>
<wgt id='1308'> +5.4417201e-01 </wgt>
<wgt id='1309'> +5.3607143e-01 </wgt>
<wgt id='1310'> +5.5228758e-01 </wgt>
<wgt id='1311'> +5.4179207e-01 </wgt>
<wgt id='1312'> +5.4332464e-01 </wgt>
<wgt id='1313'> +5.3852071e-01 </wgt>
<wgt id='1314'> +5.4835581e-01 </wgt>
<wgt id='1315'> +5.4548607e-01 </wgt>
<wgt id='1316'> +5.4007064e-01 </wgt>
<wgt id='1317'> +5.4511716e-01 </wgt>
<wgt id='1318'> +5.3945516e-01 </wgt>
<wgt id='1319'> +5.4135834e-01 </wgt>
<wgt id='1320'> +5.4376285e-01 </wgt>
<wgt id='1321'> +5.3712175e-01 </wgt>
<wgt id='1322'> +5.4557867e-01 </wgt>
<wgt id='1323'> +5.4274953e-01 </wgt>
<wgt id='1324'> +5.3768894e-01 </wgt>
<wgt id='1325'> +5.4249167e-01 </wgt>
<wgt id='1326'> +5.4325263e-01 </wgt>
<wgt id='1327'> +5.4121080e-01 </wgt>
<wgt id='1328'> +5.4346652e-01 </wgt>
<wgt id='1329'> +5.4294689e-01 </wgt>
<wgt id='1330'> +5.4271055e-01 </wgt>
<wgt id='1331'> +5.4206932e-01 </wgt>
<wgt id='1332'> +5.4294931e-01 </wgt>
<wgt id='1333'> +5.4483994e-01 </wgt>
<wgt id='1334'> +5.4459089e-01 </wgt>
<wgt id='1335'> +5.4462981e-01 </wgt>
<wgt id='1336'> +5.4227828e-01 </wgt>
<wgt id='1337'> +5.4292280e-01 </wgt>
<wgt id='1338'> +5.4388897e-01 </wgt>
<wgt id='1339'> +5.4348437e-01 </wgt>
<wgt id='1340'> +5.4311018e-01 </wgt>
<wgt id='1341'> +5.4241191e-01 </wgt>
<wgt id='1342'> +5.4216327e-01 </wgt>
<wgt id='1343'> +5.4186641e-01 </wgt>
<wgt id='1344'> +5.3301456e-01 </wgt>
<wgt id='1345'> +5.3478549e-01 </wgt>
<wgt id='1346'> +5.3122699e-01 </wgt>
<wgt id='1347'> +5.3264472e-01 </wgt>
<wgt id='1348'> +5.3324532e-01 </wgt>
<wgt id='1349'> +5.3327607e-01 </wgt>
<wgt id='1350'> +5.3273469e-01 </wgt>
<wgt id='1351'> +5.3284352e-01 </wgt>
<wgt id='1352'> +5.3324859e-01 </wgt>
<wgt id='1353'> +5.3306321e-01 </wgt>
<wgt id='1354'> +5.3292813e-01 </wgt>
<wgt id='1355'> +5.4219859e-01 </wgt>
<wgt id='1356'> +5.2587838e-01 </wgt>
<wgt id='1357'> +5.3619207e-01 </wgt>
<wgt id='1358'> +5.3108937e-01 </wgt>
<wgt id='1359'> +5.3303512e-01 </wgt>
<wgt id='1360'> +5.3299285e-01 </wgt>
<wgt id='1361'> +5.2838512e-01 </wgt>
<wgt id='1362'> +5.3745714e-01 </wgt>
<wgt id='1363'> +5.3032907e-01 </wgt>
<wgt id='1364'> +5.3529332e-01 </wgt>
<wgt id='1365'> +5.3223871e-01 </wgt>
<wgt id='1366'> +5.3326234e-01 </wgt>
<wgt id='1367'> +5.2634649e-01 </wgt>
<wgt id='1368'> +5.3592648e-01 </wgt>
<wgt id='1369'> +5.3367542e-01 </wgt>
<wgt id='1370'> +5.3193397e-01 </wgt>
<wgt id='1371'> +5.3006043e-01 </wgt>
<wgt id='1372'> +5.3086384e-01 </wgt>
<wgt id='1373'> +5.3717931e-01 </wgt>
<wgt id='1374'> +5.3218218e-01 </wgt>
<wgt id='1375'> +5.3180282e-01 </wgt>
<wgt id='1376'> +5.3316060e-01 </wgt>
<wgt id='1377'> +5.3277223e-01 </wgt>
<wgt id='1378'> +5.3343952e-01 </wgt>
<wgt id='1379'> +5.3182526e-01 </wgt>
<wgt id='1380'> +5.3308938e-01 </wgt>
<wgt id='1381'> +5.3047054e-01 </wgt>
<wgt id='1382'> +5.3735281e-01 </wgt>
<wgt id='1383'> +5.3200155e-01 </wgt>
<wgt id='1384'> +5.3614144e-01 </wgt>
<wgt id='1385'> +5.3301456e-01 </wgt>
<wgt id='1386'> +5.3390613e-01 </wgt>
<wgt id='1387'> +5.3347279e-01 </wgt>
<wgt id='1388'> +5.3314259e-01 </wgt>
<wgt id='1389'> +5.3248282e-01 </wgt>
<wgt id='1390'> +5.3218893e-01 </wgt>
<wgt id='1391'> +5.3190958e-01 </wgt>
<wgt id='1392'> +5.8415185e-01 </wgt>
<wgt id='1393'> +5.8447809e-01 </wgt>
<wgt id='1394'> +5.8382120e-01 </wgt>
<wgt id='1395'> +5.8465035e-01 </wgt>
<wgt id='1396'> +5.8382210e-01 </wgt>
<wgt id='1397'> +5.8658514e-01 </wgt>
<wgt id='1398'> +5.8181009e-01 </wgt>
<wgt id='1399'> +5.8324986e-01 </wgt>
<wgt id='1400'> +5.8529504e-01 </wgt>
<wgt id='1401'> +5.8540150e-01 </wgt>
<wgt id='1402'> +5.8261517e-01 </wgt>
<wgt id='1403'> +5.8217272e-01 </wgt>
<wgt id='1404'> +5.8813167e-01 </wgt>
<wgt id='1405'> +5.8661897e-01 </wgt>
<wgt id='1406'> +5.8074537e-01 </wgt>
<wgt id='1407'> +5.9154380e-01 </wgt>
<wgt id='1408'> +5.7908289e-01 </wgt>
<wgt id='1409'> +5.8616411e-01 </wgt>
<wgt id='1410'> +5.8191981e-01 </wgt>
<wgt id='1411'> +5.8097841e-01 </wgt>
<wgt id='1412'> +5.8659083e-01 </wgt>
<wgt id='1413'> +5.8345994e-01 </wgt>
<wgt id='1414'> +5.8477924e-01 </wgt>
<wgt id='1415'> +5.8530525e-01 </wgt>
<wgt id='1416'> +5.8290895e-01 </wgt>
<wgt id='1417'> +5.7821794e-01 </wgt>
<wgt id='1418'> +5.9148079e-01 </wgt>
<wgt id='1419'> +5.7737736e-01 </wgt>
<wgt id='1420'> +5.8147146e-01 </wgt>
<wgt id='1421'> +5.8184089e-01 </wgt>
<wgt id='1422'> +5.8669097e-01 </wgt>
<wgt id='1423'> +5.8129687e-01 </wgt>
<wgt id='1424'> +5.8642129e-01 </wgt>
<wgt id='1425'> +5.8386026e-01 </wgt>
<wgt id='1426'> +5.8464514e-01 </wgt>
<wgt id='1427'> +5.8539458e-01 </wgt>
<wgt id='1428'> +5.8107845e-01 </wgt>
<wgt id='1429'> +5.8563586e-01 </wgt>
<wgt id='1430'> +5.8341238e-01 </wgt>
<wgt id='1431'> +5.8078526e-01 </wgt>
<wgt id='1432'> +5.8710806e-01 </wgt>
<wgt id='1433'> +5.7493054e-01 </wgt>
<wgt id='1434'> +5.9482890e-01 </wgt>
<wgt id='1435'> +5.8232316e-01 </wgt>
<wgt id='1436'> +5.8617256e-01 </wgt>
<wgt id='1437'> +5.8095864e-01 </wgt>
<wgt id='1438'> +5.9248292e-01 </wgt>
<wgt id='1439'> +5.8627006e-01 </wgt>
<wgt id='1440'> +5.8251961e-01 </wgt>
<wgt id='1441'> +5.8624909e-01 </wgt>
<wgt id='1442'> +5.8030334e-01 </wgt>
<wgt id='1443'> +5.8174525e-01 </wgt>
<wgt id='1444'> +5.8207229e-01 </wgt>
<wgt id='1445'> +5.8138214e-01 </wgt>
<wgt id='1446'> +5.8224988e-01 </wgt>
<wgt id='1447'> +5.8138026e-01 </wgt>
<wgt id='1448'> +5.8423376e-01 </wgt>
<wgt id='1449'> +5.7943375e-01 </wgt>
<wgt id='1450'> +5.8063391e-01 </wgt>
<wgt id='1451'> +5.8299396e-01 </wgt>
<wgt id='1452'> +5.8322176e-01 </wgt>
<wgt id='1453'> +5.8029031e-01 </wgt>
<wgt id='1454'> +5.8017806e-01 </wgt>
<wgt id='1455'> +5.8514188e-01 </wgt>
<wgt id='1456'> +5.8524198e-01 </wgt>
<wgt id='1457'> +5.7548923e-01 </wgt>
<wgt id='1458'> +5.8902642e-01 </wgt>
<wgt id='1459'> +5.7762430e-01 </wgt>
<wgt id='1460'> +5.8314444e-01 </wgt>
<wgt id='1461'> +5.8009124e-01 </wgt>
<wgt id='1462'> +5.7819732e-01 </wgt>
<wgt id='1463'> +5.8480372e-01 </wgt>
<wgt id='1464'> +5.8128843e-01 </wgt>
<wgt id='1465'> +5.8220502e-01 </wgt>
<wgt id='1466'> +5.8400078e-01 </wgt>
<wgt id='1467'> +5.8013504e-01 </wgt>
<wgt id='1468'> +5.8885624e-01 </wgt>
<wgt id='1469'> +5.7478994e-01 </wgt>
<wgt id='1470'> +5.7516423e-01 </wgt>
<wgt id='1471'> +5.8014893e-01 </wgt>
<wgt id='1472'> +5.7966906e-01 </wgt>
<wgt id='1473'> +5.8395135e-01 </wgt>
<wgt id='1474'> +5.7957772e-01 </wgt>
<wgt id='1475'> +5.8427535e-01 </wgt>
<wgt id='1476'> +5.8161231e-01 </wgt>
<wgt id='1477'> +5.8207261e-01 </wgt>
<wgt id='1478'> +5.8314012e-01 </wgt>
<wgt id='1479'> +5.7809740e-01 </wgt>
<wgt id='1480'> +5.8262519e-01 </wgt>
<wgt id='1481'> +5.8105322e-01 </wgt>
<wgt id='1482'> +5.7849973e-01 </wgt>
<wgt id='1483'> +5.8503435e-01 </wgt>
<wgt id='1484'> +5.7255351e-01 </wgt>
<wgt id='1485'> +5.9195991e-01 </wgt>
<wgt id='1486'> +5.8196515e-01 </wgt>
<wgt id='1487'> +5.8244489e-01 </wgt>
<wgt id='1488'> +5.7809897e-01 </wgt>
<wgt id='1489'> +5.9078853e-01 </wgt>
<wgt id='1490'> +5.8225797e-01 </wgt>
<wgt id='1491'> +5.8165942e-01 </wgt>
<wgt id='1492'> +5.8384595e-01 </wgt>
<wgt id='1493'> +5.7721804e-01 </wgt>
<wgt id='1494'> +5.5930426e-01 </wgt>
<wgt id='1495'> +5.5580481e-01 </wgt>
<wgt id='1496'> +5.5749554e-01 </wgt>
<wgt id='1497'> +5.5819973e-01 </wgt>
<wgt id='1498'> +5.6083420e-01 </wgt>
<wgt id='1499'> +5.5947942e-01 </wgt>
<wgt id='1500'> +5.6126144e-01 </wgt>
<wgt id='1501'> +5.6119743e-01 </wgt>
<wgt id='1502'> +5.6122154e-01 </wgt>
<wgt id='1503'> +5.6083974e-01 </wgt>
<wgt id='1504'> +5.6021689e-01 </wgt>
<wgt id='1505'> +5.5875845e-01 </wgt>
<wgt id='1506'> +5.5803571e-01 </wgt>
<wgt id='1507'> +5.5722409e-01 </wgt>
<wgt id='1508'> +5.5947942e-01 </wgt>
<wgt id='1509'> +5.6057730e-01 </wgt>
<wgt id='1510'> +5.5998098e-01 </wgt>
<wgt id='1511'> +5.5906645e-01 </wgt>
<wgt id='1512'> +5.5865750e-01 </wgt>
<wgt id='1513'> +5.5566279e-01 </wgt>
<wgt id='1514'> +5.5565714e-01 </wgt>
<wgt id='1515'> +5.5567427e-01 </wgt>
<wgt id='1516'> +5.5682823e-01 </wgt>
<wgt id='1517'> +5.5452046e-01 </wgt>
<wgt id='1518'> +5.5690043e-01 </wgt>
<wgt id='1519'> +5.5517226e-01 </wgt>
<wgt id='1520'> +5.5666004e-01 </wgt>
<wgt id='1521'> +5.5466633e-01 </wgt>
<wgt id='1522'> +5.5778132e-01 </wgt>
<wgt id='1523'> +5.5363136e-01 </wgt>
<wgt id='1524'> +5.5993583e-01 </wgt>
<wgt id='1525'> +5.5381132e-01 </wgt>
<wgt id='1526'> +5.5446053e-01 </wgt>
<wgt id='1527'> +5.5711892e-01 </wgt>
<wgt id='1528'> +5.6289630e-01 </wgt>
<wgt id='1529'> +5.4788312e-01 </wgt>
<wgt id='1530'> +5.5237700e-01 </wgt>
<wgt id='1531'> +5.5754023e-01 </wgt>
<wgt id='1532'> +5.5719465e-01 </wgt>
<wgt id='1533'> +5.5357758e-01 </wgt>
<wgt id='1534'> +5.5301755e-01 </wgt>
<wgt id='1535'> +5.5750382e-01 </wgt>
<wgt id='1536'> +5.5129984e-01 </wgt>
<wgt id='1537'> +5.5979908e-01 </wgt>
<wgt id='1538'> +5.5390587e-01 </wgt>
<wgt id='1539'> +5.6000184e-01 </wgt>
<wgt id='1540'> +5.5066854e-01 </wgt>
<wgt id='1541'> +5.5199060e-01 </wgt>
<wgt id='1542'> +5.5698124e-01 </wgt>
<wgt id='1543'> +5.5256417e-01 </wgt>
<wgt id='1544'> +5.5544170e-01 </wgt>
<wgt id='1545'> +5.5511912e-01 </wgt>
<wgt id='1546'> +5.5662966e-01 </wgt>
<wgt id='1547'> +5.5339711e-01 </wgt>
<wgt id='1548'> +5.5160385e-01 </wgt>
<wgt id='1549'> +5.5697365e-01 </wgt>
<wgt id='1550'> +5.5569696e-01 </wgt>
<wgt id='1551'> +5.5306183e-01 </wgt>
<wgt id='1552'> +5.5178237e-01 </wgt>
<wgt id='1553'> +5.5818514e-01 </wgt>
<wgt id='1554'> +5.6238756e-01 </wgt>
<wgt id='1555'> +5.4389911e-01 </wgt>
<wgt id='1556'> +5.5367253e-01 </wgt>
<wgt id='1557'> +5.5679653e-01 </wgt>
<wgt id='1558'> +5.5131706e-01 </wgt>
<wgt id='1559'> +5.5999882e-01 </wgt>
<wgt id='1560'> +5.6291461e-01 </wgt>
<wgt id='1561'> +5.5263191e-01 </wgt>
<wgt id='1562'> +5.5443740e-01 </wgt>
<wgt id='1563'> +5.5721753e-01 </wgt>
<wgt id='1564'> +5.5566279e-01 </wgt>
<wgt id='1565'> +5.5326389e-01 </wgt>
<wgt id='1566'> +5.5784575e-01 </wgt>
<wgt id='1567'> +5.5556897e-01 </wgt>
<wgt id='1568'> +5.5896976e-01 </wgt>
<wgt id='1569'> +5.5849766e-01 </wgt>
<wgt id='1570'> +5.5784390e-01 </wgt>
<wgt id='1571'> +5.5711099e-01 </wgt>
<wgt id='1572'> +5.5643885e-01 </wgt>
<wgt id='1573'> +5.5440308e-01 </wgt>
<wgt id='1574'> +5.5289387e-01 </wgt>
<wgt id='1575'> +5.5186740e-01 </wgt>
<wgt id='1576'> +5.5556897e-01 </wgt>
<wgt id='1577'> +5.5645737e-01 </wgt>
<wgt id='1578'> +5.5597340e-01 </wgt>
<wgt id='1579'> +5.5530645e-01 </wgt>
<wgt id='1580'> +5.5510320e-01 </wgt>
<wgt id='1581'> +5.4269759e-01 </wgt>
<wgt id='1582'> +5.4265683e-01 </wgt>
<wgt id='1583'> +5.4717625e-01 </wgt>
<wgt id='1584'> +5.4096762e-01 </wgt>
<wgt id='1585'> +5.4069894e-01 </wgt>
<wgt id='1586'> +5.4062741e-01 </wgt>
<wgt id='1587'> +5.4425256e-01 </wgt>
<wgt id='1588'> +5.3445688e-01 </wgt>
<wgt id='1589'> +5.4194447e-01 </wgt>
<wgt id='1590'> +5.3577822e-01 </wgt>
<wgt id='1591'> +5.4178406e-01 </wgt>
<wgt id='1592'> +5.3499153e-01 </wgt>
<wgt id='1593'> +5.4258460e-01 </wgt>
<wgt id='1594'> +5.3521935e-01 </wgt>
<wgt id='1595'> +5.4459800e-01 </wgt>
<wgt id='1596'> +5.4396319e-01 </wgt>
<wgt id='1597'> +5.4164218e-01 </wgt>
<wgt id='1598'> +5.4306122e-01 </wgt>
<wgt id='1599'> +5.5289163e-01 </wgt>
<wgt id='1600'> +5.4331816e-01 </wgt>
<wgt id='1601'> +5.4125862e-01 </wgt>
<wgt id='1602'> +5.4242427e-01 </wgt>
<wgt id='1603'> +5.4211481e-01 </wgt>
<wgt id='1604'> +5.4696210e-01 </wgt>
<wgt id='1605'> +5.4227829e-01 </wgt>
<wgt id='1606'> +5.4275621e-01 </wgt>
<wgt id='1607'> +5.4348031e-01 </wgt>
<wgt id='1608'> +5.3933298e-01 </wgt>
<wgt id='1609'> +5.4189225e-01 </wgt>
<wgt id='1610'> +5.4228266e-01 </wgt>
<wgt id='1611'> +5.4242058e-01 </wgt>
<wgt id='1612'> +5.2545569e-01 </wgt>
<wgt id='1613'> +5.2453152e-01 </wgt>
<wgt id='1614'> +5.2657450e-01 </wgt>
<wgt id='1615'> +5.2599908e-01 </wgt>
<wgt id='1616'> +5.2497971e-01 </wgt>
<wgt id='1617'> +5.2542425e-01 </wgt>
<wgt id='1618'> +5.2638809e-01 </wgt>
<wgt id='1619'> +5.2594777e-01 </wgt>
<wgt id='1620'> +5.2612755e-01 </wgt>
<wgt id='1621'> +5.2382820e-01 </wgt>
<wgt id='1622'> +5.2600487e-01 </wgt>
<wgt id='1623'> +5.2297142e-01 </wgt>
<wgt id='1624'> +5.2323207e-01 </wgt>
<wgt id='1625'> +5.2313982e-01 </wgt>
<wgt id='1626'> +5.2345562e-01 </wgt>
<wgt id='1627'> +5.2483418e-01 </wgt>
<wgt id='1628'> +5.2623201e-01 </wgt>
<wgt id='1629'> +5.2528478e-01 </wgt>
<wgt id='1630'> +5.2351154e-01 </wgt>
<wgt id='1631'> +5.2415170e-01 </wgt>
<wgt id='1632'> +5.2202646e-01 </wgt>
<wgt id='1633'> +5.2588320e-01 </wgt>
<wgt id='1634'> +5.2373109e-01 </wgt>
<wgt id='1635'> +5.2334768e-01 </wgt>
<wgt id='1636'> +5.2722360e-01 </wgt>
<wgt id='1637'> +5.2269831e-01 </wgt>
<wgt id='1638'> +5.2512012e-01 </wgt>
<wgt id='1639'> +5.2829995e-01 </wgt>
<wgt id='1640'> +5.2743660e-01 </wgt>
<wgt id='1641'> +5.2262425e-01 </wgt>
<wgt id='1642'> +5.2327751e-01 </wgt>
<wgt id='1643'> +5.2425273e-01 </wgt>
<wgt id='1644'> +5.2440845e-01 </wgt>
<wgt id='1645'> +5.2674624e-01 </wgt>
<wgt id='1646'> +5.2468746e-01 </wgt>
<wgt id='1647'> +5.2462036e-01 </wgt>
<wgt id='1648'> +5.2444976e-01 </wgt>
<wgt id='1649'> +5.2680387e-01 </wgt>
<wgt id='1650'> +5.2410667e-01 </wgt>
<wgt id='1651'> +5.2615135e-01 </wgt>
<wgt id='1652'> +5.2563531e-01 </wgt>
<wgt id='1653'> +5.2317846e-01 </wgt>
<wgt id='1654'> +5.2232911e-01 </wgt>
<wgt id='1655'> +5.2750881e-01 </wgt>
<wgt id='1656'> +5.2644200e-01 </wgt>
<wgt id='1657'> +5.2533693e-01 </wgt>
<wgt id='1658'> +5.2572815e-01 </wgt>
<wgt id='1659'> +5.2515479e-01 </wgt>
<wgt id='1660'> +5.2487733e-01 </wgt>
<wgt id='1661'> +5.2499957e-01 </wgt>
<wgt id='1662'> +5.2917758e-01 </wgt>
<wgt id='1663'> +5.2905277e-01 </wgt>
<wgt id='1664'> +5.2416552e-01 </wgt>
<wgt id='1665'> +5.2667335e-01 </wgt>
<wgt id='1666'> +5.2683670e-01 </wgt>
<wgt id='1667'> +5.2860492e-01 </wgt>
<wgt id='1668'> +5.2599217e-01 </wgt>
<wgt id='1669'> +5.2391859e-01 </wgt>
<wgt id='1670'> +5.2431469e-01 </wgt>
<wgt id='1671'> +5.2479112e-01 </wgt>
<wgt id='1672'> +5.2415208e-01 </wgt>
<wgt id='1673'> +5.2399574e-01 </wgt>
<wgt id='1674'> +5.2422411e-01 </wgt>
<wgt id='1675'> +5.2425329e-01 </wgt>
<wgt id='1676'> +5.2694552e-01 </wgt>
<wgt id='1677'> +5.2576773e-01 </wgt>
<wgt id='1678'> +5.2393393e-01 </wgt>
<wgt id='1679'> +5.2418604e-01 </wgt>
<wgt id='1680'> +5.2334105e-01 </wgt>
<wgt id='1681'> +5.2713929e-01 </wgt>
<wgt id='1682'> +5.2450333e-01 </wgt>
<wgt id='1683'> +5.2569485e-01 </wgt>
<wgt id='1684'> +5.2480656e-01 </wgt>
<wgt id='1685'> +5.2671517e-01 </wgt>
<wgt id='1686'> +5.2528086e-01 </wgt>
<wgt id='1687'> +5.2565531e-01 </wgt>
<wgt id='1688'> +5.2502183e-01 </wgt>
<wgt id='1689'> +5.2453493e-01 </wgt>
<wgt id='1690'> +5.2464390e-01 </wgt>
<wgt id='1691'> +5.2391876e-01 </wgt>
<wgt id='1692'> +5.2582901e-01 </wgt>
<wgt id='1693'> +5.2580151e-01 </wgt>
<wgt id='1694'> +5.2598982e-01 </wgt>
<wgt id='1695'> +5.2395899e-01 </wgt>
<wgt id='1696'> +5.2554213e-01 </wgt>
<wgt id='1697'> +5.2484660e-01 </wgt>
<wgt id='1698'> +5.2463130e-01 </wgt>
<wgt id='1699'> +5.2605857e-01 </wgt>
<wgt id='1700'> +5.2554850e-01 </wgt>
<wgt id='1701'> +5.2538017e-01 </wgt>
<wgt id='1702'> +5.2569124e-01 </wgt>
<wgt id='1703'> +5.2523881e-01 </wgt>
<wgt id='1704'> +5.2517942e-01 </wgt>
<wgt id='1705'> +5.2424840e-01 </wgt>
<wgt id='1706'> +5.2564547e-01 </wgt>
<wgt id='1707'> +5.2589669e-01 </wgt>
<wgt id='1708'> +5.2576332e-01 </wgt>
<wgt id='1709'> +5.2576598e-01 </wgt>
<wgt id='1710'> +5.2497580e-01 </wgt>
<wgt id='1711'> +5.2504362e-01 </wgt>
<wgt id='1712'> +5.2490732e-01 </wgt>
<wgt id='1713'> +5.1836145e-01 </wgt>
<wgt id='1714'> +5.3295723e-01 </wgt>
<wgt id='1715'> +4.9926929e-01 </wgt>
<wgt id='1716'> +4.9378809e-01 </wgt>
<wgt id='1717'> +5.1754125e-01 </wgt>
<wgt id='1718'> +5.0228317e-01 </wgt>
<wgt id='1719'> +4.8656020e-01 </wgt>
<wgt id='1720'> +5.2359200e-01 </wgt>
<wgt id='1721'> +4.9659243e-01 </wgt>
<wgt id='1722'> +5.1461258e-01 </wgt>
<wgt id='1723'> +5.0459381e-01 </wgt>
<wgt id='1724'> +5.1116008e-01 </wgt>
<wgt id='1725'> +4.9078942e-01 </wgt>
<wgt id='1726'> +4.9865870e-01 </wgt>
<wgt id='1727'> +4.9664580e-01 </wgt>
<wgt id='1728'> +5.0253887e-01 </wgt>
<wgt id='1729'> +4.8637890e-01 </wgt>
<wgt id='1730'> +4.6807815e-01 </wgt>
<wgt id='1731'> +4.6731600e-01 </wgt>
<wgt id='1732'> +4.7986386e-01 </wgt>
<wgt id='1733'> +5.0799064e-01 </wgt>
<wgt id='1734'> +5.4135074e-01 </wgt>
<wgt id='1735'> +4.8247471e-01 </wgt>
<wgt id='1736'> +5.1968207e-01 </wgt>
<wgt id='1737'> +4.9258161e-01 </wgt>
<wgt id='1738'> +5.1919372e-01 </wgt>
<wgt id='1739'> +5.0921202e-01 </wgt>
<wgt id='1740'> +5.0690426e-01 </wgt>
<wgt id='1741'> +4.6694038e-01 </wgt>
<wgt id='1742'> +4.9750366e-01 </wgt>
<wgt id='1743'> +4.8932298e-01 </wgt>
<wgt id='1744'> +4.9311133e-01 </wgt>
<wgt id='1745'> +5.0782407e-01 </wgt>
<wgt id='1746'> +4.7478008e-01 </wgt>
<wgt id='1747'> +5.0875270e-01 </wgt>
<wgt id='1748'> +4.8849806e-01 </wgt>
<wgt id='1749'> +4.9506501e-01 </wgt>
<wgt id='1750'> +4.9003456e-01 </wgt>
<wgt id='1751'> +5.0785611e-01 </wgt>
<wgt id='1752'> +5.0341214e-01 </wgt>
<wgt id='1753'> +5.1539812e-01 </wgt>
<wgt id='1754'> +5.0157309e-01 </wgt>
<wgt id='1755'> +4.8591275e-01 </wgt>
<wgt id='1756'> +5.1833451e-01 </wgt>
<wgt id='1757'> +4.8594391e-01 </wgt>
<wgt id='1758'> +5.1518053e-01 </wgt>
<wgt id='1759'> +5.3215181e-01 </wgt>
<wgt id='1760'> +5.1832076e-01 </wgt>
<wgt id='1761'> +5.0800335e-01 </wgt>
<wgt id='1762'> +4.9664580e-01 </wgt>
<wgt id='1763'> +4.9464439e-01 </wgt>
<wgt id='1764'> +5.2001726e-01 </wgt>
<wgt id='1765'> +4.9434376e-01 </wgt>
<wgt id='1766'> +4.9158353e-01 </wgt>
<wgt id='1767'> +5.1036396e-01 </wgt>
<wgt id='1768'> +4.4902950e-01 </wgt>
<wgt id='1769'> +4.8740185e-01 </wgt>
<wgt id='1770'> +5.0654484e-01 </wgt>
<wgt id='1771'> +4.9535661e-01 </wgt>
<wgt id='1772'> +5.2873712e-01 </wgt>
<wgt id='1773'> +4.9364932e-01 </wgt>
<wgt id='1774'> +5.0008361e-01 </wgt>
<wgt id='1775'> +5.0168810e-01 </wgt>
<wgt id='1776'> +5.0863268e-01 </wgt>
<wgt id='1777'> +5.1592236e-01 </wgt>
<wgt id='1778'> +5.0789433e-01 </wgt>
<wgt id='1779'> +4.9198811e-01 </wgt>
<wgt id='1780'> +4.9509230e-01 </wgt>
<wgt id='1781'> +4.9933228e-01 </wgt>
<wgt id='1782'> +5.0016139e-01 </wgt>
<wgt id='1783'> +4.9928487e-01 </wgt>
<wgt id='1784'> +4.8904185e-01 </wgt>
<wgt id='1785'> +4.9467998e-01 </wgt>
<wgt id='1786'> +5.2398140e-01 </wgt>
<wgt id='1787'> +4.9966300e-01 </wgt>
<wgt id='1788'> +5.0764208e-01 </wgt>
<wgt id='1789'> +4.9141787e-01 </wgt>
<wgt id='1790'> +4.7969935e-01 </wgt>
<wgt id='1791'> +4.7147634e-01 </wgt>
<wgt id='1792'> +4.9917448e-01 </wgt>
<wgt id='1793'> +5.1598968e-01 </wgt>
<wgt id='1794'> +4.9854400e-01 </wgt>
<wgt id='1795'> +4.9998775e-01 </wgt>
<wgt id='1796'> +4.7451290e-01 </wgt>
<wgt id='1797'> +4.9263622e-01 </wgt>
<wgt id='1798'> +5.0547661e-01 </wgt>
<wgt id='1799'> +4.8839998e-01 </wgt>
<wgt id='1800'> +5.0054374e-01 </wgt>
<wgt id='1801'> +4.9363644e-01 </wgt>
<wgt id='1802'> +4.9910936e-01 </wgt>
<wgt id='1803'> +4.9116885e-01 </wgt>
<wgt id='1804'> +5.0321074e-01 </wgt>
<wgt id='1805'> +5.1923885e-01 </wgt>
<wgt id='1806'> +5.1238444e-01 </wgt>
<wgt id='1807'> +5.1755043e-01 </wgt>
<wgt id='1808'> +4.8701521e-01 </wgt>
<wgt id='1809'> +4.9931046e-01 </wgt>
<wgt id='1810'> +4.9811339e-01 </wgt>
<wgt id='1811'> +5.0861535e-01 </wgt>
<wgt id='1812'> +4.8866272e-01 </wgt>
<wgt id='1813'> +5.1546196e-01 </wgt>
<wgt id='1814'> +4.5191054e-01 </wgt>
<wgt id='1815'> +4.9155715e-01 </wgt>
<wgt id='1816'> +5.3688519e-01 </wgt>
<wgt id='1817'> +5.4144695e-01 </wgt>
<wgt id='1818'> +5.4071136e-01 </wgt>
<wgt id='1819'> +5.5161214e-01 </wgt>
<wgt id='1820'> +5.2157459e-01 </wgt>
<wgt id='1821'> +5.5654416e-01 </wgt>
<wgt id='1822'> +5.2827385e-01 </wgt>
<wgt id='1823'> +5.4483752e-01 </wgt>
<wgt id='1824'> +5.5754764e-01 </wgt>
<wgt id='1825'> +5.3850033e-01 </wgt>
<wgt id='1826'> +5.6655009e-01 </wgt>
<wgt id='1827'> +5.3435094e-01 </wgt>
<wgt id='1828'> +5.2615124e-01 </wgt>
<wgt id='1829'> +5.1562142e-01 </wgt>
<wgt id='1830'> +5.4242951e-01 </wgt>
<wgt id='1831'> +5.4553211e-01 </wgt>
<wgt id='1832'> +5.5440623e-01 </wgt>
<wgt id='1833'> +5.4209095e-01 </wgt>
<wgt id='1834'> +5.2190947e-01 </wgt>
<wgt id='1835'> +5.3986286e-01 </wgt>
<wgt id='1836'> +5.2706433e-01 </wgt>
<wgt id='1837'> +5.4208941e-01 </wgt>
<wgt id='1838'> +5.4043581e-01 </wgt>
<wgt id='1839'> +5.5262217e-01 </wgt>
<wgt id='1840'> +5.3788342e-01 </wgt>
<wgt id='1841'> +5.2572090e-01 </wgt>
<wgt id='1842'> +5.2388867e-01 </wgt>
<wgt id='1843'> +5.4939151e-01 </wgt>
<wgt id='1844'> +5.1731457e-01 </wgt>
<wgt id='1845'> +5.4848041e-01 </wgt>
<wgt id='1846'> +5.3862385e-01 </wgt>
<wgt id='1847'> +5.2972706e-01 </wgt>
<wgt id='1848'> +5.4863933e-01 </wgt>
<wgt id='1849'> +5.1558939e-01 </wgt>
<wgt id='1850'> +5.2179197e-01 </wgt>
<wgt id='1851'> +5.6291552e-01 </wgt>
<wgt id='1852'> +5.4494220e-01 </wgt>
<wgt id='1853'> +5.2090897e-01 </wgt>
<wgt id='1854'> +5.6050808e-01 </wgt>
<wgt id='1855'> +5.3355635e-01 </wgt>
<wgt id='1856'> +5.2216032e-01 </wgt>
<wgt id='1857'> +5.3612216e-01 </wgt>
<wgt id='1858'> +5.2073970e-01 </wgt>
<wgt id='1859'> +5.1829987e-01 </wgt>
<wgt id='1860'> +5.3723046e-01 </wgt>
<wgt id='1861'> +5.7219009e-01 </wgt>
<wgt id='1862'> +5.1893526e-01 </wgt>
<wgt id='1863'> +5.4103572e-01 </wgt>
<wgt id='1864'> +5.4531699e-01 </wgt>
<wgt id='1865'> +5.4050431e-01 </wgt>
<wgt id='1866'> +5.3268643e-01 </wgt>
<wgt id='1867'> +5.3970352e-01 </wgt>
<wgt id='1868'> +5.6247883e-01 </wgt>
<wgt id='1869'> +5.2642879e-01 </wgt>
<wgt id='1870'> +5.2682024e-01 </wgt>
<wgt id='1871'> +5.3840738e-01 </wgt>
<wgt id='1872'> +5.2286882e-01 </wgt>
<wgt id='1873'> +5.0177272e-01 </wgt>
<wgt id='1874'> +5.2665271e-01 </wgt>
<wgt id='1875'> +5.4003571e-01 </wgt>
<wgt id='1876'> +5.5109938e-01 </wgt>
<wgt id='1877'> +5.2186672e-01 </wgt>
<wgt id='1878'> +5.3739096e-01 </wgt>
<wgt id='1879'> +5.2809550e-01 </wgt>
<wgt id='1880'> +5.2002156e-01 </wgt>
<wgt id='1881'> +5.0532693e-01 </wgt>
<wgt id='1882'> +5.2730116e-01 </wgt>
<wgt id='1883'> +5.9198081e-01 </wgt>
<wgt id='1884'> +5.2357392e-01 </wgt>
<wgt id='1885'> +5.6567141e-01 </wgt>
<wgt id='1886'> +5.1015677e-01 </wgt>
<wgt id='1887'> +5.2807952e-01 </wgt>
<wgt id='1888'> +5.3151689e-01 </wgt>
<wgt id='1889'> +5.7215440e-01 </wgt>
<wgt id='1890'> +5.3911724e-01 </wgt>
<wgt id='1891'> +5.4388821e-01 </wgt>
<wgt id='1892'> +5.3991627e-01 </wgt>
<wgt id='1893'> +5.4433921e-01 </wgt>
<wgt id='1894'> +5.4818539e-01 </wgt>
<wgt id='1895'> +5.2509095e-01 </wgt>
<wgt id='1896'> +5.3331150e-01 </wgt>
<wgt id='1897'> +5.2508900e-01 </wgt>
<wgt id='1898'> +5.6684858e-01 </wgt>
<wgt id='1899'> +5.0348850e-01 </wgt>
<wgt id='1900'> +5.4429831e-01 </wgt>
<wgt id='1901'> +5.5699860e-01 </wgt>
<wgt id='1902'> +5.6517316e-01 </wgt>
<wgt id='1903'> +5.2681971e-01 </wgt>
<wgt id='1904'> +5.3862315e-01 </wgt>
<wgt id='1905'> +5.1060288e-01 </wgt>
<wgt id='1906'> +5.4492148e-01 </wgt>
<wgt id='1907'> +5.5476682e-01 </wgt>
<wgt id='1908'> +5.3791908e-01 </wgt>
<wgt id='1909'> +5.3491743e-01 </wgt>
<wgt id='1910'> +5.4781172e-01 </wgt>
<wgt id='1911'> +5.3300176e-01 </wgt>
<wgt id='1912'> +5.3503175e-01 </wgt>
<wgt id='1913'> +5.3651938e-01 </wgt>
<wgt id='1914'> +5.2748180e-01 </wgt>
<wgt id='1915'> +5.2244278e-01 </wgt>
<wgt id='1916'> +4.9683691e-01 </wgt>
<wgt id='1917'> +5.5288525e-01 </wgt>
<wgt id='1918'> +5.5594451e-01 </wgt>
<wgt id='1919'> +5.3688519e-01 </wgt>
<wgt id='1920'> +5.4144695e-01 </wgt>
<wgt id='1921'> +5.4071136e-01 </wgt>
<wgt id='1922'> +5.5161214e-01 </wgt>
<wgt id='1923'> +5.2157459e-01 </wgt>
<wgt id='1924'> +5.5654416e-01 </wgt>
<wgt id='1925'> +5.2827385e-01 </wgt>
<wgt id='1926'> +5.4483752e-01 </wgt>
<wgt id='1927'> +5.5754764e-01 </wgt>
<wgt id='1928'> +5.3850033e-01 </wgt>
<wgt id='1929'> +5.6655009e-01 </wgt>
<wgt id='1930'> +5.3435094e-01 </wgt>
<wgt id='1931'> +5.2615124e-01 </wgt>
<wgt id='1932'> +5.1562142e-01 </wgt>
<wgt id='1933'> +5.4242951e-01 </wgt>
<wgt id='1934'> +5.4553211e-01 </wgt>
<wgt id='1935'> +5.5440623e-01 </wgt>
<wgt id='1936'> +5.4209095e-01 </wgt>
<wgt id='1937'> +5.2190947e-01 </wgt>
<wgt id='1938'> +5.3986286e-01 </wgt>
<wgt id='1939'> +5.2706433e-01 </wgt>
<wgt id='1940'> +5.4208941e-01 </wgt>
<wgt id='1941'> +5.4043581e-01 </wgt>
<wgt id='1942'> +5.5262217e-01 </wgt>
<wgt id='1943'> +5.3788342e-01 </wgt>
<wgt id='1944'> +5.2572090e-01 </wgt>
<wgt id='1945'> +5.2388867e-01 </wgt>
<wgt id='1946'> +5.4939151e-01 </wgt>
<wgt id='1947'> +5.1731457e-01 </wgt>
<wgt id='1948'> +5.4848041e-01 </wgt>
<wgt id='1949'> +5.3862385e-01 </wgt>
<wgt id='1950'> +5.2972706e-01 </wgt>
<wgt id='1951'> +5.4863933e-01 </wgt>
<wgt id='1952'> +5.1558939e-01 </wgt>
<wgt id='1953'> +5.2179197e-01 </wgt>
<wgt id='1954'> +5.6291552e-01 </wgt>
<wgt id='1955'> +5.4494220e-01 </wgt>
<wgt id='1956'> +5.2090897e-01 </wgt>
<wgt id='1957'> +5.6050808e-01 </wgt>
<wgt id='1958'> +5.3355635e-01 </wgt>
<wgt id='1959'> +5.2216032e-01 </wgt>
<wgt id='1960'> +5.3612216e-01 </wgt>
<wgt id='1961'> +5.2073970e-01 </wgt>
<wgt id='1962'> +5.1829987e-01 </wgt>
<wgt id='1963'> +5.3723046e-01 </wgt>
<wgt id='1964'> +5.7219009e-01 </wgt>
<wgt id='1965'> +5.1893526e-01 </wgt>
<wgt id='1966'> +5.4103572e-01 </wgt>
<wgt id='1967'> +5.4531699e-01 </wgt>
<wgt id='1968'> +5.4050431e-01 </wgt>
<wgt id='1969'> +5.3268643e-01 </wgt>
<wgt id='1970'> +5.3970352e-01 </wgt>
<wgt id='1971'> +5.6247883e-01 </wgt>
<wgt id='1972'> +5.2642879e-01 </wgt>
<wgt id='1973'> +5.2682024e-01 </wgt>
<wgt id='1974'> +5.3840738e-01 </wgt>
<wgt id='1975'> +5.2286882e-01 </wgt>
<wgt id='1976'> +5.0177272e-01 </wgt>
<wgt id='1977'> +5.2665271e-01 </wgt>
<wgt id='1978'> +5.4003571e-01 </wgt>
<wgt id='1979'> +5.5109938e-01 </wgt>
<wgt id='1980'> +5.2186672e-01 </wgt>
<wgt id='1981'> +5.3739096e-01 </wgt>
<wgt id='1982'> +5.2809550e-01 </wgt>
<wgt id='1983'> +5.2002156e-01 </wgt>
<wgt id='1984'> +5.0532693e-01 </wgt>
<wgt id='1985'> +5.2730116e-01 </wgt>
<wgt id='1986'> +5.9198081e-01 </wgt>
<wgt id='1987'> +5.2357392e-01 </wgt>
<wgt id='1988'> +5.6567141e-01 </wgt>
<wgt id='1989'> +5.1015677e-01 </wgt>
<wgt id='1990'> +5.2807952e-01 </wgt>
<wgt id='1991'> +5.3151689e-01 </wgt>
<wgt id='1992'> +5.7215440e-01 </wgt>
<wgt id='1993'> +5.3911724e-01 </wgt>
<wgt id='1994'> +5.4388821e-01 </wgt>
<wgt id='1995'> +5.3991627e-01 </wgt>
<wgt id='1996'> +5.4433921e-01 </wgt>
<wgt id='1997'> +5.4818539e-01 </wgt>
<wgt id='1998'> +5.2509095e-01 </wgt>
<wgt id='1999'> +5.3331150e-01 </wgt>
<wgt id='2000'> +5.2508900e-01 </wgt>
<wgt id='2001'> +5.6684858e-01 </wgt>
<wgt id='2002'> +5.0348850e-01 </wgt>
<wgt id='2003'> +5.4429831e-01 </wgt>
<wgt id='2004'> +5.5699860e-01 </wgt>
<wgt id='2005'> +5.6517316e-01 </wgt>
<wgt id='2006'> +5.2681971e-01 </wgt>
<wgt id='2007'> +5.3862315e-01 </wgt>
<wgt id='2008'> +5.1060288e-01 </wgt>
<wgt id='2009'> +5.4492148e-01 </wgt>
<wgt id='2010'> +5.5476682e-01 </wgt>
<wgt id='2011'> +5.3791908e-01 </wgt>
<wgt id='2012'> +5.3491743e-01 </wgt>
<wgt id='2013'> +5.4781172e-01 </wgt>
<wgt id='2014'> +5.3300176e-01 </wgt>
<wgt id='2015'> +5.3503175e-01 </wgt>
<wgt id='2016'> +5.3651938e-01 </wgt>
<wgt id='2017'> +5.2748180e-01 </wgt>
<wgt id='2018'> +5.2244278e-01 </wgt>
<wgt id='2019'> +4.9683691e-01 </wgt>
<wgt id='2020'> +5.3557169e-01 </wgt>
<wgt id='2021'> +5.3875950e-01 </wgt>
<wgt id='2022'> +5.2592674e-01 </wgt>
</rwgt>
</event>
<event>
 13 2 0.0079112 1.03834700e+02 7.81860800e-03 1.28126000e-01
       21 -1    0    0  502  503 +0.0000000000e+00 +0.0000000000e+00 +2.7572980161e+02 2.7572980161e+02 0.0000000000e+00 0.0000e+00 1.0000e+00
        3 -1    0    0  501    0 +0.0000000000e+00 +0.0000000000e+00 -1.6600482924e+03 1.6600482954e+03 1.0100000000e-01 0.0000e+00 -1.0000e+00
 -8000001  2    1    2    0  503 -1.7962916575e+01 -2.8276755013e+01 -8.6898568004e+02 1.0565311811e+03 5.9999981939e+02 0.0000e+00 0.0000e+00
        4  1    1    2  501    0 +5.0014658903e+00 +1.6762191641e+01 -6.9673628832e+02 6.9695699587e+02 1.2700000000e+00 0.0000e+00 -1.0000e+00
        5  1    1    2  502    0 +1.2961450685e+01 +1.1514563373e+01 +1.8140347761e+02 1.8228992008e+02 4.6700000000e+00 0.0000e+00 -1.0000e+00
       -6  2    3    3    0  503 -2.3846404898e+02 -1.3110379926e+02 -3.4706209872e+02 4.7351081084e+02 1.7235741580e+02 0.0000e+00 0.0000e+00
       -5  1    6    6    0  503 -1.4071711052e+02 -1.3083397737e+02 -2.3642510855e+02 3.0469242800e+02 4.6700000000e+00 0.0000e+00 1.0000e+00
      -24  2    6    6    0    0 -9.7746938459e+01 -2.6982188963e-01 -1.1063699017e+02 1.6881838284e+02 8.1881414310e+01 0.0000e+00 0.0000e+00
        1  1    8    8  504    0 -2.6558286877e+01 -3.8639815554e+00 -9.1012329080e+01 9.4886864345e+01 5.0400000000e-03 0.0000e+00 -1.0000e+00
       -2  1    8    8    0  504 -7.1188651582e+01 +3.5941596657e+00 -1.9624661090e+01 7.3931518496e+01 2.5500000000e-03 0.0000e+00 1.0000e+00
       23  2    3    3    0    0 +2.2050113240e+02 +1.0282704424e+02 -5.2192358132e+02 5.8302037026e+02 9.1183205581e+01 0.0000e+00 0.0000e+00
        3  1   11   11  505    0 +9.5467256978e+01 +7.1238340205e+00 -2.6413276633e+02 2.8094639100e+02 1.0100000000e-01 0.0000e+00 -1.0000e+00
       -3  1   11   11    0  505 +1.2503387542e+02 +9.5703210224e+01 -2.5779081499e+02 3.0207397926e+02 1.0100000000e-01 0.0000e+00 1.0000e+00
<mgrwt>
<rscale>  1 0.42674401e+02</rscale>
<asrwt>0</asrwt>
<pdfrwt beam="1">  1       21 0.42419969e-01 0.10383473e+03</pdfrwt>
<pdfrwt beam="2">  1        3 0.25539205e+00 0.17538491e+02</pdfrwt>
<totfact> 0.33786719e+01</totfact>
</mgrwt>
<rwgt>
<wgt id='1001'> +5.2878984e-01 </wgt>
<wgt id='1002'> +2.4808508e-01 </wgt>
<wgt id='1003'> +2.4801634e-01 </wgt>
<wgt id='1004'> +2.9201933e-01 </wgt>
<wgt id='1005'> +2.0447415e-01 </wgt>
<wgt id='1006'> +4.6988716e-01 </wgt>
<wgt id='1007'> +2.2891146e-01 </wgt>
<wgt id='1008'> +2.2885072e-01 </wgt>
<wgt id='1009'> +2.6746871e-01 </wgt>
<wgt id='1010'> +1.9009202e-01 </wgt>
<wgt id='1011'> +6.0534919e-01 </wgt>
<wgt id='1012'> +2.7086024e-01 </wgt>
<wgt id='1013'> +2.7078145e-01 </wgt>
<wgt id='1014'> +3.2168470e-01 </wgt>
<wgt id='1015'> +2.2126755e-01 </wgt>
<wgt id='1016'> +4.7708659e-01 </wgt>
<wgt id='1017'> +2.2911326e-01 </wgt>
<wgt id='1018'> +2.2905151e-01 </wgt>
<wgt id='1019'> +2.7078145e-01 </wgt>
<wgt id='1020'> +1.9058939e-01 </wgt>
<wgt id='1021'> +4.2394321e-01 </wgt>
<wgt id='1022'> +2.1140590e-01 </wgt>
<wgt id='1023'> +2.1135141e-01 </wgt>
<wgt id='1024'> +2.4801634e-01 </wgt>
<wgt id='1025'> +1.7718388e-01 </wgt>
<wgt id='1026'> +5.4616023e-01 </wgt>
<wgt id='1027'> +2.5014673e-01 </wgt>
<wgt id='1028'> +2.5007586e-01 </wgt>
<wgt id='1029'> +2.9828932e-01 </wgt>
<wgt id='1030'> +2.0624245e-01 </wgt>
<wgt id='1031'> +5.9177322e-01 </wgt>
<wgt id='1032'> +2.6754532e-01 </wgt>
<wgt id='1033'> +2.6746871e-01 </wgt>
<wgt id='1034'> +3.1726817e-01 </wgt>
<wgt id='1035'> +2.2080668e-01 </wgt>
<wgt id='1036'> +5.2585473e-01 </wgt>
<wgt id='1037'> +2.4686769e-01 </wgt>
<wgt id='1038'> +2.4679991e-01 </wgt>
<wgt id='1039'> +2.9059484e-01 </wgt>
<wgt id='1040'> +2.0527578e-01 </wgt>
<wgt id='1041'> +6.7745144e-01 </wgt>
<wgt id='1042'> +2.9210701e-01 </wgt>
<wgt id='1043'> +2.9201933e-01 </wgt>
<wgt id='1044'> +3.4949850e-01 </wgt>
<wgt id='1045'> +2.3894147e-01 </wgt>
<wgt id='1046'> +5.2878984e-01 </wgt>
<wgt id='1047'> +5.2878984e-01 </wgt>
<wgt id='1048'> +5.2878984e-01 </wgt>
<wgt id='1049'> +5.1254870e-01 </wgt>
<wgt id='1050'> +5.2988598e-01 </wgt>
<wgt id='1051'> +4.9776891e-01 </wgt>
<wgt id='1052'> +5.4060733e-01 </wgt>
<wgt id='1053'> +5.2489465e-01 </wgt>
<wgt id='1054'> +5.2388647e-01 </wgt>
<wgt id='1055'> +5.1444992e-01 </wgt>
<wgt id='1056'> +5.3936072e-01 </wgt>
<wgt id='1057'> +4.9924149e-01 </wgt>
<wgt id='1058'> +5.1083468e-01 </wgt>
<wgt id='1059'> +5.1205875e-01 </wgt>
<wgt id='1060'> +5.2442589e-01 </wgt>
<wgt id='1061'> +5.2572302e-01 </wgt>
<wgt id='1062'> +5.4911633e-01 </wgt>
<wgt id='1063'> +5.2513442e-01 </wgt>
<wgt id='1064'> +5.2606875e-01 </wgt>
<wgt id='1065'> +5.1812839e-01 </wgt>
<wgt id='1066'> +5.2850283e-01 </wgt>
<wgt id='1067'> +5.2907494e-01 </wgt>
<wgt id='1068'> +5.5628125e-01 </wgt>
<wgt id='1069'> +5.3583294e-01 </wgt>
<wgt id='1070'> +5.2913841e-01 </wgt>
<wgt id='1071'> +5.7190927e-01 </wgt>
<wgt id='1072'> +5.0473674e-01 </wgt>
<wgt id='1073'> +5.4097700e-01 </wgt>
<wgt id='1074'> +5.4380699e-01 </wgt>
<wgt id='1075'> +5.2969523e-01 </wgt>
<wgt id='1076'> +5.0805585e-01 </wgt>
<wgt id='1077'> +4.9759511e-01 </wgt>
<wgt id='1078'> +5.4928480e-01 </wgt>
<wgt id='1079'> +5.1830141e-01 </wgt>
<wgt id='1080'> +4.9707217e-01 </wgt>
<wgt id='1081'> +5.2560924e-01 </wgt>
<wgt id='1082'> +5.1187676e-01 </wgt>
<wgt id='1083'> +5.3506594e-01 </wgt>
<wgt id='1084'> +5.3682748e-01 </wgt>
<wgt id='1085'> +4.9272554e-01 </wgt>
<wgt id='1086'> +5.4733512e-01 </wgt>
<wgt id='1087'> +5.3511766e-01 </wgt>
<wgt id='1088'> +5.4190864e-01 </wgt>
<wgt id='1089'> +5.1389651e-01 </wgt>
<wgt id='1090'> +5.5280165e-01 </wgt>
<wgt id='1091'> +5.5290618e-01 </wgt>
<wgt id='1092'> +5.3856463e-01 </wgt>
<wgt id='1093'> +5.0440352e-01 </wgt>
<wgt id='1094'> +5.1068986e-01 </wgt>
<wgt id='1095'> +5.2661024e-01 </wgt>
<wgt id='1096'> +5.6107188e-01 </wgt>
<wgt id='1097'> +5.4059973e-01 </wgt>
<wgt id='1098'> +5.4773484e-01 </wgt>
<wgt id='1099'> +5.3832015e-01 </wgt>
<wgt id='1100'> +5.5107894e-01 </wgt>
<wgt id='1101'> +5.3019177e-01 </wgt>
<wgt id='1102'> +5.3145564e-01 </wgt>
<wgt id='1103'> +5.0488821e-01 </wgt>
<wgt id='1104'> +5.7737215e-01 </wgt>
<wgt id='1105'> +5.1423349e-01 </wgt>
<wgt id='1106'> +5.1795528e-01 </wgt>
<wgt id='1107'> +5.2012250e-01 </wgt>
<wgt id='1108'> +5.2939686e-01 </wgt>
<wgt id='1109'> +5.2173482e-01 </wgt>
<wgt id='1110'> +5.0779907e-01 </wgt>
<wgt id='1111'> +5.2115308e-01 </wgt>
<wgt id='1112'> +5.4264303e-01 </wgt>
<wgt id='1113'> +5.3165025e-01 </wgt>
<wgt id='1114'> +5.2287238e-01 </wgt>
<wgt id='1115'> +5.5002095e-01 </wgt>
<wgt id='1116'> +5.2377648e-01 </wgt>
<wgt id='1117'> +5.0996908e-01 </wgt>
<wgt id='1118'> +5.5078116e-01 </wgt>
<wgt id='1119'> +5.4080153e-01 </wgt>
<wgt id='1120'> +5.4276580e-01 </wgt>
<wgt id='1121'> +4.8921295e-01 </wgt>
<wgt id='1122'> +5.0862595e-01 </wgt>
<wgt id='1123'> +5.3608941e-01 </wgt>
<wgt id='1124'> +5.1444723e-01 </wgt>
<wgt id='1125'> +5.2221907e-01 </wgt>
<wgt id='1126'> +5.3899906e-01 </wgt>
<wgt id='1127'> +5.1803138e-01 </wgt>
<wgt id='1128'> +5.2890122e-01 </wgt>
<wgt id='1129'> +5.2712462e-01 </wgt>
<wgt id='1130'> +5.3565550e-01 </wgt>
<wgt id='1131'> +5.2325278e-01 </wgt>
<wgt id='1132'> +5.3795722e-01 </wgt>
<wgt id='1133'> +5.2889014e-01 </wgt>
<wgt id='1134'> +5.4687265e-01 </wgt>
<wgt id='1135'> +5.2944794e-01 </wgt>
<wgt id='1136'> +5.2752085e-01 </wgt>
<wgt id='1137'> +5.2470946e-01 </wgt>
<wgt id='1138'> +5.3885065e-01 </wgt>
<wgt id='1139'> +5.3259922e-01 </wgt>
<wgt id='1140'> +5.3579765e-01 </wgt>
<wgt id='1141'> +5.2576059e-01 </wgt>
<wgt id='1142'> +5.3478059e-01 </wgt>
<wgt id='1143'> +5.4159909e-01 </wgt>
<wgt id='1144'> +5.2491129e-01 </wgt>
<wgt id='1145'> +5.2609198e-01 </wgt>
<wgt id='1146'> +5.2479246e-01 </wgt>
<wgt id='1147'> +5.2727992e-01 </wgt>
<wgt id='1148'> +5.2878984e-01 </wgt>
<wgt id='1149'> +5.1598612e-01 </wgt>
<wgt id='1150'> +5.1210746e-01 </wgt>
<wgt id='1151'> +3.9648756e-01 </wgt>
<wgt id='1152'> +5.3392214e-01 </wgt>
<wgt id='1153'> +4.8392157e-01 </wgt>
<wgt id='1154'> +5.0704790e-01 </wgt>
<wgt id='1155'> +3.3869385e-01 </wgt>
<wgt id='1156'> +6.2533806e-01 </wgt>
<wgt id='1157'> +4.9617758e-01 </wgt>
<wgt id='1158'> +5.3960076e-01 </wgt>
<wgt id='1159'> +9.4202983e-01 </wgt>
<wgt id='1160'> +4.5894288e-01 </wgt>
<wgt id='1161'> +4.2523216e-01 </wgt>
<wgt id='1162'> +6.1875550e-01 </wgt>
<wgt id='1163'> +4.3029837e-01 </wgt>
<wgt id='1164'> +5.4455792e-01 </wgt>
<wgt id='1165'> +4.5856191e-01 </wgt>
<wgt id='1166'> +8.0455170e-01 </wgt>
<wgt id='1167'> +4.1445280e-01 </wgt>
<wgt id='1168'> +6.3404961e-01 </wgt>
<wgt id='1169'> +6.7022282e-01 </wgt>
<wgt id='1170'> +6.1471781e-01 </wgt>
<wgt id='1171'> +6.1695427e-01 </wgt>
<wgt id='1172'> +5.6590964e-01 </wgt>
<wgt id='1173'> +4.7824113e-01 </wgt>
<wgt id='1174'> +5.6480727e-01 </wgt>
<wgt id='1175'> +3.4343076e-01 </wgt>
<wgt id='1176'> +4.7960950e-01 </wgt>
<wgt id='1177'> +4.8135036e-01 </wgt>
<wgt id='1178'> +4.9043640e-01 </wgt>
<wgt id='1179'> +7.2705042e-01 </wgt>
<wgt id='1180'> +5.0927001e-01 </wgt>
<wgt id='1181'> +3.6090993e-01 </wgt>
<wgt id='1182'> +4.2399338e-01 </wgt>
<wgt id='1183'> +5.6128087e-01 </wgt>
<wgt id='1184'> +4.1340287e-01 </wgt>
<wgt id='1185'> +3.5179389e-01 </wgt>
<wgt id='1186'> +3.8410763e-01 </wgt>
<wgt id='1187'> +3.5388755e-01 </wgt>
<wgt id='1188'> +1.0528087e+00 </wgt>
<wgt id='1189'> +4.5500589e-01 </wgt>
<wgt id='1190'> +6.0286976e-01 </wgt>
<wgt id='1191'> +4.2329182e-01 </wgt>
<wgt id='1192'> +4.5767282e-01 </wgt>
<wgt id='1193'> +7.5072388e-01 </wgt>
<wgt id='1194'> +5.3736274e-01 </wgt>
<wgt id='1195'> +5.5214579e-01 </wgt>
<wgt id='1196'> +5.1233203e-01 </wgt>
<wgt id='1197'> +4.1924557e-01 </wgt>
<wgt id='1198'> +4.3391871e-01 </wgt>
<wgt id='1199'> +5.5590408e-01 </wgt>
<wgt id='1200'> +5.4063936e-01 </wgt>
<wgt id='1201'> +4.2447664e-01 </wgt>
<wgt id='1202'> +3.6539867e-01 </wgt>
<wgt id='1203'> +6.0970425e-01 </wgt>
<wgt id='1204'> +4.4419727e-01 </wgt>
<wgt id='1205'> +5.4733749e-01 </wgt>
<wgt id='1206'> +5.8234320e-01 </wgt>
<wgt id='1207'> +7.7949782e-01 </wgt>
<wgt id='1208'> +5.1204173e-01 </wgt>
<wgt id='1209'> +4.4796145e-01 </wgt>
<wgt id='1210'> +4.0350906e-01 </wgt>
<wgt id='1211'> +3.7235618e-01 </wgt>
<wgt id='1212'> +3.5174661e-01 </wgt>
<wgt id='1213'> +2.3569980e-01 </wgt>
<wgt id='1214'> +5.6269392e-01 </wgt>
<wgt id='1215'> +5.8127295e-01 </wgt>
<wgt id='1216'> +5.9046029e-01 </wgt>
<wgt id='1217'> +2.7533312e-01 </wgt>
<wgt id='1218'> +4.2722733e-01 </wgt>
<wgt id='1219'> +6.6837484e-01 </wgt>
<wgt id='1220'> +5.7187106e-01 </wgt>
<wgt id='1221'> +5.5571732e-01 </wgt>
<wgt id='1222'> +1.9944351e-01 </wgt>
<wgt id='1223'> +4.5439273e-01 </wgt>
<wgt id='1224'> +7.1194465e-01 </wgt>
<wgt id='1225'> +4.5507222e-01 </wgt>
<wgt id='1226'> +5.0497142e-01 </wgt>
<wgt id='1227'> +2.7730287e-01 </wgt>
<wgt id='1228'> +4.7405426e-01 </wgt>
<wgt id='1229'> +7.1769923e-01 </wgt>
<wgt id='1230'> +4.7696377e-01 </wgt>
<wgt id='1231'> +4.5856191e-01 </wgt>
<wgt id='1232'> +1.0458975e+00 </wgt>
<wgt id='1233'> +5.5230464e-01 </wgt>
<wgt id='1234'> +5.5337845e-01 </wgt>
<wgt id='1235'> +6.0006946e-01 </wgt>
<wgt id='1236'> +3.1912677e-01 </wgt>
<wgt id='1237'> +3.8340713e-01 </wgt>
<wgt id='1238'> +9.5404114e-01 </wgt>
<wgt id='1239'> +4.6340482e-01 </wgt>
<wgt id='1240'> +4.2278912e-01 </wgt>
<wgt id='1241'> +5.4734045e-01 </wgt>
<wgt id='1242'> +5.4493976e-01 </wgt>
<wgt id='1243'> +3.8538600e-01 </wgt>
<wgt id='1244'> +5.3677952e-01 </wgt>
<wgt id='1245'> +6.7751733e-01 </wgt>
<wgt id='1246'> +5.8688421e-01 </wgt>
<wgt id='1247'> +5.3585932e-01 </wgt>
<wgt id='1248'> +1.2381584e-01 </wgt>
<wgt id='1249'> +4.7690920e-01 </wgt>
<wgt id='1250'> +3.6146763e-01 </wgt>
<wgt id='1251'> +3.5766671e-01 </wgt>
<wgt id='1252'> +4.0748755e-01 </wgt>
<wgt id='1253'> +3.7971172e-01 </wgt>
<wgt id='1254'> +2.8984615e-01 </wgt>
<wgt id='1255'> +4.8261312e-01 </wgt>
<wgt id='1256'> +4.8114396e-01 </wgt>
<wgt id='1257'> +4.8349567e-01 </wgt>
<wgt id='1258'> +4.8384564e-01 </wgt>
<wgt id='1259'> +4.8199364e-01 </wgt>
<wgt id='1260'> +4.5929345e-01 </wgt>
<wgt id='1261'> +5.1409519e-01 </wgt>
<wgt id='1262'> +4.9524752e-01 </wgt>
<wgt id='1263'> +4.7453318e-01 </wgt>
<wgt id='1264'> +4.7520552e-01 </wgt>
<wgt id='1265'> +4.8770327e-01 </wgt>
<wgt id='1266'> +4.8058760e-01 </wgt>
<wgt id='1267'> +4.8460886e-01 </wgt>
<wgt id='1268'> +4.8471320e-01 </wgt>
<wgt id='1269'> +4.8039874e-01 </wgt>
<wgt id='1270'> +4.6589190e-01 </wgt>
<wgt id='1271'> +5.0203612e-01 </wgt>
<wgt id='1272'> +4.7417517e-01 </wgt>
<wgt id='1273'> +4.8908663e-01 </wgt>
<wgt id='1274'> +4.8922620e-01 </wgt>
<wgt id='1275'> +4.7458773e-01 </wgt>
<wgt id='1276'> +5.0374735e-01 </wgt>
<wgt id='1277'> +4.6109474e-01 </wgt>
<wgt id='1278'> +4.8449961e-01 </wgt>
<wgt id='1279'> +4.8062090e-01 </wgt>
<wgt id='1280'> +4.8409391e-01 </wgt>
<wgt id='1281'> +4.7831362e-01 </wgt>
<wgt id='1282'> +4.7532260e-01 </wgt>
<wgt id='1283'> +4.8770979e-01 </wgt>
<wgt id='1284'> +4.8430392e-01 </wgt>
<wgt id='1285'> +4.8136168e-01 </wgt>
<wgt id='1286'> +4.8514449e-01 </wgt>
<wgt id='1287'> +4.8237383e-01 </wgt>
<wgt id='1288'> +4.5747739e-01 </wgt>
<wgt id='1289'> +5.0331827e-01 </wgt>
<wgt id='1290'> +4.3351254e-01 </wgt>
<wgt id='1291'> +5.3376434e-01 </wgt>
<wgt id='1292'> +4.8797848e-01 </wgt>
<wgt id='1293'> +4.7572005e-01 </wgt>
<wgt id='1294'> +4.8344983e-01 </wgt>
<wgt id='1295'> +4.7782232e-01 </wgt>
<wgt id='1296'> +4.5209076e-01 </wgt>
<wgt id='1297'> +4.5423881e-01 </wgt>
<wgt id='1298'> +4.5039327e-01 </wgt>
<wgt id='1299'> +4.4546126e-01 </wgt>
<wgt id='1300'> +4.5956422e-01 </wgt>
<wgt id='1301'> +4.5989608e-01 </wgt>
<wgt id='1302'> +4.4059752e-01 </wgt>
<wgt id='1303'> +4.4752360e-01 </wgt>
<wgt id='1304'> +4.5519018e-01 </wgt>
<wgt id='1305'> +4.4457246e-01 </wgt>
<wgt id='1306'> +4.6284042e-01 </wgt>
<wgt id='1307'> +4.8982914e-01 </wgt>
<wgt id='1308'> +4.2877319e-01 </wgt>
<wgt id='1309'> +4.5351820e-01 </wgt>
<wgt id='1310'> +4.5020839e-01 </wgt>
<wgt id='1311'> +4.5152683e-01 </wgt>
<wgt id='1312'> +4.5233260e-01 </wgt>
<wgt id='1313'> +4.4518007e-01 </wgt>
<wgt id='1314'> +4.6096405e-01 </wgt>
<wgt id='1315'> +4.5366293e-01 </wgt>
<wgt id='1316'> +4.5064074e-01 </wgt>
<wgt id='1317'> +4.6142699e-01 </wgt>
<wgt id='1318'> +4.3830774e-01 </wgt>
<wgt id='1319'> +4.4494645e-01 </wgt>
<wgt id='1320'> +4.5685856e-01 </wgt>
<wgt id='1321'> +4.5043139e-01 </wgt>
<wgt id='1322'> +4.5298745e-01 </wgt>
<wgt id='1323'> +4.4923934e-01 </wgt>
<wgt id='1324'> +4.5555592e-01 </wgt>
<wgt id='1325'> +4.4134007e-01 </wgt>
<wgt id='1326'> +4.6875244e-01 </wgt>
<wgt id='1327'> +4.7409982e-01 </wgt>
<wgt id='1328'> +4.4389013e-01 </wgt>
<wgt id='1329'> +4.1727853e-01 </wgt>
<wgt id='1330'> +4.7640855e-01 </wgt>
<wgt id='1331'> +4.5567751e-01 </wgt>
<wgt id='1332'> +4.5010948e-01 </wgt>
<wgt id='1333'> +4.5538712e-01 </wgt>
<wgt id='1334'> +4.5220070e-01 </wgt>
<wgt id='1335'> +4.0461852e-01 </wgt>
<wgt id='1336'> +4.9978606e-01 </wgt>
<wgt id='1337'> +4.5209076e-01 </wgt>
<wgt id='1338'> +4.5180079e-01 </wgt>
<wgt id='1339'> +4.5200425e-01 </wgt>
<wgt id='1340'> +4.5209814e-01 </wgt>
<wgt id='1341'> +4.5245289e-01 </wgt>
<wgt id='1342'> +4.5246870e-01 </wgt>
<wgt id='1343'> +4.5257295e-01 </wgt>
<wgt id='1344'> +4.1480380e-01 </wgt>
<wgt id='1345'> +4.1680917e-01 </wgt>
<wgt id='1346'> +4.1282924e-01 </wgt>
<wgt id='1347'> +4.1512301e-01 </wgt>
<wgt id='1348'> +4.1459423e-01 </wgt>
<wgt id='1349'> +4.1670189e-01 </wgt>
<wgt id='1350'> +4.1323416e-01 </wgt>
<wgt id='1351'> +3.9948214e-01 </wgt>
<wgt id='1352'> +4.3715322e-01 </wgt>
<wgt id='1353'> +4.0132303e-01 </wgt>
<wgt id='1354'> +4.2432205e-01 </wgt>
<wgt id='1355'> +4.0659417e-01 </wgt>
<wgt id='1356'> +4.2120750e-01 </wgt>
<wgt id='1357'> +4.3410564e-01 </wgt>
<wgt id='1358'> +4.0313301e-01 </wgt>
<wgt id='1359'> +4.1387812e-01 </wgt>
<wgt id='1360'> +4.1723518e-01 </wgt>
<wgt id='1361'> +4.1117368e-01 </wgt>
<wgt id='1362'> +4.1935995e-01 </wgt>
<wgt id='1363'> +4.1349396e-01 </wgt>
<wgt id='1364'> +4.1655979e-01 </wgt>
<wgt id='1365'> +4.1400152e-01 </wgt>
<wgt id='1366'> +4.1515404e-01 </wgt>
<wgt id='1367'> +4.1651295e-01 </wgt>
<wgt id='1368'> +4.1398968e-01 </wgt>
<wgt id='1369'> +4.2623498e-01 </wgt>
<wgt id='1370'> +4.0467516e-01 </wgt>
<wgt id='1371'> +4.1335096e-01 </wgt>
<wgt id='1372'> +4.1735852e-01 </wgt>
<wgt id='1373'> +4.0259666e-01 </wgt>
<wgt id='1374'> +4.2356630e-01 </wgt>
<wgt id='1375'> +4.1386106e-01 </wgt>
<wgt id='1376'> +4.1521574e-01 </wgt>
<wgt id='1377'> +4.4235626e-01 </wgt>
<wgt id='1378'> +3.7540211e-01 </wgt>
<wgt id='1379'> +4.1208559e-01 </wgt>
<wgt id='1380'> +4.1767006e-01 </wgt>
<wgt id='1381'> +4.0909621e-01 </wgt>
<wgt id='1382'> +4.2011588e-01 </wgt>
<wgt id='1383'> +4.4408253e-01 </wgt>
<wgt id='1384'> +3.7255198e-01 </wgt>
<wgt id='1385'> +4.1480380e-01 </wgt>
<wgt id='1386'> +4.1203158e-01 </wgt>
<wgt id='1387'> +4.1305788e-01 </wgt>
<wgt id='1388'> +4.1374211e-01 </wgt>
<wgt id='1389'> +4.1465770e-01 </wgt>
<wgt id='1390'> +4.1515333e-01 </wgt>
<wgt id='1391'> +4.1546737e-01 </wgt>
<wgt id='1392'> +6.0085592e-01 </wgt>
<wgt id='1393'> +6.0132337e-01 </wgt>
<wgt id='1394'> +6.0037147e-01 </wgt>
<wgt id='1395'> +6.0135060e-01 </wgt>
<wgt id='1396'> +6.0051147e-01 </wgt>
<wgt id='1397'> +6.0402591e-01 </wgt>
<wgt id='1398'> +5.9783915e-01 </wgt>
<wgt id='1399'> +5.9549313e-01 </wgt>
<wgt id='1400'> +6.0755169e-01 </wgt>
<wgt id='1401'> +6.1536762e-01 </wgt>
<wgt id='1402'> +5.8299160e-01 </wgt>
<wgt id='1403'> +5.7916932e-01 </wgt>
<wgt id='1404'> +6.4420217e-01 </wgt>
<wgt id='1405'> +5.8964986e-01 </wgt>
<wgt id='1406'> +6.1642394e-01 </wgt>
<wgt id='1407'> +5.8014159e-01 </wgt>
<wgt id='1408'> +6.1519111e-01 </wgt>
<wgt id='1409'> +6.1182713e-01 </wgt>
<wgt id='1410'> +5.8858738e-01 </wgt>
<wgt id='1411'> +6.4453874e-01 </wgt>
<wgt id='1412'> +5.6758245e-01 </wgt>
<wgt id='1413'> +5.8464462e-01 </wgt>
<wgt id='1414'> +6.1796316e-01 </wgt>
<wgt id='1415'> +5.8309410e-01 </wgt>
<wgt id='1416'> +6.1834136e-01 </wgt>
<wgt id='1417'> +6.0794681e-01 </wgt>
<wgt id='1418'> +5.9239589e-01 </wgt>
<wgt id='1419'> +6.0753741e-01 </wgt>
<wgt id='1420'> +5.9558193e-01 </wgt>
<wgt id='1421'> +5.8272109e-01 </wgt>
<wgt id='1422'> +6.2240017e-01 </wgt>
<wgt id='1423'> +5.7681884e-01 </wgt>
<wgt id='1424'> +6.1984240e-01 </wgt>
<wgt id='1425'> +5.9655200e-01 </wgt>
<wgt id='1426'> +6.0660662e-01 </wgt>
<wgt id='1427'> +6.0413057e-01 </wgt>
<wgt id='1428'> +5.9397667e-01 </wgt>
<wgt id='1429'> +6.1074758e-01 </wgt>
<wgt id='1430'> +5.9306967e-01 </wgt>
<wgt id='1431'> +6.8006308e-01 </wgt>
<wgt id='1432'> +5.3629543e-01 </wgt>
<wgt id='1433'> +7.1793455e-01 </wgt>
<wgt id='1434'> +4.6159883e-01 </wgt>
<wgt id='1435'> +5.8663944e-01 </wgt>
<wgt id='1436'> +5.8732850e-01 </wgt>
<wgt id='1437'> +6.8012446e-01 </wgt>
<wgt id='1438'> +4.5842222e-01 </wgt>
<wgt id='1439'> +5.9266085e-01 </wgt>
<wgt id='1440'> +6.1687661e-01 </wgt>
<wgt id='1441'> +5.9581382e-01 </wgt>
<wgt id='1442'> +6.0351110e-01 </wgt>
<wgt id='1443'> +5.2641386e-01 </wgt>
<wgt id='1444'> +5.2686238e-01 </wgt>
<wgt id='1445'> +5.2593742e-01 </wgt>
<wgt id='1446'> +5.2689339e-01 </wgt>
<wgt id='1447'> +5.2611853e-01 </wgt>
<wgt id='1448'> +5.2926780e-01 </wgt>
<wgt id='1449'> +5.2380007e-01 </wgt>
<wgt id='1450'> +5.2118370e-01 </wgt>
<wgt id='1451'> +5.3231107e-01 </wgt>
<wgt id='1452'> +5.4407614e-01 </wgt>
<wgt id='1453'> +5.0928553e-01 </wgt>
<wgt id='1454'> +5.0698635e-01 </wgt>
<wgt id='1455'> +5.6851930e-01 </wgt>
<wgt id='1456'> +5.1365028e-01 </wgt>
<wgt id='1457'> +5.4924237e-01 </wgt>
<wgt id='1458'> +5.0885484e-01 </wgt>
<wgt id='1459'> +5.3640427e-01 </wgt>
<wgt id='1460'> +5.4751189e-01 </wgt>
<wgt id='1461'> +5.0177541e-01 </wgt>
<wgt id='1462'> +5.6328159e-01 </wgt>
<wgt id='1463'> +4.9470560e-01 </wgt>
<wgt id='1464'> +5.1396352e-01 </wgt>
<wgt id='1465'> +5.4275304e-01 </wgt>
<wgt id='1466'> +5.0377359e-01 </wgt>
<wgt id='1467'> +5.4128042e-01 </wgt>
<wgt id='1468'> +5.2641384e-01 </wgt>
<wgt id='1469'> +5.2681792e-01 </wgt>
<wgt id='1470'> +5.3154049e-01 </wgt>
<wgt id='1471'> +5.2293912e-01 </wgt>
<wgt id='1472'> +5.1355899e-01 </wgt>
<wgt id='1473'> +5.4202902e-01 </wgt>
<wgt id='1474'> +5.0815473e-01 </wgt>
<wgt id='1475'> +5.4771062e-01 </wgt>
<wgt id='1476'> +5.2414093e-01 </wgt>
<wgt id='1477'> +5.2877998e-01 </wgt>
<wgt id='1478'> +5.2888750e-01 </wgt>
<wgt id='1479'> +5.2079251e-01 </wgt>
<wgt id='1480'> +5.3388921e-01 </wgt>
<wgt id='1481'> +5.2084806e-01 </wgt>
<wgt id='1482'> +5.9861247e-01 </wgt>
<wgt id='1483'> +4.5832594e-01 </wgt>
<wgt id='1484'> +6.3467722e-01 </wgt>
<wgt id='1485'> +4.0317411e-01 </wgt>
<wgt id='1486'> +4.9421879e-01 </wgt>
<wgt id='1487'> +5.2488516e-01 </wgt>
<wgt id='1488'> +6.1034795e-01 </wgt>
<wgt id='1489'> +3.9375897e-01 </wgt>
<wgt id='1490'> +5.1936572e-01 </wgt>
<wgt id='1491'> +5.4050961e-01 </wgt>
<wgt id='1492'> +5.2590101e-01 </wgt>
<wgt id='1493'> +5.2681851e-01 </wgt>
<wgt id='1494'> +5.7820474e-01 </wgt>
<wgt id='1495'> +4.7957902e-01 </wgt>
<wgt id='1496'> +5.0701119e-01 </wgt>
<wgt id='1497'> +5.3646054e-01 </wgt>
<wgt id='1498'> +5.9172226e-01 </wgt>
<wgt id='1499'> +5.6740647e-01 </wgt>
<wgt id='1500'> +6.2720897e-01 </wgt>
<wgt id='1501'> +6.1254108e-01 </wgt>
<wgt id='1502'> +6.0112597e-01 </wgt>
<wgt id='1503'> +5.9064736e-01 </wgt>
<wgt id='1504'> +5.7813957e-01 </wgt>
<wgt id='1505'> +5.5297811e-01 </wgt>
<wgt id='1506'> +5.4155927e-01 </wgt>
<wgt id='1507'> +5.3040504e-01 </wgt>
<wgt id='1508'> +5.6740647e-01 </wgt>
<wgt id='1509'> +5.5650765e-01 </wgt>
<wgt id='1510'> +5.6204927e-01 </wgt>
<wgt id='1511'> +5.7239606e-01 </wgt>
<wgt id='1512'> +5.7287526e-01 </wgt>
<wgt id='1513'> +4.5987002e-01 </wgt>
<wgt id='1514'> +4.5983504e-01 </wgt>
<wgt id='1515'> +4.5989812e-01 </wgt>
<wgt id='1516'> +4.6147730e-01 </wgt>
<wgt id='1517'> +4.5828421e-01 </wgt>
<wgt id='1518'> +4.6116842e-01 </wgt>
<wgt id='1519'> +4.5934488e-01 </wgt>
<wgt id='1520'> +4.5603802e-01 </wgt>
<wgt id='1521'> +4.6370481e-01 </wgt>
<wgt id='1522'> +4.8380354e-01 </wgt>
<wgt id='1523'> +4.3690400e-01 </wgt>
<wgt id='1524'> +5.1091743e-01 </wgt>
<wgt id='1525'> +4.3763365e-01 </wgt>
<wgt id='1526'> +4.6204386e-01 </wgt>
<wgt id='1527'> +4.5722295e-01 </wgt>
<wgt id='1528'> +4.3742414e-01 </wgt>
<wgt id='1529'> +4.8411904e-01 </wgt>
<wgt id='1530'> +4.9837154e-01 </wgt>
<wgt id='1531'> +4.3829862e-01 </wgt>
<wgt id='1532'> +4.4652560e-01 </wgt>
<wgt id='1533'> +4.7788935e-01 </wgt>
<wgt id='1534'> +5.0591441e-01 </wgt>
<wgt id='1535'> +4.2765734e-01 </wgt>
<wgt id='1536'> +4.6659554e-01 </wgt>
<wgt id='1537'> +4.5344306e-01 </wgt>
<wgt id='1538'> +4.6598839e-01 </wgt>
<wgt id='1539'> +4.4450088e-01 </wgt>
<wgt id='1540'> +4.6365515e-01 </wgt>
<wgt id='1541'> +4.5644621e-01 </wgt>
<wgt id='1542'> +4.6983835e-01 </wgt>
<wgt id='1543'> +4.3443398e-01 </wgt>
<wgt id='1544'> +4.5610098e-01 </wgt>
<wgt id='1545'> +4.6834397e-01 </wgt>
<wgt id='1546'> +4.6689286e-01 </wgt>
<wgt id='1547'> +4.4676035e-01 </wgt>
<wgt id='1548'> +4.5500935e-01 </wgt>
<wgt id='1549'> +4.6233422e-01 </wgt>
<wgt id='1550'> +4.5764967e-01 </wgt>
<wgt id='1551'> +4.6301575e-01 </wgt>
<wgt id='1552'> +5.5265628e-01 </wgt>
<wgt id='1553'> +4.0484446e-01 </wgt>
<wgt id='1554'> +3.7208042e-01 </wgt>
<wgt id='1555'> +6.2153779e-01 </wgt>
<wgt id='1556'> +4.5697052e-01 </wgt>
<wgt id='1557'> +4.7208156e-01 </wgt>
<wgt id='1558'> +4.8451479e-01 </wgt>
<wgt id='1559'> +4.3375132e-01 </wgt>
<wgt id='1560'> +3.5483911e-01 </wgt>
<wgt id='1561'> +5.1750402e-01 </wgt>
<wgt id='1562'> +4.4741313e-01 </wgt>
<wgt id='1563'> +4.6864813e-01 </wgt>
<wgt id='1564'> +4.5987002e-01 </wgt>
<wgt id='1565'> +4.3573306e-01 </wgt>
<wgt id='1566'> +4.7551590e-01 </wgt>
<wgt id='1567'> +4.5428146e-01 </wgt>
<wgt id='1568'> +4.9456151e-01 </wgt>
<wgt id='1569'> +4.8535426e-01 </wgt>
<wgt id='1570'> +4.7657683e-01 </wgt>
<wgt id='1571'> +4.6912012e-01 </wgt>
<wgt id='1572'> +4.6198688e-01 </wgt>
<wgt id='1573'> +4.4821386e-01 </wgt>
<wgt id='1574'> +4.5181582e-01 </wgt>
<wgt id='1575'> +4.4468586e-01 </wgt>
<wgt id='1576'> +4.5428146e-01 </wgt>
<wgt id='1577'> +4.4485831e-01 </wgt>
<wgt id='1578'> +4.4961175e-01 </wgt>
<wgt id='1579'> +4.5843903e-01 </wgt>
<wgt id='1580'> +4.6218542e-01 </wgt>
<wgt id='1581'> +4.6548874e-01 </wgt>
<wgt id='1582'> +4.5294624e-01 </wgt>
<wgt id='1583'> +4.6239350e-01 </wgt>
<wgt id='1584'> +4.6009907e-01 </wgt>
<wgt id='1585'> +4.7527948e-01 </wgt>
<wgt id='1586'> +5.7969122e-01 </wgt>
<wgt id='1587'> +4.8042074e-01 </wgt>
<wgt id='1588'> +4.8188159e-01 </wgt>
<wgt id='1589'> +4.7075394e-01 </wgt>
<wgt id='1590'> +4.8183172e-01 </wgt>
<wgt id='1591'> +4.5905708e-01 </wgt>
<wgt id='1592'> +4.6083967e-01 </wgt>
<wgt id='1593'> +4.8407935e-01 </wgt>
<wgt id='1594'> +4.8034829e-01 </wgt>
<wgt id='1595'> +4.5665133e-01 </wgt>
<wgt id='1596'> +4.8617505e-01 </wgt>
<wgt id='1597'> +4.6012478e-01 </wgt>
<wgt id='1598'> +4.9098947e-01 </wgt>
<wgt id='1599'> +4.2277918e-01 </wgt>
<wgt id='1600'> +4.7251813e-01 </wgt>
<wgt id='1601'> +4.9701763e-01 </wgt>
<wgt id='1602'> +4.6868719e-01 </wgt>
<wgt id='1603'> +4.5222633e-01 </wgt>
<wgt id='1604'> +4.5398603e-01 </wgt>
<wgt id='1605'> +4.7423381e-01 </wgt>
<wgt id='1606'> +4.6073407e-01 </wgt>
<wgt id='1607'> +4.7525552e-01 </wgt>
<wgt id='1608'> +4.5534587e-01 </wgt>
<wgt id='1609'> +4.8674059e-01 </wgt>
<wgt id='1610'> +4.6764507e-01 </wgt>
<wgt id='1611'> +4.7039633e-01 </wgt>
<wgt id='1612'> +5.2882521e-01 </wgt>
<wgt id='1613'> +5.3574694e-01 </wgt>
<wgt id='1614'> +5.2706766e-01 </wgt>
<wgt id='1615'> +5.2548098e-01 </wgt>
<wgt id='1616'> +5.2018108e-01 </wgt>
<wgt id='1617'> +5.3456475e-01 </wgt>
<wgt id='1618'> +5.1718542e-01 </wgt>
<wgt id='1619'> +5.2742270e-01 </wgt>
<wgt id='1620'> +5.2630406e-01 </wgt>
<wgt id='1621'> +5.2599525e-01 </wgt>
<wgt id='1622'> +5.2347277e-01 </wgt>
<wgt id='1623'> +5.2663848e-01 </wgt>
<wgt id='1624'> +5.3117489e-01 </wgt>
<wgt id='1625'> +5.2245471e-01 </wgt>
<wgt id='1626'> +5.1852690e-01 </wgt>
<wgt id='1627'> +5.3590513e-01 </wgt>
<wgt id='1628'> +5.2756349e-01 </wgt>
<wgt id='1629'> +5.2552909e-01 </wgt>
<wgt id='1630'> +5.3287789e-01 </wgt>
<wgt id='1631'> +5.1684689e-01 </wgt>
<wgt id='1632'> +5.2574191e-01 </wgt>
<wgt id='1633'> +5.2693662e-01 </wgt>
<wgt id='1634'> +5.2011322e-01 </wgt>
<wgt id='1635'> +5.3131426e-01 </wgt>
<wgt id='1636'> +5.1758478e-01 </wgt>
<wgt id='1637'> +5.1728400e-01 </wgt>
<wgt id='1638'> +5.3782373e-01 </wgt>
<wgt id='1639'> +5.1845279e-01 </wgt>
<wgt id='1640'> +5.2214746e-01 </wgt>
<wgt id='1641'> +5.7999524e-01 </wgt>
<wgt id='1642'> +5.5564496e-01 </wgt>
<wgt id='1643'> +5.3310782e-01 </wgt>
<wgt id='1644'> +5.5981987e-01 </wgt>
<wgt id='1645'> +5.2273646e-01 </wgt>
<wgt id='1646'> +5.2619758e-01 </wgt>
<wgt id='1647'> +5.1945176e-01 </wgt>
<wgt id='1648'> +5.1641119e-01 </wgt>
<wgt id='1649'> +5.1973198e-01 </wgt>
<wgt id='1650'> +5.4381319e-01 </wgt>
<wgt id='1651'> +5.3700591e-01 </wgt>
<wgt id='1652'> +5.2903632e-01 </wgt>
<wgt id='1653'> +5.4011739e-01 </wgt>
<wgt id='1654'> +5.3761127e-01 </wgt>
<wgt id='1655'> +5.3975219e-01 </wgt>
<wgt id='1656'> +5.1073704e-01 </wgt>
<wgt id='1657'> +5.4310394e-01 </wgt>
<wgt id='1658'> +5.1755460e-01 </wgt>
<wgt id='1659'> +5.1445102e-01 </wgt>
<wgt id='1660'> +5.2573664e-01 </wgt>
<wgt id='1661'> +5.0480718e-01 </wgt>
<wgt id='1662'> +4.9820467e-01 </wgt>
<wgt id='1663'> +4.9017234e-01 </wgt>
<wgt id='1664'> +5.3101541e-01 </wgt>
<wgt id='1665'> +5.2441546e-01 </wgt>
<wgt id='1666'> +5.1717323e-01 </wgt>
<wgt id='1667'> +5.0999889e-01 </wgt>
<wgt id='1668'> +5.2382864e-01 </wgt>
<wgt id='1669'> +5.4623014e-01 </wgt>
<wgt id='1670'> +5.7604894e-01 </wgt>
<wgt id='1671'> +5.5870493e-01 </wgt>
<wgt id='1672'> +5.5860156e-01 </wgt>
<wgt id='1673'> +5.5172882e-01 </wgt>
<wgt id='1674'> +5.5784216e-01 </wgt>
<wgt id='1675'> +5.3002493e-01 </wgt>
<wgt id='1676'> +5.1830235e-01 </wgt>
<wgt id='1677'> +5.5789845e-01 </wgt>
<wgt id='1678'> +5.0259448e-01 </wgt>
<wgt id='1679'> +5.5595902e-01 </wgt>
<wgt id='1680'> +5.3630001e-01 </wgt>
<wgt id='1681'> +5.2833766e-01 </wgt>
<wgt id='1682'> +5.2115639e-01 </wgt>
<wgt id='1683'> +5.1666792e-01 </wgt>
<wgt id='1684'> +5.2549384e-01 </wgt>
<wgt id='1685'> +5.0419430e-01 </wgt>
<wgt id='1686'> +5.3690311e-01 </wgt>
<wgt id='1687'> +5.4258278e-01 </wgt>
<wgt id='1688'> +5.4012590e-01 </wgt>
<wgt id='1689'> +5.4378381e-01 </wgt>
<wgt id='1690'> +5.2556707e-01 </wgt>
<wgt id='1691'> +5.3395132e-01 </wgt>
<wgt id='1692'> +5.2494280e-01 </wgt>
<wgt id='1693'> +5.1190036e-01 </wgt>
<wgt id='1694'> +5.1792894e-01 </wgt>
<wgt id='1695'> +5.3378280e-01 </wgt>
<wgt id='1696'> +5.3570977e-01 </wgt>
<wgt id='1697'> +5.0953748e-01 </wgt>
<wgt id='1698'> +5.2660188e-01 </wgt>
<wgt id='1699'> +5.2170443e-01 </wgt>
<wgt id='1700'> +5.3641501e-01 </wgt>
<wgt id='1701'> +5.3480611e-01 </wgt>
<wgt id='1702'> +5.3634712e-01 </wgt>
<wgt id='1703'> +5.3972681e-01 </wgt>
<wgt id='1704'> +5.3637763e-01 </wgt>
<wgt id='1705'> +5.2325134e-01 </wgt>
<wgt id='1706'> +5.3958132e-01 </wgt>
<wgt id='1707'> +5.2512343e-01 </wgt>
<wgt id='1708'> +5.3242505e-01 </wgt>
<wgt id='1709'> +5.4169861e-01 </wgt>
<wgt id='1710'> +5.3043271e-01 </wgt>
<wgt id='1711'> +5.3000207e-01 </wgt>
<wgt id='1712'> +5.3330585e-01 </wgt>
<wgt id='1713'> +5.2050342e-01 </wgt>
<wgt id='1714'> +5.6719155e-01 </wgt>
<wgt id='1715'> +5.6573072e-01 </wgt>
<wgt id='1716'> +6.8717740e-01 </wgt>
<wgt id='1717'> +7.0304623e-01 </wgt>
<wgt id='1718'> +5.8643429e-01 </wgt>
<wgt id='1719'> +7.6140523e-01 </wgt>
<wgt id='1720'> +3.9580285e-01 </wgt>
<wgt id='1721'> +7.7186691e-01 </wgt>
<wgt id='1722'> +3.8921117e-01 </wgt>
<wgt id='1723'> +6.3710026e-01 </wgt>
<wgt id='1724'> +6.6190317e-01 </wgt>
<wgt id='1725'> +6.1968795e-01 </wgt>
<wgt id='1726'> +3.1559435e-01 </wgt>
<wgt id='1727'> +6.5456860e-01 </wgt>
<wgt id='1728'> +4.4437460e-01 </wgt>
<wgt id='1729'> +5.6841214e-01 </wgt>
<wgt id='1730'> +9.6495572e-01 </wgt>
<wgt id='1731'> +1.1897484e+00 </wgt>
<wgt id='1732'> +5.6630468e-01 </wgt>
<wgt id='1733'> +4.1492012e-01 </wgt>
<wgt id='1734'> +4.0144460e-01 </wgt>
<wgt id='1735'> +8.6883967e-01 </wgt>
<wgt id='1736'> +5.2604740e-01 </wgt>
<wgt id='1737'> +4.7114884e-01 </wgt>
<wgt id='1738'> +5.8396853e-01 </wgt>
<wgt id='1739'> +3.5227618e-01 </wgt>
<wgt id='1740'> +4.1509555e-01 </wgt>
<wgt id='1741'> +7.1945215e-01 </wgt>
<wgt id='1742'> +5.8827018e-01 </wgt>
<wgt id='1743'> +5.7767067e-01 </wgt>
<wgt id='1744'> +5.3268658e-01 </wgt>
<wgt id='1745'> +6.9528157e-01 </wgt>
<wgt id='1746'> +7.4695885e-01 </wgt>
<wgt id='1747'> +5.9484920e-01 </wgt>
<wgt id='1748'> +5.9934804e-01 </wgt>
<wgt id='1749'> +4.7243222e-01 </wgt>
<wgt id='1750'> +5.6810078e-01 </wgt>
<wgt id='1751'> +4.7663872e-01 </wgt>
<wgt id='1752'> +5.1339150e-01 </wgt>
<wgt id='1753'> +4.5681090e-01 </wgt>
<wgt id='1754'> +4.7654837e-01 </wgt>
<wgt id='1755'> +4.0296765e-01 </wgt>
<wgt id='1756'> +6.2766275e-01 </wgt>
<wgt id='1757'> +5.1599056e-01 </wgt>
<wgt id='1758'> +3.0788075e-01 </wgt>
<wgt id='1759'> +6.7770206e-01 </wgt>
<wgt id='1760'> +4.0405029e-01 </wgt>
<wgt id='1761'> +4.4310062e-01 </wgt>
<wgt id='1762'> +6.5456860e-01 </wgt>
<wgt id='1763'> +7.5728444e-01 </wgt>
<wgt id='1764'> +4.5330168e-01 </wgt>
<wgt id='1765'> +5.5983706e-01 </wgt>
<wgt id='1766'> +5.1920942e-01 </wgt>
<wgt id='1767'> +3.9475810e-01 </wgt>
<wgt id='1768'> +1.1227367e+00 </wgt>
<wgt id='1769'> +4.7836911e-01 </wgt>
<wgt id='1770'> +3.7420811e-01 </wgt>
<wgt id='1771'> +5.3479570e-01 </wgt>
<wgt id='1772'> +5.4470301e-01 </wgt>
<wgt id='1773'> +4.1506186e-01 </wgt>
<wgt id='1774'> +6.8451975e-01 </wgt>
<wgt id='1775'> +7.4345322e-01 </wgt>
<wgt id='1776'> +6.6565237e-01 </wgt>
<wgt id='1777'> +6.0585353e-01 </wgt>
<wgt id='1778'> +3.3453603e-01 </wgt>
<wgt id='1779'> +6.0229500e-01 </wgt>
<wgt id='1780'> +7.6574157e-01 </wgt>
<wgt id='1781'> +6.3248850e-01 </wgt>
<wgt id='1782'> +6.1948807e-01 </wgt>
<wgt id='1783'> +3.5695683e-01 </wgt>
<wgt id='1784'> +4.5320688e-01 </wgt>
<wgt id='1785'> +4.7794484e-01 </wgt>
<wgt id='1786'> +5.2136129e-01 </wgt>
<wgt id='1787'> +4.0871704e-01 </wgt>
<wgt id='1788'> +4.5601066e-01 </wgt>
<wgt id='1789'> +4.9390831e-01 </wgt>
<wgt id='1790'> +4.4672093e-01 </wgt>
<wgt id='1791'> +1.1551403e+00 </wgt>
<wgt id='1792'> +5.8076422e-01 </wgt>
<wgt id='1793'> +5.1706930e-01 </wgt>
<wgt id='1794'> +7.4767099e-01 </wgt>
<wgt id='1795'> +4.8522202e-01 </wgt>
<wgt id='1796'> +2.4644818e-01 </wgt>
<wgt id='1797'> +4.4600070e-01 </wgt>
<wgt id='1798'> +6.9084388e-01 </wgt>
<wgt id='1799'> +6.5203919e-01 </wgt>
<wgt id='1800'> +6.4940186e-01 </wgt>
<wgt id='1801'> +8.0000875e-01 </wgt>
<wgt id='1802'> +4.0686114e-01 </wgt>
<wgt id='1803'> +6.3101930e-01 </wgt>
<wgt id='1804'> +5.0186714e-01 </wgt>
<wgt id='1805'> +5.6108831e-01 </wgt>
<wgt id='1806'> +4.7162521e-01 </wgt>
<wgt id='1807'> +4.9347318e-01 </wgt>
<wgt id='1808'> +6.6674585e-01 </wgt>
<wgt id='1809'> +5.7771479e-01 </wgt>
<wgt id='1810'> +4.3288149e-01 </wgt>
<wgt id='1811'> +3.9880196e-01 </wgt>
<wgt id='1812'> +5.5033926e-01 </wgt>
<wgt id='1813'> +3.8568293e-01 </wgt>
<wgt id='1814'> +6.8980413e-01 </wgt>
<wgt id='1815'> +4.1261708e-01 </wgt>
<wgt id='1816'> +4.9308010e-01 </wgt>
<wgt id='1817'> +4.6427600e-01 </wgt>
<wgt id='1818'> +3.4945125e-01 </wgt>
<wgt id='1819'> +4.2097499e-01 </wgt>
<wgt id='1820'> +5.0809497e-01 </wgt>
<wgt id='1821'> +5.1733660e-01 </wgt>
<wgt id='1822'> +3.2496512e-01 </wgt>
<wgt id='1823'> +2.8106079e-01 </wgt>
<wgt id='1824'> +3.9940779e-01 </wgt>
<wgt id='1825'> +5.0842735e-01 </wgt>
<wgt id='1826'> +5.3155550e-01 </wgt>
<wgt id='1827'> +4.8797897e-01 </wgt>
<wgt id='1828'> +5.4337751e-01 </wgt>
<wgt id='1829'> +5.0525192e-01 </wgt>
<wgt id='1830'> +3.3356166e-01 </wgt>
<wgt id='1831'> +5.3223140e-01 </wgt>
<wgt id='1832'> +4.8668915e-01 </wgt>
<wgt id='1833'> +3.1081538e-01 </wgt>
<wgt id='1834'> +8.9025505e-01 </wgt>
<wgt id='1835'> +4.3296426e-01 </wgt>
<wgt id='1836'> +5.5977167e-01 </wgt>
<wgt id='1837'> +3.2951208e-01 </wgt>
<wgt id='1838'> +5.0544180e-01 </wgt>
<wgt id='1839'> +3.8777154e-01 </wgt>
<wgt id='1840'> +7.1117960e-01 </wgt>
<wgt id='1841'> +5.9768858e-01 </wgt>
<wgt id='1842'> +3.7974231e-01 </wgt>
<wgt id='1843'> +4.3970141e-01 </wgt>
<wgt id='1844'> +3.7635589e-01 </wgt>
<wgt id='1845'> +3.8535505e-01 </wgt>
<wgt id='1846'> +3.5425943e-01 </wgt>
<wgt id='1847'> +5.3530927e-01 </wgt>
<wgt id='1848'> +3.7405209e-01 </wgt>
<wgt id='1849'> +5.9407108e-01 </wgt>
<wgt id='1850'> +6.6088543e-01 </wgt>
<wgt id='1851'> +3.6225595e-01 </wgt>
<wgt id='1852'> +3.8132967e-01 </wgt>
<wgt id='1853'> +3.4587551e-01 </wgt>
<wgt id='1854'> +3.7849535e-01 </wgt>
<wgt id='1855'> +5.5988486e-01 </wgt>
<wgt id='1856'> +4.9022857e-01 </wgt>
<wgt id='1857'> +3.5276612e-01 </wgt>
<wgt id='1858'> +5.0754434e-01 </wgt>
<wgt id='1859'> +6.8652444e-01 </wgt>
<wgt id='1860'> +5.9560844e-01 </wgt>
<wgt id='1861'> +3.0306054e-01 </wgt>
<wgt id='1862'> +1.0517893e+00 </wgt>
<wgt id='1863'> +5.9012576e-01 </wgt>
<wgt id='1864'> +4.2717536e-01 </wgt>
<wgt id='1865'> +1.6482430e-01 </wgt>
<wgt id='1866'> +3.6236773e-01 </wgt>
<wgt id='1867'> +2.8852982e-01 </wgt>
<wgt id='1868'> +3.4604083e-01 </wgt>
<wgt id='1869'> +3.8015490e-01 </wgt>
<wgt id='1870'> +7.3584079e-01 </wgt>
<wgt id='1871'> +4.3882685e-01 </wgt>
<wgt id='1872'> +7.4079355e-01 </wgt>
<wgt id='1873'> +7.0052067e-01 </wgt>
<wgt id='1874'> +4.1965233e-01 </wgt>
<wgt id='1875'> +5.1812993e-01 </wgt>
<wgt id='1876'> +4.4183581e-01 </wgt>
<wgt id='1877'> +5.3344815e-01 </wgt>
<wgt id='1878'> +5.9505973e-01 </wgt>
<wgt id='1879'> +4.1052973e-01 </wgt>
<wgt id='1880'> +1.0818658e+00 </wgt>
<wgt id='1881'> +5.9324360e-01 </wgt>
<wgt id='1882'> +5.8462722e-01 </wgt>
<wgt id='1883'> +5.8888693e-01 </wgt>
<wgt id='1884'> +4.8177372e-01 </wgt>
<wgt id='1885'> +5.2680726e-01 </wgt>
<wgt id='1886'> +4.8570928e-01 </wgt>
<wgt id='1887'> +5.3005268e-01 </wgt>
<wgt id='1888'> +3.2912277e-01 </wgt>
<wgt id='1889'> +4.7215846e-01 </wgt>
<wgt id='1890'> +3.8121592e-01 </wgt>
<wgt id='1891'> +4.6173728e-01 </wgt>
<wgt id='1892'> +2.9548024e-01 </wgt>
<wgt id='1893'> +4.1648189e-01 </wgt>
<wgt id='1894'> +4.7023272e-01 </wgt>
<wgt id='1895'> +4.2541859e-01 </wgt>
<wgt id='1896'> +6.5561153e-01 </wgt>
<wgt id='1897'> +4.8859362e-01 </wgt>
<wgt id='1898'> +3.1203846e-01 </wgt>
<wgt id='1899'> +5.7923035e-01 </wgt>
<wgt id='1900'> +4.3946454e-01 </wgt>
<wgt id='1901'> +4.7578154e-01 </wgt>
<wgt id='1902'> +5.3948547e-01 </wgt>
<wgt id='1903'> +6.6275562e-01 </wgt>
<wgt id='1904'> +2.8687885e-01 </wgt>
<wgt id='1905'> +9.0871257e-01 </wgt>
<wgt id='1906'> +4.5911121e-01 </wgt>
<wgt id='1907'> +4.0964734e-01 </wgt>
<wgt id='1908'> +4.4037883e-01 </wgt>
<wgt id='1909'> +5.6670766e-01 </wgt>
<wgt id='1910'> +5.4872328e-01 </wgt>
<wgt id='1911'> +6.0191213e-01 </wgt>
<wgt id='1912'> +3.9703366e-01 </wgt>
<wgt id='1913'> +5.6663024e-01 </wgt>
<wgt id='1914'> +3.2787063e-01 </wgt>
<wgt id='1915'> +4.5018231e-01 </wgt>
<wgt id='1916'> +9.6266706e-01 </wgt>
<wgt id='1917'> +5.0980808e-01 </wgt>
<wgt id='1918'> +5.3296146e-01 </wgt>
<wgt id='1919'> +4.9308010e-01 </wgt>
<wgt id='1920'> +4.6427600e-01 </wgt>
<wgt id='1921'> +3.4945125e-01 </wgt>
<wgt id='1922'> +4.2097499e-01 </wgt>
<wgt id='1923'> +5.0809497e-01 </wgt>
<wgt id='1924'> +5.1733660e-01 </wgt>
<wgt id='1925'> +3.2496512e-01 </wgt>
<wgt id='1926'> +2.8106079e-01 </wgt>
<wgt id='1927'> +3.9940779e-01 </wgt>
<wgt id='1928'> +5.0842735e-01 </wgt>
<wgt id='1929'> +5.3155550e-01 </wgt>
<wgt id='1930'> +4.8797897e-01 </wgt>
<wgt id='1931'> +5.4337751e-01 </wgt>
<wgt id='1932'> +5.0525192e-01 </wgt>
<wgt id='1933'> +3.3356166e-01 </wgt>
<wgt id='1934'> +5.3223140e-01 </wgt>
<wgt id='1935'> +4.8668915e-01 </wgt>
<wgt id='1936'> +3.1081538e-01 </wgt>
<wgt id='1937'> +8.9025505e-01 </wgt>
<wgt id='1938'> +4.3296426e-01 </wgt>
<wgt id='1939'> +5.5977167e-01 </wgt>
<wgt id='1940'> +3.2951208e-01 </wgt>
<wgt id='1941'> +5.0544180e-01 </wgt>
<wgt id='1942'> +3.8777154e-01 </wgt>
<wgt id='1943'> +7.1117960e-01 </wgt>
<wgt id='1944'> +5.9768858e-01 </wgt>
<wgt id='1945'> +3.7974231e-01 </wgt>
<wgt id='1946'> +4.3970141e-01 </wgt>
<wgt id='1947'> +3.7635589e-01 </wgt>
<wgt id='1948'> +3.8535505e-01 </wgt>
<wgt id='1949'> +3.5425943e-01 </wgt>
<wgt id='1950'> +5.3530927e-01 </wgt>
<wgt id='1951'> +3.7405209e-01 </wgt>
<wgt id='1952'> +5.9407108e-01 </wgt>
<wgt id='1953'> +6.6088543e-01 </wgt>
<wgt id='1954'> +3.6225595e-01 </wgt>
<wgt id='1955'> +3.8132967e-01 </wgt>
<wgt id='1956'> +3.4587551e-01 </wgt>
<wgt id='1957'> +3.7849535e-01 </wgt>
<wgt id='1958'> +5.5988486e-01 </wgt>
<wgt id='1959'> +4.9022857e-01 </wgt>
<wgt id='1960'> +3.5276612e-01 </wgt>
<wgt id='1961'> +5.0754434e-01 </wgt>
<wgt id='1962'> +6.8652444e-01 </wgt>
<wgt id='1963'> +5.9560844e-01 </wgt>
<wgt id='1964'> +3.0306054e-01 </wgt>
<wgt id='1965'> +1.0517893e+00 </wgt>
<wgt id='1966'> +5.9012576e-01 </wgt>
<wgt id='1967'> +4.2717536e-01 </wgt>
<wgt id='1968'> +1.6482430e-01 </wgt>
<wgt id='1969'> +3.6236773e-01 </wgt>
<wgt id='1970'> +2.8852982e-01 </wgt>
<wgt id='1971'> +3.4604083e-01 </wgt>
<wgt id='1972'> +3.8015490e-01 </wgt>
<wgt id='1973'> +7.3584079e-01 </wgt>
<wgt id='1974'> +4.3882685e-01 </wgt>
<wgt id='1975'> +7.4079355e-01 </wgt>
<wgt id='1976'> +7.0052067e-01 </wgt>
<wgt id='1977'> +4.1965233e-01 </wgt>
<wgt id='1978'> +5.1812993e-01 </wgt>
<wgt id='1979'> +4.4183581e-01 </wgt>
<wgt id='1980'> +5.3344815e-01 </wgt>
<wgt id='1981'> +5.9505973e-01 </wgt>
<wgt id='1982'> +4.1052973e-01 </wgt>
<wgt id='1983'> +1.0818658e+00 </wgt>
<wgt id='1984'> +5.9324360e-01 </wgt>
<wgt id='1985'> +5.8462722e-01 </wgt>
<wgt id='1986'> +5.8888693e-01 </wgt>
<wgt id='1987'> +4.8177372e-01 </wgt>
<wgt id='1988'> +5.2680726e-01 </wgt>
<wgt id='1989'> +4.8570928e-01 </wgt>
<wgt id='1990'> +5.3005268e-01 </wgt>
<wgt id='1991'> +3.2912277e-01 </wgt>
<wgt id='1992'> +4.7215846e-01 </wgt>
<wgt id='1993'> +3.8121592e-01 </wgt>
<wgt id='1994'> +4.6173728e-01 </wgt>
<wgt id='1995'> +2.9548024e-01 </wgt>
<wgt id='1996'> +4.1648189e-01 </wgt>
<wgt id='1997'> +4.7023272e-01 </wgt>
<wgt id='1998'> +4.2541859e-01 </wgt>
<wgt id='1999'> +6.5561153e-01 </wgt>
<wgt id='2000'> +4.8859362e-01 </wgt>
<wgt id='2001'> +3.1203846e-01 </wgt>
<wgt id='2002'> +5.7923035e-01 </wgt>
<wgt id='2003'> +4.3946454e-01 </wgt>
<wgt id='2004'> +4.7578154e-01 </wgt>
<wgt id='2005'> +5.3948547e-01 </wgt>
<wgt id='2006'> +6.6275562e-01 </wgt>
<wgt id='2007'> +2.8687885e-01 </wgt>
<wgt id='2008'> +9.0871257e-01 </wgt>
<wgt id='2009'> +4.5911121e-01 </wgt>
<wgt id='2010'> +4.0964734e-01 </wgt>
<wgt id='2011'> +4.4037883e-01 </wgt>
<wgt id='2012'> +5.6670766e-01 </wgt>
<wgt id='2013'> +5.4872328e-01 </wgt>
<wgt id='2014'> +6.0191213e-01 </wgt>
<wgt id='2015'> +3.9703366e-01 </wgt>
<wgt id='2016'> +5.6663024e-01 </wgt>
<wgt id='2017'> +3.2787063e-01 </wgt>
<wgt id='2018'> +4.5018231e-01 </wgt>
<wgt id='2019'> +9.6266706e-01 </wgt>
<wgt id='2020'> +4.8059802e-01 </wgt>
<wgt id='2021'> +5.0650859e-01 </wgt>
<wgt id='2022'> +5.3973813e-01 </wgt>
</rwgt>
</event>
<event>
 13 1 0.0079112 9.45857200e+02 7.81860800e-03 8.24101800e-02
        2 -1    0    0  503    0 +0.0000000000e+00 +0.0000000000e+00 +1.3049198916e+03 1.3049198916e+03 2.5500000000e-03 0.0000e+00 -1.0000e+00
       21 -1    0    0  501  503 +0.0000000000e+00 +0.0000000000e+00 -3.0045900724e+02 3.0045900724e+02 0.0000000000e+00 0.0000e+00 -1.0000e+00
  8000001  2    1    2  502    0 +2.2157616224e+02 -1.2297635120e+02 +2.3580874753e+02 6.9269431533e+02 6.0000039204e+02 0.0000e+00 0.0000e+00
        1  1    1    2  501    0 -8.7353728797e+01 -1.1745328999e+02 +5.2483799853e+02 5.4486775826e+02 5.0400000000e-03 0.0000e+00 -1.0000e+00
       -5  1    1    2    0  502 -1.3422243345e+02 +2.4042964119e+02 +2.4381413830e+02 3.6781682525e+02 4.6700000000e+00 0.0000e+00 1.0000e+00
        6  2    3    3  502    0 +1.1686559421e+01 +5.7527578217e+01 -1.3086171283e+02 2.2385201497e+02 1.7186895820e+02 0.0000e+00 0.0000e+00
        5  1    6    6  502    0 +4.2328576889e+00 +8.6672723228e+01 -3.1649362852e+01 9.2485507543e+01 4.6700000000e+00 0.0000e+00 -1.0000e+00
       24  2    6    6    0    0 +7.4537017321e+00 -2.9145145011e+01 -9.9212349983e+01 1.3136650743e+02 8.0678818393e+01 0.0000e+00 0.0000e+00
        4  1    8    8  504    0 +1.9073697062e+01 -4.5381868485e+01 -9.9911352311e+01 1.1138766147e+02 1.2700000000e+00 0.0000e+00 -1.0000e+00
       -3  1    8    8    0  504 -1.1619995330e+01 +1.6236723473e+01 +6.9900232825e-01 1.9978845959e+01 1.0100000000e-01 0.0000e+00 1.0000e+00
       23  2    3    3    0    0 +2.0988960282e+02 -1.8050392942e+02 +3.6667046036e+02 4.6884230036e+02 9.3437477465e+01 0.0000e+00 0.0000e+00
       13  1   11   11    0    0 +1.3828561863e+02 -1.4271733441e+02 +1.9201940618e+02 2.7633786092e+02 1.0566000000e-01 0.0000e+00 -1.0000e+00
      -13  1   11   11    0    0 +7.1603984191e+01 -3.7786595006e+01 +1.7465105418e+02 1.9250443944e+02 1.0566000000e-01 0.0000e+00 1.0000e+00
<mgrwt>
<rscale>  1 0.94585716e+03</rscale>
<asrwt>0</asrwt>
<pdfrwt beam="1">  1       21 0.46224463e-01 0.94585716e+03</pdfrwt>
<pdfrwt beam="2">  1        2 0.20075690e+00 0.94585716e+03</pdfrwt>
<totfact> 0.10099713e+03</totfact>
</mgrwt>
<rwgt>
<wgt id='1001'> +5.2878984e-01 </wgt>
<wgt id='1002'> +5.4003329e-01 </wgt>
<wgt id='1003'> +5.4002713e-01 </wgt>
<wgt id='1004'> +6.2988198e-01 </wgt>
<wgt id='1005'> +4.9849655e-01 </wgt>
<wgt id='1006'> +4.9013480e-01 </wgt>
<wgt id='1007'> +5.0012628e-01 </wgt>
<wgt id='1008'> +5.0012082e-01 </wgt>
<wgt id='1009'> +5.7944225e-01 </wgt>
<wgt id='1010'> +4.6314497e-01 </wgt>
<wgt id='1011'> +5.7423242e-01 </wgt>
<wgt id='1012'> +5.8704284e-01 </wgt>
<wgt id='1013'> +5.8703582e-01 </wgt>
<wgt id='1014'> +6.9021550e-01 </wgt>
<wgt id='1015'> +5.3983391e-01 </wgt>
<wgt id='1016'> +4.9456700e-01 </wgt>
<wgt id='1017'> +5.0482771e-01 </wgt>
<wgt id='1018'> +5.0482209e-01 </wgt>
<wgt id='1019'> +5.8703582e-01 </wgt>
<wgt id='1020'> +4.6682524e-01 </wgt>
<wgt id='1021'> +4.5841368e-01 </wgt>
<wgt id='1022'> +4.6752230e-01 </wgt>
<wgt id='1023'> +4.6751732e-01 </wgt>
<wgt id='1024'> +5.4002713e-01 </wgt>
<wgt id='1025'> +4.3371967e-01 </wgt>
<wgt id='1026'> +5.3706857e-01 </wgt>
<wgt id='1027'> +5.4877264e-01 </wgt>
<wgt id='1028'> +5.4876622e-01 </wgt>
<wgt id='1029'> +6.4326531e-01 </wgt>
<wgt id='1030'> +5.0553628e-01 </wgt>
<wgt id='1031'> +5.6710710e-01 </wgt>
<wgt id='1032'> +5.7944900e-01 </wgt>
<wgt id='1033'> +5.7944225e-01 </wgt>
<wgt id='1034'> +6.7805199e-01 </wgt>
<wgt id='1035'> +5.3386065e-01 </wgt>
<wgt id='1036'> +5.2565103e-01 </wgt>
<wgt id='1037'> +5.3662928e-01 </wgt>
<wgt id='1038'> +5.3662328e-01 </wgt>
<wgt id='1039'> +6.2375491e-01 </wgt>
<wgt id='1040'> +4.9600118e-01 </wgt>
<wgt id='1041'> +6.1584255e-01 </wgt>
<wgt id='1042'> +6.2988966e-01 </wgt>
<wgt id='1043'> +6.2988198e-01 </wgt>
<wgt id='1044'> +7.4299950e-01 </wgt>
<wgt id='1045'> +5.7813054e-01 </wgt>
<wgt id='1046'> +5.2878984e-01 </wgt>
<wgt id='1047'> +5.2878984e-01 </wgt>
<wgt id='1048'> +5.2878984e-01 </wgt>
<wgt id='1049'> +5.2890491e-01 </wgt>
<wgt id='1050'> +5.2843669e-01 </wgt>
<wgt id='1051'> +5.3012523e-01 </wgt>
<wgt id='1052'> +5.2782653e-01 </wgt>
<wgt id='1053'> +5.3078444e-01 </wgt>
<wgt id='1054'> +5.2827360e-01 </wgt>
<wgt id='1055'> +5.2819066e-01 </wgt>
<wgt id='1056'> +5.2860981e-01 </wgt>
<wgt id='1057'> +5.2887547e-01 </wgt>
<wgt id='1058'> +5.2874206e-01 </wgt>
<wgt id='1059'> +5.2886317e-01 </wgt>
<wgt id='1060'> +5.2755319e-01 </wgt>
<wgt id='1061'> +5.2910943e-01 </wgt>
<wgt id='1062'> +5.2981297e-01 </wgt>
<wgt id='1063'> +5.2853561e-01 </wgt>
<wgt id='1064'> +5.2934632e-01 </wgt>
<wgt id='1065'> +5.2990975e-01 </wgt>
<wgt id='1066'> +5.2658739e-01 </wgt>
<wgt id='1067'> +5.2863499e-01 </wgt>
<wgt id='1068'> +5.2728605e-01 </wgt>
<wgt id='1069'> +5.2760943e-01 </wgt>
<wgt id='1070'> +5.2922457e-01 </wgt>
<wgt id='1071'> +5.2802159e-01 </wgt>
<wgt id='1072'> +5.2960648e-01 </wgt>
<wgt id='1073'> +5.2859718e-01 </wgt>
<wgt id='1074'> +5.2922064e-01 </wgt>
<wgt id='1075'> +5.2640687e-01 </wgt>
<wgt id='1076'> +5.2992673e-01 </wgt>
<wgt id='1077'> +5.3061615e-01 </wgt>
<wgt id='1078'> +5.2854636e-01 </wgt>
<wgt id='1079'> +5.3156365e-01 </wgt>
<wgt id='1080'> +5.2989690e-01 </wgt>
<wgt id='1081'> +5.2951614e-01 </wgt>
<wgt id='1082'> +5.2963995e-01 </wgt>
<wgt id='1083'> +5.2834135e-01 </wgt>
<wgt id='1084'> +5.2785942e-01 </wgt>
<wgt id='1085'> +5.3029914e-01 </wgt>
<wgt id='1086'> +5.2761527e-01 </wgt>
<wgt id='1087'> +5.2887242e-01 </wgt>
<wgt id='1088'> +5.2943081e-01 </wgt>
<wgt id='1089'> +5.2917171e-01 </wgt>
<wgt id='1090'> +5.2878643e-01 </wgt>
<wgt id='1091'> +5.2823848e-01 </wgt>
<wgt id='1092'> +5.2766109e-01 </wgt>
<wgt id='1093'> +5.2874492e-01 </wgt>
<wgt id='1094'> +5.2864467e-01 </wgt>
<wgt id='1095'> +5.2781571e-01 </wgt>
<wgt id='1096'> +5.2768991e-01 </wgt>
<wgt id='1097'> +5.2852084e-01 </wgt>
<wgt id='1098'> +5.2849116e-01 </wgt>
<wgt id='1099'> +5.2864423e-01 </wgt>
<wgt id='1100'> +5.2903039e-01 </wgt>
<wgt id='1101'> +5.2854631e-01 </wgt>
<wgt id='1102'> +5.2906335e-01 </wgt>
<wgt id='1103'> +5.2918576e-01 </wgt>
<wgt id='1104'> +5.2902871e-01 </wgt>
<wgt id='1105'> +5.2924763e-01 </wgt>
<wgt id='1106'> +5.2911291e-01 </wgt>
<wgt id='1107'> +5.2875303e-01 </wgt>
<wgt id='1108'> +5.2893131e-01 </wgt>
<wgt id='1109'> +5.2910168e-01 </wgt>
<wgt id='1110'> +5.2878505e-01 </wgt>
<wgt id='1111'> +5.2855705e-01 </wgt>
<wgt id='1112'> +5.2903388e-01 </wgt>
<wgt id='1113'> +5.2887561e-01 </wgt>
<wgt id='1114'> +5.2770285e-01 </wgt>
<wgt id='1115'> +5.2913987e-01 </wgt>
<wgt id='1116'> +5.2876259e-01 </wgt>
<wgt id='1117'> +5.2896085e-01 </wgt>
<wgt id='1118'> +5.2860242e-01 </wgt>
<wgt id='1119'> +5.2891351e-01 </wgt>
<wgt id='1120'> +5.2863146e-01 </wgt>
<wgt id='1121'> +5.2944985e-01 </wgt>
<wgt id='1122'> +5.2864192e-01 </wgt>
<wgt id='1123'> +5.2891870e-01 </wgt>
<wgt id='1124'> +5.2874050e-01 </wgt>
<wgt id='1125'> +5.2869778e-01 </wgt>
<wgt id='1126'> +5.2872862e-01 </wgt>
<wgt id='1127'> +5.2922005e-01 </wgt>
<wgt id='1128'> +5.2872787e-01 </wgt>
<wgt id='1129'> +5.2890173e-01 </wgt>
<wgt id='1130'> +5.2897293e-01 </wgt>
<wgt id='1131'> +5.2911918e-01 </wgt>
<wgt id='1132'> +5.2871923e-01 </wgt>
<wgt id='1133'> +5.2903810e-01 </wgt>
<wgt id='1134'> +5.2863210e-01 </wgt>
<wgt id='1135'> +5.2903728e-01 </wgt>
<wgt id='1136'> +5.2888394e-01 </wgt>
<wgt id='1137'> +5.2882420e-01 </wgt>
<wgt id='1138'> +5.2908779e-01 </wgt>
<wgt id='1139'> +5.2874954e-01 </wgt>
<wgt id='1140'> +5.2911172e-01 </wgt>
<wgt id='1141'> +5.2877182e-01 </wgt>
<wgt id='1142'> +5.2893007e-01 </wgt>
<wgt id='1143'> +5.2908593e-01 </wgt>
<wgt id='1144'> +5.2864254e-01 </wgt>
<wgt id='1145'> +5.2869236e-01 </wgt>
<wgt id='1146'> +5.2868937e-01 </wgt>
<wgt id='1147'> +5.2902640e-01 </wgt>
<wgt id='1148'> +5.2878984e-01 </wgt>
<wgt id='1149'> +4.9430414e-01 </wgt>
<wgt id='1150'> +4.9829135e-01 </wgt>
<wgt id='1151'> +4.9348776e-01 </wgt>
<wgt id='1152'> +4.9515803e-01 </wgt>
<wgt id='1153'> +4.8951734e-01 </wgt>
<wgt id='1154'> +4.9619315e-01 </wgt>
<wgt id='1155'> +5.0314230e-01 </wgt>
<wgt id='1156'> +5.0126337e-01 </wgt>
<wgt id='1157'> +5.0083088e-01 </wgt>
<wgt id='1158'> +4.9390254e-01 </wgt>
<wgt id='1159'> +4.6919794e-01 </wgt>
<wgt id='1160'> +4.9361769e-01 </wgt>
<wgt id='1161'> +5.0140748e-01 </wgt>
<wgt id='1162'> +4.8545670e-01 </wgt>
<wgt id='1163'> +5.0464439e-01 </wgt>
<wgt id='1164'> +4.9307777e-01 </wgt>
<wgt id='1165'> +4.9084316e-01 </wgt>
<wgt id='1166'> +4.9428225e-01 </wgt>
<wgt id='1167'> +4.9943508e-01 </wgt>
<wgt id='1168'> +4.8989059e-01 </wgt>
<wgt id='1169'> +4.8509967e-01 </wgt>
<wgt id='1170'> +4.9851017e-01 </wgt>
<wgt id='1171'> +4.9435161e-01 </wgt>
<wgt id='1172'> +4.9674706e-01 </wgt>
<wgt id='1173'> +4.9162321e-01 </wgt>
<wgt id='1174'> +5.0208766e-01 </wgt>
<wgt id='1175'> +5.0264466e-01 </wgt>
<wgt id='1176'> +4.7129000e-01 </wgt>
<wgt id='1177'> +5.0434687e-01 </wgt>
<wgt id='1178'> +4.9365859e-01 </wgt>
<wgt id='1179'> +4.8769078e-01 </wgt>
<wgt id='1180'> +4.9669447e-01 </wgt>
<wgt id='1181'> +4.9777861e-01 </wgt>
<wgt id='1182'> +4.9942674e-01 </wgt>
<wgt id='1183'> +4.9328136e-01 </wgt>
<wgt id='1184'> +4.9274986e-01 </wgt>
<wgt id='1185'> +5.0404995e-01 </wgt>
<wgt id='1186'> +4.9233227e-01 </wgt>
<wgt id='1187'> +4.9359367e-01 </wgt>
<wgt id='1188'> +4.8882742e-01 </wgt>
<wgt id='1189'> +4.9899049e-01 </wgt>
<wgt id='1190'> +4.9440047e-01 </wgt>
<wgt id='1191'> +4.9819254e-01 </wgt>
<wgt id='1192'> +4.8772074e-01 </wgt>
<wgt id='1193'> +4.9550061e-01 </wgt>
<wgt id='1194'> +4.9768733e-01 </wgt>
<wgt id='1195'> +4.9320853e-01 </wgt>
<wgt id='1196'> +4.9455981e-01 </wgt>
<wgt id='1197'> +4.9773052e-01 </wgt>
<wgt id='1198'> +4.9405885e-01 </wgt>
<wgt id='1199'> +4.9129423e-01 </wgt>
<wgt id='1200'> +4.9948561e-01 </wgt>
<wgt id='1201'> +5.0040723e-01 </wgt>
<wgt id='1202'> +4.9453667e-01 </wgt>
<wgt id='1203'> +5.0051442e-01 </wgt>
<wgt id='1204'> +5.0348932e-01 </wgt>
<wgt id='1205'> +4.8963230e-01 </wgt>
<wgt id='1206'> +4.9572084e-01 </wgt>
<wgt id='1207'> +5.0011226e-01 </wgt>
<wgt id='1208'> +4.9722588e-01 </wgt>
<wgt id='1209'> +5.0596341e-01 </wgt>
<wgt id='1210'> +4.8318096e-01 </wgt>
<wgt id='1211'> +4.9366527e-01 </wgt>
<wgt id='1212'> +4.8922493e-01 </wgt>
<wgt id='1213'> +5.0348070e-01 </wgt>
<wgt id='1214'> +4.9719549e-01 </wgt>
<wgt id='1215'> +4.9770977e-01 </wgt>
<wgt id='1216'> +4.9575289e-01 </wgt>
<wgt id='1217'> +4.8628308e-01 </wgt>
<wgt id='1218'> +4.9462484e-01 </wgt>
<wgt id='1219'> +4.9086898e-01 </wgt>
<wgt id='1220'> +4.9621369e-01 </wgt>
<wgt id='1221'> +4.7249871e-01 </wgt>
<wgt id='1222'> +4.9568878e-01 </wgt>
<wgt id='1223'> +4.8582361e-01 </wgt>
<wgt id='1224'> +4.8881249e-01 </wgt>
<wgt id='1225'> +4.9907355e-01 </wgt>
<wgt id='1226'> +4.8406850e-01 </wgt>
<wgt id='1227'> +5.0457129e-01 </wgt>
<wgt id='1228'> +4.9378133e-01 </wgt>
<wgt id='1229'> +4.8685312e-01 </wgt>
<wgt id='1230'> +4.9568785e-01 </wgt>
<wgt id='1231'> +4.9084316e-01 </wgt>
<wgt id='1232'> +4.8421234e-01 </wgt>
<wgt id='1233'> +4.9361443e-01 </wgt>
<wgt id='1234'> +4.9901763e-01 </wgt>
<wgt id='1235'> +4.8768498e-01 </wgt>
<wgt id='1236'> +5.0077599e-01 </wgt>
<wgt id='1237'> +4.8801449e-01 </wgt>
<wgt id='1238'> +4.7920588e-01 </wgt>
<wgt id='1239'> +5.0568762e-01 </wgt>
<wgt id='1240'> +5.0449559e-01 </wgt>
<wgt id='1241'> +4.9665541e-01 </wgt>
<wgt id='1242'> +4.9140746e-01 </wgt>
<wgt id='1243'> +4.9035798e-01 </wgt>
<wgt id='1244'> +4.9524169e-01 </wgt>
<wgt id='1245'> +5.0241485e-01 </wgt>
<wgt id='1246'> +4.8902941e-01 </wgt>
<wgt id='1247'> +4.9158864e-01 </wgt>
<wgt id='1248'> +4.9568192e-01 </wgt>
<wgt id='1249'> +4.9712906e-01 </wgt>
<wgt id='1250'> +5.1786600e-01 </wgt>
<wgt id='1251'> +5.1001465e-01 </wgt>
<wgt id='1252'> +5.2693375e-01 </wgt>
<wgt id='1253'> +5.2348087e-01 </wgt>
<wgt id='1254'> +4.9666854e-01 </wgt>
<wgt id='1255'> +5.0822851e-01 </wgt>
<wgt id='1256'> +5.1173312e-01 </wgt>
<wgt id='1257'> +5.0621691e-01 </wgt>
<wgt id='1258'> +5.0748023e-01 </wgt>
<wgt id='1259'> +5.0861927e-01 </wgt>
<wgt id='1260'> +5.0926509e-01 </wgt>
<wgt id='1261'> +5.0685607e-01 </wgt>
<wgt id='1262'> +5.0899971e-01 </wgt>
<wgt id='1263'> +5.0775219e-01 </wgt>
<wgt id='1264'> +5.0818673e-01 </wgt>
<wgt id='1265'> +5.0828615e-01 </wgt>
<wgt id='1266'> +5.0831240e-01 </wgt>
<wgt id='1267'> +5.0817224e-01 </wgt>
<wgt id='1268'> +5.1339557e-01 </wgt>
<wgt id='1269'> +5.0310208e-01 </wgt>
<wgt id='1270'> +5.0646870e-01 </wgt>
<wgt id='1271'> +5.0975699e-01 </wgt>
<wgt id='1272'> +5.0824680e-01 </wgt>
<wgt id='1273'> +5.0820055e-01 </wgt>
<wgt id='1274'> +5.0789602e-01 </wgt>
<wgt id='1275'> +5.0867054e-01 </wgt>
<wgt id='1276'> +5.0862730e-01 </wgt>
<wgt id='1277'> +5.0789289e-01 </wgt>
<wgt id='1278'> +5.0551285e-01 </wgt>
<wgt id='1279'> +5.1046205e-01 </wgt>
<wgt id='1280'> +5.0792300e-01 </wgt>
<wgt id='1281'> +5.0899549e-01 </wgt>
<wgt id='1282'> +5.1006182e-01 </wgt>
<wgt id='1283'> +5.0593670e-01 </wgt>
<wgt id='1284'> +5.0704364e-01 </wgt>
<wgt id='1285'> +5.0923484e-01 </wgt>
<wgt id='1286'> +5.0998081e-01 </wgt>
<wgt id='1287'> +5.0813827e-01 </wgt>
<wgt id='1288'> +5.0816846e-01 </wgt>
<wgt id='1289'> +5.0816321e-01 </wgt>
<wgt id='1290'> +5.0903421e-01 </wgt>
<wgt id='1291'> +5.0796218e-01 </wgt>
<wgt id='1292'> +5.1079113e-01 </wgt>
<wgt id='1293'> +5.0495080e-01 </wgt>
<wgt id='1294'> +5.0604562e-01 </wgt>
<wgt id='1295'> +5.0830725e-01 </wgt>
<wgt id='1296'> +5.2199498e-01 </wgt>
<wgt id='1297'> +5.2329806e-01 </wgt>
<wgt id='1298'> +5.2094256e-01 </wgt>
<wgt id='1299'> +5.2033842e-01 </wgt>
<wgt id='1300'> +5.2384755e-01 </wgt>
<wgt id='1301'> +5.2070480e-01 </wgt>
<wgt id='1302'> +5.2392611e-01 </wgt>
<wgt id='1303'> +5.2148512e-01 </wgt>
<wgt id='1304'> +5.2233788e-01 </wgt>
<wgt id='1305'> +5.2257078e-01 </wgt>
<wgt id='1306'> +5.2117222e-01 </wgt>
<wgt id='1307'> +5.2504471e-01 </wgt>
<wgt id='1308'> +5.2011173e-01 </wgt>
<wgt id='1309'> +5.2226314e-01 </wgt>
<wgt id='1310'> +5.2165358e-01 </wgt>
<wgt id='1311'> +5.2681341e-01 </wgt>
<wgt id='1312'> +5.2026205e-01 </wgt>
<wgt id='1313'> +5.2093643e-01 </wgt>
<wgt id='1314'> +5.2320969e-01 </wgt>
<wgt id='1315'> +5.2208036e-01 </wgt>
<wgt id='1316'> +5.2190592e-01 </wgt>
<wgt id='1317'> +5.2068018e-01 </wgt>
<wgt id='1318'> +5.2473949e-01 </wgt>
<wgt id='1319'> +5.2225137e-01 </wgt>
<wgt id='1320'> +5.2199635e-01 </wgt>
<wgt id='1321'> +5.1973310e-01 </wgt>
<wgt id='1322'> +5.2314809e-01 </wgt>
<wgt id='1323'> +5.2141532e-01 </wgt>
<wgt id='1324'> +5.2237997e-01 </wgt>
<wgt id='1325'> +5.2254027e-01 </wgt>
<wgt id='1326'> +5.2126386e-01 </wgt>
<wgt id='1327'> +5.2212440e-01 </wgt>
<wgt id='1328'> +5.2198128e-01 </wgt>
<wgt id='1329'> +5.2213761e-01 </wgt>
<wgt id='1330'> +5.2190440e-01 </wgt>
<wgt id='1331'> +5.2271894e-01 </wgt>
<wgt id='1332'> +5.2213750e-01 </wgt>
<wgt id='1333'> +5.2514962e-01 </wgt>
<wgt id='1334'> +5.1947167e-01 </wgt>
<wgt id='1335'> +5.2385881e-01 </wgt>
<wgt id='1336'> +5.2152616e-01 </wgt>
<wgt id='1337'> +5.2199498e-01 </wgt>
<wgt id='1338'> +5.2288962e-01 </wgt>
<wgt id='1339'> +5.2256519e-01 </wgt>
<wgt id='1340'> +5.2225458e-01 </wgt>
<wgt id='1341'> +5.2172217e-01 </wgt>
<wgt id='1342'> +5.2150572e-01 </wgt>
<wgt id='1343'> +5.2128268e-01 </wgt>
<wgt id='1344'> +5.2703405e-01 </wgt>
<wgt id='1345'> +5.2902913e-01 </wgt>
<wgt id='1346'> +5.2503164e-01 </wgt>
<wgt id='1347'> +5.3033532e-01 </wgt>
<wgt id='1348'> +5.2460034e-01 </wgt>
<wgt id='1349'> +5.2612674e-01 </wgt>
<wgt id='1350'> +5.2779603e-01 </wgt>
<wgt id='1351'> +5.2704941e-01 </wgt>
<wgt id='1352'> +5.2702319e-01 </wgt>
<wgt id='1353'> +5.2846128e-01 </wgt>
<wgt id='1354'> +5.2600994e-01 </wgt>
<wgt id='1355'> +5.2619984e-01 </wgt>
<wgt id='1356'> +5.2768305e-01 </wgt>
<wgt id='1357'> +5.2814889e-01 </wgt>
<wgt id='1358'> +5.2633677e-01 </wgt>
<wgt id='1359'> +5.2491070e-01 </wgt>
<wgt id='1360'> +5.3236170e-01 </wgt>
<wgt id='1361'> +5.2779111e-01 </wgt>
<wgt id='1362'> +5.2686486e-01 </wgt>
<wgt id='1363'> +5.2727768e-01 </wgt>
<wgt id='1364'> +5.2674730e-01 </wgt>
<wgt id='1365'> +5.2703577e-01 </wgt>
<wgt id='1366'> +5.2709727e-01 </wgt>
<wgt id='1367'> +5.2399799e-01 </wgt>
<wgt id='1368'> +5.2854227e-01 </wgt>
<wgt id='1369'> +5.2675203e-01 </wgt>
<wgt id='1370'> +5.2732673e-01 </wgt>
<wgt id='1371'> +5.2723532e-01 </wgt>
<wgt id='1372'> +5.2668164e-01 </wgt>
<wgt id='1373'> +5.2899993e-01 </wgt>
<wgt id='1374'> +5.2671862e-01 </wgt>
<wgt id='1375'> +5.2772902e-01 </wgt>
<wgt id='1376'> +5.2690055e-01 </wgt>
<wgt id='1377'> +5.2704316e-01 </wgt>
<wgt id='1378'> +5.2707681e-01 </wgt>
<wgt id='1379'> +5.2786467e-01 </wgt>
<wgt id='1380'> +5.2723362e-01 </wgt>
<wgt id='1381'> +5.2460880e-01 </wgt>
<wgt id='1382'> +5.2830920e-01 </wgt>
<wgt id='1383'> +5.2651534e-01 </wgt>
<wgt id='1384'> +5.2986378e-01 </wgt>
<wgt id='1385'> +5.2703405e-01 </wgt>
<wgt id='1386'> +5.2783313e-01 </wgt>
<wgt id='1387'> +5.2751991e-01 </wgt>
<wgt id='1388'> +5.2724223e-01 </wgt>
<wgt id='1389'> +5.2675082e-01 </wgt>
<wgt id='1390'> +5.2652992e-01 </wgt>
<wgt id='1391'> +5.2634150e-01 </wgt>
<wgt id='1392'> +5.4932844e-01 </wgt>
<wgt id='1393'> +5.4938101e-01 </wgt>
<wgt id='1394'> +5.4923954e-01 </wgt>
<wgt id='1395'> +5.4972135e-01 </wgt>
<wgt id='1396'> +5.4902028e-01 </wgt>
<wgt id='1397'> +5.5132818e-01 </wgt>
<wgt id='1398'> +5.4735993e-01 </wgt>
<wgt id='1399'> +5.5130002e-01 </wgt>
<wgt id='1400'> +5.4688743e-01 </wgt>
<wgt id='1401'> +5.4729337e-01 </wgt>
<wgt id='1402'> +5.5180799e-01 </wgt>
<wgt id='1403'> +5.4885404e-01 </wgt>
<wgt id='1404'> +5.5026674e-01 </wgt>
<wgt id='1405'> +5.4862076e-01 </wgt>
<wgt id='1406'> +5.5029004e-01 </wgt>
<wgt id='1407'> +5.4903099e-01 </wgt>
<wgt id='1408'> +5.4952341e-01 </wgt>
<wgt id='1409'> +5.5190092e-01 </wgt>
<wgt id='1410'> +5.4635619e-01 </wgt>
<wgt id='1411'> +5.4871585e-01 </wgt>
<wgt id='1412'> +5.4978180e-01 </wgt>
<wgt id='1413'> +5.5127001e-01 </wgt>
<wgt id='1414'> +5.4727280e-01 </wgt>
<wgt id='1415'> +5.5173997e-01 </wgt>
<wgt id='1416'> +5.4674101e-01 </wgt>
<wgt id='1417'> +5.4684987e-01 </wgt>
<wgt id='1418'> +5.5233219e-01 </wgt>
<wgt id='1419'> +5.4936267e-01 </wgt>
<wgt id='1420'> +5.4899879e-01 </wgt>
<wgt id='1421'> +5.4995259e-01 </wgt>
<wgt id='1422'> +5.4868247e-01 </wgt>
<wgt id='1423'> +5.4858207e-01 </wgt>
<wgt id='1424'> +5.4959889e-01 </wgt>
<wgt id='1425'> +5.4951955e-01 </wgt>
<wgt id='1426'> +5.4905652e-01 </wgt>
<wgt id='1427'> +5.4875158e-01 </wgt>
<wgt id='1428'> +5.4743063e-01 </wgt>
<wgt id='1429'> +5.4852754e-01 </wgt>
<wgt id='1430'> +5.4993746e-01 </wgt>
<wgt id='1431'> +5.4871777e-01 </wgt>
<wgt id='1432'> +5.4972851e-01 </wgt>
<wgt id='1433'> +5.4654533e-01 </wgt>
<wgt id='1434'> +5.5203805e-01 </wgt>
<wgt id='1435'> +5.4825820e-01 </wgt>
<wgt id='1436'> +5.5019649e-01 </wgt>
<wgt id='1437'> +5.4868296e-01 </wgt>
<wgt id='1438'> +5.5078225e-01 </wgt>
<wgt id='1439'> +5.5230783e-01 </wgt>
<wgt id='1440'> +5.4526585e-01 </wgt>
<wgt id='1441'> +5.5042339e-01 </wgt>
<wgt id='1442'> +5.5000976e-01 </wgt>
<wgt id='1443'> +5.4778319e-01 </wgt>
<wgt id='1444'> +5.4785895e-01 </wgt>
<wgt id='1445'> +5.4767822e-01 </wgt>
<wgt id='1446'> +5.4821024e-01 </wgt>
<wgt id='1447'> +5.4749929e-01 </wgt>
<wgt id='1448'> +5.4992498e-01 </wgt>
<wgt id='1449'> +5.4578052e-01 </wgt>
<wgt id='1450'> +5.4965372e-01 </wgt>
<wgt id='1451'> +5.4570570e-01 </wgt>
<wgt id='1452'> +5.4576840e-01 </wgt>
<wgt id='1453'> +5.4972227e-01 </wgt>
<wgt id='1454'> +5.4719844e-01 </wgt>
<wgt id='1455'> +5.4904339e-01 </wgt>
<wgt id='1456'> +5.4696059e-01 </wgt>
<wgt id='1457'> +5.4923099e-01 </wgt>
<wgt id='1458'> +5.4761584e-01 </wgt>
<wgt id='1459'> +5.4787930e-01 </wgt>
<wgt id='1460'> +5.5031233e-01 </wgt>
<wgt id='1461'> +5.4476052e-01 </wgt>
<wgt id='1462'> +5.4661924e-01 </wgt>
<wgt id='1463'> +5.4877125e-01 </wgt>
<wgt id='1464'> +5.4960369e-01 </wgt>
<wgt id='1465'> +5.4540078e-01 </wgt>
<wgt id='1466'> +5.5120216e-01 </wgt>
<wgt id='1467'> +5.4530552e-01 </wgt>
<wgt id='1468'> +5.4998216e-01 </wgt>
<wgt id='1469'> +5.4564698e-01 </wgt>
<wgt id='1470'> +5.4798112e-01 </wgt>
<wgt id='1471'> +5.4744452e-01 </wgt>
<wgt id='1472'> +5.4833859e-01 </wgt>
<wgt id='1473'> +5.4715690e-01 </wgt>
<wgt id='1474'> +5.4731538e-01 </wgt>
<wgt id='1475'> +5.4798195e-01 </wgt>
<wgt id='1476'> +5.4812273e-01 </wgt>
<wgt id='1477'> +5.4739059e-01 </wgt>
<wgt id='1478'> +5.4730783e-01 </wgt>
<wgt id='1479'> +5.4588242e-01 </wgt>
<wgt id='1480'> +5.4728633e-01 </wgt>
<wgt id='1481'> +5.4816367e-01 </wgt>
<wgt id='1482'> +5.4717587e-01 </wgt>
<wgt id='1483'> +5.4825880e-01 </wgt>
<wgt id='1484'> +5.4494346e-01 </wgt>
<wgt id='1485'> +5.5064904e-01 </wgt>
<wgt id='1486'> +5.4696641e-01 </wgt>
<wgt id='1487'> +5.4840921e-01 </wgt>
<wgt id='1488'> +5.4703782e-01 </wgt>
<wgt id='1489'> +5.4946825e-01 </wgt>
<wgt id='1490'> +5.5182195e-01 </wgt>
<wgt id='1491'> +5.4358117e-01 </wgt>
<wgt id='1492'> +5.4960341e-01 </wgt>
<wgt id='1493'> +5.4848560e-01 </wgt>
<wgt id='1494'> +5.1899614e-01 </wgt>
<wgt id='1495'> +5.1730555e-01 </wgt>
<wgt id='1496'> +5.1795863e-01 </wgt>
<wgt id='1497'> +5.1854054e-01 </wgt>
<wgt id='1498'> +5.1938817e-01 </wgt>
<wgt id='1499'> +5.1897939e-01 </wgt>
<wgt id='1500'> +5.2443696e-01 </wgt>
<wgt id='1501'> +5.2342389e-01 </wgt>
<wgt id='1502'> +5.2234215e-01 </wgt>
<wgt id='1503'> +5.2124790e-01 </wgt>
<wgt id='1504'> +5.2015227e-01 </wgt>
<wgt id='1505'> +5.1788241e-01 </wgt>
<wgt id='1506'> +5.1673979e-01 </wgt>
<wgt id='1507'> +5.1560339e-01 </wgt>
<wgt id='1508'> +5.1897939e-01 </wgt>
<wgt id='1509'> +5.1988057e-01 </wgt>
<wgt id='1510'> +5.1938846e-01 </wgt>
<wgt id='1511'> +5.1861007e-01 </wgt>
<wgt id='1512'> +5.1826048e-01 </wgt>
<wgt id='1513'> +5.2623044e-01 </wgt>
<wgt id='1514'> +5.2606132e-01 </wgt>
<wgt id='1515'> +5.2644710e-01 </wgt>
<wgt id='1516'> +5.2705411e-01 </wgt>
<wgt id='1517'> +5.2539920e-01 </wgt>
<wgt id='1518'> +5.2725930e-01 </wgt>
<wgt id='1519'> +5.2581150e-01 </wgt>
<wgt id='1520'> +5.2922295e-01 </wgt>
<wgt id='1521'> +5.2324936e-01 </wgt>
<wgt id='1522'> +5.2521128e-01 </wgt>
<wgt id='1523'> +5.2720614e-01 </wgt>
<wgt id='1524'> +5.2917628e-01 </wgt>
<wgt id='1525'> +5.2495451e-01 </wgt>
<wgt id='1526'> +5.2621108e-01 </wgt>
<wgt id='1527'> +5.2627210e-01 </wgt>
<wgt id='1528'> +5.2553403e-01 </wgt>
<wgt id='1529'> +5.2698386e-01 </wgt>
<wgt id='1530'> +5.2975360e-01 </wgt>
<wgt id='1531'> +5.2423126e-01 </wgt>
<wgt id='1532'> +5.2786680e-01 </wgt>
<wgt id='1533'> +5.2397608e-01 </wgt>
<wgt id='1534'> +5.2469307e-01 </wgt>
<wgt id='1535'> +5.2730114e-01 </wgt>
<wgt id='1536'> +5.2351888e-01 </wgt>
<wgt id='1537'> +5.2886680e-01 </wgt>
<wgt id='1538'> +5.2491752e-01 </wgt>
<wgt id='1539'> +5.2926816e-01 </wgt>
<wgt id='1540'> +5.2554004e-01 </wgt>
<wgt id='1541'> +5.2637165e-01 </wgt>
<wgt id='1542'> +5.2599986e-01 </wgt>
<wgt id='1543'> +5.2729790e-01 </wgt>
<wgt id='1544'> +5.2564821e-01 </wgt>
<wgt id='1545'> +5.2641697e-01 </wgt>
<wgt id='1546'> +5.2567227e-01 </wgt>
<wgt id='1547'> +5.2604707e-01 </wgt>
<wgt id='1548'> +5.2487117e-01 </wgt>
<wgt id='1549'> +5.2570923e-01 </wgt>
<wgt id='1550'> +5.2624282e-01 </wgt>
<wgt id='1551'> +5.2586330e-01 </wgt>
<wgt id='1552'> +5.2540873e-01 </wgt>
<wgt id='1553'> +5.2664355e-01 </wgt>
<wgt id='1554'> +5.2751939e-01 </wgt>
<wgt id='1555'> +5.2313327e-01 </wgt>
<wgt id='1556'> +5.2692372e-01 </wgt>
<wgt id='1557'> +5.2624341e-01 </wgt>
<wgt id='1558'> +5.2346436e-01 </wgt>
<wgt id='1559'> +5.2817681e-01 </wgt>
<wgt id='1560'> +5.2889490e-01 </wgt>
<wgt id='1561'> +5.2500111e-01 </wgt>
<wgt id='1562'> +5.2392021e-01 </wgt>
<wgt id='1563'> +5.2774975e-01 </wgt>
<wgt id='1564'> +5.2623044e-01 </wgt>
<wgt id='1565'> +5.2480898e-01 </wgt>
<wgt id='1566'> +5.2613419e-01 </wgt>
<wgt id='1567'> +5.2554811e-01 </wgt>
<wgt id='1568'> +5.3108913e-01 </wgt>
<wgt id='1569'> +5.3002693e-01 </wgt>
<wgt id='1570'> +5.2889182e-01 </wgt>
<wgt id='1571'> +5.2774894e-01 </wgt>
<wgt id='1572'> +5.2664748e-01 </wgt>
<wgt id='1573'> +5.2432046e-01 </wgt>
<wgt id='1574'> +5.2293831e-01 </wgt>
<wgt id='1575'> +5.2179234e-01 </wgt>
<wgt id='1576'> +5.2554811e-01 </wgt>
<wgt id='1577'> +5.2627638e-01 </wgt>
<wgt id='1578'> +5.2589957e-01 </wgt>
<wgt id='1579'> +5.2523372e-01 </wgt>
<wgt id='1580'> +5.2497959e-01 </wgt>
<wgt id='1581'> +5.2470245e-01 </wgt>
<wgt id='1582'> +5.2533428e-01 </wgt>
<wgt id='1583'> +5.2720919e-01 </wgt>
<wgt id='1584'> +5.2291761e-01 </wgt>
<wgt id='1585'> +5.2649469e-01 </wgt>
<wgt id='1586'> +5.2077639e-01 </wgt>
<wgt id='1587'> +5.2003895e-01 </wgt>
<wgt id='1588'> +5.2913003e-01 </wgt>
<wgt id='1589'> +5.2430581e-01 </wgt>
<wgt id='1590'> +5.2650495e-01 </wgt>
<wgt id='1591'> +5.2392269e-01 </wgt>
<wgt id='1592'> +5.2125523e-01 </wgt>
<wgt id='1593'> +5.2583728e-01 </wgt>
<wgt id='1594'> +5.2387198e-01 </wgt>
<wgt id='1595'> +5.2411433e-01 </wgt>
<wgt id='1596'> +5.2822928e-01 </wgt>
<wgt id='1597'> +5.2610515e-01 </wgt>
<wgt id='1598'> +5.2554905e-01 </wgt>
<wgt id='1599'> +5.2468395e-01 </wgt>
<wgt id='1600'> +5.2604677e-01 </wgt>
<wgt id='1601'> +5.2355838e-01 </wgt>
<wgt id='1602'> +5.2579383e-01 </wgt>
<wgt id='1603'> +5.2573624e-01 </wgt>
<wgt id='1604'> +5.2479196e-01 </wgt>
<wgt id='1605'> +5.2373829e-01 </wgt>
<wgt id='1606'> +5.2520726e-01 </wgt>
<wgt id='1607'> +5.2532928e-01 </wgt>
<wgt id='1608'> +5.2496744e-01 </wgt>
<wgt id='1609'> +5.2579626e-01 </wgt>
<wgt id='1610'> +5.2434976e-01 </wgt>
<wgt id='1611'> +5.2703277e-01 </wgt>
<wgt id='1612'> +5.1716890e-01 </wgt>
<wgt id='1613'> +5.1688255e-01 </wgt>
<wgt id='1614'> +5.1762494e-01 </wgt>
<wgt id='1615'> +5.1762683e-01 </wgt>
<wgt id='1616'> +5.1679992e-01 </wgt>
<wgt id='1617'> +5.1695487e-01 </wgt>
<wgt id='1618'> +5.1798693e-01 </wgt>
<wgt id='1619'> +5.1616893e-01 </wgt>
<wgt id='1620'> +5.1677256e-01 </wgt>
<wgt id='1621'> +5.1723412e-01 </wgt>
<wgt id='1622'> +5.1818571e-01 </wgt>
<wgt id='1623'> +5.1630756e-01 </wgt>
<wgt id='1624'> +5.1579046e-01 </wgt>
<wgt id='1625'> +5.1640393e-01 </wgt>
<wgt id='1626'> +5.1853637e-01 </wgt>
<wgt id='1627'> +5.1633301e-01 </wgt>
<wgt id='1628'> +5.1749270e-01 </wgt>
<wgt id='1629'> +5.1784975e-01 </wgt>
<wgt id='1630'> +5.1700621e-01 </wgt>
<wgt id='1631'> +5.1780979e-01 </wgt>
<wgt id='1632'> +5.1746583e-01 </wgt>
<wgt id='1633'> +5.1707958e-01 </wgt>
<wgt id='1634'> +5.1819988e-01 </wgt>
<wgt id='1635'> +5.1625036e-01 </wgt>
<wgt id='1636'> +5.1653402e-01 </wgt>
<wgt id='1637'> +5.1841080e-01 </wgt>
<wgt id='1638'> +5.1707872e-01 </wgt>
<wgt id='1639'> +5.1837152e-01 </wgt>
<wgt id='1640'> +5.1750409e-01 </wgt>
<wgt id='1641'> +5.1290912e-01 </wgt>
<wgt id='1642'> +5.1579560e-01 </wgt>
<wgt id='1643'> +5.1712087e-01 </wgt>
<wgt id='1644'> +5.1556862e-01 </wgt>
<wgt id='1645'> +5.1641017e-01 </wgt>
<wgt id='1646'> +5.1839093e-01 </wgt>
<wgt id='1647'> +5.1632849e-01 </wgt>
<wgt id='1648'> +5.1674741e-01 </wgt>
<wgt id='1649'> +5.1808539e-01 </wgt>
<wgt id='1650'> +5.1663427e-01 </wgt>
<wgt id='1651'> +5.1691948e-01 </wgt>
<wgt id='1652'> +5.1684547e-01 </wgt>
<wgt id='1653'> +5.1709558e-01 </wgt>
<wgt id='1654'> +5.1675075e-01 </wgt>
<wgt id='1655'> +5.1796691e-01 </wgt>
<wgt id='1656'> +5.1721507e-01 </wgt>
<wgt id='1657'> +5.1687490e-01 </wgt>
<wgt id='1658'> +5.1770546e-01 </wgt>
<wgt id='1659'> +5.1814348e-01 </wgt>
<wgt id='1660'> +5.1733781e-01 </wgt>
<wgt id='1661'> +5.1739963e-01 </wgt>
<wgt id='1662'> +5.1761827e-01 </wgt>
<wgt id='1663'> +5.1849767e-01 </wgt>
<wgt id='1664'> +5.1752497e-01 </wgt>
<wgt id='1665'> +5.1764389e-01 </wgt>
<wgt id='1666'> +5.1791351e-01 </wgt>
<wgt id='1667'> +5.1707934e-01 </wgt>
<wgt id='1668'> +5.1672395e-01 </wgt>
<wgt id='1669'> +5.1708775e-01 </wgt>
<wgt id='1670'> +5.1658024e-01 </wgt>
<wgt id='1671'> +5.1739469e-01 </wgt>
<wgt id='1672'> +5.1755312e-01 </wgt>
<wgt id='1673'> +5.1726927e-01 </wgt>
<wgt id='1674'> +5.1702513e-01 </wgt>
<wgt id='1675'> +5.1695119e-01 </wgt>
<wgt id='1676'> +5.1621116e-01 </wgt>
<wgt id='1677'> +5.1725540e-01 </wgt>
<wgt id='1678'> +5.1747459e-01 </wgt>
<wgt id='1679'> +5.1782448e-01 </wgt>
<wgt id='1680'> +5.1821715e-01 </wgt>
<wgt id='1681'> +5.1714310e-01 </wgt>
<wgt id='1682'> +5.1704265e-01 </wgt>
<wgt id='1683'> +5.1706315e-01 </wgt>
<wgt id='1684'> +5.1714573e-01 </wgt>
<wgt id='1685'> +5.1658245e-01 </wgt>
<wgt id='1686'> +5.1720758e-01 </wgt>
<wgt id='1687'> +5.1669409e-01 </wgt>
<wgt id='1688'> +5.1702849e-01 </wgt>
<wgt id='1689'> +5.1747910e-01 </wgt>
<wgt id='1690'> +5.1741611e-01 </wgt>
<wgt id='1691'> +5.1759368e-01 </wgt>
<wgt id='1692'> +5.1715296e-01 </wgt>
<wgt id='1693'> +5.1765824e-01 </wgt>
<wgt id='1694'> +5.1772696e-01 </wgt>
<wgt id='1695'> +5.1748226e-01 </wgt>
<wgt id='1696'> +5.1702752e-01 </wgt>
<wgt id='1697'> +5.1722456e-01 </wgt>
<wgt id='1698'> +5.1689188e-01 </wgt>
<wgt id='1699'> +5.1712097e-01 </wgt>
<wgt id='1700'> +5.1709418e-01 </wgt>
<wgt id='1701'> +5.1722013e-01 </wgt>
<wgt id='1702'> +5.1708539e-01 </wgt>
<wgt id='1703'> +5.1714754e-01 </wgt>
<wgt id='1704'> +5.1724730e-01 </wgt>
<wgt id='1705'> +5.1695878e-01 </wgt>
<wgt id='1706'> +5.1697350e-01 </wgt>
<wgt id='1707'> +5.1709070e-01 </wgt>
<wgt id='1708'> +5.1689115e-01 </wgt>
<wgt id='1709'> +5.1732880e-01 </wgt>
<wgt id='1710'> +5.1698348e-01 </wgt>
<wgt id='1711'> +5.1710535e-01 </wgt>
<wgt id='1712'> +5.1692421e-01 </wgt>
<wgt id='1713'> +5.1273006e-01 </wgt>
<wgt id='1714'> +5.2087431e-01 </wgt>
<wgt id='1715'> +5.0013313e-01 </wgt>
<wgt id='1716'> +4.9394946e-01 </wgt>
<wgt id='1717'> +5.0201617e-01 </wgt>
<wgt id='1718'> +4.9674695e-01 </wgt>
<wgt id='1719'> +4.9120443e-01 </wgt>
<wgt id='1720'> +5.1512306e-01 </wgt>
<wgt id='1721'> +4.9420983e-01 </wgt>
<wgt id='1722'> +4.9669915e-01 </wgt>
<wgt id='1723'> +5.0140306e-01 </wgt>
<wgt id='1724'> +5.0512857e-01 </wgt>
<wgt id='1725'> +5.0766639e-01 </wgt>
<wgt id='1726'> +5.0403796e-01 </wgt>
<wgt id='1727'> +5.0225522e-01 </wgt>
<wgt id='1728'> +4.9993986e-01 </wgt>
<wgt id='1729'> +5.0100206e-01 </wgt>
<wgt id='1730'> +4.9475574e-01 </wgt>
<wgt id='1731'> +4.6974715e-01 </wgt>
<wgt id='1732'> +5.0409752e-01 </wgt>
<wgt id='1733'> +5.0148842e-01 </wgt>
<wgt id='1734'> +5.0674681e-01 </wgt>
<wgt id='1735'> +4.8552958e-01 </wgt>
<wgt id='1736'> +5.0507655e-01 </wgt>
<wgt id='1737'> +5.0144427e-01 </wgt>
<wgt id='1738'> +5.0415654e-01 </wgt>
<wgt id='1739'> +4.9828856e-01 </wgt>
<wgt id='1740'> +5.0267005e-01 </wgt>
<wgt id='1741'> +4.9431175e-01 </wgt>
<wgt id='1742'> +5.0762242e-01 </wgt>
<wgt id='1743'> +4.8672193e-01 </wgt>
<wgt id='1744'> +5.0672001e-01 </wgt>
<wgt id='1745'> +4.8880566e-01 </wgt>
<wgt id='1746'> +4.9899853e-01 </wgt>
<wgt id='1747'> +5.0522868e-01 </wgt>
<wgt id='1748'> +4.9598373e-01 </wgt>
<wgt id='1749'> +5.1107941e-01 </wgt>
<wgt id='1750'> +4.9569854e-01 </wgt>
<wgt id='1751'> +5.0204621e-01 </wgt>
<wgt id='1752'> +4.8668816e-01 </wgt>
<wgt id='1753'> +4.9896684e-01 </wgt>
<wgt id='1754'> +5.0620259e-01 </wgt>
<wgt id='1755'> +5.0413994e-01 </wgt>
<wgt id='1756'> +4.9467015e-01 </wgt>
<wgt id='1757'> +4.9394839e-01 </wgt>
<wgt id='1758'> +4.9855031e-01 </wgt>
<wgt id='1759'> +5.0076722e-01 </wgt>
<wgt id='1760'> +4.9540648e-01 </wgt>
<wgt id='1761'> +5.0365655e-01 </wgt>
<wgt id='1762'> +5.0225522e-01 </wgt>
<wgt id='1763'> +5.0290219e-01 </wgt>
<wgt id='1764'> +5.1100243e-01 </wgt>
<wgt id='1765'> +5.0827170e-01 </wgt>
<wgt id='1766'> +5.1563560e-01 </wgt>
<wgt id='1767'> +4.9314013e-01 </wgt>
<wgt id='1768'> +4.8611306e-01 </wgt>
<wgt id='1769'> +5.0467189e-01 </wgt>
<wgt id='1770'> +5.0765525e-01 </wgt>
<wgt id='1771'> +4.9154803e-01 </wgt>
<wgt id='1772'> +5.0043372e-01 </wgt>
<wgt id='1773'> +5.0536489e-01 </wgt>
<wgt id='1774'> +4.8900447e-01 </wgt>
<wgt id='1775'> +5.0020537e-01 </wgt>
<wgt id='1776'> +5.0638662e-01 </wgt>
<wgt id='1777'> +5.0307818e-01 </wgt>
<wgt id='1778'> +5.0008547e-01 </wgt>
<wgt id='1779'> +4.9627460e-01 </wgt>
<wgt id='1780'> +5.1207497e-01 </wgt>
<wgt id='1781'> +5.0513531e-01 </wgt>
<wgt id='1782'> +5.0419194e-01 </wgt>
<wgt id='1783'> +4.9294497e-01 </wgt>
<wgt id='1784'> +5.0305401e-01 </wgt>
<wgt id='1785'> +5.0570646e-01 </wgt>
<wgt id='1786'> +5.0618623e-01 </wgt>
<wgt id='1787'> +5.0514224e-01 </wgt>
<wgt id='1788'> +4.9520911e-01 </wgt>
<wgt id='1789'> +5.0617711e-01 </wgt>
<wgt id='1790'> +5.0455954e-01 </wgt>
<wgt id='1791'> +4.8674540e-01 </wgt>
<wgt id='1792'> +5.0370480e-01 </wgt>
<wgt id='1793'> +5.0761722e-01 </wgt>
<wgt id='1794'> +4.9055656e-01 </wgt>
<wgt id='1795'> +4.8518662e-01 </wgt>
<wgt id='1796'> +5.0345936e-01 </wgt>
<wgt id='1797'> +5.0462593e-01 </wgt>
<wgt id='1798'> +5.0374624e-01 </wgt>
<wgt id='1799'> +5.0530570e-01 </wgt>
<wgt id='1800'> +5.0325248e-01 </wgt>
<wgt id='1801'> +4.9280719e-01 </wgt>
<wgt id='1802'> +4.9805002e-01 </wgt>
<wgt id='1803'> +5.0233715e-01 </wgt>
<wgt id='1804'> +5.0726103e-01 </wgt>
<wgt id='1805'> +4.9944729e-01 </wgt>
<wgt id='1806'> +4.9715891e-01 </wgt>
<wgt id='1807'> +4.9259618e-01 </wgt>
<wgt id='1808'> +4.9902178e-01 </wgt>
<wgt id='1809'> +4.9837225e-01 </wgt>
<wgt id='1810'> +4.9633415e-01 </wgt>
<wgt id='1811'> +5.0136021e-01 </wgt>
<wgt id='1812'> +4.9601112e-01 </wgt>
<wgt id='1813'> +5.0544326e-01 </wgt>
<wgt id='1814'> +4.9551913e-01 </wgt>
<wgt id='1815'> +5.0901042e-01 </wgt>
<wgt id='1816'> +5.3523393e-01 </wgt>
<wgt id='1817'> +5.4651423e-01 </wgt>
<wgt id='1818'> +5.3170551e-01 </wgt>
<wgt id='1819'> +5.4688672e-01 </wgt>
<wgt id='1820'> +5.4273433e-01 </wgt>
<wgt id='1821'> +5.5683836e-01 </wgt>
<wgt id='1822'> +5.4155126e-01 </wgt>
<wgt id='1823'> +5.3345508e-01 </wgt>
<wgt id='1824'> +5.3054483e-01 </wgt>
<wgt id='1825'> +5.3589482e-01 </wgt>
<wgt id='1826'> +5.2946374e-01 </wgt>
<wgt id='1827'> +5.2805800e-01 </wgt>
<wgt id='1828'> +5.4122366e-01 </wgt>
<wgt id='1829'> +5.3950110e-01 </wgt>
<wgt id='1830'> +5.3214871e-01 </wgt>
<wgt id='1831'> +5.4341922e-01 </wgt>
<wgt id='1832'> +5.3031171e-01 </wgt>
<wgt id='1833'> +5.3318269e-01 </wgt>
<wgt id='1834'> +5.2894157e-01 </wgt>
<wgt id='1835'> +5.3653650e-01 </wgt>
<wgt id='1836'> +5.4194542e-01 </wgt>
<wgt id='1837'> +5.4216987e-01 </wgt>
<wgt id='1838'> +5.2668665e-01 </wgt>
<wgt id='1839'> +5.5557239e-01 </wgt>
<wgt id='1840'> +5.3675789e-01 </wgt>
<wgt id='1841'> +5.3244975e-01 </wgt>
<wgt id='1842'> +5.4200728e-01 </wgt>
<wgt id='1843'> +5.2588580e-01 </wgt>
<wgt id='1844'> +5.3817986e-01 </wgt>
<wgt id='1845'> +5.3990635e-01 </wgt>
<wgt id='1846'> +5.4047833e-01 </wgt>
<wgt id='1847'> +5.3097232e-01 </wgt>
<wgt id='1848'> +5.3705161e-01 </wgt>
<wgt id='1849'> +5.3077066e-01 </wgt>
<wgt id='1850'> +5.3643320e-01 </wgt>
<wgt id='1851'> +5.3496376e-01 </wgt>
<wgt id='1852'> +5.2999433e-01 </wgt>
<wgt id='1853'> +5.2761102e-01 </wgt>
<wgt id='1854'> +5.3643699e-01 </wgt>
<wgt id='1855'> +5.3775893e-01 </wgt>
<wgt id='1856'> +5.3302256e-01 </wgt>
<wgt id='1857'> +5.4688998e-01 </wgt>
<wgt id='1858'> +5.3241211e-01 </wgt>
<wgt id='1859'> +5.3329579e-01 </wgt>
<wgt id='1860'> +5.3546977e-01 </wgt>
<wgt id='1861'> +5.2788419e-01 </wgt>
<wgt id='1862'> +5.3967523e-01 </wgt>
<wgt id='1863'> +5.2975268e-01 </wgt>
<wgt id='1864'> +5.3181588e-01 </wgt>
<wgt id='1865'> +5.3676186e-01 </wgt>
<wgt id='1866'> +5.3472671e-01 </wgt>
<wgt id='1867'> +5.3747510e-01 </wgt>
<wgt id='1868'> +5.3213769e-01 </wgt>
<wgt id='1869'> +5.4440736e-01 </wgt>
<wgt id='1870'> +5.3402871e-01 </wgt>
<wgt id='1871'> +5.2921556e-01 </wgt>
<wgt id='1872'> +5.2795518e-01 </wgt>
<wgt id='1873'> +5.3858468e-01 </wgt>
<wgt id='1874'> +5.3557277e-01 </wgt>
<wgt id='1875'> +5.3282790e-01 </wgt>
<wgt id='1876'> +5.3312265e-01 </wgt>
<wgt id='1877'> +5.3566165e-01 </wgt>
<wgt id='1878'> +5.3506283e-01 </wgt>
<wgt id='1879'> +5.4199645e-01 </wgt>
<wgt id='1880'> +5.1654724e-01 </wgt>
<wgt id='1881'> +5.3240144e-01 </wgt>
<wgt id='1882'> +5.2798277e-01 </wgt>
<wgt id='1883'> +5.6093778e-01 </wgt>
<wgt id='1884'> +5.2971132e-01 </wgt>
<wgt id='1885'> +5.2534684e-01 </wgt>
<wgt id='1886'> +5.1933524e-01 </wgt>
<wgt id='1887'> +5.3384311e-01 </wgt>
<wgt id='1888'> +5.4385743e-01 </wgt>
<wgt id='1889'> +5.3840003e-01 </wgt>
<wgt id='1890'> +5.4762104e-01 </wgt>
<wgt id='1891'> +5.3735475e-01 </wgt>
<wgt id='1892'> +5.3902637e-01 </wgt>
<wgt id='1893'> +5.2864760e-01 </wgt>
<wgt id='1894'> +5.3909057e-01 </wgt>
<wgt id='1895'> +5.4156508e-01 </wgt>
<wgt id='1896'> +5.2724719e-01 </wgt>
<wgt id='1897'> +5.3437471e-01 </wgt>
<wgt id='1898'> +5.3580439e-01 </wgt>
<wgt id='1899'> +5.3346025e-01 </wgt>
<wgt id='1900'> +5.3239688e-01 </wgt>
<wgt id='1901'> +5.3145882e-01 </wgt>
<wgt id='1902'> +5.2649695e-01 </wgt>
<wgt id='1903'> +5.3404840e-01 </wgt>
<wgt id='1904'> +5.4021554e-01 </wgt>
<wgt id='1905'> +5.3490861e-01 </wgt>
<wgt id='1906'> +5.2905455e-01 </wgt>
<wgt id='1907'> +5.3405895e-01 </wgt>
<wgt id='1908'> +5.3371603e-01 </wgt>
<wgt id='1909'> +5.3241558e-01 </wgt>
<wgt id='1910'> +5.3932721e-01 </wgt>
<wgt id='1911'> +5.1939625e-01 </wgt>
<wgt id='1912'> +5.3228379e-01 </wgt>
<wgt id='1913'> +5.3286415e-01 </wgt>
<wgt id='1914'> +5.3956571e-01 </wgt>
<wgt id='1915'> +5.3873425e-01 </wgt>
<wgt id='1916'> +5.2467694e-01 </wgt>
<wgt id='1917'> +5.4559681e-01 </wgt>
<wgt id='1918'> +5.4280327e-01 </wgt>
<wgt id='1919'> +5.3523393e-01 </wgt>
<wgt id='1920'> +5.4651423e-01 </wgt>
<wgt id='1921'> +5.3170551e-01 </wgt>
<wgt id='1922'> +5.4688672e-01 </wgt>
<wgt id='1923'> +5.4273433e-01 </wgt>
<wgt id='1924'> +5.5683836e-01 </wgt>
<wgt id='1925'> +5.4155126e-01 </wgt>
<wgt id='1926'> +5.3345508e-01 </wgt>
<wgt id='1927'> +5.3054483e-01 </wgt>
<wgt id='1928'> +5.3589482e-01 </wgt>
<wgt id='1929'> +5.2946374e-01 </wgt>
<wgt id='1930'> +5.2805800e-01 </wgt>
<wgt id='1931'> +5.4122366e-01 </wgt>
<wgt id='1932'> +5.3950110e-01 </wgt>
<wgt id='1933'> +5.3214871e-01 </wgt>
<wgt id='1934'> +5.4341922e-01 </wgt>
<wgt id='1935'> +5.3031171e-01 </wgt>
<wgt id='1936'> +5.3318269e-01 </wgt>
<wgt id='1937'> +5.2894157e-01 </wgt>
<wgt id='1938'> +5.3653650e-01 </wgt>
<wgt id='1939'> +5.4194542e-01 </wgt>
<wgt id='1940'> +5.4216987e-01 </wgt>
<wgt id='1941'> +5.2668665e-01 </wgt>
<wgt id='1942'> +5.5557239e-01 </wgt>
<wgt id='1943'> +5.3675789e-01 </wgt>
<wgt id='1944'> +5.3244975e-01 </wgt>
<wgt id='1945'> +5.4200728e-01 </wgt>
<wgt id='1946'> +5.2588580e-01 </wgt>
<wgt id='1947'> +5.3817986e-01 </wgt>
<wgt id='1948'> +5.3990635e-01 </wgt>
<wgt id='1949'> +5.4047833e-01 </wgt>
<wgt id='1950'> +5.3097232e-01 </wgt>
<wgt id='1951'> +5.3705161e-01 </wgt>
<wgt id='1952'> +5.3077066e-01 </wgt>
<wgt id='1953'> +5.3643320e-01 </wgt>
<wgt id='1954'> +5.3496376e-01 </wgt>
<wgt id='1955'> +5.2999433e-01 </wgt>
<wgt id='1956'> +5.2761102e-01 </wgt>
<wgt id='1957'> +5.3643699e-01 </wgt>
<wgt id='1958'> +5.3775893e-01 </wgt>
<wgt id='1959'> +5.3302256e-01 </wgt>
<wgt id='1960'> +5.4688998e-01 </wgt>
<wgt id='1961'> +5.3241211e-01 </wgt>
<wgt id='1962'> +5.3329579e-01 </wgt>
<wgt id='1963'> +5.3546977e-01 </wgt>
<wgt id='1964'> +5.2788419e-01 </wgt>
<wgt id='1965'> +5.3967523e-01 </wgt>
<wgt id='1966'> +5.2975268e-01 </wgt>
<wgt id='1967'> +5.3181588e-01 </wgt>
<wgt id='1968'> +5.3676186e-01 </wgt>
<wgt id='1969'> +5.3472671e-01 </wgt>
<wgt id='1970'> +5.3747510e-01 </wgt>
<wgt id='1971'> +5.3213769e-01 </wgt>
<wgt id='1972'> +5.4440736e-01 </wgt>
<wgt id='1973'> +5.3402871e-01 </wgt>
<wgt id='1974'> +5.2921556e-01 </wgt>
<wgt id='1975'> +5.2795518e-01 </wgt>
<wgt id='1976'> +5.3858468e-01 </wgt>
<wgt id='1977'> +5.3557277e-01 </wgt>
<wgt id='1978'> +5.3282790e-01 </wgt>
<wgt id='1979'> +5.3312265e-01 </wgt>
<wgt id='1980'> +5.3566165e-01 </wgt>
<wgt id='1981'> +5.3506283e-01 </wgt>
<wgt id='1982'> +5.4199645e-01 </wgt>
<wgt id='1983'> +5.1654724e-01 </wgt>
<wgt id='1984'> +5.3240144e-01 </wgt>
<wgt id='1985'> +5.2798277e-01 </wgt>
<wgt id='1986'> +5.6093778e-01 </wgt>
<wgt id='1987'> +5.2971132e-01 </wgt>
<wgt id='1988'> +5.2534684e-01 </wgt>
<wgt id='1989'> +5.1933524e-01 </wgt>
<wgt id='1990'> +5.3384311e-01 </wgt>
<wgt id='1991'> +5.4385743e-01 </wgt>
<wgt id='1992'> +5.3840003e-01 </wgt>
<wgt id='1993'> +5.4762104e-01 </wgt>
<wgt id='1994'> +5.3735475e-01 </wgt>
<wgt id='1995'> +5.3902637e-01 </wgt>
<wgt id='1996'> +5.2864760e-01 </wgt>
<wgt id='1997'> +5.3909057e-01 </wgt>
<wgt id='1998'> +5.4156508e-01 </wgt>
<wgt id='1999'> +5.2724719e-01 </wgt>
<wgt id='2000'> +5.3437471e-01 </wgt>
<wgt id='2001'> +5.3580439e-01 </wgt>
<wgt id='2002'> +5.3346025e-01 </wgt>
<wgt id='2003'> +5.3239688e-01 </wgt>
<wgt id='2004'> +5.3145882e-01 </wgt>
<wgt id='2005'> +5.2649695e-01 </wgt>
<wgt id='2006'> +5.3404840e-01 </wgt>
<wgt id='2007'> +5.4021554e-01 </wgt>
<wgt id='2008'> +5.3490861e-01 </wgt>
<wgt id='2009'> +5.2905455e-01 </wgt>
<wgt id='2010'> +5.3405895e-01 </wgt>
<wgt id='2011'> +5.3371603e-01 </wgt>
<wgt id='2012'> +5.3241558e-01 </wgt>
<wgt id='2013'> +5.3932721e-01 </wgt>
<wgt id='2014'> +5.1939625e-01 </wgt>
<wgt id='2015'> +5.3228379e-01 </wgt>
<wgt id='2016'> +5.3286415e-01 </wgt>
<wgt id='2017'> +5.3956571e-01 </wgt>
<wgt id='2018'> +5.3873425e-01 </wgt>
<wgt id='2019'> +5.2467694e-01 </wgt>
<wgt id='2020'> +5.3528762e-01 </wgt>
<wgt id='2021'> +5.3496898e-01 </wgt>
<wgt id='2022'> +5.3394354e-01 </wgt>
</rwgt>
</event>
<event>
 13 1 0.0079112 8.72318800e+01 7.81860800e-03 1.19785100e-01
        2 -1    0    0  501    0 +0.0000000000e+00 +0.0000000000e+00 +5.0400559076e+02 5.0400559076e+02 2.5500000000e-03 0.0000e+00 -1.0000e+00
       21 -1    0    0  502  503 +0.0000000000e+00 +0.0000000000e+00 -7.1855190734e+02 7.1855190734e+02 0.0000000000e+00 0.0000e+00 -1.0000e+00
  8000001  2    1    2  502    0 -4.8050099263e-01 -4.9398927731e+01 -3.1121482969e+02 6.7771261453e+02 5.9999936061e+02 0.0000e+00 0.0000e+00
        1  1    1    2  501    0 +1.0767036534e+01 +4.3713914181e+01 +3.1899638023e+02 3.2215761049e+02 5.0400000000e-03 0.0000e+00 -1.0000e+00
       -5  1    1    2    0  503 -1.0286535541e+01 +5.6850135499e+00 -2.2232786712e+02 2.2268727308e+02 4.6700000000e+00 0.0000e+00 1.0000e+00
        6  2    3    3  502    0 +6.2178598676e+01 +3.5100256565e+01 -4.4669899506e+02 4.8342850309e+02 1.7048436664e+02 0.0000e+00 0.0000e+00
        5  1    6    6  502    0 +5.0484460086e+01 +6.8415384355e+01 -3.0003003235e+02 3.1188006467e+02 4.6700000000e+00 0.0000e+00 -1.0000e+00
       24  2    6    6    0    0 +1.1694138590e+01 -3.3315127790e+01 -1.4666896271e+02 1.7154843842e+02 8.1672709545e+01 0.0000e+00 0.0000e+00
        2  1    8    8  504    0 -1.7690789511e+01 -1.2839307667e+01 -1.3038579506e+02 1.3220539859e+02 2.5500000000e-03 0.0000e+00 -1.0000e+00
       -1  1    8    8    0  504 +2.9384928101e+01 -2.0475820122e+01 -1.6283167647e+01 3.9343039832e+01 5.0400000000e-03 0.0000e+00 1.0000e+00
       23  2    3    3    0    0 -6.2659099669e+01 -8.4499184296e+01 +1.3548416536e+02 1.9428411144e+02 9.1236407079e+01 0.0000e+00 0.0000e+00
       16  1   11   11    0    0 -7.4671370543e+01 -8.8368644678e+01 +8.8573426590e+01 1.4570546606e+02 0.0000000000e+00 0.0000e+00 -1.0000e+00
      -16  1   11   11    0    0 +1.2012270874e+01 +3.8694603815e+00 +4.6910738775e+01 4.8578645387e+01 0.0000000000e+00 0.0000e+00 1.0000e+00
<mgrwt>
<rscale>  1 0.62674277e+02</rscale>
<asrwt>0</asrwt>
<pdfrwt beam="1">  1       21 0.11054645e+00 0.87231881e+02</pdfrwt>
<pdfrwt beam="2">  1        2 0.77539322e-01 0.45030153e+02</pdfrwt>
<totfact> 0.58009170e+02</totfact>
</mgrwt>
<rwgt>
<wgt id='1001'> +5.2878984e-01 </wgt>
<wgt id='1002'> +3.5278299e-01 </wgt>
<wgt id='1003'> +3.5252439e-01 </wgt>
<wgt id='1004'> +4.1868529e-01 </wgt>
<wgt id='1005'> +2.6416316e-01 </wgt>
<wgt id='1006'> +4.7351700e-01 </wgt>
<wgt id='1007'> +3.2358530e-01 </wgt>
<wgt id='1008'> +3.2335942e-01 </wgt>
<wgt id='1009'> +3.8075084e-01 </wgt>
<wgt id='1010'> +2.4535019e-01 </wgt>
<wgt id='1011'> +5.9928181e-01 </wgt>
<wgt id='1012'> +3.8794722e-01 </wgt>
<wgt id='1013'> +3.8764663e-01 </wgt>
<wgt id='1014'> +4.6530157e-01 </wgt>
<wgt id='1015'> +2.8617819e-01 </wgt>
<wgt id='1016'> +4.8784730e-01 </wgt>
<wgt id='1017'> +3.2804699e-01 </wgt>
<wgt id='1018'> +3.2781325e-01 </wgt>
<wgt id='1019'> +3.8764663e-01 </wgt>
<wgt id='1020'> +2.4745059e-01 </wgt>
<wgt id='1021'> +4.3685406e-01 </wgt>
<wgt id='1022'> +3.0089655e-01 </wgt>
<wgt id='1023'> +3.0069268e-01 </wgt>
<wgt id='1024'> +3.5252439e-01 </wgt>
<wgt id='1025'> +2.2982784e-01 </wgt>
<wgt id='1026'> +5.5288129e-01 </wgt>
<wgt id='1027'> +3.6074563e-01 </wgt>
<wgt id='1028'> +3.6047350e-01 </wgt>
<wgt id='1029'> +4.3080708e-01 </wgt>
<wgt id='1030'> +2.6807282e-01 </wgt>
<wgt id='1031'> +5.7570571e-01 </wgt>
<wgt id='1032'> +3.8103784e-01 </wgt>
<wgt id='1033'> +3.8075084e-01 </wgt>
<wgt id='1034'> +4.5438209e-01 </wgt>
<wgt id='1035'> +2.8306843e-01 </wgt>
<wgt id='1036'> +5.1552890e-01 </wgt>
<wgt id='1037'> +3.4950167e-01 </wgt>
<wgt id='1038'> +3.4925065e-01 </wgt>
<wgt id='1039'> +4.1321337e-01 </wgt>
<wgt id='1040'> +2.6290908e-01 </wgt>
<wgt id='1041'> +6.5245195e-01 </wgt>
<wgt id='1042'> +4.1901843e-01 </wgt>
<wgt id='1043'> +4.1868529e-01 </wgt>
<wgt id='1044'> +5.0497284e-01 </wgt>
<wgt id='1045'> +3.0665901e-01 </wgt>
<wgt id='1046'> +5.2878984e-01 </wgt>
<wgt id='1047'> +5.2878984e-01 </wgt>
<wgt id='1048'> +5.2878984e-01 </wgt>
<wgt id='1049'> +5.2706289e-01 </wgt>
<wgt id='1050'> +5.2850842e-01 </wgt>
<wgt id='1051'> +5.2972619e-01 </wgt>
<wgt id='1052'> +5.2932287e-01 </wgt>
<wgt id='1053'> +5.2846595e-01 </wgt>
<wgt id='1054'> +5.2832529e-01 </wgt>
<wgt id='1055'> +5.2736933e-01 </wgt>
<wgt id='1056'> +5.2633517e-01 </wgt>
<wgt id='1057'> +5.3086561e-01 </wgt>
<wgt id='1058'> +5.2821323e-01 </wgt>
<wgt id='1059'> +5.3065197e-01 </wgt>
<wgt id='1060'> +5.2808699e-01 </wgt>
<wgt id='1061'> +5.2925129e-01 </wgt>
<wgt id='1062'> +5.2983092e-01 </wgt>
<wgt id='1063'> +5.2883912e-01 </wgt>
<wgt id='1064'> +5.2994411e-01 </wgt>
<wgt id='1065'> +5.3060398e-01 </wgt>
<wgt id='1066'> +5.2780594e-01 </wgt>
<wgt id='1067'> +5.2367158e-01 </wgt>
<wgt id='1068'> +5.2934838e-01 </wgt>
<wgt id='1069'> +5.2831564e-01 </wgt>
<wgt id='1070'> +5.3029917e-01 </wgt>
<wgt id='1071'> +5.3121911e-01 </wgt>
<wgt id='1072'> +5.2638442e-01 </wgt>
<wgt id='1073'> +5.2880194e-01 </wgt>
<wgt id='1074'> +5.2720653e-01 </wgt>
<wgt id='1075'> +5.2992316e-01 </wgt>
<wgt id='1076'> +5.2987213e-01 </wgt>
<wgt id='1077'> +5.3032238e-01 </wgt>
<wgt id='1078'> +5.2943989e-01 </wgt>
<wgt id='1079'> +5.2929854e-01 </wgt>
<wgt id='1080'> +5.2805555e-01 </wgt>
<wgt id='1081'> +5.2955695e-01 </wgt>
<wgt id='1082'> +5.2811303e-01 </wgt>
<wgt id='1083'> +5.2942388e-01 </wgt>
<wgt id='1084'> +5.2885138e-01 </wgt>
<wgt id='1085'> +5.2843191e-01 </wgt>
<wgt id='1086'> +5.2802459e-01 </wgt>
<wgt id='1087'> +5.2862372e-01 </wgt>
<wgt id='1088'> +5.2976441e-01 </wgt>
<wgt id='1089'> +5.2993747e-01 </wgt>
<wgt id='1090'> +5.3007637e-01 </wgt>
<wgt id='1091'> +5.2757735e-01 </wgt>
<wgt id='1092'> +5.2923545e-01 </wgt>
<wgt id='1093'> +5.2842398e-01 </wgt>
<wgt id='1094'> +5.2861469e-01 </wgt>
<wgt id='1095'> +5.2783203e-01 </wgt>
<wgt id='1096'> +5.2779544e-01 </wgt>
<wgt id='1097'> +5.2912692e-01 </wgt>
<wgt id='1098'> +5.2778008e-01 </wgt>
<wgt id='1099'> +5.2885978e-01 </wgt>
<wgt id='1100'> +5.3031225e-01 </wgt>
<wgt id='1101'> +5.2916996e-01 </wgt>
<wgt id='1102'> +5.2930270e-01 </wgt>
<wgt id='1103'> +5.2879888e-01 </wgt>
<wgt id='1104'> +5.2914186e-01 </wgt>
<wgt id='1105'> +5.2947338e-01 </wgt>
<wgt id='1106'> +5.2950417e-01 </wgt>
<wgt id='1107'> +5.2853143e-01 </wgt>
<wgt id='1108'> +5.2849553e-01 </wgt>
<wgt id='1109'> +5.2899171e-01 </wgt>
<wgt id='1110'> +5.2878926e-01 </wgt>
<wgt id='1111'> +5.2852052e-01 </wgt>
<wgt id='1112'> +5.2828432e-01 </wgt>
<wgt id='1113'> +5.2948857e-01 </wgt>
<wgt id='1114'> +5.2899974e-01 </wgt>
<wgt id='1115'> +5.2863960e-01 </wgt>
<wgt id='1116'> +5.2870488e-01 </wgt>
<wgt id='1117'> +5.2912090e-01 </wgt>
<wgt id='1118'> +5.2871215e-01 </wgt>
<wgt id='1119'> +5.2829885e-01 </wgt>
<wgt id='1120'> +5.2897967e-01 </wgt>
<wgt id='1121'> +5.2836025e-01 </wgt>
<wgt id='1122'> +5.2868385e-01 </wgt>
<wgt id='1123'> +5.2825898e-01 </wgt>
<wgt id='1124'> +5.2852408e-01 </wgt>
<wgt id='1125'> +5.2911289e-01 </wgt>
<wgt id='1126'> +5.2920617e-01 </wgt>
<wgt id='1127'> +5.2851155e-01 </wgt>
<wgt id='1128'> +5.2911482e-01 </wgt>
<wgt id='1129'> +5.2858433e-01 </wgt>
<wgt id='1130'> +5.2845825e-01 </wgt>
<wgt id='1131'> +5.2890174e-01 </wgt>
<wgt id='1132'> +5.2924077e-01 </wgt>
<wgt id='1133'> +5.2906995e-01 </wgt>
<wgt id='1134'> +5.2869377e-01 </wgt>
<wgt id='1135'> +5.2842564e-01 </wgt>
<wgt id='1136'> +5.2881822e-01 </wgt>
<wgt id='1137'> +5.2904381e-01 </wgt>
<wgt id='1138'> +5.2849880e-01 </wgt>
<wgt id='1139'> +5.2876946e-01 </wgt>
<wgt id='1140'> +5.2922197e-01 </wgt>
<wgt id='1141'> +5.2881719e-01 </wgt>
<wgt id='1142'> +5.2908208e-01 </wgt>
<wgt id='1143'> +5.2878850e-01 </wgt>
<wgt id='1144'> +5.2861861e-01 </wgt>
<wgt id='1145'> +5.2887573e-01 </wgt>
<wgt id='1146'> +5.2868255e-01 </wgt>
<wgt id='1147'> +5.2892922e-01 </wgt>
<wgt id='1148'> +5.2878984e-01 </wgt>
<wgt id='1149'> +5.1872876e-01 </wgt>
<wgt id='1150'> +5.2676985e-01 </wgt>
<wgt id='1151'> +5.2145381e-01 </wgt>
<wgt id='1152'> +5.1253444e-01 </wgt>
<wgt id='1153'> +5.1532671e-01 </wgt>
<wgt id='1154'> +5.2482924e-01 </wgt>
<wgt id='1155'> +5.1969888e-01 </wgt>
<wgt id='1156'> +5.2208423e-01 </wgt>
<wgt id='1157'> +5.1773703e-01 </wgt>
<wgt id='1158'> +5.1327504e-01 </wgt>
<wgt id='1159'> +5.1596246e-01 </wgt>
<wgt id='1160'> +5.1062083e-01 </wgt>
<wgt id='1161'> +5.1847802e-01 </wgt>
<wgt id='1162'> +5.0795813e-01 </wgt>
<wgt id='1163'> +5.3008512e-01 </wgt>
<wgt id='1164'> +5.0553880e-01 </wgt>
<wgt id='1165'> +5.1893546e-01 </wgt>
<wgt id='1166'> +5.2193669e-01 </wgt>
<wgt id='1167'> +5.1559575e-01 </wgt>
<wgt id='1168'> +5.2041516e-01 </wgt>
<wgt id='1169'> +5.0919341e-01 </wgt>
<wgt id='1170'> +5.1032154e-01 </wgt>
<wgt id='1171'> +5.0979408e-01 </wgt>
<wgt id='1172'> +5.2015153e-01 </wgt>
<wgt id='1173'> +5.2370315e-01 </wgt>
<wgt id='1174'> +5.2178699e-01 </wgt>
<wgt id='1175'> +5.1997727e-01 </wgt>
<wgt id='1176'> +5.0974410e-01 </wgt>
<wgt id='1177'> +5.1954261e-01 </wgt>
<wgt id='1178'> +5.2504332e-01 </wgt>
<wgt id='1179'> +5.1676201e-01 </wgt>
<wgt id='1180'> +5.1726091e-01 </wgt>
<wgt id='1181'> +4.9812503e-01 </wgt>
<wgt id='1182'> +5.1925459e-01 </wgt>
<wgt id='1183'> +5.3020428e-01 </wgt>
<wgt id='1184'> +4.9818384e-01 </wgt>
<wgt id='1185'> +5.1181711e-01 </wgt>
<wgt id='1186'> +5.0383408e-01 </wgt>
<wgt id='1187'> +5.1843948e-01 </wgt>
<wgt id='1188'> +5.0963220e-01 </wgt>
<wgt id='1189'> +5.2446009e-01 </wgt>
<wgt id='1190'> +5.2332049e-01 </wgt>
<wgt id='1191'> +5.3172366e-01 </wgt>
<wgt id='1192'> +5.2349538e-01 </wgt>
<wgt id='1193'> +5.3606513e-01 </wgt>
<wgt id='1194'> +5.2416896e-01 </wgt>
<wgt id='1195'> +5.2063958e-01 </wgt>
<wgt id='1196'> +5.2745671e-01 </wgt>
<wgt id='1197'> +5.3996047e-01 </wgt>
<wgt id='1198'> +5.1273717e-01 </wgt>
<wgt id='1199'> +5.1206919e-01 </wgt>
<wgt id='1200'> +5.1509890e-01 </wgt>
<wgt id='1201'> +5.1487192e-01 </wgt>
<wgt id='1202'> +5.2378256e-01 </wgt>
<wgt id='1203'> +5.1237344e-01 </wgt>
<wgt id='1204'> +5.3771164e-01 </wgt>
<wgt id='1205'> +5.2085052e-01 </wgt>
<wgt id='1206'> +5.1537676e-01 </wgt>
<wgt id='1207'> +5.3335780e-01 </wgt>
<wgt id='1208'> +5.1289629e-01 </wgt>
<wgt id='1209'> +5.1993841e-01 </wgt>
<wgt id='1210'> +5.0989629e-01 </wgt>
<wgt id='1211'> +5.1943114e-01 </wgt>
<wgt id='1212'> +5.1868855e-01 </wgt>
<wgt id='1213'> +5.3117177e-01 </wgt>
<wgt id='1214'> +5.1477186e-01 </wgt>
<wgt id='1215'> +5.3879701e-01 </wgt>
<wgt id='1216'> +5.2536252e-01 </wgt>
<wgt id='1217'> +5.1255585e-01 </wgt>
<wgt id='1218'> +5.2771530e-01 </wgt>
<wgt id='1219'> +5.2685046e-01 </wgt>
<wgt id='1220'> +5.1014342e-01 </wgt>
<wgt id='1221'> +5.1943564e-01 </wgt>
<wgt id='1222'> +5.0636697e-01 </wgt>
<wgt id='1223'> +5.0007603e-01 </wgt>
<wgt id='1224'> +5.1535565e-01 </wgt>
<wgt id='1225'> +5.3050100e-01 </wgt>
<wgt id='1226'> +5.2022056e-01 </wgt>
<wgt id='1227'> +5.0906315e-01 </wgt>
<wgt id='1228'> +5.1579964e-01 </wgt>
<wgt id='1229'> +5.3602570e-01 </wgt>
<wgt id='1230'> +5.2413276e-01 </wgt>
<wgt id='1231'> +5.1893546e-01 </wgt>
<wgt id='1232'> +5.0824913e-01 </wgt>
<wgt id='1233'> +5.1135396e-01 </wgt>
<wgt id='1234'> +5.0624745e-01 </wgt>
<wgt id='1235'> +5.3903830e-01 </wgt>
<wgt id='1236'> +5.0559176e-01 </wgt>
<wgt id='1237'> +5.1466953e-01 </wgt>
<wgt id='1238'> +5.0563980e-01 </wgt>
<wgt id='1239'> +5.3124757e-01 </wgt>
<wgt id='1240'> +5.3153025e-01 </wgt>
<wgt id='1241'> +5.1572474e-01 </wgt>
<wgt id='1242'> +5.1261417e-01 </wgt>
<wgt id='1243'> +5.2608619e-01 </wgt>
<wgt id='1244'> +5.1201856e-01 </wgt>
<wgt id='1245'> +5.2172172e-01 </wgt>
<wgt id='1246'> +5.3402143e-01 </wgt>
<wgt id='1247'> +5.2126622e-01 </wgt>
<wgt id='1248'> +5.1134424e-01 </wgt>
<wgt id='1249'> +5.1691186e-01 </wgt>
<wgt id='1250'> +5.2652150e-01 </wgt>
<wgt id='1251'> +5.2097837e-01 </wgt>
<wgt id='1252'> +5.4520874e-01 </wgt>
<wgt id='1253'> +5.3823413e-01 </wgt>
<wgt id='1254'> +5.2353839e-01 </wgt>
<wgt id='1255'> +5.4357803e-01 </wgt>
<wgt id='1256'> +5.4481197e-01 </wgt>
<wgt id='1257'> +5.4284502e-01 </wgt>
<wgt id='1258'> +5.4216064e-01 </wgt>
<wgt id='1259'> +5.4429388e-01 </wgt>
<wgt id='1260'> +5.4388518e-01 </wgt>
<wgt id='1261'> +5.4315695e-01 </wgt>
<wgt id='1262'> +5.4388533e-01 </wgt>
<wgt id='1263'> +5.4337894e-01 </wgt>
<wgt id='1264'> +5.4381850e-01 </wgt>
<wgt id='1265'> +5.4341090e-01 </wgt>
<wgt id='1266'> +5.4448658e-01 </wgt>
<wgt id='1267'> +5.4267341e-01 </wgt>
<wgt id='1268'> +5.4822749e-01 </wgt>
<wgt id='1269'> +5.3889888e-01 </wgt>
<wgt id='1270'> +5.3843991e-01 </wgt>
<wgt id='1271'> +5.4903504e-01 </wgt>
<wgt id='1272'> +5.4181745e-01 </wgt>
<wgt id='1273'> +5.4490548e-01 </wgt>
<wgt id='1274'> +5.4458642e-01 </wgt>
<wgt id='1275'> +5.4246242e-01 </wgt>
<wgt id='1276'> +5.4758471e-01 </wgt>
<wgt id='1277'> +5.3947427e-01 </wgt>
<wgt id='1278'> +5.4022310e-01 </wgt>
<wgt id='1279'> +5.4618844e-01 </wgt>
<wgt id='1280'> +5.4200257e-01 </wgt>
<wgt id='1281'> +5.4790147e-01 </wgt>
<wgt id='1282'> +5.4447342e-01 </wgt>
<wgt id='1283'> +5.4183109e-01 </wgt>
<wgt id='1284'> +5.4454986e-01 </wgt>
<wgt id='1285'> +5.4227994e-01 </wgt>
<wgt id='1286'> +5.4199612e-01 </wgt>
<wgt id='1287'> +5.4366093e-01 </wgt>
<wgt id='1288'> +5.4517943e-01 </wgt>
<wgt id='1289'> +5.4287492e-01 </wgt>
<wgt id='1290'> +5.4431888e-01 </wgt>
<wgt id='1291'> +5.4331466e-01 </wgt>
<wgt id='1292'> +5.4755770e-01 </wgt>
<wgt id='1293'> +5.3882387e-01 </wgt>
<wgt id='1294'> +5.4215168e-01 </wgt>
<wgt id='1295'> +5.4227034e-01 </wgt>
<wgt id='1296'> +5.4458244e-01 </wgt>
<wgt id='1297'> +5.4607475e-01 </wgt>
<wgt id='1298'> +5.4335934e-01 </wgt>
<wgt id='1299'> +5.4469111e-01 </wgt>
<wgt id='1300'> +5.4445034e-01 </wgt>
<wgt id='1301'> +5.4345688e-01 </wgt>
<wgt id='1302'> +5.4624788e-01 </wgt>
<wgt id='1303'> +5.4336101e-01 </wgt>
<wgt id='1304'> +5.4539560e-01 </wgt>
<wgt id='1305'> +5.4472683e-01 </wgt>
<wgt id='1306'> +5.4437407e-01 </wgt>
<wgt id='1307'> +5.4540054e-01 </wgt>
<wgt id='1308'> +5.4405671e-01 </wgt>
<wgt id='1309'> +5.4459204e-01 </wgt>
<wgt id='1310'> +5.4457174e-01 </wgt>
<wgt id='1311'> +5.4803395e-01 </wgt>
<wgt id='1312'> +5.4331857e-01 </wgt>
<wgt id='1313'> +5.3982628e-01 </wgt>
<wgt id='1314'> +5.5044703e-01 </wgt>
<wgt id='1315'> +5.4575166e-01 </wgt>
<wgt id='1316'> +5.4345707e-01 </wgt>
<wgt id='1317'> +5.4819724e-01 </wgt>
<wgt id='1318'> +5.3860390e-01 </wgt>
<wgt id='1319'> +5.4077384e-01 </wgt>
<wgt id='1320'> +5.4732070e-01 </wgt>
<wgt id='1321'> +5.4081276e-01 </wgt>
<wgt id='1322'> +5.4640513e-01 </wgt>
<wgt id='1323'> +5.4305363e-01 </wgt>
<wgt id='1324'> +5.4619402e-01 </wgt>
<wgt id='1325'> +5.4415757e-01 </wgt>
<wgt id='1326'> +5.4497793e-01 </wgt>
<wgt id='1327'> +5.4482883e-01 </wgt>
<wgt id='1328'> +5.4448500e-01 </wgt>
<wgt id='1329'> +5.4539238e-01 </wgt>
<wgt id='1330'> +5.4415750e-01 </wgt>
<wgt id='1331'> +5.4280052e-01 </wgt>
<wgt id='1332'> +5.4533204e-01 </wgt>
<wgt id='1333'> +5.4703978e-01 </wgt>
<wgt id='1334'> +5.4517652e-01 </wgt>
<wgt id='1335'> +5.4517943e-01 </wgt>
<wgt id='1336'> +5.4440559e-01 </wgt>
<wgt id='1337'> +5.4458244e-01 </wgt>
<wgt id='1338'> +5.4451520e-01 </wgt>
<wgt id='1339'> +5.4451388e-01 </wgt>
<wgt id='1340'> +5.4449191e-01 </wgt>
<wgt id='1341'> +5.4441909e-01 </wgt>
<wgt id='1342'> +5.4438195e-01 </wgt>
<wgt id='1343'> +5.4433984e-01 </wgt>
<wgt id='1344'> +5.3154314e-01 </wgt>
<wgt id='1345'> +5.3353853e-01 </wgt>
<wgt id='1346'> +5.2955360e-01 </wgt>
<wgt id='1347'> +5.3219023e-01 </wgt>
<wgt id='1348'> +5.3103590e-01 </wgt>
<wgt id='1349'> +5.2998633e-01 </wgt>
<wgt id='1350'> +5.3285410e-01 </wgt>
<wgt id='1351'> +5.3151479e-01 </wgt>
<wgt id='1352'> +5.3156974e-01 </wgt>
<wgt id='1353'> +5.3283038e-01 </wgt>
<wgt id='1354'> +5.3062850e-01 </wgt>
<wgt id='1355'> +5.3148245e-01 </wgt>
<wgt id='1356'> +5.3157937e-01 </wgt>
<wgt id='1357'> +5.3168542e-01 </wgt>
<wgt id='1358'> +5.3144607e-01 </wgt>
<wgt id='1359'> +5.3003529e-01 </wgt>
<wgt id='1360'> +5.3528620e-01 </wgt>
<wgt id='1361'> +5.2437101e-01 </wgt>
<wgt id='1362'> +5.3796356e-01 </wgt>
<wgt id='1363'> +5.2975634e-01 </wgt>
<wgt id='1364'> +5.3375351e-01 </wgt>
<wgt id='1365'> +5.2961520e-01 </wgt>
<wgt id='1366'> +5.3255304e-01 </wgt>
<wgt id='1367'> +5.2749525e-01 </wgt>
<wgt id='1368'> +5.3345313e-01 </wgt>
<wgt id='1369'> +5.3444059e-01 </wgt>
<wgt id='1370'> +5.2884056e-01 </wgt>
<wgt id='1371'> +5.3163328e-01 </wgt>
<wgt id='1372'> +5.3142786e-01 </wgt>
<wgt id='1373'> +5.3424259e-01 </wgt>
<wgt id='1374'> +5.3146557e-01 </wgt>
<wgt id='1375'> +5.3264948e-01 </wgt>
<wgt id='1376'> +5.3130305e-01 </wgt>
<wgt id='1377'> +5.3144722e-01 </wgt>
<wgt id='1378'> +5.3197967e-01 </wgt>
<wgt id='1379'> +5.3305393e-01 </wgt>
<wgt id='1380'> +5.2956682e-01 </wgt>
<wgt id='1381'> +5.2914085e-01 </wgt>
<wgt id='1382'> +5.3525343e-01 </wgt>
<wgt id='1383'> +5.3119903e-01 </wgt>
<wgt id='1384'> +5.3343828e-01 </wgt>
<wgt id='1385'> +5.3154314e-01 </wgt>
<wgt id='1386'> +5.3154491e-01 </wgt>
<wgt id='1387'> +5.3155182e-01 </wgt>
<wgt id='1388'> +5.3146709e-01 </wgt>
<wgt id='1389'> +5.3133013e-01 </wgt>
<wgt id='1390'> +5.3123662e-01 </wgt>
<wgt id='1391'> +5.3106447e-01 </wgt>
<wgt id='1392'> +5.5722198e-01 </wgt>
<wgt id='1393'> +5.5690816e-01 </wgt>
<wgt id='1394'> +5.5756280e-01 </wgt>
<wgt id='1395'> +5.5774296e-01 </wgt>
<wgt id='1396'> +5.5684733e-01 </wgt>
<wgt id='1397'> +5.5879308e-01 </wgt>
<wgt id='1398'> +5.5571353e-01 </wgt>
<wgt id='1399'> +5.5672126e-01 </wgt>
<wgt id='1400'> +5.5784602e-01 </wgt>
<wgt id='1401'> +5.5572047e-01 </wgt>
<wgt id='1402'> +5.5907900e-01 </wgt>
<wgt id='1403'> +5.5709919e-01 </wgt>
<wgt id='1404'> +5.5747394e-01 </wgt>
<wgt id='1405'> +5.5623035e-01 </wgt>
<wgt id='1406'> +5.5860957e-01 </wgt>
<wgt id='1407'> +5.5759703e-01 </wgt>
<wgt id='1408'> +5.5696852e-01 </wgt>
<wgt id='1409'> +5.5881009e-01 </wgt>
<wgt id='1410'> +5.5536510e-01 </wgt>
<wgt id='1411'> +5.5501398e-01 </wgt>
<wgt id='1412'> +5.5890670e-01 </wgt>
<wgt id='1413'> +5.5602270e-01 </wgt>
<wgt id='1414'> +5.5848758e-01 </wgt>
<wgt id='1415'> +5.6046259e-01 </wgt>
<wgt id='1416'> +5.5387890e-01 </wgt>
<wgt id='1417'> +5.5188323e-01 </wgt>
<wgt id='1418'> +5.6376037e-01 </wgt>
<wgt id='1419'> +5.5810944e-01 </wgt>
<wgt id='1420'> +5.5613368e-01 </wgt>
<wgt id='1421'> +5.5489297e-01 </wgt>
<wgt id='1422'> +5.6005950e-01 </wgt>
<wgt id='1423'> +5.4977208e-01 </wgt>
<wgt id='1424'> +5.6298164e-01 </wgt>
<wgt id='1425'> +5.5787526e-01 </wgt>
<wgt id='1426'> +5.5666972e-01 </wgt>
<wgt id='1427'> +5.5712151e-01 </wgt>
<wgt id='1428'> +5.5599871e-01 </wgt>
<wgt id='1429'> +5.5601787e-01 </wgt>
<wgt id='1430'> +5.5821657e-01 </wgt>
<wgt id='1431'> +5.5570376e-01 </wgt>
<wgt id='1432'> +5.5860766e-01 </wgt>
<wgt id='1433'> +5.5380196e-01 </wgt>
<wgt id='1434'> +5.6236812e-01 </wgt>
<wgt id='1435'> +5.5727323e-01 </wgt>
<wgt id='1436'> +5.5744474e-01 </wgt>
<wgt id='1437'> +5.5595568e-01 </wgt>
<wgt id='1438'> +5.6062744e-01 </wgt>
<wgt id='1439'> +5.6046700e-01 </wgt>
<wgt id='1440'> +5.5503377e-01 </wgt>
<wgt id='1441'> +5.5757622e-01 </wgt>
<wgt id='1442'> +5.5720775e-01 </wgt>
<wgt id='1443'> +5.4695812e-01 </wgt>
<wgt id='1444'> +5.4663446e-01 </wgt>
<wgt id='1445'> +5.4730592e-01 </wgt>
<wgt id='1446'> +5.4749750e-01 </wgt>
<wgt id='1447'> +5.4659768e-01 </wgt>
<wgt id='1448'> +5.4857333e-01 </wgt>
<wgt id='1449'> +5.4545679e-01 </wgt>
<wgt id='1450'> +5.4640852e-01 </wgt>
<wgt id='1451'> +5.4756693e-01 </wgt>
<wgt id='1452'> +5.4540698e-01 </wgt>
<wgt id='1453'> +5.4846871e-01 </wgt>
<wgt id='1454'> +5.4670775e-01 </wgt>
<wgt id='1455'> +5.4749504e-01 </wgt>
<wgt id='1456'> +5.4581278e-01 </wgt>
<wgt id='1457'> +5.4900061e-01 </wgt>
<wgt id='1458'> +5.4751225e-01 </wgt>
<wgt id='1459'> +5.4665209e-01 </wgt>
<wgt id='1460'> +5.4813212e-01 </wgt>
<wgt id='1461'> +5.4549847e-01 </wgt>
<wgt id='1462'> +5.4448125e-01 </wgt>
<wgt id='1463'> +5.4908510e-01 </wgt>
<wgt id='1464'> +5.4613820e-01 </wgt>
<wgt id='1465'> +5.4803033e-01 </wgt>
<wgt id='1466'> +5.5201663e-01 </wgt>
<wgt id='1467'> +5.4348397e-01 </wgt>
<wgt id='1468'> +5.5331942e-01 </wgt>
<wgt id='1469'> +5.4070440e-01 </wgt>
<wgt id='1470'> +5.4796964e-01 </wgt>
<wgt id='1471'> +5.4600464e-01 </wgt>
<wgt id='1472'> +5.4526680e-01 </wgt>
<wgt id='1473'> +5.4905069e-01 </wgt>
<wgt id='1474'> +5.4175554e-01 </wgt>
<wgt id='1475'> +5.5294853e-01 </wgt>
<wgt id='1476'> +5.4887588e-01 </wgt>
<wgt id='1477'> +5.4547256e-01 </wgt>
<wgt id='1478'> +5.4699564e-01 </wgt>
<wgt id='1479'> +5.4547440e-01 </wgt>
<wgt id='1480'> +5.4589604e-01 </wgt>
<wgt id='1481'> +5.4775641e-01 </wgt>
<wgt id='1482'> +5.4552760e-01 </wgt>
<wgt id='1483'> +5.4847232e-01 </wgt>
<wgt id='1484'> +5.4348540e-01 </wgt>
<wgt id='1485'> +5.5193701e-01 </wgt>
<wgt id='1486'> +5.4760517e-01 </wgt>
<wgt id='1487'> +5.4694577e-01 </wgt>
<wgt id='1488'> +5.4550123e-01 </wgt>
<wgt id='1489'> +5.5068321e-01 </wgt>
<wgt id='1490'> +5.5048148e-01 </wgt>
<wgt id='1491'> +5.4522457e-01 </wgt>
<wgt id='1492'> +5.4772508e-01 </wgt>
<wgt id='1493'> +5.4692283e-01 </wgt>
<wgt id='1494'> +5.3436626e-01 </wgt>
<wgt id='1495'> +5.2017012e-01 </wgt>
<wgt id='1496'> +5.2498854e-01 </wgt>
<wgt id='1497'> +5.2954216e-01 </wgt>
<wgt id='1498'> +5.3943485e-01 </wgt>
<wgt id='1499'> +5.3442494e-01 </wgt>
<wgt id='1500'> +5.3857276e-01 </wgt>
<wgt id='1501'> +5.3799211e-01 </wgt>
<wgt id='1502'> +5.3729544e-01 </wgt>
<wgt id='1503'> +5.3644865e-01 </wgt>
<wgt id='1504'> +5.3551752e-01 </wgt>
<wgt id='1505'> +5.3325305e-01 </wgt>
<wgt id='1506'> +5.3205599e-01 </wgt>
<wgt id='1507'> +5.3079340e-01 </wgt>
<wgt id='1508'> +5.3442494e-01 </wgt>
<wgt id='1509'> +5.3462271e-01 </wgt>
<wgt id='1510'> +5.3450290e-01 </wgt>
<wgt id='1511'> +5.3440695e-01 </wgt>
<wgt id='1512'> +5.3438534e-01 </wgt>
<wgt id='1513'> +5.3315775e-01 </wgt>
<wgt id='1514'> +5.3261774e-01 </wgt>
<wgt id='1515'> +5.3385555e-01 </wgt>
<wgt id='1516'> +5.3363273e-01 </wgt>
<wgt id='1517'> +5.3268872e-01 </wgt>
<wgt id='1518'> +5.3436118e-01 </wgt>
<wgt id='1519'> +5.3267618e-01 </wgt>
<wgt id='1520'> +5.3348550e-01 </wgt>
<wgt id='1521'> +5.3282757e-01 </wgt>
<wgt id='1522'> +5.3240760e-01 </wgt>
<wgt id='1523'> +5.3387783e-01 </wgt>
<wgt id='1524'> +5.3537926e-01 </wgt>
<wgt id='1525'> +5.3219867e-01 </wgt>
<wgt id='1526'> +5.3254464e-01 </wgt>
<wgt id='1527'> +5.3390943e-01 </wgt>
<wgt id='1528'> +5.3267332e-01 </wgt>
<wgt id='1529'> +5.3368756e-01 </wgt>
<wgt id='1530'> +5.3372517e-01 </wgt>
<wgt id='1531'> +5.3281827e-01 </wgt>
<wgt id='1532'> +5.3593961e-01 </wgt>
<wgt id='1533'> +5.2935325e-01 </wgt>
<wgt id='1534'> +5.3187903e-01 </wgt>
<wgt id='1535'> +5.3404924e-01 </wgt>
<wgt id='1536'> +5.3285655e-01 </wgt>
<wgt id='1537'> +5.3347239e-01 </wgt>
<wgt id='1538'> +5.3064087e-01 </wgt>
<wgt id='1539'> +5.3918436e-01 </wgt>
<wgt id='1540'> +5.3302930e-01 </wgt>
<wgt id='1541'> +5.3266613e-01 </wgt>
<wgt id='1542'> +5.3518795e-01 </wgt>
<wgt id='1543'> +5.2824158e-01 </wgt>
<wgt id='1544'> +5.3038261e-01 </wgt>
<wgt id='1545'> +5.3866780e-01 </wgt>
<wgt id='1546'> +5.3345791e-01 </wgt>
<wgt id='1547'> +5.3248109e-01 </wgt>
<wgt id='1548'> +5.3188987e-01 </wgt>
<wgt id='1549'> +5.3332177e-01 </wgt>
<wgt id='1550'> +5.3291371e-01 </wgt>
<wgt id='1551'> +5.3331295e-01 </wgt>
<wgt id='1552'> +5.3120924e-01 </wgt>
<wgt id='1553'> +5.3451892e-01 </wgt>
<wgt id='1554'> +5.3579038e-01 </wgt>
<wgt id='1555'> +5.2934621e-01 </wgt>
<wgt id='1556'> +5.3363624e-01 </wgt>
<wgt id='1557'> +5.3016171e-01 </wgt>
<wgt id='1558'> +5.3025022e-01 </wgt>
<wgt id='1559'> +5.3620296e-01 </wgt>
<wgt id='1560'> +5.3703837e-01 </wgt>
<wgt id='1561'> +5.3148565e-01 </wgt>
<wgt id='1562'> +5.3150306e-01 </wgt>
<wgt id='1563'> +5.3465515e-01 </wgt>
<wgt id='1564'> +5.3315775e-01 </wgt>
<wgt id='1565'> +5.2664093e-01 </wgt>
<wgt id='1566'> +5.3854095e-01 </wgt>
<wgt id='1567'> +5.3236357e-01 </wgt>
<wgt id='1568'> +5.3728351e-01 </wgt>
<wgt id='1569'> +5.3653532e-01 </wgt>
<wgt id='1570'> +5.3558868e-01 </wgt>
<wgt id='1571'> +5.3444023e-01 </wgt>
<wgt id='1572'> +5.3352974e-01 </wgt>
<wgt id='1573'> +5.3083372e-01 </wgt>
<wgt id='1574'> +5.2918533e-01 </wgt>
<wgt id='1575'> +5.2781733e-01 </wgt>
<wgt id='1576'> +5.3236357e-01 </wgt>
<wgt id='1577'> +5.3225643e-01 </wgt>
<wgt id='1578'> +5.3224579e-01 </wgt>
<wgt id='1579'> +5.3247046e-01 </wgt>
<wgt id='1580'> +5.3262026e-01 </wgt>
<wgt id='1581'> +5.3229292e-01 </wgt>
<wgt id='1582'> +5.3235494e-01 </wgt>
<wgt id='1583'> +5.3181398e-01 </wgt>
<wgt id='1584'> +5.3103166e-01 </wgt>
<wgt id='1585'> +5.3255426e-01 </wgt>
<wgt id='1586'> +5.2434366e-01 </wgt>
<wgt id='1587'> +5.3149309e-01 </wgt>
<wgt id='1588'> +5.3273767e-01 </wgt>
<wgt id='1589'> +5.3215825e-01 </wgt>
<wgt id='1590'> +5.3663566e-01 </wgt>
<wgt id='1591'> +5.3142800e-01 </wgt>
<wgt id='1592'> +5.2365764e-01 </wgt>
<wgt id='1593'> +5.3295405e-01 </wgt>
<wgt id='1594'> +5.2673382e-01 </wgt>
<wgt id='1595'> +5.3257568e-01 </wgt>
<wgt id='1596'> +5.3508646e-01 </wgt>
<wgt id='1597'> +5.3439259e-01 </wgt>
<wgt id='1598'> +5.2971161e-01 </wgt>
<wgt id='1599'> +5.3135439e-01 </wgt>
<wgt id='1600'> +5.3366232e-01 </wgt>
<wgt id='1601'> +5.3034541e-01 </wgt>
<wgt id='1602'> +5.3330420e-01 </wgt>
<wgt id='1603'> +5.3273155e-01 </wgt>
<wgt id='1604'> +5.3125465e-01 </wgt>
<wgt id='1605'> +5.3176914e-01 </wgt>
<wgt id='1606'> +5.3257142e-01 </wgt>
<wgt id='1607'> +5.3284620e-01 </wgt>
<wgt id='1608'> +5.3083604e-01 </wgt>
<wgt id='1609'> +5.3245195e-01 </wgt>
<wgt id='1610'> +5.3208847e-01 </wgt>
<wgt id='1611'> +5.3493348e-01 </wgt>
<wgt id='1612'> +5.2589243e-01 </wgt>
<wgt id='1613'> +5.2606845e-01 </wgt>
<wgt id='1614'> +5.2584716e-01 </wgt>
<wgt id='1615'> +5.2540853e-01 </wgt>
<wgt id='1616'> +5.2668892e-01 </wgt>
<wgt id='1617'> +5.2659906e-01 </wgt>
<wgt id='1618'> +5.2608888e-01 </wgt>
<wgt id='1619'> +5.2671576e-01 </wgt>
<wgt id='1620'> +5.2633822e-01 </wgt>
<wgt id='1621'> +5.2643210e-01 </wgt>
<wgt id='1622'> +5.2560318e-01 </wgt>
<wgt id='1623'> +5.2403523e-01 </wgt>
<wgt id='1624'> +5.2443816e-01 </wgt>
<wgt id='1625'> +5.2341510e-01 </wgt>
<wgt id='1626'> +5.2515170e-01 </wgt>
<wgt id='1627'> +5.2438612e-01 </wgt>
<wgt id='1628'> +5.2684381e-01 </wgt>
<wgt id='1629'> +5.2559468e-01 </wgt>
<wgt id='1630'> +5.2363436e-01 </wgt>
<wgt id='1631'> +5.2643491e-01 </wgt>
<wgt id='1632'> +5.2342926e-01 </wgt>
<wgt id='1633'> +5.2790606e-01 </wgt>
<wgt id='1634'> +5.2383587e-01 </wgt>
<wgt id='1635'> +5.2392477e-01 </wgt>
<wgt id='1636'> +5.2480082e-01 </wgt>
<wgt id='1637'> +5.2362991e-01 </wgt>
<wgt id='1638'> +5.2342950e-01 </wgt>
<wgt id='1639'> +5.2588947e-01 </wgt>
<wgt id='1640'> +5.2649436e-01 </wgt>
<wgt id='1641'> +5.2625546e-01 </wgt>
<wgt id='1642'> +5.2713496e-01 </wgt>
<wgt id='1643'> +5.2570529e-01 </wgt>
<wgt id='1644'> +5.2648873e-01 </wgt>
<wgt id='1645'> +5.2589854e-01 </wgt>
<wgt id='1646'> +5.2612411e-01 </wgt>
<wgt id='1647'> +5.2488945e-01 </wgt>
<wgt id='1648'> +5.2400905e-01 </wgt>
<wgt id='1649'> +5.2606374e-01 </wgt>
<wgt id='1650'> +5.2529210e-01 </wgt>
<wgt id='1651'> +5.2654221e-01 </wgt>
<wgt id='1652'> +5.2480329e-01 </wgt>
<wgt id='1653'> +5.2463857e-01 </wgt>
<wgt id='1654'> +5.2427293e-01 </wgt>
<wgt id='1655'> +5.2756559e-01 </wgt>
<wgt id='1656'> +5.2657921e-01 </wgt>
<wgt id='1657'> +5.2499924e-01 </wgt>
<wgt id='1658'> +5.2804901e-01 </wgt>
<wgt id='1659'> +5.2835805e-01 </wgt>
<wgt id='1660'> +5.2539222e-01 </wgt>
<wgt id='1661'> +5.2557471e-01 </wgt>
<wgt id='1662'> +5.2565761e-01 </wgt>
<wgt id='1663'> +5.2613800e-01 </wgt>
<wgt id='1664'> +5.2490323e-01 </wgt>
<wgt id='1665'> +5.2557407e-01 </wgt>
<wgt id='1666'> +5.2601794e-01 </wgt>
<wgt id='1667'> +5.2599482e-01 </wgt>
<wgt id='1668'> +5.2616292e-01 </wgt>
<wgt id='1669'> +5.2544529e-01 </wgt>
<wgt id='1670'> +5.2633002e-01 </wgt>
<wgt id='1671'> +5.2542828e-01 </wgt>
<wgt id='1672'> +5.2725127e-01 </wgt>
<wgt id='1673'> +5.2608472e-01 </wgt>
<wgt id='1674'> +5.2603582e-01 </wgt>
<wgt id='1675'> +5.2604176e-01 </wgt>
<wgt id='1676'> +5.2565257e-01 </wgt>
<wgt id='1677'> +5.2620226e-01 </wgt>
<wgt id='1678'> +5.2516737e-01 </wgt>
<wgt id='1679'> +5.2598191e-01 </wgt>
<wgt id='1680'> +5.2634802e-01 </wgt>
<wgt id='1681'> +5.2673238e-01 </wgt>
<wgt id='1682'> +5.2547596e-01 </wgt>
<wgt id='1683'> +5.2520068e-01 </wgt>
<wgt id='1684'> +5.2600180e-01 </wgt>
<wgt id='1685'> +5.2655178e-01 </wgt>
<wgt id='1686'> +5.2557709e-01 </wgt>
<wgt id='1687'> +5.2608107e-01 </wgt>
<wgt id='1688'> +5.2629094e-01 </wgt>
<wgt id='1689'> +5.2560308e-01 </wgt>
<wgt id='1690'> +5.2573707e-01 </wgt>
<wgt id='1691'> +5.2566043e-01 </wgt>
<wgt id='1692'> +5.2627358e-01 </wgt>
<wgt id='1693'> +5.2602514e-01 </wgt>
<wgt id='1694'> +5.2614913e-01 </wgt>
<wgt id='1695'> +5.2552023e-01 </wgt>
<wgt id='1696'> +5.2637310e-01 </wgt>
<wgt id='1697'> +5.2568733e-01 </wgt>
<wgt id='1698'> +5.2601673e-01 </wgt>
<wgt id='1699'> +5.2534260e-01 </wgt>
<wgt id='1700'> +5.2634824e-01 </wgt>
<wgt id='1701'> +5.2572913e-01 </wgt>
<wgt id='1702'> +5.2568066e-01 </wgt>
<wgt id='1703'> +5.2538418e-01 </wgt>
<wgt id='1704'> +5.2579202e-01 </wgt>
<wgt id='1705'> +5.2603803e-01 </wgt>
<wgt id='1706'> +5.2615015e-01 </wgt>
<wgt id='1707'> +5.2617889e-01 </wgt>
<wgt id='1708'> +5.2595822e-01 </wgt>
<wgt id='1709'> +5.2589159e-01 </wgt>
<wgt id='1710'> +5.2568876e-01 </wgt>
<wgt id='1711'> +5.2601757e-01 </wgt>
<wgt id='1712'> +5.2609769e-01 </wgt>
<wgt id='1713'> +5.1629985e-01 </wgt>
<wgt id='1714'> +5.3769346e-01 </wgt>
<wgt id='1715'> +5.3185127e-01 </wgt>
<wgt id='1716'> +5.2544200e-01 </wgt>
<wgt id='1717'> +5.5311411e-01 </wgt>
<wgt id='1718'> +5.3081012e-01 </wgt>
<wgt id='1719'> +5.2411803e-01 </wgt>
<wgt id='1720'> +5.4387004e-01 </wgt>
<wgt id='1721'> +5.4349128e-01 </wgt>
<wgt id='1722'> +5.3318772e-01 </wgt>
<wgt id='1723'> +5.3266773e-01 </wgt>
<wgt id='1724'> +5.2438808e-01 </wgt>
<wgt id='1725'> +5.2905697e-01 </wgt>
<wgt id='1726'> +5.1440851e-01 </wgt>
<wgt id='1727'> +5.3209645e-01 </wgt>
<wgt id='1728'> +5.3023245e-01 </wgt>
<wgt id='1729'> +5.2854473e-01 </wgt>
<wgt id='1730'> +5.2285613e-01 </wgt>
<wgt id='1731'> +5.2004045e-01 </wgt>
<wgt id='1732'> +5.2421154e-01 </wgt>
<wgt id='1733'> +5.3015610e-01 </wgt>
<wgt id='1734'> +5.5293457e-01 </wgt>
<wgt id='1735'> +5.1000258e-01 </wgt>
<wgt id='1736'> +5.4301079e-01 </wgt>
<wgt id='1737'> +5.2620524e-01 </wgt>
<wgt id='1738'> +5.5270011e-01 </wgt>
<wgt id='1739'> +5.4093122e-01 </wgt>
<wgt id='1740'> +5.4237558e-01 </wgt>
<wgt id='1741'> +5.2464728e-01 </wgt>
<wgt id='1742'> +5.2386179e-01 </wgt>
<wgt id='1743'> +5.3064192e-01 </wgt>
<wgt id='1744'> +5.3282080e-01 </wgt>
<wgt id='1745'> +5.3151090e-01 </wgt>
<wgt id='1746'> +5.2850799e-01 </wgt>
<wgt id='1747'> +5.3842872e-01 </wgt>
<wgt id='1748'> +5.2094786e-01 </wgt>
<wgt id='1749'> +5.2354745e-01 </wgt>
<wgt id='1750'> +5.2010563e-01 </wgt>
<wgt id='1751'> +5.4000347e-01 </wgt>
<wgt id='1752'> +5.5106455e-01 </wgt>
<wgt id='1753'> +5.3034415e-01 </wgt>
<wgt id='1754'> +5.1911252e-01 </wgt>
<wgt id='1755'> +5.2481252e-01 </wgt>
<wgt id='1756'> +5.5935569e-01 </wgt>
<wgt id='1757'> +5.1713976e-01 </wgt>
<wgt id='1758'> +5.3583207e-01 </wgt>
<wgt id='1759'> +5.3870740e-01 </wgt>
<wgt id='1760'> +5.1970882e-01 </wgt>
<wgt id='1761'> +5.1940003e-01 </wgt>
<wgt id='1762'> +5.3209645e-01 </wgt>
<wgt id='1763'> +5.3936076e-01 </wgt>
<wgt id='1764'> +5.3563566e-01 </wgt>
<wgt id='1765'> +5.4392967e-01 </wgt>
<wgt id='1766'> +5.3281281e-01 </wgt>
<wgt id='1767'> +5.1833655e-01 </wgt>
<wgt id='1768'> +5.0349019e-01 </wgt>
<wgt id='1769'> +5.4351266e-01 </wgt>
<wgt id='1770'> +5.2362709e-01 </wgt>
<wgt id='1771'> +5.2440059e-01 </wgt>
<wgt id='1772'> +5.2766121e-01 </wgt>
<wgt id='1773'> +5.3501929e-01 </wgt>
<wgt id='1774'> +5.3372329e-01 </wgt>
<wgt id='1775'> +5.3827162e-01 </wgt>
<wgt id='1776'> +5.3700250e-01 </wgt>
<wgt id='1777'> +5.3472018e-01 </wgt>
<wgt id='1778'> +5.3306277e-01 </wgt>
<wgt id='1779'> +5.3144041e-01 </wgt>
<wgt id='1780'> +5.5200261e-01 </wgt>
<wgt id='1781'> +5.3400110e-01 </wgt>
<wgt id='1782'> +5.1522993e-01 </wgt>
<wgt id='1783'> +5.4128029e-01 </wgt>
<wgt id='1784'> +5.2644467e-01 </wgt>
<wgt id='1785'> +5.3250679e-01 </wgt>
<wgt id='1786'> +5.2849386e-01 </wgt>
<wgt id='1787'> +5.3228095e-01 </wgt>
<wgt id='1788'> +5.3404061e-01 </wgt>
<wgt id='1789'> +5.3366683e-01 </wgt>
<wgt id='1790'> +5.3192875e-01 </wgt>
<wgt id='1791'> +5.4024010e-01 </wgt>
<wgt id='1792'> +5.4597703e-01 </wgt>
<wgt id='1793'> +5.3260557e-01 </wgt>
<wgt id='1794'> +5.2403486e-01 </wgt>
<wgt id='1795'> +5.3896542e-01 </wgt>
<wgt id='1796'> +5.2500364e-01 </wgt>
<wgt id='1797'> +5.3916627e-01 </wgt>
<wgt id='1798'> +5.4430106e-01 </wgt>
<wgt id='1799'> +5.2622594e-01 </wgt>
<wgt id='1800'> +5.3388539e-01 </wgt>
<wgt id='1801'> +5.3280583e-01 </wgt>
<wgt id='1802'> +5.2796532e-01 </wgt>
<wgt id='1803'> +5.3088231e-01 </wgt>
<wgt id='1804'> +5.4094795e-01 </wgt>
<wgt id='1805'> +5.3226489e-01 </wgt>
<wgt id='1806'> +5.3914994e-01 </wgt>
<wgt id='1807'> +5.3678014e-01 </wgt>
<wgt id='1808'> +5.1354011e-01 </wgt>
<wgt id='1809'> +5.4333076e-01 </wgt>
<wgt id='1810'> +5.2759365e-01 </wgt>
<wgt id='1811'> +5.2768171e-01 </wgt>
<wgt id='1812'> +5.2427635e-01 </wgt>
<wgt id='1813'> +5.3264505e-01 </wgt>
<wgt id='1814'> +5.2176867e-01 </wgt>
<wgt id='1815'> +5.2845980e-01 </wgt>
<wgt id='1816'> +5.3628721e-01 </wgt>
<wgt id='1817'> +5.5216659e-01 </wgt>
<wgt id='1818'> +5.4850563e-01 </wgt>
<wgt id='1819'> +5.5458870e-01 </wgt>
<wgt id='1820'> +5.2581839e-01 </wgt>
<wgt id='1821'> +5.5613192e-01 </wgt>
<wgt id='1822'> +5.3121012e-01 </wgt>
<wgt id='1823'> +5.3329546e-01 </wgt>
<wgt id='1824'> +5.3046069e-01 </wgt>
<wgt id='1825'> +5.3309745e-01 </wgt>
<wgt id='1826'> +5.5455820e-01 </wgt>
<wgt id='1827'> +5.3508237e-01 </wgt>
<wgt id='1828'> +5.3173211e-01 </wgt>
<wgt id='1829'> +5.2555354e-01 </wgt>
<wgt id='1830'> +5.4968252e-01 </wgt>
<wgt id='1831'> +5.4043401e-01 </wgt>
<wgt id='1832'> +5.3870162e-01 </wgt>
<wgt id='1833'> +5.4712300e-01 </wgt>
<wgt id='1834'> +5.3463664e-01 </wgt>
<wgt id='1835'> +5.2753545e-01 </wgt>
<wgt id='1836'> +5.3364482e-01 </wgt>
<wgt id='1837'> +5.3307167e-01 </wgt>
<wgt id='1838'> +5.3582557e-01 </wgt>
<wgt id='1839'> +5.3446472e-01 </wgt>
<wgt id='1840'> +5.3437536e-01 </wgt>
<wgt id='1841'> +5.3105540e-01 </wgt>
<wgt id='1842'> +5.2889693e-01 </wgt>
<wgt id='1843'> +5.3630952e-01 </wgt>
<wgt id='1844'> +5.4167822e-01 </wgt>
<wgt id='1845'> +5.4409046e-01 </wgt>
<wgt id='1846'> +5.3419917e-01 </wgt>
<wgt id='1847'> +5.2647610e-01 </wgt>
<wgt id='1848'> +5.3551706e-01 </wgt>
<wgt id='1849'> +5.2406238e-01 </wgt>
<wgt id='1850'> +5.3457331e-01 </wgt>
<wgt id='1851'> +5.3340892e-01 </wgt>
<wgt id='1852'> +5.2924859e-01 </wgt>
<wgt id='1853'> +5.2942289e-01 </wgt>
<wgt id='1854'> +5.3625877e-01 </wgt>
<wgt id='1855'> +5.3827205e-01 </wgt>
<wgt id='1856'> +5.2987799e-01 </wgt>
<wgt id='1857'> +5.4090655e-01 </wgt>
<wgt id='1858'> +5.3386923e-01 </wgt>
<wgt id='1859'> +5.2803311e-01 </wgt>
<wgt id='1860'> +5.4021652e-01 </wgt>
<wgt id='1861'> +5.4927432e-01 </wgt>
<wgt id='1862'> +5.3885820e-01 </wgt>
<wgt id='1863'> +5.3603551e-01 </wgt>
<wgt id='1864'> +5.3998029e-01 </wgt>
<wgt id='1865'> +5.4089124e-01 </wgt>
<wgt id='1866'> +5.3955402e-01 </wgt>
<wgt id='1867'> +5.3427399e-01 </wgt>
<wgt id='1868'> +5.4059338e-01 </wgt>
<wgt id='1869'> +5.4464622e-01 </wgt>
<wgt id='1870'> +5.2665551e-01 </wgt>
<wgt id='1871'> +5.3392361e-01 </wgt>
<wgt id='1872'> +5.5068136e-01 </wgt>
<wgt id='1873'> +5.2992760e-01 </wgt>
<wgt id='1874'> +5.4290549e-01 </wgt>
<wgt id='1875'> +5.4326129e-01 </wgt>
<wgt id='1876'> +5.3576234e-01 </wgt>
<wgt id='1877'> +5.3326788e-01 </wgt>
<wgt id='1878'> +5.4484879e-01 </wgt>
<wgt id='1879'> +5.3064205e-01 </wgt>
<wgt id='1880'> +5.3360698e-01 </wgt>
<wgt id='1881'> +5.1419870e-01 </wgt>
<wgt id='1882'> +5.3150473e-01 </wgt>
<wgt id='1883'> +5.4317719e-01 </wgt>
<wgt id='1884'> +5.3401110e-01 </wgt>
<wgt id='1885'> +5.2844936e-01 </wgt>
<wgt id='1886'> +5.2430315e-01 </wgt>
<wgt id='1887'> +5.3643414e-01 </wgt>
<wgt id='1888'> +5.3449145e-01 </wgt>
<wgt id='1889'> +5.5418521e-01 </wgt>
<wgt id='1890'> +5.4467478e-01 </wgt>
<wgt id='1891'> +5.4477098e-01 </wgt>
<wgt id='1892'> +5.3716307e-01 </wgt>
<wgt id='1893'> +5.2639389e-01 </wgt>
<wgt id='1894'> +5.2683352e-01 </wgt>
<wgt id='1895'> +5.3632438e-01 </wgt>
<wgt id='1896'> +5.2634952e-01 </wgt>
<wgt id='1897'> +5.3862382e-01 </wgt>
<wgt id='1898'> +5.4043610e-01 </wgt>
<wgt id='1899'> +5.3034021e-01 </wgt>
<wgt id='1900'> +5.4205501e-01 </wgt>
<wgt id='1901'> +5.4371381e-01 </wgt>
<wgt id='1902'> +5.3454465e-01 </wgt>
<wgt id='1903'> +5.4582402e-01 </wgt>
<wgt id='1904'> +5.4359048e-01 </wgt>
<wgt id='1905'> +5.2856461e-01 </wgt>
<wgt id='1906'> +5.3320169e-01 </wgt>
<wgt id='1907'> +5.3024749e-01 </wgt>
<wgt id='1908'> +5.2635117e-01 </wgt>
<wgt id='1909'> +5.3939689e-01 </wgt>
<wgt id='1910'> +5.4790485e-01 </wgt>
<wgt id='1911'> +5.3850961e-01 </wgt>
<wgt id='1912'> +5.2617366e-01 </wgt>
<wgt id='1913'> +5.3517320e-01 </wgt>
<wgt id='1914'> +5.2909807e-01 </wgt>
<wgt id='1915'> +5.3121655e-01 </wgt>
<wgt id='1916'> +5.2760287e-01 </wgt>
<wgt id='1917'> +5.2085818e-01 </wgt>
<wgt id='1918'> +5.3095420e-01 </wgt>
<wgt id='1919'> +5.3628721e-01 </wgt>
<wgt id='1920'> +5.5216659e-01 </wgt>
<wgt id='1921'> +5.4850563e-01 </wgt>
<wgt id='1922'> +5.5458870e-01 </wgt>
<wgt id='1923'> +5.2581839e-01 </wgt>
<wgt id='1924'> +5.5613192e-01 </wgt>
<wgt id='1925'> +5.3121012e-01 </wgt>
<wgt id='1926'> +5.3329546e-01 </wgt>
<wgt id='1927'> +5.3046069e-01 </wgt>
<wgt id='1928'> +5.3309745e-01 </wgt>
<wgt id='1929'> +5.5455820e-01 </wgt>
<wgt id='1930'> +5.3508237e-01 </wgt>
<wgt id='1931'> +5.3173211e-01 </wgt>
<wgt id='1932'> +5.2555354e-01 </wgt>
<wgt id='1933'> +5.4968252e-01 </wgt>
<wgt id='1934'> +5.4043401e-01 </wgt>
<wgt id='1935'> +5.3870162e-01 </wgt>
<wgt id='1936'> +5.4712300e-01 </wgt>
<wgt id='1937'> +5.3463664e-01 </wgt>
<wgt id='1938'> +5.2753545e-01 </wgt>
<wgt id='1939'> +5.3364482e-01 </wgt>
<wgt id='1940'> +5.3307167e-01 </wgt>
<wgt id='1941'> +5.3582557e-01 </wgt>
<wgt id='1942'> +5.3446472e-01 </wgt>
<wgt id='1943'> +5.3437536e-01 </wgt>
<wgt id='1944'> +5.3105540e-01 </wgt>
<wgt id='1945'> +5.2889693e-01 </wgt>
<wgt id='1946'> +5.3630952e-01 </wgt>
<wgt id='1947'> +5.4167822e-01 </wgt>
<wgt id='1948'> +5.4409046e-01 </wgt>
<wgt id='1949'> +5.3419917e-01 </wgt>
<wgt id='1950'> +5.2647610e-01 </wgt>
<wgt id='1951'> +5.3551706e-01 </wgt>
<wgt id='1952'> +5.2406238e-01 </wgt>
<wgt id='1953'> +5.3457331e-01 </wgt>
<wgt id='1954'> +5.3340892e-01 </wgt>
<wgt id='1955'> +5.2924859e-01 </wgt>
<wgt id='1956'> +5.2942289e-01 </wgt>
<wgt id='1957'> +5.3625877e-01 </wgt>
<wgt id='1958'> +5.3827205e-01 </wgt>
<wgt id='1959'> +5.2987799e-01 </wgt>
<wgt id='1960'> +5.4090655e-01 </wgt>
<wgt id='1961'> +5.3386923e-01 </wgt>
<wgt id='1962'> +5.2803311e-01 </wgt>
<wgt id='1963'> +5.4021652e-01 </wgt>
<wgt id='1964'> +5.4927432e-01 </wgt>
<wgt id='1965'> +5.3885820e-01 </wgt>
<wgt id='1966'> +5.3603551e-01 </wgt>
<wgt id='1967'> +5.3998029e-01 </wgt>
<wgt id='1968'> +5.4089124e-01 </wgt>
<wgt id='1969'> +5.3955402e-01 </wgt>
<wgt id='1970'> +5.3427399e-01 </wgt>
<wgt id='1971'> +5.4059338e-01 </wgt>
<wgt id='1972'> +5.4464622e-01 </wgt>
<wgt id='1973'> +5.2665551e-01 </wgt>
<wgt id='1974'> +5.3392361e-01 </wgt>
<wgt id='1975'> +5.5068136e-01 </wgt>
<wgt id='1976'> +5.2992760e-01 </wgt>
<wgt id='1977'> +5.4290549e-01 </wgt>
<wgt id='1978'> +5.4326129e-01 </wgt>
<wgt id='1979'> +5.3576234e-01 </wgt>
<wgt id='1980'> +5.3326788e-01 </wgt>
<wgt id='1981'> +5.4484879e-01 </wgt>
<wgt id='1982'> +5.3064205e-01 </wgt>
<wgt id='1983'> +5.3360698e-01 </wgt>
<wgt id='1984'> +5.1419870e-01 </wgt>
<wgt id='1985'> +5.3150473e-01 </wgt>
<wgt id='1986'> +5.4317719e-01 </wgt>
<wgt id='1987'> +5.3401110e-01 </wgt>
<wgt id='1988'> +5.2844936e-01 </wgt>
<wgt id='1989'> +5.2430315e-01 </wgt>
<wgt id='1990'> +5.3643414e-01 </wgt>
<wgt id='1991'> +5.3449145e-01 </wgt>
<wgt id='1992'> +5.5418521e-01 </wgt>
<wgt id='1993'> +5.4467478e-01 </wgt>
<wgt id='1994'> +5.4477098e-01 </wgt>
<wgt id='1995'> +5.3716307e-01 </wgt>
<wgt id='1996'> +5.2639389e-01 </wgt>
<wgt id='1997'> +5.2683352e-01 </wgt>
<wgt id='1998'> +5.3632438e-01 </wgt>
<wgt id='1999'> +5.2634952e-01 </wgt>
<wgt id='2000'> +5.3862382e-01 </wgt>
<wgt id='2001'> +5.4043610e-01 </wgt>
<wgt id='2002'> +5.3034021e-01 </wgt>
<wgt id='2003'> +5.4205501e-01 </wgt>
<wgt id='2004'> +5.4371381e-01 </wgt>
<wgt id='2005'> +5.3454465e-01 </wgt>
<wgt id='2006'> +5.4582402e-01 </wgt>
<wgt id='2007'> +5.4359048e-01 </wgt>
<wgt id='2008'> +5.2856461e-01 </wgt>
<wgt id='2009'> +5.3320169e-01 </wgt>
<wgt id='2010'> +5.3024749e-01 </wgt>
<wgt id='2011'> +5.2635117e-01 </wgt>
<wgt id='2012'> +5.3939689e-01 </wgt>
<wgt id='2013'> +5.4790485e-01 </wgt>
<wgt id='2014'> +5.3850961e-01 </wgt>
<wgt id='2015'> +5.2617366e-01 </wgt>
<wgt id='2016'> +5.3517320e-01 </wgt>
<wgt id='2017'> +5.2909807e-01 </wgt>
<wgt id='2018'> +5.3121655e-01 </wgt>
<wgt id='2019'> +5.2760287e-01 </wgt>
<wgt id='2020'> +5.3223538e-01 </wgt>
<wgt id='2021'> +5.3948569e-01 </wgt>
<wgt id='2022'> +5.2886081e-01 </wgt>
</rwgt>
</event>
<event>
 13 2 0.0079112 6.05487800e+02 7.81860800e-03 9.98548900e-02
       21 -1    0    0  502  503 +0.0000000000e+00 +0.0000000000e+00 +3.8053423033e+02 3.8053423033e+02 0.0000000000e+00 0.0000e+00 1.0000e+00
       -4 -1    0    0    0  501 +0.0000000000e+00 +0.0000000000e+00 -7.1196731946e+02 7.1196845217e+02 1.2700000000e+00 0.0000e+00 1.0000e+00
 -8000001  2    1    2    0  503 +1.1283310561e+02 +3.6265815418e+01 +7.7809626904e+01 6.1652301531e+02 5.9999980941e+02 0.0000e+00 0.0000e+00
       -3  1    1    2    0  501 -3.8524830872e+01 -5.8192309467e+01 -3.8975546617e+02 3.9595434217e+02 1.0100000000e-01 0.0000e+00 1.0000e+00
        5  1    1    2  502    0 -7.4308274741e+01 +2.1926494048e+01 -1.9487249867e+01 8.0025325018e+01 4.6700000000e+00 0.0000e+00 -1.0000e+00
       -6  2    3    3    0  503 +3.1581447669e+02 -3.2399882916e+01 -2.1113533537e+01 3.6243903886e+02 1.7357344121e+02 0.0000e+00 0.0000e+00
       -5  1    6    6    0  503 +2.5716254243e+02 -4.0976178285e+01 -3.3344633780e+01 2.6257435883e+02 4.6700000000e+00 0.0000e+00 1.0000e+00
      -24  2    6    6    0    0 +5.8651934263e+01 +8.5762953691e+00 +1.2231100243e+01 9.9864680031e+01 7.9433949099e+01 0.0000e+00 0.0000e+00
        1  1    8    8  504    0 +3.6256436421e+01 -2.2847230558e+00 -3.2455006002e+01 4.8714233868e+01 5.0400000000e-03 0.0000e+00 -1.0000e+00
       -2  1    8    8    0  504 +2.2395497842e+01 +1.0861018425e+01 +4.4686106245e+01 5.1150446163e+01 2.5500000000e-03 0.0000e+00 1.0000e+00
       23  2    3    3    0    0 -2.0298137108e+02 +6.8665698334e+01 +9.8923160441e+01 2.5408397645e+02 9.4108768366e+01 0.0000e+00 0.0000e+00
       15  1   11   11    0    0 -3.2992194339e+01 +2.7379478632e+01 -1.4843665369e+01 4.5404987257e+01 1.7770000000e+00 0.0000e+00 -1.0000e+00
      -15  1   11   11    0    0 -1.6998917674e+02 +4.1286219702e+01 +1.1376682581e+02 2.0867898919e+02 1.7770000000e+00 0.0000e+00 1.0000e+00
<mgrwt>
<rscale>  1 0.20556373e+03</rscale>
<asrwt>0</asrwt>
<pdfrwt beam="1">  1       21 0.58543728e-01 0.60548781e+03</pdfrwt>
<pdfrwt beam="2">  1       -4 0.10953368e+00 0.69789094e+02</pdfrwt>
<totfact> 0.68116387e+01</totfact>
</mgrwt>
<rwgt>
<wgt id='1001'> +5.2878984e-01 </wgt>
<wgt id='1002'> +4.7041723e-01 </wgt>
<wgt id='1003'> +4.7041529e-01 </wgt>
<wgt id='1004'> +5.3096955e-01 </wgt>
<wgt id='1005'> +4.3746622e-01 </wgt>
<wgt id='1006'> +4.8230978e-01 </wgt>
<wgt id='1007'> +4.3477601e-01 </wgt>
<wgt id='1008'> +4.3477431e-01 </wgt>
<wgt id='1009'> +4.8728112e-01 </wgt>
<wgt id='1010'> +4.0581982e-01 </wgt>
<wgt id='1011'> +5.8551287e-01 </wgt>
<wgt id='1012'> +5.1259382e-01 </wgt>
<wgt id='1013'> +5.1259158e-01 </wgt>
<wgt id='1014'> +5.8352570e-01 </wgt>
<wgt id='1015'> +4.7460040e-01 </wgt>
<wgt id='1016'> +5.2081416e-01 </wgt>
<wgt id='1017'> +4.5195199e-01 </wgt>
<wgt id='1018'> +4.5195020e-01 </wgt>
<wgt id='1019'> +5.1259158e-01 </wgt>
<wgt id='1020'> +4.2056852e-01 </wgt>
<wgt id='1021'> +4.7503515e-01 </wgt>
<wgt id='1022'> +4.1770979e-01 </wgt>
<wgt id='1023'> +4.1770822e-01 </wgt>
<wgt id='1024'> +4.7041529e-01 </wgt>
<wgt id='1025'> +3.9014451e-01 </wgt>
<wgt id='1026'> +5.7668164e-01 </wgt>
<wgt id='1027'> +4.9247303e-01 </wgt>
<wgt id='1028'> +4.9247095e-01 </wgt>
<wgt id='1029'> +5.6332864e-01 </wgt>
<wgt id='1030'> +4.5626836e-01 </wgt>
<wgt id='1031'> +5.2847367e-01 </wgt>
<wgt id='1032'> +4.8728300e-01 </wgt>
<wgt id='1033'> +4.8728112e-01 </wgt>
<wgt id='1034'> +5.4797552e-01 </wgt>
<wgt id='1035'> +4.5523008e-01 </wgt>
<wgt id='1036'> +4.8202140e-01 </wgt>
<wgt id='1037'> +4.5036394e-01 </wgt>
<wgt id='1038'> +4.5036230e-01 </wgt>
<wgt id='1039'> +5.0288782e-01 </wgt>
<wgt id='1040'> +4.2229864e-01 </wgt>
<wgt id='1041'> +5.8516279e-01 </wgt>
<wgt id='1042'> +5.3097174e-01 </wgt>
<wgt id='1043'> +5.3096955e-01 </wgt>
<wgt id='1044'> +6.0221494e-01 </wgt>
<wgt id='1045'> +4.9387214e-01 </wgt>
<wgt id='1046'> +5.2878984e-01 </wgt>
<wgt id='1047'> +5.2878984e-01 </wgt>
<wgt id='1048'> +5.2878984e-01 </wgt>
<wgt id='1049'> +5.3108488e-01 </wgt>
<wgt id='1050'> +5.2869076e-01 </wgt>
<wgt id='1051'> +5.2390852e-01 </wgt>
<wgt id='1052'> +5.3020891e-01 </wgt>
<wgt id='1053'> +5.1586132e-01 </wgt>
<wgt id='1054'> +5.3768096e-01 </wgt>
<wgt id='1055'> +5.3621096e-01 </wgt>
<wgt id='1056'> +5.3932522e-01 </wgt>
<wgt id='1057'> +5.2759891e-01 </wgt>
<wgt id='1058'> +5.3482334e-01 </wgt>
<wgt id='1059'> +5.3618875e-01 </wgt>
<wgt id='1060'> +5.2769146e-01 </wgt>
<wgt id='1061'> +5.2890874e-01 </wgt>
<wgt id='1062'> +5.3387507e-01 </wgt>
<wgt id='1063'> +5.1659057e-01 </wgt>
<wgt id='1064'> +5.3850339e-01 </wgt>
<wgt id='1065'> +5.3504825e-01 </wgt>
<wgt id='1066'> +5.3387132e-01 </wgt>
<wgt id='1067'> +5.1529504e-01 </wgt>
<wgt id='1068'> +5.3043271e-01 </wgt>
<wgt id='1069'> +5.2493323e-01 </wgt>
<wgt id='1070'> +5.1350061e-01 </wgt>
<wgt id='1071'> +5.2242569e-01 </wgt>
<wgt id='1072'> +5.2241657e-01 </wgt>
<wgt id='1073'> +5.3932426e-01 </wgt>
<wgt id='1074'> +5.2417529e-01 </wgt>
<wgt id='1075'> +5.2049117e-01 </wgt>
<wgt id='1076'> +5.2931457e-01 </wgt>
<wgt id='1077'> +5.0571182e-01 </wgt>
<wgt id='1078'> +5.3241476e-01 </wgt>
<wgt id='1079'> +4.9580539e-01 </wgt>
<wgt id='1080'> +5.3148618e-01 </wgt>
<wgt id='1081'> +5.2267468e-01 </wgt>
<wgt id='1082'> +5.1419892e-01 </wgt>
<wgt id='1083'> +5.2659174e-01 </wgt>
<wgt id='1084'> +5.4460929e-01 </wgt>
<wgt id='1085'> +5.2895942e-01 </wgt>
<wgt id='1086'> +5.2723190e-01 </wgt>
<wgt id='1087'> +5.2727579e-01 </wgt>
<wgt id='1088'> +5.1583403e-01 </wgt>
<wgt id='1089'> +5.1752232e-01 </wgt>
<wgt id='1090'> +5.2095117e-01 </wgt>
<wgt id='1091'> +5.3108846e-01 </wgt>
<wgt id='1092'> +5.3475230e-01 </wgt>
<wgt id='1093'> +5.3184440e-01 </wgt>
<wgt id='1094'> +5.3644762e-01 </wgt>
<wgt id='1095'> +5.3635075e-01 </wgt>
<wgt id='1096'> +5.2858581e-01 </wgt>
<wgt id='1097'> +5.2514598e-01 </wgt>
<wgt id='1098'> +5.3582312e-01 </wgt>
<wgt id='1099'> +5.2993205e-01 </wgt>
<wgt id='1100'> +5.2200410e-01 </wgt>
<wgt id='1101'> +5.2736216e-01 </wgt>
<wgt id='1102'> +5.2198979e-01 </wgt>
<wgt id='1103'> +5.2392249e-01 </wgt>
<wgt id='1104'> +5.2137589e-01 </wgt>
<wgt id='1105'> +5.3144074e-01 </wgt>
<wgt id='1106'> +5.2377776e-01 </wgt>
<wgt id='1107'> +5.1567748e-01 </wgt>
<wgt id='1108'> +5.2424293e-01 </wgt>
<wgt id='1109'> +5.1958838e-01 </wgt>
<wgt id='1110'> +5.2431957e-01 </wgt>
<wgt id='1111'> +5.4008354e-01 </wgt>
<wgt id='1112'> +5.3490008e-01 </wgt>
<wgt id='1113'> +5.2816340e-01 </wgt>
<wgt id='1114'> +5.2077609e-01 </wgt>
<wgt id='1115'> +5.2508980e-01 </wgt>
<wgt id='1116'> +5.2149954e-01 </wgt>
<wgt id='1117'> +5.2792140e-01 </wgt>
<wgt id='1118'> +5.2143861e-01 </wgt>
<wgt id='1119'> +5.3303841e-01 </wgt>
<wgt id='1120'> +5.3310603e-01 </wgt>
<wgt id='1121'> +5.3437098e-01 </wgt>
<wgt id='1122'> +5.3453072e-01 </wgt>
<wgt id='1123'> +5.3380104e-01 </wgt>
<wgt id='1124'> +5.2317386e-01 </wgt>
<wgt id='1125'> +5.1981792e-01 </wgt>
<wgt id='1126'> +5.2090610e-01 </wgt>
<wgt id='1127'> +5.3207097e-01 </wgt>
<wgt id='1128'> +5.2619187e-01 </wgt>
<wgt id='1129'> +5.3236306e-01 </wgt>
<wgt id='1130'> +5.2162659e-01 </wgt>
<wgt id='1131'> +5.2366758e-01 </wgt>
<wgt id='1132'> +5.2531677e-01 </wgt>
<wgt id='1133'> +5.2919182e-01 </wgt>
<wgt id='1134'> +5.2882842e-01 </wgt>
<wgt id='1135'> +5.2010209e-01 </wgt>
<wgt id='1136'> +5.3204177e-01 </wgt>
<wgt id='1137'> +5.2493085e-01 </wgt>
<wgt id='1138'> +5.2918269e-01 </wgt>
<wgt id='1139'> +5.2549557e-01 </wgt>
<wgt id='1140'> +5.2619974e-01 </wgt>
<wgt id='1141'> +5.3027660e-01 </wgt>
<wgt id='1142'> +5.2474712e-01 </wgt>
<wgt id='1143'> +5.2256804e-01 </wgt>
<wgt id='1144'> +5.3550706e-01 </wgt>
<wgt id='1145'> +5.2926878e-01 </wgt>
<wgt id='1146'> +5.2557057e-01 </wgt>
<wgt id='1147'> +5.2189191e-01 </wgt>
<wgt id='1148'> +5.2878984e-01 </wgt>
<wgt id='1149'> +5.3474226e-01 </wgt>
<wgt id='1150'> +5.1105528e-01 </wgt>
<wgt id='1151'> +4.9504022e-01 </wgt>
<wgt id='1152'> +6.3735903e-01 </wgt>
<wgt id='1153'> +5.8018554e-01 </wgt>
<wgt id='1154'> +5.7294976e-01 </wgt>
<wgt id='1155'> +6.0826481e-01 </wgt>
<wgt id='1156'> +4.8398463e-01 </wgt>
<wgt id='1157'> +5.3369806e-01 </wgt>
<wgt id='1158'> +5.0172216e-01 </wgt>
<wgt id='1159'> +6.5286218e-01 </wgt>
<wgt id='1160'> +6.0466284e-01 </wgt>
<wgt id='1161'> +5.2722714e-01 </wgt>
<wgt id='1162'> +5.7915837e-01 </wgt>
<wgt id='1163'> +5.1196402e-01 </wgt>
<wgt id='1164'> +4.8348403e-01 </wgt>
<wgt id='1165'> +5.8456086e-01 </wgt>
<wgt id='1166'> +5.0760329e-01 </wgt>
<wgt id='1167'> +5.4061817e-01 </wgt>
<wgt id='1168'> +4.5293714e-01 </wgt>
<wgt id='1169'> +5.3880556e-01 </wgt>
<wgt id='1170'> +4.5409829e-01 </wgt>
<wgt id='1171'> +3.9415514e-01 </wgt>
<wgt id='1172'> +4.6557406e-01 </wgt>
<wgt id='1173'> +5.5283468e-01 </wgt>
<wgt id='1174'> +4.6916812e-01 </wgt>
<wgt id='1175'> +4.8686988e-01 </wgt>
<wgt id='1176'> +5.9621686e-01 </wgt>
<wgt id='1177'> +5.4537520e-01 </wgt>
<wgt id='1178'> +5.8496453e-01 </wgt>
<wgt id='1179'> +5.5592107e-01 </wgt>
<wgt id='1180'> +5.3917272e-01 </wgt>
<wgt id='1181'> +6.2109242e-01 </wgt>
<wgt id='1182'> +4.6185474e-01 </wgt>
<wgt id='1183'> +5.6749335e-01 </wgt>
<wgt id='1184'> +6.5332021e-01 </wgt>
<wgt id='1185'> +5.1683403e-01 </wgt>
<wgt id='1186'> +4.6252261e-01 </wgt>
<wgt id='1187'> +6.0044244e-01 </wgt>
<wgt id='1188'> +4.4683733e-01 </wgt>
<wgt id='1189'> +5.5712690e-01 </wgt>
<wgt id='1190'> +4.4451460e-01 </wgt>
<wgt id='1191'> +5.3960935e-01 </wgt>
<wgt id='1192'> +5.0226546e-01 </wgt>
<wgt id='1193'> +5.0702330e-01 </wgt>
<wgt id='1194'> +5.4821013e-01 </wgt>
<wgt id='1195'> +5.0230876e-01 </wgt>
<wgt id='1196'> +5.9024753e-01 </wgt>
<wgt id='1197'> +5.3127599e-01 </wgt>
<wgt id='1198'> +4.4675093e-01 </wgt>
<wgt id='1199'> +5.7216024e-01 </wgt>
<wgt id='1200'> +4.9947405e-01 </wgt>
<wgt id='1201'> +5.1787295e-01 </wgt>
<wgt id='1202'> +5.3469584e-01 </wgt>
<wgt id='1203'> +4.2192387e-01 </wgt>
<wgt id='1204'> +4.9832627e-01 </wgt>
<wgt id='1205'> +4.9446978e-01 </wgt>
<wgt id='1206'> +3.8647994e-01 </wgt>
<wgt id='1207'> +3.5508898e-01 </wgt>
<wgt id='1208'> +4.6418547e-01 </wgt>
<wgt id='1209'> +3.8331623e-01 </wgt>
<wgt id='1210'> +5.4333823e-01 </wgt>
<wgt id='1211'> +4.9952318e-01 </wgt>
<wgt id='1212'> +5.7849916e-01 </wgt>
<wgt id='1213'> +5.6448665e-01 </wgt>
<wgt id='1214'> +5.0481497e-01 </wgt>
<wgt id='1215'> +4.7875022e-01 </wgt>
<wgt id='1216'> +5.2720123e-01 </wgt>
<wgt id='1217'> +4.4220521e-01 </wgt>
<wgt id='1218'> +5.6888898e-01 </wgt>
<wgt id='1219'> +5.8230866e-01 </wgt>
<wgt id='1220'> +4.0782977e-01 </wgt>
<wgt id='1221'> +4.9489278e-01 </wgt>
<wgt id='1222'> +6.8975264e-01 </wgt>
<wgt id='1223'> +6.7258945e-01 </wgt>
<wgt id='1224'> +5.3502465e-01 </wgt>
<wgt id='1225'> +4.5570127e-01 </wgt>
<wgt id='1226'> +6.6259074e-01 </wgt>
<wgt id='1227'> +4.3594731e-01 </wgt>
<wgt id='1228'> +5.8880692e-01 </wgt>
<wgt id='1229'> +6.3449741e-01 </wgt>
<wgt id='1230'> +5.9586564e-01 </wgt>
<wgt id='1231'> +5.8456086e-01 </wgt>
<wgt id='1232'> +7.4876743e-01 </wgt>
<wgt id='1233'> +5.6170586e-01 </wgt>
<wgt id='1234'> +5.3991623e-01 </wgt>
<wgt id='1235'> +5.6583892e-01 </wgt>
<wgt id='1236'> +5.2383512e-01 </wgt>
<wgt id='1237'> +6.5062604e-01 </wgt>
<wgt id='1238'> +7.7743747e-01 </wgt>
<wgt id='1239'> +5.5363557e-01 </wgt>
<wgt id='1240'> +5.2677294e-01 </wgt>
<wgt id='1241'> +5.9724270e-01 </wgt>
<wgt id='1242'> +5.2836421e-01 </wgt>
<wgt id='1243'> +5.7816722e-01 </wgt>
<wgt id='1244'> +5.6360796e-01 </wgt>
<wgt id='1245'> +4.6545589e-01 </wgt>
<wgt id='1246'> +5.4386586e-01 </wgt>
<wgt id='1247'> +4.9293377e-01 </wgt>
<wgt id='1248'> +5.2821226e-01 </wgt>
<wgt id='1249'> +5.1827404e-01 </wgt>
<wgt id='1250'> +5.5057090e-01 </wgt>
<wgt id='1251'> +5.4850902e-01 </wgt>
<wgt id='1252'> +6.6735482e-01 </wgt>
<wgt id='1253'> +5.8531607e-01 </wgt>
<wgt id='1254'> +5.8874076e-01 </wgt>
<wgt id='1255'> +7.0270339e-01 </wgt>
<wgt id='1256'> +7.0091499e-01 </wgt>
<wgt id='1257'> +7.0373210e-01 </wgt>
<wgt id='1258'> +7.0312961e-01 </wgt>
<wgt id='1259'> +7.0250337e-01 </wgt>
<wgt id='1260'> +6.9987132e-01 </wgt>
<wgt id='1261'> +7.0656609e-01 </wgt>
<wgt id='1262'> +7.0031046e-01 </wgt>
<wgt id='1263'> +7.0423910e-01 </wgt>
<wgt id='1264'> +7.0004267e-01 </wgt>
<wgt id='1265'> +7.0453078e-01 </wgt>
<wgt id='1266'> +7.0657995e-01 </wgt>
<wgt id='1267'> +6.9883563e-01 </wgt>
<wgt id='1268'> +7.0301754e-01 </wgt>
<wgt id='1269'> +7.0215742e-01 </wgt>
<wgt id='1270'> +6.8732782e-01 </wgt>
<wgt id='1271'> +7.1967228e-01 </wgt>
<wgt id='1272'> +6.9760929e-01 </wgt>
<wgt id='1273'> +7.0660299e-01 </wgt>
<wgt id='1274'> +7.0824670e-01 </wgt>
<wgt id='1275'> +6.9588316e-01 </wgt>
<wgt id='1276'> +7.2026972e-01 </wgt>
<wgt id='1277'> +6.8449142e-01 </wgt>
<wgt id='1278'> +6.9492735e-01 </wgt>
<wgt id='1279'> +7.0861562e-01 </wgt>
<wgt id='1280'> +7.0286705e-01 </wgt>
<wgt id='1281'> +7.0281736e-01 </wgt>
<wgt id='1282'> +7.0854947e-01 </wgt>
<wgt id='1283'> +6.9563515e-01 </wgt>
<wgt id='1284'> +6.9980955e-01 </wgt>
<wgt id='1285'> +7.0595378e-01 </wgt>
<wgt id='1286'> +7.0369838e-01 </wgt>
<wgt id='1287'> +7.0265442e-01 </wgt>
<wgt id='1288'> +7.0992939e-01 </wgt>
<wgt id='1289'> +6.9929835e-01 </wgt>
<wgt id='1290'> +7.0249704e-01 </wgt>
<wgt id='1291'> +7.0277850e-01 </wgt>
<wgt id='1292'> +7.1414600e-01 </wgt>
<wgt id='1293'> +6.8949653e-01 </wgt>
<wgt id='1294'> +6.9260041e-01 </wgt>
<wgt id='1295'> +7.0521024e-01 </wgt>
<wgt id='1296'> +6.0732851e-01 </wgt>
<wgt id='1297'> +6.1031473e-01 </wgt>
<wgt id='1298'> +6.0492768e-01 </wgt>
<wgt id='1299'> +6.0751489e-01 </wgt>
<wgt id='1300'> +6.0716979e-01 </wgt>
<wgt id='1301'> +6.0770256e-01 </wgt>
<wgt id='1302'> +6.0681694e-01 </wgt>
<wgt id='1303'> +6.0800291e-01 </wgt>
<wgt id='1304'> +6.0689225e-01 </wgt>
<wgt id='1305'> +6.0612232e-01 </wgt>
<wgt id='1306'> +6.0909499e-01 </wgt>
<wgt id='1307'> +6.0017797e-01 </wgt>
<wgt id='1308'> +6.1178602e-01 </wgt>
<wgt id='1309'> +6.0858237e-01 </wgt>
<wgt id='1310'> +6.0565799e-01 </wgt>
<wgt id='1311'> +6.0604893e-01 </wgt>
<wgt id='1312'> +6.0780604e-01 </wgt>
<wgt id='1313'> +5.9540482e-01 </wgt>
<wgt id='1314'> +6.2225497e-01 </wgt>
<wgt id='1315'> +6.0842000e-01 </wgt>
<wgt id='1316'> +6.0633643e-01 </wgt>
<wgt id='1317'> +6.2451782e-01 </wgt>
<wgt id='1318'> +5.7837368e-01 </wgt>
<wgt id='1319'> +5.9498966e-01 </wgt>
<wgt id='1320'> +6.1528489e-01 </wgt>
<wgt id='1321'> +5.9999572e-01 </wgt>
<wgt id='1322'> +6.1087856e-01 </wgt>
<wgt id='1323'> +6.0364683e-01 </wgt>
<wgt id='1324'> +6.1156223e-01 </wgt>
<wgt id='1325'> +6.0075380e-01 </wgt>
<wgt id='1326'> +6.1895567e-01 </wgt>
<wgt id='1327'> +6.0459689e-01 </wgt>
<wgt id='1328'> +6.0844035e-01 </wgt>
<wgt id='1329'> +6.0934331e-01 </wgt>
<wgt id='1330'> +6.0613850e-01 </wgt>
<wgt id='1331'> +6.1160782e-01 </wgt>
<wgt id='1332'> +6.0500905e-01 </wgt>
<wgt id='1333'> +6.1622954e-01 </wgt>
<wgt id='1334'> +6.0425803e-01 </wgt>
<wgt id='1335'> +6.0894446e-01 </wgt>
<wgt id='1336'> +6.0693212e-01 </wgt>
<wgt id='1337'> +6.0732851e-01 </wgt>
<wgt id='1338'> +6.0628022e-01 </wgt>
<wgt id='1339'> +6.0662090e-01 </wgt>
<wgt id='1340'> +6.0680762e-01 </wgt>
<wgt id='1341'> +6.0740068e-01 </wgt>
<wgt id='1342'> +6.0752754e-01 </wgt>
<wgt id='1343'> +6.0761646e-01 </wgt>
<wgt id='1344'> +6.1106625e-01 </wgt>
<wgt id='1345'> +6.1469033e-01 </wgt>
<wgt id='1346'> +6.0745204e-01 </wgt>
<wgt id='1347'> +6.0865733e-01 </wgt>
<wgt id='1348'> +6.1284249e-01 </wgt>
<wgt id='1349'> +6.1172045e-01 </wgt>
<wgt id='1350'> +6.1051404e-01 </wgt>
<wgt id='1351'> +6.1098709e-01 </wgt>
<wgt id='1352'> +6.1114632e-01 </wgt>
<wgt id='1353'> +6.1011057e-01 </wgt>
<wgt id='1354'> +6.1173734e-01 </wgt>
<wgt id='1355'> +6.1091349e-01 </wgt>
<wgt id='1356'> +6.1116654e-01 </wgt>
<wgt id='1357'> +6.0425609e-01 </wgt>
<wgt id='1358'> +6.1518890e-01 </wgt>
<wgt id='1359'> +6.1217023e-01 </wgt>
<wgt id='1360'> +6.0822077e-01 </wgt>
<wgt id='1361'> +5.8491642e-01 </wgt>
<wgt id='1362'> +6.3402010e-01 </wgt>
<wgt id='1363'> +6.0656986e-01 </wgt>
<wgt id='1364'> +6.1666548e-01 </wgt>
<wgt id='1365'> +6.0629537e-01 </wgt>
<wgt id='1366'> +6.1311460e-01 </wgt>
<wgt id='1367'> +6.0505480e-01 </wgt>
<wgt id='1368'> +6.1394263e-01 </wgt>
<wgt id='1369'> +6.2577402e-01 </wgt>
<wgt id='1370'> +5.9877758e-01 </wgt>
<wgt id='1371'> +6.0860984e-01 </wgt>
<wgt id='1372'> +6.1525383e-01 </wgt>
<wgt id='1373'> +6.1628880e-01 </wgt>
<wgt id='1374'> +6.1126001e-01 </wgt>
<wgt id='1375'> +6.1151205e-01 </wgt>
<wgt id='1376'> +6.1117637e-01 </wgt>
<wgt id='1377'> +6.1004867e-01 </wgt>
<wgt id='1378'> +6.1309728e-01 </wgt>
<wgt id='1379'> +6.0679291e-01 </wgt>
<wgt id='1380'> +6.1545953e-01 </wgt>
<wgt id='1381'> +6.0289528e-01 </wgt>
<wgt id='1382'> +6.2015804e-01 </wgt>
<wgt id='1383'> +6.0998978e-01 </wgt>
<wgt id='1384'> +6.1695228e-01 </wgt>
<wgt id='1385'> +6.1106625e-01 </wgt>
<wgt id='1386'> +6.0969117e-01 </wgt>
<wgt id='1387'> +6.1021402e-01 </wgt>
<wgt id='1388'> +6.1052435e-01 </wgt>
<wgt id='1389'> +6.1112905e-01 </wgt>
<wgt id='1390'> +6.1118834e-01 </wgt>
<wgt id='1391'> +6.1125241e-01 </wgt>
<wgt id='1392'> +6.1721810e-01 </wgt>
<wgt id='1393'> +6.1792273e-01 </wgt>
<wgt id='1394'> +6.1644507e-01 </wgt>
<wgt id='1395'> +6.1790711e-01 </wgt>
<wgt id='1396'> +6.1673334e-01 </wgt>
<wgt id='1397'> +6.2199211e-01 </wgt>
<wgt id='1398'> +6.1262188e-01 </wgt>
<wgt id='1399'> +6.1472825e-01 </wgt>
<wgt id='1400'> +6.2031027e-01 </wgt>
<wgt id='1401'> +6.1862357e-01 </wgt>
<wgt id='1402'> +6.1545139e-01 </wgt>
<wgt id='1403'> +6.1795194e-01 </wgt>
<wgt id='1404'> +6.1574407e-01 </wgt>
<wgt id='1405'> +6.1702792e-01 </wgt>
<wgt id='1406'> +6.1748276e-01 </wgt>
<wgt id='1407'> +6.1649670e-01 </wgt>
<wgt id='1408'> +6.1772260e-01 </wgt>
<wgt id='1409'> +6.1386201e-01 </wgt>
<wgt id='1410'> +6.2101146e-01 </wgt>
<wgt id='1411'> +6.1601190e-01 </wgt>
<wgt id='1412'> +6.1814600e-01 </wgt>
<wgt id='1413'> +6.1498750e-01 </wgt>
<wgt id='1414'> +6.1958568e-01 </wgt>
<wgt id='1415'> +6.1257409e-01 </wgt>
<wgt id='1416'> +6.2181535e-01 </wgt>
<wgt id='1417'> +6.1258923e-01 </wgt>
<wgt id='1418'> +6.2297247e-01 </wgt>
<wgt id='1419'> +6.1722104e-01 </wgt>
<wgt id='1420'> +6.1709106e-01 </wgt>
<wgt id='1421'> +6.0599494e-01 </wgt>
<wgt id='1422'> +6.3058694e-01 </wgt>
<wgt id='1423'> +5.9344206e-01 </wgt>
<wgt id='1424'> +6.3573262e-01 </wgt>
<wgt id='1425'> +6.1956415e-01 </wgt>
<wgt id='1426'> +6.1411632e-01 </wgt>
<wgt id='1427'> +6.2055032e-01 </wgt>
<wgt id='1428'> +6.0987954e-01 </wgt>
<wgt id='1429'> +6.1736120e-01 </wgt>
<wgt id='1430'> +6.1721701e-01 </wgt>
<wgt id='1431'> +6.1313598e-01 </wgt>
<wgt id='1432'> +6.2123392e-01 </wgt>
<wgt id='1433'> +6.0722884e-01 </wgt>
<wgt id='1434'> +6.2936148e-01 </wgt>
<wgt id='1435'> +6.2292725e-01 </wgt>
<wgt id='1436'> +6.1564986e-01 </wgt>
<wgt id='1437'> +6.1612103e-01 </wgt>
<wgt id='1438'> +6.2011899e-01 </wgt>
<wgt id='1439'> +6.2437093e-01 </wgt>
<wgt id='1440'> +6.1173436e-01 </wgt>
<wgt id='1441'> +6.1843339e-01 </wgt>
<wgt id='1442'> +6.1676162e-01 </wgt>
<wgt id='1443'> +5.9497454e-01 </wgt>
<wgt id='1444'> +5.9570998e-01 </wgt>
<wgt id='1445'> +5.9418021e-01 </wgt>
<wgt id='1446'> +5.9570517e-01 </wgt>
<wgt id='1447'> +5.9451996e-01 </wgt>
<wgt id='1448'> +5.9969194e-01 </wgt>
<wgt id='1449'> +5.9062536e-01 </wgt>
<wgt id='1450'> +5.9229804e-01 </wgt>
<wgt id='1451'> +5.9803348e-01 </wgt>
<wgt id='1452'> +5.9617582e-01 </wgt>
<wgt id='1453'> +5.9379118e-01 </wgt>
<wgt id='1454'> +5.9573499e-01 </wgt>
<wgt id='1455'> +5.9333935e-01 </wgt>
<wgt id='1456'> +5.9467698e-01 </wgt>
<wgt id='1457'> +5.9554946e-01 </wgt>
<wgt id='1458'> +5.9413569e-01 </wgt>
<wgt id='1459'> +5.9546272e-01 </wgt>
<wgt id='1460'> +5.9120604e-01 </wgt>
<wgt id='1461'> +5.9941605e-01 </wgt>
<wgt id='1462'> +5.9470716e-01 </wgt>
<wgt id='1463'> +5.9520443e-01 </wgt>
<wgt id='1464'> +5.9303322e-01 </wgt>
<wgt id='1465'> +5.9757658e-01 </wgt>
<wgt id='1466'> +5.8937112e-01 </wgt>
<wgt id='1467'> +5.9873838e-01 </wgt>
<wgt id='1468'> +6.0597128e-01 </wgt>
<wgt id='1469'> +5.8429230e-01 </wgt>
<wgt id='1470'> +5.9519753e-01 </wgt>
<wgt id='1471'> +5.9485007e-01 </wgt>
<wgt id='1472'> +5.8655816e-01 </wgt>
<wgt id='1473'> +6.0524302e-01 </wgt>
<wgt id='1474'> +5.7857812e-01 </wgt>
<wgt id='1475'> +6.1395811e-01 </wgt>
<wgt id='1476'> +6.0147928e-01 </wgt>
<wgt id='1477'> +5.8873391e-01 </wgt>
<wgt id='1478'> +5.9810639e-01 </wgt>
<wgt id='1479'> +5.8742826e-01 </wgt>
<wgt id='1480'> +5.9564133e-01 </wgt>
<wgt id='1481'> +5.9455316e-01 </wgt>
<wgt id='1482'> +5.9126562e-01 </wgt>
<wgt id='1483'> +5.9921804e-01 </wgt>
<wgt id='1484'> +5.8541979e-01 </wgt>
<wgt id='1485'> +6.0602603e-01 </wgt>
<wgt id='1486'> +6.0121219e-01 </wgt>
<wgt id='1487'> +5.9277053e-01 </wgt>
<wgt id='1488'> +5.9348040e-01 </wgt>
<wgt id='1489'> +5.9880828e-01 </wgt>
<wgt id='1490'> +6.0257727e-01 </wgt>
<wgt id='1491'> +5.9054387e-01 </wgt>
<wgt id='1492'> +5.9704449e-01 </wgt>
<wgt id='1493'> +5.9434539e-01 </wgt>
<wgt id='1494'> +5.8713730e-01 </wgt>
<wgt id='1495'> +5.5657105e-01 </wgt>
<wgt id='1496'> +5.6647367e-01 </wgt>
<wgt id='1497'> +5.7658545e-01 </wgt>
<wgt id='1498'> +5.9906601e-01 </wgt>
<wgt id='1499'> +5.8731698e-01 </wgt>
<wgt id='1500'> +6.5403261e-01 </wgt>
<wgt id='1501'> +6.3942813e-01 </wgt>
<wgt id='1502'> +6.2575285e-01 </wgt>
<wgt id='1503'> +6.1258680e-01 </wgt>
<wgt id='1504'> +5.9971723e-01 </wgt>
<wgt id='1505'> +5.7561974e-01 </wgt>
<wgt id='1506'> +5.6429291e-01 </wgt>
<wgt id='1507'> +5.5337276e-01 </wgt>
<wgt id='1508'> +5.8731698e-01 </wgt>
<wgt id='1509'> +5.8616435e-01 </wgt>
<wgt id='1510'> +5.8670294e-01 </wgt>
<wgt id='1511'> +5.8806902e-01 </wgt>
<wgt id='1512'> +5.8882578e-01 </wgt>
<wgt id='1513'> +6.1144608e-01 </wgt>
<wgt id='1514'> +6.1148017e-01 </wgt>
<wgt id='1515'> +6.1147859e-01 </wgt>
<wgt id='1516'> +6.1421991e-01 </wgt>
<wgt id='1517'> +6.0870960e-01 </wgt>
<wgt id='1518'> +6.1367010e-01 </wgt>
<wgt id='1519'> +6.1058479e-01 </wgt>
<wgt id='1520'> +6.1123415e-01 </wgt>
<wgt id='1521'> +6.1168737e-01 </wgt>
<wgt id='1522'> +6.1231016e-01 </wgt>
<wgt id='1523'> +6.1063216e-01 </wgt>
<wgt id='1524'> +6.0895038e-01 </wgt>
<wgt id='1525'> +6.1255030e-01 </wgt>
<wgt id='1526'> +6.1121375e-01 </wgt>
<wgt id='1527'> +6.1174806e-01 </wgt>
<wgt id='1528'> +6.1121270e-01 </wgt>
<wgt id='1529'> +6.1172518e-01 </wgt>
<wgt id='1530'> +6.0961916e-01 </wgt>
<wgt id='1531'> +6.1249779e-01 </wgt>
<wgt id='1532'> +6.1176543e-01 </wgt>
<wgt id='1533'> +6.1105512e-01 </wgt>
<wgt id='1534'> +6.1034246e-01 </wgt>
<wgt id='1535'> +6.1224591e-01 </wgt>
<wgt id='1536'> +6.1620299e-01 </wgt>
<wgt id='1537'> +6.0696719e-01 </wgt>
<wgt id='1538'> +6.1303619e-01 </wgt>
<wgt id='1539'> +6.0744788e-01 </wgt>
<wgt id='1540'> +6.1066344e-01 </wgt>
<wgt id='1541'> +6.1150325e-01 </wgt>
<wgt id='1542'> +6.1889454e-01 </wgt>
<wgt id='1543'> +5.9281825e-01 </wgt>
<wgt id='1544'> +6.0425525e-01 </wgt>
<wgt id='1545'> +6.2667897e-01 </wgt>
<wgt id='1546'> +6.1440076e-01 </wgt>
<wgt id='1547'> +6.0586124e-01 </wgt>
<wgt id='1548'> +6.0040227e-01 </wgt>
<wgt id='1549'> +6.1651387e-01 </wgt>
<wgt id='1550'> +6.1096056e-01 </wgt>
<wgt id='1551'> +6.1204380e-01 </wgt>
<wgt id='1552'> +6.0600757e-01 </wgt>
<wgt id='1553'> +6.1565213e-01 </wgt>
<wgt id='1554'> +6.1657813e-01 </wgt>
<wgt id='1555'> +6.0426223e-01 </wgt>
<wgt id='1556'> +6.1245147e-01 </wgt>
<wgt id='1557'> +6.0579492e-01 </wgt>
<wgt id='1558'> +6.0171601e-01 </wgt>
<wgt id='1559'> +6.2001102e-01 </wgt>
<wgt id='1560'> +6.1700513e-01 </wgt>
<wgt id='1561'> +6.0921610e-01 </wgt>
<wgt id='1562'> +6.0839113e-01 </wgt>
<wgt id='1563'> +6.1469190e-01 </wgt>
<wgt id='1564'> +6.1144608e-01 </wgt>
<wgt id='1565'> +5.9700723e-01 </wgt>
<wgt id='1566'> +6.2591462e-01 </wgt>
<wgt id='1567'> +6.1117547e-01 </wgt>
<wgt id='1568'> +6.8872893e-01 </wgt>
<wgt id='1569'> +6.7132000e-01 </wgt>
<wgt id='1570'> +6.5482005e-01 </wgt>
<wgt id='1571'> +6.3966275e-01 </wgt>
<wgt id='1572'> +6.2510000e-01 </wgt>
<wgt id='1573'> +5.9733361e-01 </wgt>
<wgt id='1574'> +5.8400227e-01 </wgt>
<wgt id='1575'> +5.7190221e-01 </wgt>
<wgt id='1576'> +6.1117547e-01 </wgt>
<wgt id='1577'> +6.0900889e-01 </wgt>
<wgt id='1578'> +6.1009840e-01 </wgt>
<wgt id='1579'> +6.1229607e-01 </wgt>
<wgt id='1580'> +6.1341746e-01 </wgt>
<wgt id='1581'> +5.8519683e-01 </wgt>
<wgt id='1582'> +5.8699972e-01 </wgt>
<wgt id='1583'> +5.9089604e-01 </wgt>
<wgt id='1584'> +5.8040703e-01 </wgt>
<wgt id='1585'> +5.8878879e-01 </wgt>
<wgt id='1586'> +5.7205823e-01 </wgt>
<wgt id='1587'> +5.9080196e-01 </wgt>
<wgt id='1588'> +5.9438573e-01 </wgt>
<wgt id='1589'> +5.8472533e-01 </wgt>
<wgt id='1590'> +5.9572594e-01 </wgt>
<wgt id='1591'> +5.8335998e-01 </wgt>
<wgt id='1592'> +5.6657860e-01 </wgt>
<wgt id='1593'> +5.8881697e-01 </wgt>
<wgt id='1594'> +5.7311677e-01 </wgt>
<wgt id='1595'> +5.8260899e-01 </wgt>
<wgt id='1596'> +5.9261615e-01 </wgt>
<wgt id='1597'> +5.8913020e-01 </wgt>
<wgt id='1598'> +5.9536278e-01 </wgt>
<wgt id='1599'> +5.8059061e-01 </wgt>
<wgt id='1600'> +5.8770786e-01 </wgt>
<wgt id='1601'> +5.8060484e-01 </wgt>
<wgt id='1602'> +5.8677904e-01 </wgt>
<wgt id='1603'> +5.8662178e-01 </wgt>
<wgt id='1604'> +5.8110870e-01 </wgt>
<wgt id='1605'> +5.8385962e-01 </wgt>
<wgt id='1606'> +5.8556817e-01 </wgt>
<wgt id='1607'> +5.8704191e-01 </wgt>
<wgt id='1608'> +5.8175478e-01 </wgt>
<wgt id='1609'> +5.8524891e-01 </wgt>
<wgt id='1610'> +5.8568454e-01 </wgt>
<wgt id='1611'> +5.8912940e-01 </wgt>
<wgt id='1612'> +5.1436180e-01 </wgt>
<wgt id='1613'> +5.1183976e-01 </wgt>
<wgt id='1614'> +5.0842763e-01 </wgt>
<wgt id='1615'> +5.1050612e-01 </wgt>
<wgt id='1616'> +5.2161767e-01 </wgt>
<wgt id='1617'> +5.1523771e-01 </wgt>
<wgt id='1618'> +5.0755815e-01 </wgt>
<wgt id='1619'> +5.2337037e-01 </wgt>
<wgt id='1620'> +5.1309909e-01 </wgt>
<wgt id='1621'> +5.0999855e-01 </wgt>
<wgt id='1622'> +5.1397784e-01 </wgt>
<wgt id='1623'> +5.1649932e-01 </wgt>
<wgt id='1624'> +5.1416259e-01 </wgt>
<wgt id='1625'> +5.0846578e-01 </wgt>
<wgt id='1626'> +5.0207783e-01 </wgt>
<wgt id='1627'> +5.1123586e-01 </wgt>
<wgt id='1628'> +5.0986934e-01 </wgt>
<wgt id='1629'> +5.1537509e-01 </wgt>
<wgt id='1630'> +5.1475760e-01 </wgt>
<wgt id='1631'> +5.1598440e-01 </wgt>
<wgt id='1632'> +5.1381451e-01 </wgt>
<wgt id='1633'> +5.1185520e-01 </wgt>
<wgt id='1634'> +5.0537629e-01 </wgt>
<wgt id='1635'> +5.3021572e-01 </wgt>
<wgt id='1636'> +5.0356869e-01 </wgt>
<wgt id='1637'> +5.1417144e-01 </wgt>
<wgt id='1638'> +5.2918000e-01 </wgt>
<wgt id='1639'> +5.0130960e-01 </wgt>
<wgt id='1640'> +5.0269669e-01 </wgt>
<wgt id='1641'> +5.5718394e-01 </wgt>
<wgt id='1642'> +5.1691613e-01 </wgt>
<wgt id='1643'> +5.1533348e-01 </wgt>
<wgt id='1644'> +5.2057400e-01 </wgt>
<wgt id='1645'> +5.1741191e-01 </wgt>
<wgt id='1646'> +5.1908326e-01 </wgt>
<wgt id='1647'> +5.0309557e-01 </wgt>
<wgt id='1648'> +5.1677151e-01 </wgt>
<wgt id='1649'> +5.1882657e-01 </wgt>
<wgt id='1650'> +5.1533146e-01 </wgt>
<wgt id='1651'> +5.1441810e-01 </wgt>
<wgt id='1652'> +5.1615368e-01 </wgt>
<wgt id='1653'> +5.1399633e-01 </wgt>
<wgt id='1654'> +5.0650556e-01 </wgt>
<wgt id='1655'> +5.1370764e-01 </wgt>
<wgt id='1656'> +5.1114510e-01 </wgt>
<wgt id='1657'> +5.1564283e-01 </wgt>
<wgt id='1658'> +5.0778933e-01 </wgt>
<wgt id='1659'> +5.0630742e-01 </wgt>
<wgt id='1660'> +5.1236162e-01 </wgt>
<wgt id='1661'> +5.1618946e-01 </wgt>
<wgt id='1662'> +5.1370190e-01 </wgt>
<wgt id='1663'> +5.1546850e-01 </wgt>
<wgt id='1664'> +5.2011183e-01 </wgt>
<wgt id='1665'> +5.1543868e-01 </wgt>
<wgt id='1666'> +5.1307801e-01 </wgt>
<wgt id='1667'> +5.2105406e-01 </wgt>
<wgt id='1668'> +5.1332176e-01 </wgt>
<wgt id='1669'> +5.1458217e-01 </wgt>
<wgt id='1670'> +5.0398687e-01 </wgt>
<wgt id='1671'> +5.1392887e-01 </wgt>
<wgt id='1672'> +5.0471123e-01 </wgt>
<wgt id='1673'> +5.1524452e-01 </wgt>
<wgt id='1674'> +5.1076766e-01 </wgt>
<wgt id='1675'> +5.1422867e-01 </wgt>
<wgt id='1676'> +5.2420223e-01 </wgt>
<wgt id='1677'> +5.0265190e-01 </wgt>
<wgt id='1678'> +5.1569492e-01 </wgt>
<wgt id='1679'> +5.1303403e-01 </wgt>
<wgt id='1680'> +5.0838071e-01 </wgt>
<wgt id='1681'> +5.0721130e-01 </wgt>
<wgt id='1682'> +5.2304554e-01 </wgt>
<wgt id='1683'> +5.2502235e-01 </wgt>
<wgt id='1684'> +5.0933514e-01 </wgt>
<wgt id='1685'> +5.0765177e-01 </wgt>
<wgt id='1686'> +5.1977348e-01 </wgt>
<wgt id='1687'> +5.1519321e-01 </wgt>
<wgt id='1688'> +5.0965211e-01 </wgt>
<wgt id='1689'> +5.1948518e-01 </wgt>
<wgt id='1690'> +5.1488986e-01 </wgt>
<wgt id='1691'> +5.1452335e-01 </wgt>
<wgt id='1692'> +5.0788813e-01 </wgt>
<wgt id='1693'> +5.1481421e-01 </wgt>
<wgt id='1694'> +5.1097977e-01 </wgt>
<wgt id='1695'> +5.1825924e-01 </wgt>
<wgt id='1696'> +5.1220306e-01 </wgt>
<wgt id='1697'> +5.1508578e-01 </wgt>
<wgt id='1698'> +5.1735558e-01 </wgt>
<wgt id='1699'> +5.2277926e-01 </wgt>
<wgt id='1700'> +5.1084916e-01 </wgt>
<wgt id='1701'> +5.1652922e-01 </wgt>
<wgt id='1702'> +5.1352989e-01 </wgt>
<wgt id='1703'> +5.1793242e-01 </wgt>
<wgt id='1704'> +5.0809661e-01 </wgt>
<wgt id='1705'> +5.2107395e-01 </wgt>
<wgt id='1706'> +5.0904262e-01 </wgt>
<wgt id='1707'> +5.1152131e-01 </wgt>
<wgt id='1708'> +5.1625598e-01 </wgt>
<wgt id='1709'> +5.0033350e-01 </wgt>
<wgt id='1710'> +5.2579224e-01 </wgt>
<wgt id='1711'> +5.1426910e-01 </wgt>
<wgt id='1712'> +5.0864029e-01 </wgt>
<wgt id='1713'> +4.7178984e-01 </wgt>
<wgt id='1714'> +5.7286034e-01 </wgt>
<wgt id='1715'> +4.6078237e-01 </wgt>
<wgt id='1716'> +4.2637301e-01 </wgt>
<wgt id='1717'> +5.0839318e-01 </wgt>
<wgt id='1718'> +5.5968769e-01 </wgt>
<wgt id='1719'> +5.5568025e-01 </wgt>
<wgt id='1720'> +3.8891126e-01 </wgt>
<wgt id='1721'> +5.4690480e-01 </wgt>
<wgt id='1722'> +4.4436012e-01 </wgt>
<wgt id='1723'> +4.3468641e-01 </wgt>
<wgt id='1724'> +4.4352673e-01 </wgt>
<wgt id='1725'> +4.0002666e-01 </wgt>
<wgt id='1726'> +4.6576336e-01 </wgt>
<wgt id='1727'> +4.0808686e-01 </wgt>
<wgt id='1728'> +4.3931768e-01 </wgt>
<wgt id='1729'> +4.8978579e-01 </wgt>
<wgt id='1730'> +4.5806682e-01 </wgt>
<wgt id='1731'> +7.2083920e-01 </wgt>
<wgt id='1732'> +4.0761456e-01 </wgt>
<wgt id='1733'> +4.5359313e-01 </wgt>
<wgt id='1734'> +5.7544543e-01 </wgt>
<wgt id='1735'> +6.3876691e-01 </wgt>
<wgt id='1736'> +6.1134117e-01 </wgt>
<wgt id='1737'> +4.3798802e-01 </wgt>
<wgt id='1738'> +3.4899433e-01 </wgt>
<wgt id='1739'> +4.5362233e-01 </wgt>
<wgt id='1740'> +4.5178173e-01 </wgt>
<wgt id='1741'> +4.0440911e-01 </wgt>
<wgt id='1742'> +4.6740279e-01 </wgt>
<wgt id='1743'> +5.0258534e-01 </wgt>
<wgt id='1744'> +4.3821254e-01 </wgt>
<wgt id='1745'> +5.8424136e-01 </wgt>
<wgt id='1746'> +5.2191353e-01 </wgt>
<wgt id='1747'> +4.0933222e-01 </wgt>
<wgt id='1748'> +5.5099041e-01 </wgt>
<wgt id='1749'> +3.5646063e-01 </wgt>
<wgt id='1750'> +3.3364370e-01 </wgt>
<wgt id='1751'> +4.9252729e-01 </wgt>
<wgt id='1752'> +5.1210878e-01 </wgt>
<wgt id='1753'> +5.9538178e-01 </wgt>
<wgt id='1754'> +6.1890657e-01 </wgt>
<wgt id='1755'> +5.6718639e-01 </wgt>
<wgt id='1756'> +4.2491408e-01 </wgt>
<wgt id='1757'> +4.7003652e-01 </wgt>
<wgt id='1758'> +4.8044576e-01 </wgt>
<wgt id='1759'> +4.9871674e-01 </wgt>
<wgt id='1760'> +4.7562355e-01 </wgt>
<wgt id='1761'> +5.1453659e-01 </wgt>
<wgt id='1762'> +4.0808686e-01 </wgt>
<wgt id='1763'> +4.6604758e-01 </wgt>
<wgt id='1764'> +3.1328963e-01 </wgt>
<wgt id='1765'> +2.9881273e-01 </wgt>
<wgt id='1766'> +3.6326784e-01 </wgt>
<wgt id='1767'> +4.4279072e-01 </wgt>
<wgt id='1768'> +4.9409180e-01 </wgt>
<wgt id='1769'> +5.1391959e-01 </wgt>
<wgt id='1770'> +3.8421730e-01 </wgt>
<wgt id='1771'> +4.9397474e-01 </wgt>
<wgt id='1772'> +4.4420252e-01 </wgt>
<wgt id='1773'> +5.0875993e-01 </wgt>
<wgt id='1774'> +5.2523780e-01 </wgt>
<wgt id='1775'> +3.9846527e-01 </wgt>
<wgt id='1776'> +4.8243453e-01 </wgt>
<wgt id='1777'> +3.3386583e-01 </wgt>
<wgt id='1778'> +4.8500389e-01 </wgt>
<wgt id='1779'> +4.5907157e-01 </wgt>
<wgt id='1780'> +4.3533236e-01 </wgt>
<wgt id='1781'> +4.7321735e-01 </wgt>
<wgt id='1782'> +3.9463840e-01 </wgt>
<wgt id='1783'> +3.8446238e-01 </wgt>
<wgt id='1784'> +3.5348441e-01 </wgt>
<wgt id='1785'> +4.0495450e-01 </wgt>
<wgt id='1786'> +3.3020683e-01 </wgt>
<wgt id='1787'> +3.5969529e-01 </wgt>
<wgt id='1788'> +4.4424939e-01 </wgt>
<wgt id='1789'> +3.6793954e-01 </wgt>
<wgt id='1790'> +4.3106616e-01 </wgt>
<wgt id='1791'> +6.5307492e-01 </wgt>
<wgt id='1792'> +3.6007308e-01 </wgt>
<wgt id='1793'> +3.4621882e-01 </wgt>
<wgt id='1794'> +4.0161394e-01 </wgt>
<wgt id='1795'> +5.3114738e-01 </wgt>
<wgt id='1796'> +4.3079969e-01 </wgt>
<wgt id='1797'> +5.6200863e-01 </wgt>
<wgt id='1798'> +4.2902905e-01 </wgt>
<wgt id='1799'> +4.9063469e-01 </wgt>
<wgt id='1800'> +4.0846464e-01 </wgt>
<wgt id='1801'> +4.6611126e-01 </wgt>
<wgt id='1802'> +4.6496714e-01 </wgt>
<wgt id='1803'> +5.0602988e-01 </wgt>
<wgt id='1804'> +3.5910400e-01 </wgt>
<wgt id='1805'> +4.6875779e-01 </wgt>
<wgt id='1806'> +4.9229219e-01 </wgt>
<wgt id='1807'> +5.3409592e-01 </wgt>
<wgt id='1808'> +6.8165210e-01 </wgt>
<wgt id='1809'> +4.2895367e-01 </wgt>
<wgt id='1810'> +5.3575880e-01 </wgt>
<wgt id='1811'> +4.0116815e-01 </wgt>
<wgt id='1812'> +4.3728689e-01 </wgt>
<wgt id='1813'> +4.3159487e-01 </wgt>
<wgt id='1814'> +4.4930298e-01 </wgt>
<wgt id='1815'> +3.5710818e-01 </wgt>
<wgt id='1816'> +6.0768864e-01 </wgt>
<wgt id='1817'> +6.3100079e-01 </wgt>
<wgt id='1818'> +6.3106783e-01 </wgt>
<wgt id='1819'> +6.2649086e-01 </wgt>
<wgt id='1820'> +5.6660133e-01 </wgt>
<wgt id='1821'> +6.2915054e-01 </wgt>
<wgt id='1822'> +6.0441708e-01 </wgt>
<wgt id='1823'> +6.0987046e-01 </wgt>
<wgt id='1824'> +6.2196599e-01 </wgt>
<wgt id='1825'> +6.0196784e-01 </wgt>
<wgt id='1826'> +6.2614275e-01 </wgt>
<wgt id='1827'> +5.8326768e-01 </wgt>
<wgt id='1828'> +6.0208243e-01 </wgt>
<wgt id='1829'> +5.9560834e-01 </wgt>
<wgt id='1830'> +6.3034757e-01 </wgt>
<wgt id='1831'> +6.2489092e-01 </wgt>
<wgt id='1832'> +6.2885004e-01 </wgt>
<wgt id='1833'> +6.4590750e-01 </wgt>
<wgt id='1834'> +6.3999419e-01 </wgt>
<wgt id='1835'> +5.9869645e-01 </wgt>
<wgt id='1836'> +6.3527421e-01 </wgt>
<wgt id='1837'> +5.8163191e-01 </wgt>
<wgt id='1838'> +6.0518001e-01 </wgt>
<wgt id='1839'> +5.9863719e-01 </wgt>
<wgt id='1840'> +5.9067932e-01 </wgt>
<wgt id='1841'> +6.0022332e-01 </wgt>
<wgt id='1842'> +5.8939218e-01 </wgt>
<wgt id='1843'> +6.4181882e-01 </wgt>
<wgt id='1844'> +6.1753807e-01 </wgt>
<wgt id='1845'> +6.4202129e-01 </wgt>
<wgt id='1846'> +6.1124132e-01 </wgt>
<wgt id='1847'> +5.8883042e-01 </wgt>
<wgt id='1848'> +5.8366477e-01 </wgt>
<wgt id='1849'> +5.8939142e-01 </wgt>
<wgt id='1850'> +5.7689115e-01 </wgt>
<wgt id='1851'> +6.0794727e-01 </wgt>
<wgt id='1852'> +6.0178357e-01 </wgt>
<wgt id='1853'> +6.2519361e-01 </wgt>
<wgt id='1854'> +6.1695529e-01 </wgt>
<wgt id='1855'> +6.0176487e-01 </wgt>
<wgt id='1856'> +5.9040438e-01 </wgt>
<wgt id='1857'> +5.9866352e-01 </wgt>
<wgt id='1858'> +5.8656387e-01 </wgt>
<wgt id='1859'> +5.7827625e-01 </wgt>
<wgt id='1860'> +6.1117309e-01 </wgt>
<wgt id='1861'> +6.2136140e-01 </wgt>
<wgt id='1862'> +6.0142889e-01 </wgt>
<wgt id='1863'> +6.1707004e-01 </wgt>
<wgt id='1864'> +6.1599113e-01 </wgt>
<wgt id='1865'> +6.3140664e-01 </wgt>
<wgt id='1866'> +6.0780663e-01 </wgt>
<wgt id='1867'> +5.9913776e-01 </wgt>
<wgt id='1868'> +6.1292966e-01 </wgt>
<wgt id='1869'> +6.0225755e-01 </wgt>
<wgt id='1870'> +5.8302594e-01 </wgt>
<wgt id='1871'> +5.9406802e-01 </wgt>
<wgt id='1872'> +6.3895869e-01 </wgt>
<wgt id='1873'> +5.9965436e-01 </wgt>
<wgt id='1874'> +6.0803406e-01 </wgt>
<wgt id='1875'> +6.3306074e-01 </wgt>
<wgt id='1876'> +6.0747641e-01 </wgt>
<wgt id='1877'> +6.1234005e-01 </wgt>
<wgt id='1878'> +6.2914072e-01 </wgt>
<wgt id='1879'> +5.6817211e-01 </wgt>
<wgt id='1880'> +6.4660154e-01 </wgt>
<wgt id='1881'> +5.4578389e-01 </wgt>
<wgt id='1882'> +6.0548529e-01 </wgt>
<wgt id='1883'> +6.3313024e-01 </wgt>
<wgt id='1884'> +5.9288359e-01 </wgt>
<wgt id='1885'> +5.8503918e-01 </wgt>
<wgt id='1886'> +5.9484825e-01 </wgt>
<wgt id='1887'> +5.8987779e-01 </wgt>
<wgt id='1888'> +6.0203964e-01 </wgt>
<wgt id='1889'> +6.1581638e-01 </wgt>
<wgt id='1890'> +5.9750315e-01 </wgt>
<wgt id='1891'> +6.2141310e-01 </wgt>
<wgt id='1892'> +5.7803727e-01 </wgt>
<wgt id='1893'> +5.7930887e-01 </wgt>
<wgt id='1894'> +5.8248314e-01 </wgt>
<wgt id='1895'> +6.1024262e-01 </wgt>
<wgt id='1896'> +5.9757905e-01 </wgt>
<wgt id='1897'> +5.8781424e-01 </wgt>
<wgt id='1898'> +5.9845385e-01 </wgt>
<wgt id='1899'> +6.2232426e-01 </wgt>
<wgt id='1900'> +6.1853163e-01 </wgt>
<wgt id='1901'> +6.3236470e-01 </wgt>
<wgt id='1902'> +6.1427701e-01 </wgt>
<wgt id='1903'> +6.2101663e-01 </wgt>
<wgt id='1904'> +6.1157670e-01 </wgt>
<wgt id='1905'> +6.1093709e-01 </wgt>
<wgt id='1906'> +5.9780852e-01 </wgt>
<wgt id='1907'> +6.0436098e-01 </wgt>
<wgt id='1908'> +5.9213432e-01 </wgt>
<wgt id='1909'> +6.3158591e-01 </wgt>
<wgt id='1910'> +6.1995828e-01 </wgt>
<wgt id='1911'> +6.5518775e-01 </wgt>
<wgt id='1912'> +5.7977134e-01 </wgt>
<wgt id='1913'> +6.1069815e-01 </wgt>
<wgt id='1914'> +5.8151153e-01 </wgt>
<wgt id='1915'> +6.0874275e-01 </wgt>
<wgt id='1916'> +6.4723116e-01 </wgt>
<wgt id='1917'> +6.0485069e-01 </wgt>
<wgt id='1918'> +6.1151357e-01 </wgt>
<wgt id='1919'> +6.0768864e-01 </wgt>
<wgt id='1920'> +6.3100079e-01 </wgt>
<wgt id='1921'> +6.3106783e-01 </wgt>
<wgt id='1922'> +6.2649086e-01 </wgt>
<wgt id='1923'> +5.6660133e-01 </wgt>
<wgt id='1924'> +6.2915054e-01 </wgt>
<wgt id='1925'> +6.0441708e-01 </wgt>
<wgt id='1926'> +6.0987046e-01 </wgt>
<wgt id='1927'> +6.2196599e-01 </wgt>
<wgt id='1928'> +6.0196784e-01 </wgt>
<wgt id='1929'> +6.2614275e-01 </wgt>
<wgt id='1930'> +5.8326768e-01 </wgt>
<wgt id='1931'> +6.0208243e-01 </wgt>
<wgt id='1932'> +5.9560834e-01 </wgt>
<wgt id='1933'> +6.3034757e-01 </wgt>
<wgt id='1934'> +6.2489092e-01 </wgt>
<wgt id='1935'> +6.2885004e-01 </wgt>
<wgt id='1936'> +6.4590750e-01 </wgt>
<wgt id='1937'> +6.3999419e-01 </wgt>
<wgt id='1938'> +5.9869645e-01 </wgt>
<wgt id='1939'> +6.3527421e-01 </wgt>
<wgt id='1940'> +5.8163191e-01 </wgt>
<wgt id='1941'> +6.0518001e-01 </wgt>
<wgt id='1942'> +5.9863719e-01 </wgt>
<wgt id='1943'> +5.9067932e-01 </wgt>
<wgt id='1944'> +6.0022332e-01 </wgt>
<wgt id='1945'> +5.8939218e-01 </wgt>
<wgt id='1946'> +6.4181882e-01 </wgt>
<wgt id='1947'> +6.1753807e-01 </wgt>
<wgt id='1948'> +6.4202129e-01 </wgt>
<wgt id='1949'> +6.1124132e-01 </wgt>
<wgt id='1950'> +5.8883042e-01 </wgt>
<wgt id='1951'> +5.8366477e-01 </wgt>
<wgt id='1952'> +5.8939142e-01 </wgt>
<wgt id='1953'> +5.7689115e-01 </wgt>
<wgt id='1954'> +6.0794727e-01 </wgt>
<wgt id='1955'> +6.0178357e-01 </wgt>
<wgt id='1956'> +6.2519361e-01 </wgt>
<wgt id='1957'> +6.1695529e-01 </wgt>
<wgt id='1958'> +6.0176487e-01 </wgt>
<wgt id='1959'> +5.9040438e-01 </wgt>
<wgt id='1960'> +5.9866352e-01 </wgt>
<wgt id='1961'> +5.8656387e-01 </wgt>
<wgt id='1962'> +5.7827625e-01 </wgt>
<wgt id='1963'> +6.1117309e-01 </wgt>
<wgt id='1964'> +6.2136140e-01 </wgt>
<wgt id='1965'> +6.0142889e-01 </wgt>
<wgt id='1966'> +6.1707004e-01 </wgt>
<wgt id='1967'> +6.1599113e-01 </wgt>
<wgt id='1968'> +6.3140664e-01 </wgt>
<wgt id='1969'> +6.0780663e-01 </wgt>
<wgt id='1970'> +5.9913776e-01 </wgt>
<wgt id='1971'> +6.1292966e-01 </wgt>
<wgt id='1972'> +6.0225755e-01 </wgt>
<wgt id='1973'> +5.8302594e-01 </wgt>
<wgt id='1974'> +5.9406802e-01 </wgt>
<wgt id='1975'> +6.3895869e-01 </wgt>
<wgt id='1976'> +5.9965436e-01 </wgt>
<wgt id='1977'> +6.0803406e-01 </wgt>
<wgt id='1978'> +6.3306074e-01 </wgt>
<wgt id='1979'> +6.0747641e-01 </wgt>
<wgt id='1980'> +6.1234005e-01 </wgt>
<wgt id='1981'> +6.2914072e-01 </wgt>
<wgt id='1982'> +5.6817211e-01 </wgt>
<wgt id='1983'> +6.4660154e-01 </wgt>
<wgt id='1984'> +5.4578389e-01 </wgt>
<wgt id='1985'> +6.0548529e-01 </wgt>
<wgt id='1986'> +6.3313024e-01 </wgt>
<wgt id='1987'> +5.9288359e-01 </wgt>
<wgt id='1988'> +5.8503918e-01 </wgt>
<wgt id='1989'> +5.9484825e-01 </wgt>
<wgt id='1990'> +5.8987779e-01 </wgt>
<wgt id='1991'> +6.0203964e-01 </wgt>
<wgt id='1992'> +6.1581638e-01 </wgt>
<wgt id='1993'> +5.9750315e-01 </wgt>
<wgt id='1994'> +6.2141310e-01 </wgt>
<wgt id='1995'> +5.7803727e-01 </wgt>
<wgt id='1996'> +5.7930887e-01 </wgt>
<wgt id='1997'> +5.8248314e-01 </wgt>
<wgt id='1998'> +6.1024262e-01 </wgt>
<wgt id='1999'> +5.9757905e-01 </wgt>
<wgt id='2000'> +5.8781424e-01 </wgt>
<wgt id='2001'> +5.9845385e-01 </wgt>
<wgt id='2002'> +6.2232426e-01 </wgt>
<wgt id='2003'> +6.1853163e-01 </wgt>
<wgt id='2004'> +6.3236470e-01 </wgt>
<wgt id='2005'> +6.1427701e-01 </wgt>
<wgt id='2006'> +6.2101663e-01 </wgt>
<wgt id='2007'> +6.1157670e-01 </wgt>
<wgt id='2008'> +6.1093709e-01 </wgt>
<wgt id='2009'> +5.9780852e-01 </wgt>
<wgt id='2010'> +6.0436098e-01 </wgt>
<wgt id='2011'> +5.9213432e-01 </wgt>
<wgt id='2012'> +6.3158591e-01 </wgt>
<wgt id='2013'> +6.1995828e-01 </wgt>
<wgt id='2014'> +6.5518775e-01 </wgt>
<wgt id='2015'> +5.7977134e-01 </wgt>
<wgt id='2016'> +6.1069815e-01 </wgt>
<wgt id='2017'> +5.8151153e-01 </wgt>
<wgt id='2018'> +6.0874275e-01 </wgt>
<wgt id='2019'> +6.4723116e-01 </wgt>
<wgt id='2020'> +5.9707181e-01 </wgt>
<wgt id='2021'> +6.1702321e-01 </wgt>
<wgt id='2022'> +6.5330999e-01 </wgt>
</rwgt>
</event>
<event>
 13 1 0.0079112 1.15377900e+02 7.81860800e-03 1.14540700e-01
        2 -1    0    0  501    0 +0.0000000000e+00 +0.0000000000e+00 +1.4823757287e+03 1.4823757287e+03 2.5500000000e-03 0.0000e+00 -1.0000e+00
       21 -1    0    0  502  503 +0.0000000000e+00 +0.0000000000e+00 -4.9003446909e+02 4.9003446909e+02 0.0000000000e+00 0.0000e+00 -1.0000e+00
  8000001  2    1    2  502    0 +2.8911401984e+01 +5.1096684527e+01 -3.0153660493e+02 6.7407097991e+02 6.0000051792e+02 0.0000e+00 0.0000e+00
        1  1    1    2  501    0 -8.4534056556e+00 -5.7971626570e+01 +1.2154761756e+03 1.2168872187e+03 5.0400000000e-03 0.0000e+00 -1.0000e+00
       -5  1    1    2    0  503 -2.0457996328e+01 +6.8749420422e+00 +7.8401688992e+01 8.1451999234e+01 4.6700000000e+00 0.0000e+00 1.0000e+00
        6  2    3    3  502    0 +1.8763387014e+02 +1.6364204032e+02 +9.0870655427e-01 3.0286081187e+02 1.7244900416e+02 0.0000e+00 0.0000e+00
        5  1    6    6  502    0 +1.4977328146e+02 +9.8886023801e+01 +4.2938087604e+01 1.8459677628e+02 4.6700000000e+00 0.0000e+00 -1.0000e+00
       24  2    6    6    0    0 +3.7860588679e+01 +6.4756016522e+01 -4.2029381050e+01 1.1826403560e+02 8.1198198216e+01 0.0000e+00 0.0000e+00
        2  1    8    8  504    0 +4.3679415649e+01 +1.8650616884e+01 -5.2325375857e+01 7.0665987764e+01 2.5500000000e-03 0.0000e+00 -1.0000e+00
       -1  1    8    8    0  504 -5.8188269704e+00 +4.6105399638e+01 +1.0295994807e+01 4.7598047833e+01 5.0400000000e-03 0.0000e+00 1.0000e+00
       23  2    3    3    0    0 -1.5872246816e+02 -1.1254535580e+02 -3.0244531148e+02 3.7121016803e+02 9.2002953227e+01 0.0000e+00 0.0000e+00
       14  1   11   11    0    0 -5.8990759750e+01 -9.4607060571e+01 -1.8592426858e+02 2.1679077308e+02 0.0000000000e+00 0.0000e+00 -1.0000e+00
      -14  1   11   11    0    0 -9.9731708410e+01 -1.7938295225e+01 -1.1652104290e+02 1.5441939495e+02 0.0000000000e+00 0.0000e+00 1.0000e+00
<mgrwt>
<rscale>  1 0.82211563e+02</rscale>
<asrwt>0</asrwt>
<pdfrwt beam="1">  1       21 0.75389919e-01 0.11537789e+03</pdfrwt>
<pdfrwt beam="2">  1        2 0.22805780e+00 0.58579168e+02</pdfrwt>
<totfact> 0.37017405e+02</totfact>
</mgrwt>
<rwgt>
<wgt id='1001'> +5.2878984e-01 </wgt>
<wgt id='1002'> +3.0489325e-01 </wgt>
<wgt id='1003'> +3.0482922e-01 </wgt>
<wgt id='1004'> +3.6626786e-01 </wgt>
<wgt id='1005'> +2.3409173e-01 </wgt>
<wgt id='1006'> +4.7581392e-01 </wgt>
<wgt id='1007'> +2.8127223e-01 </wgt>
<wgt id='1008'> +2.8121544e-01 </wgt>
<wgt id='1009'> +3.3539352e-01 </wgt>
<wgt id='1010'> +2.1801792e-01 </wgt>
<wgt id='1011'> +5.9555777e-01 </wgt>
<wgt id='1012'> +3.3296311e-01 </wgt>
<wgt id='1013'> +3.3288999e-01 </wgt>
<wgt id='1014'> +4.0359768e-01 </wgt>
<wgt id='1015'> +2.5278455e-01 </wgt>
<wgt id='1016'> +4.7466513e-01 </wgt>
<wgt id='1017'> +2.7892506e-01 </wgt>
<wgt id='1018'> +2.7886844e-01 </wgt>
<wgt id='1019'> +3.3288999e-01 </wgt>
<wgt id='1020'> +2.1577937e-01 </wgt>
<wgt id='1021'> +4.2711161e-01 </wgt>
<wgt id='1022'> +2.5731588e-01 </wgt>
<wgt id='1023'> +2.5726573e-01 </wgt>
<wgt id='1024'> +3.0482922e-01 </wgt>
<wgt id='1025'> +2.0096296e-01 </wgt>
<wgt id='1026'> +5.3459898e-01 </wgt>
<wgt id='1027'> +3.0460418e-01 </wgt>
<wgt id='1028'> +3.0453942e-01 </wgt>
<wgt id='1029'> +3.6681796e-01 </wgt>
<wgt id='1030'> +2.3300990e-01 </wgt>
<wgt id='1031'> +5.9416805e-01 </wgt>
<wgt id='1032'> +3.3546633e-01 </wgt>
<wgt id='1033'> +3.3539352e-01 </wgt>
<wgt id='1034'> +4.0541326e-01 </wgt>
<wgt id='1035'> +2.5518555e-01 </wgt>
<wgt id='1036'> +5.3464233e-01 </wgt>
<wgt id='1037'> +3.0947672e-01 </wgt>
<wgt id='1038'> +3.0941206e-01 </wgt>
<wgt id='1039'> +3.7123918e-01 </wgt>
<wgt id='1040'> +2.3766334e-01 </wgt>
<wgt id='1041'> +6.6919100e-01 </wgt>
<wgt id='1042'> +3.6635089e-01 </wgt>
<wgt id='1043'> +3.6626786e-01 </wgt>
<wgt id='1044'> +4.4673275e-01 </wgt>
<wgt id='1045'> +2.7556277e-01 </wgt>
<wgt id='1046'> +5.2878984e-01 </wgt>
<wgt id='1047'> +5.2878984e-01 </wgt>
<wgt id='1048'> +5.2878984e-01 </wgt>
<wgt id='1049'> +5.2810507e-01 </wgt>
<wgt id='1050'> +5.2848369e-01 </wgt>
<wgt id='1051'> +5.3092143e-01 </wgt>
<wgt id='1052'> +5.2766669e-01 </wgt>
<wgt id='1053'> +5.3031496e-01 </wgt>
<wgt id='1054'> +5.2821973e-01 </wgt>
<wgt id='1055'> +5.2744441e-01 </wgt>
<wgt id='1056'> +5.2785831e-01 </wgt>
<wgt id='1057'> +5.2872051e-01 </wgt>
<wgt id='1058'> +5.2867639e-01 </wgt>
<wgt id='1059'> +5.3002625e-01 </wgt>
<wgt id='1060'> +5.2697706e-01 </wgt>
<wgt id='1061'> +5.2925407e-01 </wgt>
<wgt id='1062'> +5.2968117e-01 </wgt>
<wgt id='1063'> +5.2839749e-01 </wgt>
<wgt id='1064'> +5.2966347e-01 </wgt>
<wgt id='1065'> +5.3085498e-01 </wgt>
<wgt id='1066'> +5.2668281e-01 </wgt>
<wgt id='1067'> +5.2635587e-01 </wgt>
<wgt id='1068'> +5.2841139e-01 </wgt>
<wgt id='1069'> +5.2710454e-01 </wgt>
<wgt id='1070'> +5.3025917e-01 </wgt>
<wgt id='1071'> +5.2884146e-01 </wgt>
<wgt id='1072'> +5.2922150e-01 </wgt>
<wgt id='1073'> +5.2812820e-01 </wgt>
<wgt id='1074'> +5.2893747e-01 </wgt>
<wgt id='1075'> +5.2602574e-01 </wgt>
<wgt id='1076'> +5.2999026e-01 </wgt>
<wgt id='1077'> +5.2999753e-01 </wgt>
<wgt id='1078'> +5.2882639e-01 </wgt>
<wgt id='1079'> +5.3104202e-01 </wgt>
<wgt id='1080'> +5.3057036e-01 </wgt>
<wgt id='1081'> +5.2947213e-01 </wgt>
<wgt id='1082'> +5.2940634e-01 </wgt>
<wgt id='1083'> +5.2807944e-01 </wgt>
<wgt id='1084'> +5.2813883e-01 </wgt>
<wgt id='1085'> +5.3026040e-01 </wgt>
<wgt id='1086'> +5.2746393e-01 </wgt>
<wgt id='1087'> +5.2890039e-01 </wgt>
<wgt id='1088'> +5.2933848e-01 </wgt>
<wgt id='1089'> +5.2904203e-01 </wgt>
<wgt id='1090'> +5.2908592e-01 </wgt>
<wgt id='1091'> +5.2785640e-01 </wgt>
<wgt id='1092'> +5.2778538e-01 </wgt>
<wgt id='1093'> +5.2863855e-01 </wgt>
<wgt id='1094'> +5.2872496e-01 </wgt>
<wgt id='1095'> +5.2778435e-01 </wgt>
<wgt id='1096'> +5.2766894e-01 </wgt>
<wgt id='1097'> +5.2844240e-01 </wgt>
<wgt id='1098'> +5.2862500e-01 </wgt>
<wgt id='1099'> +5.2861924e-01 </wgt>
<wgt id='1100'> +5.2904774e-01 </wgt>
<wgt id='1101'> +5.2843052e-01 </wgt>
<wgt id='1102'> +5.2897923e-01 </wgt>
<wgt id='1103'> +5.2937158e-01 </wgt>
<wgt id='1104'> +5.2874669e-01 </wgt>
<wgt id='1105'> +5.2932883e-01 </wgt>
<wgt id='1106'> +5.2920537e-01 </wgt>
<wgt id='1107'> +5.2844744e-01 </wgt>
<wgt id='1108'> +5.2905117e-01 </wgt>
<wgt id='1109'> +5.2907834e-01 </wgt>
<wgt id='1110'> +5.2875779e-01 </wgt>
<wgt id='1111'> +5.2847789e-01 </wgt>
<wgt id='1112'> +5.2905857e-01 </wgt>
<wgt id='1113'> +5.2884886e-01 </wgt>
<wgt id='1114'> +5.2757925e-01 </wgt>
<wgt id='1115'> +5.2921103e-01 </wgt>
<wgt id='1116'> +5.2877961e-01 </wgt>
<wgt id='1117'> +5.2902740e-01 </wgt>
<wgt id='1118'> +5.2868396e-01 </wgt>
<wgt id='1119'> +5.2893206e-01 </wgt>
<wgt id='1120'> +5.2853125e-01 </wgt>
<wgt id='1121'> +5.2951784e-01 </wgt>
<wgt id='1122'> +5.2869196e-01 </wgt>
<wgt id='1123'> +5.2889408e-01 </wgt>
<wgt id='1124'> +5.2858161e-01 </wgt>
<wgt id='1125'> +5.2870906e-01 </wgt>
<wgt id='1126'> +5.2875273e-01 </wgt>
<wgt id='1127'> +5.2926199e-01 </wgt>
<wgt id='1128'> +5.2870751e-01 </wgt>
<wgt id='1129'> +5.2889174e-01 </wgt>
<wgt id='1130'> +5.2899773e-01 </wgt>
<wgt id='1131'> +5.2921174e-01 </wgt>
<wgt id='1132'> +5.2856171e-01 </wgt>
<wgt id='1133'> +5.2901162e-01 </wgt>
<wgt id='1134'> +5.2867093e-01 </wgt>
<wgt id='1135'> +5.2913670e-01 </wgt>
<wgt id='1136'> +5.2896924e-01 </wgt>
<wgt id='1137'> +5.2877955e-01 </wgt>
<wgt id='1138'> +5.2904254e-01 </wgt>
<wgt id='1139'> +5.2873767e-01 </wgt>
<wgt id='1140'> +5.2920176e-01 </wgt>
<wgt id='1141'> +5.2879982e-01 </wgt>
<wgt id='1142'> +5.2895056e-01 </wgt>
<wgt id='1143'> +5.2915985e-01 </wgt>
<wgt id='1144'> +5.2854364e-01 </wgt>
<wgt id='1145'> +5.2863212e-01 </wgt>
<wgt id='1146'> +5.2874016e-01 </wgt>
<wgt id='1147'> +5.2909275e-01 </wgt>
<wgt id='1148'> +5.2878984e-01 </wgt>
<wgt id='1149'> +5.0224252e-01 </wgt>
<wgt id='1150'> +5.0597869e-01 </wgt>
<wgt id='1151'> +4.9824920e-01 </wgt>
<wgt id='1152'> +4.9152131e-01 </wgt>
<wgt id='1153'> +4.9881742e-01 </wgt>
<wgt id='1154'> +5.0751094e-01 </wgt>
<wgt id='1155'> +5.1071782e-01 </wgt>
<wgt id='1156'> +5.0856462e-01 </wgt>
<wgt id='1157'> +5.1088617e-01 </wgt>
<wgt id='1158'> +4.9824037e-01 </wgt>
<wgt id='1159'> +4.7679407e-01 </wgt>
<wgt id='1160'> +4.9628838e-01 </wgt>
<wgt id='1161'> +5.1270536e-01 </wgt>
<wgt id='1162'> +4.9198149e-01 </wgt>
<wgt id='1163'> +5.1430924e-01 </wgt>
<wgt id='1164'> +4.9735737e-01 </wgt>
<wgt id='1165'> +4.9639099e-01 </wgt>
<wgt id='1166'> +5.0487307e-01 </wgt>
<wgt id='1167'> +5.0850973e-01 </wgt>
<wgt id='1168'> +4.9622137e-01 </wgt>
<wgt id='1169'> +4.9167431e-01 </wgt>
<wgt id='1170'> +5.0336624e-01 </wgt>
<wgt id='1171'> +4.9930093e-01 </wgt>
<wgt id='1172'> +5.0452730e-01 </wgt>
<wgt id='1173'> +5.0392969e-01 </wgt>
<wgt id='1174'> +5.1071816e-01 </wgt>
<wgt id='1175'> +5.0736613e-01 </wgt>
<wgt id='1176'> +4.7705167e-01 </wgt>
<wgt id='1177'> +5.1052151e-01 </wgt>
<wgt id='1178'> +5.0267051e-01 </wgt>
<wgt id='1179'> +4.9249185e-01 </wgt>
<wgt id='1180'> +5.0269865e-01 </wgt>
<wgt id='1181'> +5.0587760e-01 </wgt>
<wgt id='1182'> +5.0782104e-01 </wgt>
<wgt id='1183'> +5.0797177e-01 </wgt>
<wgt id='1184'> +4.9425815e-01 </wgt>
<wgt id='1185'> +5.1058652e-01 </wgt>
<wgt id='1186'> +4.9560439e-01 </wgt>
<wgt id='1187'> +5.0241839e-01 </wgt>
<wgt id='1188'> +4.9340872e-01 </wgt>
<wgt id='1189'> +5.1011983e-01 </wgt>
<wgt id='1190'> +5.0266480e-01 </wgt>
<wgt id='1191'> +5.1212283e-01 </wgt>
<wgt id='1192'> +4.9843202e-01 </wgt>
<wgt id='1193'> +5.0906647e-01 </wgt>
<wgt id='1194'> +5.0607303e-01 </wgt>
<wgt id='1195'> +5.0165919e-01 </wgt>
<wgt id='1196'> +5.0233194e-01 </wgt>
<wgt id='1197'> +5.1107265e-01 </wgt>
<wgt id='1198'> +4.9549632e-01 </wgt>
<wgt id='1199'> +4.9591469e-01 </wgt>
<wgt id='1200'> +5.0615776e-01 </wgt>
<wgt id='1201'> +5.0795218e-01 </wgt>
<wgt id='1202'> +5.0296265e-01 </wgt>
<wgt id='1203'> +5.0466684e-01 </wgt>
<wgt id='1204'> +5.1572329e-01 </wgt>
<wgt id='1205'> +4.9927718e-01 </wgt>
<wgt id='1206'> +5.0272318e-01 </wgt>
<wgt id='1207'> +5.0963276e-01 </wgt>
<wgt id='1208'> +5.0252397e-01 </wgt>
<wgt id='1209'> +5.1194005e-01 </wgt>
<wgt id='1210'> +4.8962509e-01 </wgt>
<wgt id='1211'> +5.0177134e-01 </wgt>
<wgt id='1212'> +5.0006054e-01 </wgt>
<wgt id='1213'> +5.1602561e-01 </wgt>
<wgt id='1214'> +5.0397495e-01 </wgt>
<wgt id='1215'> +5.0650128e-01 </wgt>
<wgt id='1216'> +5.0517587e-01 </wgt>
<wgt id='1217'> +4.9140826e-01 </wgt>
<wgt id='1218'> +5.0516493e-01 </wgt>
<wgt id='1219'> +5.0277673e-01 </wgt>
<wgt id='1220'> +5.0107949e-01 </wgt>
<wgt id='1221'> +4.7288202e-01 </wgt>
<wgt id='1222'> +5.0490425e-01 </wgt>
<wgt id='1223'> +4.8903149e-01 </wgt>
<wgt id='1224'> +4.9668892e-01 </wgt>
<wgt id='1225'> +5.0616761e-01 </wgt>
<wgt id='1226'> +4.9608943e-01 </wgt>
<wgt id='1227'> +5.0630630e-01 </wgt>
<wgt id='1228'> +5.0057059e-01 </wgt>
<wgt id='1229'> +4.9907641e-01 </wgt>
<wgt id='1230'> +5.0827907e-01 </wgt>
<wgt id='1231'> +4.9639099e-01 </wgt>
<wgt id='1232'> +4.9445062e-01 </wgt>
<wgt id='1233'> +5.0182280e-01 </wgt>
<wgt id='1234'> +4.9708638e-01 </wgt>
<wgt id='1235'> +5.0129826e-01 </wgt>
<wgt id='1236'> +5.0743225e-01 </wgt>
<wgt id='1237'> +5.0021898e-01 </wgt>
<wgt id='1238'> +4.9078354e-01 </wgt>
<wgt id='1239'> +5.2097579e-01 </wgt>
<wgt id='1240'> +5.1631511e-01 </wgt>
<wgt id='1241'> +5.0554791e-01 </wgt>
<wgt id='1242'> +4.9927563e-01 </wgt>
<wgt id='1243'> +5.0100291e-01 </wgt>
<wgt id='1244'> +5.0619486e-01 </wgt>
<wgt id='1245'> +5.1103666e-01 </wgt>
<wgt id='1246'> +5.0187175e-01 </wgt>
<wgt id='1247'> +4.9974109e-01 </wgt>
<wgt id='1248'> +5.0284832e-01 </wgt>
<wgt id='1249'> +5.0557533e-01 </wgt>
<wgt id='1250'> +5.1485649e-01 </wgt>
<wgt id='1251'> +5.0701942e-01 </wgt>
<wgt id='1252'> +5.3075401e-01 </wgt>
<wgt id='1253'> +5.2474346e-01 </wgt>
<wgt id='1254'> +4.9954278e-01 </wgt>
<wgt id='1255'> +5.4021394e-01 </wgt>
<wgt id='1256'> +5.4389309e-01 </wgt>
<wgt id='1257'> +5.3813656e-01 </wgt>
<wgt id='1258'> +5.3953238e-01 </wgt>
<wgt id='1259'> +5.4058397e-01 </wgt>
<wgt id='1260'> +5.4112104e-01 </wgt>
<wgt id='1261'> +5.3904380e-01 </wgt>
<wgt id='1262'> +5.4089164e-01 </wgt>
<wgt id='1263'> +5.3982740e-01 </wgt>
<wgt id='1264'> +5.3992285e-01 </wgt>
<wgt id='1265'> +5.4048957e-01 </wgt>
<wgt id='1266'> +5.4061070e-01 </wgt>
<wgt id='1267'> +5.3987047e-01 </wgt>
<wgt id='1268'> +5.4571168e-01 </wgt>
<wgt id='1269'> +5.3477069e-01 </wgt>
<wgt id='1270'> +5.3748159e-01 </wgt>
<wgt id='1271'> +5.4282198e-01 </wgt>
<wgt id='1272'> +5.3984722e-01 </wgt>
<wgt id='1273'> +5.4054737e-01 </wgt>
<wgt id='1274'> +5.4019522e-01 </wgt>
<wgt id='1275'> +5.4028291e-01 </wgt>
<wgt id='1276'> +5.4191383e-01 </wgt>
<wgt id='1277'> +5.3850192e-01 </wgt>
<wgt id='1278'> +5.3685347e-01 </wgt>
<wgt id='1279'> +5.4297712e-01 </wgt>
<wgt id='1280'> +5.3996756e-01 </wgt>
<wgt id='1281'> +5.4090417e-01 </wgt>
<wgt id='1282'> +5.4263055e-01 </wgt>
<wgt id='1283'> +5.3738061e-01 </wgt>
<wgt id='1284'> +5.3868125e-01 </wgt>
<wgt id='1285'> +5.4167866e-01 </wgt>
<wgt id='1286'> +5.4226643e-01 </wgt>
<wgt id='1287'> +5.4013034e-01 </wgt>
<wgt id='1288'> +5.4076055e-01 </wgt>
<wgt id='1289'> +5.3990014e-01 </wgt>
<wgt id='1290'> +5.4111092e-01 </wgt>
<wgt id='1291'> +5.3993622e-01 </wgt>
<wgt id='1292'> +5.4381287e-01 </wgt>
<wgt id='1293'> +5.3596584e-01 </wgt>
<wgt id='1294'> +5.3715359e-01 </wgt>
<wgt id='1295'> +5.4077272e-01 </wgt>
<wgt id='1296'> +5.2740975e-01 </wgt>
<wgt id='1297'> +5.2880995e-01 </wgt>
<wgt id='1298'> +5.2624378e-01 </wgt>
<wgt id='1299'> +5.2560142e-01 </wgt>
<wgt id='1300'> +5.2939535e-01 </wgt>
<wgt id='1301'> +5.2611342e-01 </wgt>
<wgt id='1302'> +5.2930003e-01 </wgt>
<wgt id='1303'> +5.2701528e-01 </wgt>
<wgt id='1304'> +5.2763860e-01 </wgt>
<wgt id='1305'> +5.2788830e-01 </wgt>
<wgt id='1306'> +5.2671172e-01 </wgt>
<wgt id='1307'> +5.2981087e-01 </wgt>
<wgt id='1308'> +5.2588164e-01 </wgt>
<wgt id='1309'> +5.2776719e-01 </wgt>
<wgt id='1310'> +5.2689064e-01 </wgt>
<wgt id='1311'> +5.3228433e-01 </wgt>
<wgt id='1312'> +5.2562876e-01 </wgt>
<wgt id='1313'> +5.2509324e-01 </wgt>
<wgt id='1314'> +5.3017468e-01 </wgt>
<wgt id='1315'> +5.2764614e-01 </wgt>
<wgt id='1316'> +5.2714495e-01 </wgt>
<wgt id='1317'> +5.2734887e-01 </wgt>
<wgt id='1318'> +5.2783910e-01 </wgt>
<wgt id='1319'> +5.2635114e-01 </wgt>
<wgt id='1320'> +5.2819258e-01 </wgt>
<wgt id='1321'> +5.2454769e-01 </wgt>
<wgt id='1322'> +5.2885595e-01 </wgt>
<wgt id='1323'> +5.2656773e-01 </wgt>
<wgt id='1324'> +5.2814762e-01 </wgt>
<wgt id='1325'> +5.2764429e-01 </wgt>
<wgt id='1326'> +5.2730384e-01 </wgt>
<wgt id='1327'> +5.2722872e-01 </wgt>
<wgt id='1328'> +5.2749949e-01 </wgt>
<wgt id='1329'> +5.2761218e-01 </wgt>
<wgt id='1330'> +5.2724020e-01 </wgt>
<wgt id='1331'> +5.2870207e-01 </wgt>
<wgt id='1332'> +5.2727934e-01 </wgt>
<wgt id='1333'> +5.3203685e-01 </wgt>
<wgt id='1334'> +5.2435074e-01 </wgt>
<wgt id='1335'> +5.2955426e-01 </wgt>
<wgt id='1336'> +5.2686807e-01 </wgt>
<wgt id='1337'> +5.2740975e-01 </wgt>
<wgt id='1338'> +5.2785601e-01 </wgt>
<wgt id='1339'> +5.2767670e-01 </wgt>
<wgt id='1340'> +5.2748758e-01 </wgt>
<wgt id='1341'> +5.2717234e-01 </wgt>
<wgt id='1342'> +5.2703538e-01 </wgt>
<wgt id='1343'> +5.2686765e-01 </wgt>
<wgt id='1344'> +5.2636789e-01 </wgt>
<wgt id='1345'> +5.2857298e-01 </wgt>
<wgt id='1346'> +5.2421606e-01 </wgt>
<wgt id='1347'> +5.2968604e-01 </wgt>
<wgt id='1348'> +5.2391977e-01 </wgt>
<wgt id='1349'> +5.2556501e-01 </wgt>
<wgt id='1350'> +5.2704481e-01 </wgt>
<wgt id='1351'> +5.2637817e-01 </wgt>
<wgt id='1352'> +5.2636581e-01 </wgt>
<wgt id='1353'> +5.2775632e-01 </wgt>
<wgt id='1354'> +5.2539207e-01 </wgt>
<wgt id='1355'> +5.2550620e-01 </wgt>
<wgt id='1356'> +5.2702399e-01 </wgt>
<wgt id='1357'> +5.2698429e-01 </wgt>
<wgt id='1358'> +5.2599357e-01 </wgt>
<wgt id='1359'> +5.2424870e-01 </wgt>
<wgt id='1360'> +5.3168003e-01 </wgt>
<wgt id='1361'> +5.2453612e-01 </wgt>
<wgt id='1362'> +5.2832328e-01 </wgt>
<wgt id='1363'> +5.2615258e-01 </wgt>
<wgt id='1364'> +5.2664672e-01 </wgt>
<wgt id='1365'> +5.2566100e-01 </wgt>
<wgt id='1366'> +5.2674210e-01 </wgt>
<wgt id='1367'> +5.2281491e-01 </wgt>
<wgt id='1368'> +5.2813679e-01 </wgt>
<wgt id='1369'> +5.2728021e-01 </wgt>
<wgt id='1370'> +5.2567690e-01 </wgt>
<wgt id='1371'> +5.2647304e-01 </wgt>
<wgt id='1372'> +5.2623369e-01 </wgt>
<wgt id='1373'> +5.2947154e-01 </wgt>
<wgt id='1374'> +5.2572298e-01 </wgt>
<wgt id='1375'> +5.2729045e-01 </wgt>
<wgt id='1376'> +5.2621347e-01 </wgt>
<wgt id='1377'> +5.2637323e-01 </wgt>
<wgt id='1378'> +5.2644267e-01 </wgt>
<wgt id='1379'> +5.2674713e-01 </wgt>
<wgt id='1380'> +5.2713368e-01 </wgt>
<wgt id='1381'> +5.2280637e-01 </wgt>
<wgt id='1382'> +5.2922847e-01 </wgt>
<wgt id='1383'> +5.2567319e-01 </wgt>
<wgt id='1384'> +5.3035374e-01 </wgt>
<wgt id='1385'> +5.2636789e-01 </wgt>
<wgt id='1386'> +5.2681903e-01 </wgt>
<wgt id='1387'> +5.2667389e-01 </wgt>
<wgt id='1388'> +5.2648238e-01 </wgt>
<wgt id='1389'> +5.2613150e-01 </wgt>
<wgt id='1390'> +5.2596093e-01 </wgt>
<wgt id='1391'> +5.2579147e-01 </wgt>
<wgt id='1392'> +5.4665791e-01 </wgt>
<wgt id='1393'> +5.4688756e-01 </wgt>
<wgt id='1394'> +5.4644788e-01 </wgt>
<wgt id='1395'> +5.4707910e-01 </wgt>
<wgt id='1396'> +5.4635900e-01 </wgt>
<wgt id='1397'> +5.4898340e-01 </wgt>
<wgt id='1398'> +5.4439845e-01 </wgt>
<wgt id='1399'> +5.4863682e-01 </wgt>
<wgt id='1400'> +5.4424737e-01 </wgt>
<wgt id='1401'> +5.4485348e-01 </wgt>
<wgt id='1402'> +5.4888942e-01 </wgt>
<wgt id='1403'> +5.4624583e-01 </wgt>
<wgt id='1404'> +5.4750100e-01 </wgt>
<wgt id='1405'> +5.4596966e-01 </wgt>
<wgt id='1406'> +5.4764638e-01 </wgt>
<wgt id='1407'> +5.4630976e-01 </wgt>
<wgt id='1408'> +5.4689088e-01 </wgt>
<wgt id='1409'> +5.4899250e-01 </wgt>
<wgt id='1410'> +5.4399025e-01 </wgt>
<wgt id='1411'> +5.4579159e-01 </wgt>
<wgt id='1412'> +5.4733218e-01 </wgt>
<wgt id='1413'> +5.4859313e-01 </wgt>
<wgt id='1414'> +5.4465434e-01 </wgt>
<wgt id='1415'> +5.4848522e-01 </wgt>
<wgt id='1416'> +5.4467271e-01 </wgt>
<wgt id='1417'> +5.4344651e-01 </wgt>
<wgt id='1418'> +5.5061363e-01 </wgt>
<wgt id='1419'> +5.4661475e-01 </wgt>
<wgt id='1420'> +5.4639156e-01 </wgt>
<wgt id='1421'> +5.4630473e-01 </wgt>
<wgt id='1422'> +5.4718930e-01 </wgt>
<wgt id='1423'> +5.4387033e-01 </wgt>
<wgt id='1424'> +5.4845000e-01 </wgt>
<wgt id='1425'> +5.4698267e-01 </wgt>
<wgt id='1426'> +5.4622784e-01 </wgt>
<wgt id='1427'> +5.4633828e-01 </wgt>
<wgt id='1428'> +5.4416271e-01 </wgt>
<wgt id='1429'> +5.4594186e-01 </wgt>
<wgt id='1430'> +5.4726806e-01 </wgt>
<wgt id='1431'> +5.4570855e-01 </wgt>
<wgt id='1432'> +5.4740976e-01 </wgt>
<wgt id='1433'> +5.4321830e-01 </wgt>
<wgt id='1434'> +5.5020049e-01 </wgt>
<wgt id='1435'> +5.4612571e-01 </wgt>
<wgt id='1436'> +5.4760252e-01 </wgt>
<wgt id='1437'> +5.4598206e-01 </wgt>
<wgt id='1438'> +5.4824346e-01 </wgt>
<wgt id='1439'> +5.5079921e-01 </wgt>
<wgt id='1440'> +5.4182499e-01 </wgt>
<wgt id='1441'> +5.4801704e-01 </wgt>
<wgt id='1442'> +5.4729829e-01 </wgt>
<wgt id='1443'> +5.4101368e-01 </wgt>
<wgt id='1444'> +5.4122175e-01 </wgt>
<wgt id='1445'> +5.4074386e-01 </wgt>
<wgt id='1446'> +5.4144174e-01 </wgt>
<wgt id='1447'> +5.4067176e-01 </wgt>
<wgt id='1448'> +5.4344751e-01 </wgt>
<wgt id='1449'> +5.3871742e-01 </wgt>
<wgt id='1450'> +5.4282988e-01 </wgt>
<wgt id='1451'> +5.3894766e-01 </wgt>
<wgt id='1452'> +5.3921372e-01 </wgt>
<wgt id='1453'> +5.4269735e-01 </wgt>
<wgt id='1454'> +5.4047997e-01 </wgt>
<wgt id='1455'> +5.4212194e-01 </wgt>
<wgt id='1456'> +5.4015181e-01 </wgt>
<wgt id='1457'> +5.4247319e-01 </wgt>
<wgt id='1458'> +5.4076558e-01 </wgt>
<wgt id='1459'> +5.4112000e-01 </wgt>
<wgt id='1460'> +5.4314565e-01 </wgt>
<wgt id='1461'> +5.3839039e-01 </wgt>
<wgt id='1462'> +5.3964738e-01 </wgt>
<wgt id='1463'> +5.4214812e-01 </wgt>
<wgt id='1464'> +5.4277530e-01 </wgt>
<wgt id='1465'> +5.3864795e-01 </wgt>
<wgt id='1466'> +5.4367564e-01 </wgt>
<wgt id='1467'> +5.3900930e-01 </wgt>
<wgt id='1468'> +5.4460853e-01 </wgt>
<wgt id='1469'> +5.3743432e-01 </wgt>
<wgt id='1470'> +5.4115812e-01 </wgt>
<wgt id='1471'> +5.4066784e-01 </wgt>
<wgt id='1472'> +5.4072971e-01 </wgt>
<wgt id='1473'> +5.4132752e-01 </wgt>
<wgt id='1474'> +5.3904490e-01 </wgt>
<wgt id='1475'> +5.4280415e-01 </wgt>
<wgt id='1476'> +5.4179541e-01 </wgt>
<wgt id='1477'> +5.4012804e-01 </wgt>
<wgt id='1478'> +5.4077712e-01 </wgt>
<wgt id='1479'> +5.3847053e-01 </wgt>
<wgt id='1480'> +5.4063659e-01 </wgt>
<wgt id='1481'> +5.4131771e-01 </wgt>
<wgt id='1482'> +5.4007282e-01 </wgt>
<wgt id='1483'> +5.4184153e-01 </wgt>
<wgt id='1484'> +5.3746456e-01 </wgt>
<wgt id='1485'> +5.4462380e-01 </wgt>
<wgt id='1486'> +5.4071865e-01 </wgt>
<wgt id='1487'> +5.4163090e-01 </wgt>
<wgt id='1488'> +5.4017078e-01 </wgt>
<wgt id='1489'> +5.4287416e-01 </wgt>
<wgt id='1490'> +5.4615933e-01 </wgt>
<wgt id='1491'> +5.3635302e-01 </wgt>
<wgt id='1492'> +5.4317569e-01 </wgt>
<wgt id='1493'> +5.4162642e-01 </wgt>
<wgt id='1494'> +5.2310840e-01 </wgt>
<wgt id='1495'> +5.1548830e-01 </wgt>
<wgt id='1496'> +5.1816805e-01 </wgt>
<wgt id='1497'> +5.2061746e-01 </wgt>
<wgt id='1498'> +5.2556808e-01 </wgt>
<wgt id='1499'> +5.2308086e-01 </wgt>
<wgt id='1500'> +5.2872598e-01 </wgt>
<wgt id='1501'> +5.2768477e-01 </wgt>
<wgt id='1502'> +5.2666067e-01 </wgt>
<wgt id='1503'> +5.2552916e-01 </wgt>
<wgt id='1504'> +5.2435294e-01 </wgt>
<wgt id='1505'> +5.2188642e-01 </wgt>
<wgt id='1506'> +5.2064856e-01 </wgt>
<wgt id='1507'> +5.1937683e-01 </wgt>
<wgt id='1508'> +5.2308086e-01 </wgt>
<wgt id='1509'> +5.2367179e-01 </wgt>
<wgt id='1510'> +5.2334310e-01 </wgt>
<wgt id='1511'> +5.2289709e-01 </wgt>
<wgt id='1512'> +5.2268877e-01 </wgt>
<wgt id='1513'> +5.2509654e-01 </wgt>
<wgt id='1514'> +5.2503275e-01 </wgt>
<wgt id='1515'> +5.2517908e-01 </wgt>
<wgt id='1516'> +5.2608995e-01 </wgt>
<wgt id='1517'> +5.2408829e-01 </wgt>
<wgt id='1518'> +5.2617873e-01 </wgt>
<wgt id='1519'> +5.2465102e-01 </wgt>
<wgt id='1520'> +5.2827710e-01 </wgt>
<wgt id='1521'> +5.2190342e-01 </wgt>
<wgt id='1522'> +5.2416083e-01 </wgt>
<wgt id='1523'> +5.2597841e-01 </wgt>
<wgt id='1524'> +5.2785408e-01 </wgt>
<wgt id='1525'> +5.2389257e-01 </wgt>
<wgt id='1526'> +5.2506107e-01 </wgt>
<wgt id='1527'> +5.2513323e-01 </wgt>
<wgt id='1528'> +5.2437138e-01 </wgt>
<wgt id='1529'> +5.2587902e-01 </wgt>
<wgt id='1530'> +5.2823113e-01 </wgt>
<wgt id='1531'> +5.2329609e-01 </wgt>
<wgt id='1532'> +5.2681830e-01 </wgt>
<wgt id='1533'> +5.2270365e-01 </wgt>
<wgt id='1534'> +5.2337010e-01 </wgt>
<wgt id='1535'> +5.2629256e-01 </wgt>
<wgt id='1536'> +5.2220693e-01 </wgt>
<wgt id='1537'> +5.2789880e-01 </wgt>
<wgt id='1538'> +5.2388084e-01 </wgt>
<wgt id='1539'> +5.2785905e-01 </wgt>
<wgt id='1540'> +5.2422282e-01 </wgt>
<wgt id='1541'> +5.2535149e-01 </wgt>
<wgt id='1542'> +5.2552359e-01 </wgt>
<wgt id='1543'> +5.2437666e-01 </wgt>
<wgt id='1544'> +5.2393622e-01 </wgt>
<wgt id='1545'> +5.2639272e-01 </wgt>
<wgt id='1546'> +5.2482164e-01 </wgt>
<wgt id='1547'> +5.2427043e-01 </wgt>
<wgt id='1548'> +5.2286517e-01 </wgt>
<wgt id='1549'> +5.2492189e-01 </wgt>
<wgt id='1550'> +5.2504842e-01 </wgt>
<wgt id='1551'> +5.2481921e-01 </wgt>
<wgt id='1552'> +5.2382223e-01 </wgt>
<wgt id='1553'> +5.2585804e-01 </wgt>
<wgt id='1554'> +5.2664940e-01 </wgt>
<wgt id='1555'> +5.2173098e-01 </wgt>
<wgt id='1556'> +5.2588344e-01 </wgt>
<wgt id='1557'> +5.2488865e-01 </wgt>
<wgt id='1558'> +5.2147196e-01 </wgt>
<wgt id='1559'> +5.2801918e-01 </wgt>
<wgt id='1560'> +5.2836609e-01 </wgt>
<wgt id='1561'> +5.2364795e-01 </wgt>
<wgt id='1562'> +5.2232584e-01 </wgt>
<wgt id='1563'> +5.2730550e-01 </wgt>
<wgt id='1564'> +5.2509654e-01 </wgt>
<wgt id='1565'> +5.2136906e-01 </wgt>
<wgt id='1566'> +5.2703442e-01 </wgt>
<wgt id='1567'> +5.2426266e-01 </wgt>
<wgt id='1568'> +5.3043496e-01 </wgt>
<wgt id='1569'> +5.2922600e-01 </wgt>
<wgt id='1570'> +5.2798530e-01 </wgt>
<wgt id='1571'> +5.2677021e-01 </wgt>
<wgt id='1572'> +5.2550756e-01 </wgt>
<wgt id='1573'> +5.2282640e-01 </wgt>
<wgt id='1574'> +5.2124888e-01 </wgt>
<wgt id='1575'> +5.1991099e-01 </wgt>
<wgt id='1576'> +5.2426266e-01 </wgt>
<wgt id='1577'> +5.2459795e-01 </wgt>
<wgt id='1578'> +5.2442377e-01 </wgt>
<wgt id='1579'> +5.2413694e-01 </wgt>
<wgt id='1580'> +5.2407669e-01 </wgt>
<wgt id='1581'> +5.2799112e-01 </wgt>
<wgt id='1582'> +5.2880451e-01 </wgt>
<wgt id='1583'> +5.3106430e-01 </wgt>
<wgt id='1584'> +5.2623267e-01 </wgt>
<wgt id='1585'> +5.3014721e-01 </wgt>
<wgt id='1586'> +5.2329136e-01 </wgt>
<wgt id='1587'> +5.2406659e-01 </wgt>
<wgt id='1588'> +5.3304129e-01 </wgt>
<wgt id='1589'> +5.2757007e-01 </wgt>
<wgt id='1590'> +5.3029557e-01 </wgt>
<wgt id='1591'> +5.2695552e-01 </wgt>
<wgt id='1592'> +5.2196379e-01 </wgt>
<wgt id='1593'> +5.2949881e-01 </wgt>
<wgt id='1594'> +5.2589759e-01 </wgt>
<wgt id='1595'> +5.2711937e-01 </wgt>
<wgt id='1596'> +5.3182424e-01 </wgt>
<wgt id='1597'> +5.2966025e-01 </wgt>
<wgt id='1598'> +5.2986879e-01 </wgt>
<wgt id='1599'> +5.2783034e-01 </wgt>
<wgt id='1600'> +5.2971710e-01 </wgt>
<wgt id='1601'> +5.2641895e-01 </wgt>
<wgt id='1602'> +5.2931374e-01 </wgt>
<wgt id='1603'> +5.2888033e-01 </wgt>
<wgt id='1604'> +5.2788134e-01 </wgt>
<wgt id='1605'> +5.2721131e-01 </wgt>
<wgt id='1606'> +5.2863999e-01 </wgt>
<wgt id='1607'> +5.2890409e-01 </wgt>
<wgt id='1608'> +5.2783739e-01 </wgt>
<wgt id='1609'> +5.2920624e-01 </wgt>
<wgt id='1610'> +5.2771733e-01 </wgt>
<wgt id='1611'> +5.3189353e-01 </wgt>
<wgt id='1612'> +5.2460288e-01 </wgt>
<wgt id='1613'> +5.2448041e-01 </wgt>
<wgt id='1614'> +5.2495847e-01 </wgt>
<wgt id='1615'> +5.2488050e-01 </wgt>
<wgt id='1616'> +5.2445273e-01 </wgt>
<wgt id='1617'> +5.2458419e-01 </wgt>
<wgt id='1618'> +5.2549722e-01 </wgt>
<wgt id='1619'> +5.2435497e-01 </wgt>
<wgt id='1620'> +5.2467480e-01 </wgt>
<wgt id='1621'> +5.2445307e-01 </wgt>
<wgt id='1622'> +5.2552513e-01 </wgt>
<wgt id='1623'> +5.2335499e-01 </wgt>
<wgt id='1624'> +5.2257258e-01 </wgt>
<wgt id='1625'> +5.2277490e-01 </wgt>
<wgt id='1626'> +5.2494758e-01 </wgt>
<wgt id='1627'> +5.2322472e-01 </wgt>
<wgt id='1628'> +5.2502681e-01 </wgt>
<wgt id='1629'> +5.2512551e-01 </wgt>
<wgt id='1630'> +5.2352932e-01 </wgt>
<wgt id='1631'> +5.2536167e-01 </wgt>
<wgt id='1632'> +5.2355025e-01 </wgt>
<wgt id='1633'> +5.2516100e-01 </wgt>
<wgt id='1634'> +5.2441729e-01 </wgt>
<wgt id='1635'> +5.2339622e-01 </wgt>
<wgt id='1636'> +5.2341884e-01 </wgt>
<wgt id='1637'> +5.2473173e-01 </wgt>
<wgt id='1638'> +5.2433448e-01 </wgt>
<wgt id='1639'> +5.2561947e-01 </wgt>
<wgt id='1640'> +5.2502059e-01 </wgt>
<wgt id='1641'> +5.2171272e-01 </wgt>
<wgt id='1642'> +5.2320399e-01 </wgt>
<wgt id='1643'> +5.2449172e-01 </wgt>
<wgt id='1644'> +5.2310133e-01 </wgt>
<wgt id='1645'> +5.2384519e-01 </wgt>
<wgt id='1646'> +5.2663602e-01 </wgt>
<wgt id='1647'> +5.2355533e-01 </wgt>
<wgt id='1648'> +5.2385757e-01 </wgt>
<wgt id='1649'> +5.2614464e-01 </wgt>
<wgt id='1650'> +5.2381342e-01 </wgt>
<wgt id='1651'> +5.2345777e-01 </wgt>
<wgt id='1652'> +5.2370539e-01 </wgt>
<wgt id='1653'> +5.2412486e-01 </wgt>
<wgt id='1654'> +5.2429112e-01 </wgt>
<wgt id='1655'> +5.2514613e-01 </wgt>
<wgt id='1656'> +5.2491232e-01 </wgt>
<wgt id='1657'> +5.2401015e-01 </wgt>
<wgt id='1658'> +5.2556984e-01 </wgt>
<wgt id='1659'> +5.2581841e-01 </wgt>
<wgt id='1660'> +5.2464756e-01 </wgt>
<wgt id='1661'> +5.2478080e-01 </wgt>
<wgt id='1662'> +5.2529141e-01 </wgt>
<wgt id='1663'> +5.2621538e-01 </wgt>
<wgt id='1664'> +5.2505844e-01 </wgt>
<wgt id='1665'> +5.2529219e-01 </wgt>
<wgt id='1666'> +5.2557640e-01 </wgt>
<wgt id='1667'> +5.2452742e-01 </wgt>
<wgt id='1668'> +5.2409906e-01 </wgt>
<wgt id='1669'> +5.2456268e-01 </wgt>
<wgt id='1670'> +5.2378771e-01 </wgt>
<wgt id='1671'> +5.2466086e-01 </wgt>
<wgt id='1672'> +5.2476186e-01 </wgt>
<wgt id='1673'> +5.2469923e-01 </wgt>
<wgt id='1674'> +5.2470932e-01 </wgt>
<wgt id='1675'> +5.2422934e-01 </wgt>
<wgt id='1676'> +5.2353731e-01 </wgt>
<wgt id='1677'> +5.2483812e-01 </wgt>
<wgt id='1678'> +5.2498929e-01 </wgt>
<wgt id='1679'> +5.2534619e-01 </wgt>
<wgt id='1680'> +5.2574827e-01 </wgt>
<wgt id='1681'> +5.2447628e-01 </wgt>
<wgt id='1682'> +5.2444703e-01 </wgt>
<wgt id='1683'> +5.2428755e-01 </wgt>
<wgt id='1684'> +5.2460413e-01 </wgt>
<wgt id='1685'> +5.2393269e-01 </wgt>
<wgt id='1686'> +5.2446224e-01 </wgt>
<wgt id='1687'> +5.2424363e-01 </wgt>
<wgt id='1688'> +5.2432188e-01 </wgt>
<wgt id='1689'> +5.2510179e-01 </wgt>
<wgt id='1690'> +5.2478714e-01 </wgt>
<wgt id='1691'> +5.2524242e-01 </wgt>
<wgt id='1692'> +5.2442117e-01 </wgt>
<wgt id='1693'> +5.2516029e-01 </wgt>
<wgt id='1694'> +5.2520850e-01 </wgt>
<wgt id='1695'> +5.2496020e-01 </wgt>
<wgt id='1696'> +5.2442152e-01 </wgt>
<wgt id='1697'> +5.2464586e-01 </wgt>
<wgt id='1698'> +5.2436569e-01 </wgt>
<wgt id='1699'> +5.2453036e-01 </wgt>
<wgt id='1700'> +5.2470863e-01 </wgt>
<wgt id='1701'> +5.2456267e-01 </wgt>
<wgt id='1702'> +5.2447451e-01 </wgt>
<wgt id='1703'> +5.2468601e-01 </wgt>
<wgt id='1704'> +5.2481530e-01 </wgt>
<wgt id='1705'> +5.2442799e-01 </wgt>
<wgt id='1706'> +5.2440292e-01 </wgt>
<wgt id='1707'> +5.2447545e-01 </wgt>
<wgt id='1708'> +5.2418165e-01 </wgt>
<wgt id='1709'> +5.2471066e-01 </wgt>
<wgt id='1710'> +5.2431223e-01 </wgt>
<wgt id='1711'> +5.2457859e-01 </wgt>
<wgt id='1712'> +5.2425890e-01 </wgt>
<wgt id='1713'> +5.1521482e-01 </wgt>
<wgt id='1714'> +5.3383896e-01 </wgt>
<wgt id='1715'> +5.0998279e-01 </wgt>
<wgt id='1716'> +5.0391780e-01 </wgt>
<wgt id='1717'> +5.1879462e-01 </wgt>
<wgt id='1718'> +5.1075523e-01 </wgt>
<wgt id='1719'> +5.0227222e-01 </wgt>
<wgt id='1720'> +5.2884793e-01 </wgt>
<wgt id='1721'> +5.1126505e-01 </wgt>
<wgt id='1722'> +5.0615944e-01 </wgt>
<wgt id='1723'> +5.1043954e-01 </wgt>
<wgt id='1724'> +5.1284551e-01 </wgt>
<wgt id='1725'> +5.1257427e-01 </wgt>
<wgt id='1726'> +5.0891588e-01 </wgt>
<wgt id='1727'> +5.1388068e-01 </wgt>
<wgt id='1728'> +5.0994616e-01 </wgt>
<wgt id='1729'> +5.1086144e-01 </wgt>
<wgt id='1730'> +5.0052256e-01 </wgt>
<wgt id='1731'> +4.8345461e-01 </wgt>
<wgt id='1732'> +5.0061551e-01 </wgt>
<wgt id='1733'> +5.0896572e-01 </wgt>
<wgt id='1734'> +5.2556574e-01 </wgt>
<wgt id='1735'> +4.9743263e-01 </wgt>
<wgt id='1736'> +5.2151692e-01 </wgt>
<wgt id='1737'> +5.0949564e-01 </wgt>
<wgt id='1738'> +5.1673962e-01 </wgt>
<wgt id='1739'> +5.1138934e-01 </wgt>
<wgt id='1740'> +5.1660712e-01 </wgt>
<wgt id='1741'> +5.0324273e-01 </wgt>
<wgt id='1742'> +5.1222033e-01 </wgt>
<wgt id='1743'> +4.9632753e-01 </wgt>
<wgt id='1744'> +5.1916324e-01 </wgt>
<wgt id='1745'> +5.0221190e-01 </wgt>
<wgt id='1746'> +5.1305311e-01 </wgt>
<wgt id='1747'> +5.1881930e-01 </wgt>
<wgt id='1748'> +5.0513236e-01 </wgt>
<wgt id='1749'> +5.1954939e-01 </wgt>
<wgt id='1750'> +5.0089462e-01 </wgt>
<wgt id='1751'> +5.0843509e-01 </wgt>
<wgt id='1752'> +4.9742507e-01 </wgt>
<wgt id='1753'> +5.1218770e-01 </wgt>
<wgt id='1754'> +5.1431329e-01 </wgt>
<wgt id='1755'> +5.1573535e-01 </wgt>
<wgt id='1756'> +5.1123720e-01 </wgt>
<wgt id='1757'> +5.0436063e-01 </wgt>
<wgt id='1758'> +5.1282217e-01 </wgt>
<wgt id='1759'> +5.1509096e-01 </wgt>
<wgt id='1760'> +5.0692702e-01 </wgt>
<wgt id='1761'> +5.0728657e-01 </wgt>
<wgt id='1762'> +5.1388068e-01 </wgt>
<wgt id='1763'> +5.1372057e-01 </wgt>
<wgt id='1764'> +5.2113109e-01 </wgt>
<wgt id='1765'> +5.1853000e-01 </wgt>
<wgt id='1766'> +5.2079278e-01 </wgt>
<wgt id='1767'> +5.0216997e-01 </wgt>
<wgt id='1768'> +4.9285201e-01 </wgt>
<wgt id='1769'> +5.1748035e-01 </wgt>
<wgt id='1770'> +5.0471393e-01 </wgt>
<wgt id='1771'> +4.9847821e-01 </wgt>
<wgt id='1772'> +5.0969202e-01 </wgt>
<wgt id='1773'> +5.1731460e-01 </wgt>
<wgt id='1774'> +4.9930260e-01 </wgt>
<wgt id='1775'> +5.1000400e-01 </wgt>
<wgt id='1776'> +5.1889039e-01 </wgt>
<wgt id='1777'> +5.0508286e-01 </wgt>
<wgt id='1778'> +5.1475447e-01 </wgt>
<wgt id='1779'> +5.0850249e-01 </wgt>
<wgt id='1780'> +5.2439464e-01 </wgt>
<wgt id='1781'> +5.1777262e-01 </wgt>
<wgt id='1782'> +5.0195113e-01 </wgt>
<wgt id='1783'> +5.0689240e-01 </wgt>
<wgt id='1784'> +5.0537887e-01 </wgt>
<wgt id='1785'> +5.1565533e-01 </wgt>
<wgt id='1786'> +5.0900678e-01 </wgt>
<wgt id='1787'> +5.1469675e-01 </wgt>
<wgt id='1788'> +5.0834323e-01 </wgt>
<wgt id='1789'> +5.1599464e-01 </wgt>
<wgt id='1790'> +5.1211517e-01 </wgt>
<wgt id='1791'> +5.0635833e-01 </wgt>
<wgt id='1792'> +5.1103265e-01 </wgt>
<wgt id='1793'> +5.1106175e-01 </wgt>
<wgt id='1794'> +4.9289712e-01 </wgt>
<wgt id='1795'> +4.9327596e-01 </wgt>
<wgt id='1796'> +5.1346393e-01 </wgt>
<wgt id='1797'> +5.2255007e-01 </wgt>
<wgt id='1798'> +5.0344720e-01 </wgt>
<wgt id='1799'> +5.1478696e-01 </wgt>
<wgt id='1800'> +5.1284527e-01 </wgt>
<wgt id='1801'> +5.0301315e-01 </wgt>
<wgt id='1802'> +5.0679867e-01 </wgt>
<wgt id='1803'> +5.1275872e-01 </wgt>
<wgt id='1804'> +5.1866669e-01 </wgt>
<wgt id='1805'> +5.1086185e-01 </wgt>
<wgt id='1806'> +5.0728567e-01 </wgt>
<wgt id='1807'> +5.0821334e-01 </wgt>
<wgt id='1808'> +5.0676006e-01 </wgt>
<wgt id='1809'> +5.1173836e-01 </wgt>
<wgt id='1810'> +5.0629144e-01 </wgt>
<wgt id='1811'> +5.0962011e-01 </wgt>
<wgt id='1812'> +5.0522044e-01 </wgt>
<wgt id='1813'> +5.1421833e-01 </wgt>
<wgt id='1814'> +5.0058633e-01 </wgt>
<wgt id='1815'> +5.1957684e-01 </wgt>
<wgt id='1816'> +5.4236515e-01 </wgt>
<wgt id='1817'> +5.5668736e-01 </wgt>
<wgt id='1818'> +5.4334392e-01 </wgt>
<wgt id='1819'> +5.5974543e-01 </wgt>
<wgt id='1820'> +5.4575845e-01 </wgt>
<wgt id='1821'> +5.6765958e-01 </wgt>
<wgt id='1822'> +5.4689047e-01 </wgt>
<wgt id='1823'> +5.4123404e-01 </wgt>
<wgt id='1824'> +5.3599191e-01 </wgt>
<wgt id='1825'> +5.4414316e-01 </wgt>
<wgt id='1826'> +5.4177414e-01 </wgt>
<wgt id='1827'> +5.3443072e-01 </wgt>
<wgt id='1828'> +5.4656156e-01 </wgt>
<wgt id='1829'> +5.3783343e-01 </wgt>
<wgt id='1830'> +5.4461907e-01 </wgt>
<wgt id='1831'> +5.5400110e-01 </wgt>
<wgt id='1832'> +5.3958203e-01 </wgt>
<wgt id='1833'> +5.4194748e-01 </wgt>
<wgt id='1834'> +5.3756844e-01 </wgt>
<wgt id='1835'> +5.4251266e-01 </wgt>
<wgt id='1836'> +5.5724750e-01 </wgt>
<wgt id='1837'> +5.4624584e-01 </wgt>
<wgt id='1838'> +5.3664218e-01 </wgt>
<wgt id='1839'> +5.5763330e-01 </wgt>
<wgt id='1840'> +5.4585170e-01 </wgt>
<wgt id='1841'> +5.3829307e-01 </wgt>
<wgt id='1842'> +5.4830958e-01 </wgt>
<wgt id='1843'> +5.3343581e-01 </wgt>
<wgt id='1844'> +5.4732833e-01 </wgt>
<wgt id='1845'> +5.5358580e-01 </wgt>
<wgt id='1846'> +5.5036412e-01 </wgt>
<wgt id='1847'> +5.3755692e-01 </wgt>
<wgt id='1848'> +5.4312300e-01 </wgt>
<wgt id='1849'> +5.3558863e-01 </wgt>
<wgt id='1850'> +5.4410150e-01 </wgt>
<wgt id='1851'> +5.4123654e-01 </wgt>
<wgt id='1852'> +5.3276427e-01 </wgt>
<wgt id='1853'> +5.3498930e-01 </wgt>
<wgt id='1854'> +5.4034734e-01 </wgt>
<wgt id='1855'> +5.4660575e-01 </wgt>
<wgt id='1856'> +5.3820076e-01 </wgt>
<wgt id='1857'> +5.5240238e-01 </wgt>
<wgt id='1858'> +5.3761720e-01 </wgt>
<wgt id='1859'> +5.3806270e-01 </wgt>
<wgt id='1860'> +5.4645103e-01 </wgt>
<wgt id='1861'> +5.3922230e-01 </wgt>
<wgt id='1862'> +5.4575365e-01 </wgt>
<wgt id='1863'> +5.3600864e-01 </wgt>
<wgt id='1864'> +5.4014454e-01 </wgt>
<wgt id='1865'> +5.4626897e-01 </wgt>
<wgt id='1866'> +5.4122067e-01 </wgt>
<wgt id='1867'> +5.4370475e-01 </wgt>
<wgt id='1868'> +5.3997118e-01 </wgt>
<wgt id='1869'> +5.5441187e-01 </wgt>
<wgt id='1870'> +5.3309737e-01 </wgt>
<wgt id='1871'> +5.3370403e-01 </wgt>
<wgt id='1872'> +5.3848527e-01 </wgt>
<wgt id='1873'> +5.4028873e-01 </wgt>
<wgt id='1874'> +5.4346156e-01 </wgt>
<wgt id='1875'> +5.4616961e-01 </wgt>
<wgt id='1876'> +5.3980148e-01 </wgt>
<wgt id='1877'> +5.4146021e-01 </wgt>
<wgt id='1878'> +5.4762099e-01 </wgt>
<wgt id='1879'> +5.4182552e-01 </wgt>
<wgt id='1880'> +5.2725329e-01 </wgt>
<wgt id='1881'> +5.3372373e-01 </wgt>
<wgt id='1882'> +5.3505991e-01 </wgt>
<wgt id='1883'> +5.6800238e-01 </wgt>
<wgt id='1884'> +5.3581338e-01 </wgt>
<wgt id='1885'> +5.2826808e-01 </wgt>
<wgt id='1886'> +5.2292983e-01 </wgt>
<wgt id='1887'> +5.3780015e-01 </wgt>
<wgt id='1888'> +5.5088917e-01 </wgt>
<wgt id='1889'> +5.4742798e-01 </wgt>
<wgt id='1890'> +5.5561754e-01 </wgt>
<wgt id='1891'> +5.4580397e-01 </wgt>
<wgt id='1892'> +5.4726586e-01 </wgt>
<wgt id='1893'> +5.3385860e-01 </wgt>
<wgt id='1894'> +5.4096488e-01 </wgt>
<wgt id='1895'> +5.4833043e-01 </wgt>
<wgt id='1896'> +5.3159174e-01 </wgt>
<wgt id='1897'> +5.4258107e-01 </wgt>
<wgt id='1898'> +5.4123682e-01 </wgt>
<wgt id='1899'> +5.4377042e-01 </wgt>
<wgt id='1900'> +5.4006596e-01 </wgt>
<wgt id='1901'> +5.4170393e-01 </wgt>
<wgt id='1902'> +5.3263512e-01 </wgt>
<wgt id='1903'> +5.4402555e-01 </wgt>
<wgt id='1904'> +5.4650335e-01 </wgt>
<wgt id='1905'> +5.4148307e-01 </wgt>
<wgt id='1906'> +5.3490729e-01 </wgt>
<wgt id='1907'> +5.3863056e-01 </wgt>
<wgt id='1908'> +5.3886333e-01 </wgt>
<wgt id='1909'> +5.4104285e-01 </wgt>
<wgt id='1910'> +5.5138314e-01 </wgt>
<wgt id='1911'> +5.2902708e-01 </wgt>
<wgt id='1912'> +5.3692650e-01 </wgt>
<wgt id='1913'> +5.4011422e-01 </wgt>
<wgt id='1914'> +5.4223114e-01 </wgt>
<wgt id='1915'> +5.4443663e-01 </wgt>
<wgt id='1916'> +5.3172968e-01 </wgt>
<wgt id='1917'> +5.4744740e-01 </wgt>
<wgt id='1918'> +5.5830737e-01 </wgt>
<wgt id='1919'> +5.4236515e-01 </wgt>
<wgt id='1920'> +5.5668736e-01 </wgt>
<wgt id='1921'> +5.4334392e-01 </wgt>
<wgt id='1922'> +5.5974543e-01 </wgt>
<wgt id='1923'> +5.4575845e-01 </wgt>
<wgt id='1924'> +5.6765958e-01 </wgt>
<wgt id='1925'> +5.4689047e-01 </wgt>
<wgt id='1926'> +5.4123404e-01 </wgt>
<wgt id='1927'> +5.3599191e-01 </wgt>
<wgt id='1928'> +5.4414316e-01 </wgt>
<wgt id='1929'> +5.4177414e-01 </wgt>
<wgt id='1930'> +5.3443072e-01 </wgt>
<wgt id='1931'> +5.4656156e-01 </wgt>
<wgt id='1932'> +5.3783343e-01 </wgt>
<wgt id='1933'> +5.4461907e-01 </wgt>
<wgt id='1934'> +5.5400110e-01 </wgt>
<wgt id='1935'> +5.3958203e-01 </wgt>
<wgt id='1936'> +5.4194748e-01 </wgt>
<wgt id='1937'> +5.3756844e-01 </wgt>
<wgt id='1938'> +5.4251266e-01 </wgt>
<wgt id='1939'> +5.5724750e-01 </wgt>
<wgt id='1940'> +5.4624584e-01 </wgt>
<wgt id='1941'> +5.3664218e-01 </wgt>
<wgt id='1942'> +5.5763330e-01 </wgt>
<wgt id='1943'> +5.4585170e-01 </wgt>
<wgt id='1944'> +5.3829307e-01 </wgt>
<wgt id='1945'> +5.4830958e-01 </wgt>
<wgt id='1946'> +5.3343581e-01 </wgt>
<wgt id='1947'> +5.4732833e-01 </wgt>
<wgt id='1948'> +5.5358580e-01 </wgt>
<wgt id='1949'> +5.5036412e-01 </wgt>
<wgt id='1950'> +5.3755692e-01 </wgt>
<wgt id='1951'> +5.4312300e-01 </wgt>
<wgt id='1952'> +5.3558863e-01 </wgt>
<wgt id='1953'> +5.4410150e-01 </wgt>
<wgt id='1954'> +5.4123654e-01 </wgt>
<wgt id='1955'> +5.3276427e-01 </wgt>
<wgt id='1956'> +5.3498930e-01 </wgt>
<wgt id='1957'> +5.4034734e-01 </wgt>
<wgt id='1958'> +5.4660575e-01 </wgt>
<wgt id='1959'> +5.3820076e-01 </wgt>
<wgt id='1960'> +5.5240238e-01 </wgt>
<wgt id='1961'> +5.3761720e-01 </wgt>
<wgt id='1962'> +5.3806270e-01 </wgt>
<wgt id='1963'> +5.4645103e-01 </wgt>
<wgt id='1964'> +5.3922230e-01 </wgt>
<wgt id='1965'> +5.4575365e-01 </wgt>
<wgt id='1966'> +5.3600864e-01 </wgt>
<wgt id='1967'> +5.4014454e-01 </wgt>
<wgt id='1968'> +5.4626897e-01 </wgt>
<wgt id='1969'> +5.4122067e-01 </wgt>
<wgt id='1970'> +5.4370475e-01 </wgt>
<wgt id='1971'> +5.3997118e-01 </wgt>
<wgt id='1972'> +5.5441187e-01 </wgt>
<wgt id='1973'> +5.3309737e-01 </wgt>
<wgt id='1974'> +5.3370403e-01 </wgt>
<wgt id='1975'> +5.3848527e-01 </wgt>
<wgt id='1976'> +5.4028873e-01 </wgt>
<wgt id='1977'> +5.4346156e-01 </wgt>
<wgt id='1978'> +5.4616961e-01 </wgt>
<wgt id='1979'> +5.3980148e-01 </wgt>
<wgt id='1980'> +5.4146021e-01 </wgt>
<wgt id='1981'> +5.4762099e-01 </wgt>
<wgt id='1982'> +5.4182552e-01 </wgt>
<wgt id='1983'> +5.2725329e-01 </wgt>
<wgt id='1984'> +5.3372373e-01 </wgt>
<wgt id='1985'> +5.3505991e-01 </wgt>
<wgt id='1986'> +5.6800238e-01 </wgt>
<wgt id='1987'> +5.3581338e-01 </wgt>
<wgt id='1988'> +5.2826808e-01 </wgt>
<wgt id='1989'> +5.2292983e-01 </wgt>
<wgt id='1990'> +5.3780015e-01 </wgt>
<wgt id='1991'> +5.5088917e-01 </wgt>
<wgt id='1992'> +5.4742798e-01 </wgt>
<wgt id='1993'> +5.5561754e-01 </wgt>
<wgt id='1994'> +5.4580397e-01 </wgt>
<wgt id='1995'> +5.4726586e-01 </wgt>
<wgt id='1996'> +5.3385860e-01 </wgt>
<wgt id='1997'> +5.4096488e-01 </wgt>
<wgt id='1998'> +5.4833043e-01 </wgt>
<wgt id='1999'> +5.3159174e-01 </wgt>
<wgt id='2000'> +5.4258107e-01 </wgt>
<wgt id='2001'> +5.4123682e-01 </wgt>
<wgt id='2002'> +5.4377042e-01 </wgt>
<wgt id='2003'> +5.4006596e-01 </wgt>
<wgt id='2004'> +5.4170393e-01 </wgt>
<wgt id='2005'> +5.3263512e-01 </wgt>
<wgt id='2006'> +5.4402555e-01 </wgt>
<wgt id='2007'> +5.4650335e-01 </wgt>
<wgt id='2008'> +5.4148307e-01 </wgt>
<wgt id='2009'> +5.3490729e-01 </wgt>
<wgt id='2010'> +5.3863056e-01 </wgt>
<wgt id='2011'> +5.3886333e-01 </wgt>
<wgt id='2012'> +5.4104285e-01 </wgt>
<wgt id='2013'> +5.5138314e-01 </wgt>
<wgt id='2014'> +5.2902708e-01 </wgt>
<wgt id='2015'> +5.3692650e-01 </wgt>
<wgt id='2016'> +5.4011422e-01 </wgt>
<wgt id='2017'> +5.4223114e-01 </wgt>
<wgt id='2018'> +5.4443663e-01 </wgt>
<wgt id='2019'> +5.3172968e-01 </wgt>
<wgt id='2020'> +5.3975981e-01 </wgt>
<wgt id='2021'> +5.4342469e-01 </wgt>
<wgt id='2022'> +5.3806504e-01 </wgt>
</rwgt>
</event>
<event>
 13 1 0.0079112 1.38835500e+02 7.81860800e-03 1.09624700e-01
       21 -1    0    0  502  503 +0.0000000000e+00 +0.0000000000e+00 +1.8891385352e+02 1.8891385352e+02 0.0000000000e+00 0.0000e+00 -1.0000e+00
        2 -1    0    0  501    0 +0.0000000000e+00 +0.0000000000e+00 -1.3764476894e+03 1.3764476894e+03 2.5500000000e-03 0.0000e+00 -1.0000e+00
  8000001  2    1    2  502    0 +6.1856835626e+01 -9.5392376506e+01 -5.5973947008e+02 8.2839273814e+02 6.0000023386e+02 0.0000e+00 0.0000e+00
        1  1    1    2  501    0 -5.4013336758e+01 +6.4922505773e+01 -6.7488144338e+02 6.8014508374e+02 5.0400000000e-03 0.0000e+00 -1.0000e+00
       -5  1    1    2    0  503 -7.8434988684e+00 +3.0469870732e+01 +4.7087077573e+01 5.6823721033e+01 4.6700000000e+00 0.0000e+00 1.0000e+00
        6  2    3    3  502    0 +1.7159887938e+02 +1.2768185527e+02 -4.7492605952e+02 5.5045146775e+02 1.7802591036e+02 0.0000e+00 0.0000e+00
        5  1    6    6  502    0 +1.1635451127e+02 +1.3465408490e+02 -2.6702972779e+02 3.2093111301e+02 4.6700000000e+00 0.0000e+00 -1.0000e+00
       24  2    6    6    0    0 +5.5244368113e+01 -6.9722296231e+00 -2.0789633173e+02 2.2952035474e+02 7.9738047991e+01 0.0000e+00 0.0000e+00
        4  1    8    8  504    0 +5.4714186445e+01 -1.5162924640e+01 -2.1260366224e+02 2.2005791642e+02 1.2700000000e+00 0.0000e+00 -1.0000e+00
       -3  1    8    8    0  504 +5.3018166798e-01 +8.1906950167e+00 +4.7073305054e+00 9.4624383193e+00 1.0100000000e-01 0.0000e+00 1.0000e+00
       23  2    3    3    0    0 -1.0974204376e+02 -2.2307423178e+02 -8.4813410554e+01 2.7794127040e+02 9.0843855752e+01 0.0000e+00 0.0000e+00
        1  1   11   11  505    0 +1.3928486015e+00 -9.5128687562e+01 -3.3635203969e+01 1.0090953471e+02 5.0400000000e-03 0.0000e+00 -1.0000e+00
       -1  1   11   11    0  505 -1.1113489236e+02 -1.2794554422e+02 -5.1178206586e+01 1.7703173568e+02 5.0400000000e-03 0.0000e+00 1.0000e+00
<mgrwt>
<rscale>  1 0.10863268e+03</rscale>
<asrwt>0</asrwt>
<pdfrwt beam="1">  1       21 0.29063670e-01 0.13883554e+03</pdfrwt>
<pdfrwt beam="2">  1        2 0.21176118e+00 0.85000271e+02</pdfrwt>
<totfact> 0.29291850e+03</totfact>
</mgrwt>
<rwgt>
<wgt id='1001'> +5.2878984e-01 </wgt>
<wgt id='1002'> +3.5498855e-01 </wgt>
<wgt id='1003'> +3.5495489e-01 </wgt>
<wgt id='1004'> +4.1053763e-01 </wgt>
<wgt id='1005'> +3.2202943e-01 </wgt>
<wgt id='1006'> +4.7797755e-01 </wgt>
<wgt id='1007'> +3.2779271e-01 </wgt>
<wgt id='1008'> +3.2776311e-01 </wgt>
<wgt id='1009'> +3.7634626e-01 </wgt>
<wgt id='1010'> +2.9868174e-01 </wgt>
<wgt id='1011'> +5.9213619e-01 </wgt>
<wgt id='1012'> +3.8724164e-01 </wgt>
<wgt id='1013'> +3.8720284e-01 </wgt>
<wgt id='1014'> +4.5176576e-01 </wgt>
<wgt id='1015'> +3.4943646e-01 </wgt>
<wgt id='1016'> +4.9710047e-01 </wgt>
<wgt id='1017'> +3.3548384e-01 </wgt>
<wgt id='1018'> +3.3545223e-01 </wgt>
<wgt id='1019'> +3.8720284e-01 </wgt>
<wgt id='1020'> +3.0463896e-01 </wgt>
<wgt id='1021'> +4.4933326e-01 </wgt>
<wgt id='1022'> +3.0978226e-01 </wgt>
<wgt id='1023'> +3.0975448e-01 </wgt>
<wgt id='1024'> +3.5495489e-01 </wgt>
<wgt id='1025'> +2.8255211e-01 </wgt>
<wgt id='1026'> +5.5665059e-01 </wgt>
<wgt id='1027'> +3.6596480e-01 </wgt>
<wgt id='1028'> +3.6592834e-01 </wgt>
<wgt id='1029'> +4.2608758e-01 </wgt>
<wgt id='1030'> +3.3056593e-01 </wgt>
<wgt id='1031'> +5.6273113e-01 </wgt>
<wgt id='1032'> +3.7638255e-01 </wgt>
<wgt id='1033'> +3.7634626e-01 </wgt>
<wgt id='1034'> +4.3553056e-01 </wgt>
<wgt id='1035'> +3.4093175e-01 </wgt>
<wgt id='1036'> +5.0865736e-01 </wgt>
<wgt id='1037'> +3.4754770e-01 </wgt>
<wgt id='1038'> +3.4751576e-01 </wgt>
<wgt id='1039'> +3.9925768e-01 </wgt>
<wgt id='1040'> +3.1621360e-01 </wgt>
<wgt id='1041'> +6.3014347e-01 </wgt>
<wgt id='1042'> +4.1057944e-01 </wgt>
<wgt id='1043'> +4.1053763e-01 </wgt>
<wgt id='1044'> +4.7926860e-01 </wgt>
<wgt id='1045'> +3.6994750e-01 </wgt>
<wgt id='1046'> +5.2878984e-01 </wgt>
<wgt id='1047'> +5.2878984e-01 </wgt>
<wgt id='1048'> +5.2878984e-01 </wgt>
<wgt id='1049'> +5.2939228e-01 </wgt>
<wgt id='1050'> +5.2828356e-01 </wgt>
<wgt id='1051'> +5.2954713e-01 </wgt>
<wgt id='1052'> +5.2784627e-01 </wgt>
<wgt id='1053'> +5.3156679e-01 </wgt>
<wgt id='1054'> +5.2861456e-01 </wgt>
<wgt id='1055'> +5.2948314e-01 </wgt>
<wgt id='1056'> +5.3015462e-01 </wgt>
<wgt id='1057'> +5.2862588e-01 </wgt>
<wgt id='1058'> +5.2864793e-01 </wgt>
<wgt id='1059'> +5.2692804e-01 </wgt>
<wgt id='1060'> +5.2850027e-01 </wgt>
<wgt id='1061'> +5.2873889e-01 </wgt>
<wgt id='1062'> +5.2943817e-01 </wgt>
<wgt id='1063'> +5.2828312e-01 </wgt>
<wgt id='1064'> +5.2887338e-01 </wgt>
<wgt id='1065'> +5.2858758e-01 </wgt>
<wgt id='1066'> +5.2817722e-01 </wgt>
<wgt id='1067'> +5.3069126e-01 </wgt>
<wgt id='1068'> +5.2644104e-01 </wgt>
<wgt id='1069'> +5.2894458e-01 </wgt>
<wgt id='1070'> +5.2863547e-01 </wgt>
<wgt id='1071'> +5.2838276e-01 </wgt>
<wgt id='1072'> +5.2996630e-01 </wgt>
<wgt id='1073'> +5.2839630e-01 </wgt>
<wgt id='1074'> +5.2906952e-01 </wgt>
<wgt id='1075'> +5.2668684e-01 </wgt>
<wgt id='1076'> +5.3010493e-01 </wgt>
<wgt id='1077'> +5.3100629e-01 </wgt>
<wgt id='1078'> +5.2866013e-01 </wgt>
<wgt id='1079'> +5.3168323e-01 </wgt>
<wgt id='1080'> +5.2999515e-01 </wgt>
<wgt id='1081'> +5.2952051e-01 </wgt>
<wgt id='1082'> +5.2974555e-01 </wgt>
<wgt id='1083'> +5.2824534e-01 </wgt>
<wgt id='1084'> +5.2772385e-01 </wgt>
<wgt id='1085'> +5.3042363e-01 </wgt>
<wgt id='1086'> +5.2784850e-01 </wgt>
<wgt id='1087'> +5.2893936e-01 </wgt>
<wgt id='1088'> +5.2968606e-01 </wgt>
<wgt id='1089'> +5.2946839e-01 </wgt>
<wgt id='1090'> +5.2890225e-01 </wgt>
<wgt id='1091'> +5.2814744e-01 </wgt>
<wgt id='1092'> +5.2752692e-01 </wgt>
<wgt id='1093'> +5.2874268e-01 </wgt>
<wgt id='1094'> +5.2866444e-01 </wgt>
<wgt id='1095'> +5.2780664e-01 </wgt>
<wgt id='1096'> +5.2762544e-01 </wgt>
<wgt id='1097'> +5.2855472e-01 </wgt>
<wgt id='1098'> +5.2863558e-01 </wgt>
<wgt id='1099'> +5.2860763e-01 </wgt>
<wgt id='1100'> +5.2886474e-01 </wgt>
<wgt id='1101'> +5.2845161e-01 </wgt>
<wgt id='1102'> +5.2911435e-01 </wgt>
<wgt id='1103'> +5.2929252e-01 </wgt>
<wgt id='1104'> +5.2905682e-01 </wgt>
<wgt id='1105'> +5.2937786e-01 </wgt>
<wgt id='1106'> +5.2906270e-01 </wgt>
<wgt id='1107'> +5.2880777e-01 </wgt>
<wgt id='1108'> +5.2899732e-01 </wgt>
<wgt id='1109'> +5.2905725e-01 </wgt>
<wgt id='1110'> +5.2872169e-01 </wgt>
<wgt id='1111'> +5.2848413e-01 </wgt>
<wgt id='1112'> +5.2901893e-01 </wgt>
<wgt id='1113'> +5.2886209e-01 </wgt>
<wgt id='1114'> +5.2778955e-01 </wgt>
<wgt id='1115'> +5.2916845e-01 </wgt>
<wgt id='1116'> +5.2870402e-01 </wgt>
<wgt id='1117'> +5.2896270e-01 </wgt>
<wgt id='1118'> +5.2859034e-01 </wgt>
<wgt id='1119'> +5.2893245e-01 </wgt>
<wgt id='1120'> +5.2864618e-01 </wgt>
<wgt id='1121'> +5.2951151e-01 </wgt>
<wgt id='1122'> +5.2864114e-01 </wgt>
<wgt id='1123'> +5.2892649e-01 </wgt>
<wgt id='1124'> +5.2872783e-01 </wgt>
<wgt id='1125'> +5.2870079e-01 </wgt>
<wgt id='1126'> +5.2859748e-01 </wgt>
<wgt id='1127'> +5.2932745e-01 </wgt>
<wgt id='1128'> +5.2870327e-01 </wgt>
<wgt id='1129'> +5.2891637e-01 </wgt>
<wgt id='1130'> +5.2899870e-01 </wgt>
<wgt id='1131'> +5.2912397e-01 </wgt>
<wgt id='1132'> +5.2866605e-01 </wgt>
<wgt id='1133'> +5.2902849e-01 </wgt>
<wgt id='1134'> +5.2865588e-01 </wgt>
<wgt id='1135'> +5.2907290e-01 </wgt>
<wgt id='1136'> +5.2890630e-01 </wgt>
<wgt id='1137'> +5.2890297e-01 </wgt>
<wgt id='1138'> +5.2904939e-01 </wgt>
<wgt id='1139'> +5.2873761e-01 </wgt>
<wgt id='1140'> +5.2907802e-01 </wgt>
<wgt id='1141'> +5.2881242e-01 </wgt>
<wgt id='1142'> +5.2886499e-01 </wgt>
<wgt id='1143'> +5.2909306e-01 </wgt>
<wgt id='1144'> +5.2862665e-01 </wgt>
<wgt id='1145'> +5.2864569e-01 </wgt>
<wgt id='1146'> +5.2869828e-01 </wgt>
<wgt id='1147'> +5.2907194e-01 </wgt>
<wgt id='1148'> +5.2878984e-01 </wgt>
<wgt id='1149'> +5.2004038e-01 </wgt>
<wgt id='1150'> +5.1804745e-01 </wgt>
<wgt id='1151'> +5.2176421e-01 </wgt>
<wgt id='1152'> +5.2645715e-01 </wgt>
<wgt id='1153'> +5.1549301e-01 </wgt>
<wgt id='1154'> +5.2208498e-01 </wgt>
<wgt id='1155'> +5.2236107e-01 </wgt>
<wgt id='1156'> +5.2665212e-01 </wgt>
<wgt id='1157'> +5.2643219e-01 </wgt>
<wgt id='1158'> +5.2531448e-01 </wgt>
<wgt id='1159'> +4.9329749e-01 </wgt>
<wgt id='1160'> +5.2112682e-01 </wgt>
<wgt id='1161'> +5.2286848e-01 </wgt>
<wgt id='1162'> +5.1066303e-01 </wgt>
<wgt id='1163'> +5.2656189e-01 </wgt>
<wgt id='1164'> +5.3143958e-01 </wgt>
<wgt id='1165'> +5.2143722e-01 </wgt>
<wgt id='1166'> +5.2068251e-01 </wgt>
<wgt id='1167'> +5.2464519e-01 </wgt>
<wgt id='1168'> +5.1813230e-01 </wgt>
<wgt id='1169'> +5.1441184e-01 </wgt>
<wgt id='1170'> +5.2165780e-01 </wgt>
<wgt id='1171'> +5.2259604e-01 </wgt>
<wgt id='1172'> +5.2359436e-01 </wgt>
<wgt id='1173'> +5.1306165e-01 </wgt>
<wgt id='1174'> +5.2652992e-01 </wgt>
<wgt id='1175'> +5.3125695e-01 </wgt>
<wgt id='1176'> +4.9827983e-01 </wgt>
<wgt id='1177'> +5.2624196e-01 </wgt>
<wgt id='1178'> +5.2161942e-01 </wgt>
<wgt id='1179'> +5.1672144e-01 </wgt>
<wgt id='1180'> +5.2190769e-01 </wgt>
<wgt id='1181'> +5.2273172e-01 </wgt>
<wgt id='1182'> +5.2457807e-01 </wgt>
<wgt id='1183'> +5.1220461e-01 </wgt>
<wgt id='1184'> +5.2306802e-01 </wgt>
<wgt id='1185'> +5.2549305e-01 </wgt>
<wgt id='1186'> +5.2196620e-01 </wgt>
<wgt id='1187'> +5.1961387e-01 </wgt>
<wgt id='1188'> +5.1801504e-01 </wgt>
<wgt id='1189'> +5.2419560e-01 </wgt>
<wgt id='1190'> +5.2159446e-01 </wgt>
<wgt id='1191'> +5.1712106e-01 </wgt>
<wgt id='1192'> +5.1137631e-01 </wgt>
<wgt id='1193'> +5.1665077e-01 </wgt>
<wgt id='1194'> +5.2474684e-01 </wgt>
<wgt id='1195'> +5.1914461e-01 </wgt>
<wgt id='1196'> +5.1288967e-01 </wgt>
<wgt id='1197'> +5.1734792e-01 </wgt>
<wgt id='1198'> +5.2571622e-01 </wgt>
<wgt id='1199'> +5.1640072e-01 </wgt>
<wgt id='1200'> +5.2477805e-01 </wgt>
<wgt id='1201'> +5.2413200e-01 </wgt>
<wgt id='1202'> +5.2232304e-01 </wgt>
<wgt id='1203'> +5.2734106e-01 </wgt>
<wgt id='1204'> +5.2473430e-01 </wgt>
<wgt id='1205'> +5.1359660e-01 </wgt>
<wgt id='1206'> +5.2208808e-01 </wgt>
<wgt id='1207'> +5.2149069e-01 </wgt>
<wgt id='1208'> +5.3092856e-01 </wgt>
<wgt id='1209'> +5.3165353e-01 </wgt>
<wgt id='1210'> +5.0915249e-01 </wgt>
<wgt id='1211'> +5.1803627e-01 </wgt>
<wgt id='1212'> +5.1214373e-01 </wgt>
<wgt id='1213'> +5.2658306e-01 </wgt>
<wgt id='1214'> +5.2242382e-01 </wgt>
<wgt id='1215'> +5.2258883e-01 </wgt>
<wgt id='1216'> +5.1797658e-01 </wgt>
<wgt id='1217'> +5.1609872e-01 </wgt>
<wgt id='1218'> +5.1738166e-01 </wgt>
<wgt id='1219'> +5.1013024e-01 </wgt>
<wgt id='1220'> +5.2973335e-01 </wgt>
<wgt id='1221'> +5.0782976e-01 </wgt>
<wgt id='1222'> +5.2441062e-01 </wgt>
<wgt id='1223'> +5.1958477e-01 </wgt>
<wgt id='1224'> +5.1605601e-01 </wgt>
<wgt id='1225'> +5.2816334e-01 </wgt>
<wgt id='1226'> +5.0653095e-01 </wgt>
<wgt id='1227'> +5.3639624e-01 </wgt>
<wgt id='1228'> +5.2066185e-01 </wgt>
<wgt id='1229'> +5.0565162e-01 </wgt>
<wgt id='1230'> +5.1509502e-01 </wgt>
<wgt id='1231'> +5.2143722e-01 </wgt>
<wgt id='1232'> +5.0693071e-01 </wgt>
<wgt id='1233'> +5.2164908e-01 </wgt>
<wgt id='1234'> +5.3612189e-01 </wgt>
<wgt id='1235'> +5.0313916e-01 </wgt>
<wgt id='1236'> +5.3118986e-01 </wgt>
<wgt id='1237'> +5.1085709e-01 </wgt>
<wgt id='1238'> +5.0650572e-01 </wgt>
<wgt id='1239'> +5.2496251e-01 </wgt>
<wgt id='1240'> +5.2810545e-01 </wgt>
<wgt id='1241'> +5.2551487e-01 </wgt>
<wgt id='1242'> +5.1998889e-01 </wgt>
<wgt id='1243'> +5.1369624e-01 </wgt>
<wgt id='1244'> +5.1646104e-01 </wgt>
<wgt id='1245'> +5.3048765e-01 </wgt>
<wgt id='1246'> +5.0647372e-01 </wgt>
<wgt id='1247'> +5.1618774e-01 </wgt>
<wgt id='1248'> +5.2356156e-01 </wgt>
<wgt id='1249'> +5.2510364e-01 </wgt>
<wgt id='1250'> +5.1515966e-01 </wgt>
<wgt id='1251'> +5.1025859e-01 </wgt>
<wgt id='1252'> +5.2317624e-01 </wgt>
<wgt id='1253'> +5.2015003e-01 </wgt>
<wgt id='1254'> +4.6796741e-01 </wgt>
<wgt id='1255'> +5.3120194e-01 </wgt>
<wgt id='1256'> +5.3434608e-01 </wgt>
<wgt id='1257'> +5.2937863e-01 </wgt>
<wgt id='1258'> +5.3042830e-01 </wgt>
<wgt id='1259'> +5.3159695e-01 </wgt>
<wgt id='1260'> +5.3217200e-01 </wgt>
<wgt id='1261'> +5.2988981e-01 </wgt>
<wgt id='1262'> +5.3191966e-01 </wgt>
<wgt id='1263'> +5.3073359e-01 </wgt>
<wgt id='1264'> +5.3066934e-01 </wgt>
<wgt id='1265'> +5.3155146e-01 </wgt>
<wgt id='1266'> +5.3134598e-01 </wgt>
<wgt id='1267'> +5.3104950e-01 </wgt>
<wgt id='1268'> +5.3580174e-01 </wgt>
<wgt id='1269'> +5.2660152e-01 </wgt>
<wgt id='1270'> +5.3090370e-01 </wgt>
<wgt id='1271'> +5.3085861e-01 </wgt>
<wgt id='1272'> +5.3170720e-01 </wgt>
<wgt id='1273'> +5.3078715e-01 </wgt>
<wgt id='1274'> +5.3031486e-01 </wgt>
<wgt id='1275'> +5.3230915e-01 </wgt>
<wgt id='1276'> +5.2978691e-01 </wgt>
<wgt id='1277'> +5.3267441e-01 </wgt>
<wgt id='1278'> +5.2862706e-01 </wgt>
<wgt id='1279'> +5.3324527e-01 </wgt>
<wgt id='1280'> +5.3080310e-01 </wgt>
<wgt id='1281'> +5.3209759e-01 </wgt>
<wgt id='1282'> +5.3441261e-01 </wgt>
<wgt id='1283'> +5.2735541e-01 </wgt>
<wgt id='1284'> +5.2942831e-01 </wgt>
<wgt id='1285'> +5.3268674e-01 </wgt>
<wgt id='1286'> +5.3276337e-01 </wgt>
<wgt id='1287'> +5.3112698e-01 </wgt>
<wgt id='1288'> +5.3085659e-01 </wgt>
<wgt id='1289'> +5.3123383e-01 </wgt>
<wgt id='1290'> +5.3201604e-01 </wgt>
<wgt id='1291'> +5.3090623e-01 </wgt>
<wgt id='1292'> +5.3303395e-01 </wgt>
<wgt id='1293'> +5.2818548e-01 </wgt>
<wgt id='1294'> +5.2794961e-01 </wgt>
<wgt id='1295'> +5.3196929e-01 </wgt>
<wgt id='1296'> +5.2180410e-01 </wgt>
<wgt id='1297'> +5.2306597e-01 </wgt>
<wgt id='1298'> +5.2076226e-01 </wgt>
<wgt id='1299'> +5.2040074e-01 </wgt>
<wgt id='1300'> +5.2334377e-01 </wgt>
<wgt id='1301'> +5.2067535e-01 </wgt>
<wgt id='1302'> +5.2345012e-01 </wgt>
<wgt id='1303'> +5.2134247e-01 </wgt>
<wgt id='1304'> +5.2211533e-01 </wgt>
<wgt id='1305'> +5.2223548e-01 </wgt>
<wgt id='1306'> +5.2117322e-01 </wgt>
<wgt id='1307'> +5.2399255e-01 </wgt>
<wgt id='1308'> +5.2041356e-01 </wgt>
<wgt id='1309'> +5.2241178e-01 </wgt>
<wgt id='1310'> +5.2095373e-01 </wgt>
<wgt id='1311'> +5.2617962e-01 </wgt>
<wgt id='1312'> +5.2020963e-01 </wgt>
<wgt id='1313'> +5.2306804e-01 </wgt>
<wgt id='1314'> +5.1995964e-01 </wgt>
<wgt id='1315'> +5.2147512e-01 </wgt>
<wgt id='1316'> +5.2207983e-01 </wgt>
<wgt id='1317'> +5.1863809e-01 </wgt>
<wgt id='1318'> +5.2760616e-01 </wgt>
<wgt id='1319'> +5.2373250e-01 </wgt>
<wgt id='1320'> +5.2068868e-01 </wgt>
<wgt id='1321'> +5.2057262e-01 </wgt>
<wgt id='1322'> +5.2243474e-01 </wgt>
<wgt id='1323'> +5.2161617e-01 </wgt>
<wgt id='1324'> +5.2197297e-01 </wgt>
<wgt id='1325'> +5.2211075e-01 </wgt>
<wgt id='1326'> +5.2143972e-01 </wgt>
<wgt id='1327'> +5.2219298e-01 </wgt>
<wgt id='1328'> +5.2166915e-01 </wgt>
<wgt id='1329'> +5.2199811e-01 </wgt>
<wgt id='1330'> +5.2167656e-01 </wgt>
<wgt id='1331'> +5.2165491e-01 </wgt>
<wgt id='1332'> +5.2237255e-01 </wgt>
<wgt id='1333'> +5.2433663e-01 </wgt>
<wgt id='1334'> +5.1769866e-01 </wgt>
<wgt id='1335'> +5.2315267e-01 </wgt>
<wgt id='1336'> +5.2146175e-01 </wgt>
<wgt id='1337'> +5.2180410e-01 </wgt>
<wgt id='1338'> +5.2165225e-01 </wgt>
<wgt id='1339'> +5.2171938e-01 </wgt>
<wgt id='1340'> +5.2179850e-01 </wgt>
<wgt id='1341'> +5.2187455e-01 </wgt>
<wgt id='1342'> +5.2193930e-01 </wgt>
<wgt id='1343'> +5.2193303e-01 </wgt>
<wgt id='1344'> +5.2012416e-01 </wgt>
<wgt id='1345'> +5.2184163e-01 </wgt>
<wgt id='1346'> +5.1842296e-01 </wgt>
<wgt id='1347'> +5.2280097e-01 </wgt>
<wgt id='1348'> +5.1814320e-01 </wgt>
<wgt id='1349'> +5.1933247e-01 </wgt>
<wgt id='1350'> +5.2079515e-01 </wgt>
<wgt id='1351'> +5.2014290e-01 </wgt>
<wgt id='1352'> +5.2011827e-01 </wgt>
<wgt id='1353'> +5.2131698e-01 </wgt>
<wgt id='1354'> +5.1928769e-01 </wgt>
<wgt id='1355'> +5.1897733e-01 </wgt>
<wgt id='1356'> +5.2101231e-01 </wgt>
<wgt id='1357'> +5.2016216e-01 </wgt>
<wgt id='1358'> +5.2008758e-01 </wgt>
<wgt id='1359'> +5.1834456e-01 </wgt>
<wgt id='1360'> +5.2456929e-01 </wgt>
<wgt id='1361'> +5.2427953e-01 </wgt>
<wgt id='1362'> +5.1706598e-01 </wgt>
<wgt id='1363'> +5.2100879e-01 </wgt>
<wgt id='1364'> +5.1908530e-01 </wgt>
<wgt id='1365'> +5.2078349e-01 </wgt>
<wgt id='1366'> +5.1989112e-01 </wgt>
<wgt id='1367'> +5.1818217e-01 </wgt>
<wgt id='1368'> +5.2108663e-01 </wgt>
<wgt id='1369'> +5.1877480e-01 </wgt>
<wgt id='1370'> +5.2139014e-01 </wgt>
<wgt id='1371'> +5.2041346e-01 </wgt>
<wgt id='1372'> +5.1994459e-01 </wgt>
<wgt id='1373'> +5.2138089e-01 </wgt>
<wgt id='1374'> +5.1946714e-01 </wgt>
<wgt id='1375'> +5.2092538e-01 </wgt>
<wgt id='1376'> +5.1991414e-01 </wgt>
<wgt id='1377'> +5.2017807e-01 </wgt>
<wgt id='1378'> +5.1999242e-01 </wgt>
<wgt id='1379'> +5.2140666e-01 </wgt>
<wgt id='1380'> +5.1973902e-01 </wgt>
<wgt id='1381'> +5.1835808e-01 </wgt>
<wgt id='1382'> +5.1934527e-01 </wgt>
<wgt id='1383'> +5.1987722e-01 </wgt>
<wgt id='1384'> +5.2133006e-01 </wgt>
<wgt id='1385'> +5.2012416e-01 </wgt>
<wgt id='1386'> +5.1970202e-01 </wgt>
<wgt id='1387'> +5.1985612e-01 </wgt>
<wgt id='1388'> +5.1999590e-01 </wgt>
<wgt id='1389'> +5.2016612e-01 </wgt>
<wgt id='1390'> +5.2026524e-01 </wgt>
<wgt id='1391'> +5.2029976e-01 </wgt>
<wgt id='1392'> +5.4469889e-01 </wgt>
<wgt id='1393'> +5.4471980e-01 </wgt>
<wgt id='1394'> +5.4465978e-01 </wgt>
<wgt id='1395'> +5.4506575e-01 </wgt>
<wgt id='1396'> +5.4442569e-01 </wgt>
<wgt id='1397'> +5.4656893e-01 </wgt>
<wgt id='1398'> +5.4286986e-01 </wgt>
<wgt id='1399'> +5.4621442e-01 </wgt>
<wgt id='1400'> +5.4281190e-01 </wgt>
<wgt id='1401'> +5.4301155e-01 </wgt>
<wgt id='1402'> +5.4676440e-01 </wgt>
<wgt id='1403'> +5.4446243e-01 </wgt>
<wgt id='1404'> +5.4514248e-01 </wgt>
<wgt id='1405'> +5.4392720e-01 </wgt>
<wgt id='1406'> +5.4575577e-01 </wgt>
<wgt id='1407'> +5.4403389e-01 </wgt>
<wgt id='1408'> +5.4514249e-01 </wgt>
<wgt id='1409'> +5.4696784e-01 </wgt>
<wgt id='1410'> +5.4206384e-01 </wgt>
<wgt id='1411'> +5.4422297e-01 </wgt>
<wgt id='1412'> +5.4505652e-01 </wgt>
<wgt id='1413'> +5.4648614e-01 </wgt>
<wgt id='1414'> +5.4279833e-01 </wgt>
<wgt id='1415'> +5.4701576e-01 </wgt>
<wgt id='1416'> +5.4225217e-01 </wgt>
<wgt id='1417'> +5.4469438e-01 </wgt>
<wgt id='1418'> +5.4466340e-01 </wgt>
<wgt id='1419'> +5.4513115e-01 </wgt>
<wgt id='1420'> +5.4443415e-01 </wgt>
<wgt id='1421'> +5.4729222e-01 </wgt>
<wgt id='1422'> +5.4178142e-01 </wgt>
<wgt id='1423'> +5.4605054e-01 </wgt>
<wgt id='1424'> +5.4328553e-01 </wgt>
<wgt id='1425'> +5.4489080e-01 </wgt>
<wgt id='1426'> +5.4440764e-01 </wgt>
<wgt id='1427'> +5.4376013e-01 </wgt>
<wgt id='1428'> +5.4384513e-01 </wgt>
<wgt id='1429'> +5.4415509e-01 </wgt>
<wgt id='1430'> +5.4522164e-01 </wgt>
<wgt id='1431'> +5.4431147e-01 </wgt>
<wgt id='1432'> +5.4487829e-01 </wgt>
<wgt id='1433'> +5.4244691e-01 </wgt>
<wgt id='1434'> +5.4682817e-01 </wgt>
<wgt id='1435'> +5.4462307e-01 </wgt>
<wgt id='1436'> +5.4499142e-01 </wgt>
<wgt id='1437'> +5.4405190e-01 </wgt>
<wgt id='1438'> +5.4617570e-01 </wgt>
<wgt id='1439'> +5.4686890e-01 </wgt>
<wgt id='1440'> +5.3999434e-01 </wgt>
<wgt id='1441'> +5.4558070e-01 </wgt>
<wgt id='1442'> +5.4546312e-01 </wgt>
<wgt id='1443'> +5.4032911e-01 </wgt>
<wgt id='1444'> +5.4038107e-01 </wgt>
<wgt id='1445'> +5.4027788e-01 </wgt>
<wgt id='1446'> +5.4071195e-01 </wgt>
<wgt id='1447'> +5.4006568e-01 </wgt>
<wgt id='1448'> +5.4232257e-01 </wgt>
<wgt id='1449'> +5.3846875e-01 </wgt>
<wgt id='1450'> +5.4176281e-01 </wgt>
<wgt id='1451'> +5.3872760e-01 </wgt>
<wgt id='1452'> +5.3864527e-01 </wgt>
<wgt id='1453'> +5.4194473e-01 </wgt>
<wgt id='1454'> +5.3998985e-01 </wgt>
<wgt id='1455'> +5.4106702e-01 </wgt>
<wgt id='1456'> +5.3939409e-01 </wgt>
<wgt id='1457'> +5.4198634e-01 </wgt>
<wgt id='1458'> +5.3977269e-01 </wgt>
<wgt id='1459'> +5.4064217e-01 </wgt>
<wgt id='1460'> +5.4252803e-01 </wgt>
<wgt id='1461'> +5.3768513e-01 </wgt>
<wgt id='1462'> +5.3937343e-01 </wgt>
<wgt id='1463'> +5.4113538e-01 </wgt>
<wgt id='1464'> +5.4196255e-01 </wgt>
<wgt id='1465'> +5.3818637e-01 </wgt>
<wgt id='1466'> +5.4329308e-01 </wgt>
<wgt id='1467'> +5.3820187e-01 </wgt>
<wgt id='1468'> +5.3947876e-01 </wgt>
<wgt id='1469'> +5.4123012e-01 </wgt>
<wgt id='1470'> +5.4083963e-01 </wgt>
<wgt id='1471'> +5.4007645e-01 </wgt>
<wgt id='1472'> +5.4246983e-01 </wgt>
<wgt id='1473'> +5.3785344e-01 </wgt>
<wgt id='1474'> +5.4137554e-01 </wgt>
<wgt id='1475'> +5.3875239e-01 </wgt>
<wgt id='1476'> +5.4042589e-01 </wgt>
<wgt id='1477'> +5.4012977e-01 </wgt>
<wgt id='1478'> +5.3949087e-01 </wgt>
<wgt id='1479'> +5.3953211e-01 </wgt>
<wgt id='1480'> +5.4003722e-01 </wgt>
<wgt id='1481'> +5.4070873e-01 </wgt>
<wgt id='1482'> +5.3991279e-01 </wgt>
<wgt id='1483'> +5.4057980e-01 </wgt>
<wgt id='1484'> +5.3808831e-01 </wgt>
<wgt id='1485'> +5.4251705e-01 </wgt>
<wgt id='1486'> +5.4044058e-01 </wgt>
<wgt id='1487'> +5.4041749e-01 </wgt>
<wgt id='1488'> +5.3962817e-01 </wgt>
<wgt id='1489'> +5.4186988e-01 </wgt>
<wgt id='1490'> +5.4348303e-01 </wgt>
<wgt id='1491'> +5.3524200e-01 </wgt>
<wgt id='1492'> +5.4182787e-01 </wgt>
<wgt id='1493'> +5.4109188e-01 </wgt>
<wgt id='1494'> +5.2019714e-01 </wgt>
<wgt id='1495'> +5.1449494e-01 </wgt>
<wgt id='1496'> +5.1648255e-01 </wgt>
<wgt id='1497'> +5.1843394e-01 </wgt>
<wgt id='1498'> +5.2160406e-01 </wgt>
<wgt id='1499'> +5.2003021e-01 </wgt>
<wgt id='1500'> +5.2363491e-01 </wgt>
<wgt id='1501'> +5.2294343e-01 </wgt>
<wgt id='1502'> +5.2222607e-01 </wgt>
<wgt id='1503'> +5.2151631e-01 </wgt>
<wgt id='1504'> +5.2080555e-01 </wgt>
<wgt id='1505'> +5.1935566e-01 </wgt>
<wgt id='1506'> +5.1862539e-01 </wgt>
<wgt id='1507'> +5.1791407e-01 </wgt>
<wgt id='1508'> +5.2003021e-01 </wgt>
<wgt id='1509'> +5.2020334e-01 </wgt>
<wgt id='1510'> +5.2010195e-01 </wgt>
<wgt id='1511'> +5.1996489e-01 </wgt>
<wgt id='1512'> +5.1988250e-01 </wgt>
<wgt id='1513'> +5.2158909e-01 </wgt>
<wgt id='1514'> +5.2137527e-01 </wgt>
<wgt id='1515'> +5.2185010e-01 </wgt>
<wgt id='1516'> +5.2246614e-01 </wgt>
<wgt id='1517'> +5.2070837e-01 </wgt>
<wgt id='1518'> +5.2259893e-01 </wgt>
<wgt id='1519'> +5.2118101e-01 </wgt>
<wgt id='1520'> +5.2398549e-01 </wgt>
<wgt id='1521'> +5.1919704e-01 </wgt>
<wgt id='1522'> +5.2070519e-01 </wgt>
<wgt id='1523'> +5.2243803e-01 </wgt>
<wgt id='1524'> +5.2351845e-01 </wgt>
<wgt id='1525'> +5.2074921e-01 </wgt>
<wgt id='1526'> +5.2158505e-01 </wgt>
<wgt id='1527'> +5.2158712e-01 </wgt>
<wgt id='1528'> +5.2056670e-01 </wgt>
<wgt id='1529'> +5.2269954e-01 </wgt>
<wgt id='1530'> +5.2528492e-01 </wgt>
<wgt id='1531'> +5.1948650e-01 </wgt>
<wgt id='1532'> +5.2314644e-01 </wgt>
<wgt id='1533'> +5.1944226e-01 </wgt>
<wgt id='1534'> +5.2007437e-01 </wgt>
<wgt id='1535'> +5.2265302e-01 </wgt>
<wgt id='1536'> +5.2036904e-01 </wgt>
<wgt id='1537'> +5.2279477e-01 </wgt>
<wgt id='1538'> +5.2083644e-01 </wgt>
<wgt id='1539'> +5.2327709e-01 </wgt>
<wgt id='1540'> +5.2154816e-01 </wgt>
<wgt id='1541'> +5.2153619e-01 </wgt>
<wgt id='1542'> +5.2005327e-01 </wgt>
<wgt id='1543'> +5.2601507e-01 </wgt>
<wgt id='1544'> +5.2157541e-01 </wgt>
<wgt id='1545'> +5.2061634e-01 </wgt>
<wgt id='1546'> +5.2058755e-01 </wgt>
<wgt id='1547'> +5.2230784e-01 </wgt>
<wgt id='1548'> +5.2149309e-01 </wgt>
<wgt id='1549'> +5.2055901e-01 </wgt>
<wgt id='1550'> +5.2173892e-01 </wgt>
<wgt id='1551'> +5.2117022e-01 </wgt>
<wgt id='1552'> +5.2106557e-01 </wgt>
<wgt id='1553'> +5.2177005e-01 </wgt>
<wgt id='1554'> +5.2208217e-01 </wgt>
<wgt id='1555'> +5.1942335e-01 </wgt>
<wgt id='1556'> +5.2235380e-01 </wgt>
<wgt id='1557'> +5.2128405e-01 </wgt>
<wgt id='1558'> +5.1843398e-01 </wgt>
<wgt id='1559'> +5.2315161e-01 </wgt>
<wgt id='1560'> +5.2391769e-01 </wgt>
<wgt id='1561'> +5.2044218e-01 </wgt>
<wgt id='1562'> +5.1927102e-01 </wgt>
<wgt id='1563'> +5.2261436e-01 </wgt>
<wgt id='1564'> +5.2158909e-01 </wgt>
<wgt id='1565'> +5.1957141e-01 </wgt>
<wgt id='1566'> +5.2194250e-01 </wgt>
<wgt id='1567'> +5.2085036e-01 </wgt>
<wgt id='1568'> +5.2437277e-01 </wgt>
<wgt id='1569'> +5.2368252e-01 </wgt>
<wgt id='1570'> +5.2293949e-01 </wgt>
<wgt id='1571'> +5.2222430e-01 </wgt>
<wgt id='1572'> +5.2149980e-01 </wgt>
<wgt id='1573'> +5.2016743e-01 </wgt>
<wgt id='1574'> +5.1923462e-01 </wgt>
<wgt id='1575'> +5.1857893e-01 </wgt>
<wgt id='1576'> +5.2085036e-01 </wgt>
<wgt id='1577'> +5.2090611e-01 </wgt>
<wgt id='1578'> +5.2088371e-01 </wgt>
<wgt id='1579'> +5.2079767e-01 </wgt>
<wgt id='1580'> +5.2078710e-01 </wgt>
<wgt id='1581'> +5.2134419e-01 </wgt>
<wgt id='1582'> +5.2168501e-01 </wgt>
<wgt id='1583'> +5.2348759e-01 </wgt>
<wgt id='1584'> +5.1885530e-01 </wgt>
<wgt id='1585'> +5.2295948e-01 </wgt>
<wgt id='1586'> +5.1836593e-01 </wgt>
<wgt id='1587'> +5.1644610e-01 </wgt>
<wgt id='1588'> +5.2533200e-01 </wgt>
<wgt id='1589'> +5.2101912e-01 </wgt>
<wgt id='1590'> +5.2209519e-01 </wgt>
<wgt id='1591'> +5.2038800e-01 </wgt>
<wgt id='1592'> +5.2315483e-01 </wgt>
<wgt id='1593'> +5.2231410e-01 </wgt>
<wgt id='1594'> +5.2137966e-01 </wgt>
<wgt id='1595'> +5.2077473e-01 </wgt>
<wgt id='1596'> +5.2468979e-01 </wgt>
<wgt id='1597'> +5.2256161e-01 </wgt>
<wgt id='1598'> +5.2167017e-01 </wgt>
<wgt id='1599'> +5.2163748e-01 </wgt>
<wgt id='1600'> +5.2272877e-01 </wgt>
<wgt id='1601'> +5.2052750e-01 </wgt>
<wgt id='1602'> +5.2240457e-01 </wgt>
<wgt id='1603'> +5.2235053e-01 </wgt>
<wgt id='1604'> +5.2179370e-01 </wgt>
<wgt id='1605'> +5.2040518e-01 </wgt>
<wgt id='1606'> +5.2181001e-01 </wgt>
<wgt id='1607'> +5.2195991e-01 </wgt>
<wgt id='1608'> +5.2198472e-01 </wgt>
<wgt id='1609'> +5.2259022e-01 </wgt>
<wgt id='1610'> +5.2080420e-01 </wgt>
<wgt id='1611'> +5.2379404e-01 </wgt>
<wgt id='1612'> +5.2480805e-01 </wgt>
<wgt id='1613'> +5.2447585e-01 </wgt>
<wgt id='1614'> +5.2572347e-01 </wgt>
<wgt id='1615'> +5.2585731e-01 </wgt>
<wgt id='1616'> +5.2429974e-01 </wgt>
<wgt id='1617'> +5.2415238e-01 </wgt>
<wgt id='1618'> +5.2529847e-01 </wgt>
<wgt id='1619'> +5.2275894e-01 </wgt>
<wgt id='1620'> +5.2365886e-01 </wgt>
<wgt id='1621'> +5.2518220e-01 </wgt>
<wgt id='1622'> +5.2600429e-01 </wgt>
<wgt id='1623'> +5.2467069e-01 </wgt>
<wgt id='1624'> +5.2453113e-01 </wgt>
<wgt id='1625'> +5.2596016e-01 </wgt>
<wgt id='1626'> +5.2750928e-01 </wgt>
<wgt id='1627'> +5.2478563e-01 </wgt>
<wgt id='1628'> +5.2471396e-01 </wgt>
<wgt id='1629'> +5.2556144e-01 </wgt>
<wgt id='1630'> +5.2601264e-01 </wgt>
<wgt id='1631'> +5.2527361e-01 </wgt>
<wgt id='1632'> +5.2662867e-01 </wgt>
<wgt id='1633'> +5.2389451e-01 </wgt>
<wgt id='1634'> +5.2686476e-01 </wgt>
<wgt id='1635'> +5.2427892e-01 </wgt>
<wgt id='1636'> +5.2467843e-01 </wgt>
<wgt id='1637'> +5.2666905e-01 </wgt>
<wgt id='1638'> +5.2457188e-01 </wgt>
<wgt id='1639'> +5.2607373e-01 </wgt>
<wgt id='1640'> +5.2543078e-01 </wgt>
<wgt id='1641'> +5.1962765e-01 </wgt>
<wgt id='1642'> +5.2358927e-01 </wgt>
<wgt id='1643'> +5.2459166e-01 </wgt>
<wgt id='1644'> +5.2344656e-01 </wgt>
<wgt id='1645'> +5.2399876e-01 </wgt>
<wgt id='1646'> +5.2552263e-01 </wgt>
<wgt id='1647'> +5.2399406e-01 </wgt>
<wgt id='1648'> +5.2426056e-01 </wgt>
<wgt id='1649'> +5.2541252e-01 </wgt>
<wgt id='1650'> +5.2438814e-01 </wgt>
<wgt id='1651'> +5.2489438e-01 </wgt>
<wgt id='1652'> +5.2426536e-01 </wgt>
<wgt id='1653'> +5.2460266e-01 </wgt>
<wgt id='1654'> +5.2443203e-01 </wgt>
<wgt id='1655'> +5.2569284e-01 </wgt>
<wgt id='1656'> +5.2472422e-01 </wgt>
<wgt id='1657'> +5.2456293e-01 </wgt>
<wgt id='1658'> +5.2531006e-01 </wgt>
<wgt id='1659'> +5.2557965e-01 </wgt>
<wgt id='1660'> +5.2517385e-01 </wgt>
<wgt id='1661'> +5.2512865e-01 </wgt>
<wgt id='1662'> +5.2522146e-01 </wgt>
<wgt id='1663'> +5.2577774e-01 </wgt>
<wgt id='1664'> +5.2506684e-01 </wgt>
<wgt id='1665'> +5.2517416e-01 </wgt>
<wgt id='1666'> +5.2552087e-01 </wgt>
<wgt id='1667'> +5.2467652e-01 </wgt>
<wgt id='1668'> +5.2438723e-01 </wgt>
<wgt id='1669'> +5.2455830e-01 </wgt>
<wgt id='1670'> +5.2398766e-01 </wgt>
<wgt id='1671'> +5.2496215e-01 </wgt>
<wgt id='1672'> +5.2516427e-01 </wgt>
<wgt id='1673'> +5.2501631e-01 </wgt>
<wgt id='1674'> +5.2479064e-01 </wgt>
<wgt id='1675'> +5.2443222e-01 </wgt>
<wgt id='1676'> +5.2387768e-01 </wgt>
<wgt id='1677'> +5.2485730e-01 </wgt>
<wgt id='1678'> +5.2524952e-01 </wgt>
<wgt id='1679'> +5.2542710e-01 </wgt>
<wgt id='1680'> +5.2591306e-01 </wgt>
<wgt id='1681'> +5.2462941e-01 </wgt>
<wgt id='1682'> +5.2471141e-01 </wgt>
<wgt id='1683'> +5.2468516e-01 </wgt>
<wgt id='1684'> +5.2481445e-01 </wgt>
<wgt id='1685'> +5.2427417e-01 </wgt>
<wgt id='1686'> +5.2469140e-01 </wgt>
<wgt id='1687'> +5.2430747e-01 </wgt>
<wgt id='1688'> +5.2452073e-01 </wgt>
<wgt id='1689'> +5.2523022e-01 </wgt>
<wgt id='1690'> +5.2511111e-01 </wgt>
<wgt id='1691'> +5.2522755e-01 </wgt>
<wgt id='1692'> +5.2473893e-01 </wgt>
<wgt id='1693'> +5.2530696e-01 </wgt>
<wgt id='1694'> +5.2533820e-01 </wgt>
<wgt id='1695'> +5.2520491e-01 </wgt>
<wgt id='1696'> +5.2460945e-01 </wgt>
<wgt id='1697'> +5.2488770e-01 </wgt>
<wgt id='1698'> +5.2448766e-01 </wgt>
<wgt id='1699'> +5.2478053e-01 </wgt>
<wgt id='1700'> +5.2469943e-01 </wgt>
<wgt id='1701'> +5.2487275e-01 </wgt>
<wgt id='1702'> +5.2469333e-01 </wgt>
<wgt id='1703'> +5.2481775e-01 </wgt>
<wgt id='1704'> +5.2494023e-01 </wgt>
<wgt id='1705'> +5.2453947e-01 </wgt>
<wgt id='1706'> +5.2460466e-01 </wgt>
<wgt id='1707'> +5.2465526e-01 </wgt>
<wgt id='1708'> +5.2451696e-01 </wgt>
<wgt id='1709'> +5.2490398e-01 </wgt>
<wgt id='1710'> +5.2460247e-01 </wgt>
<wgt id='1711'> +5.2471177e-01 </wgt>
<wgt id='1712'> +5.2454498e-01 </wgt>
<wgt id='1713'> +5.1697514e-01 </wgt>
<wgt id='1714'> +5.3079827e-01 </wgt>
<wgt id='1715'> +5.2158261e-01 </wgt>
<wgt id='1716'> +5.1686182e-01 </wgt>
<wgt id='1717'> +5.1870222e-01 </wgt>
<wgt id='1718'> +5.1332406e-01 </wgt>
<wgt id='1719'> +5.1478914e-01 </wgt>
<wgt id='1720'> +5.3427595e-01 </wgt>
<wgt id='1721'> +5.0583051e-01 </wgt>
<wgt id='1722'> +5.1967993e-01 </wgt>
<wgt id='1723'> +5.2253961e-01 </wgt>
<wgt id='1724'> +5.2892606e-01 </wgt>
<wgt id='1725'> +5.3159107e-01 </wgt>
<wgt id='1726'> +5.3314098e-01 </wgt>
<wgt id='1727'> +5.2092450e-01 </wgt>
<wgt id='1728'> +5.2263385e-01 </wgt>
<wgt id='1729'> +5.2217192e-01 </wgt>
<wgt id='1730'> +5.1568983e-01 </wgt>
<wgt id='1731'> +4.8754979e-01 </wgt>
<wgt id='1732'> +5.4171722e-01 </wgt>
<wgt id='1733'> +5.2885609e-01 </wgt>
<wgt id='1734'> +5.2018666e-01 </wgt>
<wgt id='1735'> +5.0886346e-01 </wgt>
<wgt id='1736'> +5.1910474e-01 </wgt>
<wgt id='1737'> +5.2619646e-01 </wgt>
<wgt id='1738'> +5.2890384e-01 </wgt>
<wgt id='1739'> +5.1505307e-01 </wgt>
<wgt id='1740'> +5.1730361e-01 </wgt>
<wgt id='1741'> +5.1848959e-01 </wgt>
<wgt id='1742'> +5.3812201e-01 </wgt>
<wgt id='1743'> +5.1212554e-01 </wgt>
<wgt id='1744'> +5.2801683e-01 </wgt>
<wgt id='1745'> +5.0544708e-01 </wgt>
<wgt id='1746'> +5.2071250e-01 </wgt>
<wgt id='1747'> +5.2099164e-01 </wgt>
<wgt id='1748'> +5.1785332e-01 </wgt>
<wgt id='1749'> +5.3912127e-01 </wgt>
<wgt id='1750'> +5.2522157e-01 </wgt>
<wgt id='1751'> +5.2251756e-01 </wgt>
<wgt id='1752'> +4.9956564e-01 </wgt>
<wgt id='1753'> +5.1638648e-01 </wgt>
<wgt id='1754'> +5.2492492e-01 </wgt>
<wgt id='1755'> +5.2909827e-01 </wgt>
<wgt id='1756'> +5.0973926e-01 </wgt>
<wgt id='1757'> +5.1376308e-01 </wgt>
<wgt id='1758'> +5.1527609e-01 </wgt>
<wgt id='1759'> +5.1639437e-01 </wgt>
<wgt id='1760'> +5.1394867e-01 </wgt>
<wgt id='1761'> +5.2495868e-01 </wgt>
<wgt id='1762'> +5.2092450e-01 </wgt>
<wgt id='1763'> +5.1942755e-01 </wgt>
<wgt id='1764'> +5.2780375e-01 </wgt>
<wgt id='1765'> +5.2662008e-01 </wgt>
<wgt id='1766'> +5.4153631e-01 </wgt>
<wgt id='1767'> +5.1733837e-01 </wgt>
<wgt id='1768'> +5.0559994e-01 </wgt>
<wgt id='1769'> +5.2455487e-01 </wgt>
<wgt id='1770'> +5.3511840e-01 </wgt>
<wgt id='1771'> +5.1694171e-01 </wgt>
<wgt id='1772'> +5.1881583e-01 </wgt>
<wgt id='1773'> +5.2759348e-01 </wgt>
<wgt id='1774'> +5.0989246e-01 </wgt>
<wgt id='1775'> +5.2270668e-01 </wgt>
<wgt id='1776'> +5.2600518e-01 </wgt>
<wgt id='1777'> +5.2685546e-01 </wgt>
<wgt id='1778'> +5.2294603e-01 </wgt>
<wgt id='1779'> +5.1815052e-01 </wgt>
<wgt id='1780'> +5.3352407e-01 </wgt>
<wgt id='1781'> +5.2644401e-01 </wgt>
<wgt id='1782'> +5.3559186e-01 </wgt>
<wgt id='1783'> +5.1412485e-01 </wgt>
<wgt id='1784'> +5.3392731e-01 </wgt>
<wgt id='1785'> +5.2976603e-01 </wgt>
<wgt id='1786'> +5.2991060e-01 </wgt>
<wgt id='1787'> +5.2524729e-01 </wgt>
<wgt id='1788'> +5.1495781e-01 </wgt>
<wgt id='1789'> +5.2778585e-01 </wgt>
<wgt id='1790'> +5.3218064e-01 </wgt>
<wgt id='1791'> +5.0012874e-01 </wgt>
<wgt id='1792'> +5.2790899e-01 </wgt>
<wgt id='1793'> +5.3852823e-01 </wgt>
<wgt id='1794'> +5.1828269e-01 </wgt>
<wgt id='1795'> +5.0712151e-01 </wgt>
<wgt id='1796'> +5.2609154e-01 </wgt>
<wgt id='1797'> +5.1465362e-01 </wgt>
<wgt id='1798'> +5.2616407e-01 </wgt>
<wgt id='1799'> +5.2950837e-01 </wgt>
<wgt id='1800'> +5.2550622e-01 </wgt>
<wgt id='1801'> +5.1327888e-01 </wgt>
<wgt id='1802'> +5.1818274e-01 </wgt>
<wgt id='1803'> +5.2093034e-01 </wgt>
<wgt id='1804'> +5.2948468e-01 </wgt>
<wgt id='1805'> +5.1985450e-01 </wgt>
<wgt id='1806'> +5.1562903e-01 </wgt>
<wgt id='1807'> +5.0810965e-01 </wgt>
<wgt id='1808'> +5.2166866e-01 </wgt>
<wgt id='1809'> +5.1706806e-01 </wgt>
<wgt id='1810'> +5.1852311e-01 </wgt>
<wgt id='1811'> +5.2096236e-01 </wgt>
<wgt id='1812'> +5.1951242e-01 </wgt>
<wgt id='1813'> +5.2694848e-01 </wgt>
<wgt id='1814'> +5.2332580e-01 </wgt>
<wgt id='1815'> +5.3088770e-01 </wgt>
<wgt id='1816'> +5.2914828e-01 </wgt>
<wgt id='1817'> +5.3553077e-01 </wgt>
<wgt id='1818'> +5.2247463e-01 </wgt>
<wgt id='1819'> +5.3606014e-01 </wgt>
<wgt id='1820'> +5.3917024e-01 </wgt>
<wgt id='1821'> +5.4051661e-01 </wgt>
<wgt id='1822'> +5.3560780e-01 </wgt>
<wgt id='1823'> +5.2910222e-01 </wgt>
<wgt id='1824'> +5.2671924e-01 </wgt>
<wgt id='1825'> +5.2789070e-01 </wgt>
<wgt id='1826'> +5.1364434e-01 </wgt>
<wgt id='1827'> +5.1922106e-01 </wgt>
<wgt id='1828'> +5.3722431e-01 </wgt>
<wgt id='1829'> +5.3749936e-01 </wgt>
<wgt id='1830'> +5.1845717e-01 </wgt>
<wgt id='1831'> +5.3474219e-01 </wgt>
<wgt id='1832'> +5.2395931e-01 </wgt>
<wgt id='1833'> +5.2019295e-01 </wgt>
<wgt id='1834'> +5.1870657e-01 </wgt>
<wgt id='1835'> +5.3472587e-01 </wgt>
<wgt id='1836'> +5.3397754e-01 </wgt>
<wgt id='1837'> +5.3629699e-01 </wgt>
<wgt id='1838'> +5.2003197e-01 </wgt>
<wgt id='1839'> +5.5665816e-01 </wgt>
<wgt id='1840'> +5.3028583e-01 </wgt>
<wgt id='1841'> +5.3044942e-01 </wgt>
<wgt id='1842'> +5.3477019e-01 </wgt>
<wgt id='1843'> +5.1467473e-01 </wgt>
<wgt id='1844'> +5.3172324e-01 </wgt>
<wgt id='1845'> +5.2762713e-01 </wgt>
<wgt id='1846'> +5.3465645e-01 </wgt>
<wgt id='1847'> +5.2600124e-01 </wgt>
<wgt id='1848'> +5.2865130e-01 </wgt>
<wgt id='1849'> +5.2955420e-01 </wgt>
<wgt id='1850'> +5.3225040e-01 </wgt>
<wgt id='1851'> +5.2825478e-01 </wgt>
<wgt id='1852'> +5.3282363e-01 </wgt>
<wgt id='1853'> +5.2158258e-01 </wgt>
<wgt id='1854'> +5.3620110e-01 </wgt>
<wgt id='1855'> +5.2759726e-01 </wgt>
<wgt id='1856'> +5.3314115e-01 </wgt>
<wgt id='1857'> +5.4290856e-01 </wgt>
<wgt id='1858'> +5.2790251e-01 </wgt>
<wgt id='1859'> +5.3224016e-01 </wgt>
<wgt id='1860'> +5.2664516e-01 </wgt>
<wgt id='1861'> +5.2164992e-01 </wgt>
<wgt id='1862'> +5.3522769e-01 </wgt>
<wgt id='1863'> +5.2233410e-01 </wgt>
<wgt id='1864'> +5.2324443e-01 </wgt>
<wgt id='1865'> +5.2998347e-01 </wgt>
<wgt id='1866'> +5.3094399e-01 </wgt>
<wgt id='1867'> +5.3341271e-01 </wgt>
<wgt id='1868'> +5.2449352e-01 </wgt>
<wgt id='1869'> +5.3944336e-01 </wgt>
<wgt id='1870'> +5.2873540e-01 </wgt>
<wgt id='1871'> +5.2594559e-01 </wgt>
<wgt id='1872'> +5.1513836e-01 </wgt>
<wgt id='1873'> +5.4077206e-01 </wgt>
<wgt id='1874'> +5.2954367e-01 </wgt>
<wgt id='1875'> +5.2333482e-01 </wgt>
<wgt id='1876'> +5.2872574e-01 </wgt>
<wgt id='1877'> +5.3321193e-01 </wgt>
<wgt id='1878'> +5.2671862e-01 </wgt>
<wgt id='1879'> +5.4347902e-01 </wgt>
<wgt id='1880'> +5.0359358e-01 </wgt>
<wgt id='1881'> +5.3268641e-01 </wgt>
<wgt id='1882'> +5.2252481e-01 </wgt>
<wgt id='1883'> +5.5389607e-01 </wgt>
<wgt id='1884'> +5.2288120e-01 </wgt>
<wgt id='1885'> +5.1731738e-01 </wgt>
<wgt id='1886'> +5.1648000e-01 </wgt>
<wgt id='1887'> +5.3535615e-01 </wgt>
<wgt id='1888'> +5.3660319e-01 </wgt>
<wgt id='1889'> +5.2152238e-01 </wgt>
<wgt id='1890'> +5.3930366e-01 </wgt>
<wgt id='1891'> +5.3168404e-01 </wgt>
<wgt id='1892'> +5.3152304e-01 </wgt>
<wgt id='1893'> +5.2446079e-01 </wgt>
<wgt id='1894'> +5.3754988e-01 </wgt>
<wgt id='1895'> +5.3608057e-01 </wgt>
<wgt id='1896'> +5.2296611e-01 </wgt>
<wgt id='1897'> +5.3045874e-01 </wgt>
<wgt id='1898'> +5.3095891e-01 </wgt>
<wgt id='1899'> +5.2548515e-01 </wgt>
<wgt id='1900'> +5.2768424e-01 </wgt>
<wgt id='1901'> +5.1950408e-01 </wgt>
<wgt id='1902'> +5.1936274e-01 </wgt>
<wgt id='1903'> +5.2459862e-01 </wgt>
<wgt id='1904'> +5.3466841e-01 </wgt>
<wgt id='1905'> +5.3003985e-01 </wgt>
<wgt id='1906'> +5.2249387e-01 </wgt>
<wgt id='1907'> +5.2756156e-01 </wgt>
<wgt id='1908'> +5.3455186e-01 </wgt>
<wgt id='1909'> +5.2380652e-01 </wgt>
<wgt id='1910'> +5.3128527e-01 </wgt>
<wgt id='1911'> +5.0735079e-01 </wgt>
<wgt id='1912'> +5.3088102e-01 </wgt>
<wgt id='1913'> +5.2660815e-01 </wgt>
<wgt id='1914'> +5.4402337e-01 </wgt>
<wgt id='1915'> +5.3875201e-01 </wgt>
<wgt id='1916'> +5.1234645e-01 </wgt>
<wgt id='1917'> +5.3037642e-01 </wgt>
<wgt id='1918'> +5.5732870e-01 </wgt>
<wgt id='1919'> +5.2914828e-01 </wgt>
<wgt id='1920'> +5.3553077e-01 </wgt>
<wgt id='1921'> +5.2247463e-01 </wgt>
<wgt id='1922'> +5.3606014e-01 </wgt>
<wgt id='1923'> +5.3917024e-01 </wgt>
<wgt id='1924'> +5.4051661e-01 </wgt>
<wgt id='1925'> +5.3560780e-01 </wgt>
<wgt id='1926'> +5.2910222e-01 </wgt>
<wgt id='1927'> +5.2671924e-01 </wgt>
<wgt id='1928'> +5.2789070e-01 </wgt>
<wgt id='1929'> +5.1364434e-01 </wgt>
<wgt id='1930'> +5.1922106e-01 </wgt>
<wgt id='1931'> +5.3722431e-01 </wgt>
<wgt id='1932'> +5.3749936e-01 </wgt>
<wgt id='1933'> +5.1845717e-01 </wgt>
<wgt id='1934'> +5.3474219e-01 </wgt>
<wgt id='1935'> +5.2395931e-01 </wgt>
<wgt id='1936'> +5.2019295e-01 </wgt>
<wgt id='1937'> +5.1870657e-01 </wgt>
<wgt id='1938'> +5.3472587e-01 </wgt>
<wgt id='1939'> +5.3397754e-01 </wgt>
<wgt id='1940'> +5.3629699e-01 </wgt>
<wgt id='1941'> +5.2003197e-01 </wgt>
<wgt id='1942'> +5.5665816e-01 </wgt>
<wgt id='1943'> +5.3028583e-01 </wgt>
<wgt id='1944'> +5.3044942e-01 </wgt>
<wgt id='1945'> +5.3477019e-01 </wgt>
<wgt id='1946'> +5.1467473e-01 </wgt>
<wgt id='1947'> +5.3172324e-01 </wgt>
<wgt id='1948'> +5.2762713e-01 </wgt>
<wgt id='1949'> +5.3465645e-01 </wgt>
<wgt id='1950'> +5.2600124e-01 </wgt>
<wgt id='1951'> +5.2865130e-01 </wgt>
<wgt id='1952'> +5.2955420e-01 </wgt>
<wgt id='1953'> +5.3225040e-01 </wgt>
<wgt id='1954'> +5.2825478e-01 </wgt>
<wgt id='1955'> +5.3282363e-01 </wgt>
<wgt id='1956'> +5.2158258e-01 </wgt>
<wgt id='1957'> +5.3620110e-01 </wgt>
<wgt id='1958'> +5.2759726e-01 </wgt>
<wgt id='1959'> +5.3314115e-01 </wgt>
<wgt id='1960'> +5.4290856e-01 </wgt>
<wgt id='1961'> +5.2790251e-01 </wgt>
<wgt id='1962'> +5.3224016e-01 </wgt>
<wgt id='1963'> +5.2664516e-01 </wgt>
<wgt id='1964'> +5.2164992e-01 </wgt>
<wgt id='1965'> +5.3522769e-01 </wgt>
<wgt id='1966'> +5.2233410e-01 </wgt>
<wgt id='1967'> +5.2324443e-01 </wgt>
<wgt id='1968'> +5.2998347e-01 </wgt>
<wgt id='1969'> +5.3094399e-01 </wgt>
<wgt id='1970'> +5.3341271e-01 </wgt>
<wgt id='1971'> +5.2449352e-01 </wgt>
<wgt id='1972'> +5.3944336e-01 </wgt>
<wgt id='1973'> +5.2873540e-01 </wgt>
<wgt id='1974'> +5.2594559e-01 </wgt>
<wgt id='1975'> +5.1513836e-01 </wgt>
<wgt id='1976'> +5.4077206e-01 </wgt>
<wgt id='1977'> +5.2954367e-01 </wgt>
<wgt id='1978'> +5.2333482e-01 </wgt>
<wgt id='1979'> +5.2872574e-01 </wgt>
<wgt id='1980'> +5.3321193e-01 </wgt>
<wgt id='1981'> +5.2671862e-01 </wgt>
<wgt id='1982'> +5.4347902e-01 </wgt>
<wgt id='1983'> +5.0359358e-01 </wgt>
<wgt id='1984'> +5.3268641e-01 </wgt>
<wgt id='1985'> +5.2252481e-01 </wgt>
<wgt id='1986'> +5.5389607e-01 </wgt>
<wgt id='1987'> +5.2288120e-01 </wgt>
<wgt id='1988'> +5.1731738e-01 </wgt>
<wgt id='1989'> +5.1648000e-01 </wgt>
<wgt id='1990'> +5.3535615e-01 </wgt>
<wgt id='1991'> +5.3660319e-01 </wgt>
<wgt id='1992'> +5.2152238e-01 </wgt>
<wgt id='1993'> +5.3930366e-01 </wgt>
<wgt id='1994'> +5.3168404e-01 </wgt>
<wgt id='1995'> +5.3152304e-01 </wgt>
<wgt id='1996'> +5.2446079e-01 </wgt>
<wgt id='1997'> +5.3754988e-01 </wgt>
<wgt id='1998'> +5.3608057e-01 </wgt>
<wgt id='1999'> +5.2296611e-01 </wgt>
<wgt id='2000'> +5.3045874e-01 </wgt>
<wgt id='2001'> +5.3095891e-01 </wgt>
<wgt id='2002'> +5.2548515e-01 </wgt>
<wgt id='2003'> +5.2768424e-01 </wgt>
<wgt id='2004'> +5.1950408e-01 </wgt>
<wgt id='2005'> +5.1936274e-01 </wgt>
<wgt id='2006'> +5.2459862e-01 </wgt>
<wgt id='2007'> +5.3466841e-01 </wgt>
<wgt id='2008'> +5.3003985e-01 </wgt>
<wgt id='2009'> +5.2249387e-01 </wgt>
<wgt id='2010'> +5.2756156e-01 </wgt>
<wgt id='2011'> +5.3455186e-01 </wgt>
<wgt id='2012'> +5.2380652e-01 </wgt>
<wgt id='2013'> +5.3128527e-01 </wgt>
<wgt id='2014'> +5.0735079e-01 </wgt>
<wgt id='2015'> +5.3088102e-01 </wgt>
<wgt id='2016'> +5.2660815e-01 </wgt>
<wgt id='2017'> +5.4402337e-01 </wgt>
<wgt id='2018'> +5.3875201e-01 </wgt>
<wgt id='2019'> +5.1234645e-01 </wgt>
<wgt id='2020'> +5.2799398e-01 </wgt>
<wgt id='2021'> +5.3042830e-01 </wgt>
<wgt id='2022'> +5.3002981e-01 </wgt>
</rwgt>
</event>
<event>
 13 2 0.0079112 9.17493400e+01 7.81860800e-03 1.19090500e-01
       21 -1    0    0  502  503 +0.0000000000e+00 +0.0000000000e+00 +2.9483937221e+02 2.9483937221e+02 0.0000000000e+00 0.0000e+00 1.0000e+00
       -2 -1    0    0    0  501 +0.0000000000e+00 +0.0000000000e+00 -9.8909613657e+02 9.8909613657e+02 2.5500000000e-03 0.0000e+00 1.0000e+00
 -8000001  2    1    2    0  503 +2.8500823884e+01 -1.9042093206e+01 -2.0760438699e+02 6.3582487522e+02 5.9999899347e+02 0.0000e+00 0.0000e+00
       -1  1    1    2    0  501 -3.3764503925e+01 +3.1132569739e+01 -5.6583801956e+02 5.6769881366e+02 5.0400000000e-03 0.0000e+00 1.0000e+00
        5  1    1    2  502    0 +5.2636800416e+00 -1.2090476533e+01 +7.9185642191e+01 8.0411819905e+01 4.6700000000e+00 0.0000e+00 -1.0000e+00
       -6  2    3    3    0  503 +2.5016814027e+02 +5.9737879468e+01 -2.5902948161e+00 3.0998282874e+02 1.7300269315e+02 0.0000e+00 0.0000e+00
       -5  1    6    6    0  503 +7.7775278995e+01 +8.7591303989e+01 +1.3056319851e+01 1.1795552953e+02 4.6700000000e+00 0.0000e+00 1.0000e+00
      -24  2    6    6    0    0 +1.7239286128e+02 -2.7853424521e+01 -1.5646614667e+01 1.9202729922e+02 7.8323401463e+01 0.0000e+00 0.0000e+00
      -16  1    8    8    0    0 +1.3311255639e+02 -2.4729337640e+01 -4.5204217327e+01 1.4273722034e+02 0.0000000000e+00 0.0000e+00 1.0000e+00
       15  1    8    8    0    0 +3.9280304892e+01 -3.1240868806e+00 +2.9557602661e+01 4.9290078871e+01 1.7770000000e+00 0.0000e+00 -1.0000e+00
       23  2    3    3    0    0 -2.2166731639e+02 -7.8779972675e+01 -2.0501409217e+02 3.2584204647e+02 9.3806065952e+01 0.0000e+00 0.0000e+00
        3  1   11   11  504    0 -1.3180125675e+02 +1.6859670112e+00 -9.3893658334e+01 1.6183461633e+02 1.0100000000e-01 0.0000e+00 -1.0000e+00
       -3  1   11   11    0  504 -8.9866059638e+01 -8.0465939686e+01 -1.1112043384e+02 1.6400743014e+02 1.0100000000e-01 0.0000e+00 1.0000e+00
<mgrwt>
<rscale>  1 0.64876593e+02</rscale>
<asrwt>0</asrwt>
<pdfrwt beam="1">  1       21 0.45359904e-01 0.91749343e+02</pdfrwt>
<pdfrwt beam="2">  1       -2 0.15216864e+00 0.45874687e+02</pdfrwt>
<totfact> 0.17561121e+02</totfact>
</mgrwt>
<rwgt>
<wgt id='1001'> +5.2878984e-01 </wgt>
<wgt id='1002'> +2.9377077e-01 </wgt>
<wgt id='1003'> +2.9368143e-01 </wgt>
<wgt id='1004'> +3.4598140e-01 </wgt>
<wgt id='1005'> +2.5762300e-01 </wgt>
<wgt id='1006'> +4.7382070e-01 </wgt>
<wgt id='1007'> +2.7117965e-01 </wgt>
<wgt id='1008'> +2.7110064e-01 </wgt>
<wgt id='1009'> +3.1705103e-01 </wgt>
<wgt id='1010'> +2.3906065e-01 </wgt>
<wgt id='1011'> +5.9878154e-01 </wgt>
<wgt id='1012'> +3.2058172e-01 </wgt>
<wgt id='1013'> +3.2047936e-01 </wgt>
<wgt id='1014'> +3.8089541e-01 </wgt>
<wgt id='1015'> +2.7938942e-01 </wgt>
<wgt id='1016'> +4.8477029e-01 </wgt>
<wgt id='1017'> +2.7245612e-01 </wgt>
<wgt id='1018'> +2.7237584e-01 </wgt>
<wgt id='1019'> +3.2047936e-01 </wgt>
<wgt id='1020'> +2.3994994e-01 </wgt>
<wgt id='1021'> +4.3437710e-01 </wgt>
<wgt id='1022'> +2.5150411e-01 </wgt>
<wgt id='1023'> +2.5143321e-01 </wgt>
<wgt id='1024'> +2.9368143e-01 </wgt>
<wgt id='1025'> +2.2266098e-01 </wgt>
<wgt id='1026'> +5.4893547e-01 </wgt>
<wgt id='1027'> +2.9732179e-01 </wgt>
<wgt id='1028'> +2.9722967e-01 </wgt>
<wgt id='1029'> +3.5281988e-01 </wgt>
<wgt id='1030'> +2.6022317e-01 </wgt>
<wgt id='1031'> +5.7875952e-01 </wgt>
<wgt id='1032'> +3.1714922e-01 </wgt>
<wgt id='1033'> +3.1705103e-01 </wgt>
<wgt id='1034'> +3.7504454e-01 </wgt>
<wgt id='1035'> +2.7791431e-01 </wgt>
<wgt id='1036'> +5.1859590e-01 </wgt>
<wgt id='1037'> +2.9276029e-01 </wgt>
<wgt id='1038'> +2.9267339e-01 </wgt>
<wgt id='1039'> +3.4368396e-01 </wgt>
<wgt id='1040'> +2.5788992e-01 </wgt>
<wgt id='1041'> +6.5536530e-01 </wgt>
<wgt id='1042'> +3.4609379e-01 </wgt>
<wgt id='1043'> +3.4598140e-01 </wgt>
<wgt id='1044'> +4.1289139e-01 </wgt>
<wgt id='1045'> +3.0139513e-01 </wgt>
<wgt id='1046'> +5.2878984e-01 </wgt>
<wgt id='1047'> +5.2878984e-01 </wgt>
<wgt id='1048'> +5.2878984e-01 </wgt>
<wgt id='1049'> +5.2965115e-01 </wgt>
<wgt id='1050'> +5.2649057e-01 </wgt>
<wgt id='1051'> +5.2942347e-01 </wgt>
<wgt id='1052'> +5.3289467e-01 </wgt>
<wgt id='1053'> +5.2187234e-01 </wgt>
<wgt id='1054'> +5.2968722e-01 </wgt>
<wgt id='1055'> +5.2692682e-01 </wgt>
<wgt id='1056'> +5.2480078e-01 </wgt>
<wgt id='1057'> +5.3143782e-01 </wgt>
<wgt id='1058'> +5.2760620e-01 </wgt>
<wgt id='1059'> +5.3112432e-01 </wgt>
<wgt id='1060'> +5.2799620e-01 </wgt>
<wgt id='1061'> +5.3553511e-01 </wgt>
<wgt id='1062'> +5.2584933e-01 </wgt>
<wgt id='1063'> +5.3695530e-01 </wgt>
<wgt id='1064'> +5.2984055e-01 </wgt>
<wgt id='1065'> +5.2932706e-01 </wgt>
<wgt id='1066'> +5.2402302e-01 </wgt>
<wgt id='1067'> +5.3150926e-01 </wgt>
<wgt id='1068'> +5.3211355e-01 </wgt>
<wgt id='1069'> +5.2627482e-01 </wgt>
<wgt id='1070'> +5.3035655e-01 </wgt>
<wgt id='1071'> +5.2923663e-01 </wgt>
<wgt id='1072'> +5.2569076e-01 </wgt>
<wgt id='1073'> +5.2971383e-01 </wgt>
<wgt id='1074'> +5.2915953e-01 </wgt>
<wgt id='1075'> +5.3346201e-01 </wgt>
<wgt id='1076'> +5.2782969e-01 </wgt>
<wgt id='1077'> +5.2985439e-01 </wgt>
<wgt id='1078'> +5.3102146e-01 </wgt>
<wgt id='1079'> +5.2952406e-01 </wgt>
<wgt id='1080'> +5.3254813e-01 </wgt>
<wgt id='1081'> +5.2664583e-01 </wgt>
<wgt id='1082'> +5.2946408e-01 </wgt>
<wgt id='1083'> +5.2544616e-01 </wgt>
<wgt id='1084'> +5.3323180e-01 </wgt>
<wgt id='1085'> +5.2861409e-01 </wgt>
<wgt id='1086'> +5.2618965e-01 </wgt>
<wgt id='1087'> +5.2933788e-01 </wgt>
<wgt id='1088'> +5.3018981e-01 </wgt>
<wgt id='1089'> +5.2752571e-01 </wgt>
<wgt id='1090'> +5.2984616e-01 </wgt>
<wgt id='1091'> +5.2761298e-01 </wgt>
<wgt id='1092'> +5.2546609e-01 </wgt>
<wgt id='1093'> +5.2950375e-01 </wgt>
<wgt id='1094'> +5.3046642e-01 </wgt>
<wgt id='1095'> +5.2477658e-01 </wgt>
<wgt id='1096'> +5.3100661e-01 </wgt>
<wgt id='1097'> +5.2463320e-01 </wgt>
<wgt id='1098'> +5.3173334e-01 </wgt>
<wgt id='1099'> +5.3222564e-01 </wgt>
<wgt id='1100'> +5.2712701e-01 </wgt>
<wgt id='1101'> +5.2690745e-01 </wgt>
<wgt id='1102'> +5.3017723e-01 </wgt>
<wgt id='1103'> +5.3377401e-01 </wgt>
<wgt id='1104'> +5.2904790e-01 </wgt>
<wgt id='1105'> +5.2819992e-01 </wgt>
<wgt id='1106'> +5.3130548e-01 </wgt>
<wgt id='1107'> +5.2924201e-01 </wgt>
<wgt id='1108'> +5.3191043e-01 </wgt>
<wgt id='1109'> +5.2922584e-01 </wgt>
<wgt id='1110'> +5.2958718e-01 </wgt>
<wgt id='1111'> +5.2312458e-01 </wgt>
<wgt id='1112'> +5.2886491e-01 </wgt>
<wgt id='1113'> +5.2686935e-01 </wgt>
<wgt id='1114'> +5.3184631e-01 </wgt>
<wgt id='1115'> +5.3022495e-01 </wgt>
<wgt id='1116'> +5.2932987e-01 </wgt>
<wgt id='1117'> +5.2823091e-01 </wgt>
<wgt id='1118'> +5.2759310e-01 </wgt>
<wgt id='1119'> +5.2345122e-01 </wgt>
<wgt id='1120'> +5.3044471e-01 </wgt>
<wgt id='1121'> +5.2972167e-01 </wgt>
<wgt id='1122'> +5.2593426e-01 </wgt>
<wgt id='1123'> +5.2877890e-01 </wgt>
<wgt id='1124'> +5.2799721e-01 </wgt>
<wgt id='1125'> +5.2908984e-01 </wgt>
<wgt id='1126'> +5.2952315e-01 </wgt>
<wgt id='1127'> +5.2662733e-01 </wgt>
<wgt id='1128'> +5.3279756e-01 </wgt>
<wgt id='1129'> +5.2767219e-01 </wgt>
<wgt id='1130'> +5.2942152e-01 </wgt>
<wgt id='1131'> +5.2737171e-01 </wgt>
<wgt id='1132'> +5.3085271e-01 </wgt>
<wgt id='1133'> +5.2791156e-01 </wgt>
<wgt id='1134'> +5.2988097e-01 </wgt>
<wgt id='1135'> +5.2657688e-01 </wgt>
<wgt id='1136'> +5.2807508e-01 </wgt>
<wgt id='1137'> +5.3037674e-01 </wgt>
<wgt id='1138'> +5.2779364e-01 </wgt>
<wgt id='1139'> +5.3378320e-01 </wgt>
<wgt id='1140'> +5.2686887e-01 </wgt>
<wgt id='1141'> +5.2906018e-01 </wgt>
<wgt id='1142'> +5.2997858e-01 </wgt>
<wgt id='1143'> +5.2999342e-01 </wgt>
<wgt id='1144'> +5.2815608e-01 </wgt>
<wgt id='1145'> +5.3050733e-01 </wgt>
<wgt id='1146'> +5.2905875e-01 </wgt>
<wgt id='1147'> +5.3022756e-01 </wgt>
<wgt id='1148'> +5.2878984e-01 </wgt>
<wgt id='1149'> +5.1463526e-01 </wgt>
<wgt id='1150'> +5.6081200e-01 </wgt>
<wgt id='1151'> +5.3165394e-01 </wgt>
<wgt id='1152'> +4.9551565e-01 </wgt>
<wgt id='1153'> +5.1938452e-01 </wgt>
<wgt id='1154'> +4.9810076e-01 </wgt>
<wgt id='1155'> +4.9772215e-01 </wgt>
<wgt id='1156'> +4.9908626e-01 </wgt>
<wgt id='1157'> +5.0981892e-01 </wgt>
<wgt id='1158'> +4.9995300e-01 </wgt>
<wgt id='1159'> +5.1803985e-01 </wgt>
<wgt id='1160'> +5.3745278e-01 </wgt>
<wgt id='1161'> +5.3983822e-01 </wgt>
<wgt id='1162'> +5.3288679e-01 </wgt>
<wgt id='1163'> +5.2447736e-01 </wgt>
<wgt id='1164'> +4.9452583e-01 </wgt>
<wgt id='1165'> +5.0859365e-01 </wgt>
<wgt id='1166'> +5.4324292e-01 </wgt>
<wgt id='1167'> +5.0865421e-01 </wgt>
<wgt id='1168'> +5.0957906e-01 </wgt>
<wgt id='1169'> +4.4821234e-01 </wgt>
<wgt id='1170'> +5.0203356e-01 </wgt>
<wgt id='1171'> +5.2956381e-01 </wgt>
<wgt id='1172'> +5.2039010e-01 </wgt>
<wgt id='1173'> +4.9551210e-01 </wgt>
<wgt id='1174'> +5.0491967e-01 </wgt>
<wgt id='1175'> +4.7246282e-01 </wgt>
<wgt id='1176'> +5.3813644e-01 </wgt>
<wgt id='1177'> +5.2558985e-01 </wgt>
<wgt id='1178'> +5.3691908e-01 </wgt>
<wgt id='1179'> +5.1502389e-01 </wgt>
<wgt id='1180'> +5.1222715e-01 </wgt>
<wgt id='1181'> +5.3359594e-01 </wgt>
<wgt id='1182'> +4.9562857e-01 </wgt>
<wgt id='1183'> +5.3108418e-01 </wgt>
<wgt id='1184'> +5.4223056e-01 </wgt>
<wgt id='1185'> +5.0027374e-01 </wgt>
<wgt id='1186'> +5.1089044e-01 </wgt>
<wgt id='1187'> +4.9719110e-01 </wgt>
<wgt id='1188'> +5.1800146e-01 </wgt>
<wgt id='1189'> +4.7294646e-01 </wgt>
<wgt id='1190'> +5.4048919e-01 </wgt>
<wgt id='1191'> +5.2041219e-01 </wgt>
<wgt id='1192'> +5.4706768e-01 </wgt>
<wgt id='1193'> +5.1766332e-01 </wgt>
<wgt id='1194'> +4.9473536e-01 </wgt>
<wgt id='1195'> +5.1154337e-01 </wgt>
<wgt id='1196'> +5.0497409e-01 </wgt>
<wgt id='1197'> +4.9099179e-01 </wgt>
<wgt id='1198'> +5.3382797e-01 </wgt>
<wgt id='1199'> +5.2618282e-01 </wgt>
<wgt id='1200'> +5.0730670e-01 </wgt>
<wgt id='1201'> +4.6260068e-01 </wgt>
<wgt id='1202'> +5.2011687e-01 </wgt>
<wgt id='1203'> +5.4183794e-01 </wgt>
<wgt id='1204'> +5.1912527e-01 </wgt>
<wgt id='1205'> +5.5756619e-01 </wgt>
<wgt id='1206'> +5.4899846e-01 </wgt>
<wgt id='1207'> +5.0869874e-01 </wgt>
<wgt id='1208'> +5.2859124e-01 </wgt>
<wgt id='1209'> +5.1201210e-01 </wgt>
<wgt id='1210'> +5.1746278e-01 </wgt>
<wgt id='1211'> +5.3314970e-01 </wgt>
<wgt id='1212'> +5.2909036e-01 </wgt>
<wgt id='1213'> +5.3331287e-01 </wgt>
<wgt id='1214'> +4.9354063e-01 </wgt>
<wgt id='1215'> +4.9239729e-01 </wgt>
<wgt id='1216'> +5.2295183e-01 </wgt>
<wgt id='1217'> +5.2208942e-01 </wgt>
<wgt id='1218'> +5.1152353e-01 </wgt>
<wgt id='1219'> +5.4076340e-01 </wgt>
<wgt id='1220'> +5.1971119e-01 </wgt>
<wgt id='1221'> +4.7086550e-01 </wgt>
<wgt id='1222'> +4.5150234e-01 </wgt>
<wgt id='1223'> +4.8768568e-01 </wgt>
<wgt id='1224'> +4.8531841e-01 </wgt>
<wgt id='1225'> +5.4350391e-01 </wgt>
<wgt id='1226'> +5.2823196e-01 </wgt>
<wgt id='1227'> +5.0180486e-01 </wgt>
<wgt id='1228'> +4.8700431e-01 </wgt>
<wgt id='1229'> +5.6708716e-01 </wgt>
<wgt id='1230'> +5.2581715e-01 </wgt>
<wgt id='1231'> +5.0859365e-01 </wgt>
<wgt id='1232'> +4.6953825e-01 </wgt>
<wgt id='1233'> +5.3427334e-01 </wgt>
<wgt id='1234'> +4.9145672e-01 </wgt>
<wgt id='1235'> +5.3158894e-01 </wgt>
<wgt id='1236'> +5.0140190e-01 </wgt>
<wgt id='1237'> +5.8601960e-01 </wgt>
<wgt id='1238'> +4.8477401e-01 </wgt>
<wgt id='1239'> +5.2058066e-01 </wgt>
<wgt id='1240'> +5.1936862e-01 </wgt>
<wgt id='1241'> +4.4172905e-01 </wgt>
<wgt id='1242'> +4.9916286e-01 </wgt>
<wgt id='1243'> +5.1922421e-01 </wgt>
<wgt id='1244'> +5.3183284e-01 </wgt>
<wgt id='1245'> +5.4383540e-01 </wgt>
<wgt id='1246'> +5.2197406e-01 </wgt>
<wgt id='1247'> +5.1272839e-01 </wgt>
<wgt id='1248'> +5.2850883e-01 </wgt>
<wgt id='1249'> +5.2333271e-01 </wgt>
<wgt id='1250'> +5.0393317e-01 </wgt>
<wgt id='1251'> +4.9866488e-01 </wgt>
<wgt id='1252'> +5.0483954e-01 </wgt>
<wgt id='1253'> +5.1824142e-01 </wgt>
<wgt id='1254'> +5.4591343e-01 </wgt>
<wgt id='1255'> +6.6484304e-01 </wgt>
<wgt id='1256'> +6.6155659e-01 </wgt>
<wgt id='1257'> +6.6679397e-01 </wgt>
<wgt id='1258'> +6.5683998e-01 </wgt>
<wgt id='1259'> +6.6899827e-01 </wgt>
<wgt id='1260'> +6.6556132e-01 </wgt>
<wgt id='1261'> +6.6395577e-01 </wgt>
<wgt id='1262'> +6.6613482e-01 </wgt>
<wgt id='1263'> +6.6405352e-01 </wgt>
<wgt id='1264'> +6.6859677e-01 </wgt>
<wgt id='1265'> +6.6240928e-01 </wgt>
<wgt id='1266'> +6.6404132e-01 </wgt>
<wgt id='1267'> +6.6566986e-01 </wgt>
<wgt id='1268'> +6.6561184e-01 </wgt>
<wgt id='1269'> +6.6396988e-01 </wgt>
<wgt id='1270'> +6.5110835e-01 </wgt>
<wgt id='1271'> +6.8045586e-01 </wgt>
<wgt id='1272'> +6.6587905e-01 </wgt>
<wgt id='1273'> +6.6416284e-01 </wgt>
<wgt id='1274'> +6.7577385e-01 </wgt>
<wgt id='1275'> +6.5219092e-01 </wgt>
<wgt id='1276'> +6.6195409e-01 </wgt>
<wgt id='1277'> +6.6867459e-01 </wgt>
<wgt id='1278'> +6.7875015e-01 </wgt>
<wgt id='1279'> +6.5385495e-01 </wgt>
<wgt id='1280'> +6.7167053e-01 </wgt>
<wgt id='1281'> +6.4230547e-01 </wgt>
<wgt id='1282'> +6.6702034e-01 </wgt>
<wgt id='1283'> +6.6017700e-01 </wgt>
<wgt id='1284'> +6.5404101e-01 </wgt>
<wgt id='1285'> +6.7559689e-01 </wgt>
<wgt id='1286'> +6.6853813e-01 </wgt>
<wgt id='1287'> +6.6510312e-01 </wgt>
<wgt id='1288'> +6.6892727e-01 </wgt>
<wgt id='1289'> +6.6164464e-01 </wgt>
<wgt id='1290'> +6.6219467e-01 </wgt>
<wgt id='1291'> +6.6572187e-01 </wgt>
<wgt id='1292'> +6.6996249e-01 </wgt>
<wgt id='1293'> +6.5803753e-01 </wgt>
<wgt id='1294'> +6.5626893e-01 </wgt>
<wgt id='1295'> +6.6802746e-01 </wgt>
<wgt id='1296'> +5.8126304e-01 </wgt>
<wgt id='1297'> +5.8331355e-01 </wgt>
<wgt id='1298'> +5.7959279e-01 </wgt>
<wgt id='1299'> +5.8834680e-01 </wgt>
<wgt id='1300'> +5.7336803e-01 </wgt>
<wgt id='1301'> +5.7800410e-01 </wgt>
<wgt id='1302'> +5.8617167e-01 </wgt>
<wgt id='1303'> +5.7320703e-01 </wgt>
<wgt id='1304'> +5.8673314e-01 </wgt>
<wgt id='1305'> +5.8222163e-01 </wgt>
<wgt id='1306'> +5.8005836e-01 </wgt>
<wgt id='1307'> +5.8768131e-01 </wgt>
<wgt id='1308'> +5.7723263e-01 </wgt>
<wgt id='1309'> +5.7930061e-01 </wgt>
<wgt id='1310'> +5.8391685e-01 </wgt>
<wgt id='1311'> +5.7693635e-01 </wgt>
<wgt id='1312'> +5.8285881e-01 </wgt>
<wgt id='1313'> +5.7655535e-01 </wgt>
<wgt id='1314'> +5.8713383e-01 </wgt>
<wgt id='1315'> +5.8029356e-01 </wgt>
<wgt id='1316'> +5.8221158e-01 </wgt>
<wgt id='1317'> +5.8828913e-01 </wgt>
<wgt id='1318'> +5.6977125e-01 </wgt>
<wgt id='1319'> +5.9887537e-01 </wgt>
<wgt id='1320'> +5.7186103e-01 </wgt>
<wgt id='1321'> +5.9666154e-01 </wgt>
<wgt id='1322'> +5.7425952e-01 </wgt>
<wgt id='1323'> +5.8382836e-01 </wgt>
<wgt id='1324'> +5.7915288e-01 </wgt>
<wgt id='1325'> +5.7718482e-01 </wgt>
<wgt id='1326'> +5.8416553e-01 </wgt>
<wgt id='1327'> +5.7418760e-01 </wgt>
<wgt id='1328'> +5.8440682e-01 </wgt>
<wgt id='1329'> +5.7914749e-01 </wgt>
<wgt id='1330'> +5.8282447e-01 </wgt>
<wgt id='1331'> +5.8721682e-01 </wgt>
<wgt id='1332'> +5.7795896e-01 </wgt>
<wgt id='1333'> +5.8844818e-01 </wgt>
<wgt id='1334'> +5.7528094e-01 </wgt>
<wgt id='1335'> +5.8068574e-01 </wgt>
<wgt id='1336'> +5.8138040e-01 </wgt>
<wgt id='1337'> +5.8126304e-01 </wgt>
<wgt id='1338'> +5.8169026e-01 </wgt>
<wgt id='1339'> +5.8151603e-01 </wgt>
<wgt id='1340'> +5.8115031e-01 </wgt>
<wgt id='1341'> +5.8107962e-01 </wgt>
<wgt id='1342'> +5.8099032e-01 </wgt>
<wgt id='1343'> +5.8078085e-01 </wgt>
<wgt id='1344'> +5.4305183e-01 </wgt>
<wgt id='1345'> +5.4501662e-01 </wgt>
<wgt id='1346'> +5.4125706e-01 </wgt>
<wgt id='1347'> +5.3841531e-01 </wgt>
<wgt id='1348'> +5.4653205e-01 </wgt>
<wgt id='1349'> +5.3418699e-01 </wgt>
<wgt id='1350'> +5.5073707e-01 </wgt>
<wgt id='1351'> +5.4295423e-01 </wgt>
<wgt id='1352'> +5.4329910e-01 </wgt>
<wgt id='1353'> +5.4798216e-01 </wgt>
<wgt id='1354'> +5.3978978e-01 </wgt>
<wgt id='1355'> +5.4448911e-01 </wgt>
<wgt id='1356'> +5.4210364e-01 </wgt>
<wgt id='1357'> +5.4995783e-01 </wgt>
<wgt id='1358'> +5.3894581e-01 </wgt>
<wgt id='1359'> +5.4406291e-01 </wgt>
<wgt id='1360'> +5.4081549e-01 </wgt>
<wgt id='1361'> +5.3883547e-01 </wgt>
<wgt id='1362'> +5.4762107e-01 </wgt>
<wgt id='1363'> +5.4412707e-01 </wgt>
<wgt id='1364'> +5.4204196e-01 </wgt>
<wgt id='1365'> +5.6565796e-01 </wgt>
<wgt id='1366'> +5.3450416e-01 </wgt>
<wgt id='1367'> +5.5671558e-01 </wgt>
<wgt id='1368'> +5.3676216e-01 </wgt>
<wgt id='1369'> +5.4825217e-01 </wgt>
<wgt id='1370'> +5.3716382e-01 </wgt>
<wgt id='1371'> +5.4066418e-01 </wgt>
<wgt id='1372'> +5.4704707e-01 </wgt>
<wgt id='1373'> +5.4809490e-01 </wgt>
<wgt id='1374'> +5.4159857e-01 </wgt>
<wgt id='1375'> +5.3917725e-01 </wgt>
<wgt id='1376'> +5.4461027e-01 </wgt>
<wgt id='1377'> +5.4255217e-01 </wgt>
<wgt id='1378'> +5.4435933e-01 </wgt>
<wgt id='1379'> +5.3780457e-01 </wgt>
<wgt id='1380'> +5.4819753e-01 </wgt>
<wgt id='1381'> +5.4112899e-01 </wgt>
<wgt id='1382'> +5.4483284e-01 </wgt>
<wgt id='1383'> +5.4301848e-01 </wgt>
<wgt id='1384'> +5.4367807e-01 </wgt>
<wgt id='1385'> +5.4305183e-01 </wgt>
<wgt id='1386'> +5.4352580e-01 </wgt>
<wgt id='1387'> +5.4323420e-01 </wgt>
<wgt id='1388'> +5.4322062e-01 </wgt>
<wgt id='1389'> +5.4289592e-01 </wgt>
<wgt id='1390'> +5.4283388e-01 </wgt>
<wgt id='1391'> +5.4292825e-01 </wgt>
<wgt id='1392'> +6.1140398e-01 </wgt>
<wgt id='1393'> +6.1005953e-01 </wgt>
<wgt id='1394'> +6.1269749e-01 </wgt>
<wgt id='1395'> +6.1393439e-01 </wgt>
<wgt id='1396'> +6.0952608e-01 </wgt>
<wgt id='1397'> +6.1239744e-01 </wgt>
<wgt id='1398'> +6.1025888e-01 </wgt>
<wgt id='1399'> +6.0714454e-01 </wgt>
<wgt id='1400'> +6.1643996e-01 </wgt>
<wgt id='1401'> +6.0465585e-01 </wgt>
<wgt id='1402'> +6.1956309e-01 </wgt>
<wgt id='1403'> +6.1047417e-01 </wgt>
<wgt id='1404'> +6.1318645e-01 </wgt>
<wgt id='1405'> +6.0730986e-01 </wgt>
<wgt id='1406'> +6.1685416e-01 </wgt>
<wgt id='1407'> +6.1507946e-01 </wgt>
<wgt id='1408'> +6.0868349e-01 </wgt>
<wgt id='1409'> +6.0333335e-01 </wgt>
<wgt id='1410'> +6.2034207e-01 </wgt>
<wgt id='1411'> +6.0710520e-01 </wgt>
<wgt id='1412'> +6.1459424e-01 </wgt>
<wgt id='1413'> +6.1522982e-01 </wgt>
<wgt id='1414'> +6.0720578e-01 </wgt>
<wgt id='1415'> +6.0315602e-01 </wgt>
<wgt id='1416'> +6.1928403e-01 </wgt>
<wgt id='1417'> +6.1537631e-01 </wgt>
<wgt id='1418'> +6.0654179e-01 </wgt>
<wgt id='1419'> +6.1018231e-01 </wgt>
<wgt id='1420'> +6.1252091e-01 </wgt>
<wgt id='1421'> +5.9636597e-01 </wgt>
<wgt id='1422'> +6.2939234e-01 </wgt>
<wgt id='1423'> +6.2533988e-01 </wgt>
<wgt id='1424'> +6.0292103e-01 </wgt>
<wgt id='1425'> +6.1268312e-01 </wgt>
<wgt id='1426'> +6.1110937e-01 </wgt>
<wgt id='1427'> +6.0867136e-01 </wgt>
<wgt id='1428'> +6.1763439e-01 </wgt>
<wgt id='1429'> +6.0884131e-01 </wgt>
<wgt id='1430'> +6.1343029e-01 </wgt>
<wgt id='1431'> +6.0652983e-01 </wgt>
<wgt id='1432'> +6.1436785e-01 </wgt>
<wgt id='1433'> +6.0173504e-01 </wgt>
<wgt id='1434'> +6.2724620e-01 </wgt>
<wgt id='1435'> +6.1368313e-01 </wgt>
<wgt id='1436'> +6.0515092e-01 </wgt>
<wgt id='1437'> +6.1011816e-01 </wgt>
<wgt id='1438'> +6.1591562e-01 </wgt>
<wgt id='1439'> +6.1748591e-01 </wgt>
<wgt id='1440'> +6.0583740e-01 </wgt>
<wgt id='1441'> +6.2402821e-01 </wgt>
<wgt id='1442'> +6.1692285e-01 </wgt>
<wgt id='1443'> +6.0951906e-01 </wgt>
<wgt id='1444'> +6.0804038e-01 </wgt>
<wgt id='1445'> +6.1098707e-01 </wgt>
<wgt id='1446'> +6.1218317e-01 </wgt>
<wgt id='1447'> +6.0765916e-01 </wgt>
<wgt id='1448'> +6.1048426e-01 </wgt>
<wgt id='1449'> +6.0851461e-01 </wgt>
<wgt id='1450'> +6.0535878e-01 </wgt>
<wgt id='1451'> +6.1410299e-01 </wgt>
<wgt id='1452'> +6.0268619e-01 </wgt>
<wgt id='1453'> +6.1611681e-01 </wgt>
<wgt id='1454'> +6.0808123e-01 </wgt>
<wgt id='1455'> +6.1238417e-01 </wgt>
<wgt id='1456'> +6.0518315e-01 </wgt>
<wgt id='1457'> +6.1714174e-01 </wgt>
<wgt id='1458'> +6.1446540e-01 </wgt>
<wgt id='1459'> +6.0662558e-01 </wgt>
<wgt id='1460'> +6.0002204e-01 </wgt>
<wgt id='1461'> +6.2047209e-01 </wgt>
<wgt id='1462'> +6.0844627e-01 </wgt>
<wgt id='1463'> +6.1036485e-01 </wgt>
<wgt id='1464'> +6.1220173e-01 </wgt>
<wgt id='1465'> +6.0588990e-01 </wgt>
<wgt id='1466'> +5.9741765e-01 </wgt>
<wgt id='1467'> +6.1747871e-01 </wgt>
<wgt id='1468'> +6.0741901e-01 </wgt>
<wgt id='1469'> +6.1171007e-01 </wgt>
<wgt id='1470'> +6.0849667e-01 </wgt>
<wgt id='1471'> +6.1043177e-01 </wgt>
<wgt id='1472'> +5.9546250e-01 </wgt>
<wgt id='1473'> +6.2683875e-01 </wgt>
<wgt id='1474'> +6.1796036e-01 </wgt>
<wgt id='1475'> +6.0207611e-01 </wgt>
<wgt id='1476'> +6.1007821e-01 </wgt>
<wgt id='1477'> +6.1071712e-01 </wgt>
<wgt id='1478'> +6.0686815e-01 </wgt>
<wgt id='1479'> +6.1630354e-01 </wgt>
<wgt id='1480'> +6.0696254e-01 </wgt>
<wgt id='1481'> +6.1153145e-01 </wgt>
<wgt id='1482'> +6.0456887e-01 </wgt>
<wgt id='1483'> +6.1300707e-01 </wgt>
<wgt id='1484'> +5.9985548e-01 </wgt>
<wgt id='1485'> +6.2427624e-01 </wgt>
<wgt id='1486'> +6.1373533e-01 </wgt>
<wgt id='1487'> +6.0349611e-01 </wgt>
<wgt id='1488'> +6.0795565e-01 </wgt>
<wgt id='1489'> +6.1443234e-01 </wgt>
<wgt id='1490'> +6.1955299e-01 </wgt>
<wgt id='1491'> +6.0745484e-01 </wgt>
<wgt id='1492'> +6.2569828e-01 </wgt>
<wgt id='1493'> +6.1684464e-01 </wgt>
<wgt id='1494'> +5.8615929e-01 </wgt>
<wgt id='1495'> +5.8341342e-01 </wgt>
<wgt id='1496'> +5.8487077e-01 </wgt>
<wgt id='1497'> +5.8586475e-01 </wgt>
<wgt id='1498'> +5.8771827e-01 </wgt>
<wgt id='1499'> +5.8667635e-01 </wgt>
<wgt id='1500'> +5.7390098e-01 </wgt>
<wgt id='1501'> +5.7730791e-01 </wgt>
<wgt id='1502'> +5.8028458e-01 </wgt>
<wgt id='1503'> +5.8270275e-01 </wgt>
<wgt id='1504'> +5.8486975e-01 </wgt>
<wgt id='1505'> +5.8878376e-01 </wgt>
<wgt id='1506'> +5.9043245e-01 </wgt>
<wgt id='1507'> +5.9198105e-01 </wgt>
<wgt id='1508'> +5.8667635e-01 </wgt>
<wgt id='1509'> +5.8750386e-01 </wgt>
<wgt id='1510'> +5.8706531e-01 </wgt>
<wgt id='1511'> +5.8629553e-01 </wgt>
<wgt id='1512'> +5.8641026e-01 </wgt>
<wgt id='1513'> +5.6301173e-01 </wgt>
<wgt id='1514'> +5.6158097e-01 </wgt>
<wgt id='1515'> +5.6485250e-01 </wgt>
<wgt id='1516'> +5.6218459e-01 </wgt>
<wgt id='1517'> +5.6373327e-01 </wgt>
<wgt id='1518'> +5.6747324e-01 </wgt>
<wgt id='1519'> +5.6116457e-01 </wgt>
<wgt id='1520'> +5.5890320e-01 </wgt>
<wgt id='1521'> +5.6710260e-01 </wgt>
<wgt id='1522'> +5.5934181e-01 </wgt>
<wgt id='1523'> +5.6654798e-01 </wgt>
<wgt id='1524'> +5.7227606e-01 </wgt>
<wgt id='1525'> +5.5895387e-01 </wgt>
<wgt id='1526'> +5.5991309e-01 </wgt>
<wgt id='1527'> +5.6682571e-01 </wgt>
<wgt id='1528'> +5.6091747e-01 </wgt>
<wgt id='1529'> +5.6530821e-01 </wgt>
<wgt id='1530'> +5.5774577e-01 </wgt>
<wgt id='1531'> +5.6590070e-01 </wgt>
<wgt id='1532'> +5.6044780e-01 </wgt>
<wgt id='1533'> +5.6652498e-01 </wgt>
<wgt id='1534'> +5.5608602e-01 </wgt>
<wgt id='1535'> +5.6780799e-01 </wgt>
<wgt id='1536'> +5.6464666e-01 </wgt>
<wgt id='1537'> +5.6149663e-01 </wgt>
<wgt id='1538'> +5.6825341e-01 </wgt>
<wgt id='1539'> +5.4986509e-01 </wgt>
<wgt id='1540'> +5.6244800e-01 </wgt>
<wgt id='1541'> +5.6332519e-01 </wgt>
<wgt id='1542'> +5.6638104e-01 </wgt>
<wgt id='1543'> +5.5451662e-01 </wgt>
<wgt id='1544'> +5.7163013e-01 </wgt>
<wgt id='1545'> +5.4705905e-01 </wgt>
<wgt id='1546'> +5.5819297e-01 </wgt>
<wgt id='1547'> +5.7371922e-01 </wgt>
<wgt id='1548'> +5.6864427e-01 </wgt>
<wgt id='1549'> +5.6080548e-01 </wgt>
<wgt id='1550'> +5.5915276e-01 </wgt>
<wgt id='1551'> +5.6858429e-01 </wgt>
<wgt id='1552'> +5.5660486e-01 </wgt>
<wgt id='1553'> +5.6564518e-01 </wgt>
<wgt id='1554'> +5.6792785e-01 </wgt>
<wgt id='1555'> +5.5193417e-01 </wgt>
<wgt id='1556'> +5.6600667e-01 </wgt>
<wgt id='1557'> +5.8161823e-01 </wgt>
<wgt id='1558'> +5.5642712e-01 </wgt>
<wgt id='1559'> +5.6941552e-01 </wgt>
<wgt id='1560'> +5.6802344e-01 </wgt>
<wgt id='1561'> +5.6058786e-01 </wgt>
<wgt id='1562'> +5.5989575e-01 </wgt>
<wgt id='1563'> +5.6360734e-01 </wgt>
<wgt id='1564'> +5.6301173e-01 </wgt>
<wgt id='1565'> +5.6194988e-01 </wgt>
<wgt id='1566'> +5.6291309e-01 </wgt>
<wgt id='1567'> +5.6311918e-01 </wgt>
<wgt id='1568'> +5.5110485e-01 </wgt>
<wgt id='1569'> +5.5448928e-01 </wgt>
<wgt id='1570'> +5.5710492e-01 </wgt>
<wgt id='1571'> +5.5875103e-01 </wgt>
<wgt id='1572'> +5.6129946e-01 </wgt>
<wgt id='1573'> +5.6468155e-01 </wgt>
<wgt id='1574'> +5.6508457e-01 </wgt>
<wgt id='1575'> +5.6635336e-01 </wgt>
<wgt id='1576'> +5.6311918e-01 </wgt>
<wgt id='1577'> +5.6393928e-01 </wgt>
<wgt id='1578'> +5.6352964e-01 </wgt>
<wgt id='1579'> +5.6287873e-01 </wgt>
<wgt id='1580'> +5.6268058e-01 </wgt>
<wgt id='1581'> +5.5049857e-01 </wgt>
<wgt id='1582'> +5.4822365e-01 </wgt>
<wgt id='1583'> +5.6634584e-01 </wgt>
<wgt id='1584'> +5.4980936e-01 </wgt>
<wgt id='1585'> +5.5128069e-01 </wgt>
<wgt id='1586'> +5.5215389e-01 </wgt>
<wgt id='1587'> +5.5512215e-01 </wgt>
<wgt id='1588'> +5.5077353e-01 </wgt>
<wgt id='1589'> +5.5211149e-01 </wgt>
<wgt id='1590'> +5.2439368e-01 </wgt>
<wgt id='1591'> +5.5005319e-01 </wgt>
<wgt id='1592'> +5.5013503e-01 </wgt>
<wgt id='1593'> +5.5184184e-01 </wgt>
<wgt id='1594'> +5.4525162e-01 </wgt>
<wgt id='1595'> +5.5067939e-01 </wgt>
<wgt id='1596'> +5.5321098e-01 </wgt>
<wgt id='1597'> +5.5302561e-01 </wgt>
<wgt id='1598'> +5.5812590e-01 </wgt>
<wgt id='1599'> +5.4843077e-01 </wgt>
<wgt id='1600'> +5.4669028e-01 </wgt>
<wgt id='1601'> +5.4770414e-01 </wgt>
<wgt id='1602'> +5.4901963e-01 </wgt>
<wgt id='1603'> +5.4591509e-01 </wgt>
<wgt id='1604'> +5.5176701e-01 </wgt>
<wgt id='1605'> +5.6777115e-01 </wgt>
<wgt id='1606'> +5.4782149e-01 </wgt>
<wgt id='1607'> +5.5245818e-01 </wgt>
<wgt id='1608'> +5.4556594e-01 </wgt>
<wgt id='1609'> +5.4909483e-01 </wgt>
<wgt id='1610'> +5.4834386e-01 </wgt>
<wgt id='1611'> +5.5182075e-01 </wgt>
<wgt id='1612'> +5.2420350e-01 </wgt>
<wgt id='1613'> +5.2393577e-01 </wgt>
<wgt id='1614'> +5.2484595e-01 </wgt>
<wgt id='1615'> +5.2366138e-01 </wgt>
<wgt id='1616'> +5.2615154e-01 </wgt>
<wgt id='1617'> +5.2394055e-01 </wgt>
<wgt id='1618'> +5.2315342e-01 </wgt>
<wgt id='1619'> +5.2587478e-01 </wgt>
<wgt id='1620'> +5.2498229e-01 </wgt>
<wgt id='1621'> +5.2724661e-01 </wgt>
<wgt id='1622'> +5.2215834e-01 </wgt>
<wgt id='1623'> +5.2103443e-01 </wgt>
<wgt id='1624'> +5.2665407e-01 </wgt>
<wgt id='1625'> +5.2120421e-01 </wgt>
<wgt id='1626'> +5.2443436e-01 </wgt>
<wgt id='1627'> +5.2531563e-01 </wgt>
<wgt id='1628'> +5.2688124e-01 </wgt>
<wgt id='1629'> +5.2266390e-01 </wgt>
<wgt id='1630'> +5.2088360e-01 </wgt>
<wgt id='1631'> +5.2383283e-01 </wgt>
<wgt id='1632'> +5.2406726e-01 </wgt>
<wgt id='1633'> +5.2610138e-01 </wgt>
<wgt id='1634'> +5.2486720e-01 </wgt>
<wgt id='1635'> +5.2228574e-01 </wgt>
<wgt id='1636'> +5.2556679e-01 </wgt>
<wgt id='1637'> +5.2542553e-01 </wgt>
<wgt id='1638'> +5.2116821e-01 </wgt>
<wgt id='1639'> +5.2181866e-01 </wgt>
<wgt id='1640'> +5.2401180e-01 </wgt>
<wgt id='1641'> +5.2610917e-01 </wgt>
<wgt id='1642'> +5.2277273e-01 </wgt>
<wgt id='1643'> +5.2777104e-01 </wgt>
<wgt id='1644'> +5.2780821e-01 </wgt>
<wgt id='1645'> +5.2402050e-01 </wgt>
<wgt id='1646'> +5.2223091e-01 </wgt>
<wgt id='1647'> +5.3297948e-01 </wgt>
<wgt id='1648'> +5.2782705e-01 </wgt>
<wgt id='1649'> +5.2014653e-01 </wgt>
<wgt id='1650'> +5.2716460e-01 </wgt>
<wgt id='1651'> +5.2307921e-01 </wgt>
<wgt id='1652'> +5.2501501e-01 </wgt>
<wgt id='1653'> +5.2474161e-01 </wgt>
<wgt id='1654'> +5.2585227e-01 </wgt>
<wgt id='1655'> +5.2125206e-01 </wgt>
<wgt id='1656'> +5.2546709e-01 </wgt>
<wgt id='1657'> +5.2079901e-01 </wgt>
<wgt id='1658'> +5.2490639e-01 </wgt>
<wgt id='1659'> +5.2390481e-01 </wgt>
<wgt id='1660'> +5.2853102e-01 </wgt>
<wgt id='1661'> +5.2741866e-01 </wgt>
<wgt id='1662'> +5.2376987e-01 </wgt>
<wgt id='1663'> +5.2595234e-01 </wgt>
<wgt id='1664'> +5.2531932e-01 </wgt>
<wgt id='1665'> +5.2402027e-01 </wgt>
<wgt id='1666'> +5.2431522e-01 </wgt>
<wgt id='1667'> +5.2525090e-01 </wgt>
<wgt id='1668'> +5.2518836e-01 </wgt>
<wgt id='1669'> +5.2173444e-01 </wgt>
<wgt id='1670'> +5.2482098e-01 </wgt>
<wgt id='1671'> +5.2062446e-01 </wgt>
<wgt id='1672'> +5.1988603e-01 </wgt>
<wgt id='1673'> +5.2146934e-01 </wgt>
<wgt id='1674'> +5.2460538e-01 </wgt>
<wgt id='1675'> +5.2393941e-01 </wgt>
<wgt id='1676'> +5.1825094e-01 </wgt>
<wgt id='1677'> +5.2488888e-01 </wgt>
<wgt id='1678'> +5.2508925e-01 </wgt>
<wgt id='1679'> +5.2343935e-01 </wgt>
<wgt id='1680'> +5.2398559e-01 </wgt>
<wgt id='1681'> +5.2694980e-01 </wgt>
<wgt id='1682'> +5.2422739e-01 </wgt>
<wgt id='1683'> +5.2483341e-01 </wgt>
<wgt id='1684'> +5.2717254e-01 </wgt>
<wgt id='1685'> +5.2395283e-01 </wgt>
<wgt id='1686'> +5.2301566e-01 </wgt>
<wgt id='1687'> +5.2894455e-01 </wgt>
<wgt id='1688'> +5.2813987e-01 </wgt>
<wgt id='1689'> +5.2717106e-01 </wgt>
<wgt id='1690'> +5.2452627e-01 </wgt>
<wgt id='1691'> +5.2575752e-01 </wgt>
<wgt id='1692'> +5.2488233e-01 </wgt>
<wgt id='1693'> +5.2244821e-01 </wgt>
<wgt id='1694'> +5.2476337e-01 </wgt>
<wgt id='1695'> +5.2213942e-01 </wgt>
<wgt id='1696'> +5.2686047e-01 </wgt>
<wgt id='1697'> +5.2207177e-01 </wgt>
<wgt id='1698'> +5.2561099e-01 </wgt>
<wgt id='1699'> +5.2199263e-01 </wgt>
<wgt id='1700'> +5.2636378e-01 </wgt>
<wgt id='1701'> +5.2318935e-01 </wgt>
<wgt id='1702'> +5.2079631e-01 </wgt>
<wgt id='1703'> +5.2274563e-01 </wgt>
<wgt id='1704'> +5.2718761e-01 </wgt>
<wgt id='1705'> +5.2291153e-01 </wgt>
<wgt id='1706'> +5.2729744e-01 </wgt>
<wgt id='1707'> +5.2558344e-01 </wgt>
<wgt id='1708'> +5.2208732e-01 </wgt>
<wgt id='1709'> +5.2583391e-01 </wgt>
<wgt id='1710'> +5.2227051e-01 </wgt>
<wgt id='1711'> +5.2713633e-01 </wgt>
<wgt id='1712'> +5.2268053e-01 </wgt>
<wgt id='1713'> +5.2222581e-01 </wgt>
<wgt id='1714'> +5.2492970e-01 </wgt>
<wgt id='1715'> +5.6268901e-01 </wgt>
<wgt id='1716'> +5.9415599e-01 </wgt>
<wgt id='1717'> +5.7313222e-01 </wgt>
<wgt id='1718'> +5.4357137e-01 </wgt>
<wgt id='1719'> +5.7252444e-01 </wgt>
<wgt id='1720'> +5.9703805e-01 </wgt>
<wgt id='1721'> +5.7990782e-01 </wgt>
<wgt id='1722'> +6.0670766e-01 </wgt>
<wgt id='1723'> +5.3165046e-01 </wgt>
<wgt id='1724'> +5.5715858e-01 </wgt>
<wgt id='1725'> +5.9330833e-01 </wgt>
<wgt id='1726'> +5.6026466e-01 </wgt>
<wgt id='1727'> +5.7224090e-01 </wgt>
<wgt id='1728'> +5.5542350e-01 </wgt>
<wgt id='1729'> +5.4201967e-01 </wgt>
<wgt id='1730'> +5.7610890e-01 </wgt>
<wgt id='1731'> +6.0411534e-01 </wgt>
<wgt id='1732'> +5.6804216e-01 </wgt>
<wgt id='1733'> +5.5897636e-01 </wgt>
<wgt id='1734'> +5.4103645e-01 </wgt>
<wgt id='1735'> +5.0439209e-01 </wgt>
<wgt id='1736'> +5.3195176e-01 </wgt>
<wgt id='1737'> +5.5297308e-01 </wgt>
<wgt id='1738'> +5.3675166e-01 </wgt>
<wgt id='1739'> +6.0182958e-01 </wgt>
<wgt id='1740'> +5.7334857e-01 </wgt>
<wgt id='1741'> +5.8157608e-01 </wgt>
<wgt id='1742'> +5.9747640e-01 </wgt>
<wgt id='1743'> +5.5801082e-01 </wgt>
<wgt id='1744'> +5.8229786e-01 </wgt>
<wgt id='1745'> +5.0391710e-01 </wgt>
<wgt id='1746'> +6.0999715e-01 </wgt>
<wgt id='1747'> +5.4579666e-01 </wgt>
<wgt id='1748'> +5.5404939e-01 </wgt>
<wgt id='1749'> +5.5450610e-01 </wgt>
<wgt id='1750'> +5.9690491e-01 </wgt>
<wgt id='1751'> +5.7940792e-01 </wgt>
<wgt id='1752'> +5.3973752e-01 </wgt>
<wgt id='1753'> +5.5423253e-01 </wgt>
<wgt id='1754'> +4.7887846e-01 </wgt>
<wgt id='1755'> +5.5081540e-01 </wgt>
<wgt id='1756'> +5.6932936e-01 </wgt>
<wgt id='1757'> +5.7465691e-01 </wgt>
<wgt id='1758'> +5.5585558e-01 </wgt>
<wgt id='1759'> +5.4810274e-01 </wgt>
<wgt id='1760'> +5.7731500e-01 </wgt>
<wgt id='1761'> +5.7462251e-01 </wgt>
<wgt id='1762'> +5.7224090e-01 </wgt>
<wgt id='1763'> +5.5441129e-01 </wgt>
<wgt id='1764'> +5.5224780e-01 </wgt>
<wgt id='1765'> +5.5898909e-01 </wgt>
<wgt id='1766'> +5.6143695e-01 </wgt>
<wgt id='1767'> +6.0477850e-01 </wgt>
<wgt id='1768'> +5.9669850e-01 </wgt>
<wgt id='1769'> +5.7967195e-01 </wgt>
<wgt id='1770'> +5.8590834e-01 </wgt>
<wgt id='1771'> +5.7005286e-01 </wgt>
<wgt id='1772'> +5.7745606e-01 </wgt>
<wgt id='1773'> +5.5439266e-01 </wgt>
<wgt id='1774'> +5.6261683e-01 </wgt>
<wgt id='1775'> +5.6265698e-01 </wgt>
<wgt id='1776'> +5.4376129e-01 </wgt>
<wgt id='1777'> +5.8574391e-01 </wgt>
<wgt id='1778'> +5.4130285e-01 </wgt>
<wgt id='1779'> +5.7787294e-01 </wgt>
<wgt id='1780'> +5.6130078e-01 </wgt>
<wgt id='1781'> +5.4207396e-01 </wgt>
<wgt id='1782'> +5.3289215e-01 </wgt>
<wgt id='1783'> +5.9227364e-01 </wgt>
<wgt id='1784'> +5.6944867e-01 </wgt>
<wgt id='1785'> +5.5709312e-01 </wgt>
<wgt id='1786'> +5.7146427e-01 </wgt>
<wgt id='1787'> +5.3638943e-01 </wgt>
<wgt id='1788'> +5.7674975e-01 </wgt>
<wgt id='1789'> +5.6895263e-01 </wgt>
<wgt id='1790'> +5.4041889e-01 </wgt>
<wgt id='1791'> +4.9522284e-01 </wgt>
<wgt id='1792'> +5.4016607e-01 </wgt>
<wgt id='1793'> +5.5077256e-01 </wgt>
<wgt id='1794'> +6.0685827e-01 </wgt>
<wgt id='1795'> +5.9617432e-01 </wgt>
<wgt id='1796'> +5.3302452e-01 </wgt>
<wgt id='1797'> +5.3844022e-01 </wgt>
<wgt id='1798'> +5.3341648e-01 </wgt>
<wgt id='1799'> +5.4582902e-01 </wgt>
<wgt id='1800'> +5.8715734e-01 </wgt>
<wgt id='1801'> +5.8555489e-01 </wgt>
<wgt id='1802'> +5.7880959e-01 </wgt>
<wgt id='1803'> +6.2211809e-01 </wgt>
<wgt id='1804'> +5.4704470e-01 </wgt>
<wgt id='1805'> +5.4702285e-01 </wgt>
<wgt id='1806'> +5.6980288e-01 </wgt>
<wgt id='1807'> +5.8096507e-01 </wgt>
<wgt id='1808'> +5.2290128e-01 </wgt>
<wgt id='1809'> +5.5193275e-01 </wgt>
<wgt id='1810'> +5.3768493e-01 </wgt>
<wgt id='1811'> +5.6381860e-01 </wgt>
<wgt id='1812'> +5.4732995e-01 </wgt>
<wgt id='1813'> +5.5345154e-01 </wgt>
<wgt id='1814'> +5.6279555e-01 </wgt>
<wgt id='1815'> +5.6211831e-01 </wgt>
<wgt id='1816'> +5.5637393e-01 </wgt>
<wgt id='1817'> +5.6061516e-01 </wgt>
<wgt id='1818'> +5.5230940e-01 </wgt>
<wgt id='1819'> +5.3744758e-01 </wgt>
<wgt id='1820'> +5.5164415e-01 </wgt>
<wgt id='1821'> +5.6696287e-01 </wgt>
<wgt id='1822'> +5.3407772e-01 </wgt>
<wgt id='1823'> +5.6474991e-01 </wgt>
<wgt id='1824'> +5.6276504e-01 </wgt>
<wgt id='1825'> +5.6383081e-01 </wgt>
<wgt id='1826'> +5.8120948e-01 </wgt>
<wgt id='1827'> +5.1934444e-01 </wgt>
<wgt id='1828'> +5.3741431e-01 </wgt>
<wgt id='1829'> +5.8000018e-01 </wgt>
<wgt id='1830'> +5.7659618e-01 </wgt>
<wgt id='1831'> +5.6573891e-01 </wgt>
<wgt id='1832'> +5.6204994e-01 </wgt>
<wgt id='1833'> +5.7532729e-01 </wgt>
<wgt id='1834'> +5.4952380e-01 </wgt>
<wgt id='1835'> +5.4466926e-01 </wgt>
<wgt id='1836'> +6.2602367e-01 </wgt>
<wgt id='1837'> +5.5275251e-01 </wgt>
<wgt id='1838'> +5.7589906e-01 </wgt>
<wgt id='1839'> +5.8726723e-01 </wgt>
<wgt id='1840'> +5.9705816e-01 </wgt>
<wgt id='1841'> +5.4902167e-01 </wgt>
<wgt id='1842'> +5.4739415e-01 </wgt>
<wgt id='1843'> +5.5811204e-01 </wgt>
<wgt id='1844'> +5.6036916e-01 </wgt>
<wgt id='1845'> +5.6479881e-01 </wgt>
<wgt id='1846'> +5.6775502e-01 </wgt>
<wgt id='1847'> +5.9715109e-01 </wgt>
<wgt id='1848'> +5.4834254e-01 </wgt>
<wgt id='1849'> +5.6851304e-01 </wgt>
<wgt id='1850'> +5.5263504e-01 </wgt>
<wgt id='1851'> +5.5594948e-01 </wgt>
<wgt id='1852'> +5.3367453e-01 </wgt>
<wgt id='1853'> +5.8699312e-01 </wgt>
<wgt id='1854'> +5.6433953e-01 </wgt>
<wgt id='1855'> +5.8547628e-01 </wgt>
<wgt id='1856'> +5.5293927e-01 </wgt>
<wgt id='1857'> +5.5135306e-01 </wgt>
<wgt id='1858'> +5.1780230e-01 </wgt>
<wgt id='1859'> +5.7113253e-01 </wgt>
<wgt id='1860'> +5.4956175e-01 </wgt>
<wgt id='1861'> +5.6545019e-01 </wgt>
<wgt id='1862'> +5.2918534e-01 </wgt>
<wgt id='1863'> +5.0847328e-01 </wgt>
<wgt id='1864'> +5.6220419e-01 </wgt>
<wgt id='1865'> +5.1356281e-01 </wgt>
<wgt id='1866'> +5.6092685e-01 </wgt>
<wgt id='1867'> +5.2784727e-01 </wgt>
<wgt id='1868'> +5.6837827e-01 </wgt>
<wgt id='1869'> +5.7003932e-01 </wgt>
<wgt id='1870'> +5.7924595e-01 </wgt>
<wgt id='1871'> +5.7843853e-01 </wgt>
<wgt id='1872'> +5.6575643e-01 </wgt>
<wgt id='1873'> +5.5688823e-01 </wgt>
<wgt id='1874'> +5.3486533e-01 </wgt>
<wgt id='1875'> +5.6031081e-01 </wgt>
<wgt id='1876'> +5.5749393e-01 </wgt>
<wgt id='1877'> +5.3937670e-01 </wgt>
<wgt id='1878'> +5.2555294e-01 </wgt>
<wgt id='1879'> +5.3305261e-01 </wgt>
<wgt id='1880'> +5.2078898e-01 </wgt>
<wgt id='1881'> +5.3969718e-01 </wgt>
<wgt id='1882'> +5.7649911e-01 </wgt>
<wgt id='1883'> +5.7983648e-01 </wgt>
<wgt id='1884'> +5.7379008e-01 </wgt>
<wgt id='1885'> +5.6077489e-01 </wgt>
<wgt id='1886'> +5.9306672e-01 </wgt>
<wgt id='1887'> +5.4186998e-01 </wgt>
<wgt id='1888'> +5.1994238e-01 </wgt>
<wgt id='1889'> +5.4781149e-01 </wgt>
<wgt id='1890'> +5.0742928e-01 </wgt>
<wgt id='1891'> +5.5028207e-01 </wgt>
<wgt id='1892'> +5.3314665e-01 </wgt>
<wgt id='1893'> +5.8651444e-01 </wgt>
<wgt id='1894'> +5.3949196e-01 </wgt>
<wgt id='1895'> +5.5073324e-01 </wgt>
<wgt id='1896'> +5.5564637e-01 </wgt>
<wgt id='1897'> +5.5385344e-01 </wgt>
<wgt id='1898'> +5.5346657e-01 </wgt>
<wgt id='1899'> +5.3406196e-01 </wgt>
<wgt id='1900'> +5.8925872e-01 </wgt>
<wgt id='1901'> +5.0808293e-01 </wgt>
<wgt id='1902'> +5.1829564e-01 </wgt>
<wgt id='1903'> +5.2231346e-01 </wgt>
<wgt id='1904'> +5.1431208e-01 </wgt>
<wgt id='1905'> +5.8506082e-01 </wgt>
<wgt id='1906'> +5.7524837e-01 </wgt>
<wgt id='1907'> +5.5105340e-01 </wgt>
<wgt id='1908'> +5.6329334e-01 </wgt>
<wgt id='1909'> +5.6678017e-01 </wgt>
<wgt id='1910'> +5.5041340e-01 </wgt>
<wgt id='1911'> +5.5849161e-01 </wgt>
<wgt id='1912'> +5.5428786e-01 </wgt>
<wgt id='1913'> +6.0567822e-01 </wgt>
<wgt id='1914'> +5.8228843e-01 </wgt>
<wgt id='1915'> +5.4680285e-01 </wgt>
<wgt id='1916'> +5.7728841e-01 </wgt>
<wgt id='1917'> +6.2409309e-01 </wgt>
<wgt id='1918'> +6.5053278e-01 </wgt>
<wgt id='1919'> +5.5637393e-01 </wgt>
<wgt id='1920'> +5.6061516e-01 </wgt>
<wgt id='1921'> +5.5230940e-01 </wgt>
<wgt id='1922'> +5.3744758e-01 </wgt>
<wgt id='1923'> +5.5164415e-01 </wgt>
<wgt id='1924'> +5.6696287e-01 </wgt>
<wgt id='1925'> +5.3407772e-01 </wgt>
<wgt id='1926'> +5.6474991e-01 </wgt>
<wgt id='1927'> +5.6276504e-01 </wgt>
<wgt id='1928'> +5.6383081e-01 </wgt>
<wgt id='1929'> +5.8120948e-01 </wgt>
<wgt id='1930'> +5.1934444e-01 </wgt>
<wgt id='1931'> +5.3741431e-01 </wgt>
<wgt id='1932'> +5.8000018e-01 </wgt>
<wgt id='1933'> +5.7659618e-01 </wgt>
<wgt id='1934'> +5.6573891e-01 </wgt>
<wgt id='1935'> +5.6204994e-01 </wgt>
<wgt id='1936'> +5.7532729e-01 </wgt>
<wgt id='1937'> +5.4952380e-01 </wgt>
<wgt id='1938'> +5.4466926e-01 </wgt>
<wgt id='1939'> +6.2602367e-01 </wgt>
<wgt id='1940'> +5.5275251e-01 </wgt>
<wgt id='1941'> +5.7589906e-01 </wgt>
<wgt id='1942'> +5.8726723e-01 </wgt>
<wgt id='1943'> +5.9705816e-01 </wgt>
<wgt id='1944'> +5.4902167e-01 </wgt>
<wgt id='1945'> +5.4739415e-01 </wgt>
<wgt id='1946'> +5.5811204e-01 </wgt>
<wgt id='1947'> +5.6036916e-01 </wgt>
<wgt id='1948'> +5.6479881e-01 </wgt>
<wgt id='1949'> +5.6775502e-01 </wgt>
<wgt id='1950'> +5.9715109e-01 </wgt>
<wgt id='1951'> +5.4834254e-01 </wgt>
<wgt id='1952'> +5.6851304e-01 </wgt>
<wgt id='1953'> +5.5263504e-01 </wgt>
<wgt id='1954'> +5.5594948e-01 </wgt>
<wgt id='1955'> +5.3367453e-01 </wgt>
<wgt id='1956'> +5.8699312e-01 </wgt>
<wgt id='1957'> +5.6433953e-01 </wgt>
<wgt id='1958'> +5.8547628e-01 </wgt>
<wgt id='1959'> +5.5293927e-01 </wgt>
<wgt id='1960'> +5.5135306e-01 </wgt>
<wgt id='1961'> +5.1780230e-01 </wgt>
<wgt id='1962'> +5.7113253e-01 </wgt>
<wgt id='1963'> +5.4956175e-01 </wgt>
<wgt id='1964'> +5.6545019e-01 </wgt>
<wgt id='1965'> +5.2918534e-01 </wgt>
<wgt id='1966'> +5.0847328e-01 </wgt>
<wgt id='1967'> +5.6220419e-01 </wgt>
<wgt id='1968'> +5.1356281e-01 </wgt>
<wgt id='1969'> +5.6092685e-01 </wgt>
<wgt id='1970'> +5.2784727e-01 </wgt>
<wgt id='1971'> +5.6837827e-01 </wgt>
<wgt id='1972'> +5.7003932e-01 </wgt>
<wgt id='1973'> +5.7924595e-01 </wgt>
<wgt id='1974'> +5.7843853e-01 </wgt>
<wgt id='1975'> +5.6575643e-01 </wgt>
<wgt id='1976'> +5.5688823e-01 </wgt>
<wgt id='1977'> +5.3486533e-01 </wgt>
<wgt id='1978'> +5.6031081e-01 </wgt>
<wgt id='1979'> +5.5749393e-01 </wgt>
<wgt id='1980'> +5.3937670e-01 </wgt>
<wgt id='1981'> +5.2555294e-01 </wgt>
<wgt id='1982'> +5.3305261e-01 </wgt>
<wgt id='1983'> +5.2078898e-01 </wgt>
<wgt id='1984'> +5.3969718e-01 </wgt>
<wgt id='1985'> +5.7649911e-01 </wgt>
<wgt id='1986'> +5.7983648e-01 </wgt>
<wgt id='1987'> +5.7379008e-01 </wgt>
<wgt id='1988'> +5.6077489e-01 </wgt>
<wgt id='1989'> +5.9306672e-01 </wgt>
<wgt id='1990'> +5.4186998e-01 </wgt>
<wgt id='1991'> +5.1994238e-01 </wgt>
<wgt id='1992'> +5.4781149e-01 </wgt>
<wgt id='1993'> +5.0742928e-01 </wgt>
<wgt id='1994'> +5.5028207e-01 </wgt>
<wgt id='1995'> +5.3314665e-01 </wgt>
<wgt id='1996'> +5.8651444e-01 </wgt>
<wgt id='1997'> +5.3949196e-01 </wgt>
<wgt id='1998'> +5.5073324e-01 </wgt>
<wgt id='1999'> +5.5564637e-01 </wgt>
<wgt id='2000'> +5.5385344e-01 </wgt>
<wgt id='2001'> +5.5346657e-01 </wgt>
<wgt id='2002'> +5.3406196e-01 </wgt>
<wgt id='2003'> +5.8925872e-01 </wgt>
<wgt id='2004'> +5.0808293e-01 </wgt>
<wgt id='2005'> +5.1829564e-01 </wgt>
<wgt id='2006'> +5.2231346e-01 </wgt>
<wgt id='2007'> +5.1431208e-01 </wgt>
<wgt id='2008'> +5.8506082e-01 </wgt>
<wgt id='2009'> +5.7524837e-01 </wgt>
<wgt id='2010'> +5.5105340e-01 </wgt>
<wgt id='2011'> +5.6329334e-01 </wgt>
<wgt id='2012'> +5.6678017e-01 </wgt>
<wgt id='2013'> +5.5041340e-01 </wgt>
<wgt id='2014'> +5.5849161e-01 </wgt>
<wgt id='2015'> +5.5428786e-01 </wgt>
<wgt id='2016'> +6.0567822e-01 </wgt>
<wgt id='2017'> +5.8228843e-01 </wgt>
<wgt id='2018'> +5.4680285e-01 </wgt>
<wgt id='2019'> +5.7728841e-01 </wgt>
<wgt id='2020'> +5.4965980e-01 </wgt>
<wgt id='2021'> +5.5560229e-01 </wgt>
<wgt id='2022'> +5.3630864e-01 </wgt>
</rwgt>
</event>
<event>
 13 2 0.0079112 8.15650000e+01 7.81860800e-03 1.15069200e-01
        3 -1    0    0  501    0 +0.0000000000e+00 +0.0000000000e+00 +1.3161071805e+02 1.3161075680e+02 1.0100000000e-01 0.0000e+00 -1.0000e+00
       21 -1    0    0  502  503 +0.0000000000e+00 +0.0000000000e+00 -2.7350402086e+03 2.7350402086e+03 0.0000000000e+00 0.0000e+00 1.0000e+00
 -8000001  2    1    2    0  503 -2.5078422420e+01 -8.0103125027e+01 -2.2566949287e+03 2.3366038308e+03 6.0000001904e+02 0.0000e+00 0.0000e+00
        4  1    1    2  501    0 +1.5754160849e+01 +7.6619142326e+01 +7.4877936236e+01 1.0829129600e+02 1.2700000000e+00 0.0000e+00 -1.0000e+00
        5  1    1    2  502    0 +9.3242615703e+00 +3.4839827011e+00 -4.2161249808e+02 4.2175583864e+02 4.6700000000e+00 0.0000e+00 -1.0000e+00
       -6  2    3    3    0  503 -8.5792517739e+01 -5.9043507739e+01 -2.1984135470e+03 2.2075976237e+03 1.7210070487e+02 0.0000e+00 0.0000e+00
       -5  1    6    6    0  503 +3.5841982078e+01 -9.5964861947e+00 -7.7597301356e+02 7.7687364925e+02 4.6700000000e+00 0.0000e+00 1.0000e+00
      -24  2    6    6    0    0 -1.2163449982e+02 -4.9447021544e+01 -1.4224405335e+03 1.4307239745e+03 7.9962868879e+01 0.0000e+00 0.0000e+00
      -14  1    8    8    0    0 -6.7549660228e+01 -6.6995375842e+01 -7.8252705385e+02 7.8828924069e+02 0.0000000000e+00 0.0000e+00 1.0000e+00
       13  1    8    8    0    0 -5.4084839589e+01 +1.7548354298e+01 -6.3991347964e+02 6.4243473381e+02 1.0566000000e-01 0.0000e+00 -1.0000e+00
       23  2    3    3    0    0 +6.0714095319e+01 -2.1059617288e+01 -5.8281381661e+01 1.2900620702e+02 9.5478652846e+01 0.0000e+00 0.0000e+00
        3  1   11   11  504    0 +2.5504306415e+01 +3.4568964825e+01 -3.0428293763e+00 4.3066831627e+01 1.0100000000e-01 0.0000e+00 1.0000e+00
       -3  1   11   11    0  504 +3.5209788904e+01 -5.5628582113e+01 -5.5238552285e+01 8.5939375388e+01 1.0100000000e-01 0.0000e+00 -1.0000e+00
<mgrwt>
<rscale>  1 0.79900808e+02</rscale>
<asrwt>0</asrwt>
<pdfrwt beam="1">  1       21 0.42077542e+00 0.81565002e+02</pdfrwt>
<pdfrwt beam="2">  1        3 0.20247806e-01 0.78270569e+02</pdfrwt>
<totfact> 0.92737495e+00</totfact>
</mgrwt>
<rwgt>
<wgt id='1001'> +5.2878984e-01 </wgt>
<wgt id='1002'> +3.0962516e-01 </wgt>
<wgt id='1003'> +3.0929173e-01 </wgt>
<wgt id='1004'> +3.8738879e-01 </wgt>
<wgt id='1005'> +2.2231845e-01 </wgt>
<wgt id='1006'> +4.7558195e-01 </wgt>
<wgt id='1007'> +2.8451332e-01 </wgt>
<wgt id='1008'> +2.8421747e-01 </wgt>
<wgt id='1009'> +3.5306565e-01 </wgt>
<wgt id='1010'> +2.0648040e-01 </wgt>
<wgt id='1011'> +5.9593018e-01 </wgt>
<wgt id='1012'> +3.3974070e-01 </wgt>
<wgt id='1013'> +3.3935941e-01 </wgt>
<wgt id='1014'> +4.2935020e-01 </wgt>
<wgt id='1015'> +2.4085330e-01 </wgt>
<wgt id='1016'> +4.5743495e-01 </wgt>
<wgt id='1017'> +2.7373153e-01 </wgt>
<wgt id='1018'> +2.7344920e-01 </wgt>
<wgt id='1019'> +3.3935941e-01 </wgt>
<wgt id='1020'> +1.9911407e-01 </wgt>
<wgt id='1021'> +4.1140693e-01 </wgt>
<wgt id='1022'> +2.5153080e-01 </wgt>
<wgt id='1023'> +2.5128068e-01 </wgt>
<wgt id='1024'> +3.0929173e-01 </wgt>
<wgt id='1025'> +1.8492911e-01 </wgt>
<wgt id='1026'> +5.1551536e-01 </wgt>
<wgt id='1027'> +3.0035589e-01 </wgt>
<wgt id='1028'> +3.0003245e-01 </wgt>
<wgt id='1029'> +3.7611835e-01 </wgt>
<wgt id='1030'> +2.1571436e-01 </wgt>
<wgt id='1031'> +6.1809489e-01 </wgt>
<wgt id='1032'> +3.5346421e-01 </wgt>
<wgt id='1033'> +3.5306565e-01 </wgt>
<wgt id='1034'> +4.4682757e-01 </wgt>
<wgt id='1035'> +2.4994702e-01 </wgt>
<wgt id='1036'> +5.5590095e-01 </wgt>
<wgt id='1037'> +3.2479684e-01 </wgt>
<wgt id='1038'> +3.2444263e-01 </wgt>
<wgt id='1039'> +4.0723809e-01 </wgt>
<wgt id='1040'> +2.3214070e-01 </wgt>
<wgt id='1041'> +6.9657427e-01 </wgt>
<wgt id='1042'> +3.8784373e-01 </wgt>
<wgt id='1043'> +3.8738879e-01 </wgt>
<wgt id='1044'> +4.9522732e-01 </wgt>
<wgt id='1045'> +2.7078528e-01 </wgt>
<wgt id='1046'> +5.2878984e-01 </wgt>
<wgt id='1047'> +5.2878984e-01 </wgt>
<wgt id='1048'> +5.2878984e-01 </wgt>
<wgt id='1049'> +5.2712749e-01 </wgt>
<wgt id='1050'> +5.2373964e-01 </wgt>
<wgt id='1051'> +5.3295738e-01 </wgt>
<wgt id='1052'> +5.2619492e-01 </wgt>
<wgt id='1053'> +5.2505515e-01 </wgt>
<wgt id='1054'> +5.4427251e-01 </wgt>
<wgt id='1055'> +5.2405432e-01 </wgt>
<wgt id='1056'> +5.2058990e-01 </wgt>
<wgt id='1057'> +5.2478631e-01 </wgt>
<wgt id='1058'> +5.3525573e-01 </wgt>
<wgt id='1059'> +5.3323327e-01 </wgt>
<wgt id='1060'> +5.2598259e-01 </wgt>
<wgt id='1061'> +5.2977230e-01 </wgt>
<wgt id='1062'> +5.3263768e-01 </wgt>
<wgt id='1063'> +5.1971525e-01 </wgt>
<wgt id='1064'> +5.4455179e-01 </wgt>
<wgt id='1065'> +5.3496838e-01 </wgt>
<wgt id='1066'> +5.3709677e-01 </wgt>
<wgt id='1067'> +5.2470882e-01 </wgt>
<wgt id='1068'> +5.3671769e-01 </wgt>
<wgt id='1069'> +5.2870879e-01 </wgt>
<wgt id='1070'> +5.1451266e-01 </wgt>
<wgt id='1071'> +5.4142929e-01 </wgt>
<wgt id='1072'> +5.1065362e-01 </wgt>
<wgt id='1073'> +5.4188392e-01 </wgt>
<wgt id='1074'> +5.3671053e-01 </wgt>
<wgt id='1075'> +5.1800032e-01 </wgt>
<wgt id='1076'> +5.3128530e-01 </wgt>
<wgt id='1077'> +5.2499741e-01 </wgt>
<wgt id='1078'> +5.0427328e-01 </wgt>
<wgt id='1079'> +5.3635278e-01 </wgt>
<wgt id='1080'> +5.4239633e-01 </wgt>
<wgt id='1081'> +5.3140104e-01 </wgt>
<wgt id='1082'> +5.2399122e-01 </wgt>
<wgt id='1083'> +5.2969279e-01 </wgt>
<wgt id='1084'> +5.3623774e-01 </wgt>
<wgt id='1085'> +5.2303018e-01 </wgt>
<wgt id='1086'> +5.3702363e-01 </wgt>
<wgt id='1087'> +5.2935539e-01 </wgt>
<wgt id='1088'> +5.3268581e-01 </wgt>
<wgt id='1089'> +5.2857878e-01 </wgt>
<wgt id='1090'> +5.3497182e-01 </wgt>
<wgt id='1091'> +5.2885802e-01 </wgt>
<wgt id='1092'> +5.3083296e-01 </wgt>
<wgt id='1093'> +5.2874670e-01 </wgt>
<wgt id='1094'> +5.1597745e-01 </wgt>
<wgt id='1095'> +5.2697659e-01 </wgt>
<wgt id='1096'> +5.2698854e-01 </wgt>
<wgt id='1097'> +5.3269568e-01 </wgt>
<wgt id='1098'> +5.2793655e-01 </wgt>
<wgt id='1099'> +5.3121525e-01 </wgt>
<wgt id='1100'> +5.3050965e-01 </wgt>
<wgt id='1101'> +5.3073279e-01 </wgt>
<wgt id='1102'> +5.2536303e-01 </wgt>
<wgt id='1103'> +5.2086987e-01 </wgt>
<wgt id='1104'> +5.3125393e-01 </wgt>
<wgt id='1105'> +5.2509949e-01 </wgt>
<wgt id='1106'> +5.2684499e-01 </wgt>
<wgt id='1107'> +5.3063893e-01 </wgt>
<wgt id='1108'> +5.2725947e-01 </wgt>
<wgt id='1109'> +5.3162012e-01 </wgt>
<wgt id='1110'> +5.2681089e-01 </wgt>
<wgt id='1111'> +5.3379030e-01 </wgt>
<wgt id='1112'> +5.2704715e-01 </wgt>
<wgt id='1113'> +5.3018441e-01 </wgt>
<wgt id='1114'> +5.2882574e-01 </wgt>
<wgt id='1115'> +5.2397942e-01 </wgt>
<wgt id='1116'> +5.3464809e-01 </wgt>
<wgt id='1117'> +5.2756728e-01 </wgt>
<wgt id='1118'> +5.3416039e-01 </wgt>
<wgt id='1119'> +5.2526416e-01 </wgt>
<wgt id='1120'> +5.2355144e-01 </wgt>
<wgt id='1121'> +5.2788854e-01 </wgt>
<wgt id='1122'> +5.2644981e-01 </wgt>
<wgt id='1123'> +5.2823967e-01 </wgt>
<wgt id='1124'> +5.3111561e-01 </wgt>
<wgt id='1125'> +5.2975692e-01 </wgt>
<wgt id='1126'> +5.2916724e-01 </wgt>
<wgt id='1127'> +5.2968961e-01 </wgt>
<wgt id='1128'> +5.2868310e-01 </wgt>
<wgt id='1129'> +5.2658671e-01 </wgt>
<wgt id='1130'> +5.2968491e-01 </wgt>
<wgt id='1131'> +5.3440402e-01 </wgt>
<wgt id='1132'> +5.2743949e-01 </wgt>
<wgt id='1133'> +5.3000869e-01 </wgt>
<wgt id='1134'> +5.2828593e-01 </wgt>
<wgt id='1135'> +5.2931220e-01 </wgt>
<wgt id='1136'> +5.2740012e-01 </wgt>
<wgt id='1137'> +5.2691009e-01 </wgt>
<wgt id='1138'> +5.2817052e-01 </wgt>
<wgt id='1139'> +5.2990619e-01 </wgt>
<wgt id='1140'> +5.3024839e-01 </wgt>
<wgt id='1141'> +5.2703920e-01 </wgt>
<wgt id='1142'> +5.2883907e-01 </wgt>
<wgt id='1143'> +5.3059267e-01 </wgt>
<wgt id='1144'> +5.2892490e-01 </wgt>
<wgt id='1145'> +5.2983312e-01 </wgt>
<wgt id='1146'> +5.3022628e-01 </wgt>
<wgt id='1147'> +5.2961198e-01 </wgt>
<wgt id='1148'> +5.2878984e-01 </wgt>
<wgt id='1149'> +4.9623292e-01 </wgt>
<wgt id='1150'> +3.8169832e-01 </wgt>
<wgt id='1151'> +4.9862793e-01 </wgt>
<wgt id='1152'> +5.1976178e-01 </wgt>
<wgt id='1153'> +5.2414831e-01 </wgt>
<wgt id='1154'> +4.3734461e-01 </wgt>
<wgt id='1155'> +4.8613405e-01 </wgt>
<wgt id='1156'> +4.9684807e-01 </wgt>
<wgt id='1157'> +5.1323147e-01 </wgt>
<wgt id='1158'> +6.0575221e-01 </wgt>
<wgt id='1159'> +5.2891315e-01 </wgt>
<wgt id='1160'> +3.9857647e-01 </wgt>
<wgt id='1161'> +5.4749216e-01 </wgt>
<wgt id='1162'> +4.7250781e-01 </wgt>
<wgt id='1163'> +5.0650978e-01 </wgt>
<wgt id='1164'> +3.7271402e-01 </wgt>
<wgt id='1165'> +5.0526689e-01 </wgt>
<wgt id='1166'> +4.4804571e-01 </wgt>
<wgt id='1167'> +4.8758919e-01 </wgt>
<wgt id='1168'> +4.5020188e-01 </wgt>
<wgt id='1169'> +4.5207830e-01 </wgt>
<wgt id='1170'> +5.2391907e-01 </wgt>
<wgt id='1171'> +4.5410686e-01 </wgt>
<wgt id='1172'> +4.1323145e-01 </wgt>
<wgt id='1173'> +5.1403249e-01 </wgt>
<wgt id='1174'> +5.6611349e-01 </wgt>
<wgt id='1175'> +5.0068852e-01 </wgt>
<wgt id='1176'> +5.1708886e-01 </wgt>
<wgt id='1177'> +5.8781319e-01 </wgt>
<wgt id='1178'> +4.7664553e-01 </wgt>
<wgt id='1179'> +5.1169170e-01 </wgt>
<wgt id='1180'> +5.2713059e-01 </wgt>
<wgt id='1181'> +3.7546523e-01 </wgt>
<wgt id='1182'> +4.1885569e-01 </wgt>
<wgt id='1183'> +5.5060550e-01 </wgt>
<wgt id='1184'> +4.6600096e-01 </wgt>
<wgt id='1185'> +5.0500158e-01 </wgt>
<wgt id='1186'> +4.3416599e-01 </wgt>
<wgt id='1187'> +6.1241078e-01 </wgt>
<wgt id='1188'> +5.6076073e-01 </wgt>
<wgt id='1189'> +5.8595288e-01 </wgt>
<wgt id='1190'> +5.8109468e-01 </wgt>
<wgt id='1191'> +6.0856599e-01 </wgt>
<wgt id='1192'> +5.1039096e-01 </wgt>
<wgt id='1193'> +5.1885239e-01 </wgt>
<wgt id='1194'> +4.3123547e-01 </wgt>
<wgt id='1195'> +4.9480994e-01 </wgt>
<wgt id='1196'> +4.4590996e-01 </wgt>
<wgt id='1197'> +5.3673615e-01 </wgt>
<wgt id='1198'> +4.5762116e-01 </wgt>
<wgt id='1199'> +5.7586213e-01 </wgt>
<wgt id='1200'> +4.2647121e-01 </wgt>
<wgt id='1201'> +5.9556638e-01 </wgt>
<wgt id='1202'> +5.0092260e-01 </wgt>
<wgt id='1203'> +4.6903735e-01 </wgt>
<wgt id='1204'> +4.2102929e-01 </wgt>
<wgt id='1205'> +5.3593568e-01 </wgt>
<wgt id='1206'> +4.3615039e-01 </wgt>
<wgt id='1207'> +5.8045403e-01 </wgt>
<wgt id='1208'> +5.4042465e-01 </wgt>
<wgt id='1209'> +4.0547187e-01 </wgt>
<wgt id='1210'> +5.0308299e-01 </wgt>
<wgt id='1211'> +5.3181842e-01 </wgt>
<wgt id='1212'> +4.3859385e-01 </wgt>
<wgt id='1213'> +5.0434465e-01 </wgt>
<wgt id='1214'> +4.8142564e-01 </wgt>
<wgt id='1215'> +4.9534949e-01 </wgt>
<wgt id='1216'> +4.7338925e-01 </wgt>
<wgt id='1217'> +4.7478969e-01 </wgt>
<wgt id='1218'> +4.4345336e-01 </wgt>
<wgt id='1219'> +4.7624015e-01 </wgt>
<wgt id='1220'> +4.4440176e-01 </wgt>
<wgt id='1221'> +4.3207249e-01 </wgt>
<wgt id='1222'> +4.7506591e-01 </wgt>
<wgt id='1223'> +5.1321292e-01 </wgt>
<wgt id='1224'> +5.2415831e-01 </wgt>
<wgt id='1225'> +4.3738269e-01 </wgt>
<wgt id='1226'> +4.8703460e-01 </wgt>
<wgt id='1227'> +4.5938461e-01 </wgt>
<wgt id='1228'> +4.1264190e-01 </wgt>
<wgt id='1229'> +5.0375885e-01 </wgt>
<wgt id='1230'> +5.0911240e-01 </wgt>
<wgt id='1231'> +5.0526689e-01 </wgt>
<wgt id='1232'> +4.9943296e-01 </wgt>
<wgt id='1233'> +5.2590352e-01 </wgt>
<wgt id='1234'> +5.4758804e-01 </wgt>
<wgt id='1235'> +5.2383068e-01 </wgt>
<wgt id='1236'> +5.7463728e-01 </wgt>
<wgt id='1237'> +4.8151054e-01 </wgt>
<wgt id='1238'> +5.8406142e-01 </wgt>
<wgt id='1239'> +5.6179061e-01 </wgt>
<wgt id='1240'> +5.7036125e-01 </wgt>
<wgt id='1241'> +4.4195208e-01 </wgt>
<wgt id='1242'> +5.3225091e-01 </wgt>
<wgt id='1243'> +4.2144186e-01 </wgt>
<wgt id='1244'> +4.8228293e-01 </wgt>
<wgt id='1245'> +5.7163801e-01 </wgt>
<wgt id='1246'> +5.2701149e-01 </wgt>
<wgt id='1247'> +4.4332624e-01 </wgt>
<wgt id='1248'> +4.9589480e-01 </wgt>
<wgt id='1249'> +4.8697935e-01 </wgt>
<wgt id='1250'> +7.4941060e-01 </wgt>
<wgt id='1251'> +7.3464197e-01 </wgt>
<wgt id='1252'> +5.6191932e-01 </wgt>
<wgt id='1253'> +5.2525597e-01 </wgt>
<wgt id='1254'> +6.0909942e-01 </wgt>
<wgt id='1255'> +5.8217826e-01 </wgt>
<wgt id='1256'> +5.8215729e-01 </wgt>
<wgt id='1257'> +5.8221279e-01 </wgt>
<wgt id='1258'> +5.8296601e-01 </wgt>
<wgt id='1259'> +5.8177441e-01 </wgt>
<wgt id='1260'> +5.7378507e-01 </wgt>
<wgt id='1261'> +5.9353903e-01 </wgt>
<wgt id='1262'> +5.7944097e-01 </wgt>
<wgt id='1263'> +5.8396345e-01 </wgt>
<wgt id='1264'> +5.7655333e-01 </wgt>
<wgt id='1265'> +5.8604695e-01 </wgt>
<wgt id='1266'> +5.7708581e-01 </wgt>
<wgt id='1267'> +5.8720249e-01 </wgt>
<wgt id='1268'> +5.8237132e-01 </wgt>
<wgt id='1269'> +5.8185898e-01 </wgt>
<wgt id='1270'> +5.6807895e-01 </wgt>
<wgt id='1271'> +5.9840609e-01 </wgt>
<wgt id='1272'> +5.7527699e-01 </wgt>
<wgt id='1273'> +5.8759512e-01 </wgt>
<wgt id='1274'> +5.9190304e-01 </wgt>
<wgt id='1275'> +5.7050589e-01 </wgt>
<wgt id='1276'> +6.1559823e-01 </wgt>
<wgt id='1277'> +5.5012768e-01 </wgt>
<wgt id='1278'> +5.7924669e-01 </wgt>
<wgt id='1279'> +5.8413055e-01 </wgt>
<wgt id='1280'> +5.8301698e-01 </wgt>
<wgt id='1281'> +5.8080603e-01 </wgt>
<wgt id='1282'> +5.4369752e-01 </wgt>
<wgt id='1283'> +6.1888723e-01 </wgt>
<wgt id='1284'> +5.9581835e-01 </wgt>
<wgt id='1285'> +5.7032898e-01 </wgt>
<wgt id='1286'> +5.8560086e-01 </wgt>
<wgt id='1287'> +5.8187575e-01 </wgt>
<wgt id='1288'> +5.9756353e-01 </wgt>
<wgt id='1289'> +5.7323292e-01 </wgt>
<wgt id='1290'> +5.9492727e-01 </wgt>
<wgt id='1291'> +5.7783028e-01 </wgt>
<wgt id='1292'> +5.7536985e-01 </wgt>
<wgt id='1293'> +5.8527125e-01 </wgt>
<wgt id='1294'> +6.1783878e-01 </wgt>
<wgt id='1295'> +5.5148607e-01 </wgt>
<wgt id='1296'> +5.8241921e-01 </wgt>
<wgt id='1297'> +5.8529998e-01 </wgt>
<wgt id='1298'> +5.8010112e-01 </wgt>
<wgt id='1299'> +5.7851839e-01 </wgt>
<wgt id='1300'> +5.8681044e-01 </wgt>
<wgt id='1301'> +5.8662475e-01 </wgt>
<wgt id='1302'> +5.7620732e-01 </wgt>
<wgt id='1303'> +5.8015508e-01 </wgt>
<wgt id='1304'> +5.8393766e-01 </wgt>
<wgt id='1305'> +5.8092776e-01 </wgt>
<wgt id='1306'> +5.8455491e-01 </wgt>
<wgt id='1307'> +5.8702838e-01 </wgt>
<wgt id='1308'> +5.7955866e-01 </wgt>
<wgt id='1309'> +5.8382807e-01 </wgt>
<wgt id='1310'> +5.8051383e-01 </wgt>
<wgt id='1311'> +5.7921831e-01 </wgt>
<wgt id='1312'> +5.8359060e-01 </wgt>
<wgt id='1313'> +5.6752298e-01 </wgt>
<wgt id='1314'> +6.0139803e-01 </wgt>
<wgt id='1315'> +5.8327217e-01 </wgt>
<wgt id='1316'> +5.8177271e-01 </wgt>
<wgt id='1317'> +6.1817274e-01 </wgt>
<wgt id='1318'> +5.2715891e-01 </wgt>
<wgt id='1319'> +5.5998607e-01 </wgt>
<wgt id='1320'> +5.9733240e-01 </wgt>
<wgt id='1321'> +5.6930689e-01 </wgt>
<wgt id='1322'> +5.8885912e-01 </wgt>
<wgt id='1323'> +5.7543512e-01 </wgt>
<wgt id='1324'> +5.9164815e-01 </wgt>
<wgt id='1325'> +5.7316628e-01 </wgt>
<wgt id='1326'> +5.9805319e-01 </wgt>
<wgt id='1327'> +5.7309582e-01 </wgt>
<wgt id='1328'> +5.8616028e-01 </wgt>
<wgt id='1329'> +5.9182385e-01 </wgt>
<wgt id='1330'> +5.7614036e-01 </wgt>
<wgt id='1331'> +5.9450513e-01 </wgt>
<wgt id='1332'> +5.7576858e-01 </wgt>
<wgt id='1333'> +5.4319633e-01 </wgt>
<wgt id='1334'> +6.3500175e-01 </wgt>
<wgt id='1335'> +5.9671004e-01 </wgt>
<wgt id='1336'> +5.7845795e-01 </wgt>
<wgt id='1337'> +5.8241921e-01 </wgt>
<wgt id='1338'> +5.8450727e-01 </wgt>
<wgt id='1339'> +5.8428267e-01 </wgt>
<wgt id='1340'> +5.8378128e-01 </wgt>
<wgt id='1341'> +5.8377432e-01 </wgt>
<wgt id='1342'> +5.8340536e-01 </wgt>
<wgt id='1343'> +5.8316379e-01 </wgt>
<wgt id='1344'> +5.3603281e-01 </wgt>
<wgt id='1345'> +5.3904578e-01 </wgt>
<wgt id='1346'> +5.3306029e-01 </wgt>
<wgt id='1347'> +5.3576043e-01 </wgt>
<wgt id='1348'> +5.3626255e-01 </wgt>
<wgt id='1349'> +5.3708347e-01 </wgt>
<wgt id='1350'> +5.3517850e-01 </wgt>
<wgt id='1351'> +5.3488382e-01 </wgt>
<wgt id='1352'> +5.3770837e-01 </wgt>
<wgt id='1353'> +5.2890729e-01 </wgt>
<wgt id='1354'> +5.4107163e-01 </wgt>
<wgt id='1355'> +5.3339445e-01 </wgt>
<wgt id='1356'> +5.3811328e-01 </wgt>
<wgt id='1357'> +5.3896900e-01 </wgt>
<wgt id='1358'> +5.3427140e-01 </wgt>
<wgt id='1359'> +5.3706164e-01 </wgt>
<wgt id='1360'> +5.3347161e-01 </wgt>
<wgt id='1361'> +5.0502521e-01 </wgt>
<wgt id='1362'> +5.6404533e-01 </wgt>
<wgt id='1363'> +5.3029896e-01 </wgt>
<wgt id='1364'> +5.4351686e-01 </wgt>
<wgt id='1365'> +5.3051983e-01 </wgt>
<wgt id='1366'> +5.3842230e-01 </wgt>
<wgt id='1367'> +5.2923404e-01 </wgt>
<wgt id='1368'> +5.3936943e-01 </wgt>
<wgt id='1369'> +5.5803587e-01 </wgt>
<wgt id='1370'> +5.1792807e-01 </wgt>
<wgt id='1371'> +5.3053911e-01 </wgt>
<wgt id='1372'> +5.4589486e-01 </wgt>
<wgt id='1373'> +4.9343424e-01 </wgt>
<wgt id='1374'> +5.6701538e-01 </wgt>
<wgt id='1375'> +5.1370601e-01 </wgt>
<wgt id='1376'> +5.4326739e-01 </wgt>
<wgt id='1377'> +5.2271913e-01 </wgt>
<wgt id='1378'> +5.5867250e-01 </wgt>
<wgt id='1379'> +5.2644460e-01 </wgt>
<wgt id='1380'> +5.4613613e-01 </wgt>
<wgt id='1381'> +5.5594470e-01 </wgt>
<wgt id='1382'> +5.2614544e-01 </wgt>
<wgt id='1383'> +5.3492257e-01 </wgt>
<wgt id='1384'> +5.4341103e-01 </wgt>
<wgt id='1385'> +5.3603281e-01 </wgt>
<wgt id='1386'> +5.3825787e-01 </wgt>
<wgt id='1387'> +5.3796210e-01 </wgt>
<wgt id='1388'> +5.3693014e-01 </wgt>
<wgt id='1389'> +5.3642948e-01 </wgt>
<wgt id='1390'> +5.3577272e-01 </wgt>
<wgt id='1391'> +5.3541130e-01 </wgt>
<wgt id='1392'> +5.8820153e-01 </wgt>
<wgt id='1393'> +5.8795852e-01 </wgt>
<wgt id='1394'> +5.8844089e-01 </wgt>
<wgt id='1395'> +5.8714598e-01 </wgt>
<wgt id='1396'> +5.8893824e-01 </wgt>
<wgt id='1397'> +5.9104687e-01 </wgt>
<wgt id='1398'> +5.8544628e-01 </wgt>
<wgt id='1399'> +5.8730858e-01 </wgt>
<wgt id='1400'> +5.8933469e-01 </wgt>
<wgt id='1401'> +5.8829324e-01 </wgt>
<wgt id='1402'> +5.8806634e-01 </wgt>
<wgt id='1403'> +5.8783138e-01 </wgt>
<wgt id='1404'> +5.8893318e-01 </wgt>
<wgt id='1405'> +5.8823506e-01 </wgt>
<wgt id='1406'> +5.8812820e-01 </wgt>
<wgt id='1407'> +5.8810913e-01 </wgt>
<wgt id='1408'> +5.8825840e-01 </wgt>
<wgt id='1409'> +5.8751235e-01 </wgt>
<wgt id='1410'> +5.8897485e-01 </wgt>
<wgt id='1411'> +5.9999441e-01 </wgt>
<wgt id='1412'> +5.7917220e-01 </wgt>
<wgt id='1413'> +5.8372524e-01 </wgt>
<wgt id='1414'> +5.9288288e-01 </wgt>
<wgt id='1415'> +5.8282728e-01 </wgt>
<wgt id='1416'> +5.9343541e-01 </wgt>
<wgt id='1417'> +5.8056085e-01 </wgt>
<wgt id='1418'> +5.9777906e-01 </wgt>
<wgt id='1419'> +5.8788304e-01 </wgt>
<wgt id='1420'> +5.8916247e-01 </wgt>
<wgt id='1421'> +5.6474551e-01 </wgt>
<wgt id='1422'> +6.1770670e-01 </wgt>
<wgt id='1423'> +5.4604548e-01 </wgt>
<wgt id='1424'> +6.2395180e-01 </wgt>
<wgt id='1425'> +5.9174884e-01 </wgt>
<wgt id='1426'> +5.8356436e-01 </wgt>
<wgt id='1427'> +5.9521969e-01 </wgt>
<wgt id='1428'> +5.7413427e-01 </wgt>
<wgt id='1429'> +5.8906377e-01 </wgt>
<wgt id='1430'> +5.8575203e-01 </wgt>
<wgt id='1431'> +5.8326691e-01 </wgt>
<wgt id='1432'> +5.9319191e-01 </wgt>
<wgt id='1433'> +6.0462311e-01 </wgt>
<wgt id='1434'> +5.6583978e-01 </wgt>
<wgt id='1435'> +5.6586378e-01 </wgt>
<wgt id='1436'> +6.0023289e-01 </wgt>
<wgt id='1437'> +5.9389290e-01 </wgt>
<wgt id='1438'> +5.7208869e-01 </wgt>
<wgt id='1439'> +5.6070974e-01 </wgt>
<wgt id='1440'> +6.3990794e-01 </wgt>
<wgt id='1441'> +5.7454772e-01 </wgt>
<wgt id='1442'> +5.9551764e-01 </wgt>
<wgt id='1443'> +5.3383479e-01 </wgt>
<wgt id='1444'> +5.3350465e-01 </wgt>
<wgt id='1445'> +5.3419003e-01 </wgt>
<wgt id='1446'> +5.3265167e-01 </wgt>
<wgt id='1447'> +5.3462993e-01 </wgt>
<wgt id='1448'> +5.3631676e-01 </wgt>
<wgt id='1449'> +5.3153568e-01 </wgt>
<wgt id='1450'> +5.3324280e-01 </wgt>
<wgt id='1451'> +5.3449414e-01 </wgt>
<wgt id='1452'> +5.3392452e-01 </wgt>
<wgt id='1453'> +5.3372184e-01 </wgt>
<wgt id='1454'> +5.3351260e-01 </wgt>
<wgt id='1455'> +5.3453987e-01 </wgt>
<wgt id='1456'> +5.3395675e-01 </wgt>
<wgt id='1457'> +5.3361591e-01 </wgt>
<wgt id='1458'> +5.3406085e-01 </wgt>
<wgt id='1459'> +5.3371606e-01 </wgt>
<wgt id='1460'> +5.3644222e-01 </wgt>
<wgt id='1461'> +5.3081473e-01 </wgt>
<wgt id='1462'> +5.4416814e-01 </wgt>
<wgt id='1463'> +5.2490562e-01 </wgt>
<wgt id='1464'> +5.3049821e-01 </wgt>
<wgt id='1465'> +5.3818177e-01 </wgt>
<wgt id='1466'> +5.2891088e-01 </wgt>
<wgt id='1467'> +5.3698065e-01 </wgt>
<wgt id='1468'> +5.4637555e-01 </wgt>
<wgt id='1469'> +5.2183957e-01 </wgt>
<wgt id='1470'> +5.3356209e-01 </wgt>
<wgt id='1471'> +5.3448289e-01 </wgt>
<wgt id='1472'> +5.1785733e-01 </wgt>
<wgt id='1473'> +5.5408958e-01 </wgt>
<wgt id='1474'> +5.0679835e-01 </wgt>
<wgt id='1475'> +5.6757977e-01 </wgt>
<wgt id='1476'> +5.4384126e-01 </wgt>
<wgt id='1477'> +5.2452635e-01 </wgt>
<wgt id='1478'> +5.3950395e-01 </wgt>
<wgt id='1479'> +5.2117812e-01 </wgt>
<wgt id='1480'> +5.3511290e-01 </wgt>
<wgt id='1481'> +5.3083172e-01 </wgt>
<wgt id='1482'> +5.3075133e-01 </wgt>
<wgt id='1483'> +5.3754685e-01 </wgt>
<wgt id='1484'> +5.4926855e-01 </wgt>
<wgt id='1485'> +5.1417769e-01 </wgt>
<wgt id='1486'> +5.0971734e-01 </wgt>
<wgt id='1487'> +5.4650298e-01 </wgt>
<wgt id='1488'> +5.3912091e-01 </wgt>
<wgt id='1489'> +5.1942581e-01 </wgt>
<wgt id='1490'> +5.0836488e-01 </wgt>
<wgt id='1491'> +5.7865925e-01 </wgt>
<wgt id='1492'> +5.1703560e-01 </wgt>
<wgt id='1493'> +5.4313334e-01 </wgt>
<wgt id='1494'> +5.6298294e-01 </wgt>
<wgt id='1495'> +4.9364033e-01 </wgt>
<wgt id='1496'> +5.1140180e-01 </wgt>
<wgt id='1497'> +5.3941108e-01 </wgt>
<wgt id='1498'> +5.9656291e-01 </wgt>
<wgt id='1499'> +5.6511430e-01 </wgt>
<wgt id='1500'> +5.7773678e-01 </wgt>
<wgt id='1501'> +5.7563835e-01 </wgt>
<wgt id='1502'> +5.7202107e-01 </wgt>
<wgt id='1503'> +5.6985146e-01 </wgt>
<wgt id='1504'> +5.6749003e-01 </wgt>
<wgt id='1505'> +5.6345742e-01 </wgt>
<wgt id='1506'> +5.6047639e-01 </wgt>
<wgt id='1507'> +5.5760214e-01 </wgt>
<wgt id='1508'> +5.6511430e-01 </wgt>
<wgt id='1509'> +5.6108352e-01 </wgt>
<wgt id='1510'> +5.6295823e-01 </wgt>
<wgt id='1511'> +5.6707553e-01 </wgt>
<wgt id='1512'> +5.7069706e-01 </wgt>
<wgt id='1513'> +6.7520704e-01 </wgt>
<wgt id='1514'> +6.7404639e-01 </wgt>
<wgt id='1515'> +6.7669516e-01 </wgt>
<wgt id='1516'> +6.7796129e-01 </wgt>
<wgt id='1517'> +6.7247683e-01 </wgt>
<wgt id='1518'> +6.7357532e-01 </wgt>
<wgt id='1519'> +6.7586087e-01 </wgt>
<wgt id='1520'> +6.7532434e-01 </wgt>
<wgt id='1521'> +6.7508541e-01 </wgt>
<wgt id='1522'> +6.7605298e-01 </wgt>
<wgt id='1523'> +6.7441849e-01 </wgt>
<wgt id='1524'> +6.7405695e-01 </wgt>
<wgt id='1525'> +6.7570635e-01 </wgt>
<wgt id='1526'> +6.7496636e-01 </wgt>
<wgt id='1527'> +6.7550068e-01 </wgt>
<wgt id='1528'> +6.7537785e-01 </wgt>
<wgt id='1529'> +6.7506441e-01 </wgt>
<wgt id='1530'> +6.8402659e-01 </wgt>
<wgt id='1531'> +6.7022173e-01 </wgt>
<wgt id='1532'> +6.6579408e-01 </wgt>
<wgt id='1533'> +6.8788576e-01 </wgt>
<wgt id='1534'> +6.8943230e-01 </wgt>
<wgt id='1535'> +6.6529618e-01 </wgt>
<wgt id='1536'> +6.7408091e-01 </wgt>
<wgt id='1537'> +6.7639352e-01 </wgt>
<wgt id='1538'> +6.7515336e-01 </wgt>
<wgt id='1539'> +6.7527048e-01 </wgt>
<wgt id='1540'> +6.7068308e-01 </wgt>
<wgt id='1541'> +6.7998176e-01 </wgt>
<wgt id='1542'> +7.0003283e-01 </wgt>
<wgt id='1543'> +6.1580684e-01 </wgt>
<wgt id='1544'> +6.5594871e-01 </wgt>
<wgt id='1545'> +7.1854865e-01 </wgt>
<wgt id='1546'> +6.8511017e-01 </wgt>
<wgt id='1547'> +6.5768757e-01 </wgt>
<wgt id='1548'> +6.4362430e-01 </wgt>
<wgt id='1549'> +6.9103971e-01 </wgt>
<wgt id='1550'> +6.7400660e-01 </wgt>
<wgt id='1551'> +6.7744144e-01 </wgt>
<wgt id='1552'> +6.6669080e-01 </wgt>
<wgt id='1553'> +6.8199210e-01 </wgt>
<wgt id='1554'> +6.7424683e-01 </wgt>
<wgt id='1555'> +6.7895015e-01 </wgt>
<wgt id='1556'> +6.7464064e-01 </wgt>
<wgt id='1557'> +6.7830329e-01 </wgt>
<wgt id='1558'> +7.2168254e-01 </wgt>
<wgt id='1559'> +6.3817062e-01 </wgt>
<wgt id='1560'> +6.4528359e-01 </wgt>
<wgt id='1561'> +6.8842358e-01 </wgt>
<wgt id='1562'> +7.0077068e-01 </wgt>
<wgt id='1563'> +6.5416672e-01 </wgt>
<wgt id='1564'> +6.7520704e-01 </wgt>
<wgt id='1565'> +6.3152690e-01 </wgt>
<wgt id='1566'> +7.4424252e-01 </wgt>
<wgt id='1567'> +6.8791791e-01 </wgt>
<wgt id='1568'> +6.9776256e-01 </wgt>
<wgt id='1569'> +6.9513071e-01 </wgt>
<wgt id='1570'> +6.9379572e-01 </wgt>
<wgt id='1571'> +6.9270647e-01 </wgt>
<wgt id='1572'> +6.8974364e-01 </wgt>
<wgt id='1573'> +6.8522513e-01 </wgt>
<wgt id='1574'> +6.8785606e-01 </wgt>
<wgt id='1575'> +6.8535440e-01 </wgt>
<wgt id='1576'> +6.8791791e-01 </wgt>
<wgt id='1577'> +6.8292601e-01 </wgt>
<wgt id='1578'> +6.8552405e-01 </wgt>
<wgt id='1579'> +6.9090965e-01 </wgt>
<wgt id='1580'> +6.9340911e-01 </wgt>
<wgt id='1581'> +5.2687390e-01 </wgt>
<wgt id='1582'> +5.3411790e-01 </wgt>
<wgt id='1583'> +5.2549004e-01 </wgt>
<wgt id='1584'> +5.2221793e-01 </wgt>
<wgt id='1585'> +5.2167841e-01 </wgt>
<wgt id='1586'> +5.4744568e-01 </wgt>
<wgt id='1587'> +5.4742436e-01 </wgt>
<wgt id='1588'> +5.2897172e-01 </wgt>
<wgt id='1589'> +5.2624914e-01 </wgt>
<wgt id='1590'> +5.4588277e-01 </wgt>
<wgt id='1591'> +5.4131026e-01 </wgt>
<wgt id='1592'> +4.9150023e-01 </wgt>
<wgt id='1593'> +5.3424719e-01 </wgt>
<wgt id='1594'> +5.5628178e-01 </wgt>
<wgt id='1595'> +5.3250479e-01 </wgt>
<wgt id='1596'> +5.4059468e-01 </wgt>
<wgt id='1597'> +5.2540825e-01 </wgt>
<wgt id='1598'> +5.4027784e-01 </wgt>
<wgt id='1599'> +5.0873683e-01 </wgt>
<wgt id='1600'> +5.2036542e-01 </wgt>
<wgt id='1601'> +5.1948787e-01 </wgt>
<wgt id='1602'> +5.2135641e-01 </wgt>
<wgt id='1603'> +5.3348282e-01 </wgt>
<wgt id='1604'> +5.0239503e-01 </wgt>
<wgt id='1605'> +5.2311203e-01 </wgt>
<wgt id='1606'> +5.2635994e-01 </wgt>
<wgt id='1607'> +5.2404005e-01 </wgt>
<wgt id='1608'> +5.1807621e-01 </wgt>
<wgt id='1609'> +5.0874762e-01 </wgt>
<wgt id='1610'> +5.3374052e-01 </wgt>
<wgt id='1611'> +4.9265684e-01 </wgt>
<wgt id='1612'> +5.2746218e-01 </wgt>
<wgt id='1613'> +5.2796852e-01 </wgt>
<wgt id='1614'> +5.2413558e-01 </wgt>
<wgt id='1615'> +5.2611233e-01 </wgt>
<wgt id='1616'> +5.2784789e-01 </wgt>
<wgt id='1617'> +5.2801247e-01 </wgt>
<wgt id='1618'> +5.2374360e-01 </wgt>
<wgt id='1619'> +5.3453839e-01 </wgt>
<wgt id='1620'> +5.2888956e-01 </wgt>
<wgt id='1621'> +5.2780083e-01 </wgt>
<wgt id='1622'> +5.3222470e-01 </wgt>
<wgt id='1623'> +5.2452817e-01 </wgt>
<wgt id='1624'> +5.1899868e-01 </wgt>
<wgt id='1625'> +5.1666296e-01 </wgt>
<wgt id='1626'> +5.1261345e-01 </wgt>
<wgt id='1627'> +5.2095278e-01 </wgt>
<wgt id='1628'> +5.2084387e-01 </wgt>
<wgt id='1629'> +5.2801223e-01 </wgt>
<wgt id='1630'> +5.2696309e-01 </wgt>
<wgt id='1631'> +5.2758336e-01 </wgt>
<wgt id='1632'> +5.2046557e-01 </wgt>
<wgt id='1633'> +5.2502171e-01 </wgt>
<wgt id='1634'> +5.1548732e-01 </wgt>
<wgt id='1635'> +5.3632049e-01 </wgt>
<wgt id='1636'> +5.2079332e-01 </wgt>
<wgt id='1637'> +5.1920163e-01 </wgt>
<wgt id='1638'> +5.3446164e-01 </wgt>
<wgt id='1639'> +5.2509763e-01 </wgt>
<wgt id='1640'> +5.2533113e-01 </wgt>
<wgt id='1641'> +5.4153341e-01 </wgt>
<wgt id='1642'> +5.2970653e-01 </wgt>
<wgt id='1643'> +5.2096646e-01 </wgt>
<wgt id='1644'> +5.2489153e-01 </wgt>
<wgt id='1645'> +5.3271639e-01 </wgt>
<wgt id='1646'> +5.3221641e-01 </wgt>
<wgt id='1647'> +5.1989032e-01 </wgt>
<wgt id='1648'> +5.2104982e-01 </wgt>
<wgt id='1649'> +5.3573853e-01 </wgt>
<wgt id='1650'> +5.3610496e-01 </wgt>
<wgt id='1651'> +5.2325319e-01 </wgt>
<wgt id='1652'> +5.1503687e-01 </wgt>
<wgt id='1653'> +5.1972892e-01 </wgt>
<wgt id='1654'> +5.3473877e-01 </wgt>
<wgt id='1655'> +5.4887032e-01 </wgt>
<wgt id='1656'> +5.3571745e-01 </wgt>
<wgt id='1657'> +5.2570394e-01 </wgt>
<wgt id='1658'> +5.1376710e-01 </wgt>
<wgt id='1659'> +5.1705428e-01 </wgt>
<wgt id='1660'> +5.2711662e-01 </wgt>
<wgt id='1661'> +5.3276072e-01 </wgt>
<wgt id='1662'> +5.1245739e-01 </wgt>
<wgt id='1663'> +5.2551781e-01 </wgt>
<wgt id='1664'> +5.3073455e-01 </wgt>
<wgt id='1665'> +5.2597695e-01 </wgt>
<wgt id='1666'> +5.2487654e-01 </wgt>
<wgt id='1667'> +5.1688332e-01 </wgt>
<wgt id='1668'> +5.3323442e-01 </wgt>
<wgt id='1669'> +5.3399833e-01 </wgt>
<wgt id='1670'> +5.2789907e-01 </wgt>
<wgt id='1671'> +5.2397865e-01 </wgt>
<wgt id='1672'> +5.1969731e-01 </wgt>
<wgt id='1673'> +5.3031699e-01 </wgt>
<wgt id='1674'> +5.2696082e-01 </wgt>
<wgt id='1675'> +5.2737322e-01 </wgt>
<wgt id='1676'> +5.3345415e-01 </wgt>
<wgt id='1677'> +5.2348961e-01 </wgt>
<wgt id='1678'> +5.3514467e-01 </wgt>
<wgt id='1679'> +5.2521865e-01 </wgt>
<wgt id='1680'> +5.2611265e-01 </wgt>
<wgt id='1681'> +5.3012444e-01 </wgt>
<wgt id='1682'> +5.1802804e-01 </wgt>
<wgt id='1683'> +5.2413757e-01 </wgt>
<wgt id='1684'> +5.3023711e-01 </wgt>
<wgt id='1685'> +5.1907164e-01 </wgt>
<wgt id='1686'> +5.2205038e-01 </wgt>
<wgt id='1687'> +5.2158966e-01 </wgt>
<wgt id='1688'> +5.3603571e-01 </wgt>
<wgt id='1689'> +5.1196004e-01 </wgt>
<wgt id='1690'> +5.3275196e-01 </wgt>
<wgt id='1691'> +5.3150036e-01 </wgt>
<wgt id='1692'> +5.3034004e-01 </wgt>
<wgt id='1693'> +5.2998830e-01 </wgt>
<wgt id='1694'> +5.3369081e-01 </wgt>
<wgt id='1695'> +5.2692263e-01 </wgt>
<wgt id='1696'> +5.2403481e-01 </wgt>
<wgt id='1697'> +5.2733026e-01 </wgt>
<wgt id='1698'> +5.2807150e-01 </wgt>
<wgt id='1699'> +5.2312058e-01 </wgt>
<wgt id='1700'> +5.2872633e-01 </wgt>
<wgt id='1701'> +5.2751889e-01 </wgt>
<wgt id='1702'> +5.2647446e-01 </wgt>
<wgt id='1703'> +5.2580123e-01 </wgt>
<wgt id='1704'> +5.2586455e-01 </wgt>
<wgt id='1705'> +5.2867032e-01 </wgt>
<wgt id='1706'> +5.2751871e-01 </wgt>
<wgt id='1707'> +5.3118011e-01 </wgt>
<wgt id='1708'> +5.2452294e-01 </wgt>
<wgt id='1709'> +5.3154762e-01 </wgt>
<wgt id='1710'> +5.2560280e-01 </wgt>
<wgt id='1711'> +5.2593813e-01 </wgt>
<wgt id='1712'> +5.2924483e-01 </wgt>
<wgt id='1713'> +4.9617326e-01 </wgt>
<wgt id='1714'> +5.6403355e-01 </wgt>
<wgt id='1715'> +5.2668984e-01 </wgt>
<wgt id='1716'> +6.4277164e-01 </wgt>
<wgt id='1717'> +5.0177191e-01 </wgt>
<wgt id='1718'> +5.0784575e-01 </wgt>
<wgt id='1719'> +5.5612639e-01 </wgt>
<wgt id='1720'> +5.3680227e-01 </wgt>
<wgt id='1721'> +5.1469218e-01 </wgt>
<wgt id='1722'> +6.2789276e-01 </wgt>
<wgt id='1723'> +5.8244847e-01 </wgt>
<wgt id='1724'> +4.9683662e-01 </wgt>
<wgt id='1725'> +4.3360458e-01 </wgt>
<wgt id='1726'> +4.6583217e-01 </wgt>
<wgt id='1727'> +5.5227961e-01 </wgt>
<wgt id='1728'> +6.5616543e-01 </wgt>
<wgt id='1729'> +6.6753506e-01 </wgt>
<wgt id='1730'> +5.6124971e-01 </wgt>
<wgt id='1731'> +5.1979033e-01 </wgt>
<wgt id='1732'> +4.1472375e-01 </wgt>
<wgt id='1733'> +4.9176285e-01 </wgt>
<wgt id='1734'> +3.9950775e-01 </wgt>
<wgt id='1735'> +6.5792813e-01 </wgt>
<wgt id='1736'> +6.6878415e-01 </wgt>
<wgt id='1737'> +5.7039064e-01 </wgt>
<wgt id='1738'> +5.3478505e-01 </wgt>
<wgt id='1739'> +5.4124492e-01 </wgt>
<wgt id='1740'> +7.5270968e-01 </wgt>
<wgt id='1741'> +4.9424675e-01 </wgt>
<wgt id='1742'> +4.8184836e-01 </wgt>
<wgt id='1743'> +4.9323636e-01 </wgt>
<wgt id='1744'> +5.6617729e-01 </wgt>
<wgt id='1745'> +5.2650026e-01 </wgt>
<wgt id='1746'> +5.6564337e-01 </wgt>
<wgt id='1747'> +6.4216585e-01 </wgt>
<wgt id='1748'> +5.5899632e-01 </wgt>
<wgt id='1749'> +5.2805479e-01 </wgt>
<wgt id='1750'> +5.1271597e-01 </wgt>
<wgt id='1751'> +4.7208365e-01 </wgt>
<wgt id='1752'> +5.2107733e-01 </wgt>
<wgt id='1753'> +4.8045050e-01 </wgt>
<wgt id='1754'> +5.2632481e-01 </wgt>
<wgt id='1755'> +5.7306029e-01 </wgt>
<wgt id='1756'> +4.1108617e-01 </wgt>
<wgt id='1757'> +5.6143081e-01 </wgt>
<wgt id='1758'> +5.9567244e-01 </wgt>
<wgt id='1759'> +5.2040989e-01 </wgt>
<wgt id='1760'> +5.2204072e-01 </wgt>
<wgt id='1761'> +5.2448808e-01 </wgt>
<wgt id='1762'> +5.5227961e-01 </wgt>
<wgt id='1763'> +4.7282375e-01 </wgt>
<wgt id='1764'> +5.4966531e-01 </wgt>
<wgt id='1765'> +4.7866000e-01 </wgt>
<wgt id='1766'> +3.9308137e-01 </wgt>
<wgt id='1767'> +4.0555766e-01 </wgt>
<wgt id='1768'> +5.4097881e-01 </wgt>
<wgt id='1769'> +6.7683209e-01 </wgt>
<wgt id='1770'> +5.0443078e-01 </wgt>
<wgt id='1771'> +5.4926001e-01 </wgt>
<wgt id='1772'> +4.3411528e-01 </wgt>
<wgt id='1773'> +5.2439659e-01 </wgt>
<wgt id='1774'> +4.2833984e-01 </wgt>
<wgt id='1775'> +4.6870726e-01 </wgt>
<wgt id='1776'> +4.9969227e-01 </wgt>
<wgt id='1777'> +5.6000682e-01 </wgt>
<wgt id='1778'> +4.6554650e-01 </wgt>
<wgt id='1779'> +4.3280512e-01 </wgt>
<wgt id='1780'> +4.6818331e-01 </wgt>
<wgt id='1781'> +5.7211583e-01 </wgt>
<wgt id='1782'> +3.9831186e-01 </wgt>
<wgt id='1783'> +4.9920922e-01 </wgt>
<wgt id='1784'> +4.3581944e-01 </wgt>
<wgt id='1785'> +5.2708206e-01 </wgt>
<wgt id='1786'> +4.1640817e-01 </wgt>
<wgt id='1787'> +6.1779720e-01 </wgt>
<wgt id='1788'> +6.0098229e-01 </wgt>
<wgt id='1789'> +5.2792867e-01 </wgt>
<wgt id='1790'> +4.7276254e-01 </wgt>
<wgt id='1791'> +6.0911801e-01 </wgt>
<wgt id='1792'> +4.9294979e-01 </wgt>
<wgt id='1793'> +4.7180151e-01 </wgt>
<wgt id='1794'> +4.7224325e-01 </wgt>
<wgt id='1795'> +4.7075345e-01 </wgt>
<wgt id='1796'> +5.5389232e-01 </wgt>
<wgt id='1797'> +6.1416448e-01 </wgt>
<wgt id='1798'> +5.6088797e-01 </wgt>
<wgt id='1799'> +4.7565441e-01 </wgt>
<wgt id='1800'> +4.4536334e-01 </wgt>
<wgt id='1801'> +4.9705949e-01 </wgt>
<wgt id='1802'> +4.9891686e-01 </wgt>
<wgt id='1803'> +5.5322905e-01 </wgt>
<wgt id='1804'> +5.5852828e-01 </wgt>
<wgt id='1805'> +4.9974619e-01 </wgt>
<wgt id='1806'> +4.7832570e-01 </wgt>
<wgt id='1807'> +6.0224316e-01 </wgt>
<wgt id='1808'> +5.3745611e-01 </wgt>
<wgt id='1809'> +5.1051208e-01 </wgt>
<wgt id='1810'> +5.7632201e-01 </wgt>
<wgt id='1811'> +5.7498989e-01 </wgt>
<wgt id='1812'> +5.8735985e-01 </wgt>
<wgt id='1813'> +6.3843751e-01 </wgt>
<wgt id='1814'> +5.1672060e-01 </wgt>
<wgt id='1815'> +4.7368930e-01 </wgt>
<wgt id='1816'> +5.3384949e-01 </wgt>
<wgt id='1817'> +5.4377263e-01 </wgt>
<wgt id='1818'> +6.5384169e-01 </wgt>
<wgt id='1819'> +6.4177108e-01 </wgt>
<wgt id='1820'> +5.4623878e-01 </wgt>
<wgt id='1821'> +4.4154475e-01 </wgt>
<wgt id='1822'> +6.0540813e-01 </wgt>
<wgt id='1823'> +3.9052560e-01 </wgt>
<wgt id='1824'> +6.0067379e-01 </wgt>
<wgt id='1825'> +5.6317184e-01 </wgt>
<wgt id='1826'> +6.3736054e-01 </wgt>
<wgt id='1827'> +5.4607689e-01 </wgt>
<wgt id='1828'> +4.8315269e-01 </wgt>
<wgt id='1829'> +5.8754548e-01 </wgt>
<wgt id='1830'> +5.1870191e-01 </wgt>
<wgt id='1831'> +5.4111369e-01 </wgt>
<wgt id='1832'> +5.2733149e-01 </wgt>
<wgt id='1833'> +9.1087546e-01 </wgt>
<wgt id='1834'> +6.7073549e-01 </wgt>
<wgt id='1835'> +4.4444660e-01 </wgt>
<wgt id='1836'> +4.5332712e-01 </wgt>
<wgt id='1837'> +3.6999783e-01 </wgt>
<wgt id='1838'> +3.5289774e-01 </wgt>
<wgt id='1839'> +3.9057073e-01 </wgt>
<wgt id='1840'> +4.3130305e-01 </wgt>
<wgt id='1841'> +5.1176969e-01 </wgt>
<wgt id='1842'> +5.1691191e-01 </wgt>
<wgt id='1843'> +7.7377532e-01 </wgt>
<wgt id='1844'> +6.0097194e-01 </wgt>
<wgt id='1845'> +6.1872681e-01 </wgt>
<wgt id='1846'> +4.5708784e-01 </wgt>
<wgt id='1847'> +4.7412275e-01 </wgt>
<wgt id='1848'> +4.5694007e-01 </wgt>
<wgt id='1849'> +5.0412481e-01 </wgt>
<wgt id='1850'> +3.4434588e-01 </wgt>
<wgt id='1851'> +6.2012162e-01 </wgt>
<wgt id='1852'> +4.8775558e-01 </wgt>
<wgt id='1853'> +5.7415248e-01 </wgt>
<wgt id='1854'> +4.1823419e-01 </wgt>
<wgt id='1855'> +4.6003497e-01 </wgt>
<wgt id='1856'> +4.9477648e-01 </wgt>
<wgt id='1857'> +4.0097407e-01 </wgt>
<wgt id='1858'> +5.7208185e-01 </wgt>
<wgt id='1859'> +4.8419564e-01 </wgt>
<wgt id='1860'> +6.7772290e-01 </wgt>
<wgt id='1861'> +4.3408155e-01 </wgt>
<wgt id='1862'> +3.2107622e-01 </wgt>
<wgt id='1863'> +7.0631916e-01 </wgt>
<wgt id='1864'> +6.3607437e-01 </wgt>
<wgt id='1865'> +5.3770855e-01 </wgt>
<wgt id='1866'> +5.0772120e-01 </wgt>
<wgt id='1867'> +5.4657454e-01 </wgt>
<wgt id='1868'> +5.5286705e-01 </wgt>
<wgt id='1869'> +4.1553817e-01 </wgt>
<wgt id='1870'> +6.6856934e-01 </wgt>
<wgt id='1871'> +5.5429921e-01 </wgt>
<wgt id='1872'> +7.0842313e-01 </wgt>
<wgt id='1873'> +4.5578064e-01 </wgt>
<wgt id='1874'> +5.6591800e-01 </wgt>
<wgt id='1875'> +5.1107434e-01 </wgt>
<wgt id='1876'> +4.6236891e-01 </wgt>
<wgt id='1877'> +3.5464949e-01 </wgt>
<wgt id='1878'> +4.7146360e-01 </wgt>
<wgt id='1879'> +5.4247526e-01 </wgt>
<wgt id='1880'> +8.1033413e-01 </wgt>
<wgt id='1881'> +6.9173552e-01 </wgt>
<wgt id='1882'> +4.2435563e-01 </wgt>
<wgt id='1883'> +4.4382937e-01 </wgt>
<wgt id='1884'> +5.0816906e-01 </wgt>
<wgt id='1885'> +6.2362881e-01 </wgt>
<wgt id='1886'> +6.9066908e-01 </wgt>
<wgt id='1887'> +3.8149908e-01 </wgt>
<wgt id='1888'> +5.0239168e-01 </wgt>
<wgt id='1889'> +5.6332597e-01 </wgt>
<wgt id='1890'> +6.0843235e-01 </wgt>
<wgt id='1891'> +5.1618206e-01 </wgt>
<wgt id='1892'> +4.4826264e-01 </wgt>
<wgt id='1893'> +4.2532993e-01 </wgt>
<wgt id='1894'> +5.8044987e-01 </wgt>
<wgt id='1895'> +5.0053132e-01 </wgt>
<wgt id='1896'> +4.9851923e-01 </wgt>
<wgt id='1897'> +3.9087168e-01 </wgt>
<wgt id='1898'> +4.6083499e-01 </wgt>
<wgt id='1899'> +6.1139987e-01 </wgt>
<wgt id='1900'> +4.5709224e-01 </wgt>
<wgt id='1901'> +6.1605969e-01 </wgt>
<wgt id='1902'> +6.7625115e-01 </wgt>
<wgt id='1903'> +5.9302000e-01 </wgt>
<wgt id='1904'> +5.9332894e-01 </wgt>
<wgt id='1905'> +5.2953917e-01 </wgt>
<wgt id='1906'> +5.3095838e-01 </wgt>
<wgt id='1907'> +5.2723459e-01 </wgt>
<wgt id='1908'> +4.4561193e-01 </wgt>
<wgt id='1909'> +5.5809868e-01 </wgt>
<wgt id='1910'> +4.5404301e-01 </wgt>
<wgt id='1911'> +7.1986962e-01 </wgt>
<wgt id='1912'> +4.9711382e-01 </wgt>
<wgt id='1913'> +5.5221208e-01 </wgt>
<wgt id='1914'> +3.5826192e-01 </wgt>
<wgt id='1915'> +5.7801702e-01 </wgt>
<wgt id='1916'> +7.3718210e-01 </wgt>
<wgt id='1917'> +3.4212279e-01 </wgt>
<wgt id='1918'> +2.9026683e-01 </wgt>
<wgt id='1919'> +5.3384949e-01 </wgt>
<wgt id='1920'> +5.4377263e-01 </wgt>
<wgt id='1921'> +6.5384169e-01 </wgt>
<wgt id='1922'> +6.4177108e-01 </wgt>
<wgt id='1923'> +5.4623878e-01 </wgt>
<wgt id='1924'> +4.4154475e-01 </wgt>
<wgt id='1925'> +6.0540813e-01 </wgt>
<wgt id='1926'> +3.9052560e-01 </wgt>
<wgt id='1927'> +6.0067379e-01 </wgt>
<wgt id='1928'> +5.6317184e-01 </wgt>
<wgt id='1929'> +6.3736054e-01 </wgt>
<wgt id='1930'> +5.4607689e-01 </wgt>
<wgt id='1931'> +4.8315269e-01 </wgt>
<wgt id='1932'> +5.8754548e-01 </wgt>
<wgt id='1933'> +5.1870191e-01 </wgt>
<wgt id='1934'> +5.4111369e-01 </wgt>
<wgt id='1935'> +5.2733149e-01 </wgt>
<wgt id='1936'> +9.1087546e-01 </wgt>
<wgt id='1937'> +6.7073549e-01 </wgt>
<wgt id='1938'> +4.4444660e-01 </wgt>
<wgt id='1939'> +4.5332712e-01 </wgt>
<wgt id='1940'> +3.6999783e-01 </wgt>
<wgt id='1941'> +3.5289774e-01 </wgt>
<wgt id='1942'> +3.9057073e-01 </wgt>
<wgt id='1943'> +4.3130305e-01 </wgt>
<wgt id='1944'> +5.1176969e-01 </wgt>
<wgt id='1945'> +5.1691191e-01 </wgt>
<wgt id='1946'> +7.7377532e-01 </wgt>
<wgt id='1947'> +6.0097194e-01 </wgt>
<wgt id='1948'> +6.1872681e-01 </wgt>
<wgt id='1949'> +4.5708784e-01 </wgt>
<wgt id='1950'> +4.7412275e-01 </wgt>
<wgt id='1951'> +4.5694007e-01 </wgt>
<wgt id='1952'> +5.0412481e-01 </wgt>
<wgt id='1953'> +3.4434588e-01 </wgt>
<wgt id='1954'> +6.2012162e-01 </wgt>
<wgt id='1955'> +4.8775558e-01 </wgt>
<wgt id='1956'> +5.7415248e-01 </wgt>
<wgt id='1957'> +4.1823419e-01 </wgt>
<wgt id='1958'> +4.6003497e-01 </wgt>
<wgt id='1959'> +4.9477648e-01 </wgt>
<wgt id='1960'> +4.0097407e-01 </wgt>
<wgt id='1961'> +5.7208185e-01 </wgt>
<wgt id='1962'> +4.8419564e-01 </wgt>
<wgt id='1963'> +6.7772290e-01 </wgt>
<wgt id='1964'> +4.3408155e-01 </wgt>
<wgt id='1965'> +3.2107622e-01 </wgt>
<wgt id='1966'> +7.0631916e-01 </wgt>
<wgt id='1967'> +6.3607437e-01 </wgt>
<wgt id='1968'> +5.3770855e-01 </wgt>
<wgt id='1969'> +5.0772120e-01 </wgt>
<wgt id='1970'> +5.4657454e-01 </wgt>
<wgt id='1971'> +5.5286705e-01 </wgt>
<wgt id='1972'> +4.1553817e-01 </wgt>
<wgt id='1973'> +6.6856934e-01 </wgt>
<wgt id='1974'> +5.5429921e-01 </wgt>
<wgt id='1975'> +7.0842313e-01 </wgt>
<wgt id='1976'> +4.5578064e-01 </wgt>
<wgt id='1977'> +5.6591800e-01 </wgt>
<wgt id='1978'> +5.1107434e-01 </wgt>
<wgt id='1979'> +4.6236891e-01 </wgt>
<wgt id='1980'> +3.5464949e-01 </wgt>
<wgt id='1981'> +4.7146360e-01 </wgt>
<wgt id='1982'> +5.4247526e-01 </wgt>
<wgt id='1983'> +8.1033413e-01 </wgt>
<wgt id='1984'> +6.9173552e-01 </wgt>
<wgt id='1985'> +4.2435563e-01 </wgt>
<wgt id='1986'> +4.4382937e-01 </wgt>
<wgt id='1987'> +5.0816906e-01 </wgt>
<wgt id='1988'> +6.2362881e-01 </wgt>
<wgt id='1989'> +6.9066908e-01 </wgt>
<wgt id='1990'> +3.8149908e-01 </wgt>
<wgt id='1991'> +5.0239168e-01 </wgt>
<wgt id='1992'> +5.6332597e-01 </wgt>
<wgt id='1993'> +6.0843235e-01 </wgt>
<wgt id='1994'> +5.1618206e-01 </wgt>
<wgt id='1995'> +4.4826264e-01 </wgt>
<wgt id='1996'> +4.2532993e-01 </wgt>
<wgt id='1997'> +5.8044987e-01 </wgt>
<wgt id='1998'> +5.0053132e-01 </wgt>
<wgt id='1999'> +4.9851923e-01 </wgt>
<wgt id='2000'> +3.9087168e-01 </wgt>
<wgt id='2001'> +4.6083499e-01 </wgt>
<wgt id='2002'> +6.1139987e-01 </wgt>
<wgt id='2003'> +4.5709224e-01 </wgt>
<wgt id='2004'> +6.1605969e-01 </wgt>
<wgt id='2005'> +6.7625115e-01 </wgt>
<wgt id='2006'> +5.9302000e-01 </wgt>
<wgt id='2007'> +5.9332894e-01 </wgt>
<wgt id='2008'> +5.2953917e-01 </wgt>
<wgt id='2009'> +5.3095838e-01 </wgt>
<wgt id='2010'> +5.2723459e-01 </wgt>
<wgt id='2011'> +4.4561193e-01 </wgt>
<wgt id='2012'> +5.5809868e-01 </wgt>
<wgt id='2013'> +4.5404301e-01 </wgt>
<wgt id='2014'> +7.1986962e-01 </wgt>
<wgt id='2015'> +4.9711382e-01 </wgt>
<wgt id='2016'> +5.5221208e-01 </wgt>
<wgt id='2017'> +3.5826192e-01 </wgt>
<wgt id='2018'> +5.7801702e-01 </wgt>
<wgt id='2019'> +7.3718210e-01 </wgt>
<wgt id='2020'> +5.1400970e-01 </wgt>
<wgt id='2021'> +5.7944777e-01 </wgt>
<wgt id='2022'> +5.3413008e-01 </wgt>
</rwgt>
</event>
<event>
 13 1 0.0079112 2.41126800e+02 7.81860800e-03 1.07697300e-01
       21 -1    0    0  502  503 +0.0000000000e+00 +0.0000000000e+00 +1.9096409840e+02 1.9096409840e+02 0.0000000000e+00 0.0000e+00 -1.0000e+00
        2 -1    0    0  501    0 +0.0000000000e+00 +0.0000000000e+00 -1.5521879576e+03 1.5521879576e+03 2.5500000000e-03 0.0000e+00 -1.0000e+00
  8000001  2    1    2  502    0 +9.0173377903e+01 -2.1107289634e+01 -9.8195983274e+02 1.1544790071e+03 5.9999992417e+02 0.0000e+00 0.0000e+00
        1  1    1    2  501    0 -3.1113397052e+00 +6.1689081092e+01 -4.5937445204e+02 4.6350847929e+02 5.0400000000e-03 0.0000e+00 -1.0000e+00
       -5  1    1    2    0  503 -8.7062038197e+01 -4.0581791458e+01 +8.0110425585e+01 1.2516456959e+02 4.6700000000e+00 0.0000e+00 -1.0000e+00
        6  2    3    3  502    0 +3.0822799691e+02 -4.8564759903e+01 -6.9783335105e+02 7.8348540972e+02 1.7179920673e+02 0.0000e+00 0.0000e+00
        5  1    6    6  502    0 +2.7755122238e+01 -1.3183189789e+01 -2.2378377827e+02 2.2593169680e+02 4.6700000000e+00 0.0000e+00 -1.0000e+00
       24  2    6    6    0    0 +2.8047287467e+02 -3.5381570115e+01 -4.7404957278e+02 5.5755371293e+02 7.8906630970e+01 0.0000e+00 0.0000e+00
        4  1    8    8  504    0 +2.7832506645e+02 -3.7557381194e+01 -4.7684750657e+02 5.5340812871e+02 1.2700000000e+00 0.0000e+00 -1.0000e+00
       -3  1    8    8    0  504 +2.1478082217e+00 +2.1758110789e+00 +2.7979337895e+00 4.1455842169e+00 1.0100000000e-01 0.0000e+00 1.0000e+00
       23  2    3    3    0    0 -2.1805461901e+02 +2.7457470270e+01 -2.8412648169e+02 3.7099359739e+02 9.2772097972e+01 0.0000e+00 0.0000e+00
        5  1   11   11  505    0 -8.7479915297e+01 -2.8147831256e+01 -1.4808601125e+02 1.7434538025e+02 4.6700000000e+00 0.0000e+00 -1.0000e+00
       -5  1   11   11    0  505 -1.3057470371e+02 +5.5605301525e+01 -1.3604047044e+02 1.9664821714e+02 4.6700000000e+00 0.0000e+00 1.0000e+00
<mgrwt>
<rscale>  1 0.12204016e+03</rscale>
<asrwt>0</asrwt>
<pdfrwt beam="1">  1       21 0.29379093e-01 0.24112684e+03</pdfrwt>
<pdfrwt beam="2">  1        2 0.23879814e+00 0.61767493e+02</pdfrwt>
<totfact> 0.23688493e+03</totfact>
</mgrwt>
<rwgt>
<wgt id='1001'> +5.2878984e-01 </wgt>
<wgt id='1002'> +3.4055801e-01 </wgt>
<wgt id='1003'> +3.4050655e-01 </wgt>
<wgt id='1004'> +3.9528961e-01 </wgt>
<wgt id='1005'> +3.1172167e-01 </wgt>
<wgt id='1006'> +4.7883064e-01 </wgt>
<wgt id='1007'> +3.1483756e-01 </wgt>
<wgt id='1008'> +3.1479213e-01 </wgt>
<wgt id='1009'> +3.6288098e-01 </wgt>
<wgt id='1010'> +2.8928117e-01 </wgt>
<wgt id='1011'> +5.9081117e-01 </wgt>
<wgt id='1012'> +3.7097601e-01 </wgt>
<wgt id='1013'> +3.7091694e-01 </wgt>
<wgt id='1014'> +4.3424802e-01 </wgt>
<wgt id='1015'> +3.3803179e-01 </wgt>
<wgt id='1016'> +4.9155511e-01 </wgt>
<wgt id='1017'> +3.2025133e-01 </wgt>
<wgt id='1018'> +3.2020324e-01 </wgt>
<wgt id='1019'> +3.7091694e-01 </wgt>
<wgt id='1020'> +2.9352394e-01 </wgt>
<wgt id='1021'> +4.4511379e-01 </wgt>
<wgt id='1022'> +2.9606453e-01 </wgt>
<wgt id='1023'> +2.9602208e-01 </wgt>
<wgt id='1024'> +3.4050655e-01 </wgt>
<wgt id='1025'> +2.7239348e-01 </wgt>
<wgt id='1026'> +5.4920921e-01 </wgt>
<wgt id='1027'> +3.4885557e-01 </wgt>
<wgt id='1028'> +3.4880036e-01 </wgt>
<wgt id='1029'> +4.0747326e-01 </wgt>
<wgt id='1030'> +3.1829813e-01 </wgt>
<wgt id='1031'> +5.7061866e-01 </wgt>
<wgt id='1032'> +3.6293704e-01 </wgt>
<wgt id='1033'> +3.6288098e-01 </wgt>
<wgt id='1034'> +4.2189915e-01 </wgt>
<wgt id='1035'> +3.3168022e-01 </wgt>
<wgt id='1036'> +5.1670755e-01 </wgt>
<wgt id='1037'> +3.3552643e-01 </wgt>
<wgt id='1038'> +3.3547688e-01 </wgt>
<wgt id='1039'> +3.8730888e-01 </wgt>
<wgt id='1040'> +3.0780294e-01 </wgt>
<wgt id='1041'> +6.3754606e-01 </wgt>
<wgt id='1042'> +3.9535389e-01 </wgt>
<wgt id='1043'> +3.9528961e-01 </wgt>
<wgt id='1044'> +4.6348010e-01 </wgt>
<wgt id='1045'> +3.5967490e-01 </wgt>
<wgt id='1046'> +5.2878984e-01 </wgt>
<wgt id='1047'> +5.2878984e-01 </wgt>
<wgt id='1048'> +5.2878984e-01 </wgt>
<wgt id='1049'> +5.2919816e-01 </wgt>
<wgt id='1050'> +5.2825340e-01 </wgt>
<wgt id='1051'> +5.2964546e-01 </wgt>
<wgt id='1052'> +5.2780364e-01 </wgt>
<wgt id='1053'> +5.3139910e-01 </wgt>
<wgt id='1054'> +5.2876006e-01 </wgt>
<wgt id='1055'> +5.2920087e-01 </wgt>
<wgt id='1056'> +5.2994699e-01 </wgt>
<wgt id='1057'> +5.2837564e-01 </wgt>
<wgt id='1058'> +5.2880792e-01 </wgt>
<wgt id='1059'> +5.2714441e-01 </wgt>
<wgt id='1060'> +5.2855733e-01 </wgt>
<wgt id='1061'> +5.2895495e-01 </wgt>
<wgt id='1062'> +5.2953582e-01 </wgt>
<wgt id='1063'> +5.2814720e-01 </wgt>
<wgt id='1064'> +5.2880219e-01 </wgt>
<wgt id='1065'> +5.2894078e-01 </wgt>
<wgt id='1066'> +5.2792414e-01 </wgt>
<wgt id='1067'> +5.3038384e-01 </wgt>
<wgt id='1068'> +5.2668209e-01 </wgt>
<wgt id='1069'> +5.2905054e-01 </wgt>
<wgt id='1070'> +5.2867457e-01 </wgt>
<wgt id='1071'> +5.2838492e-01 </wgt>
<wgt id='1072'> +5.3003744e-01 </wgt>
<wgt id='1073'> +5.2846919e-01 </wgt>
<wgt id='1074'> +5.2916732e-01 </wgt>
<wgt id='1075'> +5.2645229e-01 </wgt>
<wgt id='1076'> +5.3030625e-01 </wgt>
<wgt id='1077'> +5.3100112e-01 </wgt>
<wgt id='1078'> +5.2846654e-01 </wgt>
<wgt id='1079'> +5.3159091e-01 </wgt>
<wgt id='1080'> +5.3033124e-01 </wgt>
<wgt id='1081'> +5.2964041e-01 </wgt>
<wgt id='1082'> +5.2986707e-01 </wgt>
<wgt id='1083'> +5.2813510e-01 </wgt>
<wgt id='1084'> +5.2757986e-01 </wgt>
<wgt id='1085'> +5.3013433e-01 </wgt>
<wgt id='1086'> +5.2780855e-01 </wgt>
<wgt id='1087'> +5.2892847e-01 </wgt>
<wgt id='1088'> +5.2929123e-01 </wgt>
<wgt id='1089'> +5.2912356e-01 </wgt>
<wgt id='1090'> +5.2875139e-01 </wgt>
<wgt id='1091'> +5.2781247e-01 </wgt>
<wgt id='1092'> +5.2771650e-01 </wgt>
<wgt id='1093'> +5.2876857e-01 </wgt>
<wgt id='1094'> +5.2892876e-01 </wgt>
<wgt id='1095'> +5.2773700e-01 </wgt>
<wgt id='1096'> +5.2779578e-01 </wgt>
<wgt id='1097'> +5.2862337e-01 </wgt>
<wgt id='1098'> +5.2877732e-01 </wgt>
<wgt id='1099'> +5.2874986e-01 </wgt>
<wgt id='1100'> +5.2891945e-01 </wgt>
<wgt id='1101'> +5.2838144e-01 </wgt>
<wgt id='1102'> +5.2887667e-01 </wgt>
<wgt id='1103'> +5.2944497e-01 </wgt>
<wgt id='1104'> +5.2891326e-01 </wgt>
<wgt id='1105'> +5.2923381e-01 </wgt>
<wgt id='1106'> +5.2916481e-01 </wgt>
<wgt id='1107'> +5.2847179e-01 </wgt>
<wgt id='1108'> +5.2908954e-01 </wgt>
<wgt id='1109'> +5.2922313e-01 </wgt>
<wgt id='1110'> +5.2868401e-01 </wgt>
<wgt id='1111'> +5.2837652e-01 </wgt>
<wgt id='1112'> +5.2917424e-01 </wgt>
<wgt id='1113'> +5.2857771e-01 </wgt>
<wgt id='1114'> +5.2765423e-01 </wgt>
<wgt id='1115'> +5.2925961e-01 </wgt>
<wgt id='1116'> +5.2882604e-01 </wgt>
<wgt id='1117'> +5.2913424e-01 </wgt>
<wgt id='1118'> +5.2871891e-01 </wgt>
<wgt id='1119'> +5.2905980e-01 </wgt>
<wgt id='1120'> +5.2844386e-01 </wgt>
<wgt id='1121'> +5.2953382e-01 </wgt>
<wgt id='1122'> +5.2879874e-01 </wgt>
<wgt id='1123'> +5.2894118e-01 </wgt>
<wgt id='1124'> +5.2857048e-01 </wgt>
<wgt id='1125'> +5.2867185e-01 </wgt>
<wgt id='1126'> +5.2876484e-01 </wgt>
<wgt id='1127'> +5.2917870e-01 </wgt>
<wgt id='1128'> +5.2865316e-01 </wgt>
<wgt id='1129'> +5.2878756e-01 </wgt>
<wgt id='1130'> +5.2899346e-01 </wgt>
<wgt id='1131'> +5.2911741e-01 </wgt>
<wgt id='1132'> +5.2859368e-01 </wgt>
<wgt id='1133'> +5.2896512e-01 </wgt>
<wgt id='1134'> +5.2867249e-01 </wgt>
<wgt id='1135'> +5.2914866e-01 </wgt>
<wgt id='1136'> +5.2901432e-01 </wgt>
<wgt id='1137'> +5.2878297e-01 </wgt>
<wgt id='1138'> +5.2902770e-01 </wgt>
<wgt id='1139'> +5.2875757e-01 </wgt>
<wgt id='1140'> +5.2917735e-01 </wgt>
<wgt id='1141'> +5.2879615e-01 </wgt>
<wgt id='1142'> +5.2890035e-01 </wgt>
<wgt id='1143'> +5.2909523e-01 </wgt>
<wgt id='1144'> +5.2853104e-01 </wgt>
<wgt id='1145'> +5.2858274e-01 </wgt>
<wgt id='1146'> +5.2881131e-01 </wgt>
<wgt id='1147'> +5.2906812e-01 </wgt>
<wgt id='1148'> +5.2878984e-01 </wgt>
<wgt id='1149'> +5.1514554e-01 </wgt>
<wgt id='1150'> +5.1167777e-01 </wgt>
<wgt id='1151'> +5.1479391e-01 </wgt>
<wgt id='1152'> +5.2096800e-01 </wgt>
<wgt id='1153'> +5.0967762e-01 </wgt>
<wgt id='1154'> +5.1750315e-01 </wgt>
<wgt id='1155'> +5.1798801e-01 </wgt>
<wgt id='1156'> +5.1962066e-01 </wgt>
<wgt id='1157'> +5.2262943e-01 </wgt>
<wgt id='1158'> +5.2022262e-01 </wgt>
<wgt id='1159'> +4.8827401e-01 </wgt>
<wgt id='1160'> +5.1398484e-01 </wgt>
<wgt id='1161'> +5.2027062e-01 </wgt>
<wgt id='1162'> +5.0447762e-01 </wgt>
<wgt id='1163'> +5.2062225e-01 </wgt>
<wgt id='1164'> +5.2542487e-01 </wgt>
<wgt id='1165'> +5.1605297e-01 </wgt>
<wgt id='1166'> +5.1976317e-01 </wgt>
<wgt id='1167'> +5.2014023e-01 </wgt>
<wgt id='1168'> +5.1234094e-01 </wgt>
<wgt id='1169'> +5.0924593e-01 </wgt>
<wgt id='1170'> +5.1775753e-01 </wgt>
<wgt id='1171'> +5.1689208e-01 </wgt>
<wgt id='1172'> +5.1968850e-01 </wgt>
<wgt id='1173'> +5.0897548e-01 </wgt>
<wgt id='1174'> +5.2271204e-01 </wgt>
<wgt id='1175'> +5.2267846e-01 </wgt>
<wgt id='1176'> +4.9433912e-01 </wgt>
<wgt id='1177'> +5.2221571e-01 </wgt>
<wgt id='1178'> +5.1755082e-01 </wgt>
<wgt id='1179'> +5.0971685e-01 </wgt>
<wgt id='1180'> +5.1959515e-01 </wgt>
<wgt id='1181'> +5.1723842e-01 </wgt>
<wgt id='1182'> +5.2033478e-01 </wgt>
<wgt id='1183'> +5.0957647e-01 </wgt>
<wgt id='1184'> +5.1564287e-01 </wgt>
<wgt id='1185'> +5.2072883e-01 </wgt>
<wgt id='1186'> +5.1643069e-01 </wgt>
<wgt id='1187'> +5.1494274e-01 </wgt>
<wgt id='1188'> +5.0997568e-01 </wgt>
<wgt id='1189'> +5.1964637e-01 </wgt>
<wgt id='1190'> +5.1558977e-01 </wgt>
<wgt id='1191'> +5.1318127e-01 </wgt>
<wgt id='1192'> +5.0775107e-01 </wgt>
<wgt id='1193'> +5.1363368e-01 </wgt>
<wgt id='1194'> +5.1687066e-01 </wgt>
<wgt id='1195'> +5.1357386e-01 </wgt>
<wgt id='1196'> +5.0795708e-01 </wgt>
<wgt id='1197'> +5.1265334e-01 </wgt>
<wgt id='1198'> +5.1941960e-01 </wgt>
<wgt id='1199'> +5.1433074e-01 </wgt>
<wgt id='1200'> +5.1955447e-01 </wgt>
<wgt id='1201'> +5.2064574e-01 </wgt>
<wgt id='1202'> +5.1587602e-01 </wgt>
<wgt id='1203'> +5.2392376e-01 </wgt>
<wgt id='1204'> +5.2012769e-01 </wgt>
<wgt id='1205'> +5.0872558e-01 </wgt>
<wgt id='1206'> +5.1808422e-01 </wgt>
<wgt id='1207'> +5.1610510e-01 </wgt>
<wgt id='1208'> +5.2427070e-01 </wgt>
<wgt id='1209'> +5.2730206e-01 </wgt>
<wgt id='1210'> +5.0452773e-01 </wgt>
<wgt id='1211'> +5.1412477e-01 </wgt>
<wgt id='1212'> +5.0850609e-01 </wgt>
<wgt id='1213'> +5.2286216e-01 </wgt>
<wgt id='1214'> +5.1854894e-01 </wgt>
<wgt id='1215'> +5.1277177e-01 </wgt>
<wgt id='1216'> +5.1357585e-01 </wgt>
<wgt id='1217'> +5.1008522e-01 </wgt>
<wgt id='1218'> +5.1207491e-01 </wgt>
<wgt id='1219'> +5.0742321e-01 </wgt>
<wgt id='1220'> +5.2398690e-01 </wgt>
<wgt id='1221'> +5.0073025e-01 </wgt>
<wgt id='1222'> +5.2049463e-01 </wgt>
<wgt id='1223'> +5.1392803e-01 </wgt>
<wgt id='1224'> +5.0944838e-01 </wgt>
<wgt id='1225'> +5.2248906e-01 </wgt>
<wgt id='1226'> +5.0267693e-01 </wgt>
<wgt id='1227'> +5.3132853e-01 </wgt>
<wgt id='1228'> +5.1530330e-01 </wgt>
<wgt id='1229'> +4.9909745e-01 </wgt>
<wgt id='1230'> +5.1187257e-01 </wgt>
<wgt id='1231'> +5.1605297e-01 </wgt>
<wgt id='1232'> +5.0346130e-01 </wgt>
<wgt id='1233'> +5.1680945e-01 </wgt>
<wgt id='1234'> +5.2976326e-01 </wgt>
<wgt id='1235'> +4.9911831e-01 </wgt>
<wgt id='1236'> +5.2678226e-01 </wgt>
<wgt id='1237'> +5.0837870e-01 </wgt>
<wgt id='1238'> +5.0265309e-01 </wgt>
<wgt id='1239'> +5.2310378e-01 </wgt>
<wgt id='1240'> +5.2524353e-01 </wgt>
<wgt id='1241'> +5.2198898e-01 </wgt>
<wgt id='1242'> +5.1615912e-01 </wgt>
<wgt id='1243'> +5.0998286e-01 </wgt>
<wgt id='1244'> +5.1210774e-01 </wgt>
<wgt id='1245'> +5.2539719e-01 </wgt>
<wgt id='1246'> +5.0122330e-01 </wgt>
<wgt id='1247'> +5.1049807e-01 </wgt>
<wgt id='1248'> +5.1687613e-01 </wgt>
<wgt id='1249'> +5.1963306e-01 </wgt>
<wgt id='1250'> +5.1646748e-01 </wgt>
<wgt id='1251'> +5.1083690e-01 </wgt>
<wgt id='1252'> +5.2376184e-01 </wgt>
<wgt id='1253'> +5.2083653e-01 </wgt>
<wgt id='1254'> +4.7684716e-01 </wgt>
<wgt id='1255'> +5.3574221e-01 </wgt>
<wgt id='1256'> +5.3923077e-01 </wgt>
<wgt id='1257'> +5.3369577e-01 </wgt>
<wgt id='1258'> +5.3504953e-01 </wgt>
<wgt id='1259'> +5.3607463e-01 </wgt>
<wgt id='1260'> +5.3682037e-01 </wgt>
<wgt id='1261'> +5.3426381e-01 </wgt>
<wgt id='1262'> +5.3653630e-01 </wgt>
<wgt id='1263'> +5.3521924e-01 </wgt>
<wgt id='1264'> +5.3525418e-01 </wgt>
<wgt id='1265'> +5.3607034e-01 </wgt>
<wgt id='1266'> +5.3582117e-01 </wgt>
<wgt id='1267'> +5.3564172e-01 </wgt>
<wgt id='1268'> +5.4052613e-01 </wgt>
<wgt id='1269'> +5.3096297e-01 </wgt>
<wgt id='1270'> +5.3516945e-01 </wgt>
<wgt id='1271'> +5.3571676e-01 </wgt>
<wgt id='1272'> +5.3627397e-01 </wgt>
<wgt id='1273'> +5.3529395e-01 </wgt>
<wgt id='1274'> +5.3470242e-01 </wgt>
<wgt id='1275'> +5.3702934e-01 </wgt>
<wgt id='1276'> +5.3469614e-01 </wgt>
<wgt id='1277'> +5.3681270e-01 </wgt>
<wgt id='1278'> +5.3321185e-01 </wgt>
<wgt id='1279'> +5.3777563e-01 </wgt>
<wgt id='1280'> +5.3552471e-01 </wgt>
<wgt id='1281'> +5.3612964e-01 </wgt>
<wgt id='1282'> +5.3875684e-01 </wgt>
<wgt id='1283'> +5.3212268e-01 </wgt>
<wgt id='1284'> +5.3390443e-01 </wgt>
<wgt id='1285'> +5.3734344e-01 </wgt>
<wgt id='1286'> +5.3772049e-01 </wgt>
<wgt id='1287'> +5.3563934e-01 </wgt>
<wgt id='1288'> +5.3540929e-01 </wgt>
<wgt id='1289'> +5.3576976e-01 </wgt>
<wgt id='1290'> +5.3656019e-01 </wgt>
<wgt id='1291'> +5.3544409e-01 </wgt>
<wgt id='1292'> +5.3775742e-01 </wgt>
<wgt id='1293'> +5.3260020e-01 </wgt>
<wgt id='1294'> +5.3252956e-01 </wgt>
<wgt id='1295'> +5.3653117e-01 </wgt>
<wgt id='1296'> +5.2245621e-01 </wgt>
<wgt id='1297'> +5.2372156e-01 </wgt>
<wgt id='1298'> +5.2141652e-01 </wgt>
<wgt id='1299'> +5.2082716e-01 </wgt>
<wgt id='1300'> +5.2426096e-01 </wgt>
<wgt id='1301'> +5.2127089e-01 </wgt>
<wgt id='1302'> +5.2421921e-01 </wgt>
<wgt id='1303'> +5.2212167e-01 </wgt>
<wgt id='1304'> +5.2267603e-01 </wgt>
<wgt id='1305'> +5.2297606e-01 </wgt>
<wgt id='1306'> +5.2171691e-01 </wgt>
<wgt id='1307'> +5.2506563e-01 </wgt>
<wgt id='1308'> +5.2082268e-01 </wgt>
<wgt id='1309'> +5.2303322e-01 </wgt>
<wgt id='1310'> +5.2167306e-01 </wgt>
<wgt id='1311'> +5.2687910e-01 </wgt>
<wgt id='1312'> +5.2084335e-01 </wgt>
<wgt id='1313'> +5.2338520e-01 </wgt>
<wgt id='1314'> +5.2107032e-01 </wgt>
<wgt id='1315'> +5.2211331e-01 </wgt>
<wgt id='1316'> +5.2276546e-01 </wgt>
<wgt id='1317'> +5.1934045e-01 </wgt>
<wgt id='1318'> +5.2821666e-01 </wgt>
<wgt id='1319'> +5.2377570e-01 </wgt>
<wgt id='1320'> +5.2174054e-01 </wgt>
<wgt id='1321'> +5.2120988e-01 </wgt>
<wgt id='1322'> +5.2311773e-01 </wgt>
<wgt id='1323'> +5.2237554e-01 </wgt>
<wgt id='1324'> +5.2248432e-01 </wgt>
<wgt id='1325'> +5.2284072e-01 </wgt>
<wgt id='1326'> +5.2200110e-01 </wgt>
<wgt id='1327'> +5.2274950e-01 </wgt>
<wgt id='1328'> +5.2236081e-01 </wgt>
<wgt id='1329'> +5.2258942e-01 </wgt>
<wgt id='1330'> +5.2236509e-01 </wgt>
<wgt id='1331'> +5.2277691e-01 </wgt>
<wgt id='1332'> +5.2287639e-01 </wgt>
<wgt id='1333'> +5.2513155e-01 </wgt>
<wgt id='1334'> +5.1857886e-01 </wgt>
<wgt id='1335'> +5.2398289e-01 </wgt>
<wgt id='1336'> +5.2208490e-01 </wgt>
<wgt id='1337'> +5.2245621e-01 </wgt>
<wgt id='1338'> +5.2243056e-01 </wgt>
<wgt id='1339'> +5.2245974e-01 </wgt>
<wgt id='1340'> +5.2248135e-01 </wgt>
<wgt id='1341'> +5.2249583e-01 </wgt>
<wgt id='1342'> +5.2249972e-01 </wgt>
<wgt id='1343'> +5.2248515e-01 </wgt>
<wgt id='1344'> +5.2109108e-01 </wgt>
<wgt id='1345'> +5.2288489e-01 </wgt>
<wgt id='1346'> +5.1931571e-01 </wgt>
<wgt id='1347'> +5.2416791e-01 </wgt>
<wgt id='1348'> +5.1882529e-01 </wgt>
<wgt id='1349'> +5.2042202e-01 </wgt>
<wgt id='1350'> +5.2165530e-01 </wgt>
<wgt id='1351'> +5.2111095e-01 </wgt>
<wgt id='1352'> +5.2107493e-01 </wgt>
<wgt id='1353'> +5.2238785e-01 </wgt>
<wgt id='1354'> +5.2018650e-01 </wgt>
<wgt id='1355'> +5.1991638e-01 </wgt>
<wgt id='1356'> +5.2200751e-01 </wgt>
<wgt id='1357'> +5.2148039e-01 </wgt>
<wgt id='1358'> +5.2084206e-01 </wgt>
<wgt id='1359'> +5.1925340e-01 </wgt>
<wgt id='1360'> +5.2569508e-01 </wgt>
<wgt id='1361'> +5.2486799e-01 </wgt>
<wgt id='1362'> +5.1835895e-01 </wgt>
<wgt id='1363'> +5.2200639e-01 </wgt>
<wgt id='1364'> +5.2002006e-01 </wgt>
<wgt id='1365'> +5.2120505e-01 </wgt>
<wgt id='1366'> +5.2110749e-01 </wgt>
<wgt id='1367'> +5.1914743e-01 </wgt>
<wgt id='1368'> +5.2207839e-01 </wgt>
<wgt id='1369'> +5.1981968e-01 </wgt>
<wgt id='1370'> +5.2229439e-01 </wgt>
<wgt id='1371'> +5.2130176e-01 </wgt>
<wgt id='1372'> +5.2095565e-01 </wgt>
<wgt id='1373'> +5.2246919e-01 </wgt>
<wgt id='1374'> +5.2049258e-01 </wgt>
<wgt id='1375'> +5.2186188e-01 </wgt>
<wgt id='1376'> +5.2090391e-01 </wgt>
<wgt id='1377'> +5.2114059e-01 </wgt>
<wgt id='1378'> +5.2096619e-01 </wgt>
<wgt id='1379'> +5.2220557e-01 </wgt>
<wgt id='1380'> +5.2106404e-01 </wgt>
<wgt id='1381'> +5.1920011e-01 </wgt>
<wgt id='1382'> +5.2064033e-01 </wgt>
<wgt id='1383'> +5.2077696e-01 </wgt>
<wgt id='1384'> +5.2272483e-01 </wgt>
<wgt id='1385'> +5.2109108e-01 </wgt>
<wgt id='1386'> +5.2082777e-01 </wgt>
<wgt id='1387'> +5.2093971e-01 </wgt>
<wgt id='1388'> +5.2099160e-01 </wgt>
<wgt id='1389'> +5.2110166e-01 </wgt>
<wgt id='1390'> +5.2115405e-01 </wgt>
<wgt id='1391'> +5.2115454e-01 </wgt>
<wgt id='1392'> +5.4610409e-01 </wgt>
<wgt id='1393'> +5.4612983e-01 </wgt>
<wgt id='1394'> +5.4606319e-01 </wgt>
<wgt id='1395'> +5.4643055e-01 </wgt>
<wgt id='1396'> +5.4583766e-01 </wgt>
<wgt id='1397'> +5.4802503e-01 </wgt>
<wgt id='1398'> +5.4423921e-01 </wgt>
<wgt id='1399'> +5.4802539e-01 </wgt>
<wgt id='1400'> +5.4372229e-01 </wgt>
<wgt id='1401'> +5.4424011e-01 </wgt>
<wgt id='1402'> +5.4837520e-01 </wgt>
<wgt id='1403'> +5.4574487e-01 </wgt>
<wgt id='1404'> +5.4678475e-01 </wgt>
<wgt id='1405'> +5.4539256e-01 </wgt>
<wgt id='1406'> +5.4705683e-01 </wgt>
<wgt id='1407'> +5.4541700e-01 </wgt>
<wgt id='1408'> +5.4655337e-01 </wgt>
<wgt id='1409'> +5.4832017e-01 </wgt>
<wgt id='1410'> +5.4354964e-01 </wgt>
<wgt id='1411'> +5.4568861e-01 </wgt>
<wgt id='1412'> +5.4639638e-01 </wgt>
<wgt id='1413'> +5.4829070e-01 </wgt>
<wgt id='1414'> +5.4378080e-01 </wgt>
<wgt id='1415'> +5.4817107e-01 </wgt>
<wgt id='1416'> +5.4385245e-01 </wgt>
<wgt id='1417'> +5.4573808e-01 </wgt>
<wgt id='1418'> +5.4650451e-01 </wgt>
<wgt id='1419'> +5.4641920e-01 </wgt>
<wgt id='1420'> +5.4585861e-01 </wgt>
<wgt id='1421'> +5.4846561e-01 </wgt>
<wgt id='1422'> +5.4343465e-01 </wgt>
<wgt id='1423'> +5.4721139e-01 </wgt>
<wgt id='1424'> +5.4488142e-01 </wgt>
<wgt id='1425'> +5.4619921e-01 </wgt>
<wgt id='1426'> +5.4592830e-01 </wgt>
<wgt id='1427'> +5.4512291e-01 </wgt>
<wgt id='1428'> +5.4529984e-01 </wgt>
<wgt id='1429'> +5.4558954e-01 </wgt>
<wgt id='1430'> +5.4658114e-01 </wgt>
<wgt id='1431'> +5.4574910e-01 </wgt>
<wgt id='1432'> +5.4623420e-01 </wgt>
<wgt id='1433'> +5.4378318e-01 </wgt>
<wgt id='1434'> +5.4823303e-01 </wgt>
<wgt id='1435'> +5.4562349e-01 </wgt>
<wgt id='1436'> +5.4671679e-01 </wgt>
<wgt id='1437'> +5.4556924e-01 </wgt>
<wgt id='1438'> +5.4729653e-01 </wgt>
<wgt id='1439'> +5.4831493e-01 </wgt>
<wgt id='1440'> +5.4160024e-01 </wgt>
<wgt id='1441'> +5.4698369e-01 </wgt>
<wgt id='1442'> +5.4685046e-01 </wgt>
<wgt id='1443'> +5.4187434e-01 </wgt>
<wgt id='1444'> +5.4193054e-01 </wgt>
<wgt id='1445'> +5.4181650e-01 </wgt>
<wgt id='1446'> +5.4223009e-01 </wgt>
<wgt id='1447'> +5.4162230e-01 </wgt>
<wgt id='1448'> +5.4390699e-01 </wgt>
<wgt id='1449'> +5.3997814e-01 </wgt>
<wgt id='1450'> +5.4370305e-01 </wgt>
<wgt id='1451'> +5.3982212e-01 </wgt>
<wgt id='1452'> +5.4005578e-01 </wgt>
<wgt id='1453'> +5.4362165e-01 </wgt>
<wgt id='1454'> +5.4140080e-01 </wgt>
<wgt id='1455'> +5.4286386e-01 </wgt>
<wgt id='1456'> +5.4102327e-01 </wgt>
<wgt id='1457'> +5.4336567e-01 </wgt>
<wgt id='1458'> +5.4129885e-01 </wgt>
<wgt id='1459'> +5.4219081e-01 </wgt>
<wgt id='1460'> +5.4402436e-01 </wgt>
<wgt id='1461'> +5.3927761e-01 </wgt>
<wgt id='1462'> +5.4100394e-01 </wgt>
<wgt id='1463'> +5.4260116e-01 </wgt>
<wgt id='1464'> +5.4383712e-01 </wgt>
<wgt id='1465'> +5.3928423e-01 </wgt>
<wgt id='1466'> +5.4452417e-01 </wgt>
<wgt id='1467'> +5.3990990e-01 </wgt>
<wgt id='1468'> +5.4144130e-01 </wgt>
<wgt id='1469'> +5.4233149e-01 </wgt>
<wgt id='1470'> +5.4228708e-01 </wgt>
<wgt id='1471'> +5.4162600e-01 </wgt>
<wgt id='1472'> +5.4383554e-01 </wgt>
<wgt id='1473'> +5.3958267e-01 </wgt>
<wgt id='1474'> +5.4271877e-01 </wgt>
<wgt id='1475'> +5.4052002e-01 </wgt>
<wgt id='1476'> +5.4186652e-01 </wgt>
<wgt id='1477'> +5.4176630e-01 </wgt>
<wgt id='1478'> +5.4100415e-01 </wgt>
<wgt id='1479'> +5.4114135e-01 </wgt>
<wgt id='1480'> +5.4161761e-01 </wgt>
<wgt id='1481'> +5.4218495e-01 </wgt>
<wgt id='1482'> +5.4150321e-01 </wgt>
<wgt id='1483'> +5.4207317e-01 </wgt>
<wgt id='1484'> +5.3953277e-01 </wgt>
<wgt id='1485'> +5.4410690e-01 </wgt>
<wgt id='1486'> +5.4156408e-01 </wgt>
<wgt id='1487'> +5.4231130e-01 </wgt>
<wgt id='1488'> +5.4128065e-01 </wgt>
<wgt id='1489'> +5.4317163e-01 </wgt>
<wgt id='1490'> +5.4504964e-01 </wgt>
<wgt id='1491'> +5.3705360e-01 </wgt>
<wgt id='1492'> +5.4337657e-01 </wgt>
<wgt id='1493'> +5.4261503e-01 </wgt>
<wgt id='1494'> +5.2113087e-01 </wgt>
<wgt id='1495'> +5.1564201e-01 </wgt>
<wgt id='1496'> +5.1755329e-01 </wgt>
<wgt id='1497'> +5.1943132e-01 </wgt>
<wgt id='1498'> +5.2249187e-01 </wgt>
<wgt id='1499'> +5.2100759e-01 </wgt>
<wgt id='1500'> +5.2509341e-01 </wgt>
<wgt id='1501'> +5.2429612e-01 </wgt>
<wgt id='1502'> +5.2349747e-01 </wgt>
<wgt id='1503'> +5.2267215e-01 </wgt>
<wgt id='1504'> +5.2186064e-01 </wgt>
<wgt id='1505'> +5.2023315e-01 </wgt>
<wgt id='1506'> +5.1941228e-01 </wgt>
<wgt id='1507'> +5.1861997e-01 </wgt>
<wgt id='1508'> +5.2100759e-01 </wgt>
<wgt id='1509'> +5.2126778e-01 </wgt>
<wgt id='1510'> +5.2111153e-01 </wgt>
<wgt id='1511'> +5.2090772e-01 </wgt>
<wgt id='1512'> +5.2078895e-01 </wgt>
<wgt id='1513'> +5.2295913e-01 </wgt>
<wgt id='1514'> +5.2274655e-01 </wgt>
<wgt id='1515'> +5.2320986e-01 </wgt>
<wgt id='1516'> +5.2382684e-01 </wgt>
<wgt id='1517'> +5.2207328e-01 </wgt>
<wgt id='1518'> +5.2390146e-01 </wgt>
<wgt id='1519'> +5.2256184e-01 </wgt>
<wgt id='1520'> +5.2578615e-01 </wgt>
<wgt id='1521'> +5.2011520e-01 </wgt>
<wgt id='1522'> +5.2199636e-01 </wgt>
<wgt id='1523'> +5.2387066e-01 </wgt>
<wgt id='1524'> +5.2525880e-01 </wgt>
<wgt id='1525'> +5.2194497e-01 </wgt>
<wgt id='1526'> +5.2303823e-01 </wgt>
<wgt id='1527'> +5.2284723e-01 </wgt>
<wgt id='1528'> +5.2195846e-01 </wgt>
<wgt id='1529'> +5.2402042e-01 </wgt>
<wgt id='1530'> +5.2659979e-01 </wgt>
<wgt id='1531'> +5.2088636e-01 </wgt>
<wgt id='1532'> +5.2429406e-01 </wgt>
<wgt id='1533'> +5.2107998e-01 </wgt>
<wgt id='1534'> +5.2132036e-01 </wgt>
<wgt id='1535'> +5.2410116e-01 </wgt>
<wgt id='1536'> +5.2112624e-01 </wgt>
<wgt id='1537'> +5.2473830e-01 </wgt>
<wgt id='1538'> +5.2224155e-01 </wgt>
<wgt id='1539'> +5.2446754e-01 </wgt>
<wgt id='1540'> +5.2277841e-01 </wgt>
<wgt id='1541'> +5.2294390e-01 </wgt>
<wgt id='1542'> +5.2157301e-01 </wgt>
<wgt id='1543'> +5.2698582e-01 </wgt>
<wgt id='1544'> +5.2284656e-01 </wgt>
<wgt id='1545'> +5.2213338e-01 </wgt>
<wgt id='1546'> +5.2205686e-01 </wgt>
<wgt id='1547'> +5.2346059e-01 </wgt>
<wgt id='1548'> +5.2291712e-01 </wgt>
<wgt id='1549'> +5.2187488e-01 </wgt>
<wgt id='1550'> +5.2305143e-01 </wgt>
<wgt id='1551'> +5.2255906e-01 </wgt>
<wgt id='1552'> +5.2249448e-01 </wgt>
<wgt id='1553'> +5.2309050e-01 </wgt>
<wgt id='1554'> +5.2351862e-01 </wgt>
<wgt id='1555'> +5.2073170e-01 </wgt>
<wgt id='1556'> +5.2370771e-01 </wgt>
<wgt id='1557'> +5.2295943e-01 </wgt>
<wgt id='1558'> +5.1993435e-01 </wgt>
<wgt id='1559'> +5.2449736e-01 </wgt>
<wgt id='1560'> +5.2513516e-01 </wgt>
<wgt id='1561'> +5.2187672e-01 </wgt>
<wgt id='1562'> +5.2057074e-01 </wgt>
<wgt id='1563'> +5.2410206e-01 </wgt>
<wgt id='1564'> +5.2295913e-01 </wgt>
<wgt id='1565'> +5.2091230e-01 </wgt>
<wgt id='1566'> +5.2329366e-01 </wgt>
<wgt id='1567'> +5.2221492e-01 </wgt>
<wgt id='1568'> +5.2619503e-01 </wgt>
<wgt id='1569'> +5.2540097e-01 </wgt>
<wgt id='1570'> +5.2457171e-01 </wgt>
<wgt id='1571'> +5.2376238e-01 </wgt>
<wgt id='1572'> +5.2295428e-01 </wgt>
<wgt id='1573'> +5.2143007e-01 </wgt>
<wgt id='1574'> +5.2043089e-01 </wgt>
<wgt id='1575'> +5.1967179e-01 </wgt>
<wgt id='1576'> +5.2221492e-01 </wgt>
<wgt id='1577'> +5.2236434e-01 </wgt>
<wgt id='1578'> +5.2228249e-01 </wgt>
<wgt id='1579'> +5.2213732e-01 </wgt>
<wgt id='1580'> +5.2209189e-01 </wgt>
<wgt id='1581'> +5.2270214e-01 </wgt>
<wgt id='1582'> +5.2313703e-01 </wgt>
<wgt id='1583'> +5.2505630e-01 </wgt>
<wgt id='1584'> +5.2038478e-01 </wgt>
<wgt id='1585'> +5.2441489e-01 </wgt>
<wgt id='1586'> +5.1988869e-01 </wgt>
<wgt id='1587'> +5.1751625e-01 </wgt>
<wgt id='1588'> +5.2674736e-01 </wgt>
<wgt id='1589'> +5.2239854e-01 </wgt>
<wgt id='1590'> +5.2339084e-01 </wgt>
<wgt id='1591'> +5.2175557e-01 </wgt>
<wgt id='1592'> +5.2378896e-01 </wgt>
<wgt id='1593'> +5.2371169e-01 </wgt>
<wgt id='1594'> +5.2263024e-01 </wgt>
<wgt id='1595'> +5.2216831e-01 </wgt>
<wgt id='1596'> +5.2609407e-01 </wgt>
<wgt id='1597'> +5.2387116e-01 </wgt>
<wgt id='1598'> +5.2332784e-01 </wgt>
<wgt id='1599'> +5.2295093e-01 </wgt>
<wgt id='1600'> +5.2400138e-01 </wgt>
<wgt id='1601'> +5.2186932e-01 </wgt>
<wgt id='1602'> +5.2369715e-01 </wgt>
<wgt id='1603'> +5.2363607e-01 </wgt>
<wgt id='1604'> +5.2315302e-01 </wgt>
<wgt id='1605'> +5.2182217e-01 </wgt>
<wgt id='1606'> +5.2311282e-01 </wgt>
<wgt id='1607'> +5.2344402e-01 </wgt>
<wgt id='1608'> +5.2329666e-01 </wgt>
<wgt id='1609'> +5.2387524e-01 </wgt>
<wgt id='1610'> +5.2233018e-01 </wgt>
<wgt id='1611'> +5.2512854e-01 </wgt>
<wgt id='1612'> +5.2315542e-01 </wgt>
<wgt id='1613'> +5.2284150e-01 </wgt>
<wgt id='1614'> +5.2403743e-01 </wgt>
<wgt id='1615'> +5.2416328e-01 </wgt>
<wgt id='1616'> +5.2260611e-01 </wgt>
<wgt id='1617'> +5.2254977e-01 </wgt>
<wgt id='1618'> +5.2373266e-01 </wgt>
<wgt id='1619'> +5.2134161e-01 </wgt>
<wgt id='1620'> +5.2215293e-01 </wgt>
<wgt id='1621'> +5.2334226e-01 </wgt>
<wgt id='1622'> +5.2445437e-01 </wgt>
<wgt id='1623'> +5.2290795e-01 </wgt>
<wgt id='1624'> +5.2258351e-01 </wgt>
<wgt id='1625'> +5.2400687e-01 </wgt>
<wgt id='1626'> +5.2562678e-01 </wgt>
<wgt id='1627'> +5.2295717e-01 </wgt>
<wgt id='1628'> +5.2312104e-01 </wgt>
<wgt id='1629'> +5.2392109e-01 </wgt>
<wgt id='1630'> +5.2420194e-01 </wgt>
<wgt id='1631'> +5.2359847e-01 </wgt>
<wgt id='1632'> +5.2457088e-01 </wgt>
<wgt id='1633'> +5.2232723e-01 </wgt>
<wgt id='1634'> +5.2503040e-01 </wgt>
<wgt id='1635'> +5.2246279e-01 </wgt>
<wgt id='1636'> +5.2307087e-01 </wgt>
<wgt id='1637'> +5.2499718e-01 </wgt>
<wgt id='1638'> +5.2304118e-01 </wgt>
<wgt id='1639'> +5.2440414e-01 </wgt>
<wgt id='1640'> +5.2370696e-01 </wgt>
<wgt id='1641'> +5.1812379e-01 </wgt>
<wgt id='1642'> +5.2193456e-01 </wgt>
<wgt id='1643'> +5.2296824e-01 </wgt>
<wgt id='1644'> +5.2180601e-01 </wgt>
<wgt id='1645'> +5.2233183e-01 </wgt>
<wgt id='1646'> +5.2403226e-01 </wgt>
<wgt id='1647'> +5.2236815e-01 </wgt>
<wgt id='1648'> +5.2254544e-01 </wgt>
<wgt id='1649'> +5.2372394e-01 </wgt>
<wgt id='1650'> +5.2275788e-01 </wgt>
<wgt id='1651'> +5.2314220e-01 </wgt>
<wgt id='1652'> +5.2262104e-01 </wgt>
<wgt id='1653'> +5.2280563e-01 </wgt>
<wgt id='1654'> +5.2286637e-01 </wgt>
<wgt id='1655'> +5.2408894e-01 </wgt>
<wgt id='1656'> +5.2301362e-01 </wgt>
<wgt id='1657'> +5.2295739e-01 </wgt>
<wgt id='1658'> +5.2360606e-01 </wgt>
<wgt id='1659'> +5.2384000e-01 </wgt>
<wgt id='1660'> +5.2375147e-01 </wgt>
<wgt id='1661'> +5.2361381e-01 </wgt>
<wgt id='1662'> +5.2379813e-01 </wgt>
<wgt id='1663'> +5.2431582e-01 </wgt>
<wgt id='1664'> +5.2349739e-01 </wgt>
<wgt id='1665'> +5.2360347e-01 </wgt>
<wgt id='1666'> +5.2390422e-01 </wgt>
<wgt id='1667'> +5.2318517e-01 </wgt>
<wgt id='1668'> +5.2258877e-01 </wgt>
<wgt id='1669'> +5.2279937e-01 </wgt>
<wgt id='1670'> +5.2239438e-01 </wgt>
<wgt id='1671'> +5.2334286e-01 </wgt>
<wgt id='1672'> +5.2321423e-01 </wgt>
<wgt id='1673'> +5.2329563e-01 </wgt>
<wgt id='1674'> +5.2312663e-01 </wgt>
<wgt id='1675'> +5.2291586e-01 </wgt>
<wgt id='1676'> +5.2208447e-01 </wgt>
<wgt id='1677'> +5.2324416e-01 </wgt>
<wgt id='1678'> +5.2358617e-01 </wgt>
<wgt id='1679'> +5.2388039e-01 </wgt>
<wgt id='1680'> +5.2418521e-01 </wgt>
<wgt id='1681'> +5.2306616e-01 </wgt>
<wgt id='1682'> +5.2310942e-01 </wgt>
<wgt id='1683'> +5.2291074e-01 </wgt>
<wgt id='1684'> +5.2312944e-01 </wgt>
<wgt id='1685'> +5.2236216e-01 </wgt>
<wgt id='1686'> +5.2316743e-01 </wgt>
<wgt id='1687'> +5.2287386e-01 </wgt>
<wgt id='1688'> +5.2298799e-01 </wgt>
<wgt id='1689'> +5.2371376e-01 </wgt>
<wgt id='1690'> +5.2322109e-01 </wgt>
<wgt id='1691'> +5.2384731e-01 </wgt>
<wgt id='1692'> +5.2294016e-01 </wgt>
<wgt id='1693'> +5.2369488e-01 </wgt>
<wgt id='1694'> +5.2377475e-01 </wgt>
<wgt id='1695'> +5.2338294e-01 </wgt>
<wgt id='1696'> +5.2302577e-01 </wgt>
<wgt id='1697'> +5.2319849e-01 </wgt>
<wgt id='1698'> +5.2302738e-01 </wgt>
<wgt id='1699'> +5.2306642e-01 </wgt>
<wgt id='1700'> +5.2335086e-01 </wgt>
<wgt id='1701'> +5.2305265e-01 </wgt>
<wgt id='1702'> +5.2299063e-01 </wgt>
<wgt id='1703'> +5.2330523e-01 </wgt>
<wgt id='1704'> +5.2337888e-01 </wgt>
<wgt id='1705'> +5.2306906e-01 </wgt>
<wgt id='1706'> +5.2297435e-01 </wgt>
<wgt id='1707'> +5.2307978e-01 </wgt>
<wgt id='1708'> +5.2273936e-01 </wgt>
<wgt id='1709'> +5.2313719e-01 </wgt>
<wgt id='1710'> +5.2291626e-01 </wgt>
<wgt id='1711'> +5.2312979e-01 </wgt>
<wgt id='1712'> +5.2279724e-01 </wgt>
<wgt id='1713'> +5.1542894e-01 </wgt>
<wgt id='1714'> +5.2942847e-01 </wgt>
<wgt id='1715'> +5.1771452e-01 </wgt>
<wgt id='1716'> +5.1259016e-01 </wgt>
<wgt id='1717'> +5.1559130e-01 </wgt>
<wgt id='1718'> +5.1047800e-01 </wgt>
<wgt id='1719'> +5.1103830e-01 </wgt>
<wgt id='1720'> +5.3172438e-01 </wgt>
<wgt id='1721'> +5.0371220e-01 </wgt>
<wgt id='1722'> +5.1358876e-01 </wgt>
<wgt id='1723'> +5.1799825e-01 </wgt>
<wgt id='1724'> +5.2684534e-01 </wgt>
<wgt id='1725'> +5.2727277e-01 </wgt>
<wgt id='1726'> +5.2791892e-01 </wgt>
<wgt id='1727'> +5.1801348e-01 </wgt>
<wgt id='1728'> +5.1852750e-01 </wgt>
<wgt id='1729'> +5.1809533e-01 </wgt>
<wgt id='1730'> +5.1050066e-01 </wgt>
<wgt id='1731'> +4.8547438e-01 </wgt>
<wgt id='1732'> +5.3583184e-01 </wgt>
<wgt id='1733'> +5.2439761e-01 </wgt>
<wgt id='1734'> +5.1821695e-01 </wgt>
<wgt id='1735'> +5.0658231e-01 </wgt>
<wgt id='1736'> +5.1596902e-01 </wgt>
<wgt id='1737'> +5.2009425e-01 </wgt>
<wgt id='1738'> +5.2478447e-01 </wgt>
<wgt id='1739'> +5.1082385e-01 </wgt>
<wgt id='1740'> +5.1405676e-01 </wgt>
<wgt id='1741'> +5.1608894e-01 </wgt>
<wgt id='1742'> +5.3275384e-01 </wgt>
<wgt id='1743'> +5.0622704e-01 </wgt>
<wgt id='1744'> +5.2538240e-01 </wgt>
<wgt id='1745'> +5.0132928e-01 </wgt>
<wgt id='1746'> +5.1744910e-01 </wgt>
<wgt id='1747'> +5.1917312e-01 </wgt>
<wgt id='1748'> +5.1476777e-01 </wgt>
<wgt id='1749'> +5.3419301e-01 </wgt>
<wgt id='1750'> +5.1909377e-01 </wgt>
<wgt id='1751'> +5.1939439e-01 </wgt>
<wgt id='1752'> +4.9583344e-01 </wgt>
<wgt id='1753'> +5.1422075e-01 </wgt>
<wgt id='1754'> +5.2277130e-01 </wgt>
<wgt id='1755'> +5.2394527e-01 </wgt>
<wgt id='1756'> +5.0662993e-01 </wgt>
<wgt id='1757'> +5.0972770e-01 </wgt>
<wgt id='1758'> +5.1076544e-01 </wgt>
<wgt id='1759'> +5.1379267e-01 </wgt>
<wgt id='1760'> +5.1112818e-01 </wgt>
<wgt id='1761'> +5.1911829e-01 </wgt>
<wgt id='1762'> +5.1801348e-01 </wgt>
<wgt id='1763'> +5.1519561e-01 </wgt>
<wgt id='1764'> +5.2347212e-01 </wgt>
<wgt id='1765'> +5.2270333e-01 </wgt>
<wgt id='1766'> +5.3853599e-01 </wgt>
<wgt id='1767'> +5.1373628e-01 </wgt>
<wgt id='1768'> +5.0082457e-01 </wgt>
<wgt id='1769'> +5.2023187e-01 </wgt>
<wgt id='1770'> +5.3003426e-01 </wgt>
<wgt id='1771'> +5.1269364e-01 </wgt>
<wgt id='1772'> +5.1848692e-01 </wgt>
<wgt id='1773'> +5.2424614e-01 </wgt>
<wgt id='1774'> +5.0650864e-01 </wgt>
<wgt id='1775'> +5.1785471e-01 </wgt>
<wgt id='1776'> +5.2285773e-01 </wgt>
<wgt id='1777'> +5.1968827e-01 </wgt>
<wgt id='1778'> +5.2057980e-01 </wgt>
<wgt id='1779'> +5.1475061e-01 </wgt>
<wgt id='1780'> +5.2899954e-01 </wgt>
<wgt id='1781'> +5.2254192e-01 </wgt>
<wgt id='1782'> +5.3103627e-01 </wgt>
<wgt id='1783'> +5.1256933e-01 </wgt>
<wgt id='1784'> +5.2780132e-01 </wgt>
<wgt id='1785'> +5.2733176e-01 </wgt>
<wgt id='1786'> +5.2530186e-01 </wgt>
<wgt id='1787'> +5.1971653e-01 </wgt>
<wgt id='1788'> +5.1142987e-01 </wgt>
<wgt id='1789'> +5.2449203e-01 </wgt>
<wgt id='1790'> +5.2555977e-01 </wgt>
<wgt id='1791'> +4.9830221e-01 </wgt>
<wgt id='1792'> +5.2118729e-01 </wgt>
<wgt id='1793'> +5.3493243e-01 </wgt>
<wgt id='1794'> +5.1337971e-01 </wgt>
<wgt id='1795'> +5.0136784e-01 </wgt>
<wgt id='1796'> +5.2070701e-01 </wgt>
<wgt id='1797'> +5.1173470e-01 </wgt>
<wgt id='1798'> +5.2239889e-01 </wgt>
<wgt id='1799'> +5.2702915e-01 </wgt>
<wgt id='1800'> +5.2294933e-01 </wgt>
<wgt id='1801'> +5.0684700e-01 </wgt>
<wgt id='1802'> +5.1378085e-01 </wgt>
<wgt id='1803'> +5.1797608e-01 </wgt>
<wgt id='1804'> +5.2586155e-01 </wgt>
<wgt id='1805'> +5.1733497e-01 </wgt>
<wgt id='1806'> +5.1610354e-01 </wgt>
<wgt id='1807'> +5.0606711e-01 </wgt>
<wgt id='1808'> +5.1951571e-01 </wgt>
<wgt id='1809'> +5.1410402e-01 </wgt>
<wgt id='1810'> +5.1490948e-01 </wgt>
<wgt id='1811'> +5.1624525e-01 </wgt>
<wgt id='1812'> +5.1524103e-01 </wgt>
<wgt id='1813'> +5.2151181e-01 </wgt>
<wgt id='1814'> +5.1416236e-01 </wgt>
<wgt id='1815'> +5.2619082e-01 </wgt>
<wgt id='1816'> +5.3137906e-01 </wgt>
<wgt id='1817'> +5.3938089e-01 </wgt>
<wgt id='1818'> +5.2598417e-01 </wgt>
<wgt id='1819'> +5.3803244e-01 </wgt>
<wgt id='1820'> +5.4263667e-01 </wgt>
<wgt id='1821'> +5.4402473e-01 </wgt>
<wgt id='1822'> +5.3661246e-01 </wgt>
<wgt id='1823'> +5.3268374e-01 </wgt>
<wgt id='1824'> +5.2760791e-01 </wgt>
<wgt id='1825'> +5.2930398e-01 </wgt>
<wgt id='1826'> +5.1890783e-01 </wgt>
<wgt id='1827'> +5.2203496e-01 </wgt>
<wgt id='1828'> +5.3751634e-01 </wgt>
<wgt id='1829'> +5.3747816e-01 </wgt>
<wgt id='1830'> +5.2232255e-01 </wgt>
<wgt id='1831'> +5.3759279e-01 </wgt>
<wgt id='1832'> +5.2687846e-01 </wgt>
<wgt id='1833'> +5.2219884e-01 </wgt>
<wgt id='1834'> +5.2102518e-01 </wgt>
<wgt id='1835'> +5.3726678e-01 </wgt>
<wgt id='1836'> +5.4036639e-01 </wgt>
<wgt id='1837'> +5.3618700e-01 </wgt>
<wgt id='1838'> +5.2260618e-01 </wgt>
<wgt id='1839'> +5.5781875e-01 </wgt>
<wgt id='1840'> +5.3345637e-01 </wgt>
<wgt id='1841'> +5.3233228e-01 </wgt>
<wgt id='1842'> +5.3588457e-01 </wgt>
<wgt id='1843'> +5.1646832e-01 </wgt>
<wgt id='1844'> +5.3378526e-01 </wgt>
<wgt id='1845'> +5.3112182e-01 </wgt>
<wgt id='1846'> +5.3617858e-01 </wgt>
<wgt id='1847'> +5.2949640e-01 </wgt>
<wgt id='1848'> +5.3015005e-01 </wgt>
<wgt id='1849'> +5.3176902e-01 </wgt>
<wgt id='1850'> +5.3542224e-01 </wgt>
<wgt id='1851'> +5.3003749e-01 </wgt>
<wgt id='1852'> +5.3318431e-01 </wgt>
<wgt id='1853'> +5.2245104e-01 </wgt>
<wgt id='1854'> +5.3652942e-01 </wgt>
<wgt id='1855'> +5.3308006e-01 </wgt>
<wgt id='1856'> +5.3582810e-01 </wgt>
<wgt id='1857'> +5.4448486e-01 </wgt>
<wgt id='1858'> +5.2830992e-01 </wgt>
<wgt id='1859'> +5.3327573e-01 </wgt>
<wgt id='1860'> +5.3015893e-01 </wgt>
<wgt id='1861'> +5.2469592e-01 </wgt>
<wgt id='1862'> +5.3644185e-01 </wgt>
<wgt id='1863'> +5.2357949e-01 </wgt>
<wgt id='1864'> +5.2792278e-01 </wgt>
<wgt id='1865'> +5.3251032e-01 </wgt>
<wgt id='1866'> +5.3245180e-01 </wgt>
<wgt id='1867'> +5.3382463e-01 </wgt>
<wgt id='1868'> +5.2506069e-01 </wgt>
<wgt id='1869'> +5.4248716e-01 </wgt>
<wgt id='1870'> +5.3160460e-01 </wgt>
<wgt id='1871'> +5.2863944e-01 </wgt>
<wgt id='1872'> +5.1860172e-01 </wgt>
<wgt id='1873'> +5.4083854e-01 </wgt>
<wgt id='1874'> +5.3184586e-01 </wgt>
<wgt id='1875'> +5.2569980e-01 </wgt>
<wgt id='1876'> +5.3043329e-01 </wgt>
<wgt id='1877'> +5.3356390e-01 </wgt>
<wgt id='1878'> +5.2822888e-01 </wgt>
<wgt id='1879'> +5.4395090e-01 </wgt>
<wgt id='1880'> +5.0664613e-01 </wgt>
<wgt id='1881'> +5.3474155e-01 </wgt>
<wgt id='1882'> +5.2472863e-01 </wgt>
<wgt id='1883'> +5.5604847e-01 </wgt>
<wgt id='1884'> +5.2533963e-01 </wgt>
<wgt id='1885'> +5.1922054e-01 </wgt>
<wgt id='1886'> +5.1884799e-01 </wgt>
<wgt id='1887'> +5.3467383e-01 </wgt>
<wgt id='1888'> +5.3703588e-01 </wgt>
<wgt id='1889'> +5.2500971e-01 </wgt>
<wgt id='1890'> +5.4144103e-01 </wgt>
<wgt id='1891'> +5.3399345e-01 </wgt>
<wgt id='1892'> +5.3441438e-01 </wgt>
<wgt id='1893'> +5.2911685e-01 </wgt>
<wgt id='1894'> +5.3868909e-01 </wgt>
<wgt id='1895'> +5.3833271e-01 </wgt>
<wgt id='1896'> +5.2501975e-01 </wgt>
<wgt id='1897'> +5.3440064e-01 </wgt>
<wgt id='1898'> +5.3367563e-01 </wgt>
<wgt id='1899'> +5.2889132e-01 </wgt>
<wgt id='1900'> +5.3147116e-01 </wgt>
<wgt id='1901'> +5.2044508e-01 </wgt>
<wgt id='1902'> +5.2047146e-01 </wgt>
<wgt id='1903'> +5.2699737e-01 </wgt>
<wgt id='1904'> +5.3587630e-01 </wgt>
<wgt id='1905'> +5.3226354e-01 </wgt>
<wgt id='1906'> +5.2354771e-01 </wgt>
<wgt id='1907'> +5.3076361e-01 </wgt>
<wgt id='1908'> +5.3616050e-01 </wgt>
<wgt id='1909'> +5.2694216e-01 </wgt>
<wgt id='1910'> +5.3626987e-01 </wgt>
<wgt id='1911'> +5.0895557e-01 </wgt>
<wgt id='1912'> +5.3322316e-01 </wgt>
<wgt id='1913'> +5.3073031e-01 </wgt>
<wgt id='1914'> +5.4423788e-01 </wgt>
<wgt id='1915'> +5.4114711e-01 </wgt>
<wgt id='1916'> +5.1448860e-01 </wgt>
<wgt id='1917'> +5.3743129e-01 </wgt>
<wgt id='1918'> +5.6309347e-01 </wgt>
<wgt id='1919'> +5.3137906e-01 </wgt>
<wgt id='1920'> +5.3938089e-01 </wgt>
<wgt id='1921'> +5.2598417e-01 </wgt>
<wgt id='1922'> +5.3803244e-01 </wgt>
<wgt id='1923'> +5.4263667e-01 </wgt>
<wgt id='1924'> +5.4402473e-01 </wgt>
<wgt id='1925'> +5.3661246e-01 </wgt>
<wgt id='1926'> +5.3268374e-01 </wgt>
<wgt id='1927'> +5.2760791e-01 </wgt>
<wgt id='1928'> +5.2930398e-01 </wgt>
<wgt id='1929'> +5.1890783e-01 </wgt>
<wgt id='1930'> +5.2203496e-01 </wgt>
<wgt id='1931'> +5.3751634e-01 </wgt>
<wgt id='1932'> +5.3747816e-01 </wgt>
<wgt id='1933'> +5.2232255e-01 </wgt>
<wgt id='1934'> +5.3759279e-01 </wgt>
<wgt id='1935'> +5.2687846e-01 </wgt>
<wgt id='1936'> +5.2219884e-01 </wgt>
<wgt id='1937'> +5.2102518e-01 </wgt>
<wgt id='1938'> +5.3726678e-01 </wgt>
<wgt id='1939'> +5.4036639e-01 </wgt>
<wgt id='1940'> +5.3618700e-01 </wgt>
<wgt id='1941'> +5.2260618e-01 </wgt>
<wgt id='1942'> +5.5781875e-01 </wgt>
<wgt id='1943'> +5.3345637e-01 </wgt>
<wgt id='1944'> +5.3233228e-01 </wgt>
<wgt id='1945'> +5.3588457e-01 </wgt>
<wgt id='1946'> +5.1646832e-01 </wgt>
<wgt id='1947'> +5.3378526e-01 </wgt>
<wgt id='1948'> +5.3112182e-01 </wgt>
<wgt id='1949'> +5.3617858e-01 </wgt>
<wgt id='1950'> +5.2949640e-01 </wgt>
<wgt id='1951'> +5.3015005e-01 </wgt>
<wgt id='1952'> +5.3176902e-01 </wgt>
<wgt id='1953'> +5.3542224e-01 </wgt>
<wgt id='1954'> +5.3003749e-01 </wgt>
<wgt id='1955'> +5.3318431e-01 </wgt>
<wgt id='1956'> +5.2245104e-01 </wgt>
<wgt id='1957'> +5.3652942e-01 </wgt>
<wgt id='1958'> +5.3308006e-01 </wgt>
<wgt id='1959'> +5.3582810e-01 </wgt>
<wgt id='1960'> +5.4448486e-01 </wgt>
<wgt id='1961'> +5.2830992e-01 </wgt>
<wgt id='1962'> +5.3327573e-01 </wgt>
<wgt id='1963'> +5.3015893e-01 </wgt>
<wgt id='1964'> +5.2469592e-01 </wgt>
<wgt id='1965'> +5.3644185e-01 </wgt>
<wgt id='1966'> +5.2357949e-01 </wgt>
<wgt id='1967'> +5.2792278e-01 </wgt>
<wgt id='1968'> +5.3251032e-01 </wgt>
<wgt id='1969'> +5.3245180e-01 </wgt>
<wgt id='1970'> +5.3382463e-01 </wgt>
<wgt id='1971'> +5.2506069e-01 </wgt>
<wgt id='1972'> +5.4248716e-01 </wgt>
<wgt id='1973'> +5.3160460e-01 </wgt>
<wgt id='1974'> +5.2863944e-01 </wgt>
<wgt id='1975'> +5.1860172e-01 </wgt>
<wgt id='1976'> +5.4083854e-01 </wgt>
<wgt id='1977'> +5.3184586e-01 </wgt>
<wgt id='1978'> +5.2569980e-01 </wgt>
<wgt id='1979'> +5.3043329e-01 </wgt>
<wgt id='1980'> +5.3356390e-01 </wgt>
<wgt id='1981'> +5.2822888e-01 </wgt>
<wgt id='1982'> +5.4395090e-01 </wgt>
<wgt id='1983'> +5.0664613e-01 </wgt>
<wgt id='1984'> +5.3474155e-01 </wgt>
<wgt id='1985'> +5.2472863e-01 </wgt>
<wgt id='1986'> +5.5604847e-01 </wgt>
<wgt id='1987'> +5.2533963e-01 </wgt>
<wgt id='1988'> +5.1922054e-01 </wgt>
<wgt id='1989'> +5.1884799e-01 </wgt>
<wgt id='1990'> +5.3467383e-01 </wgt>
<wgt id='1991'> +5.3703588e-01 </wgt>
<wgt id='1992'> +5.2500971e-01 </wgt>
<wgt id='1993'> +5.4144103e-01 </wgt>
<wgt id='1994'> +5.3399345e-01 </wgt>
<wgt id='1995'> +5.3441438e-01 </wgt>
<wgt id='1996'> +5.2911685e-01 </wgt>
<wgt id='1997'> +5.3868909e-01 </wgt>
<wgt id='1998'> +5.3833271e-01 </wgt>
<wgt id='1999'> +5.2501975e-01 </wgt>
<wgt id='2000'> +5.3440064e-01 </wgt>
<wgt id='2001'> +5.3367563e-01 </wgt>
<wgt id='2002'> +5.2889132e-01 </wgt>
<wgt id='2003'> +5.3147116e-01 </wgt>
<wgt id='2004'> +5.2044508e-01 </wgt>
<wgt id='2005'> +5.2047146e-01 </wgt>
<wgt id='2006'> +5.2699737e-01 </wgt>
<wgt id='2007'> +5.3587630e-01 </wgt>
<wgt id='2008'> +5.3226354e-01 </wgt>
<wgt id='2009'> +5.2354771e-01 </wgt>
<wgt id='2010'> +5.3076361e-01 </wgt>
<wgt id='2011'> +5.3616050e-01 </wgt>
<wgt id='2012'> +5.2694216e-01 </wgt>
<wgt id='2013'> +5.3626987e-01 </wgt>
<wgt id='2014'> +5.0895557e-01 </wgt>
<wgt id='2015'> +5.3322316e-01 </wgt>
<wgt id='2016'> +5.3073031e-01 </wgt>
<wgt id='2017'> +5.4423788e-01 </wgt>
<wgt id='2018'> +5.4114711e-01 </wgt>
<wgt id='2019'> +5.1448860e-01 </wgt>
<wgt id='2020'> +5.3004264e-01 </wgt>
<wgt id='2021'> +5.3233498e-01 </wgt>
<wgt id='2022'> +5.3173723e-01 </wgt>
</rwgt>
</event>
<event>
 13 1 0.0079112 4.18377700e+02 7.81860800e-03 9.51496400e-02
       21 -1    0    0  502  503 +0.0000000000e+00 +0.0000000000e+00 +5.4440240656e+02 5.4440240656e+02 0.0000000000e+00 0.0000e+00 -1.0000e+00
        2 -1    0    0  501    0 +0.0000000000e+00 +0.0000000000e+00 -1.3276537280e+03 1.3276537280e+03 2.5500000000e-03 0.0000e+00 -1.0000e+00
  8000001  2    1    2  502    0 +1.6855882496e+02 +3.1178080004e+02 +4.1823422106e+01 6.9811629568e+02 5.9999818242e+02 0.0000e+00 0.0000e+00
        1  1    1    2  501    0 -1.9672381288e+02 -5.9594408648e+01 -8.8880423359e+02 9.1226351334e+02 5.0400000000e-03 0.0000e+00 -1.0000e+00
       -5  1    1    2    0  503 +2.8164987919e+01 -2.5218639139e+02 +6.3729490049e+01 2.6167632554e+02 4.6700000000e+00 0.0000e+00 1.0000e+00
        6  2    3    3  502    0 -6.1443239446e+01 +3.3183595972e+02 +1.7224062842e+02 4.1697671340e+02 1.7410447898e+02 0.0000e+00 0.0000e+00
        5  1    6    6  502    0 +3.9475125785e+01 +1.5448549027e+02 +7.4156839966e+01 1.7591218853e+02 4.6700000000e+00 0.0000e+00 -1.0000e+00
       24  2    6    6    0    0 -1.0091836523e+02 +1.7735046945e+02 +9.8083788455e+01 2.4106452487e+02 8.2788707788e+01 0.0000e+00 0.0000e+00
       12  1    8    8    0    0 +6.4181524403e+00 +2.0432186833e+01 -8.5784591040e+00 2.3070693533e+01 0.0000000000e+00 0.0000e+00 -1.0000e+00
      -11  1    8    8    0    0 -1.0733651767e+02 +1.5691828262e+02 +1.0666224756e+02 2.1799383133e+02 5.1100000000e-04 0.0000e+00 1.0000e+00
       23  2    3    3    0    0 +2.3000206440e+02 -2.0055159683e+01 -1.3041720631e+02 2.8113958228e+02 9.3421935110e+01 0.0000e+00 0.0000e+00
       13  1   11   11    0    0 +1.0972106252e+02 -2.1085519363e+01 -1.2042420210e+01 1.1237589482e+02 1.0566000000e-01 0.0000e+00 1.0000e+00
      -13  1   11   11    0    0 +1.2028100188e+02 +1.0303596804e+00 -1.1837478610e+02 1.6876368746e+02 1.0566000000e-01 0.0000e+00 -1.0000e+00
<mgrwt>
<rscale>  1 0.29325502e+03</rscale>
<asrwt>0</asrwt>
<pdfrwt beam="1">  1       21 0.83754217e-01 0.41837773e+03</pdfrwt>
<pdfrwt beam="2">  1        2 0.20425442e+00 0.20555231e+03</pdfrwt>
<totfact> 0.28653915e+02</totfact>
</mgrwt>
<rwgt>
<wgt id='1001'> +5.2878984e-01 </wgt>
<wgt id='1002'> +3.8390713e-01 </wgt>
<wgt id='1003'> +3.8390587e-01 </wgt>
<wgt id='1004'> +4.5487204e-01 </wgt>
<wgt id='1005'> +3.4444233e-01 </wgt>
<wgt id='1006'> +4.8440552e-01 </wgt>
<wgt id='1007'> +3.5619636e-01 </wgt>
<wgt id='1008'> +3.5619523e-01 </wgt>
<wgt id='1009'> +4.1936615e-01 </wgt>
<wgt id='1010'> +3.2078523e-01 </wgt>
<wgt id='1011'> +5.8240032e-01 </wgt>
<wgt id='1012'> +4.1641091e-01 </wgt>
<wgt id='1013'> +4.1640949e-01 </wgt>
<wgt id='1014'> +4.9712700e-01 </wgt>
<wgt id='1015'> +3.7195523e-01 </wgt>
<wgt id='1016'> +4.8167087e-01 </wgt>
<wgt id='1017'> +3.5321876e-01 </wgt>
<wgt id='1018'> +3.5321763e-01 </wgt>
<wgt id='1019'> +4.1640949e-01 </wgt>
<wgt id='1020'> +3.1788068e-01 </wgt>
<wgt id='1021'> +4.4124151e-01 </wgt>
<wgt id='1022'> +3.2772310e-01 </wgt>
<wgt id='1023'> +3.2772210e-01 </wgt>
<wgt id='1024'> +3.8390587e-01 </wgt>
<wgt id='1025'> +2.9604790e-01 </wgt>
<wgt id='1026'> +5.3050427e-01 </wgt>
<wgt id='1027'> +3.8312429e-01 </wgt>
<wgt id='1028'> +3.8312301e-01 </wgt>
<wgt id='1029'> +4.5509151e-01 </wgt>
<wgt id='1030'> +3.4327192e-01 </wgt>
<wgt id='1031'> +5.8436660e-01 </wgt>
<wgt id='1032'> +4.1936758e-01 </wgt>
<wgt id='1033'> +4.1936615e-01 </wgt>
<wgt id='1034'> +5.0008785e-01 </wgt>
<wgt id='1035'> +3.7501760e-01 </wgt>
<wgt id='1036'> +5.3531740e-01 </wgt>
<wgt id='1037'> +3.8909725e-01 </wgt>
<wgt id='1038'> +3.8909597e-01 </wgt>
<wgt id='1039'> +4.6105256e-01 </wgt>
<wgt id='1040'> +3.4926053e-01 </wgt>
<wgt id='1041'> +6.4361163e-01 </wgt>
<wgt id='1042'> +4.5487365e-01 </wgt>
<wgt id='1043'> +4.5487204e-01 </wgt>
<wgt id='1044'> +5.4654310e-01 </wgt>
<wgt id='1045'> +4.0497275e-01 </wgt>
<wgt id='1046'> +5.2878984e-01 </wgt>
<wgt id='1047'> +5.2878984e-01 </wgt>
<wgt id='1048'> +5.2878984e-01 </wgt>
<wgt id='1049'> +5.2787457e-01 </wgt>
<wgt id='1050'> +5.2862884e-01 </wgt>
<wgt id='1051'> +5.3082801e-01 </wgt>
<wgt id='1052'> +5.2770174e-01 </wgt>
<wgt id='1053'> +5.2994697e-01 </wgt>
<wgt id='1054'> +5.2809176e-01 </wgt>
<wgt id='1055'> +5.2735990e-01 </wgt>
<wgt id='1056'> +5.2720904e-01 </wgt>
<wgt id='1057'> +5.2923535e-01 </wgt>
<wgt id='1058'> +5.2849531e-01 </wgt>
<wgt id='1059'> +5.3042455e-01 </wgt>
<wgt id='1060'> +5.2707621e-01 </wgt>
<wgt id='1061'> +5.2913527e-01 </wgt>
<wgt id='1062'> +5.2940934e-01 </wgt>
<wgt id='1063'> +5.2829763e-01 </wgt>
<wgt id='1064'> +5.3001651e-01 </wgt>
<wgt id='1065'> +5.3075522e-01 </wgt>
<wgt id='1066'> +5.2688801e-01 </wgt>
<wgt id='1067'> +5.2553571e-01 </wgt>
<wgt id='1068'> +5.2840341e-01 </wgt>
<wgt id='1069'> +5.2732006e-01 </wgt>
<wgt id='1070'> +5.3010116e-01 </wgt>
<wgt id='1071'> +5.2950053e-01 </wgt>
<wgt id='1072'> +5.2855611e-01 </wgt>
<wgt id='1073'> +5.2844091e-01 </wgt>
<wgt id='1074'> +5.2877712e-01 </wgt>
<wgt id='1075'> +5.2696163e-01 </wgt>
<wgt id='1076'> +5.2986926e-01 </wgt>
<wgt id='1077'> +5.3053724e-01 </wgt>
<wgt id='1078'> +5.2916893e-01 </wgt>
<wgt id='1079'> +5.3108124e-01 </wgt>
<wgt id='1080'> +5.2986204e-01 </wgt>
<wgt id='1081'> +5.2940695e-01 </wgt>
<wgt id='1082'> +5.2912745e-01 </wgt>
<wgt id='1083'> +5.2838641e-01 </wgt>
<wgt id='1084'> +5.2802849e-01 </wgt>
<wgt id='1085'> +5.3026903e-01 </wgt>
<wgt id='1086'> +5.2737563e-01 </wgt>
<wgt id='1087'> +5.2862384e-01 </wgt>
<wgt id='1088'> +5.2955227e-01 </wgt>
<wgt id='1089'> +5.2893934e-01 </wgt>
<wgt id='1090'> +5.2928050e-01 </wgt>
<wgt id='1091'> +5.2816464e-01 </wgt>
<wgt id='1092'> +5.2773165e-01 </wgt>
<wgt id='1093'> +5.2858103e-01 </wgt>
<wgt id='1094'> +5.2845056e-01 </wgt>
<wgt id='1095'> +5.2789759e-01 </wgt>
<wgt id='1096'> +5.2770107e-01 </wgt>
<wgt id='1097'> +5.2840627e-01 </wgt>
<wgt id='1098'> +5.2843705e-01 </wgt>
<wgt id='1099'> +5.2849384e-01 </wgt>
<wgt id='1100'> +5.2910397e-01 </wgt>
<wgt id='1101'> +5.2855641e-01 </wgt>
<wgt id='1102'> +5.2908494e-01 </wgt>
<wgt id='1103'> +5.2910975e-01 </wgt>
<wgt id='1104'> +5.2883142e-01 </wgt>
<wgt id='1105'> +5.2934214e-01 </wgt>
<wgt id='1106'> +5.2920521e-01 </wgt>
<wgt id='1107'> +5.2867132e-01 </wgt>
<wgt id='1108'> +5.2893579e-01 </wgt>
<wgt id='1109'> +5.2898189e-01 </wgt>
<wgt id='1110'> +5.2878361e-01 </wgt>
<wgt id='1111'> +5.2854629e-01 </wgt>
<wgt id='1112'> +5.2894823e-01 </wgt>
<wgt id='1113'> +5.2900170e-01 </wgt>
<wgt id='1114'> +5.2757700e-01 </wgt>
<wgt id='1115'> +5.2905932e-01 </wgt>
<wgt id='1116'> +5.2877741e-01 </wgt>
<wgt id='1117'> +5.2890820e-01 </wgt>
<wgt id='1118'> +5.2858571e-01 </wgt>
<wgt id='1119'> +5.2880436e-01 </wgt>
<wgt id='1120'> +5.2860933e-01 </wgt>
<wgt id='1121'> +5.2946647e-01 </wgt>
<wgt id='1122'> +5.2858792e-01 </wgt>
<wgt id='1123'> +5.2890945e-01 </wgt>
<wgt id='1124'> +5.2869527e-01 </wgt>
<wgt id='1125'> +5.2872250e-01 </wgt>
<wgt id='1126'> +5.2869973e-01 </wgt>
<wgt id='1127'> +5.2927266e-01 </wgt>
<wgt id='1128'> +5.2876288e-01 </wgt>
<wgt id='1129'> +5.2892943e-01 </wgt>
<wgt id='1130'> +5.2898271e-01 </wgt>
<wgt id='1131'> +5.2918705e-01 </wgt>
<wgt id='1132'> +5.2867307e-01 </wgt>
<wgt id='1133'> +5.2908082e-01 </wgt>
<wgt id='1134'> +5.2863001e-01 </wgt>
<wgt id='1135'> +5.2907098e-01 </wgt>
<wgt id='1136'> +5.2886668e-01 </wgt>
<wgt id='1137'> +5.2881676e-01 </wgt>
<wgt id='1138'> +5.2909764e-01 </wgt>
<wgt id='1139'> +5.2874528e-01 </wgt>
<wgt id='1140'> +5.2915346e-01 </wgt>
<wgt id='1141'> +5.2877126e-01 </wgt>
<wgt id='1142'> +5.2894674e-01 </wgt>
<wgt id='1143'> +5.2916114e-01 </wgt>
<wgt id='1144'> +5.2862957e-01 </wgt>
<wgt id='1145'> +5.2873040e-01 </wgt>
<wgt id='1146'> +5.2866204e-01 </wgt>
<wgt id='1147'> +5.2905553e-01 </wgt>
<wgt id='1148'> +5.2878984e-01 </wgt>
<wgt id='1149'> +4.9072062e-01 </wgt>
<wgt id='1150'> +4.9601922e-01 </wgt>
<wgt id='1151'> +4.8972758e-01 </wgt>
<wgt id='1152'> +4.8385704e-01 </wgt>
<wgt id='1153'> +4.8770264e-01 </wgt>
<wgt id='1154'> +4.9645200e-01 </wgt>
<wgt id='1155'> +4.9616326e-01 </wgt>
<wgt id='1156'> +4.9591314e-01 </wgt>
<wgt id='1157'> +4.9700431e-01 </wgt>
<wgt id='1158'> +4.8623323e-01 </wgt>
<wgt id='1159'> +4.6789550e-01 </wgt>
<wgt id='1160'> +4.8483775e-01 </wgt>
<wgt id='1161'> +4.9804429e-01 </wgt>
<wgt id='1162'> +4.7988019e-01 </wgt>
<wgt id='1163'> +5.0388181e-01 </wgt>
<wgt id='1164'> +4.8504738e-01 </wgt>
<wgt id='1165'> +4.8449321e-01 </wgt>
<wgt id='1166'> +4.8979874e-01 </wgt>
<wgt id='1167'> +4.9517575e-01 </wgt>
<wgt id='1168'> +4.8659337e-01 </wgt>
<wgt id='1169'> +4.8036137e-01 </wgt>
<wgt id='1170'> +4.9220992e-01 </wgt>
<wgt id='1171'> +4.8946881e-01 </wgt>
<wgt id='1172'> +4.9326593e-01 </wgt>
<wgt id='1173'> +4.9312896e-01 </wgt>
<wgt id='1174'> +4.9909841e-01 </wgt>
<wgt id='1175'> +4.9638323e-01 </wgt>
<wgt id='1176'> +4.6988053e-01 </wgt>
<wgt id='1177'> +4.9714460e-01 </wgt>
<wgt id='1178'> +4.8916796e-01 </wgt>
<wgt id='1179'> +4.8070705e-01 </wgt>
<wgt id='1180'> +4.8920083e-01 </wgt>
<wgt id='1181'> +4.8945411e-01 </wgt>
<wgt id='1182'> +4.9653061e-01 </wgt>
<wgt id='1183'> +4.9601928e-01 </wgt>
<wgt id='1184'> +4.8169385e-01 </wgt>
<wgt id='1185'> +4.9671436e-01 </wgt>
<wgt id='1186'> +4.8173121e-01 </wgt>
<wgt id='1187'> +4.9181003e-01 </wgt>
<wgt id='1188'> +4.8204992e-01 </wgt>
<wgt id='1189'> +4.9800556e-01 </wgt>
<wgt id='1190'> +4.9211352e-01 </wgt>
<wgt id='1191'> +5.0077107e-01 </wgt>
<wgt id='1192'> +4.8826866e-01 </wgt>
<wgt id='1193'> +4.9808395e-01 </wgt>
<wgt id='1194'> +4.9632071e-01 </wgt>
<wgt id='1195'> +4.8969931e-01 </wgt>
<wgt id='1196'> +4.9413460e-01 </wgt>
<wgt id='1197'> +5.0186822e-01 </wgt>
<wgt id='1198'> +4.8375738e-01 </wgt>
<wgt id='1199'> +4.8083184e-01 </wgt>
<wgt id='1200'> +4.9374644e-01 </wgt>
<wgt id='1201'> +4.9500904e-01 </wgt>
<wgt id='1202'> +4.9439185e-01 </wgt>
<wgt id='1203'> +4.9169677e-01 </wgt>
<wgt id='1204'> +5.0556751e-01 </wgt>
<wgt id='1205'> +4.8822401e-01 </wgt>
<wgt id='1206'> +4.8934913e-01 </wgt>
<wgt id='1207'> +5.0284518e-01 </wgt>
<wgt id='1208'> +4.8920550e-01 </wgt>
<wgt id='1209'> +4.9824068e-01 </wgt>
<wgt id='1210'> +4.7813558e-01 </wgt>
<wgt id='1211'> +4.9057913e-01 </wgt>
<wgt id='1212'> +4.8947226e-01 </wgt>
<wgt id='1213'> +5.0556235e-01 </wgt>
<wgt id='1214'> +4.9106254e-01 </wgt>
<wgt id='1215'> +4.9919188e-01 </wgt>
<wgt id='1216'> +4.9502994e-01 </wgt>
<wgt id='1217'> +4.7909579e-01 </wgt>
<wgt id='1218'> +4.9329606e-01 </wgt>
<wgt id='1219'> +4.9303337e-01 </wgt>
<wgt id='1220'> +4.8819727e-01 </wgt>
<wgt id='1221'> +4.6473892e-01 </wgt>
<wgt id='1222'> +4.9078178e-01 </wgt>
<wgt id='1223'> +4.7660050e-01 </wgt>
<wgt id='1224'> +4.8442726e-01 </wgt>
<wgt id='1225'> +4.9521624e-01 </wgt>
<wgt id='1226'> +4.8615489e-01 </wgt>
<wgt id='1227'> +4.9249428e-01 </wgt>
<wgt id='1228'> +4.8963080e-01 </wgt>
<wgt id='1229'> +4.9144661e-01 </wgt>
<wgt id='1230'> +4.9916583e-01 </wgt>
<wgt id='1231'> +4.8449321e-01 </wgt>
<wgt id='1232'> +4.8323083e-01 </wgt>
<wgt id='1233'> +4.8903966e-01 </wgt>
<wgt id='1234'> +4.8643944e-01 </wgt>
<wgt id='1235'> +4.9373586e-01 </wgt>
<wgt id='1236'> +4.9321819e-01 </wgt>
<wgt id='1237'> +4.8588266e-01 </wgt>
<wgt id='1238'> +4.7735625e-01 </wgt>
<wgt id='1239'> +5.0703865e-01 </wgt>
<wgt id='1240'> +5.0387808e-01 </wgt>
<wgt id='1241'> +4.9146257e-01 </wgt>
<wgt id='1242'> +4.8686502e-01 </wgt>
<wgt id='1243'> +4.8971574e-01 </wgt>
<wgt id='1244'> +4.9211447e-01 </wgt>
<wgt id='1245'> +4.9959249e-01 </wgt>
<wgt id='1246'> +4.9634377e-01 </wgt>
<wgt id='1247'> +4.8832677e-01 </wgt>
<wgt id='1248'> +4.9136631e-01 </wgt>
<wgt id='1249'> +4.9335302e-01 </wgt>
<wgt id='1250'> +5.2193888e-01 </wgt>
<wgt id='1251'> +5.1291839e-01 </wgt>
<wgt id='1252'> +5.3664207e-01 </wgt>
<wgt id='1253'> +5.3191461e-01 </wgt>
<wgt id='1254'> +5.2673608e-01 </wgt>
<wgt id='1255'> +5.2644978e-01 </wgt>
<wgt id='1256'> +5.3018426e-01 </wgt>
<wgt id='1257'> +5.2431482e-01 </wgt>
<wgt id='1258'> +5.2568128e-01 </wgt>
<wgt id='1259'> +5.2684139e-01 </wgt>
<wgt id='1260'> +5.2737890e-01 </wgt>
<wgt id='1261'> +5.2520242e-01 </wgt>
<wgt id='1262'> +5.2713476e-01 </wgt>
<wgt id='1263'> +5.2599027e-01 </wgt>
<wgt id='1264'> +5.2649043e-01 </wgt>
<wgt id='1265'> +5.2641808e-01 </wgt>
<wgt id='1266'> +5.2670859e-01 </wgt>
<wgt id='1267'> +5.2618456e-01 </wgt>
<wgt id='1268'> +5.3221804e-01 </wgt>
<wgt id='1269'> +5.2074419e-01 </wgt>
<wgt id='1270'> +5.2330783e-01 </wgt>
<wgt id='1271'> +5.2964094e-01 </wgt>
<wgt id='1272'> +5.2579626e-01 </wgt>
<wgt id='1273'> +5.2694307e-01 </wgt>
<wgt id='1274'> +5.2684581e-01 </wgt>
<wgt id='1275'> +5.2599042e-01 </wgt>
<wgt id='1276'> +5.2883287e-01 </wgt>
<wgt id='1277'> +5.2407624e-01 </wgt>
<wgt id='1278'> +5.2318190e-01 </wgt>
<wgt id='1279'> +5.2909622e-01 </wgt>
<wgt id='1280'> +5.2608362e-01 </wgt>
<wgt id='1281'> +5.2737679e-01 </wgt>
<wgt id='1282'> +5.2717226e-01 </wgt>
<wgt id='1283'> +5.2524033e-01 </wgt>
<wgt id='1284'> +5.2565752e-01 </wgt>
<wgt id='1285'> +5.2713279e-01 </wgt>
<wgt id='1286'> +5.2832855e-01 </wgt>
<wgt id='1287'> +5.2636374e-01 </wgt>
<wgt id='1288'> +5.2695939e-01 </wgt>
<wgt id='1289'> +5.2610042e-01 </wgt>
<wgt id='1290'> +5.2733235e-01 </wgt>
<wgt id='1291'> +5.2612591e-01 </wgt>
<wgt id='1292'> +5.2983190e-01 </wgt>
<wgt id='1293'> +5.2250353e-01 </wgt>
<wgt id='1294'> +5.2491884e-01 </wgt>
<wgt id='1295'> +5.2585448e-01 </wgt>
<wgt id='1296'> +5.3014243e-01 </wgt>
<wgt id='1297'> +5.3155108e-01 </wgt>
<wgt id='1298'> +5.2902794e-01 </wgt>
<wgt id='1299'> +5.2833067e-01 </wgt>
<wgt id='1300'> +5.3219383e-01 </wgt>
<wgt id='1301'> +5.2879604e-01 </wgt>
<wgt id='1302'> +5.3219076e-01 </wgt>
<wgt id='1303'> +5.2962464e-01 </wgt>
<wgt id='1304'> +5.3051380e-01 </wgt>
<wgt id='1305'> +5.3071102e-01 </wgt>
<wgt id='1306'> +5.2937192e-01 </wgt>
<wgt id='1307'> +5.3295061e-01 </wgt>
<wgt id='1308'> +5.2842125e-01 </wgt>
<wgt id='1309'> +5.3028774e-01 </wgt>
<wgt id='1310'> +5.2998374e-01 </wgt>
<wgt id='1311'> +5.3531833e-01 </wgt>
<wgt id='1312'> +5.2828248e-01 </wgt>
<wgt id='1313'> +5.2683832e-01 </wgt>
<wgt id='1314'> +5.3423267e-01 </wgt>
<wgt id='1315'> +5.3071893e-01 </wgt>
<wgt id='1316'> +5.2963147e-01 </wgt>
<wgt id='1317'> +5.3109440e-01 </wgt>
<wgt id='1318'> +5.2902697e-01 </wgt>
<wgt id='1319'> +5.2860431e-01 </wgt>
<wgt id='1320'> +5.3128428e-01 </wgt>
<wgt id='1321'> +5.2671217e-01 </wgt>
<wgt id='1322'> +5.3186786e-01 </wgt>
<wgt id='1323'> +5.2911277e-01 </wgt>
<wgt id='1324'> +5.3106444e-01 </wgt>
<wgt id='1325'> +5.3058956e-01 </wgt>
<wgt id='1326'> +5.2969383e-01 </wgt>
<wgt id='1327'> +5.2992938e-01 </wgt>
<wgt id='1328'> +5.3027086e-01 </wgt>
<wgt id='1329'> +5.3038556e-01 </wgt>
<wgt id='1330'> +5.3004055e-01 </wgt>
<wgt id='1331'> +5.3174090e-01 </wgt>
<wgt id='1332'> +5.2986696e-01 </wgt>
<wgt id='1333'> +5.3291849e-01 </wgt>
<wgt id='1334'> +5.2990452e-01 </wgt>
<wgt id='1335'> +5.3245630e-01 </wgt>
<wgt id='1336'> +5.2957513e-01 </wgt>
<wgt id='1337'> +5.3014243e-01 </wgt>
<wgt id='1338'> +5.3111974e-01 </wgt>
<wgt id='1339'> +5.3073424e-01 </wgt>
<wgt id='1340'> +5.3038425e-01 </wgt>
<wgt id='1341'> +5.2977503e-01 </wgt>
<wgt id='1342'> +5.2948717e-01 </wgt>
<wgt id='1343'> +5.2924214e-01 </wgt>
<wgt id='1344'> +5.3087623e-01 </wgt>
<wgt id='1345'> +5.3308531e-01 </wgt>
<wgt id='1346'> +5.2871105e-01 </wgt>
<wgt id='1347'> +5.3441724e-01 </wgt>
<wgt id='1348'> +5.2824640e-01 </wgt>
<wgt id='1349'> +5.2991273e-01 </wgt>
<wgt id='1350'> +5.3170808e-01 </wgt>
<wgt id='1351'> +5.3089803e-01 </wgt>
<wgt id='1352'> +5.3087725e-01 </wgt>
<wgt id='1353'> +5.3239809e-01 </wgt>
<wgt id='1354'> +5.2982216e-01 </wgt>
<wgt id='1355'> +5.3027170e-01 </wgt>
<wgt id='1356'> +5.3132859e-01 </wgt>
<wgt id='1357'> +5.3211353e-01 </wgt>
<wgt id='1358'> +5.3014010e-01 </wgt>
<wgt id='1359'> +5.2857424e-01 </wgt>
<wgt id='1360'> +5.3664358e-01 </wgt>
<wgt id='1361'> +5.2771612e-01 </wgt>
<wgt id='1362'> +5.3400070e-01 </wgt>
<wgt id='1363'> +5.3027056e-01 </wgt>
<wgt id='1364'> +5.3162587e-01 </wgt>
<wgt id='1365'> +5.3022019e-01 </wgt>
<wgt id='1366'> +5.3120290e-01 </wgt>
<wgt id='1367'> +5.2679400e-01 </wgt>
<wgt id='1368'> +5.3290429e-01 </wgt>
<wgt id='1369'> +5.3209969e-01 </wgt>
<wgt id='1370'> +5.2987024e-01 </wgt>
<wgt id='1371'> +5.3098546e-01 </wgt>
<wgt id='1372'> +5.3059180e-01 </wgt>
<wgt id='1373'> +5.3332592e-01 </wgt>
<wgt id='1374'> +5.3074200e-01 </wgt>
<wgt id='1375'> +5.3141830e-01 </wgt>
<wgt id='1376'> +5.3084368e-01 </wgt>
<wgt id='1377'> +5.3075874e-01 </wgt>
<wgt id='1378'> +5.3117283e-01 </wgt>
<wgt id='1379'> +5.3108794e-01 </wgt>
<wgt id='1380'> +5.3175288e-01 </wgt>
<wgt id='1381'> +5.2834969e-01 </wgt>
<wgt id='1382'> +5.3402590e-01 </wgt>
<wgt id='1383'> +5.3017549e-01 </wgt>
<wgt id='1384'> +5.3509786e-01 </wgt>
<wgt id='1385'> +5.3087623e-01 </wgt>
<wgt id='1386'> +5.3185375e-01 </wgt>
<wgt id='1387'> +5.3145475e-01 </wgt>
<wgt id='1388'> +5.3108315e-01 </wgt>
<wgt id='1389'> +5.3046687e-01 </wgt>
<wgt id='1390'> +5.3016905e-01 </wgt>
<wgt id='1391'> +5.2990727e-01 </wgt>
<wgt id='1392'> +5.5215892e-01 </wgt>
<wgt id='1393'> +5.5233061e-01 </wgt>
<wgt id='1394'> +5.5193505e-01 </wgt>
<wgt id='1395'> +5.5256362e-01 </wgt>
<wgt id='1396'> +5.5182621e-01 </wgt>
<wgt id='1397'> +5.5439046e-01 </wgt>
<wgt id='1398'> +5.4993481e-01 </wgt>
<wgt id='1399'> +5.5420610e-01 </wgt>
<wgt id='1400'> +5.4956988e-01 </wgt>
<wgt id='1401'> +5.5018600e-01 </wgt>
<wgt id='1402'> +5.5456862e-01 </wgt>
<wgt id='1403'> +5.5161890e-01 </wgt>
<wgt id='1404'> +5.5319271e-01 </wgt>
<wgt id='1405'> +5.5142897e-01 </wgt>
<wgt id='1406'> +5.5310517e-01 </wgt>
<wgt id='1407'> +5.5207593e-01 </wgt>
<wgt id='1408'> +5.5216268e-01 </wgt>
<wgt id='1409'> +5.5480748e-01 </wgt>
<wgt id='1410'> +5.4908156e-01 </wgt>
<wgt id='1411'> +5.5116574e-01 </wgt>
<wgt id='1412'> +5.5290347e-01 </wgt>
<wgt id='1413'> +5.5391155e-01 </wgt>
<wgt id='1414'> +5.5026544e-01 </wgt>
<wgt id='1415'> +5.5430020e-01 </wgt>
<wgt id='1416'> +5.4981598e-01 </wgt>
<wgt id='1417'> +5.4765434e-01 </wgt>
<wgt id='1418'> +5.5762679e-01 </wgt>
<wgt id='1419'> +5.5190910e-01 </wgt>
<wgt id='1420'> +5.5184780e-01 </wgt>
<wgt id='1421'> +5.5081246e-01 </wgt>
<wgt id='1422'> +5.5376556e-01 </wgt>
<wgt id='1423'> +5.4853204e-01 </wgt>
<wgt id='1424'> +5.5459481e-01 </wgt>
<wgt id='1425'> +5.5250609e-01 </wgt>
<wgt id='1426'> +5.5165898e-01 </wgt>
<wgt id='1427'> +5.5199845e-01 </wgt>
<wgt id='1428'> +5.4906165e-01 </wgt>
<wgt id='1429'> +5.5122639e-01 </wgt>
<wgt id='1430'> +5.5281945e-01 </wgt>
<wgt id='1431'> +5.5106635e-01 </wgt>
<wgt id='1432'> +5.5300351e-01 </wgt>
<wgt id='1433'> +5.4851689e-01 </wgt>
<wgt id='1434'> +5.5593033e-01 </wgt>
<wgt id='1435'> +5.5110053e-01 </wgt>
<wgt id='1436'> +5.5327888e-01 </wgt>
<wgt id='1437'> +5.5135074e-01 </wgt>
<wgt id='1438'> +5.5406192e-01 </wgt>
<wgt id='1439'> +5.5515380e-01 </wgt>
<wgt id='1440'> +5.4971134e-01 </wgt>
<wgt id='1441'> +5.5304151e-01 </wgt>
<wgt id='1442'> +5.5300783e-01 </wgt>
<wgt id='1443'> +5.4840912e-01 </wgt>
<wgt id='1444'> +5.4857500e-01 </wgt>
<wgt id='1445'> +5.4814139e-01 </wgt>
<wgt id='1446'> +5.4882592e-01 </wgt>
<wgt id='1447'> +5.4808510e-01 </wgt>
<wgt id='1448'> +5.5079043e-01 </wgt>
<wgt id='1449'> +5.4616051e-01 </wgt>
<wgt id='1450'> +5.5037378e-01 </wgt>
<wgt id='1451'> +5.4618301e-01 </wgt>
<wgt id='1452'> +5.4643652e-01 </wgt>
<wgt id='1453'> +5.5026751e-01 </wgt>
<wgt id='1454'> +5.4773912e-01 </wgt>
<wgt id='1455'> +5.4977467e-01 </wgt>
<wgt id='1456'> +5.4759941e-01 </wgt>
<wgt id='1457'> +5.4984310e-01 </wgt>
<wgt id='1458'> +5.4847493e-01 </wgt>
<wgt id='1459'> +5.4833676e-01 </wgt>
<wgt id='1460'> +5.5092200e-01 </wgt>
<wgt id='1461'> +5.4534553e-01 </wgt>
<wgt id='1462'> +5.4684735e-01 </wgt>
<wgt id='1463'> +5.4972265e-01 </wgt>
<wgt id='1464'> +5.5007009e-01 </wgt>
<wgt id='1465'> +5.4616266e-01 </wgt>
<wgt id='1466'> +5.5173399e-01 </wgt>
<wgt id='1467'> +5.4594594e-01 </wgt>
<wgt id='1468'> +5.5331818e-01 </wgt>
<wgt id='1469'> +5.4356137e-01 </wgt>
<wgt id='1470'> +5.4837448e-01 </wgt>
<wgt id='1471'> +5.4802653e-01 </wgt>
<wgt id='1472'> +5.4735533e-01 </wgt>
<wgt id='1473'> +5.4962359e-01 </wgt>
<wgt id='1474'> +5.4585423e-01 </wgt>
<wgt id='1475'> +5.5094692e-01 </wgt>
<wgt id='1476'> +5.4934084e-01 </wgt>
<wgt id='1477'> +5.4744125e-01 </wgt>
<wgt id='1478'> +5.4832190e-01 </wgt>
<wgt id='1479'> +5.4525004e-01 </wgt>
<wgt id='1480'> +5.4780777e-01 </wgt>
<wgt id='1481'> +5.4874339e-01 </wgt>
<wgt id='1482'> +5.4737945e-01 </wgt>
<wgt id='1483'> +5.4936281e-01 </wgt>
<wgt id='1484'> +5.4463281e-01 </wgt>
<wgt id='1485'> +5.5232347e-01 </wgt>
<wgt id='1486'> +5.4759034e-01 </wgt>
<wgt id='1487'> +5.4925296e-01 </wgt>
<wgt id='1488'> +5.4739639e-01 </wgt>
<wgt id='1489'> +5.5063333e-01 </wgt>
<wgt id='1490'> +5.5222395e-01 </wgt>
<wgt id='1491'> +5.4630585e-01 </wgt>
<wgt id='1492'> +5.4982164e-01 </wgt>
<wgt id='1493'> +5.4945794e-01 </wgt>
<wgt id='1494'> +5.2426984e-01 </wgt>
<wgt id='1495'> +5.1942182e-01 </wgt>
<wgt id='1496'> +5.2115933e-01 </wgt>
<wgt id='1497'> +5.2267124e-01 </wgt>
<wgt id='1498'> +5.2601510e-01 </wgt>
<wgt id='1499'> +5.2430661e-01 </wgt>
<wgt id='1500'> +5.3076544e-01 </wgt>
<wgt id='1501'> +5.2958507e-01 </wgt>
<wgt id='1502'> +5.2838682e-01 </wgt>
<wgt id='1503'> +5.2706047e-01 </wgt>
<wgt id='1504'> +5.2575309e-01 </wgt>
<wgt id='1505'> +5.2293466e-01 </wgt>
<wgt id='1506'> +5.2155500e-01 </wgt>
<wgt id='1507'> +5.2010592e-01 </wgt>
<wgt id='1508'> +5.2430661e-01 </wgt>
<wgt id='1509'> +5.2522482e-01 </wgt>
<wgt id='1510'> +5.2473271e-01 </wgt>
<wgt id='1511'> +5.2398044e-01 </wgt>
<wgt id='1512'> +5.2363184e-01 </wgt>
<wgt id='1513'> +5.2997961e-01 </wgt>
<wgt id='1514'> +5.2995211e-01 </wgt>
<wgt id='1515'> +5.3005570e-01 </wgt>
<wgt id='1516'> +5.3094946e-01 </wgt>
<wgt id='1517'> +5.2905581e-01 </wgt>
<wgt id='1518'> +5.3109534e-01 </wgt>
<wgt id='1519'> +5.2955737e-01 </wgt>
<wgt id='1520'> +5.3331168e-01 </wgt>
<wgt id='1521'> +5.2669254e-01 </wgt>
<wgt id='1522'> +5.2903565e-01 </wgt>
<wgt id='1523'> +5.3091877e-01 </wgt>
<wgt id='1524'> +5.3320688e-01 </wgt>
<wgt id='1525'> +5.2861926e-01 </wgt>
<wgt id='1526'> +5.2986426e-01 </wgt>
<wgt id='1527'> +5.3014025e-01 </wgt>
<wgt id='1528'> +5.2944983e-01 </wgt>
<wgt id='1529'> +5.3061513e-01 </wgt>
<wgt id='1530'> +5.3298250e-01 </wgt>
<wgt id='1531'> +5.2828949e-01 </wgt>
<wgt id='1532'> +5.3189108e-01 </wgt>
<wgt id='1533'> +5.2739480e-01 </wgt>
<wgt id='1534'> +5.2846582e-01 </wgt>
<wgt id='1535'> +5.3106658e-01 </wgt>
<wgt id='1536'> +5.2639374e-01 </wgt>
<wgt id='1537'> +5.3352998e-01 </wgt>
<wgt id='1538'> +5.2835063e-01 </wgt>
<wgt id='1539'> +5.3387721e-01 </wgt>
<wgt id='1540'> +5.2876510e-01 </wgt>
<wgt id='1541'> +5.3041131e-01 </wgt>
<wgt id='1542'> +5.3112440e-01 </wgt>
<wgt id='1543'> +5.2757017e-01 </wgt>
<wgt id='1544'> +5.2858508e-01 </wgt>
<wgt id='1545'> +5.3182841e-01 </wgt>
<wgt id='1546'> +5.2993780e-01 </wgt>
<wgt id='1547'> +5.2883532e-01 </wgt>
<wgt id='1548'> +5.2703933e-01 </wgt>
<wgt id='1549'> +5.3016349e-01 </wgt>
<wgt id='1550'> +5.2992618e-01 </wgt>
<wgt id='1551'> +5.2975785e-01 </wgt>
<wgt id='1552'> +5.2859260e-01 </wgt>
<wgt id='1553'> +5.3086116e-01 </wgt>
<wgt id='1554'> +5.3240168e-01 </wgt>
<wgt id='1555'> +5.2550618e-01 </wgt>
<wgt id='1556'> +5.3072167e-01 </wgt>
<wgt id='1557'> +5.2985034e-01 </wgt>
<wgt id='1558'> +5.2767158e-01 </wgt>
<wgt id='1559'> +5.3218465e-01 </wgt>
<wgt id='1560'> +5.3303915e-01 </wgt>
<wgt id='1561'> +5.2868335e-01 </wgt>
<wgt id='1562'> +5.2824456e-01 </wgt>
<wgt id='1563'> +5.3157905e-01 </wgt>
<wgt id='1564'> +5.2997961e-01 </wgt>
<wgt id='1565'> +5.2679300e-01 </wgt>
<wgt id='1566'> +5.3212796e-01 </wgt>
<wgt id='1567'> +5.2955307e-01 </wgt>
<wgt id='1568'> +5.3663166e-01 </wgt>
<wgt id='1569'> +5.3521419e-01 </wgt>
<wgt id='1570'> +5.3381003e-01 </wgt>
<wgt id='1571'> +5.3238861e-01 </wgt>
<wgt id='1572'> +5.3095055e-01 </wgt>
<wgt id='1573'> +5.2785677e-01 </wgt>
<wgt id='1574'> +5.2613458e-01 </wgt>
<wgt id='1575'> +5.2463291e-01 </wgt>
<wgt id='1576'> +5.2955307e-01 </wgt>
<wgt id='1577'> +5.3016608e-01 </wgt>
<wgt id='1578'> +5.2982133e-01 </wgt>
<wgt id='1579'> +5.2927629e-01 </wgt>
<wgt id='1580'> +5.2910307e-01 </wgt>
<wgt id='1581'> +5.3102659e-01 </wgt>
<wgt id='1582'> +5.3175431e-01 </wgt>
<wgt id='1583'> +5.3275987e-01 </wgt>
<wgt id='1584'> +5.2959006e-01 </wgt>
<wgt id='1585'> +5.3254882e-01 </wgt>
<wgt id='1586'> +5.2552259e-01 </wgt>
<wgt id='1587'> +5.2753208e-01 </wgt>
<wgt id='1588'> +5.3471498e-01 </wgt>
<wgt id='1589'> +5.3062966e-01 </wgt>
<wgt id='1590'> +5.3421611e-01 </wgt>
<wgt id='1591'> +5.3038977e-01 </wgt>
<wgt id='1592'> +5.2364158e-01 </wgt>
<wgt id='1593'> +5.3216279e-01 </wgt>
<wgt id='1594'> +5.2795728e-01 </wgt>
<wgt id='1595'> +5.3050847e-01 </wgt>
<wgt id='1596'> +5.3413408e-01 </wgt>
<wgt id='1597'> +5.3264295e-01 </wgt>
<wgt id='1598'> +5.3184330e-01 </wgt>
<wgt id='1599'> +5.3043338e-01 </wgt>
<wgt id='1600'> +5.3193554e-01 </wgt>
<wgt id='1601'> +5.2946003e-01 </wgt>
<wgt id='1602'> +5.3204829e-01 </wgt>
<wgt id='1603'> +5.3233335e-01 </wgt>
<wgt id='1604'> +5.3062817e-01 </wgt>
<wgt id='1605'> +5.2983179e-01 </wgt>
<wgt id='1606'> +5.3155269e-01 </wgt>
<wgt id='1607'> +5.3133016e-01 </wgt>
<wgt id='1608'> +5.3084095e-01 </wgt>
<wgt id='1609'> +5.3188225e-01 </wgt>
<wgt id='1610'> +5.3095235e-01 </wgt>
<wgt id='1611'> +5.3325272e-01 </wgt>
<wgt id='1612'> +5.1963758e-01 </wgt>
<wgt id='1613'> +5.1954551e-01 </wgt>
<wgt id='1614'> +5.1995541e-01 </wgt>
<wgt id='1615'> +5.1972637e-01 </wgt>
<wgt id='1616'> +5.1948220e-01 </wgt>
<wgt id='1617'> +5.1977733e-01 </wgt>
<wgt id='1618'> +5.2054617e-01 </wgt>
<wgt id='1619'> +5.1967226e-01 </wgt>
<wgt id='1620'> +5.1995571e-01 </wgt>
<wgt id='1621'> +5.1954782e-01 </wgt>
<wgt id='1622'> +5.2036490e-01 </wgt>
<wgt id='1623'> +5.1840739e-01 </wgt>
<wgt id='1624'> +5.1768261e-01 </wgt>
<wgt id='1625'> +5.1774681e-01 </wgt>
<wgt id='1626'> +5.1966183e-01 </wgt>
<wgt id='1627'> +5.1808707e-01 </wgt>
<wgt id='1628'> +5.1998807e-01 </wgt>
<wgt id='1629'> +5.2010693e-01 </wgt>
<wgt id='1630'> +5.1826602e-01 </wgt>
<wgt id='1631'> +5.2038923e-01 </wgt>
<wgt id='1632'> +5.1818341e-01 </wgt>
<wgt id='1633'> +5.2048303e-01 </wgt>
<wgt id='1634'> +5.1892519e-01 </wgt>
<wgt id='1635'> +5.1834260e-01 </wgt>
<wgt id='1636'> +5.1841923e-01 </wgt>
<wgt id='1637'> +5.1895547e-01 </wgt>
<wgt id='1638'> +5.1876489e-01 </wgt>
<wgt id='1639'> +5.2068689e-01 </wgt>
<wgt id='1640'> +5.2041589e-01 </wgt>
<wgt id='1641'> +5.1709584e-01 </wgt>
<wgt id='1642'> +5.1841806e-01 </wgt>
<wgt id='1643'> +5.1926699e-01 </wgt>
<wgt id='1644'> +5.1875551e-01 </wgt>
<wgt id='1645'> +5.1912225e-01 </wgt>
<wgt id='1646'> +5.2085692e-01 </wgt>
<wgt id='1647'> +5.1849402e-01 </wgt>
<wgt id='1648'> +5.1864767e-01 </wgt>
<wgt id='1649'> +5.2090243e-01 </wgt>
<wgt id='1650'> +5.1895623e-01 </wgt>
<wgt id='1651'> +5.1924689e-01 </wgt>
<wgt id='1652'> +5.1884007e-01 </wgt>
<wgt id='1653'> +5.1901149e-01 </wgt>
<wgt id='1654'> +5.1877007e-01 </wgt>
<wgt id='1655'> +5.2050270e-01 </wgt>
<wgt id='1656'> +5.1995518e-01 </wgt>
<wgt id='1657'> +5.1910065e-01 </wgt>
<wgt id='1658'> +5.2076074e-01 </wgt>
<wgt id='1659'> +5.2098276e-01 </wgt>
<wgt id='1660'> +5.1953085e-01 </wgt>
<wgt id='1661'> +5.1976647e-01 </wgt>
<wgt id='1662'> +5.2036655e-01 </wgt>
<wgt id='1663'> +5.2093838e-01 </wgt>
<wgt id='1664'> +5.1976503e-01 </wgt>
<wgt id='1665'> +5.2010515e-01 </wgt>
<wgt id='1666'> +5.2057422e-01 </wgt>
<wgt id='1667'> +5.1965927e-01 </wgt>
<wgt id='1668'> +5.1919764e-01 </wgt>
<wgt id='1669'> +5.1933941e-01 </wgt>
<wgt id='1670'> +5.1888637e-01 </wgt>
<wgt id='1671'> +5.1977639e-01 </wgt>
<wgt id='1672'> +5.2008219e-01 </wgt>
<wgt id='1673'> +5.1984549e-01 </wgt>
<wgt id='1674'> +5.1964367e-01 </wgt>
<wgt id='1675'> +5.1921028e-01 </wgt>
<wgt id='1676'> +5.1868452e-01 </wgt>
<wgt id='1677'> +5.1970180e-01 </wgt>
<wgt id='1678'> +5.1998241e-01 </wgt>
<wgt id='1679'> +5.2032646e-01 </wgt>
<wgt id='1680'> +5.2079224e-01 </wgt>
<wgt id='1681'> +5.1955370e-01 </wgt>
<wgt id='1682'> +5.1943161e-01 </wgt>
<wgt id='1683'> +5.1936650e-01 </wgt>
<wgt id='1684'> +5.1962883e-01 </wgt>
<wgt id='1685'> +5.1904662e-01 </wgt>
<wgt id='1686'> +5.1939102e-01 </wgt>
<wgt id='1687'> +5.1914559e-01 </wgt>
<wgt id='1688'> +5.1942274e-01 </wgt>
<wgt id='1689'> +5.1987389e-01 </wgt>
<wgt id='1690'> +5.1999955e-01 </wgt>
<wgt id='1691'> +5.2010811e-01 </wgt>
<wgt id='1692'> +5.1955029e-01 </wgt>
<wgt id='1693'> +5.2017776e-01 </wgt>
<wgt id='1694'> +5.2021934e-01 </wgt>
<wgt id='1695'> +5.1998925e-01 </wgt>
<wgt id='1696'> +5.1940665e-01 </wgt>
<wgt id='1697'> +5.1963748e-01 </wgt>
<wgt id='1698'> +5.1937356e-01 </wgt>
<wgt id='1699'> +5.1960627e-01 </wgt>
<wgt id='1700'> +5.1954568e-01 </wgt>
<wgt id='1701'> +5.1977938e-01 </wgt>
<wgt id='1702'> +5.1959642e-01 </wgt>
<wgt id='1703'> +5.1956512e-01 </wgt>
<wgt id='1704'> +5.1971565e-01 </wgt>
<wgt id='1705'> +5.1940354e-01 </wgt>
<wgt id='1706'> +5.1938355e-01 </wgt>
<wgt id='1707'> +5.1950090e-01 </wgt>
<wgt id='1708'> +5.1933826e-01 </wgt>
<wgt id='1709'> +5.1989164e-01 </wgt>
<wgt id='1710'> +5.1938470e-01 </wgt>
<wgt id='1711'> +5.1962783e-01 </wgt>
<wgt id='1712'> +5.1935291e-01 </wgt>
<wgt id='1713'> +5.1355515e-01 </wgt>
<wgt id='1714'> +5.2625487e-01 </wgt>
<wgt id='1715'> +5.0086784e-01 </wgt>
<wgt id='1716'> +4.9419878e-01 </wgt>
<wgt id='1717'> +5.1016024e-01 </wgt>
<wgt id='1718'> +4.9991970e-01 </wgt>
<wgt id='1719'> +4.9105658e-01 </wgt>
<wgt id='1720'> +5.1839880e-01 </wgt>
<wgt id='1721'> +5.0275848e-01 </wgt>
<wgt id='1722'> +4.9572387e-01 </wgt>
<wgt id='1723'> +4.9939036e-01 </wgt>
<wgt id='1724'> +5.0126287e-01 </wgt>
<wgt id='1725'> +5.0245497e-01 </wgt>
<wgt id='1726'> +4.9805950e-01 </wgt>
<wgt id='1727'> +5.0311482e-01 </wgt>
<wgt id='1728'> +5.0074688e-01 </wgt>
<wgt id='1729'> +5.0287949e-01 </wgt>
<wgt id='1730'> +4.9063067e-01 </wgt>
<wgt id='1731'> +4.7517208e-01 </wgt>
<wgt id='1732'> +4.9486432e-01 </wgt>
<wgt id='1733'> +5.0080260e-01 </wgt>
<wgt id='1734'> +5.1746579e-01 </wgt>
<wgt id='1735'> +4.8649914e-01 </wgt>
<wgt id='1736'> +5.1436158e-01 </wgt>
<wgt id='1737'> +5.0015622e-01 </wgt>
<wgt id='1738'> +5.1158769e-01 </wgt>
<wgt id='1739'> +5.0090818e-01 </wgt>
<wgt id='1740'> +5.0884649e-01 </wgt>
<wgt id='1741'> +4.9301146e-01 </wgt>
<wgt id='1742'> +5.0269945e-01 </wgt>
<wgt id='1743'> +4.9056051e-01 </wgt>
<wgt id='1744'> +5.0943157e-01 </wgt>
<wgt id='1745'> +4.9571234e-01 </wgt>
<wgt id='1746'> +5.0144946e-01 </wgt>
<wgt id='1747'> +5.1051062e-01 </wgt>
<wgt id='1748'> +4.9537735e-01 </wgt>
<wgt id='1749'> +5.0673471e-01 </wgt>
<wgt id='1750'> +4.9374374e-01 </wgt>
<wgt id='1751'> +5.0040987e-01 </wgt>
<wgt id='1752'> +4.9443623e-01 </wgt>
<wgt id='1753'> +5.0267456e-01 </wgt>
<wgt id='1754'> +5.0130743e-01 </wgt>
<wgt id='1755'> +5.0587332e-01 </wgt>
<wgt id='1756'> +5.0587379e-01 </wgt>
<wgt id='1757'> +4.9337327e-01 </wgt>
<wgt id='1758'> +5.0286268e-01 </wgt>
<wgt id='1759'> +5.0811386e-01 </wgt>
<wgt id='1760'> +4.9551779e-01 </wgt>
<wgt id='1761'> +4.9974462e-01 </wgt>
<wgt id='1762'> +5.0311482e-01 </wgt>
<wgt id='1763'> +5.0417423e-01 </wgt>
<wgt id='1764'> +5.1176908e-01 </wgt>
<wgt id='1765'> +5.0953284e-01 </wgt>
<wgt id='1766'> +5.1038930e-01 </wgt>
<wgt id='1767'> +4.9356116e-01 </wgt>
<wgt id='1768'> +4.8316270e-01 </wgt>
<wgt id='1769'> +5.0847079e-01 </wgt>
<wgt id='1770'> +4.9489657e-01 </wgt>
<wgt id='1771'> +4.8917610e-01 </wgt>
<wgt id='1772'> +4.9815328e-01 </wgt>
<wgt id='1773'> +5.0728507e-01 </wgt>
<wgt id='1774'> +4.9420885e-01 </wgt>
<wgt id='1775'> +5.0363297e-01 </wgt>
<wgt id='1776'> +5.1007191e-01 </wgt>
<wgt id='1777'> +5.0014235e-01 </wgt>
<wgt id='1778'> +5.0447981e-01 </wgt>
<wgt id='1779'> +4.9931688e-01 </wgt>
<wgt id='1780'> +5.1595762e-01 </wgt>
<wgt id='1781'> +5.0789685e-01 </wgt>
<wgt id='1782'> +4.9183712e-01 </wgt>
<wgt id='1783'> +4.9811418e-01 </wgt>
<wgt id='1784'> +4.9761445e-01 </wgt>
<wgt id='1785'> +5.0504645e-01 </wgt>
<wgt id='1786'> +5.0074168e-01 </wgt>
<wgt id='1787'> +5.0538498e-01 </wgt>
<wgt id='1788'> +4.9927636e-01 </wgt>
<wgt id='1789'> +5.0679065e-01 </wgt>
<wgt id='1790'> +5.0386486e-01 </wgt>
<wgt id='1791'> +4.9777181e-01 </wgt>
<wgt id='1792'> +5.0482305e-01 </wgt>
<wgt id='1793'> +5.0510103e-01 </wgt>
<wgt id='1794'> +4.8563981e-01 </wgt>
<wgt id='1795'> +4.8273994e-01 </wgt>
<wgt id='1796'> +5.0281943e-01 </wgt>
<wgt id='1797'> +5.1184088e-01 </wgt>
<wgt id='1798'> +4.9869592e-01 </wgt>
<wgt id='1799'> +5.0177435e-01 </wgt>
<wgt id='1800'> +5.0186081e-01 </wgt>
<wgt id='1801'> +4.9631738e-01 </wgt>
<wgt id='1802'> +4.9637631e-01 </wgt>
<wgt id='1803'> +5.0146732e-01 </wgt>
<wgt id='1804'> +5.0765523e-01 </wgt>
<wgt id='1805'> +5.0161092e-01 </wgt>
<wgt id='1806'> +4.9893273e-01 </wgt>
<wgt id='1807'> +5.0038109e-01 </wgt>
<wgt id='1808'> +4.9401925e-01 </wgt>
<wgt id='1809'> +5.0377900e-01 </wgt>
<wgt id='1810'> +4.9697542e-01 </wgt>
<wgt id='1811'> +5.0004976e-01 </wgt>
<wgt id='1812'> +4.9556315e-01 </wgt>
<wgt id='1813'> +5.0576490e-01 </wgt>
<wgt id='1814'> +4.9241288e-01 </wgt>
<wgt id='1815'> +5.0839246e-01 </wgt>
<wgt id='1816'> +5.4158074e-01 </wgt>
<wgt id='1817'> +5.5367523e-01 </wgt>
<wgt id='1818'> +5.4389934e-01 </wgt>
<wgt id='1819'> +5.5928187e-01 </wgt>
<wgt id='1820'> +5.4225637e-01 </wgt>
<wgt id='1821'> +5.6732314e-01 </wgt>
<wgt id='1822'> +5.4159887e-01 </wgt>
<wgt id='1823'> +5.3978456e-01 </wgt>
<wgt id='1824'> +5.3691284e-01 </wgt>
<wgt id='1825'> +5.4129655e-01 </wgt>
<wgt id='1826'> +5.4728316e-01 </wgt>
<wgt id='1827'> +5.4128929e-01 </wgt>
<wgt id='1828'> +5.4392876e-01 </wgt>
<wgt id='1829'> +5.3594005e-01 </wgt>
<wgt id='1830'> +5.4924794e-01 </wgt>
<wgt id='1831'> +5.5024565e-01 </wgt>
<wgt id='1832'> +5.3846925e-01 </wgt>
<wgt id='1833'> +5.4709856e-01 </wgt>
<wgt id='1834'> +5.3891960e-01 </wgt>
<wgt id='1835'> +5.3661487e-01 </wgt>
<wgt id='1836'> +5.4797642e-01 </wgt>
<wgt id='1837'> +5.4299555e-01 </wgt>
<wgt id='1838'> +5.3637886e-01 </wgt>
<wgt id='1839'> +5.4789863e-01 </wgt>
<wgt id='1840'> +5.4170137e-01 </wgt>
<wgt id='1841'> +5.3738301e-01 </wgt>
<wgt id='1842'> +5.4467583e-01 </wgt>
<wgt id='1843'> +5.3925116e-01 </wgt>
<wgt id='1844'> +5.4960717e-01 </wgt>
<wgt id='1845'> +5.5174300e-01 </wgt>
<wgt id='1846'> +5.4414719e-01 </wgt>
<wgt id='1847'> +5.3494478e-01 </wgt>
<wgt id='1848'> +5.4615395e-01 </wgt>
<wgt id='1849'> +5.3631621e-01 </wgt>
<wgt id='1850'> +5.3884151e-01 </wgt>
<wgt id='1851'> +5.4344293e-01 </wgt>
<wgt id='1852'> +5.3244640e-01 </wgt>
<wgt id='1853'> +5.3420377e-01 </wgt>
<wgt id='1854'> +5.4051522e-01 </wgt>
<wgt id='1855'> +5.4274857e-01 </wgt>
<wgt id='1856'> +5.3620005e-01 </wgt>
<wgt id='1857'> +5.4847382e-01 </wgt>
<wgt id='1858'> +5.3692288e-01 </wgt>
<wgt id='1859'> +5.3523826e-01 </wgt>
<wgt id='1860'> +5.4446047e-01 </wgt>
<wgt id='1861'> +5.4078861e-01 </wgt>
<wgt id='1862'> +5.4081562e-01 </wgt>
<wgt id='1863'> +5.3823386e-01 </wgt>
<wgt id='1864'> +5.3857607e-01 </wgt>
<wgt id='1865'> +5.4964717e-01 </wgt>
<wgt id='1866'> +5.4230035e-01 </wgt>
<wgt id='1867'> +5.4376399e-01 </wgt>
<wgt id='1868'> +5.4363257e-01 </wgt>
<wgt id='1869'> +5.5090002e-01 </wgt>
<wgt id='1870'> +5.3091237e-01 </wgt>
<wgt id='1871'> +5.3529797e-01 </wgt>
<wgt id='1872'> +5.4120301e-01 </wgt>
<wgt id='1873'> +5.3733909e-01 </wgt>
<wgt id='1874'> +5.4524629e-01 </wgt>
<wgt id='1875'> +5.4284466e-01 </wgt>
<wgt id='1876'> +5.3916229e-01 </wgt>
<wgt id='1877'> +5.4219187e-01 </wgt>
<wgt id='1878'> +5.4652859e-01 </wgt>
<wgt id='1879'> +5.4221490e-01 </wgt>
<wgt id='1880'> +5.3253230e-01 </wgt>
<wgt id='1881'> +5.3092181e-01 </wgt>
<wgt id='1882'> +5.3487503e-01 </wgt>
<wgt id='1883'> +5.6028168e-01 </wgt>
<wgt id='1884'> +5.3564741e-01 </wgt>
<wgt id='1885'> +5.3309821e-01 </wgt>
<wgt id='1886'> +5.2536745e-01 </wgt>
<wgt id='1887'> +5.3807168e-01 </wgt>
<wgt id='1888'> +5.4810936e-01 </wgt>
<wgt id='1889'> +5.5360164e-01 </wgt>
<wgt id='1890'> +5.5417211e-01 </wgt>
<wgt id='1891'> +5.4633917e-01 </wgt>
<wgt id='1892'> +5.4586248e-01 </wgt>
<wgt id='1893'> +5.2944533e-01 </wgt>
<wgt id='1894'> +5.3803754e-01 </wgt>
<wgt id='1895'> +5.4850296e-01 </wgt>
<wgt id='1896'> +5.3090112e-01 </wgt>
<wgt id='1897'> +5.3916700e-01 </wgt>
<wgt id='1898'> +5.4378564e-01 </wgt>
<wgt id='1899'> +5.3670160e-01 </wgt>
<wgt id='1900'> +5.4081346e-01 </wgt>
<wgt id='1901'> +5.4575280e-01 </wgt>
<wgt id='1902'> +5.3579002e-01 </wgt>
<wgt id='1903'> +5.4567016e-01 </wgt>
<wgt id='1904'> +5.4796056e-01 </wgt>
<wgt id='1905'> +5.3373762e-01 </wgt>
<wgt id='1906'> +5.3561045e-01 </wgt>
<wgt id='1907'> +5.3771825e-01 </wgt>
<wgt id='1908'> +5.3694357e-01 </wgt>
<wgt id='1909'> +5.4107422e-01 </wgt>
<wgt id='1910'> +5.4836917e-01 </wgt>
<wgt id='1911'> +5.3678086e-01 </wgt>
<wgt id='1912'> +5.3230304e-01 </wgt>
<wgt id='1913'> +5.3892865e-01 </wgt>
<wgt id='1914'> +5.3849547e-01 </wgt>
<wgt id='1915'> +5.4190011e-01 </wgt>
<wgt id='1916'> +5.2930681e-01 </wgt>
<wgt id='1917'> +5.5013377e-01 </wgt>
<wgt id='1918'> +5.4473608e-01 </wgt>
<wgt id='1919'> +5.4158074e-01 </wgt>
<wgt id='1920'> +5.5367523e-01 </wgt>
<wgt id='1921'> +5.4389934e-01 </wgt>
<wgt id='1922'> +5.5928187e-01 </wgt>
<wgt id='1923'> +5.4225637e-01 </wgt>
<wgt id='1924'> +5.6732314e-01 </wgt>
<wgt id='1925'> +5.4159887e-01 </wgt>
<wgt id='1926'> +5.3978456e-01 </wgt>
<wgt id='1927'> +5.3691284e-01 </wgt>
<wgt id='1928'> +5.4129655e-01 </wgt>
<wgt id='1929'> +5.4728316e-01 </wgt>
<wgt id='1930'> +5.4128929e-01 </wgt>
<wgt id='1931'> +5.4392876e-01 </wgt>
<wgt id='1932'> +5.3594005e-01 </wgt>
<wgt id='1933'> +5.4924794e-01 </wgt>
<wgt id='1934'> +5.5024565e-01 </wgt>
<wgt id='1935'> +5.3846925e-01 </wgt>
<wgt id='1936'> +5.4709856e-01 </wgt>
<wgt id='1937'> +5.3891960e-01 </wgt>
<wgt id='1938'> +5.3661487e-01 </wgt>
<wgt id='1939'> +5.4797642e-01 </wgt>
<wgt id='1940'> +5.4299555e-01 </wgt>
<wgt id='1941'> +5.3637886e-01 </wgt>
<wgt id='1942'> +5.4789863e-01 </wgt>
<wgt id='1943'> +5.4170137e-01 </wgt>
<wgt id='1944'> +5.3738301e-01 </wgt>
<wgt id='1945'> +5.4467583e-01 </wgt>
<wgt id='1946'> +5.3925116e-01 </wgt>
<wgt id='1947'> +5.4960717e-01 </wgt>
<wgt id='1948'> +5.5174300e-01 </wgt>
<wgt id='1949'> +5.4414719e-01 </wgt>
<wgt id='1950'> +5.3494478e-01 </wgt>
<wgt id='1951'> +5.4615395e-01 </wgt>
<wgt id='1952'> +5.3631621e-01 </wgt>
<wgt id='1953'> +5.3884151e-01 </wgt>
<wgt id='1954'> +5.4344293e-01 </wgt>
<wgt id='1955'> +5.3244640e-01 </wgt>
<wgt id='1956'> +5.3420377e-01 </wgt>
<wgt id='1957'> +5.4051522e-01 </wgt>
<wgt id='1958'> +5.4274857e-01 </wgt>
<wgt id='1959'> +5.3620005e-01 </wgt>
<wgt id='1960'> +5.4847382e-01 </wgt>
<wgt id='1961'> +5.3692288e-01 </wgt>
<wgt id='1962'> +5.3523826e-01 </wgt>
<wgt id='1963'> +5.4446047e-01 </wgt>
<wgt id='1964'> +5.4078861e-01 </wgt>
<wgt id='1965'> +5.4081562e-01 </wgt>
<wgt id='1966'> +5.3823386e-01 </wgt>
<wgt id='1967'> +5.3857607e-01 </wgt>
<wgt id='1968'> +5.4964717e-01 </wgt>
<wgt id='1969'> +5.4230035e-01 </wgt>
<wgt id='1970'> +5.4376399e-01 </wgt>
<wgt id='1971'> +5.4363257e-01 </wgt>
<wgt id='1972'> +5.5090002e-01 </wgt>
<wgt id='1973'> +5.3091237e-01 </wgt>
<wgt id='1974'> +5.3529797e-01 </wgt>
<wgt id='1975'> +5.4120301e-01 </wgt>
<wgt id='1976'> +5.3733909e-01 </wgt>
<wgt id='1977'> +5.4524629e-01 </wgt>
<wgt id='1978'> +5.4284466e-01 </wgt>
<wgt id='1979'> +5.3916229e-01 </wgt>
<wgt id='1980'> +5.4219187e-01 </wgt>
<wgt id='1981'> +5.4652859e-01 </wgt>
<wgt id='1982'> +5.4221490e-01 </wgt>
<wgt id='1983'> +5.3253230e-01 </wgt>
<wgt id='1984'> +5.3092181e-01 </wgt>
<wgt id='1985'> +5.3487503e-01 </wgt>
<wgt id='1986'> +5.6028168e-01 </wgt>
<wgt id='1987'> +5.3564741e-01 </wgt>
<wgt id='1988'> +5.3309821e-01 </wgt>
<wgt id='1989'> +5.2536745e-01 </wgt>
<wgt id='1990'> +5.3807168e-01 </wgt>
<wgt id='1991'> +5.4810936e-01 </wgt>
<wgt id='1992'> +5.5360164e-01 </wgt>
<wgt id='1993'> +5.5417211e-01 </wgt>
<wgt id='1994'> +5.4633917e-01 </wgt>
<wgt id='1995'> +5.4586248e-01 </wgt>
<wgt id='1996'> +5.2944533e-01 </wgt>
<wgt id='1997'> +5.3803754e-01 </wgt>
<wgt id='1998'> +5.4850296e-01 </wgt>
<wgt id='1999'> +5.3090112e-01 </wgt>
<wgt id='2000'> +5.3916700e-01 </wgt>
<wgt id='2001'> +5.4378564e-01 </wgt>
<wgt id='2002'> +5.3670160e-01 </wgt>
<wgt id='2003'> +5.4081346e-01 </wgt>
<wgt id='2004'> +5.4575280e-01 </wgt>
<wgt id='2005'> +5.3579002e-01 </wgt>
<wgt id='2006'> +5.4567016e-01 </wgt>
<wgt id='2007'> +5.4796056e-01 </wgt>
<wgt id='2008'> +5.3373762e-01 </wgt>
<wgt id='2009'> +5.3561045e-01 </wgt>
<wgt id='2010'> +5.3771825e-01 </wgt>
<wgt id='2011'> +5.3694357e-01 </wgt>
<wgt id='2012'> +5.4107422e-01 </wgt>
<wgt id='2013'> +5.4836917e-01 </wgt>
<wgt id='2014'> +5.3678086e-01 </wgt>
<wgt id='2015'> +5.3230304e-01 </wgt>
<wgt id='2016'> +5.3892865e-01 </wgt>
<wgt id='2017'> +5.3849547e-01 </wgt>
<wgt id='2018'> +5.4190011e-01 </wgt>
<wgt id='2019'> +5.2930681e-01 </wgt>
<wgt id='2020'> +5.4024359e-01 </wgt>
<wgt id='2021'> +5.4198961e-01 </wgt>
<wgt id='2022'> +5.3784236e-01 </wgt>
</rwgt>
</event>
<event>
 13 1 0.0079112 1.62665400e+02 7.81860800e-03 1.08495200e-01
       21 -1    0    0  502  503 +0.0000000000e+00 +0.0000000000e+00 +1.4459353321e+02 1.4459353321e+02 0.0000000000e+00 0.0000e+00 -1.0000e+00
        2 -1    0    0  501    0 +0.0000000000e+00 +0.0000000000e+00 -1.8440163973e+03 1.8440163973e+03 2.5500000000e-03 0.0000e+00 -1.0000e+00
  8000001  2    1    2  502    0 +1.6056959683e+02 +5.0556062177e+01 -1.0077025277e+03 1.1848219221e+03 6.0000007654e+02 0.0000e+00 0.0000e+00
        1  1    1    2  501    0 -1.5679036760e+02 -4.1224065975e+01 -7.3830742580e+02 7.5589714777e+02 5.0400000000e-03 0.0000e+00 -1.0000e+00
       -5  1    1    2    0  503 -3.7792292249e+00 -9.3319962022e+00 +4.6587089458e+01 4.7890860626e+01 4.6700000000e+00 0.0000e+00 1.0000e+00
        6  2    3    3  502    0 +9.8396619326e+00 +2.1702376133e+02 -2.0298132313e+02 3.4423704636e+02 1.7349811128e+02 0.0000e+00 0.0000e+00
        5  1    6    6  502    0 -2.1527932815e+01 +1.0383621603e+01 +1.7239576392e+01 2.9837616925e+01 4.6700000000e+00 0.0000e+00 -1.0000e+00
       24  2    6    6    0    0 +3.1367594747e+01 +2.0664013973e+02 -2.2022089952e+02 3.1439942944e+02 8.1643635973e+01 0.0000e+00 0.0000e+00
       14  1    8    8    0    0 +4.0504680271e+01 +8.3567491590e+01 -5.4172554180e+01 1.0751195469e+02 0.0000000000e+00 0.0000e+00 -1.0000e+00
      -13  1    8    8    0    0 -9.1370855238e+00 +1.2307264814e+02 -1.6604834534e+02 2.0688747475e+02 1.0566000000e-01 0.0000e+00 1.0000e+00
       23  2    3    3    0    0 +1.5072993490e+02 -1.6646769915e+02 -8.0472120462e+02 8.4058487576e+02 9.2605118936e+01 0.0000e+00 0.0000e+00
        2  1   11   11  504    0 +1.0875343604e+02 -1.5285421590e+02 -5.2729899597e+02 5.5967486304e+02 2.5500000000e-03 0.0000e+00 -1.0000e+00
       -2  1   11   11    0  504 +4.1976498856e+01 -1.3613483252e+01 -2.7742220865e+02 2.8091001271e+02 2.5500000000e-03 0.0000e+00 1.0000e+00
<mgrwt>
<rscale>  1 0.11623908e+03</rscale>
<asrwt>0</asrwt>
<pdfrwt beam="1">  1       21 0.22245159e-01 0.83063291e+02</pdfrwt>
<pdfrwt beam="2">  1        2 0.28369483e+00 0.16266541e+03</pdfrwt>
<totfact> 0.26172850e+03</totfact>
</mgrwt>
<rwgt>
<wgt id='1001'> +5.2878984e-01 </wgt>
<wgt id='1002'> +3.7016365e-01 </wgt>
<wgt id='1003'> +3.7002853e-01 </wgt>
<wgt id='1004'> +4.2993207e-01 </wgt>
<wgt id='1005'> +3.3609135e-01 </wgt>
<wgt id='1006'> +4.7847878e-01 </wgt>
<wgt id='1007'> +3.4191257e-01 </wgt>
<wgt id='1008'> +3.4179348e-01 </wgt>
<wgt id='1009'> +3.9427984e-01 </wgt>
<wgt id='1010'> +3.1175733e-01 </wgt>
<wgt id='1011'> +5.9135935e-01 </wgt>
<wgt id='1012'> +4.0364335e-01 </wgt>
<wgt id='1013'> +4.0348787e-01 </wgt>
<wgt id='1014'> +4.7288557e-01 </wgt>
<wgt id='1015'> +3.6464941e-01 </wgt>
<wgt id='1016'> +4.9836025e-01 </wgt>
<wgt id='1017'> +3.4815701e-01 </wgt>
<wgt id='1018'> +3.4803053e-01 </wgt>
<wgt id='1019'> +4.0348787e-01 </wgt>
<wgt id='1020'> +3.1644528e-01 </wgt>
<wgt id='1021'> +4.5094438e-01 </wgt>
<wgt id='1022'> +3.2158548e-01 </wgt>
<wgt id='1023'> +3.2147404e-01 </wgt>
<wgt id='1024'> +3.7002853e-01 </wgt>
<wgt id='1025'> +2.9353369e-01 </wgt>
<wgt id='1026'> +5.5732916e-01 </wgt>
<wgt id='1027'> +3.7964630e-01 </wgt>
<wgt id='1028'> +3.7950073e-01 </wgt>
<wgt id='1029'> +4.4379938e-01 </wgt>
<wgt id='1030'> +3.4333399e-01 </wgt>
<wgt id='1031'> +5.5962797e-01 </wgt>
<wgt id='1032'> +3.9442673e-01 </wgt>
<wgt id='1033'> +3.9427984e-01 </wgt>
<wgt id='1034'> +4.5847669e-01 </wgt>
<wgt id='1035'> +3.5754353e-01 </wgt>
<wgt id='1036'> +5.0638285e-01 </wgt>
<wgt id='1037'> +3.6432387e-01 </wgt>
<wgt id='1038'> +3.6419430e-01 </wgt>
<wgt id='1039'> +4.2045739e-01 </wgt>
<wgt id='1040'> +3.3165631e-01 </wgt>
<wgt id='1041'> +6.2584642e-01 </wgt>
<wgt id='1042'> +4.3010091e-01 </wgt>
<wgt id='1043'> +4.2993207e-01 </wgt>
<wgt id='1044'> +5.0428201e-01 </wgt>
<wgt id='1045'> +3.8792441e-01 </wgt>
<wgt id='1046'> +5.2878984e-01 </wgt>
<wgt id='1047'> +5.2878984e-01 </wgt>
<wgt id='1048'> +5.2878984e-01 </wgt>
<wgt id='1049'> +5.2912932e-01 </wgt>
<wgt id='1050'> +5.2800236e-01 </wgt>
<wgt id='1051'> +5.2959353e-01 </wgt>
<wgt id='1052'> +5.2799066e-01 </wgt>
<wgt id='1053'> +5.3129835e-01 </wgt>
<wgt id='1054'> +5.2908206e-01 </wgt>
<wgt id='1055'> +5.3001126e-01 </wgt>
<wgt id='1056'> +5.3079154e-01 </wgt>
<wgt id='1057'> +5.2783773e-01 </wgt>
<wgt id='1058'> +5.2875389e-01 </wgt>
<wgt id='1059'> +5.2585774e-01 </wgt>
<wgt id='1060'> +5.2929830e-01 </wgt>
<wgt id='1061'> +5.2869184e-01 </wgt>
<wgt id='1062'> +5.2939724e-01 </wgt>
<wgt id='1063'> +5.2807155e-01 </wgt>
<wgt id='1064'> +5.2803706e-01 </wgt>
<wgt id='1065'> +5.2846935e-01 </wgt>
<wgt id='1066'> +5.2917577e-01 </wgt>
<wgt id='1067'> +5.3051335e-01 </wgt>
<wgt id='1068'> +5.2682170e-01 </wgt>
<wgt id='1069'> +5.3008288e-01 </wgt>
<wgt id='1070'> +5.2904174e-01 </wgt>
<wgt id='1071'> +5.2874896e-01 </wgt>
<wgt id='1072'> +5.2991667e-01 </wgt>
<wgt id='1073'> +5.2839364e-01 </wgt>
<wgt id='1074'> +5.2959718e-01 </wgt>
<wgt id='1075'> +5.2652094e-01 </wgt>
<wgt id='1076'> +5.3048629e-01 </wgt>
<wgt id='1077'> +5.3105638e-01 </wgt>
<wgt id='1078'> +5.2795770e-01 </wgt>
<wgt id='1079'> +5.3171686e-01 </wgt>
<wgt id='1080'> +5.3104307e-01 </wgt>
<wgt id='1081'> +5.2941377e-01 </wgt>
<wgt id='1082'> +5.2999346e-01 </wgt>
<wgt id='1083'> +5.2792213e-01 </wgt>
<wgt id='1084'> +5.2699771e-01 </wgt>
<wgt id='1085'> +5.2976161e-01 </wgt>
<wgt id='1086'> +5.2785554e-01 </wgt>
<wgt id='1087'> +5.2893052e-01 </wgt>
<wgt id='1088'> +5.2849365e-01 </wgt>
<wgt id='1089'> +5.2818326e-01 </wgt>
<wgt id='1090'> +5.2821299e-01 </wgt>
<wgt id='1091'> +5.2761856e-01 </wgt>
<wgt id='1092'> +5.2819455e-01 </wgt>
<wgt id='1093'> +5.2878207e-01 </wgt>
<wgt id='1094'> +5.2939447e-01 </wgt>
<wgt id='1095'> +5.2776445e-01 </wgt>
<wgt id='1096'> +5.2838614e-01 </wgt>
<wgt id='1097'> +5.2862587e-01 </wgt>
<wgt id='1098'> +5.2868475e-01 </wgt>
<wgt id='1099'> +5.2901666e-01 </wgt>
<wgt id='1100'> +5.2907343e-01 </wgt>
<wgt id='1101'> +5.2848629e-01 </wgt>
<wgt id='1102'> +5.2831892e-01 </wgt>
<wgt id='1103'> +5.2949631e-01 </wgt>
<wgt id='1104'> +5.2894996e-01 </wgt>
<wgt id='1105'> +5.2864962e-01 </wgt>
<wgt id='1106'> +5.2914689e-01 </wgt>
<wgt id='1107'> +5.2808038e-01 </wgt>
<wgt id='1108'> +5.2890955e-01 </wgt>
<wgt id='1109'> +5.2953966e-01 </wgt>
<wgt id='1110'> +5.2880651e-01 </wgt>
<wgt id='1111'> +5.2829552e-01 </wgt>
<wgt id='1112'> +5.2938976e-01 </wgt>
<wgt id='1113'> +5.2802031e-01 </wgt>
<wgt id='1114'> +5.2752267e-01 </wgt>
<wgt id='1115'> +5.2945788e-01 </wgt>
<wgt id='1116'> +5.2911688e-01 </wgt>
<wgt id='1117'> +5.2938744e-01 </wgt>
<wgt id='1118'> +5.2896597e-01 </wgt>
<wgt id='1119'> +5.2945531e-01 </wgt>
<wgt id='1120'> +5.2838569e-01 </wgt>
<wgt id='1121'> +5.2933433e-01 </wgt>
<wgt id='1122'> +5.2928360e-01 </wgt>
<wgt id='1123'> +5.2908303e-01 </wgt>
<wgt id='1124'> +5.2842440e-01 </wgt>
<wgt id='1125'> +5.2858044e-01 </wgt>
<wgt id='1126'> +5.2897153e-01 </wgt>
<wgt id='1127'> +5.2858974e-01 </wgt>
<wgt id='1128'> +5.2883067e-01 </wgt>
<wgt id='1129'> +5.2844247e-01 </wgt>
<wgt id='1130'> +5.2896627e-01 </wgt>
<wgt id='1131'> +5.2891463e-01 </wgt>
<wgt id='1132'> +5.2883700e-01 </wgt>
<wgt id='1133'> +5.2892253e-01 </wgt>
<wgt id='1134'> +5.2851866e-01 </wgt>
<wgt id='1135'> +5.2892707e-01 </wgt>
<wgt id='1136'> +5.2910477e-01 </wgt>
<wgt id='1137'> +5.2863784e-01 </wgt>
<wgt id='1138'> +5.2907114e-01 </wgt>
<wgt id='1139'> +5.2889604e-01 </wgt>
<wgt id='1140'> +5.2916650e-01 </wgt>
<wgt id='1141'> +5.2862544e-01 </wgt>
<wgt id='1142'> +5.2895489e-01 </wgt>
<wgt id='1143'> +5.2897699e-01 </wgt>
<wgt id='1144'> +5.2869592e-01 </wgt>
<wgt id='1145'> +5.2870214e-01 </wgt>
<wgt id='1146'> +5.2885067e-01 </wgt>
<wgt id='1147'> +5.2891969e-01 </wgt>
<wgt id='1148'> +5.2878984e-01 </wgt>
<wgt id='1149'> +5.1635450e-01 </wgt>
<wgt id='1150'> +5.0674535e-01 </wgt>
<wgt id='1151'> +5.1339071e-01 </wgt>
<wgt id='1152'> +5.2257607e-01 </wgt>
<wgt id='1153'> +5.0945177e-01 </wgt>
<wgt id='1154'> +5.1707525e-01 </wgt>
<wgt id='1155'> +5.1622307e-01 </wgt>
<wgt id='1156'> +5.1512617e-01 </wgt>
<wgt id='1157'> +5.2294539e-01 </wgt>
<wgt id='1158'> +5.2735360e-01 </wgt>
<wgt id='1159'> +4.9301688e-01 </wgt>
<wgt id='1160'> +5.1218806e-01 </wgt>
<wgt id='1161'> +5.1956768e-01 </wgt>
<wgt id='1162'> +5.0364265e-01 </wgt>
<wgt id='1163'> +5.1685106e-01 </wgt>
<wgt id='1164'> +5.3314960e-01 </wgt>
<wgt id='1165'> +5.2243110e-01 </wgt>
<wgt id='1166'> +5.2725669e-01 </wgt>
<wgt id='1167'> +5.1839885e-01 </wgt>
<wgt id='1168'> +5.1538003e-01 </wgt>
<wgt id='1169'> +5.1452181e-01 </wgt>
<wgt id='1170'> +5.2320146e-01 </wgt>
<wgt id='1171'> +5.2346250e-01 </wgt>
<wgt id='1172'> +5.2473785e-01 </wgt>
<wgt id='1173'> +5.0820973e-01 </wgt>
<wgt id='1174'> +5.2725523e-01 </wgt>
<wgt id='1175'> +5.2012067e-01 </wgt>
<wgt id='1176'> +5.0240467e-01 </wgt>
<wgt id='1177'> +5.1588344e-01 </wgt>
<wgt id='1178'> +5.2078537e-01 </wgt>
<wgt id='1179'> +5.1133274e-01 </wgt>
<wgt id='1180'> +5.2675657e-01 </wgt>
<wgt id='1181'> +5.1395152e-01 </wgt>
<wgt id='1182'> +5.2236073e-01 </wgt>
<wgt id='1183'> +5.1044532e-01 </wgt>
<wgt id='1184'> +5.1852212e-01 </wgt>
<wgt id='1185'> +5.1991104e-01 </wgt>
<wgt id='1186'> +5.1359953e-01 </wgt>
<wgt id='1187'> +5.1492564e-01 </wgt>
<wgt id='1188'> +5.0468816e-01 </wgt>
<wgt id='1189'> +5.1902303e-01 </wgt>
<wgt id='1190'> +5.1883750e-01 </wgt>
<wgt id='1191'> +5.0705230e-01 </wgt>
<wgt id='1192'> +5.1067821e-01 </wgt>
<wgt id='1193'> +5.1378784e-01 </wgt>
<wgt id='1194'> +5.1580065e-01 </wgt>
<wgt id='1195'> +5.1379673e-01 </wgt>
<wgt id='1196'> +5.0296312e-01 </wgt>
<wgt id='1197'> +5.0838280e-01 </wgt>
<wgt id='1198'> +5.2254615e-01 </wgt>
<wgt id='1199'> +5.1985712e-01 </wgt>
<wgt id='1200'> +5.1655964e-01 </wgt>
<wgt id='1201'> +5.2157419e-01 </wgt>
<wgt id='1202'> +5.1418301e-01 </wgt>
<wgt id='1203'> +5.2630167e-01 </wgt>
<wgt id='1204'> +5.1968634e-01 </wgt>
<wgt id='1205'> +5.0877256e-01 </wgt>
<wgt id='1206'> +5.2024969e-01 </wgt>
<wgt id='1207'> +5.1730364e-01 </wgt>
<wgt id='1208'> +5.3104243e-01 </wgt>
<wgt id='1209'> +5.3052949e-01 </wgt>
<wgt id='1210'> +5.0709805e-01 </wgt>
<wgt id='1211'> +5.1674834e-01 </wgt>
<wgt id='1212'> +5.1028659e-01 </wgt>
<wgt id='1213'> +5.2365709e-01 </wgt>
<wgt id='1214'> +5.2582956e-01 </wgt>
<wgt id='1215'> +5.0670735e-01 </wgt>
<wgt id='1216'> +5.1169957e-01 </wgt>
<wgt id='1217'> +5.1374256e-01 </wgt>
<wgt id='1218'> +5.1002008e-01 </wgt>
<wgt id='1219'> +5.0833915e-01 </wgt>
<wgt id='1220'> +5.2558876e-01 </wgt>
<wgt id='1221'> +5.0352818e-01 </wgt>
<wgt id='1222'> +5.2289972e-01 </wgt>
<wgt id='1223'> +5.2227109e-01 </wgt>
<wgt id='1224'> +5.0870973e-01 </wgt>
<wgt id='1225'> +5.2597848e-01 </wgt>
<wgt id='1226'> +5.0433220e-01 </wgt>
<wgt id='1227'> +5.3447550e-01 </wgt>
<wgt id='1228'> +5.1868991e-01 </wgt>
<wgt id='1229'> +4.9205544e-01 </wgt>
<wgt id='1230'> +5.1183714e-01 </wgt>
<wgt id='1231'> +5.2243110e-01 </wgt>
<wgt id='1232'> +5.0752972e-01 </wgt>
<wgt id='1233'> +5.1922594e-01 </wgt>
<wgt id='1234'> +5.2839275e-01 </wgt>
<wgt id='1235'> +4.9521580e-01 </wgt>
<wgt id='1236'> +5.2997335e-01 </wgt>
<wgt id='1237'> +5.0942774e-01 </wgt>
<wgt id='1238'> +5.1056057e-01 </wgt>
<wgt id='1239'> +5.2304375e-01 </wgt>
<wgt id='1240'> +5.2802591e-01 </wgt>
<wgt id='1241'> +5.2822832e-01 </wgt>
<wgt id='1242'> +5.2135389e-01 </wgt>
<wgt id='1243'> +5.1223539e-01 </wgt>
<wgt id='1244'> +5.1100097e-01 </wgt>
<wgt id='1245'> +5.2437075e-01 </wgt>
<wgt id='1246'> +4.9967779e-01 </wgt>
<wgt id='1247'> +5.1196054e-01 </wgt>
<wgt id='1248'> +5.1694176e-01 </wgt>
<wgt id='1249'> +5.2102800e-01 </wgt>
<wgt id='1250'> +5.2139991e-01 </wgt>
<wgt id='1251'> +5.1586958e-01 </wgt>
<wgt id='1252'> +5.2215611e-01 </wgt>
<wgt id='1253'> +5.2389266e-01 </wgt>
<wgt id='1254'> +4.9996927e-01 </wgt>
<wgt id='1255'> +5.5650318e-01 </wgt>
<wgt id='1256'> +5.6038021e-01 </wgt>
<wgt id='1257'> +5.5423873e-01 </wgt>
<wgt id='1258'> +5.5593515e-01 </wgt>
<wgt id='1259'> +5.5678080e-01 </wgt>
<wgt id='1260'> +5.5777557e-01 </wgt>
<wgt id='1261'> +5.5478565e-01 </wgt>
<wgt id='1262'> +5.5741550e-01 </wgt>
<wgt id='1263'> +5.5590291e-01 </wgt>
<wgt id='1264'> +5.5569548e-01 </wgt>
<wgt id='1265'> +5.5705218e-01 </wgt>
<wgt id='1266'> +5.5655557e-01 </wgt>
<wgt id='1267'> +5.5644873e-01 </wgt>
<wgt id='1268'> +5.6040127e-01 </wgt>
<wgt id='1269'> +5.5255974e-01 </wgt>
<wgt id='1270'> +5.5662741e-01 </wgt>
<wgt id='1271'> +5.5562778e-01 </wgt>
<wgt id='1272'> +5.5774910e-01 </wgt>
<wgt id='1273'> +5.5552805e-01 </wgt>
<wgt id='1274'> +5.5479414e-01 </wgt>
<wgt id='1275'> +5.5864745e-01 </wgt>
<wgt id='1276'> +5.5469981e-01 </wgt>
<wgt id='1277'> +5.5836125e-01 </wgt>
<wgt id='1278'> +5.5440843e-01 </wgt>
<wgt id='1279'> +5.5822894e-01 </wgt>
<wgt id='1280'> +5.5674970e-01 </wgt>
<wgt id='1281'> +5.5573570e-01 </wgt>
<wgt id='1282'> +5.6017497e-01 </wgt>
<wgt id='1283'> +5.5217894e-01 </wgt>
<wgt id='1284'> +5.5439687e-01 </wgt>
<wgt id='1285'> +5.5852027e-01 </wgt>
<wgt id='1286'> +5.5933552e-01 </wgt>
<wgt id='1287'> +5.5633945e-01 </wgt>
<wgt id='1288'> +5.5606224e-01 </wgt>
<wgt id='1289'> +5.5662170e-01 </wgt>
<wgt id='1290'> +5.5728880e-01 </wgt>
<wgt id='1291'> +5.5623322e-01 </wgt>
<wgt id='1292'> +5.5806145e-01 </wgt>
<wgt id='1293'> +5.5350656e-01 </wgt>
<wgt id='1294'> +5.5276256e-01 </wgt>
<wgt id='1295'> +5.5774046e-01 </wgt>
<wgt id='1296'> +5.2446469e-01 </wgt>
<wgt id='1297'> +5.2569090e-01 </wgt>
<wgt id='1298'> +5.2346442e-01 </wgt>
<wgt id='1299'> +5.2260814e-01 </wgt>
<wgt id='1300'> +5.2652592e-01 </wgt>
<wgt id='1301'> +5.2328328e-01 </wgt>
<wgt id='1302'> +5.2620396e-01 </wgt>
<wgt id='1303'> +5.2435921e-01 </wgt>
<wgt id='1304'> +5.2453017e-01 </wgt>
<wgt id='1305'> +5.2496018e-01 </wgt>
<wgt id='1306'> +5.2376032e-01 </wgt>
<wgt id='1307'> +5.2687514e-01 </wgt>
<wgt id='1308'> +5.2295211e-01 </wgt>
<wgt id='1309'> +5.2529827e-01 </wgt>
<wgt id='1310'> +5.2332603e-01 </wgt>
<wgt id='1311'> +5.2797618e-01 </wgt>
<wgt id='1312'> +5.2318422e-01 </wgt>
<wgt id='1313'> +5.2651901e-01 </wgt>
<wgt id='1314'> +5.2152483e-01 </wgt>
<wgt id='1315'> +5.2360148e-01 </wgt>
<wgt id='1316'> +5.2527725e-01 </wgt>
<wgt id='1317'> +5.2005300e-01 </wgt>
<wgt id='1318'> +5.3246513e-01 </wgt>
<wgt id='1319'> +5.2619704e-01 </wgt>
<wgt id='1320'> +5.2357315e-01 </wgt>
<wgt id='1321'> +5.2406673e-01 </wgt>
<wgt id='1322'> +5.2475381e-01 </wgt>
<wgt id='1323'> +5.2517251e-01 </wgt>
<wgt id='1324'> +5.2385125e-01 </wgt>
<wgt id='1325'> +5.2470201e-01 </wgt>
<wgt id='1326'> +5.2435462e-01 </wgt>
<wgt id='1327'> +5.2497370e-01 </wgt>
<wgt id='1328'> +5.2428606e-01 </wgt>
<wgt id='1329'> +5.2458951e-01 </wgt>
<wgt id='1330'> +5.2436948e-01 </wgt>
<wgt id='1331'> +5.2501246e-01 </wgt>
<wgt id='1332'> +5.2492828e-01 </wgt>
<wgt id='1333'> +5.2601296e-01 </wgt>
<wgt id='1334'> +5.2063870e-01 </wgt>
<wgt id='1335'> +5.2580274e-01 </wgt>
<wgt id='1336'> +5.2417877e-01 </wgt>
<wgt id='1337'> +5.2446469e-01 </wgt>
<wgt id='1338'> +5.2431001e-01 </wgt>
<wgt id='1339'> +5.2437620e-01 </wgt>
<wgt id='1340'> +5.2444319e-01 </wgt>
<wgt id='1341'> +5.2455624e-01 </wgt>
<wgt id='1342'> +5.2460948e-01 </wgt>
<wgt id='1343'> +5.2462920e-01 </wgt>
<wgt id='1344'> +5.2126666e-01 </wgt>
<wgt id='1345'> +5.2289511e-01 </wgt>
<wgt id='1346'> +5.1964922e-01 </wgt>
<wgt id='1347'> +5.2463019e-01 </wgt>
<wgt id='1348'> +5.1879087e-01 </wgt>
<wgt id='1349'> +5.2080652e-01 </wgt>
<wgt id='1350'> +5.2166851e-01 </wgt>
<wgt id='1351'> +5.2128663e-01 </wgt>
<wgt id='1352'> +5.2124267e-01 </wgt>
<wgt id='1353'> +5.2254316e-01 </wgt>
<wgt id='1354'> +5.2038788e-01 </wgt>
<wgt id='1355'> +5.1982135e-01 </wgt>
<wgt id='1356'> +5.2239185e-01 </wgt>
<wgt id='1357'> +5.2128249e-01 </wgt>
<wgt id='1358'> +5.2124319e-01 </wgt>
<wgt id='1359'> +5.1985149e-01 </wgt>
<wgt id='1360'> +5.2477999e-01 </wgt>
<wgt id='1361'> +5.2676815e-01 </wgt>
<wgt id='1362'> +5.1700981e-01 </wgt>
<wgt id='1363'> +5.2288792e-01 </wgt>
<wgt id='1364'> +5.1935483e-01 </wgt>
<wgt id='1365'> +5.2110762e-01 </wgt>
<wgt id='1366'> +5.2145238e-01 </wgt>
<wgt id='1367'> +5.2025305e-01 </wgt>
<wgt id='1368'> +5.2186543e-01 </wgt>
<wgt id='1369'> +5.1925836e-01 </wgt>
<wgt id='1370'> +5.2321161e-01 </wgt>
<wgt id='1371'> +5.2130598e-01 </wgt>
<wgt id='1372'> +5.2157869e-01 </wgt>
<wgt id='1373'> +5.2191950e-01 </wgt>
<wgt id='1374'> +5.2044288e-01 </wgt>
<wgt id='1375'> +5.2217440e-01 </wgt>
<wgt id='1376'> +5.2099444e-01 </wgt>
<wgt id='1377'> +5.2136167e-01 </wgt>
<wgt id='1378'> +5.2100879e-01 </wgt>
<wgt id='1379'> +5.2246431e-01 </wgt>
<wgt id='1380'> +5.2146666e-01 </wgt>
<wgt id='1381'> +5.2007511e-01 </wgt>
<wgt id='1382'> +5.1970447e-01 </wgt>
<wgt id='1383'> +5.2111041e-01 </wgt>
<wgt id='1384'> +5.2223352e-01 </wgt>
<wgt id='1385'> +5.2126666e-01 </wgt>
<wgt id='1386'> +5.2086272e-01 </wgt>
<wgt id='1387'> +5.2099923e-01 </wgt>
<wgt id='1388'> +5.2113413e-01 </wgt>
<wgt id='1389'> +5.2134193e-01 </wgt>
<wgt id='1390'> +5.2144955e-01 </wgt>
<wgt id='1391'> +5.2154421e-01 </wgt>
<wgt id='1392'> +5.4910900e-01 </wgt>
<wgt id='1393'> +5.4915230e-01 </wgt>
<wgt id='1394'> +5.4906993e-01 </wgt>
<wgt id='1395'> +5.4938839e-01 </wgt>
<wgt id='1396'> +5.4891210e-01 </wgt>
<wgt id='1397'> +5.5102721e-01 </wgt>
<wgt id='1398'> +5.4725628e-01 </wgt>
<wgt id='1399'> +5.5148051e-01 </wgt>
<wgt id='1400'> +5.4617861e-01 </wgt>
<wgt id='1401'> +5.4729268e-01 </wgt>
<wgt id='1402'> +5.5133812e-01 </wgt>
<wgt id='1403'> +5.4873796e-01 </wgt>
<wgt id='1404'> +5.4984420e-01 </wgt>
<wgt id='1405'> +5.4845340e-01 </wgt>
<wgt id='1406'> +5.5003416e-01 </wgt>
<wgt id='1407'> +5.4814602e-01 </wgt>
<wgt id='1408'> +5.4977252e-01 </wgt>
<wgt id='1409'> +5.5047310e-01 </wgt>
<wgt id='1410'> +5.4751985e-01 </wgt>
<wgt id='1411'> +5.4888601e-01 </wgt>
<wgt id='1412'> +5.4928311e-01 </wgt>
<wgt id='1413'> +5.5179506e-01 </wgt>
<wgt id='1414'> +5.4627878e-01 </wgt>
<wgt id='1415'> +5.5074549e-01 </wgt>
<wgt id='1416'> +5.4727471e-01 </wgt>
<wgt id='1417'> +5.5010010e-01 </wgt>
<wgt id='1418'> +5.4781146e-01 </wgt>
<wgt id='1419'> +5.4970671e-01 </wgt>
<wgt id='1420'> +5.4887531e-01 </wgt>
<wgt id='1421'> +5.5264792e-01 </wgt>
<wgt id='1422'> +5.4510326e-01 </wgt>
<wgt id='1423'> +5.5146720e-01 </wgt>
<wgt id='1424'> +5.4699314e-01 </wgt>
<wgt id='1425'> +5.4913068e-01 </wgt>
<wgt id='1426'> +5.4904001e-01 </wgt>
<wgt id='1427'> +5.4785730e-01 </wgt>
<wgt id='1428'> +5.4957771e-01 </wgt>
<wgt id='1429'> +5.4888388e-01 </wgt>
<wgt id='1430'> +5.4943275e-01 </wgt>
<wgt id='1431'> +5.4901716e-01 </wgt>
<wgt id='1432'> +5.4902837e-01 </wgt>
<wgt id='1433'> +5.4704366e-01 </wgt>
<wgt id='1434'> +5.5092254e-01 </wgt>
<wgt id='1435'> +5.4908086e-01 </wgt>
<wgt id='1436'> +5.4983900e-01 </wgt>
<wgt id='1437'> +5.4873634e-01 </wgt>
<wgt id='1438'> +5.4999335e-01 </wgt>
<wgt id='1439'> +5.5001171e-01 </wgt>
<wgt id='1440'> +5.4559865e-01 </wgt>
<wgt id='1441'> +5.4975791e-01 </wgt>
<wgt id='1442'> +5.4973999e-01 </wgt>
<wgt id='1443'> +5.4739614e-01 </wgt>
<wgt id='1444'> +5.4746793e-01 </wgt>
<wgt id='1445'> +5.4732642e-01 </wgt>
<wgt id='1446'> +5.4769386e-01 </wgt>
<wgt id='1447'> +5.4720057e-01 </wgt>
<wgt id='1448'> +5.4946214e-01 </wgt>
<wgt id='1449'> +5.4548843e-01 </wgt>
<wgt id='1450'> +5.4968996e-01 </wgt>
<wgt id='1451'> +5.4485235e-01 </wgt>
<wgt id='1452'> +5.4564070e-01 </wgt>
<wgt id='1453'> +5.4910484e-01 </wgt>
<wgt id='1454'> +5.4692360e-01 </wgt>
<wgt id='1455'> +5.4844728e-01 </wgt>
<wgt id='1456'> +5.4658430e-01 </wgt>
<wgt id='1457'> +5.4886316e-01 </wgt>
<wgt id='1458'> +5.4651511e-01 </wgt>
<wgt id='1459'> +5.4789988e-01 </wgt>
<wgt id='1460'> +5.4871441e-01 </wgt>
<wgt id='1461'> +5.4581404e-01 </wgt>
<wgt id='1462'> +5.4691198e-01 </wgt>
<wgt id='1463'> +5.4781617e-01 </wgt>
<wgt id='1464'> +5.4974960e-01 </wgt>
<wgt id='1465'> +5.4433132e-01 </wgt>
<wgt id='1466'> +5.4926802e-01 </wgt>
<wgt id='1467'> +5.4590678e-01 </wgt>
<wgt id='1468'> +5.4522800e-01 </wgt>
<wgt id='1469'> +5.4956268e-01 </wgt>
<wgt id='1470'> +5.4802733e-01 </wgt>
<wgt id='1471'> +5.4718304e-01 </wgt>
<wgt id='1472'> +5.5034279e-01 </wgt>
<wgt id='1473'> +5.4395210e-01 </wgt>
<wgt id='1474'> +5.4912754e-01 </wgt>
<wgt id='1475'> +5.4512235e-01 </wgt>
<wgt id='1476'> +5.4714947e-01 </wgt>
<wgt id='1477'> +5.4754193e-01 </wgt>
<wgt id='1478'> +5.4626054e-01 </wgt>
<wgt id='1479'> +5.4796561e-01 </wgt>
<wgt id='1480'> +5.4737406e-01 </wgt>
<wgt id='1481'> +5.4763191e-01 </wgt>
<wgt id='1482'> +5.4723788e-01 </wgt>
<wgt id='1483'> +5.4739791e-01 </wgt>
<wgt id='1484'> +5.4529060e-01 </wgt>
<wgt id='1485'> +5.4933666e-01 </wgt>
<wgt id='1486'> +5.4746653e-01 </wgt>
<wgt id='1487'> +5.4800765e-01 </wgt>
<wgt id='1488'> +5.4697114e-01 </wgt>
<wgt id='1489'> +5.4835550e-01 </wgt>
<wgt id='1490'> +5.4893796e-01 </wgt>
<wgt id='1491'> +5.4359434e-01 </wgt>
<wgt id='1492'> +5.4836997e-01 </wgt>
<wgt id='1493'> +5.4804389e-01 </wgt>
<wgt id='1494'> +5.2416893e-01 </wgt>
<wgt id='1495'> +5.2228305e-01 </wgt>
<wgt id='1496'> +5.2299782e-01 </wgt>
<wgt id='1497'> +5.2370870e-01 </wgt>
<wgt id='1498'> +5.2420491e-01 </wgt>
<wgt id='1499'> +5.2401233e-01 </wgt>
<wgt id='1500'> +5.2711613e-01 </wgt>
<wgt id='1501'> +5.2647484e-01 </wgt>
<wgt id='1502'> +5.2585980e-01 </wgt>
<wgt id='1503'> +5.2524289e-01 </wgt>
<wgt id='1504'> +5.2464327e-01 </wgt>
<wgt id='1505'> +5.2348215e-01 </wgt>
<wgt id='1506'> +5.2293314e-01 </wgt>
<wgt id='1507'> +5.2243506e-01 </wgt>
<wgt id='1508'> +5.2401233e-01 </wgt>
<wgt id='1509'> +5.2419242e-01 </wgt>
<wgt id='1510'> +5.2408270e-01 </wgt>
<wgt id='1511'> +5.2394859e-01 </wgt>
<wgt id='1512'> +5.2382097e-01 </wgt>
<wgt id='1513'> +5.2367615e-01 </wgt>
<wgt id='1514'> +5.2348528e-01 </wgt>
<wgt id='1515'> +5.2393119e-01 </wgt>
<wgt id='1516'> +5.2465230e-01 </wgt>
<wgt id='1517'> +5.2272627e-01 </wgt>
<wgt id='1518'> +5.2456202e-01 </wgt>
<wgt id='1519'> +5.2332239e-01 </wgt>
<wgt id='1520'> +5.2686024e-01 </wgt>
<wgt id='1521'> +5.2050960e-01 </wgt>
<wgt id='1522'> +5.2273653e-01 </wgt>
<wgt id='1523'> +5.2459002e-01 </wgt>
<wgt id='1524'> +5.2575904e-01 </wgt>
<wgt id='1525'> +5.2277024e-01 </wgt>
<wgt id='1526'> +5.2389770e-01 </wgt>
<wgt id='1527'> +5.2342320e-01 </wgt>
<wgt id='1528'> +5.2242036e-01 </wgt>
<wgt id='1529'> +5.2503707e-01 </wgt>
<wgt id='1530'> +5.2679399e-01 </wgt>
<wgt id='1531'> +5.2191049e-01 </wgt>
<wgt id='1532'> +5.2432423e-01 </wgt>
<wgt id='1533'> +5.2278657e-01 </wgt>
<wgt id='1534'> +5.2168885e-01 </wgt>
<wgt id='1535'> +5.2508479e-01 </wgt>
<wgt id='1536'> +5.2229922e-01 </wgt>
<wgt id='1537'> +5.2501391e-01 </wgt>
<wgt id='1538'> +5.2346363e-01 </wgt>
<wgt id='1539'> +5.2396011e-01 </wgt>
<wgt id='1540'> +5.2403723e-01 </wgt>
<wgt id='1541'> +5.2342919e-01 </wgt>
<wgt id='1542'> +5.2159793e-01 </wgt>
<wgt id='1543'> +5.2956081e-01 </wgt>
<wgt id='1544'> +5.2384452e-01 </wgt>
<wgt id='1545'> +5.2244251e-01 </wgt>
<wgt id='1546'> +5.2254198e-01 </wgt>
<wgt id='1547'> +5.2489102e-01 </wgt>
<wgt id='1548'> +5.2491847e-01 </wgt>
<wgt id='1549'> +5.2221202e-01 </wgt>
<wgt id='1550'> +5.2378509e-01 </wgt>
<wgt id='1551'> +5.2344343e-01 </wgt>
<wgt id='1552'> +5.2358595e-01 </wgt>
<wgt id='1553'> +5.2358169e-01 </wgt>
<wgt id='1554'> +5.2396897e-01 </wgt>
<wgt id='1555'> +5.2186852e-01 </wgt>
<wgt id='1556'> +5.2426772e-01 </wgt>
<wgt id='1557'> +5.2417157e-01 </wgt>
<wgt id='1558'> +5.2088067e-01 </wgt>
<wgt id='1559'> +5.2465169e-01 </wgt>
<wgt id='1560'> +5.2509506e-01 </wgt>
<wgt id='1561'> +5.2291642e-01 </wgt>
<wgt id='1562'> +5.2164618e-01 </wgt>
<wgt id='1563'> +5.2434351e-01 </wgt>
<wgt id='1564'> +5.2367615e-01 </wgt>
<wgt id='1565'> +5.2324693e-01 </wgt>
<wgt id='1566'> +5.2240463e-01 </wgt>
<wgt id='1567'> +5.2299758e-01 </wgt>
<wgt id='1568'> +5.2595391e-01 </wgt>
<wgt id='1569'> +5.2532305e-01 </wgt>
<wgt id='1570'> +5.2468888e-01 </wgt>
<wgt id='1571'> +5.2412737e-01 </wgt>
<wgt id='1572'> +5.2349020e-01 </wgt>
<wgt id='1573'> +5.2256084e-01 </wgt>
<wgt id='1574'> +5.2184056e-01 </wgt>
<wgt id='1575'> +5.2137969e-01 </wgt>
<wgt id='1576'> +5.2299758e-01 </wgt>
<wgt id='1577'> +5.2314901e-01 </wgt>
<wgt id='1578'> +5.2307990e-01 </wgt>
<wgt id='1579'> +5.2290820e-01 </wgt>
<wgt id='1580'> +5.2283943e-01 </wgt>
<wgt id='1581'> +5.2560817e-01 </wgt>
<wgt id='1582'> +5.2588885e-01 </wgt>
<wgt id='1583'> +5.2751069e-01 </wgt>
<wgt id='1584'> +5.2286543e-01 </wgt>
<wgt id='1585'> +5.2721983e-01 </wgt>
<wgt id='1586'> +5.2361485e-01 </wgt>
<wgt id='1587'> +5.1929959e-01 </wgt>
<wgt id='1588'> +5.2877435e-01 </wgt>
<wgt id='1589'> +5.2538206e-01 </wgt>
<wgt id='1590'> +5.2536879e-01 </wgt>
<wgt id='1591'> +5.2447734e-01 </wgt>
<wgt id='1592'> +5.2997953e-01 </wgt>
<wgt id='1593'> +5.2650380e-01 </wgt>
<wgt id='1594'> +5.2561224e-01 </wgt>
<wgt id='1595'> +5.2525015e-01 </wgt>
<wgt id='1596'> +5.2840848e-01 </wgt>
<wgt id='1597'> +5.2660307e-01 </wgt>
<wgt id='1598'> +5.2649677e-01 </wgt>
<wgt id='1599'> +5.2595656e-01 </wgt>
<wgt id='1600'> +5.2667609e-01 </wgt>
<wgt id='1601'> +5.2497458e-01 </wgt>
<wgt id='1602'> +5.2650931e-01 </wgt>
<wgt id='1603'> +5.2624119e-01 </wgt>
<wgt id='1604'> +5.2609922e-01 </wgt>
<wgt id='1605'> +5.2517221e-01 </wgt>
<wgt id='1606'> +5.2589446e-01 </wgt>
<wgt id='1607'> +5.2640019e-01 </wgt>
<wgt id='1608'> +5.2607892e-01 </wgt>
<wgt id='1609'> +5.2639644e-01 </wgt>
<wgt id='1610'> +5.2548483e-01 </wgt>
<wgt id='1611'> +5.2776068e-01 </wgt>
<wgt id='1612'> +5.2547100e-01 </wgt>
<wgt id='1613'> +5.2507871e-01 </wgt>
<wgt id='1614'> +5.2698105e-01 </wgt>
<wgt id='1615'> +5.2702060e-01 </wgt>
<wgt id='1616'> +5.2485710e-01 </wgt>
<wgt id='1617'> +5.2464692e-01 </wgt>
<wgt id='1618'> +5.2586108e-01 </wgt>
<wgt id='1619'> +5.2328004e-01 </wgt>
<wgt id='1620'> +5.2442448e-01 </wgt>
<wgt id='1621'> +5.2548415e-01 </wgt>
<wgt id='1622'> +5.2689552e-01 </wgt>
<wgt id='1623'> +5.2587327e-01 </wgt>
<wgt id='1624'> +5.2548702e-01 </wgt>
<wgt id='1625'> +5.2773998e-01 </wgt>
<wgt id='1626'> +5.2846856e-01 </wgt>
<wgt id='1627'> +5.2544966e-01 </wgt>
<wgt id='1628'> +5.2503188e-01 </wgt>
<wgt id='1629'> +5.2623630e-01 </wgt>
<wgt id='1630'> +5.2709014e-01 </wgt>
<wgt id='1631'> +5.2559439e-01 </wgt>
<wgt id='1632'> +5.2694799e-01 </wgt>
<wgt id='1633'> +5.2436251e-01 </wgt>
<wgt id='1634'> +5.2720850e-01 </wgt>
<wgt id='1635'> +5.2452984e-01 </wgt>
<wgt id='1636'> +5.2592656e-01 </wgt>
<wgt id='1637'> +5.2665526e-01 </wgt>
<wgt id='1638'> +5.2492408e-01 </wgt>
<wgt id='1639'> +5.2697995e-01 </wgt>
<wgt id='1640'> +5.2642450e-01 </wgt>
<wgt id='1641'> +5.2043039e-01 </wgt>
<wgt id='1642'> +5.2440433e-01 </wgt>
<wgt id='1643'> +5.2502297e-01 </wgt>
<wgt id='1644'> +5.2459471e-01 </wgt>
<wgt id='1645'> +5.2489753e-01 </wgt>
<wgt id='1646'> +5.2608985e-01 </wgt>
<wgt id='1647'> +5.2483261e-01 </wgt>
<wgt id='1648'> +5.2446867e-01 </wgt>
<wgt id='1649'> +5.2591442e-01 </wgt>
<wgt id='1650'> +5.2506778e-01 </wgt>
<wgt id='1651'> +5.2539840e-01 </wgt>
<wgt id='1652'> +5.2478829e-01 </wgt>
<wgt id='1653'> +5.2464114e-01 </wgt>
<wgt id='1654'> +5.2548996e-01 </wgt>
<wgt id='1655'> +5.2643014e-01 </wgt>
<wgt id='1656'> +5.2513834e-01 </wgt>
<wgt id='1657'> +5.2548083e-01 </wgt>
<wgt id='1658'> +5.2582787e-01 </wgt>
<wgt id='1659'> +5.2583259e-01 </wgt>
<wgt id='1660'> +5.2643745e-01 </wgt>
<wgt id='1661'> +5.2602639e-01 </wgt>
<wgt id='1662'> +5.2674764e-01 </wgt>
<wgt id='1663'> +5.2700664e-01 </wgt>
<wgt id='1664'> +5.2593669e-01 </wgt>
<wgt id='1665'> +5.2618480e-01 </wgt>
<wgt id='1666'> +5.2646599e-01 </wgt>
<wgt id='1667'> +5.2580429e-01 </wgt>
<wgt id='1668'> +5.2464985e-01 </wgt>
<wgt id='1669'> +5.2511684e-01 </wgt>
<wgt id='1670'> +5.2528631e-01 </wgt>
<wgt id='1671'> +5.2588118e-01 </wgt>
<wgt id='1672'> +5.2488704e-01 </wgt>
<wgt id='1673'> +5.2567611e-01 </wgt>
<wgt id='1674'> +5.2549870e-01 </wgt>
<wgt id='1675'> +5.2555222e-01 </wgt>
<wgt id='1676'> +5.2452051e-01 </wgt>
<wgt id='1677'> +5.2589510e-01 </wgt>
<wgt id='1678'> +5.2587376e-01 </wgt>
<wgt id='1679'> +5.2643518e-01 </wgt>
<wgt id='1680'> +5.2617541e-01 </wgt>
<wgt id='1681'> +5.2565263e-01 </wgt>
<wgt id='1682'> +5.2529834e-01 </wgt>
<wgt id='1683'> +5.2509606e-01 </wgt>
<wgt id='1684'> +5.2514409e-01 </wgt>
<wgt id='1685'> +5.2431366e-01 </wgt>
<wgt id='1686'> +5.2576513e-01 </wgt>
<wgt id='1687'> +5.2582484e-01 </wgt>
<wgt id='1688'> +5.2571668e-01 </wgt>
<wgt id='1689'> +5.2603680e-01 </wgt>
<wgt id='1690'> +5.2504798e-01 </wgt>
<wgt id='1691'> +5.2631840e-01 </wgt>
<wgt id='1692'> +5.2522769e-01 </wgt>
<wgt id='1693'> +5.2589026e-01 </wgt>
<wgt id='1694'> +5.2606226e-01 </wgt>
<wgt id='1695'> +5.2528378e-01 </wgt>
<wgt id='1696'> +5.2564430e-01 </wgt>
<wgt id='1697'> +5.2540453e-01 </wgt>
<wgt id='1698'> +5.2568797e-01 </wgt>
<wgt id='1699'> +5.2535984e-01 </wgt>
<wgt id='1700'> +5.2612753e-01 </wgt>
<wgt id='1701'> +5.2519313e-01 </wgt>
<wgt id='1702'> +5.2553109e-01 </wgt>
<wgt id='1703'> +5.2565421e-01 </wgt>
<wgt id='1704'> +5.2566776e-01 </wgt>
<wgt id='1705'> +5.2578146e-01 </wgt>
<wgt id='1706'> +5.2539748e-01 </wgt>
<wgt id='1707'> +5.2577221e-01 </wgt>
<wgt id='1708'> +5.2510939e-01 </wgt>
<wgt id='1709'> +5.2534407e-01 </wgt>
<wgt id='1710'> +5.2542683e-01 </wgt>
<wgt id='1711'> +5.2560733e-01 </wgt>
<wgt id='1712'> +5.2511284e-01 </wgt>
<wgt id='1713'> +5.2016241e-01 </wgt>
<wgt id='1714'> +5.2933342e-01 </wgt>
<wgt id='1715'> +5.1892535e-01 </wgt>
<wgt id='1716'> +5.1527233e-01 </wgt>
<wgt id='1717'> +5.1632694e-01 </wgt>
<wgt id='1718'> +5.0551102e-01 </wgt>
<wgt id='1719'> +5.1479628e-01 </wgt>
<wgt id='1720'> +5.3140639e-01 </wgt>
<wgt id='1721'> +4.9611763e-01 </wgt>
<wgt id='1722'> +5.1143679e-01 </wgt>
<wgt id='1723'> +5.1906607e-01 </wgt>
<wgt id='1724'> +5.2418080e-01 </wgt>
<wgt id='1725'> +5.2758978e-01 </wgt>
<wgt id='1726'> +5.3086191e-01 </wgt>
<wgt id='1727'> +5.1641026e-01 </wgt>
<wgt id='1728'> +5.2061641e-01 </wgt>
<wgt id='1729'> +5.1979043e-01 </wgt>
<wgt id='1730'> +5.0839124e-01 </wgt>
<wgt id='1731'> +4.9086052e-01 </wgt>
<wgt id='1732'> +5.3529486e-01 </wgt>
<wgt id='1733'> +5.2889760e-01 </wgt>
<wgt id='1734'> +5.1660171e-01 </wgt>
<wgt id='1735'> +5.1016035e-01 </wgt>
<wgt id='1736'> +5.1505642e-01 </wgt>
<wgt id='1737'> +5.2075027e-01 </wgt>
<wgt id='1738'> +5.2898191e-01 </wgt>
<wgt id='1739'> +5.0785155e-01 </wgt>
<wgt id='1740'> +5.0994778e-01 </wgt>
<wgt id='1741'> +5.2190590e-01 </wgt>
<wgt id='1742'> +5.3813543e-01 </wgt>
<wgt id='1743'> +5.0727550e-01 </wgt>
<wgt id='1744'> +5.2656476e-01 </wgt>
<wgt id='1745'> +5.0393800e-01 </wgt>
<wgt id='1746'> +5.1812602e-01 </wgt>
<wgt id='1747'> +5.1819953e-01 </wgt>
<wgt id='1748'> +5.2087497e-01 </wgt>
<wgt id='1749'> +5.3740105e-01 </wgt>
<wgt id='1750'> +5.2260628e-01 </wgt>
<wgt id='1751'> +5.1827291e-01 </wgt>
<wgt id='1752'> +4.9106424e-01 </wgt>
<wgt id='1753'> +5.1933667e-01 </wgt>
<wgt id='1754'> +5.2442056e-01 </wgt>
<wgt id='1755'> +5.2028928e-01 </wgt>
<wgt id='1756'> +5.0923032e-01 </wgt>
<wgt id='1757'> +5.0835034e-01 </wgt>
<wgt id='1758'> +5.0651473e-01 </wgt>
<wgt id='1759'> +5.1417036e-01 </wgt>
<wgt id='1760'> +5.0962743e-01 </wgt>
<wgt id='1761'> +5.2154527e-01 </wgt>
<wgt id='1762'> +5.1641026e-01 </wgt>
<wgt id='1763'> +5.1187233e-01 </wgt>
<wgt id='1764'> +5.2318125e-01 </wgt>
<wgt id='1765'> +5.2390122e-01 </wgt>
<wgt id='1766'> +5.4332390e-01 </wgt>
<wgt id='1767'> +5.2178773e-01 </wgt>
<wgt id='1768'> +4.9658309e-01 </wgt>
<wgt id='1769'> +5.2101590e-01 </wgt>
<wgt id='1770'> +5.3153338e-01 </wgt>
<wgt id='1771'> +5.2126401e-01 </wgt>
<wgt id='1772'> +5.2421737e-01 </wgt>
<wgt id='1773'> +5.2377155e-01 </wgt>
<wgt id='1774'> +5.1137927e-01 </wgt>
<wgt id='1775'> +5.2032532e-01 </wgt>
<wgt id='1776'> +5.2779979e-01 </wgt>
<wgt id='1777'> +5.1838937e-01 </wgt>
<wgt id='1778'> +5.2585820e-01 </wgt>
<wgt id='1779'> +5.1619338e-01 </wgt>
<wgt id='1780'> +5.3045407e-01 </wgt>
<wgt id='1781'> +5.2251078e-01 </wgt>
<wgt id='1782'> +5.3641593e-01 </wgt>
<wgt id='1783'> +5.1399533e-01 </wgt>
<wgt id='1784'> +5.3154577e-01 </wgt>
<wgt id='1785'> +5.3135583e-01 </wgt>
<wgt id='1786'> +5.2552081e-01 </wgt>
<wgt id='1787'> +5.2058680e-01 </wgt>
<wgt id='1788'> +5.1089879e-01 </wgt>
<wgt id='1789'> +5.2712184e-01 </wgt>
<wgt id='1790'> +5.2391037e-01 </wgt>
<wgt id='1791'> +5.0053722e-01 </wgt>
<wgt id='1792'> +5.1658095e-01 </wgt>
<wgt id='1793'> +5.4302079e-01 </wgt>
<wgt id='1794'> +5.2051005e-01 </wgt>
<wgt id='1795'> +5.0562399e-01 </wgt>
<wgt id='1796'> +5.1871566e-01 </wgt>
<wgt id='1797'> +5.0127646e-01 </wgt>
<wgt id='1798'> +5.2207273e-01 </wgt>
<wgt id='1799'> +5.3559118e-01 </wgt>
<wgt id='1800'> +5.2846726e-01 </wgt>
<wgt id='1801'> +5.0613785e-01 </wgt>
<wgt id='1802'> +5.1319051e-01 </wgt>
<wgt id='1803'> +5.1839982e-01 </wgt>
<wgt id='1804'> +5.2688698e-01 </wgt>
<wgt id='1805'> +5.2108078e-01 </wgt>
<wgt id='1806'> +5.2455103e-01 </wgt>
<wgt id='1807'> +5.0597853e-01 </wgt>
<wgt id='1808'> +5.2523916e-01 </wgt>
<wgt id='1809'> +5.1567110e-01 </wgt>
<wgt id='1810'> +5.1903061e-01 </wgt>
<wgt id='1811'> +5.2000990e-01 </wgt>
<wgt id='1812'> +5.1545852e-01 </wgt>
<wgt id='1813'> +5.2096814e-01 </wgt>
<wgt id='1814'> +5.0912589e-01 </wgt>
<wgt id='1815'> +5.2572167e-01 </wgt>
<wgt id='1816'> +5.3222862e-01 </wgt>
<wgt id='1817'> +5.3739270e-01 </wgt>
<wgt id='1818'> +5.2417859e-01 </wgt>
<wgt id='1819'> +5.3388201e-01 </wgt>
<wgt id='1820'> +5.4670217e-01 </wgt>
<wgt id='1821'> +5.3876537e-01 </wgt>
<wgt id='1822'> +5.3294584e-01 </wgt>
<wgt id='1823'> +5.3554081e-01 </wgt>
<wgt id='1824'> +5.2350738e-01 </wgt>
<wgt id='1825'> +5.2877075e-01 </wgt>
<wgt id='1826'> +5.2516401e-01 </wgt>
<wgt id='1827'> +5.2388624e-01 </wgt>
<wgt id='1828'> +5.3869758e-01 </wgt>
<wgt id='1829'> +5.3428702e-01 </wgt>
<wgt id='1830'> +5.1895688e-01 </wgt>
<wgt id='1831'> +5.2833698e-01 </wgt>
<wgt id='1832'> +5.3266267e-01 </wgt>
<wgt id='1833'> +5.1971453e-01 </wgt>
<wgt id='1834'> +5.2404734e-01 </wgt>
<wgt id='1835'> +5.3790563e-01 </wgt>
<wgt id='1836'> +5.3979570e-01 </wgt>
<wgt id='1837'> +5.3473347e-01 </wgt>
<wgt id='1838'> +5.2371223e-01 </wgt>
<wgt id='1839'> +5.6007167e-01 </wgt>
<wgt id='1840'> +5.3453718e-01 </wgt>
<wgt id='1841'> +5.3304369e-01 </wgt>
<wgt id='1842'> +5.3228832e-01 </wgt>
<wgt id='1843'> +5.1975644e-01 </wgt>
<wgt id='1844'> +5.2935879e-01 </wgt>
<wgt id='1845'> +5.2586950e-01 </wgt>
<wgt id='1846'> +5.3486667e-01 </wgt>
<wgt id='1847'> +5.3163034e-01 </wgt>
<wgt id='1848'> +5.2817829e-01 </wgt>
<wgt id='1849'> +5.3960156e-01 </wgt>
<wgt id='1850'> +5.4119335e-01 </wgt>
<wgt id='1851'> +5.3271225e-01 </wgt>
<wgt id='1852'> +5.3917244e-01 </wgt>
<wgt id='1853'> +5.1983675e-01 </wgt>
<wgt id='1854'> +5.3134478e-01 </wgt>
<wgt id='1855'> +5.3440126e-01 </wgt>
<wgt id='1856'> +5.3907895e-01 </wgt>
<wgt id='1857'> +5.4322416e-01 </wgt>
<wgt id='1858'> +5.3111082e-01 </wgt>
<wgt id='1859'> +5.3430437e-01 </wgt>
<wgt id='1860'> +5.3184591e-01 </wgt>
<wgt id='1861'> +5.3059805e-01 </wgt>
<wgt id='1862'> +5.3943622e-01 </wgt>
<wgt id='1863'> +5.2119429e-01 </wgt>
<wgt id='1864'> +5.2870758e-01 </wgt>
<wgt id='1865'> +5.3519633e-01 </wgt>
<wgt id='1866'> +5.3358087e-01 </wgt>
<wgt id='1867'> +5.3261296e-01 </wgt>
<wgt id='1868'> +5.2570009e-01 </wgt>
<wgt id='1869'> +5.4731185e-01 </wgt>
<wgt id='1870'> +5.3448076e-01 </wgt>
<wgt id='1871'> +5.3539034e-01 </wgt>
<wgt id='1872'> +5.1778193e-01 </wgt>
<wgt id='1873'> +5.4617446e-01 </wgt>
<wgt id='1874'> +5.3030121e-01 </wgt>
<wgt id='1875'> +5.2154974e-01 </wgt>
<wgt id='1876'> +5.3007357e-01 </wgt>
<wgt id='1877'> +5.3488726e-01 </wgt>
<wgt id='1878'> +5.2495054e-01 </wgt>
<wgt id='1879'> +5.4805612e-01 </wgt>
<wgt id='1880'> +5.1066315e-01 </wgt>
<wgt id='1881'> +5.4192470e-01 </wgt>
<wgt id='1882'> +5.2721641e-01 </wgt>
<wgt id='1883'> +5.5340931e-01 </wgt>
<wgt id='1884'> +5.2920892e-01 </wgt>
<wgt id='1885'> +5.2345579e-01 </wgt>
<wgt id='1886'> +5.2519285e-01 </wgt>
<wgt id='1887'> +5.3860369e-01 </wgt>
<wgt id='1888'> +5.3199482e-01 </wgt>
<wgt id='1889'> +5.2290296e-01 </wgt>
<wgt id='1890'> +5.4193684e-01 </wgt>
<wgt id='1891'> +5.2978772e-01 </wgt>
<wgt id='1892'> +5.3207720e-01 </wgt>
<wgt id='1893'> +5.3697172e-01 </wgt>
<wgt id='1894'> +5.4393107e-01 </wgt>
<wgt id='1895'> +5.4075727e-01 </wgt>
<wgt id='1896'> +5.2853314e-01 </wgt>
<wgt id='1897'> +5.3554080e-01 </wgt>
<wgt id='1898'> +5.3685819e-01 </wgt>
<wgt id='1899'> +5.2960599e-01 </wgt>
<wgt id='1900'> +5.3726441e-01 </wgt>
<wgt id='1901'> +5.1309589e-01 </wgt>
<wgt id='1902'> +5.2028035e-01 </wgt>
<wgt id='1903'> +5.2668929e-01 </wgt>
<wgt id='1904'> +5.3514805e-01 </wgt>
<wgt id='1905'> +5.3180936e-01 </wgt>
<wgt id='1906'> +5.2288653e-01 </wgt>
<wgt id='1907'> +5.3176077e-01 </wgt>
<wgt id='1908'> +5.4132020e-01 </wgt>
<wgt id='1909'> +5.2882662e-01 </wgt>
<wgt id='1910'> +5.4249610e-01 </wgt>
<wgt id='1911'> +5.0874564e-01 </wgt>
<wgt id='1912'> +5.3489679e-01 </wgt>
<wgt id='1913'> +5.3808197e-01 </wgt>
<wgt id='1914'> +5.4750689e-01 </wgt>
<wgt id='1915'> +5.4167093e-01 </wgt>
<wgt id='1916'> +5.0971537e-01 </wgt>
<wgt id='1917'> +5.6530492e-01 </wgt>
<wgt id='1918'> +5.9277993e-01 </wgt>
<wgt id='1919'> +5.3222862e-01 </wgt>
<wgt id='1920'> +5.3739270e-01 </wgt>
<wgt id='1921'> +5.2417859e-01 </wgt>
<wgt id='1922'> +5.3388201e-01 </wgt>
<wgt id='1923'> +5.4670217e-01 </wgt>
<wgt id='1924'> +5.3876537e-01 </wgt>
<wgt id='1925'> +5.3294584e-01 </wgt>
<wgt id='1926'> +5.3554081e-01 </wgt>
<wgt id='1927'> +5.2350738e-01 </wgt>
<wgt id='1928'> +5.2877075e-01 </wgt>
<wgt id='1929'> +5.2516401e-01 </wgt>
<wgt id='1930'> +5.2388624e-01 </wgt>
<wgt id='1931'> +5.3869758e-01 </wgt>
<wgt id='1932'> +5.3428702e-01 </wgt>
<wgt id='1933'> +5.1895688e-01 </wgt>
<wgt id='1934'> +5.2833698e-01 </wgt>
<wgt id='1935'> +5.3266267e-01 </wgt>
<wgt id='1936'> +5.1971453e-01 </wgt>
<wgt id='1937'> +5.2404734e-01 </wgt>
<wgt id='1938'> +5.3790563e-01 </wgt>
<wgt id='1939'> +5.3979570e-01 </wgt>
<wgt id='1940'> +5.3473347e-01 </wgt>
<wgt id='1941'> +5.2371223e-01 </wgt>
<wgt id='1942'> +5.6007167e-01 </wgt>
<wgt id='1943'> +5.3453718e-01 </wgt>
<wgt id='1944'> +5.3304369e-01 </wgt>
<wgt id='1945'> +5.3228832e-01 </wgt>
<wgt id='1946'> +5.1975644e-01 </wgt>
<wgt id='1947'> +5.2935879e-01 </wgt>
<wgt id='1948'> +5.2586950e-01 </wgt>
<wgt id='1949'> +5.3486667e-01 </wgt>
<wgt id='1950'> +5.3163034e-01 </wgt>
<wgt id='1951'> +5.2817829e-01 </wgt>
<wgt id='1952'> +5.3960156e-01 </wgt>
<wgt id='1953'> +5.4119335e-01 </wgt>
<wgt id='1954'> +5.3271225e-01 </wgt>
<wgt id='1955'> +5.3917244e-01 </wgt>
<wgt id='1956'> +5.1983675e-01 </wgt>
<wgt id='1957'> +5.3134478e-01 </wgt>
<wgt id='1958'> +5.3440126e-01 </wgt>
<wgt id='1959'> +5.3907895e-01 </wgt>
<wgt id='1960'> +5.4322416e-01 </wgt>
<wgt id='1961'> +5.3111082e-01 </wgt>
<wgt id='1962'> +5.3430437e-01 </wgt>
<wgt id='1963'> +5.3184591e-01 </wgt>
<wgt id='1964'> +5.3059805e-01 </wgt>
<wgt id='1965'> +5.3943622e-01 </wgt>
<wgt id='1966'> +5.2119429e-01 </wgt>
<wgt id='1967'> +5.2870758e-01 </wgt>
<wgt id='1968'> +5.3519633e-01 </wgt>
<wgt id='1969'> +5.3358087e-01 </wgt>
<wgt id='1970'> +5.3261296e-01 </wgt>
<wgt id='1971'> +5.2570009e-01 </wgt>
<wgt id='1972'> +5.4731185e-01 </wgt>
<wgt id='1973'> +5.3448076e-01 </wgt>
<wgt id='1974'> +5.3539034e-01 </wgt>
<wgt id='1975'> +5.1778193e-01 </wgt>
<wgt id='1976'> +5.4617446e-01 </wgt>
<wgt id='1977'> +5.3030121e-01 </wgt>
<wgt id='1978'> +5.2154974e-01 </wgt>
<wgt id='1979'> +5.3007357e-01 </wgt>
<wgt id='1980'> +5.3488726e-01 </wgt>
<wgt id='1981'> +5.2495054e-01 </wgt>
<wgt id='1982'> +5.4805612e-01 </wgt>
<wgt id='1983'> +5.1066315e-01 </wgt>
<wgt id='1984'> +5.4192470e-01 </wgt>
<wgt id='1985'> +5.2721641e-01 </wgt>
<wgt id='1986'> +5.5340931e-01 </wgt>
<wgt id='1987'> +5.2920892e-01 </wgt>
<wgt id='1988'> +5.2345579e-01 </wgt>
<wgt id='1989'> +5.2519285e-01 </wgt>
<wgt id='1990'> +5.3860369e-01 </wgt>
<wgt id='1991'> +5.3199482e-01 </wgt>
<wgt id='1992'> +5.2290296e-01 </wgt>
<wgt id='1993'> +5.4193684e-01 </wgt>
<wgt id='1994'> +5.2978772e-01 </wgt>
<wgt id='1995'> +5.3207720e-01 </wgt>
<wgt id='1996'> +5.3697172e-01 </wgt>
<wgt id='1997'> +5.4393107e-01 </wgt>
<wgt id='1998'> +5.4075727e-01 </wgt>
<wgt id='1999'> +5.2853314e-01 </wgt>
<wgt id='2000'> +5.3554080e-01 </wgt>
<wgt id='2001'> +5.3685819e-01 </wgt>
<wgt id='2002'> +5.2960599e-01 </wgt>
<wgt id='2003'> +5.3726441e-01 </wgt>
<wgt id='2004'> +5.1309589e-01 </wgt>
<wgt id='2005'> +5.2028035e-01 </wgt>
<wgt id='2006'> +5.2668929e-01 </wgt>
<wgt id='2007'> +5.3514805e-01 </wgt>
<wgt id='2008'> +5.3180936e-01 </wgt>
<wgt id='2009'> +5.2288653e-01 </wgt>
<wgt id='2010'> +5.3176077e-01 </wgt>
<wgt id='2011'> +5.4132020e-01 </wgt>
<wgt id='2012'> +5.2882662e-01 </wgt>
<wgt id='2013'> +5.4249610e-01 </wgt>
<wgt id='2014'> +5.0874564e-01 </wgt>
<wgt id='2015'> +5.3489679e-01 </wgt>
<wgt id='2016'> +5.3808197e-01 </wgt>
<wgt id='2017'> +5.4750689e-01 </wgt>
<wgt id='2018'> +5.4167093e-01 </wgt>
<wgt id='2019'> +5.0971537e-01 </wgt>
<wgt id='2020'> +5.3193713e-01 </wgt>
<wgt id='2021'> +5.3225710e-01 </wgt>
<wgt id='2022'> +5.3214450e-01 </wgt>
</rwgt>
</event>
<event>
 13 2 0.0079112 9.91919300e+01 7.81860800e-03 1.13059200e-01
        1 -1    0    0  501    0 +0.0000000000e+00 +0.0000000000e+00 +1.9267595996e+02 1.9267596003e+02 5.0400000000e-03 0.0000e+00 -1.0000e+00
       21 -1    0    0  502  503 +0.0000000000e+00 +0.0000000000e+00 -1.5321186857e+03 1.5321186857e+03 0.0000000000e+00 0.0000e+00 1.0000e+00
 -8000001  2    1    2    0  503 +9.5552005566e+01 -1.1210450675e+01 -8.9042246300e+02 1.0780122332e+03 6.0000196032e+02 0.0000e+00 0.0000e+00
        2  1    1    2  501    0 -9.9246662150e+01 +2.4768406292e+00 +7.3895282200e+01 1.2376003970e+02 2.5500000000e-03 0.0000e+00 -1.0000e+00
        5  1    1    2  502    0 +3.6946565838e+00 +8.7336100453e+00 -5.2291554494e+02 5.2302237282e+02 4.6700000000e+00 0.0000e+00 -1.0000e+00
       -6  2    3    3    0  503 +1.4700762498e+02 -1.3133963876e+02 -1.1663114635e+02 2.8794861669e+02 1.7449996860e+02 0.0000e+00 0.0000e+00
       -5  1    6    6    0  503 -2.9212821096e+01 -3.9463202620e+01 -3.3166914421e+01 5.9435565029e+01 4.6700000000e+00 0.0000e+00 1.0000e+00
      -24  2    6    6    0    0 +1.7622044607e+02 -9.1876436140e+01 -8.3464231932e+01 2.2851305166e+02 7.5874973708e+01 0.0000e+00 0.0000e+00
        1  1    8    8  504    0 +5.9128251800e+01 -3.1493206271e+01 -6.8678305573e+01 9.5941033369e+01 5.0400000000e-03 0.0000e+00 -1.0000e+00
       -2  1    8    8    0  504 +1.1709219427e+02 -6.0383229869e+01 -1.4785926360e+01 1.3257201829e+02 2.5500000000e-03 0.0000e+00 1.0000e+00
       23  2    3    3    0    0 -5.1455619411e+01 +1.2012918808e+02 -7.7379131665e+02 7.9006361652e+02 9.1481221225e+01 0.0000e+00 0.0000e+00
        5  1   11   11  505    0 -7.4910847823e+01 +1.0756640821e+02 -6.7612926207e+02 6.8873416877e+02 4.6700000000e+00 0.0000e+00 -1.0000e+00
       -5  1   11   11    0  505 +2.3455228412e+01 +1.2562779872e+01 -9.7662054577e+01 1.0132944776e+02 4.6700000000e+00 0.0000e+00 1.0000e+00
<mgrwt>
<rscale>  1 0.89179275e+02</rscale>
<asrwt>0</asrwt>
<pdfrwt beam="1">  1       21 0.23571056e+00 0.80177316e+02</pdfrwt>
<pdfrwt beam="2">  1        1 0.29642456e-01 0.99191934e+02</pdfrwt>
<totfact> 0.13234805e+02</totfact>
</mgrwt>
<rwgt>
<wgt id='1001'> +5.2878984e-01 </wgt>
<wgt id='1002'> +3.1766250e-01 </wgt>
<wgt id='1003'> +3.1741289e-01 </wgt>
<wgt id='1004'> +3.8035497e-01 </wgt>
<wgt id='1005'> +2.6530765e-01 </wgt>
<wgt id='1006'> +4.7646638e-01 </wgt>
<wgt id='1007'> +2.9277353e-01 </wgt>
<wgt id='1008'> +2.9255264e-01 </wgt>
<wgt id='1009'> +3.4790459e-01 </wgt>
<wgt id='1010'> +2.4620422e-01 </wgt>
<wgt id='1011'> +5.9452232e-01 </wgt>
<wgt id='1012'> +3.4730526e-01 </wgt>
<wgt id='1013'> +3.4701920e-01 </wgt>
<wgt id='1014'> +4.1969437e-01 </wgt>
<wgt id='1015'> +2.8770609e-01 </wgt>
<wgt id='1016'> +4.7623716e-01 </wgt>
<wgt id='1017'> +2.9153200e-01 </wgt>
<wgt id='1018'> +2.9131037e-01 </wgt>
<wgt id='1019'> +3.4701920e-01 </wgt>
<wgt id='1020'> +2.4481808e-01 </wgt>
<wgt id='1021'> +4.2911375e-01 </wgt>
<wgt id='1022'> +2.6869037e-01 </wgt>
<wgt id='1023'> +2.6849451e-01 </wgt>
<wgt id='1024'> +3.1741289e-01 </wgt>
<wgt id='1025'> +2.2718999e-01 </wgt>
<wgt id='1026'> +5.3543695e-01 </wgt>
<wgt id='1027'> +3.1873639e-01 </wgt>
<wgt id='1028'> +3.1848200e-01 </wgt>
<wgt id='1029'> +3.8291074e-01 </wgt>
<wgt id='1030'> +2.6548669e-01 </wgt>
<wgt id='1031'> +5.9231689e-01 </wgt>
<wgt id='1032'> +3.4818793e-01 </wgt>
<wgt id='1033'> +3.4790459e-01 </wgt>
<wgt id='1034'> +4.1970939e-01 </wgt>
<wgt id='1035'> +2.8896095e-01 </wgt>
<wgt id='1036'> +5.3370746e-01 </wgt>
<wgt id='1037'> +3.2090728e-01 </wgt>
<wgt id='1038'> +3.2065618e-01 </wgt>
<wgt id='1039'> +3.8390145e-01 </wgt>
<wgt id='1040'> +2.6815436e-01 </wgt>
<wgt id='1041'> +6.6594625e-01 </wgt>
<wgt id='1042'> +3.8067918e-01 </wgt>
<wgt id='1043'> +3.8035497e-01 </wgt>
<wgt id='1044'> +4.6311914e-01 </wgt>
<wgt id='1045'> +3.1335630e-01 </wgt>
<wgt id='1046'> +5.2878984e-01 </wgt>
<wgt id='1047'> +5.2878984e-01 </wgt>
<wgt id='1048'> +5.2878984e-01 </wgt>
<wgt id='1049'> +5.2864981e-01 </wgt>
<wgt id='1050'> +5.2842262e-01 </wgt>
<wgt id='1051'> +5.2708721e-01 </wgt>
<wgt id='1052'> +5.2971478e-01 </wgt>
<wgt id='1053'> +5.2603799e-01 </wgt>
<wgt id='1054'> +5.2769630e-01 </wgt>
<wgt id='1055'> +5.2640112e-01 </wgt>
<wgt id='1056'> +5.2456885e-01 </wgt>
<wgt id='1057'> +5.2797574e-01 </wgt>
<wgt id='1058'> +5.2537351e-01 </wgt>
<wgt id='1059'> +5.3303668e-01 </wgt>
<wgt id='1060'> +5.3021263e-01 </wgt>
<wgt id='1061'> +5.2898540e-01 </wgt>
<wgt id='1062'> +5.2961617e-01 </wgt>
<wgt id='1063'> +5.3415612e-01 </wgt>
<wgt id='1064'> +5.2750115e-01 </wgt>
<wgt id='1065'> +5.3045261e-01 </wgt>
<wgt id='1066'> +5.2363287e-01 </wgt>
<wgt id='1067'> +5.3014912e-01 </wgt>
<wgt id='1068'> +5.3094204e-01 </wgt>
<wgt id='1069'> +5.2817888e-01 </wgt>
<wgt id='1070'> +5.3272354e-01 </wgt>
<wgt id='1071'> +5.2492451e-01 </wgt>
<wgt id='1072'> +5.3300709e-01 </wgt>
<wgt id='1073'> +5.2288652e-01 </wgt>
<wgt id='1074'> +5.2436955e-01 </wgt>
<wgt id='1075'> +5.3537740e-01 </wgt>
<wgt id='1076'> +5.2528765e-01 </wgt>
<wgt id='1077'> +5.2779752e-01 </wgt>
<wgt id='1078'> +5.3077404e-01 </wgt>
<wgt id='1079'> +5.2946562e-01 </wgt>
<wgt id='1080'> +5.2682412e-01 </wgt>
<wgt id='1081'> +5.2971707e-01 </wgt>
<wgt id='1082'> +5.2707553e-01 </wgt>
<wgt id='1083'> +5.3256229e-01 </wgt>
<wgt id='1084'> +5.2852665e-01 </wgt>
<wgt id='1085'> +5.2647575e-01 </wgt>
<wgt id='1086'> +5.2818586e-01 </wgt>
<wgt id='1087'> +5.3068038e-01 </wgt>
<wgt id='1088'> +5.2703197e-01 </wgt>
<wgt id='1089'> +5.2801475e-01 </wgt>
<wgt id='1090'> +5.3019745e-01 </wgt>
<wgt id='1091'> +5.2752773e-01 </wgt>
<wgt id='1092'> +5.2763452e-01 </wgt>
<wgt id='1093'> +5.2904368e-01 </wgt>
<wgt id='1094'> +5.2764630e-01 </wgt>
<wgt id='1095'> +5.2859158e-01 </wgt>
<wgt id='1096'> +5.2925612e-01 </wgt>
<wgt id='1097'> +5.2678552e-01 </wgt>
<wgt id='1098'> +5.2785255e-01 </wgt>
<wgt id='1099'> +5.2731236e-01 </wgt>
<wgt id='1100'> +5.2992955e-01 </wgt>
<wgt id='1101'> +5.2830435e-01 </wgt>
<wgt id='1102'> +5.2947260e-01 </wgt>
<wgt id='1103'> +5.2747771e-01 </wgt>
<wgt id='1104'> +5.2881207e-01 </wgt>
<wgt id='1105'> +5.2965545e-01 </wgt>
<wgt id='1106'> +5.3025029e-01 </wgt>
<wgt id='1107'> +5.3039022e-01 </wgt>
<wgt id='1108'> +5.2834446e-01 </wgt>
<wgt id='1109'> +5.2866101e-01 </wgt>
<wgt id='1110'> +5.2946589e-01 </wgt>
<wgt id='1111'> +5.2826086e-01 </wgt>
<wgt id='1112'> +5.2865912e-01 </wgt>
<wgt id='1113'> +5.2974316e-01 </wgt>
<wgt id='1114'> +5.2812162e-01 </wgt>
<wgt id='1115'> +5.2737114e-01 </wgt>
<wgt id='1116'> +5.3066337e-01 </wgt>
<wgt id='1117'> +5.2904545e-01 </wgt>
<wgt id='1118'> +5.2900476e-01 </wgt>
<wgt id='1119'> +5.2843700e-01 </wgt>
<wgt id='1120'> +5.2828673e-01 </wgt>
<wgt id='1121'> +5.2837020e-01 </wgt>
<wgt id='1122'> +5.2887133e-01 </wgt>
<wgt id='1123'> +5.2811337e-01 </wgt>
<wgt id='1124'> +5.2925922e-01 </wgt>
<wgt id='1125'> +5.2904142e-01 </wgt>
<wgt id='1126'> +5.2897765e-01 </wgt>
<wgt id='1127'> +5.2887570e-01 </wgt>
<wgt id='1128'> +5.2893642e-01 </wgt>
<wgt id='1129'> +5.2821128e-01 </wgt>
<wgt id='1130'> +5.2865449e-01 </wgt>
<wgt id='1131'> +5.2954031e-01 </wgt>
<wgt id='1132'> +5.2846064e-01 </wgt>
<wgt id='1133'> +5.2895497e-01 </wgt>
<wgt id='1134'> +5.2864779e-01 </wgt>
<wgt id='1135'> +5.2916576e-01 </wgt>
<wgt id='1136'> +5.2853261e-01 </wgt>
<wgt id='1137'> +5.2821878e-01 </wgt>
<wgt id='1138'> +5.2889412e-01 </wgt>
<wgt id='1139'> +5.2896999e-01 </wgt>
<wgt id='1140'> +5.2932958e-01 </wgt>
<wgt id='1141'> +5.2843149e-01 </wgt>
<wgt id='1142'> +5.2862928e-01 </wgt>
<wgt id='1143'> +5.2941431e-01 </wgt>
<wgt id='1144'> +5.2841593e-01 </wgt>
<wgt id='1145'> +5.2922175e-01 </wgt>
<wgt id='1146'> +5.2891522e-01 </wgt>
<wgt id='1147'> +5.2878205e-01 </wgt>
<wgt id='1148'> +5.2878984e-01 </wgt>
<wgt id='1149'> +5.1011203e-01 </wgt>
<wgt id='1150'> +5.6055138e-01 </wgt>
<wgt id='1151'> +5.0662216e-01 </wgt>
<wgt id='1152'> +4.6625027e-01 </wgt>
<wgt id='1153'> +4.9727500e-01 </wgt>
<wgt id='1154'> +4.9928067e-01 </wgt>
<wgt id='1155'> +5.4123804e-01 </wgt>
<wgt id='1156'> +5.1116371e-01 </wgt>
<wgt id='1157'> +4.9188005e-01 </wgt>
<wgt id='1158'> +4.9422346e-01 </wgt>
<wgt id='1159'> +5.1707488e-01 </wgt>
<wgt id='1160'> +5.1032069e-01 </wgt>
<wgt id='1161'> +5.1751813e-01 </wgt>
<wgt id='1162'> +5.1704102e-01 </wgt>
<wgt id='1163'> +5.2042508e-01 </wgt>
<wgt id='1164'> +5.1835838e-01 </wgt>
<wgt id='1165'> +4.9735470e-01 </wgt>
<wgt id='1166'> +5.1368477e-01 </wgt>
<wgt id='1167'> +4.9657180e-01 </wgt>
<wgt id='1168'> +4.9777897e-01 </wgt>
<wgt id='1169'> +4.9352242e-01 </wgt>
<wgt id='1170'> +5.0896347e-01 </wgt>
<wgt id='1171'> +5.0426710e-01 </wgt>
<wgt id='1172'> +5.1074681e-01 </wgt>
<wgt id='1173'> +5.1909841e-01 </wgt>
<wgt id='1174'> +4.9608021e-01 </wgt>
<wgt id='1175'> +5.0930995e-01 </wgt>
<wgt id='1176'> +5.3081920e-01 </wgt>
<wgt id='1177'> +4.9475805e-01 </wgt>
<wgt id='1178'> +5.1847331e-01 </wgt>
<wgt id='1179'> +5.2224417e-01 </wgt>
<wgt id='1180'> +4.8013871e-01 </wgt>
<wgt id='1181'> +5.3276899e-01 </wgt>
<wgt id='1182'> +5.1633783e-01 </wgt>
<wgt id='1183'> +5.0391105e-01 </wgt>
<wgt id='1184'> +4.8656627e-01 </wgt>
<wgt id='1185'> +5.2385347e-01 </wgt>
<wgt id='1186'> +5.1180492e-01 </wgt>
<wgt id='1187'> +5.1005430e-01 </wgt>
<wgt id='1188'> +5.2183199e-01 </wgt>
<wgt id='1189'> +4.9546135e-01 </wgt>
<wgt id='1190'> +4.8796062e-01 </wgt>
<wgt id='1191'> +5.1553592e-01 </wgt>
<wgt id='1192'> +5.1710566e-01 </wgt>
<wgt id='1193'> +5.1705814e-01 </wgt>
<wgt id='1194'> +5.0817643e-01 </wgt>
<wgt id='1195'> +5.2226089e-01 </wgt>
<wgt id='1196'> +5.2129774e-01 </wgt>
<wgt id='1197'> +5.1303079e-01 </wgt>
<wgt id='1198'> +5.3767785e-01 </wgt>
<wgt id='1199'> +5.1361749e-01 </wgt>
<wgt id='1200'> +5.4061654e-01 </wgt>
<wgt id='1201'> +5.0684119e-01 </wgt>
<wgt id='1202'> +5.1273517e-01 </wgt>
<wgt id='1203'> +5.3227609e-01 </wgt>
<wgt id='1204'> +4.9793613e-01 </wgt>
<wgt id='1205'> +5.2121299e-01 </wgt>
<wgt id='1206'> +5.3043354e-01 </wgt>
<wgt id='1207'> +5.2634982e-01 </wgt>
<wgt id='1208'> +4.8397108e-01 </wgt>
<wgt id='1209'> +5.2578563e-01 </wgt>
<wgt id='1210'> +5.2006799e-01 </wgt>
<wgt id='1211'> +5.0686335e-01 </wgt>
<wgt id='1212'> +5.0760179e-01 </wgt>
<wgt id='1213'> +5.0401694e-01 </wgt>
<wgt id='1214'> +5.0910862e-01 </wgt>
<wgt id='1215'> +4.9859127e-01 </wgt>
<wgt id='1216'> +4.9233408e-01 </wgt>
<wgt id='1217'> +5.1784407e-01 </wgt>
<wgt id='1218'> +5.1364030e-01 </wgt>
<wgt id='1219'> +5.3282339e-01 </wgt>
<wgt id='1220'> +5.1026747e-01 </wgt>
<wgt id='1221'> +5.3040098e-01 </wgt>
<wgt id='1222'> +4.8477080e-01 </wgt>
<wgt id='1223'> +4.8136602e-01 </wgt>
<wgt id='1224'> +4.9971105e-01 </wgt>
<wgt id='1225'> +5.0069020e-01 </wgt>
<wgt id='1226'> +5.0245897e-01 </wgt>
<wgt id='1227'> +5.1452849e-01 </wgt>
<wgt id='1228'> +5.0851025e-01 </wgt>
<wgt id='1229'> +5.2471060e-01 </wgt>
<wgt id='1230'> +5.1566351e-01 </wgt>
<wgt id='1231'> +4.9735470e-01 </wgt>
<wgt id='1232'> +5.0048248e-01 </wgt>
<wgt id='1233'> +4.9386064e-01 </wgt>
<wgt id='1234'> +4.9795248e-01 </wgt>
<wgt id='1235'> +5.5711590e-01 </wgt>
<wgt id='1236'> +5.1076795e-01 </wgt>
<wgt id='1237'> +5.1854037e-01 </wgt>
<wgt id='1238'> +4.5649076e-01 </wgt>
<wgt id='1239'> +5.0352356e-01 </wgt>
<wgt id='1240'> +4.9479627e-01 </wgt>
<wgt id='1241'> +5.2324372e-01 </wgt>
<wgt id='1242'> +5.0451247e-01 </wgt>
<wgt id='1243'> +5.2789575e-01 </wgt>
<wgt id='1244'> +5.3009019e-01 </wgt>
<wgt id='1245'> +4.9130313e-01 </wgt>
<wgt id='1246'> +5.4498784e-01 </wgt>
<wgt id='1247'> +5.0193195e-01 </wgt>
<wgt id='1248'> +4.8574334e-01 </wgt>
<wgt id='1249'> +4.9798291e-01 </wgt>
<wgt id='1250'> +5.6714063e-01 </wgt>
<wgt id='1251'> +5.5969658e-01 </wgt>
<wgt id='1252'> +6.0613419e-01 </wgt>
<wgt id='1253'> +5.9470666e-01 </wgt>
<wgt id='1254'> +7.0080782e-01 </wgt>
<wgt id='1255'> +6.1864008e-01 </wgt>
<wgt id='1256'> +6.1781576e-01 </wgt>
<wgt id='1257'> +6.1914020e-01 </wgt>
<wgt id='1258'> +6.1964576e-01 </wgt>
<wgt id='1259'> +6.1814064e-01 </wgt>
<wgt id='1260'> +6.1925158e-01 </wgt>
<wgt id='1261'> +6.1783136e-01 </wgt>
<wgt id='1262'> +6.1908708e-01 </wgt>
<wgt id='1263'> +6.1835124e-01 </wgt>
<wgt id='1264'> +6.1943154e-01 </wgt>
<wgt id='1265'> +6.1806508e-01 </wgt>
<wgt id='1266'> +6.2062279e-01 </wgt>
<wgt id='1267'> +6.1668413e-01 </wgt>
<wgt id='1268'> +6.2248405e-01 </wgt>
<wgt id='1269'> +6.1478658e-01 </wgt>
<wgt id='1270'> +6.0566786e-01 </wgt>
<wgt id='1271'> +6.3369667e-01 </wgt>
<wgt id='1272'> +6.1543831e-01 </wgt>
<wgt id='1273'> +6.2100992e-01 </wgt>
<wgt id='1274'> +6.2416395e-01 </wgt>
<wgt id='1275'> +6.1183153e-01 </wgt>
<wgt id='1276'> +6.3267052e-01 </wgt>
<wgt id='1277'> +6.0437429e-01 </wgt>
<wgt id='1278'> +6.1275389e-01 </wgt>
<wgt id='1279'> +6.2303594e-01 </wgt>
<wgt id='1280'> +6.2045993e-01 </wgt>
<wgt id='1281'> +6.1289485e-01 </wgt>
<wgt id='1282'> +6.0629183e-01 </wgt>
<wgt id='1283'> +6.2849113e-01 </wgt>
<wgt id='1284'> +6.2367655e-01 </wgt>
<wgt id='1285'> +6.1360419e-01 </wgt>
<wgt id='1286'> +6.1978835e-01 </wgt>
<wgt id='1287'> +6.1857559e-01 </wgt>
<wgt id='1288'> +6.2236968e-01 </wgt>
<wgt id='1289'> +6.1720054e-01 </wgt>
<wgt id='1290'> +6.1955256e-01 </wgt>
<wgt id='1291'> +6.1833692e-01 </wgt>
<wgt id='1292'> +6.2288417e-01 </wgt>
<wgt id='1293'> +6.1313772e-01 </wgt>
<wgt id='1294'> +6.2537601e-01 </wgt>
<wgt id='1295'> +6.1008938e-01 </wgt>
<wgt id='1296'> +6.1036474e-01 </wgt>
<wgt id='1297'> +6.1240150e-01 </wgt>
<wgt id='1298'> +6.0869651e-01 </wgt>
<wgt id='1299'> +6.1193550e-01 </wgt>
<wgt id='1300'> +6.0861627e-01 </wgt>
<wgt id='1301'> +6.0940034e-01 </wgt>
<wgt id='1302'> +6.1179931e-01 </wgt>
<wgt id='1303'> +6.1236022e-01 </wgt>
<wgt id='1304'> +6.0901545e-01 </wgt>
<wgt id='1305'> +6.1038850e-01 </wgt>
<wgt id='1306'> +6.1032807e-01 </wgt>
<wgt id='1307'> +6.1010960e-01 </wgt>
<wgt id='1308'> +6.1051447e-01 </wgt>
<wgt id='1309'> +6.1061644e-01 </wgt>
<wgt id='1310'> +6.0997329e-01 </wgt>
<wgt id='1311'> +6.1028917e-01 </wgt>
<wgt id='1312'> +6.1038160e-01 </wgt>
<wgt id='1313'> +5.9897230e-01 </wgt>
<wgt id='1314'> +6.2482102e-01 </wgt>
<wgt id='1315'> +6.1284782e-01 </wgt>
<wgt id='1316'> +6.0809091e-01 </wgt>
<wgt id='1317'> +6.2777093e-01 </wgt>
<wgt id='1318'> +5.8162127e-01 </wgt>
<wgt id='1319'> +5.9965664e-01 </wgt>
<wgt id='1320'> +6.1730669e-01 </wgt>
<wgt id='1321'> +6.0192191e-01 </wgt>
<wgt id='1322'> +6.1445860e-01 </wgt>
<wgt id='1323'> +6.1296767e-01 </wgt>
<wgt id='1324'> +6.0850129e-01 </wgt>
<wgt id='1325'> +6.0607684e-01 </wgt>
<wgt id='1326'> +6.1641259e-01 </wgt>
<wgt id='1327'> +6.0798128e-01 </wgt>
<wgt id='1328'> +6.1135685e-01 </wgt>
<wgt id='1329'> +6.1119928e-01 </wgt>
<wgt id='1330'> +6.0997534e-01 </wgt>
<wgt id='1331'> +6.1555488e-01 </wgt>
<wgt id='1332'> +6.0766030e-01 </wgt>
<wgt id='1333'> +5.9919899e-01 </wgt>
<wgt id='1334'> +6.2780049e-01 </wgt>
<wgt id='1335'> +6.1213041e-01 </wgt>
<wgt id='1336'> +6.0993382e-01 </wgt>
<wgt id='1337'> +6.1036474e-01 </wgt>
<wgt id='1338'> +6.1107991e-01 </wgt>
<wgt id='1339'> +6.1088303e-01 </wgt>
<wgt id='1340'> +6.1058512e-01 </wgt>
<wgt id='1341'> +6.1028803e-01 </wgt>
<wgt id='1342'> +6.1009156e-01 </wgt>
<wgt id='1343'> +6.0990133e-01 </wgt>
<wgt id='1344'> +5.7467580e-01 </wgt>
<wgt id='1345'> +5.7698924e-01 </wgt>
<wgt id='1346'> +5.7238816e-01 </wgt>
<wgt id='1347'> +5.7368188e-01 </wgt>
<wgt id='1348'> +5.7540320e-01 </wgt>
<wgt id='1349'> +5.7553089e-01 </wgt>
<wgt id='1350'> +5.7393606e-01 </wgt>
<wgt id='1351'> +5.7464883e-01 </wgt>
<wgt id='1352'> +5.7469575e-01 </wgt>
<wgt id='1353'> +5.7680785e-01 </wgt>
<wgt id='1354'> +5.7316689e-01 </wgt>
<wgt id='1355'> +5.7442951e-01 </wgt>
<wgt id='1356'> +5.7481111e-01 </wgt>
<wgt id='1357'> +5.7464516e-01 </wgt>
<wgt id='1358'> +5.7466024e-01 </wgt>
<wgt id='1359'> +5.7451101e-01 </wgt>
<wgt id='1360'> +5.7507431e-01 </wgt>
<wgt id='1361'> +5.5336530e-01 </wgt>
<wgt id='1362'> +5.9352050e-01 </wgt>
<wgt id='1363'> +5.6923564e-01 </wgt>
<wgt id='1364'> +5.8164901e-01 </wgt>
<wgt id='1365'> +5.7233166e-01 </wgt>
<wgt id='1366'> +5.7569219e-01 </wgt>
<wgt id='1367'> +5.6923676e-01 </wgt>
<wgt id='1368'> +5.7733768e-01 </wgt>
<wgt id='1369'> +5.8254926e-01 </wgt>
<wgt id='1370'> +5.6760671e-01 </wgt>
<wgt id='1371'> +5.6955734e-01 </wgt>
<wgt id='1372'> +5.8328639e-01 </wgt>
<wgt id='1373'> +5.6620327e-01 </wgt>
<wgt id='1374'> +5.8201137e-01 </wgt>
<wgt id='1375'> +5.7029993e-01 </wgt>
<wgt id='1376'> +5.7622270e-01 </wgt>
<wgt id='1377'> +5.7260187e-01 </wgt>
<wgt id='1378'> +5.7860724e-01 </wgt>
<wgt id='1379'> +5.7091262e-01 </wgt>
<wgt id='1380'> +5.7902477e-01 </wgt>
<wgt id='1381'> +5.8040402e-01 </wgt>
<wgt id='1382'> +5.7508730e-01 </wgt>
<wgt id='1383'> +5.7474827e-01 </wgt>
<wgt id='1384'> +5.7588612e-01 </wgt>
<wgt id='1385'> +5.7467580e-01 </wgt>
<wgt id='1386'> +5.7518364e-01 </wgt>
<wgt id='1387'> +5.7500036e-01 </wgt>
<wgt id='1388'> +5.7474813e-01 </wgt>
<wgt id='1389'> +5.7441491e-01 </wgt>
<wgt id='1390'> +5.7421553e-01 </wgt>
<wgt id='1391'> +5.7402419e-01 </wgt>
<wgt id='1392'> +5.9100289e-01 </wgt>
<wgt id='1393'> +5.8972053e-01 </wgt>
<wgt id='1394'> +5.9237823e-01 </wgt>
<wgt id='1395'> +5.9046888e-01 </wgt>
<wgt id='1396'> +5.9139208e-01 </wgt>
<wgt id='1397'> +5.9179560e-01 </wgt>
<wgt id='1398'> +5.9023595e-01 </wgt>
<wgt id='1399'> +5.9078183e-01 </wgt>
<wgt id='1400'> +5.9127450e-01 </wgt>
<wgt id='1401'> +5.8981641e-01 </wgt>
<wgt id='1402'> +5.9247557e-01 </wgt>
<wgt id='1403'> +5.9041361e-01 </wgt>
<wgt id='1404'> +5.9217451e-01 </wgt>
<wgt id='1405'> +5.9160377e-01 </wgt>
<wgt id='1406'> +5.9018466e-01 </wgt>
<wgt id='1407'> +5.8952321e-01 </wgt>
<wgt id='1408'> +5.9202031e-01 </wgt>
<wgt id='1409'> +5.9034027e-01 </wgt>
<wgt id='1410'> +5.9177120e-01 </wgt>
<wgt id='1411'> +5.8719691e-01 </wgt>
<wgt id='1412'> +5.9390657e-01 </wgt>
<wgt id='1413'> +5.9176841e-01 </wgt>
<wgt id='1414'> +5.9008856e-01 </wgt>
<wgt id='1415'> +5.8934680e-01 </wgt>
<wgt id='1416'> +5.9253386e-01 </wgt>
<wgt id='1417'> +5.8185211e-01 </wgt>
<wgt id='1418'> +6.0235744e-01 </wgt>
<wgt id='1419'> +5.8564178e-01 </wgt>
<wgt id='1420'> +5.9580169e-01 </wgt>
<wgt id='1421'> +5.7968638e-01 </wgt>
<wgt id='1422'> +6.0464833e-01 </wgt>
<wgt id='1423'> +5.7511687e-01 </wgt>
<wgt id='1424'> +6.0400027e-01 </wgt>
<wgt id='1425'> +5.9402156e-01 </wgt>
<wgt id='1426'> +5.8696597e-01 </wgt>
<wgt id='1427'> +5.9392317e-01 </wgt>
<wgt id='1428'> +5.8475941e-01 </wgt>
<wgt id='1429'> +5.9266816e-01 </wgt>
<wgt id='1430'> +5.8907732e-01 </wgt>
<wgt id='1431'> +5.8697737e-01 </wgt>
<wgt id='1432'> +5.9493073e-01 </wgt>
<wgt id='1433'> +5.7507713e-01 </wgt>
<wgt id='1434'> +6.1173553e-01 </wgt>
<wgt id='1435'> +5.8927989e-01 </wgt>
<wgt id='1436'> +5.9315683e-01 </wgt>
<wgt id='1437'> +5.8800397e-01 </wgt>
<wgt id='1438'> +5.9927472e-01 </wgt>
<wgt id='1439'> +5.8365923e-01 </wgt>
<wgt id='1440'> +6.0688449e-01 </wgt>
<wgt id='1441'> +5.8851260e-01 </wgt>
<wgt id='1442'> +5.9283505e-01 </wgt>
<wgt id='1443'> +5.7709529e-01 </wgt>
<wgt id='1444'> +5.7583904e-01 </wgt>
<wgt id='1445'> +5.7845698e-01 </wgt>
<wgt id='1446'> +5.7653161e-01 </wgt>
<wgt id='1447'> +5.7748077e-01 </wgt>
<wgt id='1448'> +5.7797749e-01 </wgt>
<wgt id='1449'> +5.7629922e-01 </wgt>
<wgt id='1450'> +5.7684558e-01 </wgt>
<wgt id='1451'> +5.7737748e-01 </wgt>
<wgt id='1452'> +5.7597671e-01 </wgt>
<wgt id='1453'> +5.7820227e-01 </wgt>
<wgt id='1454'> +5.7646830e-01 </wgt>
<wgt id='1455'> +5.7848768e-01 </wgt>
<wgt id='1456'> +5.7773518e-01 </wgt>
<wgt id='1457'> +5.7596499e-01 </wgt>
<wgt id='1458'> +5.7540643e-01 </wgt>
<wgt id='1459'> +5.7805437e-01 </wgt>
<wgt id='1460'> +5.7557677e-01 </wgt>
<wgt id='1461'> +5.7889193e-01 </wgt>
<wgt id='1462'> +5.7377437e-01 </wgt>
<wgt id='1463'> +5.7997407e-01 </wgt>
<wgt id='1464'> +5.7788441e-01 </wgt>
<wgt id='1465'> +5.7597137e-01 </wgt>
<wgt id='1466'> +5.7592643e-01 </wgt>
<wgt id='1467'> +5.7775761e-01 </wgt>
<wgt id='1468'> +5.8942934e-01 </wgt>
<wgt id='1469'> +5.6512039e-01 </wgt>
<wgt id='1470'> +5.7221345e-01 </wgt>
<wgt id='1471'> +5.8091750e-01 </wgt>
<wgt id='1472'> +5.6820579e-01 </wgt>
<wgt id='1473'> +5.8797159e-01 </wgt>
<wgt id='1474'> +5.6650195e-01 </wgt>
<wgt id='1475'> +5.8986648e-01 </wgt>
<wgt id='1476'> +5.8341173e-01 </wgt>
<wgt id='1477'> +5.7101635e-01 </wgt>
<wgt id='1478'> +5.7985386e-01 </wgt>
<wgt id='1479'> +5.7055331e-01 </wgt>
<wgt id='1480'> +5.7893600e-01 </wgt>
<wgt id='1481'> +5.7505546e-01 </wgt>
<wgt id='1482'> +5.7333119e-01 </wgt>
<wgt id='1483'> +5.8135448e-01 </wgt>
<wgt id='1484'> +5.6116854e-01 </wgt>
<wgt id='1485'> +5.9655756e-01 </wgt>
<wgt id='1486'> +5.7727367e-01 </wgt>
<wgt id='1487'> +5.7825543e-01 </wgt>
<wgt id='1488'> +5.7354023e-01 </wgt>
<wgt id='1489'> +5.8636365e-01 </wgt>
<wgt id='1490'> +5.6897924e-01 </wgt>
<wgt id='1491'> +5.9389863e-01 </wgt>
<wgt id='1492'> +5.7285451e-01 </wgt>
<wgt id='1493'> +5.8017204e-01 </wgt>
<wgt id='1494'> +5.6520302e-01 </wgt>
<wgt id='1495'> +5.4663684e-01 </wgt>
<wgt id='1496'> +5.5239369e-01 </wgt>
<wgt id='1497'> +5.5999713e-01 </wgt>
<wgt id='1498'> +5.7581549e-01 </wgt>
<wgt id='1499'> +5.6708653e-01 </wgt>
<wgt id='1500'> +5.6629808e-01 </wgt>
<wgt id='1501'> +5.6718196e-01 </wgt>
<wgt id='1502'> +5.6725928e-01 </wgt>
<wgt id='1503'> +5.6731332e-01 </wgt>
<wgt id='1504'> +5.6737796e-01 </wgt>
<wgt id='1505'> +5.6705710e-01 </wgt>
<wgt id='1506'> +5.6651324e-01 </wgt>
<wgt id='1507'> +5.6578518e-01 </wgt>
<wgt id='1508'> +5.6708653e-01 </wgt>
<wgt id='1509'> +5.6746537e-01 </wgt>
<wgt id='1510'> +5.6725796e-01 </wgt>
<wgt id='1511'> +5.6703163e-01 </wgt>
<wgt id='1512'> +5.6787265e-01 </wgt>
<wgt id='1513'> +5.8624896e-01 </wgt>
<wgt id='1514'> +5.8476634e-01 </wgt>
<wgt id='1515'> +5.8812596e-01 </wgt>
<wgt id='1516'> +5.8655975e-01 </wgt>
<wgt id='1517'> +5.8591291e-01 </wgt>
<wgt id='1518'> +5.8580349e-01 </wgt>
<wgt id='1519'> +5.8641987e-01 </wgt>
<wgt id='1520'> +5.8649662e-01 </wgt>
<wgt id='1521'> +5.8599051e-01 </wgt>
<wgt id='1522'> +5.8573310e-01 </wgt>
<wgt id='1523'> +5.8672244e-01 </wgt>
<wgt id='1524'> +5.8819914e-01 </wgt>
<wgt id='1525'> +5.8541367e-01 </wgt>
<wgt id='1526'> +5.8711278e-01 </wgt>
<wgt id='1527'> +5.8516207e-01 </wgt>
<wgt id='1528'> +5.8593289e-01 </wgt>
<wgt id='1529'> +5.8658486e-01 </wgt>
<wgt id='1530'> +5.8159583e-01 </wgt>
<wgt id='1531'> +5.8885145e-01 </wgt>
<wgt id='1532'> +5.8840715e-01 </wgt>
<wgt id='1533'> +5.8333576e-01 </wgt>
<wgt id='1534'> +5.8438452e-01 </wgt>
<wgt id='1535'> +5.8750225e-01 </wgt>
<wgt id='1536'> +5.8318321e-01 </wgt>
<wgt id='1537'> +5.8918114e-01 </wgt>
<wgt id='1538'> +5.8570023e-01 </wgt>
<wgt id='1539'> +5.8749883e-01 </wgt>
<wgt id='1540'> +5.8039609e-01 </wgt>
<wgt id='1541'> +5.9160555e-01 </wgt>
<wgt id='1542'> +5.9457204e-01 </wgt>
<wgt id='1543'> +5.6559009e-01 </wgt>
<wgt id='1544'> +5.8055193e-01 </wgt>
<wgt id='1545'> +5.9883764e-01 </wgt>
<wgt id='1546'> +5.8747426e-01 </wgt>
<wgt id='1547'> +5.8388517e-01 </wgt>
<wgt id='1548'> +5.7573560e-01 </wgt>
<wgt id='1549'> +5.9129256e-01 </wgt>
<wgt id='1550'> +5.8917398e-01 </wgt>
<wgt id='1551'> +5.8225219e-01 </wgt>
<wgt id='1552'> +5.8114269e-01 </wgt>
<wgt id='1553'> +5.9008180e-01 </wgt>
<wgt id='1554'> +6.0249728e-01 </wgt>
<wgt id='1555'> +5.6262670e-01 </wgt>
<wgt id='1556'> +5.8699390e-01 </wgt>
<wgt id='1557'> +5.8379428e-01 </wgt>
<wgt id='1558'> +5.8987284e-01 </wgt>
<wgt id='1559'> +5.8452254e-01 </wgt>
<wgt id='1560'> +5.8759871e-01 </wgt>
<wgt id='1561'> +5.8563764e-01 </wgt>
<wgt id='1562'> +5.9424613e-01 </wgt>
<wgt id='1563'> +5.8021094e-01 </wgt>
<wgt id='1564'> +5.8624896e-01 </wgt>
<wgt id='1565'> +5.7546398e-01 </wgt>
<wgt id='1566'> +6.0452151e-01 </wgt>
<wgt id='1567'> +5.8994977e-01 </wgt>
<wgt id='1568'> +5.9482715e-01 </wgt>
<wgt id='1569'> +5.9428911e-01 </wgt>
<wgt id='1570'> +5.9370093e-01 </wgt>
<wgt id='1571'> +5.9231229e-01 </wgt>
<wgt id='1572'> +5.9123642e-01 </wgt>
<wgt id='1573'> +5.8791736e-01 </wgt>
<wgt id='1574'> +5.8551751e-01 </wgt>
<wgt id='1575'> +5.8378202e-01 </wgt>
<wgt id='1576'> +5.8994977e-01 </wgt>
<wgt id='1577'> +5.8963891e-01 </wgt>
<wgt id='1578'> +5.8945163e-01 </wgt>
<wgt id='1579'> +5.9031709e-01 </wgt>
<wgt id='1580'> +5.9072718e-01 </wgt>
<wgt id='1581'> +5.6997085e-01 </wgt>
<wgt id='1582'> +5.7203260e-01 </wgt>
<wgt id='1583'> +5.6763773e-01 </wgt>
<wgt id='1584'> +5.6759588e-01 </wgt>
<wgt id='1585'> +5.6691408e-01 </wgt>
<wgt id='1586'> +5.5117627e-01 </wgt>
<wgt id='1587'> +5.7586461e-01 </wgt>
<wgt id='1588'> +5.6392711e-01 </wgt>
<wgt id='1589'> +5.6936176e-01 </wgt>
<wgt id='1590'> +5.8055038e-01 </wgt>
<wgt id='1591'> +5.7358799e-01 </wgt>
<wgt id='1592'> +5.5594301e-01 </wgt>
<wgt id='1593'> +5.6796770e-01 </wgt>
<wgt id='1594'> +5.6654811e-01 </wgt>
<wgt id='1595'> +5.7319313e-01 </wgt>
<wgt id='1596'> +5.7140031e-01 </wgt>
<wgt id='1597'> +5.7336828e-01 </wgt>
<wgt id='1598'> +5.6607490e-01 </wgt>
<wgt id='1599'> +5.6291658e-01 </wgt>
<wgt id='1600'> +5.6605952e-01 </wgt>
<wgt id='1601'> +5.6641676e-01 </wgt>
<wgt id='1602'> +5.6694468e-01 </wgt>
<wgt id='1603'> +5.7525940e-01 </wgt>
<wgt id='1604'> +5.6586874e-01 </wgt>
<wgt id='1605'> +5.6530883e-01 </wgt>
<wgt id='1606'> +5.6771795e-01 </wgt>
<wgt id='1607'> +5.6538600e-01 </wgt>
<wgt id='1608'> +5.6910873e-01 </wgt>
<wgt id='1609'> +5.6474343e-01 </wgt>
<wgt id='1610'> +5.7251250e-01 </wgt>
<wgt id='1611'> +5.5550508e-01 </wgt>
<wgt id='1612'> +5.2585895e-01 </wgt>
<wgt id='1613'> +5.2574766e-01 </wgt>
<wgt id='1614'> +5.2451095e-01 </wgt>
<wgt id='1615'> +5.2410246e-01 </wgt>
<wgt id='1616'> +5.2772053e-01 </wgt>
<wgt id='1617'> +5.2652860e-01 </wgt>
<wgt id='1618'> +5.2514349e-01 </wgt>
<wgt id='1619'> +5.2518223e-01 </wgt>
<wgt id='1620'> +5.2342636e-01 </wgt>
<wgt id='1621'> +5.2736285e-01 </wgt>
<wgt id='1622'> +5.2343789e-01 </wgt>
<wgt id='1623'> +5.2194527e-01 </wgt>
<wgt id='1624'> +5.2475842e-01 </wgt>
<wgt id='1625'> +5.2210595e-01 </wgt>
<wgt id='1626'> +5.2537592e-01 </wgt>
<wgt id='1627'> +5.2690805e-01 </wgt>
<wgt id='1628'> +5.2965084e-01 </wgt>
<wgt id='1629'> +5.2459690e-01 </wgt>
<wgt id='1630'> +5.2343798e-01 </wgt>
<wgt id='1631'> +5.2472198e-01 </wgt>
<wgt id='1632'> +5.2498513e-01 </wgt>
<wgt id='1633'> +5.2849851e-01 </wgt>
<wgt id='1634'> +5.2804637e-01 </wgt>
<wgt id='1635'> +5.2415342e-01 </wgt>
<wgt id='1636'> +5.2825430e-01 </wgt>
<wgt id='1637'> +5.2726107e-01 </wgt>
<wgt id='1638'> +5.2620974e-01 </wgt>
<wgt id='1639'> +5.2639742e-01 </wgt>
<wgt id='1640'> +5.2428033e-01 </wgt>
<wgt id='1641'> +5.2563275e-01 </wgt>
<wgt id='1642'> +5.3058771e-01 </wgt>
<wgt id='1643'> +5.2668058e-01 </wgt>
<wgt id='1644'> +5.2563138e-01 </wgt>
<wgt id='1645'> +5.2317207e-01 </wgt>
<wgt id='1646'> +5.2566203e-01 </wgt>
<wgt id='1647'> +5.2909682e-01 </wgt>
<wgt id='1648'> +5.2684423e-01 </wgt>
<wgt id='1649'> +5.2538308e-01 </wgt>
<wgt id='1650'> +5.2443830e-01 </wgt>
<wgt id='1651'> +5.2580821e-01 </wgt>
<wgt id='1652'> +5.2908867e-01 </wgt>
<wgt id='1653'> +5.2814224e-01 </wgt>
<wgt id='1654'> +5.2525697e-01 </wgt>
<wgt id='1655'> +5.1939349e-01 </wgt>
<wgt id='1656'> +5.2392569e-01 </wgt>
<wgt id='1657'> +5.2505363e-01 </wgt>
<wgt id='1658'> +5.2909544e-01 </wgt>
<wgt id='1659'> +5.2826557e-01 </wgt>
<wgt id='1660'> +5.2231414e-01 </wgt>
<wgt id='1661'> +5.2293431e-01 </wgt>
<wgt id='1662'> +5.2765658e-01 </wgt>
<wgt id='1663'> +5.2276960e-01 </wgt>
<wgt id='1664'> +5.2533227e-01 </wgt>
<wgt id='1665'> +5.2593549e-01 </wgt>
<wgt id='1666'> +5.2603633e-01 </wgt>
<wgt id='1667'> +5.2735529e-01 </wgt>
<wgt id='1668'> +5.2416604e-01 </wgt>
<wgt id='1669'> +5.2399682e-01 </wgt>
<wgt id='1670'> +5.2518459e-01 </wgt>
<wgt id='1671'> +5.2743193e-01 </wgt>
<wgt id='1672'> +5.2629054e-01 </wgt>
<wgt id='1673'> +5.2543974e-01 </wgt>
<wgt id='1674'> +5.2580139e-01 </wgt>
<wgt id='1675'> +5.2510232e-01 </wgt>
<wgt id='1676'> +5.2572497e-01 </wgt>
<wgt id='1677'> +5.2507474e-01 </wgt>
<wgt id='1678'> +5.2579838e-01 </wgt>
<wgt id='1679'> +5.2592697e-01 </wgt>
<wgt id='1680'> +5.2645254e-01 </wgt>
<wgt id='1681'> +5.2664699e-01 </wgt>
<wgt id='1682'> +5.2459614e-01 </wgt>
<wgt id='1683'> +5.2465700e-01 </wgt>
<wgt id='1684'> +5.2608228e-01 </wgt>
<wgt id='1685'> +5.2508968e-01 </wgt>
<wgt id='1686'> +5.2430307e-01 </wgt>
<wgt id='1687'> +5.2459361e-01 </wgt>
<wgt id='1688'> +5.2735663e-01 </wgt>
<wgt id='1689'> +5.2294395e-01 </wgt>
<wgt id='1690'> +5.2624813e-01 </wgt>
<wgt id='1691'> +5.2676324e-01 </wgt>
<wgt id='1692'> +5.2604759e-01 </wgt>
<wgt id='1693'> +5.2641561e-01 </wgt>
<wgt id='1694'> +5.2650578e-01 </wgt>
<wgt id='1695'> +5.2556056e-01 </wgt>
<wgt id='1696'> +5.2536113e-01 </wgt>
<wgt id='1697'> +5.2572937e-01 </wgt>
<wgt id='1698'> +5.2530308e-01 </wgt>
<wgt id='1699'> +5.2543189e-01 </wgt>
<wgt id='1700'> +5.2595674e-01 </wgt>
<wgt id='1701'> +5.2533103e-01 </wgt>
<wgt id='1702'> +5.2604192e-01 </wgt>
<wgt id='1703'> +5.2576541e-01 </wgt>
<wgt id='1704'> +5.2553657e-01 </wgt>
<wgt id='1705'> +5.2631295e-01 </wgt>
<wgt id='1706'> +5.2599868e-01 </wgt>
<wgt id='1707'> +5.2636808e-01 </wgt>
<wgt id='1708'> +5.2561815e-01 </wgt>
<wgt id='1709'> +5.2655865e-01 </wgt>
<wgt id='1710'> +5.2569901e-01 </wgt>
<wgt id='1711'> +5.2552026e-01 </wgt>
<wgt id='1712'> +5.2615271e-01 </wgt>
<wgt id='1713'> +5.1406616e-01 </wgt>
<wgt id='1714'> +5.4008018e-01 </wgt>
<wgt id='1715'> +5.4159905e-01 </wgt>
<wgt id='1716'> +5.2985245e-01 </wgt>
<wgt id='1717'> +5.4082177e-01 </wgt>
<wgt id='1718'> +5.5067087e-01 </wgt>
<wgt id='1719'> +5.3808842e-01 </wgt>
<wgt id='1720'> +5.5775750e-01 </wgt>
<wgt id='1721'> +5.7768524e-01 </wgt>
<wgt id='1722'> +5.2298759e-01 </wgt>
<wgt id='1723'> +5.5049602e-01 </wgt>
<wgt id='1724'> +5.4474492e-01 </wgt>
<wgt id='1725'> +5.4635701e-01 </wgt>
<wgt id='1726'> +5.3880950e-01 </wgt>
<wgt id='1727'> +5.4551884e-01 </wgt>
<wgt id='1728'> +5.3027370e-01 </wgt>
<wgt id='1729'> +5.3637318e-01 </wgt>
<wgt id='1730'> +5.4585894e-01 </wgt>
<wgt id='1731'> +5.3148481e-01 </wgt>
<wgt id='1732'> +5.4418994e-01 </wgt>
<wgt id='1733'> +5.4630039e-01 </wgt>
<wgt id='1734'> +5.6094713e-01 </wgt>
<wgt id='1735'> +5.2243927e-01 </wgt>
<wgt id='1736'> +5.1221487e-01 </wgt>
<wgt id='1737'> +5.2489603e-01 </wgt>
<wgt id='1738'> +5.2884219e-01 </wgt>
<wgt id='1739'> +5.7960802e-01 </wgt>
<wgt id='1740'> +5.3819161e-01 </wgt>
<wgt id='1741'> +5.3475860e-01 </wgt>
<wgt id='1742'> +5.3744830e-01 </wgt>
<wgt id='1743'> +5.3626333e-01 </wgt>
<wgt id='1744'> +5.4201160e-01 </wgt>
<wgt id='1745'> +5.3826685e-01 </wgt>
<wgt id='1746'> +5.1671482e-01 </wgt>
<wgt id='1747'> +5.3805098e-01 </wgt>
<wgt id='1748'> +5.4069806e-01 </wgt>
<wgt id='1749'> +5.2217531e-01 </wgt>
<wgt id='1750'> +5.3499480e-01 </wgt>
<wgt id='1751'> +5.5935589e-01 </wgt>
<wgt id='1752'> +5.6409800e-01 </wgt>
<wgt id='1753'> +5.2691004e-01 </wgt>
<wgt id='1754'> +5.4561380e-01 </wgt>
<wgt id='1755'> +5.2697224e-01 </wgt>
<wgt id='1756'> +5.6985147e-01 </wgt>
<wgt id='1757'> +5.5669120e-01 </wgt>
<wgt id='1758'> +5.6489335e-01 </wgt>
<wgt id='1759'> +5.2730309e-01 </wgt>
<wgt id='1760'> +5.6744503e-01 </wgt>
<wgt id='1761'> +5.3726937e-01 </wgt>
<wgt id='1762'> +5.4551884e-01 </wgt>
<wgt id='1763'> +5.5445078e-01 </wgt>
<wgt id='1764'> +5.3829995e-01 </wgt>
<wgt id='1765'> +5.4971885e-01 </wgt>
<wgt id='1766'> +5.3536605e-01 </wgt>
<wgt id='1767'> +5.3112892e-01 </wgt>
<wgt id='1768'> +5.5168623e-01 </wgt>
<wgt id='1769'> +5.2743350e-01 </wgt>
<wgt id='1770'> +5.1747610e-01 </wgt>
<wgt id='1771'> +5.5469383e-01 </wgt>
<wgt id='1772'> +5.4078158e-01 </wgt>
<wgt id='1773'> +5.3563050e-01 </wgt>
<wgt id='1774'> +5.5479578e-01 </wgt>
<wgt id='1775'> +5.3296771e-01 </wgt>
<wgt id='1776'> +5.5015523e-01 </wgt>
<wgt id='1777'> +5.4169520e-01 </wgt>
<wgt id='1778'> +5.2032826e-01 </wgt>
<wgt id='1779'> +5.4942700e-01 </wgt>
<wgt id='1780'> +5.6006083e-01 </wgt>
<wgt id='1781'> +5.4664573e-01 </wgt>
<wgt id='1782'> +5.1438094e-01 </wgt>
<wgt id='1783'> +5.4775924e-01 </wgt>
<wgt id='1784'> +5.3539689e-01 </wgt>
<wgt id='1785'> +5.3590268e-01 </wgt>
<wgt id='1786'> +5.5681567e-01 </wgt>
<wgt id='1787'> +5.2991481e-01 </wgt>
<wgt id='1788'> +5.3416886e-01 </wgt>
<wgt id='1789'> +5.4411920e-01 </wgt>
<wgt id='1790'> +5.4736330e-01 </wgt>
<wgt id='1791'> +5.1632995e-01 </wgt>
<wgt id='1792'> +5.4871536e-01 </wgt>
<wgt id='1793'> +5.4237344e-01 </wgt>
<wgt id='1794'> +5.5759890e-01 </wgt>
<wgt id='1795'> +5.2615243e-01 </wgt>
<wgt id='1796'> +5.3367635e-01 </wgt>
<wgt id='1797'> +5.5463401e-01 </wgt>
<wgt id='1798'> +5.2378455e-01 </wgt>
<wgt id='1799'> +5.2893989e-01 </wgt>
<wgt id='1800'> +5.5923076e-01 </wgt>
<wgt id='1801'> +5.3923117e-01 </wgt>
<wgt id='1802'> +5.6042516e-01 </wgt>
<wgt id='1803'> +5.4459575e-01 </wgt>
<wgt id='1804'> +5.4495437e-01 </wgt>
<wgt id='1805'> +5.4912340e-01 </wgt>
<wgt id='1806'> +5.4224610e-01 </wgt>
<wgt id='1807'> +5.5309494e-01 </wgt>
<wgt id='1808'> +5.2347044e-01 </wgt>
<wgt id='1809'> +5.5744361e-01 </wgt>
<wgt id='1810'> +5.4719695e-01 </wgt>
<wgt id='1811'> +5.5186783e-01 </wgt>
<wgt id='1812'> +5.2889783e-01 </wgt>
<wgt id='1813'> +5.4018407e-01 </wgt>
<wgt id='1814'> +5.1686230e-01 </wgt>
<wgt id='1815'> +5.4641888e-01 </wgt>
<wgt id='1816'> +5.5900242e-01 </wgt>
<wgt id='1817'> +5.6198433e-01 </wgt>
<wgt id='1818'> +5.8647591e-01 </wgt>
<wgt id='1819'> +5.1798628e-01 </wgt>
<wgt id='1820'> +5.5386682e-01 </wgt>
<wgt id='1821'> +5.5308837e-01 </wgt>
<wgt id='1822'> +5.7018288e-01 </wgt>
<wgt id='1823'> +5.7620786e-01 </wgt>
<wgt id='1824'> +5.6465585e-01 </wgt>
<wgt id='1825'> +5.3045014e-01 </wgt>
<wgt id='1826'> +5.4513921e-01 </wgt>
<wgt id='1827'> +5.9851180e-01 </wgt>
<wgt id='1828'> +5.6020287e-01 </wgt>
<wgt id='1829'> +6.0482145e-01 </wgt>
<wgt id='1830'> +5.8089994e-01 </wgt>
<wgt id='1831'> +5.9141535e-01 </wgt>
<wgt id='1832'> +5.3349207e-01 </wgt>
<wgt id='1833'> +6.0299293e-01 </wgt>
<wgt id='1834'> +5.5388484e-01 </wgt>
<wgt id='1835'> +5.6661063e-01 </wgt>
<wgt id='1836'> +5.1867558e-01 </wgt>
<wgt id='1837'> +5.8223808e-01 </wgt>
<wgt id='1838'> +5.2927067e-01 </wgt>
<wgt id='1839'> +5.2696679e-01 </wgt>
<wgt id='1840'> +4.9347182e-01 </wgt>
<wgt id='1841'> +5.6401881e-01 </wgt>
<wgt id='1842'> +5.5074944e-01 </wgt>
<wgt id='1843'> +5.9832691e-01 </wgt>
<wgt id='1844'> +6.0493492e-01 </wgt>
<wgt id='1845'> +5.6833632e-01 </wgt>
<wgt id='1846'> +5.3331427e-01 </wgt>
<wgt id='1847'> +5.4233544e-01 </wgt>
<wgt id='1848'> +5.5509753e-01 </wgt>
<wgt id='1849'> +5.5976757e-01 </wgt>
<wgt id='1850'> +5.2631713e-01 </wgt>
<wgt id='1851'> +5.3747946e-01 </wgt>
<wgt id='1852'> +5.4238457e-01 </wgt>
<wgt id='1853'> +5.9771060e-01 </wgt>
<wgt id='1854'> +5.5131656e-01 </wgt>
<wgt id='1855'> +5.5688489e-01 </wgt>
<wgt id='1856'> +5.4536838e-01 </wgt>
<wgt id='1857'> +5.7112146e-01 </wgt>
<wgt id='1858'> +5.7798695e-01 </wgt>
<wgt id='1859'> +5.1819392e-01 </wgt>
<wgt id='1860'> +5.1574784e-01 </wgt>
<wgt id='1861'> +5.2748616e-01 </wgt>
<wgt id='1862'> +5.2193234e-01 </wgt>
<wgt id='1863'> +5.7923745e-01 </wgt>
<wgt id='1864'> +5.7794243e-01 </wgt>
<wgt id='1865'> +5.7378807e-01 </wgt>
<wgt id='1866'> +5.7106231e-01 </wgt>
<wgt id='1867'> +5.5645497e-01 </wgt>
<wgt id='1868'> +5.3420910e-01 </wgt>
<wgt id='1869'> +5.3774636e-01 </wgt>
<wgt id='1870'> +5.9737039e-01 </wgt>
<wgt id='1871'> +5.5063631e-01 </wgt>
<wgt id='1872'> +5.8602932e-01 </wgt>
<wgt id='1873'> +5.6554964e-01 </wgt>
<wgt id='1874'> +5.6955913e-01 </wgt>
<wgt id='1875'> +5.5221864e-01 </wgt>
<wgt id='1876'> +5.5392383e-01 </wgt>
<wgt id='1877'> +5.7213870e-01 </wgt>
<wgt id='1878'> +5.3846666e-01 </wgt>
<wgt id='1879'> +5.6920420e-01 </wgt>
<wgt id='1880'> +5.8149223e-01 </wgt>
<wgt id='1881'> +4.8962202e-01 </wgt>
<wgt id='1882'> +5.4734862e-01 </wgt>
<wgt id='1883'> +5.4521252e-01 </wgt>
<wgt id='1884'> +5.5434552e-01 </wgt>
<wgt id='1885'> +5.6858707e-01 </wgt>
<wgt id='1886'> +5.7395042e-01 </wgt>
<wgt id='1887'> +5.2010931e-01 </wgt>
<wgt id='1888'> +5.5066592e-01 </wgt>
<wgt id='1889'> +5.8218119e-01 </wgt>
<wgt id='1890'> +5.7310464e-01 </wgt>
<wgt id='1891'> +5.8496923e-01 </wgt>
<wgt id='1892'> +5.1002323e-01 </wgt>
<wgt id='1893'> +5.4841289e-01 </wgt>
<wgt id='1894'> +5.8697107e-01 </wgt>
<wgt id='1895'> +5.6586080e-01 </wgt>
<wgt id='1896'> +5.6315067e-01 </wgt>
<wgt id='1897'> +5.2892170e-01 </wgt>
<wgt id='1898'> +5.7463107e-01 </wgt>
<wgt id='1899'> +5.6623627e-01 </wgt>
<wgt id='1900'> +5.6794769e-01 </wgt>
<wgt id='1901'> +5.7459894e-01 </wgt>
<wgt id='1902'> +5.8461970e-01 </wgt>
<wgt id='1903'> +5.5225684e-01 </wgt>
<wgt id='1904'> +5.8604548e-01 </wgt>
<wgt id='1905'> +5.6761024e-01 </wgt>
<wgt id='1906'> +5.6414415e-01 </wgt>
<wgt id='1907'> +5.8666863e-01 </wgt>
<wgt id='1908'> +5.2897873e-01 </wgt>
<wgt id='1909'> +5.7761514e-01 </wgt>
<wgt id='1910'> +5.5983890e-01 </wgt>
<wgt id='1911'> +6.1241838e-01 </wgt>
<wgt id='1912'> +5.3595884e-01 </wgt>
<wgt id='1913'> +5.4866576e-01 </wgt>
<wgt id='1914'> +5.2095426e-01 </wgt>
<wgt id='1915'> +5.8805457e-01 </wgt>
<wgt id='1916'> +5.6945069e-01 </wgt>
<wgt id='1917'> +5.3102704e-01 </wgt>
<wgt id='1918'> +5.2974245e-01 </wgt>
<wgt id='1919'> +5.5900242e-01 </wgt>
<wgt id='1920'> +5.6198433e-01 </wgt>
<wgt id='1921'> +5.8647591e-01 </wgt>
<wgt id='1922'> +5.1798628e-01 </wgt>
<wgt id='1923'> +5.5386682e-01 </wgt>
<wgt id='1924'> +5.5308837e-01 </wgt>
<wgt id='1925'> +5.7018288e-01 </wgt>
<wgt id='1926'> +5.7620786e-01 </wgt>
<wgt id='1927'> +5.6465585e-01 </wgt>
<wgt id='1928'> +5.3045014e-01 </wgt>
<wgt id='1929'> +5.4513921e-01 </wgt>
<wgt id='1930'> +5.9851180e-01 </wgt>
<wgt id='1931'> +5.6020287e-01 </wgt>
<wgt id='1932'> +6.0482145e-01 </wgt>
<wgt id='1933'> +5.8089994e-01 </wgt>
<wgt id='1934'> +5.9141535e-01 </wgt>
<wgt id='1935'> +5.3349207e-01 </wgt>
<wgt id='1936'> +6.0299293e-01 </wgt>
<wgt id='1937'> +5.5388484e-01 </wgt>
<wgt id='1938'> +5.6661063e-01 </wgt>
<wgt id='1939'> +5.1867558e-01 </wgt>
<wgt id='1940'> +5.8223808e-01 </wgt>
<wgt id='1941'> +5.2927067e-01 </wgt>
<wgt id='1942'> +5.2696679e-01 </wgt>
<wgt id='1943'> +4.9347182e-01 </wgt>
<wgt id='1944'> +5.6401881e-01 </wgt>
<wgt id='1945'> +5.5074944e-01 </wgt>
<wgt id='1946'> +5.9832691e-01 </wgt>
<wgt id='1947'> +6.0493492e-01 </wgt>
<wgt id='1948'> +5.6833632e-01 </wgt>
<wgt id='1949'> +5.3331427e-01 </wgt>
<wgt id='1950'> +5.4233544e-01 </wgt>
<wgt id='1951'> +5.5509753e-01 </wgt>
<wgt id='1952'> +5.5976757e-01 </wgt>
<wgt id='1953'> +5.2631713e-01 </wgt>
<wgt id='1954'> +5.3747946e-01 </wgt>
<wgt id='1955'> +5.4238457e-01 </wgt>
<wgt id='1956'> +5.9771060e-01 </wgt>
<wgt id='1957'> +5.5131656e-01 </wgt>
<wgt id='1958'> +5.5688489e-01 </wgt>
<wgt id='1959'> +5.4536838e-01 </wgt>
<wgt id='1960'> +5.7112146e-01 </wgt>
<wgt id='1961'> +5.7798695e-01 </wgt>
<wgt id='1962'> +5.1819392e-01 </wgt>
<wgt id='1963'> +5.1574784e-01 </wgt>
<wgt id='1964'> +5.2748616e-01 </wgt>
<wgt id='1965'> +5.2193234e-01 </wgt>
<wgt id='1966'> +5.7923745e-01 </wgt>
<wgt id='1967'> +5.7794243e-01 </wgt>
<wgt id='1968'> +5.7378807e-01 </wgt>
<wgt id='1969'> +5.7106231e-01 </wgt>
<wgt id='1970'> +5.5645497e-01 </wgt>
<wgt id='1971'> +5.3420910e-01 </wgt>
<wgt id='1972'> +5.3774636e-01 </wgt>
<wgt id='1973'> +5.9737039e-01 </wgt>
<wgt id='1974'> +5.5063631e-01 </wgt>
<wgt id='1975'> +5.8602932e-01 </wgt>
<wgt id='1976'> +5.6554964e-01 </wgt>
<wgt id='1977'> +5.6955913e-01 </wgt>
<wgt id='1978'> +5.5221864e-01 </wgt>
<wgt id='1979'> +5.5392383e-01 </wgt>
<wgt id='1980'> +5.7213870e-01 </wgt>
<wgt id='1981'> +5.3846666e-01 </wgt>
<wgt id='1982'> +5.6920420e-01 </wgt>
<wgt id='1983'> +5.8149223e-01 </wgt>
<wgt id='1984'> +4.8962202e-01 </wgt>
<wgt id='1985'> +5.4734862e-01 </wgt>
<wgt id='1986'> +5.4521252e-01 </wgt>
<wgt id='1987'> +5.5434552e-01 </wgt>
<wgt id='1988'> +5.6858707e-01 </wgt>
<wgt id='1989'> +5.7395042e-01 </wgt>
<wgt id='1990'> +5.2010931e-01 </wgt>
<wgt id='1991'> +5.5066592e-01 </wgt>
<wgt id='1992'> +5.8218119e-01 </wgt>
<wgt id='1993'> +5.7310464e-01 </wgt>
<wgt id='1994'> +5.8496923e-01 </wgt>
<wgt id='1995'> +5.1002323e-01 </wgt>
<wgt id='1996'> +5.4841289e-01 </wgt>
<wgt id='1997'> +5.8697107e-01 </wgt>
<wgt id='1998'> +5.6586080e-01 </wgt>
<wgt id='1999'> +5.6315067e-01 </wgt>
<wgt id='2000'> +5.2892170e-01 </wgt>
<wgt id='2001'> +5.7463107e-01 </wgt>
<wgt id='2002'> +5.6623627e-01 </wgt>
<wgt id='2003'> +5.6794769e-01 </wgt>
<wgt id='2004'> +5.7459894e-01 </wgt>
<wgt id='2005'> +5.8461970e-01 </wgt>
<wgt id='2006'> +5.5225684e-01 </wgt>
<wgt id='2007'> +5.8604548e-01 </wgt>
<wgt id='2008'> +5.6761024e-01 </wgt>
<wgt id='2009'> +5.6414415e-01 </wgt>
<wgt id='2010'> +5.8666863e-01 </wgt>
<wgt id='2011'> +5.2897873e-01 </wgt>
<wgt id='2012'> +5.7761514e-01 </wgt>
<wgt id='2013'> +5.5983890e-01 </wgt>
<wgt id='2014'> +6.1241838e-01 </wgt>
<wgt id='2015'> +5.3595884e-01 </wgt>
<wgt id='2016'> +5.4866576e-01 </wgt>
<wgt id='2017'> +5.2095426e-01 </wgt>
<wgt id='2018'> +5.8805457e-01 </wgt>
<wgt id='2019'> +5.6945069e-01 </wgt>
<wgt id='2020'> +5.5191953e-01 </wgt>
<wgt id='2021'> +5.6689880e-01 </wgt>
<wgt id='2022'> +5.5356581e-01 </wgt>
</rwgt>
</event>
<event>
 13 1 0.0079112 1.15025200e+02 7.81860800e-03 1.11017900e-01
       21 -1    0    0  502  503 +0.0000000000e+00 +0.0000000000e+00 +6.8339241212e+01 6.8339241212e+01 0.0000000000e+00 0.0000e+00 -1.0000e+00
        2 -1    0    0  501    0 +0.0000000000e+00 +0.0000000000e+00 -2.4248629716e+03 2.4248629716e+03 2.5500000000e-03 0.0000e+00 -1.0000e+00
  8000001  2    1    2  502    0 -1.3340595683e+01 +7.0595955008e+01 -1.7834496484e+03 1.8830434797e+03 5.9999861451e+02 0.0000e+00 0.0000e+00
        1  1    1    2  501    0 +1.3664997017e+00 -8.8231956062e+01 -5.8045331287e+02 5.8712246920e+02 5.0400000000e-03 0.0000e+00 -1.0000e+00
       -5  1    1    2    0  503 +1.1974095982e+01 +1.7636001054e+01 +7.3792308861e+00 2.3036263954e+01 4.6700000000e+00 0.0000e+00 1.0000e+00
        6  2    3    3  502    0 -2.5066751818e+02 +1.1019091426e+02 -1.2490951357e+03 1.2904104773e+03 1.7304421257e+02 0.0000e+00 0.0000e+00
        5  1    6    6  502    0 -1.8202151779e+02 +8.4162633603e+01 -9.7061607108e+02 9.9112690821e+02 4.6700000000e+00 0.0000e+00 -1.0000e+00
       24  2    6    6    0    0 -6.8646000389e+01 +2.6028280656e+01 -2.7847906464e+02 2.9928356906e+02 8.1426780010e+01 0.0000e+00 0.0000e+00
        2  1    8    8  504    0 -5.4268511971e+01 +3.6367863751e+01 -9.7029592565e+01 1.1697193999e+02 2.5500000000e-03 0.0000e+00 -1.0000e+00
       -1  1    8    8    0  504 -1.4377488418e+01 -1.0339583095e+01 -1.8144947208e+02 1.8231162907e+02 5.0400000000e-03 0.0000e+00 1.0000e+00
       23  2    3    3    0    0 +2.3732692250e+02 -3.9594959251e+01 -5.3435451267e+02 5.9263300238e+02 8.8245687475e+01 0.0000e+00 0.0000e+00
        4  1   11   11  505    0 +1.9914758078e+02 -4.1509476533e+01 -3.5420026501e+02 4.0846326176e+02 1.2700000000e+00 0.0000e+00 1.0000e+00
       -4  1   11   11    0  505 +3.8179341716e+01 +1.9145172819e+00 -1.8015424766e+02 1.8416974062e+02 1.2700000000e+00 0.0000e+00 -1.0000e+00
<mgrwt>
<rscale>  1 0.10012265e+03</rscale>
<asrwt>0</asrwt>
<pdfrwt beam="1">  1       21 0.10513729e-01 0.11502522e+03</pdfrwt>
<pdfrwt beam="2">  1        2 0.37305586e+00 0.87150846e+02</pdfrwt>
<totfact> 0.51041391e+03</totfact>
</mgrwt>
<rwgt>
<wgt id='1001'> +5.2878984e-01 </wgt>
<wgt id='1002'> +3.4557358e-01 </wgt>
<wgt id='1003'> +3.4555958e-01 </wgt>
<wgt id='1004'> +3.9901486e-01 </wgt>
<wgt id='1005'> +3.2900338e-01 </wgt>
<wgt id='1006'> +4.7736336e-01 </wgt>
<wgt id='1007'> +3.1915554e-01 </wgt>
<wgt id='1008'> +3.1914323e-01 </wgt>
<wgt id='1009'> +3.6585967e-01 </wgt>
<wgt id='1010'> +3.0454952e-01 </wgt>
<wgt id='1011'> +5.9309971e-01 </wgt>
<wgt id='1012'> +3.7689127e-01 </wgt>
<wgt id='1013'> +3.7687512e-01 </wgt>
<wgt id='1014'> +4.3897524e-01 </wgt>
<wgt id='1015'> +3.5784007e-01 </wgt>
<wgt id='1016'> +4.9855607e-01 </wgt>
<wgt id='1017'> +3.2672461e-01 </wgt>
<wgt id='1018'> +3.2671135e-01 </wgt>
<wgt id='1019'> +3.7687512e-01 </wgt>
<wgt id='1020'> +3.1105253e-01 </wgt>
<wgt id='1021'> +4.5006991e-01 </wgt>
<wgt id='1022'> +3.0174751e-01 </wgt>
<wgt id='1023'> +3.0173586e-01 </wgt>
<wgt id='1024'> +3.4555958e-01 </wgt>
<wgt id='1025'> +2.8793290e-01 </wgt>
<wgt id='1026'> +5.5918899e-01 </wgt>
<wgt id='1027'> +3.5633410e-01 </wgt>
<wgt id='1028'> +3.5631882e-01 </wgt>
<wgt id='1029'> +4.1461825e-01 </wgt>
<wgt id='1030'> +3.3831585e-01 </wgt>
<wgt id='1031'> +5.5966545e-01 </wgt>
<wgt id='1032'> +3.6587462e-01 </wgt>
<wgt id='1033'> +3.6585967e-01 </wgt>
<wgt id='1034'> +4.2214571e-01 </wgt>
<wgt id='1035'> +3.4819050e-01 </wgt>
<wgt id='1036'> +5.0523622e-01 </wgt>
<wgt id='1037'> +3.3790463e-01 </wgt>
<wgt id='1038'> +3.3789148e-01 </wgt>
<wgt id='1039'> +3.8706851e-01 </wgt>
<wgt id='1040'> +3.2231052e-01 </wgt>
<wgt id='1041'> +6.2773032e-01 </wgt>
<wgt id='1042'> +3.9903210e-01 </wgt>
<wgt id='1043'> +3.9901486e-01 </wgt>
<wgt id='1044'> +4.6442258e-01 </wgt>
<wgt id='1045'> +3.7870891e-01 </wgt>
<wgt id='1046'> +5.2878984e-01 </wgt>
<wgt id='1047'> +5.2878984e-01 </wgt>
<wgt id='1048'> +5.2878984e-01 </wgt>
<wgt id='1049'> +5.2957808e-01 </wgt>
<wgt id='1050'> +5.2807714e-01 </wgt>
<wgt id='1051'> +5.3129939e-01 </wgt>
<wgt id='1052'> +5.2917214e-01 </wgt>
<wgt id='1053'> +5.3133128e-01 </wgt>
<wgt id='1054'> +5.2874146e-01 </wgt>
<wgt id='1055'> +5.3034063e-01 </wgt>
<wgt id='1056'> +5.3061501e-01 </wgt>
<wgt id='1057'> +5.2873602e-01 </wgt>
<wgt id='1058'> +5.2939932e-01 </wgt>
<wgt id='1059'> +5.2619263e-01 </wgt>
<wgt id='1060'> +5.2926002e-01 </wgt>
<wgt id='1061'> +5.2831039e-01 </wgt>
<wgt id='1062'> +5.2873256e-01 </wgt>
<wgt id='1063'> +5.2818800e-01 </wgt>
<wgt id='1064'> +5.2689458e-01 </wgt>
<wgt id='1065'> +5.2804276e-01 </wgt>
<wgt id='1066'> +5.2924655e-01 </wgt>
<wgt id='1067'> +5.2887090e-01 </wgt>
<wgt id='1068'> +5.2742507e-01 </wgt>
<wgt id='1069'> +5.3001560e-01 </wgt>
<wgt id='1070'> +5.2947611e-01 </wgt>
<wgt id='1071'> +5.2748526e-01 </wgt>
<wgt id='1072'> +5.2983046e-01 </wgt>
<wgt id='1073'> +5.2958890e-01 </wgt>
<wgt id='1074'> +5.2958382e-01 </wgt>
<wgt id='1075'> +5.2643098e-01 </wgt>
<wgt id='1076'> +5.3086447e-01 </wgt>
<wgt id='1077'> +5.3185579e-01 </wgt>
<wgt id='1078'> +5.2777905e-01 </wgt>
<wgt id='1079'> +5.3158972e-01 </wgt>
<wgt id='1080'> +5.3009019e-01 </wgt>
<wgt id='1081'> +5.2845216e-01 </wgt>
<wgt id='1082'> +5.3007983e-01 </wgt>
<wgt id='1083'> +5.2812407e-01 </wgt>
<wgt id='1084'> +5.2584227e-01 </wgt>
<wgt id='1085'> +5.3020749e-01 </wgt>
<wgt id='1086'> +5.2705331e-01 </wgt>
<wgt id='1087'> +5.2823297e-01 </wgt>
<wgt id='1088'> +5.2844247e-01 </wgt>
<wgt id='1089'> +5.2771290e-01 </wgt>
<wgt id='1090'> +5.2770145e-01 </wgt>
<wgt id='1091'> +5.2805211e-01 </wgt>
<wgt id='1092'> +5.2895137e-01 </wgt>
<wgt id='1093'> +5.2852118e-01 </wgt>
<wgt id='1094'> +5.2941716e-01 </wgt>
<wgt id='1095'> +5.2778150e-01 </wgt>
<wgt id='1096'> +5.2934817e-01 </wgt>
<wgt id='1097'> +5.2926530e-01 </wgt>
<wgt id='1098'> +5.2841569e-01 </wgt>
<wgt id='1099'> +5.2857811e-01 </wgt>
<wgt id='1100'> +5.2949074e-01 </wgt>
<wgt id='1101'> +5.2911344e-01 </wgt>
<wgt id='1102'> +5.2877155e-01 </wgt>
<wgt id='1103'> +5.2938767e-01 </wgt>
<wgt id='1104'> +5.2919183e-01 </wgt>
<wgt id='1105'> +5.2757770e-01 </wgt>
<wgt id='1106'> +5.2883710e-01 </wgt>
<wgt id='1107'> +5.2804035e-01 </wgt>
<wgt id='1108'> +5.2779569e-01 </wgt>
<wgt id='1109'> +5.2995820e-01 </wgt>
<wgt id='1110'> +5.2957229e-01 </wgt>
<wgt id='1111'> +5.2852548e-01 </wgt>
<wgt id='1112'> +5.2991682e-01 </wgt>
<wgt id='1113'> +5.2805684e-01 </wgt>
<wgt id='1114'> +5.2784779e-01 </wgt>
<wgt id='1115'> +5.2977169e-01 </wgt>
<wgt id='1116'> +5.2970694e-01 </wgt>
<wgt id='1117'> +5.2882991e-01 </wgt>
<wgt id='1118'> +5.2929198e-01 </wgt>
<wgt id='1119'> +5.2990043e-01 </wgt>
<wgt id='1120'> +5.2855728e-01 </wgt>
<wgt id='1121'> +5.2853149e-01 </wgt>
<wgt id='1122'> +5.2992373e-01 </wgt>
<wgt id='1123'> +5.2925610e-01 </wgt>
<wgt id='1124'> +5.2901061e-01 </wgt>
<wgt id='1125'> +5.2848596e-01 </wgt>
<wgt id='1126'> +5.2930780e-01 </wgt>
<wgt id='1127'> +5.2849865e-01 </wgt>
<wgt id='1128'> +5.2900317e-01 </wgt>
<wgt id='1129'> +5.2864620e-01 </wgt>
<wgt id='1130'> +5.2912373e-01 </wgt>
<wgt id='1131'> +5.2869118e-01 </wgt>
<wgt id='1132'> +5.2917906e-01 </wgt>
<wgt id='1133'> +5.2901488e-01 </wgt>
<wgt id='1134'> +5.2819297e-01 </wgt>
<wgt id='1135'> +5.2859447e-01 </wgt>
<wgt id='1136'> +5.2860005e-01 </wgt>
<wgt id='1137'> +5.2806570e-01 </wgt>
<wgt id='1138'> +5.2899868e-01 </wgt>
<wgt id='1139'> +5.2882885e-01 </wgt>
<wgt id='1140'> +5.2904023e-01 </wgt>
<wgt id='1141'> +5.2835843e-01 </wgt>
<wgt id='1142'> +5.2901838e-01 </wgt>
<wgt id='1143'> +5.2866294e-01 </wgt>
<wgt id='1144'> +5.2853330e-01 </wgt>
<wgt id='1145'> +5.2864714e-01 </wgt>
<wgt id='1146'> +5.2848674e-01 </wgt>
<wgt id='1147'> +5.2883198e-01 </wgt>
<wgt id='1148'> +5.2878984e-01 </wgt>
<wgt id='1149'> +5.2065945e-01 </wgt>
<wgt id='1150'> +5.1403012e-01 </wgt>
<wgt id='1151'> +5.1521811e-01 </wgt>
<wgt id='1152'> +5.2833091e-01 </wgt>
<wgt id='1153'> +5.1180758e-01 </wgt>
<wgt id='1154'> +5.2964879e-01 </wgt>
<wgt id='1155'> +5.1973905e-01 </wgt>
<wgt id='1156'> +5.1085444e-01 </wgt>
<wgt id='1157'> +5.2366498e-01 </wgt>
<wgt id='1158'> +5.2864873e-01 </wgt>
<wgt id='1159'> +5.0421973e-01 </wgt>
<wgt id='1160'> +5.2251600e-01 </wgt>
<wgt id='1161'> +5.1709974e-01 </wgt>
<wgt id='1162'> +5.0875590e-01 </wgt>
<wgt id='1163'> +5.2359243e-01 </wgt>
<wgt id='1164'> +5.2830017e-01 </wgt>
<wgt id='1165'> +5.3075853e-01 </wgt>
<wgt id='1166'> +5.3379074e-01 </wgt>
<wgt id='1167'> +5.1849972e-01 </wgt>
<wgt id='1168'> +5.2286750e-01 </wgt>
<wgt id='1169'> +5.2651638e-01 </wgt>
<wgt id='1170'> +5.3106790e-01 </wgt>
<wgt id='1171'> +5.3903460e-01 </wgt>
<wgt id='1172'> +5.3228448e-01 </wgt>
<wgt id='1173'> +5.1245210e-01 </wgt>
<wgt id='1174'> +5.3757969e-01 </wgt>
<wgt id='1175'> +5.3349755e-01 </wgt>
<wgt id='1176'> +5.0944080e-01 </wgt>
<wgt id='1177'> +5.2167350e-01 </wgt>
<wgt id='1178'> +5.1939240e-01 </wgt>
<wgt id='1179'> +5.1482421e-01 </wgt>
<wgt id='1180'> +5.3059770e-01 </wgt>
<wgt id='1181'> +5.1237335e-01 </wgt>
<wgt id='1182'> +5.2595818e-01 </wgt>
<wgt id='1183'> +5.1820765e-01 </wgt>
<wgt id='1184'> +5.1659693e-01 </wgt>
<wgt id='1185'> +5.3084894e-01 </wgt>
<wgt id='1186'> +5.1874567e-01 </wgt>
<wgt id='1187'> +5.1265845e-01 </wgt>
<wgt id='1188'> +4.8808834e-01 </wgt>
<wgt id='1189'> +5.1499826e-01 </wgt>
<wgt id='1190'> +5.2653949e-01 </wgt>
<wgt id='1191'> +5.0521510e-01 </wgt>
<wgt id='1192'> +5.1343195e-01 </wgt>
<wgt id='1193'> +5.1033620e-01 </wgt>
<wgt id='1194'> +5.1629919e-01 </wgt>
<wgt id='1195'> +5.1683876e-01 </wgt>
<wgt id='1196'> +5.2010377e-01 </wgt>
<wgt id='1197'> +5.1593342e-01 </wgt>
<wgt id='1198'> +5.2368747e-01 </wgt>
<wgt id='1199'> +5.2285019e-01 </wgt>
<wgt id='1200'> +5.1536705e-01 </wgt>
<wgt id='1201'> +5.2838273e-01 </wgt>
<wgt id='1202'> +5.1205900e-01 </wgt>
<wgt id='1203'> +5.2508124e-01 </wgt>
<wgt id='1204'> +5.2869853e-01 </wgt>
<wgt id='1205'> +5.0792977e-01 </wgt>
<wgt id='1206'> +5.2810774e-01 </wgt>
<wgt id='1207'> +5.2898556e-01 </wgt>
<wgt id='1208'> +5.3760972e-01 </wgt>
<wgt id='1209'> +5.4302879e-01 </wgt>
<wgt id='1210'> +5.1076312e-01 </wgt>
<wgt id='1211'> +5.2683834e-01 </wgt>
<wgt id='1212'> +5.1957821e-01 </wgt>
<wgt id='1213'> +5.2198637e-01 </wgt>
<wgt id='1214'> +5.3578112e-01 </wgt>
<wgt id='1215'> +5.1238314e-01 </wgt>
<wgt id='1216'> +5.1390756e-01 </wgt>
<wgt id='1217'> +5.1960790e-01 </wgt>
<wgt id='1218'> +5.1169849e-01 </wgt>
<wgt id='1219'> +5.1163625e-01 </wgt>
<wgt id='1220'> +5.2707362e-01 </wgt>
<wgt id='1221'> +5.0237208e-01 </wgt>
<wgt id='1222'> +5.2602963e-01 </wgt>
<wgt id='1223'> +5.2831081e-01 </wgt>
<wgt id='1224'> +5.1661506e-01 </wgt>
<wgt id='1225'> +5.3640601e-01 </wgt>
<wgt id='1226'> +5.0652965e-01 </wgt>
<wgt id='1227'> +5.3582305e-01 </wgt>
<wgt id='1228'> +5.2848652e-01 </wgt>
<wgt id='1229'> +4.9294120e-01 </wgt>
<wgt id='1230'> +5.1739479e-01 </wgt>
<wgt id='1231'> +5.3075853e-01 </wgt>
<wgt id='1232'> +5.1246202e-01 </wgt>
<wgt id='1233'> +5.2355513e-01 </wgt>
<wgt id='1234'> +5.2646422e-01 </wgt>
<wgt id='1235'> +4.9550205e-01 </wgt>
<wgt id='1236'> +5.3098109e-01 </wgt>
<wgt id='1237'> +5.0650065e-01 </wgt>
<wgt id='1238'> +5.1657351e-01 </wgt>
<wgt id='1239'> +5.2741347e-01 </wgt>
<wgt id='1240'> +5.3008602e-01 </wgt>
<wgt id='1241'> +5.3086640e-01 </wgt>
<wgt id='1242'> +5.2387526e-01 </wgt>
<wgt id='1243'> +5.2023860e-01 </wgt>
<wgt id='1244'> +5.1250293e-01 </wgt>
<wgt id='1245'> +5.2348316e-01 </wgt>
<wgt id='1246'> +5.1021842e-01 </wgt>
<wgt id='1247'> +5.2411501e-01 </wgt>
<wgt id='1248'> +5.2687896e-01 </wgt>
<wgt id='1249'> +5.2456968e-01 </wgt>
<wgt id='1250'> +5.3068641e-01 </wgt>
<wgt id='1251'> +5.2565345e-01 </wgt>
<wgt id='1252'> +5.2115794e-01 </wgt>
<wgt id='1253'> +5.3056939e-01 </wgt>
<wgt id='1254'> +5.5548813e-01 </wgt>
<wgt id='1255'> +6.1857008e-01 </wgt>
<wgt id='1256'> +6.2342853e-01 </wgt>
<wgt id='1257'> +6.1576594e-01 </wgt>
<wgt id='1258'> +6.1796460e-01 </wgt>
<wgt id='1259'> +6.1888143e-01 </wgt>
<wgt id='1260'> +6.2033958e-01 </wgt>
<wgt id='1261'> +6.1622491e-01 </wgt>
<wgt id='1262'> +6.1985120e-01 </wgt>
<wgt id='1263'> +6.1775076e-01 </wgt>
<wgt id='1264'> +6.1760251e-01 </wgt>
<wgt id='1265'> +6.1923788e-01 </wgt>
<wgt id='1266'> +6.1837759e-01 </wgt>
<wgt id='1267'> +6.1877605e-01 </wgt>
<wgt id='1268'> +6.2132762e-01 </wgt>
<wgt id='1269'> +6.1576800e-01 </wgt>
<wgt id='1270'> +6.1920640e-01 </wgt>
<wgt id='1271'> +6.1710042e-01 </wgt>
<wgt id='1272'> +6.2104901e-01 </wgt>
<wgt id='1273'> +6.1669484e-01 </wgt>
<wgt id='1274'> +6.1625497e-01 </wgt>
<wgt id='1275'> +6.2152870e-01 </wgt>
<wgt id='1276'> +6.1559450e-01 </wgt>
<wgt id='1277'> +6.2170992e-01 </wgt>
<wgt id='1278'> +6.1690760e-01 </wgt>
<wgt id='1279'> +6.2000497e-01 </wgt>
<wgt id='1280'> +6.1954244e-01 </wgt>
<wgt id='1281'> +6.1597816e-01 </wgt>
<wgt id='1282'> +6.2232800e-01 </wgt>
<wgt id='1283'> +6.1405883e-01 </wgt>
<wgt id='1284'> +6.1679536e-01 </wgt>
<wgt id='1285'> +6.2047951e-01 </wgt>
<wgt id='1286'> +6.2287355e-01 </wgt>
<wgt id='1287'> +6.1828218e-01 </wgt>
<wgt id='1288'> +6.1790810e-01 </wgt>
<wgt id='1289'> +6.1885830e-01 </wgt>
<wgt id='1290'> +6.1941320e-01 </wgt>
<wgt id='1291'> +6.1829497e-01 </wgt>
<wgt id='1292'> +6.1955208e-01 </wgt>
<wgt id='1293'> +6.1564190e-01 </wgt>
<wgt id='1294'> +6.1506661e-01 </wgt>
<wgt id='1295'> +6.1985545e-01 </wgt>
<wgt id='1296'> +5.3178306e-01 </wgt>
<wgt id='1297'> +5.3279090e-01 </wgt>
<wgt id='1298'> +5.3096426e-01 </wgt>
<wgt id='1299'> +5.2956619e-01 </wgt>
<wgt id='1300'> +5.3423095e-01 </wgt>
<wgt id='1301'> +5.3052837e-01 </wgt>
<wgt id='1302'> +5.3363669e-01 </wgt>
<wgt id='1303'> +5.3168587e-01 </wgt>
<wgt id='1304'> +5.3184494e-01 </wgt>
<wgt id='1305'> +5.3233209e-01 </wgt>
<wgt id='1306'> +5.3101287e-01 </wgt>
<wgt id='1307'> +5.3443725e-01 </wgt>
<wgt id='1308'> +5.3011520e-01 </wgt>
<wgt id='1309'> +5.3277333e-01 </wgt>
<wgt id='1310'> +5.3043167e-01 </wgt>
<wgt id='1311'> +5.3372540e-01 </wgt>
<wgt id='1312'> +5.3105540e-01 </wgt>
<wgt id='1313'> +5.3383194e-01 </wgt>
<wgt id='1314'> +5.2846806e-01 </wgt>
<wgt id='1315'> +5.3036504e-01 </wgt>
<wgt id='1316'> +5.3313673e-01 </wgt>
<wgt id='1317'> +5.2599389e-01 </wgt>
<wgt id='1318'> +5.4215116e-01 </wgt>
<wgt id='1319'> +5.3435993e-01 </wgt>
<wgt id='1320'> +5.3045161e-01 </wgt>
<wgt id='1321'> +5.3194002e-01 </wgt>
<wgt id='1322'> +5.3182418e-01 </wgt>
<wgt id='1323'> +5.3381209e-01 </wgt>
<wgt id='1324'> +5.3003210e-01 </wgt>
<wgt id='1325'> +5.3248898e-01 </wgt>
<wgt id='1326'> +5.3101045e-01 </wgt>
<wgt id='1327'> +5.3267961e-01 </wgt>
<wgt id='1328'> +5.3143314e-01 </wgt>
<wgt id='1329'> +5.3190155e-01 </wgt>
<wgt id='1330'> +5.3169762e-01 </wgt>
<wgt id='1331'> +5.3280265e-01 </wgt>
<wgt id='1332'> +5.3215780e-01 </wgt>
<wgt id='1333'> +5.3148954e-01 </wgt>
<wgt id='1334'> +5.2965294e-01 </wgt>
<wgt id='1335'> +5.3303677e-01 </wgt>
<wgt id='1336'> +5.3153959e-01 </wgt>
<wgt id='1337'> +5.3178306e-01 </wgt>
<wgt id='1338'> +5.3113167e-01 </wgt>
<wgt id='1339'> +5.3135780e-01 </wgt>
<wgt id='1340'> +5.3158306e-01 </wgt>
<wgt id='1341'> +5.3192630e-01 </wgt>
<wgt id='1342'> +5.3212106e-01 </wgt>
<wgt id='1343'> +5.3223626e-01 </wgt>
<wgt id='1344'> +5.2292000e-01 </wgt>
<wgt id='1345'> +5.2409954e-01 </wgt>
<wgt id='1346'> +5.2173445e-01 </wgt>
<wgt id='1347'> +5.2693591e-01 </wgt>
<wgt id='1348'> +5.1995844e-01 </wgt>
<wgt id='1349'> +5.2241483e-01 </wgt>
<wgt id='1350'> +5.2334356e-01 </wgt>
<wgt id='1351'> +5.2294428e-01 </wgt>
<wgt id='1352'> +5.2287608e-01 </wgt>
<wgt id='1353'> +5.2426123e-01 </wgt>
<wgt id='1354'> +5.2199109e-01 </wgt>
<wgt id='1355'> +5.2128592e-01 </wgt>
<wgt id='1356'> +5.2419238e-01 </wgt>
<wgt id='1357'> +5.2319848e-01 </wgt>
<wgt id='1358'> +5.2274115e-01 </wgt>
<wgt id='1359'> +5.2212707e-01 </wgt>
<wgt id='1360'> +5.2482533e-01 </wgt>
<wgt id='1361'> +5.2939972e-01 </wgt>
<wgt id='1362'> +5.1756410e-01 </wgt>
<wgt id='1363'> +5.2540488e-01 </wgt>
<wgt id='1364'> +5.1996839e-01 </wgt>
<wgt id='1365'> +5.2302822e-01 </wgt>
<wgt id='1366'> +5.2304955e-01 </wgt>
<wgt id='1367'> +5.2257228e-01 </wgt>
<wgt id='1368'> +5.2323385e-01 </wgt>
<wgt id='1369'> +5.1959693e-01 </wgt>
<wgt id='1370'> +5.2609823e-01 </wgt>
<wgt id='1371'> +5.2279049e-01 </wgt>
<wgt id='1372'> +5.2362748e-01 </wgt>
<wgt id='1373'> +5.2259903e-01 </wgt>
<wgt id='1374'> +5.2167784e-01 </wgt>
<wgt id='1375'> +5.2413610e-01 </wgt>
<wgt id='1376'> +5.2247859e-01 </wgt>
<wgt id='1377'> +5.2308201e-01 </wgt>
<wgt id='1378'> +5.2242493e-01 </wgt>
<wgt id='1379'> +5.2419029e-01 </wgt>
<wgt id='1380'> +5.2340115e-01 </wgt>
<wgt id='1381'> +5.2251326e-01 </wgt>
<wgt id='1382'> +5.2124144e-01 </wgt>
<wgt id='1383'> +5.2284240e-01 </wgt>
<wgt id='1384'> +5.2381396e-01 </wgt>
<wgt id='1385'> +5.2292000e-01 </wgt>
<wgt id='1386'> +5.2214653e-01 </wgt>
<wgt id='1387'> +5.2239245e-01 </wgt>
<wgt id='1388'> +5.2266526e-01 </wgt>
<wgt id='1389'> +5.2309889e-01 </wgt>
<wgt id='1390'> +5.2331187e-01 </wgt>
<wgt id='1391'> +5.2347815e-01 </wgt>
<wgt id='1392'> +5.5581630e-01 </wgt>
<wgt id='1393'> +5.5583460e-01 </wgt>
<wgt id='1394'> +5.5579204e-01 </wgt>
<wgt id='1395'> +5.5596688e-01 </wgt>
<wgt id='1396'> +5.5572026e-01 </wgt>
<wgt id='1397'> +5.5742724e-01 </wgt>
<wgt id='1398'> +5.5425508e-01 </wgt>
<wgt id='1399'> +5.5900173e-01 </wgt>
<wgt id='1400'> +5.5188797e-01 </wgt>
<wgt id='1401'> +5.5388860e-01 </wgt>
<wgt id='1402'> +5.5818790e-01 </wgt>
<wgt id='1403'> +5.5531476e-01 </wgt>
<wgt id='1404'> +5.5681616e-01 </wgt>
<wgt id='1405'> +5.5518825e-01 </wgt>
<wgt id='1406'> +5.5670407e-01 </wgt>
<wgt id='1407'> +5.5467557e-01 </wgt>
<wgt id='1408'> +5.5661813e-01 </wgt>
<wgt id='1409'> +5.5593156e-01 </wgt>
<wgt id='1410'> +5.5563582e-01 </wgt>
<wgt id='1411'> +5.5583225e-01 </wgt>
<wgt id='1412'> +5.5580175e-01 </wgt>
<wgt id='1413'> +5.5896508e-01 </wgt>
<wgt id='1414'> +5.5247953e-01 </wgt>
<wgt id='1415'> +5.5742714e-01 </wgt>
<wgt id='1416'> +5.5393288e-01 </wgt>
<wgt id='1417'> +5.5677029e-01 </wgt>
<wgt id='1418'> +5.5435609e-01 </wgt>
<wgt id='1419'> +5.5681541e-01 </wgt>
<wgt id='1420'> +5.5548735e-01 </wgt>
<wgt id='1421'> +5.6015000e-01 </wgt>
<wgt id='1422'> +5.5086439e-01 </wgt>
<wgt id='1423'> +5.6001442e-01 </wgt>
<wgt id='1424'> +5.5246900e-01 </wgt>
<wgt id='1425'> +5.5583265e-01 </wgt>
<wgt id='1426'> +5.5575627e-01 </wgt>
<wgt id='1427'> +5.5443364e-01 </wgt>
<wgt id='1428'> +5.5775856e-01 </wgt>
<wgt id='1429'> +5.5583506e-01 </wgt>
<wgt id='1430'> +5.5603028e-01 </wgt>
<wgt id='1431'> +5.5603217e-01 </wgt>
<wgt id='1432'> +5.5547307e-01 </wgt>
<wgt id='1433'> +5.5435503e-01 </wgt>
<wgt id='1434'> +5.5702048e-01 </wgt>
<wgt id='1435'> +5.5615086e-01 </wgt>
<wgt id='1436'> +5.5666515e-01 </wgt>
<wgt id='1437'> +5.5562824e-01 </wgt>
<wgt id='1438'> +5.5634377e-01 </wgt>
<wgt id='1439'> +5.5484588e-01 </wgt>
<wgt id='1440'> +5.5494758e-01 </wgt>
<wgt id='1441'> +5.5618031e-01 </wgt>
<wgt id='1442'> +5.5610962e-01 </wgt>
<wgt id='1443'> +5.5451656e-01 </wgt>
<wgt id='1444'> +5.5455944e-01 </wgt>
<wgt id='1445'> +5.5446748e-01 </wgt>
<wgt id='1446'> +5.5468326e-01 </wgt>
<wgt id='1447'> +5.5440695e-01 </wgt>
<wgt id='1448'> +5.5628234e-01 </wgt>
<wgt id='1449'> +5.5288649e-01 </wgt>
<wgt id='1450'> +5.5764217e-01 </wgt>
<wgt id='1451'> +5.5103930e-01 </wgt>
<wgt id='1452'> +5.5269183e-01 </wgt>
<wgt id='1453'> +5.5629434e-01 </wgt>
<wgt id='1454'> +5.5391071e-01 </wgt>
<wgt id='1455'> +5.5584951e-01 </wgt>
<wgt id='1456'> +5.5374224e-01 </wgt>
<wgt id='1457'> +5.5590608e-01 </wgt>
<wgt id='1458'> +5.5346547e-01 </wgt>
<wgt id='1459'> +5.5511592e-01 </wgt>
<wgt id='1460'> +5.5460139e-01 </wgt>
<wgt id='1461'> +5.5436790e-01 </wgt>
<wgt id='1462'> +5.5456363e-01 </wgt>
<wgt id='1463'> +5.5447674e-01 </wgt>
<wgt id='1464'> +5.5725901e-01 </wgt>
<wgt id='1465'> +5.5091460e-01 </wgt>
<wgt id='1466'> +5.5640046e-01 </wgt>
<wgt id='1467'> +5.5294630e-01 </wgt>
<wgt id='1468'> +5.5174348e-01 </wgt>
<wgt id='1469'> +5.5702403e-01 </wgt>
<wgt id='1470'> +5.5550423e-01 </wgt>
<wgt id='1471'> +5.5421896e-01 </wgt>
<wgt id='1472'> +5.5811093e-01 </wgt>
<wgt id='1473'> +5.5029406e-01 </wgt>
<wgt id='1474'> +5.5761196e-01 </wgt>
<wgt id='1475'> +5.5086697e-01 </wgt>
<wgt id='1476'> +5.5403379e-01 </wgt>
<wgt id='1477'> +5.5493683e-01 </wgt>
<wgt id='1478'> +5.5323514e-01 </wgt>
<wgt id='1479'> +5.5654972e-01 </wgt>
<wgt id='1480'> +5.5461613e-01 </wgt>
<wgt id='1481'> +5.5474508e-01 </wgt>
<wgt id='1482'> +5.5464294e-01 </wgt>
<wgt id='1483'> +5.5425909e-01 </wgt>
<wgt id='1484'> +5.5298159e-01 </wgt>
<wgt id='1485'> +5.5584221e-01 </wgt>
<wgt id='1486'> +5.5486702e-01 </wgt>
<wgt id='1487'> +5.5535984e-01 </wgt>
<wgt id='1488'> +5.5427616e-01 </wgt>
<wgt id='1489'> +5.5507520e-01 </wgt>
<wgt id='1490'> +5.5345901e-01 </wgt>
<wgt id='1491'> +5.5380097e-01 </wgt>
<wgt id='1492'> +5.5471619e-01 </wgt>
<wgt id='1493'> +5.5493402e-01 </wgt>
<wgt id='1494'> +5.3110978e-01 </wgt>
<wgt id='1495'> +5.2973414e-01 </wgt>
<wgt id='1496'> +5.3033923e-01 </wgt>
<wgt id='1497'> +5.3080655e-01 </wgt>
<wgt id='1498'> +5.3101683e-01 </wgt>
<wgt id='1499'> +5.3103657e-01 </wgt>
<wgt id='1500'> +5.3334336e-01 </wgt>
<wgt id='1501'> +5.3275631e-01 </wgt>
<wgt id='1502'> +5.3228831e-01 </wgt>
<wgt id='1503'> +5.3180881e-01 </wgt>
<wgt id='1504'> +5.3141334e-01 </wgt>
<wgt id='1505'> +5.3074022e-01 </wgt>
<wgt id='1506'> +5.3050845e-01 </wgt>
<wgt id='1507'> +5.3033672e-01 </wgt>
<wgt id='1508'> +5.3103657e-01 </wgt>
<wgt id='1509'> +5.3086061e-01 </wgt>
<wgt id='1510'> +5.3094756e-01 </wgt>
<wgt id='1511'> +5.3109856e-01 </wgt>
<wgt id='1512'> +5.3110293e-01 </wgt>
<wgt id='1513'> +5.2480664e-01 </wgt>
<wgt id='1514'> +5.2463065e-01 </wgt>
<wgt id='1515'> +5.2505518e-01 </wgt>
<wgt id='1516'> +5.2575201e-01 </wgt>
<wgt id='1517'> +5.2387505e-01 </wgt>
<wgt id='1518'> +5.2545657e-01 </wgt>
<wgt id='1519'> +5.2454902e-01 </wgt>
<wgt id='1520'> +5.2851279e-01 </wgt>
<wgt id='1521'> +5.2112728e-01 </wgt>
<wgt id='1522'> +5.2379546e-01 </wgt>
<wgt id='1523'> +5.2578761e-01 </wgt>
<wgt id='1524'> +5.2696423e-01 </wgt>
<wgt id='1525'> +5.2387356e-01 </wgt>
<wgt id='1526'> +5.2513504e-01 </wgt>
<wgt id='1527'> +5.2441689e-01 </wgt>
<wgt id='1528'> +5.2323117e-01 </wgt>
<wgt id='1529'> +5.2653469e-01 </wgt>
<wgt id='1530'> +5.2655893e-01 </wgt>
<wgt id='1531'> +5.2379002e-01 </wgt>
<wgt id='1532'> +5.2425550e-01 </wgt>
<wgt id='1533'> +5.2555426e-01 </wgt>
<wgt id='1534'> +5.2249711e-01 </wgt>
<wgt id='1535'> +5.2644650e-01 </wgt>
<wgt id='1536'> +5.2323938e-01 </wgt>
<wgt id='1537'> +5.2624967e-01 </wgt>
<wgt id='1538'> +5.2454891e-01 </wgt>
<wgt id='1539'> +5.2513682e-01 </wgt>
<wgt id='1540'> +5.2586576e-01 </wgt>
<wgt id='1541'> +5.2421626e-01 </wgt>
<wgt id='1542'> +5.2226731e-01 </wgt>
<wgt id='1543'> +5.3177280e-01 </wgt>
<wgt id='1544'> +5.2550070e-01 </wgt>
<wgt id='1545'> +5.2285869e-01 </wgt>
<wgt id='1546'> +5.2332822e-01 </wgt>
<wgt id='1547'> +5.2714137e-01 </wgt>
<wgt id='1548'> +5.2738255e-01 </wgt>
<wgt id='1549'> +5.2312787e-01 </wgt>
<wgt id='1550'> +5.2489667e-01 </wgt>
<wgt id='1551'> +5.2482333e-01 </wgt>
<wgt id='1552'> +5.2521083e-01 </wgt>
<wgt id='1553'> +5.2439999e-01 </wgt>
<wgt id='1554'> +5.2501451e-01 </wgt>
<wgt id='1555'> +5.2331049e-01 </wgt>
<wgt id='1556'> +5.2497999e-01 </wgt>
<wgt id='1557'> +5.2629441e-01 </wgt>
<wgt id='1558'> +5.2310038e-01 </wgt>
<wgt id='1559'> +5.2483767e-01 </wgt>
<wgt id='1560'> +5.2510194e-01 </wgt>
<wgt id='1561'> +5.2454430e-01 </wgt>
<wgt id='1562'> +5.2362344e-01 </wgt>
<wgt id='1563'> +5.2484535e-01 </wgt>
<wgt id='1564'> +5.2480664e-01 </wgt>
<wgt id='1565'> +5.2480911e-01 </wgt>
<wgt id='1566'> +5.2332826e-01 </wgt>
<wgt id='1567'> +5.2436361e-01 </wgt>
<wgt id='1568'> +5.2615973e-01 </wgt>
<wgt id='1569'> +5.2566058e-01 </wgt>
<wgt id='1570'> +5.2526733e-01 </wgt>
<wgt id='1571'> +5.2499266e-01 </wgt>
<wgt id='1572'> +5.2456306e-01 </wgt>
<wgt id='1573'> +5.2430024e-01 </wgt>
<wgt id='1574'> +5.2395109e-01 </wgt>
<wgt id='1575'> +5.2382147e-01 </wgt>
<wgt id='1576'> +5.2436361e-01 </wgt>
<wgt id='1577'> +5.2425031e-01 </wgt>
<wgt id='1578'> +5.2432557e-01 </wgt>
<wgt id='1579'> +5.2436895e-01 </wgt>
<wgt id='1580'> +5.2439928e-01 </wgt>
<wgt id='1581'> +5.3041365e-01 </wgt>
<wgt id='1582'> +5.3009056e-01 </wgt>
<wgt id='1583'> +5.3058580e-01 </wgt>
<wgt id='1584'> +5.2773244e-01 </wgt>
<wgt id='1585'> +5.3142837e-01 </wgt>
<wgt id='1586'> +5.2896783e-01 </wgt>
<wgt id='1587'> +5.2207886e-01 </wgt>
<wgt id='1588'> +5.3143446e-01 </wgt>
<wgt id='1589'> +5.3036612e-01 </wgt>
<wgt id='1590'> +5.2951722e-01 </wgt>
<wgt id='1591'> +5.2944797e-01 </wgt>
<wgt id='1592'> +5.3613698e-01 </wgt>
<wgt id='1593'> +5.3093657e-01 </wgt>
<wgt id='1594'> +5.3023850e-01 </wgt>
<wgt id='1595'> +5.3045692e-01 </wgt>
<wgt id='1596'> +5.3053294e-01 </wgt>
<wgt id='1597'> +5.3121437e-01 </wgt>
<wgt id='1598'> +5.3122876e-01 </wgt>
<wgt id='1599'> +5.3071221e-01 </wgt>
<wgt id='1600'> +5.3109433e-01 </wgt>
<wgt id='1601'> +5.3009454e-01 </wgt>
<wgt id='1602'> +5.3098900e-01 </wgt>
<wgt id='1603'> +5.3052746e-01 </wgt>
<wgt id='1604'> +5.3078753e-01 </wgt>
<wgt id='1605'> +5.3060157e-01 </wgt>
<wgt id='1606'> +5.3039699e-01 </wgt>
<wgt id='1607'> +5.3097901e-01 </wgt>
<wgt id='1608'> +5.3046286e-01 </wgt>
<wgt id='1609'> +5.3038385e-01 </wgt>
<wgt id='1610'> +5.3019368e-01 </wgt>
<wgt id='1611'> +5.3157957e-01 </wgt>
<wgt id='1612'> +5.2464346e-01 </wgt>
<wgt id='1613'> +5.2400472e-01 </wgt>
<wgt id='1614'> +5.2682118e-01 </wgt>
<wgt id='1615'> +5.2669736e-01 </wgt>
<wgt id='1616'> +5.2389396e-01 </wgt>
<wgt id='1617'> +5.2398050e-01 </wgt>
<wgt id='1618'> +5.2498747e-01 </wgt>
<wgt id='1619'> +5.2247904e-01 </wgt>
<wgt id='1620'> +5.2484285e-01 </wgt>
<wgt id='1621'> +5.2438199e-01 </wgt>
<wgt id='1622'> +5.2571499e-01 </wgt>
<wgt id='1623'> +5.2598800e-01 </wgt>
<wgt id='1624'> +5.2511390e-01 </wgt>
<wgt id='1625'> +5.2759184e-01 </wgt>
<wgt id='1626'> +5.2727785e-01 </wgt>
<wgt id='1627'> +5.2418419e-01 </wgt>
<wgt id='1628'> +5.2374801e-01 </wgt>
<wgt id='1629'> +5.2539231e-01 </wgt>
<wgt id='1630'> +5.2598024e-01 </wgt>
<wgt id='1631'> +5.2461485e-01 </wgt>
<wgt id='1632'> +5.2479724e-01 </wgt>
<wgt id='1633'> +5.2384260e-01 </wgt>
<wgt id='1634'> +5.2540618e-01 </wgt>
<wgt id='1635'> +5.2302881e-01 </wgt>
<wgt id='1636'> +5.2544219e-01 </wgt>
<wgt id='1637'> +5.2472350e-01 </wgt>
<wgt id='1638'> +5.2352452e-01 </wgt>
<wgt id='1639'> +5.2646994e-01 </wgt>
<wgt id='1640'> +5.2564913e-01 </wgt>
<wgt id='1641'> +5.1954061e-01 </wgt>
<wgt id='1642'> +5.2345642e-01 </wgt>
<wgt id='1643'> +5.2424713e-01 </wgt>
<wgt id='1644'> +5.2363579e-01 </wgt>
<wgt id='1645'> +5.2431003e-01 </wgt>
<wgt id='1646'> +5.2508526e-01 </wgt>
<wgt id='1647'> +5.2391919e-01 </wgt>
<wgt id='1648'> +5.2406704e-01 </wgt>
<wgt id='1649'> +5.2547382e-01 </wgt>
<wgt id='1650'> +5.2420283e-01 </wgt>
<wgt id='1651'> +5.2469497e-01 </wgt>
<wgt id='1652'> +5.2472065e-01 </wgt>
<wgt id='1653'> +5.2395317e-01 </wgt>
<wgt id='1654'> +5.2438877e-01 </wgt>
<wgt id='1655'> +5.2604420e-01 </wgt>
<wgt id='1656'> +5.2403164e-01 </wgt>
<wgt id='1657'> +5.2540550e-01 </wgt>
<wgt id='1658'> +5.2492921e-01 </wgt>
<wgt id='1659'> +5.2535132e-01 </wgt>
<wgt id='1660'> +5.2628377e-01 </wgt>
<wgt id='1661'> +5.2527744e-01 </wgt>
<wgt id='1662'> +5.2709071e-01 </wgt>
<wgt id='1663'> +5.2706326e-01 </wgt>
<wgt id='1664'> +5.2502667e-01 </wgt>
<wgt id='1665'> +5.2543941e-01 </wgt>
<wgt id='1666'> +5.2598013e-01 </wgt>
<wgt id='1667'> +5.2527261e-01 </wgt>
<wgt id='1668'> +5.2371718e-01 </wgt>
<wgt id='1669'> +5.2465639e-01 </wgt>
<wgt id='1670'> +5.2625022e-01 </wgt>
<wgt id='1671'> +5.2583206e-01 </wgt>
<wgt id='1672'> +5.2380537e-01 </wgt>
<wgt id='1673'> +5.2546116e-01 </wgt>
<wgt id='1674'> +5.2450543e-01 </wgt>
<wgt id='1675'> +5.2521236e-01 </wgt>
<wgt id='1676'> +5.2464519e-01 </wgt>
<wgt id='1677'> +5.2538035e-01 </wgt>
<wgt id='1678'> +5.2471977e-01 </wgt>
<wgt id='1679'> +5.2583903e-01 </wgt>
<wgt id='1680'> +5.2447039e-01 </wgt>
<wgt id='1681'> +5.2545027e-01 </wgt>
<wgt id='1682'> +5.2407527e-01 </wgt>
<wgt id='1683'> +5.2432942e-01 </wgt>
<wgt id='1684'> +5.2354977e-01 </wgt>
<wgt id='1685'> +5.2351814e-01 </wgt>
<wgt id='1686'> +5.2520293e-01 </wgt>
<wgt id='1687'> +5.2602244e-01 </wgt>
<wgt id='1688'> +5.2509482e-01 </wgt>
<wgt id='1689'> +5.2412570e-01 </wgt>
<wgt id='1690'> +5.2408484e-01 </wgt>
<wgt id='1691'> +5.2461163e-01 </wgt>
<wgt id='1692'> +5.2502697e-01 </wgt>
<wgt id='1693'> +5.2421981e-01 </wgt>
<wgt id='1694'> +5.2507689e-01 </wgt>
<wgt id='1695'> +5.2429775e-01 </wgt>
<wgt id='1696'> +5.2552321e-01 </wgt>
<wgt id='1697'> +5.2416972e-01 </wgt>
<wgt id='1698'> +5.2466284e-01 </wgt>
<wgt id='1699'> +5.2499781e-01 </wgt>
<wgt id='1700'> +5.2491569e-01 </wgt>
<wgt id='1701'> +5.2476085e-01 </wgt>
<wgt id='1702'> +5.2516660e-01 </wgt>
<wgt id='1703'> +5.2451549e-01 </wgt>
<wgt id='1704'> +5.2443587e-01 </wgt>
<wgt id='1705'> +5.2521387e-01 </wgt>
<wgt id='1706'> +5.2489092e-01 </wgt>
<wgt id='1707'> +5.2532383e-01 </wgt>
<wgt id='1708'> +5.2472046e-01 </wgt>
<wgt id='1709'> +5.2522356e-01 </wgt>
<wgt id='1710'> +5.2501463e-01 </wgt>
<wgt id='1711'> +5.2478805e-01 </wgt>
<wgt id='1712'> +5.2480190e-01 </wgt>
<wgt id='1713'> +5.2011500e-01 </wgt>
<wgt id='1714'> +5.2710438e-01 </wgt>
<wgt id='1715'> +5.2241061e-01 </wgt>
<wgt id='1716'> +5.1751982e-01 </wgt>
<wgt id='1717'> +5.2385335e-01 </wgt>
<wgt id='1718'> +5.0111880e-01 </wgt>
<wgt id='1719'> +5.1516365e-01 </wgt>
<wgt id='1720'> +5.3269647e-01 </wgt>
<wgt id='1721'> +4.9626149e-01 </wgt>
<wgt id='1722'> +5.1378895e-01 </wgt>
<wgt id='1723'> +5.2325761e-01 </wgt>
<wgt id='1724'> +5.3079568e-01 </wgt>
<wgt id='1725'> +5.3172526e-01 </wgt>
<wgt id='1726'> +5.3338804e-01 </wgt>
<wgt id='1727'> +5.1214888e-01 </wgt>
<wgt id='1728'> +5.2389938e-01 </wgt>
<wgt id='1729'> +5.2586421e-01 </wgt>
<wgt id='1730'> +5.1369462e-01 </wgt>
<wgt id='1731'> +4.9721176e-01 </wgt>
<wgt id='1732'> +5.2858168e-01 </wgt>
<wgt id='1733'> +5.3338064e-01 </wgt>
<wgt id='1734'> +5.2295005e-01 </wgt>
<wgt id='1735'> +5.1615423e-01 </wgt>
<wgt id='1736'> +5.1437241e-01 </wgt>
<wgt id='1737'> +5.2713105e-01 </wgt>
<wgt id='1738'> +5.3671336e-01 </wgt>
<wgt id='1739'> +5.0665197e-01 </wgt>
<wgt id='1740'> +5.1394961e-01 </wgt>
<wgt id='1741'> +5.3071496e-01 </wgt>
<wgt id='1742'> +5.3145217e-01 </wgt>
<wgt id='1743'> +5.2465002e-01 </wgt>
<wgt id='1744'> +5.2906909e-01 </wgt>
<wgt id='1745'> +5.0528863e-01 </wgt>
<wgt id='1746'> +5.1091288e-01 </wgt>
<wgt id='1747'> +5.1951820e-01 </wgt>
<wgt id='1748'> +5.2772454e-01 </wgt>
<wgt id='1749'> +5.3775481e-01 </wgt>
<wgt id='1750'> +5.2981321e-01 </wgt>
<wgt id='1751'> +5.1973016e-01 </wgt>
<wgt id='1752'> +4.9076801e-01 </wgt>
<wgt id='1753'> +5.2984367e-01 </wgt>
<wgt id='1754'> +5.2680293e-01 </wgt>
<wgt id='1755'> +5.1426691e-01 </wgt>
<wgt id='1756'> +5.1653226e-01 </wgt>
<wgt id='1757'> +5.1099832e-01 </wgt>
<wgt id='1758'> +5.0124094e-01 </wgt>
<wgt id='1759'> +5.1736612e-01 </wgt>
<wgt id='1760'> +5.0772570e-01 </wgt>
<wgt id='1761'> +5.2398344e-01 </wgt>
<wgt id='1762'> +5.1214888e-01 </wgt>
<wgt id='1763'> +5.1209258e-01 </wgt>
<wgt id='1764'> +5.3433063e-01 </wgt>
<wgt id='1765'> +5.3373595e-01 </wgt>
<wgt id='1766'> +5.5272695e-01 </wgt>
<wgt id='1767'> +5.3047655e-01 </wgt>
<wgt id='1768'> +5.0145920e-01 </wgt>
<wgt id='1769'> +5.2600824e-01 </wgt>
<wgt id='1770'> +5.2837722e-01 </wgt>
<wgt id='1771'> +5.1912116e-01 </wgt>
<wgt id='1772'> +5.3274709e-01 </wgt>
<wgt id='1773'> +5.2525996e-01 </wgt>
<wgt id='1774'> +5.2725971e-01 </wgt>
<wgt id='1775'> +5.3092576e-01 </wgt>
<wgt id='1776'> +5.3126349e-01 </wgt>
<wgt id='1777'> +5.2134542e-01 </wgt>
<wgt id='1778'> +5.4459668e-01 </wgt>
<wgt id='1779'> +5.1592789e-01 </wgt>
<wgt id='1780'> +5.3048148e-01 </wgt>
<wgt id='1781'> +5.2340039e-01 </wgt>
<wgt id='1782'> +5.3772123e-01 </wgt>
<wgt id='1783'> +5.1441011e-01 </wgt>
<wgt id='1784'> +5.3515877e-01 </wgt>
<wgt id='1785'> +5.2317828e-01 </wgt>
<wgt id='1786'> +5.3064828e-01 </wgt>
<wgt id='1787'> +5.3135777e-01 </wgt>
<wgt id='1788'> +5.1507062e-01 </wgt>
<wgt id='1789'> +5.3324193e-01 </wgt>
<wgt id='1790'> +5.2355031e-01 </wgt>
<wgt id='1791'> +5.0789153e-01 </wgt>
<wgt id='1792'> +5.1539514e-01 </wgt>
<wgt id='1793'> +5.5071610e-01 </wgt>
<wgt id='1794'> +5.3162974e-01 </wgt>
<wgt id='1795'> +5.2039814e-01 </wgt>
<wgt id='1796'> +5.2106216e-01 </wgt>
<wgt id='1797'> +4.9446770e-01 </wgt>
<wgt id='1798'> +5.4280792e-01 </wgt>
<wgt id='1799'> +5.4517135e-01 </wgt>
<wgt id='1800'> +5.2795413e-01 </wgt>
<wgt id='1801'> +5.0990372e-01 </wgt>
<wgt id='1802'> +5.1857114e-01 </wgt>
<wgt id='1803'> +5.2195380e-01 </wgt>
<wgt id='1804'> +5.2225199e-01 </wgt>
<wgt id='1805'> +5.2544807e-01 </wgt>
<wgt id='1806'> +5.2813940e-01 </wgt>
<wgt id='1807'> +5.0946819e-01 </wgt>
<wgt id='1808'> +5.3076639e-01 </wgt>
<wgt id='1809'> +5.2124318e-01 </wgt>
<wgt id='1810'> +5.2126335e-01 </wgt>
<wgt id='1811'> +5.2314627e-01 </wgt>
<wgt id='1812'> +5.1341439e-01 </wgt>
<wgt id='1813'> +5.2725955e-01 </wgt>
<wgt id='1814'> +5.0582548e-01 </wgt>
<wgt id='1815'> +5.2925853e-01 </wgt>
<wgt id='1816'> +5.3287762e-01 </wgt>
<wgt id='1817'> +5.3180876e-01 </wgt>
<wgt id='1818'> +5.1971481e-01 </wgt>
<wgt id='1819'> +5.2999715e-01 </wgt>
<wgt id='1820'> +5.4169310e-01 </wgt>
<wgt id='1821'> +5.4206468e-01 </wgt>
<wgt id='1822'> +5.2609419e-01 </wgt>
<wgt id='1823'> +5.3478299e-01 </wgt>
<wgt id='1824'> +5.1399925e-01 </wgt>
<wgt id='1825'> +5.3166054e-01 </wgt>
<wgt id='1826'> +5.3693350e-01 </wgt>
<wgt id='1827'> +5.3588278e-01 </wgt>
<wgt id='1828'> +5.3942083e-01 </wgt>
<wgt id='1829'> +5.2796214e-01 </wgt>
<wgt id='1830'> +5.1766162e-01 </wgt>
<wgt id='1831'> +5.2325730e-01 </wgt>
<wgt id='1832'> +5.3818235e-01 </wgt>
<wgt id='1833'> +5.2038383e-01 </wgt>
<wgt id='1834'> +5.3726303e-01 </wgt>
<wgt id='1835'> +5.3183282e-01 </wgt>
<wgt id='1836'> +5.3476346e-01 </wgt>
<wgt id='1837'> +5.3724158e-01 </wgt>
<wgt id='1838'> +5.2847816e-01 </wgt>
<wgt id='1839'> +5.5915479e-01 </wgt>
<wgt id='1840'> +5.4765735e-01 </wgt>
<wgt id='1841'> +5.3300185e-01 </wgt>
<wgt id='1842'> +5.3874270e-01 </wgt>
<wgt id='1843'> +5.3192564e-01 </wgt>
<wgt id='1844'> +5.2470027e-01 </wgt>
<wgt id='1845'> +5.2300877e-01 </wgt>
<wgt id='1846'> +5.3375023e-01 </wgt>
<wgt id='1847'> +5.3425894e-01 </wgt>
<wgt id='1848'> +5.3064957e-01 </wgt>
<wgt id='1849'> +5.4400372e-01 </wgt>
<wgt id='1850'> +5.5195058e-01 </wgt>
<wgt id='1851'> +5.4253715e-01 </wgt>
<wgt id='1852'> +5.3764085e-01 </wgt>
<wgt id='1853'> +5.1342636e-01 </wgt>
<wgt id='1854'> +5.3305628e-01 </wgt>
<wgt id='1855'> +5.3117866e-01 </wgt>
<wgt id='1856'> +5.4162552e-01 </wgt>
<wgt id='1857'> +5.4003481e-01 </wgt>
<wgt id='1858'> +5.4268911e-01 </wgt>
<wgt id='1859'> +5.3870171e-01 </wgt>
<wgt id='1860'> +5.3539776e-01 </wgt>
<wgt id='1861'> +5.3739806e-01 </wgt>
<wgt id='1862'> +5.4532253e-01 </wgt>
<wgt id='1863'> +5.1301892e-01 </wgt>
<wgt id='1864'> +5.2380719e-01 </wgt>
<wgt id='1865'> +5.2481288e-01 </wgt>
<wgt id='1866'> +5.3248588e-01 </wgt>
<wgt id='1867'> +5.3139383e-01 </wgt>
<wgt id='1868'> +5.3032419e-01 </wgt>
<wgt id='1869'> +5.4360470e-01 </wgt>
<wgt id='1870'> +5.3518340e-01 </wgt>
<wgt id='1871'> +5.3511869e-01 </wgt>
<wgt id='1872'> +5.2067229e-01 </wgt>
<wgt id='1873'> +5.4611409e-01 </wgt>
<wgt id='1874'> +5.2722146e-01 </wgt>
<wgt id='1875'> +5.1571867e-01 </wgt>
<wgt id='1876'> +5.2616048e-01 </wgt>
<wgt id='1877'> +5.2989866e-01 </wgt>
<wgt id='1878'> +5.2299554e-01 </wgt>
<wgt id='1879'> +5.4925859e-01 </wgt>
<wgt id='1880'> +5.1660596e-01 </wgt>
<wgt id='1881'> +5.4249454e-01 </wgt>
<wgt id='1882'> +5.3102252e-01 </wgt>
<wgt id='1883'> +5.5457074e-01 </wgt>
<wgt id='1884'> +5.3477289e-01 </wgt>
<wgt id='1885'> +5.3578471e-01 </wgt>
<wgt id='1886'> +5.2840151e-01 </wgt>
<wgt id='1887'> +5.4386985e-01 </wgt>
<wgt id='1888'> +5.2848203e-01 </wgt>
<wgt id='1889'> +5.3609927e-01 </wgt>
<wgt id='1890'> +5.4531238e-01 </wgt>
<wgt id='1891'> +5.1943117e-01 </wgt>
<wgt id='1892'> +5.2705671e-01 </wgt>
<wgt id='1893'> +5.4360340e-01 </wgt>
<wgt id='1894'> +5.4287644e-01 </wgt>
<wgt id='1895'> +5.4015395e-01 </wgt>
<wgt id='1896'> +5.3445491e-01 </wgt>
<wgt id='1897'> +5.3721137e-01 </wgt>
<wgt id='1898'> +5.3448885e-01 </wgt>
<wgt id='1899'> +5.2510907e-01 </wgt>
<wgt id='1900'> +5.3991732e-01 </wgt>
<wgt id='1901'> +5.0531452e-01 </wgt>
<wgt id='1902'> +5.2242665e-01 </wgt>
<wgt id='1903'> +5.2762166e-01 </wgt>
<wgt id='1904'> +5.3322655e-01 </wgt>
<wgt id='1905'> +5.2636577e-01 </wgt>
<wgt id='1906'> +5.2573866e-01 </wgt>
<wgt id='1907'> +5.2801490e-01 </wgt>
<wgt id='1908'> +5.4554209e-01 </wgt>
<wgt id='1909'> +5.2920341e-01 </wgt>
<wgt id='1910'> +5.4921878e-01 </wgt>
<wgt id='1911'> +5.0477393e-01 </wgt>
<wgt id='1912'> +5.3490765e-01 </wgt>
<wgt id='1913'> +5.3651048e-01 </wgt>
<wgt id='1914'> +5.4767454e-01 </wgt>
<wgt id='1915'> +5.3610380e-01 </wgt>
<wgt id='1916'> +5.1199956e-01 </wgt>
<wgt id='1917'> +6.0737481e-01 </wgt>
<wgt id='1918'> +6.5111387e-01 </wgt>
<wgt id='1919'> +5.3287762e-01 </wgt>
<wgt id='1920'> +5.3180876e-01 </wgt>
<wgt id='1921'> +5.1971481e-01 </wgt>
<wgt id='1922'> +5.2999715e-01 </wgt>
<wgt id='1923'> +5.4169310e-01 </wgt>
<wgt id='1924'> +5.4206468e-01 </wgt>
<wgt id='1925'> +5.2609419e-01 </wgt>
<wgt id='1926'> +5.3478299e-01 </wgt>
<wgt id='1927'> +5.1399925e-01 </wgt>
<wgt id='1928'> +5.3166054e-01 </wgt>
<wgt id='1929'> +5.3693350e-01 </wgt>
<wgt id='1930'> +5.3588278e-01 </wgt>
<wgt id='1931'> +5.3942083e-01 </wgt>
<wgt id='1932'> +5.2796214e-01 </wgt>
<wgt id='1933'> +5.1766162e-01 </wgt>
<wgt id='1934'> +5.2325730e-01 </wgt>
<wgt id='1935'> +5.3818235e-01 </wgt>
<wgt id='1936'> +5.2038383e-01 </wgt>
<wgt id='1937'> +5.3726303e-01 </wgt>
<wgt id='1938'> +5.3183282e-01 </wgt>
<wgt id='1939'> +5.3476346e-01 </wgt>
<wgt id='1940'> +5.3724158e-01 </wgt>
<wgt id='1941'> +5.2847816e-01 </wgt>
<wgt id='1942'> +5.5915479e-01 </wgt>
<wgt id='1943'> +5.4765735e-01 </wgt>
<wgt id='1944'> +5.3300185e-01 </wgt>
<wgt id='1945'> +5.3874270e-01 </wgt>
<wgt id='1946'> +5.3192564e-01 </wgt>
<wgt id='1947'> +5.2470027e-01 </wgt>
<wgt id='1948'> +5.2300877e-01 </wgt>
<wgt id='1949'> +5.3375023e-01 </wgt>
<wgt id='1950'> +5.3425894e-01 </wgt>
<wgt id='1951'> +5.3064957e-01 </wgt>
<wgt id='1952'> +5.4400372e-01 </wgt>
<wgt id='1953'> +5.5195058e-01 </wgt>
<wgt id='1954'> +5.4253715e-01 </wgt>
<wgt id='1955'> +5.3764085e-01 </wgt>
<wgt id='1956'> +5.1342636e-01 </wgt>
<wgt id='1957'> +5.3305628e-01 </wgt>
<wgt id='1958'> +5.3117866e-01 </wgt>
<wgt id='1959'> +5.4162552e-01 </wgt>
<wgt id='1960'> +5.4003481e-01 </wgt>
<wgt id='1961'> +5.4268911e-01 </wgt>
<wgt id='1962'> +5.3870171e-01 </wgt>
<wgt id='1963'> +5.3539776e-01 </wgt>
<wgt id='1964'> +5.3739806e-01 </wgt>
<wgt id='1965'> +5.4532253e-01 </wgt>
<wgt id='1966'> +5.1301892e-01 </wgt>
<wgt id='1967'> +5.2380719e-01 </wgt>
<wgt id='1968'> +5.2481288e-01 </wgt>
<wgt id='1969'> +5.3248588e-01 </wgt>
<wgt id='1970'> +5.3139383e-01 </wgt>
<wgt id='1971'> +5.3032419e-01 </wgt>
<wgt id='1972'> +5.4360470e-01 </wgt>
<wgt id='1973'> +5.3518340e-01 </wgt>
<wgt id='1974'> +5.3511869e-01 </wgt>
<wgt id='1975'> +5.2067229e-01 </wgt>
<wgt id='1976'> +5.4611409e-01 </wgt>
<wgt id='1977'> +5.2722146e-01 </wgt>
<wgt id='1978'> +5.1571867e-01 </wgt>
<wgt id='1979'> +5.2616048e-01 </wgt>
<wgt id='1980'> +5.2989866e-01 </wgt>
<wgt id='1981'> +5.2299554e-01 </wgt>
<wgt id='1982'> +5.4925859e-01 </wgt>
<wgt id='1983'> +5.1660596e-01 </wgt>
<wgt id='1984'> +5.4249454e-01 </wgt>
<wgt id='1985'> +5.3102252e-01 </wgt>
<wgt id='1986'> +5.5457074e-01 </wgt>
<wgt id='1987'> +5.3477289e-01 </wgt>
<wgt id='1988'> +5.3578471e-01 </wgt>
<wgt id='1989'> +5.2840151e-01 </wgt>
<wgt id='1990'> +5.4386985e-01 </wgt>
<wgt id='1991'> +5.2848203e-01 </wgt>
<wgt id='1992'> +5.3609927e-01 </wgt>
<wgt id='1993'> +5.4531238e-01 </wgt>
<wgt id='1994'> +5.1943117e-01 </wgt>
<wgt id='1995'> +5.2705671e-01 </wgt>
<wgt id='1996'> +5.4360340e-01 </wgt>
<wgt id='1997'> +5.4287644e-01 </wgt>
<wgt id='1998'> +5.4015395e-01 </wgt>
<wgt id='1999'> +5.3445491e-01 </wgt>
<wgt id='2000'> +5.3721137e-01 </wgt>
<wgt id='2001'> +5.3448885e-01 </wgt>
<wgt id='2002'> +5.2510907e-01 </wgt>
<wgt id='2003'> +5.3991732e-01 </wgt>
<wgt id='2004'> +5.0531452e-01 </wgt>
<wgt id='2005'> +5.2242665e-01 </wgt>
<wgt id='2006'> +5.2762166e-01 </wgt>
<wgt id='2007'> +5.3322655e-01 </wgt>
<wgt id='2008'> +5.2636577e-01 </wgt>
<wgt id='2009'> +5.2573866e-01 </wgt>
<wgt id='2010'> +5.2801490e-01 </wgt>
<wgt id='2011'> +5.4554209e-01 </wgt>
<wgt id='2012'> +5.2920341e-01 </wgt>
<wgt id='2013'> +5.4921878e-01 </wgt>
<wgt id='2014'> +5.0477393e-01 </wgt>
<wgt id='2015'> +5.3490765e-01 </wgt>
<wgt id='2016'> +5.3651048e-01 </wgt>
<wgt id='2017'> +5.4767454e-01 </wgt>
<wgt id='2018'> +5.3610380e-01 </wgt>
<wgt id='2019'> +5.1199956e-01 </wgt>
<wgt id='2020'> +5.3188854e-01 </wgt>
<wgt id='2021'> +5.3262118e-01 </wgt>
<wgt id='2022'> +5.3008615e-01 </wgt>
</rwgt>
</event>
<event>
 13 1 0.0079112 6.04033700e+02 7.81860800e-03 1.06159300e-01
        2 -1    0    0  501    0 +0.0000000000e+00 +0.0000000000e+00 +1.5847427624e+03 1.5847427624e+03 2.5500000000e-03 0.0000e+00 -1.0000e+00
       21 -1    0    0  502  503 +0.0000000000e+00 +0.0000000000e+00 -1.8642566924e+02 1.8642566924e+02 0.0000000000e+00 0.0000e+00 -1.0000e+00
  8000001  2    1    2  502    0 +1.1025879156e+01 +5.1388712107e+01 +3.7795476877e+02 7.1106368502e+02 5.9999948931e+02 0.0000e+00 0.0000e+00
        1  1    1    2  501    0 +2.8483321173e+01 +9.0256662356e+00 +9.7340353131e+02 9.7386200102e+02 5.0400000000e-03 0.0000e+00 -1.0000e+00
       -5  1    1    2    0  503 -3.9509200329e+01 -6.0414378343e+01 +4.6958793076e+01 8.6242745602e+01 4.6700000000e+00 0.0000e+00 1.0000e+00
        6  2    3    3  502    0 -2.1922867416e+02 -5.3994015565e+01 +5.6897080368e+01 2.9207195593e+02 1.7632976038e+02 0.0000e+00 0.0000e+00
        5  1    6    6  502    0 -1.6057627262e+02 +1.6854299590e+01 +1.1173495201e+01 1.6191189777e+02 4.6700000000e+00 0.0000e+00 -1.0000e+00
       24  2    6    6    0    0 -5.8652401537e+01 -7.0848315155e+01 +4.5723585167e+01 1.3016005816e+02 7.9946272796e+01 0.0000e+00 0.0000e+00
        4  1    8    8  504    0 -3.4684849355e+01 -3.8947783535e+01 +6.7020436560e+01 8.4931268881e+01 1.2700000000e+00 0.0000e+00 -1.0000e+00
       -1  1    8    8    0  504 -2.3967552182e+01 -3.1900531619e+01 -2.1296851393e+01 4.5228789281e+01 5.0400000000e-03 0.0000e+00 1.0000e+00
       23  2    3    3    0    0 +2.3025455331e+02 +1.0538272767e+02 +3.2105768840e+02 4.1899172909e+02 9.1396669242e+01 0.0000e+00 0.0000e+00
        3  1   11   11  505    0 +1.6106247814e+02 +1.0271651299e+02 +1.8298241508e+02 2.6452670628e+02 1.0100000000e-01 0.0000e+00 -1.0000e+00
       -3  1   11   11    0  505 +6.9192075173e+01 +2.6662146832e+00 +1.3807527332e+02 1.5446502281e+02 1.0100000000e-01 0.0000e+00 1.0000e+00
<mgrwt>
<rscale>  1 0.13434285e+03</rscale>
<asrwt>0</asrwt>
<pdfrwt beam="1">  1       21 0.28680873e-01 0.60403371e+03</pdfrwt>
<pdfrwt beam="2">  1        2 0.24380657e+00 0.29879127e+02</pdfrwt>
<totfact> 0.25028113e+03</totfact>
</mgrwt>
<rwgt>
<wgt id='1001'> +5.2878984e-01 </wgt>
<wgt id='1002'> +3.3853998e-01 </wgt>
<wgt id='1003'> +3.3853365e-01 </wgt>
<wgt id='1004'> +3.9392729e-01 </wgt>
<wgt id='1005'> +3.0125070e-01 </wgt>
<wgt id='1006'> +4.7950784e-01 </wgt>
<wgt id='1007'> +3.1256754e-01 </wgt>
<wgt id='1008'> +3.1256197e-01 </wgt>
<wgt id='1009'> +3.6106708e-01 </wgt>
<wgt id='1010'> +2.7956013e-01 </wgt>
<wgt id='1011'> +5.8975988e-01 </wgt>
<wgt id='1012'> +3.6935041e-01 </wgt>
<wgt id='1013'> +3.6934313e-01 </wgt>
<wgt id='1014'> +4.3356336e-01 </wgt>
<wgt id='1015'> +3.2668233e-01 </wgt>
<wgt id='1016'> +4.8725317e-01 </wgt>
<wgt id='1017'> +3.1823507e-01 </wgt>
<wgt id='1018'> +3.1822919e-01 </wgt>
<wgt id='1019'> +3.6934313e-01 </wgt>
<wgt id='1020'> +2.8361117e-01 </wgt>
<wgt id='1021'> +4.4184229e-01 </wgt>
<wgt id='1022'> +2.9382041e-01 </wgt>
<wgt id='1023'> +2.9381522e-01 </wgt>
<wgt id='1024'> +3.3853365e-01 </wgt>
<wgt id='1025'> +2.6319068e-01 </wgt>
<wgt id='1026'> +5.4343399e-01 </wgt>
<wgt id='1027'> +3.4719756e-01 </wgt>
<wgt id='1028'> +3.4719078e-01 </wgt>
<wgt id='1029'> +4.0650560e-01 </wgt>
<wgt id='1030'> +3.0755367e-01 </wgt>
<wgt id='1031'> +5.7741633e-01 </wgt>
<wgt id='1032'> +3.6107396e-01 </wgt>
<wgt id='1033'> +3.6106708e-01 </wgt>
<wgt id='1034'> +4.2061961e-01 </wgt>
<wgt id='1035'> +3.2059577e-01 </wgt>
<wgt id='1036'> +5.2360245e-01 </wgt>
<wgt id='1037'> +3.3337273e-01 </wgt>
<wgt id='1038'> +3.3336667e-01 </wgt>
<wgt id='1039'> +3.8553281e-01 </wgt>
<wgt id='1040'> +2.9751232e-01 </wgt>
<wgt id='1041'> +6.4399305e-01 </wgt>
<wgt id='1042'> +3.9393520e-01 </wgt>
<wgt id='1043'> +3.9392729e-01 </wgt>
<wgt id='1044'> +4.6294140e-01 </wgt>
<wgt id='1045'> +3.4766051e-01 </wgt>
<wgt id='1046'> +5.2878984e-01 </wgt>
<wgt id='1047'> +5.2878984e-01 </wgt>
<wgt id='1048'> +5.2878984e-01 </wgt>
<wgt id='1049'> +5.2905816e-01 </wgt>
<wgt id='1050'> +5.2832251e-01 </wgt>
<wgt id='1051'> +5.2973792e-01 </wgt>
<wgt id='1052'> +5.2772083e-01 </wgt>
<wgt id='1053'> +5.3129608e-01 </wgt>
<wgt id='1054'> +5.2868292e-01 </wgt>
<wgt id='1055'> +5.2900855e-01 </wgt>
<wgt id='1056'> +5.2964362e-01 </wgt>
<wgt id='1057'> +5.2838194e-01 </wgt>
<wgt id='1058'> +5.2884558e-01 </wgt>
<wgt id='1059'> +5.2746557e-01 </wgt>
<wgt id='1060'> +5.2838445e-01 </wgt>
<wgt id='1061'> +5.2897223e-01 </wgt>
<wgt id='1062'> +5.2952795e-01 </wgt>
<wgt id='1063'> +5.2812071e-01 </wgt>
<wgt id='1064'> +5.2890240e-01 </wgt>
<wgt id='1065'> +5.2912686e-01 </wgt>
<wgt id='1066'> +5.2775758e-01 </wgt>
<wgt id='1067'> +5.3002869e-01 </wgt>
<wgt id='1068'> +5.2684870e-01 </wgt>
<wgt id='1069'> +5.2888457e-01 </wgt>
<wgt id='1070'> +5.2878329e-01 </wgt>
<wgt id='1071'> +5.2839549e-01 </wgt>
<wgt id='1072'> +5.3000633e-01 </wgt>
<wgt id='1073'> +5.2846412e-01 </wgt>
<wgt id='1074'> +5.2919046e-01 </wgt>
<wgt id='1075'> +5.2648966e-01 </wgt>
<wgt id='1076'> +5.3024498e-01 </wgt>
<wgt id='1077'> +5.3099320e-01 </wgt>
<wgt id='1078'> +5.2848664e-01 </wgt>
<wgt id='1079'> +5.3161167e-01 </wgt>
<wgt id='1080'> +5.3032926e-01 </wgt>
<wgt id='1081'> +5.2973165e-01 </wgt>
<wgt id='1082'> +5.2988791e-01 </wgt>
<wgt id='1083'> +5.2813220e-01 </wgt>
<wgt id='1084'> +5.2763721e-01 </wgt>
<wgt id='1085'> +5.3010832e-01 </wgt>
<wgt id='1086'> +5.2780535e-01 </wgt>
<wgt id='1087'> +5.2894299e-01 </wgt>
<wgt id='1088'> +5.2927740e-01 </wgt>
<wgt id='1089'> +5.2914021e-01 </wgt>
<wgt id='1090'> +5.2875884e-01 </wgt>
<wgt id='1091'> +5.2781389e-01 </wgt>
<wgt id='1092'> +5.2768853e-01 </wgt>
<wgt id='1093'> +5.2878739e-01 </wgt>
<wgt id='1094'> +5.2892078e-01 </wgt>
<wgt id='1095'> +5.2772080e-01 </wgt>
<wgt id='1096'> +5.2774567e-01 </wgt>
<wgt id='1097'> +5.2861220e-01 </wgt>
<wgt id='1098'> +5.2879688e-01 </wgt>
<wgt id='1099'> +5.2874775e-01 </wgt>
<wgt id='1100'> +5.2893825e-01 </wgt>
<wgt id='1101'> +5.2837562e-01 </wgt>
<wgt id='1102'> +5.2887082e-01 </wgt>
<wgt id='1103'> +5.2944435e-01 </wgt>
<wgt id='1104'> +5.2888170e-01 </wgt>
<wgt id='1105'> +5.2927968e-01 </wgt>
<wgt id='1106'> +5.2918745e-01 </wgt>
<wgt id='1107'> +5.2847586e-01 </wgt>
<wgt id='1108'> +5.2913151e-01 </wgt>
<wgt id='1109'> +5.2921058e-01 </wgt>
<wgt id='1110'> +5.2865790e-01 </wgt>
<wgt id='1111'> +5.2835336e-01 </wgt>
<wgt id='1112'> +5.2916101e-01 </wgt>
<wgt id='1113'> +5.2858918e-01 </wgt>
<wgt id='1114'> +5.2762501e-01 </wgt>
<wgt id='1115'> +5.2923895e-01 </wgt>
<wgt id='1116'> +5.2881424e-01 </wgt>
<wgt id='1117'> +5.2913860e-01 </wgt>
<wgt id='1118'> +5.2871297e-01 </wgt>
<wgt id='1119'> +5.2903355e-01 </wgt>
<wgt id='1120'> +5.2841677e-01 </wgt>
<wgt id='1121'> +5.2958617e-01 </wgt>
<wgt id='1122'> +5.2876824e-01 </wgt>
<wgt id='1123'> +5.2894392e-01 </wgt>
<wgt id='1124'> +5.2856499e-01 </wgt>
<wgt id='1125'> +5.2866524e-01 </wgt>
<wgt id='1126'> +5.2874604e-01 </wgt>
<wgt id='1127'> +5.2919437e-01 </wgt>
<wgt id='1128'> +5.2862742e-01 </wgt>
<wgt id='1129'> +5.2879201e-01 </wgt>
<wgt id='1130'> +5.2899287e-01 </wgt>
<wgt id='1131'> +5.2913507e-01 </wgt>
<wgt id='1132'> +5.2857085e-01 </wgt>
<wgt id='1133'> +5.2897062e-01 </wgt>
<wgt id='1134'> +5.2869871e-01 </wgt>
<wgt id='1135'> +5.2916876e-01 </wgt>
<wgt id='1136'> +5.2902600e-01 </wgt>
<wgt id='1137'> +5.2879959e-01 </wgt>
<wgt id='1138'> +5.2902133e-01 </wgt>
<wgt id='1139'> +5.2875034e-01 </wgt>
<wgt id='1140'> +5.2918211e-01 </wgt>
<wgt id='1141'> +5.2881056e-01 </wgt>
<wgt id='1142'> +5.2888955e-01 </wgt>
<wgt id='1143'> +5.2909795e-01 </wgt>
<wgt id='1144'> +5.2852444e-01 </wgt>
<wgt id='1145'> +5.2858022e-01 </wgt>
<wgt id='1146'> +5.2881573e-01 </wgt>
<wgt id='1147'> +5.2909054e-01 </wgt>
<wgt id='1148'> +5.2878984e-01 </wgt>
<wgt id='1149'> +5.1463817e-01 </wgt>
<wgt id='1150'> +5.1175888e-01 </wgt>
<wgt id='1151'> +5.1415105e-01 </wgt>
<wgt id='1152'> +5.1924026e-01 </wgt>
<wgt id='1153'> +5.0908949e-01 </wgt>
<wgt id='1154'> +5.1730724e-01 </wgt>
<wgt id='1155'> +5.1788391e-01 </wgt>
<wgt id='1156'> +5.1968605e-01 </wgt>
<wgt id='1157'> +5.2258306e-01 </wgt>
<wgt id='1158'> +5.1851213e-01 </wgt>
<wgt id='1159'> +4.8706400e-01 </wgt>
<wgt id='1160'> +5.1276853e-01 </wgt>
<wgt id='1161'> +5.2038195e-01 </wgt>
<wgt id='1162'> +5.0412150e-01 </wgt>
<wgt id='1163'> +5.2083775e-01 </wgt>
<wgt id='1164'> +5.2349023e-01 </wgt>
<wgt id='1165'> +5.1440181e-01 </wgt>
<wgt id='1166'> +5.1847564e-01 </wgt>
<wgt id='1167'> +5.2005447e-01 </wgt>
<wgt id='1168'> +5.1187604e-01 </wgt>
<wgt id='1169'> +5.0832021e-01 </wgt>
<wgt id='1170'> +5.1738236e-01 </wgt>
<wgt id='1171'> +5.1584048e-01 </wgt>
<wgt id='1172'> +5.1929377e-01 </wgt>
<wgt id='1173'> +5.0936136e-01 </wgt>
<wgt id='1174'> +5.2231983e-01 </wgt>
<wgt id='1175'> +5.2174862e-01 </wgt>
<wgt id='1176'> +4.9352440e-01 </wgt>
<wgt id='1177'> +5.2223836e-01 </wgt>
<wgt id='1178'> +5.1684780e-01 </wgt>
<wgt id='1179'> +5.0827278e-01 </wgt>
<wgt id='1180'> +5.1870968e-01 </wgt>
<wgt id='1181'> +5.1679739e-01 </wgt>
<wgt id='1182'> +5.2008308e-01 </wgt>
<wgt id='1183'> +5.0977725e-01 </wgt>
<wgt id='1184'> +5.1433445e-01 </wgt>
<wgt id='1185'> +5.2068735e-01 </wgt>
<wgt id='1186'> +5.1557825e-01 </wgt>
<wgt id='1187'> +5.1474454e-01 </wgt>
<wgt id='1188'> +5.0958640e-01 </wgt>
<wgt id='1189'> +5.1958029e-01 </wgt>
<wgt id='1190'> +5.1476836e-01 </wgt>
<wgt id='1191'> +5.1396190e-01 </wgt>
<wgt id='1192'> +5.0757157e-01 </wgt>
<wgt id='1193'> +5.1401023e-01 </wgt>
<wgt id='1194'> +5.1636630e-01 </wgt>
<wgt id='1195'> +5.1291204e-01 </wgt>
<wgt id='1196'> +5.0798018e-01 </wgt>
<wgt id='1197'> +5.1336701e-01 </wgt>
<wgt id='1198'> +5.1801636e-01 </wgt>
<wgt id='1199'> +5.1345763e-01 </wgt>
<wgt id='1200'> +5.1919773e-01 </wgt>
<wgt id='1201'> +5.2076547e-01 </wgt>
<wgt id='1202'> +5.1558143e-01 </wgt>
<wgt id='1203'> +5.2304825e-01 </wgt>
<wgt id='1204'> +5.2056908e-01 </wgt>
<wgt id='1205'> +5.0865993e-01 </wgt>
<wgt id='1206'> +5.1757076e-01 </wgt>
<wgt id='1207'> +5.1634005e-01 </wgt>
<wgt id='1208'> +5.2246303e-01 </wgt>
<wgt id='1209'> +5.2630466e-01 </wgt>
<wgt id='1210'> +5.0363273e-01 </wgt>
<wgt id='1211'> +5.1358783e-01 </wgt>
<wgt id='1212'> +5.0884654e-01 </wgt>
<wgt id='1213'> +5.2306364e-01 </wgt>
<wgt id='1214'> +5.1764610e-01 </wgt>
<wgt id='1215'> +5.1245016e-01 </wgt>
<wgt id='1216'> +5.1388717e-01 </wgt>
<wgt id='1217'> +5.0872965e-01 </wgt>
<wgt id='1218'> +5.1214210e-01 </wgt>
<wgt id='1219'> +5.0791135e-01 </wgt>
<wgt id='1220'> +5.2268831e-01 </wgt>
<wgt id='1221'> +4.9929927e-01 </wgt>
<wgt id='1222'> +5.1967844e-01 </wgt>
<wgt id='1223'> +5.1186082e-01 </wgt>
<wgt id='1224'> +5.0845584e-01 </wgt>
<wgt id='1225'> +5.2114229e-01 </wgt>
<wgt id='1226'> +5.0281353e-01 </wgt>
<wgt id='1227'> +5.2992717e-01 </wgt>
<wgt id='1228'> +5.1444299e-01 </wgt>
<wgt id='1229'> +4.9970486e-01 </wgt>
<wgt id='1230'> +5.1264007e-01 </wgt>
<wgt id='1231'> +5.1440181e-01 </wgt>
<wgt id='1232'> +5.0301998e-01 </wgt>
<wgt id='1233'> +5.1606631e-01 </wgt>
<wgt id='1234'> +5.2742766e-01 </wgt>
<wgt id='1235'> +5.0031609e-01 </wgt>
<wgt id='1236'> +5.2560470e-01 </wgt>
<wgt id='1237'> +5.0827678e-01 </wgt>
<wgt id='1238'> +5.0126598e-01 </wgt>
<wgt id='1239'> +5.2370405e-01 </wgt>
<wgt id='1240'> +5.2543367e-01 </wgt>
<wgt id='1241'> +5.2089197e-01 </wgt>
<wgt id='1242'> +5.1577514e-01 </wgt>
<wgt id='1243'> +5.0959632e-01 </wgt>
<wgt id='1244'> +5.1251660e-01 </wgt>
<wgt id='1245'> +5.2514960e-01 </wgt>
<wgt id='1246'> +5.0176533e-01 </wgt>
<wgt id='1247'> +5.0968954e-01 </wgt>
<wgt id='1248'> +5.1611056e-01 </wgt>
<wgt id='1249'> +5.1914376e-01 </wgt>
<wgt id='1250'> +5.1708650e-01 </wgt>
<wgt id='1251'> +5.1137973e-01 </wgt>
<wgt id='1252'> +5.2519713e-01 </wgt>
<wgt id='1253'> +5.2150001e-01 </wgt>
<wgt id='1254'> +4.7704850e-01 </wgt>
<wgt id='1255'> +5.3596755e-01 </wgt>
<wgt id='1256'> +5.3954042e-01 </wgt>
<wgt id='1257'> +5.3388054e-01 </wgt>
<wgt id='1258'> +5.3527407e-01 </wgt>
<wgt id='1259'> +5.3630952e-01 </wgt>
<wgt id='1260'> +5.3710323e-01 </wgt>
<wgt id='1261'> +5.3443702e-01 </wgt>
<wgt id='1262'> +5.3679535e-01 </wgt>
<wgt id='1263'> +5.3542725e-01 </wgt>
<wgt id='1264'> +5.3560503e-01 </wgt>
<wgt id='1265'> +5.3621217e-01 </wgt>
<wgt id='1266'> +5.3597895e-01 </wgt>
<wgt id='1267'> +5.3593936e-01 </wgt>
<wgt id='1268'> +5.4103717e-01 </wgt>
<wgt id='1269'> +5.3090873e-01 </wgt>
<wgt id='1270'> +5.3526315e-01 </wgt>
<wgt id='1271'> +5.3613813e-01 </wgt>
<wgt id='1272'> +5.3639462e-01 </wgt>
<wgt id='1273'> +5.3561012e-01 </wgt>
<wgt id='1274'> +5.3498364e-01 </wgt>
<wgt id='1275'> +5.3720605e-01 </wgt>
<wgt id='1276'> +5.3510231e-01 </wgt>
<wgt id='1277'> +5.3686757e-01 </wgt>
<wgt id='1278'> +5.3343175e-01 </wgt>
<wgt id='1279'> +5.3801901e-01 </wgt>
<wgt id='1280'> +5.3571950e-01 </wgt>
<wgt id='1281'> +5.3644426e-01 </wgt>
<wgt id='1282'> +5.3861603e-01 </wgt>
<wgt id='1283'> +5.3274070e-01 </wgt>
<wgt id='1284'> +5.3423406e-01 </wgt>
<wgt id='1285'> +5.3745315e-01 </wgt>
<wgt id='1286'> +5.3791265e-01 </wgt>
<wgt id='1287'> +5.3586340e-01 </wgt>
<wgt id='1288'> +5.3561734e-01 </wgt>
<wgt id='1289'> +5.3601812e-01 </wgt>
<wgt id='1290'> +5.3679485e-01 </wgt>
<wgt id='1291'> +5.3567313e-01 </wgt>
<wgt id='1292'> +5.3806153e-01 </wgt>
<wgt id='1293'> +5.3284669e-01 </wgt>
<wgt id='1294'> +5.3308024e-01 </wgt>
<wgt id='1295'> +5.3654103e-01 </wgt>
<wgt id='1296'> +5.2348508e-01 </wgt>
<wgt id='1297'> +5.2473436e-01 </wgt>
<wgt id='1298'> +5.2245385e-01 </wgt>
<wgt id='1299'> +5.2183183e-01 </wgt>
<wgt id='1300'> +5.2532886e-01 </wgt>
<wgt id='1301'> +5.2227048e-01 </wgt>
<wgt id='1302'> +5.2529084e-01 </wgt>
<wgt id='1303'> +5.2313357e-01 </wgt>
<wgt id='1304'> +5.2370904e-01 </wgt>
<wgt id='1305'> +5.2405060e-01 </wgt>
<wgt id='1306'> +5.2267809e-01 </wgt>
<wgt id='1307'> +5.2638186e-01 </wgt>
<wgt id='1308'> +5.2167881e-01 </wgt>
<wgt id='1309'> +5.2397404e-01 </wgt>
<wgt id='1310'> +5.2280807e-01 </wgt>
<wgt id='1311'> +5.2813937e-01 </wgt>
<wgt id='1312'> +5.2179400e-01 </wgt>
<wgt id='1313'> +5.2406577e-01 </wgt>
<wgt id='1314'> +5.2254517e-01 </wgt>
<wgt id='1315'> +5.2325189e-01 </wgt>
<wgt id='1316'> +5.2369256e-01 </wgt>
<wgt id='1317'> +5.2054249e-01 </wgt>
<wgt id='1318'> +5.2897776e-01 </wgt>
<wgt id='1319'> +5.2460013e-01 </wgt>
<wgt id='1320'> +5.2290842e-01 </wgt>
<wgt id='1321'> +5.2208532e-01 </wgt>
<wgt id='1322'> +5.2422133e-01 </wgt>
<wgt id='1323'> +5.2331218e-01 </wgt>
<wgt id='1324'> +5.2353954e-01 </wgt>
<wgt id='1325'> +5.2399805e-01 </wgt>
<wgt id='1326'> +5.2277363e-01 </wgt>
<wgt id='1327'> +5.2374947e-01 </wgt>
<wgt id='1328'> +5.2341013e-01 </wgt>
<wgt id='1329'> +5.2356784e-01 </wgt>
<wgt id='1330'> +5.2342458e-01 </wgt>
<wgt id='1331'> +5.2391137e-01 </wgt>
<wgt id='1332'> +5.2384693e-01 </wgt>
<wgt id='1333'> +5.2606524e-01 </wgt>
<wgt id='1334'> +5.2008168e-01 </wgt>
<wgt id='1335'> +5.2509963e-01 </wgt>
<wgt id='1336'> +5.2309909e-01 </wgt>
<wgt id='1337'> +5.2348508e-01 </wgt>
<wgt id='1338'> +5.2345279e-01 </wgt>
<wgt id='1339'> +5.2348396e-01 </wgt>
<wgt id='1340'> +5.2349617e-01 </wgt>
<wgt id='1341'> +5.2351922e-01 </wgt>
<wgt id='1342'> +5.2353064e-01 </wgt>
<wgt id='1343'> +5.2350227e-01 </wgt>
<wgt id='1344'> +5.2188331e-01 </wgt>
<wgt id='1345'> +5.2369804e-01 </wgt>
<wgt id='1346'> +5.2008747e-01 </wgt>
<wgt id='1347'> +5.2506107e-01 </wgt>
<wgt id='1348'> +5.1952316e-01 </wgt>
<wgt id='1349'> +5.2118372e-01 </wgt>
<wgt id='1350'> +5.2246748e-01 </wgt>
<wgt id='1351'> +5.2190311e-01 </wgt>
<wgt id='1352'> +5.2185689e-01 </wgt>
<wgt id='1353'> +5.2323388e-01 </wgt>
<wgt id='1354'> +5.2092864e-01 </wgt>
<wgt id='1355'> +5.2076163e-01 </wgt>
<wgt id='1356'> +5.2275021e-01 </wgt>
<wgt id='1357'> +5.2258621e-01 </wgt>
<wgt id='1358'> +5.2144700e-01 </wgt>
<wgt id='1359'> +5.1991697e-01 </wgt>
<wgt id='1360'> +5.2680331e-01 </wgt>
<wgt id='1361'> +5.2531007e-01 </wgt>
<wgt id='1362'> +5.1945259e-01 </wgt>
<wgt id='1363'> +5.2268203e-01 </wgt>
<wgt id='1364'> +5.2093594e-01 </wgt>
<wgt id='1365'> +5.2190562e-01 </wgt>
<wgt id='1366'> +5.2193616e-01 </wgt>
<wgt id='1367'> +5.1976478e-01 </wgt>
<wgt id='1368'> +5.2294535e-01 </wgt>
<wgt id='1369'> +5.2064352e-01 </wgt>
<wgt id='1370'> +5.2303073e-01 </wgt>
<wgt id='1371'> +5.2212300e-01 </wgt>
<wgt id='1372'> +5.2163284e-01 </wgt>
<wgt id='1373'> +5.2333414e-01 </wgt>
<wgt id='1374'> +5.2132167e-01 </wgt>
<wgt id='1375'> +5.2258249e-01 </wgt>
<wgt id='1376'> +5.2170986e-01 </wgt>
<wgt id='1377'> +5.2191693e-01 </wgt>
<wgt id='1378'> +5.2177493e-01 </wgt>
<wgt id='1379'> +5.2295738e-01 </wgt>
<wgt id='1380'> +5.2190127e-01 </wgt>
<wgt id='1381'> +5.2000833e-01 </wgt>
<wgt id='1382'> +5.2171678e-01 </wgt>
<wgt id='1383'> +5.2152434e-01 </wgt>
<wgt id='1384'> +5.2376150e-01 </wgt>
<wgt id='1385'> +5.2188331e-01 </wgt>
<wgt id='1386'> +5.2161673e-01 </wgt>
<wgt id='1387'> +5.2171542e-01 </wgt>
<wgt id='1388'> +5.2178559e-01 </wgt>
<wgt id='1389'> +5.2188600e-01 </wgt>
<wgt id='1390'> +5.2193312e-01 </wgt>
<wgt id='1391'> +5.2192875e-01 </wgt>
<wgt id='1392'> +5.4729095e-01 </wgt>
<wgt id='1393'> +5.4730249e-01 </wgt>
<wgt id='1394'> +5.4726725e-01 </wgt>
<wgt id='1395'> +5.4761967e-01 </wgt>
<wgt id='1396'> +5.4704569e-01 </wgt>
<wgt id='1397'> +5.4916571e-01 </wgt>
<wgt id='1398'> +5.4545777e-01 </wgt>
<wgt id='1399'> +5.4927997e-01 </wgt>
<wgt id='1400'> +5.4480057e-01 </wgt>
<wgt id='1401'> +5.4533180e-01 </wgt>
<wgt id='1402'> +5.4968811e-01 </wgt>
<wgt id='1403'> +5.4689036e-01 </wgt>
<wgt id='1404'> +5.4807296e-01 </wgt>
<wgt id='1405'> +5.4659869e-01 </wgt>
<wgt id='1406'> +5.4822311e-01 </wgt>
<wgt id='1407'> +5.4668829e-01 </wgt>
<wgt id='1408'> +5.4769099e-01 </wgt>
<wgt id='1409'> +5.4970301e-01 </wgt>
<wgt id='1410'> +5.4450091e-01 </wgt>
<wgt id='1411'> +5.4689217e-01 </wgt>
<wgt id='1412'> +5.4756504e-01 </wgt>
<wgt id='1413'> +5.4953727e-01 </wgt>
<wgt id='1414'> +5.4490852e-01 </wgt>
<wgt id='1415'> +5.4943204e-01 </wgt>
<wgt id='1416'> +5.4497087e-01 </wgt>
<wgt id='1417'> +5.4644693e-01 </wgt>
<wgt id='1418'> +5.4828144e-01 </wgt>
<wgt id='1419'> +5.4749856e-01 </wgt>
<wgt id='1420'> +5.4705239e-01 </wgt>
<wgt id='1421'> +5.4939580e-01 </wgt>
<wgt id='1422'> +5.4492780e-01 </wgt>
<wgt id='1423'> +5.4824951e-01 </wgt>
<wgt id='1424'> +5.4619676e-01 </wgt>
<wgt id='1425'> +5.4735541e-01 </wgt>
<wgt id='1426'> +5.4714505e-01 </wgt>
<wgt id='1427'> +5.4634576e-01 </wgt>
<wgt id='1428'> +5.4630274e-01 </wgt>
<wgt id='1429'> +5.4671606e-01 </wgt>
<wgt id='1430'> +5.4778164e-01 </wgt>
<wgt id='1431'> +5.4693438e-01 </wgt>
<wgt id='1432'> +5.4742066e-01 </wgt>
<wgt id='1433'> +5.4497913e-01 </wgt>
<wgt id='1434'> +5.4939994e-01 </wgt>
<wgt id='1435'> +5.4648091e-01 </wgt>
<wgt id='1436'> +5.4804145e-01 </wgt>
<wgt id='1437'> +5.4676470e-01 </wgt>
<wgt id='1438'> +5.4845494e-01 </wgt>
<wgt id='1439'> +5.4950455e-01 </wgt>
<wgt id='1440'> +5.4310361e-01 </wgt>
<wgt id='1441'> +5.4815198e-01 </wgt>
<wgt id='1442'> +5.4808133e-01 </wgt>
<wgt id='1443'> +5.4214198e-01 </wgt>
<wgt id='1444'> +5.4218173e-01 </wgt>
<wgt id='1445'> +5.4210450e-01 </wgt>
<wgt id='1446'> +5.4248906e-01 </wgt>
<wgt id='1447'> +5.4190157e-01 </wgt>
<wgt id='1448'> +5.4413120e-01 </wgt>
<wgt id='1449'> +5.4028700e-01 </wgt>
<wgt id='1450'> +5.4405346e-01 </wgt>
<wgt id='1451'> +5.4001205e-01 </wgt>
<wgt id='1452'> +5.4023918e-01 </wgt>
<wgt id='1453'> +5.4398897e-01 </wgt>
<wgt id='1454'> +5.4162723e-01 </wgt>
<wgt id='1455'> +5.4324675e-01 </wgt>
<wgt id='1456'> +5.4132215e-01 </wgt>
<wgt id='1457'> +5.4359384e-01 </wgt>
<wgt id='1458'> +5.4165648e-01 </wgt>
<wgt id='1459'> +5.4241371e-01 </wgt>
<wgt id='1460'> +5.4452320e-01 </wgt>
<wgt id='1461'> +5.3929257e-01 </wgt>
<wgt id='1462'> +5.4124371e-01 </wgt>
<wgt id='1463'> +5.4291129e-01 </wgt>
<wgt id='1464'> +5.4417570e-01 </wgt>
<wgt id='1465'> +5.3948227e-01 </wgt>
<wgt id='1466'> +5.4495029e-01 </wgt>
<wgt id='1467'> +5.4007513e-01 </wgt>
<wgt id='1468'> +5.4222094e-01 </wgt>
<wgt id='1469'> +5.4209731e-01 </wgt>
<wgt id='1470'> +5.4247668e-01 </wgt>
<wgt id='1471'> +5.4190042e-01 </wgt>
<wgt id='1472'> +5.4390307e-01 </wgt>
<wgt id='1473'> +5.4010983e-01 </wgt>
<wgt id='1474'> +5.4287616e-01 </wgt>
<wgt id='1475'> +5.4093744e-01 </wgt>
<wgt id='1476'> +5.4210452e-01 </wgt>
<wgt id='1477'> +5.4208868e-01 </wgt>
<wgt id='1478'> +5.4130355e-01 </wgt>
<wgt id='1479'> +5.4123628e-01 </wgt>
<wgt id='1480'> +5.4186184e-01 </wgt>
<wgt id='1481'> +5.4246124e-01 </wgt>
<wgt id='1482'> +5.4178630e-01 </wgt>
<wgt id='1483'> +5.4234656e-01 </wgt>
<wgt id='1484'> +5.3980139e-01 </wgt>
<wgt id='1485'> +5.4436218e-01 </wgt>
<wgt id='1486'> +5.4151154e-01 </wgt>
<wgt id='1487'> +5.4270194e-01 </wgt>
<wgt id='1488'> +5.4154253e-01 </wgt>
<wgt id='1489'> +5.4342727e-01 </wgt>
<wgt id='1490'> +5.4531967e-01 </wgt>
<wgt id='1491'> +5.3771164e-01 </wgt>
<wgt id='1492'> +5.4360783e-01 </wgt>
<wgt id='1493'> +5.4297661e-01 </wgt>
<wgt id='1494'> +5.2193594e-01 </wgt>
<wgt id='1495'> +5.1514313e-01 </wgt>
<wgt id='1496'> +5.1748338e-01 </wgt>
<wgt id='1497'> +5.1979057e-01 </wgt>
<wgt id='1498'> +5.2378542e-01 </wgt>
<wgt id='1499'> +5.2185800e-01 </wgt>
<wgt id='1500'> +5.2635303e-01 </wgt>
<wgt id='1501'> +5.2548670e-01 </wgt>
<wgt id='1502'> +5.2459595e-01 </wgt>
<wgt id='1503'> +5.2370115e-01 </wgt>
<wgt id='1504'> +5.2280461e-01 </wgt>
<wgt id='1505'> +5.2099957e-01 </wgt>
<wgt id='1506'> +5.2009443e-01 </wgt>
<wgt id='1507'> +5.1921983e-01 </wgt>
<wgt id='1508'> +5.2185800e-01 </wgt>
<wgt id='1509'> +5.2209150e-01 </wgt>
<wgt id='1510'> +5.2196995e-01 </wgt>
<wgt id='1511'> +5.2176879e-01 </wgt>
<wgt id='1512'> +5.2167494e-01 </wgt>
<wgt id='1513'> +5.2415319e-01 </wgt>
<wgt id='1514'> +5.2393194e-01 </wgt>
<wgt id='1515'> +5.2442957e-01 </wgt>
<wgt id='1516'> +5.2498087e-01 </wgt>
<wgt id='1517'> +5.2332797e-01 </wgt>
<wgt id='1518'> +5.2508316e-01 </wgt>
<wgt id='1519'> +5.2377490e-01 </wgt>
<wgt id='1520'> +5.2706316e-01 </wgt>
<wgt id='1521'> +5.2124234e-01 </wgt>
<wgt id='1522'> +5.2315829e-01 </wgt>
<wgt id='1523'> +5.2510852e-01 </wgt>
<wgt id='1524'> +5.2667533e-01 </wgt>
<wgt id='1525'> +5.2305758e-01 </wgt>
<wgt id='1526'> +5.2423955e-01 </wgt>
<wgt id='1527'> +5.2405235e-01 </wgt>
<wgt id='1528'> +5.2324172e-01 </wgt>
<wgt id='1529'> +5.2514407e-01 </wgt>
<wgt id='1530'> +5.2789533e-01 </wgt>
<wgt id='1531'> +5.2204169e-01 </wgt>
<wgt id='1532'> +5.2557020e-01 </wgt>
<wgt id='1533'> +5.2220310e-01 </wgt>
<wgt id='1534'> +5.2258873e-01 </wgt>
<wgt id='1535'> +5.2525133e-01 </wgt>
<wgt id='1536'> +5.2189301e-01 </wgt>
<wgt id='1537'> +5.2635595e-01 </wgt>
<wgt id='1538'> +5.2330562e-01 </wgt>
<wgt id='1539'> +5.2600665e-01 </wgt>
<wgt id='1540'> +5.2382989e-01 </wgt>
<wgt id='1541'> +5.2422090e-01 </wgt>
<wgt id='1542'> +5.2294136e-01 </wgt>
<wgt id='1543'> +5.2773733e-01 </wgt>
<wgt id='1544'> +5.2402203e-01 </wgt>
<wgt id='1545'> +5.2337538e-01 </wgt>
<wgt id='1546'> +5.2331497e-01 </wgt>
<wgt id='1547'> +5.2451233e-01 </wgt>
<wgt id='1548'> +5.2394542e-01 </wgt>
<wgt id='1549'> +5.2312904e-01 </wgt>
<wgt id='1550'> +5.2424889e-01 </wgt>
<wgt id='1551'> +5.2375108e-01 </wgt>
<wgt id='1552'> +5.2368717e-01 </wgt>
<wgt id='1553'> +5.2428666e-01 </wgt>
<wgt id='1554'> +5.2482926e-01 </wgt>
<wgt id='1555'> +5.2178644e-01 </wgt>
<wgt id='1556'> +5.2489399e-01 </wgt>
<wgt id='1557'> +5.2424554e-01 </wgt>
<wgt id='1558'> +5.2138536e-01 </wgt>
<wgt id='1559'> +5.2562627e-01 </wgt>
<wgt id='1560'> +5.2632767e-01 </wgt>
<wgt id='1561'> +5.2308955e-01 </wgt>
<wgt id='1562'> +5.2183722e-01 </wgt>
<wgt id='1563'> +5.2533353e-01 </wgt>
<wgt id='1564'> +5.2415319e-01 </wgt>
<wgt id='1565'> +5.2152138e-01 </wgt>
<wgt id='1566'> +5.2514343e-01 </wgt>
<wgt id='1567'> +5.2346117e-01 </wgt>
<wgt id='1568'> +5.2780750e-01 </wgt>
<wgt id='1569'> +5.2695006e-01 </wgt>
<wgt id='1570'> +5.2605791e-01 </wgt>
<wgt id='1571'> +5.2514836e-01 </wgt>
<wgt id='1572'> +5.2429278e-01 </wgt>
<wgt id='1573'> +5.2260012e-01 </wgt>
<wgt id='1574'> +5.2152489e-01 </wgt>
<wgt id='1575'> +5.2070495e-01 </wgt>
<wgt id='1576'> +5.2346117e-01 </wgt>
<wgt id='1577'> +5.2357420e-01 </wgt>
<wgt id='1578'> +5.2351541e-01 </wgt>
<wgt id='1579'> +5.2341823e-01 </wgt>
<wgt id='1580'> +5.2340221e-01 </wgt>
<wgt id='1581'> +5.2292544e-01 </wgt>
<wgt id='1582'> +5.2340910e-01 </wgt>
<wgt id='1583'> +5.2516062e-01 </wgt>
<wgt id='1584'> +5.2078927e-01 </wgt>
<wgt id='1585'> +5.2459248e-01 </wgt>
<wgt id='1586'> +5.2001557e-01 </wgt>
<wgt id='1587'> +5.1782828e-01 </wgt>
<wgt id='1588'> +5.2693258e-01 </wgt>
<wgt id='1589'> +5.2261508e-01 </wgt>
<wgt id='1590'> +5.2381972e-01 </wgt>
<wgt id='1591'> +5.2204089e-01 </wgt>
<wgt id='1592'> +5.2318422e-01 </wgt>
<wgt id='1593'> +5.2387868e-01 </wgt>
<wgt id='1594'> +5.2273536e-01 </wgt>
<wgt id='1595'> +5.2243644e-01 </wgt>
<wgt id='1596'> +5.2619164e-01 </wgt>
<wgt id='1597'> +5.2407573e-01 </wgt>
<wgt id='1598'> +5.2336949e-01 </wgt>
<wgt id='1599'> +5.2314090e-01 </wgt>
<wgt id='1600'> +5.2408395e-01 </wgt>
<wgt id='1601'> +5.2210152e-01 </wgt>
<wgt id='1602'> +5.2391299e-01 </wgt>
<wgt id='1603'> +5.2392292e-01 </wgt>
<wgt id='1604'> +5.2334943e-01 </wgt>
<wgt id='1605'> +5.2196505e-01 </wgt>
<wgt id='1606'> +5.2333421e-01 </wgt>
<wgt id='1607'> +5.2356830e-01 </wgt>
<wgt id='1608'> +5.2357228e-01 </wgt>
<wgt id='1609'> +5.2409233e-01 </wgt>
<wgt id='1610'> +5.2261365e-01 </wgt>
<wgt id='1611'> +5.2519816e-01 </wgt>
<wgt id='1612'> +5.2107127e-01 </wgt>
<wgt id='1613'> +5.2079749e-01 </wgt>
<wgt id='1614'> +5.2184790e-01 </wgt>
<wgt id='1615'> +5.2196030e-01 </wgt>
<wgt id='1616'> +5.2051391e-01 </wgt>
<wgt id='1617'> +5.2053739e-01 </wgt>
<wgt id='1618'> +5.2172829e-01 </wgt>
<wgt id='1619'> +5.1947122e-01 </wgt>
<wgt id='1620'> +5.2020045e-01 </wgt>
<wgt id='1621'> +5.2119868e-01 </wgt>
<wgt id='1622'> +5.2234608e-01 </wgt>
<wgt id='1623'> +5.2073940e-01 </wgt>
<wgt id='1624'> +5.2032841e-01 </wgt>
<wgt id='1625'> +5.2163831e-01 </wgt>
<wgt id='1626'> +5.2329213e-01 </wgt>
<wgt id='1627'> +5.2073949e-01 </wgt>
<wgt id='1628'> +5.2108519e-01 </wgt>
<wgt id='1629'> +5.2182993e-01 </wgt>
<wgt id='1630'> +5.2189597e-01 </wgt>
<wgt id='1631'> +5.2154949e-01 </wgt>
<wgt id='1632'> +5.2221947e-01 </wgt>
<wgt id='1633'> +5.2039824e-01 </wgt>
<wgt id='1634'> +5.2274610e-01 </wgt>
<wgt id='1635'> +5.2029100e-01 </wgt>
<wgt id='1636'> +5.2090403e-01 </wgt>
<wgt id='1637'> +5.2276378e-01 </wgt>
<wgt id='1638'> +5.2090371e-01 </wgt>
<wgt id='1639'> +5.2232297e-01 </wgt>
<wgt id='1640'> +5.2164273e-01 </wgt>
<wgt id='1641'> +5.1613617e-01 </wgt>
<wgt id='1642'> +5.1983486e-01 </wgt>
<wgt id='1643'> +5.2088292e-01 </wgt>
<wgt id='1644'> +5.1972136e-01 </wgt>
<wgt id='1645'> +5.2021476e-01 </wgt>
<wgt id='1646'> +5.2200611e-01 </wgt>
<wgt id='1647'> +5.2026719e-01 </wgt>
<wgt id='1648'> +5.2045665e-01 </wgt>
<wgt id='1649'> +5.2164119e-01 </wgt>
<wgt id='1650'> +5.2065794e-01 </wgt>
<wgt id='1651'> +5.2103217e-01 </wgt>
<wgt id='1652'> +5.2054318e-01 </wgt>
<wgt id='1653'> +5.2074838e-01 </wgt>
<wgt id='1654'> +5.2079945e-01 </wgt>
<wgt id='1655'> +5.2196277e-01 </wgt>
<wgt id='1656'> +5.2094005e-01 </wgt>
<wgt id='1657'> +5.2083793e-01 </wgt>
<wgt id='1658'> +5.2153283e-01 </wgt>
<wgt id='1659'> +5.2178149e-01 </wgt>
<wgt id='1660'> +5.2164213e-01 </wgt>
<wgt id='1661'> +5.2153870e-01 </wgt>
<wgt id='1662'> +5.2165134e-01 </wgt>
<wgt id='1663'> +5.2222313e-01 </wgt>
<wgt id='1664'> +5.2144711e-01 </wgt>
<wgt id='1665'> +5.2152537e-01 </wgt>
<wgt id='1666'> +5.2179677e-01 </wgt>
<wgt id='1667'> +5.2108256e-01 </wgt>
<wgt id='1668'> +5.2050454e-01 </wgt>
<wgt id='1669'> +5.2071194e-01 </wgt>
<wgt id='1670'> +5.2023066e-01 </wgt>
<wgt id='1671'> +5.2123221e-01 </wgt>
<wgt id='1672'> +5.2114888e-01 </wgt>
<wgt id='1673'> +5.2117411e-01 </wgt>
<wgt id='1674'> +5.2103323e-01 </wgt>
<wgt id='1675'> +5.2083475e-01 </wgt>
<wgt id='1676'> +5.1994182e-01 </wgt>
<wgt id='1677'> +5.2112754e-01 </wgt>
<wgt id='1678'> +5.2150513e-01 </wgt>
<wgt id='1679'> +5.2178362e-01 </wgt>
<wgt id='1680'> +5.2214365e-01 </wgt>
<wgt id='1681'> +5.2097682e-01 </wgt>
<wgt id='1682'> +5.2105121e-01 </wgt>
<wgt id='1683'> +5.2082976e-01 </wgt>
<wgt id='1684'> +5.2108041e-01 </wgt>
<wgt id='1685'> +5.2027969e-01 </wgt>
<wgt id='1686'> +5.2109633e-01 </wgt>
<wgt id='1687'> +5.2074204e-01 </wgt>
<wgt id='1688'> +5.2089168e-01 </wgt>
<wgt id='1689'> +5.2165348e-01 </wgt>
<wgt id='1690'> +5.2113723e-01 </wgt>
<wgt id='1691'> +5.2179203e-01 </wgt>
<wgt id='1692'> +5.2083263e-01 </wgt>
<wgt id='1693'> +5.2164768e-01 </wgt>
<wgt id='1694'> +5.2171100e-01 </wgt>
<wgt id='1695'> +5.2129874e-01 </wgt>
<wgt id='1696'> +5.2091040e-01 </wgt>
<wgt id='1697'> +5.2112444e-01 </wgt>
<wgt id='1698'> +5.2094228e-01 </wgt>
<wgt id='1699'> +5.2096848e-01 </wgt>
<wgt id='1700'> +5.2128199e-01 </wgt>
<wgt id='1701'> +5.2096125e-01 </wgt>
<wgt id='1702'> +5.2087591e-01 </wgt>
<wgt id='1703'> +5.2123481e-01 </wgt>
<wgt id='1704'> +5.2130698e-01 </wgt>
<wgt id='1705'> +5.2097094e-01 </wgt>
<wgt id='1706'> +5.2087207e-01 </wgt>
<wgt id='1707'> +5.2097454e-01 </wgt>
<wgt id='1708'> +5.2064149e-01 </wgt>
<wgt id='1709'> +5.2104174e-01 </wgt>
<wgt id='1710'> +5.2080755e-01 </wgt>
<wgt id='1711'> +5.2103867e-01 </wgt>
<wgt id='1712'> +5.2069536e-01 </wgt>
<wgt id='1713'> +5.1265915e-01 </wgt>
<wgt id='1714'> +5.2821285e-01 </wgt>
<wgt id='1715'> +5.1719735e-01 </wgt>
<wgt id='1716'> +5.1187171e-01 </wgt>
<wgt id='1717'> +5.1535084e-01 </wgt>
<wgt id='1718'> +5.1102927e-01 </wgt>
<wgt id='1719'> +5.0988912e-01 </wgt>
<wgt id='1720'> +5.3169594e-01 </wgt>
<wgt id='1721'> +5.0497410e-01 </wgt>
<wgt id='1722'> +5.1269104e-01 </wgt>
<wgt id='1723'> +5.1702335e-01 </wgt>
<wgt id='1724'> +5.2582749e-01 </wgt>
<wgt id='1725'> +5.2627896e-01 </wgt>
<wgt id='1726'> +5.2607074e-01 </wgt>
<wgt id='1727'> +5.1795773e-01 </wgt>
<wgt id='1728'> +5.1787077e-01 </wgt>
<wgt id='1729'> +5.1771634e-01 </wgt>
<wgt id='1730'> +5.0962995e-01 </wgt>
<wgt id='1731'> +4.8469411e-01 </wgt>
<wgt id='1732'> +5.3351853e-01 </wgt>
<wgt id='1733'> +5.2311136e-01 </wgt>
<wgt id='1734'> +5.1879065e-01 </wgt>
<wgt id='1735'> +5.0571162e-01 </wgt>
<wgt id='1736'> +5.1686895e-01 </wgt>
<wgt id='1737'> +5.1917463e-01 </wgt>
<wgt id='1738'> +5.2428224e-01 </wgt>
<wgt id='1739'> +5.1074889e-01 </wgt>
<wgt id='1740'> +5.1506812e-01 </wgt>
<wgt id='1741'> +5.1529323e-01 </wgt>
<wgt id='1742'> +5.3081736e-01 </wgt>
<wgt id='1743'> +5.0531796e-01 </wgt>
<wgt id='1744'> +5.2522780e-01 </wgt>
<wgt id='1745'> +5.0113245e-01 </wgt>
<wgt id='1746'> +5.1732922e-01 </wgt>
<wgt id='1747'> +5.2017862e-01 </wgt>
<wgt id='1748'> +5.1401230e-01 </wgt>
<wgt id='1749'> +5.3285981e-01 </wgt>
<wgt id='1750'> +5.1756758e-01 </wgt>
<wgt id='1751'> +5.1923923e-01 </wgt>
<wgt id='1752'> +4.9665800e-01 </wgt>
<wgt id='1753'> +5.1387029e-01 </wgt>
<wgt id='1754'> +5.2202438e-01 </wgt>
<wgt id='1755'> +5.2363775e-01 </wgt>
<wgt id='1756'> +5.0680879e-01 </wgt>
<wgt id='1757'> +5.0928277e-01 </wgt>
<wgt id='1758'> +5.1082977e-01 </wgt>
<wgt id='1759'> +5.1451728e-01 </wgt>
<wgt id='1760'> +5.1119173e-01 </wgt>
<wgt id='1761'> +5.1862945e-01 </wgt>
<wgt id='1762'> +5.1795773e-01 </wgt>
<wgt id='1763'> +5.1531903e-01 </wgt>
<wgt id='1764'> +5.2326577e-01 </wgt>
<wgt id='1765'> +5.2287268e-01 </wgt>
<wgt id='1766'> +5.3742672e-01 </wgt>
<wgt id='1767'> +5.1259250e-01 </wgt>
<wgt id='1768'> +5.0105057e-01 </wgt>
<wgt id='1769'> +5.1998081e-01 </wgt>
<wgt id='1770'> +5.2846119e-01 </wgt>
<wgt id='1771'> +5.1108559e-01 </wgt>
<wgt id='1772'> +5.1794952e-01 </wgt>
<wgt id='1773'> +5.2418658e-01 </wgt>
<wgt id='1774'> +5.0608973e-01 </wgt>
<wgt id='1775'> +5.1712303e-01 </wgt>
<wgt id='1776'> +5.2233486e-01 </wgt>
<wgt id='1777'> +5.1852981e-01 </wgt>
<wgt id='1778'> +5.2011540e-01 </wgt>
<wgt id='1779'> +5.1451650e-01 </wgt>
<wgt id='1780'> +5.2843425e-01 </wgt>
<wgt id='1781'> +5.2222786e-01 </wgt>
<wgt id='1782'> +5.2909576e-01 </wgt>
<wgt id='1783'> +5.1302092e-01 </wgt>
<wgt id='1784'> +5.2628730e-01 </wgt>
<wgt id='1785'> +5.2660776e-01 </wgt>
<wgt id='1786'> +5.2431402e-01 </wgt>
<wgt id='1787'> +5.1928219e-01 </wgt>
<wgt id='1788'> +5.1124635e-01 </wgt>
<wgt id='1789'> +5.2409437e-01 </wgt>
<wgt id='1790'> +5.2461961e-01 </wgt>
<wgt id='1791'> +4.9881128e-01 </wgt>
<wgt id='1792'> +5.2058300e-01 </wgt>
<wgt id='1793'> +5.3309171e-01 </wgt>
<wgt id='1794'> +5.1151077e-01 </wgt>
<wgt id='1795'> +4.9976563e-01 </wgt>
<wgt id='1796'> +5.2045653e-01 </wgt>
<wgt id='1797'> +5.1338996e-01 </wgt>
<wgt id='1798'> +5.2081774e-01 </wgt>
<wgt id='1799'> +5.2617216e-01 </wgt>
<wgt id='1800'> +5.2195868e-01 </wgt>
<wgt id='1801'> +5.0654571e-01 </wgt>
<wgt id='1802'> +5.1331245e-01 </wgt>
<wgt id='1803'> +5.1765936e-01 </wgt>
<wgt id='1804'> +5.2536464e-01 </wgt>
<wgt id='1805'> +5.1698260e-01 </wgt>
<wgt id='1806'> +5.1492785e-01 </wgt>
<wgt id='1807'> +5.0658387e-01 </wgt>
<wgt id='1808'> +5.1829649e-01 </wgt>
<wgt id='1809'> +5.1405228e-01 </wgt>
<wgt id='1810'> +5.1409251e-01 </wgt>
<wgt id='1811'> +5.1554362e-01 </wgt>
<wgt id='1812'> +5.1496476e-01 </wgt>
<wgt id='1813'> +5.2088169e-01 </wgt>
<wgt id='1814'> +5.1302204e-01 </wgt>
<wgt id='1815'> +5.2582040e-01 </wgt>
<wgt id='1816'> +5.3149991e-01 </wgt>
<wgt id='1817'> +5.3995999e-01 </wgt>
<wgt id='1818'> +5.2710702e-01 </wgt>
<wgt id='1819'> +5.3910002e-01 </wgt>
<wgt id='1820'> +5.4255313e-01 </wgt>
<wgt id='1821'> +5.4553019e-01 </wgt>
<wgt id='1822'> +5.3628073e-01 </wgt>
<wgt id='1823'> +5.3281300e-01 </wgt>
<wgt id='1824'> +5.2751026e-01 </wgt>
<wgt id='1825'> +5.2927995e-01 </wgt>
<wgt id='1826'> +5.2061380e-01 </wgt>
<wgt id='1827'> +5.2364963e-01 </wgt>
<wgt id='1828'> +5.3683303e-01 </wgt>
<wgt id='1829'> +5.3722175e-01 </wgt>
<wgt id='1830'> +5.2429832e-01 </wgt>
<wgt id='1831'> +5.3849371e-01 </wgt>
<wgt id='1832'> +5.2652999e-01 </wgt>
<wgt id='1833'> +5.2324531e-01 </wgt>
<wgt id='1834'> +5.2085074e-01 </wgt>
<wgt id='1835'> +5.3658322e-01 </wgt>
<wgt id='1836'> +5.4053161e-01 </wgt>
<wgt id='1837'> +5.3608418e-01 </wgt>
<wgt id='1838'> +5.2300373e-01 </wgt>
<wgt id='1839'> +5.5640164e-01 </wgt>
<wgt id='1840'> +5.3346056e-01 </wgt>
<wgt id='1841'> +5.3220942e-01 </wgt>
<wgt id='1842'> +5.3583181e-01 </wgt>
<wgt id='1843'> +5.1672892e-01 </wgt>
<wgt id='1844'> +5.3469966e-01 </wgt>
<wgt id='1845'> +5.3211135e-01 </wgt>
<wgt id='1846'> +5.3578696e-01 </wgt>
<wgt id='1847'> +5.2970115e-01 </wgt>
<wgt id='1848'> +5.3124594e-01 </wgt>
<wgt id='1849'> +5.3154976e-01 </wgt>
<wgt id='1850'> +5.3487438e-01 </wgt>
<wgt id='1851'> +5.3010987e-01 </wgt>
<wgt id='1852'> +5.3187864e-01 </wgt>
<wgt id='1853'> +5.2247310e-01 </wgt>
<wgt id='1854'> +5.3558389e-01 </wgt>
<wgt id='1855'> +5.3364620e-01 </wgt>
<wgt id='1856'> +5.3530192e-01 </wgt>
<wgt id='1857'> +5.4413414e-01 </wgt>
<wgt id='1858'> +5.2797419e-01 </wgt>
<wgt id='1859'> +5.3279412e-01 </wgt>
<wgt id='1860'> +5.3060008e-01 </wgt>
<wgt id='1861'> +5.2512425e-01 </wgt>
<wgt id='1862'> +5.3535601e-01 </wgt>
<wgt id='1863'> +5.2415619e-01 </wgt>
<wgt id='1864'> +5.2840636e-01 </wgt>
<wgt id='1865'> +5.3350588e-01 </wgt>
<wgt id='1866'> +5.3258515e-01 </wgt>
<wgt id='1867'> +5.3378713e-01 </wgt>
<wgt id='1868'> +5.2556182e-01 </wgt>
<wgt id='1869'> +5.4250092e-01 </wgt>
<wgt id='1870'> +5.3145373e-01 </wgt>
<wgt id='1871'> +5.2857036e-01 </wgt>
<wgt id='1872'> +5.1950356e-01 </wgt>
<wgt id='1873'> +5.3932657e-01 </wgt>
<wgt id='1874'> +5.3260877e-01 </wgt>
<wgt id='1875'> +5.2642146e-01 </wgt>
<wgt id='1876'> +5.3051259e-01 </wgt>
<wgt id='1877'> +5.3327080e-01 </wgt>
<wgt id='1878'> +5.2888875e-01 </wgt>
<wgt id='1879'> +5.4313950e-01 </wgt>
<wgt id='1880'> +5.0749999e-01 </wgt>
<wgt id='1881'> +5.3387395e-01 </wgt>
<wgt id='1882'> +5.2469804e-01 </wgt>
<wgt id='1883'> +5.5548884e-01 </wgt>
<wgt id='1884'> +5.2544406e-01 </wgt>
<wgt id='1885'> +5.1953300e-01 </wgt>
<wgt id='1886'> +5.1863387e-01 </wgt>
<wgt id='1887'> +5.3367458e-01 </wgt>
<wgt id='1888'> +5.3720861e-01 </wgt>
<wgt id='1889'> +5.2681339e-01 </wgt>
<wgt id='1890'> +5.4179171e-01 </wgt>
<wgt id='1891'> +5.3478468e-01 </wgt>
<wgt id='1892'> +5.3555231e-01 </wgt>
<wgt id='1893'> +5.2876644e-01 </wgt>
<wgt id='1894'> +5.3780011e-01 </wgt>
<wgt id='1895'> +5.3835329e-01 </wgt>
<wgt id='1896'> +5.2482257e-01 </wgt>
<wgt id='1897'> +5.3464668e-01 </wgt>
<wgt id='1898'> +5.3405084e-01 </wgt>
<wgt id='1899'> +5.2840714e-01 </wgt>
<wgt id='1900'> +5.3132298e-01 </wgt>
<wgt id='1901'> +5.2200750e-01 </wgt>
<wgt id='1902'> +5.2084075e-01 </wgt>
<wgt id='1903'> +5.2785715e-01 </wgt>
<wgt id='1904'> +5.3611923e-01 </wgt>
<wgt id='1905'> +5.3147963e-01 </wgt>
<wgt id='1906'> +5.2391836e-01 </wgt>
<wgt id='1907'> +5.3076791e-01 </wgt>
<wgt id='1908'> +5.3527005e-01 </wgt>
<wgt id='1909'> +5.2708838e-01 </wgt>
<wgt id='1910'> +5.3635790e-01 </wgt>
<wgt id='1911'> +5.1019102e-01 </wgt>
<wgt id='1912'> +5.3253667e-01 </wgt>
<wgt id='1913'> +5.3066639e-01 </wgt>
<wgt id='1914'> +5.4291935e-01 </wgt>
<wgt id='1915'> +5.4063833e-01 </wgt>
<wgt id='1916'> +5.1485096e-01 </wgt>
<wgt id='1917'> +5.3219992e-01 </wgt>
<wgt id='1918'> +5.5979035e-01 </wgt>
<wgt id='1919'> +5.3149991e-01 </wgt>
<wgt id='1920'> +5.3995999e-01 </wgt>
<wgt id='1921'> +5.2710702e-01 </wgt>
<wgt id='1922'> +5.3910002e-01 </wgt>
<wgt id='1923'> +5.4255313e-01 </wgt>
<wgt id='1924'> +5.4553019e-01 </wgt>
<wgt id='1925'> +5.3628073e-01 </wgt>
<wgt id='1926'> +5.3281300e-01 </wgt>
<wgt id='1927'> +5.2751026e-01 </wgt>
<wgt id='1928'> +5.2927995e-01 </wgt>
<wgt id='1929'> +5.2061380e-01 </wgt>
<wgt id='1930'> +5.2364963e-01 </wgt>
<wgt id='1931'> +5.3683303e-01 </wgt>
<wgt id='1932'> +5.3722175e-01 </wgt>
<wgt id='1933'> +5.2429832e-01 </wgt>
<wgt id='1934'> +5.3849371e-01 </wgt>
<wgt id='1935'> +5.2652999e-01 </wgt>
<wgt id='1936'> +5.2324531e-01 </wgt>
<wgt id='1937'> +5.2085074e-01 </wgt>
<wgt id='1938'> +5.3658322e-01 </wgt>
<wgt id='1939'> +5.4053161e-01 </wgt>
<wgt id='1940'> +5.3608418e-01 </wgt>
<wgt id='1941'> +5.2300373e-01 </wgt>
<wgt id='1942'> +5.5640164e-01 </wgt>
<wgt id='1943'> +5.3346056e-01 </wgt>
<wgt id='1944'> +5.3220942e-01 </wgt>
<wgt id='1945'> +5.3583181e-01 </wgt>
<wgt id='1946'> +5.1672892e-01 </wgt>
<wgt id='1947'> +5.3469966e-01 </wgt>
<wgt id='1948'> +5.3211135e-01 </wgt>
<wgt id='1949'> +5.3578696e-01 </wgt>
<wgt id='1950'> +5.2970115e-01 </wgt>
<wgt id='1951'> +5.3124594e-01 </wgt>
<wgt id='1952'> +5.3154976e-01 </wgt>
<wgt id='1953'> +5.3487438e-01 </wgt>
<wgt id='1954'> +5.3010987e-01 </wgt>
<wgt id='1955'> +5.3187864e-01 </wgt>
<wgt id='1956'> +5.2247310e-01 </wgt>
<wgt id='1957'> +5.3558389e-01 </wgt>
<wgt id='1958'> +5.3364620e-01 </wgt>
<wgt id='1959'> +5.3530192e-01 </wgt>
<wgt id='1960'> +5.4413414e-01 </wgt>
<wgt id='1961'> +5.2797419e-01 </wgt>
<wgt id='1962'> +5.3279412e-01 </wgt>
<wgt id='1963'> +5.3060008e-01 </wgt>
<wgt id='1964'> +5.2512425e-01 </wgt>
<wgt id='1965'> +5.3535601e-01 </wgt>
<wgt id='1966'> +5.2415619e-01 </wgt>
<wgt id='1967'> +5.2840636e-01 </wgt>
<wgt id='1968'> +5.3350588e-01 </wgt>
<wgt id='1969'> +5.3258515e-01 </wgt>
<wgt id='1970'> +5.3378713e-01 </wgt>
<wgt id='1971'> +5.2556182e-01 </wgt>
<wgt id='1972'> +5.4250092e-01 </wgt>
<wgt id='1973'> +5.3145373e-01 </wgt>
<wgt id='1974'> +5.2857036e-01 </wgt>
<wgt id='1975'> +5.1950356e-01 </wgt>
<wgt id='1976'> +5.3932657e-01 </wgt>
<wgt id='1977'> +5.3260877e-01 </wgt>
<wgt id='1978'> +5.2642146e-01 </wgt>
<wgt id='1979'> +5.3051259e-01 </wgt>
<wgt id='1980'> +5.3327080e-01 </wgt>
<wgt id='1981'> +5.2888875e-01 </wgt>
<wgt id='1982'> +5.4313950e-01 </wgt>
<wgt id='1983'> +5.0749999e-01 </wgt>
<wgt id='1984'> +5.3387395e-01 </wgt>
<wgt id='1985'> +5.2469804e-01 </wgt>
<wgt id='1986'> +5.5548884e-01 </wgt>
<wgt id='1987'> +5.2544406e-01 </wgt>
<wgt id='1988'> +5.1953300e-01 </wgt>
<wgt id='1989'> +5.1863387e-01 </wgt>
<wgt id='1990'> +5.3367458e-01 </wgt>
<wgt id='1991'> +5.3720861e-01 </wgt>
<wgt id='1992'> +5.2681339e-01 </wgt>
<wgt id='1993'> +5.4179171e-01 </wgt>
<wgt id='1994'> +5.3478468e-01 </wgt>
<wgt id='1995'> +5.3555231e-01 </wgt>
<wgt id='1996'> +5.2876644e-01 </wgt>
<wgt id='1997'> +5.3780011e-01 </wgt>
<wgt id='1998'> +5.3835329e-01 </wgt>
<wgt id='1999'> +5.2482257e-01 </wgt>
<wgt id='2000'> +5.3464668e-01 </wgt>
<wgt id='2001'> +5.3405084e-01 </wgt>
<wgt id='2002'> +5.2840714e-01 </wgt>
<wgt id='2003'> +5.3132298e-01 </wgt>
<wgt id='2004'> +5.2200750e-01 </wgt>
<wgt id='2005'> +5.2084075e-01 </wgt>
<wgt id='2006'> +5.2785715e-01 </wgt>
<wgt id='2007'> +5.3611923e-01 </wgt>
<wgt id='2008'> +5.3147963e-01 </wgt>
<wgt id='2009'> +5.2391836e-01 </wgt>
<wgt id='2010'> +5.3076791e-01 </wgt>
<wgt id='2011'> +5.3527005e-01 </wgt>
<wgt id='2012'> +5.2708838e-01 </wgt>
<wgt id='2013'> +5.3635790e-01 </wgt>
<wgt id='2014'> +5.1019102e-01 </wgt>
<wgt id='2015'> +5.3253667e-01 </wgt>
<wgt id='2016'> +5.3066639e-01 </wgt>
<wgt id='2017'> +5.4291935e-01 </wgt>
<wgt id='2018'> +5.4063833e-01 </wgt>
<wgt id='2019'> +5.1485096e-01 </wgt>
<wgt id='2020'> +5.2970267e-01 </wgt>
<wgt id='2021'> +5.3277987e-01 </wgt>
<wgt id='2022'> +5.3204286e-01 </wgt>
</rwgt>
</event>
<event>
 13 2 0.0079112 9.27004100e+01 7.81860800e-03 1.23030500e-01
       21 -1    0    0  502  503 +0.0000000000e+00 +0.0000000000e+00 +2.4100360203e+02 2.4100360203e+02 0.0000000000e+00 0.0000e+00 1.0000e+00
        1 -1    0    0  501    0 +0.0000000000e+00 +0.0000000000e+00 -8.2730511624e+02 8.2730511626e+02 5.0400000000e-03 0.0000e+00 -1.0000e+00
 -8000001  2    1    2    0  503 -3.1250450697e+01 +1.2063384094e+01 -3.7566934962e+02 7.0869650894e+02 6.0000097135e+02 0.0000e+00 0.0000e+00
        2  1    1    2  501    0 +2.1974326925e+01 -2.1898254897e+01 -2.8358178486e+02 2.8527361134e+02 2.5500000000e-03 0.0000e+00 -1.0000e+00
        5  1    1    2  502    0 +9.2761237726e+00 +9.8348708022e+00 +7.2949620276e+01 7.4338598017e+01 4.6700000000e+00 0.0000e+00 1.0000e+00
       -6  2    3    3    0  503 -2.7492595711e+02 +2.7355257695e+01 -1.3031348420e+02 3.5098588327e+02 1.7284933923e+02 0.0000e+00 0.0000e+00
       -5  1    6    6    0  503 -9.6375183015e+01 -4.1312140628e+01 +3.8526191872e-01 1.0496106989e+02 4.6700000000e+00 0.0000e+00 1.0000e+00
      -24  2    6    6    0    0 -1.7855077409e+02 +6.8667398323e+01 -1.3069874612e+02 2.4602481338e+02 8.2767481774e+01 0.0000e+00 0.0000e+00
        1  1    8    8  504    0 -1.2371403974e+02 +8.3691743442e+01 -7.8012540885e+01 1.6850943033e+02 5.0400000000e-03 0.0000e+00 -1.0000e+00
       -2  1    8    8    0  504 -5.4836734348e+01 -1.5024345119e+01 -5.2686205236e+01 7.7515383047e+01 2.5500000000e-03 0.0000e+00 1.0000e+00
       23  2    3    3    0    0 +2.4367550641e+02 -1.5291873600e+01 -2.4535586542e+02 3.5771062567e+02 9.0254070271e+01 0.0000e+00 0.0000e+00
       12  1   11   11    0    0 +1.2074849213e+02 -4.7169417936e+01 -1.5385094850e+02 2.0118465820e+02 0.0000000000e+00 0.0000e+00 -1.0000e+00
      -12  1   11   11    0    0 +1.2292701428e+02 +3.1877544336e+01 -9.1504916915e+01 1.5652596747e+02 0.0000000000e+00 0.0000e+00 1.0000e+00
<mgrwt>
<rscale>  1 0.53625039e+02</rscale>
<asrwt>0</asrwt>
<pdfrwt beam="1">  1       21 0.37077478e-01 0.92700405e+02</pdfrwt>
<pdfrwt beam="2">  1        1 0.12727771e+00 0.31020843e+02</pdfrwt>
<totfact> 0.22275499e+03</totfact>
</mgrwt>
<rwgt>
<wgt id='1001'> +5.2878984e-01 </wgt>
<wgt id='1002'> +3.0034003e-01 </wgt>
<wgt id='1003'> +3.0026611e-01 </wgt>
<wgt id='1004'> +3.4658748e-01 </wgt>
<wgt id='1005'> +2.7891257e-01 </wgt>
<wgt id='1006'> +4.7210130e-01 </wgt>
<wgt id='1007'> +2.7728235e-01 </wgt>
<wgt id='1008'> +2.7721741e-01 </wgt>
<wgt id='1009'> +3.1765871e-01 </wgt>
<wgt id='1010'> +2.5839430e-01 </wgt>
<wgt id='1011'> +6.0161618e-01 </wgt>
<wgt id='1012'> +3.2769627e-01 </wgt>
<wgt id='1013'> +3.2761096e-01 </wgt>
<wgt id='1014'> +3.8148592e-01 </wgt>
<wgt id='1015'> +3.0306200e-01 </wgt>
<wgt id='1016'> +4.9703172e-01 </wgt>
<wgt id='1017'> +2.8440423e-01 </wgt>
<wgt id='1018'> +2.8433496e-01 </wgt>
<wgt id='1019'> +3.2761096e-01 </wgt>
<wgt id='1020'> +2.6433351e-01 </wgt>
<wgt id='1021'> +4.4374779e-01 </wgt>
<wgt id='1022'> +2.6256998e-01 </wgt>
<wgt id='1023'> +2.6250916e-01 </wgt>
<wgt id='1024'> +3.0026611e-01 </wgt>
<wgt id='1025'> +2.4488775e-01 </wgt>
<wgt id='1026'> +5.6548424e-01 </wgt>
<wgt id='1027'> +3.1030897e-01 </wgt>
<wgt id='1028'> +3.1022899e-01 </wgt>
<wgt id='1029'> +3.6059862e-01 </wgt>
<wgt id='1030'> +2.8722062e-01 </wgt>
<wgt id='1031'> +5.6261282e-01 </wgt>
<wgt id='1032'> +3.1773810e-01 </wgt>
<wgt id='1033'> +3.1765871e-01 </wgt>
<wgt id='1034'> +3.6698427e-01 </wgt>
<wgt id='1035'> +2.9477098e-01 </wgt>
<wgt id='1036'> +5.0229832e-01 </wgt>
<wgt id='1037'> +2.9334474e-01 </wgt>
<wgt id='1038'> +2.9327494e-01 </wgt>
<wgt id='1039'> +3.3635303e-01 </wgt>
<wgt id='1040'> +2.7308609e-01 </wgt>
<wgt id='1041'> +6.4009735e-01 </wgt>
<wgt id='1042'> +3.4667902e-01 </wgt>
<wgt id='1043'> +3.4658748e-01 </wgt>
<wgt id='1044'> +4.0393649e-01 </wgt>
<wgt id='1045'> +3.2029349e-01 </wgt>
<wgt id='1046'> +5.2878984e-01 </wgt>
<wgt id='1047'> +5.2878984e-01 </wgt>
<wgt id='1048'> +5.2878984e-01 </wgt>
<wgt id='1049'> +5.3014388e-01 </wgt>
<wgt id='1050'> +5.2856377e-01 </wgt>
<wgt id='1051'> +5.2878684e-01 </wgt>
<wgt id='1052'> +5.2805566e-01 </wgt>
<wgt id='1053'> +5.3031604e-01 </wgt>
<wgt id='1054'> +5.2855663e-01 </wgt>
<wgt id='1055'> +5.2663824e-01 </wgt>
<wgt id='1056'> +5.2886551e-01 </wgt>
<wgt id='1057'> +5.2720939e-01 </wgt>
<wgt id='1058'> +5.2873555e-01 </wgt>
<wgt id='1059'> +5.2715926e-01 </wgt>
<wgt id='1060'> +5.2961960e-01 </wgt>
<wgt id='1061'> +5.2940587e-01 </wgt>
<wgt id='1062'> +5.3041340e-01 </wgt>
<wgt id='1063'> +5.2973804e-01 </wgt>
<wgt id='1064'> +5.2856046e-01 </wgt>
<wgt id='1065'> +5.2979557e-01 </wgt>
<wgt id='1066'> +5.2650880e-01 </wgt>
<wgt id='1067'> +5.3306164e-01 </wgt>
<wgt id='1068'> +5.2853689e-01 </wgt>
<wgt id='1069'> +5.2849075e-01 </wgt>
<wgt id='1070'> +5.2700215e-01 </wgt>
<wgt id='1071'> +5.2759045e-01 </wgt>
<wgt id='1072'> +5.3044279e-01 </wgt>
<wgt id='1073'> +5.2791896e-01 </wgt>
<wgt id='1074'> +5.2939916e-01 </wgt>
<wgt id='1075'> +5.2822553e-01 </wgt>
<wgt id='1076'> +5.2950854e-01 </wgt>
<wgt id='1077'> +5.3215652e-01 </wgt>
<wgt id='1078'> +5.2708923e-01 </wgt>
<wgt id='1079'> +5.3294945e-01 </wgt>
<wgt id='1080'> +5.2977581e-01 </wgt>
<wgt id='1081'> +5.3111366e-01 </wgt>
<wgt id='1082'> +5.3012149e-01 </wgt>
<wgt id='1083'> +5.2717812e-01 </wgt>
<wgt id='1084'> +5.2576747e-01 </wgt>
<wgt id='1085'> +5.3069835e-01 </wgt>
<wgt id='1086'> +5.2734759e-01 </wgt>
<wgt id='1087'> +5.2780111e-01 </wgt>
<wgt id='1088'> +5.2877104e-01 </wgt>
<wgt id='1089'> +5.2923477e-01 </wgt>
<wgt id='1090'> +5.2995381e-01 </wgt>
<wgt id='1091'> +5.2806929e-01 </wgt>
<wgt id='1092'> +5.2739391e-01 </wgt>
<wgt id='1093'> +5.2974225e-01 </wgt>
<wgt id='1094'> +5.2883925e-01 </wgt>
<wgt id='1095'> +5.2785896e-01 </wgt>
<wgt id='1096'> +5.2744899e-01 </wgt>
<wgt id='1097'> +5.2784470e-01 </wgt>
<wgt id='1098'> +5.2769296e-01 </wgt>
<wgt id='1099'> +5.2823319e-01 </wgt>
<wgt id='1100'> +5.2855431e-01 </wgt>
<wgt id='1101'> +5.2958312e-01 </wgt>
<wgt id='1102'> +5.3007946e-01 </wgt>
<wgt id='1103'> +5.3110134e-01 </wgt>
<wgt id='1104'> +5.2780140e-01 </wgt>
<wgt id='1105'> +5.2877623e-01 </wgt>
<wgt id='1106'> +5.3027605e-01 </wgt>
<wgt id='1107'> +5.2850285e-01 </wgt>
<wgt id='1108'> +5.2930861e-01 </wgt>
<wgt id='1109'> +5.3077949e-01 </wgt>
<wgt id='1110'> +5.2996048e-01 </wgt>
<wgt id='1111'> +5.2823844e-01 </wgt>
<wgt id='1112'> +5.2847276e-01 </wgt>
<wgt id='1113'> +5.2988191e-01 </wgt>
<wgt id='1114'> +5.2899581e-01 </wgt>
<wgt id='1115'> +5.2900533e-01 </wgt>
<wgt id='1116'> +5.2936548e-01 </wgt>
<wgt id='1117'> +5.2857751e-01 </wgt>
<wgt id='1118'> +5.2903963e-01 </wgt>
<wgt id='1119'> +5.2889818e-01 </wgt>
<wgt id='1120'> +5.2857754e-01 </wgt>
<wgt id='1121'> +5.2927675e-01 </wgt>
<wgt id='1122'> +5.2831037e-01 </wgt>
<wgt id='1123'> +5.2841687e-01 </wgt>
<wgt id='1124'> +5.2824299e-01 </wgt>
<wgt id='1125'> +5.2945208e-01 </wgt>
<wgt id='1126'> +5.2825355e-01 </wgt>
<wgt id='1127'> +5.2818747e-01 </wgt>
<wgt id='1128'> +5.2924240e-01 </wgt>
<wgt id='1129'> +5.2889564e-01 </wgt>
<wgt id='1130'> +5.2918969e-01 </wgt>
<wgt id='1131'> +5.3008693e-01 </wgt>
<wgt id='1132'> +5.2866150e-01 </wgt>
<wgt id='1133'> +5.2887455e-01 </wgt>
<wgt id='1134'> +5.2858651e-01 </wgt>
<wgt id='1135'> +5.2961044e-01 </wgt>
<wgt id='1136'> +5.2908524e-01 </wgt>
<wgt id='1137'> +5.2906103e-01 </wgt>
<wgt id='1138'> +5.2924007e-01 </wgt>
<wgt id='1139'> +5.2897365e-01 </wgt>
<wgt id='1140'> +5.2913034e-01 </wgt>
<wgt id='1141'> +5.2876020e-01 </wgt>
<wgt id='1142'> +5.2913820e-01 </wgt>
<wgt id='1143'> +5.2879833e-01 </wgt>
<wgt id='1144'> +5.2866162e-01 </wgt>
<wgt id='1145'> +5.2876646e-01 </wgt>
<wgt id='1146'> +5.2869514e-01 </wgt>
<wgt id='1147'> +5.2920890e-01 </wgt>
<wgt id='1148'> +5.2878984e-01 </wgt>
<wgt id='1149'> +5.2955693e-01 </wgt>
<wgt id='1150'> +5.3041025e-01 </wgt>
<wgt id='1151'> +5.3671257e-01 </wgt>
<wgt id='1152'> +5.3820477e-01 </wgt>
<wgt id='1153'> +5.2565213e-01 </wgt>
<wgt id='1154'> +5.3391530e-01 </wgt>
<wgt id='1155'> +5.3956614e-01 </wgt>
<wgt id='1156'> +5.3467697e-01 </wgt>
<wgt id='1157'> +5.2804628e-01 </wgt>
<wgt id='1158'> +5.4853314e-01 </wgt>
<wgt id='1159'> +4.9821315e-01 </wgt>
<wgt id='1160'> +5.2196975e-01 </wgt>
<wgt id='1161'> +5.3096362e-01 </wgt>
<wgt id='1162'> +5.1331635e-01 </wgt>
<wgt id='1163'> +5.2491619e-01 </wgt>
<wgt id='1164'> +5.4267599e-01 </wgt>
<wgt id='1165'> +5.2880650e-01 </wgt>
<wgt id='1166'> +5.3036100e-01 </wgt>
<wgt id='1167'> +5.3828999e-01 </wgt>
<wgt id='1168'> +5.2806127e-01 </wgt>
<wgt id='1169'> +5.2512951e-01 </wgt>
<wgt id='1170'> +5.4091711e-01 </wgt>
<wgt id='1171'> +5.3988537e-01 </wgt>
<wgt id='1172'> +5.3176274e-01 </wgt>
<wgt id='1173'> +5.1864835e-01 </wgt>
<wgt id='1174'> +5.3550095e-01 </wgt>
<wgt id='1175'> +5.2894012e-01 </wgt>
<wgt id='1176'> +5.0048836e-01 </wgt>
<wgt id='1177'> +5.4454565e-01 </wgt>
<wgt id='1178'> +5.2039613e-01 </wgt>
<wgt id='1179'> +5.3578913e-01 </wgt>
<wgt id='1180'> +5.4163373e-01 </wgt>
<wgt id='1181'> +5.4124152e-01 </wgt>
<wgt id='1182'> +5.4678262e-01 </wgt>
<wgt id='1183'> +5.2612843e-01 </wgt>
<wgt id='1184'> +5.3114684e-01 </wgt>
<wgt id='1185'> +5.3750763e-01 </wgt>
<wgt id='1186'> +5.3001070e-01 </wgt>
<wgt id='1187'> +5.2307305e-01 </wgt>
<wgt id='1188'> +5.2956717e-01 </wgt>
<wgt id='1189'> +5.2502831e-01 </wgt>
<wgt id='1190'> +5.3277808e-01 </wgt>
<wgt id='1191'> +5.3555529e-01 </wgt>
<wgt id='1192'> +5.2944702e-01 </wgt>
<wgt id='1193'> +5.2498535e-01 </wgt>
<wgt id='1194'> +5.1632085e-01 </wgt>
<wgt id='1195'> +5.2994423e-01 </wgt>
<wgt id='1196'> +5.3582591e-01 </wgt>
<wgt id='1197'> +5.1799969e-01 </wgt>
<wgt id='1198'> +5.4459747e-01 </wgt>
<wgt id='1199'> +5.3294854e-01 </wgt>
<wgt id='1200'> +5.3173042e-01 </wgt>
<wgt id='1201'> +5.3781919e-01 </wgt>
<wgt id='1202'> +5.2978967e-01 </wgt>
<wgt id='1203'> +5.3860558e-01 </wgt>
<wgt id='1204'> +5.1639332e-01 </wgt>
<wgt id='1205'> +5.2716461e-01 </wgt>
<wgt id='1206'> +5.3564988e-01 </wgt>
<wgt id='1207'> +5.4458619e-01 </wgt>
<wgt id='1208'> +5.2966313e-01 </wgt>
<wgt id='1209'> +5.4184554e-01 </wgt>
<wgt id='1210'> +5.3218870e-01 </wgt>
<wgt id='1211'> +5.3622902e-01 </wgt>
<wgt id='1212'> +5.1452300e-01 </wgt>
<wgt id='1213'> +5.2787992e-01 </wgt>
<wgt id='1214'> +5.2788399e-01 </wgt>
<wgt id='1215'> +5.1521719e-01 </wgt>
<wgt id='1216'> +5.2052126e-01 </wgt>
<wgt id='1217'> +5.3663124e-01 </wgt>
<wgt id='1218'> +5.2604730e-01 </wgt>
<wgt id='1219'> +5.2560819e-01 </wgt>
<wgt id='1220'> +5.4974476e-01 </wgt>
<wgt id='1221'> +5.1291303e-01 </wgt>
<wgt id='1222'> +5.2649893e-01 </wgt>
<wgt id='1223'> +5.2076718e-01 </wgt>
<wgt id='1224'> +5.2578018e-01 </wgt>
<wgt id='1225'> +5.3151896e-01 </wgt>
<wgt id='1226'> +5.2398906e-01 </wgt>
<wgt id='1227'> +5.5182681e-01 </wgt>
<wgt id='1228'> +5.3940543e-01 </wgt>
<wgt id='1229'> +5.1372751e-01 </wgt>
<wgt id='1230'> +5.2835218e-01 </wgt>
<wgt id='1231'> +5.2880650e-01 </wgt>
<wgt id='1232'> +4.8680751e-01 </wgt>
<wgt id='1233'> +5.2749724e-01 </wgt>
<wgt id='1234'> +5.5140531e-01 </wgt>
<wgt id='1235'> +5.3338358e-01 </wgt>
<wgt id='1236'> +5.4000570e-01 </wgt>
<wgt id='1237'> +5.2891010e-01 </wgt>
<wgt id='1238'> +4.8122014e-01 </wgt>
<wgt id='1239'> +5.3948441e-01 </wgt>
<wgt id='1240'> +5.3890568e-01 </wgt>
<wgt id='1241'> +5.2715998e-01 </wgt>
<wgt id='1242'> +5.2250645e-01 </wgt>
<wgt id='1243'> +5.2673015e-01 </wgt>
<wgt id='1244'> +5.3244608e-01 </wgt>
<wgt id='1245'> +5.4257094e-01 </wgt>
<wgt id='1246'> +5.1276822e-01 </wgt>
<wgt id='1247'> +5.2325775e-01 </wgt>
<wgt id='1248'> +5.2490507e-01 </wgt>
<wgt id='1249'> +5.3658779e-01 </wgt>
<wgt id='1250'> +5.0910856e-01 </wgt>
<wgt id='1251'> +5.0521716e-01 </wgt>
<wgt id='1252'> +5.1262302e-01 </wgt>
<wgt id='1253'> +5.1279283e-01 </wgt>
<wgt id='1254'> +4.4605115e-01 </wgt>
<wgt id='1255'> +5.1314288e-01 </wgt>
<wgt id='1256'> +5.1238784e-01 </wgt>
<wgt id='1257'> +5.1357583e-01 </wgt>
<wgt id='1258'> +5.1525469e-01 </wgt>
<wgt id='1259'> +5.1206290e-01 </wgt>
<wgt id='1260'> +5.1302936e-01 </wgt>
<wgt id='1261'> +5.1327287e-01 </wgt>
<wgt id='1262'> +5.1320895e-01 </wgt>
<wgt id='1263'> +5.1307054e-01 </wgt>
<wgt id='1264'> +5.1794110e-01 </wgt>
<wgt id='1265'> +5.0981507e-01 </wgt>
<wgt id='1266'> +5.1312317e-01 </wgt>
<wgt id='1267'> +5.1314680e-01 </wgt>
<wgt id='1268'> +5.1525822e-01 </wgt>
<wgt id='1269'> +5.1097771e-01 </wgt>
<wgt id='1270'> +5.1156621e-01 </wgt>
<wgt id='1271'> +5.1428265e-01 </wgt>
<wgt id='1272'> +5.1754724e-01 </wgt>
<wgt id='1273'> +5.0926629e-01 </wgt>
<wgt id='1274'> +5.1143627e-01 </wgt>
<wgt id='1275'> +5.1502609e-01 </wgt>
<wgt id='1276'> +5.1283588e-01 </wgt>
<wgt id='1277'> +5.1302434e-01 </wgt>
<wgt id='1278'> +5.0803623e-01 </wgt>
<wgt id='1279'> +5.1703526e-01 </wgt>
<wgt id='1280'> +5.1331547e-01 </wgt>
<wgt id='1281'> +5.1106124e-01 </wgt>
<wgt id='1282'> +5.1548302e-01 </wgt>
<wgt id='1283'> +5.0903433e-01 </wgt>
<wgt id='1284'> +5.0959376e-01 </wgt>
<wgt id='1285'> +5.1372293e-01 </wgt>
<wgt id='1286'> +5.1190190e-01 </wgt>
<wgt id='1287'> +5.1314832e-01 </wgt>
<wgt id='1288'> +5.1278094e-01 </wgt>
<wgt id='1289'> +5.1305405e-01 </wgt>
<wgt id='1290'> +5.1448484e-01 </wgt>
<wgt id='1291'> +5.1266353e-01 </wgt>
<wgt id='1292'> +5.1490715e-01 </wgt>
<wgt id='1293'> +5.1010897e-01 </wgt>
<wgt id='1294'> +5.1015223e-01 </wgt>
<wgt id='1295'> +5.1348456e-01 </wgt>
<wgt id='1296'> +5.1897771e-01 </wgt>
<wgt id='1297'> +5.2019079e-01 </wgt>
<wgt id='1298'> +5.1798714e-01 </wgt>
<wgt id='1299'> +5.2024114e-01 </wgt>
<wgt id='1300'> +5.1757984e-01 </wgt>
<wgt id='1301'> +5.1863213e-01 </wgt>
<wgt id='1302'> +5.1948451e-01 </wgt>
<wgt id='1303'> +5.2170789e-01 </wgt>
<wgt id='1304'> +5.1714527e-01 </wgt>
<wgt id='1305'> +5.1906991e-01 </wgt>
<wgt id='1306'> +5.1884185e-01 </wgt>
<wgt id='1307'> +5.1951738e-01 </wgt>
<wgt id='1308'> +5.1863752e-01 </wgt>
<wgt id='1309'> +5.1599550e-01 </wgt>
<wgt id='1310'> +5.2299778e-01 </wgt>
<wgt id='1311'> +5.2007325e-01 </wgt>
<wgt id='1312'> +5.1860528e-01 </wgt>
<wgt id='1313'> +5.1933667e-01 </wgt>
<wgt id='1314'> +5.1830024e-01 </wgt>
<wgt id='1315'> +5.1426562e-01 </wgt>
<wgt id='1316'> +5.2279413e-01 </wgt>
<wgt id='1317'> +5.1460203e-01 </wgt>
<wgt id='1318'> +5.2672732e-01 </wgt>
<wgt id='1319'> +5.1913636e-01 </wgt>
<wgt id='1320'> +5.1858194e-01 </wgt>
<wgt id='1321'> +5.1525606e-01 </wgt>
<wgt id='1322'> +5.2065257e-01 </wgt>
<wgt id='1323'> +5.1321784e-01 </wgt>
<wgt id='1324'> +5.1588472e-01 </wgt>
<wgt id='1325'> +5.1913358e-01 </wgt>
<wgt id='1326'> +5.1718488e-01 </wgt>
<wgt id='1327'> +5.1749297e-01 </wgt>
<wgt id='1328'> +5.1951905e-01 </wgt>
<wgt id='1329'> +5.1811800e-01 </wgt>
<wgt id='1330'> +5.1945471e-01 </wgt>
<wgt id='1331'> +5.1897879e-01 </wgt>
<wgt id='1332'> +5.1816489e-01 </wgt>
<wgt id='1333'> +5.2277861e-01 </wgt>
<wgt id='1334'> +5.1387316e-01 </wgt>
<wgt id='1335'> +5.2172859e-01 </wgt>
<wgt id='1336'> +5.1791943e-01 </wgt>
<wgt id='1337'> +5.1897771e-01 </wgt>
<wgt id='1338'> +5.1871076e-01 </wgt>
<wgt id='1339'> +5.1884289e-01 </wgt>
<wgt id='1340'> +5.1893433e-01 </wgt>
<wgt id='1341'> +5.1910547e-01 </wgt>
<wgt id='1342'> +5.1917899e-01 </wgt>
<wgt id='1343'> +5.1920807e-01 </wgt>
<wgt id='1344'> +5.1997032e-01 </wgt>
<wgt id='1345'> +5.2120267e-01 </wgt>
<wgt id='1346'> +5.1877062e-01 </wgt>
<wgt id='1347'> +5.1872675e-01 </wgt>
<wgt id='1348'> +5.2086765e-01 </wgt>
<wgt id='1349'> +5.2201387e-01 </wgt>
<wgt id='1350'> +5.1823562e-01 </wgt>
<wgt id='1351'> +5.1990791e-01 </wgt>
<wgt id='1352'> +5.2006949e-01 </wgt>
<wgt id='1353'> +5.2110452e-01 </wgt>
<wgt id='1354'> +5.1915854e-01 </wgt>
<wgt id='1355'> +5.2372790e-01 </wgt>
<wgt id='1356'> +5.1700203e-01 </wgt>
<wgt id='1357'> +5.2154757e-01 </wgt>
<wgt id='1358'> +5.1900249e-01 </wgt>
<wgt id='1359'> +5.1937175e-01 </wgt>
<wgt id='1360'> +5.2157165e-01 </wgt>
<wgt id='1361'> +5.2169680e-01 </wgt>
<wgt id='1362'> +5.1892801e-01 </wgt>
<wgt id='1363'> +5.2415427e-01 </wgt>
<wgt id='1364'> +5.1381077e-01 </wgt>
<wgt id='1365'> +5.1805458e-01 </wgt>
<wgt id='1366'> +5.2057741e-01 </wgt>
<wgt id='1367'> +5.1562286e-01 </wgt>
<wgt id='1368'> +5.2180615e-01 </wgt>
<wgt id='1369'> +5.1813164e-01 </wgt>
<wgt id='1370'> +5.2084795e-01 </wgt>
<wgt id='1371'> +5.1856414e-01 </wgt>
<wgt id='1372'> +5.1476687e-01 </wgt>
<wgt id='1373'> +5.2223033e-01 </wgt>
<wgt id='1374'> +5.1905416e-01 </wgt>
<wgt id='1375'> +5.1758501e-01 </wgt>
<wgt id='1376'> +5.2040334e-01 </wgt>
<wgt id='1377'> +5.2007740e-01 </wgt>
<wgt id='1378'> +5.1994091e-01 </wgt>
<wgt id='1379'> +5.1828241e-01 </wgt>
<wgt id='1380'> +5.2015858e-01 </wgt>
<wgt id='1381'> +5.1672802e-01 </wgt>
<wgt id='1382'> +5.2016762e-01 </wgt>
<wgt id='1383'> +5.1891665e-01 </wgt>
<wgt id='1384'> +5.2191393e-01 </wgt>
<wgt id='1385'> +5.1997032e-01 </wgt>
<wgt id='1386'> +5.1944018e-01 </wgt>
<wgt id='1387'> +5.1966436e-01 </wgt>
<wgt id='1388'> +5.1984351e-01 </wgt>
<wgt id='1389'> +5.2005166e-01 </wgt>
<wgt id='1390'> +5.2013221e-01 </wgt>
<wgt id='1391'> +5.2016033e-01 </wgt>
<wgt id='1392'> +5.3728012e-01 </wgt>
<wgt id='1393'> +5.3699503e-01 </wgt>
<wgt id='1394'> +5.3761007e-01 </wgt>
<wgt id='1395'> +5.3798744e-01 </wgt>
<wgt id='1396'> +5.3678690e-01 </wgt>
<wgt id='1397'> +5.3859727e-01 </wgt>
<wgt id='1398'> +5.3602874e-01 </wgt>
<wgt id='1399'> +5.3572000e-01 </wgt>
<wgt id='1400'> +5.3925651e-01 </wgt>
<wgt id='1401'> +5.3730787e-01 </wgt>
<wgt id='1402'> +5.3727803e-01 </wgt>
<wgt id='1403'> +5.3644186e-01 </wgt>
<wgt id='1404'> +5.3900773e-01 </wgt>
<wgt id='1405'> +5.3918550e-01 </wgt>
<wgt id='1406'> +5.3466188e-01 </wgt>
<wgt id='1407'> +5.3754186e-01 </wgt>
<wgt id='1408'> +5.3710686e-01 </wgt>
<wgt id='1409'> +5.3756456e-01 </wgt>
<wgt id='1410'> +5.3699549e-01 </wgt>
<wgt id='1411'> +5.3493627e-01 </wgt>
<wgt id='1412'> +5.3909297e-01 </wgt>
<wgt id='1413'> +5.4170126e-01 </wgt>
<wgt id='1414'> +5.3258070e-01 </wgt>
<wgt id='1415'> +5.4074604e-01 </wgt>
<wgt id='1416'> +5.3392708e-01 </wgt>
<wgt id='1417'> +5.3673432e-01 </wgt>
<wgt id='1418'> +5.3797539e-01 </wgt>
<wgt id='1419'> +5.3505261e-01 </wgt>
<wgt id='1420'> +5.3623204e-01 </wgt>
<wgt id='1421'> +5.3958857e-01 </wgt>
<wgt id='1422'> +5.3454889e-01 </wgt>
<wgt id='1423'> +5.4203702e-01 </wgt>
<wgt id='1424'> +5.3353152e-01 </wgt>
<wgt id='1425'> +5.3722490e-01 </wgt>
<wgt id='1426'> +5.3703121e-01 </wgt>
<wgt id='1427'> +5.3790261e-01 </wgt>
<wgt id='1428'> +5.3537567e-01 </wgt>
<wgt id='1429'> +5.3665044e-01 </wgt>
<wgt id='1430'> +5.3668715e-01 </wgt>
<wgt id='1431'> +5.3526204e-01 </wgt>
<wgt id='1432'> +5.3902362e-01 </wgt>
<wgt id='1433'> +5.2924916e-01 </wgt>
<wgt id='1434'> +5.4683571e-01 </wgt>
<wgt id='1435'> +5.3651545e-01 </wgt>
<wgt id='1436'> +5.3591030e-01 </wgt>
<wgt id='1437'> +5.3535267e-01 </wgt>
<wgt id='1438'> +5.4251782e-01 </wgt>
<wgt id='1439'> +5.3986636e-01 </wgt>
<wgt id='1440'> +5.3133356e-01 </wgt>
<wgt id='1441'> +5.3790508e-01 </wgt>
<wgt id='1442'> +5.3561358e-01 </wgt>
<wgt id='1443'> +5.3351617e-01 </wgt>
<wgt id='1444'> +5.3322371e-01 </wgt>
<wgt id='1445'> +5.3382692e-01 </wgt>
<wgt id='1446'> +5.3425361e-01 </wgt>
<wgt id='1447'> +5.3304607e-01 </wgt>
<wgt id='1448'> +5.3485376e-01 </wgt>
<wgt id='1449'> +5.3228944e-01 </wgt>
<wgt id='1450'> +5.3184964e-01 </wgt>
<wgt id='1451'> +5.3538389e-01 </wgt>
<wgt id='1452'> +5.3366615e-01 </wgt>
<wgt id='1453'> +5.3338353e-01 </wgt>
<wgt id='1454'> +5.3282318e-01 </wgt>
<wgt id='1455'> +5.3503277e-01 </wgt>
<wgt id='1456'> +5.3581907e-01 </wgt>
<wgt id='1457'> +5.2942146e-01 </wgt>
<wgt id='1458'> +5.3334672e-01 </wgt>
<wgt id='1459'> +5.3362647e-01 </wgt>
<wgt id='1460'> +5.3320610e-01 </wgt>
<wgt id='1461'> +5.3388824e-01 </wgt>
<wgt id='1462'> +5.3135154e-01 </wgt>
<wgt id='1463'> +5.3539263e-01 </wgt>
<wgt id='1464'> +5.3724967e-01 </wgt>
<wgt id='1465'> +5.2855991e-01 </wgt>
<wgt id='1466'> +5.3787027e-01 </wgt>
<wgt id='1467'> +5.3070311e-01 </wgt>
<wgt id='1468'> +5.3283064e-01 </wgt>
<wgt id='1469'> +5.3428332e-01 </wgt>
<wgt id='1470'> +5.3141431e-01 </wgt>
<wgt id='1471'> +5.3275297e-01 </wgt>
<wgt id='1472'> +5.3510864e-01 </wgt>
<wgt id='1473'> +5.3148954e-01 </wgt>
<wgt id='1474'> +5.3706709e-01 </wgt>
<wgt id='1475'> +5.2922795e-01 </wgt>
<wgt id='1476'> +5.3277835e-01 </wgt>
<wgt id='1477'> +5.3388328e-01 </wgt>
<wgt id='1478'> +5.3420429e-01 </wgt>
<wgt id='1479'> +5.3148243e-01 </wgt>
<wgt id='1480'> +5.3367062e-01 </wgt>
<wgt id='1481'> +5.3310299e-01 </wgt>
<wgt id='1482'> +5.3147042e-01 </wgt>
<wgt id='1483'> +5.3556023e-01 </wgt>
<wgt id='1484'> +5.2545025e-01 </wgt>
<wgt id='1485'> +5.4262922e-01 </wgt>
<wgt id='1486'> +5.3471311e-01 </wgt>
<wgt id='1487'> +5.3152978e-01 </wgt>
<wgt id='1488'> +5.3126437e-01 </wgt>
<wgt id='1489'> +5.3922389e-01 </wgt>
<wgt id='1490'> +5.3615781e-01 </wgt>
<wgt id='1491'> +5.2708349e-01 </wgt>
<wgt id='1492'> +5.3441263e-01 </wgt>
<wgt id='1493'> +5.3124973e-01 </wgt>
<wgt id='1494'> +5.1593414e-01 </wgt>
<wgt id='1495'> +5.1053897e-01 </wgt>
<wgt id='1496'> +5.1277187e-01 </wgt>
<wgt id='1497'> +5.1443067e-01 </wgt>
<wgt id='1498'> +5.1763670e-01 </wgt>
<wgt id='1499'> +5.1600744e-01 </wgt>
<wgt id='1500'> +5.1409205e-01 </wgt>
<wgt id='1501'> +5.1467577e-01 </wgt>
<wgt id='1502'> +5.1519106e-01 </wgt>
<wgt id='1503'> +5.1550921e-01 </wgt>
<wgt id='1504'> +5.1583820e-01 </wgt>
<wgt id='1505'> +5.1636351e-01 </wgt>
<wgt id='1506'> +5.1653310e-01 </wgt>
<wgt id='1507'> +5.1669943e-01 </wgt>
<wgt id='1508'> +5.1600744e-01 </wgt>
<wgt id='1509'> +5.1617297e-01 </wgt>
<wgt id='1510'> +5.1608502e-01 </wgt>
<wgt id='1511'> +5.1595109e-01 </wgt>
<wgt id='1512'> +5.1597238e-01 </wgt>
<wgt id='1513'> +5.2213675e-01 </wgt>
<wgt id='1514'> +5.2165527e-01 </wgt>
<wgt id='1515'> +5.2277786e-01 </wgt>
<wgt id='1516'> +5.2261152e-01 </wgt>
<wgt id='1517'> +5.2168379e-01 </wgt>
<wgt id='1518'> +5.2363415e-01 </wgt>
<wgt id='1519'> +5.2154996e-01 </wgt>
<wgt id='1520'> +5.2119392e-01 </wgt>
<wgt id='1521'> +5.2310048e-01 </wgt>
<wgt id='1522'> +5.2273160e-01 </wgt>
<wgt id='1523'> +5.2158281e-01 </wgt>
<wgt id='1524'> +5.2325533e-01 </wgt>
<wgt id='1525'> +5.2165719e-01 </wgt>
<wgt id='1526'> +5.2322581e-01 </wgt>
<wgt id='1527'> +5.2081712e-01 </wgt>
<wgt id='1528'> +5.2435905e-01 </wgt>
<wgt id='1529'> +5.1973010e-01 </wgt>
<wgt id='1530'> +5.2377472e-01 </wgt>
<wgt id='1531'> +5.2120579e-01 </wgt>
<wgt id='1532'> +5.2235848e-01 </wgt>
<wgt id='1533'> +5.2184611e-01 </wgt>
<wgt id='1534'> +5.1624270e-01 </wgt>
<wgt id='1535'> +5.2621053e-01 </wgt>
<wgt id='1536'> +5.2033169e-01 </wgt>
<wgt id='1537'> +5.2381230e-01 </wgt>
<wgt id='1538'> +5.2134658e-01 </wgt>
<wgt id='1539'> +5.2414691e-01 </wgt>
<wgt id='1540'> +5.2114101e-01 </wgt>
<wgt id='1541'> +5.2030276e-01 </wgt>
<wgt id='1542'> +5.2043108e-01 </wgt>
<wgt id='1543'> +5.2699257e-01 </wgt>
<wgt id='1544'> +5.2369433e-01 </wgt>
<wgt id='1545'> +5.1838737e-01 </wgt>
<wgt id='1546'> +5.2201490e-01 </wgt>
<wgt id='1547'> +5.2150782e-01 </wgt>
<wgt id='1548'> +5.2072623e-01 </wgt>
<wgt id='1549'> +5.2216383e-01 </wgt>
<wgt id='1550'> +5.2148075e-01 </wgt>
<wgt id='1551'> +5.1862158e-01 </wgt>
<wgt id='1552'> +5.1976505e-01 </wgt>
<wgt id='1553'> +5.2362007e-01 </wgt>
<wgt id='1554'> +5.2682838e-01 </wgt>
<wgt id='1555'> +5.1352263e-01 </wgt>
<wgt id='1556'> +5.2211818e-01 </wgt>
<wgt id='1557'> +5.1920315e-01 </wgt>
<wgt id='1558'> +5.1689475e-01 </wgt>
<wgt id='1559'> +5.2576670e-01 </wgt>
<wgt id='1560'> +5.2685367e-01 </wgt>
<wgt id='1561'> +5.1998523e-01 </wgt>
<wgt id='1562'> +5.1965229e-01 </wgt>
<wgt id='1563'> +5.2315305e-01 </wgt>
<wgt id='1564'> +5.2213675e-01 </wgt>
<wgt id='1565'> +5.2077140e-01 </wgt>
<wgt id='1566'> +5.2288452e-01 </wgt>
<wgt id='1567'> +5.2154164e-01 </wgt>
<wgt id='1568'> +5.2015881e-01 </wgt>
<wgt id='1569'> +5.2076561e-01 </wgt>
<wgt id='1570'> +5.2099103e-01 </wgt>
<wgt id='1571'> +5.2101104e-01 </wgt>
<wgt id='1572'> +5.2146473e-01 </wgt>
<wgt id='1573'> +5.2156976e-01 </wgt>
<wgt id='1574'> +5.2109551e-01 </wgt>
<wgt id='1575'> +5.2109546e-01 </wgt>
<wgt id='1576'> +5.2154164e-01 </wgt>
<wgt id='1577'> +5.2161364e-01 </wgt>
<wgt id='1578'> +5.2157165e-01 </wgt>
<wgt id='1579'> +5.2156609e-01 </wgt>
<wgt id='1580'> +5.2156115e-01 </wgt>
<wgt id='1581'> +5.1618777e-01 </wgt>
<wgt id='1582'> +5.1622740e-01 </wgt>
<wgt id='1583'> +5.2314793e-01 </wgt>
<wgt id='1584'> +5.1287517e-01 </wgt>
<wgt id='1585'> +5.1782279e-01 </wgt>
<wgt id='1586'> +5.1069642e-01 </wgt>
<wgt id='1587'> +5.1260435e-01 </wgt>
<wgt id='1588'> +5.1881822e-01 </wgt>
<wgt id='1589'> +5.1579754e-01 </wgt>
<wgt id='1590'> +5.1469836e-01 </wgt>
<wgt id='1591'> +5.1499766e-01 </wgt>
<wgt id='1592'> +5.1788415e-01 </wgt>
<wgt id='1593'> +5.1616271e-01 </wgt>
<wgt id='1594'> +5.1737897e-01 </wgt>
<wgt id='1595'> +5.1564078e-01 </wgt>
<wgt id='1596'> +5.1816958e-01 </wgt>
<wgt id='1597'> +5.1499624e-01 </wgt>
<wgt id='1598'> +5.1847697e-01 </wgt>
<wgt id='1599'> +5.2170077e-01 </wgt>
<wgt id='1600'> +5.1758959e-01 </wgt>
<wgt id='1601'> +5.1601847e-01 </wgt>
<wgt id='1602'> +5.1700537e-01 </wgt>
<wgt id='1603'> +5.1623913e-01 </wgt>
<wgt id='1604'> +5.1719866e-01 </wgt>
<wgt id='1605'> +5.1538605e-01 </wgt>
<wgt id='1606'> +5.1609418e-01 </wgt>
<wgt id='1607'> +5.1732773e-01 </wgt>
<wgt id='1608'> +5.2141237e-01 </wgt>
<wgt id='1609'> +5.1663530e-01 </wgt>
<wgt id='1610'> +5.1516524e-01 </wgt>
<wgt id='1611'> +5.1916145e-01 </wgt>
<wgt id='1612'> +5.2447430e-01 </wgt>
<wgt id='1613'> +5.2390034e-01 </wgt>
<wgt id='1614'> +5.2479547e-01 </wgt>
<wgt id='1615'> +5.2526806e-01 </wgt>
<wgt id='1616'> +5.2439532e-01 </wgt>
<wgt id='1617'> +5.2374843e-01 </wgt>
<wgt id='1618'> +5.2448427e-01 </wgt>
<wgt id='1619'> +5.2236588e-01 </wgt>
<wgt id='1620'> +5.2266407e-01 </wgt>
<wgt id='1621'> +5.2456518e-01 </wgt>
<wgt id='1622'> +5.2510590e-01 </wgt>
<wgt id='1623'> +5.2249889e-01 </wgt>
<wgt id='1624'> +5.2363959e-01 </wgt>
<wgt id='1625'> +5.2429129e-01 </wgt>
<wgt id='1626'> +5.2554555e-01 </wgt>
<wgt id='1627'> +5.2601075e-01 </wgt>
<wgt id='1628'> +5.2503248e-01 </wgt>
<wgt id='1629'> +5.2432437e-01 </wgt>
<wgt id='1630'> +5.2534117e-01 </wgt>
<wgt id='1631'> +5.2332205e-01 </wgt>
<wgt id='1632'> +5.2527298e-01 </wgt>
<wgt id='1633'> +5.2344843e-01 </wgt>
<wgt id='1634'> +5.2656392e-01 </wgt>
<wgt id='1635'> +5.2358963e-01 </wgt>
<wgt id='1636'> +5.2732238e-01 </wgt>
<wgt id='1637'> +5.2634954e-01 </wgt>
<wgt id='1638'> +5.2509723e-01 </wgt>
<wgt id='1639'> +5.2672867e-01 </wgt>
<wgt id='1640'> +5.2536428e-01 </wgt>
<wgt id='1641'> +5.1740405e-01 </wgt>
<wgt id='1642'> +5.2211218e-01 </wgt>
<wgt id='1643'> +5.2399089e-01 </wgt>
<wgt id='1644'> +5.2247955e-01 </wgt>
<wgt id='1645'> +5.2365717e-01 </wgt>
<wgt id='1646'> +5.2466456e-01 </wgt>
<wgt id='1647'> +5.2500913e-01 </wgt>
<wgt id='1648'> +5.2477295e-01 </wgt>
<wgt id='1649'> +5.2580251e-01 </wgt>
<wgt id='1650'> +5.2440635e-01 </wgt>
<wgt id='1651'> +5.2499844e-01 </wgt>
<wgt id='1652'> +5.2462437e-01 </wgt>
<wgt id='1653'> +5.2426883e-01 </wgt>
<wgt id='1654'> +5.2382076e-01 </wgt>
<wgt id='1655'> +5.2470970e-01 </wgt>
<wgt id='1656'> +5.2613941e-01 </wgt>
<wgt id='1657'> +5.2310502e-01 </wgt>
<wgt id='1658'> +5.2485941e-01 </wgt>
<wgt id='1659'> +5.2620232e-01 </wgt>
<wgt id='1660'> +5.2326060e-01 </wgt>
<wgt id='1661'> +5.2642950e-01 </wgt>
<wgt id='1662'> +5.2615560e-01 </wgt>
<wgt id='1663'> +5.2645009e-01 </wgt>
<wgt id='1664'> +5.2353979e-01 </wgt>
<wgt id='1665'> +5.2400231e-01 </wgt>
<wgt id='1666'> +5.2501318e-01 </wgt>
<wgt id='1667'> +5.2350941e-01 </wgt>
<wgt id='1668'> +5.2467494e-01 </wgt>
<wgt id='1669'> +5.2352641e-01 </wgt>
<wgt id='1670'> +5.2465276e-01 </wgt>
<wgt id='1671'> +5.2416934e-01 </wgt>
<wgt id='1672'> +5.2406681e-01 </wgt>
<wgt id='1673'> +5.2436276e-01 </wgt>
<wgt id='1674'> +5.2390580e-01 </wgt>
<wgt id='1675'> +5.2506218e-01 </wgt>
<wgt id='1676'> +5.2445107e-01 </wgt>
<wgt id='1677'> +5.2411669e-01 </wgt>
<wgt id='1678'> +5.2519440e-01 </wgt>
<wgt id='1679'> +5.2452821e-01 </wgt>
<wgt id='1680'> +5.2484483e-01 </wgt>
<wgt id='1681'> +5.2431427e-01 </wgt>
<wgt id='1682'> +5.2402624e-01 </wgt>
<wgt id='1683'> +5.2342724e-01 </wgt>
<wgt id='1684'> +5.2515980e-01 </wgt>
<wgt id='1685'> +5.2427538e-01 </wgt>
<wgt id='1686'> +5.2490238e-01 </wgt>
<wgt id='1687'> +5.2451219e-01 </wgt>
<wgt id='1688'> +5.2452111e-01 </wgt>
<wgt id='1689'> +5.2473576e-01 </wgt>
<wgt id='1690'> +5.2467462e-01 </wgt>
<wgt id='1691'> +5.2595877e-01 </wgt>
<wgt id='1692'> +5.2420048e-01 </wgt>
<wgt id='1693'> +5.2413693e-01 </wgt>
<wgt id='1694'> +5.2404420e-01 </wgt>
<wgt id='1695'> +5.2459844e-01 </wgt>
<wgt id='1696'> +5.2387473e-01 </wgt>
<wgt id='1697'> +5.2471375e-01 </wgt>
<wgt id='1698'> +5.2469902e-01 </wgt>
<wgt id='1699'> +5.2400034e-01 </wgt>
<wgt id='1700'> +5.2465604e-01 </wgt>
<wgt id='1701'> +5.2445901e-01 </wgt>
<wgt id='1702'> +5.2411051e-01 </wgt>
<wgt id='1703'> +5.2540551e-01 </wgt>
<wgt id='1704'> +5.2485742e-01 </wgt>
<wgt id='1705'> +5.2431401e-01 </wgt>
<wgt id='1706'> +5.2435814e-01 </wgt>
<wgt id='1707'> +5.2406934e-01 </wgt>
<wgt id='1708'> +5.2412758e-01 </wgt>
<wgt id='1709'> +5.2497882e-01 </wgt>
<wgt id='1710'> +5.2421419e-01 </wgt>
<wgt id='1711'> +5.2425467e-01 </wgt>
<wgt id='1712'> +5.2535060e-01 </wgt>
<wgt id='1713'> +5.1589877e-01 </wgt>
<wgt id='1714'> +5.3161897e-01 </wgt>
<wgt id='1715'> +5.3641716e-01 </wgt>
<wgt id='1716'> +5.3624130e-01 </wgt>
<wgt id='1717'> +5.4802625e-01 </wgt>
<wgt id='1718'> +5.2254926e-01 </wgt>
<wgt id='1719'> +5.2693574e-01 </wgt>
<wgt id='1720'> +5.4902146e-01 </wgt>
<wgt id='1721'> +5.1796255e-01 </wgt>
<wgt id='1722'> +5.3887367e-01 </wgt>
<wgt id='1723'> +5.4852434e-01 </wgt>
<wgt id='1724'> +5.4590912e-01 </wgt>
<wgt id='1725'> +5.4316025e-01 </wgt>
<wgt id='1726'> +5.4087738e-01 </wgt>
<wgt id='1727'> +5.4050767e-01 </wgt>
<wgt id='1728'> +5.4078619e-01 </wgt>
<wgt id='1729'> +5.3521088e-01 </wgt>
<wgt id='1730'> +5.2790003e-01 </wgt>
<wgt id='1731'> +4.9622421e-01 </wgt>
<wgt id='1732'> +5.5129269e-01 </wgt>
<wgt id='1733'> +5.4475873e-01 </wgt>
<wgt id='1734'> +5.4778313e-01 </wgt>
<wgt id='1735'> +5.0746398e-01 </wgt>
<wgt id='1736'> +5.4636252e-01 </wgt>
<wgt id='1737'> +5.3048538e-01 </wgt>
<wgt id='1738'> +5.4486836e-01 </wgt>
<wgt id='1739'> +5.3872356e-01 </wgt>
<wgt id='1740'> +5.3023501e-01 </wgt>
<wgt id='1741'> +5.3047824e-01 </wgt>
<wgt id='1742'> +5.5873382e-01 </wgt>
<wgt id='1743'> +5.1411473e-01 </wgt>
<wgt id='1744'> +5.4401116e-01 </wgt>
<wgt id='1745'> +5.1290150e-01 </wgt>
<wgt id='1746'> +5.2890515e-01 </wgt>
<wgt id='1747'> +5.4155424e-01 </wgt>
<wgt id='1748'> +5.2967733e-01 </wgt>
<wgt id='1749'> +5.5308294e-01 </wgt>
<wgt id='1750'> +5.3511621e-01 </wgt>
<wgt id='1751'> +5.4225962e-01 </wgt>
<wgt id='1752'> +5.2636270e-01 </wgt>
<wgt id='1753'> +5.4100656e-01 </wgt>
<wgt id='1754'> +5.4740876e-01 </wgt>
<wgt id='1755'> +5.4144111e-01 </wgt>
<wgt id='1756'> +5.3909117e-01 </wgt>
<wgt id='1757'> +5.4751063e-01 </wgt>
<wgt id='1758'> +5.3231432e-01 </wgt>
<wgt id='1759'> +5.2379664e-01 </wgt>
<wgt id='1760'> +5.3418926e-01 </wgt>
<wgt id='1761'> +5.3830442e-01 </wgt>
<wgt id='1762'> +5.4050767e-01 </wgt>
<wgt id='1763'> +5.3029532e-01 </wgt>
<wgt id='1764'> +5.4567286e-01 </wgt>
<wgt id='1765'> +5.3377132e-01 </wgt>
<wgt id='1766'> +5.5258854e-01 </wgt>
<wgt id='1767'> +5.3895635e-01 </wgt>
<wgt id='1768'> +5.0474381e-01 </wgt>
<wgt id='1769'> +5.3686226e-01 </wgt>
<wgt id='1770'> +5.6627184e-01 </wgt>
<wgt id='1771'> +5.4550022e-01 </wgt>
<wgt id='1772'> +5.4425305e-01 </wgt>
<wgt id='1773'> +5.3827465e-01 </wgt>
<wgt id='1774'> +5.1152843e-01 </wgt>
<wgt id='1775'> +5.2901523e-01 </wgt>
<wgt id='1776'> +5.5169495e-01 </wgt>
<wgt id='1777'> +5.5285081e-01 </wgt>
<wgt id='1778'> +5.2707911e-01 </wgt>
<wgt id='1779'> +5.3488820e-01 </wgt>
<wgt id='1780'> +5.2974852e-01 </wgt>
<wgt id='1781'> +5.4132402e-01 </wgt>
<wgt id='1782'> +5.6550099e-01 </wgt>
<wgt id='1783'> +5.3209941e-01 </wgt>
<wgt id='1784'> +5.3816538e-01 </wgt>
<wgt id='1785'> +5.3832606e-01 </wgt>
<wgt id='1786'> +5.5402392e-01 </wgt>
<wgt id='1787'> +5.2788195e-01 </wgt>
<wgt id='1788'> +5.4041177e-01 </wgt>
<wgt id='1789'> +5.3385646e-01 </wgt>
<wgt id='1790'> +5.3270859e-01 </wgt>
<wgt id='1791'> +4.9585975e-01 </wgt>
<wgt id='1792'> +5.3349299e-01 </wgt>
<wgt id='1793'> +5.4907268e-01 </wgt>
<wgt id='1794'> +5.3378374e-01 </wgt>
<wgt id='1795'> +5.1015519e-01 </wgt>
<wgt id='1796'> +5.3456537e-01 </wgt>
<wgt id='1797'> +5.2442977e-01 </wgt>
<wgt id='1798'> +5.3345337e-01 </wgt>
<wgt id='1799'> +5.4596642e-01 </wgt>
<wgt id='1800'> +5.5282744e-01 </wgt>
<wgt id='1801'> +5.2235111e-01 </wgt>
<wgt id='1802'> +5.4500079e-01 </wgt>
<wgt id='1803'> +5.3672159e-01 </wgt>
<wgt id='1804'> +5.4681480e-01 </wgt>
<wgt id='1805'> +5.4684308e-01 </wgt>
<wgt id='1806'> +5.2369321e-01 </wgt>
<wgt id='1807'> +5.2468871e-01 </wgt>
<wgt id='1808'> +5.2527138e-01 </wgt>
<wgt id='1809'> +5.4012476e-01 </wgt>
<wgt id='1810'> +5.2703573e-01 </wgt>
<wgt id='1811'> +5.4570315e-01 </wgt>
<wgt id='1812'> +5.3259277e-01 </wgt>
<wgt id='1813'> +5.4715273e-01 </wgt>
<wgt id='1814'> +5.3378799e-01 </wgt>
<wgt id='1815'> +5.4932524e-01 </wgt>
<wgt id='1816'> +5.2611067e-01 </wgt>
<wgt id='1817'> +5.3535712e-01 </wgt>
<wgt id='1818'> +5.2765884e-01 </wgt>
<wgt id='1819'> +5.2139293e-01 </wgt>
<wgt id='1820'> +5.4114961e-01 </wgt>
<wgt id='1821'> +5.1926895e-01 </wgt>
<wgt id='1822'> +5.2966276e-01 </wgt>
<wgt id='1823'> +5.3148310e-01 </wgt>
<wgt id='1824'> +5.4622222e-01 </wgt>
<wgt id='1825'> +5.2569737e-01 </wgt>
<wgt id='1826'> +5.2572680e-01 </wgt>
<wgt id='1827'> +5.1467334e-01 </wgt>
<wgt id='1828'> +5.2395324e-01 </wgt>
<wgt id='1829'> +5.1317000e-01 </wgt>
<wgt id='1830'> +5.0677734e-01 </wgt>
<wgt id='1831'> +5.3061980e-01 </wgt>
<wgt id='1832'> +5.3226890e-01 </wgt>
<wgt id='1833'> +5.0597794e-01 </wgt>
<wgt id='1834'> +4.9041416e-01 </wgt>
<wgt id='1835'> +5.3484876e-01 </wgt>
<wgt id='1836'> +5.5804367e-01 </wgt>
<wgt id='1837'> +5.3971600e-01 </wgt>
<wgt id='1838'> +5.3891798e-01 </wgt>
<wgt id='1839'> +5.4881026e-01 </wgt>
<wgt id='1840'> +5.1599931e-01 </wgt>
<wgt id='1841'> +5.1895795e-01 </wgt>
<wgt id='1842'> +5.1952833e-01 </wgt>
<wgt id='1843'> +5.0418908e-01 </wgt>
<wgt id='1844'> +5.1196431e-01 </wgt>
<wgt id='1845'> +5.2824017e-01 </wgt>
<wgt id='1846'> +5.3448416e-01 </wgt>
<wgt id='1847'> +5.3038687e-01 </wgt>
<wgt id='1848'> +5.2898094e-01 </wgt>
<wgt id='1849'> +5.3855942e-01 </wgt>
<wgt id='1850'> +5.2563888e-01 </wgt>
<wgt id='1851'> +5.2695865e-01 </wgt>
<wgt id='1852'> +5.2864219e-01 </wgt>
<wgt id='1853'> +5.1424849e-01 </wgt>
<wgt id='1854'> +5.3761634e-01 </wgt>
<wgt id='1855'> +5.2420312e-01 </wgt>
<wgt id='1856'> +5.3034699e-01 </wgt>
<wgt id='1857'> +5.4279635e-01 </wgt>
<wgt id='1858'> +5.3065214e-01 </wgt>
<wgt id='1859'> +5.2905469e-01 </wgt>
<wgt id='1860'> +5.2672363e-01 </wgt>
<wgt id='1861'> +5.2595412e-01 </wgt>
<wgt id='1862'> +5.2524974e-01 </wgt>
<wgt id='1863'> +5.3301935e-01 </wgt>
<wgt id='1864'> +5.2225086e-01 </wgt>
<wgt id='1865'> +5.2606135e-01 </wgt>
<wgt id='1866'> +5.2689291e-01 </wgt>
<wgt id='1867'> +5.2951199e-01 </wgt>
<wgt id='1868'> +5.2146964e-01 </wgt>
<wgt id='1869'> +5.2467174e-01 </wgt>
<wgt id='1870'> +5.3043387e-01 </wgt>
<wgt id='1871'> +5.1880735e-01 </wgt>
<wgt id='1872'> +4.9979981e-01 </wgt>
<wgt id='1873'> +5.1852115e-01 </wgt>
<wgt id='1874'> +5.1905005e-01 </wgt>
<wgt id='1875'> +5.2243078e-01 </wgt>
<wgt id='1876'> +5.3758795e-01 </wgt>
<wgt id='1877'> +5.0765189e-01 </wgt>
<wgt id='1878'> +5.2308298e-01 </wgt>
<wgt id='1879'> +5.0762988e-01 </wgt>
<wgt id='1880'> +4.8366475e-01 </wgt>
<wgt id='1881'> +5.3253819e-01 </wgt>
<wgt id='1882'> +5.1301853e-01 </wgt>
<wgt id='1883'> +5.9710709e-01 </wgt>
<wgt id='1884'> +5.1104565e-01 </wgt>
<wgt id='1885'> +5.1833856e-01 </wgt>
<wgt id='1886'> +5.2544709e-01 </wgt>
<wgt id='1887'> +5.3206754e-01 </wgt>
<wgt id='1888'> +5.3015125e-01 </wgt>
<wgt id='1889'> +5.3128539e-01 </wgt>
<wgt id='1890'> +5.2874803e-01 </wgt>
<wgt id='1891'> +5.2324997e-01 </wgt>
<wgt id='1892'> +5.4378366e-01 </wgt>
<wgt id='1893'> +5.1700064e-01 </wgt>
<wgt id='1894'> +5.4147882e-01 </wgt>
<wgt id='1895'> +5.2936468e-01 </wgt>
<wgt id='1896'> +5.2877361e-01 </wgt>
<wgt id='1897'> +5.3332930e-01 </wgt>
<wgt id='1898'> +5.2957115e-01 </wgt>
<wgt id='1899'> +5.4762819e-01 </wgt>
<wgt id='1900'> +5.2548139e-01 </wgt>
<wgt id='1901'> +5.1764206e-01 </wgt>
<wgt id='1902'> +5.1960317e-01 </wgt>
<wgt id='1903'> +5.2875244e-01 </wgt>
<wgt id='1904'> +5.2057414e-01 </wgt>
<wgt id='1905'> +5.2285814e-01 </wgt>
<wgt id='1906'> +5.1944244e-01 </wgt>
<wgt id='1907'> +5.3799499e-01 </wgt>
<wgt id='1908'> +5.4303946e-01 </wgt>
<wgt id='1909'> +5.2028553e-01 </wgt>
<wgt id='1910'> +5.4020601e-01 </wgt>
<wgt id='1911'> +4.9510186e-01 </wgt>
<wgt id='1912'> +5.3501812e-01 </wgt>
<wgt id='1913'> +5.1153615e-01 </wgt>
<wgt id='1914'> +5.2827687e-01 </wgt>
<wgt id='1915'> +5.2841246e-01 </wgt>
<wgt id='1916'> +5.0784199e-01 </wgt>
<wgt id='1917'> +5.0594264e-01 </wgt>
<wgt id='1918'> +5.4549513e-01 </wgt>
<wgt id='1919'> +5.2611067e-01 </wgt>
<wgt id='1920'> +5.3535712e-01 </wgt>
<wgt id='1921'> +5.2765884e-01 </wgt>
<wgt id='1922'> +5.2139293e-01 </wgt>
<wgt id='1923'> +5.4114961e-01 </wgt>
<wgt id='1924'> +5.1926895e-01 </wgt>
<wgt id='1925'> +5.2966276e-01 </wgt>
<wgt id='1926'> +5.3148310e-01 </wgt>
<wgt id='1927'> +5.4622222e-01 </wgt>
<wgt id='1928'> +5.2569737e-01 </wgt>
<wgt id='1929'> +5.2572680e-01 </wgt>
<wgt id='1930'> +5.1467334e-01 </wgt>
<wgt id='1931'> +5.2395324e-01 </wgt>
<wgt id='1932'> +5.1317000e-01 </wgt>
<wgt id='1933'> +5.0677734e-01 </wgt>
<wgt id='1934'> +5.3061980e-01 </wgt>
<wgt id='1935'> +5.3226890e-01 </wgt>
<wgt id='1936'> +5.0597794e-01 </wgt>
<wgt id='1937'> +4.9041416e-01 </wgt>
<wgt id='1938'> +5.3484876e-01 </wgt>
<wgt id='1939'> +5.5804367e-01 </wgt>
<wgt id='1940'> +5.3971600e-01 </wgt>
<wgt id='1941'> +5.3891798e-01 </wgt>
<wgt id='1942'> +5.4881026e-01 </wgt>
<wgt id='1943'> +5.1599931e-01 </wgt>
<wgt id='1944'> +5.1895795e-01 </wgt>
<wgt id='1945'> +5.1952833e-01 </wgt>
<wgt id='1946'> +5.0418908e-01 </wgt>
<wgt id='1947'> +5.1196431e-01 </wgt>
<wgt id='1948'> +5.2824017e-01 </wgt>
<wgt id='1949'> +5.3448416e-01 </wgt>
<wgt id='1950'> +5.3038687e-01 </wgt>
<wgt id='1951'> +5.2898094e-01 </wgt>
<wgt id='1952'> +5.3855942e-01 </wgt>
<wgt id='1953'> +5.2563888e-01 </wgt>
<wgt id='1954'> +5.2695865e-01 </wgt>
<wgt id='1955'> +5.2864219e-01 </wgt>
<wgt id='1956'> +5.1424849e-01 </wgt>
<wgt id='1957'> +5.3761634e-01 </wgt>
<wgt id='1958'> +5.2420312e-01 </wgt>
<wgt id='1959'> +5.3034699e-01 </wgt>
<wgt id='1960'> +5.4279635e-01 </wgt>
<wgt id='1961'> +5.3065214e-01 </wgt>
<wgt id='1962'> +5.2905469e-01 </wgt>
<wgt id='1963'> +5.2672363e-01 </wgt>
<wgt id='1964'> +5.2595412e-01 </wgt>
<wgt id='1965'> +5.2524974e-01 </wgt>
<wgt id='1966'> +5.3301935e-01 </wgt>
<wgt id='1967'> +5.2225086e-01 </wgt>
<wgt id='1968'> +5.2606135e-01 </wgt>
<wgt id='1969'> +5.2689291e-01 </wgt>
<wgt id='1970'> +5.2951199e-01 </wgt>
<wgt id='1971'> +5.2146964e-01 </wgt>
<wgt id='1972'> +5.2467174e-01 </wgt>
<wgt id='1973'> +5.3043387e-01 </wgt>
<wgt id='1974'> +5.1880735e-01 </wgt>
<wgt id='1975'> +4.9979981e-01 </wgt>
<wgt id='1976'> +5.1852115e-01 </wgt>
<wgt id='1977'> +5.1905005e-01 </wgt>
<wgt id='1978'> +5.2243078e-01 </wgt>
<wgt id='1979'> +5.3758795e-01 </wgt>
<wgt id='1980'> +5.0765189e-01 </wgt>
<wgt id='1981'> +5.2308298e-01 </wgt>
<wgt id='1982'> +5.0762988e-01 </wgt>
<wgt id='1983'> +4.8366475e-01 </wgt>
<wgt id='1984'> +5.3253819e-01 </wgt>
<wgt id='1985'> +5.1301853e-01 </wgt>
<wgt id='1986'> +5.9710709e-01 </wgt>
<wgt id='1987'> +5.1104565e-01 </wgt>
<wgt id='1988'> +5.1833856e-01 </wgt>
<wgt id='1989'> +5.2544709e-01 </wgt>
<wgt id='1990'> +5.3206754e-01 </wgt>
<wgt id='1991'> +5.3015125e-01 </wgt>
<wgt id='1992'> +5.3128539e-01 </wgt>
<wgt id='1993'> +5.2874803e-01 </wgt>
<wgt id='1994'> +5.2324997e-01 </wgt>
<wgt id='1995'> +5.4378366e-01 </wgt>
<wgt id='1996'> +5.1700064e-01 </wgt>
<wgt id='1997'> +5.4147882e-01 </wgt>
<wgt id='1998'> +5.2936468e-01 </wgt>
<wgt id='1999'> +5.2877361e-01 </wgt>
<wgt id='2000'> +5.3332930e-01 </wgt>
<wgt id='2001'> +5.2957115e-01 </wgt>
<wgt id='2002'> +5.4762819e-01 </wgt>
<wgt id='2003'> +5.2548139e-01 </wgt>
<wgt id='2004'> +5.1764206e-01 </wgt>
<wgt id='2005'> +5.1960317e-01 </wgt>
<wgt id='2006'> +5.2875244e-01 </wgt>
<wgt id='2007'> +5.2057414e-01 </wgt>
<wgt id='2008'> +5.2285814e-01 </wgt>
<wgt id='2009'> +5.1944244e-01 </wgt>
<wgt id='2010'> +5.3799499e-01 </wgt>
<wgt id='2011'> +5.4303946e-01 </wgt>
<wgt id='2012'> +5.2028553e-01 </wgt>
<wgt id='2013'> +5.4020601e-01 </wgt>
<wgt id='2014'> +4.9510186e-01 </wgt>
<wgt id='2015'> +5.3501812e-01 </wgt>
<wgt id='2016'> +5.1153615e-01 </wgt>
<wgt id='2017'> +5.2827687e-01 </wgt>
<wgt id='2018'> +5.2841246e-01 </wgt>
<wgt id='2019'> +5.0784199e-01 </wgt>
<wgt id='2020'> +5.2460899e-01 </wgt>
<wgt id='2021'> +5.2745999e-01 </wgt>
<wgt id='2022'> +5.2645045e-01 </wgt>
</rwgt>
</event>
<event>
 13 1 0.0079112 1.66077300e+02 7.81860800e-03 1.08512300e-01
        2 -1    0    0  501    0 +0.0000000000e+00 +0.0000000000e+00 +4.9844157550e+03 4.9844157550e+03 2.5500000000e-03 0.0000e+00 -1.0000e+00
       21 -1    0    0  502  503 +0.0000000000e+00 +0.0000000000e+00 -5.9782355661e+02 5.9782355661e+02 0.0000000000e+00 0.0000e+00 -1.0000e+00
  8000001  2    1    2  502    0 -1.1492561065e+02 +2.1948122823e+01 -3.5878051770e+02 7.0881104758e+02 6.0000002102e+02 0.0000e+00 0.0000e+00
        1  1    1    2  501    0 +7.2209137140e+01 -3.7070594064e+01 +4.8009110722e+03 4.8015971834e+03 5.0400000000e-03 0.0000e+00 -1.0000e+00
       -5  1    1    2    0  503 +4.2716473511e+01 +1.5122471241e+01 -5.5538356108e+01 7.1831080637e+01 4.6700000000e+00 0.0000e+00 1.0000e+00
        6  2    3    3  502    0 +7.0593434385e+01 +2.4427898638e+02 -1.7375649779e+02 3.5330900030e+02 1.7314812447e+02 0.0000e+00 0.0000e+00
        5  1    6    6  502    0 -2.4070944259e+01 +1.5237881421e+02 -8.7178079091e+01 1.7725839826e+02 4.6700000000e+00 0.0000e+00 -1.0000e+00
       24  2    6    6    0    0 +9.4664378644e+01 +9.1900172166e+01 -8.6578418697e+01 1.7605060204e+02 7.8044895205e+01 0.0000e+00 0.0000e+00
        4  1    8    8  504    0 +1.0140889129e+02 +9.8529899146e+01 -7.2003329469e+01 1.5867575938e+02 1.2700000000e+00 0.0000e+00 -1.0000e+00
       -3  1    8    8    0  504 -6.7445126501e+00 -6.6297269795e+00 -1.4575089227e+01 1.7374842667e+01 1.0100000000e-01 0.0000e+00 1.0000e+00
       23  2    3    3    0    0 -1.8551904504e+02 -2.2233086356e+02 -1.8502401991e+02 3.5550204728e+02 9.1101529704e+01 0.0000e+00 0.0000e+00
       12  1   11   11    0    0 -1.4044355578e+02 -1.3861231425e+02 -1.6747120527e+02 2.5881338956e+02 0.0000000000e+00 0.0000e+00 -1.0000e+00
      -12  1   11   11    0    0 -4.5075489259e+01 -8.3718549306e+01 -1.7552814645e+01 9.6688657721e+01 0.0000000000e+00 0.0000e+00 1.0000e+00
<mgrwt>
<rscale>  1 0.11611903e+03</rscale>
<asrwt>0</asrwt>
<pdfrwt beam="1">  1       21 0.91972858e-01 0.16607734e+03</pdfrwt>
<pdfrwt beam="2">  1        2 0.76683317e+00 0.81188862e+02</pdfrwt>
<totfact> 0.96331189e-01</totfact>
</mgrwt>
<rwgt>
<wgt id='1001'> +5.2878984e-01 </wgt>
<wgt id='1002'> +2.2930026e-01 </wgt>
<wgt id='1003'> +2.2928049e-01 </wgt>
<wgt id='1004'> +3.0162264e-01 </wgt>
<wgt id='1005'> +1.3270763e-01 </wgt>
<wgt id='1006'> +4.7847122e-01 </wgt>
<wgt id='1007'> +2.1203102e-01 </wgt>
<wgt id='1008'> +2.1201318e-01 </wgt>
<wgt id='1009'> +2.7696766e-01 </wgt>
<wgt id='1010'> +1.2421176e-01 </wgt>
<wgt id='1011'> +5.9137110e-01 </wgt>
<wgt id='1012'> +2.4971263e-01 </wgt>
<wgt id='1013'> +2.4969049e-01 </wgt>
<wgt id='1014'> +3.3124162e-01 </wgt>
<wgt id='1015'> +1.4247819e-01 </wgt>
<wgt id='1016'> +4.2250803e-01 </wgt>
<wgt id='1017'> +1.9236663e-01 </wgt>
<wgt id='1018'> +1.9235101e-01 </wgt>
<wgt id='1019'> +2.4969049e-01 </wgt>
<wgt id='1020'> +1.1417679e-01 </wgt>
<wgt id='1021'> +3.8230298e-01 </wgt>
<wgt id='1022'> +1.7787896e-01 </wgt>
<wgt id='1023'> +1.7786489e-01 </wgt>
<wgt id='1024'> +2.2928049e-01 </wgt>
<wgt id='1025'> +1.0686726e-01 </wgt>
<wgt id='1026'> +4.7251105e-01 </wgt>
<wgt id='1027'> +2.0949115e-01 </wgt>
<wgt id='1028'> +2.0947363e-01 </wgt>
<wgt id='1029'> +2.7420979e-01 </wgt>
<wgt id='1030'> +1.2258302e-01 </wgt>
<wgt id='1031'> +6.7801064e-01 </wgt>
<wgt id='1032'> +2.7699268e-01 </wgt>
<wgt id='1033'> +2.7696766e-01 </wgt>
<wgt id='1034'> +3.7056106e-01 </wgt>
<wgt id='1035'> +1.5582902e-01 </wgt>
<wgt id='1036'> +6.1349246e-01 </wgt>
<wgt id='1037'> +2.5613159e-01 </wgt>
<wgt id='1038'> +2.5610898e-01 </wgt>
<wgt id='1039'> +3.4027096e-01 </wgt>
<wgt id='1040'> +1.4585294e-01 </wgt>
<wgt id='1041'> +7.5825190e-01 </wgt>
<wgt id='1042'> +3.0165064e-01 </wgt>
<wgt id='1043'> +3.0162264e-01 </wgt>
<wgt id='1044'> +4.0694970e-01 </wgt>
<wgt id='1045'> +1.6730189e-01 </wgt>
<wgt id='1046'> +5.2878984e-01 </wgt>
<wgt id='1047'> +5.2878984e-01 </wgt>
<wgt id='1048'> +5.2878984e-01 </wgt>
<wgt id='1049'> +5.3675725e-01 </wgt>
<wgt id='1050'> +5.0909345e-01 </wgt>
<wgt id='1051'> +5.3494978e-01 </wgt>
<wgt id='1052'> +5.3028361e-01 </wgt>
<wgt id='1053'> +5.5681317e-01 </wgt>
<wgt id='1054'> +5.5878617e-01 </wgt>
<wgt id='1055'> +5.0630576e-01 </wgt>
<wgt id='1056'> +4.9763841e-01 </wgt>
<wgt id='1057'> +5.2232050e-01 </wgt>
<wgt id='1058'> +5.4349474e-01 </wgt>
<wgt id='1059'> +5.3555774e-01 </wgt>
<wgt id='1060'> +5.5293301e-01 </wgt>
<wgt id='1061'> +5.2415895e-01 </wgt>
<wgt id='1062'> +5.3877603e-01 </wgt>
<wgt id='1063'> +4.8557996e-01 </wgt>
<wgt id='1064'> +5.2873939e-01 </wgt>
<wgt id='1065'> +5.3247484e-01 </wgt>
<wgt id='1066'> +5.0820210e-01 </wgt>
<wgt id='1067'> +5.1840964e-01 </wgt>
<wgt id='1068'> +4.9411635e-01 </wgt>
<wgt id='1069'> +5.5520198e-01 </wgt>
<wgt id='1070'> +5.5981883e-01 </wgt>
<wgt id='1071'> +5.2711190e-01 </wgt>
<wgt id='1072'> +4.9567769e-01 </wgt>
<wgt id='1073'> +4.8267550e-01 </wgt>
<wgt id='1074'> +5.7343672e-01 </wgt>
<wgt id='1075'> +5.2393109e-01 </wgt>
<wgt id='1076'> +5.3835224e-01 </wgt>
<wgt id='1077'> +5.2876748e-01 </wgt>
<wgt id='1078'> +5.1155680e-01 </wgt>
<wgt id='1079'> +6.0483375e-01 </wgt>
<wgt id='1080'> +5.0018404e-01 </wgt>
<wgt id='1081'> +5.1172703e-01 </wgt>
<wgt id='1082'> +5.3257003e-01 </wgt>
<wgt id='1083'> +5.8086657e-01 </wgt>
<wgt id='1084'> +4.7966140e-01 </wgt>
<wgt id='1085'> +5.6411921e-01 </wgt>
<wgt id='1086'> +5.6020524e-01 </wgt>
<wgt id='1087'> +5.8280269e-01 </wgt>
<wgt id='1088'> +5.3958571e-01 </wgt>
<wgt id='1089'> +5.0699401e-01 </wgt>
<wgt id='1090'> +5.4568327e-01 </wgt>
<wgt id='1091'> +5.2043084e-01 </wgt>
<wgt id='1092'> +4.9667130e-01 </wgt>
<wgt id='1093'> +4.8429080e-01 </wgt>
<wgt id='1094'> +4.9901611e-01 </wgt>
<wgt id='1095'> +5.6381877e-01 </wgt>
<wgt id='1096'> +5.7233379e-01 </wgt>
<wgt id='1097'> +5.2680245e-01 </wgt>
<wgt id='1098'> +5.5533326e-01 </wgt>
<wgt id='1099'> +5.4973072e-01 </wgt>
<wgt id='1100'> +5.5851664e-01 </wgt>
<wgt id='1101'> +5.5325103e-01 </wgt>
<wgt id='1102'> +5.2699077e-01 </wgt>
<wgt id='1103'> +4.8957522e-01 </wgt>
<wgt id='1104'> +5.3507151e-01 </wgt>
<wgt id='1105'> +4.9089515e-01 </wgt>
<wgt id='1106'> +5.5106326e-01 </wgt>
<wgt id='1107'> +5.2523961e-01 </wgt>
<wgt id='1108'> +5.4113031e-01 </wgt>
<wgt id='1109'> +5.1420529e-01 </wgt>
<wgt id='1110'> +5.5178281e-01 </wgt>
<wgt id='1111'> +5.2016673e-01 </wgt>
<wgt id='1112'> +5.2243636e-01 </wgt>
<wgt id='1113'> +5.4143508e-01 </wgt>
<wgt id='1114'> +5.1494171e-01 </wgt>
<wgt id='1115'> +5.5063240e-01 </wgt>
<wgt id='1116'> +5.2778064e-01 </wgt>
<wgt id='1117'> +5.1064642e-01 </wgt>
<wgt id='1118'> +5.0264639e-01 </wgt>
<wgt id='1119'> +5.3968164e-01 </wgt>
<wgt id='1120'> +5.3877811e-01 </wgt>
<wgt id='1121'> +5.4218333e-01 </wgt>
<wgt id='1122'> +5.3480392e-01 </wgt>
<wgt id='1123'> +5.2695594e-01 </wgt>
<wgt id='1124'> +5.3900228e-01 </wgt>
<wgt id='1125'> +5.5729752e-01 </wgt>
<wgt id='1126'> +5.3696456e-01 </wgt>
<wgt id='1127'> +5.2007392e-01 </wgt>
<wgt id='1128'> +5.2841671e-01 </wgt>
<wgt id='1129'> +5.4177378e-01 </wgt>
<wgt id='1130'> +5.3301370e-01 </wgt>
<wgt id='1131'> +5.3444510e-01 </wgt>
<wgt id='1132'> +5.2253114e-01 </wgt>
<wgt id='1133'> +5.4011520e-01 </wgt>
<wgt id='1134'> +5.2221794e-01 </wgt>
<wgt id='1135'> +5.3507905e-01 </wgt>
<wgt id='1136'> +5.2185253e-01 </wgt>
<wgt id='1137'> +5.3103882e-01 </wgt>
<wgt id='1138'> +5.3016170e-01 </wgt>
<wgt id='1139'> +5.2593628e-01 </wgt>
<wgt id='1140'> +5.3003694e-01 </wgt>
<wgt id='1141'> +5.2544528e-01 </wgt>
<wgt id='1142'> +5.3635898e-01 </wgt>
<wgt id='1143'> +5.2863089e-01 </wgt>
<wgt id='1144'> +5.3438429e-01 </wgt>
<wgt id='1145'> +5.2270314e-01 </wgt>
<wgt id='1146'> +5.2984432e-01 </wgt>
<wgt id='1147'> +5.2674628e-01 </wgt>
<wgt id='1148'> +5.2878984e-01 </wgt>
<wgt id='1149'> +4.4245728e-01 </wgt>
<wgt id='1150'> +6.5220884e-01 </wgt>
<wgt id='1151'> +3.7335178e-01 </wgt>
<wgt id='1152'> +4.4611105e-01 </wgt>
<wgt id='1153'> +2.2251293e-01 </wgt>
<wgt id='1154'> +3.6429811e-01 </wgt>
<wgt id='1155'> +3.8498149e-01 </wgt>
<wgt id='1156'> +5.0954173e-01 </wgt>
<wgt id='1157'> +2.3774987e-01 </wgt>
<wgt id='1158'> +6.7112474e-01 </wgt>
<wgt id='1159'> +1.0429002e-01 </wgt>
<wgt id='1160'> +1.2535042e-01 </wgt>
<wgt id='1161'> +5.8794366e-01 </wgt>
<wgt id='1162'> -1.0140578e-01 </wgt>
<wgt id='1163'> +6.0102692e-01 </wgt>
<wgt id='1164'> +6.7060989e-01 </wgt>
<wgt id='1165'> +5.4539882e-01 </wgt>
<wgt id='1166'> +2.7656308e-01 </wgt>
<wgt id='1167'> +5.0306087e-01 </wgt>
<wgt id='1168'> +5.7004418e-01 </wgt>
<wgt id='1169'> +4.3814454e-01 </wgt>
<wgt id='1170'> +6.0350528e-01 </wgt>
<wgt id='1171'> +7.2426250e-01 </wgt>
<wgt id='1172'> +5.0465321e-01 </wgt>
<wgt id='1173'> +4.7398334e-01 </wgt>
<wgt id='1174'> +5.4893868e-01 </wgt>
<wgt id='1175'> +6.0623634e-01 </wgt>
<wgt id='1176'> +4.9914189e-01 </wgt>
<wgt id='1177'> +4.3636024e-01 </wgt>
<wgt id='1178'> +2.4309046e-01 </wgt>
<wgt id='1179'> +2.8631939e-01 </wgt>
<wgt id='1180'> +4.5203050e-01 </wgt>
<wgt id='1181'> +4.1117230e-01 </wgt>
<wgt id='1182'> +6.0335629e-01 </wgt>
<wgt id='1183'> +2.8138254e-01 </wgt>
<wgt id='1184'> +4.4424899e-01 </wgt>
<wgt id='1185'> +5.4129761e-01 </wgt>
<wgt id='1186'> +5.4768245e-01 </wgt>
<wgt id='1187'> +6.1935602e-01 </wgt>
<wgt id='1188'> +5.6126459e-01 </wgt>
<wgt id='1189'> +5.0384075e-01 </wgt>
<wgt id='1190'> +6.7243795e-01 </wgt>
<wgt id='1191'> +5.0733281e-01 </wgt>
<wgt id='1192'> +4.1056666e-01 </wgt>
<wgt id='1193'> +4.5724161e-01 </wgt>
<wgt id='1194'> +2.6237660e-02 </wgt>
<wgt id='1195'> +5.6442945e-01 </wgt>
<wgt id='1196'> +2.9755409e-01 </wgt>
<wgt id='1197'> +7.1597299e-01 </wgt>
<wgt id='1198'> +8.9293303e-02 </wgt>
<wgt id='1199'> +5.9823864e-01 </wgt>
<wgt id='1200'> +7.7343897e-01 </wgt>
<wgt id='1201'> +5.0950764e-01 </wgt>
<wgt id='1202'> +4.6242648e-01 </wgt>
<wgt id='1203'> +9.4269084e-01 </wgt>
<wgt id='1204'> +4.7600617e-01 </wgt>
<wgt id='1205'> +4.9578705e-01 </wgt>
<wgt id='1206'> +3.8772680e-01 </wgt>
<wgt id='1207'> +5.9112174e-01 </wgt>
<wgt id='1208'> +5.0575746e-01 </wgt>
<wgt id='1209'> +9.1418001e-01 </wgt>
<wgt id='1210'> +4.2268535e-01 </wgt>
<wgt id='1211'> +7.0909368e-01 </wgt>
<wgt id='1212'> +2.2750765e-01 </wgt>
<wgt id='1213'> +4.0504346e-01 </wgt>
<wgt id='1214'> +5.2004606e-01 </wgt>
<wgt id='1215'> +5.9901301e-01 </wgt>
<wgt id='1216'> +3.1248868e-01 </wgt>
<wgt id='1217'> +1.4157227e-01 </wgt>
<wgt id='1218'> +4.5957188e-01 </wgt>
<wgt id='1219'> +3.7560078e-01 </wgt>
<wgt id='1220'> +4.7262876e-01 </wgt>
<wgt id='1221'> +2.0661576e-01 </wgt>
<wgt id='1222'> +1.8196726e-01 </wgt>
<wgt id='1223'> +4.7715888e-01 </wgt>
<wgt id='1224'> +4.8715057e-01 </wgt>
<wgt id='1225'> +4.6012031e-01 </wgt>
<wgt id='1226'> +2.1592310e-01 </wgt>
<wgt id='1227'> +3.2434873e-01 </wgt>
<wgt id='1228'> +5.4089123e-01 </wgt>
<wgt id='1229'> +3.6416570e-01 </wgt>
<wgt id='1230'> +3.9080606e-01 </wgt>
<wgt id='1231'> +5.4539882e-01 </wgt>
<wgt id='1232'> +5.0012978e-01 </wgt>
<wgt id='1233'> +3.2824261e-01 </wgt>
<wgt id='1234'> +3.7123122e-01 </wgt>
<wgt id='1235'> +5.9317515e-01 </wgt>
<wgt id='1236'> +2.4218107e-01 </wgt>
<wgt id='1237'> -8.5386889e-02 </wgt>
<wgt id='1238'> +7.1833030e-01 </wgt>
<wgt id='1239'> +7.7500415e-02 </wgt>
<wgt id='1240'> +3.5140696e-01 </wgt>
<wgt id='1241'> +5.3662306e-01 </wgt>
<wgt id='1242'> +4.9622382e-01 </wgt>
<wgt id='1243'> +5.6764449e-01 </wgt>
<wgt id='1244'> +2.6888705e-01 </wgt>
<wgt id='1245'> +4.7881209e-01 </wgt>
<wgt id='1246'> +8.0785633e-01 </wgt>
<wgt id='1247'> +6.1954943e-02 </wgt>
<wgt id='1248'> +3.9072141e-01 </wgt>
<wgt id='1249'> +2.0782781e-01 </wgt>
<wgt id='1250'> +4.6931820e-01 </wgt>
<wgt id='1251'> +4.5218590e-01 </wgt>
<wgt id='1252'> +4.3713188e-01 </wgt>
<wgt id='1253'> +4.7553615e-01 </wgt>
<wgt id='1254'> +6.3389543e-01 </wgt>
<wgt id='1255'> +6.0700482e-01 </wgt>
<wgt id='1256'> +6.1504848e-01 </wgt>
<wgt id='1257'> +6.0243344e-01 </wgt>
<wgt id='1258'> +6.0616691e-01 </wgt>
<wgt id='1259'> +6.0740129e-01 </wgt>
<wgt id='1260'> +6.0950340e-01 </wgt>
<wgt id='1261'> +6.0374561e-01 </wgt>
<wgt id='1262'> +6.0886505e-01 </wgt>
<wgt id='1263'> +6.0582972e-01 </wgt>
<wgt id='1264'> +6.0786454e-01 </wgt>
<wgt id='1265'> +6.0643728e-01 </wgt>
<wgt id='1266'> +6.0626532e-01 </wgt>
<wgt id='1267'> +6.0777575e-01 </wgt>
<wgt id='1268'> +5.9897453e-01 </wgt>
<wgt id='1269'> +6.1471362e-01 </wgt>
<wgt id='1270'> +5.9222403e-01 </wgt>
<wgt id='1271'> +6.2465184e-01 </wgt>
<wgt id='1272'> +6.1327581e-01 </wgt>
<wgt id='1273'> +6.0230283e-01 </wgt>
<wgt id='1274'> +6.1128280e-01 </wgt>
<wgt id='1275'> +6.0168495e-01 </wgt>
<wgt id='1276'> +6.0922981e-01 </wgt>
<wgt id='1277'> +6.0493864e-01 </wgt>
<wgt id='1278'> +6.0659333e-01 </wgt>
<wgt id='1279'> +6.0717287e-01 </wgt>
<wgt id='1280'> +6.0629691e-01 </wgt>
<wgt id='1281'> +6.1119089e-01 </wgt>
<wgt id='1282'> +6.1523183e-01 </wgt>
<wgt id='1283'> +5.9970141e-01 </wgt>
<wgt id='1284'> +6.1998047e-01 </wgt>
<wgt id='1285'> +5.9537407e-01 </wgt>
<wgt id='1286'> +5.9515951e-01 </wgt>
<wgt id='1287'> +6.0847232e-01 </wgt>
<wgt id='1288'> +6.0765622e-01 </wgt>
<wgt id='1289'> +6.0670843e-01 </wgt>
<wgt id='1290'> +6.0536411e-01 </wgt>
<wgt id='1291'> +6.0758976e-01 </wgt>
<wgt id='1292'> +6.0975835e-01 </wgt>
<wgt id='1293'> +6.0351632e-01 </wgt>
<wgt id='1294'> +6.0873777e-01 </wgt>
<wgt id='1295'> +6.0379042e-01 </wgt>
<wgt id='1296'> +4.5737430e-01 </wgt>
<wgt id='1297'> +4.5875056e-01 </wgt>
<wgt id='1298'> +4.5628043e-01 </wgt>
<wgt id='1299'> +4.5387481e-01 </wgt>
<wgt id='1300'> +4.6120796e-01 </wgt>
<wgt id='1301'> +4.5539843e-01 </wgt>
<wgt id='1302'> +4.6029067e-01 </wgt>
<wgt id='1303'> +4.5687100e-01 </wgt>
<wgt id='1304'> +4.5767071e-01 </wgt>
<wgt id='1305'> +4.5828923e-01 </wgt>
<wgt id='1306'> +4.5604525e-01 </wgt>
<wgt id='1307'> +4.6230027e-01 </wgt>
<wgt id='1308'> +4.5434962e-01 </wgt>
<wgt id='1309'> +4.5713863e-01 </wgt>
<wgt id='1310'> +4.5766319e-01 </wgt>
<wgt id='1311'> +4.4580930e-01 </wgt>
<wgt id='1312'> +4.6149235e-01 </wgt>
<wgt id='1313'> +4.5163929e-01 </wgt>
<wgt id='1314'> +4.6452802e-01 </wgt>
<wgt id='1315'> +4.5262551e-01 </wgt>
<wgt id='1316'> +4.6193463e-01 </wgt>
<wgt id='1317'> +4.6097611e-01 </wgt>
<wgt id='1318'> +4.5101508e-01 </wgt>
<wgt id='1319'> +4.5935669e-01 </wgt>
<wgt id='1320'> +4.5621349e-01 </wgt>
<wgt id='1321'> +4.5628628e-01 </wgt>
<wgt id='1322'> +4.5787844e-01 </wgt>
<wgt id='1323'> +4.6345861e-01 </wgt>
<wgt id='1324'> +4.5116158e-01 </wgt>
<wgt id='1325'> +4.5526569e-01 </wgt>
<wgt id='1326'> +4.6083128e-01 </wgt>
<wgt id='1327'> +4.5760531e-01 </wgt>
<wgt id='1328'> +4.5723571e-01 </wgt>
<wgt id='1329'> +4.5830315e-01 </wgt>
<wgt id='1330'> +4.5679117e-01 </wgt>
<wgt id='1331'> +4.5287118e-01 </wgt>
<wgt id='1332'> +4.6163849e-01 </wgt>
<wgt id='1333'> +4.5657606e-01 </wgt>
<wgt id='1334'> +4.6105823e-01 </wgt>
<wgt id='1335'> +4.5395179e-01 </wgt>
<wgt id='1336'> +4.5844437e-01 </wgt>
<wgt id='1337'> +4.5737430e-01 </wgt>
<wgt id='1338'> +4.5853570e-01 </wgt>
<wgt id='1339'> +4.5809728e-01 </wgt>
<wgt id='1340'> +4.5775756e-01 </wgt>
<wgt id='1341'> +4.5707657e-01 </wgt>
<wgt id='1342'> +4.5695844e-01 </wgt>
<wgt id='1343'> +4.5675706e-01 </wgt>
<wgt id='1344'> +4.1780355e-01 </wgt>
<wgt id='1345'> +4.2006669e-01 </wgt>
<wgt id='1346'> +4.1553837e-01 </wgt>
<wgt id='1347'> +4.2364192e-01 </wgt>
<wgt id='1348'> +4.1353852e-01 </wgt>
<wgt id='1349'> +4.1672108e-01 </wgt>
<wgt id='1350'> +4.1869163e-01 </wgt>
<wgt id='1351'> +4.1782284e-01 </wgt>
<wgt id='1352'> +4.1776563e-01 </wgt>
<wgt id='1353'> +4.1972945e-01 </wgt>
<wgt id='1354'> +4.1645359e-01 </wgt>
<wgt id='1355'> +4.1744949e-01 </wgt>
<wgt id='1356'> +4.1805769e-01 </wgt>
<wgt id='1357'> +4.2208420e-01 </wgt>
<wgt id='1358'> +4.1523477e-01 </wgt>
<wgt id='1359'> +4.2164880e-01 </wgt>
<wgt id='1360'> +4.0784173e-01 </wgt>
<wgt id='1361'> +4.0800589e-01 </wgt>
<wgt id='1362'> +4.2604868e-01 </wgt>
<wgt id='1363'> +4.2165709e-01 </wgt>
<wgt id='1364'> +4.1315441e-01 </wgt>
<wgt id='1365'> +4.2200021e-01 </wgt>
<wgt id='1366'> +4.1603634e-01 </wgt>
<wgt id='1367'> +4.1620619e-01 </wgt>
<wgt id='1368'> +4.1855628e-01 </wgt>
<wgt id='1369'> +4.1887659e-01 </wgt>
<wgt id='1370'> +4.1696060e-01 </wgt>
<wgt id='1371'> +4.1408166e-01 </wgt>
<wgt id='1372'> +4.2296414e-01 </wgt>
<wgt id='1373'> +4.1932941e-01 </wgt>
<wgt id='1374'> +4.1792785e-01 </wgt>
<wgt id='1375'> +4.1906375e-01 </wgt>
<wgt id='1376'> +4.1747262e-01 </wgt>
<wgt id='1377'> +4.1758874e-01 </wgt>
<wgt id='1378'> +4.1822300e-01 </wgt>
<wgt id='1379'> +4.2417107e-01 </wgt>
<wgt id='1380'> +4.1422273e-01 </wgt>
<wgt id='1381'> +4.1868303e-01 </wgt>
<wgt id='1382'> +4.1843236e-01 </wgt>
<wgt id='1383'> +4.1875243e-01 </wgt>
<wgt id='1384'> +4.1435187e-01 </wgt>
<wgt id='1385'> +4.1780355e-01 </wgt>
<wgt id='1386'> +4.1938102e-01 </wgt>
<wgt id='1387'> +4.1874019e-01 </wgt>
<wgt id='1388'> +4.1817963e-01 </wgt>
<wgt id='1389'> +4.1741239e-01 </wgt>
<wgt id='1390'> +4.1713714e-01 </wgt>
<wgt id='1391'> +4.1695352e-01 </wgt>
<wgt id='1392'> +4.7081021e-01 </wgt>
<wgt id='1393'> +4.7102427e-01 </wgt>
<wgt id='1394'> +4.7058239e-01 </wgt>
<wgt id='1395'> +4.7108159e-01 </wgt>
<wgt id='1396'> +4.7061956e-01 </wgt>
<wgt id='1397'> +4.7315744e-01 </wgt>
<wgt id='1398'> +4.6854374e-01 </wgt>
<wgt id='1399'> +4.7504419e-01 </wgt>
<wgt id='1400'> +4.6563354e-01 </wgt>
<wgt id='1401'> +4.6804764e-01 </wgt>
<wgt id='1402'> +4.7422131e-01 </wgt>
<wgt id='1403'> +4.6939162e-01 </wgt>
<wgt id='1404'> +4.7364939e-01 </wgt>
<wgt id='1405'> +4.7073450e-01 </wgt>
<wgt id='1406'> +4.7091804e-01 </wgt>
<wgt id='1407'> +4.7074425e-01 </wgt>
<wgt id='1408'> +4.7085783e-01 </wgt>
<wgt id='1409'> +4.6405276e-01 </wgt>
<wgt id='1410'> +4.7844819e-01 </wgt>
<wgt id='1411'> +4.7175897e-01 </wgt>
<wgt id='1412'> +4.7009709e-01 </wgt>
<wgt id='1413'> +4.6629240e-01 </wgt>
<wgt id='1414'> +4.7564591e-01 </wgt>
<wgt id='1415'> +4.8677318e-01 </wgt>
<wgt id='1416'> +4.5563350e-01 </wgt>
<wgt id='1417'> +4.6382895e-01 </wgt>
<wgt id='1418'> +4.7950397e-01 </wgt>
<wgt id='1419'> +4.7507834e-01 </wgt>
<wgt id='1420'> +4.6693987e-01 </wgt>
<wgt id='1421'> +4.6574586e-01 </wgt>
<wgt id='1422'> +4.7668908e-01 </wgt>
<wgt id='1423'> +4.7314686e-01 </wgt>
<wgt id='1424'> +4.6967611e-01 </wgt>
<wgt id='1425'> +4.7138729e-01 </wgt>
<wgt id='1426'> +4.7008258e-01 </wgt>
<wgt id='1427'> +4.7386450e-01 </wgt>
<wgt id='1428'> +4.6548397e-01 </wgt>
<wgt id='1429'> +4.6855892e-01 </wgt>
<wgt id='1430'> +4.7262438e-01 </wgt>
<wgt id='1431'> +4.6928652e-01 </wgt>
<wgt id='1432'> +4.7233644e-01 </wgt>
<wgt id='1433'> +4.7057117e-01 </wgt>
<wgt id='1434'> +4.7127808e-01 </wgt>
<wgt id='1435'> +4.8136034e-01 </wgt>
<wgt id='1436'> +4.6296478e-01 </wgt>
<wgt id='1437'> +4.6975100e-01 </wgt>
<wgt id='1438'> +4.7376518e-01 </wgt>
<wgt id='1439'> +4.7476807e-01 </wgt>
<wgt id='1440'> +4.6659564e-01 </wgt>
<wgt id='1441'> +4.6861603e-01 </wgt>
<wgt id='1442'> +4.7202514e-01 </wgt>
<wgt id='1443'> +4.7927359e-01 </wgt>
<wgt id='1444'> +4.7949982e-01 </wgt>
<wgt id='1445'> +4.7901460e-01 </wgt>
<wgt id='1446'> +4.7957362e-01 </wgt>
<wgt id='1447'> +4.7906775e-01 </wgt>
<wgt id='1448'> +4.8185112e-01 </wgt>
<wgt id='1449'> +4.7688026e-01 </wgt>
<wgt id='1450'> +4.8346629e-01 </wgt>
<wgt id='1451'> +4.7461036e-01 </wgt>
<wgt id='1452'> +4.7665151e-01 </wgt>
<wgt id='1453'> +4.8179756e-01 </wgt>
<wgt id='1454'> +4.7775862e-01 </wgt>
<wgt id='1455'> +4.8254688e-01 </wgt>
<wgt id='1456'> +4.7930544e-01 </wgt>
<wgt id='1457'> +4.7919573e-01 </wgt>
<wgt id='1458'> +4.7925263e-01 </wgt>
<wgt id='1459'> +4.7927485e-01 </wgt>
<wgt id='1460'> +4.7278200e-01 </wgt>
<wgt id='1461'> +4.8687978e-01 </wgt>
<wgt id='1462'> +4.8178692e-01 </wgt>
<wgt id='1463'> +4.7709273e-01 </wgt>
<wgt id='1464'> +4.7565749e-01 </wgt>
<wgt id='1465'> +4.8402592e-01 </wgt>
<wgt id='1466'> +5.0316859e-01 </wgt>
<wgt id='1467'> +4.6421894e-01 </wgt>
<wgt id='1468'> +4.8486978e-01 </wgt>
<wgt id='1469'> +4.7375627e-01 </wgt>
<wgt id='1470'> +4.8313134e-01 </wgt>
<wgt id='1471'> +4.7622675e-01 </wgt>
<wgt id='1472'> +4.7456496e-01 </wgt>
<wgt id='1473'> +4.8484116e-01 </wgt>
<wgt id='1474'> +4.8094524e-01 </wgt>
<wgt id='1475'> +4.7794317e-01 </wgt>
<wgt id='1476'> +4.8005500e-01 </wgt>
<wgt id='1477'> +4.7858243e-01 </wgt>
<wgt id='1478'> +4.8201734e-01 </wgt>
<wgt id='1479'> +4.7389339e-01 </wgt>
<wgt id='1480'> +4.7537603e-01 </wgt>
<wgt id='1481'> +4.8225991e-01 </wgt>
<wgt id='1482'> +4.7816474e-01 </wgt>
<wgt id='1483'> +4.8052695e-01 </wgt>
<wgt id='1484'> +4.8056963e-01 </wgt>
<wgt id='1485'> +4.7793269e-01 </wgt>
<wgt id='1486'> +4.9046684e-01 </wgt>
<wgt id='1487'> +4.7076182e-01 </wgt>
<wgt id='1488'> +4.7849524e-01 </wgt>
<wgt id='1489'> +4.8138223e-01 </wgt>
<wgt id='1490'> +4.8453430e-01 </wgt>
<wgt id='1491'> +4.7409291e-01 </wgt>
<wgt id='1492'> +4.7741613e-01 </wgt>
<wgt id='1493'> +4.8042255e-01 </wgt>
<wgt id='1494'> +4.4942953e-01 </wgt>
<wgt id='1495'> +4.6240921e-01 </wgt>
<wgt id='1496'> +4.5791479e-01 </wgt>
<wgt id='1497'> +4.5339902e-01 </wgt>
<wgt id='1498'> +4.4452862e-01 </wgt>
<wgt id='1499'> +4.4916686e-01 </wgt>
<wgt id='1500'> +4.5241057e-01 </wgt>
<wgt id='1501'> +4.5179384e-01 </wgt>
<wgt id='1502'> +4.5138299e-01 </wgt>
<wgt id='1503'> +4.5074888e-01 </wgt>
<wgt id='1504'> +4.4994054e-01 </wgt>
<wgt id='1505'> +4.4802361e-01 </wgt>
<wgt id='1506'> +4.4716752e-01 </wgt>
<wgt id='1507'> +4.4628559e-01 </wgt>
<wgt id='1508'> +4.4916686e-01 </wgt>
<wgt id='1509'> +4.5065999e-01 </wgt>
<wgt id='1510'> +4.4986485e-01 </wgt>
<wgt id='1511'> +4.4855802e-01 </wgt>
<wgt id='1512'> +4.4777825e-01 </wgt>
<wgt id='1513'> +3.8225507e-01 </wgt>
<wgt id='1514'> +3.8224971e-01 </wgt>
<wgt id='1515'> +3.8228261e-01 </wgt>
<wgt id='1516'> +3.8305349e-01 </wgt>
<wgt id='1517'> +3.8147475e-01 </wgt>
<wgt id='1518'> +3.8298838e-01 </wgt>
<wgt id='1519'> +3.8196901e-01 </wgt>
<wgt id='1520'> +3.8701547e-01 </wgt>
<wgt id='1521'> +3.7755795e-01 </wgt>
<wgt id='1522'> +3.8112661e-01 </wgt>
<wgt id='1523'> +3.8335041e-01 </wgt>
<wgt id='1524'> +3.8700405e-01 </wgt>
<wgt id='1525'> +3.8021383e-01 </wgt>
<wgt id='1526'> +3.8257234e-01 </wgt>
<wgt id='1527'> +3.8187801e-01 </wgt>
<wgt id='1528'> +3.8178207e-01 </wgt>
<wgt id='1529'> +3.8277547e-01 </wgt>
<wgt id='1530'> +3.7899662e-01 </wgt>
<wgt id='1531'> +3.8409453e-01 </wgt>
<wgt id='1532'> +3.7771086e-01 </wgt>
<wgt id='1533'> +3.8849522e-01 </wgt>
<wgt id='1534'> +3.7949413e-01 </wgt>
<wgt id='1535'> +3.8420559e-01 </wgt>
<wgt id='1536'> +3.8999281e-01 </wgt>
<wgt id='1537'> +3.7496771e-01 </wgt>
<wgt id='1538'> +3.7602998e-01 </wgt>
<wgt id='1539'> +3.9832540e-01 </wgt>
<wgt id='1540'> +3.8652439e-01 </wgt>
<wgt id='1541'> +3.7811844e-01 </wgt>
<wgt id='1542'> +3.8402521e-01 </wgt>
<wgt id='1543'> +3.7789783e-01 </wgt>
<wgt id='1544'> +3.8478666e-01 </wgt>
<wgt id='1545'> +3.7777472e-01 </wgt>
<wgt id='1546'> +3.8332961e-01 </wgt>
<wgt id='1547'> +3.8067949e-01 </wgt>
<wgt id='1548'> +3.7857684e-01 </wgt>
<wgt id='1549'> +3.8435115e-01 </wgt>
<wgt id='1550'> +3.8354970e-01 </wgt>
<wgt id='1551'> +3.8042108e-01 </wgt>
<wgt id='1552'> +3.8103181e-01 </wgt>
<wgt id='1553'> +3.8322055e-01 </wgt>
<wgt id='1554'> +3.8123208e-01 </wgt>
<wgt id='1555'> +3.8440385e-01 </wgt>
<wgt id='1556'> +3.8436147e-01 </wgt>
<wgt id='1557'> +3.7088728e-01 </wgt>
<wgt id='1558'> +3.7968526e-01 </wgt>
<wgt id='1559'> +3.8456738e-01 </wgt>
<wgt id='1560'> +3.8450883e-01 </wgt>
<wgt id='1561'> +3.8141613e-01 </wgt>
<wgt id='1562'> +3.8260037e-01 </wgt>
<wgt id='1563'> +3.8216823e-01 </wgt>
<wgt id='1564'> +3.8225507e-01 </wgt>
<wgt id='1565'> +3.8669042e-01 </wgt>
<wgt id='1566'> +3.7875984e-01 </wgt>
<wgt id='1567'> +3.8301327e-01 </wgt>
<wgt id='1568'> +3.8583027e-01 </wgt>
<wgt id='1569'> +3.8525724e-01 </wgt>
<wgt id='1570'> +3.8476688e-01 </wgt>
<wgt id='1571'> +3.8429586e-01 </wgt>
<wgt id='1572'> +3.8365562e-01 </wgt>
<wgt id='1573'> +3.8212172e-01 </wgt>
<wgt id='1574'> +3.8121581e-01 </wgt>
<wgt id='1575'> +3.8048098e-01 </wgt>
<wgt id='1576'> +3.8301327e-01 </wgt>
<wgt id='1577'> +3.8435766e-01 </wgt>
<wgt id='1578'> +3.8362472e-01 </wgt>
<wgt id='1579'> +3.8239845e-01 </wgt>
<wgt id='1580'> +3.8194932e-01 </wgt>
<wgt id='1581'> +4.4685185e-01 </wgt>
<wgt id='1582'> +4.3524947e-01 </wgt>
<wgt id='1583'> +4.4124370e-01 </wgt>
<wgt id='1584'> +4.4437131e-01 </wgt>
<wgt id='1585'> +4.1907737e-01 </wgt>
<wgt id='1586'> +4.4202040e-01 </wgt>
<wgt id='1587'> +4.4235661e-01 </wgt>
<wgt id='1588'> +4.3497618e-01 </wgt>
<wgt id='1589'> +4.4650806e-01 </wgt>
<wgt id='1590'> +4.4896206e-01 </wgt>
<wgt id='1591'> +4.4572176e-01 </wgt>
<wgt id='1592'> +4.4056829e-01 </wgt>
<wgt id='1593'> +4.4520707e-01 </wgt>
<wgt id='1594'> +4.4222439e-01 </wgt>
<wgt id='1595'> +4.4902658e-01 </wgt>
<wgt id='1596'> +4.4600879e-01 </wgt>
<wgt id='1597'> +4.5069637e-01 </wgt>
<wgt id='1598'> +4.4137644e-01 </wgt>
<wgt id='1599'> +4.4962542e-01 </wgt>
<wgt id='1600'> +4.4243495e-01 </wgt>
<wgt id='1601'> +4.4815311e-01 </wgt>
<wgt id='1602'> +4.1639439e-01 </wgt>
<wgt id='1603'> +4.4785468e-01 </wgt>
<wgt id='1604'> +4.5145853e-01 </wgt>
<wgt id='1605'> +4.4847238e-01 </wgt>
<wgt id='1606'> +4.4660878e-01 </wgt>
<wgt id='1607'> +4.4653158e-01 </wgt>
<wgt id='1608'> +4.4393303e-01 </wgt>
<wgt id='1609'> +4.4232271e-01 </wgt>
<wgt id='1610'> +4.3832407e-01 </wgt>
<wgt id='1611'> +4.4089706e-01 </wgt>
<wgt id='1612'> +5.1527573e-01 </wgt>
<wgt id='1613'> +5.0462009e-01 </wgt>
<wgt id='1614'> +5.4087666e-01 </wgt>
<wgt id='1615'> +5.3487859e-01 </wgt>
<wgt id='1616'> +5.1820650e-01 </wgt>
<wgt id='1617'> +5.1472284e-01 </wgt>
<wgt id='1618'> +5.3150085e-01 </wgt>
<wgt id='1619'> +5.0437736e-01 </wgt>
<wgt id='1620'> +5.2461263e-01 </wgt>
<wgt id='1621'> +5.2512971e-01 </wgt>
<wgt id='1622'> +5.2531516e-01 </wgt>
<wgt id='1623'> +5.1216537e-01 </wgt>
<wgt id='1624'> +5.0344984e-01 </wgt>
<wgt id='1625'> +5.0370980e-01 </wgt>
<wgt id='1626'> +5.3892360e-01 </wgt>
<wgt id='1627'> +5.0727690e-01 </wgt>
<wgt id='1628'> +5.1686727e-01 </wgt>
<wgt id='1629'> +5.1340552e-01 </wgt>
<wgt id='1630'> +5.1890829e-01 </wgt>
<wgt id='1631'> +5.1101978e-01 </wgt>
<wgt id='1632'> +5.0128310e-01 </wgt>
<wgt id='1633'> +5.1581224e-01 </wgt>
<wgt id='1634'> +5.0809074e-01 </wgt>
<wgt id='1635'> +5.0893651e-01 </wgt>
<wgt id='1636'> +5.1707086e-01 </wgt>
<wgt id='1637'> +5.1135206e-01 </wgt>
<wgt id='1638'> +5.2293653e-01 </wgt>
<wgt id='1639'> +5.3400239e-01 </wgt>
<wgt id='1640'> +5.2179773e-01 </wgt>
<wgt id='1641'> +4.7316725e-01 </wgt>
<wgt id='1642'> +5.0740373e-01 </wgt>
<wgt id='1643'> +4.8318345e-01 </wgt>
<wgt id='1644'> +4.7462329e-01 </wgt>
<wgt id='1645'> +5.5613334e-01 </wgt>
<wgt id='1646'> +5.0571540e-01 </wgt>
<wgt id='1647'> +5.0933705e-01 </wgt>
<wgt id='1648'> +5.0908913e-01 </wgt>
<wgt id='1649'> +5.6017321e-01 </wgt>
<wgt id='1650'> +5.3273752e-01 </wgt>
<wgt id='1651'> +5.1423431e-01 </wgt>
<wgt id='1652'> +5.0231134e-01 </wgt>
<wgt id='1653'> +5.1046515e-01 </wgt>
<wgt id='1654'> +5.2118020e-01 </wgt>
<wgt id='1655'> +5.4647629e-01 </wgt>
<wgt id='1656'> +5.1370489e-01 </wgt>
<wgt id='1657'> +5.4075491e-01 </wgt>
<wgt id='1658'> +4.6112388e-01 </wgt>
<wgt id='1659'> +4.5415336e-01 </wgt>
<wgt id='1660'> +4.2361531e-01 </wgt>
<wgt id='1661'> +4.5823361e-01 </wgt>
<wgt id='1662'> +5.1909448e-01 </wgt>
<wgt id='1663'> +5.3436056e-01 </wgt>
<wgt id='1664'> +4.9057003e-01 </wgt>
<wgt id='1665'> +5.1333223e-01 </wgt>
<wgt id='1666'> +5.1298358e-01 </wgt>
<wgt id='1667'> +5.2743037e-01 </wgt>
<wgt id='1668'> +4.9486534e-01 </wgt>
<wgt id='1669'> +4.7186592e-01 </wgt>
<wgt id='1670'> +5.2106718e-01 </wgt>
<wgt id='1671'> +4.9778307e-01 </wgt>
<wgt id='1672'> +4.9696911e-01 </wgt>
<wgt id='1673'> +4.9992100e-01 </wgt>
<wgt id='1674'> +5.7364666e-01 </wgt>
<wgt id='1675'> +5.5107487e-01 </wgt>
<wgt id='1676'> +4.8379471e-01 </wgt>
<wgt id='1677'> +5.2216242e-01 </wgt>
<wgt id='1678'> +4.9497371e-01 </wgt>
<wgt id='1679'> +5.2681112e-01 </wgt>
<wgt id='1680'> +5.1321211e-01 </wgt>
<wgt id='1681'> +5.4823643e-01 </wgt>
<wgt id='1682'> +5.0285803e-01 </wgt>
<wgt id='1683'> +5.1536975e-01 </wgt>
<wgt id='1684'> +5.1151745e-01 </wgt>
<wgt id='1685'> +5.1597436e-01 </wgt>
<wgt id='1686'> +5.1852548e-01 </wgt>
<wgt id='1687'> +5.0840110e-01 </wgt>
<wgt id='1688'> +5.1286514e-01 </wgt>
<wgt id='1689'> +5.0434961e-01 </wgt>
<wgt id='1690'> +5.3386778e-01 </wgt>
<wgt id='1691'> +5.2695335e-01 </wgt>
<wgt id='1692'> +5.0846798e-01 </wgt>
<wgt id='1693'> +5.0499216e-01 </wgt>
<wgt id='1694'> +5.1808783e-01 </wgt>
<wgt id='1695'> +5.3412539e-01 </wgt>
<wgt id='1696'> +5.1927258e-01 </wgt>
<wgt id='1697'> +5.2327133e-01 </wgt>
<wgt id='1698'> +5.2765606e-01 </wgt>
<wgt id='1699'> +5.2939620e-01 </wgt>
<wgt id='1700'> +5.0440232e-01 </wgt>
<wgt id='1701'> +5.0410171e-01 </wgt>
<wgt id='1702'> +5.1913771e-01 </wgt>
<wgt id='1703'> +4.9677087e-01 </wgt>
<wgt id='1704'> +5.0852875e-01 </wgt>
<wgt id='1705'> +4.9276455e-01 </wgt>
<wgt id='1706'> +5.2018427e-01 </wgt>
<wgt id='1707'> +5.1254605e-01 </wgt>
<wgt id='1708'> +5.1175041e-01 </wgt>
<wgt id='1709'> +5.0824824e-01 </wgt>
<wgt id='1710'> +5.1543821e-01 </wgt>
<wgt id='1711'> +5.1501482e-01 </wgt>
<wgt id='1712'> +5.0687652e-01 </wgt>
<wgt id='1713'> +5.0101058e-01 </wgt>
<wgt id='1714'> +5.6519820e-01 </wgt>
<wgt id='1715'> +4.2038169e-01 </wgt>
<wgt id='1716'> +4.5817085e-01 </wgt>
<wgt id='1717'> +5.0686371e-01 </wgt>
<wgt id='1718'> +3.5977401e-01 </wgt>
<wgt id='1719'> +4.2660753e-01 </wgt>
<wgt id='1720'> +4.6930195e-01 </wgt>
<wgt id='1721'> +4.1394486e-01 </wgt>
<wgt id='1722'> +5.4187589e-01 </wgt>
<wgt id='1723'> +3.7599168e-01 </wgt>
<wgt id='1724'> +7.7034573e-01 </wgt>
<wgt id='1725'> +4.4227795e-01 </wgt>
<wgt id='1726'> +4.1549105e-01 </wgt>
<wgt id='1727'> +4.5679411e-01 </wgt>
<wgt id='1728'> +5.8358637e-02 </wgt>
<wgt id='1729'> +7.0043326e-01 </wgt>
<wgt id='1730'> -6.4791919e-02 </wgt>
<wgt id='1731'> +8.7188048e-02 </wgt>
<wgt id='1732'> +4.1364584e-01 </wgt>
<wgt id='1733'> +3.8516589e-01 </wgt>
<wgt id='1734'> +4.0975123e-01 </wgt>
<wgt id='1735'> +3.8205011e-01 </wgt>
<wgt id='1736'> +3.1576309e-01 </wgt>
<wgt id='1737'> +6.1500639e-01 </wgt>
<wgt id='1738'> +5.5776836e-01 </wgt>
<wgt id='1739'> +5.1501238e-01 </wgt>
<wgt id='1740'> +4.0268533e-01 </wgt>
<wgt id='1741'> -6.3516768e-01 </wgt>
<wgt id='1742'> +4.8503327e-01 </wgt>
<wgt id='1743'> +3.1209596e-01 </wgt>
<wgt id='1744'> +3.4376783e-01 </wgt>
<wgt id='1745'> +6.5110513e-01 </wgt>
<wgt id='1746'> +2.9782983e-01 </wgt>
<wgt id='1747'> +5.0811484e-01 </wgt>
<wgt id='1748'> +4.3300504e-01 </wgt>
<wgt id='1749'> +4.2246168e-01 </wgt>
<wgt id='1750'> +3.9159428e-01 </wgt>
<wgt id='1751'> +1.0213939e-01 </wgt>
<wgt id='1752'> +3.8507513e-01 </wgt>
<wgt id='1753'> +5.4643832e-01 </wgt>
<wgt id='1754'> +6.7367335e-01 </wgt>
<wgt id='1755'> +3.0820371e-01 </wgt>
<wgt id='1756'> +4.5996269e-01 </wgt>
<wgt id='1757'> +6.7815764e-01 </wgt>
<wgt id='1758'> +4.2849222e-01 </wgt>
<wgt id='1759'> +6.8677505e-01 </wgt>
<wgt id='1760'> +6.1388928e-01 </wgt>
<wgt id='1761'> +2.6010724e-01 </wgt>
<wgt id='1762'> +4.5679411e-01 </wgt>
<wgt id='1763'> +3.7865551e-01 </wgt>
<wgt id='1764'> +4.4685523e-01 </wgt>
<wgt id='1765'> +5.3425671e-01 </wgt>
<wgt id='1766'> +4.9455681e-01 </wgt>
<wgt id='1767'> +5.4977448e-01 </wgt>
<wgt id='1768'> +4.8785662e-01 </wgt>
<wgt id='1769'> +6.2763764e-01 </wgt>
<wgt id='1770'> +4.5071047e-01 </wgt>
<wgt id='1771'> +5.0097989e-01 </wgt>
<wgt id='1772'> +5.4731878e-01 </wgt>
<wgt id='1773'> +2.1577700e-01 </wgt>
<wgt id='1774'> +4.6083958e-01 </wgt>
<wgt id='1775'> +6.1879087e-01 </wgt>
<wgt id='1776'> +4.3501113e-01 </wgt>
<wgt id='1777'> +4.6901992e-01 </wgt>
<wgt id='1778'> +5.7200060e-01 </wgt>
<wgt id='1779'> +9.7867278e-02 </wgt>
<wgt id='1780'> +7.2704746e-01 </wgt>
<wgt id='1781'> +4.0599540e-01 </wgt>
<wgt id='1782'> +5.5194256e-01 </wgt>
<wgt id='1783'> +1.3337300e-01 </wgt>
<wgt id='1784'> +2.7642924e-01 </wgt>
<wgt id='1785'> +7.3564155e-01 </wgt>
<wgt id='1786'> +5.6690851e-01 </wgt>
<wgt id='1787'> +3.7893596e-01 </wgt>
<wgt id='1788'> +2.0590976e-01 </wgt>
<wgt id='1789'> +1.3496502e-01 </wgt>
<wgt id='1790'> +4.7931208e-01 </wgt>
<wgt id='1791'> +4.3115933e-01 </wgt>
<wgt id='1792'> +3.8864636e-01 </wgt>
<wgt id='1793'> +5.5439945e-01 </wgt>
<wgt id='1794'> +5.6942307e-01 </wgt>
<wgt id='1795'> +5.2270625e-01 </wgt>
<wgt id='1796'> +4.9269579e-01 </wgt>
<wgt id='1797'> +4.2947835e-01 </wgt>
<wgt id='1798'> +5.5937993e-01 </wgt>
<wgt id='1799'> +2.2159733e-01 </wgt>
<wgt id='1800'> -1.6917812e-01 </wgt>
<wgt id='1801'> +2.0718685e-01 </wgt>
<wgt id='1802'> -1.7530028e-02 </wgt>
<wgt id='1803'> +3.8318061e-01 </wgt>
<wgt id='1804'> +6.4250122e-01 </wgt>
<wgt id='1805'> +4.9485741e-01 </wgt>
<wgt id='1806'> +5.1000596e-01 </wgt>
<wgt id='1807'> +5.6917113e-01 </wgt>
<wgt id='1808'> +5.2330281e-01 </wgt>
<wgt id='1809'> +3.9552251e-01 </wgt>
<wgt id='1810'> +3.6345807e-01 </wgt>
<wgt id='1811'> +4.2512271e-01 </wgt>
<wgt id='1812'> +4.4577543e-01 </wgt>
<wgt id='1813'> +2.8225372e-01 </wgt>
<wgt id='1814'> +4.0035745e-01 </wgt>
<wgt id='1815'> +6.8986247e-01 </wgt>
<wgt id='1816'> +4.0359836e-01 </wgt>
<wgt id='1817'> +3.4285412e-01 </wgt>
<wgt id='1818'> +4.7070754e-01 </wgt>
<wgt id='1819'> +3.5705152e-01 </wgt>
<wgt id='1820'> +4.6005861e-01 </wgt>
<wgt id='1821'> +4.9590079e-01 </wgt>
<wgt id='1822'> +4.6457890e-01 </wgt>
<wgt id='1823'> +4.9936077e-01 </wgt>
<wgt id='1824'> +3.7333340e-01 </wgt>
<wgt id='1825'> +3.5415994e-01 </wgt>
<wgt id='1826'> +4.7377468e-01 </wgt>
<wgt id='1827'> +3.7100925e-01 </wgt>
<wgt id='1828'> +3.1745209e-01 </wgt>
<wgt id='1829'> +3.8397613e-01 </wgt>
<wgt id='1830'> +4.1530168e-01 </wgt>
<wgt id='1831'> +4.2780485e-01 </wgt>
<wgt id='1832'> +2.6247534e-01 </wgt>
<wgt id='1833'> +4.2299477e-01 </wgt>
<wgt id='1834'> +5.2135326e-01 </wgt>
<wgt id='1835'> +3.3339909e-01 </wgt>
<wgt id='1836'> +3.1664982e-01 </wgt>
<wgt id='1837'> +3.4585783e-01 </wgt>
<wgt id='1838'> +3.6265822e-01 </wgt>
<wgt id='1839'> +5.3290492e-01 </wgt>
<wgt id='1840'> +4.0833228e-01 </wgt>
<wgt id='1841'> +2.6600158e-01 </wgt>
<wgt id='1842'> +4.6687063e-01 </wgt>
<wgt id='1843'> +3.0614710e-01 </wgt>
<wgt id='1844'> +3.7964361e-01 </wgt>
<wgt id='1845'> +4.0085115e-01 </wgt>
<wgt id='1846'> +3.5212472e-01 </wgt>
<wgt id='1847'> +4.1579455e-01 </wgt>
<wgt id='1848'> +4.4544386e-01 </wgt>
<wgt id='1849'> +3.5323902e-01 </wgt>
<wgt id='1850'> +3.5831941e-01 </wgt>
<wgt id='1851'> +4.0306545e-01 </wgt>
<wgt id='1852'> +3.2214174e-01 </wgt>
<wgt id='1853'> +4.3234063e-01 </wgt>
<wgt id='1854'> +4.2913912e-01 </wgt>
<wgt id='1855'> +5.7731200e-01 </wgt>
<wgt id='1856'> +4.1362985e-01 </wgt>
<wgt id='1857'> +4.6826417e-01 </wgt>
<wgt id='1858'> +4.0237022e-01 </wgt>
<wgt id='1859'> +4.2175837e-01 </wgt>
<wgt id='1860'> +3.5646086e-01 </wgt>
<wgt id='1861'> +4.2199391e-01 </wgt>
<wgt id='1862'> +3.7140779e-01 </wgt>
<wgt id='1863'> +4.1826326e-01 </wgt>
<wgt id='1864'> +4.2264925e-01 </wgt>
<wgt id='1865'> +3.6128470e-01 </wgt>
<wgt id='1866'> +3.6675846e-01 </wgt>
<wgt id='1867'> +4.8056325e-01 </wgt>
<wgt id='1868'> +3.6549232e-01 </wgt>
<wgt id='1869'> +4.2515913e-01 </wgt>
<wgt id='1870'> +4.5949404e-01 </wgt>
<wgt id='1871'> +4.2690574e-01 </wgt>
<wgt id='1872'> +6.3889975e-01 </wgt>
<wgt id='1873'> +3.4434465e-01 </wgt>
<wgt id='1874'> +3.7768622e-01 </wgt>
<wgt id='1875'> +4.0843891e-01 </wgt>
<wgt id='1876'> +3.4908042e-01 </wgt>
<wgt id='1877'> +3.5441711e-01 </wgt>
<wgt id='1878'> +3.8093554e-01 </wgt>
<wgt id='1879'> +2.6512512e-01 </wgt>
<wgt id='1880'> +4.3349006e-01 </wgt>
<wgt id='1881'> +5.2378226e-01 </wgt>
<wgt id='1882'> +4.3513692e-01 </wgt>
<wgt id='1883'> +4.7135005e-01 </wgt>
<wgt id='1884'> +4.9091612e-01 </wgt>
<wgt id='1885'> +4.8171229e-01 </wgt>
<wgt id='1886'> +3.7356594e-01 </wgt>
<wgt id='1887'> +3.5640139e-01 </wgt>
<wgt id='1888'> +3.7830963e-01 </wgt>
<wgt id='1889'> +3.9800078e-01 </wgt>
<wgt id='1890'> +2.6071700e-01 </wgt>
<wgt id='1891'> +2.4736832e-01 </wgt>
<wgt id='1892'> +3.5357812e-01 </wgt>
<wgt id='1893'> +4.0749772e-01 </wgt>
<wgt id='1894'> +4.5835478e-01 </wgt>
<wgt id='1895'> +5.1682551e-01 </wgt>
<wgt id='1896'> +4.4463800e-01 </wgt>
<wgt id='1897'> +4.5952931e-01 </wgt>
<wgt id='1898'> +4.0775828e-01 </wgt>
<wgt id='1899'> +4.2402749e-01 </wgt>
<wgt id='1900'> +4.1960108e-01 </wgt>
<wgt id='1901'> +5.0423138e-01 </wgt>
<wgt id='1902'> +3.0407187e-01 </wgt>
<wgt id='1903'> +3.7091346e-01 </wgt>
<wgt id='1904'> +4.0013720e-01 </wgt>
<wgt id='1905'> +3.6833683e-01 </wgt>
<wgt id='1906'> +3.9618715e-01 </wgt>
<wgt id='1907'> +3.2409582e-01 </wgt>
<wgt id='1908'> +3.8752792e-01 </wgt>
<wgt id='1909'> +4.2674864e-01 </wgt>
<wgt id='1910'> +3.5475311e-01 </wgt>
<wgt id='1911'> +2.6861716e-01 </wgt>
<wgt id='1912'> +4.4155601e-01 </wgt>
<wgt id='1913'> +6.0108831e-01 </wgt>
<wgt id='1914'> +4.1368636e-01 </wgt>
<wgt id='1915'> +3.8764581e-01 </wgt>
<wgt id='1916'> +3.3348180e-01 </wgt>
<wgt id='1917'> +5.7401633e-01 </wgt>
<wgt id='1918'> +5.9697570e-01 </wgt>
<wgt id='1919'> +4.0359836e-01 </wgt>
<wgt id='1920'> +3.4285412e-01 </wgt>
<wgt id='1921'> +4.7070754e-01 </wgt>
<wgt id='1922'> +3.5705152e-01 </wgt>
<wgt id='1923'> +4.6005861e-01 </wgt>
<wgt id='1924'> +4.9590079e-01 </wgt>
<wgt id='1925'> +4.6457890e-01 </wgt>
<wgt id='1926'> +4.9936077e-01 </wgt>
<wgt id='1927'> +3.7333340e-01 </wgt>
<wgt id='1928'> +3.5415994e-01 </wgt>
<wgt id='1929'> +4.7377468e-01 </wgt>
<wgt id='1930'> +3.7100925e-01 </wgt>
<wgt id='1931'> +3.1745209e-01 </wgt>
<wgt id='1932'> +3.8397613e-01 </wgt>
<wgt id='1933'> +4.1530168e-01 </wgt>
<wgt id='1934'> +4.2780485e-01 </wgt>
<wgt id='1935'> +2.6247534e-01 </wgt>
<wgt id='1936'> +4.2299477e-01 </wgt>
<wgt id='1937'> +5.2135326e-01 </wgt>
<wgt id='1938'> +3.3339909e-01 </wgt>
<wgt id='1939'> +3.1664982e-01 </wgt>
<wgt id='1940'> +3.4585783e-01 </wgt>
<wgt id='1941'> +3.6265822e-01 </wgt>
<wgt id='1942'> +5.3290492e-01 </wgt>
<wgt id='1943'> +4.0833228e-01 </wgt>
<wgt id='1944'> +2.6600158e-01 </wgt>
<wgt id='1945'> +4.6687063e-01 </wgt>
<wgt id='1946'> +3.0614710e-01 </wgt>
<wgt id='1947'> +3.7964361e-01 </wgt>
<wgt id='1948'> +4.0085115e-01 </wgt>
<wgt id='1949'> +3.5212472e-01 </wgt>
<wgt id='1950'> +4.1579455e-01 </wgt>
<wgt id='1951'> +4.4544386e-01 </wgt>
<wgt id='1952'> +3.5323902e-01 </wgt>
<wgt id='1953'> +3.5831941e-01 </wgt>
<wgt id='1954'> +4.0306545e-01 </wgt>
<wgt id='1955'> +3.2214174e-01 </wgt>
<wgt id='1956'> +4.3234063e-01 </wgt>
<wgt id='1957'> +4.2913912e-01 </wgt>
<wgt id='1958'> +5.7731200e-01 </wgt>
<wgt id='1959'> +4.1362985e-01 </wgt>
<wgt id='1960'> +4.6826417e-01 </wgt>
<wgt id='1961'> +4.0237022e-01 </wgt>
<wgt id='1962'> +4.2175837e-01 </wgt>
<wgt id='1963'> +3.5646086e-01 </wgt>
<wgt id='1964'> +4.2199391e-01 </wgt>
<wgt id='1965'> +3.7140779e-01 </wgt>
<wgt id='1966'> +4.1826326e-01 </wgt>
<wgt id='1967'> +4.2264925e-01 </wgt>
<wgt id='1968'> +3.6128470e-01 </wgt>
<wgt id='1969'> +3.6675846e-01 </wgt>
<wgt id='1970'> +4.8056325e-01 </wgt>
<wgt id='1971'> +3.6549232e-01 </wgt>
<wgt id='1972'> +4.2515913e-01 </wgt>
<wgt id='1973'> +4.5949404e-01 </wgt>
<wgt id='1974'> +4.2690574e-01 </wgt>
<wgt id='1975'> +6.3889975e-01 </wgt>
<wgt id='1976'> +3.4434465e-01 </wgt>
<wgt id='1977'> +3.7768622e-01 </wgt>
<wgt id='1978'> +4.0843891e-01 </wgt>
<wgt id='1979'> +3.4908042e-01 </wgt>
<wgt id='1980'> +3.5441711e-01 </wgt>
<wgt id='1981'> +3.8093554e-01 </wgt>
<wgt id='1982'> +2.6512512e-01 </wgt>
<wgt id='1983'> +4.3349006e-01 </wgt>
<wgt id='1984'> +5.2378226e-01 </wgt>
<wgt id='1985'> +4.3513692e-01 </wgt>
<wgt id='1986'> +4.7135005e-01 </wgt>
<wgt id='1987'> +4.9091612e-01 </wgt>
<wgt id='1988'> +4.8171229e-01 </wgt>
<wgt id='1989'> +3.7356594e-01 </wgt>
<wgt id='1990'> +3.5640139e-01 </wgt>
<wgt id='1991'> +3.7830963e-01 </wgt>
<wgt id='1992'> +3.9800078e-01 </wgt>
<wgt id='1993'> +2.6071700e-01 </wgt>
<wgt id='1994'> +2.4736832e-01 </wgt>
<wgt id='1995'> +3.5357812e-01 </wgt>
<wgt id='1996'> +4.0749772e-01 </wgt>
<wgt id='1997'> +4.5835478e-01 </wgt>
<wgt id='1998'> +5.1682551e-01 </wgt>
<wgt id='1999'> +4.4463800e-01 </wgt>
<wgt id='2000'> +4.5952931e-01 </wgt>
<wgt id='2001'> +4.0775828e-01 </wgt>
<wgt id='2002'> +4.2402749e-01 </wgt>
<wgt id='2003'> +4.1960108e-01 </wgt>
<wgt id='2004'> +5.0423138e-01 </wgt>
<wgt id='2005'> +3.0407187e-01 </wgt>
<wgt id='2006'> +3.7091346e-01 </wgt>
<wgt id='2007'> +4.0013720e-01 </wgt>
<wgt id='2008'> +3.6833683e-01 </wgt>
<wgt id='2009'> +3.9618715e-01 </wgt>
<wgt id='2010'> +3.2409582e-01 </wgt>
<wgt id='2011'> +3.8752792e-01 </wgt>
<wgt id='2012'> +4.2674864e-01 </wgt>
<wgt id='2013'> +3.5475311e-01 </wgt>
<wgt id='2014'> +2.6861716e-01 </wgt>
<wgt id='2015'> +4.4155601e-01 </wgt>
<wgt id='2016'> +6.0108831e-01 </wgt>
<wgt id='2017'> +4.1368636e-01 </wgt>
<wgt id='2018'> +3.8764581e-01 </wgt>
<wgt id='2019'> +3.3348180e-01 </wgt>
<wgt id='2020'> +4.0270888e-01 </wgt>
<wgt id='2021'> +4.2249994e-01 </wgt>
<wgt id='2022'> +3.8643851e-01 </wgt>
</rwgt>
</event>
<event>
 13 1 0.0079112 7.25217100e+01 7.81860800e-03 1.18668800e-01
        2 -1    0    0  501    0 +0.0000000000e+00 +0.0000000000e+00 +1.1161557352e+03 1.1161557352e+03 2.5500000000e-03 0.0000e+00 -1.0000e+00
       21 -1    0    0  502  503 +0.0000000000e+00 +0.0000000000e+00 -1.9738554759e+02 1.9738554759e+02 0.0000000000e+00 0.0000e+00 -1.0000e+00
  8000001  2    1    2  502    0 +4.7096731078e+01 -5.6318001217e+01 +3.1111857192e+02 6.7984143019e+02 5.9999982089e+02 0.0000e+00 0.0000e+00
        1  1    1    2  501    0 -4.3586808066e+01 +5.7950490437e+01 +6.1771134313e+02 6.2195287011e+02 5.0400000000e-03 0.0000e+00 -1.0000e+00
       -5  1    1    2    0  503 -3.5099230124e+00 -1.6324892198e+00 -1.0059727443e+01 1.1746982487e+01 4.6700000000e+00 0.0000e+00 -1.0000e+00
        6  2    3    3  502    0 -2.1944894512e+02 -7.9826528857e+01 +2.6531625992e+02 3.9359025495e+02 1.7317752968e+02 0.0000e+00 0.0000e+00
        5  1    6    6  502    0 -1.7217517386e+02 -4.6482963463e+01 +2.2968530530e+02 2.9083002726e+02 4.6700000000e+00 0.0000e+00 -1.0000e+00
       24  2    6    6    0    0 -4.7273771257e+01 -3.3343565394e+01 +3.5630954621e+01 1.0276022768e+02 7.7094076712e+01 0.0000e+00 0.0000e+00
       16  1    8    8    0    0 +1.6749798275e+01 -1.7877043657e+01 -5.4722645614e+00 2.5101595797e+01 0.0000000000e+00 0.0000e+00 -1.0000e+00
      -15  1    8    8    0    0 -6.4023569532e+01 -1.5466521737e+01 +4.1103219183e+01 7.7658631885e+01 1.7770000000e+00 0.0000e+00 1.0000e+00
       23  2    3    3    0    0 +2.6654567619e+02 +2.3508527641e+01 +4.5802311999e+01 2.8625117525e+02 9.0788959546e+01 0.0000e+00 0.0000e+00
        4  1   11   11  504    0 +1.9121156577e+02 +1.6554727978e+01 +7.3717354995e+01 2.0560102926e+02 1.2700000000e+00 0.0000e+00 -1.0000e+00
       -4  1   11   11    0  504 +7.5334110420e+01 +6.9537996627e+00 -2.7915042996e+01 8.0650145989e+01 1.2700000000e+00 0.0000e+00 1.0000e+00
<mgrwt>
<rscale>  1 0.66264440e+02</rscale>
<asrwt>0</asrwt>
<pdfrwt beam="1">  1       21 0.30367008e-01 0.60547053e+02</pdfrwt>
<pdfrwt beam="2">  1        2 0.17171626e+00 0.72521714e+02</pdfrwt>
<totfact> 0.37858034e+03</totfact>
</mgrwt>
<rwgt>
<wgt id='1001'> +5.2878984e-01 </wgt>
<wgt id='1002'> +3.2911486e-01 </wgt>
<wgt id='1003'> +3.2891945e-01 </wgt>
<wgt id='1004'> +3.7788485e-01 </wgt>
<wgt id='1005'> +3.0357847e-01 </wgt>
<wgt id='1006'> +4.7400514e-01 </wgt>
<wgt id='1007'> +3.0385139e-01 </wgt>
<wgt id='1008'> +3.0368002e-01 </wgt>
<wgt id='1009'> +3.4635560e-01 </wgt>
<wgt id='1010'> +2.8136821e-01 </wgt>
<wgt id='1011'> +5.9847953e-01 </wgt>
<wgt id='1012'> +3.5908738e-01 </wgt>
<wgt id='1013'> +3.5886146e-01 </wgt>
<wgt id='1014'> +4.1591736e-01 </wgt>
<wgt id='1015'> +3.2969265e-01 </wgt>
<wgt id='1016'> +5.0331947e-01 </wgt>
<wgt id='1017'> +3.1296985e-01 </wgt>
<wgt id='1018'> +3.1278487e-01 </wgt>
<wgt id='1019'> +3.5886146e-01 </wgt>
<wgt id='1020'> +2.8883550e-01 </wgt>
<wgt id='1021'> +4.5117360e-01 </wgt>
<wgt id='1022'> +2.8894570e-01 </wgt>
<wgt id='1023'> +2.8878352e-01 </wgt>
<wgt id='1024'> +3.2891945e-01 </wgt>
<wgt id='1025'> +2.6770385e-01 </wgt>
<wgt id='1026'> +5.6965240e-01 </wgt>
<wgt id='1027'> +3.4147204e-01 </wgt>
<wgt id='1028'> +3.4125813e-01 </wgt>
<wgt id='1029'> +3.9497935e-01 </wgt>
<wgt id='1030'> +3.1368147e-01 </wgt>
<wgt id='1031'> +5.5341027e-01 </wgt>
<wgt id='1032'> +3.4656371e-01 </wgt>
<wgt id='1033'> +3.4635560e-01 </wgt>
<wgt id='1034'> +3.9788538e-01 </wgt>
<wgt id='1035'> +3.1940428e-01 </wgt>
<wgt id='1036'> +4.9607479e-01 </wgt>
<wgt id='1037'> +3.1996083e-01 </wgt>
<wgt id='1038'> +3.1977821e-01 </wgt>
<wgt id='1039'> +3.6468737e-01 </wgt>
<wgt id='1040'> +2.9603618e-01 </wgt>
<wgt id='1041'> +6.2634471e-01 </wgt>
<wgt id='1042'> +3.7812530e-01 </wgt>
<wgt id='1043'> +3.7788485e-01 </wgt>
<wgt id='1044'> +4.3793086e-01 </wgt>
<wgt id='1045'> +3.4687982e-01 </wgt>
<wgt id='1046'> +5.2878984e-01 </wgt>
<wgt id='1047'> +5.2878984e-01 </wgt>
<wgt id='1048'> +5.2878984e-01 </wgt>
<wgt id='1049'> +5.2960784e-01 </wgt>
<wgt id='1050'> +5.2821204e-01 </wgt>
<wgt id='1051'> +5.2907811e-01 </wgt>
<wgt id='1052'> +5.2801790e-01 </wgt>
<wgt id='1053'> +5.3166518e-01 </wgt>
<wgt id='1054'> +5.2838922e-01 </wgt>
<wgt id='1055'> +5.3005878e-01 </wgt>
<wgt id='1056'> +5.3039697e-01 </wgt>
<wgt id='1057'> +5.2883860e-01 </wgt>
<wgt id='1058'> +5.2837885e-01 </wgt>
<wgt id='1059'> +5.2662281e-01 </wgt>
<wgt id='1060'> +5.2858068e-01 </wgt>
<wgt id='1061'> +5.2855987e-01 </wgt>
<wgt id='1062'> +5.2956219e-01 </wgt>
<wgt id='1063'> +5.2892086e-01 </wgt>
<wgt id='1064'> +5.2898757e-01 </wgt>
<wgt id='1065'> +5.2813489e-01 </wgt>
<wgt id='1066'> +5.2850147e-01 </wgt>
<wgt id='1067'> +5.3129224e-01 </wgt>
<wgt id='1068'> +5.2611409e-01 </wgt>
<wgt id='1069'> +5.2880199e-01 </wgt>
<wgt id='1070'> +5.2851685e-01 </wgt>
<wgt id='1071'> +5.2874374e-01 </wgt>
<wgt id='1072'> +5.2985829e-01 </wgt>
<wgt id='1073'> +5.2821785e-01 </wgt>
<wgt id='1074'> +5.2876713e-01 </wgt>
<wgt id='1075'> +5.2707255e-01 </wgt>
<wgt id='1076'> +5.2992405e-01 </wgt>
<wgt id='1077'> +5.3079561e-01 </wgt>
<wgt id='1078'> +5.2888571e-01 </wgt>
<wgt id='1079'> +5.3167751e-01 </wgt>
<wgt id='1080'> +5.2925015e-01 </wgt>
<wgt id='1081'> +5.2926624e-01 </wgt>
<wgt id='1082'> +5.2977875e-01 </wgt>
<wgt id='1083'> +5.2846847e-01 </wgt>
<wgt id='1084'> +5.2777341e-01 </wgt>
<wgt id='1085'> +5.3054796e-01 </wgt>
<wgt id='1086'> +5.2797352e-01 </wgt>
<wgt id='1087'> +5.2864557e-01 </wgt>
<wgt id='1088'> +5.2986772e-01 </wgt>
<wgt id='1089'> +5.3006491e-01 </wgt>
<wgt id='1090'> +5.2923320e-01 </wgt>
<wgt id='1091'> +5.2862597e-01 </wgt>
<wgt id='1092'> +5.2755086e-01 </wgt>
<wgt id='1093'> +5.2845604e-01 </wgt>
<wgt id='1094'> +5.2845388e-01 </wgt>
<wgt id='1095'> +5.2800448e-01 </wgt>
<wgt id='1096'> +5.2735645e-01 </wgt>
<wgt id='1097'> +5.2877235e-01 </wgt>
<wgt id='1098'> +5.2839549e-01 </wgt>
<wgt id='1099'> +5.2854566e-01 </wgt>
<wgt id='1100'> +5.2896034e-01 </wgt>
<wgt id='1101'> +5.2873072e-01 </wgt>
<wgt id='1102'> +5.2937030e-01 </wgt>
<wgt id='1103'> +5.2915740e-01 </wgt>
<wgt id='1104'> +5.2929014e-01 </wgt>
<wgt id='1105'> +5.2933954e-01 </wgt>
<wgt id='1106'> +5.2876534e-01 </wgt>
<wgt id='1107'> +5.2930645e-01 </wgt>
<wgt id='1108'> +5.2875364e-01 </wgt>
<wgt id='1109'> +5.2909872e-01 </wgt>
<wgt id='1110'> +5.2862338e-01 </wgt>
<wgt id='1111'> +5.2858490e-01 </wgt>
<wgt id='1112'> +5.2875285e-01 </wgt>
<wgt id='1113'> +5.2909735e-01 </wgt>
<wgt id='1114'> +5.2809355e-01 </wgt>
<wgt id='1115'> +5.2892423e-01 </wgt>
<wgt id='1116'> +5.2855467e-01 </wgt>
<wgt id='1117'> +5.2883374e-01 </wgt>
<wgt id='1118'> +5.2836637e-01 </wgt>
<wgt id='1119'> +5.2865915e-01 </wgt>
<wgt id='1120'> +5.2881101e-01 </wgt>
<wgt id='1121'> +5.2914494e-01 </wgt>
<wgt id='1122'> +5.2854753e-01 </wgt>
<wgt id='1123'> +5.2886119e-01 </wgt>
<wgt id='1124'> +5.2899746e-01 </wgt>
<wgt id='1125'> +5.2895334e-01 </wgt>
<wgt id='1126'> +5.2883011e-01 </wgt>
<wgt id='1127'> +5.2931856e-01 </wgt>
<wgt id='1128'> +5.2885093e-01 </wgt>
<wgt id='1129'> +5.2881934e-01 </wgt>
<wgt id='1130'> +5.2904086e-01 </wgt>
<wgt id='1131'> +5.2888290e-01 </wgt>
<wgt id='1132'> +5.2908282e-01 </wgt>
<wgt id='1133'> +5.2897317e-01 </wgt>
<wgt id='1134'> +5.2829750e-01 </wgt>
<wgt id='1135'> +5.2889048e-01 </wgt>
<wgt id='1136'> +5.2856406e-01 </wgt>
<wgt id='1137'> +5.2881418e-01 </wgt>
<wgt id='1138'> +5.2910927e-01 </wgt>
<wgt id='1139'> +5.2873249e-01 </wgt>
<wgt id='1140'> +5.2909900e-01 </wgt>
<wgt id='1141'> +5.2874943e-01 </wgt>
<wgt id='1142'> +5.2885274e-01 </wgt>
<wgt id='1143'> +5.2902392e-01 </wgt>
<wgt id='1144'> +5.2872923e-01 </wgt>
<wgt id='1145'> +5.2879195e-01 </wgt>
<wgt id='1146'> +5.2876134e-01 </wgt>
<wgt id='1147'> +5.2895133e-01 </wgt>
<wgt id='1148'> +5.2878984e-01 </wgt>
<wgt id='1149'> +5.3067975e-01 </wgt>
<wgt id='1150'> +5.3067454e-01 </wgt>
<wgt id='1151'> +5.3670535e-01 </wgt>
<wgt id='1152'> +5.3842968e-01 </wgt>
<wgt id='1153'> +5.2744206e-01 </wgt>
<wgt id='1154'> +5.2900664e-01 </wgt>
<wgt id='1155'> +5.3195792e-01 </wgt>
<wgt id='1156'> +5.3827680e-01 </wgt>
<wgt id='1157'> +5.3417827e-01 </wgt>
<wgt id='1158'> +5.3569854e-01 </wgt>
<wgt id='1159'> +5.0624855e-01 </wgt>
<wgt id='1160'> +5.3425020e-01 </wgt>
<wgt id='1161'> +5.2975098e-01 </wgt>
<wgt id='1162'> +5.2308553e-01 </wgt>
<wgt id='1163'> +5.3793438e-01 </wgt>
<wgt id='1164'> +5.4301554e-01 </wgt>
<wgt id='1165'> +5.3332123e-01 </wgt>
<wgt id='1166'> +5.3051252e-01 </wgt>
<wgt id='1167'> +5.3428343e-01 </wgt>
<wgt id='1168'> +5.3081303e-01 </wgt>
<wgt id='1169'> +5.2521290e-01 </wgt>
<wgt id='1170'> +5.3467060e-01 </wgt>
<wgt id='1171'> +5.3322914e-01 </wgt>
<wgt id='1172'> +5.3280853e-01 </wgt>
<wgt id='1173'> +5.2100236e-01 </wgt>
<wgt id='1174'> +5.3599221e-01 </wgt>
<wgt id='1175'> +5.4429040e-01 </wgt>
<wgt id='1176'> +5.0732210e-01 </wgt>
<wgt id='1177'> +5.3575598e-01 </wgt>
<wgt id='1178'> +5.3142166e-01 </wgt>
<wgt id='1179'> +5.3365728e-01 </wgt>
<wgt id='1180'> +5.3137173e-01 </wgt>
<wgt id='1181'> +5.3417374e-01 </wgt>
<wgt id='1182'> +5.3371702e-01 </wgt>
<wgt id='1183'> +5.1924965e-01 </wgt>
<wgt id='1184'> +5.3238225e-01 </wgt>
<wgt id='1185'> +5.3528160e-01 </wgt>
<wgt id='1186'> +5.3466937e-01 </wgt>
<wgt id='1187'> +5.2935493e-01 </wgt>
<wgt id='1188'> +5.3438670e-01 </wgt>
<wgt id='1189'> +5.3373629e-01 </wgt>
<wgt id='1190'> +5.3376263e-01 </wgt>
<wgt id='1191'> +5.2529525e-01 </wgt>
<wgt id='1192'> +5.2129968e-01 </wgt>
<wgt id='1193'> +5.2472742e-01 </wgt>
<wgt id='1194'> +5.4037277e-01 </wgt>
<wgt id='1195'> +5.3034687e-01 </wgt>
<wgt id='1196'> +5.2426807e-01 </wgt>
<wgt id='1197'> +5.2604098e-01 </wgt>
<wgt id='1198'> +5.3965128e-01 </wgt>
<wgt id='1199'> +5.2371293e-01 </wgt>
<wgt id='1200'> +5.3451773e-01 </wgt>
<wgt id='1201'> +5.3177590e-01 </wgt>
<wgt id='1202'> +5.3343786e-01 </wgt>
<wgt id='1203'> +5.3850689e-01 </wgt>
<wgt id='1204'> +5.3359366e-01 </wgt>
<wgt id='1205'> +5.2438879e-01 </wgt>
<wgt id='1206'> +5.3079389e-01 </wgt>
<wgt id='1207'> +5.3287880e-01 </wgt>
<wgt id='1208'> +5.4443517e-01 </wgt>
<wgt id='1209'> +5.4056676e-01 </wgt>
<wgt id='1210'> +5.2082961e-01 </wgt>
<wgt id='1211'> +5.2836848e-01 </wgt>
<wgt id='1212'> +5.1978030e-01 </wgt>
<wgt id='1213'> +5.3574937e-01 </wgt>
<wgt id='1214'> +5.3209736e-01 </wgt>
<wgt id='1215'> +5.4193588e-01 </wgt>
<wgt id='1216'> +5.2775188e-01 </wgt>
<wgt id='1217'> +5.2952797e-01 </wgt>
<wgt id='1218'> +5.2867353e-01 </wgt>
<wgt id='1219'> +5.1815700e-01 </wgt>
<wgt id='1220'> +5.3972923e-01 </wgt>
<wgt id='1221'> +5.2429819e-01 </wgt>
<wgt id='1222'> +5.3253331e-01 </wgt>
<wgt id='1223'> +5.3196752e-01 </wgt>
<wgt id='1224'> +5.2890911e-01 </wgt>
<wgt id='1225'> +5.4031159e-01 </wgt>
<wgt id='1226'> +5.1501885e-01 </wgt>
<wgt id='1227'> +5.4758757e-01 </wgt>
<wgt id='1228'> +5.3112470e-01 </wgt>
<wgt id='1229'> +5.1827185e-01 </wgt>
<wgt id='1230'> +5.2197785e-01 </wgt>
<wgt id='1231'> +5.3332123e-01 </wgt>
<wgt id='1232'> +5.1556265e-01 </wgt>
<wgt id='1233'> +5.3131372e-01 </wgt>
<wgt id='1234'> +5.4808943e-01 </wgt>
<wgt id='1235'> +5.1482487e-01 </wgt>
<wgt id='1236'> +5.4033233e-01 </wgt>
<wgt id='1237'> +5.1843328e-01 </wgt>
<wgt id='1238'> +5.1613610e-01 </wgt>
<wgt id='1239'> +5.3186523e-01 </wgt>
<wgt id='1240'> +5.3575527e-01 </wgt>
<wgt id='1241'> +5.3448642e-01 </wgt>
<wgt id='1242'> +5.3151253e-01 </wgt>
<wgt id='1243'> +5.2364157e-01 </wgt>
<wgt id='1244'> +5.2381875e-01 </wgt>
<wgt id='1245'> +5.3678065e-01 </wgt>
<wgt id='1246'> +5.1774845e-01 </wgt>
<wgt id='1247'> +5.3331667e-01 </wgt>
<wgt id='1248'> +5.3547804e-01 </wgt>
<wgt id='1249'> +5.3536692e-01 </wgt>
<wgt id='1250'> +5.1303439e-01 </wgt>
<wgt id='1251'> +5.0943952e-01 </wgt>
<wgt id='1252'> +5.2147293e-01 </wgt>
<wgt id='1253'> +5.1806144e-01 </wgt>
<wgt id='1254'> +4.5102057e-01 </wgt>
<wgt id='1255'> +5.2665021e-01 </wgt>
<wgt id='1256'> +5.2915947e-01 </wgt>
<wgt id='1257'> +5.2520131e-01 </wgt>
<wgt id='1258'> +5.2568309e-01 </wgt>
<wgt id='1259'> +5.2715026e-01 </wgt>
<wgt id='1260'> +5.2739537e-01 </wgt>
<wgt id='1261'> +5.2563056e-01 </wgt>
<wgt id='1262'> +5.2722311e-01 </wgt>
<wgt id='1263'> +5.2628080e-01 </wgt>
<wgt id='1264'> +5.2610956e-01 </wgt>
<wgt id='1265'> +5.2703377e-01 </wgt>
<wgt id='1266'> +5.2692010e-01 </wgt>
<wgt id='1267'> +5.2639265e-01 </wgt>
<wgt id='1268'> +5.3090400e-01 </wgt>
<wgt id='1269'> +5.2240054e-01 </wgt>
<wgt id='1270'> +5.2666865e-01 </wgt>
<wgt id='1271'> +5.2591903e-01 </wgt>
<wgt id='1272'> +5.2711641e-01 </wgt>
<wgt id='1273'> +5.2628289e-01 </wgt>
<wgt id='1274'> +5.2604244e-01 </wgt>
<wgt id='1275'> +5.2745228e-01 </wgt>
<wgt id='1276'> +5.2468778e-01 </wgt>
<wgt id='1277'> +5.2868656e-01 </wgt>
<wgt id='1278'> +5.2400457e-01 </wgt>
<wgt id='1279'> +5.2872010e-01 </wgt>
<wgt id='1280'> +5.2588774e-01 </wgt>
<wgt id='1281'> +5.2851617e-01 </wgt>
<wgt id='1282'> +5.3026590e-01 </wgt>
<wgt id='1283'> +5.2234183e-01 </wgt>
<wgt id='1284'> +5.2509229e-01 </wgt>
<wgt id='1285'> +5.2780311e-01 </wgt>
<wgt id='1286'> +5.2744210e-01 </wgt>
<wgt id='1287'> +5.2661135e-01 </wgt>
<wgt id='1288'> +5.2634592e-01 </wgt>
<wgt id='1289'> +5.2668797e-01 </wgt>
<wgt id='1290'> +5.2746683e-01 </wgt>
<wgt id='1291'> +5.2636656e-01 </wgt>
<wgt id='1292'> +5.2820929e-01 </wgt>
<wgt id='1293'> +5.2377146e-01 </wgt>
<wgt id='1294'> +5.2331124e-01 </wgt>
<wgt id='1295'> +5.2737650e-01 </wgt>
<wgt id='1296'> +5.2099052e-01 </wgt>
<wgt id='1297'> +5.2225942e-01 </wgt>
<wgt id='1298'> +5.1995604e-01 </wgt>
<wgt id='1299'> +5.2004999e-01 </wgt>
<wgt id='1300'> +5.2203681e-01 </wgt>
<wgt id='1301'> +5.1997975e-01 </wgt>
<wgt id='1302'> +5.2250250e-01 </wgt>
<wgt id='1303'> +5.2025102e-01 </wgt>
<wgt id='1304'> +5.2149036e-01 </wgt>
<wgt id='1305'> +5.2128998e-01 </wgt>
<wgt id='1306'> +5.2056875e-01 </wgt>
<wgt id='1307'> +5.2247720e-01 </wgt>
<wgt id='1308'> +5.2004208e-01 </wgt>
<wgt id='1309'> +5.2164001e-01 </wgt>
<wgt id='1310'> +5.2010913e-01 </wgt>
<wgt id='1311'> +5.2516183e-01 </wgt>
<wgt id='1312'> +5.1948129e-01 </wgt>
<wgt id='1313'> +5.2273618e-01 </wgt>
<wgt id='1314'> +5.1853173e-01 </wgt>
<wgt id='1315'> +5.2071834e-01 </wgt>
<wgt id='1316'> +5.2124366e-01 </wgt>
<wgt id='1317'> +5.1786468e-01 </wgt>
<wgt id='1318'> +5.2668012e-01 </wgt>
<wgt id='1319'> +5.2379613e-01 </wgt>
<wgt id='1320'> +5.1935132e-01 </wgt>
<wgt id='1321'> +5.1980008e-01 </wgt>
<wgt id='1322'> +5.2158261e-01 </wgt>
<wgt id='1323'> +5.2067184e-01 </wgt>
<wgt id='1324'> +5.2139061e-01 </wgt>
<wgt id='1325'> +5.2112488e-01 </wgt>
<wgt id='1326'> +5.2086189e-01 </wgt>
<wgt id='1327'> +5.2160138e-01 </wgt>
<wgt id='1328'> +5.2078300e-01 </wgt>
<wgt id='1329'> +5.2136793e-01 </wgt>
<wgt id='1330'> +5.2077802e-01 </wgt>
<wgt id='1331'> +5.1995731e-01 </wgt>
<wgt id='1332'> +5.2187004e-01 </wgt>
<wgt id='1333'> +5.2346861e-01 </wgt>
<wgt id='1334'> +5.1641767e-01 </wgt>
<wgt id='1335'> +5.2196304e-01 </wgt>
<wgt id='1336'> +5.2074239e-01 </wgt>
<wgt id='1337'> +5.2099052e-01 </wgt>
<wgt id='1338'> +5.2054040e-01 </wgt>
<wgt id='1339'> +5.2074200e-01 </wgt>
<wgt id='1340'> +5.2091623e-01 </wgt>
<wgt id='1341'> +5.2119988e-01 </wgt>
<wgt id='1342'> +5.2133381e-01 </wgt>
<wgt id='1343'> +5.2140466e-01 </wgt>
<wgt id='1344'> +5.1739663e-01 </wgt>
<wgt id='1345'> +5.1899296e-01 </wgt>
<wgt id='1346'> +5.1579632e-01 </wgt>
<wgt id='1347'> +5.1931700e-01 </wgt>
<wgt id='1348'> +5.1595594e-01 </wgt>
<wgt id='1349'> +5.1636189e-01 </wgt>
<wgt id='1350'> +5.1826969e-01 </wgt>
<wgt id='1351'> +5.1738929e-01 </wgt>
<wgt id='1352'> +5.1738428e-01 </wgt>
<wgt id='1353'> +5.1843192e-01 </wgt>
<wgt id='1354'> +5.1665935e-01 </wgt>
<wgt id='1355'> +5.1631876e-01 </wgt>
<wgt id='1356'> +5.1821990e-01 </wgt>
<wgt id='1357'> +5.1685317e-01 </wgt>
<wgt id='1358'> +5.1769989e-01 </wgt>
<wgt id='1359'> +5.1577420e-01 </wgt>
<wgt id='1360'> +5.2142553e-01 </wgt>
<wgt id='1361'> +5.2191889e-01 </wgt>
<wgt id='1362'> +5.1400319e-01 </wgt>
<wgt id='1363'> +5.1820667e-01 </wgt>
<wgt id='1364'> +5.1644681e-01 </wgt>
<wgt id='1365'> +5.1880919e-01 </wgt>
<wgt id='1366'> +5.1684261e-01 </wgt>
<wgt id='1367'> +5.1549710e-01 </wgt>
<wgt id='1368'> +5.1828755e-01 </wgt>
<wgt id='1369'> +5.1600905e-01 </wgt>
<wgt id='1370'> +5.1864014e-01 </wgt>
<wgt id='1371'> +5.1778081e-01 </wgt>
<wgt id='1372'> +5.1714311e-01 </wgt>
<wgt id='1373'> +5.1847202e-01 </wgt>
<wgt id='1374'> +5.1669710e-01 </wgt>
<wgt id='1375'> +5.1837205e-01 </wgt>
<wgt id='1376'> +5.1711512e-01 </wgt>
<wgt id='1377'> +5.1745440e-01 </wgt>
<wgt id='1378'> +5.1727558e-01 </wgt>
<wgt id='1379'> +5.1901173e-01 </wgt>
<wgt id='1380'> +5.1628215e-01 </wgt>
<wgt id='1381'> +5.1576298e-01 </wgt>
<wgt id='1382'> +5.1613829e-01 </wgt>
<wgt id='1383'> +5.1725403e-01 </wgt>
<wgt id='1384'> +5.1778197e-01 </wgt>
<wgt id='1385'> +5.1739663e-01 </wgt>
<wgt id='1386'> +5.1663776e-01 </wgt>
<wgt id='1387'> +5.1692570e-01 </wgt>
<wgt id='1388'> +5.1717272e-01 </wgt>
<wgt id='1389'> +5.1754050e-01 </wgt>
<wgt id='1390'> +5.1772113e-01 </wgt>
<wgt id='1391'> +5.1780189e-01 </wgt>
<wgt id='1392'> +5.4084354e-01 </wgt>
<wgt id='1393'> +5.4085156e-01 </wgt>
<wgt id='1394'> +5.4082055e-01 </wgt>
<wgt id='1395'> +5.4128049e-01 </wgt>
<wgt id='1396'> +5.4053135e-01 </wgt>
<wgt id='1397'> +5.4263979e-01 </wgt>
<wgt id='1398'> +5.3910115e-01 </wgt>
<wgt id='1399'> +5.4161811e-01 </wgt>
<wgt id='1400'> +5.3987704e-01 </wgt>
<wgt id='1401'> +5.3939492e-01 </wgt>
<wgt id='1402'> +5.4262133e-01 </wgt>
<wgt id='1403'> +5.4080244e-01 </wgt>
<wgt id='1404'> +5.4090774e-01 </wgt>
<wgt id='1405'> +5.3996306e-01 </wgt>
<wgt id='1406'> +5.4207935e-01 </wgt>
<wgt id='1407'> +5.4025077e-01 </wgt>
<wgt id='1408'> +5.4124818e-01 </wgt>
<wgt id='1409'> +5.4310282e-01 </wgt>
<wgt id='1410'> +5.3823222e-01 </wgt>
<wgt id='1411'> +5.4020054e-01 </wgt>
<wgt id='1412'> +5.4132943e-01 </wgt>
<wgt id='1413'> +5.4186251e-01 </wgt>
<wgt id='1414'> +5.3978457e-01 </wgt>
<wgt id='1415'> +5.4367140e-01 </wgt>
<wgt id='1416'> +5.3794744e-01 </wgt>
<wgt id='1417'> +5.4137524e-01 </wgt>
<wgt id='1418'> +5.4015721e-01 </wgt>
<wgt id='1419'> +5.4152249e-01 </wgt>
<wgt id='1420'> +5.4047001e-01 </wgt>
<wgt id='1421'> +5.4373835e-01 </wgt>
<wgt id='1422'> +5.3760686e-01 </wgt>
<wgt id='1423'> +5.4239573e-01 </wgt>
<wgt id='1424'> +5.3930594e-01 </wgt>
<wgt id='1425'> +5.4121176e-01 </wgt>
<wgt id='1426'> +5.4039218e-01 </wgt>
<wgt id='1427'> +5.3993755e-01 </wgt>
<wgt id='1428'> +5.4002139e-01 </wgt>
<wgt id='1429'> +5.4023609e-01 </wgt>
<wgt id='1430'> +5.4146840e-01 </wgt>
<wgt id='1431'> +5.4038280e-01 </wgt>
<wgt id='1432'> +5.4109984e-01 </wgt>
<wgt id='1433'> +5.3870280e-01 </wgt>
<wgt id='1434'> +5.4307331e-01 </wgt>
<wgt id='1435'> +5.4139390e-01 </wgt>
<wgt id='1436'> +5.4060688e-01 </wgt>
<wgt id='1437'> +5.4000507e-01 </wgt>
<wgt id='1438'> +5.4284180e-01 </wgt>
<wgt id='1439'> +5.4303009e-01 </wgt>
<wgt id='1440'> +5.3569076e-01 </wgt>
<wgt id='1441'> +5.4179717e-01 </wgt>
<wgt id='1442'> +5.4146028e-01 </wgt>
<wgt id='1443'> +5.3529075e-01 </wgt>
<wgt id='1444'> +5.3531929e-01 </wgt>
<wgt id='1445'> +5.3526567e-01 </wgt>
<wgt id='1446'> +5.3574862e-01 </wgt>
<wgt id='1447'> +5.3499894e-01 </wgt>
<wgt id='1448'> +5.3718096e-01 </wgt>
<wgt id='1449'> +5.3353178e-01 </wgt>
<wgt id='1450'> +5.3600201e-01 </wgt>
<wgt id='1451'> +5.3450098e-01 </wgt>
<wgt id='1452'> +5.3382952e-01 </wgt>
<wgt id='1453'> +5.3671156e-01 </wgt>
<wgt id='1454'> +5.3514117e-01 </wgt>
<wgt id='1455'> +5.3563228e-01 </wgt>
<wgt id='1456'> +5.3420590e-01 </wgt>
<wgt id='1457'> +5.3725415e-01 </wgt>
<wgt id='1458'> +5.3484800e-01 </wgt>
<wgt id='1459'> +5.3554846e-01 </wgt>
<wgt id='1460'> +5.3743905e-01 </wgt>
<wgt id='1461'> +5.3271974e-01 </wgt>
<wgt id='1462'> +5.3417897e-01 </wgt>
<wgt id='1463'> +5.3625311e-01 </wgt>
<wgt id='1464'> +5.3625120e-01 </wgt>
<wgt id='1465'> +5.3404745e-01 </wgt>
<wgt id='1466'> +5.3890365e-01 </wgt>
<wgt id='1467'> +5.3280764e-01 </wgt>
<wgt id='1468'> +5.3382107e-01 </wgt>
<wgt id='1469'> +5.3680919e-01 </wgt>
<wgt id='1470'> +5.3601160e-01 </wgt>
<wgt id='1471'> +5.3497504e-01 </wgt>
<wgt id='1472'> +5.3764747e-01 </wgt>
<wgt id='1473'> +5.3255783e-01 </wgt>
<wgt id='1474'> +5.3653340e-01 </wgt>
<wgt id='1475'> +5.3352910e-01 </wgt>
<wgt id='1476'> +5.3564786e-01 </wgt>
<wgt id='1477'> +5.3492566e-01 </wgt>
<wgt id='1478'> +5.3449597e-01 </wgt>
<wgt id='1479'> +5.3449645e-01 </wgt>
<wgt id='1480'> +5.3487554e-01 </wgt>
<wgt id='1481'> +5.3580273e-01 </wgt>
<wgt id='1482'> +5.3479989e-01 </wgt>
<wgt id='1483'> +5.3564000e-01 </wgt>
<wgt id='1484'> +5.3321620e-01 </wgt>
<wgt id='1485'> +5.3748704e-01 </wgt>
<wgt id='1486'> +5.3610552e-01 </wgt>
<wgt id='1487'> +5.3483193e-01 </wgt>
<wgt id='1488'> +5.3441125e-01 </wgt>
<wgt id='1489'> +5.3731331e-01 </wgt>
<wgt id='1490'> +5.3846679e-01 </wgt>
<wgt id='1491'> +5.2965692e-01 </wgt>
<wgt id='1492'> +5.3690096e-01 </wgt>
<wgt id='1493'> +5.3584492e-01 </wgt>
<wgt id='1494'> +5.1842291e-01 </wgt>
<wgt id='1495'> +5.1096848e-01 </wgt>
<wgt id='1496'> +5.1355583e-01 </wgt>
<wgt id='1497'> +5.1607867e-01 </wgt>
<wgt id='1498'> +5.2036076e-01 </wgt>
<wgt id='1499'> +5.1826780e-01 </wgt>
<wgt id='1500'> +5.2107209e-01 </wgt>
<wgt id='1501'> +5.2056158e-01 </wgt>
<wgt id='1502'> +5.2001112e-01 </wgt>
<wgt id='1503'> +5.1946074e-01 </wgt>
<wgt id='1504'> +5.1889438e-01 </wgt>
<wgt id='1505'> +5.1774946e-01 </wgt>
<wgt id='1506'> +5.1716437e-01 </wgt>
<wgt id='1507'> +5.1660416e-01 </wgt>
<wgt id='1508'> +5.1826780e-01 </wgt>
<wgt id='1509'> +5.1823144e-01 </wgt>
<wgt id='1510'> +5.1824676e-01 </wgt>
<wgt id='1511'> +5.1830883e-01 </wgt>
<wgt id='1512'> +5.1832480e-01 </wgt>
<wgt id='1513'> +5.1833734e-01 </wgt>
<wgt id='1514'> +5.1810872e-01 </wgt>
<wgt id='1515'> +5.1864544e-01 </wgt>
<wgt id='1516'> +5.1921882e-01 </wgt>
<wgt id='1517'> +5.1747960e-01 </wgt>
<wgt id='1518'> +5.1946915e-01 </wgt>
<wgt id='1519'> +5.1788943e-01 </wgt>
<wgt id='1520'> +5.1992474e-01 </wgt>
<wgt id='1521'> +5.1675500e-01 </wgt>
<wgt id='1522'> +5.1756823e-01 </wgt>
<wgt id='1523'> +5.1909363e-01 </wgt>
<wgt id='1524'> +5.1971543e-01 </wgt>
<wgt id='1525'> +5.1774483e-01 </wgt>
<wgt id='1526'> +5.1817680e-01 </wgt>
<wgt id='1527'> +5.1855195e-01 </wgt>
<wgt id='1528'> +5.1727010e-01 </wgt>
<wgt id='1529'> +5.1950332e-01 </wgt>
<wgt id='1530'> +5.2200328e-01 </wgt>
<wgt id='1531'> +5.1628181e-01 </wgt>
<wgt id='1532'> +5.2022826e-01 </wgt>
<wgt id='1533'> +5.1576720e-01 </wgt>
<wgt id='1534'> +5.1699992e-01 </wgt>
<wgt id='1535'> +5.1929689e-01 </wgt>
<wgt id='1536'> +5.1831767e-01 </wgt>
<wgt id='1537'> +5.1842146e-01 </wgt>
<wgt id='1538'> +5.1744755e-01 </wgt>
<wgt id='1539'> +5.2044474e-01 </wgt>
<wgt id='1540'> +5.1857616e-01 </wgt>
<wgt id='1541'> +5.1813548e-01 </wgt>
<wgt id='1542'> +5.1660878e-01 </wgt>
<wgt id='1543'> +5.2327830e-01 </wgt>
<wgt id='1544'> +5.1838626e-01 </wgt>
<wgt id='1545'> +5.1733551e-01 </wgt>
<wgt id='1546'> +5.1719012e-01 </wgt>
<wgt id='1547'> +5.1950953e-01 </wgt>
<wgt id='1548'> +5.1828541e-01 </wgt>
<wgt id='1549'> +5.1738093e-01 </wgt>
<wgt id='1550'> +5.1853765e-01 </wgt>
<wgt id='1551'> +5.1790377e-01 </wgt>
<wgt id='1552'> +5.1770338e-01 </wgt>
<wgt id='1553'> +5.1859889e-01 </wgt>
<wgt id='1554'> +5.1872429e-01 </wgt>
<wgt id='1555'> +5.1632253e-01 </wgt>
<wgt id='1556'> +5.1906192e-01 </wgt>
<wgt id='1557'> +5.1758294e-01 </wgt>
<wgt id='1558'> +5.1485185e-01 </wgt>
<wgt id='1559'> +5.2005183e-01 </wgt>
<wgt id='1560'> +5.2094766e-01 </wgt>
<wgt id='1561'> +5.1705651e-01 </wgt>
<wgt id='1562'> +5.1602917e-01 </wgt>
<wgt id='1563'> +5.1922009e-01 </wgt>
<wgt id='1564'> +5.1833734e-01 </wgt>
<wgt id='1565'> +5.1594541e-01 </wgt>
<wgt id='1566'> +5.1913162e-01 </wgt>
<wgt id='1567'> +5.1762336e-01 </wgt>
<wgt id='1568'> +5.2036185e-01 </wgt>
<wgt id='1569'> +5.1985174e-01 </wgt>
<wgt id='1570'> +5.1926409e-01 </wgt>
<wgt id='1571'> +5.1868804e-01 </wgt>
<wgt id='1572'> +5.1814196e-01 </wgt>
<wgt id='1573'> +5.1710750e-01 </wgt>
<wgt id='1574'> +5.1628203e-01 </wgt>
<wgt id='1575'> +5.1575309e-01 </wgt>
<wgt id='1576'> +5.1762336e-01 </wgt>
<wgt id='1577'> +5.1746293e-01 </wgt>
<wgt id='1578'> +5.1755603e-01 </wgt>
<wgt id='1579'> +5.1767207e-01 </wgt>
<wgt id='1580'> +5.1773264e-01 </wgt>
<wgt id='1581'> +5.1856178e-01 </wgt>
<wgt id='1582'> +5.1886518e-01 </wgt>
<wgt id='1583'> +5.2041101e-01 </wgt>
<wgt id='1584'> +5.1582824e-01 </wgt>
<wgt id='1585'> +5.2007919e-01 </wgt>
<wgt id='1586'> +5.1518857e-01 </wgt>
<wgt id='1587'> +5.1408763e-01 </wgt>
<wgt id='1588'> +5.2243242e-01 </wgt>
<wgt id='1589'> +5.1824172e-01 </wgt>
<wgt id='1590'> +5.1949612e-01 </wgt>
<wgt id='1591'> +5.1752960e-01 </wgt>
<wgt id='1592'> +5.2140769e-01 </wgt>
<wgt id='1593'> +5.1944939e-01 </wgt>
<wgt id='1594'> +5.1873640e-01 </wgt>
<wgt id='1595'> +5.1795641e-01 </wgt>
<wgt id='1596'> +5.2195024e-01 </wgt>
<wgt id='1597'> +5.1988563e-01 </wgt>
<wgt id='1598'> +5.1849284e-01 </wgt>
<wgt id='1599'> +5.1898230e-01 </wgt>
<wgt id='1600'> +5.2018761e-01 </wgt>
<wgt id='1601'> +5.1776219e-01 </wgt>
<wgt id='1602'> +5.1972792e-01 </wgt>
<wgt id='1603'> +5.1955522e-01 </wgt>
<wgt id='1604'> +5.1895757e-01 </wgt>
<wgt id='1605'> +5.1772253e-01 </wgt>
<wgt id='1606'> +5.1911904e-01 </wgt>
<wgt id='1607'> +5.1903667e-01 </wgt>
<wgt id='1608'> +5.1912858e-01 </wgt>
<wgt id='1609'> +5.1979594e-01 </wgt>
<wgt id='1610'> +5.1790500e-01 </wgt>
<wgt id='1611'> +5.2113707e-01 </wgt>
<wgt id='1612'> +5.2725069e-01 </wgt>
<wgt id='1613'> +5.2691629e-01 </wgt>
<wgt id='1614'> +5.2814567e-01 </wgt>
<wgt id='1615'> +5.2829403e-01 </wgt>
<wgt id='1616'> +5.2689508e-01 </wgt>
<wgt id='1617'> +5.2656452e-01 </wgt>
<wgt id='1618'> +5.2753064e-01 </wgt>
<wgt id='1619'> +5.2488003e-01 </wgt>
<wgt id='1620'> +5.2582201e-01 </wgt>
<wgt id='1621'> +5.2787051e-01 </wgt>
<wgt id='1622'> +5.2831148e-01 </wgt>
<wgt id='1623'> +5.2722597e-01 </wgt>
<wgt id='1624'> +5.2743231e-01 </wgt>
<wgt id='1625'> +5.2882044e-01 </wgt>
<wgt id='1626'> +5.3031838e-01 </wgt>
<wgt id='1627'> +5.2749573e-01 </wgt>
<wgt id='1628'> +5.2715994e-01 </wgt>
<wgt id='1629'> +5.2793356e-01 </wgt>
<wgt id='1630'> +5.2864894e-01 </wgt>
<wgt id='1631'> +5.2764688e-01 </wgt>
<wgt id='1632'> +5.2968043e-01 </wgt>
<wgt id='1633'> +5.2628715e-01 </wgt>
<wgt id='1634'> +5.2967718e-01 </wgt>
<wgt id='1635'> +5.2691800e-01 </wgt>
<wgt id='1636'> +5.2713044e-01 </wgt>
<wgt id='1637'> +5.2910717e-01 </wgt>
<wgt id='1638'> +5.2687765e-01 </wgt>
<wgt id='1639'> +5.2857573e-01 </wgt>
<wgt id='1640'> +5.2791104e-01 </wgt>
<wgt id='1641'> +5.2200789e-01 </wgt>
<wgt id='1642'> +5.2616973e-01 </wgt>
<wgt id='1643'> +5.2705882e-01 </wgt>
<wgt id='1644'> +5.2596729e-01 </wgt>
<wgt id='1645'> +5.2655228e-01 </wgt>
<wgt id='1646'> +5.2771921e-01 </wgt>
<wgt id='1647'> +5.2645711e-01 </wgt>
<wgt id='1648'> +5.2677047e-01 </wgt>
<wgt id='1649'> +5.2778185e-01 </wgt>
<wgt id='1650'> +5.2688255e-01 </wgt>
<wgt id='1651'> +5.2756358e-01 </wgt>
<wgt id='1652'> +5.2672347e-01 </wgt>
<wgt id='1653'> +5.2715113e-01 </wgt>
<wgt id='1654'> +5.2679123e-01 </wgt>
<wgt id='1655'> +5.2809072e-01 </wgt>
<wgt id='1656'> +5.2737841e-01 </wgt>
<wgt id='1657'> +5.2697068e-01 </wgt>
<wgt id='1658'> +5.2790837e-01 </wgt>
<wgt id='1659'> +5.2825059e-01 </wgt>
<wgt id='1660'> +5.2728840e-01 </wgt>
<wgt id='1661'> +5.2735751e-01 </wgt>
<wgt id='1662'> +5.2725534e-01 </wgt>
<wgt id='1663'> +5.2782311e-01 </wgt>
<wgt id='1664'> +5.2737167e-01 </wgt>
<wgt id='1665'> +5.2737122e-01 </wgt>
<wgt id='1666'> +5.2776960e-01 </wgt>
<wgt id='1667'> +5.2687128e-01 </wgt>
<wgt id='1668'> +5.2708135e-01 </wgt>
<wgt id='1669'> +5.2710493e-01 </wgt>
<wgt id='1670'> +5.2649241e-01 </wgt>
<wgt id='1671'> +5.2735689e-01 </wgt>
<wgt id='1672'> +5.2809357e-01 </wgt>
<wgt id='1673'> +5.2750932e-01 </wgt>
<wgt id='1674'> +5.2736055e-01 </wgt>
<wgt id='1675'> +5.2685718e-01 </wgt>
<wgt id='1676'> +5.2664364e-01 </wgt>
<wgt id='1677'> +5.2738077e-01 </wgt>
<wgt id='1678'> +5.2760184e-01 </wgt>
<wgt id='1679'> +5.2773287e-01 </wgt>
<wgt id='1680'> +5.2833886e-01 </wgt>
<wgt id='1681'> +5.2698885e-01 </wgt>
<wgt id='1682'> +5.2695917e-01 </wgt>
<wgt id='1683'> +5.2717847e-01 </wgt>
<wgt id='1684'> +5.2729037e-01 </wgt>
<wgt id='1685'> +5.2714689e-01 </wgt>
<wgt id='1686'> +5.2683151e-01 </wgt>
<wgt id='1687'> +5.2662797e-01 </wgt>
<wgt id='1688'> +5.2684473e-01 </wgt>
<wgt id='1689'> +5.2744723e-01 </wgt>
<wgt id='1690'> +5.2773018e-01 </wgt>
<wgt id='1691'> +5.2709950e-01 </wgt>
<wgt id='1692'> +5.2749192e-01 </wgt>
<wgt id='1693'> +5.2769656e-01 </wgt>
<wgt id='1694'> +5.2764094e-01 </wgt>
<wgt id='1695'> +5.2775099e-01 </wgt>
<wgt id='1696'> +5.2713274e-01 </wgt>
<wgt id='1697'> +5.2732556e-01 </wgt>
<wgt id='1698'> +5.2676935e-01 </wgt>
<wgt id='1699'> +5.2719810e-01 </wgt>
<wgt id='1700'> +5.2677835e-01 </wgt>
<wgt id='1701'> +5.2752942e-01 </wgt>
<wgt id='1702'> +5.2734052e-01 </wgt>
<wgt id='1703'> +5.2702397e-01 </wgt>
<wgt id='1704'> +5.2732000e-01 </wgt>
<wgt id='1705'> +5.2679470e-01 </wgt>
<wgt id='1706'> +5.2718177e-01 </wgt>
<wgt id='1707'> +5.2712297e-01 </wgt>
<wgt id='1708'> +5.2722084e-01 </wgt>
<wgt id='1709'> +5.2747264e-01 </wgt>
<wgt id='1710'> +5.2722390e-01 </wgt>
<wgt id='1711'> +5.2717258e-01 </wgt>
<wgt id='1712'> +5.2719231e-01 </wgt>
<wgt id='1713'> +5.1846710e-01 </wgt>
<wgt id='1714'> +5.3378621e-01 </wgt>
<wgt id='1715'> +5.3079396e-01 </wgt>
<wgt id='1716'> +5.2681099e-01 </wgt>
<wgt id='1717'> +5.2366140e-01 </wgt>
<wgt id='1718'> +5.2024607e-01 </wgt>
<wgt id='1719'> +5.2395474e-01 </wgt>
<wgt id='1720'> +5.4047293e-01 </wgt>
<wgt id='1721'> +5.1154562e-01 </wgt>
<wgt id='1722'> +5.3161506e-01 </wgt>
<wgt id='1723'> +5.3453232e-01 </wgt>
<wgt id='1724'> +5.3405952e-01 </wgt>
<wgt id='1725'> +5.4122477e-01 </wgt>
<wgt id='1726'> +5.4427517e-01 </wgt>
<wgt id='1727'> +5.2967094e-01 </wgt>
<wgt id='1728'> +5.3174386e-01 </wgt>
<wgt id='1729'> +5.3280453e-01 </wgt>
<wgt id='1730'> +5.2691049e-01 </wgt>
<wgt id='1731'> +4.9405001e-01 </wgt>
<wgt id='1732'> +5.5650832e-01 </wgt>
<wgt id='1733'> +5.3832908e-01 </wgt>
<wgt id='1734'> +5.2472281e-01 </wgt>
<wgt id='1735'> +5.1678426e-01 </wgt>
<wgt id='1736'> +5.2566459e-01 </wgt>
<wgt id='1737'> +5.3615743e-01 </wgt>
<wgt id='1738'> +5.3742116e-01 </wgt>
<wgt id='1739'> +5.2631126e-01 </wgt>
<wgt id='1740'> +5.2503311e-01 </wgt>
<wgt id='1741'> +5.2705661e-01 </wgt>
<wgt id='1742'> +5.4973376e-01 </wgt>
<wgt id='1743'> +5.2325310e-01 </wgt>
<wgt id='1744'> +5.3385734e-01 </wgt>
<wgt id='1745'> +5.1459021e-01 </wgt>
<wgt id='1746'> +5.2855753e-01 </wgt>
<wgt id='1747'> +5.2671210e-01 </wgt>
<wgt id='1748'> +5.2426340e-01 </wgt>
<wgt id='1749'> +5.4882522e-01 </wgt>
<wgt id='1750'> +5.3597916e-01 </wgt>
<wgt id='1751'> +5.3053215e-01 </wgt>
<wgt id='1752'> +5.1046966e-01 </wgt>
<wgt id='1753'> +5.2382325e-01 </wgt>
<wgt id='1754'> +5.3262018e-01 </wgt>
<wgt id='1755'> +5.3837772e-01 </wgt>
<wgt id='1756'> +5.1923442e-01 </wgt>
<wgt id='1757'> +5.2220613e-01 </wgt>
<wgt id='1758'> +5.2519954e-01 </wgt>
<wgt id='1759'> +5.2504362e-01 </wgt>
<wgt id='1760'> +5.2086559e-01 </wgt>
<wgt id='1761'> +5.3543431e-01 </wgt>
<wgt id='1762'> +5.2967094e-01 </wgt>
<wgt id='1763'> +5.2960558e-01 </wgt>
<wgt id='1764'> +5.3769508e-01 </wgt>
<wgt id='1765'> +5.3588752e-01 </wgt>
<wgt id='1766'> +5.4817250e-01 </wgt>
<wgt id='1767'> +5.2587578e-01 </wgt>
<wgt id='1768'> +5.1749756e-01 </wgt>
<wgt id='1769'> +5.3461149e-01 </wgt>
<wgt id='1770'> +5.4779739e-01 </wgt>
<wgt id='1771'> +5.2831353e-01 </wgt>
<wgt id='1772'> +5.2341509e-01 </wgt>
<wgt id='1773'> +5.3442443e-01 </wgt>
<wgt id='1774'> +5.1767189e-01 </wgt>
<wgt id='1775'> +5.3290908e-01 </wgt>
<wgt id='1776'> +5.3500855e-01 </wgt>
<wgt id='1777'> +5.3898575e-01 </wgt>
<wgt id='1778'> +5.2564258e-01 </wgt>
<wgt id='1779'> +5.2522847e-01 </wgt>
<wgt id='1780'> +5.4265186e-01 </wgt>
<wgt id='1781'> +5.3479302e-01 </wgt>
<wgt id='1782'> +5.4655739e-01 </wgt>
<wgt id='1783'> +5.2059131e-01 </wgt>
<wgt id='1784'> +5.4499825e-01 </wgt>
<wgt id='1785'> +5.3426480e-01 </wgt>
<wgt id='1786'> +5.4010652e-01 </wgt>
<wgt id='1787'> +5.3725456e-01 </wgt>
<wgt id='1788'> +5.2286514e-01 </wgt>
<wgt id='1789'> +5.3542921e-01 </wgt>
<wgt id='1790'> +5.4618833e-01 </wgt>
<wgt id='1791'> +5.0649980e-01 </wgt>
<wgt id='1792'> +5.4165343e-01 </wgt>
<wgt id='1793'> +5.4711541e-01 </wgt>
<wgt id='1794'> +5.2997448e-01 </wgt>
<wgt id='1795'> +5.2306412e-01 </wgt>
<wgt id='1796'> +5.3715907e-01 </wgt>
<wgt id='1797'> +5.2148589e-01 </wgt>
<wgt id='1798'> +5.3928617e-01 </wgt>
<wgt id='1799'> +5.3505518e-01 </wgt>
<wgt id='1800'> +5.3369456e-01 </wgt>
<wgt id='1801'> +5.2588914e-01 </wgt>
<wgt id='1802'> +5.3031614e-01 </wgt>
<wgt id='1803'> +5.2942297e-01 </wgt>
<wgt id='1804'> +5.3838820e-01 </wgt>
<wgt id='1805'> +5.2739715e-01 </wgt>
<wgt id='1806'> +5.3041103e-01 </wgt>
<wgt id='1807'> +5.1564733e-01 </wgt>
<wgt id='1808'> +5.2860718e-01 </wgt>
<wgt id='1809'> +5.2500381e-01 </wgt>
<wgt id='1810'> +5.2722178e-01 </wgt>
<wgt id='1811'> +5.3357588e-01 </wgt>
<wgt id='1812'> +5.2868494e-01 </wgt>
<wgt id='1813'> +5.3790044e-01 </wgt>
<wgt id='1814'> +5.3897270e-01 </wgt>
<wgt id='1815'> +5.4196145e-01 </wgt>
<wgt id='1816'> +5.2555482e-01 </wgt>
<wgt id='1817'> +5.2995808e-01 </wgt>
<wgt id='1818'> +5.1675688e-01 </wgt>
<wgt id='1819'> +5.3069457e-01 </wgt>
<wgt id='1820'> +5.3356332e-01 </wgt>
<wgt id='1821'> +5.3476656e-01 </wgt>
<wgt id='1822'> +5.3368279e-01 </wgt>
<wgt id='1823'> +5.2474680e-01 </wgt>
<wgt id='1824'> +5.2410889e-01 </wgt>
<wgt id='1825'> +5.2590521e-01 </wgt>
<wgt id='1826'> +5.0838664e-01 </wgt>
<wgt id='1827'> +5.1197789e-01 </wgt>
<wgt id='1828'> +5.3760816e-01 </wgt>
<wgt id='1829'> +5.3684358e-01 </wgt>
<wgt id='1830'> +5.1202628e-01 </wgt>
<wgt id='1831'> +5.2797663e-01 </wgt>
<wgt id='1832'> +5.2047209e-01 </wgt>
<wgt id='1833'> +5.1680771e-01 </wgt>
<wgt id='1834'> +5.1616347e-01 </wgt>
<wgt id='1835'> +5.3106665e-01 </wgt>
<wgt id='1836'> +5.2408918e-01 </wgt>
<wgt id='1837'> +5.3502064e-01 </wgt>
<wgt id='1838'> +5.1483705e-01 </wgt>
<wgt id='1839'> +5.5456988e-01 </wgt>
<wgt id='1840'> +5.2421230e-01 </wgt>
<wgt id='1841'> +5.2727586e-01 </wgt>
<wgt id='1842'> +5.3186060e-01 </wgt>
<wgt id='1843'> +5.1173669e-01 </wgt>
<wgt id='1844'> +5.2405376e-01 </wgt>
<wgt id='1845'> +5.2120042e-01 </wgt>
<wgt id='1846'> +5.3194175e-01 </wgt>
<wgt id='1847'> +5.2058401e-01 </wgt>
<wgt id='1848'> +5.2239975e-01 </wgt>
<wgt id='1849'> +5.2537987e-01 </wgt>
<wgt id='1850'> +5.2905868e-01 </wgt>
<wgt id='1851'> +5.2495196e-01 </wgt>
<wgt id='1852'> +5.3410265e-01 </wgt>
<wgt id='1853'> +5.2041145e-01 </wgt>
<wgt id='1854'> +5.3499484e-01 </wgt>
<wgt id='1855'> +5.2085925e-01 </wgt>
<wgt id='1856'> +5.2747940e-01 </wgt>
<wgt id='1857'> +5.3862014e-01 </wgt>
<wgt id='1858'> +5.2772073e-01 </wgt>
<wgt id='1859'> +5.2931000e-01 </wgt>
<wgt id='1860'> +5.2097007e-01 </wgt>
<wgt id='1861'> +5.1687849e-01 </wgt>
<wgt id='1862'> +5.3445030e-01 </wgt>
<wgt id='1863'> +5.2119035e-01 </wgt>
<wgt id='1864'> +5.1948066e-01 </wgt>
<wgt id='1865'> +5.2699070e-01 </wgt>
<wgt id='1866'> +5.2723367e-01 </wgt>
<wgt id='1867'> +5.3106639e-01 </wgt>
<wgt id='1868'> +5.2478023e-01 </wgt>
<wgt id='1869'> +5.3470471e-01 </wgt>
<wgt id='1870'> +5.2527338e-01 </wgt>
<wgt id='1871'> +5.2616596e-01 </wgt>
<wgt id='1872'> +5.1031143e-01 </wgt>
<wgt id='1873'> +5.4047366e-01 </wgt>
<wgt id='1874'> +5.2697122e-01 </wgt>
<wgt id='1875'> +5.1855553e-01 </wgt>
<wgt id='1876'> +5.2708598e-01 </wgt>
<wgt id='1877'> +5.3212679e-01 </wgt>
<wgt id='1878'> +5.2326379e-01 </wgt>
<wgt id='1879'> +5.4131185e-01 </wgt>
<wgt id='1880'> +4.9934063e-01 </wgt>
<wgt id='1881'> +5.2959467e-01 </wgt>
<wgt id='1882'> +5.1861042e-01 </wgt>
<wgt id='1883'> +5.4929960e-01 </wgt>
<wgt id='1884'> +5.2021840e-01 </wgt>
<wgt id='1885'> +5.1433088e-01 </wgt>
<wgt id='1886'> +5.1285626e-01 </wgt>
<wgt id='1887'> +5.3489811e-01 </wgt>
<wgt id='1888'> +5.3424181e-01 </wgt>
<wgt id='1889'> +5.1587128e-01 </wgt>
<wgt id='1890'> +5.3457063e-01 </wgt>
<wgt id='1891'> +5.2670345e-01 </wgt>
<wgt id='1892'> +5.2623156e-01 </wgt>
<wgt id='1893'> +5.1952002e-01 </wgt>
<wgt id='1894'> +5.3590469e-01 </wgt>
<wgt id='1895'> +5.3131843e-01 </wgt>
<wgt id='1896'> +5.2056435e-01 </wgt>
<wgt id='1897'> +5.2369805e-01 </wgt>
<wgt id='1898'> +5.2680751e-01 </wgt>
<wgt id='1899'> +5.2130751e-01 </wgt>
<wgt id='1900'> +5.2280429e-01 </wgt>
<wgt id='1901'> +5.1807580e-01 </wgt>
<wgt id='1902'> +5.1686432e-01 </wgt>
<wgt id='1903'> +5.2115043e-01 </wgt>
<wgt id='1904'> +5.3174331e-01 </wgt>
<wgt id='1905'> +5.2776780e-01 </wgt>
<wgt id='1906'> +5.1896016e-01 </wgt>
<wgt id='1907'> +5.2371505e-01 </wgt>
<wgt id='1908'> +5.2965054e-01 </wgt>
<wgt id='1909'> +5.1936862e-01 </wgt>
<wgt id='1910'> +5.2493527e-01 </wgt>
<wgt id='1911'> +5.0591575e-01 </wgt>
<wgt id='1912'> +5.2780295e-01 </wgt>
<wgt id='1913'> +5.2254677e-01 </wgt>
<wgt id='1914'> +5.4245751e-01 </wgt>
<wgt id='1915'> +5.3484114e-01 </wgt>
<wgt id='1916'> +5.1029493e-01 </wgt>
<wgt id='1917'> +5.1530174e-01 </wgt>
<wgt id='1918'> +5.4845202e-01 </wgt>
<wgt id='1919'> +5.2555482e-01 </wgt>
<wgt id='1920'> +5.2995808e-01 </wgt>
<wgt id='1921'> +5.1675688e-01 </wgt>
<wgt id='1922'> +5.3069457e-01 </wgt>
<wgt id='1923'> +5.3356332e-01 </wgt>
<wgt id='1924'> +5.3476656e-01 </wgt>
<wgt id='1925'> +5.3368279e-01 </wgt>
<wgt id='1926'> +5.2474680e-01 </wgt>
<wgt id='1927'> +5.2410889e-01 </wgt>
<wgt id='1928'> +5.2590521e-01 </wgt>
<wgt id='1929'> +5.0838664e-01 </wgt>
<wgt id='1930'> +5.1197789e-01 </wgt>
<wgt id='1931'> +5.3760816e-01 </wgt>
<wgt id='1932'> +5.3684358e-01 </wgt>
<wgt id='1933'> +5.1202628e-01 </wgt>
<wgt id='1934'> +5.2797663e-01 </wgt>
<wgt id='1935'> +5.2047209e-01 </wgt>
<wgt id='1936'> +5.1680771e-01 </wgt>
<wgt id='1937'> +5.1616347e-01 </wgt>
<wgt id='1938'> +5.3106665e-01 </wgt>
<wgt id='1939'> +5.2408918e-01 </wgt>
<wgt id='1940'> +5.3502064e-01 </wgt>
<wgt id='1941'> +5.1483705e-01 </wgt>
<wgt id='1942'> +5.5456988e-01 </wgt>
<wgt id='1943'> +5.2421230e-01 </wgt>
<wgt id='1944'> +5.2727586e-01 </wgt>
<wgt id='1945'> +5.3186060e-01 </wgt>
<wgt id='1946'> +5.1173669e-01 </wgt>
<wgt id='1947'> +5.2405376e-01 </wgt>
<wgt id='1948'> +5.2120042e-01 </wgt>
<wgt id='1949'> +5.3194175e-01 </wgt>
<wgt id='1950'> +5.2058401e-01 </wgt>
<wgt id='1951'> +5.2239975e-01 </wgt>
<wgt id='1952'> +5.2537987e-01 </wgt>
<wgt id='1953'> +5.2905868e-01 </wgt>
<wgt id='1954'> +5.2495196e-01 </wgt>
<wgt id='1955'> +5.3410265e-01 </wgt>
<wgt id='1956'> +5.2041145e-01 </wgt>
<wgt id='1957'> +5.3499484e-01 </wgt>
<wgt id='1958'> +5.2085925e-01 </wgt>
<wgt id='1959'> +5.2747940e-01 </wgt>
<wgt id='1960'> +5.3862014e-01 </wgt>
<wgt id='1961'> +5.2772073e-01 </wgt>
<wgt id='1962'> +5.2931000e-01 </wgt>
<wgt id='1963'> +5.2097007e-01 </wgt>
<wgt id='1964'> +5.1687849e-01 </wgt>
<wgt id='1965'> +5.3445030e-01 </wgt>
<wgt id='1966'> +5.2119035e-01 </wgt>
<wgt id='1967'> +5.1948066e-01 </wgt>
<wgt id='1968'> +5.2699070e-01 </wgt>
<wgt id='1969'> +5.2723367e-01 </wgt>
<wgt id='1970'> +5.3106639e-01 </wgt>
<wgt id='1971'> +5.2478023e-01 </wgt>
<wgt id='1972'> +5.3470471e-01 </wgt>
<wgt id='1973'> +5.2527338e-01 </wgt>
<wgt id='1974'> +5.2616596e-01 </wgt>
<wgt id='1975'> +5.1031143e-01 </wgt>
<wgt id='1976'> +5.4047366e-01 </wgt>
<wgt id='1977'> +5.2697122e-01 </wgt>
<wgt id='1978'> +5.1855553e-01 </wgt>
<wgt id='1979'> +5.2708598e-01 </wgt>
<wgt id='1980'> +5.3212679e-01 </wgt>
<wgt id='1981'> +5.2326379e-01 </wgt>
<wgt id='1982'> +5.4131185e-01 </wgt>
<wgt id='1983'> +4.9934063e-01 </wgt>
<wgt id='1984'> +5.2959467e-01 </wgt>
<wgt id='1985'> +5.1861042e-01 </wgt>
<wgt id='1986'> +5.4929960e-01 </wgt>
<wgt id='1987'> +5.2021840e-01 </wgt>
<wgt id='1988'> +5.1433088e-01 </wgt>
<wgt id='1989'> +5.1285626e-01 </wgt>
<wgt id='1990'> +5.3489811e-01 </wgt>
<wgt id='1991'> +5.3424181e-01 </wgt>
<wgt id='1992'> +5.1587128e-01 </wgt>
<wgt id='1993'> +5.3457063e-01 </wgt>
<wgt id='1994'> +5.2670345e-01 </wgt>
<wgt id='1995'> +5.2623156e-01 </wgt>
<wgt id='1996'> +5.1952002e-01 </wgt>
<wgt id='1997'> +5.3590469e-01 </wgt>
<wgt id='1998'> +5.3131843e-01 </wgt>
<wgt id='1999'> +5.2056435e-01 </wgt>
<wgt id='2000'> +5.2369805e-01 </wgt>
<wgt id='2001'> +5.2680751e-01 </wgt>
<wgt id='2002'> +5.2130751e-01 </wgt>
<wgt id='2003'> +5.2280429e-01 </wgt>
<wgt id='2004'> +5.1807580e-01 </wgt>
<wgt id='2005'> +5.1686432e-01 </wgt>
<wgt id='2006'> +5.2115043e-01 </wgt>
<wgt id='2007'> +5.3174331e-01 </wgt>
<wgt id='2008'> +5.2776780e-01 </wgt>
<wgt id='2009'> +5.1896016e-01 </wgt>
<wgt id='2010'> +5.2371505e-01 </wgt>
<wgt id='2011'> +5.2965054e-01 </wgt>
<wgt id='2012'> +5.1936862e-01 </wgt>
<wgt id='2013'> +5.2493527e-01 </wgt>
<wgt id='2014'> +5.0591575e-01 </wgt>
<wgt id='2015'> +5.2780295e-01 </wgt>
<wgt id='2016'> +5.2254677e-01 </wgt>
<wgt id='2017'> +5.4245751e-01 </wgt>
<wgt id='2018'> +5.3484114e-01 </wgt>
<wgt id='2019'> +5.1029493e-01 </wgt>
<wgt id='2020'> +5.2422080e-01 </wgt>
<wgt id='2021'> +5.2770941e-01 </wgt>
<wgt id='2022'> +5.2642323e-01 </wgt>
</rwgt>
</event>
<event>
 13 2 0.0079112 1.41272200e+02 7.81860800e-03 1.25128600e-01
       -2 -1    0    0    0  501 +0.0000000000e+00 +0.0000000000e+00 +6.6229280432e+02 6.6229280433e+02 2.5500000000e-03 0.0000e+00 1.0000e+00
       21 -1    0    0  502  503 +0.0000000000e+00 +0.0000000000e+00 -2.2321766249e+02 2.2321766249e+02 0.0000000000e+00 0.0000e+00 1.0000e+00
 -8000001  2    1    2    0  503 -1.9029823571e+01 +2.1189681196e+01 +2.9610640827e+02 6.6969404148e+02 5.9999997283e+02 0.0000e+00 0.0000e+00
       -1  1    1    2    0  501 +1.2522097465e+01 +1.1178648799e+01 +1.7126385299e+02 1.7208449227e+02 5.0400000000e-03 0.0000e+00 1.0000e+00
        5  1    1    2  502    0 +6.5077261059e+00 -3.2368329995e+01 -2.8295119431e+01 4.3731933071e+01 4.6700000000e+00 0.0000e+00 -1.0000e+00
       -6  2    3    3    0  503 +1.5910042253e+02 -1.9358068327e+02 +1.2177512235e+02 3.2860355491e+02 1.7425467136e+02 0.0000e+00 0.0000e+00
       -5  1    6    6    0  503 +6.5376521893e+01 -1.1950155462e+02 +1.0721924721e+01 1.3671678662e+02 4.6700000000e+00 0.0000e+00 1.0000e+00
      -24  2    6    6    0    0 +9.3723900634e+01 -7.4079128649e+01 +1.1105319763e+02 1.9188676829e+02 1.0107340051e+02 0.0000e+00 0.0000e+00
        3  1    8    8  504    0 +2.2320982281e+01 -7.7322900998e+01 +3.5776458849e+01 8.8073960270e+01 1.0100000000e-01 0.0000e+00 -1.0000e+00
       -4  1    8    8    0  504 +7.1402918353e+01 +3.2437723491e+00 +7.5276738778e+01 1.0381280802e+02 1.2700000000e+00 0.0000e+00 1.0000e+00
       23  2    3    3    0    0 -1.7813024610e+02 +2.1477036447e+02 +1.7433128593e+02 3.4109048657e+02 8.9970154764e+01 0.0000e+00 0.0000e+00
        2  1   11   11  505    0 -1.0512890241e+02 +7.6117338967e+01 +4.3287090551e+01 1.3681998256e+02 2.5500000000e-03 0.0000e+00 -1.0000e+00
       -2  1   11   11    0  505 -7.3001343691e+01 +1.3865302550e+02 +1.3104419537e+02 2.0427050401e+02 2.5500000000e-03 0.0000e+00 1.0000e+00
<mgrwt>
<rscale>  1 0.48696768e+02</rscale>
<asrwt>0</asrwt>
<pdfrwt beam="1">  1       21 0.34341179e-01 0.14127218e+03</pdfrwt>
<pdfrwt beam="2">  1       -2 0.10189120e+00 0.16785861e+02</pdfrwt>
<totfact> 0.88973995e+02</totfact>
</mgrwt>
<rwgt>
<wgt id='1001'> +5.2878984e-01 </wgt>
<wgt id='1002'> +2.9212853e-01 </wgt>
<wgt id='1003'> +2.9211519e-01 </wgt>
<wgt id='1004'> +3.3597967e-01 </wgt>
<wgt id='1005'> +2.8052305e-01 </wgt>
<wgt id='1006'> +4.7118770e-01 </wgt>
<wgt id='1007'> +2.6975314e-01 </wgt>
<wgt id='1008'> +2.6974142e-01 </wgt>
<wgt id='1009'> +3.0800341e-01 </wgt>
<wgt id='1010'> +2.5953827e-01 </wgt>
<wgt id='1011'> +6.0314791e-01 </wgt>
<wgt id='1012'> +3.1866371e-01 </wgt>
<wgt id='1013'> +3.1864830e-01 </wgt>
<wgt id='1014'> +3.6971221e-01 </wgt>
<wgt id='1015'> +3.0529620e-01 </wgt>
<wgt id='1016'> +4.9890456e-01 </wgt>
<wgt id='1017'> +2.7708633e-01 </wgt>
<wgt id='1018'> +2.7707386e-01 </wgt>
<wgt id='1019'> +3.1864830e-01 </wgt>
<wgt id='1020'> +2.6625329e-01 </wgt>
<wgt id='1021'> +4.4455788e-01 </wgt>
<wgt id='1022'> +2.5586308e-01 </wgt>
<wgt id='1023'> +2.5585214e-01 </wgt>
<wgt id='1024'> +2.9211519e-01 </wgt>
<wgt id='1025'> +2.4633597e-01 </wgt>
<wgt id='1026'> +5.6906018e-01 </wgt>
<wgt id='1027'> +3.0225516e-01 </wgt>
<wgt id='1028'> +3.0224075e-01 </wgt>
<wgt id='1029'> +3.5064077e-01 </wgt>
<wgt id='1030'> +2.8976626e-01 </wgt>
<wgt id='1031'> +5.5957597e-01 </wgt>
<wgt id='1032'> +3.0801753e-01 </wgt>
<wgt id='1033'> +3.0800341e-01 </wgt>
<wgt id='1034'> +3.5439820e-01 </wgt>
<wgt id='1035'> +2.9576017e-01 </wgt>
<wgt id='1036'> +4.9862024e-01 </wgt>
<wgt id='1037'> +2.8442513e-01 </wgt>
<wgt id='1038'> +2.8441273e-01 </wgt>
<wgt id='1039'> +3.2488827e-01 </wgt>
<wgt id='1040'> +2.7363557e-01 </wgt>
<wgt id='1041'> +6.3826317e-01 </wgt>
<wgt id='1042'> +3.3599596e-01 </wgt>
<wgt id='1043'> +3.3597967e-01 </wgt>
<wgt id='1044'> +3.8997998e-01 </wgt>
<wgt id='1045'> +3.2187892e-01 </wgt>
<wgt id='1046'> +5.2878984e-01 </wgt>
<wgt id='1047'> +5.2878984e-01 </wgt>
<wgt id='1048'> +5.2878984e-01 </wgt>
<wgt id='1049'> +5.2819007e-01 </wgt>
<wgt id='1050'> +5.2899826e-01 </wgt>
<wgt id='1051'> +5.2953522e-01 </wgt>
<wgt id='1052'> +5.3240730e-01 </wgt>
<wgt id='1053'> +5.2194419e-01 </wgt>
<wgt id='1054'> +5.2909103e-01 </wgt>
<wgt id='1055'> +5.2533195e-01 </wgt>
<wgt id='1056'> +5.2390828e-01 </wgt>
<wgt id='1057'> +5.3213241e-01 </wgt>
<wgt id='1058'> +5.2591023e-01 </wgt>
<wgt id='1059'> +5.3053780e-01 </wgt>
<wgt id='1060'> +5.2994444e-01 </wgt>
<wgt id='1061'> +5.3629324e-01 </wgt>
<wgt id='1062'> +5.2604842e-01 </wgt>
<wgt id='1063'> +5.3818545e-01 </wgt>
<wgt id='1064'> +5.2708652e-01 </wgt>
<wgt id='1065'> +5.2913894e-01 </wgt>
<wgt id='1066'> +5.2296275e-01 </wgt>
<wgt id='1067'> +5.3249530e-01 </wgt>
<wgt id='1068'> +5.2828884e-01 </wgt>
<wgt id='1069'> +5.2341928e-01 </wgt>
<wgt id='1070'> +5.2767883e-01 </wgt>
<wgt id='1071'> +5.2891514e-01 </wgt>
<wgt id='1072'> +5.2423551e-01 </wgt>
<wgt id='1073'> +5.2944009e-01 </wgt>
<wgt id='1074'> +5.2947011e-01 </wgt>
<wgt id='1075'> +5.3323953e-01 </wgt>
<wgt id='1076'> +5.2608070e-01 </wgt>
<wgt id='1077'> +5.3442100e-01 </wgt>
<wgt id='1078'> +5.3055094e-01 </wgt>
<wgt id='1079'> +5.3215054e-01 </wgt>
<wgt id='1080'> +5.2580047e-01 </wgt>
<wgt id='1081'> +5.2782518e-01 </wgt>
<wgt id='1082'> +5.3036258e-01 </wgt>
<wgt id='1083'> +5.2656742e-01 </wgt>
<wgt id='1084'> +5.2887125e-01 </wgt>
<wgt id='1085'> +5.2857142e-01 </wgt>
<wgt id='1086'> +5.2879428e-01 </wgt>
<wgt id='1087'> +5.2766298e-01 </wgt>
<wgt id='1088'> +5.2828872e-01 </wgt>
<wgt id='1089'> +5.2672953e-01 </wgt>
<wgt id='1090'> +5.2941430e-01 </wgt>
<wgt id='1091'> +5.3045269e-01 </wgt>
<wgt id='1092'> +5.2806741e-01 </wgt>
<wgt id='1093'> +5.2970004e-01 </wgt>
<wgt id='1094'> +5.2855759e-01 </wgt>
<wgt id='1095'> +5.2821053e-01 </wgt>
<wgt id='1096'> +5.3300683e-01 </wgt>
<wgt id='1097'> +5.2372738e-01 </wgt>
<wgt id='1098'> +5.3137877e-01 </wgt>
<wgt id='1099'> +5.2837631e-01 </wgt>
<wgt id='1100'> +5.2616784e-01 </wgt>
<wgt id='1101'> +5.2882334e-01 </wgt>
<wgt id='1102'> +5.2913845e-01 </wgt>
<wgt id='1103'> +5.3118725e-01 </wgt>
<wgt id='1104'> +5.3052757e-01 </wgt>
<wgt id='1105'> +5.2998093e-01 </wgt>
<wgt id='1106'> +5.3050426e-01 </wgt>
<wgt id='1107'> +5.2945617e-01 </wgt>
<wgt id='1108'> +5.3145759e-01 </wgt>
<wgt id='1109'> +5.3290486e-01 </wgt>
<wgt id='1110'> +5.3093547e-01 </wgt>
<wgt id='1111'> +5.2683702e-01 </wgt>
<wgt id='1112'> +5.2939860e-01 </wgt>
<wgt id='1113'> +5.2985003e-01 </wgt>
<wgt id='1114'> +5.3300924e-01 </wgt>
<wgt id='1115'> +5.2882892e-01 </wgt>
<wgt id='1116'> +5.3002408e-01 </wgt>
<wgt id='1117'> +5.2753189e-01 </wgt>
<wgt id='1118'> +5.2984049e-01 </wgt>
<wgt id='1119'> +5.2773540e-01 </wgt>
<wgt id='1120'> +5.2768971e-01 </wgt>
<wgt id='1121'> +5.2876136e-01 </wgt>
<wgt id='1122'> +5.2795528e-01 </wgt>
<wgt id='1123'> +5.2714856e-01 </wgt>
<wgt id='1124'> +5.2906925e-01 </wgt>
<wgt id='1125'> +5.3125477e-01 </wgt>
<wgt id='1126'> +5.3063980e-01 </wgt>
<wgt id='1127'> +5.2731851e-01 </wgt>
<wgt id='1128'> +5.2841069e-01 </wgt>
<wgt id='1129'> +5.2787155e-01 </wgt>
<wgt id='1130'> +5.3113719e-01 </wgt>
<wgt id='1131'> +5.2869770e-01 </wgt>
<wgt id='1132'> +5.3058319e-01 </wgt>
<wgt id='1133'> +5.2810380e-01 </wgt>
<wgt id='1134'> +5.2930037e-01 </wgt>
<wgt id='1135'> +5.2886233e-01 </wgt>
<wgt id='1136'> +5.2752444e-01 </wgt>
<wgt id='1137'> +5.2967574e-01 </wgt>
<wgt id='1138'> +5.2836077e-01 </wgt>
<wgt id='1139'> +5.2908491e-01 </wgt>
<wgt id='1140'> +5.2744740e-01 </wgt>
<wgt id='1141'> +5.2911610e-01 </wgt>
<wgt id='1142'> +5.2883254e-01 </wgt>
<wgt id='1143'> +5.2887671e-01 </wgt>
<wgt id='1144'> +5.3161264e-01 </wgt>
<wgt id='1145'> +5.2862453e-01 </wgt>
<wgt id='1146'> +5.2878792e-01 </wgt>
<wgt id='1147'> +5.3044359e-01 </wgt>
<wgt id='1148'> +5.2878984e-01 </wgt>
<wgt id='1149'> +5.3353643e-01 </wgt>
<wgt id='1150'> +6.0870390e-01 </wgt>
<wgt id='1151'> +5.4307295e-01 </wgt>
<wgt id='1152'> +5.6706614e-01 </wgt>
<wgt id='1153'> +5.6423411e-01 </wgt>
<wgt id='1154'> +5.2010876e-01 </wgt>
<wgt id='1155'> +5.3653121e-01 </wgt>
<wgt id='1156'> +5.0287433e-01 </wgt>
<wgt id='1157'> +5.2539051e-01 </wgt>
<wgt id='1158'> +5.2637343e-01 </wgt>
<wgt id='1159'> +5.3569327e-01 </wgt>
<wgt id='1160'> +5.3463780e-01 </wgt>
<wgt id='1161'> +5.2724208e-01 </wgt>
<wgt id='1162'> +5.1024074e-01 </wgt>
<wgt id='1163'> +5.3328015e-01 </wgt>
<wgt id='1164'> +5.1780257e-01 </wgt>
<wgt id='1165'> +4.9975008e-01 </wgt>
<wgt id='1166'> +5.5305482e-01 </wgt>
<wgt id='1167'> +5.4399128e-01 </wgt>
<wgt id='1168'> +5.3209922e-01 </wgt>
<wgt id='1169'> +4.7653054e-01 </wgt>
<wgt id='1170'> +5.5495436e-01 </wgt>
<wgt id='1171'> +5.6116250e-01 </wgt>
<wgt id='1172'> +5.4366585e-01 </wgt>
<wgt id='1173'> +5.0853694e-01 </wgt>
<wgt id='1174'> +5.0440461e-01 </wgt>
<wgt id='1175'> +5.3132077e-01 </wgt>
<wgt id='1176'> +5.8835917e-01 </wgt>
<wgt id='1177'> +5.3860750e-01 </wgt>
<wgt id='1178'> +5.2609686e-01 </wgt>
<wgt id='1179'> +5.5170461e-01 </wgt>
<wgt id='1180'> +5.6031192e-01 </wgt>
<wgt id='1181'> +5.3037852e-01 </wgt>
<wgt id='1182'> +5.4138075e-01 </wgt>
<wgt id='1183'> +5.5071065e-01 </wgt>
<wgt id='1184'> +5.4629946e-01 </wgt>
<wgt id='1185'> +5.2976535e-01 </wgt>
<wgt id='1186'> +5.4631833e-01 </wgt>
<wgt id='1187'> +5.1159937e-01 </wgt>
<wgt id='1188'> +5.5046489e-01 </wgt>
<wgt id='1189'> +5.0092349e-01 </wgt>
<wgt id='1190'> +5.5385397e-01 </wgt>
<wgt id='1191'> +5.3249430e-01 </wgt>
<wgt id='1192'> +5.8491949e-01 </wgt>
<wgt id='1193'> +5.4461344e-01 </wgt>
<wgt id='1194'> +5.1791129e-01 </wgt>
<wgt id='1195'> +5.3974518e-01 </wgt>
<wgt id='1196'> +5.5045036e-01 </wgt>
<wgt id='1197'> +5.1887807e-01 </wgt>
<wgt id='1198'> +5.4088811e-01 </wgt>
<wgt id='1199'> +5.3607110e-01 </wgt>
<wgt id='1200'> +5.3859607e-01 </wgt>
<wgt id='1201'> +4.9889325e-01 </wgt>
<wgt id='1202'> +5.3313843e-01 </wgt>
<wgt id='1203'> +5.3379133e-01 </wgt>
<wgt id='1204'> +5.5187763e-01 </wgt>
<wgt id='1205'> +5.5485462e-01 </wgt>
<wgt id='1206'> +5.4091048e-01 </wgt>
<wgt id='1207'> +5.5406568e-01 </wgt>
<wgt id='1208'> +5.2731200e-01 </wgt>
<wgt id='1209'> +5.4355466e-01 </wgt>
<wgt id='1210'> +5.4364217e-01 </wgt>
<wgt id='1211'> +5.2999956e-01 </wgt>
<wgt id='1212'> +5.3995485e-01 </wgt>
<wgt id='1213'> +5.1201017e-01 </wgt>
<wgt id='1214'> +5.2631083e-01 </wgt>
<wgt id='1215'> +5.0001390e-01 </wgt>
<wgt id='1216'> +5.3608145e-01 </wgt>
<wgt id='1217'> +5.5463999e-01 </wgt>
<wgt id='1218'> +5.2464822e-01 </wgt>
<wgt id='1219'> +5.3503473e-01 </wgt>
<wgt id='1220'> +5.4728843e-01 </wgt>
<wgt id='1221'> +4.9750201e-01 </wgt>
<wgt id='1222'> +4.6793099e-01 </wgt>
<wgt id='1223'> +4.9025383e-01 </wgt>
<wgt id='1224'> +5.2108591e-01 </wgt>
<wgt id='1225'> +5.6487208e-01 </wgt>
<wgt id='1226'> +5.3267721e-01 </wgt>
<wgt id='1227'> +5.2634242e-01 </wgt>
<wgt id='1228'> +5.2167128e-01 </wgt>
<wgt id='1229'> +5.6324282e-01 </wgt>
<wgt id='1230'> +5.6029602e-01 </wgt>
<wgt id='1231'> +4.9975008e-01 </wgt>
<wgt id='1232'> +4.9640571e-01 </wgt>
<wgt id='1233'> +5.3838992e-01 </wgt>
<wgt id='1234'> +5.3621814e-01 </wgt>
<wgt id='1235'> +5.7869828e-01 </wgt>
<wgt id='1236'> +5.3881844e-01 </wgt>
<wgt id='1237'> +5.6760939e-01 </wgt>
<wgt id='1238'> +4.7002799e-01 </wgt>
<wgt id='1239'> +5.3436819e-01 </wgt>
<wgt id='1240'> +5.2154975e-01 </wgt>
<wgt id='1241'> +4.5609850e-01 </wgt>
<wgt id='1242'> +5.0733876e-01 </wgt>
<wgt id='1243'> +5.2234504e-01 </wgt>
<wgt id='1244'> +5.4627144e-01 </wgt>
<wgt id='1245'> +5.2936234e-01 </wgt>
<wgt id='1246'> +5.5909197e-01 </wgt>
<wgt id='1247'> +5.5996287e-01 </wgt>
<wgt id='1248'> +5.3718342e-01 </wgt>
<wgt id='1249'> +5.2165403e-01 </wgt>
<wgt id='1250'> +4.8299822e-01 </wgt>
<wgt id='1251'> +4.8025892e-01 </wgt>
<wgt id='1252'> +4.9210884e-01 </wgt>
<wgt id='1253'> +5.0673218e-01 </wgt>
<wgt id='1254'> +4.8558034e-01 </wgt>
<wgt id='1255'> +5.9917017e-01 </wgt>
<wgt id='1256'> +5.9596216e-01 </wgt>
<wgt id='1257'> +6.0099421e-01 </wgt>
<wgt id='1258'> +5.9184016e-01 </wgt>
<wgt id='1259'> +6.0285186e-01 </wgt>
<wgt id='1260'> +6.0062175e-01 </wgt>
<wgt id='1261'> +5.9716423e-01 </wgt>
<wgt id='1262'> +6.0093934e-01 </wgt>
<wgt id='1263'> +5.9798332e-01 </wgt>
<wgt id='1264'> +6.0293205e-01 </wgt>
<wgt id='1265'> +5.9659739e-01 </wgt>
<wgt id='1266'> +5.9893603e-01 </wgt>
<wgt id='1267'> +5.9938729e-01 </wgt>
<wgt id='1268'> +5.9923337e-01 </wgt>
<wgt id='1269'> +5.9888402e-01 </wgt>
<wgt id='1270'> +5.8870686e-01 </wgt>
<wgt id='1271'> +6.1078099e-01 </wgt>
<wgt id='1272'> +6.0027579e-01 </wgt>
<wgt id='1273'> +5.9827784e-01 </wgt>
<wgt id='1274'> +6.0229936e-01 </wgt>
<wgt id='1275'> +5.9610896e-01 </wgt>
<wgt id='1276'> +5.9658122e-01 </wgt>
<wgt id='1277'> +6.0230838e-01 </wgt>
<wgt id='1278'> +6.0609635e-01 </wgt>
<wgt id='1279'> +5.9338029e-01 </wgt>
<wgt id='1280'> +6.0430449e-01 </wgt>
<wgt id='1281'> +5.8229664e-01 </wgt>
<wgt id='1282'> +6.0131930e-01 </wgt>
<wgt id='1283'> +5.9436153e-01 </wgt>
<wgt id='1284'> +5.9181265e-01 </wgt>
<wgt id='1285'> +6.0636596e-01 </wgt>
<wgt id='1286'> +6.0786743e-01 </wgt>
<wgt id='1287'> +5.9809575e-01 </wgt>
<wgt id='1288'> +6.0349921e-01 </wgt>
<wgt id='1289'> +5.9709125e-01 </wgt>
<wgt id='1290'> +5.9879574e-01 </wgt>
<wgt id='1291'> +5.9923127e-01 </wgt>
<wgt id='1292'> +6.0414129e-01 </wgt>
<wgt id='1293'> +5.9251096e-01 </wgt>
<wgt id='1294'> +5.9006582e-01 </wgt>
<wgt id='1295'> +6.0325319e-01 </wgt>
<wgt id='1296'> +5.4229984e-01 </wgt>
<wgt id='1297'> +5.4405101e-01 </wgt>
<wgt id='1298'> +5.4083400e-01 </wgt>
<wgt id='1299'> +5.4899723e-01 </wgt>
<wgt id='1300'> +5.3477801e-01 </wgt>
<wgt id='1301'> +5.3914596e-01 </wgt>
<wgt id='1302'> +5.4696366e-01 </wgt>
<wgt id='1303'> +5.3486610e-01 </wgt>
<wgt id='1304'> +5.4725479e-01 </wgt>
<wgt id='1305'> +5.4311892e-01 </wgt>
<wgt id='1306'> +5.4111511e-01 </wgt>
<wgt id='1307'> +5.4812894e-01 </wgt>
<wgt id='1308'> +5.3861235e-01 </wgt>
<wgt id='1309'> +5.4053992e-01 </wgt>
<wgt id='1310'> +5.4462296e-01 </wgt>
<wgt id='1311'> +5.3790520e-01 </wgt>
<wgt id='1312'> +5.4382231e-01 </wgt>
<wgt id='1313'> +5.4049765e-01 </wgt>
<wgt id='1314'> +5.4422186e-01 </wgt>
<wgt id='1315'> +5.4152133e-01 </wgt>
<wgt id='1316'> +5.4303007e-01 </wgt>
<wgt id='1317'> +5.4281110e-01 </wgt>
<wgt id='1318'> +5.4202499e-01 </wgt>
<wgt id='1319'> +5.5060542e-01 </wgt>
<wgt id='1320'> +5.3905449e-01 </wgt>
<wgt id='1321'> +5.4992390e-01 </wgt>
<wgt id='1322'> +5.3876922e-01 </wgt>
<wgt id='1323'> +5.4571252e-01 </wgt>
<wgt id='1324'> +5.3907475e-01 </wgt>
<wgt id='1325'> +5.4028445e-01 </wgt>
<wgt id='1326'> +5.4164614e-01 </wgt>
<wgt id='1327'> +5.4158028e-01 </wgt>
<wgt id='1328'> +5.4264135e-01 </wgt>
<wgt id='1329'> +5.4190551e-01 </wgt>
<wgt id='1330'> +5.4287630e-01 </wgt>
<wgt id='1331'> +5.5118917e-01 </wgt>
<wgt id='1332'> +5.3662960e-01 </wgt>
<wgt id='1333'> +5.5079368e-01 </wgt>
<wgt id='1334'> +5.3335836e-01 </wgt>
<wgt id='1335'> +5.4477417e-01 </wgt>
<wgt id='1336'> +5.4155830e-01 </wgt>
<wgt id='1337'> +5.4229984e-01 </wgt>
<wgt id='1338'> +5.4201854e-01 </wgt>
<wgt id='1339'> +5.4208154e-01 </wgt>
<wgt id='1340'> +5.4211075e-01 </wgt>
<wgt id='1341'> +5.4231214e-01 </wgt>
<wgt id='1342'> +5.4233268e-01 </wgt>
<wgt id='1343'> +5.4231166e-01 </wgt>
<wgt id='1344'> +5.1146910e-01 </wgt>
<wgt id='1345'> +5.1311243e-01 </wgt>
<wgt id='1346'> +5.0989113e-01 </wgt>
<wgt id='1347'> +5.0698930e-01 </wgt>
<wgt id='1348'> +5.1479380e-01 </wgt>
<wgt id='1349'> +5.0337311e-01 </wgt>
<wgt id='1350'> +5.1835065e-01 </wgt>
<wgt id='1351'> +5.1140187e-01 </wgt>
<wgt id='1352'> +5.1159490e-01 </wgt>
<wgt id='1353'> +5.1596230e-01 </wgt>
<wgt id='1354'> +5.0831575e-01 </wgt>
<wgt id='1355'> +5.1261306e-01 </wgt>
<wgt id='1356'> +5.1059674e-01 </wgt>
<wgt id='1357'> +5.1724479e-01 </wgt>
<wgt id='1358'> +5.0796256e-01 </wgt>
<wgt id='1359'> +5.1254390e-01 </wgt>
<wgt id='1360'> +5.0884961e-01 </wgt>
<wgt id='1361'> +5.1127704e-01 </wgt>
<wgt id='1362'> +5.1230077e-01 </wgt>
<wgt id='1363'> +5.1270937e-01 </wgt>
<wgt id='1364'> +5.1007944e-01 </wgt>
<wgt id='1365'> +5.2051581e-01 </wgt>
<wgt id='1366'> +5.0887544e-01 </wgt>
<wgt id='1367'> +5.1741705e-01 </wgt>
<wgt id='1368'> +5.0855117e-01 </wgt>
<wgt id='1369'> +5.1066093e-01 </wgt>
<wgt id='1370'> +5.1065631e-01 </wgt>
<wgt id='1371'> +5.1038410e-01 </wgt>
<wgt id='1372'> +5.1330413e-01 </wgt>
<wgt id='1373'> +5.1377866e-01 </wgt>
<wgt id='1374'> +5.1088437e-01 </wgt>
<wgt id='1375'> +5.1321672e-01 </wgt>
<wgt id='1376'> +5.1097196e-01 </wgt>
<wgt id='1377'> +5.1191516e-01 </wgt>
<wgt id='1378'> +5.1146964e-01 </wgt>
<wgt id='1379'> +5.0291921e-01 </wgt>
<wgt id='1380'> +5.1907600e-01 </wgt>
<wgt id='1381'> +5.0718188e-01 </wgt>
<wgt id='1382'> +5.1341423e-01 </wgt>
<wgt id='1383'> +5.1035247e-01 </wgt>
<wgt id='1384'> +5.1646090e-01 </wgt>
<wgt id='1385'> +5.1146910e-01 </wgt>
<wgt id='1386'> +5.1131265e-01 </wgt>
<wgt id='1387'> +5.1122200e-01 </wgt>
<wgt id='1388'> +5.1134145e-01 </wgt>
<wgt id='1389'> +5.1140484e-01 </wgt>
<wgt id='1390'> +5.1142233e-01 </wgt>
<wgt id='1391'> +5.1152498e-01 </wgt>
<wgt id='1392'> +5.7296940e-01 </wgt>
<wgt id='1393'> +5.7028044e-01 </wgt>
<wgt id='1394'> +5.7585365e-01 </wgt>
<wgt id='1395'> +5.7493880e-01 </wgt>
<wgt id='1396'> +5.7154106e-01 </wgt>
<wgt id='1397'> +5.7208467e-01 </wgt>
<wgt id='1398'> +5.7386289e-01 </wgt>
<wgt id='1399'> +5.6977202e-01 </wgt>
<wgt id='1400'> +5.7693355e-01 </wgt>
<wgt id='1401'> +5.6593714e-01 </wgt>
<wgt id='1402'> +5.8179400e-01 </wgt>
<wgt id='1403'> +5.7179123e-01 </wgt>
<wgt id='1404'> +5.7536918e-01 </wgt>
<wgt id='1405'> +5.6938134e-01 </wgt>
<wgt id='1406'> +5.7792022e-01 </wgt>
<wgt id='1407'> +5.7588853e-01 </wgt>
<wgt id='1408'> +5.7093671e-01 </wgt>
<wgt id='1409'> +5.6634219e-01 </wgt>
<wgt id='1410'> +5.8044260e-01 </wgt>
<wgt id='1411'> +5.6704214e-01 </wgt>
<wgt id='1412'> +5.7747638e-01 </wgt>
<wgt id='1413'> +5.7721408e-01 </wgt>
<wgt id='1414'> +5.6848807e-01 </wgt>
<wgt id='1415'> +5.6582757e-01 </wgt>
<wgt id='1416'> +5.8006354e-01 </wgt>
<wgt id='1417'> +5.7649920e-01 </wgt>
<wgt id='1418'> +5.6871224e-01 </wgt>
<wgt id='1419'> +5.7261609e-01 </wgt>
<wgt id='1420'> +5.7362115e-01 </wgt>
<wgt id='1421'> +5.6867036e-01 </wgt>
<wgt id='1422'> +5.7845396e-01 </wgt>
<wgt id='1423'> +5.8415233e-01 </wgt>
<wgt id='1424'> +5.6612588e-01 </wgt>
<wgt id='1425'> +5.7241203e-01 </wgt>
<wgt id='1426'> +5.7574342e-01 </wgt>
<wgt id='1427'> +5.7265382e-01 </wgt>
<wgt id='1428'> +5.7400310e-01 </wgt>
<wgt id='1429'> +5.7150004e-01 </wgt>
<wgt id='1430'> +5.7436902e-01 </wgt>
<wgt id='1431'> +5.7053285e-01 </wgt>
<wgt id='1432'> +5.7466465e-01 </wgt>
<wgt id='1433'> +5.6302853e-01 </wgt>
<wgt id='1434'> +5.9095062e-01 </wgt>
<wgt id='1435'> +5.6930094e-01 </wgt>
<wgt id='1436'> +5.7258351e-01 </wgt>
<wgt id='1437'> +5.7087985e-01 </wgt>
<wgt id='1438'> +5.7980311e-01 </wgt>
<wgt id='1439'> +5.7669595e-01 </wgt>
<wgt id='1440'> +5.6789973e-01 </wgt>
<wgt id='1441'> +5.8154151e-01 </wgt>
<wgt id='1442'> +5.7065605e-01 </wgt>
<wgt id='1443'> +5.6820475e-01 </wgt>
<wgt id='1444'> +5.6547799e-01 </wgt>
<wgt id='1445'> +5.7121834e-01 </wgt>
<wgt id='1446'> +5.7019169e-01 </wgt>
<wgt id='1447'> +5.6681678e-01 </wgt>
<wgt id='1448'> +5.6733705e-01 </wgt>
<wgt id='1449'> +5.6906666e-01 </wgt>
<wgt id='1450'> +5.6515517e-01 </wgt>
<wgt id='1451'> +5.7164369e-01 </wgt>
<wgt id='1452'> +5.6127345e-01 </wgt>
<wgt id='1453'> +5.7500666e-01 </wgt>
<wgt id='1454'> +5.6658286e-01 </wgt>
<wgt id='1455'> +5.7182157e-01 </wgt>
<wgt id='1456'> +5.6441614e-01 </wgt>
<wgt id='1457'> +5.7499070e-01 </wgt>
<wgt id='1458'> +5.7208061e-01 </wgt>
<wgt id='1459'> +5.6603304e-01 </wgt>
<wgt id='1460'> +5.5968973e-01 </wgt>
<wgt id='1461'> +5.7819587e-01 </wgt>
<wgt id='1462'> +5.6491644e-01 </wgt>
<wgt id='1463'> +5.7111580e-01 </wgt>
<wgt id='1464'> +5.7139705e-01 </wgt>
<wgt id='1465'> +5.6404534e-01 </wgt>
<wgt id='1466'> +5.5765689e-01 </wgt>
<wgt id='1467'> +5.7518169e-01 </wgt>
<wgt id='1468'> +5.6554366e-01 </wgt>
<wgt id='1469'> +5.7101943e-01 </wgt>
<wgt id='1470'> +5.6809786e-01 </wgt>
<wgt id='1471'> +5.6857569e-01 </wgt>
<wgt id='1472'> +5.6382924e-01 </wgt>
<wgt id='1473'> +5.7392923e-01 </wgt>
<wgt id='1474'> +5.7494918e-01 </wgt>
<wgt id='1475'> +5.6237659e-01 </wgt>
<wgt id='1476'> +5.6647660e-01 </wgt>
<wgt id='1477'> +5.7230640e-01 </wgt>
<wgt id='1478'> +5.6779183e-01 </wgt>
<wgt id='1479'> +5.6961217e-01 </wgt>
<wgt id='1480'> +5.6697103e-01 </wgt>
<wgt id='1481'> +5.6938106e-01 </wgt>
<wgt id='1482'> +5.6549794e-01 </wgt>
<wgt id='1483'> +5.7039743e-01 </wgt>
<wgt id='1484'> +5.5782755e-01 </wgt>
<wgt id='1485'> +5.8546149e-01 </wgt>
<wgt id='1486'> +5.6763697e-01 </wgt>
<wgt id='1487'> +5.6739090e-01 </wgt>
<wgt id='1488'> +5.6561719e-01 </wgt>
<wgt id='1489'> +5.7570566e-01 </wgt>
<wgt id='1490'> +5.7181761e-01 </wgt>
<wgt id='1491'> +5.6542524e-01 </wgt>
<wgt id='1492'> +5.7879270e-01 </wgt>
<wgt id='1493'> +5.6566404e-01 </wgt>
<wgt id='1494'> +5.5068230e-01 </wgt>
<wgt id='1495'> +5.4422971e-01 </wgt>
<wgt id='1496'> +5.4658311e-01 </wgt>
<wgt id='1497'> +5.4872479e-01 </wgt>
<wgt id='1498'> +5.5258625e-01 </wgt>
<wgt id='1499'> +5.5077213e-01 </wgt>
<wgt id='1500'> +5.3797737e-01 </wgt>
<wgt id='1501'> +5.4125708e-01 </wgt>
<wgt id='1502'> +5.4428683e-01 </wgt>
<wgt id='1503'> +5.4672782e-01 </wgt>
<wgt id='1504'> +5.4885695e-01 </wgt>
<wgt id='1505'> +5.5270881e-01 </wgt>
<wgt id='1506'> +5.5427667e-01 </wgt>
<wgt id='1507'> +5.5589513e-01 </wgt>
<wgt id='1508'> +5.5077213e-01 </wgt>
<wgt id='1509'> +5.5134774e-01 </wgt>
<wgt id='1510'> +5.5105153e-01 </wgt>
<wgt id='1511'> +5.5053051e-01 </wgt>
<wgt id='1512'> +5.5054109e-01 </wgt>
<wgt id='1513'> +5.2904130e-01 </wgt>
<wgt id='1514'> +5.2642202e-01 </wgt>
<wgt id='1515'> +5.3235466e-01 </wgt>
<wgt id='1516'> +5.2692491e-01 </wgt>
<wgt id='1517'> +5.3108610e-01 </wgt>
<wgt id='1518'> +5.3232315e-01 </wgt>
<wgt id='1519'> +5.2767112e-01 </wgt>
<wgt id='1520'> +5.2496264e-01 </wgt>
<wgt id='1521'> +5.3313086e-01 </wgt>
<wgt id='1522'> +5.2517420e-01 </wgt>
<wgt id='1523'> +5.3277354e-01 </wgt>
<wgt id='1524'> +5.3899434e-01 </wgt>
<wgt id='1525'> +5.2472680e-01 </wgt>
<wgt id='1526'> +5.2639838e-01 </wgt>
<wgt id='1527'> +5.3220391e-01 </wgt>
<wgt id='1528'> +5.2663376e-01 </wgt>
<wgt id='1529'> +5.3162195e-01 </wgt>
<wgt id='1530'> +5.2158856e-01 </wgt>
<wgt id='1531'> +5.3319862e-01 </wgt>
<wgt id='1532'> +5.2815122e-01 </wgt>
<wgt id='1533'> +5.3021332e-01 </wgt>
<wgt id='1534'> +5.2104576e-01 </wgt>
<wgt id='1535'> +5.3462459e-01 </wgt>
<wgt id='1536'> +5.2822544e-01 </wgt>
<wgt id='1537'> +5.2984421e-01 </wgt>
<wgt id='1538'> +5.3373911e-01 </wgt>
<wgt id='1539'> +5.1726902e-01 </wgt>
<wgt id='1540'> +5.2914415e-01 </wgt>
<wgt id='1541'> +5.2878946e-01 </wgt>
<wgt id='1542'> +5.2875452e-01 </wgt>
<wgt id='1543'> +5.3023977e-01 </wgt>
<wgt id='1544'> +5.3504707e-01 </wgt>
<wgt id='1545'> +5.1773118e-01 </wgt>
<wgt id='1546'> +5.2871174e-01 </wgt>
<wgt id='1547'> +5.3241066e-01 </wgt>
<wgt id='1548'> +5.3106113e-01 </wgt>
<wgt id='1549'> +5.2838114e-01 </wgt>
<wgt id='1550'> +5.2699445e-01 </wgt>
<wgt id='1551'> +5.3202514e-01 </wgt>
<wgt id='1552'> +5.2581819e-01 </wgt>
<wgt id='1553'> +5.3052185e-01 </wgt>
<wgt id='1554'> +5.3810225e-01 </wgt>
<wgt id='1555'> +5.1403063e-01 </wgt>
<wgt id='1556'> +5.2796506e-01 </wgt>
<wgt id='1557'> +5.3947430e-01 </wgt>
<wgt id='1558'> +5.2295690e-01 </wgt>
<wgt id='1559'> +5.3459639e-01 </wgt>
<wgt id='1560'> +5.3577515e-01 </wgt>
<wgt id='1561'> +5.2578672e-01 </wgt>
<wgt id='1562'> +5.2476987e-01 </wgt>
<wgt id='1563'> +5.3037409e-01 </wgt>
<wgt id='1564'> +5.2904130e-01 </wgt>
<wgt id='1565'> +5.2706812e-01 </wgt>
<wgt id='1566'> +5.3003981e-01 </wgt>
<wgt id='1567'> +5.2898754e-01 </wgt>
<wgt id='1568'> +5.1706837e-01 </wgt>
<wgt id='1569'> +5.2055269e-01 </wgt>
<wgt id='1570'> +5.2317423e-01 </wgt>
<wgt id='1571'> +5.2451563e-01 </wgt>
<wgt id='1572'> +5.2715548e-01 </wgt>
<wgt id='1573'> +5.3048319e-01 </wgt>
<wgt id='1574'> +5.3095023e-01 </wgt>
<wgt id='1575'> +5.3226437e-01 </wgt>
<wgt id='1576'> +5.2898754e-01 </wgt>
<wgt id='1577'> +5.2954610e-01 </wgt>
<wgt id='1578'> +5.2908653e-01 </wgt>
<wgt id='1579'> +5.2880085e-01 </wgt>
<wgt id='1580'> +5.2861806e-01 </wgt>
<wgt id='1581'> +5.2609778e-01 </wgt>
<wgt id='1582'> +5.2523112e-01 </wgt>
<wgt id='1583'> +5.3764085e-01 </wgt>
<wgt id='1584'> +5.2553750e-01 </wgt>
<wgt id='1585'> +5.2585691e-01 </wgt>
<wgt id='1586'> +5.2347131e-01 </wgt>
<wgt id='1587'> +5.2853829e-01 </wgt>
<wgt id='1588'> +5.2262934e-01 </wgt>
<wgt id='1589'> +5.2678670e-01 </wgt>
<wgt id='1590'> +5.0706772e-01 </wgt>
<wgt id='1591'> +5.2455283e-01 </wgt>
<wgt id='1592'> +5.2728212e-01 </wgt>
<wgt id='1593'> +5.2447779e-01 </wgt>
<wgt id='1594'> +5.2507320e-01 </wgt>
<wgt id='1595'> +5.2504583e-01 </wgt>
<wgt id='1596'> +5.2697941e-01 </wgt>
<wgt id='1597'> +5.2568253e-01 </wgt>
<wgt id='1598'> +5.3172899e-01 </wgt>
<wgt id='1599'> +5.2732355e-01 </wgt>
<wgt id='1600'> +5.1798123e-01 </wgt>
<wgt id='1601'> +5.2437190e-01 </wgt>
<wgt id='1602'> +5.2698603e-01 </wgt>
<wgt id='1603'> +5.2342455e-01 </wgt>
<wgt id='1604'> +5.2715518e-01 </wgt>
<wgt id='1605'> +5.3036420e-01 </wgt>
<wgt id='1606'> +5.2408617e-01 </wgt>
<wgt id='1607'> +5.2846730e-01 </wgt>
<wgt id='1608'> +5.2152839e-01 </wgt>
<wgt id='1609'> +5.2645471e-01 </wgt>
<wgt id='1610'> +5.2463325e-01 </wgt>
<wgt id='1611'> +5.2968028e-01 </wgt>
<wgt id='1612'> +5.2404591e-01 </wgt>
<wgt id='1613'> +5.2322939e-01 </wgt>
<wgt id='1614'> +5.2549766e-01 </wgt>
<wgt id='1615'> +5.2379178e-01 </wgt>
<wgt id='1616'> +5.2624917e-01 </wgt>
<wgt id='1617'> +5.2460698e-01 </wgt>
<wgt id='1618'> +5.2237632e-01 </wgt>
<wgt id='1619'> +5.2407751e-01 </wgt>
<wgt id='1620'> +5.2540895e-01 </wgt>
<wgt id='1621'> +5.2880374e-01 </wgt>
<wgt id='1622'> +5.2112937e-01 </wgt>
<wgt id='1623'> +5.2214642e-01 </wgt>
<wgt id='1624'> +5.2657568e-01 </wgt>
<wgt id='1625'> +5.2246990e-01 </wgt>
<wgt id='1626'> +5.2626461e-01 </wgt>
<wgt id='1627'> +5.2455111e-01 </wgt>
<wgt id='1628'> +5.2668452e-01 </wgt>
<wgt id='1629'> +5.2184485e-01 </wgt>
<wgt id='1630'> +5.2178959e-01 </wgt>
<wgt id='1631'> +5.2549208e-01 </wgt>
<wgt id='1632'> +5.2393984e-01 </wgt>
<wgt id='1633'> +5.2588468e-01 </wgt>
<wgt id='1634'> +5.2439639e-01 </wgt>
<wgt id='1635'> +5.2298542e-01 </wgt>
<wgt id='1636'> +5.2435826e-01 </wgt>
<wgt id='1637'> +5.2442607e-01 </wgt>
<wgt id='1638'> +5.1988713e-01 </wgt>
<wgt id='1639'> +5.2258249e-01 </wgt>
<wgt id='1640'> +5.2479457e-01 </wgt>
<wgt id='1641'> +5.2474817e-01 </wgt>
<wgt id='1642'> +5.1968126e-01 </wgt>
<wgt id='1643'> +5.2736074e-01 </wgt>
<wgt id='1644'> +5.2758294e-01 </wgt>
<wgt id='1645'> +5.2550848e-01 </wgt>
<wgt id='1646'> +5.1982724e-01 </wgt>
<wgt id='1647'> +5.3407964e-01 </wgt>
<wgt id='1648'> +5.2814684e-01 </wgt>
<wgt id='1649'> +5.2071911e-01 </wgt>
<wgt id='1650'> +5.2723686e-01 </wgt>
<wgt id='1651'> +5.2216544e-01 </wgt>
<wgt id='1652'> +5.2512868e-01 </wgt>
<wgt id='1653'> +5.2504088e-01 </wgt>
<wgt id='1654'> +5.2547656e-01 </wgt>
<wgt id='1655'> +5.2165698e-01 </wgt>
<wgt id='1656'> +5.2639308e-01 </wgt>
<wgt id='1657'> +5.2199176e-01 </wgt>
<wgt id='1658'> +5.2456159e-01 </wgt>
<wgt id='1659'> +5.2232472e-01 </wgt>
<wgt id='1660'> +5.2568874e-01 </wgt>
<wgt id='1661'> +5.2582660e-01 </wgt>
<wgt id='1662'> +5.2542049e-01 </wgt>
<wgt id='1663'> +5.2569495e-01 </wgt>
<wgt id='1664'> +5.2127904e-01 </wgt>
<wgt id='1665'> +5.2236774e-01 </wgt>
<wgt id='1666'> +5.2481658e-01 </wgt>
<wgt id='1667'> +5.2320972e-01 </wgt>
<wgt id='1668'> +5.2458046e-01 </wgt>
<wgt id='1669'> +5.2297974e-01 </wgt>
<wgt id='1670'> +5.2834194e-01 </wgt>
<wgt id='1671'> +5.2315544e-01 </wgt>
<wgt id='1672'> +5.2253276e-01 </wgt>
<wgt id='1673'> +5.2447481e-01 </wgt>
<wgt id='1674'> +5.2291827e-01 </wgt>
<wgt id='1675'> +5.2214842e-01 </wgt>
<wgt id='1676'> +5.2048881e-01 </wgt>
<wgt id='1677'> +5.2458884e-01 </wgt>
<wgt id='1678'> +5.2527113e-01 </wgt>
<wgt id='1679'> +5.2454211e-01 </wgt>
<wgt id='1680'> +5.2351532e-01 </wgt>
<wgt id='1681'> +5.2605841e-01 </wgt>
<wgt id='1682'> +5.2209744e-01 </wgt>
<wgt id='1683'> +5.2213350e-01 </wgt>
<wgt id='1684'> +5.2478167e-01 </wgt>
<wgt id='1685'> +5.2631348e-01 </wgt>
<wgt id='1686'> +5.2485209e-01 </wgt>
<wgt id='1687'> +5.2538409e-01 </wgt>
<wgt id='1688'> +5.2585824e-01 </wgt>
<wgt id='1689'> +5.2483449e-01 </wgt>
<wgt id='1690'> +5.2515257e-01 </wgt>
<wgt id='1691'> +5.2300951e-01 </wgt>
<wgt id='1692'> +5.2557278e-01 </wgt>
<wgt id='1693'> +5.2230788e-01 </wgt>
<wgt id='1694'> +5.2384662e-01 </wgt>
<wgt id='1695'> +5.2452804e-01 </wgt>
<wgt id='1696'> +5.2475597e-01 </wgt>
<wgt id='1697'> +5.2400929e-01 </wgt>
<wgt id='1698'> +5.2391969e-01 </wgt>
<wgt id='1699'> +5.2093591e-01 </wgt>
<wgt id='1700'> +5.2532006e-01 </wgt>
<wgt id='1701'> +5.2506397e-01 </wgt>
<wgt id='1702'> +5.2336707e-01 </wgt>
<wgt id='1703'> +5.2198495e-01 </wgt>
<wgt id='1704'> +5.2536640e-01 </wgt>
<wgt id='1705'> +5.2230472e-01 </wgt>
<wgt id='1706'> +5.2405169e-01 </wgt>
<wgt id='1707'> +5.2376546e-01 </wgt>
<wgt id='1708'> +5.2359024e-01 </wgt>
<wgt id='1709'> +5.2487923e-01 </wgt>
<wgt id='1710'> +5.2219446e-01 </wgt>
<wgt id='1711'> +5.2430884e-01 </wgt>
<wgt id='1712'> +5.2466055e-01 </wgt>
<wgt id='1713'> +5.1996929e-01 </wgt>
<wgt id='1714'> +5.2490731e-01 </wgt>
<wgt id='1715'> +5.6750928e-01 </wgt>
<wgt id='1716'> +6.0287557e-01 </wgt>
<wgt id='1717'> +5.8785046e-01 </wgt>
<wgt id='1718'> +5.6507334e-01 </wgt>
<wgt id='1719'> +5.5993850e-01 </wgt>
<wgt id='1720'> +5.7739392e-01 </wgt>
<wgt id='1721'> +5.9332084e-01 </wgt>
<wgt id='1722'> +5.9121213e-01 </wgt>
<wgt id='1723'> +5.2759458e-01 </wgt>
<wgt id='1724'> +5.6875105e-01 </wgt>
<wgt id='1725'> +5.7443529e-01 </wgt>
<wgt id='1726'> +5.9656349e-01 </wgt>
<wgt id='1727'> +5.8072151e-01 </wgt>
<wgt id='1728'> +5.6319927e-01 </wgt>
<wgt id='1729'> +5.4837874e-01 </wgt>
<wgt id='1730'> +5.9345049e-01 </wgt>
<wgt id='1731'> +6.1694823e-01 </wgt>
<wgt id='1732'> +5.6653085e-01 </wgt>
<wgt id='1733'> +5.6014922e-01 </wgt>
<wgt id='1734'> +5.6105356e-01 </wgt>
<wgt id='1735'> +5.2894297e-01 </wgt>
<wgt id='1736'> +5.2677877e-01 </wgt>
<wgt id='1737'> +5.6907353e-01 </wgt>
<wgt id='1738'> +5.4837484e-01 </wgt>
<wgt id='1739'> +5.6815094e-01 </wgt>
<wgt id='1740'> +5.4631438e-01 </wgt>
<wgt id='1741'> +5.7814513e-01 </wgt>
<wgt id='1742'> +5.5076037e-01 </wgt>
<wgt id='1743'> +5.4416315e-01 </wgt>
<wgt id='1744'> +5.5184956e-01 </wgt>
<wgt id='1745'> +5.2288805e-01 </wgt>
<wgt id='1746'> +6.0656726e-01 </wgt>
<wgt id='1747'> +5.2886148e-01 </wgt>
<wgt id='1748'> +5.7687617e-01 </wgt>
<wgt id='1749'> +5.5688470e-01 </wgt>
<wgt id='1750'> +5.9527226e-01 </wgt>
<wgt id='1751'> +5.6680385e-01 </wgt>
<wgt id='1752'> +5.8736538e-01 </wgt>
<wgt id='1753'> +5.8142979e-01 </wgt>
<wgt id='1754'> +5.2404249e-01 </wgt>
<wgt id='1755'> +5.3987951e-01 </wgt>
<wgt id='1756'> +5.8253513e-01 </wgt>
<wgt id='1757'> +5.8542411e-01 </wgt>
<wgt id='1758'> +5.7768920e-01 </wgt>
<wgt id='1759'> +5.5998179e-01 </wgt>
<wgt id='1760'> +5.6031931e-01 </wgt>
<wgt id='1761'> +5.4991194e-01 </wgt>
<wgt id='1762'> +5.8072151e-01 </wgt>
<wgt id='1763'> +5.8239500e-01 </wgt>
<wgt id='1764'> +5.9522250e-01 </wgt>
<wgt id='1765'> +5.5331440e-01 </wgt>
<wgt id='1766'> +5.5639745e-01 </wgt>
<wgt id='1767'> +5.9749140e-01 </wgt>
<wgt id='1768'> +6.0959006e-01 </wgt>
<wgt id='1769'> +5.6775859e-01 </wgt>
<wgt id='1770'> +5.8892430e-01 </wgt>
<wgt id='1771'> +5.7319780e-01 </wgt>
<wgt id='1772'> +5.6355712e-01 </wgt>
<wgt id='1773'> +5.5583180e-01 </wgt>
<wgt id='1774'> +5.5570603e-01 </wgt>
<wgt id='1775'> +5.6842143e-01 </wgt>
<wgt id='1776'> +5.5757912e-01 </wgt>
<wgt id='1777'> +5.6925400e-01 </wgt>
<wgt id='1778'> +5.5907562e-01 </wgt>
<wgt id='1779'> +5.9033413e-01 </wgt>
<wgt id='1780'> +5.3680872e-01 </wgt>
<wgt id='1781'> +5.4183919e-01 </wgt>
<wgt id='1782'> +5.3865243e-01 </wgt>
<wgt id='1783'> +6.0106977e-01 </wgt>
<wgt id='1784'> +5.6386345e-01 </wgt>
<wgt id='1785'> +5.8015806e-01 </wgt>
<wgt id='1786'> +5.8101221e-01 </wgt>
<wgt id='1787'> +5.6281078e-01 </wgt>
<wgt id='1788'> +5.9339553e-01 </wgt>
<wgt id='1789'> +5.8159289e-01 </wgt>
<wgt id='1790'> +5.8657297e-01 </wgt>
<wgt id='1791'> +5.3164649e-01 </wgt>
<wgt id='1792'> +5.5541625e-01 </wgt>
<wgt id='1793'> +5.9069722e-01 </wgt>
<wgt id='1794'> +5.8688921e-01 </wgt>
<wgt id='1795'> +5.7873970e-01 </wgt>
<wgt id='1796'> +5.7086878e-01 </wgt>
<wgt id='1797'> +5.5380771e-01 </wgt>
<wgt id='1798'> +5.6743670e-01 </wgt>
<wgt id='1799'> +5.3789416e-01 </wgt>
<wgt id='1800'> +5.8053532e-01 </wgt>
<wgt id='1801'> +5.4985369e-01 </wgt>
<wgt id='1802'> +5.6797584e-01 </wgt>
<wgt id='1803'> +5.7965775e-01 </wgt>
<wgt id='1804'> +5.3935438e-01 </wgt>
<wgt id='1805'> +5.8107527e-01 </wgt>
<wgt id='1806'> +5.7164077e-01 </wgt>
<wgt id='1807'> +5.7462192e-01 </wgt>
<wgt id='1808'> +5.2113577e-01 </wgt>
<wgt id='1809'> +5.6439915e-01 </wgt>
<wgt id='1810'> +5.6634017e-01 </wgt>
<wgt id='1811'> +5.6798972e-01 </wgt>
<wgt id='1812'> +5.4493933e-01 </wgt>
<wgt id='1813'> +5.5458728e-01 </wgt>
<wgt id='1814'> +5.9860825e-01 </wgt>
<wgt id='1815'> +5.7025042e-01 </wgt>
<wgt id='1816'> +5.2995359e-01 </wgt>
<wgt id='1817'> +5.0190130e-01 </wgt>
<wgt id='1818'> +4.9899351e-01 </wgt>
<wgt id='1819'> +5.3979161e-01 </wgt>
<wgt id='1820'> +5.3817936e-01 </wgt>
<wgt id='1821'> +5.4364365e-01 </wgt>
<wgt id='1822'> +5.1289620e-01 </wgt>
<wgt id='1823'> +5.4278832e-01 </wgt>
<wgt id='1824'> +5.4636562e-01 </wgt>
<wgt id='1825'> +5.3227432e-01 </wgt>
<wgt id='1826'> +5.3706868e-01 </wgt>
<wgt id='1827'> +4.9953044e-01 </wgt>
<wgt id='1828'> +5.2753710e-01 </wgt>
<wgt id='1829'> +5.3643581e-01 </wgt>
<wgt id='1830'> +5.1647146e-01 </wgt>
<wgt id='1831'> +5.3262959e-01 </wgt>
<wgt id='1832'> +5.3558839e-01 </wgt>
<wgt id='1833'> +5.2704843e-01 </wgt>
<wgt id='1834'> +5.2102097e-01 </wgt>
<wgt id='1835'> +5.2987413e-01 </wgt>
<wgt id='1836'> +5.6688441e-01 </wgt>
<wgt id='1837'> +5.2480230e-01 </wgt>
<wgt id='1838'> +5.5413759e-01 </wgt>
<wgt id='1839'> +5.5354569e-01 </wgt>
<wgt id='1840'> +5.6928899e-01 </wgt>
<wgt id='1841'> +5.3685568e-01 </wgt>
<wgt id='1842'> +5.3511373e-01 </wgt>
<wgt id='1843'> +5.3427697e-01 </wgt>
<wgt id='1844'> +5.2446480e-01 </wgt>
<wgt id='1845'> +5.3286982e-01 </wgt>
<wgt id='1846'> +5.5099472e-01 </wgt>
<wgt id='1847'> +5.6804584e-01 </wgt>
<wgt id='1848'> +5.3396695e-01 </wgt>
<wgt id='1849'> +5.3403385e-01 </wgt>
<wgt id='1850'> +5.3340812e-01 </wgt>
<wgt id='1851'> +5.4782516e-01 </wgt>
<wgt id='1852'> +5.2080667e-01 </wgt>
<wgt id='1853'> +5.4709169e-01 </wgt>
<wgt id='1854'> +5.3782996e-01 </wgt>
<wgt id='1855'> +5.3138697e-01 </wgt>
<wgt id='1856'> +5.2583600e-01 </wgt>
<wgt id='1857'> +5.0705131e-01 </wgt>
<wgt id='1858'> +5.1068626e-01 </wgt>
<wgt id='1859'> +5.4775009e-01 </wgt>
<wgt id='1860'> +5.2374147e-01 </wgt>
<wgt id='1861'> +5.1490993e-01 </wgt>
<wgt id='1862'> +5.1582721e-01 </wgt>
<wgt id='1863'> +5.0999942e-01 </wgt>
<wgt id='1864'> +5.4456062e-01 </wgt>
<wgt id='1865'> +5.4191445e-01 </wgt>
<wgt id='1866'> +5.1753877e-01 </wgt>
<wgt id='1867'> +5.2307084e-01 </wgt>
<wgt id='1868'> +5.1846868e-01 </wgt>
<wgt id='1869'> +5.5541833e-01 </wgt>
<wgt id='1870'> +5.3051421e-01 </wgt>
<wgt id='1871'> +5.3798342e-01 </wgt>
<wgt id='1872'> +5.0978450e-01 </wgt>
<wgt id='1873'> +5.2390505e-01 </wgt>
<wgt id='1874'> +4.9527525e-01 </wgt>
<wgt id='1875'> +5.4623771e-01 </wgt>
<wgt id='1876'> +5.2746472e-01 </wgt>
<wgt id='1877'> +5.2536736e-01 </wgt>
<wgt id='1878'> +5.2142470e-01 </wgt>
<wgt id='1879'> +5.0814275e-01 </wgt>
<wgt id='1880'> +5.0818201e-01 </wgt>
<wgt id='1881'> +5.2796717e-01 </wgt>
<wgt id='1882'> +5.4509069e-01 </wgt>
<wgt id='1883'> +5.7058984e-01 </wgt>
<wgt id='1884'> +5.3333704e-01 </wgt>
<wgt id='1885'> +5.4732662e-01 </wgt>
<wgt id='1886'> +5.3694703e-01 </wgt>
<wgt id='1887'> +5.2068600e-01 </wgt>
<wgt id='1888'> +5.1389076e-01 </wgt>
<wgt id='1889'> +4.9813412e-01 </wgt>
<wgt id='1890'> +5.2805852e-01 </wgt>
<wgt id='1891'> +5.1340999e-01 </wgt>
<wgt id='1892'> +5.1180412e-01 </wgt>
<wgt id='1893'> +5.3269913e-01 </wgt>
<wgt id='1894'> +5.3081646e-01 </wgt>
<wgt id='1895'> +5.1606264e-01 </wgt>
<wgt id='1896'> +5.3938222e-01 </wgt>
<wgt id='1897'> +5.2253858e-01 </wgt>
<wgt id='1898'> +5.3429407e-01 </wgt>
<wgt id='1899'> +5.2515666e-01 </wgt>
<wgt id='1900'> +5.5274045e-01 </wgt>
<wgt id='1901'> +5.2352851e-01 </wgt>
<wgt id='1902'> +5.2279298e-01 </wgt>
<wgt id='1903'> +5.0117310e-01 </wgt>
<wgt id='1904'> +5.1068132e-01 </wgt>
<wgt id='1905'> +5.1979198e-01 </wgt>
<wgt id='1906'> +5.5245054e-01 </wgt>
<wgt id='1907'> +5.2809099e-01 </wgt>
<wgt id='1908'> +5.5581886e-01 </wgt>
<wgt id='1909'> +5.2828182e-01 </wgt>
<wgt id='1910'> +5.1403236e-01 </wgt>
<wgt id='1911'> +5.2363089e-01 </wgt>
<wgt id='1912'> +5.3975662e-01 </wgt>
<wgt id='1913'> +5.4054796e-01 </wgt>
<wgt id='1914'> +5.3915013e-01 </wgt>
<wgt id='1915'> +5.0880899e-01 </wgt>
<wgt id='1916'> +5.3456832e-01 </wgt>
<wgt id='1917'> +5.5428380e-01 </wgt>
<wgt id='1918'> +5.9065946e-01 </wgt>
<wgt id='1919'> +5.2995359e-01 </wgt>
<wgt id='1920'> +5.0190130e-01 </wgt>
<wgt id='1921'> +4.9899351e-01 </wgt>
<wgt id='1922'> +5.3979161e-01 </wgt>
<wgt id='1923'> +5.3817936e-01 </wgt>
<wgt id='1924'> +5.4364365e-01 </wgt>
<wgt id='1925'> +5.1289620e-01 </wgt>
<wgt id='1926'> +5.4278832e-01 </wgt>
<wgt id='1927'> +5.4636562e-01 </wgt>
<wgt id='1928'> +5.3227432e-01 </wgt>
<wgt id='1929'> +5.3706868e-01 </wgt>
<wgt id='1930'> +4.9953044e-01 </wgt>
<wgt id='1931'> +5.2753710e-01 </wgt>
<wgt id='1932'> +5.3643581e-01 </wgt>
<wgt id='1933'> +5.1647146e-01 </wgt>
<wgt id='1934'> +5.3262959e-01 </wgt>
<wgt id='1935'> +5.3558839e-01 </wgt>
<wgt id='1936'> +5.2704843e-01 </wgt>
<wgt id='1937'> +5.2102097e-01 </wgt>
<wgt id='1938'> +5.2987413e-01 </wgt>
<wgt id='1939'> +5.6688441e-01 </wgt>
<wgt id='1940'> +5.2480230e-01 </wgt>
<wgt id='1941'> +5.5413759e-01 </wgt>
<wgt id='1942'> +5.5354569e-01 </wgt>
<wgt id='1943'> +5.6928899e-01 </wgt>
<wgt id='1944'> +5.3685568e-01 </wgt>
<wgt id='1945'> +5.3511373e-01 </wgt>
<wgt id='1946'> +5.3427697e-01 </wgt>
<wgt id='1947'> +5.2446480e-01 </wgt>
<wgt id='1948'> +5.3286982e-01 </wgt>
<wgt id='1949'> +5.5099472e-01 </wgt>
<wgt id='1950'> +5.6804584e-01 </wgt>
<wgt id='1951'> +5.3396695e-01 </wgt>
<wgt id='1952'> +5.3403385e-01 </wgt>
<wgt id='1953'> +5.3340812e-01 </wgt>
<wgt id='1954'> +5.4782516e-01 </wgt>
<wgt id='1955'> +5.2080667e-01 </wgt>
<wgt id='1956'> +5.4709169e-01 </wgt>
<wgt id='1957'> +5.3782996e-01 </wgt>
<wgt id='1958'> +5.3138697e-01 </wgt>
<wgt id='1959'> +5.2583600e-01 </wgt>
<wgt id='1960'> +5.0705131e-01 </wgt>
<wgt id='1961'> +5.1068626e-01 </wgt>
<wgt id='1962'> +5.4775009e-01 </wgt>
<wgt id='1963'> +5.2374147e-01 </wgt>
<wgt id='1964'> +5.1490993e-01 </wgt>
<wgt id='1965'> +5.1582721e-01 </wgt>
<wgt id='1966'> +5.0999942e-01 </wgt>
<wgt id='1967'> +5.4456062e-01 </wgt>
<wgt id='1968'> +5.4191445e-01 </wgt>
<wgt id='1969'> +5.1753877e-01 </wgt>
<wgt id='1970'> +5.2307084e-01 </wgt>
<wgt id='1971'> +5.1846868e-01 </wgt>
<wgt id='1972'> +5.5541833e-01 </wgt>
<wgt id='1973'> +5.3051421e-01 </wgt>
<wgt id='1974'> +5.3798342e-01 </wgt>
<wgt id='1975'> +5.0978450e-01 </wgt>
<wgt id='1976'> +5.2390505e-01 </wgt>
<wgt id='1977'> +4.9527525e-01 </wgt>
<wgt id='1978'> +5.4623771e-01 </wgt>
<wgt id='1979'> +5.2746472e-01 </wgt>
<wgt id='1980'> +5.2536736e-01 </wgt>
<wgt id='1981'> +5.2142470e-01 </wgt>
<wgt id='1982'> +5.0814275e-01 </wgt>
<wgt id='1983'> +5.0818201e-01 </wgt>
<wgt id='1984'> +5.2796717e-01 </wgt>
<wgt id='1985'> +5.4509069e-01 </wgt>
<wgt id='1986'> +5.7058984e-01 </wgt>
<wgt id='1987'> +5.3333704e-01 </wgt>
<wgt id='1988'> +5.4732662e-01 </wgt>
<wgt id='1989'> +5.3694703e-01 </wgt>
<wgt id='1990'> +5.2068600e-01 </wgt>
<wgt id='1991'> +5.1389076e-01 </wgt>
<wgt id='1992'> +4.9813412e-01 </wgt>
<wgt id='1993'> +5.2805852e-01 </wgt>
<wgt id='1994'> +5.1340999e-01 </wgt>
<wgt id='1995'> +5.1180412e-01 </wgt>
<wgt id='1996'> +5.3269913e-01 </wgt>
<wgt id='1997'> +5.3081646e-01 </wgt>
<wgt id='1998'> +5.1606264e-01 </wgt>
<wgt id='1999'> +5.3938222e-01 </wgt>
<wgt id='2000'> +5.2253858e-01 </wgt>
<wgt id='2001'> +5.3429407e-01 </wgt>
<wgt id='2002'> +5.2515666e-01 </wgt>
<wgt id='2003'> +5.5274045e-01 </wgt>
<wgt id='2004'> +5.2352851e-01 </wgt>
<wgt id='2005'> +5.2279298e-01 </wgt>
<wgt id='2006'> +5.0117310e-01 </wgt>
<wgt id='2007'> +5.1068132e-01 </wgt>
<wgt id='2008'> +5.1979198e-01 </wgt>
<wgt id='2009'> +5.5245054e-01 </wgt>
<wgt id='2010'> +5.2809099e-01 </wgt>
<wgt id='2011'> +5.5581886e-01 </wgt>
<wgt id='2012'> +5.2828182e-01 </wgt>
<wgt id='2013'> +5.1403236e-01 </wgt>
<wgt id='2014'> +5.2363089e-01 </wgt>
<wgt id='2015'> +5.3975662e-01 </wgt>
<wgt id='2016'> +5.4054796e-01 </wgt>
<wgt id='2017'> +5.3915013e-01 </wgt>
<wgt id='2018'> +5.0880899e-01 </wgt>
<wgt id='2019'> +5.3456832e-01 </wgt>
<wgt id='2020'> +5.2549424e-01 </wgt>
<wgt id='2021'> +5.3026971e-01 </wgt>
<wgt id='2022'> +5.1490785e-01 </wgt>
</rwgt>
</event>
<event>
 13 1 0.0079112 1.90809100e+02 7.81860800e-03 1.11745000e-01
       21 -1    0    0  502  503 +0.0000000000e+00 +0.0000000000e+00 +1.6636861176e+03 1.6636861176e+03 0.0000000000e+00 0.0000e+00 1.0000e+00
        2 -1    0    0  501    0 +0.0000000000e+00 +0.0000000000e+00 -1.7836801134e+03 1.7836801134e+03 2.5500000000e-03 0.0000e+00 -1.0000e+00
  8000001  2    1    2  502    0 +2.1453874284e+01 -1.0387526315e+02 -3.0800762014e+02 6.8272969555e+02 6.0000067008e+02 0.0000e+00 0.0000e+00
        1  1    1    2  501    0 -2.0552912440e+01 +4.3740634742e+01 -1.2872416165e+03 1.2881485336e+03 5.0400000000e-03 0.0000e+00 -1.0000e+00
       -5  1    1    2    0  503 -9.0096184319e-01 +6.0134628404e+01 +1.4752552408e+03 1.4764880019e+03 4.6700000000e+00 0.0000e+00 1.0000e+00
        6  2    3    3  502    0 -3.8188581278e+01 -2.7241996143e+02 -1.0664392936e+01 3.2525218267e+02 1.7321734880e+02 0.0000e+00 0.0000e+00
        5  1    6    6  502    0 -7.6363927918e+01 -1.4087546082e+02 -3.9502880093e+01 1.6510491024e+02 4.6700000000e+00 0.0000e+00 -1.0000e+00
       24  2    6    6    0    0 +3.8175346640e+01 -1.3154450061e+02 +2.8838487157e+01 1.6014727243e+02 7.7808597161e+01 0.0000e+00 0.0000e+00
        4  1    8    8  504    0 +2.6717451400e+01 -1.3908023553e+02 +1.8206248663e+01 1.4279430841e+02 1.2700000000e+00 0.0000e+00 -1.0000e+00
       -3  1    8    8    0  504 +1.1457895239e+01 +7.5357349114e+00 +1.0632238493e+01 1.7352964022e+01 1.0100000000e-01 0.0000e+00 1.0000e+00
       23  2    3    3    0    0 +5.9642455562e+01 +1.6854469829e+02 -2.9734322721e+02 3.5747751288e+02 8.6096687628e+01 0.0000e+00 0.0000e+00
        4  1   11   11  505    0 +6.6701979329e+01 +6.2370956233e+01 -1.5228415183e+02 1.7757073527e+02 1.2700000000e+00 0.0000e+00 -1.0000e+00
       -4  1   11   11    0  505 -7.0595237669e+00 +1.0617374206e+02 -1.4505907538e+02 1.7990677760e+02 1.2700000000e+00 0.0000e+00 1.0000e+00
<mgrwt>
<rscale>  1 0.96028941e+02</rscale>
<asrwt>0</asrwt>
<pdfrwt beam="1">  1       21 0.25595171e+00 0.19080906e+03</pdfrwt>
<pdfrwt beam="2">  1        2 0.27441232e+00 0.48328720e+02</pdfrwt>
<totfact> 0.71731871e+00</totfact>
</mgrwt>
<rwgt>
<wgt id='1001'> +5.2878984e-01 </wgt>
<wgt id='1002'> +2.7512274e-01 </wgt>
<wgt id='1003'> +2.7509403e-01 </wgt>
<wgt id='1004'> +3.4992738e-01 </wgt>
<wgt id='1005'> +1.6397937e-01 </wgt>
<wgt id='1006'> +4.7704422e-01 </wgt>
<wgt id='1007'> +2.5403861e-01 </wgt>
<wgt id='1008'> +2.5401286e-01 </wgt>
<wgt id='1009'> +3.2077299e-01 </wgt>
<wgt id='1010'> +1.5347944e-01 </wgt>
<wgt id='1011'> +5.9360593e-01 </wgt>
<wgt id='1012'> +3.0012917e-01 </wgt>
<wgt id='1013'> +3.0009675e-01 </wgt>
<wgt id='1014'> +3.8508459e-01 </wgt>
<wgt id='1015'> +1.7605506e-01 </wgt>
<wgt id='1016'> +4.4448272e-01 </wgt>
<wgt id='1017'> +2.3891474e-01 </wgt>
<wgt id='1018'> +2.3889087e-01 </wgt>
<wgt id='1019'> +3.0009675e-01 </wgt>
<wgt id='1020'> +1.4556127e-01 </wgt>
<wgt id='1021'> +4.0098711e-01 </wgt>
<wgt id='1022'> +2.2060541e-01 </wgt>
<wgt id='1023'> +2.2058405e-01 </wgt>
<wgt id='1024'> +2.7509403e-01 </wgt>
<wgt id='1025'> +1.3624069e-01 </wgt>
<wgt id='1026'> +4.9896491e-01 </wgt>
<wgt id='1027'> +2.6063015e-01 </wgt>
<wgt id='1028'> +2.6060317e-01 </wgt>
<wgt id='1029'> +3.3024748e-01 </wgt>
<wgt id='1030'> +1.5628062e-01 </wgt>
<wgt id='1031'> +6.4069371e-01 </wgt>
<wgt id='1032'> +3.2080846e-01 </wgt>
<wgt id='1033'> +3.2077299e-01 </wgt>
<wgt id='1034'> +4.1351135e-01 </wgt>
<wgt id='1035'> +1.8624154e-01 </wgt>
<wgt id='1036'> +5.7799754e-01 </wgt>
<wgt id='1037'> +2.9622318e-01 </wgt>
<wgt id='1038'> +2.9619132e-01 </wgt>
<wgt id='1039'> +3.7905943e-01 </wgt>
<wgt id='1040'> +1.7431612e-01 </wgt>
<wgt id='1041'> +7.1922634e-01 </wgt>
<wgt id='1042'> +3.4996734e-01 </wgt>
<wgt id='1043'> +3.4992738e-01 </wgt>
<wgt id='1044'> +4.5505684e-01 </wgt>
<wgt id='1045'> +1.9995665e-01 </wgt>
<wgt id='1046'> +5.2878984e-01 </wgt>
<wgt id='1047'> +5.2878984e-01 </wgt>
<wgt id='1048'> +5.2878984e-01 </wgt>
<wgt id='1049'> +5.2764830e-01 </wgt>
<wgt id='1050'> +5.2904810e-01 </wgt>
<wgt id='1051'> +5.3008807e-01 </wgt>
<wgt id='1052'> +5.2783843e-01 </wgt>
<wgt id='1053'> +5.2620307e-01 </wgt>
<wgt id='1054'> +5.2894689e-01 </wgt>
<wgt id='1055'> +5.2558962e-01 </wgt>
<wgt id='1056'> +5.2439275e-01 </wgt>
<wgt id='1057'> +5.2544788e-01 </wgt>
<wgt id='1058'> +5.2643651e-01 </wgt>
<wgt id='1059'> +5.3398526e-01 </wgt>
<wgt id='1060'> +5.2868044e-01 </wgt>
<wgt id='1061'> +5.2924043e-01 </wgt>
<wgt id='1062'> +5.2909543e-01 </wgt>
<wgt id='1063'> +5.2981386e-01 </wgt>
<wgt id='1064'> +5.2940199e-01 </wgt>
<wgt id='1065'> +5.3224386e-01 </wgt>
<wgt id='1066'> +5.2616940e-01 </wgt>
<wgt id='1067'> +5.2677256e-01 </wgt>
<wgt id='1068'> +5.2965950e-01 </wgt>
<wgt id='1069'> +5.2838641e-01 </wgt>
<wgt id='1070'> +5.3188870e-01 </wgt>
<wgt id='1071'> +5.2680790e-01 </wgt>
<wgt id='1072'> +5.3410892e-01 </wgt>
<wgt id='1073'> +5.2429039e-01 </wgt>
<wgt id='1074'> +5.2634189e-01 </wgt>
<wgt id='1075'> +5.2734889e-01 </wgt>
<wgt id='1076'> +5.2677463e-01 </wgt>
<wgt id='1077'> +5.3006080e-01 </wgt>
<wgt id='1078'> +5.2957235e-01 </wgt>
<wgt id='1079'> +5.3067100e-01 </wgt>
<wgt id='1080'> +5.2809239e-01 </wgt>
<wgt id='1081'> +5.2956435e-01 </wgt>
<wgt id='1082'> +5.2989540e-01 </wgt>
<wgt id='1083'> +5.3041494e-01 </wgt>
<wgt id='1084'> +5.2749208e-01 </wgt>
<wgt id='1085'> +5.2755813e-01 </wgt>
<wgt id='1086'> +5.2984595e-01 </wgt>
<wgt id='1087'> +5.2911492e-01 </wgt>
<wgt id='1088'> +5.2679522e-01 </wgt>
<wgt id='1089'> +5.2657136e-01 </wgt>
<wgt id='1090'> +5.3032126e-01 </wgt>
<wgt id='1091'> +5.2827590e-01 </wgt>
<wgt id='1092'> +5.2854219e-01 </wgt>
<wgt id='1093'> +5.2898141e-01 </wgt>
<wgt id='1094'> +5.2608335e-01 </wgt>
<wgt id='1095'> +5.2851859e-01 </wgt>
<wgt id='1096'> +5.2809689e-01 </wgt>
<wgt id='1097'> +5.2738802e-01 </wgt>
<wgt id='1098'> +5.2809108e-01 </wgt>
<wgt id='1099'> +5.2839438e-01 </wgt>
<wgt id='1100'> +5.2986556e-01 </wgt>
<wgt id='1101'> +5.2824770e-01 </wgt>
<wgt id='1102'> +5.2801488e-01 </wgt>
<wgt id='1103'> +5.2748287e-01 </wgt>
<wgt id='1104'> +5.2920024e-01 </wgt>
<wgt id='1105'> +5.2895061e-01 </wgt>
<wgt id='1106'> +5.3005797e-01 </wgt>
<wgt id='1107'> +5.2892096e-01 </wgt>
<wgt id='1108'> +5.2852764e-01 </wgt>
<wgt id='1109'> +5.2914178e-01 </wgt>
<wgt id='1110'> +5.2887350e-01 </wgt>
<wgt id='1111'> +5.2871940e-01 </wgt>
<wgt id='1112'> +5.2904773e-01 </wgt>
<wgt id='1113'> +5.2874921e-01 </wgt>
<wgt id='1114'> +5.2695176e-01 </wgt>
<wgt id='1115'> +5.2797101e-01 </wgt>
<wgt id='1116'> +5.3079477e-01 </wgt>
<wgt id='1117'> +5.2911035e-01 </wgt>
<wgt id='1118'> +5.2966897e-01 </wgt>
<wgt id='1119'> +5.2835258e-01 </wgt>
<wgt id='1120'> +5.2722419e-01 </wgt>
<wgt id='1121'> +5.2961673e-01 </wgt>
<wgt id='1122'> +5.2826111e-01 </wgt>
<wgt id='1123'> +5.2902371e-01 </wgt>
<wgt id='1124'> +5.2865440e-01 </wgt>
<wgt id='1125'> +5.2873772e-01 </wgt>
<wgt id='1126'> +5.2914822e-01 </wgt>
<wgt id='1127'> +5.2866125e-01 </wgt>
<wgt id='1128'> +5.2855743e-01 </wgt>
<wgt id='1129'> +5.2812091e-01 </wgt>
<wgt id='1130'> +5.2903555e-01 </wgt>
<wgt id='1131'> +5.3018153e-01 </wgt>
<wgt id='1132'> +5.2843355e-01 </wgt>
<wgt id='1133'> +5.2929686e-01 </wgt>
<wgt id='1134'> +5.2849053e-01 </wgt>
<wgt id='1135'> +5.2907977e-01 </wgt>
<wgt id='1136'> +5.2878002e-01 </wgt>
<wgt id='1137'> +5.2828356e-01 </wgt>
<wgt id='1138'> +5.2925554e-01 </wgt>
<wgt id='1139'> +5.2919686e-01 </wgt>
<wgt id='1140'> +5.2969862e-01 </wgt>
<wgt id='1141'> +5.2811821e-01 </wgt>
<wgt id='1142'> +5.2897776e-01 </wgt>
<wgt id='1143'> +5.2944228e-01 </wgt>
<wgt id='1144'> +5.2850107e-01 </wgt>
<wgt id='1145'> +5.2897791e-01 </wgt>
<wgt id='1146'> +5.2907445e-01 </wgt>
<wgt id='1147'> +5.2912833e-01 </wgt>
<wgt id='1148'> +5.2878984e-01 </wgt>
<wgt id='1149'> +4.6834107e-01 </wgt>
<wgt id='1150'> +4.7547914e-01 </wgt>
<wgt id='1151'> +4.5830962e-01 </wgt>
<wgt id='1152'> +4.4167173e-01 </wgt>
<wgt id='1153'> +4.6183139e-01 </wgt>
<wgt id='1154'> +4.5957020e-01 </wgt>
<wgt id='1155'> +4.8339673e-01 </wgt>
<wgt id='1156'> +4.7179578e-01 </wgt>
<wgt id='1157'> +4.7101642e-01 </wgt>
<wgt id='1158'> +4.5943164e-01 </wgt>
<wgt id='1159'> +4.4660491e-01 </wgt>
<wgt id='1160'> +4.5795178e-01 </wgt>
<wgt id='1161'> +4.9398815e-01 </wgt>
<wgt id='1162'> +4.6982480e-01 </wgt>
<wgt id='1163'> +4.8307976e-01 </wgt>
<wgt id='1164'> +4.6770122e-01 </wgt>
<wgt id='1165'> +4.4793935e-01 </wgt>
<wgt id='1166'> +4.6880541e-01 </wgt>
<wgt id='1167'> +4.6449553e-01 </wgt>
<wgt id='1168'> +4.5668038e-01 </wgt>
<wgt id='1169'> +4.5912644e-01 </wgt>
<wgt id='1170'> +4.8258867e-01 </wgt>
<wgt id='1171'> +4.6853881e-01 </wgt>
<wgt id='1172'> +4.6180138e-01 </wgt>
<wgt id='1173'> +4.7703972e-01 </wgt>
<wgt id='1174'> +4.7337986e-01 </wgt>
<wgt id='1175'> +4.6469517e-01 </wgt>
<wgt id='1176'> +4.7021074e-01 </wgt>
<wgt id='1177'> +4.6751048e-01 </wgt>
<wgt id='1178'> +4.7281561e-01 </wgt>
<wgt id='1179'> +4.6967137e-01 </wgt>
<wgt id='1180'> +4.5692031e-01 </wgt>
<wgt id='1181'> +4.7719734e-01 </wgt>
<wgt id='1182'> +4.7862953e-01 </wgt>
<wgt id='1183'> +4.7319004e-01 </wgt>
<wgt id='1184'> +4.2809407e-01 </wgt>
<wgt id='1185'> +4.8911365e-01 </wgt>
<wgt id='1186'> +4.6088144e-01 </wgt>
<wgt id='1187'> +4.7825432e-01 </wgt>
<wgt id='1188'> +4.7724697e-01 </wgt>
<wgt id='1189'> +4.7274250e-01 </wgt>
<wgt id='1190'> +4.6166177e-01 </wgt>
<wgt id='1191'> +4.7905826e-01 </wgt>
<wgt id='1192'> +4.6929329e-01 </wgt>
<wgt id='1193'> +4.7496668e-01 </wgt>
<wgt id='1194'> +4.5396664e-01 </wgt>
<wgt id='1195'> +4.7804022e-01 </wgt>
<wgt id='1196'> +4.7481595e-01 </wgt>
<wgt id='1197'> +4.8482062e-01 </wgt>
<wgt id='1198'> +4.7602089e-01 </wgt>
<wgt id='1199'> +4.6331234e-01 </wgt>
<wgt id='1200'> +4.8877169e-01 </wgt>
<wgt id='1201'> +4.8092625e-01 </wgt>
<wgt id='1202'> +4.6850071e-01 </wgt>
<wgt id='1203'> +4.8551028e-01 </wgt>
<wgt id='1204'> +4.7178020e-01 </wgt>
<wgt id='1205'> +4.7193174e-01 </wgt>
<wgt id='1206'> +4.7152656e-01 </wgt>
<wgt id='1207'> +4.9327682e-01 </wgt>
<wgt id='1208'> +4.5328222e-01 </wgt>
<wgt id='1209'> +4.8380349e-01 </wgt>
<wgt id='1210'> +4.6399178e-01 </wgt>
<wgt id='1211'> +4.5861307e-01 </wgt>
<wgt id='1212'> +4.7226200e-01 </wgt>
<wgt id='1213'> +4.7744202e-01 </wgt>
<wgt id='1214'> +4.7337071e-01 </wgt>
<wgt id='1215'> +4.4719134e-01 </wgt>
<wgt id='1216'> +4.4655329e-01 </wgt>
<wgt id='1217'> +4.6583531e-01 </wgt>
<wgt id='1218'> +4.6820569e-01 </wgt>
<wgt id='1219'> +4.8386519e-01 </wgt>
<wgt id='1220'> +4.6853395e-01 </wgt>
<wgt id='1221'> +4.4587480e-01 </wgt>
<wgt id='1222'> +4.6359572e-01 </wgt>
<wgt id='1223'> +4.5124627e-01 </wgt>
<wgt id='1224'> +4.5212520e-01 </wgt>
<wgt id='1225'> +4.5552004e-01 </wgt>
<wgt id='1226'> +4.6689810e-01 </wgt>
<wgt id='1227'> +4.7243989e-01 </wgt>
<wgt id='1228'> +4.6790510e-01 </wgt>
<wgt id='1229'> +4.7283667e-01 </wgt>
<wgt id='1230'> +4.7889923e-01 </wgt>
<wgt id='1231'> +4.4793935e-01 </wgt>
<wgt id='1232'> +4.7129780e-01 </wgt>
<wgt id='1233'> +4.6156565e-01 </wgt>
<wgt id='1234'> +4.5966967e-01 </wgt>
<wgt id='1235'> +4.9155811e-01 </wgt>
<wgt id='1236'> +4.7445413e-01 </wgt>
<wgt id='1237'> +4.7315708e-01 </wgt>
<wgt id='1238'> +4.4476746e-01 </wgt>
<wgt id='1239'> +4.8274009e-01 </wgt>
<wgt id='1240'> +4.6163090e-01 </wgt>
<wgt id='1241'> +4.8962828e-01 </wgt>
<wgt id='1242'> +4.6817821e-01 </wgt>
<wgt id='1243'> +4.6247039e-01 </wgt>
<wgt id='1244'> +4.8222017e-01 </wgt>
<wgt id='1245'> +4.5130207e-01 </wgt>
<wgt id='1246'> +4.9046607e-01 </wgt>
<wgt id='1247'> +4.5752245e-01 </wgt>
<wgt id='1248'> +4.5813777e-01 </wgt>
<wgt id='1249'> +4.6185304e-01 </wgt>
<wgt id='1250'> +6.0178252e-01 </wgt>
<wgt id='1251'> +5.8545272e-01 </wgt>
<wgt id='1252'> +6.0723201e-01 </wgt>
<wgt id='1253'> +6.0050864e-01 </wgt>
<wgt id='1254'> +7.6477225e-01 </wgt>
<wgt id='1255'> +6.3656575e-01 </wgt>
<wgt id='1256'> +6.4233891e-01 </wgt>
<wgt id='1257'> +6.3328748e-01 </wgt>
<wgt id='1258'> +6.3584192e-01 </wgt>
<wgt id='1259'> +6.3691783e-01 </wgt>
<wgt id='1260'> +6.3768004e-01 </wgt>
<wgt id='1261'> +6.3513657e-01 </wgt>
<wgt id='1262'> +6.3730826e-01 </wgt>
<wgt id='1263'> +6.3608976e-01 </wgt>
<wgt id='1264'> +6.3660252e-01 </wgt>
<wgt id='1265'> +6.3657448e-01 </wgt>
<wgt id='1266'> +6.3732138e-01 </wgt>
<wgt id='1267'> +6.3585565e-01 </wgt>
<wgt id='1268'> +6.4419206e-01 </wgt>
<wgt id='1269'> +6.2902912e-01 </wgt>
<wgt id='1270'> +6.2645587e-01 </wgt>
<wgt id='1271'> +6.4832012e-01 </wgt>
<wgt id='1272'> +6.3321443e-01 </wgt>
<wgt id='1273'> +6.3922150e-01 </wgt>
<wgt id='1274'> +6.4086456e-01 </wgt>
<wgt id='1275'> +6.3140896e-01 </wgt>
<wgt id='1276'> +6.5293386e-01 </wgt>
<wgt id='1277'> +6.2059278e-01 </wgt>
<wgt id='1278'> +6.3273007e-01 </wgt>
<wgt id='1279'> +6.3978857e-01 </wgt>
<wgt id='1280'> +6.3682764e-01 </wgt>
<wgt id='1281'> +6.3646926e-01 </wgt>
<wgt id='1282'> +6.2019825e-01 </wgt>
<wgt id='1283'> +6.5176996e-01 </wgt>
<wgt id='1284'> +6.4102730e-01 </wgt>
<wgt id='1285'> +6.3300505e-01 </wgt>
<wgt id='1286'> +6.4117095e-01 </wgt>
<wgt id='1287'> +6.3632376e-01 </wgt>
<wgt id='1288'> +6.3955921e-01 </wgt>
<wgt id='1289'> +6.3507581e-01 </wgt>
<wgt id='1290'> +6.3783628e-01 </wgt>
<wgt id='1291'> +6.3614262e-01 </wgt>
<wgt id='1292'> +6.3911085e-01 </wgt>
<wgt id='1293'> +6.3338171e-01 </wgt>
<wgt id='1294'> +6.4885861e-01 </wgt>
<wgt id='1295'> +6.2474016e-01 </wgt>
<wgt id='1296'> +5.9544513e-01 </wgt>
<wgt id='1297'> +5.9726061e-01 </wgt>
<wgt id='1298'> +5.9399033e-01 </wgt>
<wgt id='1299'> +5.9238323e-01 </wgt>
<wgt id='1300'> +5.9886128e-01 </wgt>
<wgt id='1301'> +5.9364242e-01 </wgt>
<wgt id='1302'> +5.9812399e-01 </wgt>
<wgt id='1303'> +5.9524827e-01 </wgt>
<wgt id='1304'> +5.9557215e-01 </wgt>
<wgt id='1305'> +5.9601901e-01 </wgt>
<wgt id='1306'> +5.9466309e-01 </wgt>
<wgt id='1307'> +5.9816566e-01 </wgt>
<wgt id='1308'> +5.9377762e-01 </wgt>
<wgt id='1309'> +5.9565635e-01 </wgt>
<wgt id='1310'> +5.9518142e-01 </wgt>
<wgt id='1311'> +6.0020549e-01 </wgt>
<wgt id='1312'> +5.9372252e-01 </wgt>
<wgt id='1313'> +5.8405987e-01 </wgt>
<wgt id='1314'> +6.1015220e-01 </wgt>
<wgt id='1315'> +5.9733232e-01 </wgt>
<wgt id='1316'> +5.9376374e-01 </wgt>
<wgt id='1317'> +6.0989325e-01 </wgt>
<wgt id='1318'> +5.7234203e-01 </wgt>
<wgt id='1319'> +5.8328059e-01 </wgt>
<wgt id='1320'> +6.0360127e-01 </wgt>
<wgt id='1321'> +5.8647758e-01 </wgt>
<wgt id='1322'> +5.9996639e-01 </wgt>
<wgt id='1323'> +5.9264418e-01 </wgt>
<wgt id='1324'> +5.9934300e-01 </wgt>
<wgt id='1325'> +5.9367182e-01 </wgt>
<wgt id='1326'> +5.9905794e-01 </wgt>
<wgt id='1327'> +5.9277733e-01 </wgt>
<wgt id='1328'> +5.9658036e-01 </wgt>
<wgt id='1329'> +5.9661965e-01 </wgt>
<wgt id='1330'> +5.9475946e-01 </wgt>
<wgt id='1331'> +6.0313874e-01 </wgt>
<wgt id='1332'> +5.9222716e-01 </wgt>
<wgt id='1333'> +5.8038514e-01 </wgt>
<wgt id='1334'> +6.1901438e-01 </wgt>
<wgt id='1335'> +5.9965964e-01 </wgt>
<wgt id='1336'> +5.9445464e-01 </wgt>
<wgt id='1337'> +5.9544513e-01 </wgt>
<wgt id='1338'> +5.9780050e-01 </wgt>
<wgt id='1339'> +5.9700106e-01 </wgt>
<wgt id='1340'> +5.9618957e-01 </wgt>
<wgt id='1341'> +5.9507377e-01 </wgt>
<wgt id='1342'> +5.9451969e-01 </wgt>
<wgt id='1343'> +5.9398947e-01 </wgt>
<wgt id='1344'> +5.6589481e-01 </wgt>
<wgt id='1345'> +5.6876271e-01 </wgt>
<wgt id='1346'> +5.6300509e-01 </wgt>
<wgt id='1347'> +5.7123839e-01 </wgt>
<wgt id='1348'> +5.6196908e-01 </wgt>
<wgt id='1349'> +5.6503466e-01 </wgt>
<wgt id='1350'> +5.6661785e-01 </wgt>
<wgt id='1351'> +5.6590376e-01 </wgt>
<wgt id='1352'> +5.6587878e-01 </wgt>
<wgt id='1353'> +5.6775706e-01 </wgt>
<wgt id='1354'> +5.6455322e-01 </wgt>
<wgt id='1355'> +5.6546610e-01 </wgt>
<wgt id='1356'> +5.6621154e-01 </wgt>
<wgt id='1357'> +5.6766352e-01 </wgt>
<wgt id='1358'> +5.6481882e-01 </wgt>
<wgt id='1359'> +5.6361455e-01 </wgt>
<wgt id='1360'> +5.7155403e-01 </wgt>
<wgt id='1361'> +5.4802254e-01 </wgt>
<wgt id='1362'> +5.8185469e-01 </wgt>
<wgt id='1363'> +5.6210115e-01 </wgt>
<wgt id='1364'> +5.7071926e-01 </wgt>
<wgt id='1365'> +5.6144739e-01 </wgt>
<wgt id='1366'> +5.6792995e-01 </wgt>
<wgt id='1367'> +5.5867453e-01 </wgt>
<wgt id='1368'> +5.6955855e-01 </wgt>
<wgt id='1369'> +5.7458065e-01 </wgt>
<wgt id='1370'> +5.5877012e-01 </wgt>
<wgt id='1371'> +5.6418198e-01 </wgt>
<wgt id='1372'> +5.6901831e-01 </wgt>
<wgt id='1373'> +5.5423055e-01 </wgt>
<wgt id='1374'> +5.7542049e-01 </wgt>
<wgt id='1375'> +5.5887278e-01 </wgt>
<wgt id='1376'> +5.6824981e-01 </wgt>
<wgt id='1377'> +5.6278515e-01 </wgt>
<wgt id='1378'> +5.7130805e-01 </wgt>
<wgt id='1379'> +5.6231895e-01 </wgt>
<wgt id='1380'> +5.7157863e-01 </wgt>
<wgt id='1381'> +5.7346154e-01 </wgt>
<wgt id='1382'> +5.6604469e-01 </wgt>
<wgt id='1383'> +5.6545919e-01 </wgt>
<wgt id='1384'> +5.7028572e-01 </wgt>
<wgt id='1385'> +5.6589481e-01 </wgt>
<wgt id='1386'> +5.6795388e-01 </wgt>
<wgt id='1387'> +5.6723230e-01 </wgt>
<wgt id='1388'> +5.6644320e-01 </wgt>
<wgt id='1389'> +5.6541245e-01 </wgt>
<wgt id='1390'> +5.6483969e-01 </wgt>
<wgt id='1391'> +5.6440236e-01 </wgt>
<wgt id='1392'> +5.9406464e-01 </wgt>
<wgt id='1393'> +5.9441588e-01 </wgt>
<wgt id='1394'> +5.9368676e-01 </wgt>
<wgt id='1395'> +5.9432715e-01 </wgt>
<wgt id='1396'> +5.9383433e-01 </wgt>
<wgt id='1397'> +5.9707115e-01 </wgt>
<wgt id='1398'> +5.9113065e-01 </wgt>
<wgt id='1399'> +5.9789170e-01 </wgt>
<wgt id='1400'> +5.8937093e-01 </wgt>
<wgt id='1401'> +5.9176429e-01 </wgt>
<wgt id='1402'> +5.9688925e-01 </wgt>
<wgt id='1403'> +5.9306577e-01 </wgt>
<wgt id='1404'> +5.9608863e-01 </wgt>
<wgt id='1405'> +5.9345312e-01 </wgt>
<wgt id='1406'> +5.9490465e-01 </wgt>
<wgt id='1407'> +5.9455205e-01 </wgt>
<wgt id='1408'> +5.9372878e-01 </wgt>
<wgt id='1409'> +5.9581777e-01 </wgt>
<wgt id='1410'> +5.9201679e-01 </wgt>
<wgt id='1411'> +5.9255858e-01 </wgt>
<wgt id='1412'> +5.9519197e-01 </wgt>
<wgt id='1413'> +5.9541417e-01 </wgt>
<wgt id='1414'> +5.9256293e-01 </wgt>
<wgt id='1415'> +5.9402427e-01 </wgt>
<wgt id='1416'> +5.9368865e-01 </wgt>
<wgt id='1417'> +5.8363594e-01 </wgt>
<wgt id='1418'> +6.0705963e-01 </wgt>
<wgt id='1419'> +5.9268317e-01 </wgt>
<wgt id='1420'> +5.9432807e-01 </wgt>
<wgt id='1421'> +5.8358117e-01 </wgt>
<wgt id='1422'> +6.0684444e-01 </wgt>
<wgt id='1423'> +5.7546513e-01 </wgt>
<wgt id='1424'> +6.0887999e-01 </wgt>
<wgt id='1425'> +5.9538868e-01 </wgt>
<wgt id='1426'> +5.9230003e-01 </wgt>
<wgt id='1427'> +5.9608549e-01 </wgt>
<wgt id='1428'> +5.8669962e-01 </wgt>
<wgt id='1429'> +5.9229688e-01 </wgt>
<wgt id='1430'> +5.9486884e-01 </wgt>
<wgt id='1431'> +5.9057001e-01 </wgt>
<wgt id='1432'> +5.9731649e-01 </wgt>
<wgt id='1433'> +5.8499452e-01 </wgt>
<wgt id='1434'> +6.0441271e-01 </wgt>
<wgt id='1435'> +5.9119357e-01 </wgt>
<wgt id='1436'> +5.9808669e-01 </wgt>
<wgt id='1437'> +5.9252903e-01 </wgt>
<wgt id='1438'> +5.9796172e-01 </wgt>
<wgt id='1439'> +5.8548454e-01 </wgt>
<wgt id='1440'> +6.1300050e-01 </wgt>
<wgt id='1441'> +5.8984103e-01 </wgt>
<wgt id='1442'> +5.9764693e-01 </wgt>
<wgt id='1443'> +5.7973277e-01 </wgt>
<wgt id='1444'> +5.8008960e-01 </wgt>
<wgt id='1445'> +5.7934430e-01 </wgt>
<wgt id='1446'> +5.8005062e-01 </wgt>
<wgt id='1447'> +5.7952640e-01 </wgt>
<wgt id='1448'> +5.8284982e-01 </wgt>
<wgt id='1449'> +5.7684111e-01 </wgt>
<wgt id='1450'> +5.8342379e-01 </wgt>
<wgt id='1451'> +5.7569102e-01 </wgt>
<wgt id='1452'> +5.7753438e-01 </wgt>
<wgt id='1453'> +5.8189690e-01 </wgt>
<wgt id='1454'> +5.7863082e-01 </wgt>
<wgt id='1455'> +5.8214721e-01 </wgt>
<wgt id='1456'> +5.7916387e-01 </wgt>
<wgt id='1457'> +5.8076722e-01 </wgt>
<wgt id='1458'> +5.8049988e-01 </wgt>
<wgt id='1459'> +5.7931688e-01 </wgt>
<wgt id='1460'> +5.8140293e-01 </wgt>
<wgt id='1461'> +5.7775285e-01 </wgt>
<wgt id='1462'> +5.7791373e-01 </wgt>
<wgt id='1463'> +5.8131158e-01 </wgt>
<wgt id='1464'> +5.8118014e-01 </wgt>
<wgt id='1465'> +5.7782410e-01 </wgt>
<wgt id='1466'> +5.8104411e-01 </wgt>
<wgt id='1467'> +5.7841033e-01 </wgt>
<wgt id='1468'> +5.9259629e-01 </wgt>
<wgt id='1469'> +5.6735195e-01 </wgt>
<wgt id='1470'> +5.7884304e-01 </wgt>
<wgt id='1471'> +5.7976112e-01 </wgt>
<wgt id='1472'> +5.7187501e-01 </wgt>
<wgt id='1473'> +5.8942793e-01 </wgt>
<wgt id='1474'> +5.6677687e-01 </wgt>
<wgt id='1475'> +5.9498570e-01 </wgt>
<wgt id='1476'> +5.8399957e-01 </wgt>
<wgt id='1477'> +5.7566397e-01 </wgt>
<wgt id='1478'> +5.8159307e-01 </wgt>
<wgt id='1479'> +5.7242620e-01 </wgt>
<wgt id='1480'> +5.7863040e-01 </wgt>
<wgt id='1481'> +5.7970063e-01 </wgt>
<wgt id='1482'> +5.7666845e-01 </wgt>
<wgt id='1483'> +5.8306566e-01 </wgt>
<wgt id='1484'> +5.7043260e-01 </wgt>
<wgt id='1485'> +5.8996480e-01 </wgt>
<wgt id='1486'> +5.7682246e-01 </wgt>
<wgt id='1487'> +5.8353904e-01 </wgt>
<wgt id='1488'> +5.7786589e-01 </wgt>
<wgt id='1489'> +5.8431385e-01 </wgt>
<wgt id='1490'> +5.7099534e-01 </wgt>
<wgt id='1491'> +5.9891775e-01 </wgt>
<wgt id='1492'> +5.7341921e-01 </wgt>
<wgt id='1493'> +5.8500232e-01 </wgt>
<wgt id='1494'> +5.6782353e-01 </wgt>
<wgt id='1495'> +5.4931019e-01 </wgt>
<wgt id='1496'> +5.5461787e-01 </wgt>
<wgt id='1497'> +5.6248948e-01 </wgt>
<wgt id='1498'> +5.7843037e-01 </wgt>
<wgt id='1499'> +5.6957580e-01 </wgt>
<wgt id='1500'> +5.8112551e-01 </wgt>
<wgt id='1501'> +5.7918617e-01 </wgt>
<wgt id='1502'> +5.7663963e-01 </wgt>
<wgt id='1503'> +5.7431483e-01 </wgt>
<wgt id='1504'> +5.7202572e-01 </wgt>
<wgt id='1505'> +5.6754584e-01 </wgt>
<wgt id='1506'> +5.6511961e-01 </wgt>
<wgt id='1507'> +5.6259208e-01 </wgt>
<wgt id='1508'> +5.6957580e-01 </wgt>
<wgt id='1509'> +5.7048202e-01 </wgt>
<wgt id='1510'> +5.6996410e-01 </wgt>
<wgt id='1511'> +5.6933697e-01 </wgt>
<wgt id='1512'> +5.6984389e-01 </wgt>
<wgt id='1513'> +5.9747111e-01 </wgt>
<wgt id='1514'> +5.9753663e-01 </wgt>
<wgt id='1515'> +5.9741274e-01 </wgt>
<wgt id='1516'> +5.9891836e-01 </wgt>
<wgt id='1517'> +5.9603132e-01 </wgt>
<wgt id='1518'> +5.9853277e-01 </wgt>
<wgt id='1519'> +5.9704386e-01 </wgt>
<wgt id='1520'> +6.0309996e-01 </wgt>
<wgt id='1521'> +5.9190075e-01 </wgt>
<wgt id='1522'> +5.9645622e-01 </wgt>
<wgt id='1523'> +5.9847529e-01 </wgt>
<wgt id='1524'> +6.0207568e-01 </wgt>
<wgt id='1525'> +5.9547931e-01 </wgt>
<wgt id='1526'> +5.9734375e-01 </wgt>
<wgt id='1527'> +5.9760961e-01 </wgt>
<wgt id='1528'> +5.9714907e-01 </wgt>
<wgt id='1529'> +5.9783387e-01 </wgt>
<wgt id='1530'> +5.9715435e-01 </wgt>
<wgt id='1531'> +5.9763676e-01 </wgt>
<wgt id='1532'> +5.9893420e-01 </wgt>
<wgt id='1533'> +5.9547683e-01 </wgt>
<wgt id='1534'> +5.9650327e-01 </wgt>
<wgt id='1535'> +5.9816311e-01 </wgt>
<wgt id='1536'> +5.9066344e-01 </wgt>
<wgt id='1537'> +6.0404900e-01 </wgt>
<wgt id='1538'> +5.9534188e-01 </wgt>
<wgt id='1539'> +6.0240521e-01 </wgt>
<wgt id='1540'> +5.9382663e-01 </wgt>
<wgt id='1541'> +5.9980122e-01 </wgt>
<wgt id='1542'> +6.0644641e-01 </wgt>
<wgt id='1543'> +5.7565886e-01 </wgt>
<wgt id='1544'> +5.9038364e-01 </wgt>
<wgt id='1545'> +6.1176167e-01 </wgt>
<wgt id='1546'> +6.0029633e-01 </wgt>
<wgt id='1547'> +5.9109423e-01 </wgt>
<wgt id='1548'> +5.8603059e-01 </wgt>
<wgt id='1549'> +6.0178596e-01 </wgt>
<wgt id='1550'> +5.9686182e-01 </wgt>
<wgt id='1551'> +5.9851621e-01 </wgt>
<wgt id='1552'> +5.9270864e-01 </wgt>
<wgt id='1553'> +6.0096335e-01 </wgt>
<wgt id='1554'> +6.1058749e-01 </wgt>
<wgt id='1555'> +5.7794368e-01 </wgt>
<wgt id='1556'> +5.9868498e-01 </wgt>
<wgt id='1557'> +5.9551485e-01 </wgt>
<wgt id='1558'> +6.0700458e-01 </wgt>
<wgt id='1559'> +5.9123132e-01 </wgt>
<wgt id='1560'> +5.9614825e-01 </wgt>
<wgt id='1561'> +5.9809463e-01 </wgt>
<wgt id='1562'> +6.0735965e-01 </wgt>
<wgt id='1563'> +5.9093366e-01 </wgt>
<wgt id='1564'> +5.9747111e-01 </wgt>
<wgt id='1565'> +5.8560165e-01 </wgt>
<wgt id='1566'> +6.1712989e-01 </wgt>
<wgt id='1567'> +6.0180015e-01 </wgt>
<wgt id='1568'> +6.1736644e-01 </wgt>
<wgt id='1569'> +6.1419322e-01 </wgt>
<wgt id='1570'> +6.1123853e-01 </wgt>
<wgt id='1571'> +6.0832836e-01 </wgt>
<wgt id='1572'> +6.0488919e-01 </wgt>
<wgt id='1573'> +5.9814856e-01 </wgt>
<wgt id='1574'> +5.9468947e-01 </wgt>
<wgt id='1575'> +5.9138680e-01 </wgt>
<wgt id='1576'> +6.0180015e-01 </wgt>
<wgt id='1577'> +6.0216838e-01 </wgt>
<wgt id='1578'> +6.0185158e-01 </wgt>
<wgt id='1579'> +6.0185598e-01 </wgt>
<wgt id='1580'> +6.0200934e-01 </wgt>
<wgt id='1581'> +5.8108093e-01 </wgt>
<wgt id='1582'> +5.8453619e-01 </wgt>
<wgt id='1583'> +5.7864473e-01 </wgt>
<wgt id='1584'> +5.7855557e-01 </wgt>
<wgt id='1585'> +5.8072502e-01 </wgt>
<wgt id='1586'> +5.6668240e-01 </wgt>
<wgt id='1587'> +5.8193168e-01 </wgt>
<wgt id='1588'> +5.8230152e-01 </wgt>
<wgt id='1589'> +5.8001702e-01 </wgt>
<wgt id='1590'> +5.9374234e-01 </wgt>
<wgt id='1591'> +5.8567352e-01 </wgt>
<wgt id='1592'> +5.6388984e-01 </wgt>
<wgt id='1593'> +5.8181064e-01 </wgt>
<wgt id='1594'> +5.8381959e-01 </wgt>
<wgt id='1595'> +5.8322842e-01 </wgt>
<wgt id='1596'> +5.8637162e-01 </wgt>
<wgt id='1597'> +5.8454299e-01 </wgt>
<wgt id='1598'> +5.8178803e-01 </wgt>
<wgt id='1599'> +5.7147175e-01 </wgt>
<wgt id='1600'> +5.7647430e-01 </wgt>
<wgt id='1601'> +5.7526788e-01 </wgt>
<wgt id='1602'> +5.7831759e-01 </wgt>
<wgt id='1603'> +5.8800150e-01 </wgt>
<wgt id='1604'> +5.7550417e-01 </wgt>
<wgt id='1605'> +5.7496453e-01 </wgt>
<wgt id='1606'> +5.7983232e-01 </wgt>
<wgt id='1607'> +5.7921487e-01 </wgt>
<wgt id='1608'> +5.7845670e-01 </wgt>
<wgt id='1609'> +5.7681251e-01 </wgt>
<wgt id='1610'> +5.8379288e-01 </wgt>
<wgt id='1611'> +5.6506229e-01 </wgt>
<wgt id='1612'> +5.2137609e-01 </wgt>
<wgt id='1613'> +5.2117227e-01 </wgt>
<wgt id='1614'> +5.2112235e-01 </wgt>
<wgt id='1615'> +5.2058473e-01 </wgt>
<wgt id='1616'> +5.2203074e-01 </wgt>
<wgt id='1617'> +5.2190265e-01 </wgt>
<wgt id='1618'> +5.2229810e-01 </wgt>
<wgt id='1619'> +5.2149570e-01 </wgt>
<wgt id='1620'> +5.2019817e-01 </wgt>
<wgt id='1621'> +5.2166708e-01 </wgt>
<wgt id='1622'> +5.2147525e-01 </wgt>
<wgt id='1623'> +5.1880344e-01 </wgt>
<wgt id='1624'> +5.1851483e-01 </wgt>
<wgt id='1625'> +5.1827815e-01 </wgt>
<wgt id='1626'> +5.2084545e-01 </wgt>
<wgt id='1627'> +5.1968540e-01 </wgt>
<wgt id='1628'> +5.2243999e-01 </wgt>
<wgt id='1629'> +5.2216170e-01 </wgt>
<wgt id='1630'> +5.2026701e-01 </wgt>
<wgt id='1631'> +5.2194366e-01 </wgt>
<wgt id='1632'> +5.2046764e-01 </wgt>
<wgt id='1633'> +5.2251291e-01 </wgt>
<wgt id='1634'> +5.2240977e-01 </wgt>
<wgt id='1635'> +5.2142100e-01 </wgt>
<wgt id='1636'> +5.2001959e-01 </wgt>
<wgt id='1637'> +5.2281180e-01 </wgt>
<wgt id='1638'> +5.2273618e-01 </wgt>
<wgt id='1639'> +5.2196299e-01 </wgt>
<wgt id='1640'> +5.2078406e-01 </wgt>
<wgt id='1641'> +5.2007900e-01 </wgt>
<wgt id='1642'> +5.2013565e-01 </wgt>
<wgt id='1643'> +5.2093211e-01 </wgt>
<wgt id='1644'> +5.1958896e-01 </wgt>
<wgt id='1645'> +5.1955182e-01 </wgt>
<wgt id='1646'> +5.2229348e-01 </wgt>
<wgt id='1647'> +5.2235397e-01 </wgt>
<wgt id='1648'> +5.2184662e-01 </wgt>
<wgt id='1649'> +5.2098941e-01 </wgt>
<wgt id='1650'> +5.2020717e-01 </wgt>
<wgt id='1651'> +5.1902191e-01 </wgt>
<wgt id='1652'> +5.2164680e-01 </wgt>
<wgt id='1653'> +5.2252095e-01 </wgt>
<wgt id='1654'> +5.2448318e-01 </wgt>
<wgt id='1655'> +5.1727761e-01 </wgt>
<wgt id='1656'> +5.1984366e-01 </wgt>
<wgt id='1657'> +5.2157766e-01 </wgt>
<wgt id='1658'> +5.2470333e-01 </wgt>
<wgt id='1659'> +5.2338823e-01 </wgt>
<wgt id='1660'> +5.1997226e-01 </wgt>
<wgt id='1661'> +5.2015436e-01 </wgt>
<wgt id='1662'> +5.2350294e-01 </wgt>
<wgt id='1663'> +5.1889192e-01 </wgt>
<wgt id='1664'> +5.1999614e-01 </wgt>
<wgt id='1665'> +5.2111098e-01 </wgt>
<wgt id='1666'> +5.2234594e-01 </wgt>
<wgt id='1667'> +5.2297860e-01 </wgt>
<wgt id='1668'> +5.1946074e-01 </wgt>
<wgt id='1669'> +5.1768649e-01 </wgt>
<wgt id='1670'> +5.2051993e-01 </wgt>
<wgt id='1671'> +5.2213091e-01 </wgt>
<wgt id='1672'> +5.2147215e-01 </wgt>
<wgt id='1673'> +5.2148266e-01 </wgt>
<wgt id='1674'> +5.2026592e-01 </wgt>
<wgt id='1675'> +5.2171903e-01 </wgt>
<wgt id='1676'> +5.2018583e-01 </wgt>
<wgt id='1677'> +5.2070936e-01 </wgt>
<wgt id='1678'> +5.2277351e-01 </wgt>
<wgt id='1679'> +5.2219776e-01 </wgt>
<wgt id='1680'> +5.2204015e-01 </wgt>
<wgt id='1681'> +5.2282076e-01 </wgt>
<wgt id='1682'> +5.1968926e-01 </wgt>
<wgt id='1683'> +5.2084927e-01 </wgt>
<wgt id='1684'> +5.2116223e-01 </wgt>
<wgt id='1685'> +5.1849810e-01 </wgt>
<wgt id='1686'> +5.2115396e-01 </wgt>
<wgt id='1687'> +5.2031330e-01 </wgt>
<wgt id='1688'> +5.2311330e-01 </wgt>
<wgt id='1689'> +5.1937495e-01 </wgt>
<wgt id='1690'> +5.2152859e-01 </wgt>
<wgt id='1691'> +5.2256166e-01 </wgt>
<wgt id='1692'> +5.2222510e-01 </wgt>
<wgt id='1693'> +5.2251081e-01 </wgt>
<wgt id='1694'> +5.2300027e-01 </wgt>
<wgt id='1695'> +5.2157326e-01 </wgt>
<wgt id='1696'> +5.2110589e-01 </wgt>
<wgt id='1697'> +5.2217456e-01 </wgt>
<wgt id='1698'> +5.2176123e-01 </wgt>
<wgt id='1699'> +5.2029089e-01 </wgt>
<wgt id='1700'> +5.2230110e-01 </wgt>
<wgt id='1701'> +5.1996092e-01 </wgt>
<wgt id='1702'> +5.2184554e-01 </wgt>
<wgt id='1703'> +5.2203516e-01 </wgt>
<wgt id='1704'> +5.2147160e-01 </wgt>
<wgt id='1705'> +5.2205922e-01 </wgt>
<wgt id='1706'> +5.2125260e-01 </wgt>
<wgt id='1707'> +5.2226786e-01 </wgt>
<wgt id='1708'> +5.2034491e-01 </wgt>
<wgt id='1709'> +5.2231333e-01 </wgt>
<wgt id='1710'> +5.2075028e-01 </wgt>
<wgt id='1711'> +5.2148490e-01 </wgt>
<wgt id='1712'> +5.2108449e-01 </wgt>
<wgt id='1713'> +5.0940098e-01 </wgt>
<wgt id='1714'> +5.3663226e-01 </wgt>
<wgt id='1715'> +5.0423430e-01 </wgt>
<wgt id='1716'> +5.0272350e-01 </wgt>
<wgt id='1717'> +4.9828818e-01 </wgt>
<wgt id='1718'> +5.1716931e-01 </wgt>
<wgt id='1719'> +5.0837492e-01 </wgt>
<wgt id='1720'> +5.2920643e-01 </wgt>
<wgt id='1721'> +5.1920456e-01 </wgt>
<wgt id='1722'> +4.9810969e-01 </wgt>
<wgt id='1723'> +5.0330291e-01 </wgt>
<wgt id='1724'> +5.1001732e-01 </wgt>
<wgt id='1725'> +5.0923415e-01 </wgt>
<wgt id='1726'> +5.0048624e-01 </wgt>
<wgt id='1727'> +5.1231905e-01 </wgt>
<wgt id='1728'> +4.9624356e-01 </wgt>
<wgt id='1729'> +5.1837494e-01 </wgt>
<wgt id='1730'> +4.9765184e-01 </wgt>
<wgt id='1731'> +4.8359329e-01 </wgt>
<wgt id='1732'> +4.9143989e-01 </wgt>
<wgt id='1733'> +5.0644814e-01 </wgt>
<wgt id='1734'> +5.0636700e-01 </wgt>
<wgt id='1735'> +4.9298132e-01 </wgt>
<wgt id='1736'> +4.9484584e-01 </wgt>
<wgt id='1737'> +5.0321689e-01 </wgt>
<wgt id='1738'> +4.7405094e-01 </wgt>
<wgt id='1739'> +5.0991264e-01 </wgt>
<wgt id='1740'> +4.9951512e-01 </wgt>
<wgt id='1741'> +4.9826018e-01 </wgt>
<wgt id='1742'> +4.9982858e-01 </wgt>
<wgt id='1743'> +4.8254117e-01 </wgt>
<wgt id='1744'> +5.1791601e-01 </wgt>
<wgt id='1745'> +5.0620687e-01 </wgt>
<wgt id='1746'> +5.0511870e-01 </wgt>
<wgt id='1747'> +5.1121121e-01 </wgt>
<wgt id='1748'> +5.1896372e-01 </wgt>
<wgt id='1749'> +5.0506631e-01 </wgt>
<wgt id='1750'> +4.9700900e-01 </wgt>
<wgt id='1751'> +5.0393529e-01 </wgt>
<wgt id='1752'> +5.0778163e-01 </wgt>
<wgt id='1753'> +5.0085884e-01 </wgt>
<wgt id='1754'> +5.1313303e-01 </wgt>
<wgt id='1755'> +4.9918121e-01 </wgt>
<wgt id='1756'> +5.0629944e-01 </wgt>
<wgt id='1757'> +5.0963751e-01 </wgt>
<wgt id='1758'> +5.2958805e-01 </wgt>
<wgt id='1759'> +4.9708831e-01 </wgt>
<wgt id='1760'> +5.2249568e-01 </wgt>
<wgt id='1761'> +5.0603470e-01 </wgt>
<wgt id='1762'> +5.1231905e-01 </wgt>
<wgt id='1763'> +5.1472587e-01 </wgt>
<wgt id='1764'> +5.1817080e-01 </wgt>
<wgt id='1765'> +5.1062081e-01 </wgt>
<wgt id='1766'> +5.1541322e-01 </wgt>
<wgt id='1767'> +4.8798289e-01 </wgt>
<wgt id='1768'> +5.0722817e-01 </wgt>
<wgt id='1769'> +4.9568493e-01 </wgt>
<wgt id='1770'> +4.8995002e-01 </wgt>
<wgt id='1771'> +5.0328807e-01 </wgt>
<wgt id='1772'> +4.9133908e-01 </wgt>
<wgt id='1773'> +5.0977959e-01 </wgt>
<wgt id='1774'> +4.8912636e-01 </wgt>
<wgt id='1775'> +4.8284442e-01 </wgt>
<wgt id='1776'> +5.1680227e-01 </wgt>
<wgt id='1777'> +4.9569723e-01 </wgt>
<wgt id='1778'> +4.9685993e-01 </wgt>
<wgt id='1779'> +4.9669109e-01 </wgt>
<wgt id='1780'> +5.1645315e-01 </wgt>
<wgt id='1781'> +5.1457212e-01 </wgt>
<wgt id='1782'> +4.9456980e-01 </wgt>
<wgt id='1783'> +5.0076921e-01 </wgt>
<wgt id='1784'> +4.8405055e-01 </wgt>
<wgt id='1785'> +5.1978356e-01 </wgt>
<wgt id='1786'> +5.0756662e-01 </wgt>
<wgt id='1787'> +5.0672328e-01 </wgt>
<wgt id='1788'> +5.0207384e-01 </wgt>
<wgt id='1789'> +5.1638158e-01 </wgt>
<wgt id='1790'> +4.9719544e-01 </wgt>
<wgt id='1791'> +4.9136107e-01 </wgt>
<wgt id='1792'> +4.9708617e-01 </wgt>
<wgt id='1793'> +5.0765655e-01 </wgt>
<wgt id='1794'> +4.8789140e-01 </wgt>
<wgt id='1795'> +4.8841816e-01 </wgt>
<wgt id='1796'> +5.1401814e-01 </wgt>
<wgt id='1797'> +5.2869406e-01 </wgt>
<wgt id='1798'> +4.9540713e-01 </wgt>
<wgt id='1799'> +4.9732200e-01 </wgt>
<wgt id='1800'> +5.1625617e-01 </wgt>
<wgt id='1801'> +4.8856385e-01 </wgt>
<wgt id='1802'> +5.0148958e-01 </wgt>
<wgt id='1803'> +5.0735048e-01 </wgt>
<wgt id='1804'> +5.0823907e-01 </wgt>
<wgt id='1805'> +5.0635444e-01 </wgt>
<wgt id='1806'> +4.9730790e-01 </wgt>
<wgt id='1807'> +5.0841074e-01 </wgt>
<wgt id='1808'> +5.0920823e-01 </wgt>
<wgt id='1809'> +5.1361734e-01 </wgt>
<wgt id='1810'> +5.1608059e-01 </wgt>
<wgt id='1811'> +5.1149663e-01 </wgt>
<wgt id='1812'> +4.8809333e-01 </wgt>
<wgt id='1813'> +5.1134312e-01 </wgt>
<wgt id='1814'> +4.8727175e-01 </wgt>
<wgt id='1815'> +5.1874499e-01 </wgt>
<wgt id='1816'> +5.8618741e-01 </wgt>
<wgt id='1817'> +5.9429140e-01 </wgt>
<wgt id='1818'> +6.0173658e-01 </wgt>
<wgt id='1819'> +5.4853888e-01 </wgt>
<wgt id='1820'> +6.0450791e-01 </wgt>
<wgt id='1821'> +5.9925831e-01 </wgt>
<wgt id='1822'> +6.0982679e-01 </wgt>
<wgt id='1823'> +5.7988842e-01 </wgt>
<wgt id='1824'> +5.9141897e-01 </wgt>
<wgt id='1825'> +5.6461712e-01 </wgt>
<wgt id='1826'> +5.5026157e-01 </wgt>
<wgt id='1827'> +6.1945006e-01 </wgt>
<wgt id='1828'> +5.8257138e-01 </wgt>
<wgt id='1829'> +6.1858245e-01 </wgt>
<wgt id='1830'> +6.0133101e-01 </wgt>
<wgt id='1831'> +6.0985676e-01 </wgt>
<wgt id='1832'> +5.7176243e-01 </wgt>
<wgt id='1833'> +6.5248986e-01 </wgt>
<wgt id='1834'> +5.9804472e-01 </wgt>
<wgt id='1835'> +5.8042550e-01 </wgt>
<wgt id='1836'> +5.6773976e-01 </wgt>
<wgt id='1837'> +5.8107636e-01 </wgt>
<wgt id='1838'> +5.3218418e-01 </wgt>
<wgt id='1839'> +5.3968442e-01 </wgt>
<wgt id='1840'> +5.2238076e-01 </wgt>
<wgt id='1841'> +5.8828065e-01 </wgt>
<wgt id='1842'> +5.9283151e-01 </wgt>
<wgt id='1843'> +6.3614471e-01 </wgt>
<wgt id='1844'> +6.3984468e-01 </wgt>
<wgt id='1845'> +6.1268558e-01 </wgt>
<wgt id='1846'> +5.6289343e-01 </wgt>
<wgt id='1847'> +5.7165028e-01 </wgt>
<wgt id='1848'> +5.8828295e-01 </wgt>
<wgt id='1849'> +5.8532237e-01 </wgt>
<wgt id='1850'> +5.6904509e-01 </wgt>
<wgt id='1851'> +5.7135266e-01 </wgt>
<wgt id='1852'> +5.7084670e-01 </wgt>
<wgt id='1853'> +6.1295393e-01 </wgt>
<wgt id='1854'> +5.6231316e-01 </wgt>
<wgt id='1855'> +5.9113709e-01 </wgt>
<wgt id='1856'> +5.7685772e-01 </wgt>
<wgt id='1857'> +5.6981586e-01 </wgt>
<wgt id='1858'> +6.0001673e-01 </wgt>
<wgt id='1859'> +5.4194705e-01 </wgt>
<wgt id='1860'> +5.6023392e-01 </wgt>
<wgt id='1861'> +5.2460413e-01 </wgt>
<wgt id='1862'> +5.2850911e-01 </wgt>
<wgt id='1863'> +6.1104269e-01 </wgt>
<wgt id='1864'> +6.0903564e-01 </wgt>
<wgt id='1865'> +6.1087127e-01 </wgt>
<wgt id='1866'> +5.9100001e-01 </wgt>
<wgt id='1867'> +5.7907468e-01 </wgt>
<wgt id='1868'> +5.5539538e-01 </wgt>
<wgt id='1869'> +5.9301193e-01 </wgt>
<wgt id='1870'> +6.2657293e-01 </wgt>
<wgt id='1871'> +5.8023787e-01 </wgt>
<wgt id='1872'> +6.2118075e-01 </wgt>
<wgt id='1873'> +5.8704718e-01 </wgt>
<wgt id='1874'> +6.0025674e-01 </wgt>
<wgt id='1875'> +5.7966392e-01 </wgt>
<wgt id='1876'> +5.7129803e-01 </wgt>
<wgt id='1877'> +5.9842760e-01 </wgt>
<wgt id='1878'> +5.5038912e-01 </wgt>
<wgt id='1879'> +6.2553129e-01 </wgt>
<wgt id='1880'> +6.1111567e-01 </wgt>
<wgt id='1881'> +5.4426448e-01 </wgt>
<wgt id='1882'> +5.8151202e-01 </wgt>
<wgt id='1883'> +5.5428355e-01 </wgt>
<wgt id='1884'> +5.8042762e-01 </wgt>
<wgt id='1885'> +6.0422573e-01 </wgt>
<wgt id='1886'> +6.1371113e-01 </wgt>
<wgt id='1887'> +5.3046910e-01 </wgt>
<wgt id='1888'> +5.8888946e-01 </wgt>
<wgt id='1889'> +6.0469043e-01 </wgt>
<wgt id='1890'> +6.2816326e-01 </wgt>
<wgt id='1891'> +5.9217236e-01 </wgt>
<wgt id='1892'> +5.5720057e-01 </wgt>
<wgt id='1893'> +5.6816889e-01 </wgt>
<wgt id='1894'> +6.1870408e-01 </wgt>
<wgt id='1895'> +5.9425999e-01 </wgt>
<wgt id='1896'> +5.8701304e-01 </wgt>
<wgt id='1897'> +5.5298549e-01 </wgt>
<wgt id='1898'> +5.9080999e-01 </wgt>
<wgt id='1899'> +6.1936706e-01 </wgt>
<wgt id='1900'> +5.8804199e-01 </wgt>
<wgt id='1901'> +5.9225609e-01 </wgt>
<wgt id='1902'> +6.0116480e-01 </wgt>
<wgt id='1903'> +5.7447745e-01 </wgt>
<wgt id='1904'> +6.0854354e-01 </wgt>
<wgt id='1905'> +5.8818845e-01 </wgt>
<wgt id='1906'> +5.8093110e-01 </wgt>
<wgt id='1907'> +5.9879157e-01 </wgt>
<wgt id='1908'> +5.5783491e-01 </wgt>
<wgt id='1909'> +6.1069567e-01 </wgt>
<wgt id='1910'> +5.8561867e-01 </wgt>
<wgt id='1911'> +6.4303138e-01 </wgt>
<wgt id='1912'> +5.6756439e-01 </wgt>
<wgt id='1913'> +5.7754144e-01 </wgt>
<wgt id='1914'> +5.2781564e-01 </wgt>
<wgt id='1915'> +6.1416887e-01 </wgt>
<wgt id='1916'> +5.9059513e-01 </wgt>
<wgt id='1917'> +5.6350404e-01 </wgt>
<wgt id='1918'> +5.4974084e-01 </wgt>
<wgt id='1919'> +5.8618741e-01 </wgt>
<wgt id='1920'> +5.9429140e-01 </wgt>
<wgt id='1921'> +6.0173658e-01 </wgt>
<wgt id='1922'> +5.4853888e-01 </wgt>
<wgt id='1923'> +6.0450791e-01 </wgt>
<wgt id='1924'> +5.9925831e-01 </wgt>
<wgt id='1925'> +6.0982679e-01 </wgt>
<wgt id='1926'> +5.7988842e-01 </wgt>
<wgt id='1927'> +5.9141897e-01 </wgt>
<wgt id='1928'> +5.6461712e-01 </wgt>
<wgt id='1929'> +5.5026157e-01 </wgt>
<wgt id='1930'> +6.1945006e-01 </wgt>
<wgt id='1931'> +5.8257138e-01 </wgt>
<wgt id='1932'> +6.1858245e-01 </wgt>
<wgt id='1933'> +6.0133101e-01 </wgt>
<wgt id='1934'> +6.0985676e-01 </wgt>
<wgt id='1935'> +5.7176243e-01 </wgt>
<wgt id='1936'> +6.5248986e-01 </wgt>
<wgt id='1937'> +5.9804472e-01 </wgt>
<wgt id='1938'> +5.8042550e-01 </wgt>
<wgt id='1939'> +5.6773976e-01 </wgt>
<wgt id='1940'> +5.8107636e-01 </wgt>
<wgt id='1941'> +5.3218418e-01 </wgt>
<wgt id='1942'> +5.3968442e-01 </wgt>
<wgt id='1943'> +5.2238076e-01 </wgt>
<wgt id='1944'> +5.8828065e-01 </wgt>
<wgt id='1945'> +5.9283151e-01 </wgt>
<wgt id='1946'> +6.3614471e-01 </wgt>
<wgt id='1947'> +6.3984468e-01 </wgt>
<wgt id='1948'> +6.1268558e-01 </wgt>
<wgt id='1949'> +5.6289343e-01 </wgt>
<wgt id='1950'> +5.7165028e-01 </wgt>
<wgt id='1951'> +5.8828295e-01 </wgt>
<wgt id='1952'> +5.8532237e-01 </wgt>
<wgt id='1953'> +5.6904509e-01 </wgt>
<wgt id='1954'> +5.7135266e-01 </wgt>
<wgt id='1955'> +5.7084670e-01 </wgt>
<wgt id='1956'> +6.1295393e-01 </wgt>
<wgt id='1957'> +5.6231316e-01 </wgt>
<wgt id='1958'> +5.9113709e-01 </wgt>
<wgt id='1959'> +5.7685772e-01 </wgt>
<wgt id='1960'> +5.6981586e-01 </wgt>
<wgt id='1961'> +6.0001673e-01 </wgt>
<wgt id='1962'> +5.4194705e-01 </wgt>
<wgt id='1963'> +5.6023392e-01 </wgt>
<wgt id='1964'> +5.2460413e-01 </wgt>
<wgt id='1965'> +5.2850911e-01 </wgt>
<wgt id='1966'> +6.1104269e-01 </wgt>
<wgt id='1967'> +6.0903564e-01 </wgt>
<wgt id='1968'> +6.1087127e-01 </wgt>
<wgt id='1969'> +5.9100001e-01 </wgt>
<wgt id='1970'> +5.7907468e-01 </wgt>
<wgt id='1971'> +5.5539538e-01 </wgt>
<wgt id='1972'> +5.9301193e-01 </wgt>
<wgt id='1973'> +6.2657293e-01 </wgt>
<wgt id='1974'> +5.8023787e-01 </wgt>
<wgt id='1975'> +6.2118075e-01 </wgt>
<wgt id='1976'> +5.8704718e-01 </wgt>
<wgt id='1977'> +6.0025674e-01 </wgt>
<wgt id='1978'> +5.7966392e-01 </wgt>
<wgt id='1979'> +5.7129803e-01 </wgt>
<wgt id='1980'> +5.9842760e-01 </wgt>
<wgt id='1981'> +5.5038912e-01 </wgt>
<wgt id='1982'> +6.2553129e-01 </wgt>
<wgt id='1983'> +6.1111567e-01 </wgt>
<wgt id='1984'> +5.4426448e-01 </wgt>
<wgt id='1985'> +5.8151202e-01 </wgt>
<wgt id='1986'> +5.5428355e-01 </wgt>
<wgt id='1987'> +5.8042762e-01 </wgt>
<wgt id='1988'> +6.0422573e-01 </wgt>
<wgt id='1989'> +6.1371113e-01 </wgt>
<wgt id='1990'> +5.3046910e-01 </wgt>
<wgt id='1991'> +5.8888946e-01 </wgt>
<wgt id='1992'> +6.0469043e-01 </wgt>
<wgt id='1993'> +6.2816326e-01 </wgt>
<wgt id='1994'> +5.9217236e-01 </wgt>
<wgt id='1995'> +5.5720057e-01 </wgt>
<wgt id='1996'> +5.6816889e-01 </wgt>
<wgt id='1997'> +6.1870408e-01 </wgt>
<wgt id='1998'> +5.9425999e-01 </wgt>
<wgt id='1999'> +5.8701304e-01 </wgt>
<wgt id='2000'> +5.5298549e-01 </wgt>
<wgt id='2001'> +5.9080999e-01 </wgt>
<wgt id='2002'> +6.1936706e-01 </wgt>
<wgt id='2003'> +5.8804199e-01 </wgt>
<wgt id='2004'> +5.9225609e-01 </wgt>
<wgt id='2005'> +6.0116480e-01 </wgt>
<wgt id='2006'> +5.7447745e-01 </wgt>
<wgt id='2007'> +6.0854354e-01 </wgt>
<wgt id='2008'> +5.8818845e-01 </wgt>
<wgt id='2009'> +5.8093110e-01 </wgt>
<wgt id='2010'> +5.9879157e-01 </wgt>
<wgt id='2011'> +5.5783491e-01 </wgt>
<wgt id='2012'> +6.1069567e-01 </wgt>
<wgt id='2013'> +5.8561867e-01 </wgt>
<wgt id='2014'> +6.4303138e-01 </wgt>
<wgt id='2015'> +5.6756439e-01 </wgt>
<wgt id='2016'> +5.7754144e-01 </wgt>
<wgt id='2017'> +5.2781564e-01 </wgt>
<wgt id='2018'> +6.1416887e-01 </wgt>
<wgt id='2019'> +5.9059513e-01 </wgt>
<wgt id='2020'> +5.7764713e-01 </wgt>
<wgt id='2021'> +5.9483105e-01 </wgt>
<wgt id='2022'> +5.7587100e-01 </wgt>
</rwgt>
</event>
<event>
 13 1 0.0079112 9.88500800e+02 7.81860800e-03 8.19982500e-02
        2 -1    0    0  503    0 +0.0000000000e+00 +0.0000000000e+00 +1.1305244353e+03 1.1305244353e+03 2.5500000000e-03 0.0000e+00 -1.0000e+00
       21 -1    0    0  501  503 +0.0000000000e+00 +0.0000000000e+00 -2.8714367745e+02 2.8714367745e+02 0.0000000000e+00 0.0000e+00 1.0000e+00
  8000001  2    1    2  502    0 -1.5308277850e+01 -2.2439480536e+02 +6.2199574463e+02 8.9301021258e+02 6.0000096785e+02 0.0000e+00 0.0000e+00
        1  1    1    2  501    0 +6.9109886999e+01 -2.1664669299e+01 +2.5991062769e+02 2.6981302561e+02 5.0400000000e-03 0.0000e+00 -1.0000e+00
       -5  1    1    2    0  502 -5.3801609150e+01 +2.4605947466e+02 -3.8525614476e+01 2.5484487455e+02 4.6700000000e+00 0.0000e+00 1.0000e+00
        6  2    3    3  502    0 +1.3071722394e+02 +1.7003192663e+01 +5.4395472343e+02 5.8589296169e+02 1.7322736569e+02 0.0000e+00 0.0000e+00
        5  1    6    6  502    0 +1.0651424008e+02 +2.1118317175e+01 +4.3313167189e+02 4.4656032152e+02 4.6700000000e+00 0.0000e+00 -1.0000e+00
       24  2    6    6    0    0 +2.4202983860e+01 -4.1151245116e+00 +1.1082305154e+02 1.3933264017e+02 8.0802952839e+01 0.0000e+00 0.0000e+00
        2  1    8    8  504    0 -2.8516645119e+01 +5.9959285548e+00 +5.2652186199e+01 6.0178093407e+01 2.5500000000e-03 0.0000e+00 -1.0000e+00
       -1  1    8    8    0  504 +5.2719628979e+01 -1.0111053066e+01 +5.8170865340e+01 7.9154546765e+01 5.0400000000e-03 0.0000e+00 1.0000e+00
       23  2    3    3    0    0 -1.4602550179e+02 -2.4139799802e+02 +7.8041021205e+01 3.0711725089e+02 9.2920203315e+01 0.0000e+00 0.0000e+00
        3  1   11   11  505    0 -1.5433686971e+02 -2.1845347809e+02 +8.6776244427e+01 2.8119729416e+02 1.0100000000e-01 0.0000e+00 -1.0000e+00
       -3  1   11   11    0  505 +8.3113679221e+00 -2.2944519928e+01 -8.7352232223e+00 2.5919956736e+01 1.0100000000e-01 0.0000e+00 1.0000e+00
<mgrwt>
<rscale>  1 0.98850084e+03</rscale>
<asrwt>0</asrwt>
<pdfrwt beam="1">  1       21 0.44175951e-01 0.98850084e+03</pdfrwt>
<pdfrwt beam="2">  1        2 0.17392683e+00 0.98850084e+03</pdfrwt>
<totfact> 0.14024987e+03</totfact>
</mgrwt>
<rwgt>
<wgt id='1001'> +5.2878984e-01 </wgt>
<wgt id='1002'> +5.5118752e-01 </wgt>
<wgt id='1003'> +5.5117407e-01 </wgt>
<wgt id='1004'> +6.3903413e-01 </wgt>
<wgt id='1005'> +5.1383965e-01 </wgt>
<wgt id='1006'> +4.9032095e-01 </wgt>
<wgt id='1007'> +5.1018233e-01 </wgt>
<wgt id='1008'> +5.1017042e-01 </wgt>
<wgt id='1009'> +5.8748779e-01 </wgt>
<wgt id='1010'> +4.7703004e-01 </wgt>
<wgt id='1011'> +5.7397424e-01 </wgt>
<wgt id='1012'> +5.9954961e-01 </wgt>
<wgt id='1013'> +5.9953423e-01 </wgt>
<wgt id='1014'> +7.0077814e-01 </wgt>
<wgt id='1015'> +5.5696034e-01 </wgt>
<wgt id='1016'> +4.9771309e-01 </wgt>
<wgt id='1017'> +5.1835348e-01 </wgt>
<wgt id='1018'> +5.1834105e-01 </wgt>
<wgt id='1019'> +5.9953423e-01 </wgt>
<wgt id='1020'> +4.8390767e-01 </wgt>
<wgt id='1021'> +4.6150500e-01 </wgt>
<wgt id='1022'> +4.7979096e-01 </wgt>
<wgt id='1023'> +4.7977996e-01 </wgt>
<wgt id='1024'> +5.5117407e-01 </wgt>
<wgt id='1025'> +4.4924228e-01 </wgt>
<wgt id='1026'> +5.4024202e-01 </wgt>
<wgt id='1027'> +5.6383467e-01 </wgt>
<wgt id='1028'> +5.6382044e-01 </wgt>
<wgt id='1029'> +6.5746173e-01 </wgt>
<wgt id='1030'> +5.2451652e-01 </wgt>
<wgt id='1031'> +5.6319012e-01 </wgt>
<wgt id='1032'> +5.8750238e-01 </wgt>
<wgt id='1033'> +5.8748779e-01 </wgt>
<wgt id='1034'> +6.8278720e-01 </wgt>
<wgt id='1035'> +5.4692410e-01 </wgt>
<wgt id='1036'> +5.2221865e-01 </wgt>
<wgt id='1037'> +5.4379558e-01 </wgt>
<wgt id='1038'> +5.4378265e-01 </wgt>
<wgt id='1039'> +6.2771161e-01 </wgt>
<wgt id='1040'> +5.0774444e-01 </wgt>
<wgt id='1041'> +6.1131398e-01 </wgt>
<wgt id='1042'> +6.3905081e-01 </wgt>
<wgt id='1043'> +6.3903413e-01 </wgt>
<wgt id='1044'> +7.4875867e-01 </wgt>
<wgt id='1045'> +5.9282120e-01 </wgt>
<wgt id='1046'> +5.2878984e-01 </wgt>
<wgt id='1047'> +5.2878984e-01 </wgt>
<wgt id='1048'> +5.2878984e-01 </wgt>
<wgt id='1049'> +5.2900924e-01 </wgt>
<wgt id='1050'> +5.2845604e-01 </wgt>
<wgt id='1051'> +5.2988140e-01 </wgt>
<wgt id='1052'> +5.2788289e-01 </wgt>
<wgt id='1053'> +5.3080005e-01 </wgt>
<wgt id='1054'> +5.2809241e-01 </wgt>
<wgt id='1055'> +5.2841397e-01 </wgt>
<wgt id='1056'> +5.2861347e-01 </wgt>
<wgt id='1057'> +5.2904420e-01 </wgt>
<wgt id='1058'> +5.2857468e-01 </wgt>
<wgt id='1059'> +5.2882201e-01 </wgt>
<wgt id='1060'> +5.2752310e-01 </wgt>
<wgt id='1061'> +5.2901054e-01 </wgt>
<wgt id='1062'> +5.2988010e-01 </wgt>
<wgt id='1063'> +5.2888229e-01 </wgt>
<wgt id='1064'> +5.2947446e-01 </wgt>
<wgt id='1065'> +5.2970870e-01 </wgt>
<wgt id='1066'> +5.2668397e-01 </wgt>
<wgt id='1067'> +5.2887401e-01 </wgt>
<wgt id='1068'> +5.2714331e-01 </wgt>
<wgt id='1069'> +5.2744406e-01 </wgt>
<wgt id='1070'> +5.2918425e-01 </wgt>
<wgt id='1071'> +5.2817779e-01 </wgt>
<wgt id='1072'> +5.2954651e-01 </wgt>
<wgt id='1073'> +5.2851731e-01 </wgt>
<wgt id='1074'> +5.2905486e-01 </wgt>
<wgt id='1075'> +5.2666925e-01 </wgt>
<wgt id='1076'> +5.2978781e-01 </wgt>
<wgt id='1077'> +5.3052982e-01 </wgt>
<wgt id='1078'> +5.2869021e-01 </wgt>
<wgt id='1079'> +5.3159550e-01 </wgt>
<wgt id='1080'> +5.2940811e-01 </wgt>
<wgt id='1081'> +5.2942025e-01 </wgt>
<wgt id='1082'> +5.2966919e-01 </wgt>
<wgt id='1083'> +5.2848152e-01 </wgt>
<wgt id='1084'> +5.2791345e-01 </wgt>
<wgt id='1085'> +5.3038644e-01 </wgt>
<wgt id='1086'> +5.2769476e-01 </wgt>
<wgt id='1087'> +5.2870747e-01 </wgt>
<wgt id='1088'> +5.2956983e-01 </wgt>
<wgt id='1089'> +5.2952277e-01 </wgt>
<wgt id='1090'> +5.2898049e-01 </wgt>
<wgt id='1091'> +5.2853732e-01 </wgt>
<wgt id='1092'> +5.2763880e-01 </wgt>
<wgt id='1093'> +5.2859962e-01 </wgt>
<wgt id='1094'> +5.2848510e-01 </wgt>
<wgt id='1095'> +5.2791932e-01 </wgt>
<wgt id='1096'> +5.2750058e-01 </wgt>
<wgt id='1097'> +5.2863246e-01 </wgt>
<wgt id='1098'> +5.2835399e-01 </wgt>
<wgt id='1099'> +5.2858481e-01 </wgt>
<wgt id='1100'> +5.2910224e-01 </wgt>
<wgt id='1101'> +5.2870183e-01 </wgt>
<wgt id='1102'> +5.2923892e-01 </wgt>
<wgt id='1103'> +5.2907648e-01 </wgt>
<wgt id='1104'> +5.2916917e-01 </wgt>
<wgt id='1105'> +5.2924634e-01 </wgt>
<wgt id='1106'> +5.2896110e-01 </wgt>
<wgt id='1107'> +5.2907272e-01 </wgt>
<wgt id='1108'> +5.2880356e-01 </wgt>
<wgt id='1109'> +5.2910977e-01 </wgt>
<wgt id='1110'> +5.2871176e-01 </wgt>
<wgt id='1111'> +5.2860619e-01 </wgt>
<wgt id='1112'> +5.2888226e-01 </wgt>
<wgt id='1113'> +5.2903570e-01 </wgt>
<wgt id='1114'> +5.2786976e-01 </wgt>
<wgt id='1115'> +5.2896207e-01 </wgt>
<wgt id='1116'> +5.2865384e-01 </wgt>
<wgt id='1117'> +5.2889074e-01 </wgt>
<wgt id='1118'> +5.2845567e-01 </wgt>
<wgt id='1119'> +5.2871484e-01 </wgt>
<wgt id='1120'> +5.2872055e-01 </wgt>
<wgt id='1121'> +5.2925317e-01 </wgt>
<wgt id='1122'> +5.2856141e-01 </wgt>
<wgt id='1123'> +5.2888468e-01 </wgt>
<wgt id='1124'> +5.2892067e-01 </wgt>
<wgt id='1125'> +5.2882163e-01 </wgt>
<wgt id='1126'> +5.2883405e-01 </wgt>
<wgt id='1127'> +5.2924346e-01 </wgt>
<wgt id='1128'> +5.2879309e-01 </wgt>
<wgt id='1129'> +5.2886615e-01 </wgt>
<wgt id='1130'> +5.2902254e-01 </wgt>
<wgt id='1131'> +5.2899152e-01 </wgt>
<wgt id='1132'> +5.2895981e-01 </wgt>
<wgt id='1133'> +5.2900436e-01 </wgt>
<wgt id='1134'> +5.2842418e-01 </wgt>
<wgt id='1135'> +5.2893716e-01 </wgt>
<wgt id='1136'> +5.2869806e-01 </wgt>
<wgt id='1137'> +5.2878486e-01 </wgt>
<wgt id='1138'> +5.2913106e-01 </wgt>
<wgt id='1139'> +5.2872890e-01 </wgt>
<wgt id='1140'> +5.2912486e-01 </wgt>
<wgt id='1141'> +5.2874279e-01 </wgt>
<wgt id='1142'> +5.2892415e-01 </wgt>
<wgt id='1143'> +5.2904864e-01 </wgt>
<wgt id='1144'> +5.2870065e-01 </wgt>
<wgt id='1145'> +5.2878537e-01 </wgt>
<wgt id='1146'> +5.2872993e-01 </wgt>
<wgt id='1147'> +5.2897188e-01 </wgt>
<wgt id='1148'> +5.2878984e-01 </wgt>
<wgt id='1149'> +4.9860296e-01 </wgt>
<wgt id='1150'> +5.0419098e-01 </wgt>
<wgt id='1151'> +5.0019924e-01 </wgt>
<wgt id='1152'> +4.9991362e-01 </wgt>
<wgt id='1153'> +4.9448660e-01 </wgt>
<wgt id='1154'> +4.9860641e-01 </wgt>
<wgt id='1155'> +5.0743747e-01 </wgt>
<wgt id='1156'> +5.0650657e-01 </wgt>
<wgt id='1157'> +5.0370282e-01 </wgt>
<wgt id='1158'> +4.9744112e-01 </wgt>
<wgt id='1159'> +4.7435166e-01 </wgt>
<wgt id='1160'> +4.9928655e-01 </wgt>
<wgt id='1161'> +5.0383798e-01 </wgt>
<wgt id='1162'> +4.9093890e-01 </wgt>
<wgt id='1163'> +5.0982478e-01 </wgt>
<wgt id='1164'> +4.9711477e-01 </wgt>
<wgt id='1165'> +4.9519006e-01 </wgt>
<wgt id='1166'> +4.9741544e-01 </wgt>
<wgt id='1167'> +5.0323744e-01 </wgt>
<wgt id='1168'> +4.9536341e-01 </wgt>
<wgt id='1169'> +4.8928573e-01 </wgt>
<wgt id='1170'> +5.0455731e-01 </wgt>
<wgt id='1171'> +4.9852094e-01 </wgt>
<wgt id='1172'> +5.0024718e-01 </wgt>
<wgt id='1173'> +4.9487499e-01 </wgt>
<wgt id='1174'> +5.0573991e-01 </wgt>
<wgt id='1175'> +5.0833035e-01 </wgt>
<wgt id='1176'> +4.7466023e-01 </wgt>
<wgt id='1177'> +5.0848109e-01 </wgt>
<wgt id='1178'> +4.9725752e-01 </wgt>
<wgt id='1179'> +4.9494841e-01 </wgt>
<wgt id='1180'> +4.9991938e-01 </wgt>
<wgt id='1181'> +5.0262335e-01 </wgt>
<wgt id='1182'> +5.0301034e-01 </wgt>
<wgt id='1183'> +4.9575858e-01 </wgt>
<wgt id='1184'> +4.9595156e-01 </wgt>
<wgt id='1185'> +5.0828644e-01 </wgt>
<wgt id='1186'> +4.9770558e-01 </wgt>
<wgt id='1187'> +4.9750928e-01 </wgt>
<wgt id='1188'> +4.9643207e-01 </wgt>
<wgt id='1189'> +5.0279335e-01 </wgt>
<wgt id='1190'> +4.9936034e-01 </wgt>
<wgt id='1191'> +5.0171865e-01 </wgt>
<wgt id='1192'> +4.9164949e-01 </wgt>
<wgt id='1193'> +4.9863922e-01 </wgt>
<wgt id='1194'> +5.0479469e-01 </wgt>
<wgt id='1195'> +4.9776498e-01 </wgt>
<wgt id='1196'> +4.9974500e-01 </wgt>
<wgt id='1197'> +5.0158516e-01 </wgt>
<wgt id='1198'> +4.9987379e-01 </wgt>
<wgt id='1199'> +4.9356042e-01 </wgt>
<wgt id='1200'> +5.0350737e-01 </wgt>
<wgt id='1201'> +5.0337570e-01 </wgt>
<wgt id='1202'> +4.9933703e-01 </wgt>
<wgt id='1203'> +5.0479900e-01 </wgt>
<wgt id='1204'> +5.0728930e-01 </wgt>
<wgt id='1205'> +4.9421885e-01 </wgt>
<wgt id='1206'> +4.9899830e-01 </wgt>
<wgt id='1207'> +5.0523603e-01 </wgt>
<wgt id='1208'> +5.0233921e-01 </wgt>
<wgt id='1209'> +5.0914525e-01 </wgt>
<wgt id='1210'> +4.8785793e-01 </wgt>
<wgt id='1211'> +4.9777530e-01 </wgt>
<wgt id='1212'> +4.9228004e-01 </wgt>
<wgt id='1213'> +5.0711682e-01 </wgt>
<wgt id='1214'> +5.0072236e-01 </wgt>
<wgt id='1215'> +5.0704331e-01 </wgt>
<wgt id='1216'> +5.0001535e-01 </wgt>
<wgt id='1217'> +4.9168596e-01 </wgt>
<wgt id='1218'> +4.9958098e-01 </wgt>
<wgt id='1219'> +4.9416676e-01 </wgt>
<wgt id='1220'> +4.9985534e-01 </wgt>
<wgt id='1221'> +4.7954673e-01 </wgt>
<wgt id='1222'> +4.9835467e-01 </wgt>
<wgt id='1223'> +4.9025949e-01 </wgt>
<wgt id='1224'> +4.9414809e-01 </wgt>
<wgt id='1225'> +5.0371879e-01 </wgt>
<wgt id='1226'> +4.8743157e-01 </wgt>
<wgt id='1227'> +5.0881835e-01 </wgt>
<wgt id='1228'> +4.9785571e-01 </wgt>
<wgt id='1229'> +4.9295667e-01 </wgt>
<wgt id='1230'> +4.9853035e-01 </wgt>
<wgt id='1231'> +4.9519006e-01 </wgt>
<wgt id='1232'> +4.8738047e-01 </wgt>
<wgt id='1233'> +4.9723315e-01 </wgt>
<wgt id='1234'> +5.0354987e-01 </wgt>
<wgt id='1235'> +4.9337117e-01 </wgt>
<wgt id='1236'> +5.0389351e-01 </wgt>
<wgt id='1237'> +4.9065219e-01 </wgt>
<wgt id='1238'> +4.8227018e-01 </wgt>
<wgt id='1239'> +5.0819315e-01 </wgt>
<wgt id='1240'> +5.0731036e-01 </wgt>
<wgt id='1241'> +4.9954393e-01 </wgt>
<wgt id='1242'> +4.9565448e-01 </wgt>
<wgt id='1243'> +4.9420434e-01 </wgt>
<wgt id='1244'> +4.9811331e-01 </wgt>
<wgt id='1245'> +5.0459368e-01 </wgt>
<wgt id='1246'> +4.9423664e-01 </wgt>
<wgt id='1247'> +4.9897337e-01 </wgt>
<wgt id='1248'> +5.0067951e-01 </wgt>
<wgt id='1249'> +5.0123846e-01 </wgt>
<wgt id='1250'> +5.1710607e-01 </wgt>
<wgt id='1251'> +5.0997371e-01 </wgt>
<wgt id='1252'> +5.2675385e-01 </wgt>
<wgt id='1253'> +5.2287429e-01 </wgt>
<wgt id='1254'> +4.8711250e-01 </wgt>
<wgt id='1255'> +5.0308644e-01 </wgt>
<wgt id='1256'> +5.0624865e-01 </wgt>
<wgt id='1257'> +5.0126932e-01 </wgt>
<wgt id='1258'> +5.0221225e-01 </wgt>
<wgt id='1259'> +5.0353277e-01 </wgt>
<wgt id='1260'> +5.0401694e-01 </wgt>
<wgt id='1261'> +5.0184063e-01 </wgt>
<wgt id='1262'> +5.0378565e-01 </wgt>
<wgt id='1263'> +5.0264490e-01 </wgt>
<wgt id='1264'> +5.0308433e-01 </wgt>
<wgt id='1265'> +5.0309769e-01 </wgt>
<wgt id='1266'> +5.0318427e-01 </wgt>
<wgt id='1267'> +5.0299697e-01 </wgt>
<wgt id='1268'> +5.0818409e-01 </wgt>
<wgt id='1269'> +4.9801237e-01 </wgt>
<wgt id='1270'> +5.0143435e-01 </wgt>
<wgt id='1271'> +5.0448085e-01 </wgt>
<wgt id='1272'> +5.0303475e-01 </wgt>
<wgt id='1273'> +5.0310885e-01 </wgt>
<wgt id='1274'> +5.0293165e-01 </wgt>
<wgt id='1275'> +5.0331312e-01 </wgt>
<wgt id='1276'> +5.0323856e-01 </wgt>
<wgt id='1277'> +5.0299646e-01 </wgt>
<wgt id='1278'> +5.0033117e-01 </wgt>
<wgt id='1279'> +5.0532073e-01 </wgt>
<wgt id='1280'> +5.0254641e-01 </wgt>
<wgt id='1281'> +5.0440491e-01 </wgt>
<wgt id='1282'> +5.0490793e-01 </wgt>
<wgt id='1283'> +5.0074943e-01 </wgt>
<wgt id='1284'> +5.0208049e-01 </wgt>
<wgt id='1285'> +5.0383433e-01 </wgt>
<wgt id='1286'> +5.0437598e-01 </wgt>
<wgt id='1287'> +5.0301745e-01 </wgt>
<wgt id='1288'> +5.0301337e-01 </wgt>
<wgt id='1289'> +5.0301327e-01 </wgt>
<wgt id='1290'> +5.0388817e-01 </wgt>
<wgt id='1291'> +5.0281547e-01 </wgt>
<wgt id='1292'> +5.0549514e-01 </wgt>
<wgt id='1293'> +4.9990366e-01 </wgt>
<wgt id='1294'> +5.0102544e-01 </wgt>
<wgt id='1295'> +5.0301636e-01 </wgt>
<wgt id='1296'> +5.2138754e-01 </wgt>
<wgt id='1297'> +5.2267542e-01 </wgt>
<wgt id='1298'> +5.2033576e-01 </wgt>
<wgt id='1299'> +5.1998071e-01 </wgt>
<wgt id='1300'> +5.2294905e-01 </wgt>
<wgt id='1301'> +5.2013781e-01 </wgt>
<wgt id='1302'> +5.2324474e-01 </wgt>
<wgt id='1303'> +5.2069608e-01 </wgt>
<wgt id='1304'> +5.2184902e-01 </wgt>
<wgt id='1305'> +5.2191744e-01 </wgt>
<wgt id='1306'> +5.2062923e-01 </wgt>
<wgt id='1307'> +5.2420657e-01 </wgt>
<wgt id='1308'> +5.1963213e-01 </wgt>
<wgt id='1309'> +5.2162531e-01 </wgt>
<wgt id='1310'> +5.2108943e-01 </wgt>
<wgt id='1311'> +5.2619784e-01 </wgt>
<wgt id='1312'> +5.1965325e-01 </wgt>
<wgt id='1313'> +5.2043953e-01 </wgt>
<wgt id='1314'> +5.2244195e-01 </wgt>
<wgt id='1315'> +5.2155103e-01 </wgt>
<wgt id='1316'> +5.2122176e-01 </wgt>
<wgt id='1317'> +5.2015605e-01 </wgt>
<wgt id='1318'> +5.2396193e-01 </wgt>
<wgt id='1319'> +5.2207590e-01 </wgt>
<wgt id='1320'> +5.2111289e-01 </wgt>
<wgt id='1321'> +5.1907170e-01 </wgt>
<wgt id='1322'> +5.2254502e-01 </wgt>
<wgt id='1323'> +5.2067239e-01 </wgt>
<wgt id='1324'> +5.2191025e-01 </wgt>
<wgt id='1325'> +5.2191693e-01 </wgt>
<wgt id='1326'> +5.2059296e-01 </wgt>
<wgt id='1327'> +5.2161974e-01 </wgt>
<wgt id='1328'> +5.2132071e-01 </wgt>
<wgt id='1329'> +5.2159854e-01 </wgt>
<wgt id='1330'> +5.2125224e-01 </wgt>
<wgt id='1331'> +5.2162111e-01 </wgt>
<wgt id='1332'> +5.2167105e-01 </wgt>
<wgt id='1333'> +5.2441453e-01 </wgt>
<wgt id='1334'> +5.1886391e-01 </wgt>
<wgt id='1335'> +5.2306472e-01 </wgt>
<wgt id='1336'> +5.2095241e-01 </wgt>
<wgt id='1337'> +5.2138754e-01 </wgt>
<wgt id='1338'> +5.2214958e-01 </wgt>
<wgt id='1339'> +5.2188298e-01 </wgt>
<wgt id='1340'> +5.2161637e-01 </wgt>
<wgt id='1341'> +5.2116126e-01 </wgt>
<wgt id='1342'> +5.2096380e-01 </wgt>
<wgt id='1343'> +5.2077733e-01 </wgt>
<wgt id='1344'> +5.2590147e-01 </wgt>
<wgt id='1345'> +5.2782797e-01 </wgt>
<wgt id='1346'> +5.2395718e-01 </wgt>
<wgt id='1347'> +5.2879359e-01 </wgt>
<wgt id='1348'> +5.2375207e-01 </wgt>
<wgt id='1349'> +5.2482697e-01 </wgt>
<wgt id='1350'> +5.2680791e-01 </wgt>
<wgt id='1351'> +5.2591244e-01 </wgt>
<wgt id='1352'> +5.2588982e-01 </wgt>
<wgt id='1353'> +5.2726410e-01 </wgt>
<wgt id='1354'> +5.2491734e-01 </wgt>
<wgt id='1355'> +5.2513702e-01 </wgt>
<wgt id='1356'> +5.2648718e-01 </wgt>
<wgt id='1357'> +5.2687147e-01 </wgt>
<wgt id='1358'> +5.2528562e-01 </wgt>
<wgt id='1359'> +5.2378562e-01 </wgt>
<wgt id='1360'> +5.3117441e-01 </wgt>
<wgt id='1361'> +5.2677277e-01 </wgt>
<wgt id='1362'> +5.2563490e-01 </wgt>
<wgt id='1363'> +5.2605477e-01 </wgt>
<wgt id='1364'> +5.2573872e-01 </wgt>
<wgt id='1365'> +5.2635124e-01 </wgt>
<wgt id='1366'> +5.2577567e-01 </wgt>
<wgt id='1367'> +5.2279594e-01 </wgt>
<wgt id='1368'> +5.2740782e-01 </wgt>
<wgt id='1369'> +5.2556961e-01 </wgt>
<wgt id='1370'> +5.2618940e-01 </wgt>
<wgt id='1371'> +5.2617844e-01 </wgt>
<wgt id='1372'> +5.2544365e-01 </wgt>
<wgt id='1373'> +5.2776724e-01 </wgt>
<wgt id='1374'> +5.2559232e-01 </wgt>
<wgt id='1375'> +5.2665550e-01 </wgt>
<wgt id='1376'> +5.2574695e-01 </wgt>
<wgt id='1377'> +5.2590374e-01 </wgt>
<wgt id='1378'> +5.2595956e-01 </wgt>
<wgt id='1379'> +5.2691907e-01 </wgt>
<wgt id='1380'> +5.2568387e-01 </wgt>
<wgt id='1381'> +5.2360097e-01 </wgt>
<wgt id='1382'> +5.2700433e-01 </wgt>
<wgt id='1383'> +5.2543376e-01 </wgt>
<wgt id='1384'> +5.2833923e-01 </wgt>
<wgt id='1385'> +5.2590147e-01 </wgt>
<wgt id='1386'> +5.2654172e-01 </wgt>
<wgt id='1387'> +5.2630361e-01 </wgt>
<wgt id='1388'> +5.2605758e-01 </wgt>
<wgt id='1389'> +5.2564147e-01 </wgt>
<wgt id='1390'> +5.2545846e-01 </wgt>
<wgt id='1391'> +5.2529327e-01 </wgt>
<wgt id='1392'> +5.4813451e-01 </wgt>
<wgt id='1393'> +5.4816674e-01 </wgt>
<wgt id='1394'> +5.4808927e-01 </wgt>
<wgt id='1395'> +5.4856685e-01 </wgt>
<wgt id='1396'> +5.4781828e-01 </wgt>
<wgt id='1397'> +5.5005186e-01 </wgt>
<wgt id='1398'> +5.4626518e-01 </wgt>
<wgt id='1399'> +5.4970189e-01 </wgt>
<wgt id='1400'> +5.4620734e-01 </wgt>
<wgt id='1401'> +5.4619395e-01 </wgt>
<wgt id='1402'> +5.5052515e-01 </wgt>
<wgt id='1403'> +5.4775638e-01 </wgt>
<wgt id='1404'> +5.4890580e-01 </wgt>
<wgt id='1405'> +5.4737596e-01 </wgt>
<wgt id='1406'> +5.4919088e-01 </wgt>
<wgt id='1407'> +5.4792175e-01 </wgt>
<wgt id='1408'> +5.4827945e-01 </wgt>
<wgt id='1409'> +5.5083810e-01 </wgt>
<wgt id='1410'> +5.4503072e-01 </wgt>
<wgt id='1411'> +5.4746312e-01 </wgt>
<wgt id='1412'> +5.4865032e-01 </wgt>
<wgt id='1413'> +5.4964282e-01 </wgt>
<wgt id='1414'> +5.4654922e-01 </wgt>
<wgt id='1415'> +5.5090833e-01 </wgt>
<wgt id='1416'> +5.4524212e-01 </wgt>
<wgt id='1417'> +5.4573612e-01 </wgt>
<wgt id='1418'> +5.5106550e-01 </wgt>
<wgt id='1419'> +5.4827039e-01 </wgt>
<wgt id='1420'> +5.4776372e-01 </wgt>
<wgt id='1421'> +5.4883207e-01 </wgt>
<wgt id='1422'> +5.4743560e-01 </wgt>
<wgt id='1423'> +5.4751166e-01 </wgt>
<wgt id='1424'> +5.4833295e-01 </wgt>
<wgt id='1425'> +5.4841642e-01 </wgt>
<wgt id='1426'> +5.4778352e-01 </wgt>
<wgt id='1427'> +5.4759592e-01 </wgt>
<wgt id='1428'> +5.4616856e-01 </wgt>
<wgt id='1429'> +5.4727037e-01 </wgt>
<wgt id='1430'> +5.4881304e-01 </wgt>
<wgt id='1431'> +5.4750193e-01 </wgt>
<wgt id='1432'> +5.4856737e-01 </wgt>
<wgt id='1433'> +5.4547357e-01 </wgt>
<wgt id='1434'> +5.5084994e-01 </wgt>
<wgt id='1435'> +5.4722818e-01 </wgt>
<wgt id='1436'> +5.4874917e-01 </wgt>
<wgt id='1437'> +5.4740698e-01 </wgt>
<wgt id='1438'> +5.4986180e-01 </wgt>
<wgt id='1439'> +5.5110006e-01 </wgt>
<wgt id='1440'> +5.4400541e-01 </wgt>
<wgt id='1441'> +5.4924787e-01 </wgt>
<wgt id='1442'> +5.4876567e-01 </wgt>
<wgt id='1443'> +5.4590792e-01 </wgt>
<wgt id='1444'> +5.4594985e-01 </wgt>
<wgt id='1445'> +5.4584497e-01 </wgt>
<wgt id='1446'> +5.4635930e-01 </wgt>
<wgt id='1447'> +5.4559869e-01 </wgt>
<wgt id='1448'> +5.4795029e-01 </wgt>
<wgt id='1449'> +5.4399999e-01 </wgt>
<wgt id='1450'> +5.4738230e-01 </wgt>
<wgt id='1451'> +5.4427187e-01 </wgt>
<wgt id='1452'> +5.4395134e-01 </wgt>
<wgt id='1453'> +5.4778895e-01 </wgt>
<wgt id='1454'> +5.4540692e-01 </wgt>
<wgt id='1455'> +5.4698178e-01 </wgt>
<wgt id='1456'> +5.4499796e-01 </wgt>
<wgt id='1457'> +5.4749315e-01 </wgt>
<wgt id='1458'> +5.4583492e-01 </wgt>
<wgt id='1459'> +5.4594117e-01 </wgt>
<wgt id='1460'> +5.4855426e-01 </wgt>
<wgt id='1461'> +5.4272941e-01 </wgt>
<wgt id='1462'> +5.4463859e-01 </wgt>
<wgt id='1463'> +5.4697213e-01 </wgt>
<wgt id='1464'> +5.4735440e-01 </wgt>
<wgt id='1465'> +5.4399602e-01 </wgt>
<wgt id='1466'> +5.4982256e-01 </wgt>
<wgt id='1467'> +5.4314561e-01 </wgt>
<wgt id='1468'> +5.4797237e-01 </wgt>
<wgt id='1469'> +5.4390911e-01 </wgt>
<wgt id='1470'> +5.4617973e-01 </wgt>
<wgt id='1471'> +5.4552694e-01 </wgt>
<wgt id='1472'> +5.4650624e-01 </wgt>
<wgt id='1473'> +5.4524004e-01 </wgt>
<wgt id='1474'> +5.4554954e-01 </wgt>
<wgt id='1475'> +5.4600131e-01 </wgt>
<wgt id='1476'> +5.4636958e-01 </wgt>
<wgt id='1477'> +5.4544199e-01 </wgt>
<wgt id='1478'> +5.4547059e-01 </wgt>
<wgt id='1479'> +5.4391209e-01 </wgt>
<wgt id='1480'> +5.4530520e-01 </wgt>
<wgt id='1481'> +5.4636224e-01 </wgt>
<wgt id='1482'> +5.4527208e-01 </wgt>
<wgt id='1483'> +5.4641949e-01 </wgt>
<wgt id='1484'> +5.4318174e-01 </wgt>
<wgt id='1485'> +5.4872400e-01 </wgt>
<wgt id='1486'> +5.4528341e-01 </wgt>
<wgt id='1487'> +5.4626766e-01 </wgt>
<wgt id='1488'> +5.4505927e-01 </wgt>
<wgt id='1489'> +5.4783074e-01 </wgt>
<wgt id='1490'> +5.4991685e-01 </wgt>
<wgt id='1491'> +5.4159866e-01 </wgt>
<wgt id='1492'> +5.4775213e-01 </wgt>
<wgt id='1493'> +5.4654310e-01 </wgt>
<wgt id='1494'> +5.1778594e-01 </wgt>
<wgt id='1495'> +5.1510735e-01 </wgt>
<wgt id='1496'> +5.1610251e-01 </wgt>
<wgt id='1497'> +5.1699346e-01 </wgt>
<wgt id='1498'> +5.1850362e-01 </wgt>
<wgt id='1499'> +5.1777178e-01 </wgt>
<wgt id='1500'> +5.2297530e-01 </wgt>
<wgt id='1501'> +5.2201406e-01 </wgt>
<wgt id='1502'> +5.2098367e-01 </wgt>
<wgt id='1503'> +5.1994458e-01 </wgt>
<wgt id='1504'> +5.1890374e-01 </wgt>
<wgt id='1505'> +5.1670758e-01 </wgt>
<wgt id='1506'> +5.1561651e-01 </wgt>
<wgt id='1507'> +5.1451432e-01 </wgt>
<wgt id='1508'> +5.1777178e-01 </wgt>
<wgt id='1509'> +5.1858846e-01 </wgt>
<wgt id='1510'> +5.1813825e-01 </wgt>
<wgt id='1511'> +5.1743034e-01 </wgt>
<wgt id='1512'> +5.1712816e-01 </wgt>
<wgt id='1513'> +5.2483547e-01 </wgt>
<wgt id='1514'> +5.2463213e-01 </wgt>
<wgt id='1515'> +5.2507549e-01 </wgt>
<wgt id='1516'> +5.2560597e-01 </wgt>
<wgt id='1517'> +5.2404815e-01 </wgt>
<wgt id='1518'> +5.2590393e-01 </wgt>
<wgt id='1519'> +5.2438914e-01 </wgt>
<wgt id='1520'> +5.2736730e-01 </wgt>
<wgt id='1521'> +5.2230874e-01 </wgt>
<wgt id='1522'> +5.2384917e-01 </wgt>
<wgt id='1523'> +5.2577070e-01 </wgt>
<wgt id='1524'> +5.2756537e-01 </wgt>
<wgt id='1525'> +5.2365327e-01 </wgt>
<wgt id='1526'> +5.2471680e-01 </wgt>
<wgt id='1527'> +5.2498881e-01 </wgt>
<wgt id='1528'> +5.2414014e-01 </wgt>
<wgt id='1529'> +5.2558341e-01 </wgt>
<wgt id='1530'> +5.2841577e-01 </wgt>
<wgt id='1531'> +5.2279171e-01 </wgt>
<wgt id='1532'> +5.2667484e-01 </wgt>
<wgt id='1533'> +5.2228153e-01 </wgt>
<wgt id='1534'> +5.2346122e-01 </wgt>
<wgt id='1535'> +5.2577715e-01 </wgt>
<wgt id='1536'> +5.2258924e-01 </wgt>
<wgt id='1537'> +5.2701990e-01 </wgt>
<wgt id='1538'> +5.2334623e-01 </wgt>
<wgt id='1539'> +5.2829815e-01 </wgt>
<wgt id='1540'> +5.2422460e-01 </wgt>
<wgt id='1541'> +5.2492916e-01 </wgt>
<wgt id='1542'> +5.2454819e-01 </wgt>
<wgt id='1543'> +5.2600029e-01 </wgt>
<wgt id='1544'> +5.2429611e-01 </wgt>
<wgt id='1545'> +5.2496942e-01 </wgt>
<wgt id='1546'> +5.2421253e-01 </wgt>
<wgt id='1547'> +5.2484418e-01 </wgt>
<wgt id='1548'> +5.2341061e-01 </wgt>
<wgt id='1549'> +5.2437252e-01 </wgt>
<wgt id='1550'> +5.2487488e-01 </wgt>
<wgt id='1551'> +5.2442697e-01 </wgt>
<wgt id='1552'> +5.2397230e-01 </wgt>
<wgt id='1553'> +5.2527930e-01 </wgt>
<wgt id='1554'> +5.2610907e-01 </wgt>
<wgt id='1555'> +5.2175990e-01 </wgt>
<wgt id='1556'> +5.2549131e-01 </wgt>
<wgt id='1557'> +5.2461200e-01 </wgt>
<wgt id='1558'> +5.2203819e-01 </wgt>
<wgt id='1559'> +5.2679108e-01 </wgt>
<wgt id='1560'> +5.2764057e-01 </wgt>
<wgt id='1561'> +5.2353848e-01 </wgt>
<wgt id='1562'> +5.2256819e-01 </wgt>
<wgt id='1563'> +5.2624932e-01 </wgt>
<wgt id='1564'> +5.2483547e-01 </wgt>
<wgt id='1565'> +5.2312395e-01 </wgt>
<wgt id='1566'> +5.2509793e-01 </wgt>
<wgt id='1567'> +5.2415293e-01 </wgt>
<wgt id='1568'> +5.2939245e-01 </wgt>
<wgt id='1569'> +5.2840945e-01 </wgt>
<wgt id='1570'> +5.2732611e-01 </wgt>
<wgt id='1571'> +5.2623446e-01 </wgt>
<wgt id='1572'> +5.2520626e-01 </wgt>
<wgt id='1573'> +5.2298177e-01 </wgt>
<wgt id='1574'> +5.2163590e-01 </wgt>
<wgt id='1575'> +5.2054387e-01 </wgt>
<wgt id='1576'> +5.2415293e-01 </wgt>
<wgt id='1577'> +5.2478785e-01 </wgt>
<wgt id='1578'> +5.2445447e-01 </wgt>
<wgt id='1579'> +5.2388332e-01 </wgt>
<wgt id='1580'> +5.2366840e-01 </wgt>
<wgt id='1581'> +5.2324054e-01 </wgt>
<wgt id='1582'> +5.2385138e-01 </wgt>
<wgt id='1583'> +5.2546837e-01 </wgt>
<wgt id='1584'> +5.2141034e-01 </wgt>
<wgt id='1585'> +5.2491683e-01 </wgt>
<wgt id='1586'> +5.1907167e-01 </wgt>
<wgt id='1587'> +5.1887201e-01 </wgt>
<wgt id='1588'> +5.2752515e-01 </wgt>
<wgt id='1589'> +5.2284239e-01 </wgt>
<wgt id='1590'> +5.2524743e-01 </wgt>
<wgt id='1591'> +5.2246532e-01 </wgt>
<wgt id='1592'> +5.2004291e-01 </wgt>
<wgt id='1593'> +5.2427070e-01 </wgt>
<wgt id='1594'> +5.2246955e-01 </wgt>
<wgt id='1595'> +5.2266599e-01 </wgt>
<wgt id='1596'> +5.2668940e-01 </wgt>
<wgt id='1597'> +5.2468377e-01 </wgt>
<wgt id='1598'> +5.2368042e-01 </wgt>
<wgt id='1599'> +5.2327865e-01 </wgt>
<wgt id='1600'> +5.2461796e-01 </wgt>
<wgt id='1601'> +5.2213199e-01 </wgt>
<wgt id='1602'> +5.2437626e-01 </wgt>
<wgt id='1603'> +5.2431947e-01 </wgt>
<wgt id='1604'> +5.2329237e-01 </wgt>
<wgt id='1605'> +5.2226701e-01 </wgt>
<wgt id='1606'> +5.2378615e-01 </wgt>
<wgt id='1607'> +5.2370164e-01 </wgt>
<wgt id='1608'> +5.2352185e-01 </wgt>
<wgt id='1609'> +5.2431921e-01 </wgt>
<wgt id='1610'> +5.2283149e-01 </wgt>
<wgt id='1611'> +5.2549161e-01 </wgt>
<wgt id='1612'> +5.1773591e-01 </wgt>
<wgt id='1613'> +5.1745824e-01 </wgt>
<wgt id='1614'> +5.1812294e-01 </wgt>
<wgt id='1615'> +5.1812627e-01 </wgt>
<wgt id='1616'> +5.1743662e-01 </wgt>
<wgt id='1617'> +5.1753756e-01 </wgt>
<wgt id='1618'> +5.1847765e-01 </wgt>
<wgt id='1619'> +5.1664081e-01 </wgt>
<wgt id='1620'> +5.1723697e-01 </wgt>
<wgt id='1621'> +5.1791791e-01 </wgt>
<wgt id='1622'> +5.1865339e-01 </wgt>
<wgt id='1623'> +5.1690056e-01 </wgt>
<wgt id='1624'> +5.1654624e-01 </wgt>
<wgt id='1625'> +5.1707529e-01 </wgt>
<wgt id='1626'> +5.1920786e-01 </wgt>
<wgt id='1627'> +5.1699693e-01 </wgt>
<wgt id='1628'> +5.1807932e-01 </wgt>
<wgt id='1629'> +5.1838330e-01 </wgt>
<wgt id='1630'> +5.1758667e-01 </wgt>
<wgt id='1631'> +5.1836605e-01 </wgt>
<wgt id='1632'> +5.1828994e-01 </wgt>
<wgt id='1633'> +5.1768051e-01 </wgt>
<wgt id='1634'> +5.1891670e-01 </wgt>
<wgt id='1635'> +5.1689689e-01 </wgt>
<wgt id='1636'> +5.1706864e-01 </wgt>
<wgt id='1637'> +5.1894759e-01 </wgt>
<wgt id='1638'> +5.1754085e-01 </wgt>
<wgt id='1639'> +5.1897884e-01 </wgt>
<wgt id='1640'> +5.1809564e-01 </wgt>
<wgt id='1641'> +5.1343620e-01 </wgt>
<wgt id='1642'> +5.1641648e-01 </wgt>
<wgt id='1643'> +5.1770697e-01 </wgt>
<wgt id='1644'> +5.1616707e-01 </wgt>
<wgt id='1645'> +5.1701503e-01 </wgt>
<wgt id='1646'> +5.1881532e-01 </wgt>
<wgt id='1647'> +5.1690106e-01 </wgt>
<wgt id='1648'> +5.1738128e-01 </wgt>
<wgt id='1649'> +5.1859547e-01 </wgt>
<wgt id='1650'> +5.1722547e-01 </wgt>
<wgt id='1651'> +5.1764825e-01 </wgt>
<wgt id='1652'> +5.1746439e-01 </wgt>
<wgt id='1653'> +5.1776336e-01 </wgt>
<wgt id='1654'> +5.1726178e-01 </wgt>
<wgt id='1655'> +5.1849887e-01 </wgt>
<wgt id='1656'> +5.1789202e-01 </wgt>
<wgt id='1657'> +5.1741460e-01 </wgt>
<wgt id='1658'> +5.1835219e-01 </wgt>
<wgt id='1659'> +5.1885181e-01 </wgt>
<wgt id='1660'> +5.1770745e-01 </wgt>
<wgt id='1661'> +5.1785262e-01 </wgt>
<wgt id='1662'> +5.1790559e-01 </wgt>
<wgt id='1663'> +5.1882128e-01 </wgt>
<wgt id='1664'> +5.1801888e-01 </wgt>
<wgt id='1665'> +5.1805780e-01 </wgt>
<wgt id='1666'> +5.1834675e-01 </wgt>
<wgt id='1667'> +5.1750015e-01 </wgt>
<wgt id='1668'> +5.1743581e-01 </wgt>
<wgt id='1669'> +5.1771714e-01 </wgt>
<wgt id='1670'> +5.1714636e-01 </wgt>
<wgt id='1671'> +5.1792917e-01 </wgt>
<wgt id='1672'> +5.1843513e-01 </wgt>
<wgt id='1673'> +5.1785025e-01 </wgt>
<wgt id='1674'> +5.1763455e-01 </wgt>
<wgt id='1675'> +5.1749909e-01 </wgt>
<wgt id='1676'> +5.1692240e-01 </wgt>
<wgt id='1677'> +5.1782318e-01 </wgt>
<wgt id='1678'> +5.1798224e-01 </wgt>
<wgt id='1679'> +5.1831006e-01 </wgt>
<wgt id='1680'> +5.1880570e-01 </wgt>
<wgt id='1681'> +5.1766658e-01 </wgt>
<wgt id='1682'> +5.1753324e-01 </wgt>
<wgt id='1683'> +5.1767552e-01 </wgt>
<wgt id='1684'> +5.1775512e-01 </wgt>
<wgt id='1685'> +5.1740960e-01 </wgt>
<wgt id='1686'> +5.1762807e-01 </wgt>
<wgt id='1687'> +5.1713537e-01 </wgt>
<wgt id='1688'> +5.1752733e-01 </wgt>
<wgt id='1689'> +5.1791564e-01 </wgt>
<wgt id='1690'> +5.1810369e-01 </wgt>
<wgt id='1691'> +5.1785281e-01 </wgt>
<wgt id='1692'> +5.1788250e-01 </wgt>
<wgt id='1693'> +5.1821356e-01 </wgt>
<wgt id='1694'> +5.1822576e-01 </wgt>
<wgt id='1695'> +5.1810771e-01 </wgt>
<wgt id='1696'> +5.1760469e-01 </wgt>
<wgt id='1697'> +5.1778265e-01 </wgt>
<wgt id='1698'> +5.1735352e-01 </wgt>
<wgt id='1699'> +5.1767341e-01 </wgt>
<wgt id='1700'> +5.1743535e-01 </wgt>
<wgt id='1701'> +5.1793002e-01 </wgt>
<wgt id='1702'> +5.1775782e-01 </wgt>
<wgt id='1703'> +5.1757117e-01 </wgt>
<wgt id='1704'> +5.1777044e-01 </wgt>
<wgt id='1705'> +5.1739637e-01 </wgt>
<wgt id='1706'> +5.1758557e-01 </wgt>
<wgt id='1707'> +5.1764549e-01 </wgt>
<wgt id='1708'> +5.1760230e-01 </wgt>
<wgt id='1709'> +5.1797683e-01 </wgt>
<wgt id='1710'> +5.1762889e-01 </wgt>
<wgt id='1711'> +5.1767968e-01 </wgt>
<wgt id='1712'> +5.1760066e-01 </wgt>
<wgt id='1713'> +5.1294703e-01 </wgt>
<wgt id='1714'> +5.2163502e-01 </wgt>
<wgt id='1715'> +5.0371351e-01 </wgt>
<wgt id='1716'> +4.9777362e-01 </wgt>
<wgt id='1717'> +5.0327985e-01 </wgt>
<wgt id='1718'> +4.9960869e-01 </wgt>
<wgt id='1719'> +4.9433624e-01 </wgt>
<wgt id='1720'> +5.1716519e-01 </wgt>
<wgt id='1721'> +4.9671072e-01 </wgt>
<wgt id='1722'> +5.0164847e-01 </wgt>
<wgt id='1723'> +5.0620511e-01 </wgt>
<wgt id='1724'> +5.0625684e-01 </wgt>
<wgt id='1725'> +5.1145435e-01 </wgt>
<wgt id='1726'> +5.0809062e-01 </wgt>
<wgt id='1727'> +5.0570808e-01 </wgt>
<wgt id='1728'> +5.0335622e-01 </wgt>
<wgt id='1729'> +5.0539604e-01 </wgt>
<wgt id='1730'> +4.9949249e-01 </wgt>
<wgt id='1731'> +4.7162879e-01 </wgt>
<wgt id='1732'> +5.1021474e-01 </wgt>
<wgt id='1733'> +5.0482746e-01 </wgt>
<wgt id='1734'> +5.0813803e-01 </wgt>
<wgt id='1735'> +4.8826005e-01 </wgt>
<wgt id='1736'> +5.0754394e-01 </wgt>
<wgt id='1737'> +5.0543613e-01 </wgt>
<wgt id='1738'> +5.0748828e-01 </wgt>
<wgt id='1739'> +5.0317592e-01 </wgt>
<wgt id='1740'> +5.0623118e-01 </wgt>
<wgt id='1741'> +4.9733568e-01 </wgt>
<wgt id='1742'> +5.1184309e-01 </wgt>
<wgt id='1743'> +4.9121663e-01 </wgt>
<wgt id='1744'> +5.0856531e-01 </wgt>
<wgt id='1745'> +4.9255778e-01 </wgt>
<wgt id='1746'> +5.0189017e-01 </wgt>
<wgt id='1747'> +5.0757120e-01 </wgt>
<wgt id='1748'> +4.9791561e-01 </wgt>
<wgt id='1749'> +5.1448071e-01 </wgt>
<wgt id='1750'> +4.9983492e-01 </wgt>
<wgt id='1751'> +5.0532364e-01 </wgt>
<wgt id='1752'> +4.9200592e-01 </wgt>
<wgt id='1753'> +5.0152212e-01 </wgt>
<wgt id='1754'> +5.0884685e-01 </wgt>
<wgt id='1755'> +5.0788008e-01 </wgt>
<wgt id='1756'> +4.9857201e-01 </wgt>
<wgt id='1757'> +4.9722996e-01 </wgt>
<wgt id='1758'> +5.0279341e-01 </wgt>
<wgt id='1759'> +5.0449829e-01 </wgt>
<wgt id='1760'> +4.9801164e-01 </wgt>
<wgt id='1761'> +5.0805509e-01 </wgt>
<wgt id='1762'> +5.0570808e-01 </wgt>
<wgt id='1763'> +5.0746146e-01 </wgt>
<wgt id='1764'> +5.1520255e-01 </wgt>
<wgt id='1765'> +5.1228101e-01 </wgt>
<wgt id='1766'> +5.1760696e-01 </wgt>
<wgt id='1767'> +4.9604899e-01 </wgt>
<wgt id='1768'> +4.9150084e-01 </wgt>
<wgt id='1769'> +5.0873375e-01 </wgt>
<wgt id='1770'> +5.1276395e-01 </wgt>
<wgt id='1771'> +4.9572213e-01 </wgt>
<wgt id='1772'> +5.0134175e-01 </wgt>
<wgt id='1773'> +5.0779635e-01 </wgt>
<wgt id='1774'> +4.9186408e-01 </wgt>
<wgt id='1775'> +5.0425101e-01 </wgt>
<wgt id='1776'> +5.0962716e-01 </wgt>
<wgt id='1777'> +5.0824908e-01 </wgt>
<wgt id='1778'> +5.0011592e-01 </wgt>
<wgt id='1779'> +4.9879776e-01 </wgt>
<wgt id='1780'> +5.1566958e-01 </wgt>
<wgt id='1781'> +5.0825306e-01 </wgt>
<wgt id='1782'> +5.0815968e-01 </wgt>
<wgt id='1783'> +4.9526284e-01 </wgt>
<wgt id='1784'> +5.0737454e-01 </wgt>
<wgt id='1785'> +5.0658510e-01 </wgt>
<wgt id='1786'> +5.1033748e-01 </wgt>
<wgt id='1787'> +5.1038175e-01 </wgt>
<wgt id='1788'> +4.9817731e-01 </wgt>
<wgt id='1789'> +5.0898378e-01 </wgt>
<wgt id='1790'> +5.1063512e-01 </wgt>
<wgt id='1791'> +4.8896542e-01 </wgt>
<wgt id='1792'> +5.0991783e-01 </wgt>
<wgt id='1793'> +5.1035872e-01 </wgt>
<wgt id='1794'> +4.9494253e-01 </wgt>
<wgt id='1795'> +4.9181116e-01 </wgt>
<wgt id='1796'> +5.0822170e-01 </wgt>
<wgt id='1797'> +5.0799592e-01 </wgt>
<wgt id='1798'> +5.0904982e-01 </wgt>
<wgt id='1799'> +5.0666008e-01 </wgt>
<wgt id='1800'> +5.0590587e-01 </wgt>
<wgt id='1801'> +4.9851710e-01 </wgt>
<wgt id='1802'> +5.0326666e-01 </wgt>
<wgt id='1803'> +5.0561894e-01 </wgt>
<wgt id='1804'> +5.1056255e-01 </wgt>
<wgt id='1805'> +5.0209899e-01 </wgt>
<wgt id='1806'> +5.0282061e-01 </wgt>
<wgt id='1807'> +4.9558375e-01 </wgt>
<wgt id='1808'> +5.0086206e-01 </wgt>
<wgt id='1809'> +5.0140225e-01 </wgt>
<wgt id='1810'> +4.9947167e-01 </wgt>
<wgt id='1811'> +5.0674507e-01 </wgt>
<wgt id='1812'> +4.9975444e-01 </wgt>
<wgt id='1813'> +5.1005360e-01 </wgt>
<wgt id='1814'> +5.0268842e-01 </wgt>
<wgt id='1815'> +5.1363819e-01 </wgt>
<wgt id='1816'> +5.3288043e-01 </wgt>
<wgt id='1817'> +5.4303275e-01 </wgt>
<wgt id='1818'> +5.2844074e-01 </wgt>
<wgt id='1819'> +5.4390626e-01 </wgt>
<wgt id='1820'> +5.3915515e-01 </wgt>
<wgt id='1821'> +5.5377969e-01 </wgt>
<wgt id='1822'> +5.4003080e-01 </wgt>
<wgt id='1823'> +5.3056662e-01 </wgt>
<wgt id='1824'> +5.2887385e-01 </wgt>
<wgt id='1825'> +5.3442029e-01 </wgt>
<wgt id='1826'> +5.2651258e-01 </wgt>
<wgt id='1827'> +5.2447072e-01 </wgt>
<wgt id='1828'> +5.4083212e-01 </wgt>
<wgt id='1829'> +5.3911348e-01 </wgt>
<wgt id='1830'> +5.2892572e-01 </wgt>
<wgt id='1831'> +5.3964766e-01 </wgt>
<wgt id='1832'> +5.2756993e-01 </wgt>
<wgt id='1833'> +5.3142121e-01 </wgt>
<wgt id='1834'> +5.2696266e-01 </wgt>
<wgt id='1835'> +5.3375378e-01 </wgt>
<wgt id='1836'> +5.3543583e-01 </wgt>
<wgt id='1837'> +5.4132292e-01 </wgt>
<wgt id='1838'> +5.2346692e-01 </wgt>
<wgt id='1839'> +5.5344185e-01 </wgt>
<wgt id='1840'> +5.3284764e-01 </wgt>
<wgt id='1841'> +5.3028708e-01 </wgt>
<wgt id='1842'> +5.4017563e-01 </wgt>
<wgt id='1843'> +5.2401653e-01 </wgt>
<wgt id='1844'> +5.3399680e-01 </wgt>
<wgt id='1845'> +5.3615051e-01 </wgt>
<wgt id='1846'> +5.3830739e-01 </wgt>
<wgt id='1847'> +5.2760757e-01 </wgt>
<wgt id='1848'> +5.3391541e-01 </wgt>
<wgt id='1849'> +5.2797024e-01 </wgt>
<wgt id='1850'> +5.3380190e-01 </wgt>
<wgt id='1851'> +5.3283221e-01 </wgt>
<wgt id='1852'> +5.2982844e-01 </wgt>
<wgt id='1853'> +5.2669554e-01 </wgt>
<wgt id='1854'> +5.3532469e-01 </wgt>
<wgt id='1855'> +5.3342431e-01 </wgt>
<wgt id='1856'> +5.2926266e-01 </wgt>
<wgt id='1857'> +5.4405678e-01 </wgt>
<wgt id='1858'> +5.3194010e-01 </wgt>
<wgt id='1859'> +5.3118467e-01 </wgt>
<wgt id='1860'> +5.3186298e-01 </wgt>
<wgt id='1861'> +5.2478386e-01 </wgt>
<wgt id='1862'> +5.3834508e-01 </wgt>
<wgt id='1863'> +5.2910517e-01 </wgt>
<wgt id='1864'> +5.2928974e-01 </wgt>
<wgt id='1865'> +5.3499815e-01 </wgt>
<wgt id='1866'> +5.3245239e-01 </wgt>
<wgt id='1867'> +5.3591422e-01 </wgt>
<wgt id='1868'> +5.3226189e-01 </wgt>
<wgt id='1869'> +5.4098925e-01 </wgt>
<wgt id='1870'> +5.3179355e-01 </wgt>
<wgt id='1871'> +5.2888302e-01 </wgt>
<wgt id='1872'> +5.2508918e-01 </wgt>
<wgt id='1873'> +5.3748873e-01 </wgt>
<wgt id='1874'> +5.3415293e-01 </wgt>
<wgt id='1875'> +5.2993510e-01 </wgt>
<wgt id='1876'> +5.3191022e-01 </wgt>
<wgt id='1877'> +5.3470691e-01 </wgt>
<wgt id='1878'> +5.3297953e-01 </wgt>
<wgt id='1879'> +5.4031197e-01 </wgt>
<wgt id='1880'> +5.1404242e-01 </wgt>
<wgt id='1881'> +5.2989406e-01 </wgt>
<wgt id='1882'> +5.2541489e-01 </wgt>
<wgt id='1883'> +5.5766835e-01 </wgt>
<wgt id='1884'> +5.2784351e-01 </wgt>
<wgt id='1885'> +5.2356959e-01 </wgt>
<wgt id='1886'> +5.1687038e-01 </wgt>
<wgt id='1887'> +5.3297636e-01 </wgt>
<wgt id='1888'> +5.4242982e-01 </wgt>
<wgt id='1889'> +5.3564330e-01 </wgt>
<wgt id='1890'> +5.4471021e-01 </wgt>
<wgt id='1891'> +5.3460216e-01 </wgt>
<wgt id='1892'> +5.3615904e-01 </wgt>
<wgt id='1893'> +5.2510271e-01 </wgt>
<wgt id='1894'> +5.3750589e-01 </wgt>
<wgt id='1895'> +5.3852812e-01 </wgt>
<wgt id='1896'> +5.2549340e-01 </wgt>
<wgt id='1897'> +5.3014602e-01 </wgt>
<wgt id='1898'> +5.3328685e-01 </wgt>
<wgt id='1899'> +5.3020062e-01 </wgt>
<wgt id='1900'> +5.2900394e-01 </wgt>
<wgt id='1901'> +5.3121561e-01 </wgt>
<wgt id='1902'> +5.2503406e-01 </wgt>
<wgt id='1903'> +5.3206106e-01 </wgt>
<wgt id='1904'> +5.3841129e-01 </wgt>
<wgt id='1905'> +5.3279702e-01 </wgt>
<wgt id='1906'> +5.2705584e-01 </wgt>
<wgt id='1907'> +5.3152054e-01 </wgt>
<wgt id='1908'> +5.3025279e-01 </wgt>
<wgt id='1909'> +5.2946975e-01 </wgt>
<wgt id='1910'> +5.3491846e-01 </wgt>
<wgt id='1911'> +5.1882368e-01 </wgt>
<wgt id='1912'> +5.2986630e-01 </wgt>
<wgt id='1913'> +5.2988181e-01 </wgt>
<wgt id='1914'> +5.3793249e-01 </wgt>
<wgt id='1915'> +5.3597675e-01 </wgt>
<wgt id='1916'> +5.2333994e-01 </wgt>
<wgt id='1917'> +5.3537275e-01 </wgt>
<wgt id='1918'> +5.3537907e-01 </wgt>
<wgt id='1919'> +5.3288043e-01 </wgt>
<wgt id='1920'> +5.4303275e-01 </wgt>
<wgt id='1921'> +5.2844074e-01 </wgt>
<wgt id='1922'> +5.4390626e-01 </wgt>
<wgt id='1923'> +5.3915515e-01 </wgt>
<wgt id='1924'> +5.5377969e-01 </wgt>
<wgt id='1925'> +5.4003080e-01 </wgt>
<wgt id='1926'> +5.3056662e-01 </wgt>
<wgt id='1927'> +5.2887385e-01 </wgt>
<wgt id='1928'> +5.3442029e-01 </wgt>
<wgt id='1929'> +5.2651258e-01 </wgt>
<wgt id='1930'> +5.2447072e-01 </wgt>
<wgt id='1931'> +5.4083212e-01 </wgt>
<wgt id='1932'> +5.3911348e-01 </wgt>
<wgt id='1933'> +5.2892572e-01 </wgt>
<wgt id='1934'> +5.3964766e-01 </wgt>
<wgt id='1935'> +5.2756993e-01 </wgt>
<wgt id='1936'> +5.3142121e-01 </wgt>
<wgt id='1937'> +5.2696266e-01 </wgt>
<wgt id='1938'> +5.3375378e-01 </wgt>
<wgt id='1939'> +5.3543583e-01 </wgt>
<wgt id='1940'> +5.4132292e-01 </wgt>
<wgt id='1941'> +5.2346692e-01 </wgt>
<wgt id='1942'> +5.5344185e-01 </wgt>
<wgt id='1943'> +5.3284764e-01 </wgt>
<wgt id='1944'> +5.3028708e-01 </wgt>
<wgt id='1945'> +5.4017563e-01 </wgt>
<wgt id='1946'> +5.2401653e-01 </wgt>
<wgt id='1947'> +5.3399680e-01 </wgt>
<wgt id='1948'> +5.3615051e-01 </wgt>
<wgt id='1949'> +5.3830739e-01 </wgt>
<wgt id='1950'> +5.2760757e-01 </wgt>
<wgt id='1951'> +5.3391541e-01 </wgt>
<wgt id='1952'> +5.2797024e-01 </wgt>
<wgt id='1953'> +5.3380190e-01 </wgt>
<wgt id='1954'> +5.3283221e-01 </wgt>
<wgt id='1955'> +5.2982844e-01 </wgt>
<wgt id='1956'> +5.2669554e-01 </wgt>
<wgt id='1957'> +5.3532469e-01 </wgt>
<wgt id='1958'> +5.3342431e-01 </wgt>
<wgt id='1959'> +5.2926266e-01 </wgt>
<wgt id='1960'> +5.4405678e-01 </wgt>
<wgt id='1961'> +5.3194010e-01 </wgt>
<wgt id='1962'> +5.3118467e-01 </wgt>
<wgt id='1963'> +5.3186298e-01 </wgt>
<wgt id='1964'> +5.2478386e-01 </wgt>
<wgt id='1965'> +5.3834508e-01 </wgt>
<wgt id='1966'> +5.2910517e-01 </wgt>
<wgt id='1967'> +5.2928974e-01 </wgt>
<wgt id='1968'> +5.3499815e-01 </wgt>
<wgt id='1969'> +5.3245239e-01 </wgt>
<wgt id='1970'> +5.3591422e-01 </wgt>
<wgt id='1971'> +5.3226189e-01 </wgt>
<wgt id='1972'> +5.4098925e-01 </wgt>
<wgt id='1973'> +5.3179355e-01 </wgt>
<wgt id='1974'> +5.2888302e-01 </wgt>
<wgt id='1975'> +5.2508918e-01 </wgt>
<wgt id='1976'> +5.3748873e-01 </wgt>
<wgt id='1977'> +5.3415293e-01 </wgt>
<wgt id='1978'> +5.2993510e-01 </wgt>
<wgt id='1979'> +5.3191022e-01 </wgt>
<wgt id='1980'> +5.3470691e-01 </wgt>
<wgt id='1981'> +5.3297953e-01 </wgt>
<wgt id='1982'> +5.4031197e-01 </wgt>
<wgt id='1983'> +5.1404242e-01 </wgt>
<wgt id='1984'> +5.2989406e-01 </wgt>
<wgt id='1985'> +5.2541489e-01 </wgt>
<wgt id='1986'> +5.5766835e-01 </wgt>
<wgt id='1987'> +5.2784351e-01 </wgt>
<wgt id='1988'> +5.2356959e-01 </wgt>
<wgt id='1989'> +5.1687038e-01 </wgt>
<wgt id='1990'> +5.3297636e-01 </wgt>
<wgt id='1991'> +5.4242982e-01 </wgt>
<wgt id='1992'> +5.3564330e-01 </wgt>
<wgt id='1993'> +5.4471021e-01 </wgt>
<wgt id='1994'> +5.3460216e-01 </wgt>
<wgt id='1995'> +5.3615904e-01 </wgt>
<wgt id='1996'> +5.2510271e-01 </wgt>
<wgt id='1997'> +5.3750589e-01 </wgt>
<wgt id='1998'> +5.3852812e-01 </wgt>
<wgt id='1999'> +5.2549340e-01 </wgt>
<wgt id='2000'> +5.3014602e-01 </wgt>
<wgt id='2001'> +5.3328685e-01 </wgt>
<wgt id='2002'> +5.3020062e-01 </wgt>
<wgt id='2003'> +5.2900394e-01 </wgt>
<wgt id='2004'> +5.3121561e-01 </wgt>
<wgt id='2005'> +5.2503406e-01 </wgt>
<wgt id='2006'> +5.3206106e-01 </wgt>
<wgt id='2007'> +5.3841129e-01 </wgt>
<wgt id='2008'> +5.3279702e-01 </wgt>
<wgt id='2009'> +5.2705584e-01 </wgt>
<wgt id='2010'> +5.3152054e-01 </wgt>
<wgt id='2011'> +5.3025279e-01 </wgt>
<wgt id='2012'> +5.2946975e-01 </wgt>
<wgt id='2013'> +5.3491846e-01 </wgt>
<wgt id='2014'> +5.1882368e-01 </wgt>
<wgt id='2015'> +5.2986630e-01 </wgt>
<wgt id='2016'> +5.2988181e-01 </wgt>
<wgt id='2017'> +5.3793249e-01 </wgt>
<wgt id='2018'> +5.3597675e-01 </wgt>
<wgt id='2019'> +5.2333994e-01 </wgt>
<wgt id='2020'> +5.3286345e-01 </wgt>
<wgt id='2021'> +5.3308802e-01 </wgt>
<wgt id='2022'> +5.3186495e-01 </wgt>
</rwgt>
</event>
<event>
 13 2 0.0079112 1.37142400e+02 7.81860800e-03 1.16519900e-01
        1 -1    0    0  501    0 +0.0000000000e+00 +0.0000000000e+00 +4.8301935856e+02 4.8301935858e+02 5.0400000000e-03 0.0000e+00 -1.0000e+00
       21 -1    0    0  502  503 +0.0000000000e+00 +0.0000000000e+00 -4.0244316102e+02 4.0244316102e+02 0.0000000000e+00 0.0000e+00 1.0000e+00
 -8000001  2    1    2    0  503 +2.5321593904e+01 +1.7154748430e+01 -1.2752451882e+01 6.0091686387e+02 6.0000248645e+02 0.0000e+00 0.0000e+00
        2  1    1    2  501    0 -3.8579203193e+01 +1.0786382488e+01 +1.8416703160e+02 1.8847333101e+02 2.5500000000e-03 0.0000e+00 -1.0000e+00
        5  1    1    2  502    0 +1.3257609289e+01 -2.7941130918e+01 -9.0838382177e+01 9.6072324725e+01 4.6700000000e+00 0.0000e+00 -1.0000e+00
       -6  2    3    3    0  503 +3.9401033947e+01 -1.2184494992e+02 -2.3803049325e+02 3.2033608068e+02 1.7192456362e+02 0.0000e+00 0.0000e+00
       -5  1    6    6    0  503 +9.5369293336e+00 -1.1308596955e+02 -7.7435074878e+01 1.3746777532e+02 4.6700000000e+00 0.0000e+00 1.0000e+00
      -24  2    6    6    0    0 +2.9864104613e+01 -8.7589803736e+00 -1.6059541837e+02 1.8286830536e+02 8.1739489983e+01 0.0000e+00 0.0000e+00
        1  1    8    8  504    0 +1.3250168784e+01 -5.0817388601e+00 +5.9990138332e+00 1.5407116376e+01 5.0400000000e-03 0.0000e+00 -1.0000e+00
       -2  1    8    8    0  504 +1.6613935829e+01 -3.6772415135e+00 -1.6659443220e+02 1.6746118898e+02 2.5500000000e-03 0.0000e+00 1.0000e+00
       23  2    3    3    0    0 -1.4079440042e+01 +1.3899969835e+02 +2.2527804136e+02 2.8058078319e+02 9.1957779432e+01 0.0000e+00 0.0000e+00
        2  1   11   11  505    0 +1.4655489065e+01 +2.4709066723e+01 +2.8592936856e+00 2.8870346464e+01 2.5500000000e-03 0.0000e+00 -1.0000e+00
       -2  1   11   11    0  505 -2.8734929108e+01 +1.1429063163e+02 +2.2241874768e+02 2.5171043672e+02 2.5500000000e-03 0.0000e+00 1.0000e+00
<mgrwt>
<rscale>  1 0.73989210e+02</rscale>
<asrwt>0</asrwt>
<pdfrwt beam="1">  1       21 0.61914333e-01 0.13714242e+03</pdfrwt>
<pdfrwt beam="2">  1        1 0.74310670e-01 0.39917651e+02</pdfrwt>
<totfact> 0.15439886e+03</totfact>
</mgrwt>
<rwgt>
<wgt id='1001'> +5.2878984e-01 </wgt>
<wgt id='1002'> +3.7422773e-01 </wgt>
<wgt id='1003'> +3.7415144e-01 </wgt>
<wgt id='1004'> +4.3660296e-01 </wgt>
<wgt id='1005'> +3.1173533e-01 </wgt>
<wgt id='1006'> +4.7494653e-01 </wgt>
<wgt id='1007'> +3.4363995e-01 </wgt>
<wgt id='1008'> +3.4357347e-01 </wgt>
<wgt id='1009'> +3.9757070e-01 </wgt>
<wgt id='1010'> +2.8877020e-01 </wgt>
<wgt id='1011'> +5.9695823e-01 </wgt>
<wgt id='1012'> +4.1097348e-01 </wgt>
<wgt id='1013'> +4.1088447e-01 </wgt>
<wgt id='1014'> +4.8441474e-01 </wgt>
<wgt id='1015'> +3.3877179e-01 </wgt>
<wgt id='1016'> +4.9717484e-01 </wgt>
<wgt id='1017'> +3.5297420e-01 </wgt>
<wgt id='1018'> +3.5290355e-01 </wgt>
<wgt id='1019'> +4.1088447e-01 </wgt>
<wgt id='1020'> +2.9489638e-01 </wgt>
<wgt id='1021'> +4.4655068e-01 </wgt>
<wgt id='1022'> +3.2412359e-01 </wgt>
<wgt id='1023'> +3.2406209e-01 </wgt>
<wgt id='1024'> +3.7415144e-01 </wgt>
<wgt id='1025'> +2.7317175e-01 </wgt>
<wgt id='1026'> +5.6126761e-01 </wgt>
<wgt id='1027'> +3.8763305e-01 </wgt>
<wgt id='1028'> +3.8755053e-01 </wgt>
<wgt id='1029'> +4.5587985e-01 </wgt>
<wgt id='1030'> +3.2047241e-01 </wgt>
<wgt id='1031'> +5.6306341e-01 </wgt>
<wgt id='1032'> +3.9765295e-01 </wgt>
<wgt id='1033'> +3.9757070e-01 </wgt>
<wgt id='1034'> +4.6486811e-01 </wgt>
<wgt id='1035'> +3.3029406e-01 </wgt>
<wgt id='1036'> +5.0573023e-01 </wgt>
<wgt id='1037'> +3.6515049e-01 </wgt>
<wgt id='1038'> +3.6507877e-01 </wgt>
<wgt id='1039'> +4.2330894e-01 </wgt>
<wgt id='1040'> +3.0596174e-01 </wgt>
<wgt id='1041'> +6.3565014e-01 </wgt>
<wgt id='1042'> +4.3669884e-01 </wgt>
<wgt id='1043'> +4.3660296e-01 </wgt>
<wgt id='1044'> +5.1577516e-01 </wgt>
<wgt id='1045'> +3.5894010e-01 </wgt>
<wgt id='1046'> +5.2878984e-01 </wgt>
<wgt id='1047'> +5.2878984e-01 </wgt>
<wgt id='1048'> +5.2878984e-01 </wgt>
<wgt id='1049'> +5.2853671e-01 </wgt>
<wgt id='1050'> +5.2797710e-01 </wgt>
<wgt id='1051'> +5.2941349e-01 </wgt>
<wgt id='1052'> +5.2848621e-01 </wgt>
<wgt id='1053'> +5.3045014e-01 </wgt>
<wgt id='1054'> +5.2815164e-01 </wgt>
<wgt id='1055'> +5.2680721e-01 </wgt>
<wgt id='1056'> +5.2728701e-01 </wgt>
<wgt id='1057'> +5.2831705e-01 </wgt>
<wgt id='1058'> +5.2848566e-01 </wgt>
<wgt id='1059'> +5.2950270e-01 </wgt>
<wgt id='1060'> +5.2832867e-01 </wgt>
<wgt id='1061'> +5.2987751e-01 </wgt>
<wgt id='1062'> +5.3098995e-01 </wgt>
<wgt id='1063'> +5.3198296e-01 </wgt>
<wgt id='1064'> +5.2898413e-01 </wgt>
<wgt id='1065'> +5.3086064e-01 </wgt>
<wgt id='1066'> +5.2634800e-01 </wgt>
<wgt id='1067'> +5.2907183e-01 </wgt>
<wgt id='1068'> +5.2982033e-01 </wgt>
<wgt id='1069'> +5.2682773e-01 </wgt>
<wgt id='1070'> +5.2968915e-01 </wgt>
<wgt id='1071'> +5.2856617e-01 </wgt>
<wgt id='1072'> +5.2963384e-01 </wgt>
<wgt id='1073'> +5.2668226e-01 </wgt>
<wgt id='1074'> +5.2865235e-01 </wgt>
<wgt id='1075'> +5.3006738e-01 </wgt>
<wgt id='1076'> +5.2968149e-01 </wgt>
<wgt id='1077'> +5.3024458e-01 </wgt>
<wgt id='1078'> +5.2784702e-01 </wgt>
<wgt id='1079'> +5.3249699e-01 </wgt>
<wgt id='1080'> +5.2900847e-01 </wgt>
<wgt id='1081'> +5.3089754e-01 </wgt>
<wgt id='1082'> +5.2981399e-01 </wgt>
<wgt id='1083'> +5.2762994e-01 </wgt>
<wgt id='1084'> +5.2741123e-01 </wgt>
<wgt id='1085'> +5.2843495e-01 </wgt>
<wgt id='1086'> +5.2749090e-01 </wgt>
<wgt id='1087'> +5.2916704e-01 </wgt>
<wgt id='1088'> +5.2825741e-01 </wgt>
<wgt id='1089'> +5.2971716e-01 </wgt>
<wgt id='1090'> +5.2987684e-01 </wgt>
<wgt id='1091'> +5.2856023e-01 </wgt>
<wgt id='1092'> +5.2714423e-01 </wgt>
<wgt id='1093'> +5.2784577e-01 </wgt>
<wgt id='1094'> +5.2967061e-01 </wgt>
<wgt id='1095'> +5.2697587e-01 </wgt>
<wgt id='1096'> +5.2779545e-01 </wgt>
<wgt id='1097'> +5.2866972e-01 </wgt>
<wgt id='1098'> +5.2819228e-01 </wgt>
<wgt id='1099'> +5.2811917e-01 </wgt>
<wgt id='1100'> +5.2966428e-01 </wgt>
<wgt id='1101'> +5.3024023e-01 </wgt>
<wgt id='1102'> +5.3029556e-01 </wgt>
<wgt id='1103'> +5.2953635e-01 </wgt>
<wgt id='1104'> +5.2820107e-01 </wgt>
<wgt id='1105'> +5.2961943e-01 </wgt>
<wgt id='1106'> +5.2922291e-01 </wgt>
<wgt id='1107'> +5.2939246e-01 </wgt>
<wgt id='1108'> +5.2948257e-01 </wgt>
<wgt id='1109'> +5.2975201e-01 </wgt>
<wgt id='1110'> +5.2939335e-01 </wgt>
<wgt id='1111'> +5.2801851e-01 </wgt>
<wgt id='1112'> +5.2814521e-01 </wgt>
<wgt id='1113'> +5.3032966e-01 </wgt>
<wgt id='1114'> +5.2909595e-01 </wgt>
<wgt id='1115'> +5.2921644e-01 </wgt>
<wgt id='1116'> +5.2863643e-01 </wgt>
<wgt id='1117'> +5.2885349e-01 </wgt>
<wgt id='1118'> +5.3001012e-01 </wgt>
<wgt id='1119'> +5.2901126e-01 </wgt>
<wgt id='1120'> +5.2865160e-01 </wgt>
<wgt id='1121'> +5.2842455e-01 </wgt>
<wgt id='1122'> +5.2834305e-01 </wgt>
<wgt id='1123'> +5.2866588e-01 </wgt>
<wgt id='1124'> +5.2893325e-01 </wgt>
<wgt id='1125'> +5.2889945e-01 </wgt>
<wgt id='1126'> +5.2840850e-01 </wgt>
<wgt id='1127'> +5.2857446e-01 </wgt>
<wgt id='1128'> +5.2853298e-01 </wgt>
<wgt id='1129'> +5.2894165e-01 </wgt>
<wgt id='1130'> +5.2904897e-01 </wgt>
<wgt id='1131'> +5.2903993e-01 </wgt>
<wgt id='1132'> +5.2881867e-01 </wgt>
<wgt id='1133'> +5.2832168e-01 </wgt>
<wgt id='1134'> +5.2869135e-01 </wgt>
<wgt id='1135'> +5.2881558e-01 </wgt>
<wgt id='1136'> +5.2911777e-01 </wgt>
<wgt id='1137'> +5.2915249e-01 </wgt>
<wgt id='1138'> +5.2927030e-01 </wgt>
<wgt id='1139'> +5.2865790e-01 </wgt>
<wgt id='1140'> +5.2867229e-01 </wgt>
<wgt id='1141'> +5.2843918e-01 </wgt>
<wgt id='1142'> +5.2910227e-01 </wgt>
<wgt id='1143'> +5.2870625e-01 </wgt>
<wgt id='1144'> +5.2843803e-01 </wgt>
<wgt id='1145'> +5.2876774e-01 </wgt>
<wgt id='1146'> +5.2910564e-01 </wgt>
<wgt id='1147'> +5.2890676e-01 </wgt>
<wgt id='1148'> +5.2878984e-01 </wgt>
<wgt id='1149'> +5.2428142e-01 </wgt>
<wgt id='1150'> +5.4294071e-01 </wgt>
<wgt id='1151'> +5.2637976e-01 </wgt>
<wgt id='1152'> +5.1336240e-01 </wgt>
<wgt id='1153'> +5.2180155e-01 </wgt>
<wgt id='1154'> +5.3185282e-01 </wgt>
<wgt id='1155'> +5.3751749e-01 </wgt>
<wgt id='1156'> +5.3561776e-01 </wgt>
<wgt id='1157'> +5.2316603e-01 </wgt>
<wgt id='1158'> +5.2911794e-01 </wgt>
<wgt id='1159'> +5.0370738e-01 </wgt>
<wgt id='1160'> +5.1354365e-01 </wgt>
<wgt id='1161'> +5.2977728e-01 </wgt>
<wgt id='1162'> +5.1306207e-01 </wgt>
<wgt id='1163'> +5.2392217e-01 </wgt>
<wgt id='1164'> +5.2086997e-01 </wgt>
<wgt id='1165'> +5.1998909e-01 </wgt>
<wgt id='1166'> +5.3340686e-01 </wgt>
<wgt id='1167'> +5.3307806e-01 </wgt>
<wgt id='1168'> +5.2006801e-01 </wgt>
<wgt id='1169'> +5.1444129e-01 </wgt>
<wgt id='1170'> +5.3061912e-01 </wgt>
<wgt id='1171'> +5.2319379e-01 </wgt>
<wgt id='1172'> +5.3000440e-01 </wgt>
<wgt id='1173'> +5.2137209e-01 </wgt>
<wgt id='1174'> +5.2928747e-01 </wgt>
<wgt id='1175'> +5.1900013e-01 </wgt>
<wgt id='1176'> +5.0748190e-01 </wgt>
<wgt id='1177'> +5.3732024e-01 </wgt>
<wgt id='1178'> +5.2160793e-01 </wgt>
<wgt id='1179'> +5.3520633e-01 </wgt>
<wgt id='1180'> +5.3066193e-01 </wgt>
<wgt id='1181'> +5.3128245e-01 </wgt>
<wgt id='1182'> +5.3260151e-01 </wgt>
<wgt id='1183'> +5.2310188e-01 </wgt>
<wgt id='1184'> +5.1430962e-01 </wgt>
<wgt id='1185'> +5.2851651e-01 </wgt>
<wgt id='1186'> +5.2188011e-01 </wgt>
<wgt id='1187'> +5.1708280e-01 </wgt>
<wgt id='1188'> +5.2294428e-01 </wgt>
<wgt id='1189'> +5.1176103e-01 </wgt>
<wgt id='1190'> +5.2740546e-01 </wgt>
<wgt id='1191'> +5.3530333e-01 </wgt>
<wgt id='1192'> +5.2951778e-01 </wgt>
<wgt id='1193'> +5.3207883e-01 </wgt>
<wgt id='1194'> +5.2975458e-01 </wgt>
<wgt id='1195'> +5.1402390e-01 </wgt>
<wgt id='1196'> +5.2327540e-01 </wgt>
<wgt id='1197'> +5.2683883e-01 </wgt>
<wgt id='1198'> +5.2915916e-01 </wgt>
<wgt id='1199'> +5.1995547e-01 </wgt>
<wgt id='1200'> +5.2960725e-01 </wgt>
<wgt id='1201'> +5.3184493e-01 </wgt>
<wgt id='1202'> +5.2085832e-01 </wgt>
<wgt id='1203'> +5.3167738e-01 </wgt>
<wgt id='1204'> +5.2206018e-01 </wgt>
<wgt id='1205'> +5.3208769e-01 </wgt>
<wgt id='1206'> +5.3329072e-01 </wgt>
<wgt id='1207'> +5.3853088e-01 </wgt>
<wgt id='1208'> +5.2565998e-01 </wgt>
<wgt id='1209'> +5.3488183e-01 </wgt>
<wgt id='1210'> +5.1542832e-01 </wgt>
<wgt id='1211'> +5.2400759e-01 </wgt>
<wgt id='1212'> +5.1038921e-01 </wgt>
<wgt id='1213'> +5.1784457e-01 </wgt>
<wgt id='1214'> +5.2682452e-01 </wgt>
<wgt id='1215'> +5.3727331e-01 </wgt>
<wgt id='1216'> +5.1861432e-01 </wgt>
<wgt id='1217'> +5.2320318e-01 </wgt>
<wgt id='1218'> +5.2205935e-01 </wgt>
<wgt id='1219'> +5.2395163e-01 </wgt>
<wgt id='1220'> +5.3061417e-01 </wgt>
<wgt id='1221'> +5.1632472e-01 </wgt>
<wgt id='1222'> +5.1664999e-01 </wgt>
<wgt id='1223'> +5.0147674e-01 </wgt>
<wgt id='1224'> +5.2134580e-01 </wgt>
<wgt id='1225'> +5.2386728e-01 </wgt>
<wgt id='1226'> +5.1146026e-01 </wgt>
<wgt id='1227'> +5.3392341e-01 </wgt>
<wgt id='1228'> +5.1783386e-01 </wgt>
<wgt id='1229'> +5.1805559e-01 </wgt>
<wgt id='1230'> +5.2656038e-01 </wgt>
<wgt id='1231'> +5.1998909e-01 </wgt>
<wgt id='1232'> +4.9701986e-01 </wgt>
<wgt id='1233'> +5.2218726e-01 </wgt>
<wgt id='1234'> +5.1397241e-01 </wgt>
<wgt id='1235'> +5.5201128e-01 </wgt>
<wgt id='1236'> +5.2343109e-01 </wgt>
<wgt id='1237'> +5.2644236e-01 </wgt>
<wgt id='1238'> +4.7861587e-01 </wgt>
<wgt id='1239'> +5.3354195e-01 </wgt>
<wgt id='1240'> +5.3933659e-01 </wgt>
<wgt id='1241'> +5.2203241e-01 </wgt>
<wgt id='1242'> +5.2488067e-01 </wgt>
<wgt id='1243'> +5.3360261e-01 </wgt>
<wgt id='1244'> +5.3590552e-01 </wgt>
<wgt id='1245'> +5.3276876e-01 </wgt>
<wgt id='1246'> +5.2236847e-01 </wgt>
<wgt id='1247'> +5.2202377e-01 </wgt>
<wgt id='1248'> +5.1085140e-01 </wgt>
<wgt id='1249'> +5.3267592e-01 </wgt>
<wgt id='1250'> +5.0703963e-01 </wgt>
<wgt id='1251'> +5.0283779e-01 </wgt>
<wgt id='1252'> +5.2616401e-01 </wgt>
<wgt id='1253'> +5.1955728e-01 </wgt>
<wgt id='1254'> +4.5953257e-01 </wgt>
<wgt id='1255'> +5.1066792e-01 </wgt>
<wgt id='1256'> +5.0989742e-01 </wgt>
<wgt id='1257'> +5.1114202e-01 </wgt>
<wgt id='1258'> +5.1250320e-01 </wgt>
<wgt id='1259'> +5.0976057e-01 </wgt>
<wgt id='1260'> +5.1118786e-01 </wgt>
<wgt id='1261'> +5.0999919e-01 </wgt>
<wgt id='1262'> +5.1111933e-01 </wgt>
<wgt id='1263'> +5.1038440e-01 </wgt>
<wgt id='1264'> +5.1344257e-01 </wgt>
<wgt id='1265'> +5.0874766e-01 </wgt>
<wgt id='1266'> +5.1111661e-01 </wgt>
<wgt id='1267'> +5.1022228e-01 </wgt>
<wgt id='1268'> +5.1374885e-01 </wgt>
<wgt id='1269'> +5.0760335e-01 </wgt>
<wgt id='1270'> +5.0647638e-01 </wgt>
<wgt id='1271'> +5.1499343e-01 </wgt>
<wgt id='1272'> +5.1425029e-01 </wgt>
<wgt id='1273'> +5.0753457e-01 </wgt>
<wgt id='1274'> +5.1057001e-01 </wgt>
<wgt id='1275'> +5.1056171e-01 </wgt>
<wgt id='1276'> +5.1168276e-01 </wgt>
<wgt id='1277'> +5.0916572e-01 </wgt>
<wgt id='1278'> +5.0472859e-01 </wgt>
<wgt id='1279'> +5.1516706e-01 </wgt>
<wgt id='1280'> +5.1107248e-01 </wgt>
<wgt id='1281'> +5.0816810e-01 </wgt>
<wgt id='1282'> +5.1116575e-01 </wgt>
<wgt id='1283'> +5.0828775e-01 </wgt>
<wgt id='1284'> +5.0676264e-01 </wgt>
<wgt id='1285'> +5.1209393e-01 </wgt>
<wgt id='1286'> +5.1136890e-01 </wgt>
<wgt id='1287'> +5.1056783e-01 </wgt>
<wgt id='1288'> +5.1101136e-01 </wgt>
<wgt id='1289'> +5.1054373e-01 </wgt>
<wgt id='1290'> +5.1201002e-01 </wgt>
<wgt id='1291'> +5.1020248e-01 </wgt>
<wgt id='1292'> +5.1373605e-01 </wgt>
<wgt id='1293'> +5.0662491e-01 </wgt>
<wgt id='1294'> +5.0740927e-01 </wgt>
<wgt id='1295'> +5.1108130e-01 </wgt>
<wgt id='1296'> +5.2909933e-01 </wgt>
<wgt id='1297'> +5.3046095e-01 </wgt>
<wgt id='1298'> +5.2798045e-01 </wgt>
<wgt id='1299'> +5.3065122e-01 </wgt>
<wgt id='1300'> +5.2736176e-01 </wgt>
<wgt id='1301'> +5.2844806e-01 </wgt>
<wgt id='1302'> +5.3003825e-01 </wgt>
<wgt id='1303'> +5.3182967e-01 </wgt>
<wgt id='1304'> +5.2724570e-01 </wgt>
<wgt id='1305'> +5.2940460e-01 </wgt>
<wgt id='1306'> +5.2867130e-01 </wgt>
<wgt id='1307'> +5.3058075e-01 </wgt>
<wgt id='1308'> +5.2820155e-01 </wgt>
<wgt id='1309'> +5.2755684e-01 </wgt>
<wgt id='1310'> +5.3113009e-01 </wgt>
<wgt id='1311'> +5.3057479e-01 </wgt>
<wgt id='1312'> +5.2858391e-01 </wgt>
<wgt id='1313'> +5.2689843e-01 </wgt>
<wgt id='1314'> +5.3165523e-01 </wgt>
<wgt id='1315'> +5.2618570e-01 </wgt>
<wgt id='1316'> +5.3143765e-01 </wgt>
<wgt id='1317'> +5.2864897e-01 </wgt>
<wgt id='1318'> +5.2989501e-01 </wgt>
<wgt id='1319'> +5.2868654e-01 </wgt>
<wgt id='1320'> +5.2897858e-01 </wgt>
<wgt id='1321'> +5.2466709e-01 </wgt>
<wgt id='1322'> +5.3112393e-01 </wgt>
<wgt id='1323'> +5.2683501e-01 </wgt>
<wgt id='1324'> +5.2574742e-01 </wgt>
<wgt id='1325'> +5.2870067e-01 </wgt>
<wgt id='1326'> +5.2819850e-01 </wgt>
<wgt id='1327'> +5.2775648e-01 </wgt>
<wgt id='1328'> +5.2965234e-01 </wgt>
<wgt id='1329'> +5.2827515e-01 </wgt>
<wgt id='1330'> +5.2965543e-01 </wgt>
<wgt id='1331'> +5.2969270e-01 </wgt>
<wgt id='1332'> +5.2832372e-01 </wgt>
<wgt id='1333'> +5.3449890e-01 </wgt>
<wgt id='1334'> +5.2435456e-01 </wgt>
<wgt id='1335'> +5.3149913e-01 </wgt>
<wgt id='1336'> +5.2823909e-01 </wgt>
<wgt id='1337'> +5.2909933e-01 </wgt>
<wgt id='1338'> +5.2892057e-01 </wgt>
<wgt id='1339'> +5.2901169e-01 </wgt>
<wgt id='1340'> +5.2904009e-01 </wgt>
<wgt id='1341'> +5.2909943e-01 </wgt>
<wgt id='1342'> +5.2913495e-01 </wgt>
<wgt id='1343'> +5.2909716e-01 </wgt>
<wgt id='1344'> +5.3238926e-01 </wgt>
<wgt id='1345'> +5.3391417e-01 </wgt>
<wgt id='1346'> +5.3086443e-01 </wgt>
<wgt id='1347'> +5.3114721e-01 </wgt>
<wgt id='1348'> +5.3327374e-01 </wgt>
<wgt id='1349'> +5.3425281e-01 </wgt>
<wgt id='1350'> +5.3079162e-01 </wgt>
<wgt id='1351'> +5.3234971e-01 </wgt>
<wgt id='1352'> +5.3242786e-01 </wgt>
<wgt id='1353'> +5.3416421e-01 </wgt>
<wgt id='1354'> +5.3110393e-01 </wgt>
<wgt id='1355'> +5.3402277e-01 </wgt>
<wgt id='1356'> +5.3106502e-01 </wgt>
<wgt id='1357'> +5.3376420e-01 </wgt>
<wgt id='1358'> +5.3156374e-01 </wgt>
<wgt id='1359'> +5.3163846e-01 </wgt>
<wgt id='1360'> +5.3433709e-01 </wgt>
<wgt id='1361'> +5.2917303e-01 </wgt>
<wgt id='1362'> +5.3546923e-01 </wgt>
<wgt id='1363'> +5.3402212e-01 </wgt>
<wgt id='1364'> +5.2990127e-01 </wgt>
<wgt id='1365'> +5.3193054e-01 </wgt>
<wgt id='1366'> +5.3233646e-01 </wgt>
<wgt id='1367'> +5.2833755e-01 </wgt>
<wgt id='1368'> +5.3415890e-01 </wgt>
<wgt id='1369'> +5.3113744e-01 </wgt>
<wgt id='1370'> +5.3281040e-01 </wgt>
<wgt id='1371'> +5.2946993e-01 </wgt>
<wgt id='1372'> +5.3296166e-01 </wgt>
<wgt id='1373'> +5.3551280e-01 </wgt>
<wgt id='1374'> +5.3164366e-01 </wgt>
<wgt id='1375'> +5.3173904e-01 </wgt>
<wgt id='1376'> +5.3250082e-01 </wgt>
<wgt id='1377'> +5.3266264e-01 </wgt>
<wgt id='1378'> +5.3224173e-01 </wgt>
<wgt id='1379'> +5.3151957e-01 </wgt>
<wgt id='1380'> +5.3260321e-01 </wgt>
<wgt id='1381'> +5.2843645e-01 </wgt>
<wgt id='1382'> +5.3456480e-01 </wgt>
<wgt id='1383'> +5.3159478e-01 </wgt>
<wgt id='1384'> +5.3466917e-01 </wgt>
<wgt id='1385'> +5.3238926e-01 </wgt>
<wgt id='1386'> +5.3219103e-01 </wgt>
<wgt id='1387'> +5.3229621e-01 </wgt>
<wgt id='1388'> +5.3234243e-01 </wgt>
<wgt id='1389'> +5.3233946e-01 </wgt>
<wgt id='1390'> +5.3230333e-01 </wgt>
<wgt id='1391'> +5.3223097e-01 </wgt>
<wgt id='1392'> +5.3519925e-01 </wgt>
<wgt id='1393'> +5.3440523e-01 </wgt>
<wgt id='1394'> +5.3607066e-01 </wgt>
<wgt id='1395'> +5.3578373e-01 </wgt>
<wgt id='1396'> +5.3478818e-01 </wgt>
<wgt id='1397'> +5.3603281e-01 </wgt>
<wgt id='1398'> +5.3440536e-01 </wgt>
<wgt id='1399'> +5.3396357e-01 </wgt>
<wgt id='1400'> +5.3672010e-01 </wgt>
<wgt id='1401'> +5.3430203e-01 </wgt>
<wgt id='1402'> +5.3635172e-01 </wgt>
<wgt id='1403'> +5.3448161e-01 </wgt>
<wgt id='1404'> +5.3662640e-01 </wgt>
<wgt id='1405'> +5.3668224e-01 </wgt>
<wgt id='1406'> +5.3314913e-01 </wgt>
<wgt id='1407'> +5.3355997e-01 </wgt>
<wgt id='1408'> +5.3634984e-01 </wgt>
<wgt id='1409'> +5.3512803e-01 </wgt>
<wgt id='1410'> +5.3528969e-01 </wgt>
<wgt id='1411'> +5.3199560e-01 </wgt>
<wgt id='1412'> +5.3766939e-01 </wgt>
<wgt id='1413'> +5.3927840e-01 </wgt>
<wgt id='1414'> +5.3080771e-01 </wgt>
<wgt id='1415'> +5.3726801e-01 </wgt>
<wgt id='1416'> +5.3314981e-01 </wgt>
<wgt id='1417'> +5.3282030e-01 </wgt>
<wgt id='1418'> +5.3814819e-01 </wgt>
<wgt id='1419'> +5.3179081e-01 </wgt>
<wgt id='1420'> +5.3715849e-01 </wgt>
<wgt id='1421'> +5.3502891e-01 </wgt>
<wgt id='1422'> +5.3536502e-01 </wgt>
<wgt id='1423'> +5.3728934e-01 </wgt>
<wgt id='1424'> +5.3362256e-01 </wgt>
<wgt id='1425'> +5.3643533e-01 </wgt>
<wgt id='1426'> +5.3312237e-01 </wgt>
<wgt id='1427'> +5.3620734e-01 </wgt>
<wgt id='1428'> +5.3242521e-01 </wgt>
<wgt id='1429'> +5.3430099e-01 </wgt>
<wgt id='1430'> +5.3461940e-01 </wgt>
<wgt id='1431'> +5.3323408e-01 </wgt>
<wgt id='1432'> +5.3700590e-01 </wgt>
<wgt id='1433'> +5.2566861e-01 </wgt>
<wgt id='1434'> +5.4758760e-01 </wgt>
<wgt id='1435'> +5.3355668e-01 </wgt>
<wgt id='1436'> +5.3490636e-01 </wgt>
<wgt id='1437'> +5.3326751e-01 </wgt>
<wgt id='1438'> +5.4052164e-01 </wgt>
<wgt id='1439'> +5.3866418e-01 </wgt>
<wgt id='1440'> +5.3041608e-01 </wgt>
<wgt id='1441'> +5.3638721e-01 </wgt>
<wgt id='1442'> +5.3452970e-01 </wgt>
<wgt id='1443'> +5.3054486e-01 </wgt>
<wgt id='1444'> +5.2972792e-01 </wgt>
<wgt id='1445'> +5.3141923e-01 </wgt>
<wgt id='1446'> +5.3113288e-01 </wgt>
<wgt id='1447'> +5.3012228e-01 </wgt>
<wgt id='1448'> +5.3140710e-01 </wgt>
<wgt id='1449'> +5.2973540e-01 </wgt>
<wgt id='1450'> +5.2925241e-01 </wgt>
<wgt id='1451'> +5.3197657e-01 </wgt>
<wgt id='1452'> +5.2974843e-01 </wgt>
<wgt id='1453'> +5.3132672e-01 </wgt>
<wgt id='1454'> +5.2988638e-01 </wgt>
<wgt id='1455'> +5.3197677e-01 </wgt>
<wgt id='1456'> +5.3220903e-01 </wgt>
<wgt id='1457'> +5.2753253e-01 </wgt>
<wgt id='1458'> +5.2841539e-01 </wgt>
<wgt id='1459'> +5.3170847e-01 </wgt>
<wgt id='1460'> +5.2964157e-01 </wgt>
<wgt id='1461'> +5.3159273e-01 </wgt>
<wgt id='1462'> +5.2764713e-01 </wgt>
<wgt id='1463'> +5.3302525e-01 </wgt>
<wgt id='1464'> +5.3400772e-01 </wgt>
<wgt id='1465'> +5.2590078e-01 </wgt>
<wgt id='1466'> +5.3319377e-01 </wgt>
<wgt id='1467'> +5.2876583e-01 </wgt>
<wgt id='1468'> +5.3276926e-01 </wgt>
<wgt id='1469'> +5.2837563e-01 </wgt>
<wgt id='1470'> +5.2741907e-01 </wgt>
<wgt id='1471'> +5.3209739e-01 </wgt>
<wgt id='1472'> +5.3009658e-01 </wgt>
<wgt id='1473'> +5.3093217e-01 </wgt>
<wgt id='1474'> +5.3251010e-01 </wgt>
<wgt id='1475'> +5.2810639e-01 </wgt>
<wgt id='1476'> +5.3195272e-01 </wgt>
<wgt id='1477'> +5.2867193e-01 </wgt>
<wgt id='1478'> +5.3155114e-01 </wgt>
<wgt id='1479'> +5.2760901e-01 </wgt>
<wgt id='1480'> +5.3032175e-01 </wgt>
<wgt id='1481'> +5.3007213e-01 </wgt>
<wgt id='1482'> +5.2851164e-01 </wgt>
<wgt id='1483'> +5.3265839e-01 </wgt>
<wgt id='1484'> +5.2091655e-01 </wgt>
<wgt id='1485'> +5.4233340e-01 </wgt>
<wgt id='1486'> +5.3106182e-01 </wgt>
<wgt id='1487'> +5.2944341e-01 </wgt>
<wgt id='1488'> +5.2822055e-01 </wgt>
<wgt id='1489'> +5.3650851e-01 </wgt>
<wgt id='1490'> +5.3456355e-01 </wgt>
<wgt id='1491'> +5.2562887e-01 </wgt>
<wgt id='1492'> +5.3221247e-01 </wgt>
<wgt id='1493'> +5.2959033e-01 </wgt>
<wgt id='1494'> +5.1255944e-01 </wgt>
<wgt id='1495'> +5.0602752e-01 </wgt>
<wgt id='1496'> +5.0855377e-01 </wgt>
<wgt id='1497'> +5.1067050e-01 </wgt>
<wgt id='1498'> +5.1515205e-01 </wgt>
<wgt id='1499'> +5.1281619e-01 </wgt>
<wgt id='1500'> +5.1062355e-01 </wgt>
<wgt id='1501'> +5.1137975e-01 </wgt>
<wgt id='1502'> +5.1188688e-01 </wgt>
<wgt id='1503'> +5.1227363e-01 </wgt>
<wgt id='1504'> +5.1263970e-01 </wgt>
<wgt id='1505'> +5.1308081e-01 </wgt>
<wgt id='1506'> +5.1316645e-01 </wgt>
<wgt id='1507'> +5.1319248e-01 </wgt>
<wgt id='1508'> +5.1281619e-01 </wgt>
<wgt id='1509'> +5.1318112e-01 </wgt>
<wgt id='1510'> +5.1300506e-01 </wgt>
<wgt id='1511'> +5.1266124e-01 </wgt>
<wgt id='1512'> +5.1272857e-01 </wgt>
<wgt id='1513'> +5.2268638e-01 </wgt>
<wgt id='1514'> +5.2176170e-01 </wgt>
<wgt id='1515'> +5.2389794e-01 </wgt>
<wgt id='1516'> +5.2267169e-01 </wgt>
<wgt id='1517'> +5.2269864e-01 </wgt>
<wgt id='1518'> +5.2393995e-01 </wgt>
<wgt id='1519'> +5.2218795e-01 </wgt>
<wgt id='1520'> +5.2179529e-01 </wgt>
<wgt id='1521'> +5.2358362e-01 </wgt>
<wgt id='1522'> +5.2247628e-01 </wgt>
<wgt id='1523'> +5.2291141e-01 </wgt>
<wgt id='1524'> +5.2423367e-01 </wgt>
<wgt id='1525'> +5.2203221e-01 </wgt>
<wgt id='1526'> +5.2419305e-01 </wgt>
<wgt id='1527'> +5.2084142e-01 </wgt>
<wgt id='1528'> +5.2339170e-01 </wgt>
<wgt id='1529'> +5.2192276e-01 </wgt>
<wgt id='1530'> +5.2281964e-01 </wgt>
<wgt id='1531'> +5.2259626e-01 </wgt>
<wgt id='1532'> +5.2391406e-01 </wgt>
<wgt id='1533'> +5.2105868e-01 </wgt>
<wgt id='1534'> +5.1747619e-01 </wgt>
<wgt id='1535'> +5.2626891e-01 </wgt>
<wgt id='1536'> +5.2097460e-01 </wgt>
<wgt id='1537'> +5.2430499e-01 </wgt>
<wgt id='1538'> +5.2227104e-01 </wgt>
<wgt id='1539'> +5.2370078e-01 </wgt>
<wgt id='1540'> +5.1975645e-01 </wgt>
<wgt id='1541'> +5.2451990e-01 </wgt>
<wgt id='1542'> +5.2253054e-01 </wgt>
<wgt id='1543'> +5.2353715e-01 </wgt>
<wgt id='1544'> +5.2306582e-01 </wgt>
<wgt id='1545'> +5.2180058e-01 </wgt>
<wgt id='1546'> +5.2169293e-01 </wgt>
<wgt id='1547'> +5.2369987e-01 </wgt>
<wgt id='1548'> +5.1988800e-01 </wgt>
<wgt id='1549'> +5.2354635e-01 </wgt>
<wgt id='1550'> +5.2372688e-01 </wgt>
<wgt id='1551'> +5.1846880e-01 </wgt>
<wgt id='1552'> +5.2040224e-01 </wgt>
<wgt id='1553'> +5.2428117e-01 </wgt>
<wgt id='1554'> +5.2931835e-01 </wgt>
<wgt id='1555'> +5.1224877e-01 </wgt>
<wgt id='1556'> +5.2313181e-01 </wgt>
<wgt id='1557'> +5.2081592e-01 </wgt>
<wgt id='1558'> +5.1745368e-01 </wgt>
<wgt id='1559'> +5.2704065e-01 </wgt>
<wgt id='1560'> +5.2759933e-01 </wgt>
<wgt id='1561'> +5.2052012e-01 </wgt>
<wgt id='1562'> +5.1996759e-01 </wgt>
<wgt id='1563'> +5.2422762e-01 </wgt>
<wgt id='1564'> +5.2268638e-01 </wgt>
<wgt id='1565'> +5.1974580e-01 </wgt>
<wgt id='1566'> +5.2509163e-01 </wgt>
<wgt id='1567'> +5.2201102e-01 </wgt>
<wgt id='1568'> +5.2155753e-01 </wgt>
<wgt id='1569'> +5.2207074e-01 </wgt>
<wgt id='1570'> +5.2216234e-01 </wgt>
<wgt id='1571'> +5.2190565e-01 </wgt>
<wgt id='1572'> +5.2218276e-01 </wgt>
<wgt id='1573'> +5.2158689e-01 </wgt>
<wgt id='1574'> +5.2071252e-01 </wgt>
<wgt id='1575'> +5.2040619e-01 </wgt>
<wgt id='1576'> +5.2201102e-01 </wgt>
<wgt id='1577'> +5.2216512e-01 </wgt>
<wgt id='1578'> +5.2199509e-01 </wgt>
<wgt id='1579'> +5.2200168e-01 </wgt>
<wgt id='1580'> +5.2200751e-01 </wgt>
<wgt id='1581'> +5.1796230e-01 </wgt>
<wgt id='1582'> +5.1907811e-01 </wgt>
<wgt id='1583'> +5.2413429e-01 </wgt>
<wgt id='1584'> +5.1510583e-01 </wgt>
<wgt id='1585'> +5.1965500e-01 </wgt>
<wgt id='1586'> +5.0870086e-01 </wgt>
<wgt id='1587'> +5.1545928e-01 </wgt>
<wgt id='1588'> +5.2135047e-01 </wgt>
<wgt id='1589'> +5.1742267e-01 </wgt>
<wgt id='1590'> +5.1907545e-01 </wgt>
<wgt id='1591'> +5.1696324e-01 </wgt>
<wgt id='1592'> +5.1397032e-01 </wgt>
<wgt id='1593'> +5.1818882e-01 </wgt>
<wgt id='1594'> +5.1795864e-01 </wgt>
<wgt id='1595'> +5.1750870e-01 </wgt>
<wgt id='1596'> +5.1987723e-01 </wgt>
<wgt id='1597'> +5.1740158e-01 </wgt>
<wgt id='1598'> +5.1948239e-01 </wgt>
<wgt id='1599'> +5.1960951e-01 </wgt>
<wgt id='1600'> +5.1990448e-01 </wgt>
<wgt id='1601'> +5.1792394e-01 </wgt>
<wgt id='1602'> +5.1923209e-01 </wgt>
<wgt id='1603'> +5.1846953e-01 </wgt>
<wgt id='1604'> +5.1850913e-01 </wgt>
<wgt id='1605'> +5.1728176e-01 </wgt>
<wgt id='1606'> +5.1776620e-01 </wgt>
<wgt id='1607'> +5.1846987e-01 </wgt>
<wgt id='1608'> +5.2273332e-01 </wgt>
<wgt id='1609'> +5.1821312e-01 </wgt>
<wgt id='1610'> +5.1756178e-01 </wgt>
<wgt id='1611'> +5.2084727e-01 </wgt>
<wgt id='1612'> +5.2338262e-01 </wgt>
<wgt id='1613'> +5.2344148e-01 </wgt>
<wgt id='1614'> +5.2324620e-01 </wgt>
<wgt id='1615'> +5.2329411e-01 </wgt>
<wgt id='1616'> +5.2344768e-01 </wgt>
<wgt id='1617'> +5.2334526e-01 </wgt>
<wgt id='1618'> +5.2338238e-01 </wgt>
<wgt id='1619'> +5.2239769e-01 </wgt>
<wgt id='1620'> +5.2204122e-01 </wgt>
<wgt id='1621'> +5.2387061e-01 </wgt>
<wgt id='1622'> +5.2325082e-01 </wgt>
<wgt id='1623'> +5.2038945e-01 </wgt>
<wgt id='1624'> +5.2175250e-01 </wgt>
<wgt id='1625'> +5.2112807e-01 </wgt>
<wgt id='1626'> +5.2319473e-01 </wgt>
<wgt id='1627'> +5.2398023e-01 </wgt>
<wgt id='1628'> +5.2496271e-01 </wgt>
<wgt id='1629'> +5.2276744e-01 </wgt>
<wgt id='1630'> +5.2213985e-01 </wgt>
<wgt id='1631'> +5.2243657e-01 </wgt>
<wgt id='1632'> +5.2247206e-01 </wgt>
<wgt id='1633'> +5.2431341e-01 </wgt>
<wgt id='1634'> +5.2426765e-01 </wgt>
<wgt id='1635'> +5.2121589e-01 </wgt>
<wgt id='1636'> +5.2560650e-01 </wgt>
<wgt id='1637'> +5.2346272e-01 </wgt>
<wgt id='1638'> +5.2304903e-01 </wgt>
<wgt id='1639'> +5.2526187e-01 </wgt>
<wgt id='1640'> +5.2393248e-01 </wgt>
<wgt id='1641'> +5.1910524e-01 </wgt>
<wgt id='1642'> +5.2397130e-01 </wgt>
<wgt id='1643'> +5.2348051e-01 </wgt>
<wgt id='1644'> +5.2223906e-01 </wgt>
<wgt id='1645'> +5.2163856e-01 </wgt>
<wgt id='1646'> +5.2463381e-01 </wgt>
<wgt id='1647'> +5.2438352e-01 </wgt>
<wgt id='1648'> +5.2325027e-01 </wgt>
<wgt id='1649'> +5.2575397e-01 </wgt>
<wgt id='1650'> +5.2262752e-01 </wgt>
<wgt id='1651'> +5.2285408e-01 </wgt>
<wgt id='1652'> +5.2298385e-01 </wgt>
<wgt id='1653'> +5.2287446e-01 </wgt>
<wgt id='1654'> +5.2272339e-01 </wgt>
<wgt id='1655'> +5.2260694e-01 </wgt>
<wgt id='1656'> +5.2485017e-01 </wgt>
<wgt id='1657'> +5.2152516e-01 </wgt>
<wgt id='1658'> +5.2474470e-01 </wgt>
<wgt id='1659'> +5.2553900e-01 </wgt>
<wgt id='1660'> +5.2226705e-01 </wgt>
<wgt id='1661'> +5.2455755e-01 </wgt>
<wgt id='1662'> +5.2334569e-01 </wgt>
<wgt id='1663'> +5.2385925e-01 </wgt>
<wgt id='1664'> +5.2320583e-01 </wgt>
<wgt id='1665'> +5.2287309e-01 </wgt>
<wgt id='1666'> +5.2328038e-01 </wgt>
<wgt id='1667'> +5.2185513e-01 </wgt>
<wgt id='1668'> +5.2448850e-01 </wgt>
<wgt id='1669'> +5.2341482e-01 </wgt>
<wgt id='1670'> +5.2339333e-01 </wgt>
<wgt id='1671'> +5.2387033e-01 </wgt>
<wgt id='1672'> +5.2387258e-01 </wgt>
<wgt id='1673'> +5.2257047e-01 </wgt>
<wgt id='1674'> +5.2433831e-01 </wgt>
<wgt id='1675'> +5.2337483e-01 </wgt>
<wgt id='1676'> +5.2245308e-01 </wgt>
<wgt id='1677'> +5.2435290e-01 </wgt>
<wgt id='1678'> +5.2290931e-01 </wgt>
<wgt id='1679'> +5.2379463e-01 </wgt>
<wgt id='1680'> +5.2388972e-01 </wgt>
<wgt id='1681'> +5.2302660e-01 </wgt>
<wgt id='1682'> +5.2282028e-01 </wgt>
<wgt id='1683'> +5.2266472e-01 </wgt>
<wgt id='1684'> +5.2423461e-01 </wgt>
<wgt id='1685'> +5.2262329e-01 </wgt>
<wgt id='1686'> +5.2369865e-01 </wgt>
<wgt id='1687'> +5.2302891e-01 </wgt>
<wgt id='1688'> +5.2289990e-01 </wgt>
<wgt id='1689'> +5.2323837e-01 </wgt>
<wgt id='1690'> +5.2306408e-01 </wgt>
<wgt id='1691'> +5.2324130e-01 </wgt>
<wgt id='1692'> +5.2405652e-01 </wgt>
<wgt id='1693'> +5.2335716e-01 </wgt>
<wgt id='1694'> +5.2359911e-01 </wgt>
<wgt id='1695'> +5.2301442e-01 </wgt>
<wgt id='1696'> +5.2298290e-01 </wgt>
<wgt id='1697'> +5.2352204e-01 </wgt>
<wgt id='1698'> +5.2325962e-01 </wgt>
<wgt id='1699'> +5.2334997e-01 </wgt>
<wgt id='1700'> +5.2314658e-01 </wgt>
<wgt id='1701'> +5.2318161e-01 </wgt>
<wgt id='1702'> +5.2369558e-01 </wgt>
<wgt id='1703'> +5.2368764e-01 </wgt>
<wgt id='1704'> +5.2291825e-01 </wgt>
<wgt id='1705'> +5.2311214e-01 </wgt>
<wgt id='1706'> +5.2320438e-01 </wgt>
<wgt id='1707'> +5.2346765e-01 </wgt>
<wgt id='1708'> +5.2331870e-01 </wgt>
<wgt id='1709'> +5.2403034e-01 </wgt>
<wgt id='1710'> +5.2325642e-01 </wgt>
<wgt id='1711'> +5.2309976e-01 </wgt>
<wgt id='1712'> +5.2353878e-01 </wgt>
<wgt id='1713'> +5.1364388e-01 </wgt>
<wgt id='1714'> +5.3197465e-01 </wgt>
<wgt id='1715'> +5.3203850e-01 </wgt>
<wgt id='1716'> +5.2986102e-01 </wgt>
<wgt id='1717'> +5.4497327e-01 </wgt>
<wgt id='1718'> +5.2149046e-01 </wgt>
<wgt id='1719'> +5.2196435e-01 </wgt>
<wgt id='1720'> +5.4777562e-01 </wgt>
<wgt id='1721'> +5.4040035e-01 </wgt>
<wgt id='1722'> +5.2129351e-01 </wgt>
<wgt id='1723'> +5.4455428e-01 </wgt>
<wgt id='1724'> +5.2625662e-01 </wgt>
<wgt id='1725'> +5.2614099e-01 </wgt>
<wgt id='1726'> +5.2854647e-01 </wgt>
<wgt id='1727'> +5.3618256e-01 </wgt>
<wgt id='1728'> +5.3580327e-01 </wgt>
<wgt id='1729'> +5.2818197e-01 </wgt>
<wgt id='1730'> +5.3117683e-01 </wgt>
<wgt id='1731'> +5.1035135e-01 </wgt>
<wgt id='1732'> +5.1856702e-01 </wgt>
<wgt id='1733'> +5.2982592e-01 </wgt>
<wgt id='1734'> +5.4985457e-01 </wgt>
<wgt id='1735'> +4.9690138e-01 </wgt>
<wgt id='1736'> +5.4567064e-01 </wgt>
<wgt id='1737'> +5.2250383e-01 </wgt>
<wgt id='1738'> +5.3707183e-01 </wgt>
<wgt id='1739'> +5.4413138e-01 </wgt>
<wgt id='1740'> +5.3807400e-01 </wgt>
<wgt id='1741'> +5.2473643e-01 </wgt>
<wgt id='1742'> +5.3891186e-01 </wgt>
<wgt id='1743'> +5.1460748e-01 </wgt>
<wgt id='1744'> +5.2761029e-01 </wgt>
<wgt id='1745'> +5.1506162e-01 </wgt>
<wgt id='1746'> +5.2933315e-01 </wgt>
<wgt id='1747'> +5.4176151e-01 </wgt>
<wgt id='1748'> +5.1788209e-01 </wgt>
<wgt id='1749'> +5.3646645e-01 </wgt>
<wgt id='1750'> +5.2181165e-01 </wgt>
<wgt id='1751'> +5.3534159e-01 </wgt>
<wgt id='1752'> +5.3684345e-01 </wgt>
<wgt id='1753'> +5.2365573e-01 </wgt>
<wgt id='1754'> +5.3676386e-01 </wgt>
<wgt id='1755'> +5.2816823e-01 </wgt>
<wgt id='1756'> +5.4415683e-01 </wgt>
<wgt id='1757'> +5.3526814e-01 </wgt>
<wgt id='1758'> +5.4317849e-01 </wgt>
<wgt id='1759'> +5.3558599e-01 </wgt>
<wgt id='1760'> +5.3134966e-01 </wgt>
<wgt id='1761'> +5.2685156e-01 </wgt>
<wgt id='1762'> +5.3618256e-01 </wgt>
<wgt id='1763'> +5.3251620e-01 </wgt>
<wgt id='1764'> +5.3950634e-01 </wgt>
<wgt id='1765'> +5.3936909e-01 </wgt>
<wgt id='1766'> +5.3050136e-01 </wgt>
<wgt id='1767'> +5.1996803e-01 </wgt>
<wgt id='1768'> +5.2748120e-01 </wgt>
<wgt id='1769'> +5.4015089e-01 </wgt>
<wgt id='1770'> +5.3445956e-01 </wgt>
<wgt id='1771'> +5.1790441e-01 </wgt>
<wgt id='1772'> +5.3373992e-01 </wgt>
<wgt id='1773'> +5.3169229e-01 </wgt>
<wgt id='1774'> +5.2507992e-01 </wgt>
<wgt id='1775'> +5.2598612e-01 </wgt>
<wgt id='1776'> +5.4451654e-01 </wgt>
<wgt id='1777'> +5.4403431e-01 </wgt>
<wgt id='1778'> +5.2664265e-01 </wgt>
<wgt id='1779'> +5.3731644e-01 </wgt>
<wgt id='1780'> +5.3782525e-01 </wgt>
<wgt id='1781'> +5.3984166e-01 </wgt>
<wgt id='1782'> +5.3725275e-01 </wgt>
<wgt id='1783'> +5.3673237e-01 </wgt>
<wgt id='1784'> +5.3080624e-01 </wgt>
<wgt id='1785'> +5.2706212e-01 </wgt>
<wgt id='1786'> +5.3979408e-01 </wgt>
<wgt id='1787'> +5.3120821e-01 </wgt>
<wgt id='1788'> +5.3519380e-01 </wgt>
<wgt id='1789'> +5.3129068e-01 </wgt>
<wgt id='1790'> +5.3236862e-01 </wgt>
<wgt id='1791'> +5.1721202e-01 </wgt>
<wgt id='1792'> +5.4058865e-01 </wgt>
<wgt id='1793'> +5.3055273e-01 </wgt>
<wgt id='1794'> +5.3314361e-01 </wgt>
<wgt id='1795'> +5.0162319e-01 </wgt>
<wgt id='1796'> +5.2559819e-01 </wgt>
<wgt id='1797'> +5.3662457e-01 </wgt>
<wgt id='1798'> +5.1633457e-01 </wgt>
<wgt id='1799'> +5.3859560e-01 </wgt>
<wgt id='1800'> +5.4955343e-01 </wgt>
<wgt id='1801'> +5.2933099e-01 </wgt>
<wgt id='1802'> +5.4693750e-01 </wgt>
<wgt id='1803'> +5.3650712e-01 </wgt>
<wgt id='1804'> +5.4279539e-01 </wgt>
<wgt id='1805'> +5.4157521e-01 </wgt>
<wgt id='1806'> +5.2590288e-01 </wgt>
<wgt id='1807'> +5.2961398e-01 </wgt>
<wgt id='1808'> +5.1484924e-01 </wgt>
<wgt id='1809'> +5.4270543e-01 </wgt>
<wgt id='1810'> +5.2679756e-01 </wgt>
<wgt id='1811'> +5.4605779e-01 </wgt>
<wgt id='1812'> +5.2992262e-01 </wgt>
<wgt id='1813'> +5.3936902e-01 </wgt>
<wgt id='1814'> +5.2717411e-01 </wgt>
<wgt id='1815'> +5.4273398e-01 </wgt>
<wgt id='1816'> +5.2741052e-01 </wgt>
<wgt id='1817'> +5.4683474e-01 </wgt>
<wgt id='1818'> +5.2930621e-01 </wgt>
<wgt id='1819'> +5.2882550e-01 </wgt>
<wgt id='1820'> +5.3662255e-01 </wgt>
<wgt id='1821'> +5.2929232e-01 </wgt>
<wgt id='1822'> +5.3729885e-01 </wgt>
<wgt id='1823'> +5.3509922e-01 </wgt>
<wgt id='1824'> +5.2721758e-01 </wgt>
<wgt id='1825'> +5.2879343e-01 </wgt>
<wgt id='1826'> +5.2921602e-01 </wgt>
<wgt id='1827'> +5.2433900e-01 </wgt>
<wgt id='1828'> +5.2152044e-01 </wgt>
<wgt id='1829'> +5.3444792e-01 </wgt>
<wgt id='1830'> +5.1790157e-01 </wgt>
<wgt id='1831'> +5.3726193e-01 </wgt>
<wgt id='1832'> +5.1754562e-01 </wgt>
<wgt id='1833'> +5.1840026e-01 </wgt>
<wgt id='1834'> +5.0426902e-01 </wgt>
<wgt id='1835'> +5.3533122e-01 </wgt>
<wgt id='1836'> +5.4464195e-01 </wgt>
<wgt id='1837'> +5.4792480e-01 </wgt>
<wgt id='1838'> +5.3348765e-01 </wgt>
<wgt id='1839'> +5.4103883e-01 </wgt>
<wgt id='1840'> +5.2305936e-01 </wgt>
<wgt id='1841'> +5.1552105e-01 </wgt>
<wgt id='1842'> +5.3023603e-01 </wgt>
<wgt id='1843'> +5.1237735e-01 </wgt>
<wgt id='1844'> +5.1952856e-01 </wgt>
<wgt id='1845'> +5.3719553e-01 </wgt>
<wgt id='1846'> +5.3120317e-01 </wgt>
<wgt id='1847'> +5.1912649e-01 </wgt>
<wgt id='1848'> +5.3590352e-01 </wgt>
<wgt id='1849'> +5.2846548e-01 </wgt>
<wgt id='1850'> +5.2030841e-01 </wgt>
<wgt id='1851'> +5.2071733e-01 </wgt>
<wgt id='1852'> +5.0810514e-01 </wgt>
<wgt id='1853'> +5.1817005e-01 </wgt>
<wgt id='1854'> +5.3274973e-01 </wgt>
<wgt id='1855'> +5.3057262e-01 </wgt>
<wgt id='1856'> +5.2179287e-01 </wgt>
<wgt id='1857'> +5.5146674e-01 </wgt>
<wgt id='1858'> +5.2792313e-01 </wgt>
<wgt id='1859'> +5.2518473e-01 </wgt>
<wgt id='1860'> +5.2817434e-01 </wgt>
<wgt id='1861'> +5.3175932e-01 </wgt>
<wgt id='1862'> +5.3110095e-01 </wgt>
<wgt id='1863'> +5.2701095e-01 </wgt>
<wgt id='1864'> +5.3025001e-01 </wgt>
<wgt id='1865'> +5.1487349e-01 </wgt>
<wgt id='1866'> +5.2768230e-01 </wgt>
<wgt id='1867'> +5.3190046e-01 </wgt>
<wgt id='1868'> +5.2853279e-01 </wgt>
<wgt id='1869'> +5.1982852e-01 </wgt>
<wgt id='1870'> +5.3730675e-01 </wgt>
<wgt id='1871'> +5.2537023e-01 </wgt>
<wgt id='1872'> +5.1692413e-01 </wgt>
<wgt id='1873'> +5.1757948e-01 </wgt>
<wgt id='1874'> +5.2833073e-01 </wgt>
<wgt id='1875'> +5.2314384e-01 </wgt>
<wgt id='1876'> +5.3558416e-01 </wgt>
<wgt id='1877'> +5.2745810e-01 </wgt>
<wgt id='1878'> +5.3093020e-01 </wgt>
<wgt id='1879'> +5.0627270e-01 </wgt>
<wgt id='1880'> +5.0063159e-01 </wgt>
<wgt id='1881'> +5.1513959e-01 </wgt>
<wgt id='1882'> +5.1581224e-01 </wgt>
<wgt id='1883'> +5.8490647e-01 </wgt>
<wgt id='1884'> +5.2529139e-01 </wgt>
<wgt id='1885'> +5.1294940e-01 </wgt>
<wgt id='1886'> +5.2029411e-01 </wgt>
<wgt id='1887'> +5.2706092e-01 </wgt>
<wgt id='1888'> +5.2626159e-01 </wgt>
<wgt id='1889'> +5.4546890e-01 </wgt>
<wgt id='1890'> +5.2827551e-01 </wgt>
<wgt id='1891'> +5.3043898e-01 </wgt>
<wgt id='1892'> +5.2758909e-01 </wgt>
<wgt id='1893'> +5.2258665e-01 </wgt>
<wgt id='1894'> +5.3617015e-01 </wgt>
<wgt id='1895'> +5.3556058e-01 </wgt>
<wgt id='1896'> +5.2391957e-01 </wgt>
<wgt id='1897'> +5.2749614e-01 </wgt>
<wgt id='1898'> +5.2616994e-01 </wgt>
<wgt id='1899'> +5.3987347e-01 </wgt>
<wgt id='1900'> +5.2169060e-01 </wgt>
<wgt id='1901'> +5.3342529e-01 </wgt>
<wgt id='1902'> +5.2139161e-01 </wgt>
<wgt id='1903'> +5.3792067e-01 </wgt>
<wgt id='1904'> +5.3573076e-01 </wgt>
<wgt id='1905'> +5.3129484e-01 </wgt>
<wgt id='1906'> +5.2213738e-01 </wgt>
<wgt id='1907'> +5.2983277e-01 </wgt>
<wgt id='1908'> +5.2454677e-01 </wgt>
<wgt id='1909'> +5.2504168e-01 </wgt>
<wgt id='1910'> +5.3735925e-01 </wgt>
<wgt id='1911'> +5.0502426e-01 </wgt>
<wgt id='1912'> +5.2546346e-01 </wgt>
<wgt id='1913'> +5.1478636e-01 </wgt>
<wgt id='1914'> +5.2358645e-01 </wgt>
<wgt id='1915'> +5.2831366e-01 </wgt>
<wgt id='1916'> +5.1177581e-01 </wgt>
<wgt id='1917'> +5.1549282e-01 </wgt>
<wgt id='1918'> +5.4198335e-01 </wgt>
<wgt id='1919'> +5.2741052e-01 </wgt>
<wgt id='1920'> +5.4683474e-01 </wgt>
<wgt id='1921'> +5.2930621e-01 </wgt>
<wgt id='1922'> +5.2882550e-01 </wgt>
<wgt id='1923'> +5.3662255e-01 </wgt>
<wgt id='1924'> +5.2929232e-01 </wgt>
<wgt id='1925'> +5.3729885e-01 </wgt>
<wgt id='1926'> +5.3509922e-01 </wgt>
<wgt id='1927'> +5.2721758e-01 </wgt>
<wgt id='1928'> +5.2879343e-01 </wgt>
<wgt id='1929'> +5.2921602e-01 </wgt>
<wgt id='1930'> +5.2433900e-01 </wgt>
<wgt id='1931'> +5.2152044e-01 </wgt>
<wgt id='1932'> +5.3444792e-01 </wgt>
<wgt id='1933'> +5.1790157e-01 </wgt>
<wgt id='1934'> +5.3726193e-01 </wgt>
<wgt id='1935'> +5.1754562e-01 </wgt>
<wgt id='1936'> +5.1840026e-01 </wgt>
<wgt id='1937'> +5.0426902e-01 </wgt>
<wgt id='1938'> +5.3533122e-01 </wgt>
<wgt id='1939'> +5.4464195e-01 </wgt>
<wgt id='1940'> +5.4792480e-01 </wgt>
<wgt id='1941'> +5.3348765e-01 </wgt>
<wgt id='1942'> +5.4103883e-01 </wgt>
<wgt id='1943'> +5.2305936e-01 </wgt>
<wgt id='1944'> +5.1552105e-01 </wgt>
<wgt id='1945'> +5.3023603e-01 </wgt>
<wgt id='1946'> +5.1237735e-01 </wgt>
<wgt id='1947'> +5.1952856e-01 </wgt>
<wgt id='1948'> +5.3719553e-01 </wgt>
<wgt id='1949'> +5.3120317e-01 </wgt>
<wgt id='1950'> +5.1912649e-01 </wgt>
<wgt id='1951'> +5.3590352e-01 </wgt>
<wgt id='1952'> +5.2846548e-01 </wgt>
<wgt id='1953'> +5.2030841e-01 </wgt>
<wgt id='1954'> +5.2071733e-01 </wgt>
<wgt id='1955'> +5.0810514e-01 </wgt>
<wgt id='1956'> +5.1817005e-01 </wgt>
<wgt id='1957'> +5.3274973e-01 </wgt>
<wgt id='1958'> +5.3057262e-01 </wgt>
<wgt id='1959'> +5.2179287e-01 </wgt>
<wgt id='1960'> +5.5146674e-01 </wgt>
<wgt id='1961'> +5.2792313e-01 </wgt>
<wgt id='1962'> +5.2518473e-01 </wgt>
<wgt id='1963'> +5.2817434e-01 </wgt>
<wgt id='1964'> +5.3175932e-01 </wgt>
<wgt id='1965'> +5.3110095e-01 </wgt>
<wgt id='1966'> +5.2701095e-01 </wgt>
<wgt id='1967'> +5.3025001e-01 </wgt>
<wgt id='1968'> +5.1487349e-01 </wgt>
<wgt id='1969'> +5.2768230e-01 </wgt>
<wgt id='1970'> +5.3190046e-01 </wgt>
<wgt id='1971'> +5.2853279e-01 </wgt>
<wgt id='1972'> +5.1982852e-01 </wgt>
<wgt id='1973'> +5.3730675e-01 </wgt>
<wgt id='1974'> +5.2537023e-01 </wgt>
<wgt id='1975'> +5.1692413e-01 </wgt>
<wgt id='1976'> +5.1757948e-01 </wgt>
<wgt id='1977'> +5.2833073e-01 </wgt>
<wgt id='1978'> +5.2314384e-01 </wgt>
<wgt id='1979'> +5.3558416e-01 </wgt>
<wgt id='1980'> +5.2745810e-01 </wgt>
<wgt id='1981'> +5.3093020e-01 </wgt>
<wgt id='1982'> +5.0627270e-01 </wgt>
<wgt id='1983'> +5.0063159e-01 </wgt>
<wgt id='1984'> +5.1513959e-01 </wgt>
<wgt id='1985'> +5.1581224e-01 </wgt>
<wgt id='1986'> +5.8490647e-01 </wgt>
<wgt id='1987'> +5.2529139e-01 </wgt>
<wgt id='1988'> +5.1294940e-01 </wgt>
<wgt id='1989'> +5.2029411e-01 </wgt>
<wgt id='1990'> +5.2706092e-01 </wgt>
<wgt id='1991'> +5.2626159e-01 </wgt>
<wgt id='1992'> +5.4546890e-01 </wgt>
<wgt id='1993'> +5.2827551e-01 </wgt>
<wgt id='1994'> +5.3043898e-01 </wgt>
<wgt id='1995'> +5.2758909e-01 </wgt>
<wgt id='1996'> +5.2258665e-01 </wgt>
<wgt id='1997'> +5.3617015e-01 </wgt>
<wgt id='1998'> +5.3556058e-01 </wgt>
<wgt id='1999'> +5.2391957e-01 </wgt>
<wgt id='2000'> +5.2749614e-01 </wgt>
<wgt id='2001'> +5.2616994e-01 </wgt>
<wgt id='2002'> +5.3987347e-01 </wgt>
<wgt id='2003'> +5.2169060e-01 </wgt>
<wgt id='2004'> +5.3342529e-01 </wgt>
<wgt id='2005'> +5.2139161e-01 </wgt>
<wgt id='2006'> +5.3792067e-01 </wgt>
<wgt id='2007'> +5.3573076e-01 </wgt>
<wgt id='2008'> +5.3129484e-01 </wgt>
<wgt id='2009'> +5.2213738e-01 </wgt>
<wgt id='2010'> +5.2983277e-01 </wgt>
<wgt id='2011'> +5.2454677e-01 </wgt>
<wgt id='2012'> +5.2504168e-01 </wgt>
<wgt id='2013'> +5.3735925e-01 </wgt>
<wgt id='2014'> +5.0502426e-01 </wgt>
<wgt id='2015'> +5.2546346e-01 </wgt>
<wgt id='2016'> +5.1478636e-01 </wgt>
<wgt id='2017'> +5.2358645e-01 </wgt>
<wgt id='2018'> +5.2831366e-01 </wgt>
<wgt id='2019'> +5.1177581e-01 </wgt>
<wgt id='2020'> +5.2663604e-01 </wgt>
<wgt id='2021'> +5.3077615e-01 </wgt>
<wgt id='2022'> +5.2712010e-01 </wgt>
</rwgt>
</event>
</LesHouchesEvents>
