<LesHouchesEvents version="3.0">
<!--
file generated with POWHEG-BOX-V2
SVN status Begin
/afs/cern.ch/work/w/wangjin/scratch2/mc/powheg/CMSSW_10_2_0/src/genproductions/bin/Powheg/gg_H_quark-mass-effects_NNPDF30_13TeV_M120/gg_H_quark-mass-effects_NNPDF30_13TeV_M120/POWHEG-BOX
no svn repository found
/afs/cern.ch/work/w/wangjin/scratch2/mc/powheg/CMSSW_10_2_0/src/genproductions/bin/Powheg/gg_H_quark-mass-effects_NNPDF30_13TeV_M120/gg_H_quark-mass-effects_NNPDF30_13TeV_M120/POWHEG-BOX/gg_H_quark-mass-effects
no svn repository found
SVN status End
Process: gg_H_quark-mass-effects
Input file powheg.input contained:
numevts 10
ih1   1           ! hadron 1 (1 for protons, -1 for antiprotons)
ih2   1           ! hadron 2 (1 for protons, -1 for antiprotons)
#ndns1 131         ! pdf set for hadron 1 (mlm numbering)
#ndns2 131         ! pdf set for hadron 2 (mlm numbering)
ebeam1 6500     ! energy of beam 1
ebeam2 6500    ! energy of beam 2

! To be set only if using LHA pdfs
lhans1 306000       ! pdf set for hadron 1 (LHA numbering)
lhans2 306000       ! pdf set for hadron 2 (LHA numbering)
! To be set only if using different pdf sets for the two incoming hadrons
! QCDLambda5  0.25 ! for not equal pdf sets

! Parameters to allow or not the use of stored data
use-old-grid    1 ! if 1 use old grid if file pwggrids.dat is present (<> 1 regenerate)
use-old-ubound  1 ! if 1 use norm of upper bounding function stored in pwgubound.dat, if present; <>

ncall1 50000   ! number of calls for initializing the integration grid
itmx1  5    ! number of iterations for initializing the integration grid
ncall2 50000    ! number of calls for computing the integral and finding upper bound
itmx2  5     ! number of iterations for computing the integral and finding upper bound
foldcsi   1    ! number of folds on csi integration
foldy     1    ! number of folds on  y  integration
foldphi   1    ! number of folds on phi integration
nubound 50000  ! number of bbarra calls to setup norm of upper bounding function
icsimax  1     ! <= 100, number of csi subdivision when computing the upper bounds
iymax    1     ! <= 100, number of y subdivision when computing the upper bounds
xupbound 2d0   ! increase upper bound for radiation generation

! OPTIONAL PARAMETERS

renscfact  1   ! (default 1d0) ren scale factor: muren  = muref * renscfact
facscfact  1   ! (default 1d0) fac scale factor: mufact = muref * facscfact
#ptsupp     0d0   ! (default 0d0)  mass param for Born suppression factor (generation cut) If < 0 su
#bornonly   0      ! (default 0) if 1 do Born only
#smartsig   0      ! (default 1) remember equal amplitudes (0 do not remember)
#withsubtr  0      ! (default 1) subtract real counterterms (0 do not subtract)
#withdamp    1      ! (default 0, do not use) use Born-zero damping factor
#ptsqmin    0.8   ! (default 0.8 GeV) minimum pt for generation of radiation
#charmthr   1.5    ! (default 1.5 GeV) charm treshold for gluon splitting
#bottomthr  5.0    ! (default 5.0 GeV) bottom treshold for gluon splitting
testplots  1      ! (default 0, do not) do NLO and PWHG distributions
hfact    59.5d0    ! (default no dumping factor) dump factor for high-pt radiation: > 0 dumpfac=h**2
#testsuda  1       ! (default 0, do not test) test Sudakov form factor
#radregion 1       ! (default all regions) only generate radiation in the selected singular region
#charmthrpdf  1.5  ! (default 1.5 GeV) pdf charm treshold
#bottomthrpdf 5.0  ! (default 5.0 GeV) pdf bottom treshold
# mur,muf settings
runningscale 0    ! 0 = scales equal to the Higgs pole mass; 1  = scales equal to the Higgs virtuali
                  ! 2 = scales equal to the Higgs pole mass for Born-like configuration and to the t
# When using 2 uncomment the following option
# btlscalereal 1

iseed 1
#rand1    32      ! initialize random number sequence
#rand2    0      ! initialize random number sequence

#iupperisr 1 ! (default 1) choice of ISR upper bounding functional form
#iupperfsr 2 ! (default 2) choice of FSR upper bounding functional form

! GGF_H production:
! **** Mandatory parameters for ALL models ****
massren 0           ! Mass renormalization scheme. 0 = OS, 1 = MSBAR , 2 = DRBAR
zerowidth 0         ! Control if the Higgs boson is to be produced on-shell or not: 1 = On-Shell; 0
ew 1                ! ew = 0 disable EW corrections - ew = 1 enable EW corrections
model 0
gfermi 0.116637D-04        ! GF
hdecaymode -1      ! PDG code for first decay product of the higgs
masswindow 10d0  !(default 10d0) number of widths around hmass in the BW for an off-shell Higgs boso
! allowed values are:  -1 all decay channels closed
!                      0 all decay channels open
!	               1-6 d dbar, u ubar,..., t tbar (as in HERWIG)
!	               7-9 e+ e-, mu+ mu-, tau+ tau-
!		       10  W+W-
!	               11  ZZ
!	               12  gamma gamma
! **** Mandatory parameters for SM or MW ****
hmass 120            ! Higgs boson mass
hwidth 3.51D-03     ! Higgs boson width
topmass 172.5        ! top quark mass
bottommass 4.75d0    ! bottom quark mass - if defined it enables the bottom quark
!charmmass 1.5d0     ! char quark mass - if defined it enables the charm quark
! Optional
hdecaywidth 0        ! If equals to 1 read total decay width from HDECAY sm.br2 file
#withnegweights 1 0
#pdfreweight 0
#storeinfo_rwgt 0

#manyseeds 1

#parallelstage 4

#xgriditeration 1 1
rwl_group_events 2000
lhapdf6maxsets 50
rwl_file 'pwg-rwl.dat'
rwl_format_rwgt 1
End of powheg.input content
PDF package: lha
 Random number generator initialized with:            1             0             0
-->
<header>
<initrwgt>
<weightgroup name='scale_variation' combine='envelope' >
<weight id='1001' > lhapdf=306000 renscfact=1d0 facscfact=1d0 </weight>
<weight id='1002' > lhapdf=306000 renscfact=1d0 facscfact=2d0 </weight>
<weight id='1003' > lhapdf=306000 renscfact=1d0 facscfact=0.5d0 </weight>
<weight id='1004' > lhapdf=306000 renscfact=2d0 facscfact=1d0 </weight>
<weight id='1005' > lhapdf=306000 renscfact=2d0 facscfact=2d0 </weight>
<weight id='1006' > lhapdf=306000 renscfact=2d0 facscfact=0.5d0 </weight>
<weight id='1007' > lhapdf=306000 renscfact=0.5d0 facscfact=1d0 </weight>
<weight id='1008' > lhapdf=306000 renscfact=0.5d0 facscfact=2d0 </weight>
<weight id='1009' > lhapdf=306000 renscfact=0.5d0 facscfact=0.5d0 </weight>
</weightgroup>
<weightgroup name='PDF_variation1' combine='hessian' >
<weight id='2000' > lhapdf=306000 </weight>
<weight id='2001' > lhapdf=306001 </weight>
<weight id='2002' > lhapdf=306002 </weight>
<weight id='2003' > lhapdf=306003 </weight>
<weight id='2004' > lhapdf=306004 </weight>
<weight id='2005' > lhapdf=306005 </weight>
<weight id='2006' > lhapdf=306006 </weight>
<weight id='2007' > lhapdf=306007 </weight>
<weight id='2008' > lhapdf=306008 </weight>
<weight id='2009' > lhapdf=306009 </weight>
<weight id='2010' > lhapdf=306010 </weight>
<weight id='2011' > lhapdf=306011 </weight>
<weight id='2012' > lhapdf=306012 </weight>
<weight id='2013' > lhapdf=306013 </weight>
<weight id='2014' > lhapdf=306014 </weight>
<weight id='2015' > lhapdf=306015 </weight>
<weight id='2016' > lhapdf=306016 </weight>
<weight id='2017' > lhapdf=306017 </weight>
<weight id='2018' > lhapdf=306018 </weight>
<weight id='2019' > lhapdf=306019 </weight>
<weight id='2020' > lhapdf=306020 </weight>
<weight id='2021' > lhapdf=306021 </weight>
<weight id='2022' > lhapdf=306022 </weight>
<weight id='2023' > lhapdf=306023 </weight>
<weight id='2024' > lhapdf=306024 </weight>
<weight id='2025' > lhapdf=306025 </weight>
<weight id='2026' > lhapdf=306026 </weight>
<weight id='2027' > lhapdf=306027 </weight>
<weight id='2028' > lhapdf=306028 </weight>
<weight id='2029' > lhapdf=306029 </weight>
<weight id='2030' > lhapdf=306030 </weight>
<weight id='2031' > lhapdf=306031 </weight>
<weight id='2032' > lhapdf=306032 </weight>
<weight id='2033' > lhapdf=306033 </weight>
<weight id='2034' > lhapdf=306034 </weight>
<weight id='2035' > lhapdf=306035 </weight>
<weight id='2036' > lhapdf=306036 </weight>
<weight id='2037' > lhapdf=306037 </weight>
<weight id='2038' > lhapdf=306038 </weight>
<weight id='2039' > lhapdf=306039 </weight>
<weight id='2040' > lhapdf=306040 </weight>
<weight id='2041' > lhapdf=306041 </weight>
<weight id='2042' > lhapdf=306042 </weight>
<weight id='2043' > lhapdf=306043 </weight>
<weight id='2044' > lhapdf=306044 </weight>
<weight id='2045' > lhapdf=306045 </weight>
<weight id='2046' > lhapdf=306046 </weight>
<weight id='2047' > lhapdf=306047 </weight>
<weight id='2048' > lhapdf=306048 </weight>
<weight id='2049' > lhapdf=306049 </weight>
<weight id='2050' > lhapdf=306050 </weight>
<weight id='2051' > lhapdf=306051 </weight>
<weight id='2052' > lhapdf=306052 </weight>
<weight id='2053' > lhapdf=306053 </weight>
<weight id='2054' > lhapdf=306054 </weight>
<weight id='2055' > lhapdf=306055 </weight>
<weight id='2056' > lhapdf=306056 </weight>
<weight id='2057' > lhapdf=306057 </weight>
<weight id='2058' > lhapdf=306058 </weight>
<weight id='2059' > lhapdf=306059 </weight>
<weight id='2060' > lhapdf=306060 </weight>
<weight id='2061' > lhapdf=306061 </weight>
<weight id='2062' > lhapdf=306062 </weight>
<weight id='2063' > lhapdf=306063 </weight>
<weight id='2064' > lhapdf=306064 </weight>
<weight id='2065' > lhapdf=306065 </weight>
<weight id='2066' > lhapdf=306066 </weight>
<weight id='2067' > lhapdf=306067 </weight>
<weight id='2068' > lhapdf=306068 </weight>
<weight id='2069' > lhapdf=306069 </weight>
<weight id='2070' > lhapdf=306070 </weight>
<weight id='2071' > lhapdf=306071 </weight>
<weight id='2072' > lhapdf=306072 </weight>
<weight id='2073' > lhapdf=306073 </weight>
<weight id='2074' > lhapdf=306074 </weight>
<weight id='2075' > lhapdf=306075 </weight>
<weight id='2076' > lhapdf=306076 </weight>
<weight id='2077' > lhapdf=306077 </weight>
<weight id='2078' > lhapdf=306078 </weight>
<weight id='2079' > lhapdf=306079 </weight>
<weight id='2080' > lhapdf=306080 </weight>
<weight id='2081' > lhapdf=306081 </weight>
<weight id='2082' > lhapdf=306082 </weight>
<weight id='2083' > lhapdf=306083 </weight>
<weight id='2084' > lhapdf=306084 </weight>
<weight id='2085' > lhapdf=306085 </weight>
<weight id='2086' > lhapdf=306086 </weight>
<weight id='2087' > lhapdf=306087 </weight>
<weight id='2088' > lhapdf=306088 </weight>
<weight id='2089' > lhapdf=306089 </weight>
<weight id='2090' > lhapdf=306090 </weight>
<weight id='2091' > lhapdf=306091 </weight>
<weight id='2092' > lhapdf=306092 </weight>
<weight id='2093' > lhapdf=306093 </weight>
<weight id='2094' > lhapdf=306094 </weight>
<weight id='2095' > lhapdf=306095 </weight>
<weight id='2096' > lhapdf=306096 </weight>
<weight id='2097' > lhapdf=306097 </weight>
<weight id='2098' > lhapdf=306098 </weight>
<weight id='2099' > lhapdf=306099 </weight>
<weight id='2100' > lhapdf=306100 </weight>
<weight id='2101' > lhapdf=306101 </weight>
<weight id='2102' > lhapdf=306102 </weight>
<weight id='2104' > lhapdf=322500 </weight>
<weight id='2105' > lhapdf=322700 </weight>
<weight id='2106' > lhapdf=322900 </weight>
<weight id='2107' > lhapdf=323100 </weight>
<weight id='2108' > lhapdf=323300 </weight>
<weight id='2109' > lhapdf=323500 </weight>
<weight id='2110' > lhapdf=323700 </weight>
<weight id='2111' > lhapdf=323900 </weight>
<weight id='3000' > lhapdf=305800 </weight>
<weight id='3001' > lhapdf=305801 </weight>
<weight id='3002' > lhapdf=305802 </weight>
<weight id='3003' > lhapdf=305803 </weight>
<weight id='3004' > lhapdf=305804 </weight>
<weight id='3005' > lhapdf=305805 </weight>
<weight id='3006' > lhapdf=305806 </weight>
<weight id='3007' > lhapdf=305807 </weight>
<weight id='3008' > lhapdf=305808 </weight>
<weight id='3009' > lhapdf=305809 </weight>
<weight id='3010' > lhapdf=305810 </weight>
<weight id='3011' > lhapdf=305811 </weight>
<weight id='3012' > lhapdf=305812 </weight>
<weight id='3013' > lhapdf=305813 </weight>
<weight id='3014' > lhapdf=305814 </weight>
<weight id='3015' > lhapdf=305815 </weight>
<weight id='3016' > lhapdf=305816 </weight>
<weight id='3017' > lhapdf=305817 </weight>
<weight id='3018' > lhapdf=305818 </weight>
<weight id='3019' > lhapdf=305819 </weight>
<weight id='3020' > lhapdf=305820 </weight>
<weight id='3021' > lhapdf=305821 </weight>
<weight id='3022' > lhapdf=305822 </weight>
<weight id='3023' > lhapdf=305823 </weight>
<weight id='3024' > lhapdf=305824 </weight>
<weight id='3025' > lhapdf=305825 </weight>
<weight id='3026' > lhapdf=305826 </weight>
<weight id='3027' > lhapdf=305827 </weight>
<weight id='3028' > lhapdf=305828 </weight>
<weight id='3029' > lhapdf=305829 </weight>
<weight id='3030' > lhapdf=305830 </weight>
<weight id='3031' > lhapdf=305831 </weight>
<weight id='3032' > lhapdf=305832 </weight>
<weight id='3033' > lhapdf=305833 </weight>
<weight id='3034' > lhapdf=305834 </weight>
<weight id='3035' > lhapdf=305835 </weight>
<weight id='3036' > lhapdf=305836 </weight>
<weight id='3037' > lhapdf=305837 </weight>
<weight id='3038' > lhapdf=305838 </weight>
<weight id='3039' > lhapdf=305839 </weight>
<weight id='3040' > lhapdf=305840 </weight>
<weight id='3041' > lhapdf=305841 </weight>
<weight id='3042' > lhapdf=305842 </weight>
<weight id='3043' > lhapdf=305843 </weight>
<weight id='3044' > lhapdf=305844 </weight>
<weight id='3045' > lhapdf=305845 </weight>
<weight id='3046' > lhapdf=305846 </weight>
<weight id='3047' > lhapdf=305847 </weight>
<weight id='3048' > lhapdf=305848 </weight>
<weight id='3049' > lhapdf=305849 </weight>
<weight id='3050' > lhapdf=305850 </weight>
<weight id='3051' > lhapdf=305851 </weight>
<weight id='3052' > lhapdf=305852 </weight>
<weight id='3053' > lhapdf=305853 </weight>
<weight id='3054' > lhapdf=305854 </weight>
<weight id='3055' > lhapdf=305855 </weight>
<weight id='3056' > lhapdf=305856 </weight>
<weight id='3057' > lhapdf=305857 </weight>
<weight id='3058' > lhapdf=305858 </weight>
<weight id='3059' > lhapdf=305859 </weight>
<weight id='3060' > lhapdf=305860 </weight>
<weight id='3061' > lhapdf=305861 </weight>
<weight id='3062' > lhapdf=305862 </weight>
<weight id='3063' > lhapdf=305863 </weight>
<weight id='3064' > lhapdf=305864 </weight>
<weight id='3065' > lhapdf=305865 </weight>
<weight id='3066' > lhapdf=305866 </weight>
<weight id='3067' > lhapdf=305867 </weight>
<weight id='3068' > lhapdf=305868 </weight>
<weight id='3069' > lhapdf=305869 </weight>
<weight id='3070' > lhapdf=305870 </weight>
<weight id='3071' > lhapdf=305871 </weight>
<weight id='3072' > lhapdf=305872 </weight>
<weight id='3073' > lhapdf=305873 </weight>
<weight id='3074' > lhapdf=305874 </weight>
<weight id='3075' > lhapdf=305875 </weight>
<weight id='3076' > lhapdf=305876 </weight>
<weight id='3077' > lhapdf=305877 </weight>
<weight id='3078' > lhapdf=305878 </weight>
<weight id='3079' > lhapdf=305879 </weight>
<weight id='3080' > lhapdf=305880 </weight>
<weight id='3081' > lhapdf=305881 </weight>
<weight id='3082' > lhapdf=305882 </weight>
<weight id='3083' > lhapdf=305883 </weight>
<weight id='3084' > lhapdf=305884 </weight>
<weight id='3085' > lhapdf=305885 </weight>
<weight id='3086' > lhapdf=305886 </weight>
<weight id='3087' > lhapdf=305887 </weight>
<weight id='3088' > lhapdf=305888 </weight>
<weight id='3089' > lhapdf=305889 </weight>
<weight id='3090' > lhapdf=305890 </weight>
<weight id='3091' > lhapdf=305891 </weight>
<weight id='3092' > lhapdf=305892 </weight>
<weight id='3093' > lhapdf=305893 </weight>
<weight id='3094' > lhapdf=305894 </weight>
<weight id='3095' > lhapdf=305895 </weight>
<weight id='3096' > lhapdf=305896 </weight>
<weight id='3097' > lhapdf=305897 </weight>
<weight id='3098' > lhapdf=305898 </weight>
<weight id='3099' > lhapdf=305899 </weight>
<weight id='3100' > lhapdf=305900 </weight>
<weight id='3101' > lhapdf=305901 </weight>
<weight id='3102' > lhapdf=305902 </weight>
<weight id='5000' > lhapdf=13000 </weight>
<weight id='5001' > lhapdf=13001 </weight>
<weight id='5002' > lhapdf=13002 </weight>
<weight id='5003' > lhapdf=13003 </weight>
<weight id='5004' > lhapdf=13004 </weight>
<weight id='5005' > lhapdf=13005 </weight>
<weight id='5006' > lhapdf=13006 </weight>
<weight id='5007' > lhapdf=13007 </weight>
<weight id='5008' > lhapdf=13008 </weight>
<weight id='5009' > lhapdf=13009 </weight>
<weight id='5010' > lhapdf=13010 </weight>
<weight id='5011' > lhapdf=13011 </weight>
<weight id='5012' > lhapdf=13012 </weight>
<weight id='5013' > lhapdf=13013 </weight>
<weight id='5014' > lhapdf=13014 </weight>
<weight id='5015' > lhapdf=13015 </weight>
<weight id='5016' > lhapdf=13016 </weight>
<weight id='5017' > lhapdf=13017 </weight>
<weight id='5018' > lhapdf=13018 </weight>
<weight id='5019' > lhapdf=13019 </weight>
<weight id='5020' > lhapdf=13020 </weight>
<weight id='5021' > lhapdf=13021 </weight>
<weight id='5022' > lhapdf=13022 </weight>
<weight id='5023' > lhapdf=13023 </weight>
<weight id='5024' > lhapdf=13024 </weight>
<weight id='5025' > lhapdf=13025 </weight>
<weight id='5026' > lhapdf=13026 </weight>
<weight id='5027' > lhapdf=13027 </weight>
<weight id='5028' > lhapdf=13028 </weight>
<weight id='5029' > lhapdf=13029 </weight>
<weight id='5030' > lhapdf=13030 </weight>
<weight id='5031' > lhapdf=13031 </weight>
<weight id='5032' > lhapdf=13032 </weight>
<weight id='5033' > lhapdf=13033 </weight>
<weight id='5034' > lhapdf=13034 </weight>
<weight id='5035' > lhapdf=13035 </weight>
<weight id='5036' > lhapdf=13036 </weight>
<weight id='5037' > lhapdf=13037 </weight>
<weight id='5038' > lhapdf=13038 </weight>
<weight id='5039' > lhapdf=13039 </weight>
<weight id='5040' > lhapdf=13040 </weight>
<weight id='5041' > lhapdf=13041 </weight>
<weight id='5042' > lhapdf=13042 </weight>
<weight id='5043' > lhapdf=13043 </weight>
<weight id='5044' > lhapdf=13044 </weight>
<weight id='5045' > lhapdf=13045 </weight>
<weight id='5046' > lhapdf=13046 </weight>
<weight id='5047' > lhapdf=13047 </weight>
<weight id='5048' > lhapdf=13048 </weight>
<weight id='5049' > lhapdf=13049 </weight>
<weight id='5050' > lhapdf=13050 </weight>
<weight id='5051' > lhapdf=13051 </weight>
<weight id='5052' > lhapdf=13052 </weight>
<weight id='5053' > lhapdf=13053 </weight>
<weight id='5054' > lhapdf=13054 </weight>
<weight id='5055' > lhapdf=13055 </weight>
<weight id='5056' > lhapdf=13056 </weight>
<weight id='5060' > lhapdf=13065 </weight>
<weight id='5070' > lhapdf=13069 </weight>
<weight id='4000' > lhapdf=13100 </weight>
<weight id='4001' > lhapdf=13101 </weight>
<weight id='4002' > lhapdf=13102 </weight>
<weight id='4003' > lhapdf=13103 </weight>
<weight id='4004' > lhapdf=13104 </weight>
<weight id='4005' > lhapdf=13105 </weight>
<weight id='4006' > lhapdf=13106 </weight>
<weight id='4007' > lhapdf=13107 </weight>
<weight id='4008' > lhapdf=13108 </weight>
<weight id='4009' > lhapdf=13109 </weight>
<weight id='4010' > lhapdf=13110 </weight>
<weight id='4011' > lhapdf=13111 </weight>
<weight id='4012' > lhapdf=13112 </weight>
<weight id='4013' > lhapdf=13113 </weight>
<weight id='4014' > lhapdf=13114 </weight>
<weight id='4015' > lhapdf=13115 </weight>
<weight id='4016' > lhapdf=13116 </weight>
<weight id='4017' > lhapdf=13117 </weight>
<weight id='4018' > lhapdf=13118 </weight>
<weight id='4019' > lhapdf=13119 </weight>
<weight id='4020' > lhapdf=13120 </weight>
<weight id='4021' > lhapdf=13121 </weight>
<weight id='4022' > lhapdf=13122 </weight>
<weight id='4023' > lhapdf=13123 </weight>
<weight id='4024' > lhapdf=13124 </weight>
<weight id='4025' > lhapdf=13125 </weight>
<weight id='4026' > lhapdf=13126 </weight>
<weight id='4027' > lhapdf=13127 </weight>
<weight id='4028' > lhapdf=13128 </weight>
<weight id='4029' > lhapdf=13129 </weight>
<weight id='4030' > lhapdf=13130 </weight>
<weight id='4031' > lhapdf=13131 </weight>
<weight id='4032' > lhapdf=13132 </weight>
<weight id='4033' > lhapdf=13133 </weight>
<weight id='4034' > lhapdf=13134 </weight>
<weight id='4035' > lhapdf=13135 </weight>
<weight id='4036' > lhapdf=13136 </weight>
<weight id='4037' > lhapdf=13137 </weight>
<weight id='4038' > lhapdf=13138 </weight>
<weight id='4039' > lhapdf=13139 </weight>
<weight id='4040' > lhapdf=13140 </weight>
<weight id='4041' > lhapdf=13141 </weight>
<weight id='4042' > lhapdf=13142 </weight>
<weight id='4043' > lhapdf=13143 </weight>
<weight id='4044' > lhapdf=13144 </weight>
<weight id='4045' > lhapdf=13145 </weight>
<weight id='4046' > lhapdf=13146 </weight>
<weight id='4047' > lhapdf=13147 </weight>
<weight id='4048' > lhapdf=13148 </weight>
<weight id='4049' > lhapdf=13149 </weight>
<weight id='4050' > lhapdf=13150 </weight>
<weight id='4051' > lhapdf=13151 </weight>
<weight id='4052' > lhapdf=13152 </weight>
<weight id='4053' > lhapdf=13153 </weight>
<weight id='4054' > lhapdf=13154 </weight>
<weight id='4055' > lhapdf=13155 </weight>
<weight id='4056' > lhapdf=13156 </weight>
<weight id='4060' > lhapdf=13163 </weight>
<weight id='4070' > lhapdf=13167 </weight>
<weight id='4080' > lhapdf=13200 </weight>
<weight id='6000' > lhapdf=25200 </weight>
<weight id='6001' > lhapdf=25201 </weight>
<weight id='6002' > lhapdf=25202 </weight>
<weight id='6003' > lhapdf=25203 </weight>
<weight id='6004' > lhapdf=25204 </weight>
<weight id='6005' > lhapdf=25205 </weight>
<weight id='6006' > lhapdf=25206 </weight>
<weight id='6007' > lhapdf=25207 </weight>
<weight id='6008' > lhapdf=25208 </weight>
<weight id='6009' > lhapdf=25209 </weight>
<weight id='6010' > lhapdf=25210 </weight>
<weight id='6011' > lhapdf=25211 </weight>
<weight id='6012' > lhapdf=25212 </weight>
<weight id='6013' > lhapdf=25213 </weight>
<weight id='6014' > lhapdf=25214 </weight>
<weight id='6015' > lhapdf=25215 </weight>
<weight id='6016' > lhapdf=25216 </weight>
<weight id='6017' > lhapdf=25217 </weight>
<weight id='6018' > lhapdf=25218 </weight>
<weight id='6019' > lhapdf=25219 </weight>
<weight id='6020' > lhapdf=25220 </weight>
<weight id='6021' > lhapdf=25221 </weight>
<weight id='6022' > lhapdf=25222 </weight>
<weight id='6023' > lhapdf=25223 </weight>
<weight id='6024' > lhapdf=25224 </weight>
<weight id='6025' > lhapdf=25225 </weight>
<weight id='6026' > lhapdf=25226 </weight>
<weight id='6027' > lhapdf=25227 </weight>
<weight id='6028' > lhapdf=25228 </weight>
<weight id='6029' > lhapdf=25229 </weight>
<weight id='6030' > lhapdf=25230 </weight>
<weight id='6031' > lhapdf=25231 </weight>
<weight id='6032' > lhapdf=25232 </weight>
<weight id='6033' > lhapdf=25233 </weight>
<weight id='6034' > lhapdf=25234 </weight>
<weight id='6035' > lhapdf=25235 </weight>
<weight id='6036' > lhapdf=25236 </weight>
<weight id='6037' > lhapdf=25237 </weight>
<weight id='6038' > lhapdf=25238 </weight>
<weight id='6039' > lhapdf=25239 </weight>
<weight id='6040' > lhapdf=25240 </weight>
<weight id='6041' > lhapdf=25241 </weight>
<weight id='6042' > lhapdf=25242 </weight>
<weight id='6043' > lhapdf=25243 </weight>
<weight id='6044' > lhapdf=25244 </weight>
<weight id='6045' > lhapdf=25245 </weight>
<weight id='6046' > lhapdf=25246 </weight>
<weight id='6047' > lhapdf=25247 </weight>
<weight id='6048' > lhapdf=25248 </weight>
<weight id='6049' > lhapdf=25249 </weight>
<weight id='6050' > lhapdf=25250 </weight>
<weight id='7000' > lhapdf=25300 </weight>
<weight id='7001' > lhapdf=25301 </weight>
<weight id='7002' > lhapdf=25302 </weight>
<weight id='7003' > lhapdf=25303 </weight>
<weight id='7004' > lhapdf=25304 </weight>
<weight id='7005' > lhapdf=25305 </weight>
<weight id='7006' > lhapdf=25306 </weight>
<weight id='7007' > lhapdf=25307 </weight>
<weight id='7008' > lhapdf=25308 </weight>
<weight id='7009' > lhapdf=25309 </weight>
<weight id='7010' > lhapdf=25310 </weight>
<weight id='7011' > lhapdf=25311 </weight>
<weight id='7012' > lhapdf=25312 </weight>
<weight id='7013' > lhapdf=25313 </weight>
<weight id='7014' > lhapdf=25314 </weight>
<weight id='7015' > lhapdf=25315 </weight>
<weight id='7016' > lhapdf=25316 </weight>
<weight id='7017' > lhapdf=25317 </weight>
<weight id='7018' > lhapdf=25318 </weight>
<weight id='7019' > lhapdf=25319 </weight>
<weight id='7020' > lhapdf=25320 </weight>
<weight id='7021' > lhapdf=25321 </weight>
<weight id='7022' > lhapdf=25322 </weight>
<weight id='7023' > lhapdf=25323 </weight>
<weight id='7024' > lhapdf=25324 </weight>
<weight id='7025' > lhapdf=25325 </weight>
<weight id='7026' > lhapdf=25326 </weight>
<weight id='7027' > lhapdf=25327 </weight>
<weight id='7028' > lhapdf=25328 </weight>
<weight id='7029' > lhapdf=25329 </weight>
<weight id='7030' > lhapdf=25330 </weight>
<weight id='7031' > lhapdf=25331 </weight>
<weight id='7032' > lhapdf=25332 </weight>
<weight id='7033' > lhapdf=25333 </weight>
<weight id='7034' > lhapdf=25334 </weight>
<weight id='7035' > lhapdf=25335 </weight>
<weight id='7036' > lhapdf=25336 </weight>
<weight id='7037' > lhapdf=25337 </weight>
<weight id='7038' > lhapdf=25338 </weight>
<weight id='7039' > lhapdf=25339 </weight>
<weight id='7040' > lhapdf=25340 </weight>
<weight id='7041' > lhapdf=25341 </weight>
<weight id='7042' > lhapdf=25342 </weight>
<weight id='7043' > lhapdf=25343 </weight>
<weight id='7044' > lhapdf=25344 </weight>
<weight id='7045' > lhapdf=25345 </weight>
<weight id='7046' > lhapdf=25346 </weight>
<weight id='7047' > lhapdf=25347 </weight>
<weight id='7048' > lhapdf=25348 </weight>
<weight id='7049' > lhapdf=25349 </weight>
<weight id='7050' > lhapdf=25350 </weight>
<weight id='7060' > lhapdf=25000 </weight>
<weight id='8000' > lhapdf=42780 </weight>
<weight id='8001' > lhapdf=42781 </weight>
<weight id='8002' > lhapdf=42782 </weight>
<weight id='8003' > lhapdf=42783 </weight>
<weight id='8004' > lhapdf=42784 </weight>
<weight id='8005' > lhapdf=42785 </weight>
<weight id='8006' > lhapdf=42786 </weight>
<weight id='8007' > lhapdf=42787 </weight>
<weight id='8008' > lhapdf=42788 </weight>
<weight id='8009' > lhapdf=42789 </weight>
<weight id='8010' > lhapdf=42790 </weight>
<weight id='8011' > lhapdf=42791 </weight>
<weight id='8012' > lhapdf=42792 </weight>
<weight id='8013' > lhapdf=42793 </weight>
<weight id='8014' > lhapdf=42794 </weight>
<weight id='8015' > lhapdf=42795 </weight>
<weight id='8016' > lhapdf=42796 </weight>
<weight id='8017' > lhapdf=42797 </weight>
<weight id='8018' > lhapdf=42798 </weight>
<weight id='8019' > lhapdf=42799 </weight>
<weight id='8020' > lhapdf=42800 </weight>
<weight id='8021' > lhapdf=42801 </weight>
<weight id='8022' > lhapdf=42802 </weight>
<weight id='8023' > lhapdf=42803 </weight>
<weight id='8024' > lhapdf=42804 </weight>
<weight id='8025' > lhapdf=42805 </weight>
<weight id='8026' > lhapdf=42806 </weight>
<weight id='8027' > lhapdf=42807 </weight>
<weight id='8028' > lhapdf=42808 </weight>
<weight id='8029' > lhapdf=42809 </weight>
<weight id='8500' > lhapdf=90200 </weight>
<weight id='8501' > lhapdf=90201 </weight>
<weight id='8502' > lhapdf=90202 </weight>
<weight id='8503' > lhapdf=90203 </weight>
<weight id='8504' > lhapdf=90204 </weight>
<weight id='8505' > lhapdf=90205 </weight>
<weight id='8506' > lhapdf=90206 </weight>
<weight id='8507' > lhapdf=90207 </weight>
<weight id='8508' > lhapdf=90208 </weight>
<weight id='8509' > lhapdf=90209 </weight>
<weight id='8510' > lhapdf=90210 </weight>
<weight id='8511' > lhapdf=90211 </weight>
<weight id='8512' > lhapdf=90212 </weight>
<weight id='8513' > lhapdf=90213 </weight>
<weight id='8514' > lhapdf=90214 </weight>
<weight id='8515' > lhapdf=90215 </weight>
<weight id='8516' > lhapdf=90216 </weight>
<weight id='8517' > lhapdf=90217 </weight>
<weight id='8518' > lhapdf=90218 </weight>
<weight id='8519' > lhapdf=90219 </weight>
<weight id='8520' > lhapdf=90220 </weight>
<weight id='8521' > lhapdf=90221 </weight>
<weight id='8522' > lhapdf=90222 </weight>
<weight id='8523' > lhapdf=90223 </weight>
<weight id='8524' > lhapdf=90224 </weight>
<weight id='8525' > lhapdf=90225 </weight>
<weight id='8526' > lhapdf=90226 </weight>
<weight id='8527' > lhapdf=90227 </weight>
<weight id='8528' > lhapdf=90228 </weight>
<weight id='8529' > lhapdf=90229 </weight>
<weight id='8530' > lhapdf=90230 </weight>
<weight id='8531' > lhapdf=90231 </weight>
<weight id='8532' > lhapdf=90232 </weight>
<weight id='8533' > lhapdf=90233 </weight>
<weight id='8534' > lhapdf=90234 </weight>
<weight id='8535' > lhapdf=90235 </weight>
<weight id='8536' > lhapdf=90236 </weight>
<weight id='8537' > lhapdf=90237 </weight>
<weight id='8538' > lhapdf=90238 </weight>
<weight id='8539' > lhapdf=90239 </weight>
<weight id='8540' > lhapdf=90240 </weight>
<weight id='8541' > lhapdf=90241 </weight>
<weight id='8542' > lhapdf=90242 </weight>
<weight id='8543' > lhapdf=90243 </weight>
<weight id='8544' > lhapdf=90244 </weight>
<weight id='8545' > lhapdf=90245 </weight>
<weight id='8546' > lhapdf=90246 </weight>
<weight id='8547' > lhapdf=90247 </weight>
<weight id='8548' > lhapdf=90248 </weight>
<weight id='8549' > lhapdf=90249 </weight>
<weight id='8550' > lhapdf=90250 </weight>
<weight id='8551' > lhapdf=90251 </weight>
<weight id='8552' > lhapdf=90252 </weight>
<weight id='8553' > lhapdf=90253 </weight>
<weight id='8554' > lhapdf=90254 </weight>
<weight id='8555' > lhapdf=90255 </weight>
<weight id='8556' > lhapdf=90256 </weight>
<weight id='8557' > lhapdf=90257 </weight>
<weight id='8558' > lhapdf=90258 </weight>
<weight id='8559' > lhapdf=90259 </weight>
<weight id='8560' > lhapdf=90260 </weight>
<weight id='8561' > lhapdf=90261 </weight>
<weight id='8562' > lhapdf=90262 </weight>
<weight id='8563' > lhapdf=90263 </weight>
<weight id='8564' > lhapdf=90264 </weight>
<weight id='8565' > lhapdf=90265 </weight>
<weight id='8566' > lhapdf=90266 </weight>
<weight id='8567' > lhapdf=90267 </weight>
<weight id='8568' > lhapdf=90268 </weight>
<weight id='8569' > lhapdf=90269 </weight>
<weight id='8570' > lhapdf=90270 </weight>
<weight id='8571' > lhapdf=90271 </weight>
<weight id='8572' > lhapdf=90272 </weight>
<weight id='8573' > lhapdf=90273 </weight>
<weight id='8574' > lhapdf=90274 </weight>
<weight id='8575' > lhapdf=90275 </weight>
<weight id='8576' > lhapdf=90276 </weight>
<weight id='8577' > lhapdf=90277 </weight>
<weight id='8578' > lhapdf=90278 </weight>
<weight id='8579' > lhapdf=90279 </weight>
<weight id='8580' > lhapdf=90280 </weight>
<weight id='8581' > lhapdf=90281 </weight>
<weight id='8582' > lhapdf=90282 </weight>
<weight id='8583' > lhapdf=90283 </weight>
<weight id='8584' > lhapdf=90284 </weight>
<weight id='8585' > lhapdf=90285 </weight>
<weight id='8586' > lhapdf=90286 </weight>
<weight id='8587' > lhapdf=90287 </weight>
<weight id='8588' > lhapdf=90288 </weight>
<weight id='8589' > lhapdf=90289 </weight>
<weight id='8590' > lhapdf=90290 </weight>
<weight id='8591' > lhapdf=90291 </weight>
<weight id='8592' > lhapdf=90292 </weight>
<weight id='8593' > lhapdf=90293 </weight>
<weight id='8594' > lhapdf=90294 </weight>
<weight id='8595' > lhapdf=90295 </weight>
<weight id='8596' > lhapdf=90296 </weight>
<weight id='8597' > lhapdf=90297 </weight>
<weight id='8598' > lhapdf=90298 </weight>
<weight id='8599' > lhapdf=90299 </weight>
<weight id='8600' > lhapdf=90300 </weight>
<weight id='8601' > lhapdf=90301 </weight>
<weight id='8602' > lhapdf=90302 </weight>
<weight id='9000' > lhapdf=91200 </weight>
<weight id='9001' > lhapdf=91201 </weight>
<weight id='9002' > lhapdf=91202 </weight>
<weight id='9003' > lhapdf=91203 </weight>
<weight id='9004' > lhapdf=91204 </weight>
<weight id='9005' > lhapdf=91205 </weight>
<weight id='9006' > lhapdf=91206 </weight>
<weight id='9007' > lhapdf=91207 </weight>
<weight id='9008' > lhapdf=91208 </weight>
<weight id='9009' > lhapdf=91209 </weight>
<weight id='9010' > lhapdf=91210 </weight>
<weight id='9011' > lhapdf=91211 </weight>
<weight id='9012' > lhapdf=91212 </weight>
<weight id='9013' > lhapdf=91213 </weight>
<weight id='9014' > lhapdf=91214 </weight>
<weight id='9015' > lhapdf=91215 </weight>
<weight id='9016' > lhapdf=91216 </weight>
<weight id='9017' > lhapdf=91217 </weight>
<weight id='9018' > lhapdf=91218 </weight>
<weight id='9019' > lhapdf=91219 </weight>
<weight id='9020' > lhapdf=91220 </weight>
<weight id='9021' > lhapdf=91221 </weight>
<weight id='9022' > lhapdf=91222 </weight>
<weight id='9023' > lhapdf=91223 </weight>
<weight id='9024' > lhapdf=91224 </weight>
<weight id='9025' > lhapdf=91225 </weight>
<weight id='9026' > lhapdf=91226 </weight>
<weight id='9027' > lhapdf=91227 </weight>
<weight id='9028' > lhapdf=91228 </weight>
<weight id='9029' > lhapdf=91229 </weight>
<weight id='9030' > lhapdf=91230 </weight>
<weight id='9031' > lhapdf=91231 </weight>
<weight id='9032' > lhapdf=91232 </weight>
<weight id='9033' > lhapdf=91233 </weight>
<weight id='9034' > lhapdf=91234 </weight>
<weight id='9035' > lhapdf=91235 </weight>
<weight id='9036' > lhapdf=91236 </weight>
<weight id='9037' > lhapdf=91237 </weight>
<weight id='9038' > lhapdf=91238 </weight>
<weight id='9039' > lhapdf=91239 </weight>
<weight id='9040' > lhapdf=91240 </weight>
<weight id='9041' > lhapdf=91241 </weight>
<weight id='9042' > lhapdf=91242 </weight>
<weight id='9043' > lhapdf=91243 </weight>
<weight id='9044' > lhapdf=91244 </weight>
<weight id='9045' > lhapdf=91245 </weight>
<weight id='9046' > lhapdf=91246 </weight>
<weight id='9047' > lhapdf=91247 </weight>
<weight id='9048' > lhapdf=91248 </weight>
<weight id='9049' > lhapdf=91249 </weight>
<weight id='9050' > lhapdf=91250 </weight>
<weight id='9051' > lhapdf=91251 </weight>
<weight id='9052' > lhapdf=91252 </weight>
<weight id='9053' > lhapdf=91253 </weight>
<weight id='9054' > lhapdf=91254 </weight>
<weight id='9055' > lhapdf=91255 </weight>
<weight id='9056' > lhapdf=91256 </weight>
<weight id='9057' > lhapdf=91257 </weight>
<weight id='9058' > lhapdf=91258 </weight>
<weight id='9059' > lhapdf=91259 </weight>
<weight id='9060' > lhapdf=91260 </weight>
<weight id='9061' > lhapdf=91261 </weight>
<weight id='9062' > lhapdf=91262 </weight>
<weight id='9063' > lhapdf=91263 </weight>
<weight id='9064' > lhapdf=91264 </weight>
<weight id='9065' > lhapdf=91265 </weight>
<weight id='9066' > lhapdf=91266 </weight>
<weight id='9067' > lhapdf=91267 </weight>
<weight id='9068' > lhapdf=91268 </weight>
<weight id='9069' > lhapdf=91269 </weight>
<weight id='9070' > lhapdf=91270 </weight>
<weight id='9071' > lhapdf=91271 </weight>
<weight id='9072' > lhapdf=91272 </weight>
<weight id='9073' > lhapdf=91273 </weight>
<weight id='9074' > lhapdf=91274 </weight>
<weight id='9075' > lhapdf=91275 </weight>
<weight id='9076' > lhapdf=91276 </weight>
<weight id='9077' > lhapdf=91277 </weight>
<weight id='9078' > lhapdf=91278 </weight>
<weight id='9079' > lhapdf=91279 </weight>
<weight id='9080' > lhapdf=91280 </weight>
<weight id='9081' > lhapdf=91281 </weight>
<weight id='9082' > lhapdf=91282 </weight>
<weight id='9083' > lhapdf=91283 </weight>
<weight id='9084' > lhapdf=91284 </weight>
<weight id='9085' > lhapdf=91285 </weight>
<weight id='9086' > lhapdf=91286 </weight>
<weight id='9087' > lhapdf=91287 </weight>
<weight id='9088' > lhapdf=91288 </weight>
<weight id='9089' > lhapdf=91289 </weight>
<weight id='9090' > lhapdf=91290 </weight>
<weight id='9091' > lhapdf=91291 </weight>
<weight id='9092' > lhapdf=91292 </weight>
<weight id='9093' > lhapdf=91293 </weight>
<weight id='9094' > lhapdf=91294 </weight>
<weight id='9095' > lhapdf=91295 </weight>
<weight id='9096' > lhapdf=91296 </weight>
<weight id='9097' > lhapdf=91297 </weight>
<weight id='9098' > lhapdf=91298 </weight>
<weight id='9099' > lhapdf=91299 </weight>
<weight id='9100' > lhapdf=91300 </weight>
<weight id='9101' > lhapdf=91301 </weight>
<weight id='9102' > lhapdf=91302 </weight>
<weight id='10000' > lhapdf=90400 </weight>
<weight id='10001' > lhapdf=90401 </weight>
<weight id='10002' > lhapdf=90402 </weight>
<weight id='10003' > lhapdf=90403 </weight>
<weight id='10004' > lhapdf=90404 </weight>
<weight id='10005' > lhapdf=90405 </weight>
<weight id='10006' > lhapdf=90406 </weight>
<weight id='10007' > lhapdf=90407 </weight>
<weight id='10008' > lhapdf=90408 </weight>
<weight id='10009' > lhapdf=90409 </weight>
<weight id='10010' > lhapdf=90410 </weight>
<weight id='10011' > lhapdf=90411 </weight>
<weight id='10012' > lhapdf=90412 </weight>
<weight id='10013' > lhapdf=90413 </weight>
<weight id='10014' > lhapdf=90414 </weight>
<weight id='10015' > lhapdf=90415 </weight>
<weight id='10016' > lhapdf=90416 </weight>
<weight id='10017' > lhapdf=90417 </weight>
<weight id='10018' > lhapdf=90418 </weight>
<weight id='10019' > lhapdf=90419 </weight>
<weight id='10020' > lhapdf=90420 </weight>
<weight id='10021' > lhapdf=90421 </weight>
<weight id='10022' > lhapdf=90422 </weight>
<weight id='10023' > lhapdf=90423 </weight>
<weight id='10024' > lhapdf=90424 </weight>
<weight id='10025' > lhapdf=90425 </weight>
<weight id='10026' > lhapdf=90426 </weight>
<weight id='10027' > lhapdf=90427 </weight>
<weight id='10028' > lhapdf=90428 </weight>
<weight id='10029' > lhapdf=90429 </weight>
<weight id='10030' > lhapdf=90430 </weight>
<weight id='10031' > lhapdf=90431 </weight>
<weight id='10032' > lhapdf=90432 </weight>
<weight id='11000' > lhapdf=91400 </weight>
<weight id='11001' > lhapdf=91401 </weight>
<weight id='11002' > lhapdf=91402 </weight>
<weight id='11003' > lhapdf=91403 </weight>
<weight id='11004' > lhapdf=91404 </weight>
<weight id='11005' > lhapdf=91405 </weight>
<weight id='11006' > lhapdf=91406 </weight>
<weight id='11007' > lhapdf=91407 </weight>
<weight id='11008' > lhapdf=91408 </weight>
<weight id='11009' > lhapdf=91409 </weight>
<weight id='11010' > lhapdf=91410 </weight>
<weight id='11011' > lhapdf=91411 </weight>
<weight id='11012' > lhapdf=91412 </weight>
<weight id='11013' > lhapdf=91413 </weight>
<weight id='11014' > lhapdf=91414 </weight>
<weight id='11015' > lhapdf=91415 </weight>
<weight id='11016' > lhapdf=91416 </weight>
<weight id='11017' > lhapdf=91417 </weight>
<weight id='11018' > lhapdf=91418 </weight>
<weight id='11019' > lhapdf=91419 </weight>
<weight id='11020' > lhapdf=91420 </weight>
<weight id='11021' > lhapdf=91421 </weight>
<weight id='11022' > lhapdf=91422 </weight>
<weight id='11023' > lhapdf=91423 </weight>
<weight id='11024' > lhapdf=91424 </weight>
<weight id='11025' > lhapdf=91425 </weight>
<weight id='11026' > lhapdf=91426 </weight>
<weight id='11027' > lhapdf=91427 </weight>
<weight id='11028' > lhapdf=91428 </weight>
<weight id='11029' > lhapdf=91429 </weight>
<weight id='11030' > lhapdf=91430 </weight>
<weight id='11031' > lhapdf=91431 </weight>
<weight id='11032' > lhapdf=91432 </weight>
<weight id='12000' > lhapdf=61100 </weight>
<weight id='12001' > lhapdf=61101 </weight>
<weight id='12002' > lhapdf=61102 </weight>
<weight id='12003' > lhapdf=61103 </weight>
<weight id='12004' > lhapdf=61104 </weight>
<weight id='12005' > lhapdf=61105 </weight>
<weight id='12006' > lhapdf=61106 </weight>
<weight id='12007' > lhapdf=61107 </weight>
<weight id='12008' > lhapdf=61108 </weight>
<weight id='12009' > lhapdf=61109 </weight>
<weight id='12010' > lhapdf=61110 </weight>
<weight id='12011' > lhapdf=61111 </weight>
<weight id='12012' > lhapdf=61112 </weight>
<weight id='12013' > lhapdf=61113 </weight>
<weight id='12014' > lhapdf=61114 </weight>
<weight id='12015' > lhapdf=61115 </weight>
<weight id='12016' > lhapdf=61116 </weight>
<weight id='12017' > lhapdf=61117 </weight>
<weight id='12018' > lhapdf=61118 </weight>
<weight id='12019' > lhapdf=61119 </weight>
<weight id='12020' > lhapdf=61120 </weight>
<weight id='12021' > lhapdf=61121 </weight>
<weight id='12022' > lhapdf=61122 </weight>
<weight id='12023' > lhapdf=61123 </weight>
<weight id='12024' > lhapdf=61124 </weight>
<weight id='12025' > lhapdf=61125 </weight>
<weight id='12026' > lhapdf=61126 </weight>
<weight id='12027' > lhapdf=61127 </weight>
<weight id='12028' > lhapdf=61128 </weight>
<weight id='12050' > lhapdf=61130 </weight>
<weight id='12051' > lhapdf=61131 </weight>
<weight id='12052' > lhapdf=61132 </weight>
<weight id='12053' > lhapdf=61133 </weight>
<weight id='12054' > lhapdf=61134 </weight>
<weight id='12055' > lhapdf=61135 </weight>
<weight id='12056' > lhapdf=61136 </weight>
<weight id='12057' > lhapdf=61137 </weight>
<weight id='12058' > lhapdf=61138 </weight>
<weight id='12059' > lhapdf=61139 </weight>
<weight id='12060' > lhapdf=61140 </weight>
<weight id='12061' > lhapdf=61141 </weight>
<weight id='12062' > lhapdf=61142 </weight>
<weight id='12063' > lhapdf=61143 </weight>
<weight id='13000' > lhapdf=61200 </weight>
<weight id='13001' > lhapdf=61201 </weight>
<weight id='13002' > lhapdf=61202 </weight>
<weight id='13003' > lhapdf=61203 </weight>
<weight id='13004' > lhapdf=61204 </weight>
<weight id='13005' > lhapdf=61205 </weight>
<weight id='13006' > lhapdf=61206 </weight>
<weight id='13007' > lhapdf=61207 </weight>
<weight id='13008' > lhapdf=61208 </weight>
<weight id='13009' > lhapdf=61209 </weight>
<weight id='13010' > lhapdf=61210 </weight>
<weight id='13011' > lhapdf=61211 </weight>
<weight id='13012' > lhapdf=61212 </weight>
<weight id='13013' > lhapdf=61213 </weight>
<weight id='13014' > lhapdf=61214 </weight>
<weight id='13015' > lhapdf=61215 </weight>
<weight id='13016' > lhapdf=61216 </weight>
<weight id='13017' > lhapdf=61217 </weight>
<weight id='13018' > lhapdf=61218 </weight>
<weight id='13019' > lhapdf=61219 </weight>
<weight id='13020' > lhapdf=61220 </weight>
<weight id='13021' > lhapdf=61221 </weight>
<weight id='13022' > lhapdf=61222 </weight>
<weight id='13023' > lhapdf=61223 </weight>
<weight id='13024' > lhapdf=61224 </weight>
<weight id='13025' > lhapdf=61225 </weight>
<weight id='13026' > lhapdf=61226 </weight>
<weight id='13027' > lhapdf=61227 </weight>
<weight id='13028' > lhapdf=61228 </weight>
<weight id='13050' > lhapdf=61230 </weight>
<weight id='13051' > lhapdf=61231 </weight>
<weight id='13052' > lhapdf=61232 </weight>
<weight id='13053' > lhapdf=61233 </weight>
<weight id='13054' > lhapdf=61234 </weight>
<weight id='13055' > lhapdf=61235 </weight>
<weight id='13056' > lhapdf=61236 </weight>
<weight id='13057' > lhapdf=61237 </weight>
<weight id='13058' > lhapdf=61238 </weight>
<weight id='13059' > lhapdf=61239 </weight>
<weight id='13060' > lhapdf=61240 </weight>
<weight id='13061' > lhapdf=61241 </weight>
<weight id='13062' > lhapdf=61242 </weight>
<weight id='13063' > lhapdf=61243 </weight>
<weight id='14000' > lhapdf=13400 </weight>
<weight id='14001' > lhapdf=13401 </weight>
<weight id='14002' > lhapdf=13402 </weight>
<weight id='14003' > lhapdf=13403 </weight>
<weight id='14004' > lhapdf=13404 </weight>
<weight id='14005' > lhapdf=13405 </weight>
<weight id='14006' > lhapdf=13406 </weight>
<weight id='14007' > lhapdf=13407 </weight>
<weight id='14008' > lhapdf=13408 </weight>
<weight id='14009' > lhapdf=13409 </weight>
<weight id='14010' > lhapdf=13410 </weight>
<weight id='14011' > lhapdf=13411 </weight>
<weight id='14012' > lhapdf=13412 </weight>
<weight id='14013' > lhapdf=13413 </weight>
<weight id='14014' > lhapdf=13414 </weight>
<weight id='14015' > lhapdf=13415 </weight>
<weight id='14016' > lhapdf=13416 </weight>
<weight id='14017' > lhapdf=13417 </weight>
<weight id='14018' > lhapdf=13418 </weight>
<weight id='14019' > lhapdf=13419 </weight>
<weight id='14020' > lhapdf=13420 </weight>
<weight id='14021' > lhapdf=13421 </weight>
<weight id='14022' > lhapdf=13422 </weight>
<weight id='14023' > lhapdf=13423 </weight>
<weight id='14024' > lhapdf=13424 </weight>
<weight id='14025' > lhapdf=13425 </weight>
<weight id='14026' > lhapdf=13426 </weight>
<weight id='14027' > lhapdf=13427 </weight>
<weight id='14028' > lhapdf=13428 </weight>
<weight id='14029' > lhapdf=13429 </weight>
<weight id='14030' > lhapdf=13430 </weight>
<weight id='15000' > lhapdf=82200 </weight>
<weight id='15001' > lhapdf=82201 </weight>
<weight id='15002' > lhapdf=82202 </weight>
<weight id='15003' > lhapdf=82203 </weight>
<weight id='15004' > lhapdf=82204 </weight>
<weight id='15005' > lhapdf=82205 </weight>
<weight id='15006' > lhapdf=82206 </weight>
<weight id='15007' > lhapdf=82207 </weight>
<weight id='15008' > lhapdf=82208 </weight>
<weight id='15009' > lhapdf=82209 </weight>
<weight id='15010' > lhapdf=82210 </weight>
<weight id='15011' > lhapdf=82211 </weight>
<weight id='15012' > lhapdf=82212 </weight>
<weight id='15013' > lhapdf=82213 </weight>
<weight id='15014' > lhapdf=82214 </weight>
<weight id='15015' > lhapdf=82215 </weight>
<weight id='15016' > lhapdf=82216 </weight>
<weight id='15017' > lhapdf=82217 </weight>
<weight id='15018' > lhapdf=82218 </weight>
<weight id='15019' > lhapdf=82219 </weight>
<weight id='15020' > lhapdf=82220 </weight>
<weight id='15021' > lhapdf=82221 </weight>
<weight id='15022' > lhapdf=82222 </weight>
<weight id='15023' > lhapdf=82223 </weight>
<weight id='15024' > lhapdf=82224 </weight>
<weight id='15025' > lhapdf=82225 </weight>
<weight id='15026' > lhapdf=82226 </weight>
<weight id='15027' > lhapdf=82227 </weight>
<weight id='15028' > lhapdf=82228 </weight>
<weight id='15029' > lhapdf=82229 </weight>
<weight id='15030' > lhapdf=82230 </weight>
<weight id='15031' > lhapdf=82231 </weight>
<weight id='15032' > lhapdf=82232 </weight>
<weight id='15033' > lhapdf=82233 </weight>
<weight id='15034' > lhapdf=82234 </weight>
<weight id='15035' > lhapdf=82235 </weight>
<weight id='15036' > lhapdf=82236 </weight>
<weight id='15037' > lhapdf=82237 </weight>
<weight id='15038' > lhapdf=82238 </weight>
<weight id='15039' > lhapdf=82239 </weight>
<weight id='15040' > lhapdf=82240 </weight>
<weight id='15041' > lhapdf=82241 </weight>
<weight id='15042' > lhapdf=82242 </weight>
<weight id='15043' > lhapdf=82243 </weight>
<weight id='15044' > lhapdf=82244 </weight>
<weight id='15045' > lhapdf=82245 </weight>
<weight id='15046' > lhapdf=82246 </weight>
<weight id='15047' > lhapdf=82247 </weight>
<weight id='15048' > lhapdf=82248 </weight>
<weight id='15049' > lhapdf=82249 </weight>
<weight id='15050' > lhapdf=82250 </weight>
<weight id='15051' > lhapdf=82251 </weight>
<weight id='15052' > lhapdf=82252 </weight>
<weight id='15053' > lhapdf=82253 </weight>
<weight id='15054' > lhapdf=82254 </weight>
<weight id='15055' > lhapdf=82255 </weight>
<weight id='15056' > lhapdf=82256 </weight>
<weight id='15057' > lhapdf=82257 </weight>
<weight id='15058' > lhapdf=82258 </weight>
<weight id='15059' > lhapdf=82259 </weight>
<weight id='15060' > lhapdf=82260 </weight>
<weight id='15061' > lhapdf=82261 </weight>
<weight id='15062' > lhapdf=82262 </weight>
<weight id='15063' > lhapdf=82263 </weight>
<weight id='15064' > lhapdf=82264 </weight>
<weight id='15065' > lhapdf=82265 </weight>
<weight id='15066' > lhapdf=82266 </weight>
<weight id='15067' > lhapdf=82267 </weight>
<weight id='15068' > lhapdf=82268 </weight>
<weight id='15069' > lhapdf=82269 </weight>
<weight id='15070' > lhapdf=82270 </weight>
<weight id='15071' > lhapdf=82271 </weight>
<weight id='15072' > lhapdf=82272 </weight>
<weight id='15073' > lhapdf=82273 </weight>
<weight id='15074' > lhapdf=82274 </weight>
<weight id='15075' > lhapdf=82275 </weight>
<weight id='15076' > lhapdf=82276 </weight>
<weight id='15077' > lhapdf=82277 </weight>
<weight id='15078' > lhapdf=82278 </weight>
<weight id='15079' > lhapdf=82279 </weight>
<weight id='15080' > lhapdf=82280 </weight>
<weight id='15081' > lhapdf=82281 </weight>
<weight id='15082' > lhapdf=82282 </weight>
<weight id='15083' > lhapdf=82283 </weight>
<weight id='15084' > lhapdf=82284 </weight>
<weight id='15085' > lhapdf=82285 </weight>
<weight id='15086' > lhapdf=82286 </weight>
<weight id='15087' > lhapdf=82287 </weight>
<weight id='15088' > lhapdf=82288 </weight>
<weight id='15089' > lhapdf=82289 </weight>
<weight id='15090' > lhapdf=82290 </weight>
<weight id='15091' > lhapdf=82291 </weight>
<weight id='15092' > lhapdf=82292 </weight>
<weight id='15093' > lhapdf=82293 </weight>
<weight id='15094' > lhapdf=82294 </weight>
<weight id='15095' > lhapdf=82295 </weight>
<weight id='15096' > lhapdf=82296 </weight>
<weight id='15097' > lhapdf=82297 </weight>
<weight id='15098' > lhapdf=82298 </weight>
<weight id='15099' > lhapdf=82299 </weight>
<weight id='15100' > lhapdf=82300 </weight>
<weight id='15101' > lhapdf=82301 </weight>
<weight id='15102' > lhapdf=82302 </weight>
<weight id='15103' > lhapdf=82303 </weight>
<weight id='15104' > lhapdf=82304 </weight>
<weight id='15105' > lhapdf=82305 </weight>
<weight id='15106' > lhapdf=82306 </weight>
<weight id='15107' > lhapdf=82307 </weight>
</weightgroup>
<weightgroup name='PDF_variation2' combine='replica' >
<weight id='1500' > lhapdf=292200 </weight>
<weight id='1501' > lhapdf=292201 </weight>
<weight id='1502' > lhapdf=292202 </weight>
<weight id='1503' > lhapdf=292203 </weight>
<weight id='1504' > lhapdf=292204 </weight>
<weight id='1505' > lhapdf=292205 </weight>
<weight id='1506' > lhapdf=292206 </weight>
<weight id='1507' > lhapdf=292207 </weight>
<weight id='1508' > lhapdf=292208 </weight>
<weight id='1509' > lhapdf=292209 </weight>
<weight id='1510' > lhapdf=292210 </weight>
<weight id='1511' > lhapdf=292211 </weight>
<weight id='1512' > lhapdf=292212 </weight>
<weight id='1513' > lhapdf=292213 </weight>
<weight id='1514' > lhapdf=292214 </weight>
<weight id='1515' > lhapdf=292215 </weight>
<weight id='1516' > lhapdf=292216 </weight>
<weight id='1517' > lhapdf=292217 </weight>
<weight id='1518' > lhapdf=292218 </weight>
<weight id='1519' > lhapdf=292219 </weight>
<weight id='1520' > lhapdf=292220 </weight>
<weight id='1521' > lhapdf=292221 </weight>
<weight id='1522' > lhapdf=292222 </weight>
<weight id='1523' > lhapdf=292223 </weight>
<weight id='1524' > lhapdf=292224 </weight>
<weight id='1525' > lhapdf=292225 </weight>
<weight id='1526' > lhapdf=292226 </weight>
<weight id='1527' > lhapdf=292227 </weight>
<weight id='1528' > lhapdf=292228 </weight>
<weight id='1529' > lhapdf=292229 </weight>
<weight id='1530' > lhapdf=292230 </weight>
<weight id='1531' > lhapdf=292231 </weight>
<weight id='1532' > lhapdf=292232 </weight>
<weight id='1533' > lhapdf=292233 </weight>
<weight id='1534' > lhapdf=292234 </weight>
<weight id='1535' > lhapdf=292235 </weight>
<weight id='1536' > lhapdf=292236 </weight>
<weight id='1537' > lhapdf=292237 </weight>
<weight id='1538' > lhapdf=292238 </weight>
<weight id='1539' > lhapdf=292239 </weight>
<weight id='1540' > lhapdf=292240 </weight>
<weight id='1541' > lhapdf=292241 </weight>
<weight id='1542' > lhapdf=292242 </weight>
<weight id='1543' > lhapdf=292243 </weight>
<weight id='1544' > lhapdf=292244 </weight>
<weight id='1545' > lhapdf=292245 </weight>
<weight id='1546' > lhapdf=292246 </weight>
<weight id='1547' > lhapdf=292247 </weight>
<weight id='1548' > lhapdf=292248 </weight>
<weight id='1549' > lhapdf=292249 </weight>
<weight id='1550' > lhapdf=292250 </weight>
<weight id='1551' > lhapdf=292251 </weight>
<weight id='1552' > lhapdf=292252 </weight>
<weight id='1553' > lhapdf=292253 </weight>
<weight id='1554' > lhapdf=292254 </weight>
<weight id='1555' > lhapdf=292255 </weight>
<weight id='1556' > lhapdf=292256 </weight>
<weight id='1557' > lhapdf=292257 </weight>
<weight id='1558' > lhapdf=292258 </weight>
<weight id='1559' > lhapdf=292259 </weight>
<weight id='1560' > lhapdf=292260 </weight>
<weight id='1561' > lhapdf=292261 </weight>
<weight id='1562' > lhapdf=292262 </weight>
<weight id='1563' > lhapdf=292263 </weight>
<weight id='1564' > lhapdf=292264 </weight>
<weight id='1565' > lhapdf=292265 </weight>
<weight id='1566' > lhapdf=292266 </weight>
<weight id='1567' > lhapdf=292267 </weight>
<weight id='1568' > lhapdf=292268 </weight>
<weight id='1569' > lhapdf=292269 </weight>
<weight id='1570' > lhapdf=292270 </weight>
<weight id='1571' > lhapdf=292271 </weight>
<weight id='1572' > lhapdf=292272 </weight>
<weight id='1573' > lhapdf=292273 </weight>
<weight id='1574' > lhapdf=292274 </weight>
<weight id='1575' > lhapdf=292275 </weight>
<weight id='1576' > lhapdf=292276 </weight>
<weight id='1577' > lhapdf=292277 </weight>
<weight id='1578' > lhapdf=292278 </weight>
<weight id='1579' > lhapdf=292279 </weight>
<weight id='1580' > lhapdf=292280 </weight>
<weight id='1581' > lhapdf=292281 </weight>
<weight id='1582' > lhapdf=292282 </weight>
<weight id='1583' > lhapdf=292283 </weight>
<weight id='1584' > lhapdf=292284 </weight>
<weight id='1585' > lhapdf=292285 </weight>
<weight id='1586' > lhapdf=292286 </weight>
<weight id='1587' > lhapdf=292287 </weight>
<weight id='1588' > lhapdf=292288 </weight>
<weight id='1589' > lhapdf=292289 </weight>
<weight id='1590' > lhapdf=292290 </weight>
<weight id='1591' > lhapdf=292291 </weight>
<weight id='1592' > lhapdf=292292 </weight>
<weight id='1593' > lhapdf=292293 </weight>
<weight id='1594' > lhapdf=292294 </weight>
<weight id='1595' > lhapdf=292295 </weight>
<weight id='1596' > lhapdf=292296 </weight>
<weight id='1597' > lhapdf=292297 </weight>
<weight id='1598' > lhapdf=292298 </weight>
<weight id='1599' > lhapdf=292299 </weight>
<weight id='1600' > lhapdf=292300 </weight>
<weight id='1601' > lhapdf=292301 </weight>
<weight id='1602' > lhapdf=292302 </weight>
<weight id='1700' > lhapdf=292600 </weight>
<weight id='1800' > lhapdf=315000 </weight>
<weight id='1850' > lhapdf=315200 </weight>
<weight id='1900' > lhapdf=262000 </weight>
<weight id='1950' > lhapdf=263000 </weight>
</weightgroup>
</initrwgt>
</header>
<init>
     2212     2212  6.50000E+03  6.50000E+03      0      0 306000 306000     -4      1
  31.512022837576325   2.3207922372193365E-002  1.00000000000E-00 9999
</init>
<event>
      4   9999  3.15120E+01  3.76795E+01 -1.00000E+00  1.44236E-01
      21    -1     0     0   502   511  0.000000000E+00  0.000000000E+00  7.937571947E+02  7.937571947E+02  0.000000000E+00  0.00000E+00  9.000E+00
      21    -1     0     0   501   502  0.000000000E+00  0.000000000E+00 -9.394960208E+01  9.394960208E+01  0.000000000E+00  0.00000E+00  9.000E+00
      25     1     1     2     0     0 -3.370302739E+01  1.684782005E+01 -5.116759567E+01  1.357869363E+02  1.200009422E+02  0.00000E+00  9.000E+00
      21     1     1     2   501   511  3.370302739E+01 -1.684782005E+01  7.509751883E+02  7.519198605E+02  0.000000000E+00  0.00000E+00  9.000E+00
#rwgt            1           1   26.920429550851274                1           1           0
<rwgt>
<wgt id='1001'>0.31512E+02</wgt>
<wgt id='1002'>0.30723E+02</wgt>
<wgt id='1003'>0.31913E+02</wgt>
<wgt id='1004'>0.29055E+02</wgt>
<wgt id='1005'>0.28729E+02</wgt>
<wgt id='1006'>0.28990E+02</wgt>
<wgt id='1007'>0.33484E+02</wgt>
<wgt id='1008'>0.31916E+02</wgt>
<wgt id='1009'>0.34703E+02</wgt>
<wgt id='2000'>0.31512E+02</wgt>
<wgt id='2001'>0.31479E+02</wgt>
<wgt id='2002'>0.31671E+02</wgt>
<wgt id='2003'>0.31662E+02</wgt>
<wgt id='2004'>0.31548E+02</wgt>
<wgt id='2005'>0.31416E+02</wgt>
<wgt id='2006'>0.31408E+02</wgt>
<wgt id='2007'>0.31356E+02</wgt>
<wgt id='2008'>0.31444E+02</wgt>
<wgt id='2009'>0.31551E+02</wgt>
<wgt id='2010'>0.31486E+02</wgt>
<wgt id='2011'>0.31703E+02</wgt>
<wgt id='2012'>0.31729E+02</wgt>
<wgt id='2013'>0.31874E+02</wgt>
<wgt id='2014'>0.31650E+02</wgt>
<wgt id='2015'>0.31592E+02</wgt>
<wgt id='2016'>0.31410E+02</wgt>
<wgt id='2017'>0.31509E+02</wgt>
<wgt id='2018'>0.31663E+02</wgt>
<wgt id='2019'>0.31490E+02</wgt>
<wgt id='2020'>0.31606E+02</wgt>
<wgt id='2021'>0.31461E+02</wgt>
<wgt id='2022'>0.31516E+02</wgt>
<wgt id='2023'>0.31534E+02</wgt>
<wgt id='2024'>0.31542E+02</wgt>
<wgt id='2025'>0.31482E+02</wgt>
<wgt id='2026'>0.31485E+02</wgt>
<wgt id='2027'>0.31505E+02</wgt>
<wgt id='2028'>0.31525E+02</wgt>
<wgt id='2029'>0.31539E+02</wgt>
<wgt id='2030'>0.31527E+02</wgt>
<wgt id='2031'>0.31512E+02</wgt>
<wgt id='2032'>0.31523E+02</wgt>
<wgt id='2033'>0.31520E+02</wgt>
<wgt id='2034'>0.31519E+02</wgt>
<wgt id='2035'>0.31509E+02</wgt>
<wgt id='2036'>0.31508E+02</wgt>
<wgt id='2037'>0.31519E+02</wgt>
<wgt id='2038'>0.31510E+02</wgt>
<wgt id='2039'>0.31498E+02</wgt>
<wgt id='2040'>0.31506E+02</wgt>
<wgt id='2041'>0.31507E+02</wgt>
<wgt id='2042'>0.31505E+02</wgt>
<wgt id='2043'>0.31508E+02</wgt>
<wgt id='2044'>0.31521E+02</wgt>
<wgt id='2045'>0.31510E+02</wgt>
<wgt id='2046'>0.31524E+02</wgt>
<wgt id='2047'>0.31520E+02</wgt>
<wgt id='2048'>0.31507E+02</wgt>
<wgt id='2049'>0.31509E+02</wgt>
<wgt id='2050'>0.31520E+02</wgt>
<wgt id='2051'>0.31518E+02</wgt>
<wgt id='2052'>0.31509E+02</wgt>
<wgt id='2053'>0.31514E+02</wgt>
<wgt id='2054'>0.31514E+02</wgt>
<wgt id='2055'>0.31512E+02</wgt>
<wgt id='2056'>0.31511E+02</wgt>
<wgt id='2057'>0.31513E+02</wgt>
<wgt id='2058'>0.31514E+02</wgt>
<wgt id='2059'>0.31508E+02</wgt>
<wgt id='2060'>0.31511E+02</wgt>
<wgt id='2061'>0.31509E+02</wgt>
<wgt id='2062'>0.31515E+02</wgt>
<wgt id='2063'>0.31510E+02</wgt>
<wgt id='2064'>0.31510E+02</wgt>
<wgt id='2065'>0.31517E+02</wgt>
<wgt id='2066'>0.31512E+02</wgt>
<wgt id='2067'>0.31513E+02</wgt>
<wgt id='2068'>0.31514E+02</wgt>
<wgt id='2069'>0.31508E+02</wgt>
<wgt id='2070'>0.31508E+02</wgt>
<wgt id='2071'>0.31505E+02</wgt>
<wgt id='2072'>0.31512E+02</wgt>
<wgt id='2073'>0.31512E+02</wgt>
<wgt id='2074'>0.31505E+02</wgt>
<wgt id='2075'>0.31513E+02</wgt>
<wgt id='2076'>0.31507E+02</wgt>
<wgt id='2077'>0.31511E+02</wgt>
<wgt id='2078'>0.31514E+02</wgt>
<wgt id='2079'>0.31512E+02</wgt>
<wgt id='2080'>0.31511E+02</wgt>
<wgt id='2081'>0.31514E+02</wgt>
<wgt id='2082'>0.31512E+02</wgt>
<wgt id='2083'>0.31513E+02</wgt>
<wgt id='2084'>0.31514E+02</wgt>
<wgt id='2085'>0.31514E+02</wgt>
<wgt id='2086'>0.31509E+02</wgt>
<wgt id='2087'>0.31511E+02</wgt>
<wgt id='2088'>0.31514E+02</wgt>
<wgt id='2089'>0.31510E+02</wgt>
<wgt id='2090'>0.31512E+02</wgt>
<wgt id='2091'>0.31512E+02</wgt>
<wgt id='2092'>0.31514E+02</wgt>
<wgt id='2093'>0.31511E+02</wgt>
<wgt id='2094'>0.31515E+02</wgt>
<wgt id='2095'>0.31513E+02</wgt>
<wgt id='2096'>0.31511E+02</wgt>
<wgt id='2097'>0.31512E+02</wgt>
<wgt id='2098'>0.31512E+02</wgt>
<wgt id='2099'>0.31512E+02</wgt>
<wgt id='2100'>0.31513E+02</wgt>
<wgt id='2101'>0.30949E+02</wgt>
<wgt id='2102'>0.31941E+02</wgt>
<wgt id='2104'>0.28977E+02</wgt>
<wgt id='2105'>0.29376E+02</wgt>
<wgt id='2106'>0.29888E+02</wgt>
<wgt id='2107'>0.30511E+02</wgt>
<wgt id='2108'>0.31342E+02</wgt>
<wgt id='2109'>0.31837E+02</wgt>
<wgt id='2110'>0.32391E+02</wgt>
<wgt id='2111'>0.32865E+02</wgt>
<wgt id='3000'>0.32774E+02</wgt>
<wgt id='3001'>0.32917E+02</wgt>
<wgt id='3002'>0.32612E+02</wgt>
<wgt id='3003'>0.32927E+02</wgt>
<wgt id='3004'>0.32854E+02</wgt>
<wgt id='3005'>0.32967E+02</wgt>
<wgt id='3006'>0.32836E+02</wgt>
<wgt id='3007'>0.32862E+02</wgt>
<wgt id='3008'>0.32653E+02</wgt>
<wgt id='3009'>0.32733E+02</wgt>
<wgt id='3010'>0.32623E+02</wgt>
<wgt id='3011'>0.32871E+02</wgt>
<wgt id='3012'>0.33069E+02</wgt>
<wgt id='3013'>0.32435E+02</wgt>
<wgt id='3014'>0.32940E+02</wgt>
<wgt id='3015'>0.32937E+02</wgt>
<wgt id='3016'>0.32790E+02</wgt>
<wgt id='3017'>0.32957E+02</wgt>
<wgt id='3018'>0.32810E+02</wgt>
<wgt id='3019'>0.32636E+02</wgt>
<wgt id='3020'>0.32771E+02</wgt>
<wgt id='3021'>0.32696E+02</wgt>
<wgt id='3022'>0.32766E+02</wgt>
<wgt id='3023'>0.32751E+02</wgt>
<wgt id='3024'>0.32807E+02</wgt>
<wgt id='3025'>0.32781E+02</wgt>
<wgt id='3026'>0.32755E+02</wgt>
<wgt id='3027'>0.32791E+02</wgt>
<wgt id='3028'>0.32790E+02</wgt>
<wgt id='3029'>0.32795E+02</wgt>
<wgt id='3030'>0.32799E+02</wgt>
<wgt id='3031'>0.32782E+02</wgt>
<wgt id='3032'>0.32754E+02</wgt>
<wgt id='3033'>0.32766E+02</wgt>
<wgt id='3034'>0.32769E+02</wgt>
<wgt id='3035'>0.32796E+02</wgt>
<wgt id='3036'>0.32784E+02</wgt>
<wgt id='3037'>0.32774E+02</wgt>
<wgt id='3038'>0.32774E+02</wgt>
<wgt id='3039'>0.32785E+02</wgt>
<wgt id='3040'>0.32762E+02</wgt>
<wgt id='3041'>0.32770E+02</wgt>
<wgt id='3042'>0.32768E+02</wgt>
<wgt id='3043'>0.32767E+02</wgt>
<wgt id='3044'>0.32780E+02</wgt>
<wgt id='3045'>0.32782E+02</wgt>
<wgt id='3046'>0.32783E+02</wgt>
<wgt id='3047'>0.32774E+02</wgt>
<wgt id='3048'>0.32774E+02</wgt>
<wgt id='3049'>0.32771E+02</wgt>
<wgt id='3050'>0.32767E+02</wgt>
<wgt id='3051'>0.32783E+02</wgt>
<wgt id='3052'>0.32768E+02</wgt>
<wgt id='3053'>0.32771E+02</wgt>
<wgt id='3054'>0.32773E+02</wgt>
<wgt id='3055'>0.32767E+02</wgt>
<wgt id='3056'>0.32775E+02</wgt>
<wgt id='3057'>0.32773E+02</wgt>
<wgt id='3058'>0.32769E+02</wgt>
<wgt id='3059'>0.32774E+02</wgt>
<wgt id='3060'>0.32777E+02</wgt>
<wgt id='3061'>0.32778E+02</wgt>
<wgt id='3062'>0.32779E+02</wgt>
<wgt id='3063'>0.32778E+02</wgt>
<wgt id='3064'>0.32772E+02</wgt>
<wgt id='3065'>0.32774E+02</wgt>
<wgt id='3066'>0.32776E+02</wgt>
<wgt id='3067'>0.32767E+02</wgt>
<wgt id='3068'>0.32776E+02</wgt>
<wgt id='3069'>0.32771E+02</wgt>
<wgt id='3070'>0.32773E+02</wgt>
<wgt id='3071'>0.32773E+02</wgt>
<wgt id='3072'>0.32776E+02</wgt>
<wgt id='3073'>0.32770E+02</wgt>
<wgt id='3074'>0.32778E+02</wgt>
<wgt id='3075'>0.32776E+02</wgt>
<wgt id='3076'>0.32773E+02</wgt>
<wgt id='3077'>0.32774E+02</wgt>
<wgt id='3078'>0.32777E+02</wgt>
<wgt id='3079'>0.32774E+02</wgt>
<wgt id='3080'>0.32774E+02</wgt>
<wgt id='3081'>0.32775E+02</wgt>
<wgt id='3082'>0.32773E+02</wgt>
<wgt id='3083'>0.32772E+02</wgt>
<wgt id='3084'>0.32773E+02</wgt>
<wgt id='3085'>0.32773E+02</wgt>
<wgt id='3086'>0.32771E+02</wgt>
<wgt id='3087'>0.32772E+02</wgt>
<wgt id='3088'>0.32774E+02</wgt>
<wgt id='3089'>0.32774E+02</wgt>
<wgt id='3090'>0.32774E+02</wgt>
<wgt id='3091'>0.32775E+02</wgt>
<wgt id='3092'>0.32776E+02</wgt>
<wgt id='3093'>0.32773E+02</wgt>
<wgt id='3094'>0.32775E+02</wgt>
<wgt id='3095'>0.32774E+02</wgt>
<wgt id='3096'>0.32775E+02</wgt>
<wgt id='3097'>0.32773E+02</wgt>
<wgt id='3098'>0.32776E+02</wgt>
<wgt id='3099'>0.32775E+02</wgt>
<wgt id='3100'>0.32773E+02</wgt>
<wgt id='3101'>0.32241E+02</wgt>
<wgt id='3102'>0.33438E+02</wgt>
<wgt id='5000'>0.30611E+02</wgt>
<wgt id='5001'>0.30470E+02</wgt>
<wgt id='5002'>0.30569E+02</wgt>
<wgt id='5003'>0.30368E+02</wgt>
<wgt id='5004'>0.30742E+02</wgt>
<wgt id='5005'>0.29816E+02</wgt>
<wgt id='5006'>0.31334E+02</wgt>
<wgt id='5007'>0.30887E+02</wgt>
<wgt id='5008'>0.30129E+02</wgt>
<wgt id='5009'>0.31086E+02</wgt>
<wgt id='5010'>0.30368E+02</wgt>
<wgt id='5011'>0.30545E+02</wgt>
<wgt id='5012'>0.30595E+02</wgt>
<wgt id='5013'>0.29826E+02</wgt>
<wgt id='5014'>0.30549E+02</wgt>
<wgt id='5015'>0.30885E+02</wgt>
<wgt id='5016'>0.29781E+02</wgt>
<wgt id='5017'>0.30741E+02</wgt>
<wgt id='5018'>0.30470E+02</wgt>
<wgt id='5019'>0.30415E+02</wgt>
<wgt id='5020'>0.30768E+02</wgt>
<wgt id='5021'>0.30747E+02</wgt>
<wgt id='5022'>0.30524E+02</wgt>
<wgt id='5023'>0.30540E+02</wgt>
<wgt id='5024'>0.30679E+02</wgt>
<wgt id='5025'>0.30539E+02</wgt>
<wgt id='5026'>0.30669E+02</wgt>
<wgt id='5027'>0.30983E+02</wgt>
<wgt id='5028'>0.29986E+02</wgt>
<wgt id='5029'>0.29938E+02</wgt>
<wgt id='5030'>0.31015E+02</wgt>
<wgt id='5031'>0.30216E+02</wgt>
<wgt id='5032'>0.31181E+02</wgt>
<wgt id='5033'>0.30312E+02</wgt>
<wgt id='5034'>0.30868E+02</wgt>
<wgt id='5035'>0.30021E+02</wgt>
<wgt id='5036'>0.31092E+02</wgt>
<wgt id='5037'>0.30647E+02</wgt>
<wgt id='5038'>0.30550E+02</wgt>
<wgt id='5039'>0.31166E+02</wgt>
<wgt id='5040'>0.30328E+02</wgt>
<wgt id='5041'>0.30187E+02</wgt>
<wgt id='5042'>0.30686E+02</wgt>
<wgt id='5043'>0.30981E+02</wgt>
<wgt id='5044'>0.29645E+02</wgt>
<wgt id='5045'>0.31712E+02</wgt>
<wgt id='5046'>0.30354E+02</wgt>
<wgt id='5047'>0.30870E+02</wgt>
<wgt id='5048'>0.30781E+02</wgt>
<wgt id='5049'>0.30632E+02</wgt>
<wgt id='5050'>0.30670E+02</wgt>
<wgt id='5051'>0.30711E+02</wgt>
<wgt id='5052'>0.30566E+02</wgt>
<wgt id='5053'>0.30455E+02</wgt>
<wgt id='5054'>0.31616E+02</wgt>
<wgt id='5055'>0.30418E+02</wgt>
<wgt id='5056'>0.30765E+02</wgt>
<wgt id='5060'>0.30186E+02</wgt>
<wgt id='5070'>0.30899E+02</wgt>
<wgt id='4000'>0.32343E+02</wgt>
<wgt id='4001'>0.32374E+02</wgt>
<wgt id='4002'>0.32448E+02</wgt>
<wgt id='4003'>0.33380E+02</wgt>
<wgt id='4004'>0.31944E+02</wgt>
<wgt id='4005'>0.32478E+02</wgt>
<wgt id='4006'>0.32215E+02</wgt>
<wgt id='4007'>0.32817E+02</wgt>
<wgt id='4008'>0.32158E+02</wgt>
<wgt id='4009'>0.31516E+02</wgt>
<wgt id='4010'>0.33022E+02</wgt>
<wgt id='4011'>0.32896E+02</wgt>
<wgt id='4012'>0.32031E+02</wgt>
<wgt id='4013'>0.30908E+02</wgt>
<wgt id='4014'>0.33185E+02</wgt>
<wgt id='4015'>0.32617E+02</wgt>
<wgt id='4016'>0.32163E+02</wgt>
<wgt id='4017'>0.32035E+02</wgt>
<wgt id='4018'>0.32711E+02</wgt>
<wgt id='4019'>0.32801E+02</wgt>
<wgt id='4020'>0.31826E+02</wgt>
<wgt id='4021'>0.32438E+02</wgt>
<wgt id='4022'>0.32140E+02</wgt>
<wgt id='4023'>0.32145E+02</wgt>
<wgt id='4024'>0.32519E+02</wgt>
<wgt id='4025'>0.31724E+02</wgt>
<wgt id='4026'>0.32916E+02</wgt>
<wgt id='4027'>0.32202E+02</wgt>
<wgt id='4028'>0.32532E+02</wgt>
<wgt id='4029'>0.32059E+02</wgt>
<wgt id='4030'>0.32441E+02</wgt>
<wgt id='4031'>0.32384E+02</wgt>
<wgt id='4032'>0.32290E+02</wgt>
<wgt id='4033'>0.32350E+02</wgt>
<wgt id='4034'>0.32318E+02</wgt>
<wgt id='4035'>0.32966E+02</wgt>
<wgt id='4036'>0.31740E+02</wgt>
<wgt id='4037'>0.32670E+02</wgt>
<wgt id='4038'>0.31805E+02</wgt>
<wgt id='4039'>0.32329E+02</wgt>
<wgt id='4040'>0.32289E+02</wgt>
<wgt id='4041'>0.32685E+02</wgt>
<wgt id='4042'>0.32011E+02</wgt>
<wgt id='4043'>0.32717E+02</wgt>
<wgt id='4044'>0.31889E+02</wgt>
<wgt id='4045'>0.31949E+02</wgt>
<wgt id='4046'>0.32138E+02</wgt>
<wgt id='4047'>0.31821E+02</wgt>
<wgt id='4048'>0.32905E+02</wgt>
<wgt id='4049'>0.32659E+02</wgt>
<wgt id='4050'>0.31560E+02</wgt>
<wgt id='4051'>0.32276E+02</wgt>
<wgt id='4052'>0.32248E+02</wgt>
<wgt id='4053'>0.31499E+02</wgt>
<wgt id='4054'>0.32586E+02</wgt>
<wgt id='4055'>0.32065E+02</wgt>
<wgt id='4056'>0.32587E+02</wgt>
<wgt id='4060'>0.31746E+02</wgt>
<wgt id='4070'>0.32836E+02</wgt>
<wgt id='4080'>0.31909E+02</wgt>
<wgt id='6000'>0.32926E+02</wgt>
<wgt id='6001'>0.32940E+02</wgt>
<wgt id='6002'>0.32910E+02</wgt>
<wgt id='6003'>0.32940E+02</wgt>
<wgt id='6004'>0.32916E+02</wgt>
<wgt id='6005'>0.33023E+02</wgt>
<wgt id='6006'>0.32835E+02</wgt>
<wgt id='6007'>0.32773E+02</wgt>
<wgt id='6008'>0.33097E+02</wgt>
<wgt id='6009'>0.33038E+02</wgt>
<wgt id='6010'>0.32816E+02</wgt>
<wgt id='6011'>0.33001E+02</wgt>
<wgt id='6012'>0.32760E+02</wgt>
<wgt id='6013'>0.32888E+02</wgt>
<wgt id='6014'>0.32993E+02</wgt>
<wgt id='6015'>0.32814E+02</wgt>
<wgt id='6016'>0.32989E+02</wgt>
<wgt id='6017'>0.32724E+02</wgt>
<wgt id='6018'>0.33163E+02</wgt>
<wgt id='6019'>0.32978E+02</wgt>
<wgt id='6020'>0.32881E+02</wgt>
<wgt id='6021'>0.32845E+02</wgt>
<wgt id='6022'>0.33034E+02</wgt>
<wgt id='6023'>0.32681E+02</wgt>
<wgt id='6024'>0.33096E+02</wgt>
<wgt id='6025'>0.32439E+02</wgt>
<wgt id='6026'>0.33370E+02</wgt>
<wgt id='6027'>0.33018E+02</wgt>
<wgt id='6028'>0.32927E+02</wgt>
<wgt id='6029'>0.33171E+02</wgt>
<wgt id='6030'>0.32640E+02</wgt>
<wgt id='6031'>0.32997E+02</wgt>
<wgt id='6032'>0.32834E+02</wgt>
<wgt id='6033'>0.32983E+02</wgt>
<wgt id='6034'>0.32863E+02</wgt>
<wgt id='6035'>0.32894E+02</wgt>
<wgt id='6036'>0.33067E+02</wgt>
<wgt id='6037'>0.32990E+02</wgt>
<wgt id='6038'>0.32918E+02</wgt>
<wgt id='6039'>0.32900E+02</wgt>
<wgt id='6040'>0.32954E+02</wgt>
<wgt id='6041'>0.32867E+02</wgt>
<wgt id='6042'>0.32999E+02</wgt>
<wgt id='6043'>0.33380E+02</wgt>
<wgt id='6044'>0.32703E+02</wgt>
<wgt id='6045'>0.32894E+02</wgt>
<wgt id='6046'>0.33006E+02</wgt>
<wgt id='6047'>0.32754E+02</wgt>
<wgt id='6048'>0.32799E+02</wgt>
<wgt id='6049'>0.32848E+02</wgt>
<wgt id='6050'>0.32941E+02</wgt>
<wgt id='7000'>0.30871E+02</wgt>
<wgt id='7001'>0.30860E+02</wgt>
<wgt id='7002'>0.30888E+02</wgt>
<wgt id='7003'>0.30977E+02</wgt>
<wgt id='7004'>0.30767E+02</wgt>
<wgt id='7005'>0.30934E+02</wgt>
<wgt id='7006'>0.30848E+02</wgt>
<wgt id='7007'>0.30738E+02</wgt>
<wgt id='7008'>0.31006E+02</wgt>
<wgt id='7009'>0.30929E+02</wgt>
<wgt id='7010'>0.30817E+02</wgt>
<wgt id='7011'>0.30555E+02</wgt>
<wgt id='7012'>0.31011E+02</wgt>
<wgt id='7013'>0.30874E+02</wgt>
<wgt id='7014'>0.30870E+02</wgt>
<wgt id='7015'>0.30778E+02</wgt>
<wgt id='7016'>0.30974E+02</wgt>
<wgt id='7017'>0.30797E+02</wgt>
<wgt id='7018'>0.30912E+02</wgt>
<wgt id='7019'>0.30831E+02</wgt>
<wgt id='7020'>0.30928E+02</wgt>
<wgt id='7021'>0.30852E+02</wgt>
<wgt id='7022'>0.30885E+02</wgt>
<wgt id='7023'>0.31272E+02</wgt>
<wgt id='7024'>0.30486E+02</wgt>
<wgt id='7025'>0.31026E+02</wgt>
<wgt id='7026'>0.30498E+02</wgt>
<wgt id='7027'>0.31023E+02</wgt>
<wgt id='7028'>0.30801E+02</wgt>
<wgt id='7029'>0.30701E+02</wgt>
<wgt id='7030'>0.31326E+02</wgt>
<wgt id='7031'>0.30879E+02</wgt>
<wgt id='7032'>0.30865E+02</wgt>
<wgt id='7033'>0.30820E+02</wgt>
<wgt id='7034'>0.30991E+02</wgt>
<wgt id='7035'>0.30981E+02</wgt>
<wgt id='7036'>0.30839E+02</wgt>
<wgt id='7037'>0.30887E+02</wgt>
<wgt id='7038'>0.30876E+02</wgt>
<wgt id='7039'>0.30849E+02</wgt>
<wgt id='7040'>0.30888E+02</wgt>
<wgt id='7041'>0.30808E+02</wgt>
<wgt id='7042'>0.30907E+02</wgt>
<wgt id='7043'>0.30901E+02</wgt>
<wgt id='7044'>0.30706E+02</wgt>
<wgt id='7045'>0.30634E+02</wgt>
<wgt id='7046'>0.30895E+02</wgt>
<wgt id='7047'>0.30867E+02</wgt>
<wgt id='7048'>0.30859E+02</wgt>
<wgt id='7049'>0.30874E+02</wgt>
<wgt id='7050'>0.30755E+02</wgt>
<wgt id='7060'>0.45942E+02</wgt>
<wgt id='8000'>0.31282E+02</wgt>
<wgt id='8001'>0.31274E+02</wgt>
<wgt id='8002'>0.31292E+02</wgt>
<wgt id='8003'>0.31285E+02</wgt>
<wgt id='8004'>0.31281E+02</wgt>
<wgt id='8005'>0.31198E+02</wgt>
<wgt id='8006'>0.31256E+02</wgt>
<wgt id='8007'>0.31228E+02</wgt>
<wgt id='8008'>0.31339E+02</wgt>
<wgt id='8009'>0.31402E+02</wgt>
<wgt id='8010'>0.31286E+02</wgt>
<wgt id='8011'>0.31262E+02</wgt>
<wgt id='8012'>0.31253E+02</wgt>
<wgt id='8013'>0.31284E+02</wgt>
<wgt id='8014'>0.31254E+02</wgt>
<wgt id='8015'>0.31257E+02</wgt>
<wgt id='8016'>0.31288E+02</wgt>
<wgt id='8017'>0.31290E+02</wgt>
<wgt id='8018'>0.31267E+02</wgt>
<wgt id='8019'>0.31347E+02</wgt>
<wgt id='8020'>0.31158E+02</wgt>
<wgt id='8021'>0.31291E+02</wgt>
<wgt id='8022'>0.31056E+02</wgt>
<wgt id='8023'>0.31329E+02</wgt>
<wgt id='8024'>0.31377E+02</wgt>
<wgt id='8025'>0.31416E+02</wgt>
<wgt id='8026'>0.31354E+02</wgt>
<wgt id='8027'>0.31215E+02</wgt>
<wgt id='8028'>0.31315E+02</wgt>
<wgt id='8029'>0.31048E+02</wgt>
<wgt id='8500'>0.32410E+02</wgt>
<wgt id='8501'>0.32370E+02</wgt>
<wgt id='8502'>0.32778E+02</wgt>
<wgt id='8503'>0.32667E+02</wgt>
<wgt id='8504'>0.32333E+02</wgt>
<wgt id='8505'>0.32225E+02</wgt>
<wgt id='8506'>0.32288E+02</wgt>
<wgt id='8507'>0.32662E+02</wgt>
<wgt id='8508'>0.33029E+02</wgt>
<wgt id='8509'>0.32136E+02</wgt>
<wgt id='8510'>0.32938E+02</wgt>
<wgt id='8511'>0.32438E+02</wgt>
<wgt id='8512'>0.31963E+02</wgt>
<wgt id='8513'>0.32465E+02</wgt>
<wgt id='8514'>0.32310E+02</wgt>
<wgt id='8515'>0.32391E+02</wgt>
<wgt id='8516'>0.32534E+02</wgt>
<wgt id='8517'>0.32387E+02</wgt>
<wgt id='8518'>0.32321E+02</wgt>
<wgt id='8519'>0.32320E+02</wgt>
<wgt id='8520'>0.32443E+02</wgt>
<wgt id='8521'>0.32266E+02</wgt>
<wgt id='8522'>0.32428E+02</wgt>
<wgt id='8523'>0.32365E+02</wgt>
<wgt id='8524'>0.32413E+02</wgt>
<wgt id='8525'>0.32369E+02</wgt>
<wgt id='8526'>0.32362E+02</wgt>
<wgt id='8527'>0.32417E+02</wgt>
<wgt id='8528'>0.32324E+02</wgt>
<wgt id='8529'>0.32392E+02</wgt>
<wgt id='8530'>0.32401E+02</wgt>
<wgt id='8531'>0.32399E+02</wgt>
<wgt id='8532'>0.32415E+02</wgt>
<wgt id='8533'>0.32346E+02</wgt>
<wgt id='8534'>0.32421E+02</wgt>
<wgt id='8535'>0.32479E+02</wgt>
<wgt id='8536'>0.32385E+02</wgt>
<wgt id='8537'>0.32423E+02</wgt>
<wgt id='8538'>0.32378E+02</wgt>
<wgt id='8539'>0.32416E+02</wgt>
<wgt id='8540'>0.32411E+02</wgt>
<wgt id='8541'>0.32424E+02</wgt>
<wgt id='8542'>0.32431E+02</wgt>
<wgt id='8543'>0.32384E+02</wgt>
<wgt id='8544'>0.32438E+02</wgt>
<wgt id='8545'>0.32436E+02</wgt>
<wgt id='8546'>0.32441E+02</wgt>
<wgt id='8547'>0.32383E+02</wgt>
<wgt id='8548'>0.32379E+02</wgt>
<wgt id='8549'>0.32411E+02</wgt>
<wgt id='8550'>0.32417E+02</wgt>
<wgt id='8551'>0.32381E+02</wgt>
<wgt id='8552'>0.32418E+02</wgt>
<wgt id='8553'>0.32399E+02</wgt>
<wgt id='8554'>0.32398E+02</wgt>
<wgt id='8555'>0.32414E+02</wgt>
<wgt id='8556'>0.32408E+02</wgt>
<wgt id='8557'>0.32402E+02</wgt>
<wgt id='8558'>0.32442E+02</wgt>
<wgt id='8559'>0.32395E+02</wgt>
<wgt id='8560'>0.32377E+02</wgt>
<wgt id='8561'>0.32405E+02</wgt>
<wgt id='8562'>0.32385E+02</wgt>
<wgt id='8563'>0.32412E+02</wgt>
<wgt id='8564'>0.32403E+02</wgt>
<wgt id='8565'>0.32407E+02</wgt>
<wgt id='8566'>0.32401E+02</wgt>
<wgt id='8567'>0.32406E+02</wgt>
<wgt id='8568'>0.32420E+02</wgt>
<wgt id='8569'>0.32418E+02</wgt>
<wgt id='8570'>0.32410E+02</wgt>
<wgt id='8571'>0.32397E+02</wgt>
<wgt id='8572'>0.32400E+02</wgt>
<wgt id='8573'>0.32397E+02</wgt>
<wgt id='8574'>0.32419E+02</wgt>
<wgt id='8575'>0.32407E+02</wgt>
<wgt id='8576'>0.32405E+02</wgt>
<wgt id='8577'>0.32410E+02</wgt>
<wgt id='8578'>0.32413E+02</wgt>
<wgt id='8579'>0.32426E+02</wgt>
<wgt id='8580'>0.32409E+02</wgt>
<wgt id='8581'>0.32415E+02</wgt>
<wgt id='8582'>0.32389E+02</wgt>
<wgt id='8583'>0.32423E+02</wgt>
<wgt id='8584'>0.32415E+02</wgt>
<wgt id='8585'>0.32416E+02</wgt>
<wgt id='8586'>0.32422E+02</wgt>
<wgt id='8587'>0.32404E+02</wgt>
<wgt id='8588'>0.32401E+02</wgt>
<wgt id='8589'>0.32411E+02</wgt>
<wgt id='8590'>0.32407E+02</wgt>
<wgt id='8591'>0.32407E+02</wgt>
<wgt id='8592'>0.32409E+02</wgt>
<wgt id='8593'>0.32398E+02</wgt>
<wgt id='8594'>0.32415E+02</wgt>
<wgt id='8595'>0.32414E+02</wgt>
<wgt id='8596'>0.32402E+02</wgt>
<wgt id='8597'>0.32413E+02</wgt>
<wgt id='8598'>0.32416E+02</wgt>
<wgt id='8599'>0.32414E+02</wgt>
<wgt id='8600'>0.32409E+02</wgt>
<wgt id='8601'>0.31972E+02</wgt>
<wgt id='8602'>0.32743E+02</wgt>
<wgt id='9000'>0.30811E+02</wgt>
<wgt id='9001'>0.30873E+02</wgt>
<wgt id='9002'>0.30996E+02</wgt>
<wgt id='9003'>0.30494E+02</wgt>
<wgt id='9004'>0.30734E+02</wgt>
<wgt id='9005'>0.30982E+02</wgt>
<wgt id='9006'>0.30702E+02</wgt>
<wgt id='9007'>0.30828E+02</wgt>
<wgt id='9008'>0.30887E+02</wgt>
<wgt id='9009'>0.30785E+02</wgt>
<wgt id='9010'>0.30769E+02</wgt>
<wgt id='9011'>0.31181E+02</wgt>
<wgt id='9012'>0.30329E+02</wgt>
<wgt id='9013'>0.30338E+02</wgt>
<wgt id='9014'>0.30379E+02</wgt>
<wgt id='9015'>0.30772E+02</wgt>
<wgt id='9016'>0.30913E+02</wgt>
<wgt id='9017'>0.30862E+02</wgt>
<wgt id='9018'>0.30820E+02</wgt>
<wgt id='9019'>0.30778E+02</wgt>
<wgt id='9020'>0.30931E+02</wgt>
<wgt id='9021'>0.30785E+02</wgt>
<wgt id='9022'>0.30842E+02</wgt>
<wgt id='9023'>0.30773E+02</wgt>
<wgt id='9024'>0.30767E+02</wgt>
<wgt id='9025'>0.30866E+02</wgt>
<wgt id='9026'>0.30826E+02</wgt>
<wgt id='9027'>0.30777E+02</wgt>
<wgt id='9028'>0.30835E+02</wgt>
<wgt id='9029'>0.30838E+02</wgt>
<wgt id='9030'>0.30822E+02</wgt>
<wgt id='9031'>0.30804E+02</wgt>
<wgt id='9032'>0.30834E+02</wgt>
<wgt id='9033'>0.30853E+02</wgt>
<wgt id='9034'>0.30791E+02</wgt>
<wgt id='9035'>0.30862E+02</wgt>
<wgt id='9036'>0.30808E+02</wgt>
<wgt id='9037'>0.30839E+02</wgt>
<wgt id='9038'>0.30811E+02</wgt>
<wgt id='9039'>0.30816E+02</wgt>
<wgt id='9040'>0.30774E+02</wgt>
<wgt id='9041'>0.30797E+02</wgt>
<wgt id='9042'>0.30805E+02</wgt>
<wgt id='9043'>0.30788E+02</wgt>
<wgt id='9044'>0.30820E+02</wgt>
<wgt id='9045'>0.30805E+02</wgt>
<wgt id='9046'>0.30769E+02</wgt>
<wgt id='9047'>0.30795E+02</wgt>
<wgt id='9048'>0.30820E+02</wgt>
<wgt id='9049'>0.30796E+02</wgt>
<wgt id='9050'>0.30817E+02</wgt>
<wgt id='9051'>0.30822E+02</wgt>
<wgt id='9052'>0.30818E+02</wgt>
<wgt id='9053'>0.30816E+02</wgt>
<wgt id='9054'>0.30796E+02</wgt>
<wgt id='9055'>0.30804E+02</wgt>
<wgt id='9056'>0.30838E+02</wgt>
<wgt id='9057'>0.30808E+02</wgt>
<wgt id='9058'>0.30792E+02</wgt>
<wgt id='9059'>0.30798E+02</wgt>
<wgt id='9060'>0.30801E+02</wgt>
<wgt id='9061'>0.30815E+02</wgt>
<wgt id='9062'>0.30815E+02</wgt>
<wgt id='9063'>0.30824E+02</wgt>
<wgt id='9064'>0.30804E+02</wgt>
<wgt id='9065'>0.30811E+02</wgt>
<wgt id='9066'>0.30814E+02</wgt>
<wgt id='9067'>0.30821E+02</wgt>
<wgt id='9068'>0.30818E+02</wgt>
<wgt id='9069'>0.30827E+02</wgt>
<wgt id='9070'>0.30807E+02</wgt>
<wgt id='9071'>0.30828E+02</wgt>
<wgt id='9072'>0.30829E+02</wgt>
<wgt id='9073'>0.30803E+02</wgt>
<wgt id='9074'>0.30814E+02</wgt>
<wgt id='9075'>0.30808E+02</wgt>
<wgt id='9076'>0.30808E+02</wgt>
<wgt id='9077'>0.30816E+02</wgt>
<wgt id='9078'>0.30813E+02</wgt>
<wgt id='9079'>0.30807E+02</wgt>
<wgt id='9080'>0.30830E+02</wgt>
<wgt id='9081'>0.30807E+02</wgt>
<wgt id='9082'>0.30817E+02</wgt>
<wgt id='9083'>0.30802E+02</wgt>
<wgt id='9084'>0.30804E+02</wgt>
<wgt id='9085'>0.30804E+02</wgt>
<wgt id='9086'>0.30814E+02</wgt>
<wgt id='9087'>0.30795E+02</wgt>
<wgt id='9088'>0.30806E+02</wgt>
<wgt id='9089'>0.30805E+02</wgt>
<wgt id='9090'>0.30816E+02</wgt>
<wgt id='9091'>0.30809E+02</wgt>
<wgt id='9092'>0.30811E+02</wgt>
<wgt id='9093'>0.30806E+02</wgt>
<wgt id='9094'>0.30810E+02</wgt>
<wgt id='9095'>0.30814E+02</wgt>
<wgt id='9096'>0.30805E+02</wgt>
<wgt id='9097'>0.30813E+02</wgt>
<wgt id='9098'>0.30811E+02</wgt>
<wgt id='9099'>0.30804E+02</wgt>
<wgt id='9100'>0.30810E+02</wgt>
<wgt id='9101'>0.30529E+02</wgt>
<wgt id='9102'>0.30973E+02</wgt>
<wgt id='10000'>0.32407E+02</wgt>
<wgt id='10001'>0.32557E+02</wgt>
<wgt id='10002'>0.32445E+02</wgt>
<wgt id='10003'>0.32421E+02</wgt>
<wgt id='10004'>0.32601E+02</wgt>
<wgt id='10005'>0.33479E+02</wgt>
<wgt id='10006'>0.32427E+02</wgt>
<wgt id='10007'>0.32402E+02</wgt>
<wgt id='10008'>0.32435E+02</wgt>
<wgt id='10009'>0.32366E+02</wgt>
<wgt id='10010'>0.32398E+02</wgt>
<wgt id='10011'>0.32395E+02</wgt>
<wgt id='10012'>0.32351E+02</wgt>
<wgt id='10013'>0.32393E+02</wgt>
<wgt id='10014'>0.32436E+02</wgt>
<wgt id='10015'>0.32452E+02</wgt>
<wgt id='10016'>0.32444E+02</wgt>
<wgt id='10017'>0.32162E+02</wgt>
<wgt id='10018'>0.32433E+02</wgt>
<wgt id='10019'>0.32343E+02</wgt>
<wgt id='10020'>0.32434E+02</wgt>
<wgt id='10021'>0.32417E+02</wgt>
<wgt id='10022'>0.32406E+02</wgt>
<wgt id='10023'>0.32424E+02</wgt>
<wgt id='10024'>0.32419E+02</wgt>
<wgt id='10025'>0.32393E+02</wgt>
<wgt id='10026'>0.32383E+02</wgt>
<wgt id='10027'>0.32387E+02</wgt>
<wgt id='10028'>0.32404E+02</wgt>
<wgt id='10029'>0.32439E+02</wgt>
<wgt id='10030'>0.32393E+02</wgt>
<wgt id='10031'>0.31972E+02</wgt>
<wgt id='10032'>0.32743E+02</wgt>
<wgt id='11000'>0.30808E+02</wgt>
<wgt id='11001'>0.30894E+02</wgt>
<wgt id='11002'>0.30919E+02</wgt>
<wgt id='11003'>0.30773E+02</wgt>
<wgt id='11004'>0.30927E+02</wgt>
<wgt id='11005'>0.30335E+02</wgt>
<wgt id='11006'>0.30793E+02</wgt>
<wgt id='11007'>0.30739E+02</wgt>
<wgt id='11008'>0.30735E+02</wgt>
<wgt id='11009'>0.30639E+02</wgt>
<wgt id='11010'>0.30909E+02</wgt>
<wgt id='11011'>0.30608E+02</wgt>
<wgt id='11012'>0.30841E+02</wgt>
<wgt id='11013'>0.30942E+02</wgt>
<wgt id='11014'>0.30697E+02</wgt>
<wgt id='11015'>0.30762E+02</wgt>
<wgt id='11016'>0.30772E+02</wgt>
<wgt id='11017'>0.31096E+02</wgt>
<wgt id='11018'>0.30815E+02</wgt>
<wgt id='11019'>0.30800E+02</wgt>
<wgt id='11020'>0.30839E+02</wgt>
<wgt id='11021'>0.30929E+02</wgt>
<wgt id='11022'>0.31504E+02</wgt>
<wgt id='11023'>0.30787E+02</wgt>
<wgt id='11024'>0.30772E+02</wgt>
<wgt id='11025'>0.30716E+02</wgt>
<wgt id='11026'>0.30804E+02</wgt>
<wgt id='11027'>0.30808E+02</wgt>
<wgt id='11028'>0.30785E+02</wgt>
<wgt id='11029'>0.30767E+02</wgt>
<wgt id='11030'>0.30815E+02</wgt>
<wgt id='11031'>0.30529E+02</wgt>
<wgt id='11032'>0.30973E+02</wgt>
<wgt id='12000'>0.34805E+02</wgt>
<wgt id='12001'>0.34754E+02</wgt>
<wgt id='12002'>0.34856E+02</wgt>
<wgt id='12003'>0.34903E+02</wgt>
<wgt id='12004'>0.34707E+02</wgt>
<wgt id='12005'>0.34865E+02</wgt>
<wgt id='12006'>0.34745E+02</wgt>
<wgt id='12007'>0.34903E+02</wgt>
<wgt id='12008'>0.34710E+02</wgt>
<wgt id='12009'>0.34869E+02</wgt>
<wgt id='12010'>0.34743E+02</wgt>
<wgt id='12011'>0.34767E+02</wgt>
<wgt id='12012'>0.34847E+02</wgt>
<wgt id='12013'>0.34657E+02</wgt>
<wgt id='12014'>0.34955E+02</wgt>
<wgt id='12015'>0.34803E+02</wgt>
<wgt id='12016'>0.34757E+02</wgt>
<wgt id='12017'>0.34903E+02</wgt>
<wgt id='12018'>0.34685E+02</wgt>
<wgt id='12019'>0.34660E+02</wgt>
<wgt id='12020'>0.34948E+02</wgt>
<wgt id='12021'>0.34967E+02</wgt>
<wgt id='12022'>0.34598E+02</wgt>
<wgt id='12023'>0.34688E+02</wgt>
<wgt id='12024'>0.34733E+02</wgt>
<wgt id='12025'>0.34941E+02</wgt>
<wgt id='12026'>0.34723E+02</wgt>
<wgt id='12027'>0.34696E+02</wgt>
<wgt id='12028'>0.34948E+02</wgt>
<wgt id='12050'>0.34805E+02</wgt>
<wgt id='12051'>0.34767E+02</wgt>
<wgt id='12052'>0.34838E+02</wgt>
<wgt id='12053'>0.34759E+02</wgt>
<wgt id='12054'>0.34827E+02</wgt>
<wgt id='12055'>0.34912E+02</wgt>
<wgt id='12056'>0.34458E+02</wgt>
<wgt id='12057'>0.34643E+02</wgt>
<wgt id='12058'>0.34952E+02</wgt>
<wgt id='12059'>0.34689E+02</wgt>
<wgt id='12060'>0.34929E+02</wgt>
<wgt id='12061'>0.34831E+02</wgt>
<wgt id='12062'>0.34881E+02</wgt>
<wgt id='12063'>0.34448E+02</wgt>
<wgt id='13000'>0.31094E+02</wgt>
<wgt id='13001'>0.31069E+02</wgt>
<wgt id='13002'>0.31115E+02</wgt>
<wgt id='13003'>0.31142E+02</wgt>
<wgt id='13004'>0.31042E+02</wgt>
<wgt id='13005'>0.31174E+02</wgt>
<wgt id='13006'>0.31010E+02</wgt>
<wgt id='13007'>0.31233E+02</wgt>
<wgt id='13008'>0.30954E+02</wgt>
<wgt id='13009'>0.31113E+02</wgt>
<wgt id='13010'>0.31073E+02</wgt>
<wgt id='13011'>0.31166E+02</wgt>
<wgt id='13012'>0.31019E+02</wgt>
<wgt id='13013'>0.30992E+02</wgt>
<wgt id='13014'>0.31192E+02</wgt>
<wgt id='13015'>0.31036E+02</wgt>
<wgt id='13016'>0.31125E+02</wgt>
<wgt id='13017'>0.31071E+02</wgt>
<wgt id='13018'>0.31105E+02</wgt>
<wgt id='13019'>0.31037E+02</wgt>
<wgt id='13020'>0.31144E+02</wgt>
<wgt id='13021'>0.30782E+02</wgt>
<wgt id='13022'>0.31354E+02</wgt>
<wgt id='13023'>0.31122E+02</wgt>
<wgt id='13024'>0.31056E+02</wgt>
<wgt id='13025'>0.31040E+02</wgt>
<wgt id='13026'>0.31059E+02</wgt>
<wgt id='13027'>0.31116E+02</wgt>
<wgt id='13028'>0.31105E+02</wgt>
<wgt id='13050'>0.31094E+02</wgt>
<wgt id='13051'>0.31095E+02</wgt>
<wgt id='13052'>0.31039E+02</wgt>
<wgt id='13053'>0.31084E+02</wgt>
<wgt id='13054'>0.31084E+02</wgt>
<wgt id='13055'>0.31078E+02</wgt>
<wgt id='13056'>0.31113E+02</wgt>
<wgt id='13057'>0.30968E+02</wgt>
<wgt id='13058'>0.31275E+02</wgt>
<wgt id='13059'>0.30980E+02</wgt>
<wgt id='13060'>0.31252E+02</wgt>
<wgt id='13061'>0.31000E+02</wgt>
<wgt id='13062'>0.31358E+02</wgt>
<wgt id='13063'>0.30850E+02</wgt>
<wgt id='14000'>0.32224E+02</wgt>
<wgt id='14001'>0.32219E+02</wgt>
<wgt id='14002'>0.32214E+02</wgt>
<wgt id='14003'>0.32210E+02</wgt>
<wgt id='14004'>0.32204E+02</wgt>
<wgt id='14005'>0.32199E+02</wgt>
<wgt id='14006'>0.32194E+02</wgt>
<wgt id='14007'>0.32189E+02</wgt>
<wgt id='14008'>0.32184E+02</wgt>
<wgt id='14009'>0.32179E+02</wgt>
<wgt id='14010'>0.32174E+02</wgt>
<wgt id='14011'>0.32169E+02</wgt>
<wgt id='14012'>0.32164E+02</wgt>
<wgt id='14013'>0.32159E+02</wgt>
<wgt id='14014'>0.32154E+02</wgt>
<wgt id='14015'>0.32149E+02</wgt>
<wgt id='14016'>0.32144E+02</wgt>
<wgt id='14017'>0.32139E+02</wgt>
<wgt id='14018'>0.32134E+02</wgt>
<wgt id='14019'>0.32129E+02</wgt>
<wgt id='14020'>0.32124E+02</wgt>
<wgt id='14021'>0.32119E+02</wgt>
<wgt id='14022'>0.32114E+02</wgt>
<wgt id='14023'>0.32109E+02</wgt>
<wgt id='14024'>0.32104E+02</wgt>
<wgt id='14025'>0.32099E+02</wgt>
<wgt id='14026'>0.32094E+02</wgt>
<wgt id='14027'>0.32089E+02</wgt>
<wgt id='14028'>0.32084E+02</wgt>
<wgt id='14029'>0.32079E+02</wgt>
<wgt id='14030'>0.32074E+02</wgt>
<wgt id='15000'>0.30435E+02</wgt>
<wgt id='15001'>0.30494E+02</wgt>
<wgt id='15002'>0.30617E+02</wgt>
<wgt id='15003'>0.30124E+02</wgt>
<wgt id='15004'>0.30359E+02</wgt>
<wgt id='15005'>0.30605E+02</wgt>
<wgt id='15006'>0.30331E+02</wgt>
<wgt id='15007'>0.30454E+02</wgt>
<wgt id='15008'>0.30510E+02</wgt>
<wgt id='15009'>0.30411E+02</wgt>
<wgt id='15010'>0.30394E+02</wgt>
<wgt id='15011'>0.30803E+02</wgt>
<wgt id='15012'>0.29961E+02</wgt>
<wgt id='15013'>0.29971E+02</wgt>
<wgt id='15014'>0.30008E+02</wgt>
<wgt id='15015'>0.30391E+02</wgt>
<wgt id='15016'>0.30539E+02</wgt>
<wgt id='15017'>0.30483E+02</wgt>
<wgt id='15018'>0.30443E+02</wgt>
<wgt id='15019'>0.30405E+02</wgt>
<wgt id='15020'>0.30556E+02</wgt>
<wgt id='15021'>0.30407E+02</wgt>
<wgt id='15022'>0.30466E+02</wgt>
<wgt id='15023'>0.30396E+02</wgt>
<wgt id='15024'>0.30389E+02</wgt>
<wgt id='15025'>0.30487E+02</wgt>
<wgt id='15026'>0.30448E+02</wgt>
<wgt id='15027'>0.30404E+02</wgt>
<wgt id='15028'>0.30460E+02</wgt>
<wgt id='15029'>0.30461E+02</wgt>
<wgt id='15030'>0.30446E+02</wgt>
<wgt id='15031'>0.30431E+02</wgt>
<wgt id='15032'>0.30457E+02</wgt>
<wgt id='15033'>0.30476E+02</wgt>
<wgt id='15034'>0.30416E+02</wgt>
<wgt id='15035'>0.30486E+02</wgt>
<wgt id='15036'>0.30432E+02</wgt>
<wgt id='15037'>0.30463E+02</wgt>
<wgt id='15038'>0.30435E+02</wgt>
<wgt id='15039'>0.30439E+02</wgt>
<wgt id='15040'>0.30398E+02</wgt>
<wgt id='15041'>0.30420E+02</wgt>
<wgt id='15042'>0.30428E+02</wgt>
<wgt id='15043'>0.30413E+02</wgt>
<wgt id='15044'>0.30444E+02</wgt>
<wgt id='15045'>0.30428E+02</wgt>
<wgt id='15046'>0.30394E+02</wgt>
<wgt id='15047'>0.30419E+02</wgt>
<wgt id='15048'>0.30444E+02</wgt>
<wgt id='15049'>0.30420E+02</wgt>
<wgt id='15050'>0.30441E+02</wgt>
<wgt id='15051'>0.30445E+02</wgt>
<wgt id='15052'>0.30442E+02</wgt>
<wgt id='15053'>0.30440E+02</wgt>
<wgt id='15054'>0.30420E+02</wgt>
<wgt id='15055'>0.30428E+02</wgt>
<wgt id='15056'>0.30461E+02</wgt>
<wgt id='15057'>0.30432E+02</wgt>
<wgt id='15058'>0.30416E+02</wgt>
<wgt id='15059'>0.30423E+02</wgt>
<wgt id='15060'>0.30426E+02</wgt>
<wgt id='15061'>0.30439E+02</wgt>
<wgt id='15062'>0.30439E+02</wgt>
<wgt id='15063'>0.30447E+02</wgt>
<wgt id='15064'>0.30428E+02</wgt>
<wgt id='15065'>0.30435E+02</wgt>
<wgt id='15066'>0.30438E+02</wgt>
<wgt id='15067'>0.30444E+02</wgt>
<wgt id='15068'>0.30442E+02</wgt>
<wgt id='15069'>0.30451E+02</wgt>
<wgt id='15070'>0.30431E+02</wgt>
<wgt id='15071'>0.30452E+02</wgt>
<wgt id='15072'>0.30453E+02</wgt>
<wgt id='15073'>0.30427E+02</wgt>
<wgt id='15074'>0.30438E+02</wgt>
<wgt id='15075'>0.30432E+02</wgt>
<wgt id='15076'>0.30433E+02</wgt>
<wgt id='15077'>0.30440E+02</wgt>
<wgt id='15078'>0.30438E+02</wgt>
<wgt id='15079'>0.30431E+02</wgt>
<wgt id='15080'>0.30453E+02</wgt>
<wgt id='15081'>0.30432E+02</wgt>
<wgt id='15082'>0.30441E+02</wgt>
<wgt id='15083'>0.30426E+02</wgt>
<wgt id='15084'>0.30427E+02</wgt>
<wgt id='15085'>0.30429E+02</wgt>
<wgt id='15086'>0.30438E+02</wgt>
<wgt id='15087'>0.30419E+02</wgt>
<wgt id='15088'>0.30429E+02</wgt>
<wgt id='15089'>0.30429E+02</wgt>
<wgt id='15090'>0.30440E+02</wgt>
<wgt id='15091'>0.30432E+02</wgt>
<wgt id='15092'>0.30435E+02</wgt>
<wgt id='15093'>0.30430E+02</wgt>
<wgt id='15094'>0.30433E+02</wgt>
<wgt id='15095'>0.30438E+02</wgt>
<wgt id='15096'>0.30429E+02</wgt>
<wgt id='15097'>0.30437E+02</wgt>
<wgt id='15098'>0.30435E+02</wgt>
<wgt id='15099'>0.30428E+02</wgt>
<wgt id='15100'>0.30434E+02</wgt>
<wgt id='15101'>0.30435E+02</wgt>
<wgt id='15102'>0.30432E+02</wgt>
<wgt id='15103'>0.30435E+02</wgt>
<wgt id='15104'>0.30435E+02</wgt>
<wgt id='15105'>0.30436E+02</wgt>
<wgt id='15106'>0.30435E+02</wgt>
<wgt id='15107'>0.30433E+02</wgt>
<wgt id='1500'>0.31948E+02</wgt>
<wgt id='1501'>0.28729E+02</wgt>
<wgt id='1502'>0.32166E+02</wgt>
<wgt id='1503'>0.31591E+02</wgt>
<wgt id='1504'>0.31582E+02</wgt>
<wgt id='1505'>0.27388E+02</wgt>
<wgt id='1506'>0.31886E+02</wgt>
<wgt id='1507'>0.32559E+02</wgt>
<wgt id='1508'>0.31696E+02</wgt>
<wgt id='1509'>0.31818E+02</wgt>
<wgt id='1510'>0.31010E+02</wgt>
<wgt id='1511'>0.31668E+02</wgt>
<wgt id='1512'>0.32548E+02</wgt>
<wgt id='1513'>0.32477E+02</wgt>
<wgt id='1514'>0.30982E+02</wgt>
<wgt id='1515'>0.31799E+02</wgt>
<wgt id='1516'>0.32598E+02</wgt>
<wgt id='1517'>0.31322E+02</wgt>
<wgt id='1518'>0.31547E+02</wgt>
<wgt id='1519'>0.32265E+02</wgt>
<wgt id='1520'>0.32229E+02</wgt>
<wgt id='1521'>0.32041E+02</wgt>
<wgt id='1522'>0.31823E+02</wgt>
<wgt id='1523'>0.34521E+02</wgt>
<wgt id='1524'>0.31572E+02</wgt>
<wgt id='1525'>0.32574E+02</wgt>
<wgt id='1526'>0.31171E+02</wgt>
<wgt id='1527'>0.31631E+02</wgt>
<wgt id='1528'>0.31816E+02</wgt>
<wgt id='1529'>0.31316E+02</wgt>
<wgt id='1530'>0.32504E+02</wgt>
<wgt id='1531'>0.31783E+02</wgt>
<wgt id='1532'>0.31049E+02</wgt>
<wgt id='1533'>0.33061E+02</wgt>
<wgt id='1534'>0.32237E+02</wgt>
<wgt id='1535'>0.32993E+02</wgt>
<wgt id='1536'>0.33191E+02</wgt>
<wgt id='1537'>0.32259E+02</wgt>
<wgt id='1538'>0.31509E+02</wgt>
<wgt id='1539'>0.30605E+02</wgt>
<wgt id='1540'>0.32603E+02</wgt>
<wgt id='1541'>0.31746E+02</wgt>
<wgt id='1542'>0.32640E+02</wgt>
<wgt id='1543'>0.32452E+02</wgt>
<wgt id='1544'>0.31640E+02</wgt>
<wgt id='1545'>0.32781E+02</wgt>
<wgt id='1546'>0.32088E+02</wgt>
<wgt id='1547'>0.31389E+02</wgt>
<wgt id='1548'>0.31220E+02</wgt>
<wgt id='1549'>0.32451E+02</wgt>
<wgt id='1550'>0.32149E+02</wgt>
<wgt id='1551'>0.32051E+02</wgt>
<wgt id='1552'>0.31950E+02</wgt>
<wgt id='1553'>0.32615E+02</wgt>
<wgt id='1554'>0.31884E+02</wgt>
<wgt id='1555'>0.32196E+02</wgt>
<wgt id='1556'>0.30927E+02</wgt>
<wgt id='1557'>0.33564E+02</wgt>
<wgt id='1558'>0.31756E+02</wgt>
<wgt id='1559'>0.32267E+02</wgt>
<wgt id='1560'>0.31868E+02</wgt>
<wgt id='1561'>0.32468E+02</wgt>
<wgt id='1562'>0.31965E+02</wgt>
<wgt id='1563'>0.32783E+02</wgt>
<wgt id='1564'>0.31570E+02</wgt>
<wgt id='1565'>0.32547E+02</wgt>
<wgt id='1566'>0.32090E+02</wgt>
<wgt id='1567'>0.33318E+02</wgt>
<wgt id='1568'>0.31475E+02</wgt>
<wgt id='1569'>0.31238E+02</wgt>
<wgt id='1570'>0.32238E+02</wgt>
<wgt id='1571'>0.33066E+02</wgt>
<wgt id='1572'>0.31592E+02</wgt>
<wgt id='1573'>0.29211E+02</wgt>
<wgt id='1574'>0.32214E+02</wgt>
<wgt id='1575'>0.31604E+02</wgt>
<wgt id='1576'>0.31056E+02</wgt>
<wgt id='1577'>0.32272E+02</wgt>
<wgt id='1578'>0.33368E+02</wgt>
<wgt id='1579'>0.31852E+02</wgt>
<wgt id='1580'>0.32269E+02</wgt>
<wgt id='1581'>0.32180E+02</wgt>
<wgt id='1582'>0.31650E+02</wgt>
<wgt id='1583'>0.31858E+02</wgt>
<wgt id='1584'>0.32197E+02</wgt>
<wgt id='1585'>0.30903E+02</wgt>
<wgt id='1586'>0.31914E+02</wgt>
<wgt id='1587'>0.31831E+02</wgt>
<wgt id='1588'>0.32070E+02</wgt>
<wgt id='1589'>0.32484E+02</wgt>
<wgt id='1590'>0.31817E+02</wgt>
<wgt id='1591'>0.30849E+02</wgt>
<wgt id='1592'>0.33037E+02</wgt>
<wgt id='1593'>0.31610E+02</wgt>
<wgt id='1594'>0.32810E+02</wgt>
<wgt id='1595'>0.31420E+02</wgt>
<wgt id='1596'>0.32510E+02</wgt>
<wgt id='1597'>0.32207E+02</wgt>
<wgt id='1598'>0.33591E+02</wgt>
<wgt id='1599'>0.32985E+02</wgt>
<wgt id='1600'>0.31515E+02</wgt>
<wgt id='1601'>0.31525E+02</wgt>
<wgt id='1602'>0.32055E+02</wgt>
<wgt id='1700'>0.30924E+02</wgt>
<wgt id='1800'>0.38567E+02</wgt>
<wgt id='1850'>0.44574E+02</wgt>
<wgt id='1900'>0.37265E+02</wgt>
<wgt id='1950'>0.42795E+02</wgt>
</rwgt>
</event>
<event>
      4   9999  3.15120E+01  1.11560E+01 -1.00000E+00  1.86602E-01
      21    -1     0     0   502   512  0.000000000E+00  0.000000000E+00  1.317617614E+02  1.317617614E+02  0.000000000E+00  0.00000E+00  9.000E+00
      21    -1     0     0   501   502  0.000000000E+00  0.000000000E+00 -3.809484886E+02  3.809484886E+02  0.000000000E+00  0.00000E+00  9.000E+00
      25     1     1     2     0     0 -4.925786785E+00  1.000961773E+01 -3.711553245E+02  3.902325190E+02  1.200028673E+02  0.00000E+00  9.000E+00
      21     1     1     2   501   512  4.925786785E+00 -1.000961773E+01  1.219685973E+02  1.224777309E+02  1.907348633E-06  0.00000E+00  9.000E+00
#rwgt            1           1   25.355124427550013                1          73           0
<rwgt>
<wgt id='1001'>0.31512E+02</wgt>
<wgt id='1002'>0.35152E+02</wgt>
<wgt id='1003'>0.27653E+02</wgt>
<wgt id='1004'>0.26246E+02</wgt>
<wgt id='1005'>0.29079E+02</wgt>
<wgt id='1006'>0.23205E+02</wgt>
<wgt id='1007'>0.38593E+02</wgt>
<wgt id='1008'>0.43414E+02</wgt>
<wgt id='1009'>0.33554E+02</wgt>
<wgt id='2000'>0.31512E+02</wgt>
<wgt id='2001'>0.31470E+02</wgt>
<wgt id='2002'>0.31537E+02</wgt>
<wgt id='2003'>0.31499E+02</wgt>
<wgt id='2004'>0.31534E+02</wgt>
<wgt id='2005'>0.31531E+02</wgt>
<wgt id='2006'>0.31506E+02</wgt>
<wgt id='2007'>0.31551E+02</wgt>
<wgt id='2008'>0.31581E+02</wgt>
<wgt id='2009'>0.31473E+02</wgt>
<wgt id='2010'>0.31464E+02</wgt>
<wgt id='2011'>0.31535E+02</wgt>
<wgt id='2012'>0.31539E+02</wgt>
<wgt id='2013'>0.31485E+02</wgt>
<wgt id='2014'>0.31527E+02</wgt>
<wgt id='2015'>0.31536E+02</wgt>
<wgt id='2016'>0.31551E+02</wgt>
<wgt id='2017'>0.31503E+02</wgt>
<wgt id='2018'>0.31518E+02</wgt>
<wgt id='2019'>0.31521E+02</wgt>
<wgt id='2020'>0.31574E+02</wgt>
<wgt id='2021'>0.31489E+02</wgt>
<wgt id='2022'>0.31564E+02</wgt>
<wgt id='2023'>0.31562E+02</wgt>
<wgt id='2024'>0.31484E+02</wgt>
<wgt id='2025'>0.31600E+02</wgt>
<wgt id='2026'>0.31604E+02</wgt>
<wgt id='2027'>0.31473E+02</wgt>
<wgt id='2028'>0.31439E+02</wgt>
<wgt id='2029'>0.31587E+02</wgt>
<wgt id='2030'>0.31512E+02</wgt>
<wgt id='2031'>0.31558E+02</wgt>
<wgt id='2032'>0.31468E+02</wgt>
<wgt id='2033'>0.31511E+02</wgt>
<wgt id='2034'>0.31582E+02</wgt>
<wgt id='2035'>0.31506E+02</wgt>
<wgt id='2036'>0.31536E+02</wgt>
<wgt id='2037'>0.31548E+02</wgt>
<wgt id='2038'>0.31506E+02</wgt>
<wgt id='2039'>0.31470E+02</wgt>
<wgt id='2040'>0.31525E+02</wgt>
<wgt id='2041'>0.31524E+02</wgt>
<wgt id='2042'>0.31494E+02</wgt>
<wgt id='2043'>0.31509E+02</wgt>
<wgt id='2044'>0.31537E+02</wgt>
<wgt id='2045'>0.31499E+02</wgt>
<wgt id='2046'>0.31530E+02</wgt>
<wgt id='2047'>0.31537E+02</wgt>
<wgt id='2048'>0.31495E+02</wgt>
<wgt id='2049'>0.31508E+02</wgt>
<wgt id='2050'>0.31515E+02</wgt>
<wgt id='2051'>0.31549E+02</wgt>
<wgt id='2052'>0.31520E+02</wgt>
<wgt id='2053'>0.31523E+02</wgt>
<wgt id='2054'>0.31515E+02</wgt>
<wgt id='2055'>0.31507E+02</wgt>
<wgt id='2056'>0.31514E+02</wgt>
<wgt id='2057'>0.31533E+02</wgt>
<wgt id='2058'>0.31521E+02</wgt>
<wgt id='2059'>0.31507E+02</wgt>
<wgt id='2060'>0.31516E+02</wgt>
<wgt id='2061'>0.31494E+02</wgt>
<wgt id='2062'>0.31507E+02</wgt>
<wgt id='2063'>0.31518E+02</wgt>
<wgt id='2064'>0.31499E+02</wgt>
<wgt id='2065'>0.31524E+02</wgt>
<wgt id='2066'>0.31503E+02</wgt>
<wgt id='2067'>0.31513E+02</wgt>
<wgt id='2068'>0.31520E+02</wgt>
<wgt id='2069'>0.31518E+02</wgt>
<wgt id='2070'>0.31510E+02</wgt>
<wgt id='2071'>0.31507E+02</wgt>
<wgt id='2072'>0.31515E+02</wgt>
<wgt id='2073'>0.31516E+02</wgt>
<wgt id='2074'>0.31521E+02</wgt>
<wgt id='2075'>0.31505E+02</wgt>
<wgt id='2076'>0.31515E+02</wgt>
<wgt id='2077'>0.31509E+02</wgt>
<wgt id='2078'>0.31508E+02</wgt>
<wgt id='2079'>0.31512E+02</wgt>
<wgt id='2080'>0.31516E+02</wgt>
<wgt id='2081'>0.31516E+02</wgt>
<wgt id='2082'>0.31517E+02</wgt>
<wgt id='2083'>0.31514E+02</wgt>
<wgt id='2084'>0.31516E+02</wgt>
<wgt id='2085'>0.31515E+02</wgt>
<wgt id='2086'>0.31506E+02</wgt>
<wgt id='2087'>0.31508E+02</wgt>
<wgt id='2088'>0.31514E+02</wgt>
<wgt id='2089'>0.31506E+02</wgt>
<wgt id='2090'>0.31508E+02</wgt>
<wgt id='2091'>0.31514E+02</wgt>
<wgt id='2092'>0.31512E+02</wgt>
<wgt id='2093'>0.31511E+02</wgt>
<wgt id='2094'>0.31514E+02</wgt>
<wgt id='2095'>0.31517E+02</wgt>
<wgt id='2096'>0.31510E+02</wgt>
<wgt id='2097'>0.31513E+02</wgt>
<wgt id='2098'>0.31513E+02</wgt>
<wgt id='2099'>0.31508E+02</wgt>
<wgt id='2100'>0.31515E+02</wgt>
<wgt id='2101'>0.30582E+02</wgt>
<wgt id='2102'>0.32446E+02</wgt>
<wgt id='2104'>0.27095E+02</wgt>
<wgt id='2105'>0.27922E+02</wgt>
<wgt id='2106'>0.28778E+02</wgt>
<wgt id='2107'>0.29660E+02</wgt>
<wgt id='2108'>0.31054E+02</wgt>
<wgt id='2109'>0.31981E+02</wgt>
<wgt id='2110'>0.33299E+02</wgt>
<wgt id='2111'>0.34219E+02</wgt>
<wgt id='3000'>0.33100E+02</wgt>
<wgt id='3001'>0.33128E+02</wgt>
<wgt id='3002'>0.33068E+02</wgt>
<wgt id='3003'>0.33085E+02</wgt>
<wgt id='3004'>0.33127E+02</wgt>
<wgt id='3005'>0.33070E+02</wgt>
<wgt id='3006'>0.33078E+02</wgt>
<wgt id='3007'>0.33026E+02</wgt>
<wgt id='3008'>0.33092E+02</wgt>
<wgt id='3009'>0.32979E+02</wgt>
<wgt id='3010'>0.33073E+02</wgt>
<wgt id='3011'>0.33125E+02</wgt>
<wgt id='3012'>0.33133E+02</wgt>
<wgt id='3013'>0.33100E+02</wgt>
<wgt id='3014'>0.33083E+02</wgt>
<wgt id='3015'>0.33077E+02</wgt>
<wgt id='3016'>0.33106E+02</wgt>
<wgt id='3017'>0.33091E+02</wgt>
<wgt id='3018'>0.33148E+02</wgt>
<wgt id='3019'>0.33099E+02</wgt>
<wgt id='3020'>0.33054E+02</wgt>
<wgt id='3021'>0.33039E+02</wgt>
<wgt id='3022'>0.33097E+02</wgt>
<wgt id='3023'>0.33052E+02</wgt>
<wgt id='3024'>0.33025E+02</wgt>
<wgt id='3025'>0.33116E+02</wgt>
<wgt id='3026'>0.33150E+02</wgt>
<wgt id='3027'>0.33106E+02</wgt>
<wgt id='3028'>0.32995E+02</wgt>
<wgt id='3029'>0.33034E+02</wgt>
<wgt id='3030'>0.33184E+02</wgt>
<wgt id='3031'>0.33142E+02</wgt>
<wgt id='3032'>0.33152E+02</wgt>
<wgt id='3033'>0.33179E+02</wgt>
<wgt id='3034'>0.33125E+02</wgt>
<wgt id='3035'>0.33182E+02</wgt>
<wgt id='3036'>0.33116E+02</wgt>
<wgt id='3037'>0.33095E+02</wgt>
<wgt id='3038'>0.33105E+02</wgt>
<wgt id='3039'>0.33052E+02</wgt>
<wgt id='3040'>0.33101E+02</wgt>
<wgt id='3041'>0.33132E+02</wgt>
<wgt id='3042'>0.33068E+02</wgt>
<wgt id='3043'>0.33074E+02</wgt>
<wgt id='3044'>0.33093E+02</wgt>
<wgt id='3045'>0.33121E+02</wgt>
<wgt id='3046'>0.33124E+02</wgt>
<wgt id='3047'>0.33101E+02</wgt>
<wgt id='3048'>0.33117E+02</wgt>
<wgt id='3049'>0.33098E+02</wgt>
<wgt id='3050'>0.33100E+02</wgt>
<wgt id='3051'>0.33124E+02</wgt>
<wgt id='3052'>0.33082E+02</wgt>
<wgt id='3053'>0.33085E+02</wgt>
<wgt id='3054'>0.33096E+02</wgt>
<wgt id='3055'>0.33063E+02</wgt>
<wgt id='3056'>0.33102E+02</wgt>
<wgt id='3057'>0.33085E+02</wgt>
<wgt id='3058'>0.33083E+02</wgt>
<wgt id='3059'>0.33097E+02</wgt>
<wgt id='3060'>0.33104E+02</wgt>
<wgt id='3061'>0.33093E+02</wgt>
<wgt id='3062'>0.33104E+02</wgt>
<wgt id='3063'>0.33117E+02</wgt>
<wgt id='3064'>0.33089E+02</wgt>
<wgt id='3065'>0.33098E+02</wgt>
<wgt id='3066'>0.33102E+02</wgt>
<wgt id='3067'>0.33091E+02</wgt>
<wgt id='3068'>0.33106E+02</wgt>
<wgt id='3069'>0.33099E+02</wgt>
<wgt id='3070'>0.33112E+02</wgt>
<wgt id='3071'>0.33097E+02</wgt>
<wgt id='3072'>0.33093E+02</wgt>
<wgt id='3073'>0.33083E+02</wgt>
<wgt id='3074'>0.33113E+02</wgt>
<wgt id='3075'>0.33093E+02</wgt>
<wgt id='3076'>0.33098E+02</wgt>
<wgt id='3077'>0.33107E+02</wgt>
<wgt id='3078'>0.33101E+02</wgt>
<wgt id='3079'>0.33099E+02</wgt>
<wgt id='3080'>0.33099E+02</wgt>
<wgt id='3081'>0.33101E+02</wgt>
<wgt id='3082'>0.33095E+02</wgt>
<wgt id='3083'>0.33104E+02</wgt>
<wgt id='3084'>0.33101E+02</wgt>
<wgt id='3085'>0.33099E+02</wgt>
<wgt id='3086'>0.33092E+02</wgt>
<wgt id='3087'>0.33098E+02</wgt>
<wgt id='3088'>0.33102E+02</wgt>
<wgt id='3089'>0.33099E+02</wgt>
<wgt id='3090'>0.33100E+02</wgt>
<wgt id='3091'>0.33101E+02</wgt>
<wgt id='3092'>0.33103E+02</wgt>
<wgt id='3093'>0.33100E+02</wgt>
<wgt id='3094'>0.33103E+02</wgt>
<wgt id='3095'>0.33100E+02</wgt>
<wgt id='3096'>0.33099E+02</wgt>
<wgt id='3097'>0.33096E+02</wgt>
<wgt id='3098'>0.33100E+02</wgt>
<wgt id='3099'>0.33102E+02</wgt>
<wgt id='3100'>0.33099E+02</wgt>
<wgt id='3101'>0.32068E+02</wgt>
<wgt id='3102'>0.34159E+02</wgt>
<wgt id='5000'>0.30684E+02</wgt>
<wgt id='5001'>0.30652E+02</wgt>
<wgt id='5002'>0.30613E+02</wgt>
<wgt id='5003'>0.30652E+02</wgt>
<wgt id='5004'>0.30620E+02</wgt>
<wgt id='5005'>0.30527E+02</wgt>
<wgt id='5006'>0.30462E+02</wgt>
<wgt id='5007'>0.30531E+02</wgt>
<wgt id='5008'>0.30697E+02</wgt>
<wgt id='5009'>0.30749E+02</wgt>
<wgt id='5010'>0.30630E+02</wgt>
<wgt id='5011'>0.30718E+02</wgt>
<wgt id='5012'>0.30600E+02</wgt>
<wgt id='5013'>0.30453E+02</wgt>
<wgt id='5014'>0.30773E+02</wgt>
<wgt id='5015'>0.30797E+02</wgt>
<wgt id='5016'>0.30304E+02</wgt>
<wgt id='5017'>0.30598E+02</wgt>
<wgt id='5018'>0.30780E+02</wgt>
<wgt id='5019'>0.30611E+02</wgt>
<wgt id='5020'>0.30765E+02</wgt>
<wgt id='5021'>0.30723E+02</wgt>
<wgt id='5022'>0.30657E+02</wgt>
<wgt id='5023'>0.30537E+02</wgt>
<wgt id='5024'>0.30838E+02</wgt>
<wgt id='5025'>0.30681E+02</wgt>
<wgt id='5026'>0.30685E+02</wgt>
<wgt id='5027'>0.30910E+02</wgt>
<wgt id='5028'>0.30298E+02</wgt>
<wgt id='5029'>0.30284E+02</wgt>
<wgt id='5030'>0.30921E+02</wgt>
<wgt id='5031'>0.30443E+02</wgt>
<wgt id='5032'>0.31027E+02</wgt>
<wgt id='5033'>0.30541E+02</wgt>
<wgt id='5034'>0.30804E+02</wgt>
<wgt id='5035'>0.30404E+02</wgt>
<wgt id='5036'>0.30920E+02</wgt>
<wgt id='5037'>0.30430E+02</wgt>
<wgt id='5038'>0.30963E+02</wgt>
<wgt id='5039'>0.31183E+02</wgt>
<wgt id='5040'>0.30432E+02</wgt>
<wgt id='5041'>0.30589E+02</wgt>
<wgt id='5042'>0.30667E+02</wgt>
<wgt id='5043'>0.30830E+02</wgt>
<wgt id='5044'>0.30225E+02</wgt>
<wgt id='5045'>0.30932E+02</wgt>
<wgt id='5046'>0.30595E+02</wgt>
<wgt id='5047'>0.30593E+02</wgt>
<wgt id='5048'>0.30950E+02</wgt>
<wgt id='5049'>0.30678E+02</wgt>
<wgt id='5050'>0.30750E+02</wgt>
<wgt id='5051'>0.30721E+02</wgt>
<wgt id='5052'>0.30678E+02</wgt>
<wgt id='5053'>0.30011E+02</wgt>
<wgt id='5054'>0.30383E+02</wgt>
<wgt id='5055'>0.30498E+02</wgt>
<wgt id='5056'>0.30987E+02</wgt>
<wgt id='5060'>0.29655E+02</wgt>
<wgt id='5070'>0.31707E+02</wgt>
<wgt id='4000'>0.32276E+02</wgt>
<wgt id='4001'>0.32283E+02</wgt>
<wgt id='4002'>0.32338E+02</wgt>
<wgt id='4003'>0.32148E+02</wgt>
<wgt id='4004'>0.32302E+02</wgt>
<wgt id='4005'>0.32371E+02</wgt>
<wgt id='4006'>0.32214E+02</wgt>
<wgt id='4007'>0.32291E+02</wgt>
<wgt id='4008'>0.32326E+02</wgt>
<wgt id='4009'>0.31939E+02</wgt>
<wgt id='4010'>0.32418E+02</wgt>
<wgt id='4011'>0.32607E+02</wgt>
<wgt id='4012'>0.32073E+02</wgt>
<wgt id='4013'>0.31496E+02</wgt>
<wgt id='4014'>0.32719E+02</wgt>
<wgt id='4015'>0.32665E+02</wgt>
<wgt id='4016'>0.32030E+02</wgt>
<wgt id='4017'>0.31880E+02</wgt>
<wgt id='4018'>0.32746E+02</wgt>
<wgt id='4019'>0.32542E+02</wgt>
<wgt id='4020'>0.31974E+02</wgt>
<wgt id='4021'>0.32305E+02</wgt>
<wgt id='4022'>0.32200E+02</wgt>
<wgt id='4023'>0.32220E+02</wgt>
<wgt id='4024'>0.32315E+02</wgt>
<wgt id='4025'>0.32176E+02</wgt>
<wgt id='4026'>0.32362E+02</wgt>
<wgt id='4027'>0.32233E+02</wgt>
<wgt id='4028'>0.32330E+02</wgt>
<wgt id='4029'>0.32141E+02</wgt>
<wgt id='4030'>0.32322E+02</wgt>
<wgt id='4031'>0.32324E+02</wgt>
<wgt id='4032'>0.32213E+02</wgt>
<wgt id='4033'>0.32222E+02</wgt>
<wgt id='4034'>0.32395E+02</wgt>
<wgt id='4035'>0.32442E+02</wgt>
<wgt id='4036'>0.32119E+02</wgt>
<wgt id='4037'>0.32368E+02</wgt>
<wgt id='4038'>0.32090E+02</wgt>
<wgt id='4039'>0.32201E+02</wgt>
<wgt id='4040'>0.32302E+02</wgt>
<wgt id='4041'>0.32377E+02</wgt>
<wgt id='4042'>0.32192E+02</wgt>
<wgt id='4043'>0.32253E+02</wgt>
<wgt id='4044'>0.32356E+02</wgt>
<wgt id='4045'>0.31969E+02</wgt>
<wgt id='4046'>0.32287E+02</wgt>
<wgt id='4047'>0.32219E+02</wgt>
<wgt id='4048'>0.32044E+02</wgt>
<wgt id='4049'>0.31962E+02</wgt>
<wgt id='4050'>0.32240E+02</wgt>
<wgt id='4051'>0.32223E+02</wgt>
<wgt id='4052'>0.32252E+02</wgt>
<wgt id='4053'>0.31336E+02</wgt>
<wgt id='4054'>0.32224E+02</wgt>
<wgt id='4055'>0.32135E+02</wgt>
<wgt id='4056'>0.32526E+02</wgt>
<wgt id='4060'>0.31130E+02</wgt>
<wgt id='4070'>0.33424E+02</wgt>
<wgt id='4080'>0.34008E+02</wgt>
<wgt id='6000'>0.32731E+02</wgt>
<wgt id='6001'>0.32774E+02</wgt>
<wgt id='6002'>0.32686E+02</wgt>
<wgt id='6003'>0.32749E+02</wgt>
<wgt id='6004'>0.32719E+02</wgt>
<wgt id='6005'>0.32773E+02</wgt>
<wgt id='6006'>0.32691E+02</wgt>
<wgt id='6007'>0.32626E+02</wgt>
<wgt id='6008'>0.32845E+02</wgt>
<wgt id='6009'>0.32868E+02</wgt>
<wgt id='6010'>0.32598E+02</wgt>
<wgt id='6011'>0.32804E+02</wgt>
<wgt id='6012'>0.32573E+02</wgt>
<wgt id='6013'>0.32690E+02</wgt>
<wgt id='6014'>0.32800E+02</wgt>
<wgt id='6015'>0.32645E+02</wgt>
<wgt id='6016'>0.32779E+02</wgt>
<wgt id='6017'>0.32536E+02</wgt>
<wgt id='6018'>0.32962E+02</wgt>
<wgt id='6019'>0.32737E+02</wgt>
<wgt id='6020'>0.32725E+02</wgt>
<wgt id='6021'>0.32665E+02</wgt>
<wgt id='6022'>0.32822E+02</wgt>
<wgt id='6023'>0.32510E+02</wgt>
<wgt id='6024'>0.32888E+02</wgt>
<wgt id='6025'>0.32707E+02</wgt>
<wgt id='6026'>0.32643E+02</wgt>
<wgt id='6027'>0.32822E+02</wgt>
<wgt id='6028'>0.32730E+02</wgt>
<wgt id='6029'>0.32801E+02</wgt>
<wgt id='6030'>0.32648E+02</wgt>
<wgt id='6031'>0.32666E+02</wgt>
<wgt id='6032'>0.32786E+02</wgt>
<wgt id='6033'>0.32809E+02</wgt>
<wgt id='6034'>0.32651E+02</wgt>
<wgt id='6035'>0.32746E+02</wgt>
<wgt id='6036'>0.32753E+02</wgt>
<wgt id='6037'>0.32785E+02</wgt>
<wgt id='6038'>0.32733E+02</wgt>
<wgt id='6039'>0.32677E+02</wgt>
<wgt id='6040'>0.32790E+02</wgt>
<wgt id='6041'>0.32658E+02</wgt>
<wgt id='6042'>0.32820E+02</wgt>
<wgt id='6043'>0.33156E+02</wgt>
<wgt id='6044'>0.32576E+02</wgt>
<wgt id='6045'>0.32706E+02</wgt>
<wgt id='6046'>0.32799E+02</wgt>
<wgt id='6047'>0.32923E+02</wgt>
<wgt id='6048'>0.32414E+02</wgt>
<wgt id='6049'>0.32819E+02</wgt>
<wgt id='6050'>0.32682E+02</wgt>
<wgt id='7000'>0.30739E+02</wgt>
<wgt id='7001'>0.30767E+02</wgt>
<wgt id='7002'>0.30708E+02</wgt>
<wgt id='7003'>0.30818E+02</wgt>
<wgt id='7004'>0.30661E+02</wgt>
<wgt id='7005'>0.30788E+02</wgt>
<wgt id='7006'>0.30721E+02</wgt>
<wgt id='7007'>0.30628E+02</wgt>
<wgt id='7008'>0.30851E+02</wgt>
<wgt id='7009'>0.30803E+02</wgt>
<wgt id='7010'>0.30678E+02</wgt>
<wgt id='7011'>0.30430E+02</wgt>
<wgt id='7012'>0.30874E+02</wgt>
<wgt id='7013'>0.30737E+02</wgt>
<wgt id='7014'>0.30743E+02</wgt>
<wgt id='7015'>0.30647E+02</wgt>
<wgt id='7016'>0.30839E+02</wgt>
<wgt id='7017'>0.30538E+02</wgt>
<wgt id='7018'>0.30848E+02</wgt>
<wgt id='7019'>0.30711E+02</wgt>
<wgt id='7020'>0.30781E+02</wgt>
<wgt id='7021'>0.30735E+02</wgt>
<wgt id='7022'>0.30742E+02</wgt>
<wgt id='7023'>0.30903E+02</wgt>
<wgt id='7024'>0.30559E+02</wgt>
<wgt id='7025'>0.30822E+02</wgt>
<wgt id='7026'>0.30540E+02</wgt>
<wgt id='7027'>0.30846E+02</wgt>
<wgt id='7028'>0.30714E+02</wgt>
<wgt id='7029'>0.30699E+02</wgt>
<wgt id='7030'>0.30816E+02</wgt>
<wgt id='7031'>0.30705E+02</wgt>
<wgt id='7032'>0.30822E+02</wgt>
<wgt id='7033'>0.30735E+02</wgt>
<wgt id='7034'>0.30773E+02</wgt>
<wgt id='7035'>0.30731E+02</wgt>
<wgt id='7036'>0.30762E+02</wgt>
<wgt id='7037'>0.30745E+02</wgt>
<wgt id='7038'>0.30763E+02</wgt>
<wgt id='7039'>0.30676E+02</wgt>
<wgt id='7040'>0.30785E+02</wgt>
<wgt id='7041'>0.30704E+02</wgt>
<wgt id='7042'>0.30788E+02</wgt>
<wgt id='7043'>0.30761E+02</wgt>
<wgt id='7044'>0.30613E+02</wgt>
<wgt id='7045'>0.30489E+02</wgt>
<wgt id='7046'>0.30922E+02</wgt>
<wgt id='7047'>0.30838E+02</wgt>
<wgt id='7048'>0.30699E+02</wgt>
<wgt id='7049'>0.30669E+02</wgt>
<wgt id='7050'>0.30810E+02</wgt>
<wgt id='7060'>0.50785E+02</wgt>
<wgt id='8000'>0.31041E+02</wgt>
<wgt id='8001'>0.31033E+02</wgt>
<wgt id='8002'>0.31050E+02</wgt>
<wgt id='8003'>0.31043E+02</wgt>
<wgt id='8004'>0.31041E+02</wgt>
<wgt id='8005'>0.30969E+02</wgt>
<wgt id='8006'>0.31034E+02</wgt>
<wgt id='8007'>0.31019E+02</wgt>
<wgt id='8008'>0.31099E+02</wgt>
<wgt id='8009'>0.31159E+02</wgt>
<wgt id='8010'>0.31038E+02</wgt>
<wgt id='8011'>0.31031E+02</wgt>
<wgt id='8012'>0.30994E+02</wgt>
<wgt id='8013'>0.31022E+02</wgt>
<wgt id='8014'>0.31047E+02</wgt>
<wgt id='8015'>0.31016E+02</wgt>
<wgt id='8016'>0.31060E+02</wgt>
<wgt id='8017'>0.31051E+02</wgt>
<wgt id='8018'>0.31066E+02</wgt>
<wgt id='8019'>0.31066E+02</wgt>
<wgt id='8020'>0.30990E+02</wgt>
<wgt id='8021'>0.31034E+02</wgt>
<wgt id='8022'>0.30949E+02</wgt>
<wgt id='8023'>0.31040E+02</wgt>
<wgt id='8024'>0.31038E+02</wgt>
<wgt id='8025'>0.31085E+02</wgt>
<wgt id='8026'>0.31090E+02</wgt>
<wgt id='8027'>0.31016E+02</wgt>
<wgt id='8028'>0.31071E+02</wgt>
<wgt id='8029'>0.30890E+02</wgt>
<wgt id='8500'>0.32547E+02</wgt>
<wgt id='8501'>0.32416E+02</wgt>
<wgt id='8502'>0.32619E+02</wgt>
<wgt id='8503'>0.32648E+02</wgt>
<wgt id='8504'>0.32489E+02</wgt>
<wgt id='8505'>0.32561E+02</wgt>
<wgt id='8506'>0.32556E+02</wgt>
<wgt id='8507'>0.32605E+02</wgt>
<wgt id='8508'>0.32562E+02</wgt>
<wgt id='8509'>0.32589E+02</wgt>
<wgt id='8510'>0.32896E+02</wgt>
<wgt id='8511'>0.32564E+02</wgt>
<wgt id='8512'>0.32411E+02</wgt>
<wgt id='8513'>0.32526E+02</wgt>
<wgt id='8514'>0.32239E+02</wgt>
<wgt id='8515'>0.32675E+02</wgt>
<wgt id='8516'>0.32569E+02</wgt>
<wgt id='8517'>0.32407E+02</wgt>
<wgt id='8518'>0.32402E+02</wgt>
<wgt id='8519'>0.32407E+02</wgt>
<wgt id='8520'>0.32538E+02</wgt>
<wgt id='8521'>0.32393E+02</wgt>
<wgt id='8522'>0.32595E+02</wgt>
<wgt id='8523'>0.32451E+02</wgt>
<wgt id='8524'>0.32540E+02</wgt>
<wgt id='8525'>0.32499E+02</wgt>
<wgt id='8526'>0.32466E+02</wgt>
<wgt id='8527'>0.32540E+02</wgt>
<wgt id='8528'>0.32453E+02</wgt>
<wgt id='8529'>0.32501E+02</wgt>
<wgt id='8530'>0.32567E+02</wgt>
<wgt id='8531'>0.32533E+02</wgt>
<wgt id='8532'>0.32549E+02</wgt>
<wgt id='8533'>0.32457E+02</wgt>
<wgt id='8534'>0.32543E+02</wgt>
<wgt id='8535'>0.32637E+02</wgt>
<wgt id='8536'>0.32526E+02</wgt>
<wgt id='8537'>0.32555E+02</wgt>
<wgt id='8538'>0.32527E+02</wgt>
<wgt id='8539'>0.32554E+02</wgt>
<wgt id='8540'>0.32549E+02</wgt>
<wgt id='8541'>0.32567E+02</wgt>
<wgt id='8542'>0.32566E+02</wgt>
<wgt id='8543'>0.32515E+02</wgt>
<wgt id='8544'>0.32572E+02</wgt>
<wgt id='8545'>0.32573E+02</wgt>
<wgt id='8546'>0.32591E+02</wgt>
<wgt id='8547'>0.32512E+02</wgt>
<wgt id='8548'>0.32521E+02</wgt>
<wgt id='8549'>0.32546E+02</wgt>
<wgt id='8550'>0.32548E+02</wgt>
<wgt id='8551'>0.32523E+02</wgt>
<wgt id='8552'>0.32546E+02</wgt>
<wgt id='8553'>0.32526E+02</wgt>
<wgt id='8554'>0.32535E+02</wgt>
<wgt id='8555'>0.32550E+02</wgt>
<wgt id='8556'>0.32539E+02</wgt>
<wgt id='8557'>0.32544E+02</wgt>
<wgt id='8558'>0.32587E+02</wgt>
<wgt id='8559'>0.32529E+02</wgt>
<wgt id='8560'>0.32505E+02</wgt>
<wgt id='8561'>0.32546E+02</wgt>
<wgt id='8562'>0.32520E+02</wgt>
<wgt id='8563'>0.32550E+02</wgt>
<wgt id='8564'>0.32537E+02</wgt>
<wgt id='8565'>0.32550E+02</wgt>
<wgt id='8566'>0.32537E+02</wgt>
<wgt id='8567'>0.32539E+02</wgt>
<wgt id='8568'>0.32562E+02</wgt>
<wgt id='8569'>0.32558E+02</wgt>
<wgt id='8570'>0.32550E+02</wgt>
<wgt id='8571'>0.32526E+02</wgt>
<wgt id='8572'>0.32530E+02</wgt>
<wgt id='8573'>0.32535E+02</wgt>
<wgt id='8574'>0.32554E+02</wgt>
<wgt id='8575'>0.32541E+02</wgt>
<wgt id='8576'>0.32540E+02</wgt>
<wgt id='8577'>0.32547E+02</wgt>
<wgt id='8578'>0.32546E+02</wgt>
<wgt id='8579'>0.32567E+02</wgt>
<wgt id='8580'>0.32547E+02</wgt>
<wgt id='8581'>0.32559E+02</wgt>
<wgt id='8582'>0.32519E+02</wgt>
<wgt id='8583'>0.32561E+02</wgt>
<wgt id='8584'>0.32555E+02</wgt>
<wgt id='8585'>0.32557E+02</wgt>
<wgt id='8586'>0.32561E+02</wgt>
<wgt id='8587'>0.32540E+02</wgt>
<wgt id='8588'>0.32537E+02</wgt>
<wgt id='8589'>0.32546E+02</wgt>
<wgt id='8590'>0.32545E+02</wgt>
<wgt id='8591'>0.32545E+02</wgt>
<wgt id='8592'>0.32546E+02</wgt>
<wgt id='8593'>0.32534E+02</wgt>
<wgt id='8594'>0.32553E+02</wgt>
<wgt id='8595'>0.32552E+02</wgt>
<wgt id='8596'>0.32541E+02</wgt>
<wgt id='8597'>0.32549E+02</wgt>
<wgt id='8598'>0.32555E+02</wgt>
<wgt id='8599'>0.32549E+02</wgt>
<wgt id='8600'>0.32546E+02</wgt>
<wgt id='8601'>0.31788E+02</wgt>
<wgt id='8602'>0.33275E+02</wgt>
<wgt id='9000'>0.30788E+02</wgt>
<wgt id='9001'>0.30821E+02</wgt>
<wgt id='9002'>0.30847E+02</wgt>
<wgt id='9003'>0.30685E+02</wgt>
<wgt id='9004'>0.30795E+02</wgt>
<wgt id='9005'>0.30800E+02</wgt>
<wgt id='9006'>0.30832E+02</wgt>
<wgt id='9007'>0.30910E+02</wgt>
<wgt id='9008'>0.30859E+02</wgt>
<wgt id='9009'>0.30759E+02</wgt>
<wgt id='9010'>0.30700E+02</wgt>
<wgt id='9011'>0.30985E+02</wgt>
<wgt id='9012'>0.30672E+02</wgt>
<wgt id='9013'>0.30551E+02</wgt>
<wgt id='9014'>0.30718E+02</wgt>
<wgt id='9015'>0.30799E+02</wgt>
<wgt id='9016'>0.31023E+02</wgt>
<wgt id='9017'>0.30651E+02</wgt>
<wgt id='9018'>0.30749E+02</wgt>
<wgt id='9019'>0.30770E+02</wgt>
<wgt id='9020'>0.30968E+02</wgt>
<wgt id='9021'>0.30801E+02</wgt>
<wgt id='9022'>0.30848E+02</wgt>
<wgt id='9023'>0.30652E+02</wgt>
<wgt id='9024'>0.30723E+02</wgt>
<wgt id='9025'>0.30837E+02</wgt>
<wgt id='9026'>0.30798E+02</wgt>
<wgt id='9027'>0.30755E+02</wgt>
<wgt id='9028'>0.30813E+02</wgt>
<wgt id='9029'>0.30834E+02</wgt>
<wgt id='9030'>0.30832E+02</wgt>
<wgt id='9031'>0.30748E+02</wgt>
<wgt id='9032'>0.30813E+02</wgt>
<wgt id='9033'>0.30829E+02</wgt>
<wgt id='9034'>0.30791E+02</wgt>
<wgt id='9035'>0.30843E+02</wgt>
<wgt id='9036'>0.30797E+02</wgt>
<wgt id='9037'>0.30813E+02</wgt>
<wgt id='9038'>0.30800E+02</wgt>
<wgt id='9039'>0.30796E+02</wgt>
<wgt id='9040'>0.30758E+02</wgt>
<wgt id='9041'>0.30783E+02</wgt>
<wgt id='9042'>0.30787E+02</wgt>
<wgt id='9043'>0.30746E+02</wgt>
<wgt id='9044'>0.30796E+02</wgt>
<wgt id='9045'>0.30788E+02</wgt>
<wgt id='9046'>0.30744E+02</wgt>
<wgt id='9047'>0.30789E+02</wgt>
<wgt id='9048'>0.30795E+02</wgt>
<wgt id='9049'>0.30773E+02</wgt>
<wgt id='9050'>0.30788E+02</wgt>
<wgt id='9051'>0.30807E+02</wgt>
<wgt id='9052'>0.30803E+02</wgt>
<wgt id='9053'>0.30790E+02</wgt>
<wgt id='9054'>0.30774E+02</wgt>
<wgt id='9055'>0.30774E+02</wgt>
<wgt id='9056'>0.30818E+02</wgt>
<wgt id='9057'>0.30789E+02</wgt>
<wgt id='9058'>0.30755E+02</wgt>
<wgt id='9059'>0.30771E+02</wgt>
<wgt id='9060'>0.30774E+02</wgt>
<wgt id='9061'>0.30789E+02</wgt>
<wgt id='9062'>0.30794E+02</wgt>
<wgt id='9063'>0.30802E+02</wgt>
<wgt id='9064'>0.30780E+02</wgt>
<wgt id='9065'>0.30786E+02</wgt>
<wgt id='9066'>0.30791E+02</wgt>
<wgt id='9067'>0.30800E+02</wgt>
<wgt id='9068'>0.30793E+02</wgt>
<wgt id='9069'>0.30811E+02</wgt>
<wgt id='9070'>0.30783E+02</wgt>
<wgt id='9071'>0.30806E+02</wgt>
<wgt id='9072'>0.30811E+02</wgt>
<wgt id='9073'>0.30782E+02</wgt>
<wgt id='9074'>0.30792E+02</wgt>
<wgt id='9075'>0.30785E+02</wgt>
<wgt id='9076'>0.30781E+02</wgt>
<wgt id='9077'>0.30794E+02</wgt>
<wgt id='9078'>0.30788E+02</wgt>
<wgt id='9079'>0.30784E+02</wgt>
<wgt id='9080'>0.30815E+02</wgt>
<wgt id='9081'>0.30782E+02</wgt>
<wgt id='9082'>0.30795E+02</wgt>
<wgt id='9083'>0.30778E+02</wgt>
<wgt id='9084'>0.30779E+02</wgt>
<wgt id='9085'>0.30776E+02</wgt>
<wgt id='9086'>0.30789E+02</wgt>
<wgt id='9087'>0.30768E+02</wgt>
<wgt id='9088'>0.30781E+02</wgt>
<wgt id='9089'>0.30782E+02</wgt>
<wgt id='9090'>0.30794E+02</wgt>
<wgt id='9091'>0.30786E+02</wgt>
<wgt id='9092'>0.30789E+02</wgt>
<wgt id='9093'>0.30781E+02</wgt>
<wgt id='9094'>0.30788E+02</wgt>
<wgt id='9095'>0.30791E+02</wgt>
<wgt id='9096'>0.30780E+02</wgt>
<wgt id='9097'>0.30790E+02</wgt>
<wgt id='9098'>0.30788E+02</wgt>
<wgt id='9099'>0.30779E+02</wgt>
<wgt id='9100'>0.30787E+02</wgt>
<wgt id='9101'>0.30174E+02</wgt>
<wgt id='9102'>0.31424E+02</wgt>
<wgt id='10000'>0.32550E+02</wgt>
<wgt id='10001'>0.32654E+02</wgt>
<wgt id='10002'>0.32359E+02</wgt>
<wgt id='10003'>0.32536E+02</wgt>
<wgt id='10004'>0.32354E+02</wgt>
<wgt id='10005'>0.32921E+02</wgt>
<wgt id='10006'>0.32460E+02</wgt>
<wgt id='10007'>0.32530E+02</wgt>
<wgt id='10008'>0.32646E+02</wgt>
<wgt id='10009'>0.32473E+02</wgt>
<wgt id='10010'>0.32612E+02</wgt>
<wgt id='10011'>0.32495E+02</wgt>
<wgt id='10012'>0.32496E+02</wgt>
<wgt id='10013'>0.32560E+02</wgt>
<wgt id='10014'>0.32522E+02</wgt>
<wgt id='10015'>0.32582E+02</wgt>
<wgt id='10016'>0.32488E+02</wgt>
<wgt id='10017'>0.32375E+02</wgt>
<wgt id='10018'>0.32603E+02</wgt>
<wgt id='10019'>0.32502E+02</wgt>
<wgt id='10020'>0.32489E+02</wgt>
<wgt id='10021'>0.32528E+02</wgt>
<wgt id='10022'>0.32514E+02</wgt>
<wgt id='10023'>0.32565E+02</wgt>
<wgt id='10024'>0.32510E+02</wgt>
<wgt id='10025'>0.32521E+02</wgt>
<wgt id='10026'>0.32650E+02</wgt>
<wgt id='10027'>0.32624E+02</wgt>
<wgt id='10028'>0.32873E+02</wgt>
<wgt id='10029'>0.32587E+02</wgt>
<wgt id='10030'>0.32536E+02</wgt>
<wgt id='10031'>0.31788E+02</wgt>
<wgt id='10032'>0.33275E+02</wgt>
<wgt id='11000'>0.30790E+02</wgt>
<wgt id='11001'>0.30502E+02</wgt>
<wgt id='11002'>0.30844E+02</wgt>
<wgt id='11003'>0.30756E+02</wgt>
<wgt id='11004'>0.30839E+02</wgt>
<wgt id='11005'>0.30584E+02</wgt>
<wgt id='11006'>0.30801E+02</wgt>
<wgt id='11007'>0.30735E+02</wgt>
<wgt id='11008'>0.30721E+02</wgt>
<wgt id='11009'>0.30712E+02</wgt>
<wgt id='11010'>0.31029E+02</wgt>
<wgt id='11011'>0.30715E+02</wgt>
<wgt id='11012'>0.30797E+02</wgt>
<wgt id='11013'>0.30850E+02</wgt>
<wgt id='11014'>0.30749E+02</wgt>
<wgt id='11015'>0.30771E+02</wgt>
<wgt id='11016'>0.30777E+02</wgt>
<wgt id='11017'>0.30918E+02</wgt>
<wgt id='11018'>0.30778E+02</wgt>
<wgt id='11019'>0.30780E+02</wgt>
<wgt id='11020'>0.30844E+02</wgt>
<wgt id='11021'>0.30828E+02</wgt>
<wgt id='11022'>0.31079E+02</wgt>
<wgt id='11023'>0.30797E+02</wgt>
<wgt id='11024'>0.30818E+02</wgt>
<wgt id='11025'>0.30773E+02</wgt>
<wgt id='11026'>0.30796E+02</wgt>
<wgt id='11027'>0.30789E+02</wgt>
<wgt id='11028'>0.30817E+02</wgt>
<wgt id='11029'>0.30819E+02</wgt>
<wgt id='11030'>0.30785E+02</wgt>
<wgt id='11031'>0.30174E+02</wgt>
<wgt id='11032'>0.31424E+02</wgt>
<wgt id='12000'>0.33371E+02</wgt>
<wgt id='12001'>0.33329E+02</wgt>
<wgt id='12002'>0.33413E+02</wgt>
<wgt id='12003'>0.33452E+02</wgt>
<wgt id='12004'>0.33291E+02</wgt>
<wgt id='12005'>0.33412E+02</wgt>
<wgt id='12006'>0.33331E+02</wgt>
<wgt id='12007'>0.33452E+02</wgt>
<wgt id='12008'>0.33293E+02</wgt>
<wgt id='12009'>0.33396E+02</wgt>
<wgt id='12010'>0.33348E+02</wgt>
<wgt id='12011'>0.33233E+02</wgt>
<wgt id='12012'>0.33509E+02</wgt>
<wgt id='12013'>0.33271E+02</wgt>
<wgt id='12014'>0.33473E+02</wgt>
<wgt id='12015'>0.33420E+02</wgt>
<wgt id='12016'>0.33326E+02</wgt>
<wgt id='12017'>0.33485E+02</wgt>
<wgt id='12018'>0.33248E+02</wgt>
<wgt id='12019'>0.33351E+02</wgt>
<wgt id='12020'>0.33391E+02</wgt>
<wgt id='12021'>0.33462E+02</wgt>
<wgt id='12022'>0.33250E+02</wgt>
<wgt id='12023'>0.33148E+02</wgt>
<wgt id='12024'>0.33456E+02</wgt>
<wgt id='12025'>0.33333E+02</wgt>
<wgt id='12026'>0.33453E+02</wgt>
<wgt id='12027'>0.33554E+02</wgt>
<wgt id='12028'>0.33223E+02</wgt>
<wgt id='12050'>0.33371E+02</wgt>
<wgt id='12051'>0.33393E+02</wgt>
<wgt id='12052'>0.33317E+02</wgt>
<wgt id='12053'>0.33386E+02</wgt>
<wgt id='12054'>0.33336E+02</wgt>
<wgt id='12055'>0.33467E+02</wgt>
<wgt id='12056'>0.33388E+02</wgt>
<wgt id='12057'>0.33293E+02</wgt>
<wgt id='12058'>0.33456E+02</wgt>
<wgt id='12059'>0.33369E+02</wgt>
<wgt id='12060'>0.33389E+02</wgt>
<wgt id='12061'>0.33289E+02</wgt>
<wgt id='12062'>0.33433E+02</wgt>
<wgt id='12063'>0.33206E+02</wgt>
<wgt id='13000'>0.31477E+02</wgt>
<wgt id='13001'>0.31453E+02</wgt>
<wgt id='13002'>0.31496E+02</wgt>
<wgt id='13003'>0.31524E+02</wgt>
<wgt id='13004'>0.31425E+02</wgt>
<wgt id='13005'>0.31541E+02</wgt>
<wgt id='13006'>0.31408E+02</wgt>
<wgt id='13007'>0.31596E+02</wgt>
<wgt id='13008'>0.31355E+02</wgt>
<wgt id='13009'>0.31431E+02</wgt>
<wgt id='13010'>0.31519E+02</wgt>
<wgt id='13011'>0.31562E+02</wgt>
<wgt id='13012'>0.31387E+02</wgt>
<wgt id='13013'>0.31404E+02</wgt>
<wgt id='13014'>0.31546E+02</wgt>
<wgt id='13015'>0.31474E+02</wgt>
<wgt id='13016'>0.31485E+02</wgt>
<wgt id='13017'>0.31455E+02</wgt>
<wgt id='13018'>0.31489E+02</wgt>
<wgt id='13019'>0.31448E+02</wgt>
<wgt id='13020'>0.31500E+02</wgt>
<wgt id='13021'>0.31376E+02</wgt>
<wgt id='13022'>0.31535E+02</wgt>
<wgt id='13023'>0.31379E+02</wgt>
<wgt id='13024'>0.31567E+02</wgt>
<wgt id='13025'>0.31246E+02</wgt>
<wgt id='13026'>0.31633E+02</wgt>
<wgt id='13027'>0.31409E+02</wgt>
<wgt id='13028'>0.31574E+02</wgt>
<wgt id='13050'>0.31477E+02</wgt>
<wgt id='13051'>0.31500E+02</wgt>
<wgt id='13052'>0.31348E+02</wgt>
<wgt id='13053'>0.31486E+02</wgt>
<wgt id='13054'>0.31458E+02</wgt>
<wgt id='13055'>0.31182E+02</wgt>
<wgt id='13056'>0.31522E+02</wgt>
<wgt id='13057'>0.31397E+02</wgt>
<wgt id='13058'>0.31617E+02</wgt>
<wgt id='13059'>0.31413E+02</wgt>
<wgt id='13060'>0.31171E+02</wgt>
<wgt id='13061'>0.31390E+02</wgt>
<wgt id='13062'>0.31707E+02</wgt>
<wgt id='13063'>0.31488E+02</wgt>
<wgt id='14000'>0.32137E+02</wgt>
<wgt id='14001'>0.32133E+02</wgt>
<wgt id='14002'>0.32128E+02</wgt>
<wgt id='14003'>0.32123E+02</wgt>
<wgt id='14004'>0.32118E+02</wgt>
<wgt id='14005'>0.32114E+02</wgt>
<wgt id='14006'>0.32109E+02</wgt>
<wgt id='14007'>0.32104E+02</wgt>
<wgt id='14008'>0.32099E+02</wgt>
<wgt id='14009'>0.32094E+02</wgt>
<wgt id='14010'>0.32089E+02</wgt>
<wgt id='14011'>0.32085E+02</wgt>
<wgt id='14012'>0.32080E+02</wgt>
<wgt id='14013'>0.32075E+02</wgt>
<wgt id='14014'>0.32070E+02</wgt>
<wgt id='14015'>0.32065E+02</wgt>
<wgt id='14016'>0.32060E+02</wgt>
<wgt id='14017'>0.32056E+02</wgt>
<wgt id='14018'>0.32051E+02</wgt>
<wgt id='14019'>0.32046E+02</wgt>
<wgt id='14020'>0.32041E+02</wgt>
<wgt id='14021'>0.32037E+02</wgt>
<wgt id='14022'>0.32032E+02</wgt>
<wgt id='14023'>0.32027E+02</wgt>
<wgt id='14024'>0.32022E+02</wgt>
<wgt id='14025'>0.32017E+02</wgt>
<wgt id='14026'>0.32012E+02</wgt>
<wgt id='14027'>0.32008E+02</wgt>
<wgt id='14028'>0.32003E+02</wgt>
<wgt id='14029'>0.31998E+02</wgt>
<wgt id='14030'>0.31993E+02</wgt>
<wgt id='15000'>0.30420E+02</wgt>
<wgt id='15001'>0.30434E+02</wgt>
<wgt id='15002'>0.30470E+02</wgt>
<wgt id='15003'>0.30323E+02</wgt>
<wgt id='15004'>0.30423E+02</wgt>
<wgt id='15005'>0.30433E+02</wgt>
<wgt id='15006'>0.30479E+02</wgt>
<wgt id='15007'>0.30552E+02</wgt>
<wgt id='15008'>0.30490E+02</wgt>
<wgt id='15009'>0.30395E+02</wgt>
<wgt id='15010'>0.30332E+02</wgt>
<wgt id='15011'>0.30635E+02</wgt>
<wgt id='15012'>0.30313E+02</wgt>
<wgt id='15013'>0.30195E+02</wgt>
<wgt id='15014'>0.30343E+02</wgt>
<wgt id='15015'>0.30399E+02</wgt>
<wgt id='15016'>0.30673E+02</wgt>
<wgt id='15017'>0.30280E+02</wgt>
<wgt id='15018'>0.30377E+02</wgt>
<wgt id='15019'>0.30415E+02</wgt>
<wgt id='15020'>0.30615E+02</wgt>
<wgt id='15021'>0.30420E+02</wgt>
<wgt id='15022'>0.30477E+02</wgt>
<wgt id='15023'>0.30292E+02</wgt>
<wgt id='15024'>0.30347E+02</wgt>
<wgt id='15025'>0.30454E+02</wgt>
<wgt id='15026'>0.30414E+02</wgt>
<wgt id='15027'>0.30403E+02</wgt>
<wgt id='15028'>0.30453E+02</wgt>
<wgt id='15029'>0.30458E+02</wgt>
<wgt id='15030'>0.30454E+02</wgt>
<wgt id='15031'>0.30400E+02</wgt>
<wgt id='15032'>0.30440E+02</wgt>
<wgt id='15033'>0.30456E+02</wgt>
<wgt id='15034'>0.30422E+02</wgt>
<wgt id='15035'>0.30470E+02</wgt>
<wgt id='15036'>0.30430E+02</wgt>
<wgt id='15037'>0.30447E+02</wgt>
<wgt id='15038'>0.30430E+02</wgt>
<wgt id='15039'>0.30422E+02</wgt>
<wgt id='15040'>0.30390E+02</wgt>
<wgt id='15041'>0.30410E+02</wgt>
<wgt id='15042'>0.30416E+02</wgt>
<wgt id='15043'>0.30389E+02</wgt>
<wgt id='15044'>0.30427E+02</wgt>
<wgt id='15045'>0.30418E+02</wgt>
<wgt id='15046'>0.30381E+02</wgt>
<wgt id='15047'>0.30417E+02</wgt>
<wgt id='15048'>0.30430E+02</wgt>
<wgt id='15049'>0.30403E+02</wgt>
<wgt id='15050'>0.30422E+02</wgt>
<wgt id='15051'>0.30438E+02</wgt>
<wgt id='15052'>0.30434E+02</wgt>
<wgt id='15053'>0.30424E+02</wgt>
<wgt id='15054'>0.30408E+02</wgt>
<wgt id='15055'>0.30408E+02</wgt>
<wgt id='15056'>0.30444E+02</wgt>
<wgt id='15057'>0.30421E+02</wgt>
<wgt id='15058'>0.30394E+02</wgt>
<wgt id='15059'>0.30406E+02</wgt>
<wgt id='15060'>0.30410E+02</wgt>
<wgt id='15061'>0.30423E+02</wgt>
<wgt id='15062'>0.30425E+02</wgt>
<wgt id='15063'>0.30432E+02</wgt>
<wgt id='15064'>0.30414E+02</wgt>
<wgt id='15065'>0.30418E+02</wgt>
<wgt id='15066'>0.30423E+02</wgt>
<wgt id='15067'>0.30430E+02</wgt>
<wgt id='15068'>0.30426E+02</wgt>
<wgt id='15069'>0.30440E+02</wgt>
<wgt id='15070'>0.30415E+02</wgt>
<wgt id='15071'>0.30440E+02</wgt>
<wgt id='15072'>0.30441E+02</wgt>
<wgt id='15073'>0.30412E+02</wgt>
<wgt id='15074'>0.30424E+02</wgt>
<wgt id='15075'>0.30418E+02</wgt>
<wgt id='15076'>0.30418E+02</wgt>
<wgt id='15077'>0.30427E+02</wgt>
<wgt id='15078'>0.30423E+02</wgt>
<wgt id='15079'>0.30416E+02</wgt>
<wgt id='15080'>0.30443E+02</wgt>
<wgt id='15081'>0.30418E+02</wgt>
<wgt id='15082'>0.30428E+02</wgt>
<wgt id='15083'>0.30410E+02</wgt>
<wgt id='15084'>0.30410E+02</wgt>
<wgt id='15085'>0.30410E+02</wgt>
<wgt id='15086'>0.30425E+02</wgt>
<wgt id='15087'>0.30399E+02</wgt>
<wgt id='15088'>0.30412E+02</wgt>
<wgt id='15089'>0.30412E+02</wgt>
<wgt id='15090'>0.30426E+02</wgt>
<wgt id='15091'>0.30416E+02</wgt>
<wgt id='15092'>0.30419E+02</wgt>
<wgt id='15093'>0.30414E+02</wgt>
<wgt id='15094'>0.30417E+02</wgt>
<wgt id='15095'>0.30424E+02</wgt>
<wgt id='15096'>0.30413E+02</wgt>
<wgt id='15097'>0.30422E+02</wgt>
<wgt id='15098'>0.30420E+02</wgt>
<wgt id='15099'>0.30413E+02</wgt>
<wgt id='15100'>0.30420E+02</wgt>
<wgt id='15101'>0.30420E+02</wgt>
<wgt id='15102'>0.30418E+02</wgt>
<wgt id='15103'>0.30421E+02</wgt>
<wgt id='15104'>0.30421E+02</wgt>
<wgt id='15105'>0.30421E+02</wgt>
<wgt id='15106'>0.30420E+02</wgt>
<wgt id='15107'>0.30419E+02</wgt>
<wgt id='1500'>0.32741E+02</wgt>
<wgt id='1501'>0.31153E+02</wgt>
<wgt id='1502'>0.32608E+02</wgt>
<wgt id='1503'>0.33208E+02</wgt>
<wgt id='1504'>0.32138E+02</wgt>
<wgt id='1505'>0.30852E+02</wgt>
<wgt id='1506'>0.33491E+02</wgt>
<wgt id='1507'>0.32746E+02</wgt>
<wgt id='1508'>0.32792E+02</wgt>
<wgt id='1509'>0.33214E+02</wgt>
<wgt id='1510'>0.32252E+02</wgt>
<wgt id='1511'>0.31945E+02</wgt>
<wgt id='1512'>0.33213E+02</wgt>
<wgt id='1513'>0.33148E+02</wgt>
<wgt id='1514'>0.32708E+02</wgt>
<wgt id='1515'>0.33456E+02</wgt>
<wgt id='1516'>0.32914E+02</wgt>
<wgt id='1517'>0.32763E+02</wgt>
<wgt id='1518'>0.32595E+02</wgt>
<wgt id='1519'>0.33097E+02</wgt>
<wgt id='1520'>0.33583E+02</wgt>
<wgt id='1521'>0.33235E+02</wgt>
<wgt id='1522'>0.32519E+02</wgt>
<wgt id='1523'>0.34892E+02</wgt>
<wgt id='1524'>0.32858E+02</wgt>
<wgt id='1525'>0.32652E+02</wgt>
<wgt id='1526'>0.32636E+02</wgt>
<wgt id='1527'>0.32357E+02</wgt>
<wgt id='1528'>0.32531E+02</wgt>
<wgt id='1529'>0.33080E+02</wgt>
<wgt id='1530'>0.33605E+02</wgt>
<wgt id='1531'>0.32687E+02</wgt>
<wgt id='1532'>0.32126E+02</wgt>
<wgt id='1533'>0.32220E+02</wgt>
<wgt id='1534'>0.32951E+02</wgt>
<wgt id='1535'>0.33398E+02</wgt>
<wgt id='1536'>0.32508E+02</wgt>
<wgt id='1537'>0.33327E+02</wgt>
<wgt id='1538'>0.32492E+02</wgt>
<wgt id='1539'>0.32143E+02</wgt>
<wgt id='1540'>0.32630E+02</wgt>
<wgt id='1541'>0.32782E+02</wgt>
<wgt id='1542'>0.32610E+02</wgt>
<wgt id='1543'>0.32724E+02</wgt>
<wgt id='1544'>0.32832E+02</wgt>
<wgt id='1545'>0.32751E+02</wgt>
<wgt id='1546'>0.33206E+02</wgt>
<wgt id='1547'>0.32338E+02</wgt>
<wgt id='1548'>0.32537E+02</wgt>
<wgt id='1549'>0.32349E+02</wgt>
<wgt id='1550'>0.32454E+02</wgt>
<wgt id='1551'>0.32624E+02</wgt>
<wgt id='1552'>0.32338E+02</wgt>
<wgt id='1553'>0.33189E+02</wgt>
<wgt id='1554'>0.32866E+02</wgt>
<wgt id='1555'>0.32235E+02</wgt>
<wgt id='1556'>0.32504E+02</wgt>
<wgt id='1557'>0.32893E+02</wgt>
<wgt id='1558'>0.32385E+02</wgt>
<wgt id='1559'>0.33501E+02</wgt>
<wgt id='1560'>0.32523E+02</wgt>
<wgt id='1561'>0.32499E+02</wgt>
<wgt id='1562'>0.33019E+02</wgt>
<wgt id='1563'>0.32588E+02</wgt>
<wgt id='1564'>0.32305E+02</wgt>
<wgt id='1565'>0.32683E+02</wgt>
<wgt id='1566'>0.32902E+02</wgt>
<wgt id='1567'>0.34888E+02</wgt>
<wgt id='1568'>0.32534E+02</wgt>
<wgt id='1569'>0.31787E+02</wgt>
<wgt id='1570'>0.32260E+02</wgt>
<wgt id='1571'>0.32438E+02</wgt>
<wgt id='1572'>0.33157E+02</wgt>
<wgt id='1573'>0.31151E+02</wgt>
<wgt id='1574'>0.33351E+02</wgt>
<wgt id='1575'>0.32385E+02</wgt>
<wgt id='1576'>0.32492E+02</wgt>
<wgt id='1577'>0.32994E+02</wgt>
<wgt id='1578'>0.33391E+02</wgt>
<wgt id='1579'>0.32304E+02</wgt>
<wgt id='1580'>0.32644E+02</wgt>
<wgt id='1581'>0.32968E+02</wgt>
<wgt id='1582'>0.32060E+02</wgt>
<wgt id='1583'>0.33518E+02</wgt>
<wgt id='1584'>0.32468E+02</wgt>
<wgt id='1585'>0.32348E+02</wgt>
<wgt id='1586'>0.32533E+02</wgt>
<wgt id='1587'>0.32961E+02</wgt>
<wgt id='1588'>0.32551E+02</wgt>
<wgt id='1589'>0.33746E+02</wgt>
<wgt id='1590'>0.32573E+02</wgt>
<wgt id='1591'>0.32367E+02</wgt>
<wgt id='1592'>0.32454E+02</wgt>
<wgt id='1593'>0.32671E+02</wgt>
<wgt id='1594'>0.33480E+02</wgt>
<wgt id='1595'>0.32422E+02</wgt>
<wgt id='1596'>0.33004E+02</wgt>
<wgt id='1597'>0.32519E+02</wgt>
<wgt id='1598'>0.33024E+02</wgt>
<wgt id='1599'>0.32920E+02</wgt>
<wgt id='1600'>0.33379E+02</wgt>
<wgt id='1601'>0.32166E+02</wgt>
<wgt id='1602'>0.33120E+02</wgt>
<wgt id='1700'>0.31128E+02</wgt>
<wgt id='1800'>0.37417E+02</wgt>
<wgt id='1850'>0.46544E+02</wgt>
<wgt id='1900'>0.39567E+02</wgt>
<wgt id='1950'>0.46440E+02</wgt>
</rwgt>
</event>
<event>
      4   9999  3.15120E+01  5.29310E+01 -1.00000E+00  1.35711E-01
      21    -1     0     0   502   501  0.000000000E+00  0.000000000E+00  4.226827873E+02  4.226827873E+02  0.000000000E+00  0.00000E+00  9.000E+00
      21    -1     0     0   501   511  0.000000000E+00  0.000000000E+00 -3.741964421E+01  3.741964421E+01  0.000000000E+00  0.00000E+00  9.000E+00
      25     1     1     2     0     0 -6.732680313E+00  5.250107070E+01  3.854691096E+02  4.071710247E+02  1.200004895E+02  0.00000E+00  9.000E+00
      21     1     1     2   502   511  6.732680313E+00 -5.250107070E+01 -2.059664998E-01  5.293140684E+01  9.781990949E-08  0.00000E+00  9.000E+00
#rwgt            1           1   35.558181001955397                1         381           0
<rwgt>
<wgt id='1001'>0.31512E+02</wgt>
<wgt id='1002'>0.27502E+02</wgt>
<wgt id='1003'>0.35357E+02</wgt>
<wgt id='1004'>0.27894E+02</wgt>
<wgt id='1005'>0.25021E+02</wgt>
<wgt id='1006'>0.30568E+02</wgt>
<wgt id='1007'>0.35596E+02</wgt>
<wgt id='1008'>0.29836E+02</wgt>
<wgt id='1009'>0.41265E+02</wgt>
<wgt id='2000'>0.31512E+02</wgt>
<wgt id='2001'>0.31471E+02</wgt>
<wgt id='2002'>0.31553E+02</wgt>
<wgt id='2003'>0.31510E+02</wgt>
<wgt id='2004'>0.31540E+02</wgt>
<wgt id='2005'>0.31525E+02</wgt>
<wgt id='2006'>0.31503E+02</wgt>
<wgt id='2007'>0.31553E+02</wgt>
<wgt id='2008'>0.31594E+02</wgt>
<wgt id='2009'>0.31467E+02</wgt>
<wgt id='2010'>0.31460E+02</wgt>
<wgt id='2011'>0.31564E+02</wgt>
<wgt id='2012'>0.31549E+02</wgt>
<wgt id='2013'>0.31499E+02</wgt>
<wgt id='2014'>0.31501E+02</wgt>
<wgt id='2015'>0.31521E+02</wgt>
<wgt id='2016'>0.31537E+02</wgt>
<wgt id='2017'>0.31502E+02</wgt>
<wgt id='2018'>0.31502E+02</wgt>
<wgt id='2019'>0.31521E+02</wgt>
<wgt id='2020'>0.31538E+02</wgt>
<wgt id='2021'>0.31508E+02</wgt>
<wgt id='2022'>0.31541E+02</wgt>
<wgt id='2023'>0.31549E+02</wgt>
<wgt id='2024'>0.31482E+02</wgt>
<wgt id='2025'>0.31571E+02</wgt>
<wgt id='2026'>0.31586E+02</wgt>
<wgt id='2027'>0.31477E+02</wgt>
<wgt id='2028'>0.31445E+02</wgt>
<wgt id='2029'>0.31612E+02</wgt>
<wgt id='2030'>0.31522E+02</wgt>
<wgt id='2031'>0.31549E+02</wgt>
<wgt id='2032'>0.31464E+02</wgt>
<wgt id='2033'>0.31517E+02</wgt>
<wgt id='2034'>0.31585E+02</wgt>
<wgt id='2035'>0.31518E+02</wgt>
<wgt id='2036'>0.31535E+02</wgt>
<wgt id='2037'>0.31550E+02</wgt>
<wgt id='2038'>0.31500E+02</wgt>
<wgt id='2039'>0.31458E+02</wgt>
<wgt id='2040'>0.31526E+02</wgt>
<wgt id='2041'>0.31524E+02</wgt>
<wgt id='2042'>0.31504E+02</wgt>
<wgt id='2043'>0.31487E+02</wgt>
<wgt id='2044'>0.31535E+02</wgt>
<wgt id='2045'>0.31501E+02</wgt>
<wgt id='2046'>0.31561E+02</wgt>
<wgt id='2047'>0.31559E+02</wgt>
<wgt id='2048'>0.31507E+02</wgt>
<wgt id='2049'>0.31504E+02</wgt>
<wgt id='2050'>0.31522E+02</wgt>
<wgt id='2051'>0.31531E+02</wgt>
<wgt id='2052'>0.31510E+02</wgt>
<wgt id='2053'>0.31524E+02</wgt>
<wgt id='2054'>0.31512E+02</wgt>
<wgt id='2055'>0.31508E+02</wgt>
<wgt id='2056'>0.31501E+02</wgt>
<wgt id='2057'>0.31512E+02</wgt>
<wgt id='2058'>0.31514E+02</wgt>
<wgt id='2059'>0.31503E+02</wgt>
<wgt id='2060'>0.31522E+02</wgt>
<wgt id='2061'>0.31483E+02</wgt>
<wgt id='2062'>0.31494E+02</wgt>
<wgt id='2063'>0.31537E+02</wgt>
<wgt id='2064'>0.31494E+02</wgt>
<wgt id='2065'>0.31539E+02</wgt>
<wgt id='2066'>0.31511E+02</wgt>
<wgt id='2067'>0.31515E+02</wgt>
<wgt id='2068'>0.31522E+02</wgt>
<wgt id='2069'>0.31523E+02</wgt>
<wgt id='2070'>0.31502E+02</wgt>
<wgt id='2071'>0.31502E+02</wgt>
<wgt id='2072'>0.31512E+02</wgt>
<wgt id='2073'>0.31516E+02</wgt>
<wgt id='2074'>0.31522E+02</wgt>
<wgt id='2075'>0.31515E+02</wgt>
<wgt id='2076'>0.31502E+02</wgt>
<wgt id='2077'>0.31514E+02</wgt>
<wgt id='2078'>0.31507E+02</wgt>
<wgt id='2079'>0.31508E+02</wgt>
<wgt id='2080'>0.31511E+02</wgt>
<wgt id='2081'>0.31520E+02</wgt>
<wgt id='2082'>0.31518E+02</wgt>
<wgt id='2083'>0.31511E+02</wgt>
<wgt id='2084'>0.31524E+02</wgt>
<wgt id='2085'>0.31505E+02</wgt>
<wgt id='2086'>0.31498E+02</wgt>
<wgt id='2087'>0.31515E+02</wgt>
<wgt id='2088'>0.31518E+02</wgt>
<wgt id='2089'>0.31514E+02</wgt>
<wgt id='2090'>0.31510E+02</wgt>
<wgt id='2091'>0.31514E+02</wgt>
<wgt id='2092'>0.31510E+02</wgt>
<wgt id='2093'>0.31510E+02</wgt>
<wgt id='2094'>0.31513E+02</wgt>
<wgt id='2095'>0.31511E+02</wgt>
<wgt id='2096'>0.31512E+02</wgt>
<wgt id='2097'>0.31510E+02</wgt>
<wgt id='2098'>0.31515E+02</wgt>
<wgt id='2099'>0.31507E+02</wgt>
<wgt id='2100'>0.31514E+02</wgt>
<wgt id='2101'>0.30717E+02</wgt>
<wgt id='2102'>0.32312E+02</wgt>
<wgt id='2104'>0.27663E+02</wgt>
<wgt id='2105'>0.28393E+02</wgt>
<wgt id='2106'>0.29107E+02</wgt>
<wgt id='2107'>0.29851E+02</wgt>
<wgt id='2108'>0.31111E+02</wgt>
<wgt id='2109'>0.31920E+02</wgt>
<wgt id='2110'>0.33055E+02</wgt>
<wgt id='2111'>0.33845E+02</wgt>
<wgt id='3000'>0.33006E+02</wgt>
<wgt id='3001'>0.33047E+02</wgt>
<wgt id='3002'>0.32954E+02</wgt>
<wgt id='3003'>0.33006E+02</wgt>
<wgt id='3004'>0.33043E+02</wgt>
<wgt id='3005'>0.32992E+02</wgt>
<wgt id='3006'>0.32994E+02</wgt>
<wgt id='3007'>0.32932E+02</wgt>
<wgt id='3008'>0.32987E+02</wgt>
<wgt id='3009'>0.32875E+02</wgt>
<wgt id='3010'>0.32974E+02</wgt>
<wgt id='3011'>0.33045E+02</wgt>
<wgt id='3012'>0.33054E+02</wgt>
<wgt id='3013'>0.32978E+02</wgt>
<wgt id='3014'>0.32988E+02</wgt>
<wgt id='3015'>0.33008E+02</wgt>
<wgt id='3016'>0.33010E+02</wgt>
<wgt id='3017'>0.32987E+02</wgt>
<wgt id='3018'>0.33040E+02</wgt>
<wgt id='3019'>0.33032E+02</wgt>
<wgt id='3020'>0.32992E+02</wgt>
<wgt id='3021'>0.32982E+02</wgt>
<wgt id='3022'>0.33006E+02</wgt>
<wgt id='3023'>0.32979E+02</wgt>
<wgt id='3024'>0.32962E+02</wgt>
<wgt id='3025'>0.33023E+02</wgt>
<wgt id='3026'>0.33037E+02</wgt>
<wgt id='3027'>0.33012E+02</wgt>
<wgt id='3028'>0.32921E+02</wgt>
<wgt id='3029'>0.32946E+02</wgt>
<wgt id='3030'>0.33102E+02</wgt>
<wgt id='3031'>0.33056E+02</wgt>
<wgt id='3032'>0.33050E+02</wgt>
<wgt id='3033'>0.33089E+02</wgt>
<wgt id='3034'>0.33024E+02</wgt>
<wgt id='3035'>0.33117E+02</wgt>
<wgt id='3036'>0.33022E+02</wgt>
<wgt id='3037'>0.33021E+02</wgt>
<wgt id='3038'>0.33006E+02</wgt>
<wgt id='3039'>0.32970E+02</wgt>
<wgt id='3040'>0.32989E+02</wgt>
<wgt id='3041'>0.33023E+02</wgt>
<wgt id='3042'>0.32976E+02</wgt>
<wgt id='3043'>0.32990E+02</wgt>
<wgt id='3044'>0.32993E+02</wgt>
<wgt id='3045'>0.33022E+02</wgt>
<wgt id='3046'>0.33028E+02</wgt>
<wgt id='3047'>0.33009E+02</wgt>
<wgt id='3048'>0.33006E+02</wgt>
<wgt id='3049'>0.33011E+02</wgt>
<wgt id='3050'>0.32992E+02</wgt>
<wgt id='3051'>0.33046E+02</wgt>
<wgt id='3052'>0.32999E+02</wgt>
<wgt id='3053'>0.32970E+02</wgt>
<wgt id='3054'>0.32989E+02</wgt>
<wgt id='3055'>0.32982E+02</wgt>
<wgt id='3056'>0.33010E+02</wgt>
<wgt id='3057'>0.32976E+02</wgt>
<wgt id='3058'>0.32997E+02</wgt>
<wgt id='3059'>0.32990E+02</wgt>
<wgt id='3060'>0.33012E+02</wgt>
<wgt id='3061'>0.32986E+02</wgt>
<wgt id='3062'>0.33026E+02</wgt>
<wgt id='3063'>0.33007E+02</wgt>
<wgt id='3064'>0.32989E+02</wgt>
<wgt id='3065'>0.32995E+02</wgt>
<wgt id='3066'>0.33010E+02</wgt>
<wgt id='3067'>0.32973E+02</wgt>
<wgt id='3068'>0.33021E+02</wgt>
<wgt id='3069'>0.32997E+02</wgt>
<wgt id='3070'>0.33013E+02</wgt>
<wgt id='3071'>0.32996E+02</wgt>
<wgt id='3072'>0.33009E+02</wgt>
<wgt id='3073'>0.32989E+02</wgt>
<wgt id='3074'>0.33015E+02</wgt>
<wgt id='3075'>0.33001E+02</wgt>
<wgt id='3076'>0.32999E+02</wgt>
<wgt id='3077'>0.33015E+02</wgt>
<wgt id='3078'>0.33008E+02</wgt>
<wgt id='3079'>0.33008E+02</wgt>
<wgt id='3080'>0.33000E+02</wgt>
<wgt id='3081'>0.33013E+02</wgt>
<wgt id='3082'>0.33004E+02</wgt>
<wgt id='3083'>0.33005E+02</wgt>
<wgt id='3084'>0.33012E+02</wgt>
<wgt id='3085'>0.32998E+02</wgt>
<wgt id='3086'>0.33006E+02</wgt>
<wgt id='3087'>0.33022E+02</wgt>
<wgt id='3088'>0.33003E+02</wgt>
<wgt id='3089'>0.33005E+02</wgt>
<wgt id='3090'>0.33003E+02</wgt>
<wgt id='3091'>0.33007E+02</wgt>
<wgt id='3092'>0.33008E+02</wgt>
<wgt id='3093'>0.33000E+02</wgt>
<wgt id='3094'>0.33010E+02</wgt>
<wgt id='3095'>0.32998E+02</wgt>
<wgt id='3096'>0.33006E+02</wgt>
<wgt id='3097'>0.32997E+02</wgt>
<wgt id='3098'>0.33005E+02</wgt>
<wgt id='3099'>0.33007E+02</wgt>
<wgt id='3100'>0.33000E+02</wgt>
<wgt id='3101'>0.32140E+02</wgt>
<wgt id='3102'>0.33912E+02</wgt>
<wgt id='5000'>0.30824E+02</wgt>
<wgt id='5001'>0.30774E+02</wgt>
<wgt id='5002'>0.30748E+02</wgt>
<wgt id='5003'>0.30774E+02</wgt>
<wgt id='5004'>0.30806E+02</wgt>
<wgt id='5005'>0.30643E+02</wgt>
<wgt id='5006'>0.30688E+02</wgt>
<wgt id='5007'>0.30708E+02</wgt>
<wgt id='5008'>0.30812E+02</wgt>
<wgt id='5009'>0.30917E+02</wgt>
<wgt id='5010'>0.30748E+02</wgt>
<wgt id='5011'>0.30876E+02</wgt>
<wgt id='5012'>0.30715E+02</wgt>
<wgt id='5013'>0.30661E+02</wgt>
<wgt id='5014'>0.30763E+02</wgt>
<wgt id='5015'>0.30919E+02</wgt>
<wgt id='5016'>0.30481E+02</wgt>
<wgt id='5017'>0.30759E+02</wgt>
<wgt id='5018'>0.30899E+02</wgt>
<wgt id='5019'>0.30710E+02</wgt>
<wgt id='5020'>0.30937E+02</wgt>
<wgt id='5021'>0.30858E+02</wgt>
<wgt id='5022'>0.30801E+02</wgt>
<wgt id='5023'>0.30643E+02</wgt>
<wgt id='5024'>0.31016E+02</wgt>
<wgt id='5025'>0.30842E+02</wgt>
<wgt id='5026'>0.30809E+02</wgt>
<wgt id='5027'>0.31050E+02</wgt>
<wgt id='5028'>0.30437E+02</wgt>
<wgt id='5029'>0.30452E+02</wgt>
<wgt id='5030'>0.31043E+02</wgt>
<wgt id='5031'>0.30593E+02</wgt>
<wgt id='5032'>0.31149E+02</wgt>
<wgt id='5033'>0.30673E+02</wgt>
<wgt id='5034'>0.30955E+02</wgt>
<wgt id='5035'>0.30521E+02</wgt>
<wgt id='5036'>0.31079E+02</wgt>
<wgt id='5037'>0.30585E+02</wgt>
<wgt id='5038'>0.31087E+02</wgt>
<wgt id='5039'>0.31322E+02</wgt>
<wgt id='5040'>0.30574E+02</wgt>
<wgt id='5041'>0.30675E+02</wgt>
<wgt id='5042'>0.30826E+02</wgt>
<wgt id='5043'>0.30995E+02</wgt>
<wgt id='5044'>0.30324E+02</wgt>
<wgt id='5045'>0.31012E+02</wgt>
<wgt id='5046'>0.30771E+02</wgt>
<wgt id='5047'>0.30663E+02</wgt>
<wgt id='5048'>0.31129E+02</wgt>
<wgt id='5049'>0.30819E+02</wgt>
<wgt id='5050'>0.30917E+02</wgt>
<wgt id='5051'>0.30880E+02</wgt>
<wgt id='5052'>0.30809E+02</wgt>
<wgt id='5053'>0.30088E+02</wgt>
<wgt id='5054'>0.30569E+02</wgt>
<wgt id='5055'>0.30652E+02</wgt>
<wgt id='5056'>0.31075E+02</wgt>
<wgt id='5060'>0.29921E+02</wgt>
<wgt id='5070'>0.31710E+02</wgt>
<wgt id='4000'>0.32313E+02</wgt>
<wgt id='4001'>0.32322E+02</wgt>
<wgt id='4002'>0.32389E+02</wgt>
<wgt id='4003'>0.32220E+02</wgt>
<wgt id='4004'>0.32342E+02</wgt>
<wgt id='4005'>0.32447E+02</wgt>
<wgt id='4006'>0.32233E+02</wgt>
<wgt id='4007'>0.32310E+02</wgt>
<wgt id='4008'>0.32382E+02</wgt>
<wgt id='4009'>0.31954E+02</wgt>
<wgt id='4010'>0.32506E+02</wgt>
<wgt id='4011'>0.32630E+02</wgt>
<wgt id='4012'>0.32122E+02</wgt>
<wgt id='4013'>0.31506E+02</wgt>
<wgt id='4014'>0.32748E+02</wgt>
<wgt id='4015'>0.32692E+02</wgt>
<wgt id='4016'>0.32074E+02</wgt>
<wgt id='4017'>0.31914E+02</wgt>
<wgt id='4018'>0.32786E+02</wgt>
<wgt id='4019'>0.32590E+02</wgt>
<wgt id='4020'>0.31992E+02</wgt>
<wgt id='4021'>0.32321E+02</wgt>
<wgt id='4022'>0.32266E+02</wgt>
<wgt id='4023'>0.32284E+02</wgt>
<wgt id='4024'>0.32322E+02</wgt>
<wgt id='4025'>0.32192E+02</wgt>
<wgt id='4026'>0.32418E+02</wgt>
<wgt id='4027'>0.32278E+02</wgt>
<wgt id='4028'>0.32356E+02</wgt>
<wgt id='4029'>0.32202E+02</wgt>
<wgt id='4030'>0.32351E+02</wgt>
<wgt id='4031'>0.32350E+02</wgt>
<wgt id='4032'>0.32265E+02</wgt>
<wgt id='4033'>0.32276E+02</wgt>
<wgt id='4034'>0.32394E+02</wgt>
<wgt id='4035'>0.32458E+02</wgt>
<wgt id='4036'>0.32174E+02</wgt>
<wgt id='4037'>0.32386E+02</wgt>
<wgt id='4038'>0.32146E+02</wgt>
<wgt id='4039'>0.32215E+02</wgt>
<wgt id='4040'>0.32351E+02</wgt>
<wgt id='4041'>0.32413E+02</wgt>
<wgt id='4042'>0.32227E+02</wgt>
<wgt id='4043'>0.32195E+02</wgt>
<wgt id='4044'>0.32421E+02</wgt>
<wgt id='4045'>0.32112E+02</wgt>
<wgt id='4046'>0.32280E+02</wgt>
<wgt id='4047'>0.32186E+02</wgt>
<wgt id='4048'>0.32193E+02</wgt>
<wgt id='4049'>0.32091E+02</wgt>
<wgt id='4050'>0.32222E+02</wgt>
<wgt id='4051'>0.32252E+02</wgt>
<wgt id='4052'>0.32269E+02</wgt>
<wgt id='4053'>0.31315E+02</wgt>
<wgt id='4054'>0.32290E+02</wgt>
<wgt id='4055'>0.32182E+02</wgt>
<wgt id='4056'>0.32521E+02</wgt>
<wgt id='4060'>0.31304E+02</wgt>
<wgt id='4070'>0.33314E+02</wgt>
<wgt id='4080'>0.34010E+02</wgt>
<wgt id='6000'>0.32712E+02</wgt>
<wgt id='6001'>0.32753E+02</wgt>
<wgt id='6002'>0.32668E+02</wgt>
<wgt id='6003'>0.32728E+02</wgt>
<wgt id='6004'>0.32701E+02</wgt>
<wgt id='6005'>0.32762E+02</wgt>
<wgt id='6006'>0.32665E+02</wgt>
<wgt id='6007'>0.32594E+02</wgt>
<wgt id='6008'>0.32842E+02</wgt>
<wgt id='6009'>0.32849E+02</wgt>
<wgt id='6010'>0.32578E+02</wgt>
<wgt id='6011'>0.32788E+02</wgt>
<wgt id='6012'>0.32548E+02</wgt>
<wgt id='6013'>0.32670E+02</wgt>
<wgt id='6014'>0.32785E+02</wgt>
<wgt id='6015'>0.32618E+02</wgt>
<wgt id='6016'>0.32764E+02</wgt>
<wgt id='6017'>0.32519E+02</wgt>
<wgt id='6018'>0.32941E+02</wgt>
<wgt id='6019'>0.32716E+02</wgt>
<wgt id='6020'>0.32707E+02</wgt>
<wgt id='6021'>0.32660E+02</wgt>
<wgt id='6022'>0.32784E+02</wgt>
<wgt id='6023'>0.32492E+02</wgt>
<wgt id='6024'>0.32869E+02</wgt>
<wgt id='6025'>0.32681E+02</wgt>
<wgt id='6026'>0.32636E+02</wgt>
<wgt id='6027'>0.32802E+02</wgt>
<wgt id='6028'>0.32712E+02</wgt>
<wgt id='6029'>0.32786E+02</wgt>
<wgt id='6030'>0.32625E+02</wgt>
<wgt id='6031'>0.32642E+02</wgt>
<wgt id='6032'>0.32771E+02</wgt>
<wgt id='6033'>0.32797E+02</wgt>
<wgt id='6034'>0.32624E+02</wgt>
<wgt id='6035'>0.32728E+02</wgt>
<wgt id='6036'>0.32728E+02</wgt>
<wgt id='6037'>0.32778E+02</wgt>
<wgt id='6038'>0.32720E+02</wgt>
<wgt id='6039'>0.32658E+02</wgt>
<wgt id='6040'>0.32771E+02</wgt>
<wgt id='6041'>0.32641E+02</wgt>
<wgt id='6042'>0.32801E+02</wgt>
<wgt id='6043'>0.33141E+02</wgt>
<wgt id='6044'>0.32551E+02</wgt>
<wgt id='6045'>0.32677E+02</wgt>
<wgt id='6046'>0.32779E+02</wgt>
<wgt id='6047'>0.32850E+02</wgt>
<wgt id='6048'>0.32458E+02</wgt>
<wgt id='6049'>0.32777E+02</wgt>
<wgt id='6050'>0.32675E+02</wgt>
<wgt id='7000'>0.30757E+02</wgt>
<wgt id='7001'>0.30781E+02</wgt>
<wgt id='7002'>0.30730E+02</wgt>
<wgt id='7003'>0.30843E+02</wgt>
<wgt id='7004'>0.30673E+02</wgt>
<wgt id='7005'>0.30807E+02</wgt>
<wgt id='7006'>0.30739E+02</wgt>
<wgt id='7007'>0.30636E+02</wgt>
<wgt id='7008'>0.30879E+02</wgt>
<wgt id='7009'>0.30822E+02</wgt>
<wgt id='7010'>0.30696E+02</wgt>
<wgt id='7011'>0.30440E+02</wgt>
<wgt id='7012'>0.30896E+02</wgt>
<wgt id='7013'>0.30757E+02</wgt>
<wgt id='7014'>0.30760E+02</wgt>
<wgt id='7015'>0.30661E+02</wgt>
<wgt id='7016'>0.30861E+02</wgt>
<wgt id='7017'>0.30575E+02</wgt>
<wgt id='7018'>0.30856E+02</wgt>
<wgt id='7019'>0.30732E+02</wgt>
<wgt id='7020'>0.30795E+02</wgt>
<wgt id='7021'>0.30739E+02</wgt>
<wgt id='7022'>0.30770E+02</wgt>
<wgt id='7023'>0.30917E+02</wgt>
<wgt id='7024'>0.30583E+02</wgt>
<wgt id='7025'>0.30843E+02</wgt>
<wgt id='7026'>0.30552E+02</wgt>
<wgt id='7027'>0.30868E+02</wgt>
<wgt id='7028'>0.30725E+02</wgt>
<wgt id='7029'>0.30706E+02</wgt>
<wgt id='7030'>0.30861E+02</wgt>
<wgt id='7031'>0.30726E+02</wgt>
<wgt id='7032'>0.30827E+02</wgt>
<wgt id='7033'>0.30747E+02</wgt>
<wgt id='7034'>0.30798E+02</wgt>
<wgt id='7035'>0.30751E+02</wgt>
<wgt id='7036'>0.30775E+02</wgt>
<wgt id='7037'>0.30766E+02</wgt>
<wgt id='7038'>0.30777E+02</wgt>
<wgt id='7039'>0.30700E+02</wgt>
<wgt id='7040'>0.30799E+02</wgt>
<wgt id='7041'>0.30710E+02</wgt>
<wgt id='7042'>0.30816E+02</wgt>
<wgt id='7043'>0.30778E+02</wgt>
<wgt id='7044'>0.30640E+02</wgt>
<wgt id='7045'>0.30504E+02</wgt>
<wgt id='7046'>0.30929E+02</wgt>
<wgt id='7047'>0.30844E+02</wgt>
<wgt id='7048'>0.30712E+02</wgt>
<wgt id='7049'>0.30685E+02</wgt>
<wgt id='7050'>0.30818E+02</wgt>
<wgt id='7060'>0.48809E+02</wgt>
<wgt id='8000'>0.31259E+02</wgt>
<wgt id='8001'>0.31251E+02</wgt>
<wgt id='8002'>0.31267E+02</wgt>
<wgt id='8003'>0.31261E+02</wgt>
<wgt id='8004'>0.31258E+02</wgt>
<wgt id='8005'>0.31188E+02</wgt>
<wgt id='8006'>0.31250E+02</wgt>
<wgt id='8007'>0.31235E+02</wgt>
<wgt id='8008'>0.31319E+02</wgt>
<wgt id='8009'>0.31377E+02</wgt>
<wgt id='8010'>0.31256E+02</wgt>
<wgt id='8011'>0.31242E+02</wgt>
<wgt id='8012'>0.31211E+02</wgt>
<wgt id='8013'>0.31240E+02</wgt>
<wgt id='8014'>0.31266E+02</wgt>
<wgt id='8015'>0.31230E+02</wgt>
<wgt id='8016'>0.31276E+02</wgt>
<wgt id='8017'>0.31271E+02</wgt>
<wgt id='8018'>0.31284E+02</wgt>
<wgt id='8019'>0.31283E+02</wgt>
<wgt id='8020'>0.31210E+02</wgt>
<wgt id='8021'>0.31248E+02</wgt>
<wgt id='8022'>0.31177E+02</wgt>
<wgt id='8023'>0.31249E+02</wgt>
<wgt id='8024'>0.31249E+02</wgt>
<wgt id='8025'>0.31300E+02</wgt>
<wgt id='8026'>0.31309E+02</wgt>
<wgt id='8027'>0.31232E+02</wgt>
<wgt id='8028'>0.31278E+02</wgt>
<wgt id='8029'>0.31144E+02</wgt>
<wgt id='8500'>0.32571E+02</wgt>
<wgt id='8501'>0.32422E+02</wgt>
<wgt id='8502'>0.32648E+02</wgt>
<wgt id='8503'>0.32671E+02</wgt>
<wgt id='8504'>0.32505E+02</wgt>
<wgt id='8505'>0.32578E+02</wgt>
<wgt id='8506'>0.32548E+02</wgt>
<wgt id='8507'>0.32670E+02</wgt>
<wgt id='8508'>0.32642E+02</wgt>
<wgt id='8509'>0.32577E+02</wgt>
<wgt id='8510'>0.32877E+02</wgt>
<wgt id='8511'>0.32575E+02</wgt>
<wgt id='8512'>0.32447E+02</wgt>
<wgt id='8513'>0.32553E+02</wgt>
<wgt id='8514'>0.32311E+02</wgt>
<wgt id='8515'>0.32683E+02</wgt>
<wgt id='8516'>0.32591E+02</wgt>
<wgt id='8517'>0.32444E+02</wgt>
<wgt id='8518'>0.32417E+02</wgt>
<wgt id='8519'>0.32405E+02</wgt>
<wgt id='8520'>0.32550E+02</wgt>
<wgt id='8521'>0.32415E+02</wgt>
<wgt id='8522'>0.32626E+02</wgt>
<wgt id='8523'>0.32476E+02</wgt>
<wgt id='8524'>0.32557E+02</wgt>
<wgt id='8525'>0.32546E+02</wgt>
<wgt id='8526'>0.32470E+02</wgt>
<wgt id='8527'>0.32566E+02</wgt>
<wgt id='8528'>0.32484E+02</wgt>
<wgt id='8529'>0.32550E+02</wgt>
<wgt id='8530'>0.32574E+02</wgt>
<wgt id='8531'>0.32548E+02</wgt>
<wgt id='8532'>0.32572E+02</wgt>
<wgt id='8533'>0.32483E+02</wgt>
<wgt id='8534'>0.32566E+02</wgt>
<wgt id='8535'>0.32666E+02</wgt>
<wgt id='8536'>0.32561E+02</wgt>
<wgt id='8537'>0.32580E+02</wgt>
<wgt id='8538'>0.32544E+02</wgt>
<wgt id='8539'>0.32580E+02</wgt>
<wgt id='8540'>0.32569E+02</wgt>
<wgt id='8541'>0.32593E+02</wgt>
<wgt id='8542'>0.32594E+02</wgt>
<wgt id='8543'>0.32544E+02</wgt>
<wgt id='8544'>0.32602E+02</wgt>
<wgt id='8545'>0.32588E+02</wgt>
<wgt id='8546'>0.32607E+02</wgt>
<wgt id='8547'>0.32538E+02</wgt>
<wgt id='8548'>0.32552E+02</wgt>
<wgt id='8549'>0.32569E+02</wgt>
<wgt id='8550'>0.32573E+02</wgt>
<wgt id='8551'>0.32541E+02</wgt>
<wgt id='8552'>0.32569E+02</wgt>
<wgt id='8553'>0.32548E+02</wgt>
<wgt id='8554'>0.32554E+02</wgt>
<wgt id='8555'>0.32572E+02</wgt>
<wgt id='8556'>0.32563E+02</wgt>
<wgt id='8557'>0.32559E+02</wgt>
<wgt id='8558'>0.32613E+02</wgt>
<wgt id='8559'>0.32549E+02</wgt>
<wgt id='8560'>0.32527E+02</wgt>
<wgt id='8561'>0.32569E+02</wgt>
<wgt id='8562'>0.32536E+02</wgt>
<wgt id='8563'>0.32571E+02</wgt>
<wgt id='8564'>0.32553E+02</wgt>
<wgt id='8565'>0.32569E+02</wgt>
<wgt id='8566'>0.32552E+02</wgt>
<wgt id='8567'>0.32563E+02</wgt>
<wgt id='8568'>0.32591E+02</wgt>
<wgt id='8569'>0.32582E+02</wgt>
<wgt id='8570'>0.32573E+02</wgt>
<wgt id='8571'>0.32557E+02</wgt>
<wgt id='8572'>0.32553E+02</wgt>
<wgt id='8573'>0.32558E+02</wgt>
<wgt id='8574'>0.32575E+02</wgt>
<wgt id='8575'>0.32574E+02</wgt>
<wgt id='8576'>0.32559E+02</wgt>
<wgt id='8577'>0.32575E+02</wgt>
<wgt id='8578'>0.32568E+02</wgt>
<wgt id='8579'>0.32583E+02</wgt>
<wgt id='8580'>0.32574E+02</wgt>
<wgt id='8581'>0.32587E+02</wgt>
<wgt id='8582'>0.32545E+02</wgt>
<wgt id='8583'>0.32588E+02</wgt>
<wgt id='8584'>0.32574E+02</wgt>
<wgt id='8585'>0.32583E+02</wgt>
<wgt id='8586'>0.32577E+02</wgt>
<wgt id='8587'>0.32567E+02</wgt>
<wgt id='8588'>0.32561E+02</wgt>
<wgt id='8589'>0.32571E+02</wgt>
<wgt id='8590'>0.32571E+02</wgt>
<wgt id='8591'>0.32568E+02</wgt>
<wgt id='8592'>0.32568E+02</wgt>
<wgt id='8593'>0.32561E+02</wgt>
<wgt id='8594'>0.32582E+02</wgt>
<wgt id='8595'>0.32576E+02</wgt>
<wgt id='8596'>0.32563E+02</wgt>
<wgt id='8597'>0.32574E+02</wgt>
<wgt id='8598'>0.32577E+02</wgt>
<wgt id='8599'>0.32572E+02</wgt>
<wgt id='8600'>0.32569E+02</wgt>
<wgt id='8601'>0.31916E+02</wgt>
<wgt id='8602'>0.33195E+02</wgt>
<wgt id='9000'>0.30904E+02</wgt>
<wgt id='9001'>0.30944E+02</wgt>
<wgt id='9002'>0.30945E+02</wgt>
<wgt id='9003'>0.30807E+02</wgt>
<wgt id='9004'>0.30913E+02</wgt>
<wgt id='9005'>0.30931E+02</wgt>
<wgt id='9006'>0.30965E+02</wgt>
<wgt id='9007'>0.31023E+02</wgt>
<wgt id='9008'>0.30989E+02</wgt>
<wgt id='9009'>0.30887E+02</wgt>
<wgt id='9010'>0.30846E+02</wgt>
<wgt id='9011'>0.31089E+02</wgt>
<wgt id='9012'>0.30751E+02</wgt>
<wgt id='9013'>0.30712E+02</wgt>
<wgt id='9014'>0.30799E+02</wgt>
<wgt id='9015'>0.30865E+02</wgt>
<wgt id='9016'>0.31096E+02</wgt>
<wgt id='9017'>0.30778E+02</wgt>
<wgt id='9018'>0.30882E+02</wgt>
<wgt id='9019'>0.30903E+02</wgt>
<wgt id='9020'>0.31132E+02</wgt>
<wgt id='9021'>0.30896E+02</wgt>
<wgt id='9022'>0.30951E+02</wgt>
<wgt id='9023'>0.30787E+02</wgt>
<wgt id='9024'>0.30830E+02</wgt>
<wgt id='9025'>0.30938E+02</wgt>
<wgt id='9026'>0.30902E+02</wgt>
<wgt id='9027'>0.30883E+02</wgt>
<wgt id='9028'>0.30938E+02</wgt>
<wgt id='9029'>0.30936E+02</wgt>
<wgt id='9030'>0.30954E+02</wgt>
<wgt id='9031'>0.30890E+02</wgt>
<wgt id='9032'>0.30947E+02</wgt>
<wgt id='9033'>0.30949E+02</wgt>
<wgt id='9034'>0.30879E+02</wgt>
<wgt id='9035'>0.30950E+02</wgt>
<wgt id='9036'>0.30914E+02</wgt>
<wgt id='9037'>0.30938E+02</wgt>
<wgt id='9038'>0.30923E+02</wgt>
<wgt id='9039'>0.30924E+02</wgt>
<wgt id='9040'>0.30865E+02</wgt>
<wgt id='9041'>0.30906E+02</wgt>
<wgt id='9042'>0.30888E+02</wgt>
<wgt id='9043'>0.30868E+02</wgt>
<wgt id='9044'>0.30905E+02</wgt>
<wgt id='9045'>0.30895E+02</wgt>
<wgt id='9046'>0.30863E+02</wgt>
<wgt id='9047'>0.30907E+02</wgt>
<wgt id='9048'>0.30912E+02</wgt>
<wgt id='9049'>0.30888E+02</wgt>
<wgt id='9050'>0.30902E+02</wgt>
<wgt id='9051'>0.30920E+02</wgt>
<wgt id='9052'>0.30916E+02</wgt>
<wgt id='9053'>0.30899E+02</wgt>
<wgt id='9054'>0.30890E+02</wgt>
<wgt id='9055'>0.30893E+02</wgt>
<wgt id='9056'>0.30938E+02</wgt>
<wgt id='9057'>0.30907E+02</wgt>
<wgt id='9058'>0.30867E+02</wgt>
<wgt id='9059'>0.30894E+02</wgt>
<wgt id='9060'>0.30891E+02</wgt>
<wgt id='9061'>0.30906E+02</wgt>
<wgt id='9062'>0.30905E+02</wgt>
<wgt id='9063'>0.30920E+02</wgt>
<wgt id='9064'>0.30893E+02</wgt>
<wgt id='9065'>0.30908E+02</wgt>
<wgt id='9066'>0.30914E+02</wgt>
<wgt id='9067'>0.30918E+02</wgt>
<wgt id='9068'>0.30904E+02</wgt>
<wgt id='9069'>0.30931E+02</wgt>
<wgt id='9070'>0.30894E+02</wgt>
<wgt id='9071'>0.30930E+02</wgt>
<wgt id='9072'>0.30932E+02</wgt>
<wgt id='9073'>0.30895E+02</wgt>
<wgt id='9074'>0.30902E+02</wgt>
<wgt id='9075'>0.30903E+02</wgt>
<wgt id='9076'>0.30907E+02</wgt>
<wgt id='9077'>0.30905E+02</wgt>
<wgt id='9078'>0.30902E+02</wgt>
<wgt id='9079'>0.30904E+02</wgt>
<wgt id='9080'>0.30931E+02</wgt>
<wgt id='9081'>0.30899E+02</wgt>
<wgt id='9082'>0.30917E+02</wgt>
<wgt id='9083'>0.30894E+02</wgt>
<wgt id='9084'>0.30900E+02</wgt>
<wgt id='9085'>0.30895E+02</wgt>
<wgt id='9086'>0.30901E+02</wgt>
<wgt id='9087'>0.30889E+02</wgt>
<wgt id='9088'>0.30898E+02</wgt>
<wgt id='9089'>0.30898E+02</wgt>
<wgt id='9090'>0.30909E+02</wgt>
<wgt id='9091'>0.30905E+02</wgt>
<wgt id='9092'>0.30900E+02</wgt>
<wgt id='9093'>0.30899E+02</wgt>
<wgt id='9094'>0.30906E+02</wgt>
<wgt id='9095'>0.30908E+02</wgt>
<wgt id='9096'>0.30896E+02</wgt>
<wgt id='9097'>0.30906E+02</wgt>
<wgt id='9098'>0.30904E+02</wgt>
<wgt id='9099'>0.30899E+02</wgt>
<wgt id='9100'>0.30901E+02</wgt>
<wgt id='9101'>0.30383E+02</wgt>
<wgt id='9102'>0.31426E+02</wgt>
<wgt id='10000'>0.32571E+02</wgt>
<wgt id='10001'>0.32652E+02</wgt>
<wgt id='10002'>0.32408E+02</wgt>
<wgt id='10003'>0.32569E+02</wgt>
<wgt id='10004'>0.32445E+02</wgt>
<wgt id='10005'>0.32944E+02</wgt>
<wgt id='10006'>0.32495E+02</wgt>
<wgt id='10007'>0.32558E+02</wgt>
<wgt id='10008'>0.32668E+02</wgt>
<wgt id='10009'>0.32485E+02</wgt>
<wgt id='10010'>0.32632E+02</wgt>
<wgt id='10011'>0.32515E+02</wgt>
<wgt id='10012'>0.32502E+02</wgt>
<wgt id='10013'>0.32576E+02</wgt>
<wgt id='10014'>0.32555E+02</wgt>
<wgt id='10015'>0.32617E+02</wgt>
<wgt id='10016'>0.32527E+02</wgt>
<wgt id='10017'>0.32369E+02</wgt>
<wgt id='10018'>0.32631E+02</wgt>
<wgt id='10019'>0.32484E+02</wgt>
<wgt id='10020'>0.32509E+02</wgt>
<wgt id='10021'>0.32555E+02</wgt>
<wgt id='10022'>0.32514E+02</wgt>
<wgt id='10023'>0.32590E+02</wgt>
<wgt id='10024'>0.32554E+02</wgt>
<wgt id='10025'>0.32539E+02</wgt>
<wgt id='10026'>0.32651E+02</wgt>
<wgt id='10027'>0.32633E+02</wgt>
<wgt id='10028'>0.32869E+02</wgt>
<wgt id='10029'>0.32613E+02</wgt>
<wgt id='10030'>0.32556E+02</wgt>
<wgt id='10031'>0.31916E+02</wgt>
<wgt id='10032'>0.33195E+02</wgt>
<wgt id='11000'>0.30903E+02</wgt>
<wgt id='11001'>0.30629E+02</wgt>
<wgt id='11002'>0.30927E+02</wgt>
<wgt id='11003'>0.30879E+02</wgt>
<wgt id='11004'>0.30902E+02</wgt>
<wgt id='11005'>0.30669E+02</wgt>
<wgt id='11006'>0.30909E+02</wgt>
<wgt id='11007'>0.30854E+02</wgt>
<wgt id='11008'>0.30837E+02</wgt>
<wgt id='11009'>0.30847E+02</wgt>
<wgt id='11010'>0.31140E+02</wgt>
<wgt id='11011'>0.30817E+02</wgt>
<wgt id='11012'>0.30903E+02</wgt>
<wgt id='11013'>0.30961E+02</wgt>
<wgt id='11014'>0.30857E+02</wgt>
<wgt id='11015'>0.30862E+02</wgt>
<wgt id='11016'>0.30877E+02</wgt>
<wgt id='11017'>0.31035E+02</wgt>
<wgt id='11018'>0.30899E+02</wgt>
<wgt id='11019'>0.30910E+02</wgt>
<wgt id='11020'>0.30935E+02</wgt>
<wgt id='11021'>0.30936E+02</wgt>
<wgt id='11022'>0.31162E+02</wgt>
<wgt id='11023'>0.30904E+02</wgt>
<wgt id='11024'>0.30896E+02</wgt>
<wgt id='11025'>0.30867E+02</wgt>
<wgt id='11026'>0.30909E+02</wgt>
<wgt id='11027'>0.30910E+02</wgt>
<wgt id='11028'>0.30905E+02</wgt>
<wgt id='11029'>0.30891E+02</wgt>
<wgt id='11030'>0.30899E+02</wgt>
<wgt id='11031'>0.30383E+02</wgt>
<wgt id='11032'>0.31426E+02</wgt>
<wgt id='12000'>0.33068E+02</wgt>
<wgt id='12001'>0.33027E+02</wgt>
<wgt id='12002'>0.33108E+02</wgt>
<wgt id='12003'>0.33148E+02</wgt>
<wgt id='12004'>0.32988E+02</wgt>
<wgt id='12005'>0.33112E+02</wgt>
<wgt id='12006'>0.33024E+02</wgt>
<wgt id='12007'>0.33142E+02</wgt>
<wgt id='12008'>0.32996E+02</wgt>
<wgt id='12009'>0.33092E+02</wgt>
<wgt id='12010'>0.33044E+02</wgt>
<wgt id='12011'>0.32935E+02</wgt>
<wgt id='12012'>0.33201E+02</wgt>
<wgt id='12013'>0.32946E+02</wgt>
<wgt id='12014'>0.33190E+02</wgt>
<wgt id='12015'>0.33137E+02</wgt>
<wgt id='12016'>0.32997E+02</wgt>
<wgt id='12017'>0.33188E+02</wgt>
<wgt id='12018'>0.32934E+02</wgt>
<wgt id='12019'>0.33026E+02</wgt>
<wgt id='12020'>0.33106E+02</wgt>
<wgt id='12021'>0.33128E+02</wgt>
<wgt id='12022'>0.32974E+02</wgt>
<wgt id='12023'>0.32826E+02</wgt>
<wgt id='12024'>0.33165E+02</wgt>
<wgt id='12025'>0.33020E+02</wgt>
<wgt id='12026'>0.33165E+02</wgt>
<wgt id='12027'>0.33257E+02</wgt>
<wgt id='12028'>0.32912E+02</wgt>
<wgt id='12050'>0.33068E+02</wgt>
<wgt id='12051'>0.33092E+02</wgt>
<wgt id='12052'>0.33005E+02</wgt>
<wgt id='12053'>0.33086E+02</wgt>
<wgt id='12054'>0.33027E+02</wgt>
<wgt id='12055'>0.33135E+02</wgt>
<wgt id='12056'>0.33117E+02</wgt>
<wgt id='12057'>0.32994E+02</wgt>
<wgt id='12058'>0.33148E+02</wgt>
<wgt id='12059'>0.33072E+02</wgt>
<wgt id='12060'>0.33078E+02</wgt>
<wgt id='12061'>0.32980E+02</wgt>
<wgt id='12062'>0.33130E+02</wgt>
<wgt id='12063'>0.32961E+02</wgt>
<wgt id='13000'>0.31607E+02</wgt>
<wgt id='13001'>0.31583E+02</wgt>
<wgt id='13002'>0.31625E+02</wgt>
<wgt id='13003'>0.31652E+02</wgt>
<wgt id='13004'>0.31555E+02</wgt>
<wgt id='13005'>0.31674E+02</wgt>
<wgt id='13006'>0.31533E+02</wgt>
<wgt id='13007'>0.31727E+02</wgt>
<wgt id='13008'>0.31483E+02</wgt>
<wgt id='13009'>0.31558E+02</wgt>
<wgt id='13010'>0.31650E+02</wgt>
<wgt id='13011'>0.31687E+02</wgt>
<wgt id='13012'>0.31521E+02</wgt>
<wgt id='13013'>0.31512E+02</wgt>
<wgt id='13014'>0.31696E+02</wgt>
<wgt id='13015'>0.31602E+02</wgt>
<wgt id='13016'>0.31613E+02</wgt>
<wgt id='13017'>0.31574E+02</wgt>
<wgt id='13018'>0.31627E+02</wgt>
<wgt id='13019'>0.31557E+02</wgt>
<wgt id='13020'>0.31647E+02</wgt>
<wgt id='13021'>0.31532E+02</wgt>
<wgt id='13022'>0.31637E+02</wgt>
<wgt id='13023'>0.31489E+02</wgt>
<wgt id='13024'>0.31723E+02</wgt>
<wgt id='13025'>0.31365E+02</wgt>
<wgt id='13026'>0.31780E+02</wgt>
<wgt id='13027'>0.31526E+02</wgt>
<wgt id='13028'>0.31713E+02</wgt>
<wgt id='13050'>0.31607E+02</wgt>
<wgt id='13051'>0.31629E+02</wgt>
<wgt id='13052'>0.31398E+02</wgt>
<wgt id='13053'>0.31615E+02</wgt>
<wgt id='13054'>0.31590E+02</wgt>
<wgt id='13055'>0.31279E+02</wgt>
<wgt id='13056'>0.31678E+02</wgt>
<wgt id='13057'>0.31530E+02</wgt>
<wgt id='13058'>0.31741E+02</wgt>
<wgt id='13059'>0.31550E+02</wgt>
<wgt id='13060'>0.31262E+02</wgt>
<wgt id='13061'>0.31525E+02</wgt>
<wgt id='13062'>0.31820E+02</wgt>
<wgt id='13063'>0.31613E+02</wgt>
<wgt id='14000'>0.32218E+02</wgt>
<wgt id='14001'>0.32213E+02</wgt>
<wgt id='14002'>0.32208E+02</wgt>
<wgt id='14003'>0.32204E+02</wgt>
<wgt id='14004'>0.32199E+02</wgt>
<wgt id='14005'>0.32194E+02</wgt>
<wgt id='14006'>0.32189E+02</wgt>
<wgt id='14007'>0.32184E+02</wgt>
<wgt id='14008'>0.32179E+02</wgt>
<wgt id='14009'>0.32174E+02</wgt>
<wgt id='14010'>0.32169E+02</wgt>
<wgt id='14011'>0.32164E+02</wgt>
<wgt id='14012'>0.32159E+02</wgt>
<wgt id='14013'>0.32154E+02</wgt>
<wgt id='14014'>0.32149E+02</wgt>
<wgt id='14015'>0.32145E+02</wgt>
<wgt id='14016'>0.32140E+02</wgt>
<wgt id='14017'>0.32135E+02</wgt>
<wgt id='14018'>0.32130E+02</wgt>
<wgt id='14019'>0.32125E+02</wgt>
<wgt id='14020'>0.32120E+02</wgt>
<wgt id='14021'>0.32115E+02</wgt>
<wgt id='14022'>0.32110E+02</wgt>
<wgt id='14023'>0.32105E+02</wgt>
<wgt id='14024'>0.32100E+02</wgt>
<wgt id='14025'>0.32095E+02</wgt>
<wgt id='14026'>0.32090E+02</wgt>
<wgt id='14027'>0.32086E+02</wgt>
<wgt id='14028'>0.32081E+02</wgt>
<wgt id='14029'>0.32076E+02</wgt>
<wgt id='14030'>0.32071E+02</wgt>
<wgt id='15000'>0.30516E+02</wgt>
<wgt id='15001'>0.30544E+02</wgt>
<wgt id='15002'>0.30551E+02</wgt>
<wgt id='15003'>0.30424E+02</wgt>
<wgt id='15004'>0.30523E+02</wgt>
<wgt id='15005'>0.30544E+02</wgt>
<wgt id='15006'>0.30587E+02</wgt>
<wgt id='15007'>0.30640E+02</wgt>
<wgt id='15008'>0.30600E+02</wgt>
<wgt id='15009'>0.30501E+02</wgt>
<wgt id='15010'>0.30459E+02</wgt>
<wgt id='15011'>0.30712E+02</wgt>
<wgt id='15012'>0.30371E+02</wgt>
<wgt id='15013'>0.30333E+02</wgt>
<wgt id='15014'>0.30407E+02</wgt>
<wgt id='15015'>0.30456E+02</wgt>
<wgt id='15016'>0.30720E+02</wgt>
<wgt id='15017'>0.30387E+02</wgt>
<wgt id='15018'>0.30490E+02</wgt>
<wgt id='15019'>0.30523E+02</wgt>
<wgt id='15020'>0.30752E+02</wgt>
<wgt id='15021'>0.30499E+02</wgt>
<wgt id='15022'>0.30561E+02</wgt>
<wgt id='15023'>0.30404E+02</wgt>
<wgt id='15024'>0.30437E+02</wgt>
<wgt id='15025'>0.30540E+02</wgt>
<wgt id='15026'>0.30503E+02</wgt>
<wgt id='15027'>0.30505E+02</wgt>
<wgt id='15028'>0.30554E+02</wgt>
<wgt id='15029'>0.30543E+02</wgt>
<wgt id='15030'>0.30560E+02</wgt>
<wgt id='15031'>0.30514E+02</wgt>
<wgt id='15032'>0.30555E+02</wgt>
<wgt id='15033'>0.30557E+02</wgt>
<wgt id='15034'>0.30491E+02</wgt>
<wgt id='15035'>0.30559E+02</wgt>
<wgt id='15036'>0.30526E+02</wgt>
<wgt id='15037'>0.30551E+02</wgt>
<wgt id='15038'>0.30533E+02</wgt>
<wgt id='15039'>0.30531E+02</wgt>
<wgt id='15040'>0.30477E+02</wgt>
<wgt id='15041'>0.30514E+02</wgt>
<wgt id='15042'>0.30498E+02</wgt>
<wgt id='15043'>0.30487E+02</wgt>
<wgt id='15044'>0.30516E+02</wgt>
<wgt id='15045'>0.30505E+02</wgt>
<wgt id='15046'>0.30479E+02</wgt>
<wgt id='15047'>0.30516E+02</wgt>
<wgt id='15048'>0.30525E+02</wgt>
<wgt id='15049'>0.30498E+02</wgt>
<wgt id='15050'>0.30515E+02</wgt>
<wgt id='15051'>0.30531E+02</wgt>
<wgt id='15052'>0.30527E+02</wgt>
<wgt id='15053'>0.30512E+02</wgt>
<wgt id='15054'>0.30504E+02</wgt>
<wgt id='15055'>0.30506E+02</wgt>
<wgt id='15056'>0.30546E+02</wgt>
<wgt id='15057'>0.30519E+02</wgt>
<wgt id='15058'>0.30483E+02</wgt>
<wgt id='15059'>0.30508E+02</wgt>
<wgt id='15060'>0.30505E+02</wgt>
<wgt id='15061'>0.30519E+02</wgt>
<wgt id='15062'>0.30516E+02</wgt>
<wgt id='15063'>0.30531E+02</wgt>
<wgt id='15064'>0.30506E+02</wgt>
<wgt id='15065'>0.30520E+02</wgt>
<wgt id='15066'>0.30526E+02</wgt>
<wgt id='15067'>0.30529E+02</wgt>
<wgt id='15068'>0.30517E+02</wgt>
<wgt id='15069'>0.30541E+02</wgt>
<wgt id='15070'>0.30506E+02</wgt>
<wgt id='15071'>0.30543E+02</wgt>
<wgt id='15072'>0.30543E+02</wgt>
<wgt id='15073'>0.30506E+02</wgt>
<wgt id='15074'>0.30514E+02</wgt>
<wgt id='15075'>0.30515E+02</wgt>
<wgt id='15076'>0.30521E+02</wgt>
<wgt id='15077'>0.30517E+02</wgt>
<wgt id='15078'>0.30516E+02</wgt>
<wgt id='15079'>0.30515E+02</wgt>
<wgt id='15080'>0.30540E+02</wgt>
<wgt id='15081'>0.30513E+02</wgt>
<wgt id='15082'>0.30530E+02</wgt>
<wgt id='15083'>0.30506E+02</wgt>
<wgt id='15084'>0.30511E+02</wgt>
<wgt id='15085'>0.30508E+02</wgt>
<wgt id='15086'>0.30515E+02</wgt>
<wgt id='15087'>0.30501E+02</wgt>
<wgt id='15088'>0.30509E+02</wgt>
<wgt id='15089'>0.30509E+02</wgt>
<wgt id='15090'>0.30521E+02</wgt>
<wgt id='15091'>0.30515E+02</wgt>
<wgt id='15092'>0.30511E+02</wgt>
<wgt id='15093'>0.30512E+02</wgt>
<wgt id='15094'>0.30516E+02</wgt>
<wgt id='15095'>0.30521E+02</wgt>
<wgt id='15096'>0.30509E+02</wgt>
<wgt id='15097'>0.30518E+02</wgt>
<wgt id='15098'>0.30515E+02</wgt>
<wgt id='15099'>0.30512E+02</wgt>
<wgt id='15100'>0.30513E+02</wgt>
<wgt id='15101'>0.30516E+02</wgt>
<wgt id='15102'>0.30514E+02</wgt>
<wgt id='15103'>0.30516E+02</wgt>
<wgt id='15104'>0.30516E+02</wgt>
<wgt id='15105'>0.30517E+02</wgt>
<wgt id='15106'>0.30516E+02</wgt>
<wgt id='15107'>0.30514E+02</wgt>
<wgt id='1500'>0.32669E+02</wgt>
<wgt id='1501'>0.31060E+02</wgt>
<wgt id='1502'>0.32633E+02</wgt>
<wgt id='1503'>0.33011E+02</wgt>
<wgt id='1504'>0.31974E+02</wgt>
<wgt id='1505'>0.30735E+02</wgt>
<wgt id='1506'>0.33255E+02</wgt>
<wgt id='1507'>0.32826E+02</wgt>
<wgt id='1508'>0.32537E+02</wgt>
<wgt id='1509'>0.32977E+02</wgt>
<wgt id='1510'>0.32229E+02</wgt>
<wgt id='1511'>0.32079E+02</wgt>
<wgt id='1512'>0.33000E+02</wgt>
<wgt id='1513'>0.32832E+02</wgt>
<wgt id='1514'>0.32580E+02</wgt>
<wgt id='1515'>0.33262E+02</wgt>
<wgt id='1516'>0.32958E+02</wgt>
<wgt id='1517'>0.32519E+02</wgt>
<wgt id='1518'>0.32483E+02</wgt>
<wgt id='1519'>0.33035E+02</wgt>
<wgt id='1520'>0.33493E+02</wgt>
<wgt id='1521'>0.33161E+02</wgt>
<wgt id='1522'>0.32577E+02</wgt>
<wgt id='1523'>0.34637E+02</wgt>
<wgt id='1524'>0.32722E+02</wgt>
<wgt id='1525'>0.32625E+02</wgt>
<wgt id='1526'>0.32489E+02</wgt>
<wgt id='1527'>0.32253E+02</wgt>
<wgt id='1528'>0.32472E+02</wgt>
<wgt id='1529'>0.32998E+02</wgt>
<wgt id='1530'>0.33567E+02</wgt>
<wgt id='1531'>0.32617E+02</wgt>
<wgt id='1532'>0.32114E+02</wgt>
<wgt id='1533'>0.32387E+02</wgt>
<wgt id='1534'>0.33068E+02</wgt>
<wgt id='1535'>0.33418E+02</wgt>
<wgt id='1536'>0.32407E+02</wgt>
<wgt id='1537'>0.33247E+02</wgt>
<wgt id='1538'>0.32390E+02</wgt>
<wgt id='1539'>0.32008E+02</wgt>
<wgt id='1540'>0.32599E+02</wgt>
<wgt id='1541'>0.32713E+02</wgt>
<wgt id='1542'>0.32588E+02</wgt>
<wgt id='1543'>0.32531E+02</wgt>
<wgt id='1544'>0.32724E+02</wgt>
<wgt id='1545'>0.32736E+02</wgt>
<wgt id='1546'>0.33144E+02</wgt>
<wgt id='1547'>0.32081E+02</wgt>
<wgt id='1548'>0.32403E+02</wgt>
<wgt id='1549'>0.32382E+02</wgt>
<wgt id='1550'>0.32328E+02</wgt>
<wgt id='1551'>0.32445E+02</wgt>
<wgt id='1552'>0.32143E+02</wgt>
<wgt id='1553'>0.33392E+02</wgt>
<wgt id='1554'>0.32581E+02</wgt>
<wgt id='1555'>0.32184E+02</wgt>
<wgt id='1556'>0.32430E+02</wgt>
<wgt id='1557'>0.32820E+02</wgt>
<wgt id='1558'>0.32251E+02</wgt>
<wgt id='1559'>0.33553E+02</wgt>
<wgt id='1560'>0.32424E+02</wgt>
<wgt id='1561'>0.32644E+02</wgt>
<wgt id='1562'>0.32978E+02</wgt>
<wgt id='1563'>0.32586E+02</wgt>
<wgt id='1564'>0.32239E+02</wgt>
<wgt id='1565'>0.32482E+02</wgt>
<wgt id='1566'>0.32995E+02</wgt>
<wgt id='1567'>0.34669E+02</wgt>
<wgt id='1568'>0.32492E+02</wgt>
<wgt id='1569'>0.31685E+02</wgt>
<wgt id='1570'>0.32079E+02</wgt>
<wgt id='1571'>0.32430E+02</wgt>
<wgt id='1572'>0.32987E+02</wgt>
<wgt id='1573'>0.31031E+02</wgt>
<wgt id='1574'>0.33238E+02</wgt>
<wgt id='1575'>0.32210E+02</wgt>
<wgt id='1576'>0.32338E+02</wgt>
<wgt id='1577'>0.32983E+02</wgt>
<wgt id='1578'>0.33333E+02</wgt>
<wgt id='1579'>0.32240E+02</wgt>
<wgt id='1580'>0.32642E+02</wgt>
<wgt id='1581'>0.32908E+02</wgt>
<wgt id='1582'>0.31960E+02</wgt>
<wgt id='1583'>0.33295E+02</wgt>
<wgt id='1584'>0.32480E+02</wgt>
<wgt id='1585'>0.32260E+02</wgt>
<wgt id='1586'>0.32481E+02</wgt>
<wgt id='1587'>0.32745E+02</wgt>
<wgt id='1588'>0.32482E+02</wgt>
<wgt id='1589'>0.33437E+02</wgt>
<wgt id='1590'>0.32459E+02</wgt>
<wgt id='1591'>0.32103E+02</wgt>
<wgt id='1592'>0.32467E+02</wgt>
<wgt id='1593'>0.32588E+02</wgt>
<wgt id='1594'>0.33542E+02</wgt>
<wgt id='1595'>0.32370E+02</wgt>
<wgt id='1596'>0.32970E+02</wgt>
<wgt id='1597'>0.32321E+02</wgt>
<wgt id='1598'>0.32972E+02</wgt>
<wgt id='1599'>0.32761E+02</wgt>
<wgt id='1600'>0.33060E+02</wgt>
<wgt id='1601'>0.32131E+02</wgt>
<wgt id='1602'>0.32912E+02</wgt>
<wgt id='1700'>0.31162E+02</wgt>
<wgt id='1800'>0.37171E+02</wgt>
<wgt id='1850'>0.45086E+02</wgt>
<wgt id='1900'>0.39142E+02</wgt>
<wgt id='1950'>0.44825E+02</wgt>
</rwgt>
</event>
<event>
      4   9999  3.15120E+01  1.36460E+01 -1.00000E+00  1.77889E-01
      21    -1     0     0   502   501  0.000000000E+00  0.000000000E+00  3.991843285E+00  3.991843285E+00  0.000000000E+00  0.00000E+00  9.000E+00
      21    -1     0     0   512   502  0.000000000E+00  0.000000000E+00 -1.438838826E+03  1.438838826E+03  0.000000000E+00  0.00000E+00  9.000E+00
      25     1     1     2     0     0  1.239279998E+00  1.358957610E+01 -9.312590831E+02  9.390579179E+02  1.200003372E+02  0.00000E+00  9.000E+00
      21     1     1     2   512   501 -1.239279998E+00 -1.358957610E+01 -5.035878996E+02  5.037727514E+02  7.629394531E-06  0.00000E+00  9.000E+00
#rwgt            1           1   38.923849211769699                1         484           0
<rwgt>
<wgt id='1001'>0.31512E+02</wgt>
<wgt id='1002'>0.29363E+02</wgt>
<wgt id='1003'>0.33441E+02</wgt>
<wgt id='1004'>0.28482E+02</wgt>
<wgt id='1005'>0.26969E+02</wgt>
<wgt id='1006'>0.29748E+02</wgt>
<wgt id='1007'>0.34526E+02</wgt>
<wgt id='1008'>0.31390E+02</wgt>
<wgt id='1009'>0.37509E+02</wgt>
<wgt id='2000'>0.31512E+02</wgt>
<wgt id='2001'>0.31512E+02</wgt>
<wgt id='2002'>0.31381E+02</wgt>
<wgt id='2003'>0.31313E+02</wgt>
<wgt id='2004'>0.31565E+02</wgt>
<wgt id='2005'>0.31631E+02</wgt>
<wgt id='2006'>0.31505E+02</wgt>
<wgt id='2007'>0.31719E+02</wgt>
<wgt id='2008'>0.31648E+02</wgt>
<wgt id='2009'>0.31471E+02</wgt>
<wgt id='2010'>0.31420E+02</wgt>
<wgt id='2011'>0.31466E+02</wgt>
<wgt id='2012'>0.31506E+02</wgt>
<wgt id='2013'>0.31378E+02</wgt>
<wgt id='2014'>0.31415E+02</wgt>
<wgt id='2015'>0.31468E+02</wgt>
<wgt id='2016'>0.31554E+02</wgt>
<wgt id='2017'>0.31484E+02</wgt>
<wgt id='2018'>0.31427E+02</wgt>
<wgt id='2019'>0.31538E+02</wgt>
<wgt id='2020'>0.31428E+02</wgt>
<wgt id='2021'>0.31579E+02</wgt>
<wgt id='2022'>0.31392E+02</wgt>
<wgt id='2023'>0.31532E+02</wgt>
<wgt id='2024'>0.31459E+02</wgt>
<wgt id='2025'>0.31410E+02</wgt>
<wgt id='2026'>0.31496E+02</wgt>
<wgt id='2027'>0.31448E+02</wgt>
<wgt id='2028'>0.31493E+02</wgt>
<wgt id='2029'>0.31792E+02</wgt>
<wgt id='2030'>0.31598E+02</wgt>
<wgt id='2031'>0.31497E+02</wgt>
<wgt id='2032'>0.31645E+02</wgt>
<wgt id='2033'>0.31589E+02</wgt>
<wgt id='2034'>0.31399E+02</wgt>
<wgt id='2035'>0.31481E+02</wgt>
<wgt id='2036'>0.31463E+02</wgt>
<wgt id='2037'>0.31452E+02</wgt>
<wgt id='2038'>0.31539E+02</wgt>
<wgt id='2039'>0.31662E+02</wgt>
<wgt id='2040'>0.31615E+02</wgt>
<wgt id='2041'>0.31506E+02</wgt>
<wgt id='2042'>0.31295E+02</wgt>
<wgt id='2043'>0.31550E+02</wgt>
<wgt id='2044'>0.31525E+02</wgt>
<wgt id='2045'>0.31490E+02</wgt>
<wgt id='2046'>0.31581E+02</wgt>
<wgt id='2047'>0.31601E+02</wgt>
<wgt id='2048'>0.31455E+02</wgt>
<wgt id='2049'>0.31493E+02</wgt>
<wgt id='2050'>0.31534E+02</wgt>
<wgt id='2051'>0.31554E+02</wgt>
<wgt id='2052'>0.31508E+02</wgt>
<wgt id='2053'>0.31537E+02</wgt>
<wgt id='2054'>0.31521E+02</wgt>
<wgt id='2055'>0.31516E+02</wgt>
<wgt id='2056'>0.31492E+02</wgt>
<wgt id='2057'>0.31496E+02</wgt>
<wgt id='2058'>0.31500E+02</wgt>
<wgt id='2059'>0.31486E+02</wgt>
<wgt id='2060'>0.31523E+02</wgt>
<wgt id='2061'>0.31460E+02</wgt>
<wgt id='2062'>0.31472E+02</wgt>
<wgt id='2063'>0.31557E+02</wgt>
<wgt id='2064'>0.31485E+02</wgt>
<wgt id='2065'>0.31560E+02</wgt>
<wgt id='2066'>0.31525E+02</wgt>
<wgt id='2067'>0.31512E+02</wgt>
<wgt id='2068'>0.31530E+02</wgt>
<wgt id='2069'>0.31537E+02</wgt>
<wgt id='2070'>0.31471E+02</wgt>
<wgt id='2071'>0.31489E+02</wgt>
<wgt id='2072'>0.31516E+02</wgt>
<wgt id='2073'>0.31496E+02</wgt>
<wgt id='2074'>0.31511E+02</wgt>
<wgt id='2075'>0.31506E+02</wgt>
<wgt id='2076'>0.31515E+02</wgt>
<wgt id='2077'>0.31483E+02</wgt>
<wgt id='2078'>0.31515E+02</wgt>
<wgt id='2079'>0.31515E+02</wgt>
<wgt id='2080'>0.31523E+02</wgt>
<wgt id='2081'>0.31530E+02</wgt>
<wgt id='2082'>0.31531E+02</wgt>
<wgt id='2083'>0.31516E+02</wgt>
<wgt id='2084'>0.31523E+02</wgt>
<wgt id='2085'>0.31507E+02</wgt>
<wgt id='2086'>0.31487E+02</wgt>
<wgt id='2087'>0.31506E+02</wgt>
<wgt id='2088'>0.31525E+02</wgt>
<wgt id='2089'>0.31507E+02</wgt>
<wgt id='2090'>0.31514E+02</wgt>
<wgt id='2091'>0.31526E+02</wgt>
<wgt id='2092'>0.31514E+02</wgt>
<wgt id='2093'>0.31508E+02</wgt>
<wgt id='2094'>0.31525E+02</wgt>
<wgt id='2095'>0.31517E+02</wgt>
<wgt id='2096'>0.31501E+02</wgt>
<wgt id='2097'>0.31525E+02</wgt>
<wgt id='2098'>0.31504E+02</wgt>
<wgt id='2099'>0.31500E+02</wgt>
<wgt id='2100'>0.31521E+02</wgt>
<wgt id='2101'>0.30888E+02</wgt>
<wgt id='2102'>0.32452E+02</wgt>
<wgt id='2104'>0.27319E+02</wgt>
<wgt id='2105'>0.28182E+02</wgt>
<wgt id='2106'>0.28969E+02</wgt>
<wgt id='2107'>0.29649E+02</wgt>
<wgt id='2108'>0.31024E+02</wgt>
<wgt id='2109'>0.32039E+02</wgt>
<wgt id='2110'>0.33427E+02</wgt>
<wgt id='2111'>0.34489E+02</wgt>
<wgt id='3000'>0.34067E+02</wgt>
<wgt id='3001'>0.33992E+02</wgt>
<wgt id='3002'>0.34202E+02</wgt>
<wgt id='3003'>0.33849E+02</wgt>
<wgt id='3004'>0.34100E+02</wgt>
<wgt id='3005'>0.33859E+02</wgt>
<wgt id='3006'>0.33966E+02</wgt>
<wgt id='3007'>0.33874E+02</wgt>
<wgt id='3008'>0.34090E+02</wgt>
<wgt id='3009'>0.33921E+02</wgt>
<wgt id='3010'>0.33997E+02</wgt>
<wgt id='3011'>0.34058E+02</wgt>
<wgt id='3012'>0.34053E+02</wgt>
<wgt id='3013'>0.34176E+02</wgt>
<wgt id='3014'>0.33990E+02</wgt>
<wgt id='3015'>0.34004E+02</wgt>
<wgt id='3016'>0.34109E+02</wgt>
<wgt id='3017'>0.34018E+02</wgt>
<wgt id='3018'>0.34083E+02</wgt>
<wgt id='3019'>0.34105E+02</wgt>
<wgt id='3020'>0.34138E+02</wgt>
<wgt id='3021'>0.34149E+02</wgt>
<wgt id='3022'>0.34034E+02</wgt>
<wgt id='3023'>0.34044E+02</wgt>
<wgt id='3024'>0.34087E+02</wgt>
<wgt id='3025'>0.34073E+02</wgt>
<wgt id='3026'>0.34008E+02</wgt>
<wgt id='3027'>0.34095E+02</wgt>
<wgt id='3028'>0.34058E+02</wgt>
<wgt id='3029'>0.34052E+02</wgt>
<wgt id='3030'>0.34229E+02</wgt>
<wgt id='3031'>0.34144E+02</wgt>
<wgt id='3032'>0.33968E+02</wgt>
<wgt id='3033'>0.33965E+02</wgt>
<wgt id='3034'>0.34059E+02</wgt>
<wgt id='3035'>0.33850E+02</wgt>
<wgt id='3036'>0.34087E+02</wgt>
<wgt id='3037'>0.34232E+02</wgt>
<wgt id='3038'>0.34081E+02</wgt>
<wgt id='3039'>0.34109E+02</wgt>
<wgt id='3040'>0.34229E+02</wgt>
<wgt id='3041'>0.34122E+02</wgt>
<wgt id='3042'>0.33937E+02</wgt>
<wgt id='3043'>0.33950E+02</wgt>
<wgt id='3044'>0.34083E+02</wgt>
<wgt id='3045'>0.34082E+02</wgt>
<wgt id='3046'>0.34185E+02</wgt>
<wgt id='3047'>0.34038E+02</wgt>
<wgt id='3048'>0.34123E+02</wgt>
<wgt id='3049'>0.34066E+02</wgt>
<wgt id='3050'>0.33987E+02</wgt>
<wgt id='3051'>0.34142E+02</wgt>
<wgt id='3052'>0.34022E+02</wgt>
<wgt id='3053'>0.34018E+02</wgt>
<wgt id='3054'>0.34066E+02</wgt>
<wgt id='3055'>0.33999E+02</wgt>
<wgt id='3056'>0.34050E+02</wgt>
<wgt id='3057'>0.34046E+02</wgt>
<wgt id='3058'>0.34050E+02</wgt>
<wgt id='3059'>0.34018E+02</wgt>
<wgt id='3060'>0.34100E+02</wgt>
<wgt id='3061'>0.34033E+02</wgt>
<wgt id='3062'>0.34111E+02</wgt>
<wgt id='3063'>0.34022E+02</wgt>
<wgt id='3064'>0.34053E+02</wgt>
<wgt id='3065'>0.34022E+02</wgt>
<wgt id='3066'>0.34079E+02</wgt>
<wgt id='3067'>0.33986E+02</wgt>
<wgt id='3068'>0.34091E+02</wgt>
<wgt id='3069'>0.34036E+02</wgt>
<wgt id='3070'>0.34058E+02</wgt>
<wgt id='3071'>0.34036E+02</wgt>
<wgt id='3072'>0.34086E+02</wgt>
<wgt id='3073'>0.34046E+02</wgt>
<wgt id='3074'>0.34106E+02</wgt>
<wgt id='3075'>0.34074E+02</wgt>
<wgt id='3076'>0.34069E+02</wgt>
<wgt id='3077'>0.34089E+02</wgt>
<wgt id='3078'>0.34087E+02</wgt>
<wgt id='3079'>0.34044E+02</wgt>
<wgt id='3080'>0.34048E+02</wgt>
<wgt id='3081'>0.34069E+02</wgt>
<wgt id='3082'>0.34068E+02</wgt>
<wgt id='3083'>0.34041E+02</wgt>
<wgt id='3084'>0.34055E+02</wgt>
<wgt id='3085'>0.34083E+02</wgt>
<wgt id='3086'>0.34041E+02</wgt>
<wgt id='3087'>0.34078E+02</wgt>
<wgt id='3088'>0.34058E+02</wgt>
<wgt id='3089'>0.34058E+02</wgt>
<wgt id='3090'>0.34089E+02</wgt>
<wgt id='3091'>0.34086E+02</wgt>
<wgt id='3092'>0.34059E+02</wgt>
<wgt id='3093'>0.34059E+02</wgt>
<wgt id='3094'>0.34085E+02</wgt>
<wgt id='3095'>0.34049E+02</wgt>
<wgt id='3096'>0.34068E+02</wgt>
<wgt id='3097'>0.34054E+02</wgt>
<wgt id='3098'>0.34046E+02</wgt>
<wgt id='3099'>0.34064E+02</wgt>
<wgt id='3100'>0.34073E+02</wgt>
<wgt id='3101'>0.33185E+02</wgt>
<wgt id='3102'>0.35121E+02</wgt>
<wgt id='5000'>0.33463E+02</wgt>
<wgt id='5001'>0.33484E+02</wgt>
<wgt id='5002'>0.33479E+02</wgt>
<wgt id='5003'>0.33505E+02</wgt>
<wgt id='5004'>0.33666E+02</wgt>
<wgt id='5005'>0.34215E+02</wgt>
<wgt id='5006'>0.33385E+02</wgt>
<wgt id='5007'>0.33394E+02</wgt>
<wgt id='5008'>0.33860E+02</wgt>
<wgt id='5009'>0.33273E+02</wgt>
<wgt id='5010'>0.33567E+02</wgt>
<wgt id='5011'>0.33911E+02</wgt>
<wgt id='5012'>0.32973E+02</wgt>
<wgt id='5013'>0.34432E+02</wgt>
<wgt id='5014'>0.32557E+02</wgt>
<wgt id='5015'>0.33113E+02</wgt>
<wgt id='5016'>0.34342E+02</wgt>
<wgt id='5017'>0.33297E+02</wgt>
<wgt id='5018'>0.33648E+02</wgt>
<wgt id='5019'>0.32949E+02</wgt>
<wgt id='5020'>0.33942E+02</wgt>
<wgt id='5021'>0.33234E+02</wgt>
<wgt id='5022'>0.33605E+02</wgt>
<wgt id='5023'>0.33148E+02</wgt>
<wgt id='5024'>0.33816E+02</wgt>
<wgt id='5025'>0.33521E+02</wgt>
<wgt id='5026'>0.33415E+02</wgt>
<wgt id='5027'>0.33352E+02</wgt>
<wgt id='5028'>0.33635E+02</wgt>
<wgt id='5029'>0.33916E+02</wgt>
<wgt id='5030'>0.33166E+02</wgt>
<wgt id='5031'>0.33596E+02</wgt>
<wgt id='5032'>0.33250E+02</wgt>
<wgt id='5033'>0.33184E+02</wgt>
<wgt id='5034'>0.33743E+02</wgt>
<wgt id='5035'>0.33132E+02</wgt>
<wgt id='5036'>0.33765E+02</wgt>
<wgt id='5037'>0.33073E+02</wgt>
<wgt id='5038'>0.33931E+02</wgt>
<wgt id='5039'>0.33969E+02</wgt>
<wgt id='5040'>0.33226E+02</wgt>
<wgt id='5041'>0.33586E+02</wgt>
<wgt id='5042'>0.33484E+02</wgt>
<wgt id='5043'>0.33628E+02</wgt>
<wgt id='5044'>0.33659E+02</wgt>
<wgt id='5045'>0.32302E+02</wgt>
<wgt id='5046'>0.34096E+02</wgt>
<wgt id='5047'>0.32302E+02</wgt>
<wgt id='5048'>0.34154E+02</wgt>
<wgt id='5049'>0.33368E+02</wgt>
<wgt id='5050'>0.33568E+02</wgt>
<wgt id='5051'>0.33503E+02</wgt>
<wgt id='5052'>0.33375E+02</wgt>
<wgt id='5053'>0.32495E+02</wgt>
<wgt id='5054'>0.32819E+02</wgt>
<wgt id='5055'>0.33387E+02</wgt>
<wgt id='5056'>0.33615E+02</wgt>
<wgt id='5060'>0.32320E+02</wgt>
<wgt id='5070'>0.34726E+02</wgt>
<wgt id='4000'>0.35278E+02</wgt>
<wgt id='4001'>0.35196E+02</wgt>
<wgt id='4002'>0.35335E+02</wgt>
<wgt id='4003'>0.34513E+02</wgt>
<wgt id='4004'>0.35930E+02</wgt>
<wgt id='4005'>0.35435E+02</wgt>
<wgt id='4006'>0.35165E+02</wgt>
<wgt id='4007'>0.34584E+02</wgt>
<wgt id='4008'>0.35840E+02</wgt>
<wgt id='4009'>0.35517E+02</wgt>
<wgt id='4010'>0.35454E+02</wgt>
<wgt id='4011'>0.35186E+02</wgt>
<wgt id='4012'>0.35327E+02</wgt>
<wgt id='4013'>0.35448E+02</wgt>
<wgt id='4014'>0.35191E+02</wgt>
<wgt id='4015'>0.35834E+02</wgt>
<wgt id='4016'>0.34947E+02</wgt>
<wgt id='4017'>0.34756E+02</wgt>
<wgt id='4018'>0.35902E+02</wgt>
<wgt id='4019'>0.34892E+02</wgt>
<wgt id='4020'>0.35657E+02</wgt>
<wgt id='4021'>0.35127E+02</wgt>
<wgt id='4022'>0.35555E+02</wgt>
<wgt id='4023'>0.35695E+02</wgt>
<wgt id='4024'>0.34843E+02</wgt>
<wgt id='4025'>0.35353E+02</wgt>
<wgt id='4026'>0.35212E+02</wgt>
<wgt id='4027'>0.35527E+02</wgt>
<wgt id='4028'>0.34925E+02</wgt>
<wgt id='4029'>0.35539E+02</wgt>
<wgt id='4030'>0.35186E+02</wgt>
<wgt id='4031'>0.35238E+02</wgt>
<wgt id='4032'>0.35332E+02</wgt>
<wgt id='4033'>0.35367E+02</wgt>
<wgt id='4034'>0.35096E+02</wgt>
<wgt id='4035'>0.34698E+02</wgt>
<wgt id='4036'>0.35809E+02</wgt>
<wgt id='4037'>0.34773E+02</wgt>
<wgt id='4038'>0.35968E+02</wgt>
<wgt id='4039'>0.34890E+02</wgt>
<wgt id='4040'>0.35594E+02</wgt>
<wgt id='4041'>0.35151E+02</wgt>
<wgt id='4042'>0.35331E+02</wgt>
<wgt id='4043'>0.34250E+02</wgt>
<wgt id='4044'>0.35937E+02</wgt>
<wgt id='4045'>0.36309E+02</wgt>
<wgt id='4046'>0.35043E+02</wgt>
<wgt id='4047'>0.35435E+02</wgt>
<wgt id='4048'>0.35546E+02</wgt>
<wgt id='4049'>0.35546E+02</wgt>
<wgt id='4050'>0.35867E+02</wgt>
<wgt id='4051'>0.35331E+02</wgt>
<wgt id='4052'>0.35247E+02</wgt>
<wgt id='4053'>0.34186E+02</wgt>
<wgt id='4054'>0.34750E+02</wgt>
<wgt id='4055'>0.35370E+02</wgt>
<wgt id='4056'>0.35257E+02</wgt>
<wgt id='4060'>0.34080E+02</wgt>
<wgt id='4070'>0.36600E+02</wgt>
<wgt id='4080'>0.46434E+02</wgt>
<wgt id='6000'>0.34482E+02</wgt>
<wgt id='6001'>0.34562E+02</wgt>
<wgt id='6002'>0.34396E+02</wgt>
<wgt id='6003'>0.34501E+02</wgt>
<wgt id='6004'>0.34468E+02</wgt>
<wgt id='6005'>0.34450E+02</wgt>
<wgt id='6006'>0.34509E+02</wgt>
<wgt id='6007'>0.34433E+02</wgt>
<wgt id='6008'>0.34536E+02</wgt>
<wgt id='6009'>0.34682E+02</wgt>
<wgt id='6010'>0.34286E+02</wgt>
<wgt id='6011'>0.34565E+02</wgt>
<wgt id='6012'>0.34299E+02</wgt>
<wgt id='6013'>0.34434E+02</wgt>
<wgt id='6014'>0.34566E+02</wgt>
<wgt id='6015'>0.34422E+02</wgt>
<wgt id='6016'>0.34515E+02</wgt>
<wgt id='6017'>0.34256E+02</wgt>
<wgt id='6018'>0.34747E+02</wgt>
<wgt id='6019'>0.34432E+02</wgt>
<wgt id='6020'>0.34524E+02</wgt>
<wgt id='6021'>0.34423E+02</wgt>
<wgt id='6022'>0.34561E+02</wgt>
<wgt id='6023'>0.34231E+02</wgt>
<wgt id='6024'>0.34662E+02</wgt>
<wgt id='6025'>0.34999E+02</wgt>
<wgt id='6026'>0.33802E+02</wgt>
<wgt id='6027'>0.34567E+02</wgt>
<wgt id='6028'>0.34492E+02</wgt>
<wgt id='6029'>0.34286E+02</wgt>
<wgt id='6030'>0.34712E+02</wgt>
<wgt id='6031'>0.34106E+02</wgt>
<wgt id='6032'>0.34890E+02</wgt>
<wgt id='6033'>0.34657E+02</wgt>
<wgt id='6034'>0.34305E+02</wgt>
<wgt id='6035'>0.34577E+02</wgt>
<wgt id='6036'>0.34322E+02</wgt>
<wgt id='6037'>0.34540E+02</wgt>
<wgt id='6038'>0.34500E+02</wgt>
<wgt id='6039'>0.34356E+02</wgt>
<wgt id='6040'>0.34622E+02</wgt>
<wgt id='6041'>0.34296E+02</wgt>
<wgt id='6042'>0.34708E+02</wgt>
<wgt id='6043'>0.34940E+02</wgt>
<wgt id='6044'>0.34415E+02</wgt>
<wgt id='6045'>0.34417E+02</wgt>
<wgt id='6046'>0.34626E+02</wgt>
<wgt id='6047'>0.34474E+02</wgt>
<wgt id='6048'>0.34782E+02</wgt>
<wgt id='6049'>0.34424E+02</wgt>
<wgt id='6050'>0.34533E+02</wgt>
<wgt id='7000'>0.32186E+02</wgt>
<wgt id='7001'>0.32265E+02</wgt>
<wgt id='7002'>0.32086E+02</wgt>
<wgt id='7003'>0.32233E+02</wgt>
<wgt id='7004'>0.32140E+02</wgt>
<wgt id='7005'>0.32213E+02</wgt>
<wgt id='7006'>0.32175E+02</wgt>
<wgt id='7007'>0.32094E+02</wgt>
<wgt id='7008'>0.32278E+02</wgt>
<wgt id='7009'>0.32277E+02</wgt>
<wgt id='7010'>0.32099E+02</wgt>
<wgt id='7011'>0.31817E+02</wgt>
<wgt id='7012'>0.32346E+02</wgt>
<wgt id='7013'>0.32175E+02</wgt>
<wgt id='7014'>0.32201E+02</wgt>
<wgt id='7015'>0.32080E+02</wgt>
<wgt id='7016'>0.32301E+02</wgt>
<wgt id='7017'>0.31771E+02</wgt>
<wgt id='7018'>0.32413E+02</wgt>
<wgt id='7019'>0.32160E+02</wgt>
<wgt id='7020'>0.32224E+02</wgt>
<wgt id='7021'>0.32212E+02</wgt>
<wgt id='7022'>0.32167E+02</wgt>
<wgt id='7023'>0.32064E+02</wgt>
<wgt id='7024'>0.32256E+02</wgt>
<wgt id='7025'>0.32202E+02</wgt>
<wgt id='7026'>0.32155E+02</wgt>
<wgt id='7027'>0.32239E+02</wgt>
<wgt id='7028'>0.32227E+02</wgt>
<wgt id='7029'>0.32360E+02</wgt>
<wgt id='7030'>0.31667E+02</wgt>
<wgt id='7031'>0.32039E+02</wgt>
<wgt id='7032'>0.32503E+02</wgt>
<wgt id='7033'>0.32254E+02</wgt>
<wgt id='7034'>0.32093E+02</wgt>
<wgt id='7035'>0.31958E+02</wgt>
<wgt id='7036'>0.32319E+02</wgt>
<wgt id='7037'>0.32186E+02</wgt>
<wgt id='7038'>0.32253E+02</wgt>
<wgt id='7039'>0.32039E+02</wgt>
<wgt id='7040'>0.32295E+02</wgt>
<wgt id='7041'>0.32352E+02</wgt>
<wgt id='7042'>0.31995E+02</wgt>
<wgt id='7043'>0.32207E+02</wgt>
<wgt id='7044'>0.32065E+02</wgt>
<wgt id='7045'>0.32194E+02</wgt>
<wgt id='7046'>0.32346E+02</wgt>
<wgt id='7047'>0.32281E+02</wgt>
<wgt id='7048'>0.32157E+02</wgt>
<wgt id='7049'>0.32339E+02</wgt>
<wgt id='7050'>0.32248E+02</wgt>
<wgt id='7060'>0.59127E+02</wgt>
<wgt id='8000'>0.32306E+02</wgt>
<wgt id='8001'>0.32298E+02</wgt>
<wgt id='8002'>0.32314E+02</wgt>
<wgt id='8003'>0.32306E+02</wgt>
<wgt id='8004'>0.32305E+02</wgt>
<wgt id='8005'>0.32232E+02</wgt>
<wgt id='8006'>0.32312E+02</wgt>
<wgt id='8007'>0.32303E+02</wgt>
<wgt id='8008'>0.32367E+02</wgt>
<wgt id='8009'>0.32430E+02</wgt>
<wgt id='8010'>0.32298E+02</wgt>
<wgt id='8011'>0.32299E+02</wgt>
<wgt id='8012'>0.32248E+02</wgt>
<wgt id='8013'>0.32272E+02</wgt>
<wgt id='8014'>0.32340E+02</wgt>
<wgt id='8015'>0.32269E+02</wgt>
<wgt id='8016'>0.32349E+02</wgt>
<wgt id='8017'>0.32357E+02</wgt>
<wgt id='8018'>0.32395E+02</wgt>
<wgt id='8019'>0.32224E+02</wgt>
<wgt id='8020'>0.32430E+02</wgt>
<wgt id='8021'>0.32250E+02</wgt>
<wgt id='8022'>0.32542E+02</wgt>
<wgt id='8023'>0.32181E+02</wgt>
<wgt id='8024'>0.32100E+02</wgt>
<wgt id='8025'>0.32140E+02</wgt>
<wgt id='8026'>0.32304E+02</wgt>
<wgt id='8027'>0.32342E+02</wgt>
<wgt id='8028'>0.32309E+02</wgt>
<wgt id='8029'>0.32835E+02</wgt>
<wgt id='8500'>0.34629E+02</wgt>
<wgt id='8501'>0.34374E+02</wgt>
<wgt id='8502'>0.34259E+02</wgt>
<wgt id='8503'>0.34671E+02</wgt>
<wgt id='8504'>0.34594E+02</wgt>
<wgt id='8505'>0.34865E+02</wgt>
<wgt id='8506'>0.34469E+02</wgt>
<wgt id='8507'>0.34801E+02</wgt>
<wgt id='8508'>0.34581E+02</wgt>
<wgt id='8509'>0.34658E+02</wgt>
<wgt id='8510'>0.34349E+02</wgt>
<wgt id='8511'>0.34470E+02</wgt>
<wgt id='8512'>0.34962E+02</wgt>
<wgt id='8513'>0.34676E+02</wgt>
<wgt id='8514'>0.34815E+02</wgt>
<wgt id='8515'>0.34717E+02</wgt>
<wgt id='8516'>0.34598E+02</wgt>
<wgt id='8517'>0.34847E+02</wgt>
<wgt id='8518'>0.34344E+02</wgt>
<wgt id='8519'>0.34282E+02</wgt>
<wgt id='8520'>0.34390E+02</wgt>
<wgt id='8521'>0.34257E+02</wgt>
<wgt id='8522'>0.34926E+02</wgt>
<wgt id='8523'>0.34405E+02</wgt>
<wgt id='8524'>0.34647E+02</wgt>
<wgt id='8525'>0.34662E+02</wgt>
<wgt id='8526'>0.34638E+02</wgt>
<wgt id='8527'>0.34679E+02</wgt>
<wgt id='8528'>0.34536E+02</wgt>
<wgt id='8529'>0.34537E+02</wgt>
<wgt id='8530'>0.34585E+02</wgt>
<wgt id='8531'>0.34620E+02</wgt>
<wgt id='8532'>0.34612E+02</wgt>
<wgt id='8533'>0.34537E+02</wgt>
<wgt id='8534'>0.34625E+02</wgt>
<wgt id='8535'>0.34768E+02</wgt>
<wgt id='8536'>0.34609E+02</wgt>
<wgt id='8537'>0.34638E+02</wgt>
<wgt id='8538'>0.34603E+02</wgt>
<wgt id='8539'>0.34641E+02</wgt>
<wgt id='8540'>0.34642E+02</wgt>
<wgt id='8541'>0.34653E+02</wgt>
<wgt id='8542'>0.34632E+02</wgt>
<wgt id='8543'>0.34576E+02</wgt>
<wgt id='8544'>0.34674E+02</wgt>
<wgt id='8545'>0.34629E+02</wgt>
<wgt id='8546'>0.34678E+02</wgt>
<wgt id='8547'>0.34603E+02</wgt>
<wgt id='8548'>0.34598E+02</wgt>
<wgt id='8549'>0.34622E+02</wgt>
<wgt id='8550'>0.34637E+02</wgt>
<wgt id='8551'>0.34616E+02</wgt>
<wgt id='8552'>0.34615E+02</wgt>
<wgt id='8553'>0.34596E+02</wgt>
<wgt id='8554'>0.34616E+02</wgt>
<wgt id='8555'>0.34625E+02</wgt>
<wgt id='8556'>0.34624E+02</wgt>
<wgt id='8557'>0.34618E+02</wgt>
<wgt id='8558'>0.34666E+02</wgt>
<wgt id='8559'>0.34601E+02</wgt>
<wgt id='8560'>0.34594E+02</wgt>
<wgt id='8561'>0.34633E+02</wgt>
<wgt id='8562'>0.34593E+02</wgt>
<wgt id='8563'>0.34634E+02</wgt>
<wgt id='8564'>0.34612E+02</wgt>
<wgt id='8565'>0.34629E+02</wgt>
<wgt id='8566'>0.34623E+02</wgt>
<wgt id='8567'>0.34630E+02</wgt>
<wgt id='8568'>0.34657E+02</wgt>
<wgt id='8569'>0.34646E+02</wgt>
<wgt id='8570'>0.34629E+02</wgt>
<wgt id='8571'>0.34612E+02</wgt>
<wgt id='8572'>0.34603E+02</wgt>
<wgt id='8573'>0.34602E+02</wgt>
<wgt id='8574'>0.34644E+02</wgt>
<wgt id='8575'>0.34631E+02</wgt>
<wgt id='8576'>0.34620E+02</wgt>
<wgt id='8577'>0.34617E+02</wgt>
<wgt id='8578'>0.34633E+02</wgt>
<wgt id='8579'>0.34646E+02</wgt>
<wgt id='8580'>0.34616E+02</wgt>
<wgt id='8581'>0.34653E+02</wgt>
<wgt id='8582'>0.34597E+02</wgt>
<wgt id='8583'>0.34656E+02</wgt>
<wgt id='8584'>0.34638E+02</wgt>
<wgt id='8585'>0.34647E+02</wgt>
<wgt id='8586'>0.34646E+02</wgt>
<wgt id='8587'>0.34632E+02</wgt>
<wgt id='8588'>0.34619E+02</wgt>
<wgt id='8589'>0.34631E+02</wgt>
<wgt id='8590'>0.34626E+02</wgt>
<wgt id='8591'>0.34619E+02</wgt>
<wgt id='8592'>0.34624E+02</wgt>
<wgt id='8593'>0.34613E+02</wgt>
<wgt id='8594'>0.34643E+02</wgt>
<wgt id='8595'>0.34632E+02</wgt>
<wgt id='8596'>0.34614E+02</wgt>
<wgt id='8597'>0.34638E+02</wgt>
<wgt id='8598'>0.34644E+02</wgt>
<wgt id='8599'>0.34631E+02</wgt>
<wgt id='8600'>0.34627E+02</wgt>
<wgt id='8601'>0.33850E+02</wgt>
<wgt id='8602'>0.35499E+02</wgt>
<wgt id='9000'>0.32572E+02</wgt>
<wgt id='9001'>0.32735E+02</wgt>
<wgt id='9002'>0.32330E+02</wgt>
<wgt id='9003'>0.32926E+02</wgt>
<wgt id='9004'>0.32756E+02</wgt>
<wgt id='9005'>0.32523E+02</wgt>
<wgt id='9006'>0.32919E+02</wgt>
<wgt id='9007'>0.32800E+02</wgt>
<wgt id='9008'>0.32631E+02</wgt>
<wgt id='9009'>0.32648E+02</wgt>
<wgt id='9010'>0.32717E+02</wgt>
<wgt id='9011'>0.32518E+02</wgt>
<wgt id='9012'>0.32614E+02</wgt>
<wgt id='9013'>0.33057E+02</wgt>
<wgt id='9014'>0.32560E+02</wgt>
<wgt id='9015'>0.32211E+02</wgt>
<wgt id='9016'>0.32405E+02</wgt>
<wgt id='9017'>0.32536E+02</wgt>
<wgt id='9018'>0.32822E+02</wgt>
<wgt id='9019'>0.32748E+02</wgt>
<wgt id='9020'>0.32929E+02</wgt>
<wgt id='9021'>0.32129E+02</wgt>
<wgt id='9022'>0.32601E+02</wgt>
<wgt id='9023'>0.32319E+02</wgt>
<wgt id='9024'>0.32409E+02</wgt>
<wgt id='9025'>0.32712E+02</wgt>
<wgt id='9026'>0.32519E+02</wgt>
<wgt id='9027'>0.32509E+02</wgt>
<wgt id='9028'>0.32611E+02</wgt>
<wgt id='9029'>0.32623E+02</wgt>
<wgt id='9030'>0.32539E+02</wgt>
<wgt id='9031'>0.32533E+02</wgt>
<wgt id='9032'>0.32642E+02</wgt>
<wgt id='9033'>0.32612E+02</wgt>
<wgt id='9034'>0.32589E+02</wgt>
<wgt id='9035'>0.32622E+02</wgt>
<wgt id='9036'>0.32601E+02</wgt>
<wgt id='9037'>0.32600E+02</wgt>
<wgt id='9038'>0.32606E+02</wgt>
<wgt id='9039'>0.32574E+02</wgt>
<wgt id='9040'>0.32536E+02</wgt>
<wgt id='9041'>0.32572E+02</wgt>
<wgt id='9042'>0.32541E+02</wgt>
<wgt id='9043'>0.32518E+02</wgt>
<wgt id='9044'>0.32577E+02</wgt>
<wgt id='9045'>0.32546E+02</wgt>
<wgt id='9046'>0.32529E+02</wgt>
<wgt id='9047'>0.32588E+02</wgt>
<wgt id='9048'>0.32585E+02</wgt>
<wgt id='9049'>0.32554E+02</wgt>
<wgt id='9050'>0.32570E+02</wgt>
<wgt id='9051'>0.32597E+02</wgt>
<wgt id='9052'>0.32601E+02</wgt>
<wgt id='9053'>0.32574E+02</wgt>
<wgt id='9054'>0.32561E+02</wgt>
<wgt id='9055'>0.32560E+02</wgt>
<wgt id='9056'>0.32599E+02</wgt>
<wgt id='9057'>0.32574E+02</wgt>
<wgt id='9058'>0.32528E+02</wgt>
<wgt id='9059'>0.32562E+02</wgt>
<wgt id='9060'>0.32569E+02</wgt>
<wgt id='9061'>0.32567E+02</wgt>
<wgt id='9062'>0.32577E+02</wgt>
<wgt id='9063'>0.32582E+02</wgt>
<wgt id='9064'>0.32572E+02</wgt>
<wgt id='9065'>0.32571E+02</wgt>
<wgt id='9066'>0.32573E+02</wgt>
<wgt id='9067'>0.32573E+02</wgt>
<wgt id='9068'>0.32567E+02</wgt>
<wgt id='9069'>0.32613E+02</wgt>
<wgt id='9070'>0.32556E+02</wgt>
<wgt id='9071'>0.32596E+02</wgt>
<wgt id='9072'>0.32602E+02</wgt>
<wgt id='9073'>0.32567E+02</wgt>
<wgt id='9074'>0.32576E+02</wgt>
<wgt id='9075'>0.32573E+02</wgt>
<wgt id='9076'>0.32583E+02</wgt>
<wgt id='9077'>0.32574E+02</wgt>
<wgt id='9078'>0.32582E+02</wgt>
<wgt id='9079'>0.32569E+02</wgt>
<wgt id='9080'>0.32601E+02</wgt>
<wgt id='9081'>0.32575E+02</wgt>
<wgt id='9082'>0.32589E+02</wgt>
<wgt id='9083'>0.32565E+02</wgt>
<wgt id='9084'>0.32563E+02</wgt>
<wgt id='9085'>0.32551E+02</wgt>
<wgt id='9086'>0.32570E+02</wgt>
<wgt id='9087'>0.32545E+02</wgt>
<wgt id='9088'>0.32559E+02</wgt>
<wgt id='9089'>0.32560E+02</wgt>
<wgt id='9090'>0.32578E+02</wgt>
<wgt id='9091'>0.32574E+02</wgt>
<wgt id='9092'>0.32563E+02</wgt>
<wgt id='9093'>0.32568E+02</wgt>
<wgt id='9094'>0.32571E+02</wgt>
<wgt id='9095'>0.32581E+02</wgt>
<wgt id='9096'>0.32563E+02</wgt>
<wgt id='9097'>0.32572E+02</wgt>
<wgt id='9098'>0.32571E+02</wgt>
<wgt id='9099'>0.32565E+02</wgt>
<wgt id='9100'>0.32570E+02</wgt>
<wgt id='9101'>0.31849E+02</wgt>
<wgt id='9102'>0.33379E+02</wgt>
<wgt id='10000'>0.34629E+02</wgt>
<wgt id='10001'>0.34478E+02</wgt>
<wgt id='10002'>0.34422E+02</wgt>
<wgt id='10003'>0.34634E+02</wgt>
<wgt id='10004'>0.34782E+02</wgt>
<wgt id='10005'>0.34177E+02</wgt>
<wgt id='10006'>0.34370E+02</wgt>
<wgt id='10007'>0.34589E+02</wgt>
<wgt id='10008'>0.34573E+02</wgt>
<wgt id='10009'>0.34597E+02</wgt>
<wgt id='10010'>0.34578E+02</wgt>
<wgt id='10011'>0.34517E+02</wgt>
<wgt id='10012'>0.34372E+02</wgt>
<wgt id='10013'>0.34639E+02</wgt>
<wgt id='10014'>0.34671E+02</wgt>
<wgt id='10015'>0.34791E+02</wgt>
<wgt id='10016'>0.34678E+02</wgt>
<wgt id='10017'>0.34295E+02</wgt>
<wgt id='10018'>0.34728E+02</wgt>
<wgt id='10019'>0.33952E+02</wgt>
<wgt id='10020'>0.34562E+02</wgt>
<wgt id='10021'>0.34601E+02</wgt>
<wgt id='10022'>0.34705E+02</wgt>
<wgt id='10023'>0.34678E+02</wgt>
<wgt id='10024'>0.34639E+02</wgt>
<wgt id='10025'>0.34602E+02</wgt>
<wgt id='10026'>0.34721E+02</wgt>
<wgt id='10027'>0.34663E+02</wgt>
<wgt id='10028'>0.34897E+02</wgt>
<wgt id='10029'>0.34626E+02</wgt>
<wgt id='10030'>0.34620E+02</wgt>
<wgt id='10031'>0.33850E+02</wgt>
<wgt id='10032'>0.35499E+02</wgt>
<wgt id='11000'>0.32571E+02</wgt>
<wgt id='11001'>0.32204E+02</wgt>
<wgt id='11002'>0.32307E+02</wgt>
<wgt id='11003'>0.32598E+02</wgt>
<wgt id='11004'>0.32006E+02</wgt>
<wgt id='11005'>0.32839E+02</wgt>
<wgt id='11006'>0.32593E+02</wgt>
<wgt id='11007'>0.32650E+02</wgt>
<wgt id='11008'>0.32552E+02</wgt>
<wgt id='11009'>0.32700E+02</wgt>
<wgt id='11010'>0.32961E+02</wgt>
<wgt id='11011'>0.32559E+02</wgt>
<wgt id='11012'>0.32485E+02</wgt>
<wgt id='11013'>0.32523E+02</wgt>
<wgt id='11014'>0.32558E+02</wgt>
<wgt id='11015'>0.32379E+02</wgt>
<wgt id='11016'>0.32640E+02</wgt>
<wgt id='11017'>0.32590E+02</wgt>
<wgt id='11018'>0.32596E+02</wgt>
<wgt id='11019'>0.32679E+02</wgt>
<wgt id='11020'>0.32551E+02</wgt>
<wgt id='11021'>0.32620E+02</wgt>
<wgt id='11022'>0.32305E+02</wgt>
<wgt id='11023'>0.32586E+02</wgt>
<wgt id='11024'>0.32345E+02</wgt>
<wgt id='11025'>0.32564E+02</wgt>
<wgt id='11026'>0.32569E+02</wgt>
<wgt id='11027'>0.32703E+02</wgt>
<wgt id='11028'>0.32501E+02</wgt>
<wgt id='11029'>0.31955E+02</wgt>
<wgt id='11030'>0.32566E+02</wgt>
<wgt id='11031'>0.31849E+02</wgt>
<wgt id='11032'>0.33379E+02</wgt>
<wgt id='12000'>0.29724E+02</wgt>
<wgt id='12001'>0.29694E+02</wgt>
<wgt id='12002'>0.29754E+02</wgt>
<wgt id='12003'>0.29793E+02</wgt>
<wgt id='12004'>0.29655E+02</wgt>
<wgt id='12005'>0.29728E+02</wgt>
<wgt id='12006'>0.29720E+02</wgt>
<wgt id='12007'>0.29757E+02</wgt>
<wgt id='12008'>0.29692E+02</wgt>
<wgt id='12009'>0.29707E+02</wgt>
<wgt id='12010'>0.29742E+02</wgt>
<wgt id='12011'>0.29531E+02</wgt>
<wgt id='12012'>0.29907E+02</wgt>
<wgt id='12013'>0.29685E+02</wgt>
<wgt id='12014'>0.29762E+02</wgt>
<wgt id='12015'>0.29943E+02</wgt>
<wgt id='12016'>0.29568E+02</wgt>
<wgt id='12017'>0.29813E+02</wgt>
<wgt id='12018'>0.29607E+02</wgt>
<wgt id='12019'>0.29969E+02</wgt>
<wgt id='12020'>0.29495E+02</wgt>
<wgt id='12021'>0.29711E+02</wgt>
<wgt id='12022'>0.29716E+02</wgt>
<wgt id='12023'>0.29337E+02</wgt>
<wgt id='12024'>0.30052E+02</wgt>
<wgt id='12025'>0.29380E+02</wgt>
<wgt id='12026'>0.30105E+02</wgt>
<wgt id='12027'>0.30240E+02</wgt>
<wgt id='12028'>0.29271E+02</wgt>
<wgt id='12050'>0.29724E+02</wgt>
<wgt id='12051'>0.29847E+02</wgt>
<wgt id='12052'>0.29527E+02</wgt>
<wgt id='12053'>0.29845E+02</wgt>
<wgt id='12054'>0.29594E+02</wgt>
<wgt id='12055'>0.29466E+02</wgt>
<wgt id='12056'>0.30554E+02</wgt>
<wgt id='12057'>0.29763E+02</wgt>
<wgt id='12058'>0.29718E+02</wgt>
<wgt id='12059'>0.29878E+02</wgt>
<wgt id='12060'>0.29594E+02</wgt>
<wgt id='12061'>0.29496E+02</wgt>
<wgt id='12062'>0.29819E+02</wgt>
<wgt id='12063'>0.30275E+02</wgt>
<wgt id='13000'>0.32557E+02</wgt>
<wgt id='13001'>0.32533E+02</wgt>
<wgt id='13002'>0.32573E+02</wgt>
<wgt id='13003'>0.32619E+02</wgt>
<wgt id='13004'>0.32487E+02</wgt>
<wgt id='13005'>0.32604E+02</wgt>
<wgt id='13006'>0.32502E+02</wgt>
<wgt id='13007'>0.32643E+02</wgt>
<wgt id='13008'>0.32464E+02</wgt>
<wgt id='13009'>0.32436E+02</wgt>
<wgt id='13010'>0.32670E+02</wgt>
<wgt id='13011'>0.32652E+02</wgt>
<wgt id='13012'>0.32456E+02</wgt>
<wgt id='13013'>0.32505E+02</wgt>
<wgt id='13014'>0.32603E+02</wgt>
<wgt id='13015'>0.32684E+02</wgt>
<wgt id='13016'>0.32494E+02</wgt>
<wgt id='13017'>0.32472E+02</wgt>
<wgt id='13018'>0.32631E+02</wgt>
<wgt id='13019'>0.32676E+02</wgt>
<wgt id='13020'>0.32429E+02</wgt>
<wgt id='13021'>0.32976E+02</wgt>
<wgt id='13022'>0.32119E+02</wgt>
<wgt id='13023'>0.32085E+02</wgt>
<wgt id='13024'>0.33028E+02</wgt>
<wgt id='13025'>0.31969E+02</wgt>
<wgt id='13026'>0.33087E+02</wgt>
<wgt id='13027'>0.32301E+02</wgt>
<wgt id='13028'>0.32845E+02</wgt>
<wgt id='13050'>0.32557E+02</wgt>
<wgt id='13051'>0.32623E+02</wgt>
<wgt id='13052'>0.32173E+02</wgt>
<wgt id='13053'>0.32617E+02</wgt>
<wgt id='13054'>0.32531E+02</wgt>
<wgt id='13055'>0.31312E+02</wgt>
<wgt id='13056'>0.33189E+02</wgt>
<wgt id='13057'>0.32556E+02</wgt>
<wgt id='13058'>0.32602E+02</wgt>
<wgt id='13059'>0.32683E+02</wgt>
<wgt id='13060'>0.31118E+02</wgt>
<wgt id='13061'>0.32631E+02</wgt>
<wgt id='13062'>0.32542E+02</wgt>
<wgt id='13063'>0.33240E+02</wgt>
<wgt id='14000'>0.35142E+02</wgt>
<wgt id='14001'>0.35137E+02</wgt>
<wgt id='14002'>0.35132E+02</wgt>
<wgt id='14003'>0.35128E+02</wgt>
<wgt id='14004'>0.35123E+02</wgt>
<wgt id='14005'>0.35118E+02</wgt>
<wgt id='14006'>0.35113E+02</wgt>
<wgt id='14007'>0.35109E+02</wgt>
<wgt id='14008'>0.35104E+02</wgt>
<wgt id='14009'>0.35099E+02</wgt>
<wgt id='14010'>0.35094E+02</wgt>
<wgt id='14011'>0.35090E+02</wgt>
<wgt id='14012'>0.35085E+02</wgt>
<wgt id='14013'>0.35080E+02</wgt>
<wgt id='14014'>0.35075E+02</wgt>
<wgt id='14015'>0.35071E+02</wgt>
<wgt id='14016'>0.35066E+02</wgt>
<wgt id='14017'>0.35061E+02</wgt>
<wgt id='14018'>0.35057E+02</wgt>
<wgt id='14019'>0.35052E+02</wgt>
<wgt id='14020'>0.35047E+02</wgt>
<wgt id='14021'>0.35042E+02</wgt>
<wgt id='14022'>0.35038E+02</wgt>
<wgt id='14023'>0.35033E+02</wgt>
<wgt id='14024'>0.35028E+02</wgt>
<wgt id='14025'>0.35024E+02</wgt>
<wgt id='14026'>0.35019E+02</wgt>
<wgt id='14027'>0.35014E+02</wgt>
<wgt id='14028'>0.35009E+02</wgt>
<wgt id='14029'>0.35005E+02</wgt>
<wgt id='14030'>0.35000E+02</wgt>
<wgt id='15000'>0.32196E+02</wgt>
<wgt id='15001'>0.32359E+02</wgt>
<wgt id='15002'>0.31958E+02</wgt>
<wgt id='15003'>0.32545E+02</wgt>
<wgt id='15004'>0.32378E+02</wgt>
<wgt id='15005'>0.32148E+02</wgt>
<wgt id='15006'>0.32538E+02</wgt>
<wgt id='15007'>0.32420E+02</wgt>
<wgt id='15008'>0.32254E+02</wgt>
<wgt id='15009'>0.32271E+02</wgt>
<wgt id='15010'>0.32340E+02</wgt>
<wgt id='15011'>0.32142E+02</wgt>
<wgt id='15012'>0.32237E+02</wgt>
<wgt id='15013'>0.32673E+02</wgt>
<wgt id='15014'>0.32185E+02</wgt>
<wgt id='15015'>0.31842E+02</wgt>
<wgt id='15016'>0.32030E+02</wgt>
<wgt id='15017'>0.32161E+02</wgt>
<wgt id='15018'>0.32444E+02</wgt>
<wgt id='15019'>0.32370E+02</wgt>
<wgt id='15020'>0.32548E+02</wgt>
<wgt id='15021'>0.31758E+02</wgt>
<wgt id='15022'>0.32227E+02</wgt>
<wgt id='15023'>0.31943E+02</wgt>
<wgt id='15024'>0.32035E+02</wgt>
<wgt id='15025'>0.32337E+02</wgt>
<wgt id='15026'>0.32145E+02</wgt>
<wgt id='15027'>0.32132E+02</wgt>
<wgt id='15028'>0.32235E+02</wgt>
<wgt id='15029'>0.32248E+02</wgt>
<wgt id='15030'>0.32164E+02</wgt>
<wgt id='15031'>0.32155E+02</wgt>
<wgt id='15032'>0.32266E+02</wgt>
<wgt id='15033'>0.32237E+02</wgt>
<wgt id='15034'>0.32213E+02</wgt>
<wgt id='15035'>0.32246E+02</wgt>
<wgt id='15036'>0.32224E+02</wgt>
<wgt id='15037'>0.32224E+02</wgt>
<wgt id='15038'>0.32230E+02</wgt>
<wgt id='15039'>0.32199E+02</wgt>
<wgt id='15040'>0.32160E+02</wgt>
<wgt id='15041'>0.32197E+02</wgt>
<wgt id='15042'>0.32166E+02</wgt>
<wgt id='15043'>0.32142E+02</wgt>
<wgt id='15044'>0.32202E+02</wgt>
<wgt id='15045'>0.32171E+02</wgt>
<wgt id='15046'>0.32153E+02</wgt>
<wgt id='15047'>0.32213E+02</wgt>
<wgt id='15048'>0.32209E+02</wgt>
<wgt id='15049'>0.32178E+02</wgt>
<wgt id='15050'>0.32194E+02</wgt>
<wgt id='15051'>0.32221E+02</wgt>
<wgt id='15052'>0.32225E+02</wgt>
<wgt id='15053'>0.32198E+02</wgt>
<wgt id='15054'>0.32185E+02</wgt>
<wgt id='15055'>0.32184E+02</wgt>
<wgt id='15056'>0.32223E+02</wgt>
<wgt id='15057'>0.32198E+02</wgt>
<wgt id='15058'>0.32152E+02</wgt>
<wgt id='15059'>0.32186E+02</wgt>
<wgt id='15060'>0.32193E+02</wgt>
<wgt id='15061'>0.32191E+02</wgt>
<wgt id='15062'>0.32202E+02</wgt>
<wgt id='15063'>0.32206E+02</wgt>
<wgt id='15064'>0.32196E+02</wgt>
<wgt id='15065'>0.32195E+02</wgt>
<wgt id='15066'>0.32198E+02</wgt>
<wgt id='15067'>0.32197E+02</wgt>
<wgt id='15068'>0.32191E+02</wgt>
<wgt id='15069'>0.32237E+02</wgt>
<wgt id='15070'>0.32180E+02</wgt>
<wgt id='15071'>0.32221E+02</wgt>
<wgt id='15072'>0.32226E+02</wgt>
<wgt id='15073'>0.32191E+02</wgt>
<wgt id='15074'>0.32200E+02</wgt>
<wgt id='15075'>0.32197E+02</wgt>
<wgt id='15076'>0.32207E+02</wgt>
<wgt id='15077'>0.32199E+02</wgt>
<wgt id='15078'>0.32206E+02</wgt>
<wgt id='15079'>0.32193E+02</wgt>
<wgt id='15080'>0.32226E+02</wgt>
<wgt id='15081'>0.32199E+02</wgt>
<wgt id='15082'>0.32213E+02</wgt>
<wgt id='15083'>0.32189E+02</wgt>
<wgt id='15084'>0.32188E+02</wgt>
<wgt id='15085'>0.32175E+02</wgt>
<wgt id='15086'>0.32194E+02</wgt>
<wgt id='15087'>0.32170E+02</wgt>
<wgt id='15088'>0.32184E+02</wgt>
<wgt id='15089'>0.32185E+02</wgt>
<wgt id='15090'>0.32202E+02</wgt>
<wgt id='15091'>0.32198E+02</wgt>
<wgt id='15092'>0.32188E+02</wgt>
<wgt id='15093'>0.32192E+02</wgt>
<wgt id='15094'>0.32195E+02</wgt>
<wgt id='15095'>0.32206E+02</wgt>
<wgt id='15096'>0.32187E+02</wgt>
<wgt id='15097'>0.32196E+02</wgt>
<wgt id='15098'>0.32196E+02</wgt>
<wgt id='15099'>0.32189E+02</wgt>
<wgt id='15100'>0.32194E+02</wgt>
<wgt id='15101'>0.32196E+02</wgt>
<wgt id='15102'>0.32194E+02</wgt>
<wgt id='15103'>0.32197E+02</wgt>
<wgt id='15104'>0.32197E+02</wgt>
<wgt id='15105'>0.32197E+02</wgt>
<wgt id='15106'>0.32196E+02</wgt>
<wgt id='15107'>0.32194E+02</wgt>
<wgt id='1500'>0.34183E+02</wgt>
<wgt id='1501'>0.32652E+02</wgt>
<wgt id='1502'>0.34454E+02</wgt>
<wgt id='1503'>0.35145E+02</wgt>
<wgt id='1504'>0.32374E+02</wgt>
<wgt id='1505'>0.32918E+02</wgt>
<wgt id='1506'>0.33752E+02</wgt>
<wgt id='1507'>0.34080E+02</wgt>
<wgt id='1508'>0.34535E+02</wgt>
<wgt id='1509'>0.33767E+02</wgt>
<wgt id='1510'>0.35847E+02</wgt>
<wgt id='1511'>0.35025E+02</wgt>
<wgt id='1512'>0.33487E+02</wgt>
<wgt id='1513'>0.34194E+02</wgt>
<wgt id='1514'>0.36586E+02</wgt>
<wgt id='1515'>0.34124E+02</wgt>
<wgt id='1516'>0.34232E+02</wgt>
<wgt id='1517'>0.35687E+02</wgt>
<wgt id='1518'>0.34382E+02</wgt>
<wgt id='1519'>0.33617E+02</wgt>
<wgt id='1520'>0.33736E+02</wgt>
<wgt id='1521'>0.33621E+02</wgt>
<wgt id='1522'>0.34316E+02</wgt>
<wgt id='1523'>0.34027E+02</wgt>
<wgt id='1524'>0.33813E+02</wgt>
<wgt id='1525'>0.34060E+02</wgt>
<wgt id='1526'>0.32786E+02</wgt>
<wgt id='1527'>0.35336E+02</wgt>
<wgt id='1528'>0.35087E+02</wgt>
<wgt id='1529'>0.34671E+02</wgt>
<wgt id='1530'>0.33417E+02</wgt>
<wgt id='1531'>0.33933E+02</wgt>
<wgt id='1532'>0.34424E+02</wgt>
<wgt id='1533'>0.33831E+02</wgt>
<wgt id='1534'>0.33145E+02</wgt>
<wgt id='1535'>0.35913E+02</wgt>
<wgt id='1536'>0.33809E+02</wgt>
<wgt id='1537'>0.34611E+02</wgt>
<wgt id='1538'>0.34136E+02</wgt>
<wgt id='1539'>0.33076E+02</wgt>
<wgt id='1540'>0.33916E+02</wgt>
<wgt id='1541'>0.33620E+02</wgt>
<wgt id='1542'>0.33031E+02</wgt>
<wgt id='1543'>0.33272E+02</wgt>
<wgt id='1544'>0.34308E+02</wgt>
<wgt id='1545'>0.35487E+02</wgt>
<wgt id='1546'>0.33700E+02</wgt>
<wgt id='1547'>0.34192E+02</wgt>
<wgt id='1548'>0.34247E+02</wgt>
<wgt id='1549'>0.34868E+02</wgt>
<wgt id='1550'>0.34284E+02</wgt>
<wgt id='1551'>0.33990E+02</wgt>
<wgt id='1552'>0.34109E+02</wgt>
<wgt id='1553'>0.33618E+02</wgt>
<wgt id='1554'>0.33666E+02</wgt>
<wgt id='1555'>0.34265E+02</wgt>
<wgt id='1556'>0.35344E+02</wgt>
<wgt id='1557'>0.33578E+02</wgt>
<wgt id='1558'>0.34712E+02</wgt>
<wgt id='1559'>0.34458E+02</wgt>
<wgt id='1560'>0.34097E+02</wgt>
<wgt id='1561'>0.34343E+02</wgt>
<wgt id='1562'>0.34573E+02</wgt>
<wgt id='1563'>0.33672E+02</wgt>
<wgt id='1564'>0.35329E+02</wgt>
<wgt id='1565'>0.33432E+02</wgt>
<wgt id='1566'>0.34466E+02</wgt>
<wgt id='1567'>0.34590E+02</wgt>
<wgt id='1568'>0.34604E+02</wgt>
<wgt id='1569'>0.33935E+02</wgt>
<wgt id='1570'>0.34291E+02</wgt>
<wgt id='1571'>0.33500E+02</wgt>
<wgt id='1572'>0.33671E+02</wgt>
<wgt id='1573'>0.33776E+02</wgt>
<wgt id='1574'>0.33992E+02</wgt>
<wgt id='1575'>0.34422E+02</wgt>
<wgt id='1576'>0.33843E+02</wgt>
<wgt id='1577'>0.33530E+02</wgt>
<wgt id='1578'>0.33235E+02</wgt>
<wgt id='1579'>0.33902E+02</wgt>
<wgt id='1580'>0.33926E+02</wgt>
<wgt id='1581'>0.34451E+02</wgt>
<wgt id='1582'>0.34077E+02</wgt>
<wgt id='1583'>0.33104E+02</wgt>
<wgt id='1584'>0.34829E+02</wgt>
<wgt id='1585'>0.34945E+02</wgt>
<wgt id='1586'>0.34698E+02</wgt>
<wgt id='1587'>0.35177E+02</wgt>
<wgt id='1588'>0.34401E+02</wgt>
<wgt id='1589'>0.33086E+02</wgt>
<wgt id='1590'>0.33967E+02</wgt>
<wgt id='1591'>0.34030E+02</wgt>
<wgt id='1592'>0.33330E+02</wgt>
<wgt id='1593'>0.34590E+02</wgt>
<wgt id='1594'>0.34332E+02</wgt>
<wgt id='1595'>0.36158E+02</wgt>
<wgt id='1596'>0.33508E+02</wgt>
<wgt id='1597'>0.33622E+02</wgt>
<wgt id='1598'>0.33652E+02</wgt>
<wgt id='1599'>0.33752E+02</wgt>
<wgt id='1600'>0.35059E+02</wgt>
<wgt id='1601'>0.33646E+02</wgt>
<wgt id='1602'>0.34570E+02</wgt>
<wgt id='1700'>0.32083E+02</wgt>
<wgt id='1800'>0.40188E+02</wgt>
<wgt id='1850'>0.48634E+02</wgt>
<wgt id='1900'>0.43909E+02</wgt>
<wgt id='1950'>0.48938E+02</wgt>
</rwgt>
</event>
<event>
      4   9999  3.15120E+01  4.00354E+01 -1.00000E+00  1.42635E-01
      21    -1     0     0   502   501  0.000000000E+00  0.000000000E+00  4.787555176E+01  4.787555176E+01  0.000000000E+00  0.00000E+00  9.000E+00
      21    -1     0     0   511   502  0.000000000E+00  0.000000000E+00 -2.535524190E+02  2.535524190E+02  0.000000000E+00  0.00000E+00  9.000E+00
      25     1     1     2     0     0  3.981209280E+01  4.222758222E+00 -4.255947997E+01  1.334692959E+02  1.199996217E+02  0.00000E+00  9.000E+00
      21     1     1     2   511   501 -3.981209280E+01 -4.222758222E+00 -1.631173872E+02  1.679586748E+02  1.907348633E-06  0.00000E+00  9.000E+00
#rwgt            1           1   26.406518084181190                1         651           0
<rwgt>
<wgt id='1001'>0.31512E+02</wgt>
<wgt id='1002'>0.34818E+02</wgt>
<wgt id='1003'>0.27999E+02</wgt>
<wgt id='1004'>0.26795E+02</wgt>
<wgt id='1005'>0.29442E+02</wgt>
<wgt id='1006'>0.23935E+02</wgt>
<wgt id='1007'>0.37595E+02</wgt>
<wgt id='1008'>0.41837E+02</wgt>
<wgt id='1009'>0.33172E+02</wgt>
<wgt id='2000'>0.31512E+02</wgt>
<wgt id='2001'>0.31478E+02</wgt>
<wgt id='2002'>0.31654E+02</wgt>
<wgt id='2003'>0.31643E+02</wgt>
<wgt id='2004'>0.31548E+02</wgt>
<wgt id='2005'>0.31428E+02</wgt>
<wgt id='2006'>0.31419E+02</wgt>
<wgt id='2007'>0.31380E+02</wgt>
<wgt id='2008'>0.31460E+02</wgt>
<wgt id='2009'>0.31543E+02</wgt>
<wgt id='2010'>0.31484E+02</wgt>
<wgt id='2011'>0.31681E+02</wgt>
<wgt id='2012'>0.31698E+02</wgt>
<wgt id='2013'>0.31817E+02</wgt>
<wgt id='2014'>0.31626E+02</wgt>
<wgt id='2015'>0.31577E+02</wgt>
<wgt id='2016'>0.31428E+02</wgt>
<wgt id='2017'>0.31509E+02</wgt>
<wgt id='2018'>0.31633E+02</wgt>
<wgt id='2019'>0.31496E+02</wgt>
<wgt id='2020'>0.31586E+02</wgt>
<wgt id='2021'>0.31474E+02</wgt>
<wgt id='2022'>0.31518E+02</wgt>
<wgt id='2023'>0.31530E+02</wgt>
<wgt id='2024'>0.31532E+02</wgt>
<wgt id='2025'>0.31506E+02</wgt>
<wgt id='2026'>0.31507E+02</wgt>
<wgt id='2027'>0.31500E+02</wgt>
<wgt id='2028'>0.31505E+02</wgt>
<wgt id='2029'>0.31540E+02</wgt>
<wgt id='2030'>0.31521E+02</wgt>
<wgt id='2031'>0.31524E+02</wgt>
<wgt id='2032'>0.31507E+02</wgt>
<wgt id='2033'>0.31516E+02</wgt>
<wgt id='2034'>0.31530E+02</wgt>
<wgt id='2035'>0.31507E+02</wgt>
<wgt id='2036'>0.31519E+02</wgt>
<wgt id='2037'>0.31521E+02</wgt>
<wgt id='2038'>0.31510E+02</wgt>
<wgt id='2039'>0.31500E+02</wgt>
<wgt id='2040'>0.31516E+02</wgt>
<wgt id='2041'>0.31515E+02</wgt>
<wgt id='2042'>0.31503E+02</wgt>
<wgt id='2043'>0.31514E+02</wgt>
<wgt id='2044'>0.31521E+02</wgt>
<wgt id='2045'>0.31512E+02</wgt>
<wgt id='2046'>0.31521E+02</wgt>
<wgt id='2047'>0.31523E+02</wgt>
<wgt id='2048'>0.31510E+02</wgt>
<wgt id='2049'>0.31512E+02</wgt>
<wgt id='2050'>0.31519E+02</wgt>
<wgt id='2051'>0.31522E+02</wgt>
<wgt id='2052'>0.31509E+02</wgt>
<wgt id='2053'>0.31512E+02</wgt>
<wgt id='2054'>0.31512E+02</wgt>
<wgt id='2055'>0.31514E+02</wgt>
<wgt id='2056'>0.31512E+02</wgt>
<wgt id='2057'>0.31514E+02</wgt>
<wgt id='2058'>0.31516E+02</wgt>
<wgt id='2059'>0.31509E+02</wgt>
<wgt id='2060'>0.31512E+02</wgt>
<wgt id='2061'>0.31506E+02</wgt>
<wgt id='2062'>0.31512E+02</wgt>
<wgt id='2063'>0.31511E+02</wgt>
<wgt id='2064'>0.31506E+02</wgt>
<wgt id='2065'>0.31518E+02</wgt>
<wgt id='2066'>0.31508E+02</wgt>
<wgt id='2067'>0.31513E+02</wgt>
<wgt id='2068'>0.31516E+02</wgt>
<wgt id='2069'>0.31511E+02</wgt>
<wgt id='2070'>0.31511E+02</wgt>
<wgt id='2071'>0.31507E+02</wgt>
<wgt id='2072'>0.31515E+02</wgt>
<wgt id='2073'>0.31515E+02</wgt>
<wgt id='2074'>0.31511E+02</wgt>
<wgt id='2075'>0.31509E+02</wgt>
<wgt id='2076'>0.31513E+02</wgt>
<wgt id='2077'>0.31509E+02</wgt>
<wgt id='2078'>0.31510E+02</wgt>
<wgt id='2079'>0.31515E+02</wgt>
<wgt id='2080'>0.31512E+02</wgt>
<wgt id='2081'>0.31515E+02</wgt>
<wgt id='2082'>0.31513E+02</wgt>
<wgt id='2083'>0.31512E+02</wgt>
<wgt id='2084'>0.31511E+02</wgt>
<wgt id='2085'>0.31508E+02</wgt>
<wgt id='2086'>0.31511E+02</wgt>
<wgt id='2087'>0.31511E+02</wgt>
<wgt id='2088'>0.31511E+02</wgt>
<wgt id='2089'>0.31512E+02</wgt>
<wgt id='2090'>0.31514E+02</wgt>
<wgt id='2091'>0.31510E+02</wgt>
<wgt id='2092'>0.31513E+02</wgt>
<wgt id='2093'>0.31512E+02</wgt>
<wgt id='2094'>0.31514E+02</wgt>
<wgt id='2095'>0.31511E+02</wgt>
<wgt id='2096'>0.31511E+02</wgt>
<wgt id='2097'>0.31512E+02</wgt>
<wgt id='2098'>0.31511E+02</wgt>
<wgt id='2099'>0.31513E+02</wgt>
<wgt id='2100'>0.31512E+02</wgt>
<wgt id='2101'>0.30732E+02</wgt>
<wgt id='2102'>0.32183E+02</wgt>
<wgt id='2104'>0.27941E+02</wgt>
<wgt id='2105'>0.28539E+02</wgt>
<wgt id='2106'>0.29255E+02</wgt>
<wgt id='2107'>0.30061E+02</wgt>
<wgt id='2108'>0.31211E+02</wgt>
<wgt id='2109'>0.31939E+02</wgt>
<wgt id='2110'>0.32870E+02</wgt>
<wgt id='2111'>0.33596E+02</wgt>
<wgt id='3000'>0.32855E+02</wgt>
<wgt id='3001'>0.32980E+02</wgt>
<wgt id='3002'>0.32712E+02</wgt>
<wgt id='3003'>0.32988E+02</wgt>
<wgt id='3004'>0.32928E+02</wgt>
<wgt id='3005'>0.33020E+02</wgt>
<wgt id='3006'>0.32908E+02</wgt>
<wgt id='3007'>0.32927E+02</wgt>
<wgt id='3008'>0.32749E+02</wgt>
<wgt id='3009'>0.32808E+02</wgt>
<wgt id='3010'>0.32724E+02</wgt>
<wgt id='3011'>0.32941E+02</wgt>
<wgt id='3012'>0.33109E+02</wgt>
<wgt id='3013'>0.32567E+02</wgt>
<wgt id='3014'>0.32993E+02</wgt>
<wgt id='3015'>0.32993E+02</wgt>
<wgt id='3016'>0.32868E+02</wgt>
<wgt id='3017'>0.33003E+02</wgt>
<wgt id='3018'>0.32886E+02</wgt>
<wgt id='3019'>0.32750E+02</wgt>
<wgt id='3020'>0.32852E+02</wgt>
<wgt id='3021'>0.32792E+02</wgt>
<wgt id='3022'>0.32850E+02</wgt>
<wgt id='3023'>0.32833E+02</wgt>
<wgt id='3024'>0.32872E+02</wgt>
<wgt id='3025'>0.32863E+02</wgt>
<wgt id='3026'>0.32850E+02</wgt>
<wgt id='3027'>0.32868E+02</wgt>
<wgt id='3028'>0.32850E+02</wgt>
<wgt id='3029'>0.32860E+02</wgt>
<wgt id='3030'>0.32882E+02</wgt>
<wgt id='3031'>0.32866E+02</wgt>
<wgt id='3032'>0.32852E+02</wgt>
<wgt id='3033'>0.32865E+02</wgt>
<wgt id='3034'>0.32857E+02</wgt>
<wgt id='3035'>0.32880E+02</wgt>
<wgt id='3036'>0.32864E+02</wgt>
<wgt id='3037'>0.32856E+02</wgt>
<wgt id='3038'>0.32857E+02</wgt>
<wgt id='3039'>0.32847E+02</wgt>
<wgt id='3040'>0.32851E+02</wgt>
<wgt id='3041'>0.32861E+02</wgt>
<wgt id='3042'>0.32847E+02</wgt>
<wgt id='3043'>0.32848E+02</wgt>
<wgt id='3044'>0.32857E+02</wgt>
<wgt id='3045'>0.32866E+02</wgt>
<wgt id='3046'>0.32864E+02</wgt>
<wgt id='3047'>0.32852E+02</wgt>
<wgt id='3048'>0.32860E+02</wgt>
<wgt id='3049'>0.32853E+02</wgt>
<wgt id='3050'>0.32853E+02</wgt>
<wgt id='3051'>0.32868E+02</wgt>
<wgt id='3052'>0.32850E+02</wgt>
<wgt id='3053'>0.32852E+02</wgt>
<wgt id='3054'>0.32851E+02</wgt>
<wgt id='3055'>0.32849E+02</wgt>
<wgt id='3056'>0.32858E+02</wgt>
<wgt id='3057'>0.32848E+02</wgt>
<wgt id='3058'>0.32849E+02</wgt>
<wgt id='3059'>0.32855E+02</wgt>
<wgt id='3060'>0.32856E+02</wgt>
<wgt id='3061'>0.32857E+02</wgt>
<wgt id='3062'>0.32860E+02</wgt>
<wgt id='3063'>0.32863E+02</wgt>
<wgt id='3064'>0.32853E+02</wgt>
<wgt id='3065'>0.32858E+02</wgt>
<wgt id='3066'>0.32858E+02</wgt>
<wgt id='3067'>0.32850E+02</wgt>
<wgt id='3068'>0.32854E+02</wgt>
<wgt id='3069'>0.32851E+02</wgt>
<wgt id='3070'>0.32855E+02</wgt>
<wgt id='3071'>0.32856E+02</wgt>
<wgt id='3072'>0.32860E+02</wgt>
<wgt id='3073'>0.32851E+02</wgt>
<wgt id='3074'>0.32862E+02</wgt>
<wgt id='3075'>0.32860E+02</wgt>
<wgt id='3076'>0.32849E+02</wgt>
<wgt id='3077'>0.32853E+02</wgt>
<wgt id='3078'>0.32860E+02</wgt>
<wgt id='3079'>0.32852E+02</wgt>
<wgt id='3080'>0.32858E+02</wgt>
<wgt id='3081'>0.32855E+02</wgt>
<wgt id='3082'>0.32854E+02</wgt>
<wgt id='3083'>0.32853E+02</wgt>
<wgt id='3084'>0.32853E+02</wgt>
<wgt id='3085'>0.32852E+02</wgt>
<wgt id='3086'>0.32853E+02</wgt>
<wgt id='3087'>0.32854E+02</wgt>
<wgt id='3088'>0.32856E+02</wgt>
<wgt id='3089'>0.32855E+02</wgt>
<wgt id='3090'>0.32856E+02</wgt>
<wgt id='3091'>0.32856E+02</wgt>
<wgt id='3092'>0.32856E+02</wgt>
<wgt id='3093'>0.32855E+02</wgt>
<wgt id='3094'>0.32858E+02</wgt>
<wgt id='3095'>0.32856E+02</wgt>
<wgt id='3096'>0.32854E+02</wgt>
<wgt id='3097'>0.32853E+02</wgt>
<wgt id='3098'>0.32856E+02</wgt>
<wgt id='3099'>0.32856E+02</wgt>
<wgt id='3100'>0.32856E+02</wgt>
<wgt id='3101'>0.32080E+02</wgt>
<wgt id='3102'>0.33754E+02</wgt>
<wgt id='5000'>0.30637E+02</wgt>
<wgt id='5001'>0.30504E+02</wgt>
<wgt id='5002'>0.30582E+02</wgt>
<wgt id='5003'>0.30420E+02</wgt>
<wgt id='5004'>0.30717E+02</wgt>
<wgt id='5005'>0.29932E+02</wgt>
<wgt id='5006'>0.31177E+02</wgt>
<wgt id='5007'>0.30833E+02</wgt>
<wgt id='5008'>0.30223E+02</wgt>
<wgt id='5009'>0.31035E+02</wgt>
<wgt id='5010'>0.30426E+02</wgt>
<wgt id='5011'>0.30575E+02</wgt>
<wgt id='5012'>0.30615E+02</wgt>
<wgt id='5013'>0.29974E+02</wgt>
<wgt id='5014'>0.30612E+02</wgt>
<wgt id='5015'>0.30878E+02</wgt>
<wgt id='5016'>0.29895E+02</wgt>
<wgt id='5017'>0.30737E+02</wgt>
<wgt id='5018'>0.30531E+02</wgt>
<wgt id='5019'>0.30487E+02</wgt>
<wgt id='5020'>0.30756E+02</wgt>
<wgt id='5021'>0.30749E+02</wgt>
<wgt id='5022'>0.30565E+02</wgt>
<wgt id='5023'>0.30570E+02</wgt>
<wgt id='5024'>0.30702E+02</wgt>
<wgt id='5025'>0.30588E+02</wgt>
<wgt id='5026'>0.30677E+02</wgt>
<wgt id='5027'>0.30970E+02</wgt>
<wgt id='5028'>0.30078E+02</wgt>
<wgt id='5029'>0.30042E+02</wgt>
<wgt id='5030'>0.30994E+02</wgt>
<wgt id='5031'>0.30280E+02</wgt>
<wgt id='5032'>0.31151E+02</wgt>
<wgt id='5033'>0.30384E+02</wgt>
<wgt id='5034'>0.30854E+02</wgt>
<wgt id='5035'>0.30126E+02</wgt>
<wgt id='5036'>0.31051E+02</wgt>
<wgt id='5037'>0.30645E+02</wgt>
<wgt id='5038'>0.30612E+02</wgt>
<wgt id='5039'>0.31144E+02</wgt>
<wgt id='5040'>0.30378E+02</wgt>
<wgt id='5041'>0.30261E+02</wgt>
<wgt id='5042'>0.30707E+02</wgt>
<wgt id='5043'>0.30976E+02</wgt>
<wgt id='5044'>0.29774E+02</wgt>
<wgt id='5045'>0.31568E+02</wgt>
<wgt id='5046'>0.30388E+02</wgt>
<wgt id='5047'>0.30844E+02</wgt>
<wgt id='5048'>0.30797E+02</wgt>
<wgt id='5049'>0.30664E+02</wgt>
<wgt id='5050'>0.30699E+02</wgt>
<wgt id='5051'>0.30736E+02</wgt>
<wgt id='5052'>0.30607E+02</wgt>
<wgt id='5053'>0.30380E+02</wgt>
<wgt id='5054'>0.31421E+02</wgt>
<wgt id='5055'>0.30441E+02</wgt>
<wgt id='5056'>0.30796E+02</wgt>
<wgt id='5060'>0.29969E+02</wgt>
<wgt id='5070'>0.31197E+02</wgt>
<wgt id='4000'>0.32365E+02</wgt>
<wgt id='4001'>0.32403E+02</wgt>
<wgt id='4002'>0.32475E+02</wgt>
<wgt id='4003'>0.33195E+02</wgt>
<wgt id='4004'>0.32009E+02</wgt>
<wgt id='4005'>0.32500E+02</wgt>
<wgt id='4006'>0.32257E+02</wgt>
<wgt id='4007'>0.32750E+02</wgt>
<wgt id='4008'>0.32207E+02</wgt>
<wgt id='4009'>0.31631E+02</wgt>
<wgt id='4010'>0.32953E+02</wgt>
<wgt id='4011'>0.32858E+02</wgt>
<wgt id='4012'>0.32088E+02</wgt>
<wgt id='4013'>0.31090E+02</wgt>
<wgt id='4014'>0.33100E+02</wgt>
<wgt id='4015'>0.32626E+02</wgt>
<wgt id='4016'>0.32193E+02</wgt>
<wgt id='4017'>0.32075E+02</wgt>
<wgt id='4018'>0.32710E+02</wgt>
<wgt id='4019'>0.32786E+02</wgt>
<wgt id='4020'>0.31890E+02</wgt>
<wgt id='4021'>0.32445E+02</wgt>
<wgt id='4022'>0.32189E+02</wgt>
<wgt id='4023'>0.32193E+02</wgt>
<wgt id='4024'>0.32517E+02</wgt>
<wgt id='4025'>0.31844E+02</wgt>
<wgt id='4026'>0.32843E+02</wgt>
<wgt id='4027'>0.32245E+02</wgt>
<wgt id='4028'>0.32525E+02</wgt>
<wgt id='4029'>0.32113E+02</wgt>
<wgt id='4030'>0.32451E+02</wgt>
<wgt id='4031'>0.32411E+02</wgt>
<wgt id='4032'>0.32305E+02</wgt>
<wgt id='4033'>0.32358E+02</wgt>
<wgt id='4034'>0.32373E+02</wgt>
<wgt id='4035'>0.32889E+02</wgt>
<wgt id='4036'>0.31860E+02</wgt>
<wgt id='4037'>0.32651E+02</wgt>
<wgt id='4038'>0.31884E+02</wgt>
<wgt id='4039'>0.32346E+02</wgt>
<wgt id='4040'>0.32312E+02</wgt>
<wgt id='4041'>0.32655E+02</wgt>
<wgt id='4042'>0.32093E+02</wgt>
<wgt id='4043'>0.32663E+02</wgt>
<wgt id='4044'>0.32007E+02</wgt>
<wgt id='4045'>0.31987E+02</wgt>
<wgt id='4046'>0.32186E+02</wgt>
<wgt id='4047'>0.31906E+02</wgt>
<wgt id='4048'>0.32772E+02</wgt>
<wgt id='4049'>0.32563E+02</wgt>
<wgt id='4050'>0.31679E+02</wgt>
<wgt id='4051'>0.32291E+02</wgt>
<wgt id='4052'>0.32271E+02</wgt>
<wgt id='4053'>0.31499E+02</wgt>
<wgt id='4054'>0.32593E+02</wgt>
<wgt id='4055'>0.32101E+02</wgt>
<wgt id='4056'>0.32597E+02</wgt>
<wgt id='4060'>0.31529E+02</wgt>
<wgt id='4070'>0.33120E+02</wgt>
<wgt id='4080'>0.31906E+02</wgt>
<wgt id='6000'>0.32919E+02</wgt>
<wgt id='6001'>0.32927E+02</wgt>
<wgt id='6002'>0.32909E+02</wgt>
<wgt id='6003'>0.32932E+02</wgt>
<wgt id='6004'>0.32909E+02</wgt>
<wgt id='6005'>0.33009E+02</wgt>
<wgt id='6006'>0.32835E+02</wgt>
<wgt id='6007'>0.32774E+02</wgt>
<wgt id='6008'>0.33080E+02</wgt>
<wgt id='6009'>0.33016E+02</wgt>
<wgt id='6010'>0.32823E+02</wgt>
<wgt id='6011'>0.32987E+02</wgt>
<wgt id='6012'>0.32766E+02</wgt>
<wgt id='6013'>0.32884E+02</wgt>
<wgt id='6014'>0.32979E+02</wgt>
<wgt id='6015'>0.32812E+02</wgt>
<wgt id='6016'>0.32979E+02</wgt>
<wgt id='6017'>0.32738E+02</wgt>
<wgt id='6018'>0.33131E+02</wgt>
<wgt id='6019'>0.32977E+02</wgt>
<wgt id='6020'>0.32868E+02</wgt>
<wgt id='6021'>0.32844E+02</wgt>
<wgt id='6022'>0.33017E+02</wgt>
<wgt id='6023'>0.32688E+02</wgt>
<wgt id='6024'>0.33078E+02</wgt>
<wgt id='6025'>0.32505E+02</wgt>
<wgt id='6026'>0.33289E+02</wgt>
<wgt id='6027'>0.33004E+02</wgt>
<wgt id='6028'>0.32920E+02</wgt>
<wgt id='6029'>0.33133E+02</wgt>
<wgt id='6030'>0.32667E+02</wgt>
<wgt id='6031'>0.32971E+02</wgt>
<wgt id='6032'>0.32849E+02</wgt>
<wgt id='6033'>0.32978E+02</wgt>
<wgt id='6034'>0.32854E+02</wgt>
<wgt id='6035'>0.32893E+02</wgt>
<wgt id='6036'>0.33039E+02</wgt>
<wgt id='6037'>0.32979E+02</wgt>
<wgt id='6038'>0.32911E+02</wgt>
<wgt id='6039'>0.32892E+02</wgt>
<wgt id='6040'>0.32947E+02</wgt>
<wgt id='6041'>0.32856E+02</wgt>
<wgt id='6042'>0.32994E+02</wgt>
<wgt id='6043'>0.33333E+02</wgt>
<wgt id='6044'>0.32706E+02</wgt>
<wgt id='6045'>0.32891E+02</wgt>
<wgt id='6046'>0.32989E+02</wgt>
<wgt id='6047'>0.32801E+02</wgt>
<wgt id='6048'>0.32766E+02</wgt>
<wgt id='6049'>0.32866E+02</wgt>
<wgt id='6050'>0.32924E+02</wgt>
<wgt id='7000'>0.30855E+02</wgt>
<wgt id='7001'>0.30839E+02</wgt>
<wgt id='7002'>0.30877E+02</wgt>
<wgt id='7003'>0.30952E+02</wgt>
<wgt id='7004'>0.30760E+02</wgt>
<wgt id='7005'>0.30913E+02</wgt>
<wgt id='7006'>0.30833E+02</wgt>
<wgt id='7007'>0.30728E+02</wgt>
<wgt id='7008'>0.30983E+02</wgt>
<wgt id='7009'>0.30905E+02</wgt>
<wgt id='7010'>0.30807E+02</wgt>
<wgt id='7011'>0.30567E+02</wgt>
<wgt id='7012'>0.30982E+02</wgt>
<wgt id='7013'>0.30860E+02</wgt>
<wgt id='7014'>0.30852E+02</wgt>
<wgt id='7015'>0.30770E+02</wgt>
<wgt id='7016'>0.30950E+02</wgt>
<wgt id='7017'>0.30795E+02</wgt>
<wgt id='7018'>0.30888E+02</wgt>
<wgt id='7019'>0.30812E+02</wgt>
<wgt id='7020'>0.30915E+02</wgt>
<wgt id='7021'>0.30848E+02</wgt>
<wgt id='7022'>0.30859E+02</wgt>
<wgt id='7023'>0.31211E+02</wgt>
<wgt id='7024'>0.30512E+02</wgt>
<wgt id='7025'>0.30995E+02</wgt>
<wgt id='7026'>0.30517E+02</wgt>
<wgt id='7027'>0.30992E+02</wgt>
<wgt id='7028'>0.30793E+02</wgt>
<wgt id='7029'>0.30707E+02</wgt>
<wgt id='7030'>0.31251E+02</wgt>
<wgt id='7031'>0.30856E+02</wgt>
<wgt id='7032'>0.30860E+02</wgt>
<wgt id='7033'>0.30810E+02</wgt>
<wgt id='7034'>0.30961E+02</wgt>
<wgt id='7035'>0.30946E+02</wgt>
<wgt id='7036'>0.30830E+02</wgt>
<wgt id='7037'>0.30870E+02</wgt>
<wgt id='7038'>0.30856E+02</wgt>
<wgt id='7039'>0.30832E+02</wgt>
<wgt id='7040'>0.30873E+02</wgt>
<wgt id='7041'>0.30795E+02</wgt>
<wgt id='7042'>0.30890E+02</wgt>
<wgt id='7043'>0.30884E+02</wgt>
<wgt id='7044'>0.30698E+02</wgt>
<wgt id='7045'>0.30615E+02</wgt>
<wgt id='7046'>0.30898E+02</wgt>
<wgt id='7047'>0.30860E+02</wgt>
<wgt id='7048'>0.30840E+02</wgt>
<wgt id='7049'>0.30837E+02</wgt>
<wgt id='7050'>0.30764E+02</wgt>
<wgt id='7060'>0.47480E+02</wgt>
<wgt id='8000'>0.31227E+02</wgt>
<wgt id='8001'>0.31219E+02</wgt>
<wgt id='8002'>0.31236E+02</wgt>
<wgt id='8003'>0.31231E+02</wgt>
<wgt id='8004'>0.31226E+02</wgt>
<wgt id='8005'>0.31153E+02</wgt>
<wgt id='8006'>0.31205E+02</wgt>
<wgt id='8007'>0.31183E+02</wgt>
<wgt id='8008'>0.31281E+02</wgt>
<wgt id='8009'>0.31340E+02</wgt>
<wgt id='8010'>0.31228E+02</wgt>
<wgt id='8011'>0.31209E+02</wgt>
<wgt id='8012'>0.31195E+02</wgt>
<wgt id='8013'>0.31223E+02</wgt>
<wgt id='8014'>0.31205E+02</wgt>
<wgt id='8015'>0.31204E+02</wgt>
<wgt id='8016'>0.31234E+02</wgt>
<wgt id='8017'>0.31227E+02</wgt>
<wgt id='8018'>0.31220E+02</wgt>
<wgt id='8019'>0.31284E+02</wgt>
<wgt id='8020'>0.31118E+02</wgt>
<wgt id='8021'>0.31232E+02</wgt>
<wgt id='8022'>0.31027E+02</wgt>
<wgt id='8023'>0.31268E+02</wgt>
<wgt id='8024'>0.31306E+02</wgt>
<wgt id='8025'>0.31344E+02</wgt>
<wgt id='8026'>0.31293E+02</wgt>
<wgt id='8027'>0.31169E+02</wgt>
<wgt id='8028'>0.31257E+02</wgt>
<wgt id='8029'>0.31011E+02</wgt>
<wgt id='8500'>0.32471E+02</wgt>
<wgt id='8501'>0.32410E+02</wgt>
<wgt id='8502'>0.32797E+02</wgt>
<wgt id='8503'>0.32702E+02</wgt>
<wgt id='8504'>0.32392E+02</wgt>
<wgt id='8505'>0.32311E+02</wgt>
<wgt id='8506'>0.32372E+02</wgt>
<wgt id='8507'>0.32686E+02</wgt>
<wgt id='8508'>0.32987E+02</wgt>
<wgt id='8509'>0.32247E+02</wgt>
<wgt id='8510'>0.32951E+02</wgt>
<wgt id='8511'>0.32495E+02</wgt>
<wgt id='8512'>0.32090E+02</wgt>
<wgt id='8513'>0.32512E+02</wgt>
<wgt id='8514'>0.32355E+02</wgt>
<wgt id='8515'>0.32475E+02</wgt>
<wgt id='8516'>0.32577E+02</wgt>
<wgt id='8517'>0.32427E+02</wgt>
<wgt id='8518'>0.32380E+02</wgt>
<wgt id='8519'>0.32380E+02</wgt>
<wgt id='8520'>0.32502E+02</wgt>
<wgt id='8521'>0.32339E+02</wgt>
<wgt id='8522'>0.32483E+02</wgt>
<wgt id='8523'>0.32418E+02</wgt>
<wgt id='8524'>0.32468E+02</wgt>
<wgt id='8525'>0.32434E+02</wgt>
<wgt id='8526'>0.32419E+02</wgt>
<wgt id='8527'>0.32468E+02</wgt>
<wgt id='8528'>0.32386E+02</wgt>
<wgt id='8529'>0.32450E+02</wgt>
<wgt id='8530'>0.32473E+02</wgt>
<wgt id='8531'>0.32459E+02</wgt>
<wgt id='8532'>0.32477E+02</wgt>
<wgt id='8533'>0.32405E+02</wgt>
<wgt id='8534'>0.32485E+02</wgt>
<wgt id='8535'>0.32544E+02</wgt>
<wgt id='8536'>0.32449E+02</wgt>
<wgt id='8537'>0.32484E+02</wgt>
<wgt id='8538'>0.32438E+02</wgt>
<wgt id='8539'>0.32477E+02</wgt>
<wgt id='8540'>0.32478E+02</wgt>
<wgt id='8541'>0.32487E+02</wgt>
<wgt id='8542'>0.32496E+02</wgt>
<wgt id='8543'>0.32443E+02</wgt>
<wgt id='8544'>0.32505E+02</wgt>
<wgt id='8545'>0.32499E+02</wgt>
<wgt id='8546'>0.32502E+02</wgt>
<wgt id='8547'>0.32443E+02</wgt>
<wgt id='8548'>0.32439E+02</wgt>
<wgt id='8549'>0.32473E+02</wgt>
<wgt id='8550'>0.32478E+02</wgt>
<wgt id='8551'>0.32440E+02</wgt>
<wgt id='8552'>0.32479E+02</wgt>
<wgt id='8553'>0.32459E+02</wgt>
<wgt id='8554'>0.32457E+02</wgt>
<wgt id='8555'>0.32475E+02</wgt>
<wgt id='8556'>0.32469E+02</wgt>
<wgt id='8557'>0.32464E+02</wgt>
<wgt id='8558'>0.32505E+02</wgt>
<wgt id='8559'>0.32455E+02</wgt>
<wgt id='8560'>0.32437E+02</wgt>
<wgt id='8561'>0.32467E+02</wgt>
<wgt id='8562'>0.32447E+02</wgt>
<wgt id='8563'>0.32472E+02</wgt>
<wgt id='8564'>0.32466E+02</wgt>
<wgt id='8565'>0.32469E+02</wgt>
<wgt id='8566'>0.32464E+02</wgt>
<wgt id='8567'>0.32469E+02</wgt>
<wgt id='8568'>0.32483E+02</wgt>
<wgt id='8569'>0.32479E+02</wgt>
<wgt id='8570'>0.32468E+02</wgt>
<wgt id='8571'>0.32458E+02</wgt>
<wgt id='8572'>0.32462E+02</wgt>
<wgt id='8573'>0.32458E+02</wgt>
<wgt id='8574'>0.32478E+02</wgt>
<wgt id='8575'>0.32467E+02</wgt>
<wgt id='8576'>0.32468E+02</wgt>
<wgt id='8577'>0.32470E+02</wgt>
<wgt id='8578'>0.32475E+02</wgt>
<wgt id='8579'>0.32489E+02</wgt>
<wgt id='8580'>0.32471E+02</wgt>
<wgt id='8581'>0.32476E+02</wgt>
<wgt id='8582'>0.32451E+02</wgt>
<wgt id='8583'>0.32484E+02</wgt>
<wgt id='8584'>0.32478E+02</wgt>
<wgt id='8585'>0.32476E+02</wgt>
<wgt id='8586'>0.32485E+02</wgt>
<wgt id='8587'>0.32466E+02</wgt>
<wgt id='8588'>0.32464E+02</wgt>
<wgt id='8589'>0.32473E+02</wgt>
<wgt id='8590'>0.32468E+02</wgt>
<wgt id='8591'>0.32467E+02</wgt>
<wgt id='8592'>0.32470E+02</wgt>
<wgt id='8593'>0.32460E+02</wgt>
<wgt id='8594'>0.32476E+02</wgt>
<wgt id='8595'>0.32474E+02</wgt>
<wgt id='8596'>0.32464E+02</wgt>
<wgt id='8597'>0.32475E+02</wgt>
<wgt id='8598'>0.32478E+02</wgt>
<wgt id='8599'>0.32475E+02</wgt>
<wgt id='8600'>0.32471E+02</wgt>
<wgt id='8601'>0.31862E+02</wgt>
<wgt id='8602'>0.32993E+02</wgt>
<wgt id='9000'>0.30814E+02</wgt>
<wgt id='9001'>0.30874E+02</wgt>
<wgt id='9002'>0.30974E+02</wgt>
<wgt id='9003'>0.30534E+02</wgt>
<wgt id='9004'>0.30755E+02</wgt>
<wgt id='9005'>0.30971E+02</wgt>
<wgt id='9006'>0.30727E+02</wgt>
<wgt id='9007'>0.30831E+02</wgt>
<wgt id='9008'>0.30885E+02</wgt>
<wgt id='9009'>0.30794E+02</wgt>
<wgt id='9010'>0.30772E+02</wgt>
<wgt id='9011'>0.31143E+02</wgt>
<wgt id='9012'>0.30397E+02</wgt>
<wgt id='9013'>0.30403E+02</wgt>
<wgt id='9014'>0.30446E+02</wgt>
<wgt id='9015'>0.30779E+02</wgt>
<wgt id='9016'>0.30917E+02</wgt>
<wgt id='9017'>0.30836E+02</wgt>
<wgt id='9018'>0.30812E+02</wgt>
<wgt id='9019'>0.30784E+02</wgt>
<wgt id='9020'>0.30940E+02</wgt>
<wgt id='9021'>0.30808E+02</wgt>
<wgt id='9022'>0.30850E+02</wgt>
<wgt id='9023'>0.30773E+02</wgt>
<wgt id='9024'>0.30770E+02</wgt>
<wgt id='9025'>0.30856E+02</wgt>
<wgt id='9026'>0.30830E+02</wgt>
<wgt id='9027'>0.30782E+02</wgt>
<wgt id='9028'>0.30838E+02</wgt>
<wgt id='9029'>0.30844E+02</wgt>
<wgt id='9030'>0.30831E+02</wgt>
<wgt id='9031'>0.30806E+02</wgt>
<wgt id='9032'>0.30834E+02</wgt>
<wgt id='9033'>0.30854E+02</wgt>
<wgt id='9034'>0.30793E+02</wgt>
<wgt id='9035'>0.30866E+02</wgt>
<wgt id='9036'>0.30810E+02</wgt>
<wgt id='9037'>0.30843E+02</wgt>
<wgt id='9038'>0.30812E+02</wgt>
<wgt id='9039'>0.30815E+02</wgt>
<wgt id='9040'>0.30776E+02</wgt>
<wgt id='9041'>0.30799E+02</wgt>
<wgt id='9042'>0.30806E+02</wgt>
<wgt id='9043'>0.30790E+02</wgt>
<wgt id='9044'>0.30823E+02</wgt>
<wgt id='9045'>0.30807E+02</wgt>
<wgt id='9046'>0.30770E+02</wgt>
<wgt id='9047'>0.30796E+02</wgt>
<wgt id='9048'>0.30824E+02</wgt>
<wgt id='9049'>0.30798E+02</wgt>
<wgt id='9050'>0.30821E+02</wgt>
<wgt id='9051'>0.30824E+02</wgt>
<wgt id='9052'>0.30819E+02</wgt>
<wgt id='9053'>0.30818E+02</wgt>
<wgt id='9054'>0.30797E+02</wgt>
<wgt id='9055'>0.30809E+02</wgt>
<wgt id='9056'>0.30844E+02</wgt>
<wgt id='9057'>0.30811E+02</wgt>
<wgt id='9058'>0.30793E+02</wgt>
<wgt id='9059'>0.30800E+02</wgt>
<wgt id='9060'>0.30804E+02</wgt>
<wgt id='9061'>0.30818E+02</wgt>
<wgt id='9062'>0.30819E+02</wgt>
<wgt id='9063'>0.30827E+02</wgt>
<wgt id='9064'>0.30807E+02</wgt>
<wgt id='9065'>0.30813E+02</wgt>
<wgt id='9066'>0.30816E+02</wgt>
<wgt id='9067'>0.30824E+02</wgt>
<wgt id='9068'>0.30823E+02</wgt>
<wgt id='9069'>0.30830E+02</wgt>
<wgt id='9070'>0.30810E+02</wgt>
<wgt id='9071'>0.30830E+02</wgt>
<wgt id='9072'>0.30831E+02</wgt>
<wgt id='9073'>0.30806E+02</wgt>
<wgt id='9074'>0.30818E+02</wgt>
<wgt id='9075'>0.30812E+02</wgt>
<wgt id='9076'>0.30811E+02</wgt>
<wgt id='9077'>0.30817E+02</wgt>
<wgt id='9078'>0.30816E+02</wgt>
<wgt id='9079'>0.30808E+02</wgt>
<wgt id='9080'>0.30833E+02</wgt>
<wgt id='9081'>0.30810E+02</wgt>
<wgt id='9082'>0.30820E+02</wgt>
<wgt id='9083'>0.30804E+02</wgt>
<wgt id='9084'>0.30806E+02</wgt>
<wgt id='9085'>0.30806E+02</wgt>
<wgt id='9086'>0.30817E+02</wgt>
<wgt id='9087'>0.30796E+02</wgt>
<wgt id='9088'>0.30807E+02</wgt>
<wgt id='9089'>0.30807E+02</wgt>
<wgt id='9090'>0.30818E+02</wgt>
<wgt id='9091'>0.30811E+02</wgt>
<wgt id='9092'>0.30813E+02</wgt>
<wgt id='9093'>0.30809E+02</wgt>
<wgt id='9094'>0.30812E+02</wgt>
<wgt id='9095'>0.30817E+02</wgt>
<wgt id='9096'>0.30808E+02</wgt>
<wgt id='9097'>0.30816E+02</wgt>
<wgt id='9098'>0.30813E+02</wgt>
<wgt id='9099'>0.30807E+02</wgt>
<wgt id='9100'>0.30813E+02</wgt>
<wgt id='9101'>0.30360E+02</wgt>
<wgt id='9102'>0.31168E+02</wgt>
<wgt id='10000'>0.32467E+02</wgt>
<wgt id='10001'>0.32609E+02</wgt>
<wgt id='10002'>0.32489E+02</wgt>
<wgt id='10003'>0.32477E+02</wgt>
<wgt id='10004'>0.32610E+02</wgt>
<wgt id='10005'>0.33405E+02</wgt>
<wgt id='10006'>0.32476E+02</wgt>
<wgt id='10007'>0.32461E+02</wgt>
<wgt id='10008'>0.32504E+02</wgt>
<wgt id='10009'>0.32414E+02</wgt>
<wgt id='10010'>0.32471E+02</wgt>
<wgt id='10011'>0.32437E+02</wgt>
<wgt id='10012'>0.32414E+02</wgt>
<wgt id='10013'>0.32456E+02</wgt>
<wgt id='10014'>0.32486E+02</wgt>
<wgt id='10015'>0.32509E+02</wgt>
<wgt id='10016'>0.32488E+02</wgt>
<wgt id='10017'>0.32250E+02</wgt>
<wgt id='10018'>0.32496E+02</wgt>
<wgt id='10019'>0.32408E+02</wgt>
<wgt id='10020'>0.32490E+02</wgt>
<wgt id='10021'>0.32474E+02</wgt>
<wgt id='10022'>0.32459E+02</wgt>
<wgt id='10023'>0.32484E+02</wgt>
<wgt id='10024'>0.32474E+02</wgt>
<wgt id='10025'>0.32449E+02</wgt>
<wgt id='10026'>0.32457E+02</wgt>
<wgt id='10027'>0.32456E+02</wgt>
<wgt id='10028'>0.32509E+02</wgt>
<wgt id='10029'>0.32501E+02</wgt>
<wgt id='10030'>0.32454E+02</wgt>
<wgt id='10031'>0.31862E+02</wgt>
<wgt id='10032'>0.32993E+02</wgt>
<wgt id='11000'>0.30810E+02</wgt>
<wgt id='11001'>0.30850E+02</wgt>
<wgt id='11002'>0.30910E+02</wgt>
<wgt id='11003'>0.30777E+02</wgt>
<wgt id='11004'>0.30903E+02</wgt>
<wgt id='11005'>0.30389E+02</wgt>
<wgt id='11006'>0.30799E+02</wgt>
<wgt id='11007'>0.30747E+02</wgt>
<wgt id='11008'>0.30747E+02</wgt>
<wgt id='11009'>0.30663E+02</wgt>
<wgt id='11010'>0.30905E+02</wgt>
<wgt id='11011'>0.30633E+02</wgt>
<wgt id='11012'>0.30836E+02</wgt>
<wgt id='11013'>0.30933E+02</wgt>
<wgt id='11014'>0.30713E+02</wgt>
<wgt id='11015'>0.30771E+02</wgt>
<wgt id='11016'>0.30780E+02</wgt>
<wgt id='11017'>0.31065E+02</wgt>
<wgt id='11018'>0.30817E+02</wgt>
<wgt id='11019'>0.30805E+02</wgt>
<wgt id='11020'>0.30834E+02</wgt>
<wgt id='11021'>0.30914E+02</wgt>
<wgt id='11022'>0.31414E+02</wgt>
<wgt id='11023'>0.30792E+02</wgt>
<wgt id='11024'>0.30778E+02</wgt>
<wgt id='11025'>0.30723E+02</wgt>
<wgt id='11026'>0.30806E+02</wgt>
<wgt id='11027'>0.30804E+02</wgt>
<wgt id='11028'>0.30790E+02</wgt>
<wgt id='11029'>0.30788E+02</wgt>
<wgt id='11030'>0.30815E+02</wgt>
<wgt id='11031'>0.30360E+02</wgt>
<wgt id='11032'>0.31168E+02</wgt>
<wgt id='12000'>0.34521E+02</wgt>
<wgt id='12001'>0.34475E+02</wgt>
<wgt id='12002'>0.34566E+02</wgt>
<wgt id='12003'>0.34607E+02</wgt>
<wgt id='12004'>0.34434E+02</wgt>
<wgt id='12005'>0.34579E+02</wgt>
<wgt id='12006'>0.34463E+02</wgt>
<wgt id='12007'>0.34610E+02</wgt>
<wgt id='12008'>0.34434E+02</wgt>
<wgt id='12009'>0.34580E+02</wgt>
<wgt id='12010'>0.34462E+02</wgt>
<wgt id='12011'>0.34473E+02</wgt>
<wgt id='12012'>0.34574E+02</wgt>
<wgt id='12013'>0.34383E+02</wgt>
<wgt id='12014'>0.34660E+02</wgt>
<wgt id='12015'>0.34526E+02</wgt>
<wgt id='12016'>0.34468E+02</wgt>
<wgt id='12017'>0.34619E+02</wgt>
<wgt id='12018'>0.34405E+02</wgt>
<wgt id='12019'>0.34393E+02</wgt>
<wgt id='12020'>0.34645E+02</wgt>
<wgt id='12021'>0.34659E+02</wgt>
<wgt id='12022'>0.34341E+02</wgt>
<wgt id='12023'>0.34399E+02</wgt>
<wgt id='12024'>0.34466E+02</wgt>
<wgt id='12025'>0.34631E+02</wgt>
<wgt id='12026'>0.34461E+02</wgt>
<wgt id='12027'>0.34455E+02</wgt>
<wgt id='12028'>0.34615E+02</wgt>
<wgt id='12050'>0.34521E+02</wgt>
<wgt id='12051'>0.34483E+02</wgt>
<wgt id='12052'>0.34550E+02</wgt>
<wgt id='12053'>0.34474E+02</wgt>
<wgt id='12054'>0.34541E+02</wgt>
<wgt id='12055'>0.34617E+02</wgt>
<wgt id='12056'>0.34236E+02</wgt>
<wgt id='12057'>0.34380E+02</wgt>
<wgt id='12058'>0.34649E+02</wgt>
<wgt id='12059'>0.34427E+02</wgt>
<wgt id='12060'>0.34621E+02</wgt>
<wgt id='12061'>0.34524E+02</wgt>
<wgt id='12062'>0.34593E+02</wgt>
<wgt id='12063'>0.34187E+02</wgt>
<wgt id='13000'>0.31095E+02</wgt>
<wgt id='13001'>0.31072E+02</wgt>
<wgt id='13002'>0.31114E+02</wgt>
<wgt id='13003'>0.31135E+02</wgt>
<wgt id='13004'>0.31051E+02</wgt>
<wgt id='13005'>0.31170E+02</wgt>
<wgt id='13006'>0.31016E+02</wgt>
<wgt id='13007'>0.31223E+02</wgt>
<wgt id='13008'>0.30966E+02</wgt>
<wgt id='13009'>0.31106E+02</wgt>
<wgt id='13010'>0.31081E+02</wgt>
<wgt id='13011'>0.31167E+02</wgt>
<wgt id='13012'>0.31018E+02</wgt>
<wgt id='13013'>0.30997E+02</wgt>
<wgt id='13014'>0.31188E+02</wgt>
<wgt id='13015'>0.31043E+02</wgt>
<wgt id='13016'>0.31118E+02</wgt>
<wgt id='13017'>0.31071E+02</wgt>
<wgt id='13018'>0.31107E+02</wgt>
<wgt id='13019'>0.31039E+02</wgt>
<wgt id='13020'>0.31143E+02</wgt>
<wgt id='13021'>0.30826E+02</wgt>
<wgt id='13022'>0.31315E+02</wgt>
<wgt id='13023'>0.31116E+02</wgt>
<wgt id='13024'>0.31066E+02</wgt>
<wgt id='13025'>0.31037E+02</wgt>
<wgt id='13026'>0.31071E+02</wgt>
<wgt id='13027'>0.31116E+02</wgt>
<wgt id='13028'>0.31104E+02</wgt>
<wgt id='13050'>0.31095E+02</wgt>
<wgt id='13051'>0.31096E+02</wgt>
<wgt id='13052'>0.31031E+02</wgt>
<wgt id='13053'>0.31083E+02</wgt>
<wgt id='13054'>0.31084E+02</wgt>
<wgt id='13055'>0.31069E+02</wgt>
<wgt id='13056'>0.31110E+02</wgt>
<wgt id='13057'>0.30982E+02</wgt>
<wgt id='13058'>0.31256E+02</wgt>
<wgt id='13059'>0.31005E+02</wgt>
<wgt id='13060'>0.31210E+02</wgt>
<wgt id='13061'>0.31018E+02</wgt>
<wgt id='13062'>0.31323E+02</wgt>
<wgt id='13063'>0.30881E+02</wgt>
<wgt id='14000'>0.32237E+02</wgt>
<wgt id='14001'>0.32232E+02</wgt>
<wgt id='14002'>0.32227E+02</wgt>
<wgt id='14003'>0.32222E+02</wgt>
<wgt id='14004'>0.32216E+02</wgt>
<wgt id='14005'>0.32211E+02</wgt>
<wgt id='14006'>0.32206E+02</wgt>
<wgt id='14007'>0.32201E+02</wgt>
<wgt id='14008'>0.32195E+02</wgt>
<wgt id='14009'>0.32190E+02</wgt>
<wgt id='14010'>0.32185E+02</wgt>
<wgt id='14011'>0.32180E+02</wgt>
<wgt id='14012'>0.32174E+02</wgt>
<wgt id='14013'>0.32169E+02</wgt>
<wgt id='14014'>0.32164E+02</wgt>
<wgt id='14015'>0.32158E+02</wgt>
<wgt id='14016'>0.32153E+02</wgt>
<wgt id='14017'>0.32148E+02</wgt>
<wgt id='14018'>0.32143E+02</wgt>
<wgt id='14019'>0.32138E+02</wgt>
<wgt id='14020'>0.32132E+02</wgt>
<wgt id='14021'>0.32127E+02</wgt>
<wgt id='14022'>0.32122E+02</wgt>
<wgt id='14023'>0.32117E+02</wgt>
<wgt id='14024'>0.32111E+02</wgt>
<wgt id='14025'>0.32106E+02</wgt>
<wgt id='14026'>0.32101E+02</wgt>
<wgt id='14027'>0.32096E+02</wgt>
<wgt id='14028'>0.32090E+02</wgt>
<wgt id='14029'>0.32085E+02</wgt>
<wgt id='14030'>0.32080E+02</wgt>
<wgt id='15000'>0.30450E+02</wgt>
<wgt id='15001'>0.30508E+02</wgt>
<wgt id='15002'>0.30607E+02</wgt>
<wgt id='15003'>0.30177E+02</wgt>
<wgt id='15004'>0.30393E+02</wgt>
<wgt id='15005'>0.30607E+02</wgt>
<wgt id='15006'>0.30367E+02</wgt>
<wgt id='15007'>0.30469E+02</wgt>
<wgt id='15008'>0.30521E+02</wgt>
<wgt id='15009'>0.30432E+02</wgt>
<wgt id='15010'>0.30410E+02</wgt>
<wgt id='15011'>0.30778E+02</wgt>
<wgt id='15012'>0.30040E+02</wgt>
<wgt id='15013'>0.30047E+02</wgt>
<wgt id='15014'>0.30087E+02</wgt>
<wgt id='15015'>0.30411E+02</wgt>
<wgt id='15016'>0.30555E+02</wgt>
<wgt id='15017'>0.30472E+02</wgt>
<wgt id='15018'>0.30448E+02</wgt>
<wgt id='15019'>0.30422E+02</wgt>
<wgt id='15020'>0.30577E+02</wgt>
<wgt id='15021'>0.30441E+02</wgt>
<wgt id='15022'>0.30487E+02</wgt>
<wgt id='15023'>0.30409E+02</wgt>
<wgt id='15024'>0.30405E+02</wgt>
<wgt id='15025'>0.30490E+02</wgt>
<wgt id='15026'>0.30465E+02</wgt>
<wgt id='15027'>0.30420E+02</wgt>
<wgt id='15028'>0.30475E+02</wgt>
<wgt id='15029'>0.30481E+02</wgt>
<wgt id='15030'>0.30466E+02</wgt>
<wgt id='15031'>0.30446E+02</wgt>
<wgt id='15032'>0.30470E+02</wgt>
<wgt id='15033'>0.30490E+02</wgt>
<wgt id='15034'>0.30430E+02</wgt>
<wgt id='15035'>0.30503E+02</wgt>
<wgt id='15036'>0.30446E+02</wgt>
<wgt id='15037'>0.30481E+02</wgt>
<wgt id='15038'>0.30449E+02</wgt>
<wgt id='15039'>0.30452E+02</wgt>
<wgt id='15040'>0.30413E+02</wgt>
<wgt id='15041'>0.30435E+02</wgt>
<wgt id='15042'>0.30443E+02</wgt>
<wgt id='15043'>0.30428E+02</wgt>
<wgt id='15044'>0.30460E+02</wgt>
<wgt id='15045'>0.30443E+02</wgt>
<wgt id='15046'>0.30408E+02</wgt>
<wgt id='15047'>0.30433E+02</wgt>
<wgt id='15048'>0.30461E+02</wgt>
<wgt id='15049'>0.30435E+02</wgt>
<wgt id='15050'>0.30458E+02</wgt>
<wgt id='15051'>0.30461E+02</wgt>
<wgt id='15052'>0.30456E+02</wgt>
<wgt id='15053'>0.30455E+02</wgt>
<wgt id='15054'>0.30434E+02</wgt>
<wgt id='15055'>0.30446E+02</wgt>
<wgt id='15056'>0.30479E+02</wgt>
<wgt id='15057'>0.30447E+02</wgt>
<wgt id='15058'>0.30430E+02</wgt>
<wgt id='15059'>0.30438E+02</wgt>
<wgt id='15060'>0.30442E+02</wgt>
<wgt id='15061'>0.30455E+02</wgt>
<wgt id='15062'>0.30455E+02</wgt>
<wgt id='15063'>0.30464E+02</wgt>
<wgt id='15064'>0.30444E+02</wgt>
<wgt id='15065'>0.30450E+02</wgt>
<wgt id='15066'>0.30453E+02</wgt>
<wgt id='15067'>0.30460E+02</wgt>
<wgt id='15068'>0.30460E+02</wgt>
<wgt id='15069'>0.30466E+02</wgt>
<wgt id='15070'>0.30447E+02</wgt>
<wgt id='15071'>0.30468E+02</wgt>
<wgt id='15072'>0.30468E+02</wgt>
<wgt id='15073'>0.30442E+02</wgt>
<wgt id='15074'>0.30455E+02</wgt>
<wgt id='15075'>0.30449E+02</wgt>
<wgt id='15076'>0.30448E+02</wgt>
<wgt id='15077'>0.30455E+02</wgt>
<wgt id='15078'>0.30453E+02</wgt>
<wgt id='15079'>0.30445E+02</wgt>
<wgt id='15080'>0.30470E+02</wgt>
<wgt id='15081'>0.30448E+02</wgt>
<wgt id='15082'>0.30457E+02</wgt>
<wgt id='15083'>0.30441E+02</wgt>
<wgt id='15084'>0.30442E+02</wgt>
<wgt id='15085'>0.30443E+02</wgt>
<wgt id='15086'>0.30454E+02</wgt>
<wgt id='15087'>0.30433E+02</wgt>
<wgt id='15088'>0.30444E+02</wgt>
<wgt id='15089'>0.30444E+02</wgt>
<wgt id='15090'>0.30455E+02</wgt>
<wgt id='15091'>0.30448E+02</wgt>
<wgt id='15092'>0.30450E+02</wgt>
<wgt id='15093'>0.30446E+02</wgt>
<wgt id='15094'>0.30448E+02</wgt>
<wgt id='15095'>0.30454E+02</wgt>
<wgt id='15096'>0.30445E+02</wgt>
<wgt id='15097'>0.30452E+02</wgt>
<wgt id='15098'>0.30450E+02</wgt>
<wgt id='15099'>0.30444E+02</wgt>
<wgt id='15100'>0.30450E+02</wgt>
<wgt id='15101'>0.30450E+02</wgt>
<wgt id='15102'>0.30448E+02</wgt>
<wgt id='15103'>0.30451E+02</wgt>
<wgt id='15104'>0.30451E+02</wgt>
<wgt id='15105'>0.30452E+02</wgt>
<wgt id='15106'>0.30451E+02</wgt>
<wgt id='15107'>0.30449E+02</wgt>
<wgt id='1500'>0.32118E+02</wgt>
<wgt id='1501'>0.29281E+02</wgt>
<wgt id='1502'>0.32373E+02</wgt>
<wgt id='1503'>0.31908E+02</wgt>
<wgt id='1504'>0.31724E+02</wgt>
<wgt id='1505'>0.28170E+02</wgt>
<wgt id='1506'>0.32134E+02</wgt>
<wgt id='1507'>0.32667E+02</wgt>
<wgt id='1508'>0.31873E+02</wgt>
<wgt id='1509'>0.32082E+02</wgt>
<wgt id='1510'>0.31270E+02</wgt>
<wgt id='1511'>0.31786E+02</wgt>
<wgt id='1512'>0.32675E+02</wgt>
<wgt id='1513'>0.32661E+02</wgt>
<wgt id='1514'>0.31273E+02</wgt>
<wgt id='1515'>0.32132E+02</wgt>
<wgt id='1516'>0.32719E+02</wgt>
<wgt id='1517'>0.31568E+02</wgt>
<wgt id='1518'>0.31773E+02</wgt>
<wgt id='1519'>0.32407E+02</wgt>
<wgt id='1520'>0.32483E+02</wgt>
<wgt id='1521'>0.32287E+02</wgt>
<wgt id='1522'>0.31960E+02</wgt>
<wgt id='1523'>0.34642E+02</wgt>
<wgt id='1524'>0.31804E+02</wgt>
<wgt id='1525'>0.32625E+02</wgt>
<wgt id='1526'>0.31442E+02</wgt>
<wgt id='1527'>0.31833E+02</wgt>
<wgt id='1528'>0.31919E+02</wgt>
<wgt id='1529'>0.31662E+02</wgt>
<wgt id='1530'>0.32727E+02</wgt>
<wgt id='1531'>0.31990E+02</wgt>
<wgt id='1532'>0.31262E+02</wgt>
<wgt id='1533'>0.32983E+02</wgt>
<wgt id='1534'>0.32375E+02</wgt>
<wgt id='1535'>0.33148E+02</wgt>
<wgt id='1536'>0.33105E+02</wgt>
<wgt id='1537'>0.32441E+02</wgt>
<wgt id='1538'>0.31706E+02</wgt>
<wgt id='1539'>0.30848E+02</wgt>
<wgt id='1540'>0.32623E+02</wgt>
<wgt id='1541'>0.31940E+02</wgt>
<wgt id='1542'>0.32734E+02</wgt>
<wgt id='1543'>0.32522E+02</wgt>
<wgt id='1544'>0.31867E+02</wgt>
<wgt id='1545'>0.32814E+02</wgt>
<wgt id='1546'>0.32289E+02</wgt>
<wgt id='1547'>0.31558E+02</wgt>
<wgt id='1548'>0.31456E+02</wgt>
<wgt id='1549'>0.32499E+02</wgt>
<wgt id='1550'>0.32262E+02</wgt>
<wgt id='1551'>0.32142E+02</wgt>
<wgt id='1552'>0.32078E+02</wgt>
<wgt id='1553'>0.32719E+02</wgt>
<wgt id='1554'>0.32110E+02</wgt>
<wgt id='1555'>0.32233E+02</wgt>
<wgt id='1556'>0.31196E+02</wgt>
<wgt id='1557'>0.33480E+02</wgt>
<wgt id='1558'>0.31878E+02</wgt>
<wgt id='1559'>0.32538E+02</wgt>
<wgt id='1560'>0.32004E+02</wgt>
<wgt id='1561'>0.32503E+02</wgt>
<wgt id='1562'>0.32188E+02</wgt>
<wgt id='1563'>0.32746E+02</wgt>
<wgt id='1564'>0.31758E+02</wgt>
<wgt id='1565'>0.32585E+02</wgt>
<wgt id='1566'>0.32251E+02</wgt>
<wgt id='1567'>0.33638E+02</wgt>
<wgt id='1568'>0.31681E+02</wgt>
<wgt id='1569'>0.31385E+02</wgt>
<wgt id='1570'>0.32253E+02</wgt>
<wgt id='1571'>0.32995E+02</wgt>
<wgt id='1572'>0.31829E+02</wgt>
<wgt id='1573'>0.29647E+02</wgt>
<wgt id='1574'>0.32435E+02</wgt>
<wgt id='1575'>0.31779E+02</wgt>
<wgt id='1576'>0.31274E+02</wgt>
<wgt id='1577'>0.32412E+02</wgt>
<wgt id='1578'>0.33417E+02</wgt>
<wgt id='1579'>0.31967E+02</wgt>
<wgt id='1580'>0.32404E+02</wgt>
<wgt id='1581'>0.32336E+02</wgt>
<wgt id='1582'>0.31760E+02</wgt>
<wgt id='1583'>0.32114E+02</wgt>
<wgt id='1584'>0.32253E+02</wgt>
<wgt id='1585'>0.31192E+02</wgt>
<wgt id='1586'>0.32038E+02</wgt>
<wgt id='1587'>0.32060E+02</wgt>
<wgt id='1588'>0.32186E+02</wgt>
<wgt id='1589'>0.32696E+02</wgt>
<wgt id='1590'>0.32008E+02</wgt>
<wgt id='1591'>0.31080E+02</wgt>
<wgt id='1592'>0.33010E+02</wgt>
<wgt id='1593'>0.31821E+02</wgt>
<wgt id='1594'>0.32959E+02</wgt>
<wgt id='1595'>0.31584E+02</wgt>
<wgt id='1596'>0.32607E+02</wgt>
<wgt id='1597'>0.32307E+02</wgt>
<wgt id='1598'>0.33562E+02</wgt>
<wgt id='1599'>0.33014E+02</wgt>
<wgt id='1600'>0.31908E+02</wgt>
<wgt id='1601'>0.31590E+02</wgt>
<wgt id='1602'>0.32343E+02</wgt>
<wgt id='1700'>0.30932E+02</wgt>
<wgt id='1800'>0.37960E+02</wgt>
<wgt id='1850'>0.45446E+02</wgt>
<wgt id='1900'>0.37069E+02</wgt>
<wgt id='1950'>0.43872E+02</wgt>
</rwgt>
</event>
<event>
      4   9999  3.15120E+01  3.64791E+01 -1.00000E+00  1.45106E-01
      21    -1     0     0   502   501  0.000000000E+00  0.000000000E+00  6.702885296E+01  6.702885296E+01  0.000000000E+00  0.00000E+00  9.000E+00
      21    -1     0     0   512   502  0.000000000E+00  0.000000000E+00 -9.537139650E+02  9.537139650E+02  0.000000000E+00  0.00000E+00  9.000E+00
      25     1     1     2     0     0  4.847353324E+00 -3.615563942E+01  7.659201534E+00  1.256548456E+02  1.199989573E+02  0.00000E+00  9.000E+00
      21     1     1     2   512   501 -4.847353324E+00  3.615563942E+01 -8.943443136E+02  8.950879724E+02  0.000000000E+00  0.00000E+00  9.000E+00
#rwgt            1           1   27.045694260229556                1         790           0
<rwgt>
<wgt id='1001'>0.31512E+02</wgt>
<wgt id='1002'>0.33206E+02</wgt>
<wgt id='1003'>0.29512E+02</wgt>
<wgt id='1004'>0.27610E+02</wgt>
<wgt id='1005'>0.29086E+02</wgt>
<wgt id='1006'>0.25831E+02</wgt>
<wgt id='1007'>0.36113E+02</wgt>
<wgt id='1008'>0.38070E+02</wgt>
<wgt id='1009'>0.33867E+02</wgt>
<wgt id='2000'>0.31512E+02</wgt>
<wgt id='2001'>0.31481E+02</wgt>
<wgt id='2002'>0.31658E+02</wgt>
<wgt id='2003'>0.31650E+02</wgt>
<wgt id='2004'>0.31551E+02</wgt>
<wgt id='2005'>0.31422E+02</wgt>
<wgt id='2006'>0.31411E+02</wgt>
<wgt id='2007'>0.31370E+02</wgt>
<wgt id='2008'>0.31448E+02</wgt>
<wgt id='2009'>0.31548E+02</wgt>
<wgt id='2010'>0.31483E+02</wgt>
<wgt id='2011'>0.31685E+02</wgt>
<wgt id='2012'>0.31706E+02</wgt>
<wgt id='2013'>0.31836E+02</wgt>
<wgt id='2014'>0.31631E+02</wgt>
<wgt id='2015'>0.31579E+02</wgt>
<wgt id='2016'>0.31417E+02</wgt>
<wgt id='2017'>0.31509E+02</wgt>
<wgt id='2018'>0.31643E+02</wgt>
<wgt id='2019'>0.31495E+02</wgt>
<wgt id='2020'>0.31584E+02</wgt>
<wgt id='2021'>0.31474E+02</wgt>
<wgt id='2022'>0.31502E+02</wgt>
<wgt id='2023'>0.31525E+02</wgt>
<wgt id='2024'>0.31534E+02</wgt>
<wgt id='2025'>0.31487E+02</wgt>
<wgt id='2026'>0.31497E+02</wgt>
<wgt id='2027'>0.31504E+02</wgt>
<wgt id='2028'>0.31508E+02</wgt>
<wgt id='2029'>0.31543E+02</wgt>
<wgt id='2030'>0.31521E+02</wgt>
<wgt id='2031'>0.31528E+02</wgt>
<wgt id='2032'>0.31500E+02</wgt>
<wgt id='2033'>0.31514E+02</wgt>
<wgt id='2034'>0.31540E+02</wgt>
<wgt id='2035'>0.31507E+02</wgt>
<wgt id='2036'>0.31527E+02</wgt>
<wgt id='2037'>0.31522E+02</wgt>
<wgt id='2038'>0.31513E+02</wgt>
<wgt id='2039'>0.31496E+02</wgt>
<wgt id='2040'>0.31529E+02</wgt>
<wgt id='2041'>0.31521E+02</wgt>
<wgt id='2042'>0.31501E+02</wgt>
<wgt id='2043'>0.31519E+02</wgt>
<wgt id='2044'>0.31522E+02</wgt>
<wgt id='2045'>0.31515E+02</wgt>
<wgt id='2046'>0.31517E+02</wgt>
<wgt id='2047'>0.31528E+02</wgt>
<wgt id='2048'>0.31512E+02</wgt>
<wgt id='2049'>0.31512E+02</wgt>
<wgt id='2050'>0.31516E+02</wgt>
<wgt id='2051'>0.31525E+02</wgt>
<wgt id='2052'>0.31507E+02</wgt>
<wgt id='2053'>0.31506E+02</wgt>
<wgt id='2054'>0.31507E+02</wgt>
<wgt id='2055'>0.31517E+02</wgt>
<wgt id='2056'>0.31510E+02</wgt>
<wgt id='2057'>0.31509E+02</wgt>
<wgt id='2058'>0.31515E+02</wgt>
<wgt id='2059'>0.31511E+02</wgt>
<wgt id='2060'>0.31511E+02</wgt>
<wgt id='2061'>0.31508E+02</wgt>
<wgt id='2062'>0.31514E+02</wgt>
<wgt id='2063'>0.31509E+02</wgt>
<wgt id='2064'>0.31509E+02</wgt>
<wgt id='2065'>0.31523E+02</wgt>
<wgt id='2066'>0.31512E+02</wgt>
<wgt id='2067'>0.31512E+02</wgt>
<wgt id='2068'>0.31517E+02</wgt>
<wgt id='2069'>0.31511E+02</wgt>
<wgt id='2070'>0.31511E+02</wgt>
<wgt id='2071'>0.31506E+02</wgt>
<wgt id='2072'>0.31515E+02</wgt>
<wgt id='2073'>0.31516E+02</wgt>
<wgt id='2074'>0.31509E+02</wgt>
<wgt id='2075'>0.31509E+02</wgt>
<wgt id='2076'>0.31512E+02</wgt>
<wgt id='2077'>0.31508E+02</wgt>
<wgt id='2078'>0.31506E+02</wgt>
<wgt id='2079'>0.31515E+02</wgt>
<wgt id='2080'>0.31514E+02</wgt>
<wgt id='2081'>0.31513E+02</wgt>
<wgt id='2082'>0.31515E+02</wgt>
<wgt id='2083'>0.31515E+02</wgt>
<wgt id='2084'>0.31511E+02</wgt>
<wgt id='2085'>0.31508E+02</wgt>
<wgt id='2086'>0.31513E+02</wgt>
<wgt id='2087'>0.31512E+02</wgt>
<wgt id='2088'>0.31510E+02</wgt>
<wgt id='2089'>0.31512E+02</wgt>
<wgt id='2090'>0.31514E+02</wgt>
<wgt id='2091'>0.31512E+02</wgt>
<wgt id='2092'>0.31514E+02</wgt>
<wgt id='2093'>0.31512E+02</wgt>
<wgt id='2094'>0.31514E+02</wgt>
<wgt id='2095'>0.31513E+02</wgt>
<wgt id='2096'>0.31511E+02</wgt>
<wgt id='2097'>0.31512E+02</wgt>
<wgt id='2098'>0.31511E+02</wgt>
<wgt id='2099'>0.31512E+02</wgt>
<wgt id='2100'>0.31513E+02</wgt>
<wgt id='2101'>0.30799E+02</wgt>
<wgt id='2102'>0.32110E+02</wgt>
<wgt id='2104'>0.28268E+02</wgt>
<wgt id='2105'>0.28792E+02</wgt>
<wgt id='2106'>0.29436E+02</wgt>
<wgt id='2107'>0.30200E+02</wgt>
<wgt id='2108'>0.31253E+02</wgt>
<wgt id='2109'>0.31906E+02</wgt>
<wgt id='2110'>0.32729E+02</wgt>
<wgt id='2111'>0.33381E+02</wgt>
<wgt id='3000'>0.32807E+02</wgt>
<wgt id='3001'>0.32934E+02</wgt>
<wgt id='3002'>0.32662E+02</wgt>
<wgt id='3003'>0.32945E+02</wgt>
<wgt id='3004'>0.32882E+02</wgt>
<wgt id='3005'>0.32980E+02</wgt>
<wgt id='3006'>0.32863E+02</wgt>
<wgt id='3007'>0.32886E+02</wgt>
<wgt id='3008'>0.32695E+02</wgt>
<wgt id='3009'>0.32767E+02</wgt>
<wgt id='3010'>0.32669E+02</wgt>
<wgt id='3011'>0.32894E+02</wgt>
<wgt id='3012'>0.33071E+02</wgt>
<wgt id='3013'>0.32504E+02</wgt>
<wgt id='3014'>0.32954E+02</wgt>
<wgt id='3015'>0.32957E+02</wgt>
<wgt id='3016'>0.32819E+02</wgt>
<wgt id='3017'>0.32965E+02</wgt>
<wgt id='3018'>0.32833E+02</wgt>
<wgt id='3019'>0.32699E+02</wgt>
<wgt id='3020'>0.32817E+02</wgt>
<wgt id='3021'>0.32747E+02</wgt>
<wgt id='3022'>0.32802E+02</wgt>
<wgt id='3023'>0.32792E+02</wgt>
<wgt id='3024'>0.32837E+02</wgt>
<wgt id='3025'>0.32818E+02</wgt>
<wgt id='3026'>0.32793E+02</wgt>
<wgt id='3027'>0.32822E+02</wgt>
<wgt id='3028'>0.32814E+02</wgt>
<wgt id='3029'>0.32811E+02</wgt>
<wgt id='3030'>0.32837E+02</wgt>
<wgt id='3031'>0.32819E+02</wgt>
<wgt id='3032'>0.32802E+02</wgt>
<wgt id='3033'>0.32820E+02</wgt>
<wgt id='3034'>0.32804E+02</wgt>
<wgt id='3035'>0.32837E+02</wgt>
<wgt id='3036'>0.32817E+02</wgt>
<wgt id='3037'>0.32809E+02</wgt>
<wgt id='3038'>0.32810E+02</wgt>
<wgt id='3039'>0.32788E+02</wgt>
<wgt id='3040'>0.32806E+02</wgt>
<wgt id='3041'>0.32819E+02</wgt>
<wgt id='3042'>0.32798E+02</wgt>
<wgt id='3043'>0.32801E+02</wgt>
<wgt id='3044'>0.32803E+02</wgt>
<wgt id='3045'>0.32818E+02</wgt>
<wgt id='3046'>0.32819E+02</wgt>
<wgt id='3047'>0.32803E+02</wgt>
<wgt id='3048'>0.32814E+02</wgt>
<wgt id='3049'>0.32806E+02</wgt>
<wgt id='3050'>0.32806E+02</wgt>
<wgt id='3051'>0.32822E+02</wgt>
<wgt id='3052'>0.32802E+02</wgt>
<wgt id='3053'>0.32802E+02</wgt>
<wgt id='3054'>0.32802E+02</wgt>
<wgt id='3055'>0.32798E+02</wgt>
<wgt id='3056'>0.32808E+02</wgt>
<wgt id='3057'>0.32797E+02</wgt>
<wgt id='3058'>0.32803E+02</wgt>
<wgt id='3059'>0.32803E+02</wgt>
<wgt id='3060'>0.32808E+02</wgt>
<wgt id='3061'>0.32807E+02</wgt>
<wgt id='3062'>0.32808E+02</wgt>
<wgt id='3063'>0.32816E+02</wgt>
<wgt id='3064'>0.32806E+02</wgt>
<wgt id='3065'>0.32812E+02</wgt>
<wgt id='3066'>0.32809E+02</wgt>
<wgt id='3067'>0.32802E+02</wgt>
<wgt id='3068'>0.32805E+02</wgt>
<wgt id='3069'>0.32801E+02</wgt>
<wgt id='3070'>0.32803E+02</wgt>
<wgt id='3071'>0.32809E+02</wgt>
<wgt id='3072'>0.32813E+02</wgt>
<wgt id='3073'>0.32806E+02</wgt>
<wgt id='3074'>0.32811E+02</wgt>
<wgt id='3075'>0.32810E+02</wgt>
<wgt id='3076'>0.32805E+02</wgt>
<wgt id='3077'>0.32804E+02</wgt>
<wgt id='3078'>0.32811E+02</wgt>
<wgt id='3079'>0.32806E+02</wgt>
<wgt id='3080'>0.32805E+02</wgt>
<wgt id='3081'>0.32807E+02</wgt>
<wgt id='3082'>0.32805E+02</wgt>
<wgt id='3083'>0.32806E+02</wgt>
<wgt id='3084'>0.32805E+02</wgt>
<wgt id='3085'>0.32807E+02</wgt>
<wgt id='3086'>0.32808E+02</wgt>
<wgt id='3087'>0.32804E+02</wgt>
<wgt id='3088'>0.32806E+02</wgt>
<wgt id='3089'>0.32807E+02</wgt>
<wgt id='3090'>0.32808E+02</wgt>
<wgt id='3091'>0.32809E+02</wgt>
<wgt id='3092'>0.32808E+02</wgt>
<wgt id='3093'>0.32805E+02</wgt>
<wgt id='3094'>0.32809E+02</wgt>
<wgt id='3095'>0.32808E+02</wgt>
<wgt id='3096'>0.32808E+02</wgt>
<wgt id='3097'>0.32803E+02</wgt>
<wgt id='3098'>0.32808E+02</wgt>
<wgt id='3099'>0.32808E+02</wgt>
<wgt id='3100'>0.32808E+02</wgt>
<wgt id='3101'>0.32109E+02</wgt>
<wgt id='3102'>0.33629E+02</wgt>
<wgt id='5000'>0.30656E+02</wgt>
<wgt id='5001'>0.30520E+02</wgt>
<wgt id='5002'>0.30605E+02</wgt>
<wgt id='5003'>0.30431E+02</wgt>
<wgt id='5004'>0.30747E+02</wgt>
<wgt id='5005'>0.29926E+02</wgt>
<wgt id='5006'>0.31231E+02</wgt>
<wgt id='5007'>0.30869E+02</wgt>
<wgt id='5008'>0.30225E+02</wgt>
<wgt id='5009'>0.31066E+02</wgt>
<wgt id='5010'>0.30438E+02</wgt>
<wgt id='5011'>0.30593E+02</wgt>
<wgt id='5012'>0.30635E+02</wgt>
<wgt id='5013'>0.29980E+02</wgt>
<wgt id='5014'>0.30620E+02</wgt>
<wgt id='5015'>0.30902E+02</wgt>
<wgt id='5016'>0.29902E+02</wgt>
<wgt id='5017'>0.30761E+02</wgt>
<wgt id='5018'>0.30543E+02</wgt>
<wgt id='5019'>0.30498E+02</wgt>
<wgt id='5020'>0.30779E+02</wgt>
<wgt id='5021'>0.30771E+02</wgt>
<wgt id='5022'>0.30581E+02</wgt>
<wgt id='5023'>0.30590E+02</wgt>
<wgt id='5024'>0.30719E+02</wgt>
<wgt id='5025'>0.30603E+02</wgt>
<wgt id='5026'>0.30698E+02</wgt>
<wgt id='5027'>0.30994E+02</wgt>
<wgt id='5028'>0.30088E+02</wgt>
<wgt id='5029'>0.30050E+02</wgt>
<wgt id='5030'>0.31019E+02</wgt>
<wgt id='5031'>0.30293E+02</wgt>
<wgt id='5032'>0.31179E+02</wgt>
<wgt id='5033'>0.30394E+02</wgt>
<wgt id='5034'>0.30881E+02</wgt>
<wgt id='5035'>0.30132E+02</wgt>
<wgt id='5036'>0.31079E+02</wgt>
<wgt id='5037'>0.30669E+02</wgt>
<wgt id='5038'>0.30624E+02</wgt>
<wgt id='5039'>0.31171E+02</wgt>
<wgt id='5040'>0.30392E+02</wgt>
<wgt id='5041'>0.30268E+02</wgt>
<wgt id='5042'>0.30729E+02</wgt>
<wgt id='5043'>0.31007E+02</wgt>
<wgt id='5044'>0.29774E+02</wgt>
<wgt id='5045'>0.31611E+02</wgt>
<wgt id='5046'>0.30398E+02</wgt>
<wgt id='5047'>0.30869E+02</wgt>
<wgt id='5048'>0.30812E+02</wgt>
<wgt id='5049'>0.30682E+02</wgt>
<wgt id='5050'>0.30717E+02</wgt>
<wgt id='5051'>0.30756E+02</wgt>
<wgt id='5052'>0.30623E+02</wgt>
<wgt id='5053'>0.30403E+02</wgt>
<wgt id='5054'>0.31489E+02</wgt>
<wgt id='5055'>0.30459E+02</wgt>
<wgt id='5056'>0.30811E+02</wgt>
<wgt id='5060'>0.30066E+02</wgt>
<wgt id='5070'>0.31130E+02</wgt>
<wgt id='4000'>0.32351E+02</wgt>
<wgt id='4001'>0.32388E+02</wgt>
<wgt id='4002'>0.32462E+02</wgt>
<wgt id='4003'>0.33224E+02</wgt>
<wgt id='4004'>0.31977E+02</wgt>
<wgt id='4005'>0.32487E+02</wgt>
<wgt id='4006'>0.32240E+02</wgt>
<wgt id='4007'>0.32753E+02</wgt>
<wgt id='4008'>0.32181E+02</wgt>
<wgt id='4009'>0.31599E+02</wgt>
<wgt id='4010'>0.32966E+02</wgt>
<wgt id='4011'>0.32856E+02</wgt>
<wgt id='4012'>0.32066E+02</wgt>
<wgt id='4013'>0.31052E+02</wgt>
<wgt id='4014'>0.33104E+02</wgt>
<wgt id='4015'>0.32613E+02</wgt>
<wgt id='4016'>0.32177E+02</wgt>
<wgt id='4017'>0.32060E+02</wgt>
<wgt id='4018'>0.32698E+02</wgt>
<wgt id='4019'>0.32779E+02</wgt>
<wgt id='4020'>0.31868E+02</wgt>
<wgt id='4021'>0.32434E+02</wgt>
<wgt id='4022'>0.32168E+02</wgt>
<wgt id='4023'>0.32173E+02</wgt>
<wgt id='4024'>0.32509E+02</wgt>
<wgt id='4025'>0.31814E+02</wgt>
<wgt id='4026'>0.32844E+02</wgt>
<wgt id='4027'>0.32229E+02</wgt>
<wgt id='4028'>0.32515E+02</wgt>
<wgt id='4029'>0.32095E+02</wgt>
<wgt id='4030'>0.32439E+02</wgt>
<wgt id='4031'>0.32396E+02</wgt>
<wgt id='4032'>0.32291E+02</wgt>
<wgt id='4033'>0.32345E+02</wgt>
<wgt id='4034'>0.32355E+02</wgt>
<wgt id='4035'>0.32889E+02</wgt>
<wgt id='4036'>0.31832E+02</wgt>
<wgt id='4037'>0.32644E+02</wgt>
<wgt id='4038'>0.31861E+02</wgt>
<wgt id='4039'>0.32334E+02</wgt>
<wgt id='4040'>0.32297E+02</wgt>
<wgt id='4041'>0.32650E+02</wgt>
<wgt id='4042'>0.32070E+02</wgt>
<wgt id='4043'>0.32659E+02</wgt>
<wgt id='4044'>0.31977E+02</wgt>
<wgt id='4045'>0.31981E+02</wgt>
<wgt id='4046'>0.32162E+02</wgt>
<wgt id='4047'>0.31874E+02</wgt>
<wgt id='4048'>0.32793E+02</wgt>
<wgt id='4049'>0.32579E+02</wgt>
<wgt id='4050'>0.31634E+02</wgt>
<wgt id='4051'>0.32279E+02</wgt>
<wgt id='4052'>0.32255E+02</wgt>
<wgt id='4053'>0.31484E+02</wgt>
<wgt id='4054'>0.32592E+02</wgt>
<wgt id='4055'>0.32082E+02</wgt>
<wgt id='4056'>0.32584E+02</wgt>
<wgt id='4060'>0.31597E+02</wgt>
<wgt id='4070'>0.33019E+02</wgt>
<wgt id='4080'>0.31803E+02</wgt>
<wgt id='6000'>0.32923E+02</wgt>
<wgt id='6001'>0.32930E+02</wgt>
<wgt id='6002'>0.32915E+02</wgt>
<wgt id='6003'>0.32935E+02</wgt>
<wgt id='6004'>0.32914E+02</wgt>
<wgt id='6005'>0.33017E+02</wgt>
<wgt id='6006'>0.32835E+02</wgt>
<wgt id='6007'>0.32775E+02</wgt>
<wgt id='6008'>0.33087E+02</wgt>
<wgt id='6009'>0.33019E+02</wgt>
<wgt id='6010'>0.32828E+02</wgt>
<wgt id='6011'>0.32992E+02</wgt>
<wgt id='6012'>0.32772E+02</wgt>
<wgt id='6013'>0.32889E+02</wgt>
<wgt id='6014'>0.32983E+02</wgt>
<wgt id='6015'>0.32815E+02</wgt>
<wgt id='6016'>0.32983E+02</wgt>
<wgt id='6017'>0.32741E+02</wgt>
<wgt id='6018'>0.33136E+02</wgt>
<wgt id='6019'>0.32982E+02</wgt>
<wgt id='6020'>0.32871E+02</wgt>
<wgt id='6021'>0.32849E+02</wgt>
<wgt id='6022'>0.33022E+02</wgt>
<wgt id='6023'>0.32692E+02</wgt>
<wgt id='6024'>0.33085E+02</wgt>
<wgt id='6025'>0.32487E+02</wgt>
<wgt id='6026'>0.33318E+02</wgt>
<wgt id='6027'>0.33008E+02</wgt>
<wgt id='6028'>0.32924E+02</wgt>
<wgt id='6029'>0.33143E+02</wgt>
<wgt id='6030'>0.32667E+02</wgt>
<wgt id='6031'>0.32977E+02</wgt>
<wgt id='6032'>0.32851E+02</wgt>
<wgt id='6033'>0.32983E+02</wgt>
<wgt id='6034'>0.32859E+02</wgt>
<wgt id='6035'>0.32896E+02</wgt>
<wgt id='6036'>0.33046E+02</wgt>
<wgt id='6037'>0.32985E+02</wgt>
<wgt id='6038'>0.32914E+02</wgt>
<wgt id='6039'>0.32897E+02</wgt>
<wgt id='6040'>0.32950E+02</wgt>
<wgt id='6041'>0.32858E+02</wgt>
<wgt id='6042'>0.33001E+02</wgt>
<wgt id='6043'>0.33339E+02</wgt>
<wgt id='6044'>0.32710E+02</wgt>
<wgt id='6045'>0.32895E+02</wgt>
<wgt id='6046'>0.32995E+02</wgt>
<wgt id='6047'>0.32787E+02</wgt>
<wgt id='6048'>0.32785E+02</wgt>
<wgt id='6049'>0.32860E+02</wgt>
<wgt id='6050'>0.32932E+02</wgt>
<wgt id='7000'>0.30889E+02</wgt>
<wgt id='7001'>0.30872E+02</wgt>
<wgt id='7002'>0.30912E+02</wgt>
<wgt id='7003'>0.30988E+02</wgt>
<wgt id='7004'>0.30792E+02</wgt>
<wgt id='7005'>0.30948E+02</wgt>
<wgt id='7006'>0.30866E+02</wgt>
<wgt id='7007'>0.30762E+02</wgt>
<wgt id='7008'>0.31017E+02</wgt>
<wgt id='7009'>0.30939E+02</wgt>
<wgt id='7010'>0.30842E+02</wgt>
<wgt id='7011'>0.30601E+02</wgt>
<wgt id='7012'>0.31015E+02</wgt>
<wgt id='7013'>0.30892E+02</wgt>
<wgt id='7014'>0.30886E+02</wgt>
<wgt id='7015'>0.30803E+02</wgt>
<wgt id='7016'>0.30983E+02</wgt>
<wgt id='7017'>0.30834E+02</wgt>
<wgt id='7018'>0.30917E+02</wgt>
<wgt id='7019'>0.30846E+02</wgt>
<wgt id='7020'>0.30947E+02</wgt>
<wgt id='7021'>0.30879E+02</wgt>
<wgt id='7022'>0.30896E+02</wgt>
<wgt id='7023'>0.31258E+02</wgt>
<wgt id='7024'>0.30534E+02</wgt>
<wgt id='7025'>0.31032E+02</wgt>
<wgt id='7026'>0.30541E+02</wgt>
<wgt id='7027'>0.31028E+02</wgt>
<wgt id='7028'>0.30823E+02</wgt>
<wgt id='7029'>0.30735E+02</wgt>
<wgt id='7030'>0.31298E+02</wgt>
<wgt id='7031'>0.30892E+02</wgt>
<wgt id='7032'>0.30893E+02</wgt>
<wgt id='7033'>0.30842E+02</wgt>
<wgt id='7034'>0.30996E+02</wgt>
<wgt id='7035'>0.30981E+02</wgt>
<wgt id='7036'>0.30863E+02</wgt>
<wgt id='7037'>0.30904E+02</wgt>
<wgt id='7038'>0.30890E+02</wgt>
<wgt id='7039'>0.30865E+02</wgt>
<wgt id='7040'>0.30905E+02</wgt>
<wgt id='7041'>0.30830E+02</wgt>
<wgt id='7042'>0.30920E+02</wgt>
<wgt id='7043'>0.30917E+02</wgt>
<wgt id='7044'>0.30730E+02</wgt>
<wgt id='7045'>0.30648E+02</wgt>
<wgt id='7046'>0.30925E+02</wgt>
<wgt id='7047'>0.30889E+02</wgt>
<wgt id='7048'>0.30875E+02</wgt>
<wgt id='7049'>0.30874E+02</wgt>
<wgt id='7050'>0.30790E+02</wgt>
<wgt id='7060'>0.46600E+02</wgt>
<wgt id='8000'>0.31265E+02</wgt>
<wgt id='8001'>0.31257E+02</wgt>
<wgt id='8002'>0.31274E+02</wgt>
<wgt id='8003'>0.31269E+02</wgt>
<wgt id='8004'>0.31264E+02</wgt>
<wgt id='8005'>0.31190E+02</wgt>
<wgt id='8006'>0.31243E+02</wgt>
<wgt id='8007'>0.31220E+02</wgt>
<wgt id='8008'>0.31320E+02</wgt>
<wgt id='8009'>0.31379E+02</wgt>
<wgt id='8010'>0.31267E+02</wgt>
<wgt id='8011'>0.31247E+02</wgt>
<wgt id='8012'>0.31233E+02</wgt>
<wgt id='8013'>0.31263E+02</wgt>
<wgt id='8014'>0.31242E+02</wgt>
<wgt id='8015'>0.31242E+02</wgt>
<wgt id='8016'>0.31272E+02</wgt>
<wgt id='8017'>0.31267E+02</wgt>
<wgt id='8018'>0.31256E+02</wgt>
<wgt id='8019'>0.31324E+02</wgt>
<wgt id='8020'>0.31153E+02</wgt>
<wgt id='8021'>0.31271E+02</wgt>
<wgt id='8022'>0.31060E+02</wgt>
<wgt id='8023'>0.31308E+02</wgt>
<wgt id='8024'>0.31347E+02</wgt>
<wgt id='8025'>0.31386E+02</wgt>
<wgt id='8026'>0.31332E+02</wgt>
<wgt id='8027'>0.31205E+02</wgt>
<wgt id='8028'>0.31296E+02</wgt>
<wgt id='8029'>0.31049E+02</wgt>
<wgt id='8500'>0.32459E+02</wgt>
<wgt id='8501'>0.32398E+02</wgt>
<wgt id='8502'>0.32796E+02</wgt>
<wgt id='8503'>0.32695E+02</wgt>
<wgt id='8504'>0.32378E+02</wgt>
<wgt id='8505'>0.32293E+02</wgt>
<wgt id='8506'>0.32353E+02</wgt>
<wgt id='8507'>0.32682E+02</wgt>
<wgt id='8508'>0.32997E+02</wgt>
<wgt id='8509'>0.32220E+02</wgt>
<wgt id='8510'>0.32941E+02</wgt>
<wgt id='8511'>0.32480E+02</wgt>
<wgt id='8512'>0.32066E+02</wgt>
<wgt id='8513'>0.32509E+02</wgt>
<wgt id='8514'>0.32352E+02</wgt>
<wgt id='8515'>0.32456E+02</wgt>
<wgt id='8516'>0.32565E+02</wgt>
<wgt id='8517'>0.32422E+02</wgt>
<wgt id='8518'>0.32370E+02</wgt>
<wgt id='8519'>0.32360E+02</wgt>
<wgt id='8520'>0.32485E+02</wgt>
<wgt id='8521'>0.32336E+02</wgt>
<wgt id='8522'>0.32472E+02</wgt>
<wgt id='8523'>0.32405E+02</wgt>
<wgt id='8524'>0.32460E+02</wgt>
<wgt id='8525'>0.32430E+02</wgt>
<wgt id='8526'>0.32404E+02</wgt>
<wgt id='8527'>0.32451E+02</wgt>
<wgt id='8528'>0.32377E+02</wgt>
<wgt id='8529'>0.32438E+02</wgt>
<wgt id='8530'>0.32463E+02</wgt>
<wgt id='8531'>0.32447E+02</wgt>
<wgt id='8532'>0.32466E+02</wgt>
<wgt id='8533'>0.32395E+02</wgt>
<wgt id='8534'>0.32474E+02</wgt>
<wgt id='8535'>0.32531E+02</wgt>
<wgt id='8536'>0.32437E+02</wgt>
<wgt id='8537'>0.32472E+02</wgt>
<wgt id='8538'>0.32425E+02</wgt>
<wgt id='8539'>0.32464E+02</wgt>
<wgt id='8540'>0.32466E+02</wgt>
<wgt id='8541'>0.32473E+02</wgt>
<wgt id='8542'>0.32483E+02</wgt>
<wgt id='8543'>0.32432E+02</wgt>
<wgt id='8544'>0.32492E+02</wgt>
<wgt id='8545'>0.32487E+02</wgt>
<wgt id='8546'>0.32488E+02</wgt>
<wgt id='8547'>0.32435E+02</wgt>
<wgt id='8548'>0.32427E+02</wgt>
<wgt id='8549'>0.32460E+02</wgt>
<wgt id='8550'>0.32467E+02</wgt>
<wgt id='8551'>0.32428E+02</wgt>
<wgt id='8552'>0.32467E+02</wgt>
<wgt id='8553'>0.32447E+02</wgt>
<wgt id='8554'>0.32445E+02</wgt>
<wgt id='8555'>0.32463E+02</wgt>
<wgt id='8556'>0.32458E+02</wgt>
<wgt id='8557'>0.32451E+02</wgt>
<wgt id='8558'>0.32492E+02</wgt>
<wgt id='8559'>0.32443E+02</wgt>
<wgt id='8560'>0.32426E+02</wgt>
<wgt id='8561'>0.32454E+02</wgt>
<wgt id='8562'>0.32435E+02</wgt>
<wgt id='8563'>0.32460E+02</wgt>
<wgt id='8564'>0.32454E+02</wgt>
<wgt id='8565'>0.32457E+02</wgt>
<wgt id='8566'>0.32453E+02</wgt>
<wgt id='8567'>0.32458E+02</wgt>
<wgt id='8568'>0.32470E+02</wgt>
<wgt id='8569'>0.32467E+02</wgt>
<wgt id='8570'>0.32456E+02</wgt>
<wgt id='8571'>0.32448E+02</wgt>
<wgt id='8572'>0.32451E+02</wgt>
<wgt id='8573'>0.32446E+02</wgt>
<wgt id='8574'>0.32467E+02</wgt>
<wgt id='8575'>0.32456E+02</wgt>
<wgt id='8576'>0.32457E+02</wgt>
<wgt id='8577'>0.32457E+02</wgt>
<wgt id='8578'>0.32463E+02</wgt>
<wgt id='8579'>0.32477E+02</wgt>
<wgt id='8580'>0.32459E+02</wgt>
<wgt id='8581'>0.32463E+02</wgt>
<wgt id='8582'>0.32441E+02</wgt>
<wgt id='8583'>0.32472E+02</wgt>
<wgt id='8584'>0.32466E+02</wgt>
<wgt id='8585'>0.32464E+02</wgt>
<wgt id='8586'>0.32473E+02</wgt>
<wgt id='8587'>0.32455E+02</wgt>
<wgt id='8588'>0.32452E+02</wgt>
<wgt id='8589'>0.32461E+02</wgt>
<wgt id='8590'>0.32456E+02</wgt>
<wgt id='8591'>0.32455E+02</wgt>
<wgt id='8592'>0.32458E+02</wgt>
<wgt id='8593'>0.32448E+02</wgt>
<wgt id='8594'>0.32463E+02</wgt>
<wgt id='8595'>0.32462E+02</wgt>
<wgt id='8596'>0.32451E+02</wgt>
<wgt id='8597'>0.32464E+02</wgt>
<wgt id='8598'>0.32466E+02</wgt>
<wgt id='8599'>0.32464E+02</wgt>
<wgt id='8600'>0.32459E+02</wgt>
<wgt id='8601'>0.31908E+02</wgt>
<wgt id='8602'>0.32919E+02</wgt>
<wgt id='9000'>0.30838E+02</wgt>
<wgt id='9001'>0.30899E+02</wgt>
<wgt id='9002'>0.31001E+02</wgt>
<wgt id='9003'>0.30551E+02</wgt>
<wgt id='9004'>0.30777E+02</wgt>
<wgt id='9005'>0.31006E+02</wgt>
<wgt id='9006'>0.30748E+02</wgt>
<wgt id='9007'>0.30850E+02</wgt>
<wgt id='9008'>0.30910E+02</wgt>
<wgt id='9009'>0.30821E+02</wgt>
<wgt id='9010'>0.30801E+02</wgt>
<wgt id='9011'>0.31174E+02</wgt>
<wgt id='9012'>0.30406E+02</wgt>
<wgt id='9013'>0.30425E+02</wgt>
<wgt id='9014'>0.30454E+02</wgt>
<wgt id='9015'>0.30789E+02</wgt>
<wgt id='9016'>0.30929E+02</wgt>
<wgt id='9017'>0.30864E+02</wgt>
<wgt id='9018'>0.30845E+02</wgt>
<wgt id='9019'>0.30815E+02</wgt>
<wgt id='9020'>0.30968E+02</wgt>
<wgt id='9021'>0.30838E+02</wgt>
<wgt id='9022'>0.30873E+02</wgt>
<wgt id='9023'>0.30797E+02</wgt>
<wgt id='9024'>0.30790E+02</wgt>
<wgt id='9025'>0.30877E+02</wgt>
<wgt id='9026'>0.30853E+02</wgt>
<wgt id='9027'>0.30816E+02</wgt>
<wgt id='9028'>0.30863E+02</wgt>
<wgt id='9029'>0.30867E+02</wgt>
<wgt id='9030'>0.30857E+02</wgt>
<wgt id='9031'>0.30835E+02</wgt>
<wgt id='9032'>0.30856E+02</wgt>
<wgt id='9033'>0.30877E+02</wgt>
<wgt id='9034'>0.30817E+02</wgt>
<wgt id='9035'>0.30890E+02</wgt>
<wgt id='9036'>0.30834E+02</wgt>
<wgt id='9037'>0.30869E+02</wgt>
<wgt id='9038'>0.30836E+02</wgt>
<wgt id='9039'>0.30838E+02</wgt>
<wgt id='9040'>0.30801E+02</wgt>
<wgt id='9041'>0.30821E+02</wgt>
<wgt id='9042'>0.30829E+02</wgt>
<wgt id='9043'>0.30817E+02</wgt>
<wgt id='9044'>0.30847E+02</wgt>
<wgt id='9045'>0.30830E+02</wgt>
<wgt id='9046'>0.30796E+02</wgt>
<wgt id='9047'>0.30819E+02</wgt>
<wgt id='9048'>0.30849E+02</wgt>
<wgt id='9049'>0.30822E+02</wgt>
<wgt id='9050'>0.30846E+02</wgt>
<wgt id='9051'>0.30848E+02</wgt>
<wgt id='9052'>0.30843E+02</wgt>
<wgt id='9053'>0.30843E+02</wgt>
<wgt id='9054'>0.30822E+02</wgt>
<wgt id='9055'>0.30834E+02</wgt>
<wgt id='9056'>0.30867E+02</wgt>
<wgt id='9057'>0.30835E+02</wgt>
<wgt id='9058'>0.30819E+02</wgt>
<wgt id='9059'>0.30826E+02</wgt>
<wgt id='9060'>0.30829E+02</wgt>
<wgt id='9061'>0.30843E+02</wgt>
<wgt id='9062'>0.30843E+02</wgt>
<wgt id='9063'>0.30851E+02</wgt>
<wgt id='9064'>0.30831E+02</wgt>
<wgt id='9065'>0.30837E+02</wgt>
<wgt id='9066'>0.30841E+02</wgt>
<wgt id='9067'>0.30848E+02</wgt>
<wgt id='9068'>0.30848E+02</wgt>
<wgt id='9069'>0.30854E+02</wgt>
<wgt id='9070'>0.30835E+02</wgt>
<wgt id='9071'>0.30856E+02</wgt>
<wgt id='9072'>0.30856E+02</wgt>
<wgt id='9073'>0.30829E+02</wgt>
<wgt id='9074'>0.30842E+02</wgt>
<wgt id='9075'>0.30836E+02</wgt>
<wgt id='9076'>0.30836E+02</wgt>
<wgt id='9077'>0.30842E+02</wgt>
<wgt id='9078'>0.30841E+02</wgt>
<wgt id='9079'>0.30833E+02</wgt>
<wgt id='9080'>0.30857E+02</wgt>
<wgt id='9081'>0.30836E+02</wgt>
<wgt id='9082'>0.30845E+02</wgt>
<wgt id='9083'>0.30828E+02</wgt>
<wgt id='9084'>0.30830E+02</wgt>
<wgt id='9085'>0.30831E+02</wgt>
<wgt id='9086'>0.30842E+02</wgt>
<wgt id='9087'>0.30820E+02</wgt>
<wgt id='9088'>0.30831E+02</wgt>
<wgt id='9089'>0.30831E+02</wgt>
<wgt id='9090'>0.30843E+02</wgt>
<wgt id='9091'>0.30835E+02</wgt>
<wgt id='9092'>0.30837E+02</wgt>
<wgt id='9093'>0.30833E+02</wgt>
<wgt id='9094'>0.30836E+02</wgt>
<wgt id='9095'>0.30842E+02</wgt>
<wgt id='9096'>0.30832E+02</wgt>
<wgt id='9097'>0.30840E+02</wgt>
<wgt id='9098'>0.30838E+02</wgt>
<wgt id='9099'>0.30832E+02</wgt>
<wgt id='9100'>0.30837E+02</wgt>
<wgt id='9101'>0.30440E+02</wgt>
<wgt id='9102'>0.31131E+02</wgt>
<wgt id='10000'>0.32459E+02</wgt>
<wgt id='10001'>0.32605E+02</wgt>
<wgt id='10002'>0.32486E+02</wgt>
<wgt id='10003'>0.32471E+02</wgt>
<wgt id='10004'>0.32612E+02</wgt>
<wgt id='10005'>0.33424E+02</wgt>
<wgt id='10006'>0.32472E+02</wgt>
<wgt id='10007'>0.32454E+02</wgt>
<wgt id='10008'>0.32503E+02</wgt>
<wgt id='10009'>0.32407E+02</wgt>
<wgt id='10010'>0.32462E+02</wgt>
<wgt id='10011'>0.32429E+02</wgt>
<wgt id='10012'>0.32407E+02</wgt>
<wgt id='10013'>0.32447E+02</wgt>
<wgt id='10014'>0.32481E+02</wgt>
<wgt id='10015'>0.32501E+02</wgt>
<wgt id='10016'>0.32482E+02</wgt>
<wgt id='10017'>0.32242E+02</wgt>
<wgt id='10018'>0.32489E+02</wgt>
<wgt id='10019'>0.32397E+02</wgt>
<wgt id='10020'>0.32483E+02</wgt>
<wgt id='10021'>0.32467E+02</wgt>
<wgt id='10022'>0.32452E+02</wgt>
<wgt id='10023'>0.32480E+02</wgt>
<wgt id='10024'>0.32469E+02</wgt>
<wgt id='10025'>0.32439E+02</wgt>
<wgt id='10026'>0.32445E+02</wgt>
<wgt id='10027'>0.32443E+02</wgt>
<wgt id='10028'>0.32489E+02</wgt>
<wgt id='10029'>0.32493E+02</wgt>
<wgt id='10030'>0.32445E+02</wgt>
<wgt id='10031'>0.31908E+02</wgt>
<wgt id='10032'>0.32919E+02</wgt>
<wgt id='11000'>0.30838E+02</wgt>
<wgt id='11001'>0.30890E+02</wgt>
<wgt id='11002'>0.30937E+02</wgt>
<wgt id='11003'>0.30805E+02</wgt>
<wgt id='11004'>0.30931E+02</wgt>
<wgt id='11005'>0.30409E+02</wgt>
<wgt id='11006'>0.30824E+02</wgt>
<wgt id='11007'>0.30776E+02</wgt>
<wgt id='11008'>0.30778E+02</wgt>
<wgt id='11009'>0.30687E+02</wgt>
<wgt id='11010'>0.30925E+02</wgt>
<wgt id='11011'>0.30653E+02</wgt>
<wgt id='11012'>0.30863E+02</wgt>
<wgt id='11013'>0.30966E+02</wgt>
<wgt id='11014'>0.30737E+02</wgt>
<wgt id='11015'>0.30797E+02</wgt>
<wgt id='11016'>0.30810E+02</wgt>
<wgt id='11017'>0.31098E+02</wgt>
<wgt id='11018'>0.30847E+02</wgt>
<wgt id='11019'>0.30835E+02</wgt>
<wgt id='11020'>0.30858E+02</wgt>
<wgt id='11021'>0.30947E+02</wgt>
<wgt id='11022'>0.31453E+02</wgt>
<wgt id='11023'>0.30818E+02</wgt>
<wgt id='11024'>0.30802E+02</wgt>
<wgt id='11025'>0.30745E+02</wgt>
<wgt id='11026'>0.30832E+02</wgt>
<wgt id='11027'>0.30833E+02</wgt>
<wgt id='11028'>0.30814E+02</wgt>
<wgt id='11029'>0.30813E+02</wgt>
<wgt id='11030'>0.30844E+02</wgt>
<wgt id='11031'>0.30440E+02</wgt>
<wgt id='11032'>0.31131E+02</wgt>
<wgt id='12000'>0.34534E+02</wgt>
<wgt id='12001'>0.34488E+02</wgt>
<wgt id='12002'>0.34581E+02</wgt>
<wgt id='12003'>0.34621E+02</wgt>
<wgt id='12004'>0.34447E+02</wgt>
<wgt id='12005'>0.34593E+02</wgt>
<wgt id='12006'>0.34476E+02</wgt>
<wgt id='12007'>0.34626E+02</wgt>
<wgt id='12008'>0.34445E+02</wgt>
<wgt id='12009'>0.34594E+02</wgt>
<wgt id='12010'>0.34475E+02</wgt>
<wgt id='12011'>0.34489E+02</wgt>
<wgt id='12012'>0.34585E+02</wgt>
<wgt id='12013'>0.34395E+02</wgt>
<wgt id='12014'>0.34676E+02</wgt>
<wgt id='12015'>0.34541E+02</wgt>
<wgt id='12016'>0.34478E+02</wgt>
<wgt id='12017'>0.34632E+02</wgt>
<wgt id='12018'>0.34420E+02</wgt>
<wgt id='12019'>0.34403E+02</wgt>
<wgt id='12020'>0.34662E+02</wgt>
<wgt id='12021'>0.34677E+02</wgt>
<wgt id='12022'>0.34351E+02</wgt>
<wgt id='12023'>0.34415E+02</wgt>
<wgt id='12024'>0.34476E+02</wgt>
<wgt id='12025'>0.34650E+02</wgt>
<wgt id='12026'>0.34469E+02</wgt>
<wgt id='12027'>0.34459E+02</wgt>
<wgt id='12028'>0.34639E+02</wgt>
<wgt id='12050'>0.34534E+02</wgt>
<wgt id='12051'>0.34497E+02</wgt>
<wgt id='12052'>0.34563E+02</wgt>
<wgt id='12053'>0.34488E+02</wgt>
<wgt id='12054'>0.34554E+02</wgt>
<wgt id='12055'>0.34628E+02</wgt>
<wgt id='12056'>0.34235E+02</wgt>
<wgt id='12057'>0.34390E+02</wgt>
<wgt id='12058'>0.34665E+02</wgt>
<wgt id='12059'>0.34438E+02</wgt>
<wgt id='12060'>0.34637E+02</wgt>
<wgt id='12061'>0.34541E+02</wgt>
<wgt id='12062'>0.34606E+02</wgt>
<wgt id='12063'>0.34200E+02</wgt>
<wgt id='13000'>0.31101E+02</wgt>
<wgt id='13001'>0.31078E+02</wgt>
<wgt id='13002'>0.31121E+02</wgt>
<wgt id='13003'>0.31142E+02</wgt>
<wgt id='13004'>0.31057E+02</wgt>
<wgt id='13005'>0.31177E+02</wgt>
<wgt id='13006'>0.31022E+02</wgt>
<wgt id='13007'>0.31232E+02</wgt>
<wgt id='13008'>0.30970E+02</wgt>
<wgt id='13009'>0.31114E+02</wgt>
<wgt id='13010'>0.31087E+02</wgt>
<wgt id='13011'>0.31174E+02</wgt>
<wgt id='13012'>0.31025E+02</wgt>
<wgt id='13013'>0.31003E+02</wgt>
<wgt id='13014'>0.31196E+02</wgt>
<wgt id='13015'>0.31048E+02</wgt>
<wgt id='13016'>0.31125E+02</wgt>
<wgt id='13017'>0.31078E+02</wgt>
<wgt id='13018'>0.31114E+02</wgt>
<wgt id='13019'>0.31045E+02</wgt>
<wgt id='13020'>0.31151E+02</wgt>
<wgt id='13021'>0.30825E+02</wgt>
<wgt id='13022'>0.31328E+02</wgt>
<wgt id='13023'>0.31125E+02</wgt>
<wgt id='13024'>0.31069E+02</wgt>
<wgt id='13025'>0.31047E+02</wgt>
<wgt id='13026'>0.31074E+02</wgt>
<wgt id='13027'>0.31124E+02</wgt>
<wgt id='13028'>0.31109E+02</wgt>
<wgt id='13050'>0.31101E+02</wgt>
<wgt id='13051'>0.31103E+02</wgt>
<wgt id='13052'>0.31037E+02</wgt>
<wgt id='13053'>0.31091E+02</wgt>
<wgt id='13054'>0.31090E+02</wgt>
<wgt id='13055'>0.31080E+02</wgt>
<wgt id='13056'>0.31114E+02</wgt>
<wgt id='13057'>0.30987E+02</wgt>
<wgt id='13058'>0.31265E+02</wgt>
<wgt id='13059'>0.31011E+02</wgt>
<wgt id='13060'>0.31226E+02</wgt>
<wgt id='13061'>0.31025E+02</wgt>
<wgt id='13062'>0.31332E+02</wgt>
<wgt id='13063'>0.30880E+02</wgt>
<wgt id='14000'>0.32236E+02</wgt>
<wgt id='14001'>0.32231E+02</wgt>
<wgt id='14002'>0.32226E+02</wgt>
<wgt id='14003'>0.32221E+02</wgt>
<wgt id='14004'>0.32216E+02</wgt>
<wgt id='14005'>0.32210E+02</wgt>
<wgt id='14006'>0.32205E+02</wgt>
<wgt id='14007'>0.32200E+02</wgt>
<wgt id='14008'>0.32195E+02</wgt>
<wgt id='14009'>0.32189E+02</wgt>
<wgt id='14010'>0.32184E+02</wgt>
<wgt id='14011'>0.32179E+02</wgt>
<wgt id='14012'>0.32174E+02</wgt>
<wgt id='14013'>0.32168E+02</wgt>
<wgt id='14014'>0.32163E+02</wgt>
<wgt id='14015'>0.32158E+02</wgt>
<wgt id='14016'>0.32153E+02</wgt>
<wgt id='14017'>0.32148E+02</wgt>
<wgt id='14018'>0.32142E+02</wgt>
<wgt id='14019'>0.32137E+02</wgt>
<wgt id='14020'>0.32132E+02</wgt>
<wgt id='14021'>0.32127E+02</wgt>
<wgt id='14022'>0.32121E+02</wgt>
<wgt id='14023'>0.32116E+02</wgt>
<wgt id='14024'>0.32111E+02</wgt>
<wgt id='14025'>0.32106E+02</wgt>
<wgt id='14026'>0.32101E+02</wgt>
<wgt id='14027'>0.32095E+02</wgt>
<wgt id='14028'>0.32090E+02</wgt>
<wgt id='14029'>0.32085E+02</wgt>
<wgt id='14030'>0.32080E+02</wgt>
<wgt id='15000'>0.30467E+02</wgt>
<wgt id='15001'>0.30529E+02</wgt>
<wgt id='15002'>0.30630E+02</wgt>
<wgt id='15003'>0.30183E+02</wgt>
<wgt id='15004'>0.30407E+02</wgt>
<wgt id='15005'>0.30633E+02</wgt>
<wgt id='15006'>0.30377E+02</wgt>
<wgt id='15007'>0.30478E+02</wgt>
<wgt id='15008'>0.30538E+02</wgt>
<wgt id='15009'>0.30450E+02</wgt>
<wgt id='15010'>0.30430E+02</wgt>
<wgt id='15011'>0.30799E+02</wgt>
<wgt id='15012'>0.30039E+02</wgt>
<wgt id='15013'>0.30057E+02</wgt>
<wgt id='15014'>0.30089E+02</wgt>
<wgt id='15015'>0.30422E+02</wgt>
<wgt id='15016'>0.30556E+02</wgt>
<wgt id='15017'>0.30493E+02</wgt>
<wgt id='15018'>0.30475E+02</wgt>
<wgt id='15019'>0.30445E+02</wgt>
<wgt id='15020'>0.30594E+02</wgt>
<wgt id='15021'>0.30466E+02</wgt>
<wgt id='15022'>0.30503E+02</wgt>
<wgt id='15023'>0.30424E+02</wgt>
<wgt id='15024'>0.30419E+02</wgt>
<wgt id='15025'>0.30508E+02</wgt>
<wgt id='15026'>0.30484E+02</wgt>
<wgt id='15027'>0.30443E+02</wgt>
<wgt id='15028'>0.30491E+02</wgt>
<wgt id='15029'>0.30497E+02</wgt>
<wgt id='15030'>0.30486E+02</wgt>
<wgt id='15031'>0.30462E+02</wgt>
<wgt id='15032'>0.30486E+02</wgt>
<wgt id='15033'>0.30506E+02</wgt>
<wgt id='15034'>0.30447E+02</wgt>
<wgt id='15035'>0.30520E+02</wgt>
<wgt id='15036'>0.30464E+02</wgt>
<wgt id='15037'>0.30497E+02</wgt>
<wgt id='15038'>0.30466E+02</wgt>
<wgt id='15039'>0.30468E+02</wgt>
<wgt id='15040'>0.30430E+02</wgt>
<wgt id='15041'>0.30451E+02</wgt>
<wgt id='15042'>0.30459E+02</wgt>
<wgt id='15043'>0.30444E+02</wgt>
<wgt id='15044'>0.30477E+02</wgt>
<wgt id='15045'>0.30460E+02</wgt>
<wgt id='15046'>0.30425E+02</wgt>
<wgt id='15047'>0.30449E+02</wgt>
<wgt id='15048'>0.30478E+02</wgt>
<wgt id='15049'>0.30451E+02</wgt>
<wgt id='15050'>0.30475E+02</wgt>
<wgt id='15051'>0.30478E+02</wgt>
<wgt id='15052'>0.30473E+02</wgt>
<wgt id='15053'>0.30472E+02</wgt>
<wgt id='15054'>0.30451E+02</wgt>
<wgt id='15055'>0.30463E+02</wgt>
<wgt id='15056'>0.30496E+02</wgt>
<wgt id='15057'>0.30464E+02</wgt>
<wgt id='15058'>0.30447E+02</wgt>
<wgt id='15059'>0.30454E+02</wgt>
<wgt id='15060'>0.30458E+02</wgt>
<wgt id='15061'>0.30472E+02</wgt>
<wgt id='15062'>0.30472E+02</wgt>
<wgt id='15063'>0.30481E+02</wgt>
<wgt id='15064'>0.30461E+02</wgt>
<wgt id='15065'>0.30466E+02</wgt>
<wgt id='15066'>0.30470E+02</wgt>
<wgt id='15067'>0.30477E+02</wgt>
<wgt id='15068'>0.30477E+02</wgt>
<wgt id='15069'>0.30483E+02</wgt>
<wgt id='15070'>0.30464E+02</wgt>
<wgt id='15071'>0.30485E+02</wgt>
<wgt id='15072'>0.30485E+02</wgt>
<wgt id='15073'>0.30459E+02</wgt>
<wgt id='15074'>0.30472E+02</wgt>
<wgt id='15075'>0.30466E+02</wgt>
<wgt id='15076'>0.30465E+02</wgt>
<wgt id='15077'>0.30471E+02</wgt>
<wgt id='15078'>0.30470E+02</wgt>
<wgt id='15079'>0.30462E+02</wgt>
<wgt id='15080'>0.30486E+02</wgt>
<wgt id='15081'>0.30464E+02</wgt>
<wgt id='15082'>0.30474E+02</wgt>
<wgt id='15083'>0.30458E+02</wgt>
<wgt id='15084'>0.30459E+02</wgt>
<wgt id='15085'>0.30460E+02</wgt>
<wgt id='15086'>0.30471E+02</wgt>
<wgt id='15087'>0.30449E+02</wgt>
<wgt id='15088'>0.30461E+02</wgt>
<wgt id='15089'>0.30460E+02</wgt>
<wgt id='15090'>0.30472E+02</wgt>
<wgt id='15091'>0.30464E+02</wgt>
<wgt id='15092'>0.30466E+02</wgt>
<wgt id='15093'>0.30463E+02</wgt>
<wgt id='15094'>0.30465E+02</wgt>
<wgt id='15095'>0.30471E+02</wgt>
<wgt id='15096'>0.30461E+02</wgt>
<wgt id='15097'>0.30469E+02</wgt>
<wgt id='15098'>0.30467E+02</wgt>
<wgt id='15099'>0.30461E+02</wgt>
<wgt id='15100'>0.30467E+02</wgt>
<wgt id='15101'>0.30467E+02</wgt>
<wgt id='15102'>0.30465E+02</wgt>
<wgt id='15103'>0.30468E+02</wgt>
<wgt id='15104'>0.30468E+02</wgt>
<wgt id='15105'>0.30468E+02</wgt>
<wgt id='15106'>0.30467E+02</wgt>
<wgt id='15107'>0.30466E+02</wgt>
<wgt id='1500'>0.32086E+02</wgt>
<wgt id='1501'>0.29245E+02</wgt>
<wgt id='1502'>0.32374E+02</wgt>
<wgt id='1503'>0.31844E+02</wgt>
<wgt id='1504'>0.31692E+02</wgt>
<wgt id='1505'>0.28115E+02</wgt>
<wgt id='1506'>0.32059E+02</wgt>
<wgt id='1507'>0.32658E+02</wgt>
<wgt id='1508'>0.31765E+02</wgt>
<wgt id='1509'>0.32026E+02</wgt>
<wgt id='1510'>0.31255E+02</wgt>
<wgt id='1511'>0.31777E+02</wgt>
<wgt id='1512'>0.32645E+02</wgt>
<wgt id='1513'>0.32612E+02</wgt>
<wgt id='1514'>0.31212E+02</wgt>
<wgt id='1515'>0.32002E+02</wgt>
<wgt id='1516'>0.32726E+02</wgt>
<wgt id='1517'>0.31509E+02</wgt>
<wgt id='1518'>0.31734E+02</wgt>
<wgt id='1519'>0.32362E+02</wgt>
<wgt id='1520'>0.32438E+02</wgt>
<wgt id='1521'>0.32262E+02</wgt>
<wgt id='1522'>0.31933E+02</wgt>
<wgt id='1523'>0.34633E+02</wgt>
<wgt id='1524'>0.31748E+02</wgt>
<wgt id='1525'>0.32621E+02</wgt>
<wgt id='1526'>0.31369E+02</wgt>
<wgt id='1527'>0.31802E+02</wgt>
<wgt id='1528'>0.31904E+02</wgt>
<wgt id='1529'>0.31588E+02</wgt>
<wgt id='1530'>0.32684E+02</wgt>
<wgt id='1531'>0.31937E+02</wgt>
<wgt id='1532'>0.31216E+02</wgt>
<wgt id='1533'>0.33065E+02</wgt>
<wgt id='1534'>0.32353E+02</wgt>
<wgt id='1535'>0.33136E+02</wgt>
<wgt id='1536'>0.33138E+02</wgt>
<wgt id='1537'>0.32367E+02</wgt>
<wgt id='1538'>0.31543E+02</wgt>
<wgt id='1539'>0.30785E+02</wgt>
<wgt id='1540'>0.32595E+02</wgt>
<wgt id='1541'>0.31881E+02</wgt>
<wgt id='1542'>0.32771E+02</wgt>
<wgt id='1543'>0.32506E+02</wgt>
<wgt id='1544'>0.31827E+02</wgt>
<wgt id='1545'>0.32883E+02</wgt>
<wgt id='1546'>0.32222E+02</wgt>
<wgt id='1547'>0.31515E+02</wgt>
<wgt id='1548'>0.31390E+02</wgt>
<wgt id='1549'>0.32556E+02</wgt>
<wgt id='1550'>0.32249E+02</wgt>
<wgt id='1551'>0.32124E+02</wgt>
<wgt id='1552'>0.32074E+02</wgt>
<wgt id='1553'>0.32711E+02</wgt>
<wgt id='1554'>0.32048E+02</wgt>
<wgt id='1555'>0.32241E+02</wgt>
<wgt id='1556'>0.31132E+02</wgt>
<wgt id='1557'>0.33527E+02</wgt>
<wgt id='1558'>0.31860E+02</wgt>
<wgt id='1559'>0.32503E+02</wgt>
<wgt id='1560'>0.31972E+02</wgt>
<wgt id='1561'>0.32519E+02</wgt>
<wgt id='1562'>0.32162E+02</wgt>
<wgt id='1563'>0.32738E+02</wgt>
<wgt id='1564'>0.31766E+02</wgt>
<wgt id='1565'>0.32577E+02</wgt>
<wgt id='1566'>0.32189E+02</wgt>
<wgt id='1567'>0.33573E+02</wgt>
<wgt id='1568'>0.31658E+02</wgt>
<wgt id='1569'>0.31351E+02</wgt>
<wgt id='1570'>0.32249E+02</wgt>
<wgt id='1571'>0.33030E+02</wgt>
<wgt id='1572'>0.31752E+02</wgt>
<wgt id='1573'>0.29558E+02</wgt>
<wgt id='1574'>0.32401E+02</wgt>
<wgt id='1575'>0.31737E+02</wgt>
<wgt id='1576'>0.31210E+02</wgt>
<wgt id='1577'>0.32363E+02</wgt>
<wgt id='1578'>0.33413E+02</wgt>
<wgt id='1579'>0.31953E+02</wgt>
<wgt id='1580'>0.32389E+02</wgt>
<wgt id='1581'>0.32296E+02</wgt>
<wgt id='1582'>0.31707E+02</wgt>
<wgt id='1583'>0.32046E+02</wgt>
<wgt id='1584'>0.32241E+02</wgt>
<wgt id='1585'>0.31138E+02</wgt>
<wgt id='1586'>0.32014E+02</wgt>
<wgt id='1587'>0.32021E+02</wgt>
<wgt id='1588'>0.32169E+02</wgt>
<wgt id='1589'>0.32646E+02</wgt>
<wgt id='1590'>0.31980E+02</wgt>
<wgt id='1591'>0.30974E+02</wgt>
<wgt id='1592'>0.33046E+02</wgt>
<wgt id='1593'>0.31775E+02</wgt>
<wgt id='1594'>0.32945E+02</wgt>
<wgt id='1595'>0.31555E+02</wgt>
<wgt id='1596'>0.32578E+02</wgt>
<wgt id='1597'>0.32305E+02</wgt>
<wgt id='1598'>0.33580E+02</wgt>
<wgt id='1599'>0.33007E+02</wgt>
<wgt id='1600'>0.31803E+02</wgt>
<wgt id='1601'>0.31590E+02</wgt>
<wgt id='1602'>0.32265E+02</wgt>
<wgt id='1700'>0.30943E+02</wgt>
<wgt id='1800'>0.37957E+02</wgt>
<wgt id='1850'>0.44861E+02</wgt>
<wgt id='1900'>0.36954E+02</wgt>
<wgt id='1950'>0.43246E+02</wgt>
</rwgt>
</event>
<event>
      4   9999  3.15120E+01  5.43539E+01 -1.00000E+00  1.35089E-01
      21    -1     0     0   502   501  0.000000000E+00  0.000000000E+00  6.370714195E+01  6.370714195E+01  0.000000000E+00  0.00000E+00  9.000E+00
      21    -1     0     0   501   511  0.000000000E+00  0.000000000E+00 -1.610650402E+02  1.610650402E+02  0.000000000E+00  0.00000E+00  9.000E+00
      25     1     1     2     0     0 -5.399770881E+00 -5.408498206E+01 -2.469563675E+01  1.340299811E+02  1.199992439E+02  0.00000E+00  9.000E+00
      21     1     1     2   502   511  5.399770881E+00  5.408498206E+01 -7.266226151E+01  9.074220109E+01  9.536743164E-07  0.00000E+00  9.000E+00
#rwgt            1           1   17.263214374790600                1         872           0
<rwgt>
<wgt id='1001'>0.31512E+02</wgt>
<wgt id='1002'>0.31940E+02</wgt>
<wgt id='1003'>0.31370E+02</wgt>
<wgt id='1004'>0.27189E+02</wgt>
<wgt id='1005'>0.27688E+02</wgt>
<wgt id='1006'>0.26842E+02</wgt>
<wgt id='1007'>0.36877E+02</wgt>
<wgt id='1008'>0.37142E+02</wgt>
<wgt id='1009'>0.37121E+02</wgt>
<wgt id='2000'>0.31512E+02</wgt>
<wgt id='2001'>0.31481E+02</wgt>
<wgt id='2002'>0.31640E+02</wgt>
<wgt id='2003'>0.31639E+02</wgt>
<wgt id='2004'>0.31532E+02</wgt>
<wgt id='2005'>0.31434E+02</wgt>
<wgt id='2006'>0.31425E+02</wgt>
<wgt id='2007'>0.31388E+02</wgt>
<wgt id='2008'>0.31449E+02</wgt>
<wgt id='2009'>0.31554E+02</wgt>
<wgt id='2010'>0.31497E+02</wgt>
<wgt id='2011'>0.31634E+02</wgt>
<wgt id='2012'>0.31653E+02</wgt>
<wgt id='2013'>0.31764E+02</wgt>
<wgt id='2014'>0.31614E+02</wgt>
<wgt id='2015'>0.31574E+02</wgt>
<wgt id='2016'>0.31442E+02</wgt>
<wgt id='2017'>0.31511E+02</wgt>
<wgt id='2018'>0.31617E+02</wgt>
<wgt id='2019'>0.31492E+02</wgt>
<wgt id='2020'>0.31575E+02</wgt>
<wgt id='2021'>0.31473E+02</wgt>
<wgt id='2022'>0.31501E+02</wgt>
<wgt id='2023'>0.31531E+02</wgt>
<wgt id='2024'>0.31520E+02</wgt>
<wgt id='2025'>0.31488E+02</wgt>
<wgt id='2026'>0.31508E+02</wgt>
<wgt id='2027'>0.31500E+02</wgt>
<wgt id='2028'>0.31515E+02</wgt>
<wgt id='2029'>0.31529E+02</wgt>
<wgt id='2030'>0.31503E+02</wgt>
<wgt id='2031'>0.31530E+02</wgt>
<wgt id='2032'>0.31528E+02</wgt>
<wgt id='2033'>0.31516E+02</wgt>
<wgt id='2034'>0.31544E+02</wgt>
<wgt id='2035'>0.31498E+02</wgt>
<wgt id='2036'>0.31508E+02</wgt>
<wgt id='2037'>0.31539E+02</wgt>
<wgt id='2038'>0.31526E+02</wgt>
<wgt id='2039'>0.31490E+02</wgt>
<wgt id='2040'>0.31496E+02</wgt>
<wgt id='2041'>0.31497E+02</wgt>
<wgt id='2042'>0.31501E+02</wgt>
<wgt id='2043'>0.31556E+02</wgt>
<wgt id='2044'>0.31533E+02</wgt>
<wgt id='2045'>0.31507E+02</wgt>
<wgt id='2046'>0.31466E+02</wgt>
<wgt id='2047'>0.31483E+02</wgt>
<wgt id='2048'>0.31496E+02</wgt>
<wgt id='2049'>0.31516E+02</wgt>
<wgt id='2050'>0.31497E+02</wgt>
<wgt id='2051'>0.31537E+02</wgt>
<wgt id='2052'>0.31521E+02</wgt>
<wgt id='2053'>0.31506E+02</wgt>
<wgt id='2054'>0.31513E+02</wgt>
<wgt id='2055'>0.31505E+02</wgt>
<wgt id='2056'>0.31529E+02</wgt>
<wgt id='2057'>0.31537E+02</wgt>
<wgt id='2058'>0.31527E+02</wgt>
<wgt id='2059'>0.31511E+02</wgt>
<wgt id='2060'>0.31499E+02</wgt>
<wgt id='2061'>0.31526E+02</wgt>
<wgt id='2062'>0.31523E+02</wgt>
<wgt id='2063'>0.31493E+02</wgt>
<wgt id='2064'>0.31526E+02</wgt>
<wgt id='2065'>0.31494E+02</wgt>
<wgt id='2066'>0.31511E+02</wgt>
<wgt id='2067'>0.31509E+02</wgt>
<wgt id='2068'>0.31512E+02</wgt>
<wgt id='2069'>0.31501E+02</wgt>
<wgt id='2070'>0.31508E+02</wgt>
<wgt id='2071'>0.31516E+02</wgt>
<wgt id='2072'>0.31519E+02</wgt>
<wgt id='2073'>0.31495E+02</wgt>
<wgt id='2074'>0.31494E+02</wgt>
<wgt id='2075'>0.31498E+02</wgt>
<wgt id='2076'>0.31535E+02</wgt>
<wgt id='2077'>0.31481E+02</wgt>
<wgt id='2078'>0.31522E+02</wgt>
<wgt id='2079'>0.31520E+02</wgt>
<wgt id='2080'>0.31524E+02</wgt>
<wgt id='2081'>0.31508E+02</wgt>
<wgt id='2082'>0.31518E+02</wgt>
<wgt id='2083'>0.31518E+02</wgt>
<wgt id='2084'>0.31497E+02</wgt>
<wgt id='2085'>0.31528E+02</wgt>
<wgt id='2086'>0.31528E+02</wgt>
<wgt id='2087'>0.31493E+02</wgt>
<wgt id='2088'>0.31508E+02</wgt>
<wgt id='2089'>0.31504E+02</wgt>
<wgt id='2090'>0.31513E+02</wgt>
<wgt id='2091'>0.31506E+02</wgt>
<wgt id='2092'>0.31510E+02</wgt>
<wgt id='2093'>0.31512E+02</wgt>
<wgt id='2094'>0.31513E+02</wgt>
<wgt id='2095'>0.31523E+02</wgt>
<wgt id='2096'>0.31504E+02</wgt>
<wgt id='2097'>0.31525E+02</wgt>
<wgt id='2098'>0.31503E+02</wgt>
<wgt id='2099'>0.31515E+02</wgt>
<wgt id='2100'>0.31517E+02</wgt>
<wgt id='2101'>0.30652E+02</wgt>
<wgt id='2102'>0.32281E+02</wgt>
<wgt id='2104'>0.27632E+02</wgt>
<wgt id='2105'>0.28313E+02</wgt>
<wgt id='2106'>0.29087E+02</wgt>
<wgt id='2107'>0.29962E+02</wgt>
<wgt id='2108'>0.31180E+02</wgt>
<wgt id='2109'>0.31953E+02</wgt>
<wgt id='2110'>0.33053E+02</wgt>
<wgt id='2111'>0.33859E+02</wgt>
<wgt id='3000'>0.32792E+02</wgt>
<wgt id='3001'>0.32908E+02</wgt>
<wgt id='3002'>0.32654E+02</wgt>
<wgt id='3003'>0.32904E+02</wgt>
<wgt id='3004'>0.32843E+02</wgt>
<wgt id='3005'>0.32930E+02</wgt>
<wgt id='3006'>0.32840E+02</wgt>
<wgt id='3007'>0.32874E+02</wgt>
<wgt id='3008'>0.32715E+02</wgt>
<wgt id='3009'>0.32778E+02</wgt>
<wgt id='3010'>0.32690E+02</wgt>
<wgt id='3011'>0.32854E+02</wgt>
<wgt id='3012'>0.32989E+02</wgt>
<wgt id='3013'>0.32568E+02</wgt>
<wgt id='3014'>0.32904E+02</wgt>
<wgt id='3015'>0.32905E+02</wgt>
<wgt id='3016'>0.32796E+02</wgt>
<wgt id='3017'>0.32925E+02</wgt>
<wgt id='3018'>0.32811E+02</wgt>
<wgt id='3019'>0.32707E+02</wgt>
<wgt id='3020'>0.32798E+02</wgt>
<wgt id='3021'>0.32739E+02</wgt>
<wgt id='3022'>0.32789E+02</wgt>
<wgt id='3023'>0.32777E+02</wgt>
<wgt id='3024'>0.32808E+02</wgt>
<wgt id='3025'>0.32807E+02</wgt>
<wgt id='3026'>0.32780E+02</wgt>
<wgt id='3027'>0.32806E+02</wgt>
<wgt id='3028'>0.32801E+02</wgt>
<wgt id='3029'>0.32771E+02</wgt>
<wgt id='3030'>0.32833E+02</wgt>
<wgt id='3031'>0.32809E+02</wgt>
<wgt id='3032'>0.32782E+02</wgt>
<wgt id='3033'>0.32785E+02</wgt>
<wgt id='3034'>0.32786E+02</wgt>
<wgt id='3035'>0.32806E+02</wgt>
<wgt id='3036'>0.32814E+02</wgt>
<wgt id='3037'>0.32747E+02</wgt>
<wgt id='3038'>0.32814E+02</wgt>
<wgt id='3039'>0.32795E+02</wgt>
<wgt id='3040'>0.32797E+02</wgt>
<wgt id='3041'>0.32812E+02</wgt>
<wgt id='3042'>0.32785E+02</wgt>
<wgt id='3043'>0.32763E+02</wgt>
<wgt id='3044'>0.32808E+02</wgt>
<wgt id='3045'>0.32813E+02</wgt>
<wgt id='3046'>0.32791E+02</wgt>
<wgt id='3047'>0.32786E+02</wgt>
<wgt id='3048'>0.32818E+02</wgt>
<wgt id='3049'>0.32779E+02</wgt>
<wgt id='3050'>0.32836E+02</wgt>
<wgt id='3051'>0.32760E+02</wgt>
<wgt id='3052'>0.32778E+02</wgt>
<wgt id='3053'>0.32825E+02</wgt>
<wgt id='3054'>0.32814E+02</wgt>
<wgt id='3055'>0.32763E+02</wgt>
<wgt id='3056'>0.32779E+02</wgt>
<wgt id='3057'>0.32811E+02</wgt>
<wgt id='3058'>0.32778E+02</wgt>
<wgt id='3059'>0.32803E+02</wgt>
<wgt id='3060'>0.32803E+02</wgt>
<wgt id='3061'>0.32814E+02</wgt>
<wgt id='3062'>0.32777E+02</wgt>
<wgt id='3063'>0.32802E+02</wgt>
<wgt id='3064'>0.32815E+02</wgt>
<wgt id='3065'>0.32801E+02</wgt>
<wgt id='3066'>0.32804E+02</wgt>
<wgt id='3067'>0.32822E+02</wgt>
<wgt id='3068'>0.32778E+02</wgt>
<wgt id='3069'>0.32794E+02</wgt>
<wgt id='3070'>0.32791E+02</wgt>
<wgt id='3071'>0.32797E+02</wgt>
<wgt id='3072'>0.32791E+02</wgt>
<wgt id='3073'>0.32799E+02</wgt>
<wgt id='3074'>0.32814E+02</wgt>
<wgt id='3075'>0.32805E+02</wgt>
<wgt id='3076'>0.32816E+02</wgt>
<wgt id='3077'>0.32793E+02</wgt>
<wgt id='3078'>0.32799E+02</wgt>
<wgt id='3079'>0.32767E+02</wgt>
<wgt id='3080'>0.32789E+02</wgt>
<wgt id='3081'>0.32776E+02</wgt>
<wgt id='3082'>0.32773E+02</wgt>
<wgt id='3083'>0.32803E+02</wgt>
<wgt id='3084'>0.32779E+02</wgt>
<wgt id='3085'>0.32814E+02</wgt>
<wgt id='3086'>0.32773E+02</wgt>
<wgt id='3087'>0.32755E+02</wgt>
<wgt id='3088'>0.32793E+02</wgt>
<wgt id='3089'>0.32791E+02</wgt>
<wgt id='3090'>0.32799E+02</wgt>
<wgt id='3091'>0.32793E+02</wgt>
<wgt id='3092'>0.32788E+02</wgt>
<wgt id='3093'>0.32799E+02</wgt>
<wgt id='3094'>0.32798E+02</wgt>
<wgt id='3095'>0.32805E+02</wgt>
<wgt id='3096'>0.32791E+02</wgt>
<wgt id='3097'>0.32794E+02</wgt>
<wgt id='3098'>0.32790E+02</wgt>
<wgt id='3099'>0.32795E+02</wgt>
<wgt id='3100'>0.32798E+02</wgt>
<wgt id='3101'>0.31910E+02</wgt>
<wgt id='3102'>0.33750E+02</wgt>
<wgt id='5000'>0.30757E+02</wgt>
<wgt id='5001'>0.30745E+02</wgt>
<wgt id='5002'>0.30768E+02</wgt>
<wgt id='5003'>0.30631E+02</wgt>
<wgt id='5004'>0.30782E+02</wgt>
<wgt id='5005'>0.30344E+02</wgt>
<wgt id='5006'>0.31190E+02</wgt>
<wgt id='5007'>0.30924E+02</wgt>
<wgt id='5008'>0.30519E+02</wgt>
<wgt id='5009'>0.31035E+02</wgt>
<wgt id='5010'>0.30645E+02</wgt>
<wgt id='5011'>0.30745E+02</wgt>
<wgt id='5012'>0.30754E+02</wgt>
<wgt id='5013'>0.30053E+02</wgt>
<wgt id='5014'>0.31001E+02</wgt>
<wgt id='5015'>0.30915E+02</wgt>
<wgt id='5016'>0.30323E+02</wgt>
<wgt id='5017'>0.30810E+02</wgt>
<wgt id='5018'>0.30691E+02</wgt>
<wgt id='5019'>0.30601E+02</wgt>
<wgt id='5020'>0.30881E+02</wgt>
<wgt id='5021'>0.30827E+02</wgt>
<wgt id='5022'>0.30712E+02</wgt>
<wgt id='5023'>0.30750E+02</wgt>
<wgt id='5024'>0.30762E+02</wgt>
<wgt id='5025'>0.30668E+02</wgt>
<wgt id='5026'>0.30830E+02</wgt>
<wgt id='5027'>0.30975E+02</wgt>
<wgt id='5028'>0.30396E+02</wgt>
<wgt id='5029'>0.30357E+02</wgt>
<wgt id='5030'>0.31002E+02</wgt>
<wgt id='5031'>0.30523E+02</wgt>
<wgt id='5032'>0.31107E+02</wgt>
<wgt id='5033'>0.30521E+02</wgt>
<wgt id='5034'>0.30961E+02</wgt>
<wgt id='5035'>0.30335E+02</wgt>
<wgt id='5036'>0.31097E+02</wgt>
<wgt id='5037'>0.30737E+02</wgt>
<wgt id='5038'>0.30766E+02</wgt>
<wgt id='5039'>0.31164E+02</wgt>
<wgt id='5040'>0.30547E+02</wgt>
<wgt id='5041'>0.30669E+02</wgt>
<wgt id='5042'>0.30741E+02</wgt>
<wgt id='5043'>0.30822E+02</wgt>
<wgt id='5044'>0.30355E+02</wgt>
<wgt id='5045'>0.31562E+02</wgt>
<wgt id='5046'>0.30562E+02</wgt>
<wgt id='5047'>0.31067E+02</wgt>
<wgt id='5048'>0.30765E+02</wgt>
<wgt id='5049'>0.30764E+02</wgt>
<wgt id='5050'>0.30698E+02</wgt>
<wgt id='5051'>0.30768E+02</wgt>
<wgt id='5052'>0.30721E+02</wgt>
<wgt id='5053'>0.30336E+02</wgt>
<wgt id='5054'>0.31255E+02</wgt>
<wgt id='5055'>0.30572E+02</wgt>
<wgt id='5056'>0.30991E+02</wgt>
<wgt id='5060'>0.30014E+02</wgt>
<wgt id='5070'>0.31446E+02</wgt>
<wgt id='4000'>0.32310E+02</wgt>
<wgt id='4001'>0.32293E+02</wgt>
<wgt id='4002'>0.32324E+02</wgt>
<wgt id='4003'>0.33005E+02</wgt>
<wgt id='4004'>0.32044E+02</wgt>
<wgt id='4005'>0.32254E+02</wgt>
<wgt id='4006'>0.32278E+02</wgt>
<wgt id='4007'>0.32666E+02</wgt>
<wgt id='4008'>0.32133E+02</wgt>
<wgt id='4009'>0.31911E+02</wgt>
<wgt id='4010'>0.32584E+02</wgt>
<wgt id='4011'>0.32722E+02</wgt>
<wgt id='4012'>0.32052E+02</wgt>
<wgt id='4013'>0.31577E+02</wgt>
<wgt id='4014'>0.32809E+02</wgt>
<wgt id='4015'>0.32581E+02</wgt>
<wgt id='4016'>0.32127E+02</wgt>
<wgt id='4017'>0.32078E+02</wgt>
<wgt id='4018'>0.32587E+02</wgt>
<wgt id='4019'>0.32496E+02</wgt>
<wgt id='4020'>0.32107E+02</wgt>
<wgt id='4021'>0.32394E+02</wgt>
<wgt id='4022'>0.32158E+02</wgt>
<wgt id='4023'>0.32182E+02</wgt>
<wgt id='4024'>0.32429E+02</wgt>
<wgt id='4025'>0.31878E+02</wgt>
<wgt id='4026'>0.32704E+02</wgt>
<wgt id='4027'>0.32229E+02</wgt>
<wgt id='4028'>0.32418E+02</wgt>
<wgt id='4029'>0.32108E+02</wgt>
<wgt id='4030'>0.32380E+02</wgt>
<wgt id='4031'>0.32346E+02</wgt>
<wgt id='4032'>0.32264E+02</wgt>
<wgt id='4033'>0.32310E+02</wgt>
<wgt id='4034'>0.32302E+02</wgt>
<wgt id='4035'>0.32729E+02</wgt>
<wgt id='4036'>0.31893E+02</wgt>
<wgt id='4037'>0.32496E+02</wgt>
<wgt id='4038'>0.32041E+02</wgt>
<wgt id='4039'>0.32321E+02</wgt>
<wgt id='4040'>0.32298E+02</wgt>
<wgt id='4041'>0.32579E+02</wgt>
<wgt id='4042'>0.32026E+02</wgt>
<wgt id='4043'>0.32817E+02</wgt>
<wgt id='4044'>0.31852E+02</wgt>
<wgt id='4045'>0.31921E+02</wgt>
<wgt id='4046'>0.32244E+02</wgt>
<wgt id='4047'>0.32103E+02</wgt>
<wgt id='4048'>0.32619E+02</wgt>
<wgt id='4049'>0.32473E+02</wgt>
<wgt id='4050'>0.31926E+02</wgt>
<wgt id='4051'>0.32313E+02</wgt>
<wgt id='4052'>0.32319E+02</wgt>
<wgt id='4053'>0.31428E+02</wgt>
<wgt id='4054'>0.32555E+02</wgt>
<wgt id='4055'>0.32065E+02</wgt>
<wgt id='4056'>0.32574E+02</wgt>
<wgt id='4060'>0.31440E+02</wgt>
<wgt id='4070'>0.33147E+02</wgt>
<wgt id='4080'>0.32498E+02</wgt>
<wgt id='6000'>0.32787E+02</wgt>
<wgt id='6001'>0.32792E+02</wgt>
<wgt id='6002'>0.32781E+02</wgt>
<wgt id='6003'>0.32798E+02</wgt>
<wgt id='6004'>0.32779E+02</wgt>
<wgt id='6005'>0.32887E+02</wgt>
<wgt id='6006'>0.32694E+02</wgt>
<wgt id='6007'>0.32698E+02</wgt>
<wgt id='6008'>0.32886E+02</wgt>
<wgt id='6009'>0.32849E+02</wgt>
<wgt id='6010'>0.32726E+02</wgt>
<wgt id='6011'>0.32827E+02</wgt>
<wgt id='6012'>0.32698E+02</wgt>
<wgt id='6013'>0.32768E+02</wgt>
<wgt id='6014'>0.32820E+02</wgt>
<wgt id='6015'>0.32734E+02</wgt>
<wgt id='6016'>0.32817E+02</wgt>
<wgt id='6017'>0.32642E+02</wgt>
<wgt id='6018'>0.32957E+02</wgt>
<wgt id='6019'>0.32825E+02</wgt>
<wgt id='6020'>0.32754E+02</wgt>
<wgt id='6021'>0.32695E+02</wgt>
<wgt id='6022'>0.32908E+02</wgt>
<wgt id='6023'>0.32591E+02</wgt>
<wgt id='6024'>0.32918E+02</wgt>
<wgt id='6025'>0.32451E+02</wgt>
<wgt id='6026'>0.33090E+02</wgt>
<wgt id='6027'>0.32837E+02</wgt>
<wgt id='6028'>0.32780E+02</wgt>
<wgt id='6029'>0.32937E+02</wgt>
<wgt id='6030'>0.32614E+02</wgt>
<wgt id='6031'>0.32796E+02</wgt>
<wgt id='6032'>0.32779E+02</wgt>
<wgt id='6033'>0.32833E+02</wgt>
<wgt id='6034'>0.32739E+02</wgt>
<wgt id='6035'>0.32769E+02</wgt>
<wgt id='6036'>0.32879E+02</wgt>
<wgt id='6037'>0.32802E+02</wgt>
<wgt id='6038'>0.32771E+02</wgt>
<wgt id='6039'>0.32756E+02</wgt>
<wgt id='6040'>0.32820E+02</wgt>
<wgt id='6041'>0.32699E+02</wgt>
<wgt id='6042'>0.32887E+02</wgt>
<wgt id='6043'>0.33102E+02</wgt>
<wgt id='6044'>0.32633E+02</wgt>
<wgt id='6045'>0.32768E+02</wgt>
<wgt id='6046'>0.32880E+02</wgt>
<wgt id='6047'>0.32647E+02</wgt>
<wgt id='6048'>0.32726E+02</wgt>
<wgt id='6049'>0.32714E+02</wgt>
<wgt id='6050'>0.32806E+02</wgt>
<wgt id='7000'>0.31321E+02</wgt>
<wgt id='7001'>0.31303E+02</wgt>
<wgt id='7002'>0.31344E+02</wgt>
<wgt id='7003'>0.31414E+02</wgt>
<wgt id='7004'>0.31228E+02</wgt>
<wgt id='7005'>0.31377E+02</wgt>
<wgt id='7006'>0.31298E+02</wgt>
<wgt id='7007'>0.31260E+02</wgt>
<wgt id='7008'>0.31382E+02</wgt>
<wgt id='7009'>0.31360E+02</wgt>
<wgt id='7010'>0.31283E+02</wgt>
<wgt id='7011'>0.31135E+02</wgt>
<wgt id='7012'>0.31402E+02</wgt>
<wgt id='7013'>0.31317E+02</wgt>
<wgt id='7014'>0.31325E+02</wgt>
<wgt id='7015'>0.31274E+02</wgt>
<wgt id='7016'>0.31372E+02</wgt>
<wgt id='7017'>0.31234E+02</wgt>
<wgt id='7018'>0.31368E+02</wgt>
<wgt id='7019'>0.31292E+02</wgt>
<wgt id='7020'>0.31359E+02</wgt>
<wgt id='7021'>0.31330E+02</wgt>
<wgt id='7022'>0.31314E+02</wgt>
<wgt id='7023'>0.31634E+02</wgt>
<wgt id='7024'>0.31019E+02</wgt>
<wgt id='7025'>0.31433E+02</wgt>
<wgt id='7026'>0.31043E+02</wgt>
<wgt id='7027'>0.31401E+02</wgt>
<wgt id='7028'>0.31274E+02</wgt>
<wgt id='7029'>0.31250E+02</wgt>
<wgt id='7030'>0.31534E+02</wgt>
<wgt id='7031'>0.31288E+02</wgt>
<wgt id='7032'>0.31406E+02</wgt>
<wgt id='7033'>0.31305E+02</wgt>
<wgt id='7034'>0.31368E+02</wgt>
<wgt id='7035'>0.31350E+02</wgt>
<wgt id='7036'>0.31324E+02</wgt>
<wgt id='7037'>0.31323E+02</wgt>
<wgt id='7038'>0.31338E+02</wgt>
<wgt id='7039'>0.31274E+02</wgt>
<wgt id='7040'>0.31356E+02</wgt>
<wgt id='7041'>0.31357E+02</wgt>
<wgt id='7042'>0.31225E+02</wgt>
<wgt id='7043'>0.31348E+02</wgt>
<wgt id='7044'>0.31172E+02</wgt>
<wgt id='7045'>0.31189E+02</wgt>
<wgt id='7046'>0.31295E+02</wgt>
<wgt id='7047'>0.31318E+02</wgt>
<wgt id='7048'>0.31326E+02</wgt>
<wgt id='7049'>0.31381E+02</wgt>
<wgt id='7050'>0.31182E+02</wgt>
<wgt id='7060'>0.46542E+02</wgt>
<wgt id='8000'>0.30954E+02</wgt>
<wgt id='8001'>0.30947E+02</wgt>
<wgt id='8002'>0.30962E+02</wgt>
<wgt id='8003'>0.30956E+02</wgt>
<wgt id='8004'>0.30953E+02</wgt>
<wgt id='8005'>0.30889E+02</wgt>
<wgt id='8006'>0.30943E+02</wgt>
<wgt id='8007'>0.30925E+02</wgt>
<wgt id='8008'>0.30989E+02</wgt>
<wgt id='8009'>0.31038E+02</wgt>
<wgt id='8010'>0.30953E+02</wgt>
<wgt id='8011'>0.30954E+02</wgt>
<wgt id='8012'>0.30934E+02</wgt>
<wgt id='8013'>0.30948E+02</wgt>
<wgt id='8014'>0.30936E+02</wgt>
<wgt id='8015'>0.30946E+02</wgt>
<wgt id='8016'>0.30963E+02</wgt>
<wgt id='8017'>0.30953E+02</wgt>
<wgt id='8018'>0.30952E+02</wgt>
<wgt id='8019'>0.30988E+02</wgt>
<wgt id='8020'>0.30884E+02</wgt>
<wgt id='8021'>0.30961E+02</wgt>
<wgt id='8022'>0.30811E+02</wgt>
<wgt id='8023'>0.30991E+02</wgt>
<wgt id='8024'>0.31011E+02</wgt>
<wgt id='8025'>0.31031E+02</wgt>
<wgt id='8026'>0.30995E+02</wgt>
<wgt id='8027'>0.30916E+02</wgt>
<wgt id='8028'>0.30987E+02</wgt>
<wgt id='8029'>0.30866E+02</wgt>
<wgt id='8500'>0.32510E+02</wgt>
<wgt id='8501'>0.32414E+02</wgt>
<wgt id='8502'>0.32796E+02</wgt>
<wgt id='8503'>0.32699E+02</wgt>
<wgt id='8504'>0.32423E+02</wgt>
<wgt id='8505'>0.32389E+02</wgt>
<wgt id='8506'>0.32466E+02</wgt>
<wgt id='8507'>0.32630E+02</wgt>
<wgt id='8508'>0.32825E+02</wgt>
<wgt id='8509'>0.32368E+02</wgt>
<wgt id='8510'>0.32932E+02</wgt>
<wgt id='8511'>0.32527E+02</wgt>
<wgt id='8512'>0.32231E+02</wgt>
<wgt id='8513'>0.32588E+02</wgt>
<wgt id='8514'>0.32391E+02</wgt>
<wgt id='8515'>0.32540E+02</wgt>
<wgt id='8516'>0.32573E+02</wgt>
<wgt id='8517'>0.32526E+02</wgt>
<wgt id='8518'>0.32498E+02</wgt>
<wgt id='8519'>0.32505E+02</wgt>
<wgt id='8520'>0.32456E+02</wgt>
<wgt id='8521'>0.32458E+02</wgt>
<wgt id='8522'>0.32564E+02</wgt>
<wgt id='8523'>0.32431E+02</wgt>
<wgt id='8524'>0.32602E+02</wgt>
<wgt id='8525'>0.32462E+02</wgt>
<wgt id='8526'>0.32514E+02</wgt>
<wgt id='8527'>0.32514E+02</wgt>
<wgt id='8528'>0.32431E+02</wgt>
<wgt id='8529'>0.32446E+02</wgt>
<wgt id='8530'>0.32538E+02</wgt>
<wgt id='8531'>0.32518E+02</wgt>
<wgt id='8532'>0.32512E+02</wgt>
<wgt id='8533'>0.32445E+02</wgt>
<wgt id='8534'>0.32521E+02</wgt>
<wgt id='8535'>0.32571E+02</wgt>
<wgt id='8536'>0.32461E+02</wgt>
<wgt id='8537'>0.32510E+02</wgt>
<wgt id='8538'>0.32493E+02</wgt>
<wgt id='8539'>0.32510E+02</wgt>
<wgt id='8540'>0.32530E+02</wgt>
<wgt id='8541'>0.32514E+02</wgt>
<wgt id='8542'>0.32511E+02</wgt>
<wgt id='8543'>0.32472E+02</wgt>
<wgt id='8544'>0.32535E+02</wgt>
<wgt id='8545'>0.32543E+02</wgt>
<wgt id='8546'>0.32559E+02</wgt>
<wgt id='8547'>0.32485E+02</wgt>
<wgt id='8548'>0.32469E+02</wgt>
<wgt id='8549'>0.32520E+02</wgt>
<wgt id='8550'>0.32508E+02</wgt>
<wgt id='8551'>0.32508E+02</wgt>
<wgt id='8552'>0.32509E+02</wgt>
<wgt id='8553'>0.32482E+02</wgt>
<wgt id='8554'>0.32508E+02</wgt>
<wgt id='8555'>0.32516E+02</wgt>
<wgt id='8556'>0.32500E+02</wgt>
<wgt id='8557'>0.32515E+02</wgt>
<wgt id='8558'>0.32527E+02</wgt>
<wgt id='8559'>0.32501E+02</wgt>
<wgt id='8560'>0.32488E+02</wgt>
<wgt id='8561'>0.32515E+02</wgt>
<wgt id='8562'>0.32505E+02</wgt>
<wgt id='8563'>0.32519E+02</wgt>
<wgt id='8564'>0.32511E+02</wgt>
<wgt id='8565'>0.32522E+02</wgt>
<wgt id='8566'>0.32533E+02</wgt>
<wgt id='8567'>0.32519E+02</wgt>
<wgt id='8568'>0.32520E+02</wgt>
<wgt id='8569'>0.32521E+02</wgt>
<wgt id='8570'>0.32502E+02</wgt>
<wgt id='8571'>0.32479E+02</wgt>
<wgt id='8572'>0.32497E+02</wgt>
<wgt id='8573'>0.32482E+02</wgt>
<wgt id='8574'>0.32519E+02</wgt>
<wgt id='8575'>0.32487E+02</wgt>
<wgt id='8576'>0.32520E+02</wgt>
<wgt id='8577'>0.32492E+02</wgt>
<wgt id='8578'>0.32520E+02</wgt>
<wgt id='8579'>0.32549E+02</wgt>
<wgt id='8580'>0.32493E+02</wgt>
<wgt id='8581'>0.32514E+02</wgt>
<wgt id='8582'>0.32487E+02</wgt>
<wgt id='8583'>0.32520E+02</wgt>
<wgt id='8584'>0.32533E+02</wgt>
<wgt id='8585'>0.32516E+02</wgt>
<wgt id='8586'>0.32548E+02</wgt>
<wgt id='8587'>0.32507E+02</wgt>
<wgt id='8588'>0.32503E+02</wgt>
<wgt id='8589'>0.32514E+02</wgt>
<wgt id='8590'>0.32501E+02</wgt>
<wgt id='8591'>0.32498E+02</wgt>
<wgt id='8592'>0.32511E+02</wgt>
<wgt id='8593'>0.32490E+02</wgt>
<wgt id='8594'>0.32506E+02</wgt>
<wgt id='8595'>0.32509E+02</wgt>
<wgt id='8596'>0.32502E+02</wgt>
<wgt id='8597'>0.32517E+02</wgt>
<wgt id='8598'>0.32523E+02</wgt>
<wgt id='8599'>0.32517E+02</wgt>
<wgt id='8600'>0.32511E+02</wgt>
<wgt id='8601'>0.31850E+02</wgt>
<wgt id='8602'>0.33104E+02</wgt>
<wgt id='9000'>0.31078E+02</wgt>
<wgt id='9001'>0.31153E+02</wgt>
<wgt id='9002'>0.31250E+02</wgt>
<wgt id='9003'>0.30828E+02</wgt>
<wgt id='9004'>0.31034E+02</wgt>
<wgt id='9005'>0.31224E+02</wgt>
<wgt id='9006'>0.30973E+02</wgt>
<wgt id='9007'>0.31095E+02</wgt>
<wgt id='9008'>0.31101E+02</wgt>
<wgt id='9009'>0.31050E+02</wgt>
<wgt id='9010'>0.31029E+02</wgt>
<wgt id='9011'>0.31320E+02</wgt>
<wgt id='9012'>0.30778E+02</wgt>
<wgt id='9013'>0.30751E+02</wgt>
<wgt id='9014'>0.30848E+02</wgt>
<wgt id='9015'>0.31105E+02</wgt>
<wgt id='9016'>0.31138E+02</wgt>
<wgt id='9017'>0.31103E+02</wgt>
<wgt id='9018'>0.31093E+02</wgt>
<wgt id='9019'>0.31065E+02</wgt>
<wgt id='9020'>0.31003E+02</wgt>
<wgt id='9021'>0.31068E+02</wgt>
<wgt id='9022'>0.31147E+02</wgt>
<wgt id='9023'>0.30930E+02</wgt>
<wgt id='9024'>0.31030E+02</wgt>
<wgt id='9025'>0.31190E+02</wgt>
<wgt id='9026'>0.31082E+02</wgt>
<wgt id='9027'>0.31044E+02</wgt>
<wgt id='9028'>0.31101E+02</wgt>
<wgt id='9029'>0.31104E+02</wgt>
<wgt id='9030'>0.31063E+02</wgt>
<wgt id='9031'>0.31036E+02</wgt>
<wgt id='9032'>0.31075E+02</wgt>
<wgt id='9033'>0.31114E+02</wgt>
<wgt id='9034'>0.31116E+02</wgt>
<wgt id='9035'>0.31134E+02</wgt>
<wgt id='9036'>0.31083E+02</wgt>
<wgt id='9037'>0.31090E+02</wgt>
<wgt id='9038'>0.31075E+02</wgt>
<wgt id='9039'>0.31068E+02</wgt>
<wgt id='9040'>0.31062E+02</wgt>
<wgt id='9041'>0.31056E+02</wgt>
<wgt id='9042'>0.31104E+02</wgt>
<wgt id='9043'>0.31050E+02</wgt>
<wgt id='9044'>0.31104E+02</wgt>
<wgt id='9045'>0.31088E+02</wgt>
<wgt id='9046'>0.31038E+02</wgt>
<wgt id='9047'>0.31068E+02</wgt>
<wgt id='9048'>0.31091E+02</wgt>
<wgt id='9049'>0.31061E+02</wgt>
<wgt id='9050'>0.31083E+02</wgt>
<wgt id='9051'>0.31102E+02</wgt>
<wgt id='9052'>0.31102E+02</wgt>
<wgt id='9053'>0.31098E+02</wgt>
<wgt id='9054'>0.31057E+02</wgt>
<wgt id='9055'>0.31062E+02</wgt>
<wgt id='9056'>0.31085E+02</wgt>
<wgt id='9057'>0.31070E+02</wgt>
<wgt id='9058'>0.31070E+02</wgt>
<wgt id='9059'>0.31059E+02</wgt>
<wgt id='9060'>0.31074E+02</wgt>
<wgt id='9061'>0.31074E+02</wgt>
<wgt id='9062'>0.31090E+02</wgt>
<wgt id='9063'>0.31088E+02</wgt>
<wgt id='9064'>0.31091E+02</wgt>
<wgt id='9065'>0.31066E+02</wgt>
<wgt id='9066'>0.31064E+02</wgt>
<wgt id='9067'>0.31069E+02</wgt>
<wgt id='9068'>0.31094E+02</wgt>
<wgt id='9069'>0.31099E+02</wgt>
<wgt id='9070'>0.31080E+02</wgt>
<wgt id='9071'>0.31080E+02</wgt>
<wgt id='9072'>0.31087E+02</wgt>
<wgt id='9073'>0.31076E+02</wgt>
<wgt id='9074'>0.31093E+02</wgt>
<wgt id='9075'>0.31072E+02</wgt>
<wgt id='9076'>0.31073E+02</wgt>
<wgt id='9077'>0.31096E+02</wgt>
<wgt id='9078'>0.31093E+02</wgt>
<wgt id='9079'>0.31059E+02</wgt>
<wgt id='9080'>0.31101E+02</wgt>
<wgt id='9081'>0.31076E+02</wgt>
<wgt id='9082'>0.31077E+02</wgt>
<wgt id='9083'>0.31068E+02</wgt>
<wgt id='9084'>0.31056E+02</wgt>
<wgt id='9085'>0.31059E+02</wgt>
<wgt id='9086'>0.31093E+02</wgt>
<wgt id='9087'>0.31039E+02</wgt>
<wgt id='9088'>0.31067E+02</wgt>
<wgt id='9089'>0.31067E+02</wgt>
<wgt id='9090'>0.31087E+02</wgt>
<wgt id='9091'>0.31068E+02</wgt>
<wgt id='9092'>0.31078E+02</wgt>
<wgt id='9093'>0.31068E+02</wgt>
<wgt id='9094'>0.31070E+02</wgt>
<wgt id='9095'>0.31080E+02</wgt>
<wgt id='9096'>0.31071E+02</wgt>
<wgt id='9097'>0.31081E+02</wgt>
<wgt id='9098'>0.31079E+02</wgt>
<wgt id='9099'>0.31064E+02</wgt>
<wgt id='9100'>0.31081E+02</wgt>
<wgt id='9101'>0.30531E+02</wgt>
<wgt id='9102'>0.31574E+02</wgt>
<wgt id='10000'>0.32509E+02</wgt>
<wgt id='10001'>0.32646E+02</wgt>
<wgt id='10002'>0.32448E+02</wgt>
<wgt id='10003'>0.32481E+02</wgt>
<wgt id='10004'>0.32507E+02</wgt>
<wgt id='10005'>0.33230E+02</wgt>
<wgt id='10006'>0.32454E+02</wgt>
<wgt id='10007'>0.32503E+02</wgt>
<wgt id='10008'>0.32510E+02</wgt>
<wgt id='10009'>0.32425E+02</wgt>
<wgt id='10010'>0.32505E+02</wgt>
<wgt id='10011'>0.32448E+02</wgt>
<wgt id='10012'>0.32478E+02</wgt>
<wgt id='10013'>0.32519E+02</wgt>
<wgt id='10014'>0.32510E+02</wgt>
<wgt id='10015'>0.32518E+02</wgt>
<wgt id='10016'>0.32504E+02</wgt>
<wgt id='10017'>0.32398E+02</wgt>
<wgt id='10018'>0.32534E+02</wgt>
<wgt id='10019'>0.32485E+02</wgt>
<wgt id='10020'>0.32549E+02</wgt>
<wgt id='10021'>0.32495E+02</wgt>
<wgt id='10022'>0.32683E+02</wgt>
<wgt id='10023'>0.32525E+02</wgt>
<wgt id='10024'>0.32473E+02</wgt>
<wgt id='10025'>0.32502E+02</wgt>
<wgt id='10026'>0.32516E+02</wgt>
<wgt id='10027'>0.32503E+02</wgt>
<wgt id='10028'>0.32548E+02</wgt>
<wgt id='10029'>0.32546E+02</wgt>
<wgt id='10030'>0.32491E+02</wgt>
<wgt id='10031'>0.31850E+02</wgt>
<wgt id='10032'>0.33104E+02</wgt>
<wgt id='11000'>0.31077E+02</wgt>
<wgt id='11001'>0.31141E+02</wgt>
<wgt id='11002'>0.31199E+02</wgt>
<wgt id='11003'>0.31047E+02</wgt>
<wgt id='11004'>0.31239E+02</wgt>
<wgt id='11005'>0.30963E+02</wgt>
<wgt id='11006'>0.31067E+02</wgt>
<wgt id='11007'>0.31021E+02</wgt>
<wgt id='11008'>0.31054E+02</wgt>
<wgt id='11009'>0.30904E+02</wgt>
<wgt id='11010'>0.31151E+02</wgt>
<wgt id='11011'>0.30939E+02</wgt>
<wgt id='11012'>0.31111E+02</wgt>
<wgt id='11013'>0.31205E+02</wgt>
<wgt id='11014'>0.30996E+02</wgt>
<wgt id='11015'>0.31077E+02</wgt>
<wgt id='11016'>0.31093E+02</wgt>
<wgt id='11017'>0.31252E+02</wgt>
<wgt id='11018'>0.31079E+02</wgt>
<wgt id='11019'>0.31052E+02</wgt>
<wgt id='11020'>0.31113E+02</wgt>
<wgt id='11021'>0.31181E+02</wgt>
<wgt id='11022'>0.31632E+02</wgt>
<wgt id='11023'>0.31061E+02</wgt>
<wgt id='11024'>0.31110E+02</wgt>
<wgt id='11025'>0.31004E+02</wgt>
<wgt id='11026'>0.31071E+02</wgt>
<wgt id='11027'>0.31069E+02</wgt>
<wgt id='11028'>0.31083E+02</wgt>
<wgt id='11029'>0.31068E+02</wgt>
<wgt id='11030'>0.31086E+02</wgt>
<wgt id='11031'>0.30531E+02</wgt>
<wgt id='11032'>0.31574E+02</wgt>
<wgt id='12000'>0.34139E+02</wgt>
<wgt id='12001'>0.34098E+02</wgt>
<wgt id='12002'>0.34180E+02</wgt>
<wgt id='12003'>0.34203E+02</wgt>
<wgt id='12004'>0.34076E+02</wgt>
<wgt id='12005'>0.34169E+02</wgt>
<wgt id='12006'>0.34109E+02</wgt>
<wgt id='12007'>0.34235E+02</wgt>
<wgt id='12008'>0.34046E+02</wgt>
<wgt id='12009'>0.34174E+02</wgt>
<wgt id='12010'>0.34106E+02</wgt>
<wgt id='12011'>0.34122E+02</wgt>
<wgt id='12012'>0.34162E+02</wgt>
<wgt id='12013'>0.34082E+02</wgt>
<wgt id='12014'>0.34198E+02</wgt>
<wgt id='12015'>0.34100E+02</wgt>
<wgt id='12016'>0.34136E+02</wgt>
<wgt id='12017'>0.34177E+02</wgt>
<wgt id='12018'>0.34097E+02</wgt>
<wgt id='12019'>0.34110E+02</wgt>
<wgt id='12020'>0.34171E+02</wgt>
<wgt id='12021'>0.34317E+02</wgt>
<wgt id='12022'>0.33937E+02</wgt>
<wgt id='12023'>0.34096E+02</wgt>
<wgt id='12024'>0.34083E+02</wgt>
<wgt id='12025'>0.34233E+02</wgt>
<wgt id='12026'>0.34059E+02</wgt>
<wgt id='12027'>0.34032E+02</wgt>
<wgt id='12028'>0.34276E+02</wgt>
<wgt id='12050'>0.34139E+02</wgt>
<wgt id='12051'>0.34130E+02</wgt>
<wgt id='12052'>0.34153E+02</wgt>
<wgt id='12053'>0.34129E+02</wgt>
<wgt id='12054'>0.34148E+02</wgt>
<wgt id='12055'>0.34190E+02</wgt>
<wgt id='12056'>0.33891E+02</wgt>
<wgt id='12057'>0.34019E+02</wgt>
<wgt id='12058'>0.34249E+02</wgt>
<wgt id='12059'>0.34066E+02</wgt>
<wgt id='12060'>0.34218E+02</wgt>
<wgt id='12061'>0.34172E+02</wgt>
<wgt id='12062'>0.34175E+02</wgt>
<wgt id='12063'>0.33864E+02</wgt>
<wgt id='13000'>0.30973E+02</wgt>
<wgt id='13001'>0.30953E+02</wgt>
<wgt id='13002'>0.30994E+02</wgt>
<wgt id='13003'>0.31005E+02</wgt>
<wgt id='13004'>0.30942E+02</wgt>
<wgt id='13005'>0.31016E+02</wgt>
<wgt id='13006'>0.30931E+02</wgt>
<wgt id='13007'>0.31086E+02</wgt>
<wgt id='13008'>0.30864E+02</wgt>
<wgt id='13009'>0.30997E+02</wgt>
<wgt id='13010'>0.30952E+02</wgt>
<wgt id='13011'>0.31024E+02</wgt>
<wgt id='13012'>0.30924E+02</wgt>
<wgt id='13013'>0.30949E+02</wgt>
<wgt id='13014'>0.30998E+02</wgt>
<wgt id='13015'>0.30938E+02</wgt>
<wgt id='13016'>0.30981E+02</wgt>
<wgt id='13017'>0.30979E+02</wgt>
<wgt id='13018'>0.30965E+02</wgt>
<wgt id='13019'>0.31012E+02</wgt>
<wgt id='13020'>0.30939E+02</wgt>
<wgt id='13021'>0.30752E+02</wgt>
<wgt id='13022'>0.31170E+02</wgt>
<wgt id='13023'>0.30983E+02</wgt>
<wgt id='13024'>0.30943E+02</wgt>
<wgt id='13025'>0.30927E+02</wgt>
<wgt id='13026'>0.30946E+02</wgt>
<wgt id='13027'>0.30987E+02</wgt>
<wgt id='13028'>0.30991E+02</wgt>
<wgt id='13050'>0.30974E+02</wgt>
<wgt id='13051'>0.30987E+02</wgt>
<wgt id='13052'>0.31068E+02</wgt>
<wgt id='13053'>0.30984E+02</wgt>
<wgt id='13054'>0.30957E+02</wgt>
<wgt id='13055'>0.30870E+02</wgt>
<wgt id='13056'>0.31075E+02</wgt>
<wgt id='13057'>0.30881E+02</wgt>
<wgt id='13058'>0.31108E+02</wgt>
<wgt id='13059'>0.30929E+02</wgt>
<wgt id='13060'>0.31021E+02</wgt>
<wgt id='13061'>0.30938E+02</wgt>
<wgt id='13062'>0.31137E+02</wgt>
<wgt id='13063'>0.30877E+02</wgt>
<wgt id='14000'>0.32137E+02</wgt>
<wgt id='14001'>0.32132E+02</wgt>
<wgt id='14002'>0.32128E+02</wgt>
<wgt id='14003'>0.32123E+02</wgt>
<wgt id='14004'>0.32118E+02</wgt>
<wgt id='14005'>0.32113E+02</wgt>
<wgt id='14006'>0.32109E+02</wgt>
<wgt id='14007'>0.32104E+02</wgt>
<wgt id='14008'>0.32099E+02</wgt>
<wgt id='14009'>0.32094E+02</wgt>
<wgt id='14010'>0.32090E+02</wgt>
<wgt id='14011'>0.32085E+02</wgt>
<wgt id='14012'>0.32080E+02</wgt>
<wgt id='14013'>0.32075E+02</wgt>
<wgt id='14014'>0.32070E+02</wgt>
<wgt id='14015'>0.32065E+02</wgt>
<wgt id='14016'>0.32061E+02</wgt>
<wgt id='14017'>0.32056E+02</wgt>
<wgt id='14018'>0.32051E+02</wgt>
<wgt id='14019'>0.32046E+02</wgt>
<wgt id='14020'>0.32042E+02</wgt>
<wgt id='14021'>0.32037E+02</wgt>
<wgt id='14022'>0.32032E+02</wgt>
<wgt id='14023'>0.32027E+02</wgt>
<wgt id='14024'>0.32023E+02</wgt>
<wgt id='14025'>0.32018E+02</wgt>
<wgt id='14026'>0.32013E+02</wgt>
<wgt id='14027'>0.32008E+02</wgt>
<wgt id='14028'>0.32003E+02</wgt>
<wgt id='14029'>0.31999E+02</wgt>
<wgt id='14030'>0.31994E+02</wgt>
<wgt id='15000'>0.30703E+02</wgt>
<wgt id='15001'>0.30777E+02</wgt>
<wgt id='15002'>0.30873E+02</wgt>
<wgt id='15003'>0.30456E+02</wgt>
<wgt id='15004'>0.30660E+02</wgt>
<wgt id='15005'>0.30848E+02</wgt>
<wgt id='15006'>0.30598E+02</wgt>
<wgt id='15007'>0.30719E+02</wgt>
<wgt id='15008'>0.30725E+02</wgt>
<wgt id='15009'>0.30675E+02</wgt>
<wgt id='15010'>0.30654E+02</wgt>
<wgt id='15011'>0.30942E+02</wgt>
<wgt id='15012'>0.30406E+02</wgt>
<wgt id='15013'>0.30380E+02</wgt>
<wgt id='15014'>0.30476E+02</wgt>
<wgt id='15015'>0.30730E+02</wgt>
<wgt id='15016'>0.30762E+02</wgt>
<wgt id='15017'>0.30727E+02</wgt>
<wgt id='15018'>0.30718E+02</wgt>
<wgt id='15019'>0.30691E+02</wgt>
<wgt id='15020'>0.30628E+02</wgt>
<wgt id='15021'>0.30692E+02</wgt>
<wgt id='15022'>0.30771E+02</wgt>
<wgt id='15023'>0.30555E+02</wgt>
<wgt id='15024'>0.30655E+02</wgt>
<wgt id='15025'>0.30815E+02</wgt>
<wgt id='15026'>0.30707E+02</wgt>
<wgt id='15027'>0.30669E+02</wgt>
<wgt id='15028'>0.30725E+02</wgt>
<wgt id='15029'>0.30729E+02</wgt>
<wgt id='15030'>0.30688E+02</wgt>
<wgt id='15031'>0.30661E+02</wgt>
<wgt id='15032'>0.30700E+02</wgt>
<wgt id='15033'>0.30738E+02</wgt>
<wgt id='15034'>0.30740E+02</wgt>
<wgt id='15035'>0.30758E+02</wgt>
<wgt id='15036'>0.30707E+02</wgt>
<wgt id='15037'>0.30715E+02</wgt>
<wgt id='15038'>0.30700E+02</wgt>
<wgt id='15039'>0.30693E+02</wgt>
<wgt id='15040'>0.30687E+02</wgt>
<wgt id='15041'>0.30681E+02</wgt>
<wgt id='15042'>0.30729E+02</wgt>
<wgt id='15043'>0.30675E+02</wgt>
<wgt id='15044'>0.30729E+02</wgt>
<wgt id='15045'>0.30713E+02</wgt>
<wgt id='15046'>0.30662E+02</wgt>
<wgt id='15047'>0.30693E+02</wgt>
<wgt id='15048'>0.30716E+02</wgt>
<wgt id='15049'>0.30686E+02</wgt>
<wgt id='15050'>0.30708E+02</wgt>
<wgt id='15051'>0.30727E+02</wgt>
<wgt id='15052'>0.30727E+02</wgt>
<wgt id='15053'>0.30723E+02</wgt>
<wgt id='15054'>0.30681E+02</wgt>
<wgt id='15055'>0.30687E+02</wgt>
<wgt id='15056'>0.30710E+02</wgt>
<wgt id='15057'>0.30694E+02</wgt>
<wgt id='15058'>0.30694E+02</wgt>
<wgt id='15059'>0.30684E+02</wgt>
<wgt id='15060'>0.30699E+02</wgt>
<wgt id='15061'>0.30699E+02</wgt>
<wgt id='15062'>0.30715E+02</wgt>
<wgt id='15063'>0.30713E+02</wgt>
<wgt id='15064'>0.30715E+02</wgt>
<wgt id='15065'>0.30691E+02</wgt>
<wgt id='15066'>0.30689E+02</wgt>
<wgt id='15067'>0.30694E+02</wgt>
<wgt id='15068'>0.30718E+02</wgt>
<wgt id='15069'>0.30724E+02</wgt>
<wgt id='15070'>0.30705E+02</wgt>
<wgt id='15071'>0.30705E+02</wgt>
<wgt id='15072'>0.30712E+02</wgt>
<wgt id='15073'>0.30700E+02</wgt>
<wgt id='15074'>0.30718E+02</wgt>
<wgt id='15075'>0.30696E+02</wgt>
<wgt id='15076'>0.30697E+02</wgt>
<wgt id='15077'>0.30720E+02</wgt>
<wgt id='15078'>0.30718E+02</wgt>
<wgt id='15079'>0.30684E+02</wgt>
<wgt id='15080'>0.30725E+02</wgt>
<wgt id='15081'>0.30700E+02</wgt>
<wgt id='15082'>0.30702E+02</wgt>
<wgt id='15083'>0.30692E+02</wgt>
<wgt id='15084'>0.30681E+02</wgt>
<wgt id='15085'>0.30683E+02</wgt>
<wgt id='15086'>0.30717E+02</wgt>
<wgt id='15087'>0.30664E+02</wgt>
<wgt id='15088'>0.30692E+02</wgt>
<wgt id='15089'>0.30692E+02</wgt>
<wgt id='15090'>0.30712E+02</wgt>
<wgt id='15091'>0.30693E+02</wgt>
<wgt id='15092'>0.30703E+02</wgt>
<wgt id='15093'>0.30692E+02</wgt>
<wgt id='15094'>0.30694E+02</wgt>
<wgt id='15095'>0.30705E+02</wgt>
<wgt id='15096'>0.30696E+02</wgt>
<wgt id='15097'>0.30706E+02</wgt>
<wgt id='15098'>0.30704E+02</wgt>
<wgt id='15099'>0.30689E+02</wgt>
<wgt id='15100'>0.30706E+02</wgt>
<wgt id='15101'>0.30702E+02</wgt>
<wgt id='15102'>0.30701E+02</wgt>
<wgt id='15103'>0.30703E+02</wgt>
<wgt id='15104'>0.30703E+02</wgt>
<wgt id='15105'>0.30704E+02</wgt>
<wgt id='15106'>0.30703E+02</wgt>
<wgt id='15107'>0.30701E+02</wgt>
<wgt id='1500'>0.32414E+02</wgt>
<wgt id='1501'>0.29832E+02</wgt>
<wgt id='1502'>0.32796E+02</wgt>
<wgt id='1503'>0.32522E+02</wgt>
<wgt id='1504'>0.32254E+02</wgt>
<wgt id='1505'>0.28877E+02</wgt>
<wgt id='1506'>0.32465E+02</wgt>
<wgt id='1507'>0.32597E+02</wgt>
<wgt id='1508'>0.32389E+02</wgt>
<wgt id='1509'>0.32644E+02</wgt>
<wgt id='1510'>0.31830E+02</wgt>
<wgt id='1511'>0.32379E+02</wgt>
<wgt id='1512'>0.33015E+02</wgt>
<wgt id='1513'>0.33160E+02</wgt>
<wgt id='1514'>0.31965E+02</wgt>
<wgt id='1515'>0.32526E+02</wgt>
<wgt id='1516'>0.32750E+02</wgt>
<wgt id='1517'>0.32914E+02</wgt>
<wgt id='1518'>0.32307E+02</wgt>
<wgt id='1519'>0.32309E+02</wgt>
<wgt id='1520'>0.32526E+02</wgt>
<wgt id='1521'>0.32368E+02</wgt>
<wgt id='1522'>0.31820E+02</wgt>
<wgt id='1523'>0.34509E+02</wgt>
<wgt id='1524'>0.31957E+02</wgt>
<wgt id='1525'>0.32816E+02</wgt>
<wgt id='1526'>0.31722E+02</wgt>
<wgt id='1527'>0.32869E+02</wgt>
<wgt id='1528'>0.32500E+02</wgt>
<wgt id='1529'>0.32172E+02</wgt>
<wgt id='1530'>0.32674E+02</wgt>
<wgt id='1531'>0.32069E+02</wgt>
<wgt id='1532'>0.31714E+02</wgt>
<wgt id='1533'>0.33013E+02</wgt>
<wgt id='1534'>0.32060E+02</wgt>
<wgt id='1535'>0.33596E+02</wgt>
<wgt id='1536'>0.33185E+02</wgt>
<wgt id='1537'>0.32766E+02</wgt>
<wgt id='1538'>0.31729E+02</wgt>
<wgt id='1539'>0.31243E+02</wgt>
<wgt id='1540'>0.32707E+02</wgt>
<wgt id='1541'>0.31853E+02</wgt>
<wgt id='1542'>0.33039E+02</wgt>
<wgt id='1543'>0.32819E+02</wgt>
<wgt id='1544'>0.32313E+02</wgt>
<wgt id='1545'>0.32875E+02</wgt>
<wgt id='1546'>0.31958E+02</wgt>
<wgt id='1547'>0.32382E+02</wgt>
<wgt id='1548'>0.31962E+02</wgt>
<wgt id='1549'>0.32821E+02</wgt>
<wgt id='1550'>0.32619E+02</wgt>
<wgt id='1551'>0.32612E+02</wgt>
<wgt id='1552'>0.32647E+02</wgt>
<wgt id='1553'>0.32465E+02</wgt>
<wgt id='1554'>0.32915E+02</wgt>
<wgt id='1555'>0.32607E+02</wgt>
<wgt id='1556'>0.31874E+02</wgt>
<wgt id='1557'>0.33416E+02</wgt>
<wgt id='1558'>0.32410E+02</wgt>
<wgt id='1559'>0.32599E+02</wgt>
<wgt id='1560'>0.32202E+02</wgt>
<wgt id='1561'>0.32402E+02</wgt>
<wgt id='1562'>0.32353E+02</wgt>
<wgt id='1563'>0.33106E+02</wgt>
<wgt id='1564'>0.32547E+02</wgt>
<wgt id='1565'>0.33313E+02</wgt>
<wgt id='1566'>0.32204E+02</wgt>
<wgt id='1567'>0.33690E+02</wgt>
<wgt id='1568'>0.31957E+02</wgt>
<wgt id='1569'>0.32255E+02</wgt>
<wgt id='1570'>0.33009E+02</wgt>
<wgt id='1571'>0.32918E+02</wgt>
<wgt id='1572'>0.32099E+02</wgt>
<wgt id='1573'>0.30693E+02</wgt>
<wgt id='1574'>0.32942E+02</wgt>
<wgt id='1575'>0.32211E+02</wgt>
<wgt id='1576'>0.31650E+02</wgt>
<wgt id='1577'>0.32383E+02</wgt>
<wgt id='1578'>0.33779E+02</wgt>
<wgt id='1579'>0.32309E+02</wgt>
<wgt id='1580'>0.32471E+02</wgt>
<wgt id='1581'>0.32310E+02</wgt>
<wgt id='1582'>0.32166E+02</wgt>
<wgt id='1583'>0.32506E+02</wgt>
<wgt id='1584'>0.32385E+02</wgt>
<wgt id='1585'>0.31847E+02</wgt>
<wgt id='1586'>0.32573E+02</wgt>
<wgt id='1587'>0.32758E+02</wgt>
<wgt id='1588'>0.32685E+02</wgt>
<wgt id='1589'>0.33098E+02</wgt>
<wgt id='1590'>0.32415E+02</wgt>
<wgt id='1591'>0.31572E+02</wgt>
<wgt id='1592'>0.33027E+02</wgt>
<wgt id='1593'>0.32169E+02</wgt>
<wgt id='1594'>0.32984E+02</wgt>
<wgt id='1595'>0.32310E+02</wgt>
<wgt id='1596'>0.32767E+02</wgt>
<wgt id='1597'>0.32931E+02</wgt>
<wgt id='1598'>0.33241E+02</wgt>
<wgt id='1599'>0.33456E+02</wgt>
<wgt id='1600'>0.32602E+02</wgt>
<wgt id='1601'>0.31876E+02</wgt>
<wgt id='1602'>0.32805E+02</wgt>
<wgt id='1700'>0.31209E+02</wgt>
<wgt id='1800'>0.36991E+02</wgt>
<wgt id='1850'>0.44207E+02</wgt>
<wgt id='1900'>0.36623E+02</wgt>
<wgt id='1950'>0.43096E+02</wgt>
</rwgt>
</event>
<event>
      4   9999  3.15120E+01  3.65340E+01 -1.00000E+00  1.45065E-01
      21    -1     0     0   512   501  0.000000000E+00  0.000000000E+00  7.518579611E+01  7.518579611E+01  0.000000000E+00  0.00000E+00  9.000E+00
      21    -1     0     0   501   502  0.000000000E+00  0.000000000E+00 -3.184146312E+02  3.184146312E+02  0.000000000E+00  0.00000E+00  9.000E+00
      25     1     1     2     0     0  3.461031273E+01 -1.169883761E+01 -3.005178242E+02  3.256536480E+02  1.200191620E+02  0.00000E+00  9.000E+00
      21     1     1     2   512   502 -3.461031273E+01  1.169883761E+01  5.728898910E+01  6.794677933E+01  6.743495762E-07  0.00000E+00  9.000E+00
#rwgt            1           1   24.677982360559170                1         948           0
<rwgt>
<wgt id='1001'>0.31512E+02</wgt>
<wgt id='1002'>0.35341E+02</wgt>
<wgt id='1003'>0.27474E+02</wgt>
<wgt id='1004'>0.26036E+02</wgt>
<wgt id='1005'>0.29012E+02</wgt>
<wgt id='1006'>0.22863E+02</wgt>
<wgt id='1007'>0.38974E+02</wgt>
<wgt id='1008'>0.44053E+02</wgt>
<wgt id='1009'>0.33685E+02</wgt>
<wgt id='2000'>0.31512E+02</wgt>
<wgt id='2001'>0.31462E+02</wgt>
<wgt id='2002'>0.31566E+02</wgt>
<wgt id='2003'>0.31534E+02</wgt>
<wgt id='2004'>0.31527E+02</wgt>
<wgt id='2005'>0.31507E+02</wgt>
<wgt id='2006'>0.31488E+02</wgt>
<wgt id='2007'>0.31500E+02</wgt>
<wgt id='2008'>0.31551E+02</wgt>
<wgt id='2009'>0.31483E+02</wgt>
<wgt id='2010'>0.31472E+02</wgt>
<wgt id='2011'>0.31569E+02</wgt>
<wgt id='2012'>0.31576E+02</wgt>
<wgt id='2013'>0.31553E+02</wgt>
<wgt id='2014'>0.31568E+02</wgt>
<wgt id='2015'>0.31560E+02</wgt>
<wgt id='2016'>0.31538E+02</wgt>
<wgt id='2017'>0.31508E+02</wgt>
<wgt id='2018'>0.31556E+02</wgt>
<wgt id='2019'>0.31513E+02</wgt>
<wgt id='2020'>0.31618E+02</wgt>
<wgt id='2021'>0.31463E+02</wgt>
<wgt id='2022'>0.31608E+02</wgt>
<wgt id='2023'>0.31576E+02</wgt>
<wgt id='2024'>0.31502E+02</wgt>
<wgt id='2025'>0.31635E+02</wgt>
<wgt id='2026'>0.31602E+02</wgt>
<wgt id='2027'>0.31475E+02</wgt>
<wgt id='2028'>0.31445E+02</wgt>
<wgt id='2029'>0.31550E+02</wgt>
<wgt id='2030'>0.31516E+02</wgt>
<wgt id='2031'>0.31553E+02</wgt>
<wgt id='2032'>0.31482E+02</wgt>
<wgt id='2033'>0.31513E+02</wgt>
<wgt id='2034'>0.31549E+02</wgt>
<wgt id='2035'>0.31505E+02</wgt>
<wgt id='2036'>0.31537E+02</wgt>
<wgt id='2037'>0.31529E+02</wgt>
<wgt id='2038'>0.31518E+02</wgt>
<wgt id='2039'>0.31506E+02</wgt>
<wgt id='2040'>0.31534E+02</wgt>
<wgt id='2041'>0.31517E+02</wgt>
<wgt id='2042'>0.31480E+02</wgt>
<wgt id='2043'>0.31536E+02</wgt>
<wgt id='2044'>0.31533E+02</wgt>
<wgt id='2045'>0.31511E+02</wgt>
<wgt id='2046'>0.31523E+02</wgt>
<wgt id='2047'>0.31534E+02</wgt>
<wgt id='2048'>0.31513E+02</wgt>
<wgt id='2049'>0.31514E+02</wgt>
<wgt id='2050'>0.31519E+02</wgt>
<wgt id='2051'>0.31528E+02</wgt>
<wgt id='2052'>0.31501E+02</wgt>
<wgt id='2053'>0.31505E+02</wgt>
<wgt id='2054'>0.31510E+02</wgt>
<wgt id='2055'>0.31516E+02</wgt>
<wgt id='2056'>0.31514E+02</wgt>
<wgt id='2057'>0.31513E+02</wgt>
<wgt id='2058'>0.31523E+02</wgt>
<wgt id='2059'>0.31511E+02</wgt>
<wgt id='2060'>0.31523E+02</wgt>
<wgt id='2061'>0.31502E+02</wgt>
<wgt id='2062'>0.31503E+02</wgt>
<wgt id='2063'>0.31517E+02</wgt>
<wgt id='2064'>0.31498E+02</wgt>
<wgt id='2065'>0.31507E+02</wgt>
<wgt id='2066'>0.31497E+02</wgt>
<wgt id='2067'>0.31513E+02</wgt>
<wgt id='2068'>0.31518E+02</wgt>
<wgt id='2069'>0.31519E+02</wgt>
<wgt id='2070'>0.31517E+02</wgt>
<wgt id='2071'>0.31505E+02</wgt>
<wgt id='2072'>0.31515E+02</wgt>
<wgt id='2073'>0.31512E+02</wgt>
<wgt id='2074'>0.31515E+02</wgt>
<wgt id='2075'>0.31507E+02</wgt>
<wgt id='2076'>0.31516E+02</wgt>
<wgt id='2077'>0.31504E+02</wgt>
<wgt id='2078'>0.31513E+02</wgt>
<wgt id='2079'>0.31518E+02</wgt>
<wgt id='2080'>0.31511E+02</wgt>
<wgt id='2081'>0.31516E+02</wgt>
<wgt id='2082'>0.31516E+02</wgt>
<wgt id='2083'>0.31506E+02</wgt>
<wgt id='2084'>0.31511E+02</wgt>
<wgt id='2085'>0.31506E+02</wgt>
<wgt id='2086'>0.31513E+02</wgt>
<wgt id='2087'>0.31511E+02</wgt>
<wgt id='2088'>0.31513E+02</wgt>
<wgt id='2089'>0.31516E+02</wgt>
<wgt id='2090'>0.31514E+02</wgt>
<wgt id='2091'>0.31507E+02</wgt>
<wgt id='2092'>0.31508E+02</wgt>
<wgt id='2093'>0.31512E+02</wgt>
<wgt id='2094'>0.31508E+02</wgt>
<wgt id='2095'>0.31510E+02</wgt>
<wgt id='2096'>0.31512E+02</wgt>
<wgt id='2097'>0.31516E+02</wgt>
<wgt id='2098'>0.31508E+02</wgt>
<wgt id='2099'>0.31516E+02</wgt>
<wgt id='2100'>0.31510E+02</wgt>
<wgt id='2101'>0.30585E+02</wgt>
<wgt id='2102'>0.32397E+02</wgt>
<wgt id='2104'>0.27195E+02</wgt>
<wgt id='2105'>0.27991E+02</wgt>
<wgt id='2106'>0.28855E+02</wgt>
<wgt id='2107'>0.29743E+02</wgt>
<wgt id='2108'>0.31077E+02</wgt>
<wgt id='2109'>0.31995E+02</wgt>
<wgt id='2110'>0.33215E+02</wgt>
<wgt id='2111'>0.34111E+02</wgt>
<wgt id='3000'>0.33057E+02</wgt>
<wgt id='3001'>0.33115E+02</wgt>
<wgt id='3002'>0.32997E+02</wgt>
<wgt id='3003'>0.33087E+02</wgt>
<wgt id='3004'>0.33089E+02</wgt>
<wgt id='3005'>0.33086E+02</wgt>
<wgt id='3006'>0.33060E+02</wgt>
<wgt id='3007'>0.33027E+02</wgt>
<wgt id='3008'>0.33028E+02</wgt>
<wgt id='3009'>0.32951E+02</wgt>
<wgt id='3010'>0.33004E+02</wgt>
<wgt id='3011'>0.33096E+02</wgt>
<wgt id='3012'>0.33146E+02</wgt>
<wgt id='3013'>0.32995E+02</wgt>
<wgt id='3014'>0.33083E+02</wgt>
<wgt id='3015'>0.33050E+02</wgt>
<wgt id='3016'>0.33075E+02</wgt>
<wgt id='3017'>0.33091E+02</wgt>
<wgt id='3018'>0.33121E+02</wgt>
<wgt id='3019'>0.33003E+02</wgt>
<wgt id='3020'>0.32973E+02</wgt>
<wgt id='3021'>0.32950E+02</wgt>
<wgt id='3022'>0.33050E+02</wgt>
<wgt id='3023'>0.32986E+02</wgt>
<wgt id='3024'>0.32958E+02</wgt>
<wgt id='3025'>0.33060E+02</wgt>
<wgt id='3026'>0.33127E+02</wgt>
<wgt id='3027'>0.33067E+02</wgt>
<wgt id='3028'>0.32947E+02</wgt>
<wgt id='3029'>0.33021E+02</wgt>
<wgt id='3030'>0.33104E+02</wgt>
<wgt id='3031'>0.33080E+02</wgt>
<wgt id='3032'>0.33098E+02</wgt>
<wgt id='3033'>0.33104E+02</wgt>
<wgt id='3034'>0.33078E+02</wgt>
<wgt id='3035'>0.33096E+02</wgt>
<wgt id='3036'>0.33068E+02</wgt>
<wgt id='3037'>0.33062E+02</wgt>
<wgt id='3038'>0.33061E+02</wgt>
<wgt id='3039'>0.33025E+02</wgt>
<wgt id='3040'>0.33070E+02</wgt>
<wgt id='3041'>0.33077E+02</wgt>
<wgt id='3042'>0.33027E+02</wgt>
<wgt id='3043'>0.33034E+02</wgt>
<wgt id='3044'>0.33057E+02</wgt>
<wgt id='3045'>0.33078E+02</wgt>
<wgt id='3046'>0.33073E+02</wgt>
<wgt id='3047'>0.33048E+02</wgt>
<wgt id='3048'>0.33080E+02</wgt>
<wgt id='3049'>0.33054E+02</wgt>
<wgt id='3050'>0.33063E+02</wgt>
<wgt id='3051'>0.33088E+02</wgt>
<wgt id='3052'>0.33052E+02</wgt>
<wgt id='3053'>0.33049E+02</wgt>
<wgt id='3054'>0.33050E+02</wgt>
<wgt id='3055'>0.33056E+02</wgt>
<wgt id='3056'>0.33061E+02</wgt>
<wgt id='3057'>0.33041E+02</wgt>
<wgt id='3058'>0.33050E+02</wgt>
<wgt id='3059'>0.33054E+02</wgt>
<wgt id='3060'>0.33060E+02</wgt>
<wgt id='3061'>0.33062E+02</wgt>
<wgt id='3062'>0.33057E+02</wgt>
<wgt id='3063'>0.33066E+02</wgt>
<wgt id='3064'>0.33055E+02</wgt>
<wgt id='3065'>0.33063E+02</wgt>
<wgt id='3066'>0.33060E+02</wgt>
<wgt id='3067'>0.33053E+02</wgt>
<wgt id='3068'>0.33055E+02</wgt>
<wgt id='3069'>0.33046E+02</wgt>
<wgt id='3070'>0.33052E+02</wgt>
<wgt id='3071'>0.33060E+02</wgt>
<wgt id='3072'>0.33065E+02</wgt>
<wgt id='3073'>0.33059E+02</wgt>
<wgt id='3074'>0.33064E+02</wgt>
<wgt id='3075'>0.33064E+02</wgt>
<wgt id='3076'>0.33057E+02</wgt>
<wgt id='3077'>0.33056E+02</wgt>
<wgt id='3078'>0.33062E+02</wgt>
<wgt id='3079'>0.33054E+02</wgt>
<wgt id='3080'>0.33052E+02</wgt>
<wgt id='3081'>0.33054E+02</wgt>
<wgt id='3082'>0.33054E+02</wgt>
<wgt id='3083'>0.33060E+02</wgt>
<wgt id='3084'>0.33055E+02</wgt>
<wgt id='3085'>0.33064E+02</wgt>
<wgt id='3086'>0.33065E+02</wgt>
<wgt id='3087'>0.33058E+02</wgt>
<wgt id='3088'>0.33054E+02</wgt>
<wgt id='3089'>0.33059E+02</wgt>
<wgt id='3090'>0.33061E+02</wgt>
<wgt id='3091'>0.33054E+02</wgt>
<wgt id='3092'>0.33053E+02</wgt>
<wgt id='3093'>0.33059E+02</wgt>
<wgt id='3094'>0.33062E+02</wgt>
<wgt id='3095'>0.33057E+02</wgt>
<wgt id='3096'>0.33049E+02</wgt>
<wgt id='3097'>0.33054E+02</wgt>
<wgt id='3098'>0.33050E+02</wgt>
<wgt id='3099'>0.33058E+02</wgt>
<wgt id='3100'>0.33060E+02</wgt>
<wgt id='3101'>0.32066E+02</wgt>
<wgt id='3102'>0.34126E+02</wgt>
<wgt id='5000'>0.30508E+02</wgt>
<wgt id='5001'>0.30449E+02</wgt>
<wgt id='5002'>0.30440E+02</wgt>
<wgt id='5003'>0.30424E+02</wgt>
<wgt id='5004'>0.30479E+02</wgt>
<wgt id='5005'>0.30179E+02</wgt>
<wgt id='5006'>0.30494E+02</wgt>
<wgt id='5007'>0.30449E+02</wgt>
<wgt id='5008'>0.30397E+02</wgt>
<wgt id='5009'>0.30679E+02</wgt>
<wgt id='5010'>0.30402E+02</wgt>
<wgt id='5011'>0.30505E+02</wgt>
<wgt id='5012'>0.30453E+02</wgt>
<wgt id='5013'>0.30108E+02</wgt>
<wgt id='5014'>0.30610E+02</wgt>
<wgt id='5015'>0.30667E+02</wgt>
<wgt id='5016'>0.30002E+02</wgt>
<wgt id='5017'>0.30466E+02</wgt>
<wgt id='5018'>0.30556E+02</wgt>
<wgt id='5019'>0.30444E+02</wgt>
<wgt id='5020'>0.30576E+02</wgt>
<wgt id='5021'>0.30577E+02</wgt>
<wgt id='5022'>0.30463E+02</wgt>
<wgt id='5023'>0.30385E+02</wgt>
<wgt id='5024'>0.30635E+02</wgt>
<wgt id='5025'>0.30493E+02</wgt>
<wgt id='5026'>0.30520E+02</wgt>
<wgt id='5027'>0.30769E+02</wgt>
<wgt id='5028'>0.30063E+02</wgt>
<wgt id='5029'>0.30027E+02</wgt>
<wgt id='5030'>0.30796E+02</wgt>
<wgt id='5031'>0.30227E+02</wgt>
<wgt id='5032'>0.30912E+02</wgt>
<wgt id='5033'>0.30347E+02</wgt>
<wgt id='5034'>0.30643E+02</wgt>
<wgt id='5035'>0.30181E+02</wgt>
<wgt id='5036'>0.30780E+02</wgt>
<wgt id='5037'>0.30312E+02</wgt>
<wgt id='5038'>0.30717E+02</wgt>
<wgt id='5039'>0.31010E+02</wgt>
<wgt id='5040'>0.30254E+02</wgt>
<wgt id='5041'>0.30344E+02</wgt>
<wgt id='5042'>0.30505E+02</wgt>
<wgt id='5043'>0.30684E+02</wgt>
<wgt id='5044'>0.29933E+02</wgt>
<wgt id='5045'>0.31037E+02</wgt>
<wgt id='5046'>0.30340E+02</wgt>
<wgt id='5047'>0.30568E+02</wgt>
<wgt id='5048'>0.30711E+02</wgt>
<wgt id='5049'>0.30515E+02</wgt>
<wgt id='5050'>0.30568E+02</wgt>
<wgt id='5051'>0.30557E+02</wgt>
<wgt id='5052'>0.30502E+02</wgt>
<wgt id='5053'>0.30042E+02</wgt>
<wgt id='5054'>0.30522E+02</wgt>
<wgt id='5055'>0.30326E+02</wgt>
<wgt id='5056'>0.30774E+02</wgt>
<wgt id='5060'>0.29535E+02</wgt>
<wgt id='5070'>0.31446E+02</wgt>
<wgt id='4000'>0.32126E+02</wgt>
<wgt id='4001'>0.32145E+02</wgt>
<wgt id='4002'>0.32195E+02</wgt>
<wgt id='4003'>0.32277E+02</wgt>
<wgt id='4004'>0.32036E+02</wgt>
<wgt id='4005'>0.32217E+02</wgt>
<wgt id='4006'>0.32061E+02</wgt>
<wgt id='4007'>0.32280E+02</wgt>
<wgt id='4008'>0.32093E+02</wgt>
<wgt id='4009'>0.31682E+02</wgt>
<wgt id='4010'>0.32347E+02</wgt>
<wgt id='4011'>0.32522E+02</wgt>
<wgt id='4012'>0.31890E+02</wgt>
<wgt id='4013'>0.31207E+02</wgt>
<wgt id='4014'>0.32644E+02</wgt>
<wgt id='4015'>0.32483E+02</wgt>
<wgt id='4016'>0.31897E+02</wgt>
<wgt id='4017'>0.31756E+02</wgt>
<wgt id='4018'>0.32564E+02</wgt>
<wgt id='4019'>0.32452E+02</wgt>
<wgt id='4020'>0.31759E+02</wgt>
<wgt id='4021'>0.32173E+02</wgt>
<wgt id='4022'>0.32014E+02</wgt>
<wgt id='4023'>0.32027E+02</wgt>
<wgt id='4024'>0.32207E+02</wgt>
<wgt id='4025'>0.31923E+02</wgt>
<wgt id='4026'>0.32307E+02</wgt>
<wgt id='4027'>0.32053E+02</wgt>
<wgt id='4028'>0.32221E+02</wgt>
<wgt id='4029'>0.31946E+02</wgt>
<wgt id='4030'>0.32187E+02</wgt>
<wgt id='4031'>0.32175E+02</wgt>
<wgt id='4032'>0.32061E+02</wgt>
<wgt id='4033'>0.32076E+02</wgt>
<wgt id='4034'>0.32233E+02</wgt>
<wgt id='4035'>0.32409E+02</wgt>
<wgt id='4036'>0.31854E+02</wgt>
<wgt id='4037'>0.32280E+02</wgt>
<wgt id='4038'>0.31847E+02</wgt>
<wgt id='4039'>0.32075E+02</wgt>
<wgt id='4040'>0.32123E+02</wgt>
<wgt id='4041'>0.32290E+02</wgt>
<wgt id='4042'>0.31981E+02</wgt>
<wgt id='4043'>0.32236E+02</wgt>
<wgt id='4044'>0.32061E+02</wgt>
<wgt id='4045'>0.31742E+02</wgt>
<wgt id='4046'>0.32105E+02</wgt>
<wgt id='4047'>0.31963E+02</wgt>
<wgt id='4048'>0.32040E+02</wgt>
<wgt id='4049'>0.31918E+02</wgt>
<wgt id='4050'>0.31917E+02</wgt>
<wgt id='4051'>0.32064E+02</wgt>
<wgt id='4052'>0.32086E+02</wgt>
<wgt id='4053'>0.31246E+02</wgt>
<wgt id='4054'>0.32152E+02</wgt>
<wgt id='4055'>0.31949E+02</wgt>
<wgt id='4056'>0.32379E+02</wgt>
<wgt id='4060'>0.31023E+02</wgt>
<wgt id='4070'>0.33209E+02</wgt>
<wgt id='4080'>0.33035E+02</wgt>
<wgt id='6000'>0.32652E+02</wgt>
<wgt id='6001'>0.32687E+02</wgt>
<wgt id='6002'>0.32615E+02</wgt>
<wgt id='6003'>0.32669E+02</wgt>
<wgt id='6004'>0.32641E+02</wgt>
<wgt id='6005'>0.32706E+02</wgt>
<wgt id='6006'>0.32602E+02</wgt>
<wgt id='6007'>0.32538E+02</wgt>
<wgt id='6008'>0.32779E+02</wgt>
<wgt id='6009'>0.32779E+02</wgt>
<wgt id='6010'>0.32528E+02</wgt>
<wgt id='6011'>0.32725E+02</wgt>
<wgt id='6012'>0.32495E+02</wgt>
<wgt id='6013'>0.32615E+02</wgt>
<wgt id='6014'>0.32720E+02</wgt>
<wgt id='6015'>0.32560E+02</wgt>
<wgt id='6016'>0.32703E+02</wgt>
<wgt id='6017'>0.32461E+02</wgt>
<wgt id='6018'>0.32880E+02</wgt>
<wgt id='6019'>0.32671E+02</wgt>
<wgt id='6020'>0.32635E+02</wgt>
<wgt id='6021'>0.32584E+02</wgt>
<wgt id='6022'>0.32744E+02</wgt>
<wgt id='6023'>0.32429E+02</wgt>
<wgt id='6024'>0.32810E+02</wgt>
<wgt id='6025'>0.32527E+02</wgt>
<wgt id='6026'>0.32680E+02</wgt>
<wgt id='6027'>0.32743E+02</wgt>
<wgt id='6028'>0.32652E+02</wgt>
<wgt id='6029'>0.32764E+02</wgt>
<wgt id='6030'>0.32521E+02</wgt>
<wgt id='6031'>0.32627E+02</wgt>
<wgt id='6032'>0.32666E+02</wgt>
<wgt id='6033'>0.32724E+02</wgt>
<wgt id='6034'>0.32578E+02</wgt>
<wgt id='6035'>0.32657E+02</wgt>
<wgt id='6036'>0.32702E+02</wgt>
<wgt id='6037'>0.32709E+02</wgt>
<wgt id='6038'>0.32652E+02</wgt>
<wgt id='6039'>0.32606E+02</wgt>
<wgt id='6040'>0.32702E+02</wgt>
<wgt id='6041'>0.32587E+02</wgt>
<wgt id='6042'>0.32733E+02</wgt>
<wgt id='6043'>0.33074E+02</wgt>
<wgt id='6044'>0.32484E+02</wgt>
<wgt id='6045'>0.32628E+02</wgt>
<wgt id='6046'>0.32718E+02</wgt>
<wgt id='6047'>0.32795E+02</wgt>
<wgt id='6048'>0.32328E+02</wgt>
<wgt id='6049'>0.32721E+02</wgt>
<wgt id='6050'>0.32607E+02</wgt>
<wgt id='7000'>0.30660E+02</wgt>
<wgt id='7001'>0.30676E+02</wgt>
<wgt id='7002'>0.30638E+02</wgt>
<wgt id='7003'>0.30743E+02</wgt>
<wgt id='7004'>0.30577E+02</wgt>
<wgt id='7005'>0.30712E+02</wgt>
<wgt id='7006'>0.30639E+02</wgt>
<wgt id='7007'>0.30543E+02</wgt>
<wgt id='7008'>0.30777E+02</wgt>
<wgt id='7009'>0.30720E+02</wgt>
<wgt id='7010'>0.30601E+02</wgt>
<wgt id='7011'>0.30354E+02</wgt>
<wgt id='7012'>0.30792E+02</wgt>
<wgt id='7013'>0.30658E+02</wgt>
<wgt id='7014'>0.30661E+02</wgt>
<wgt id='7015'>0.30569E+02</wgt>
<wgt id='7016'>0.30758E+02</wgt>
<wgt id='7017'>0.30493E+02</wgt>
<wgt id='7018'>0.30749E+02</wgt>
<wgt id='7019'>0.30627E+02</wgt>
<wgt id='7020'>0.30705E+02</wgt>
<wgt id='7021'>0.30653E+02</wgt>
<wgt id='7022'>0.30664E+02</wgt>
<wgt id='7023'>0.30873E+02</wgt>
<wgt id='7024'>0.30436E+02</wgt>
<wgt id='7025'>0.30756E+02</wgt>
<wgt id='7026'>0.30424E+02</wgt>
<wgt id='7027'>0.30775E+02</wgt>
<wgt id='7028'>0.30624E+02</wgt>
<wgt id='7029'>0.30588E+02</wgt>
<wgt id='7030'>0.30826E+02</wgt>
<wgt id='7031'>0.30637E+02</wgt>
<wgt id='7032'>0.30714E+02</wgt>
<wgt id='7033'>0.30643E+02</wgt>
<wgt id='7034'>0.30713E+02</wgt>
<wgt id='7035'>0.30681E+02</wgt>
<wgt id='7036'>0.30667E+02</wgt>
<wgt id='7037'>0.30668E+02</wgt>
<wgt id='7038'>0.30677E+02</wgt>
<wgt id='7039'>0.30608E+02</wgt>
<wgt id='7040'>0.30696E+02</wgt>
<wgt id='7041'>0.30611E+02</wgt>
<wgt id='7042'>0.30712E+02</wgt>
<wgt id='7043'>0.30684E+02</wgt>
<wgt id='7044'>0.30527E+02</wgt>
<wgt id='7045'>0.30405E+02</wgt>
<wgt id='7046'>0.30810E+02</wgt>
<wgt id='7047'>0.30736E+02</wgt>
<wgt id='7048'>0.30624E+02</wgt>
<wgt id='7049'>0.30595E+02</wgt>
<wgt id='7050'>0.30695E+02</wgt>
<wgt id='7060'>0.50076E+02</wgt>
<wgt id='8000'>0.31020E+02</wgt>
<wgt id='8001'>0.31011E+02</wgt>
<wgt id='8002'>0.31028E+02</wgt>
<wgt id='8003'>0.31022E+02</wgt>
<wgt id='8004'>0.31019E+02</wgt>
<wgt id='8005'>0.30946E+02</wgt>
<wgt id='8006'>0.31008E+02</wgt>
<wgt id='8007'>0.30991E+02</wgt>
<wgt id='8008'>0.31076E+02</wgt>
<wgt id='8009'>0.31136E+02</wgt>
<wgt id='8010'>0.31018E+02</wgt>
<wgt id='8011'>0.31007E+02</wgt>
<wgt id='8012'>0.30977E+02</wgt>
<wgt id='8013'>0.31004E+02</wgt>
<wgt id='8014'>0.31017E+02</wgt>
<wgt id='8015'>0.30995E+02</wgt>
<wgt id='8016'>0.31035E+02</wgt>
<wgt id='8017'>0.31025E+02</wgt>
<wgt id='8018'>0.31034E+02</wgt>
<wgt id='8019'>0.31055E+02</wgt>
<wgt id='8020'>0.30949E+02</wgt>
<wgt id='8021'>0.31017E+02</wgt>
<wgt id='8022'>0.30891E+02</wgt>
<wgt id='8023'>0.31032E+02</wgt>
<wgt id='8024'>0.31042E+02</wgt>
<wgt id='8025'>0.31087E+02</wgt>
<wgt id='8026'>0.31074E+02</wgt>
<wgt id='8027'>0.30984E+02</wgt>
<wgt id='8028'>0.31050E+02</wgt>
<wgt id='8029'>0.30831E+02</wgt>
<wgt id='8500'>0.32439E+02</wgt>
<wgt id='8501'>0.32318E+02</wgt>
<wgt id='8502'>0.32569E+02</wgt>
<wgt id='8503'>0.32567E+02</wgt>
<wgt id='8504'>0.32380E+02</wgt>
<wgt id='8505'>0.32421E+02</wgt>
<wgt id='8506'>0.32415E+02</wgt>
<wgt id='8507'>0.32531E+02</wgt>
<wgt id='8508'>0.32560E+02</wgt>
<wgt id='8509'>0.32422E+02</wgt>
<wgt id='8510'>0.32827E+02</wgt>
<wgt id='8511'>0.32453E+02</wgt>
<wgt id='8512'>0.32210E+02</wgt>
<wgt id='8513'>0.32464E+02</wgt>
<wgt id='8514'>0.32140E+02</wgt>
<wgt id='8515'>0.32531E+02</wgt>
<wgt id='8516'>0.32477E+02</wgt>
<wgt id='8517'>0.32296E+02</wgt>
<wgt id='8518'>0.32340E+02</wgt>
<wgt id='8519'>0.32341E+02</wgt>
<wgt id='8520'>0.32432E+02</wgt>
<wgt id='8521'>0.32283E+02</wgt>
<wgt id='8522'>0.32481E+02</wgt>
<wgt id='8523'>0.32354E+02</wgt>
<wgt id='8524'>0.32423E+02</wgt>
<wgt id='8525'>0.32411E+02</wgt>
<wgt id='8526'>0.32388E+02</wgt>
<wgt id='8527'>0.32441E+02</wgt>
<wgt id='8528'>0.32354E+02</wgt>
<wgt id='8529'>0.32402E+02</wgt>
<wgt id='8530'>0.32439E+02</wgt>
<wgt id='8531'>0.32428E+02</wgt>
<wgt id='8532'>0.32442E+02</wgt>
<wgt id='8533'>0.32370E+02</wgt>
<wgt id='8534'>0.32445E+02</wgt>
<wgt id='8535'>0.32517E+02</wgt>
<wgt id='8536'>0.32416E+02</wgt>
<wgt id='8537'>0.32449E+02</wgt>
<wgt id='8538'>0.32416E+02</wgt>
<wgt id='8539'>0.32446E+02</wgt>
<wgt id='8540'>0.32443E+02</wgt>
<wgt id='8541'>0.32455E+02</wgt>
<wgt id='8542'>0.32459E+02</wgt>
<wgt id='8543'>0.32410E+02</wgt>
<wgt id='8544'>0.32465E+02</wgt>
<wgt id='8545'>0.32464E+02</wgt>
<wgt id='8546'>0.32476E+02</wgt>
<wgt id='8547'>0.32415E+02</wgt>
<wgt id='8548'>0.32412E+02</wgt>
<wgt id='8549'>0.32438E+02</wgt>
<wgt id='8550'>0.32441E+02</wgt>
<wgt id='8551'>0.32411E+02</wgt>
<wgt id='8552'>0.32441E+02</wgt>
<wgt id='8553'>0.32422E+02</wgt>
<wgt id='8554'>0.32427E+02</wgt>
<wgt id='8555'>0.32441E+02</wgt>
<wgt id='8556'>0.32436E+02</wgt>
<wgt id='8557'>0.32433E+02</wgt>
<wgt id='8558'>0.32475E+02</wgt>
<wgt id='8559'>0.32422E+02</wgt>
<wgt id='8560'>0.32402E+02</wgt>
<wgt id='8561'>0.32436E+02</wgt>
<wgt id='8562'>0.32413E+02</wgt>
<wgt id='8563'>0.32442E+02</wgt>
<wgt id='8564'>0.32430E+02</wgt>
<wgt id='8565'>0.32439E+02</wgt>
<wgt id='8566'>0.32434E+02</wgt>
<wgt id='8567'>0.32435E+02</wgt>
<wgt id='8568'>0.32453E+02</wgt>
<wgt id='8569'>0.32449E+02</wgt>
<wgt id='8570'>0.32439E+02</wgt>
<wgt id='8571'>0.32424E+02</wgt>
<wgt id='8572'>0.32426E+02</wgt>
<wgt id='8573'>0.32425E+02</wgt>
<wgt id='8574'>0.32446E+02</wgt>
<wgt id='8575'>0.32436E+02</wgt>
<wgt id='8576'>0.32435E+02</wgt>
<wgt id='8577'>0.32437E+02</wgt>
<wgt id='8578'>0.32441E+02</wgt>
<wgt id='8579'>0.32460E+02</wgt>
<wgt id='8580'>0.32440E+02</wgt>
<wgt id='8581'>0.32447E+02</wgt>
<wgt id='8582'>0.32417E+02</wgt>
<wgt id='8583'>0.32453E+02</wgt>
<wgt id='8584'>0.32448E+02</wgt>
<wgt id='8585'>0.32447E+02</wgt>
<wgt id='8586'>0.32456E+02</wgt>
<wgt id='8587'>0.32434E+02</wgt>
<wgt id='8588'>0.32431E+02</wgt>
<wgt id='8589'>0.32441E+02</wgt>
<wgt id='8590'>0.32436E+02</wgt>
<wgt id='8591'>0.32435E+02</wgt>
<wgt id='8592'>0.32439E+02</wgt>
<wgt id='8593'>0.32427E+02</wgt>
<wgt id='8594'>0.32444E+02</wgt>
<wgt id='8595'>0.32443E+02</wgt>
<wgt id='8596'>0.32432E+02</wgt>
<wgt id='8597'>0.32443E+02</wgt>
<wgt id='8598'>0.32447E+02</wgt>
<wgt id='8599'>0.32444E+02</wgt>
<wgt id='8600'>0.32439E+02</wgt>
<wgt id='8601'>0.31692E+02</wgt>
<wgt id='8602'>0.33139E+02</wgt>
<wgt id='9000'>0.30722E+02</wgt>
<wgt id='9001'>0.30739E+02</wgt>
<wgt id='9002'>0.30808E+02</wgt>
<wgt id='9003'>0.30573E+02</wgt>
<wgt id='9004'>0.30699E+02</wgt>
<wgt id='9005'>0.30764E+02</wgt>
<wgt id='9006'>0.30731E+02</wgt>
<wgt id='9007'>0.30818E+02</wgt>
<wgt id='9008'>0.30786E+02</wgt>
<wgt id='9009'>0.30695E+02</wgt>
<wgt id='9010'>0.30629E+02</wgt>
<wgt id='9011'>0.30985E+02</wgt>
<wgt id='9012'>0.30552E+02</wgt>
<wgt id='9013'>0.30408E+02</wgt>
<wgt id='9014'>0.30566E+02</wgt>
<wgt id='9015'>0.30719E+02</wgt>
<wgt id='9016'>0.30989E+02</wgt>
<wgt id='9017'>0.30631E+02</wgt>
<wgt id='9018'>0.30662E+02</wgt>
<wgt id='9019'>0.30687E+02</wgt>
<wgt id='9020'>0.30885E+02</wgt>
<wgt id='9021'>0.30695E+02</wgt>
<wgt id='9022'>0.30772E+02</wgt>
<wgt id='9023'>0.30627E+02</wgt>
<wgt id='9024'>0.30669E+02</wgt>
<wgt id='9025'>0.30752E+02</wgt>
<wgt id='9026'>0.30718E+02</wgt>
<wgt id='9027'>0.30686E+02</wgt>
<wgt id='9028'>0.30751E+02</wgt>
<wgt id='9029'>0.30762E+02</wgt>
<wgt id='9030'>0.30739E+02</wgt>
<wgt id='9031'>0.30703E+02</wgt>
<wgt id='9032'>0.30748E+02</wgt>
<wgt id='9033'>0.30759E+02</wgt>
<wgt id='9034'>0.30717E+02</wgt>
<wgt id='9035'>0.30772E+02</wgt>
<wgt id='9036'>0.30728E+02</wgt>
<wgt id='9037'>0.30748E+02</wgt>
<wgt id='9038'>0.30730E+02</wgt>
<wgt id='9039'>0.30726E+02</wgt>
<wgt id='9040'>0.30692E+02</wgt>
<wgt id='9041'>0.30711E+02</wgt>
<wgt id='9042'>0.30717E+02</wgt>
<wgt id='9043'>0.30694E+02</wgt>
<wgt id='9044'>0.30730E+02</wgt>
<wgt id='9045'>0.30720E+02</wgt>
<wgt id='9046'>0.30682E+02</wgt>
<wgt id='9047'>0.30715E+02</wgt>
<wgt id='9048'>0.30730E+02</wgt>
<wgt id='9049'>0.30704E+02</wgt>
<wgt id='9050'>0.30725E+02</wgt>
<wgt id='9051'>0.30738E+02</wgt>
<wgt id='9052'>0.30733E+02</wgt>
<wgt id='9053'>0.30725E+02</wgt>
<wgt id='9054'>0.30709E+02</wgt>
<wgt id='9055'>0.30712E+02</wgt>
<wgt id='9056'>0.30747E+02</wgt>
<wgt id='9057'>0.30722E+02</wgt>
<wgt id='9058'>0.30696E+02</wgt>
<wgt id='9059'>0.30708E+02</wgt>
<wgt id='9060'>0.30711E+02</wgt>
<wgt id='9061'>0.30725E+02</wgt>
<wgt id='9062'>0.30726E+02</wgt>
<wgt id='9063'>0.30735E+02</wgt>
<wgt id='9064'>0.30714E+02</wgt>
<wgt id='9065'>0.30720E+02</wgt>
<wgt id='9066'>0.30725E+02</wgt>
<wgt id='9067'>0.30732E+02</wgt>
<wgt id='9068'>0.30730E+02</wgt>
<wgt id='9069'>0.30741E+02</wgt>
<wgt id='9070'>0.30717E+02</wgt>
<wgt id='9071'>0.30741E+02</wgt>
<wgt id='9072'>0.30742E+02</wgt>
<wgt id='9073'>0.30714E+02</wgt>
<wgt id='9074'>0.30726E+02</wgt>
<wgt id='9075'>0.30720E+02</wgt>
<wgt id='9076'>0.30718E+02</wgt>
<wgt id='9077'>0.30728E+02</wgt>
<wgt id='9078'>0.30724E+02</wgt>
<wgt id='9079'>0.30717E+02</wgt>
<wgt id='9080'>0.30744E+02</wgt>
<wgt id='9081'>0.30718E+02</wgt>
<wgt id='9082'>0.30729E+02</wgt>
<wgt id='9083'>0.30711E+02</wgt>
<wgt id='9084'>0.30712E+02</wgt>
<wgt id='9085'>0.30712E+02</wgt>
<wgt id='9086'>0.30726E+02</wgt>
<wgt id='9087'>0.30701E+02</wgt>
<wgt id='9088'>0.30714E+02</wgt>
<wgt id='9089'>0.30714E+02</wgt>
<wgt id='9090'>0.30727E+02</wgt>
<wgt id='9091'>0.30718E+02</wgt>
<wgt id='9092'>0.30721E+02</wgt>
<wgt id='9093'>0.30716E+02</wgt>
<wgt id='9094'>0.30719E+02</wgt>
<wgt id='9095'>0.30725E+02</wgt>
<wgt id='9096'>0.30715E+02</wgt>
<wgt id='9097'>0.30724E+02</wgt>
<wgt id='9098'>0.30721E+02</wgt>
<wgt id='9099'>0.30714E+02</wgt>
<wgt id='9100'>0.30721E+02</wgt>
<wgt id='9101'>0.30124E+02</wgt>
<wgt id='9102'>0.31306E+02</wgt>
<wgt id='10000'>0.32432E+02</wgt>
<wgt id='10001'>0.32547E+02</wgt>
<wgt id='10002'>0.32291E+02</wgt>
<wgt id='10003'>0.32421E+02</wgt>
<wgt id='10004'>0.32307E+02</wgt>
<wgt id='10005'>0.32972E+02</wgt>
<wgt id='10006'>0.32368E+02</wgt>
<wgt id='10007'>0.32411E+02</wgt>
<wgt id='10008'>0.32508E+02</wgt>
<wgt id='10009'>0.32364E+02</wgt>
<wgt id='10010'>0.32481E+02</wgt>
<wgt id='10011'>0.32390E+02</wgt>
<wgt id='10012'>0.32386E+02</wgt>
<wgt id='10013'>0.32436E+02</wgt>
<wgt id='10014'>0.32410E+02</wgt>
<wgt id='10015'>0.32462E+02</wgt>
<wgt id='10016'>0.32390E+02</wgt>
<wgt id='10017'>0.32254E+02</wgt>
<wgt id='10018'>0.32472E+02</wgt>
<wgt id='10019'>0.32398E+02</wgt>
<wgt id='10020'>0.32390E+02</wgt>
<wgt id='10021'>0.32416E+02</wgt>
<wgt id='10022'>0.32406E+02</wgt>
<wgt id='10023'>0.32441E+02</wgt>
<wgt id='10024'>0.32400E+02</wgt>
<wgt id='10025'>0.32405E+02</wgt>
<wgt id='10026'>0.32503E+02</wgt>
<wgt id='10027'>0.32490E+02</wgt>
<wgt id='10028'>0.32677E+02</wgt>
<wgt id='10029'>0.32472E+02</wgt>
<wgt id='10030'>0.32421E+02</wgt>
<wgt id='10031'>0.31692E+02</wgt>
<wgt id='10032'>0.33139E+02</wgt>
<wgt id='11000'>0.30715E+02</wgt>
<wgt id='11001'>0.30518E+02</wgt>
<wgt id='11002'>0.30799E+02</wgt>
<wgt id='11003'>0.30679E+02</wgt>
<wgt id='11004'>0.30798E+02</wgt>
<wgt id='11005'>0.30440E+02</wgt>
<wgt id='11006'>0.30725E+02</wgt>
<wgt id='11007'>0.30650E+02</wgt>
<wgt id='11008'>0.30642E+02</wgt>
<wgt id='11009'>0.30616E+02</wgt>
<wgt id='11010'>0.30906E+02</wgt>
<wgt id='11011'>0.30614E+02</wgt>
<wgt id='11012'>0.30732E+02</wgt>
<wgt id='11013'>0.30792E+02</wgt>
<wgt id='11014'>0.30660E+02</wgt>
<wgt id='11015'>0.30693E+02</wgt>
<wgt id='11016'>0.30693E+02</wgt>
<wgt id='11017'>0.30886E+02</wgt>
<wgt id='11018'>0.30702E+02</wgt>
<wgt id='11019'>0.30701E+02</wgt>
<wgt id='11020'>0.30778E+02</wgt>
<wgt id='11021'>0.30767E+02</wgt>
<wgt id='11022'>0.31118E+02</wgt>
<wgt id='11023'>0.30722E+02</wgt>
<wgt id='11024'>0.30737E+02</wgt>
<wgt id='11025'>0.30695E+02</wgt>
<wgt id='11026'>0.30722E+02</wgt>
<wgt id='11027'>0.30709E+02</wgt>
<wgt id='11028'>0.30739E+02</wgt>
<wgt id='11029'>0.30744E+02</wgt>
<wgt id='11030'>0.30712E+02</wgt>
<wgt id='11031'>0.30124E+02</wgt>
<wgt id='11032'>0.31306E+02</wgt>
<wgt id='12000'>0.33775E+02</wgt>
<wgt id='12001'>0.33732E+02</wgt>
<wgt id='12002'>0.33819E+02</wgt>
<wgt id='12003'>0.33858E+02</wgt>
<wgt id='12004'>0.33692E+02</wgt>
<wgt id='12005'>0.33821E+02</wgt>
<wgt id='12006'>0.33730E+02</wgt>
<wgt id='12007'>0.33859E+02</wgt>
<wgt id='12008'>0.33695E+02</wgt>
<wgt id='12009'>0.33810E+02</wgt>
<wgt id='12010'>0.33742E+02</wgt>
<wgt id='12011'>0.33661E+02</wgt>
<wgt id='12012'>0.33891E+02</wgt>
<wgt id='12013'>0.33663E+02</wgt>
<wgt id='12014'>0.33889E+02</wgt>
<wgt id='12015'>0.33801E+02</wgt>
<wgt id='12016'>0.33742E+02</wgt>
<wgt id='12017'>0.33890E+02</wgt>
<wgt id='12018'>0.33650E+02</wgt>
<wgt id='12019'>0.33716E+02</wgt>
<wgt id='12020'>0.33834E+02</wgt>
<wgt id='12021'>0.33879E+02</wgt>
<wgt id='12022'>0.33638E+02</wgt>
<wgt id='12023'>0.33583E+02</wgt>
<wgt id='12024'>0.33817E+02</wgt>
<wgt id='12025'>0.33785E+02</wgt>
<wgt id='12026'>0.33810E+02</wgt>
<wgt id='12027'>0.33886E+02</wgt>
<wgt id='12028'>0.33696E+02</wgt>
<wgt id='12050'>0.33775E+02</wgt>
<wgt id='12051'>0.33780E+02</wgt>
<wgt id='12052'>0.33745E+02</wgt>
<wgt id='12053'>0.33773E+02</wgt>
<wgt id='12054'>0.33756E+02</wgt>
<wgt id='12055'>0.33889E+02</wgt>
<wgt id='12056'>0.33697E+02</wgt>
<wgt id='12057'>0.33677E+02</wgt>
<wgt id='12058'>0.33875E+02</wgt>
<wgt id='12059'>0.33744E+02</wgt>
<wgt id='12060'>0.33821E+02</wgt>
<wgt id='12061'>0.33728E+02</wgt>
<wgt id='12062'>0.33832E+02</wgt>
<wgt id='12063'>0.33530E+02</wgt>
<wgt id='13000'>0.31293E+02</wgt>
<wgt id='13001'>0.31270E+02</wgt>
<wgt id='13002'>0.31312E+02</wgt>
<wgt id='13003'>0.31339E+02</wgt>
<wgt id='13004'>0.31243E+02</wgt>
<wgt id='13005'>0.31361E+02</wgt>
<wgt id='13006'>0.31222E+02</wgt>
<wgt id='13007'>0.31415E+02</wgt>
<wgt id='13008'>0.31170E+02</wgt>
<wgt id='13009'>0.31263E+02</wgt>
<wgt id='13010'>0.31320E+02</wgt>
<wgt id='13011'>0.31375E+02</wgt>
<wgt id='13012'>0.31207E+02</wgt>
<wgt id='13013'>0.31214E+02</wgt>
<wgt id='13014'>0.31369E+02</wgt>
<wgt id='13015'>0.31274E+02</wgt>
<wgt id='13016'>0.31310E+02</wgt>
<wgt id='13017'>0.31273E+02</wgt>
<wgt id='13018'>0.31304E+02</wgt>
<wgt id='13019'>0.31252E+02</wgt>
<wgt id='13020'>0.31328E+02</wgt>
<wgt id='13021'>0.31136E+02</wgt>
<wgt id='13022'>0.31406E+02</wgt>
<wgt id='13023'>0.31236E+02</wgt>
<wgt id='13024'>0.31343E+02</wgt>
<wgt id='13025'>0.31115E+02</wgt>
<wgt id='13026'>0.31395E+02</wgt>
<wgt id='13027'>0.31252E+02</wgt>
<wgt id='13028'>0.31364E+02</wgt>
<wgt id='13050'>0.31293E+02</wgt>
<wgt id='13051'>0.31311E+02</wgt>
<wgt id='13052'>0.31186E+02</wgt>
<wgt id='13053'>0.31299E+02</wgt>
<wgt id='13054'>0.31276E+02</wgt>
<wgt id='13055'>0.31098E+02</wgt>
<wgt id='13056'>0.31317E+02</wgt>
<wgt id='13057'>0.31203E+02</wgt>
<wgt id='13058'>0.31441E+02</wgt>
<wgt id='13059'>0.31213E+02</wgt>
<wgt id='13060'>0.31130E+02</wgt>
<wgt id='13061'>0.31201E+02</wgt>
<wgt id='13062'>0.31532E+02</wgt>
<wgt id='13063'>0.31227E+02</wgt>
<wgt id='14000'>0.32041E+02</wgt>
<wgt id='14001'>0.32036E+02</wgt>
<wgt id='14002'>0.32031E+02</wgt>
<wgt id='14003'>0.32026E+02</wgt>
<wgt id='14004'>0.32021E+02</wgt>
<wgt id='14005'>0.32016E+02</wgt>
<wgt id='14006'>0.32011E+02</wgt>
<wgt id='14007'>0.32007E+02</wgt>
<wgt id='14008'>0.32002E+02</wgt>
<wgt id='14009'>0.31997E+02</wgt>
<wgt id='14010'>0.31992E+02</wgt>
<wgt id='14011'>0.31987E+02</wgt>
<wgt id='14012'>0.31982E+02</wgt>
<wgt id='14013'>0.31977E+02</wgt>
<wgt id='14014'>0.31972E+02</wgt>
<wgt id='14015'>0.31967E+02</wgt>
<wgt id='14016'>0.31962E+02</wgt>
<wgt id='14017'>0.31958E+02</wgt>
<wgt id='14018'>0.31953E+02</wgt>
<wgt id='14019'>0.31948E+02</wgt>
<wgt id='14020'>0.31943E+02</wgt>
<wgt id='14021'>0.31938E+02</wgt>
<wgt id='14022'>0.31933E+02</wgt>
<wgt id='14023'>0.31928E+02</wgt>
<wgt id='14024'>0.31923E+02</wgt>
<wgt id='14025'>0.31919E+02</wgt>
<wgt id='14026'>0.31914E+02</wgt>
<wgt id='14027'>0.31909E+02</wgt>
<wgt id='14028'>0.31904E+02</wgt>
<wgt id='14029'>0.31899E+02</wgt>
<wgt id='14030'>0.31894E+02</wgt>
<wgt id='15000'>0.30352E+02</wgt>
<wgt id='15001'>0.30366E+02</wgt>
<wgt id='15002'>0.30436E+02</wgt>
<wgt id='15003'>0.30206E+02</wgt>
<wgt id='15004'>0.30330E+02</wgt>
<wgt id='15005'>0.30394E+02</wgt>
<wgt id='15006'>0.30365E+02</wgt>
<wgt id='15007'>0.30450E+02</wgt>
<wgt id='15008'>0.30416E+02</wgt>
<wgt id='15009'>0.30326E+02</wgt>
<wgt id='15010'>0.30261E+02</wgt>
<wgt id='15011'>0.30615E+02</wgt>
<wgt id='15012'>0.30184E+02</wgt>
<wgt id='15013'>0.30045E+02</wgt>
<wgt id='15014'>0.30198E+02</wgt>
<wgt id='15015'>0.30344E+02</wgt>
<wgt id='15016'>0.30618E+02</wgt>
<wgt id='15017'>0.30259E+02</wgt>
<wgt id='15018'>0.30292E+02</wgt>
<wgt id='15019'>0.30322E+02</wgt>
<wgt id='15020'>0.30516E+02</wgt>
<wgt id='15021'>0.30324E+02</wgt>
<wgt id='15022'>0.30403E+02</wgt>
<wgt id='15023'>0.30256E+02</wgt>
<wgt id='15024'>0.30297E+02</wgt>
<wgt id='15025'>0.30380E+02</wgt>
<wgt id='15026'>0.30346E+02</wgt>
<wgt id='15027'>0.30320E+02</wgt>
<wgt id='15028'>0.30382E+02</wgt>
<wgt id='15029'>0.30391E+02</wgt>
<wgt id='15030'>0.30369E+02</wgt>
<wgt id='15031'>0.30336E+02</wgt>
<wgt id='15032'>0.30376E+02</wgt>
<wgt id='15033'>0.30388E+02</wgt>
<wgt id='15034'>0.30347E+02</wgt>
<wgt id='15035'>0.30402E+02</wgt>
<wgt id='15036'>0.30358E+02</wgt>
<wgt id='15037'>0.30379E+02</wgt>
<wgt id='15038'>0.30360E+02</wgt>
<wgt id='15039'>0.30355E+02</wgt>
<wgt id='15040'>0.30322E+02</wgt>
<wgt id='15041'>0.30340E+02</wgt>
<wgt id='15042'>0.30347E+02</wgt>
<wgt id='15043'>0.30325E+02</wgt>
<wgt id='15044'>0.30360E+02</wgt>
<wgt id='15045'>0.30349E+02</wgt>
<wgt id='15046'>0.30313E+02</wgt>
<wgt id='15047'>0.30345E+02</wgt>
<wgt id='15048'>0.30361E+02</wgt>
<wgt id='15049'>0.30334E+02</wgt>
<wgt id='15050'>0.30356E+02</wgt>
<wgt id='15051'>0.30368E+02</wgt>
<wgt id='15052'>0.30363E+02</wgt>
<wgt id='15053'>0.30356E+02</wgt>
<wgt id='15054'>0.30340E+02</wgt>
<wgt id='15055'>0.30342E+02</wgt>
<wgt id='15056'>0.30377E+02</wgt>
<wgt id='15057'>0.30352E+02</wgt>
<wgt id='15058'>0.30327E+02</wgt>
<wgt id='15059'>0.30339E+02</wgt>
<wgt id='15060'>0.30341E+02</wgt>
<wgt id='15061'>0.30355E+02</wgt>
<wgt id='15062'>0.30356E+02</wgt>
<wgt id='15063'>0.30365E+02</wgt>
<wgt id='15064'>0.30345E+02</wgt>
<wgt id='15065'>0.30351E+02</wgt>
<wgt id='15066'>0.30355E+02</wgt>
<wgt id='15067'>0.30361E+02</wgt>
<wgt id='15068'>0.30360E+02</wgt>
<wgt id='15069'>0.30370E+02</wgt>
<wgt id='15070'>0.30347E+02</wgt>
<wgt id='15071'>0.30371E+02</wgt>
<wgt id='15072'>0.30372E+02</wgt>
<wgt id='15073'>0.30343E+02</wgt>
<wgt id='15074'>0.30356E+02</wgt>
<wgt id='15075'>0.30350E+02</wgt>
<wgt id='15076'>0.30349E+02</wgt>
<wgt id='15077'>0.30358E+02</wgt>
<wgt id='15078'>0.30355E+02</wgt>
<wgt id='15079'>0.30347E+02</wgt>
<wgt id='15080'>0.30374E+02</wgt>
<wgt id='15081'>0.30349E+02</wgt>
<wgt id='15082'>0.30360E+02</wgt>
<wgt id='15083'>0.30341E+02</wgt>
<wgt id='15084'>0.30342E+02</wgt>
<wgt id='15085'>0.30343E+02</wgt>
<wgt id='15086'>0.30357E+02</wgt>
<wgt id='15087'>0.30332E+02</wgt>
<wgt id='15088'>0.30345E+02</wgt>
<wgt id='15089'>0.30344E+02</wgt>
<wgt id='15090'>0.30357E+02</wgt>
<wgt id='15091'>0.30348E+02</wgt>
<wgt id='15092'>0.30351E+02</wgt>
<wgt id='15093'>0.30347E+02</wgt>
<wgt id='15094'>0.30349E+02</wgt>
<wgt id='15095'>0.30355E+02</wgt>
<wgt id='15096'>0.30345E+02</wgt>
<wgt id='15097'>0.30354E+02</wgt>
<wgt id='15098'>0.30352E+02</wgt>
<wgt id='15099'>0.30345E+02</wgt>
<wgt id='15100'>0.30351E+02</wgt>
<wgt id='15101'>0.30351E+02</wgt>
<wgt id='15102'>0.30349E+02</wgt>
<wgt id='15103'>0.30352E+02</wgt>
<wgt id='15104'>0.30352E+02</wgt>
<wgt id='15105'>0.30353E+02</wgt>
<wgt id='15106'>0.30352E+02</wgt>
<wgt id='15107'>0.30350E+02</wgt>
<wgt id='1500'>0.32565E+02</wgt>
<wgt id='1501'>0.30457E+02</wgt>
<wgt id='1502'>0.32380E+02</wgt>
<wgt id='1503'>0.32797E+02</wgt>
<wgt id='1504'>0.32082E+02</wgt>
<wgt id='1505'>0.29785E+02</wgt>
<wgt id='1506'>0.33218E+02</wgt>
<wgt id='1507'>0.32693E+02</wgt>
<wgt id='1508'>0.32825E+02</wgt>
<wgt id='1509'>0.32907E+02</wgt>
<wgt id='1510'>0.31785E+02</wgt>
<wgt id='1511'>0.31760E+02</wgt>
<wgt id='1512'>0.33089E+02</wgt>
<wgt id='1513'>0.33118E+02</wgt>
<wgt id='1514'>0.32236E+02</wgt>
<wgt id='1515'>0.33207E+02</wgt>
<wgt id='1516'>0.32777E+02</wgt>
<wgt id='1517'>0.32425E+02</wgt>
<wgt id='1518'>0.32358E+02</wgt>
<wgt id='1519'>0.33013E+02</wgt>
<wgt id='1520'>0.33277E+02</wgt>
<wgt id='1521'>0.32953E+02</wgt>
<wgt id='1522'>0.32306E+02</wgt>
<wgt id='1523'>0.34863E+02</wgt>
<wgt id='1524'>0.32590E+02</wgt>
<wgt id='1525'>0.32633E+02</wgt>
<wgt id='1526'>0.32384E+02</wgt>
<wgt id='1527'>0.32153E+02</wgt>
<wgt id='1528'>0.32311E+02</wgt>
<wgt id='1529'>0.32673E+02</wgt>
<wgt id='1530'>0.33357E+02</wgt>
<wgt id='1531'>0.32516E+02</wgt>
<wgt id='1532'>0.31877E+02</wgt>
<wgt id='1533'>0.32247E+02</wgt>
<wgt id='1534'>0.32757E+02</wgt>
<wgt id='1535'>0.33300E+02</wgt>
<wgt id='1536'>0.32683E+02</wgt>
<wgt id='1537'>0.33154E+02</wgt>
<wgt id='1538'>0.32760E+02</wgt>
<wgt id='1539'>0.31844E+02</wgt>
<wgt id='1540'>0.32701E+02</wgt>
<wgt id='1541'>0.32657E+02</wgt>
<wgt id='1542'>0.32488E+02</wgt>
<wgt id='1543'>0.32688E+02</wgt>
<wgt id='1544'>0.32515E+02</wgt>
<wgt id='1545'>0.32493E+02</wgt>
<wgt id='1546'>0.33070E+02</wgt>
<wgt id='1547'>0.32157E+02</wgt>
<wgt id='1548'>0.32302E+02</wgt>
<wgt id='1549'>0.32185E+02</wgt>
<wgt id='1550'>0.32375E+02</wgt>
<wgt id='1551'>0.32485E+02</wgt>
<wgt id='1552'>0.32162E+02</wgt>
<wgt id='1553'>0.32992E+02</wgt>
<wgt id='1554'>0.32767E+02</wgt>
<wgt id='1555'>0.32195E+02</wgt>
<wgt id='1556'>0.32128E+02</wgt>
<wgt id='1557'>0.33003E+02</wgt>
<wgt id='1558'>0.32201E+02</wgt>
<wgt id='1559'>0.33131E+02</wgt>
<wgt id='1560'>0.32411E+02</wgt>
<wgt id='1561'>0.32456E+02</wgt>
<wgt id='1562'>0.32700E+02</wgt>
<wgt id='1563'>0.32706E+02</wgt>
<wgt id='1564'>0.31973E+02</wgt>
<wgt id='1565'>0.32687E+02</wgt>
<wgt id='1566'>0.32767E+02</wgt>
<wgt id='1567'>0.34661E+02</wgt>
<wgt id='1568'>0.32221E+02</wgt>
<wgt id='1569'>0.31684E+02</wgt>
<wgt id='1570'>0.32252E+02</wgt>
<wgt id='1571'>0.32544E+02</wgt>
<wgt id='1572'>0.32895E+02</wgt>
<wgt id='1573'>0.30834E+02</wgt>
<wgt id='1574'>0.33047E+02</wgt>
<wgt id='1575'>0.32254E+02</wgt>
<wgt id='1576'>0.32181E+02</wgt>
<wgt id='1577'>0.32888E+02</wgt>
<wgt id='1578'>0.33420E+02</wgt>
<wgt id='1579'>0.32212E+02</wgt>
<wgt id='1580'>0.32556E+02</wgt>
<wgt id='1581'>0.32806E+02</wgt>
<wgt id='1582'>0.32052E+02</wgt>
<wgt id='1583'>0.33209E+02</wgt>
<wgt id='1584'>0.32401E+02</wgt>
<wgt id='1585'>0.31989E+02</wgt>
<wgt id='1586'>0.32377E+02</wgt>
<wgt id='1587'>0.32651E+02</wgt>
<wgt id='1588'>0.32442E+02</wgt>
<wgt id='1589'>0.33549E+02</wgt>
<wgt id='1590'>0.32392E+02</wgt>
<wgt id='1591'>0.32229E+02</wgt>
<wgt id='1592'>0.32551E+02</wgt>
<wgt id='1593'>0.32451E+02</wgt>
<wgt id='1594'>0.33244E+02</wgt>
<wgt id='1595'>0.32102E+02</wgt>
<wgt id='1596'>0.32967E+02</wgt>
<wgt id='1597'>0.32407E+02</wgt>
<wgt id='1598'>0.33208E+02</wgt>
<wgt id='1599'>0.32994E+02</wgt>
<wgt id='1600'>0.32987E+02</wgt>
<wgt id='1601'>0.32002E+02</wgt>
<wgt id='1602'>0.32944E+02</wgt>
<wgt id='1700'>0.31086E+02</wgt>
<wgt id='1800'>0.37368E+02</wgt>
<wgt id='1850'>0.46365E+02</wgt>
<wgt id='1900'>0.38903E+02</wgt>
<wgt id='1950'>0.46001E+02</wgt>
</rwgt>
</event>
<event>
      4   9999  3.15120E+01  1.94756E+02 -1.00000E+00  1.10774E-01
      21    -1     0     0   511   501  0.000000000E+00  0.000000000E+00  1.629823430E+03  1.629823430E+03  0.000000000E+00  0.00000E+00  9.000E+00
      21    -1     0     0   501   502  0.000000000E+00  0.000000000E+00 -2.762810265E+01  2.762810265E+01  0.000000000E+00  0.00000E+00  9.000E+00
      25     1     1     2     0     0  1.743137173E+02 -8.685946070E+01  8.117228632E+02  8.433406345E+02  1.199982548E+02  0.00000E+00  9.000E+00
      21     1     1     2   511   502 -1.743137173E+02  8.685946070E+01  7.904724640E+02  8.141108981E+02  0.000000000E+00  0.00000E+00  9.000E+00
#rwgt            2          11   1.4120067038606794                1        1035           0
<rwgt>
<wgt id='1001'>0.31512E+02</wgt>
<wgt id='1002'>0.29435E+02</wgt>
<wgt id='1003'>0.33624E+02</wgt>
<wgt id='1004'>0.23753E+02</wgt>
<wgt id='1005'>0.22188E+02</wgt>
<wgt id='1006'>0.25345E+02</wgt>
<wgt id='1007'>0.43127E+02</wgt>
<wgt id='1008'>0.40285E+02</wgt>
<wgt id='1009'>0.46017E+02</wgt>
<wgt id='2000'>0.31512E+02</wgt>
<wgt id='2001'>0.31476E+02</wgt>
<wgt id='2002'>0.31532E+02</wgt>
<wgt id='2003'>0.31473E+02</wgt>
<wgt id='2004'>0.31624E+02</wgt>
<wgt id='2005'>0.31529E+02</wgt>
<wgt id='2006'>0.31462E+02</wgt>
<wgt id='2007'>0.31521E+02</wgt>
<wgt id='2008'>0.31463E+02</wgt>
<wgt id='2009'>0.31545E+02</wgt>
<wgt id='2010'>0.31401E+02</wgt>
<wgt id='2011'>0.31466E+02</wgt>
<wgt id='2012'>0.31505E+02</wgt>
<wgt id='2013'>0.31444E+02</wgt>
<wgt id='2014'>0.31422E+02</wgt>
<wgt id='2015'>0.31488E+02</wgt>
<wgt id='2016'>0.31560E+02</wgt>
<wgt id='2017'>0.31516E+02</wgt>
<wgt id='2018'>0.31461E+02</wgt>
<wgt id='2019'>0.31523E+02</wgt>
<wgt id='2020'>0.31492E+02</wgt>
<wgt id='2021'>0.31582E+02</wgt>
<wgt id='2022'>0.31549E+02</wgt>
<wgt id='2023'>0.31620E+02</wgt>
<wgt id='2024'>0.31436E+02</wgt>
<wgt id='2025'>0.31597E+02</wgt>
<wgt id='2026'>0.31651E+02</wgt>
<wgt id='2027'>0.31436E+02</wgt>
<wgt id='2028'>0.31400E+02</wgt>
<wgt id='2029'>0.31751E+02</wgt>
<wgt id='2030'>0.31527E+02</wgt>
<wgt id='2031'>0.31519E+02</wgt>
<wgt id='2032'>0.31476E+02</wgt>
<wgt id='2033'>0.31455E+02</wgt>
<wgt id='2034'>0.31496E+02</wgt>
<wgt id='2035'>0.31608E+02</wgt>
<wgt id='2036'>0.31609E+02</wgt>
<wgt id='2037'>0.31426E+02</wgt>
<wgt id='2038'>0.31444E+02</wgt>
<wgt id='2039'>0.31397E+02</wgt>
<wgt id='2040'>0.31611E+02</wgt>
<wgt id='2041'>0.31649E+02</wgt>
<wgt id='2042'>0.31665E+02</wgt>
<wgt id='2043'>0.31152E+02</wgt>
<wgt id='2044'>0.31421E+02</wgt>
<wgt id='2045'>0.31524E+02</wgt>
<wgt id='2046'>0.31735E+02</wgt>
<wgt id='2047'>0.31649E+02</wgt>
<wgt id='2048'>0.31340E+02</wgt>
<wgt id='2049'>0.31384E+02</wgt>
<wgt id='2050'>0.31619E+02</wgt>
<wgt id='2051'>0.31309E+02</wgt>
<wgt id='2052'>0.31408E+02</wgt>
<wgt id='2053'>0.31473E+02</wgt>
<wgt id='2054'>0.31536E+02</wgt>
<wgt id='2055'>0.31609E+02</wgt>
<wgt id='2056'>0.31439E+02</wgt>
<wgt id='2057'>0.31325E+02</wgt>
<wgt id='2058'>0.31488E+02</wgt>
<wgt id='2059'>0.31542E+02</wgt>
<wgt id='2060'>0.31545E+02</wgt>
<wgt id='2061'>0.31518E+02</wgt>
<wgt id='2062'>0.31469E+02</wgt>
<wgt id='2063'>0.31510E+02</wgt>
<wgt id='2064'>0.31494E+02</wgt>
<wgt id='2065'>0.31447E+02</wgt>
<wgt id='2066'>0.31552E+02</wgt>
<wgt id='2067'>0.31515E+02</wgt>
<wgt id='2068'>0.31516E+02</wgt>
<wgt id='2069'>0.31589E+02</wgt>
<wgt id='2070'>0.31427E+02</wgt>
<wgt id='2071'>0.31481E+02</wgt>
<wgt id='2072'>0.31508E+02</wgt>
<wgt id='2073'>0.31407E+02</wgt>
<wgt id='2074'>0.31480E+02</wgt>
<wgt id='2075'>0.31441E+02</wgt>
<wgt id='2076'>0.31614E+02</wgt>
<wgt id='2077'>0.31353E+02</wgt>
<wgt id='2078'>0.31538E+02</wgt>
<wgt id='2079'>0.31536E+02</wgt>
<wgt id='2080'>0.31574E+02</wgt>
<wgt id='2081'>0.31550E+02</wgt>
<wgt id='2082'>0.31574E+02</wgt>
<wgt id='2083'>0.31521E+02</wgt>
<wgt id='2084'>0.31496E+02</wgt>
<wgt id='2085'>0.31542E+02</wgt>
<wgt id='2086'>0.31518E+02</wgt>
<wgt id='2087'>0.31463E+02</wgt>
<wgt id='2088'>0.31534E+02</wgt>
<wgt id='2089'>0.31455E+02</wgt>
<wgt id='2090'>0.31530E+02</wgt>
<wgt id='2091'>0.31532E+02</wgt>
<wgt id='2092'>0.31497E+02</wgt>
<wgt id='2093'>0.31534E+02</wgt>
<wgt id='2094'>0.31521E+02</wgt>
<wgt id='2095'>0.31556E+02</wgt>
<wgt id='2096'>0.31477E+02</wgt>
<wgt id='2097'>0.31567E+02</wgt>
<wgt id='2098'>0.31488E+02</wgt>
<wgt id='2099'>0.31502E+02</wgt>
<wgt id='2100'>0.31526E+02</wgt>
<wgt id='2101'>0.30158E+02</wgt>
<wgt id='2102'>0.33053E+02</wgt>
<wgt id='2104'>0.25398E+02</wgt>
<wgt id='2105'>0.26600E+02</wgt>
<wgt id='2106'>0.27797E+02</wgt>
<wgt id='2107'>0.28791E+02</wgt>
<wgt id='2108'>0.30797E+02</wgt>
<wgt id='2109'>0.32243E+02</wgt>
<wgt id='2110'>0.34298E+02</wgt>
<wgt id='2111'>0.36037E+02</wgt>
<wgt id='3000'>0.34862E+02</wgt>
<wgt id='3001'>0.34861E+02</wgt>
<wgt id='3002'>0.34807E+02</wgt>
<wgt id='3003'>0.34887E+02</wgt>
<wgt id='3004'>0.35028E+02</wgt>
<wgt id='3005'>0.34875E+02</wgt>
<wgt id='3006'>0.34854E+02</wgt>
<wgt id='3007'>0.34871E+02</wgt>
<wgt id='3008'>0.34807E+02</wgt>
<wgt id='3009'>0.34819E+02</wgt>
<wgt id='3010'>0.34837E+02</wgt>
<wgt id='3011'>0.34862E+02</wgt>
<wgt id='3012'>0.34892E+02</wgt>
<wgt id='3013'>0.34932E+02</wgt>
<wgt id='3014'>0.34847E+02</wgt>
<wgt id='3015'>0.34809E+02</wgt>
<wgt id='3016'>0.34859E+02</wgt>
<wgt id='3017'>0.34817E+02</wgt>
<wgt id='3018'>0.34936E+02</wgt>
<wgt id='3019'>0.34974E+02</wgt>
<wgt id='3020'>0.34926E+02</wgt>
<wgt id='3021'>0.34854E+02</wgt>
<wgt id='3022'>0.34856E+02</wgt>
<wgt id='3023'>0.34845E+02</wgt>
<wgt id='3024'>0.34811E+02</wgt>
<wgt id='3025'>0.34942E+02</wgt>
<wgt id='3026'>0.34936E+02</wgt>
<wgt id='3027'>0.34883E+02</wgt>
<wgt id='3028'>0.34728E+02</wgt>
<wgt id='3029'>0.34713E+02</wgt>
<wgt id='3030'>0.35122E+02</wgt>
<wgt id='3031'>0.34938E+02</wgt>
<wgt id='3032'>0.34932E+02</wgt>
<wgt id='3033'>0.34989E+02</wgt>
<wgt id='3034'>0.34826E+02</wgt>
<wgt id='3035'>0.34996E+02</wgt>
<wgt id='3036'>0.34815E+02</wgt>
<wgt id='3037'>0.34913E+02</wgt>
<wgt id='3038'>0.34816E+02</wgt>
<wgt id='3039'>0.34764E+02</wgt>
<wgt id='3040'>0.34815E+02</wgt>
<wgt id='3041'>0.34892E+02</wgt>
<wgt id='3042'>0.35005E+02</wgt>
<wgt id='3043'>0.35072E+02</wgt>
<wgt id='3044'>0.34767E+02</wgt>
<wgt id='3045'>0.34731E+02</wgt>
<wgt id='3046'>0.35024E+02</wgt>
<wgt id='3047'>0.35004E+02</wgt>
<wgt id='3048'>0.34619E+02</wgt>
<wgt id='3049'>0.34871E+02</wgt>
<wgt id='3050'>0.34656E+02</wgt>
<wgt id='3051'>0.35034E+02</wgt>
<wgt id='3052'>0.34809E+02</wgt>
<wgt id='3053'>0.34792E+02</wgt>
<wgt id='3054'>0.34910E+02</wgt>
<wgt id='3055'>0.35142E+02</wgt>
<wgt id='3056'>0.34775E+02</wgt>
<wgt id='3057'>0.34872E+02</wgt>
<wgt id='3058'>0.34919E+02</wgt>
<wgt id='3059'>0.34735E+02</wgt>
<wgt id='3060'>0.34930E+02</wgt>
<wgt id='3061'>0.34790E+02</wgt>
<wgt id='3062'>0.34848E+02</wgt>
<wgt id='3063'>0.34761E+02</wgt>
<wgt id='3064'>0.34935E+02</wgt>
<wgt id='3065'>0.34774E+02</wgt>
<wgt id='3066'>0.34899E+02</wgt>
<wgt id='3067'>0.34865E+02</wgt>
<wgt id='3068'>0.34839E+02</wgt>
<wgt id='3069'>0.34786E+02</wgt>
<wgt id='3070'>0.34829E+02</wgt>
<wgt id='3071'>0.34887E+02</wgt>
<wgt id='3072'>0.34838E+02</wgt>
<wgt id='3073'>0.34845E+02</wgt>
<wgt id='3074'>0.35048E+02</wgt>
<wgt id='3075'>0.34851E+02</wgt>
<wgt id='3076'>0.34927E+02</wgt>
<wgt id='3077'>0.34958E+02</wgt>
<wgt id='3078'>0.34893E+02</wgt>
<wgt id='3079'>0.34716E+02</wgt>
<wgt id='3080'>0.34797E+02</wgt>
<wgt id='3081'>0.34829E+02</wgt>
<wgt id='3082'>0.34794E+02</wgt>
<wgt id='3083'>0.34808E+02</wgt>
<wgt id='3084'>0.34820E+02</wgt>
<wgt id='3085'>0.34942E+02</wgt>
<wgt id='3086'>0.34756E+02</wgt>
<wgt id='3087'>0.34785E+02</wgt>
<wgt id='3088'>0.34822E+02</wgt>
<wgt id='3089'>0.34842E+02</wgt>
<wgt id='3090'>0.34889E+02</wgt>
<wgt id='3091'>0.34870E+02</wgt>
<wgt id='3092'>0.34852E+02</wgt>
<wgt id='3093'>0.34881E+02</wgt>
<wgt id='3094'>0.34919E+02</wgt>
<wgt id='3095'>0.34852E+02</wgt>
<wgt id='3096'>0.34856E+02</wgt>
<wgt id='3097'>0.34866E+02</wgt>
<wgt id='3098'>0.34833E+02</wgt>
<wgt id='3099'>0.34870E+02</wgt>
<wgt id='3100'>0.34893E+02</wgt>
<wgt id='3101'>0.33633E+02</wgt>
<wgt id='3102'>0.36239E+02</wgt>
<wgt id='5000'>0.35913E+02</wgt>
<wgt id='5001'>0.36088E+02</wgt>
<wgt id='5002'>0.36055E+02</wgt>
<wgt id='5003'>0.35939E+02</wgt>
<wgt id='5004'>0.36298E+02</wgt>
<wgt id='5005'>0.37022E+02</wgt>
<wgt id='5006'>0.37094E+02</wgt>
<wgt id='5007'>0.36492E+02</wgt>
<wgt id='5008'>0.36224E+02</wgt>
<wgt id='5009'>0.36218E+02</wgt>
<wgt id='5010'>0.35822E+02</wgt>
<wgt id='5011'>0.36794E+02</wgt>
<wgt id='5012'>0.35053E+02</wgt>
<wgt id='5013'>0.36128E+02</wgt>
<wgt id='5014'>0.35367E+02</wgt>
<wgt id='5015'>0.34967E+02</wgt>
<wgt id='5016'>0.38604E+02</wgt>
<wgt id='5017'>0.35658E+02</wgt>
<wgt id='5018'>0.36160E+02</wgt>
<wgt id='5019'>0.35158E+02</wgt>
<wgt id='5020'>0.36536E+02</wgt>
<wgt id='5021'>0.35377E+02</wgt>
<wgt id='5022'>0.36254E+02</wgt>
<wgt id='5023'>0.35509E+02</wgt>
<wgt id='5024'>0.36391E+02</wgt>
<wgt id='5025'>0.36000E+02</wgt>
<wgt id='5026'>0.35842E+02</wgt>
<wgt id='5027'>0.35339E+02</wgt>
<wgt id='5028'>0.36901E+02</wgt>
<wgt id='5029'>0.37471E+02</wgt>
<wgt id='5030'>0.34970E+02</wgt>
<wgt id='5031'>0.36617E+02</wgt>
<wgt id='5032'>0.34909E+02</wgt>
<wgt id='5033'>0.35462E+02</wgt>
<wgt id='5034'>0.36361E+02</wgt>
<wgt id='5035'>0.35494E+02</wgt>
<wgt id='5036'>0.36254E+02</wgt>
<wgt id='5037'>0.35179E+02</wgt>
<wgt id='5038'>0.36780E+02</wgt>
<wgt id='5039'>0.36364E+02</wgt>
<wgt id='5040'>0.35693E+02</wgt>
<wgt id='5041'>0.37040E+02</wgt>
<wgt id='5042'>0.35566E+02</wgt>
<wgt id='5043'>0.34498E+02</wgt>
<wgt id='5044'>0.37807E+02</wgt>
<wgt id='5045'>0.35707E+02</wgt>
<wgt id='5046'>0.36373E+02</wgt>
<wgt id='5047'>0.35860E+02</wgt>
<wgt id='5048'>0.35504E+02</wgt>
<wgt id='5049'>0.36014E+02</wgt>
<wgt id='5050'>0.35484E+02</wgt>
<wgt id='5051'>0.35735E+02</wgt>
<wgt id='5052'>0.35948E+02</wgt>
<wgt id='5053'>0.34135E+02</wgt>
<wgt id='5054'>0.34944E+02</wgt>
<wgt id='5055'>0.35800E+02</wgt>
<wgt id='5056'>0.36212E+02</wgt>
<wgt id='5060'>0.33997E+02</wgt>
<wgt id='5070'>0.38115E+02</wgt>
<wgt id='4000'>0.37073E+02</wgt>
<wgt id='4001'>0.37007E+02</wgt>
<wgt id='4002'>0.36857E+02</wgt>
<wgt id='4003'>0.37366E+02</wgt>
<wgt id='4004'>0.37539E+02</wgt>
<wgt id='4005'>0.36296E+02</wgt>
<wgt id='4006'>0.37512E+02</wgt>
<wgt id='4007'>0.36972E+02</wgt>
<wgt id='4008'>0.37116E+02</wgt>
<wgt id='4009'>0.38551E+02</wgt>
<wgt id='4010'>0.35815E+02</wgt>
<wgt id='4011'>0.37126E+02</wgt>
<wgt id='4012'>0.37001E+02</wgt>
<wgt id='4013'>0.39506E+02</wgt>
<wgt id='4014'>0.35602E+02</wgt>
<wgt id='4015'>0.38099E+02</wgt>
<wgt id='4016'>0.36429E+02</wgt>
<wgt id='4017'>0.36445E+02</wgt>
<wgt id='4018'>0.37832E+02</wgt>
<wgt id='4019'>0.35695E+02</wgt>
<wgt id='4020'>0.38567E+02</wgt>
<wgt id='4021'>0.36751E+02</wgt>
<wgt id='4022'>0.37730E+02</wgt>
<wgt id='4023'>0.38094E+02</wgt>
<wgt id='4024'>0.36081E+02</wgt>
<wgt id='4025'>0.37011E+02</wgt>
<wgt id='4026'>0.37127E+02</wgt>
<wgt id='4027'>0.37576E+02</wgt>
<wgt id='4028'>0.36370E+02</wgt>
<wgt id='4029'>0.37622E+02</wgt>
<wgt id='4030'>0.36880E+02</wgt>
<wgt id='4031'>0.36947E+02</wgt>
<wgt id='4032'>0.37240E+02</wgt>
<wgt id='4033'>0.37305E+02</wgt>
<wgt id='4034'>0.36571E+02</wgt>
<wgt id='4035'>0.36153E+02</wgt>
<wgt id='4036'>0.37871E+02</wgt>
<wgt id='4037'>0.35843E+02</wgt>
<wgt id='4038'>0.38951E+02</wgt>
<wgt id='4039'>0.36409E+02</wgt>
<wgt id='4040'>0.37699E+02</wgt>
<wgt id='4041'>0.37492E+02</wgt>
<wgt id='4042'>0.36460E+02</wgt>
<wgt id='4043'>0.37131E+02</wgt>
<wgt id='4044'>0.36510E+02</wgt>
<wgt id='4045'>0.38194E+02</wgt>
<wgt id='4046'>0.36935E+02</wgt>
<wgt id='4047'>0.37245E+02</wgt>
<wgt id='4048'>0.38416E+02</wgt>
<wgt id='4049'>0.38245E+02</wgt>
<wgt id='4050'>0.37952E+02</wgt>
<wgt id='4051'>0.37235E+02</wgt>
<wgt id='4052'>0.37172E+02</wgt>
<wgt id='4053'>0.35298E+02</wgt>
<wgt id='4054'>0.37434E+02</wgt>
<wgt id='4055'>0.36904E+02</wgt>
<wgt id='4056'>0.37305E+02</wgt>
<wgt id='4060'>0.35321E+02</wgt>
<wgt id='4070'>0.39149E+02</wgt>
<wgt id='4080'>0.48169E+02</wgt>
<wgt id='6000'>0.35090E+02</wgt>
<wgt id='6001'>0.35124E+02</wgt>
<wgt id='6002'>0.35054E+02</wgt>
<wgt id='6003'>0.35106E+02</wgt>
<wgt id='6004'>0.35081E+02</wgt>
<wgt id='6005'>0.35251E+02</wgt>
<wgt id='6006'>0.34940E+02</wgt>
<wgt id='6007'>0.35019E+02</wgt>
<wgt id='6008'>0.35174E+02</wgt>
<wgt id='6009'>0.35176E+02</wgt>
<wgt id='6010'>0.35007E+02</wgt>
<wgt id='6011'>0.35125E+02</wgt>
<wgt id='6012'>0.35013E+02</wgt>
<wgt id='6013'>0.35072E+02</wgt>
<wgt id='6014'>0.35122E+02</wgt>
<wgt id='6015'>0.35075E+02</wgt>
<wgt id='6016'>0.35100E+02</wgt>
<wgt id='6017'>0.34892E+02</wgt>
<wgt id='6018'>0.35327E+02</wgt>
<wgt id='6019'>0.35074E+02</wgt>
<wgt id='6020'>0.35105E+02</wgt>
<wgt id='6021'>0.34961E+02</wgt>
<wgt id='6022'>0.35261E+02</wgt>
<wgt id='6023'>0.34795E+02</wgt>
<wgt id='6024'>0.35284E+02</wgt>
<wgt id='6025'>0.35615E+02</wgt>
<wgt id='6026'>0.34529E+02</wgt>
<wgt id='6027'>0.35094E+02</wgt>
<wgt id='6028'>0.35103E+02</wgt>
<wgt id='6029'>0.34634E+02</wgt>
<wgt id='6030'>0.35655E+02</wgt>
<wgt id='6031'>0.34230E+02</wgt>
<wgt id='6032'>0.36111E+02</wgt>
<wgt id='6033'>0.35435E+02</wgt>
<wgt id='6034'>0.34761E+02</wgt>
<wgt id='6035'>0.35255E+02</wgt>
<wgt id='6036'>0.34731E+02</wgt>
<wgt id='6037'>0.35095E+02</wgt>
<wgt id='6038'>0.35067E+02</wgt>
<wgt id='6039'>0.34885E+02</wgt>
<wgt id='6040'>0.35325E+02</wgt>
<wgt id='6041'>0.34590E+02</wgt>
<wgt id='6042'>0.35675E+02</wgt>
<wgt id='6043'>0.35360E+02</wgt>
<wgt id='6044'>0.35061E+02</wgt>
<wgt id='6045'>0.34984E+02</wgt>
<wgt id='6046'>0.35368E+02</wgt>
<wgt id='6047'>0.34478E+02</wgt>
<wgt id='6048'>0.36160E+02</wgt>
<wgt id='6049'>0.34667E+02</wgt>
<wgt id='6050'>0.35326E+02</wgt>
<wgt id='7000'>0.34851E+02</wgt>
<wgt id='7001'>0.34855E+02</wgt>
<wgt id='7002'>0.34847E+02</wgt>
<wgt id='7003'>0.34983E+02</wgt>
<wgt id='7004'>0.34722E+02</wgt>
<wgt id='7005'>0.34921E+02</wgt>
<wgt id='7006'>0.34822E+02</wgt>
<wgt id='7007'>0.34837E+02</wgt>
<wgt id='7008'>0.34862E+02</wgt>
<wgt id='7009'>0.34909E+02</wgt>
<wgt id='7010'>0.34795E+02</wgt>
<wgt id='7011'>0.34665E+02</wgt>
<wgt id='7012'>0.34929E+02</wgt>
<wgt id='7013'>0.34835E+02</wgt>
<wgt id='7014'>0.34870E+02</wgt>
<wgt id='7015'>0.34817E+02</wgt>
<wgt id='7016'>0.34887E+02</wgt>
<wgt id='7017'>0.34547E+02</wgt>
<wgt id='7018'>0.35020E+02</wgt>
<wgt id='7019'>0.34833E+02</wgt>
<wgt id='7020'>0.34873E+02</wgt>
<wgt id='7021'>0.34895E+02</wgt>
<wgt id='7022'>0.34818E+02</wgt>
<wgt id='7023'>0.34934E+02</wgt>
<wgt id='7024'>0.34761E+02</wgt>
<wgt id='7025'>0.34895E+02</wgt>
<wgt id='7026'>0.34733E+02</wgt>
<wgt id='7027'>0.34774E+02</wgt>
<wgt id='7028'>0.34922E+02</wgt>
<wgt id='7029'>0.35343E+02</wgt>
<wgt id='7030'>0.33624E+02</wgt>
<wgt id='7031'>0.34429E+02</wgt>
<wgt id='7032'>0.35768E+02</wgt>
<wgt id='7033'>0.35035E+02</wgt>
<wgt id='7034'>0.34524E+02</wgt>
<wgt id='7035'>0.34209E+02</wgt>
<wgt id='7036'>0.35170E+02</wgt>
<wgt id='7037'>0.34821E+02</wgt>
<wgt id='7038'>0.34929E+02</wgt>
<wgt id='7039'>0.34552E+02</wgt>
<wgt id='7040'>0.35078E+02</wgt>
<wgt id='7041'>0.35488E+02</wgt>
<wgt id='7042'>0.33930E+02</wgt>
<wgt id='7043'>0.34907E+02</wgt>
<wgt id='7044'>0.34547E+02</wgt>
<wgt id='7045'>0.35224E+02</wgt>
<wgt id='7046'>0.34556E+02</wgt>
<wgt id='7047'>0.34724E+02</wgt>
<wgt id='7048'>0.34905E+02</wgt>
<wgt id='7049'>0.35456E+02</wgt>
<wgt id='7050'>0.34404E+02</wgt>
<wgt id='7060'>0.59492E+02</wgt>
<wgt id='8000'>0.31044E+02</wgt>
<wgt id='8001'>0.31039E+02</wgt>
<wgt id='8002'>0.31053E+02</wgt>
<wgt id='8003'>0.31043E+02</wgt>
<wgt id='8004'>0.31043E+02</wgt>
<wgt id='8005'>0.30983E+02</wgt>
<wgt id='8006'>0.31081E+02</wgt>
<wgt id='8007'>0.31099E+02</wgt>
<wgt id='8008'>0.31099E+02</wgt>
<wgt id='8009'>0.31162E+02</wgt>
<wgt id='8010'>0.31011E+02</wgt>
<wgt id='8011'>0.31067E+02</wgt>
<wgt id='8012'>0.30953E+02</wgt>
<wgt id='8013'>0.30981E+02</wgt>
<wgt id='8014'>0.31116E+02</wgt>
<wgt id='8015'>0.31017E+02</wgt>
<wgt id='8016'>0.31118E+02</wgt>
<wgt id='8017'>0.31120E+02</wgt>
<wgt id='8018'>0.31212E+02</wgt>
<wgt id='8019'>0.30853E+02</wgt>
<wgt id='8020'>0.31358E+02</wgt>
<wgt id='8021'>0.30933E+02</wgt>
<wgt id='8022'>0.31607E+02</wgt>
<wgt id='8023'>0.30815E+02</wgt>
<wgt id='8024'>0.30639E+02</wgt>
<wgt id='8025'>0.30651E+02</wgt>
<wgt id='8026'>0.30978E+02</wgt>
<wgt id='8027'>0.31158E+02</wgt>
<wgt id='8028'>0.31036E+02</wgt>
<wgt id='8029'>0.32730E+02</wgt>
<wgt id='8500'>0.36047E+02</wgt>
<wgt id='8501'>0.35449E+02</wgt>
<wgt id='8502'>0.35953E+02</wgt>
<wgt id='8503'>0.36174E+02</wgt>
<wgt id='8504'>0.35858E+02</wgt>
<wgt id='8505'>0.36170E+02</wgt>
<wgt id='8506'>0.35913E+02</wgt>
<wgt id='8507'>0.36033E+02</wgt>
<wgt id='8508'>0.35610E+02</wgt>
<wgt id='8509'>0.36123E+02</wgt>
<wgt id='8510'>0.35532E+02</wgt>
<wgt id='8511'>0.35739E+02</wgt>
<wgt id='8512'>0.36636E+02</wgt>
<wgt id='8513'>0.36516E+02</wgt>
<wgt id='8514'>0.36402E+02</wgt>
<wgt id='8515'>0.36151E+02</wgt>
<wgt id='8516'>0.35897E+02</wgt>
<wgt id='8517'>0.36593E+02</wgt>
<wgt id='8518'>0.36275E+02</wgt>
<wgt id='8519'>0.36413E+02</wgt>
<wgt id='8520'>0.34841E+02</wgt>
<wgt id='8521'>0.35781E+02</wgt>
<wgt id='8522'>0.36855E+02</wgt>
<wgt id='8523'>0.35436E+02</wgt>
<wgt id='8524'>0.36212E+02</wgt>
<wgt id='8525'>0.36120E+02</wgt>
<wgt id='8526'>0.35925E+02</wgt>
<wgt id='8527'>0.36083E+02</wgt>
<wgt id='8528'>0.35914E+02</wgt>
<wgt id='8529'>0.36007E+02</wgt>
<wgt id='8530'>0.36051E+02</wgt>
<wgt id='8531'>0.36045E+02</wgt>
<wgt id='8532'>0.35998E+02</wgt>
<wgt id='8533'>0.35907E+02</wgt>
<wgt id='8534'>0.36023E+02</wgt>
<wgt id='8535'>0.36157E+02</wgt>
<wgt id='8536'>0.35878E+02</wgt>
<wgt id='8537'>0.36038E+02</wgt>
<wgt id='8538'>0.36032E+02</wgt>
<wgt id='8539'>0.36041E+02</wgt>
<wgt id='8540'>0.36100E+02</wgt>
<wgt id='8541'>0.36090E+02</wgt>
<wgt id='8542'>0.36001E+02</wgt>
<wgt id='8543'>0.35970E+02</wgt>
<wgt id='8544'>0.36109E+02</wgt>
<wgt id='8545'>0.36067E+02</wgt>
<wgt id='8546'>0.36138E+02</wgt>
<wgt id='8547'>0.35979E+02</wgt>
<wgt id='8548'>0.35970E+02</wgt>
<wgt id='8549'>0.36071E+02</wgt>
<wgt id='8550'>0.36039E+02</wgt>
<wgt id='8551'>0.36081E+02</wgt>
<wgt id='8552'>0.35996E+02</wgt>
<wgt id='8553'>0.35967E+02</wgt>
<wgt id='8554'>0.36036E+02</wgt>
<wgt id='8555'>0.36050E+02</wgt>
<wgt id='8556'>0.36022E+02</wgt>
<wgt id='8557'>0.36062E+02</wgt>
<wgt id='8558'>0.36080E+02</wgt>
<wgt id='8559'>0.36036E+02</wgt>
<wgt id='8560'>0.36024E+02</wgt>
<wgt id='8561'>0.36073E+02</wgt>
<wgt id='8562'>0.36038E+02</wgt>
<wgt id='8563'>0.36051E+02</wgt>
<wgt id='8564'>0.36049E+02</wgt>
<wgt id='8565'>0.36086E+02</wgt>
<wgt id='8566'>0.36104E+02</wgt>
<wgt id='8567'>0.36069E+02</wgt>
<wgt id='8568'>0.36072E+02</wgt>
<wgt id='8569'>0.36071E+02</wgt>
<wgt id='8570'>0.36039E+02</wgt>
<wgt id='8571'>0.35996E+02</wgt>
<wgt id='8572'>0.36014E+02</wgt>
<wgt id='8573'>0.36006E+02</wgt>
<wgt id='8574'>0.36040E+02</wgt>
<wgt id='8575'>0.36016E+02</wgt>
<wgt id='8576'>0.36061E+02</wgt>
<wgt id='8577'>0.36004E+02</wgt>
<wgt id='8578'>0.36063E+02</wgt>
<wgt id='8579'>0.36098E+02</wgt>
<wgt id='8580'>0.36017E+02</wgt>
<wgt id='8581'>0.36068E+02</wgt>
<wgt id='8582'>0.36024E+02</wgt>
<wgt id='8583'>0.36062E+02</wgt>
<wgt id='8584'>0.36092E+02</wgt>
<wgt id='8585'>0.36063E+02</wgt>
<wgt id='8586'>0.36116E+02</wgt>
<wgt id='8587'>0.36057E+02</wgt>
<wgt id='8588'>0.36049E+02</wgt>
<wgt id='8589'>0.36052E+02</wgt>
<wgt id='8590'>0.36038E+02</wgt>
<wgt id='8591'>0.36021E+02</wgt>
<wgt id='8592'>0.36038E+02</wgt>
<wgt id='8593'>0.36026E+02</wgt>
<wgt id='8594'>0.36042E+02</wgt>
<wgt id='8595'>0.36040E+02</wgt>
<wgt id='8596'>0.36034E+02</wgt>
<wgt id='8597'>0.36064E+02</wgt>
<wgt id='8598'>0.36061E+02</wgt>
<wgt id='8599'>0.36057E+02</wgt>
<wgt id='8600'>0.36047E+02</wgt>
<wgt id='8601'>0.34847E+02</wgt>
<wgt id='8602'>0.37459E+02</wgt>
<wgt id='9000'>0.34730E+02</wgt>
<wgt id='9001'>0.35019E+02</wgt>
<wgt id='9002'>0.34522E+02</wgt>
<wgt id='9003'>0.35114E+02</wgt>
<wgt id='9004'>0.35027E+02</wgt>
<wgt id='9005'>0.35041E+02</wgt>
<wgt id='9006'>0.34879E+02</wgt>
<wgt id='9007'>0.34564E+02</wgt>
<wgt id='9008'>0.34526E+02</wgt>
<wgt id='9009'>0.34942E+02</wgt>
<wgt id='9010'>0.34999E+02</wgt>
<wgt id='9011'>0.34410E+02</wgt>
<wgt id='9012'>0.35017E+02</wgt>
<wgt id='9013'>0.35559E+02</wgt>
<wgt id='9014'>0.34884E+02</wgt>
<wgt id='9015'>0.34248E+02</wgt>
<wgt id='9016'>0.34235E+02</wgt>
<wgt id='9017'>0.34869E+02</wgt>
<wgt id='9018'>0.35034E+02</wgt>
<wgt id='9019'>0.35075E+02</wgt>
<wgt id='9020'>0.34137E+02</wgt>
<wgt id='9021'>0.33699E+02</wgt>
<wgt id='9022'>0.35000E+02</wgt>
<wgt id='9023'>0.33761E+02</wgt>
<wgt id='9024'>0.34379E+02</wgt>
<wgt id='9025'>0.34764E+02</wgt>
<wgt id='9026'>0.34469E+02</wgt>
<wgt id='9027'>0.34829E+02</wgt>
<wgt id='9028'>0.34905E+02</wgt>
<wgt id='9029'>0.34837E+02</wgt>
<wgt id='9030'>0.34772E+02</wgt>
<wgt id='9031'>0.34641E+02</wgt>
<wgt id='9032'>0.34771E+02</wgt>
<wgt id='9033'>0.34817E+02</wgt>
<wgt id='9034'>0.34801E+02</wgt>
<wgt id='9035'>0.34820E+02</wgt>
<wgt id='9036'>0.34767E+02</wgt>
<wgt id='9037'>0.34790E+02</wgt>
<wgt id='9038'>0.34814E+02</wgt>
<wgt id='9039'>0.34745E+02</wgt>
<wgt id='9040'>0.34636E+02</wgt>
<wgt id='9041'>0.34744E+02</wgt>
<wgt id='9042'>0.34852E+02</wgt>
<wgt id='9043'>0.34636E+02</wgt>
<wgt id='9044'>0.34773E+02</wgt>
<wgt id='9045'>0.34759E+02</wgt>
<wgt id='9046'>0.34660E+02</wgt>
<wgt id='9047'>0.34748E+02</wgt>
<wgt id='9048'>0.34768E+02</wgt>
<wgt id='9049'>0.34701E+02</wgt>
<wgt id='9050'>0.34726E+02</wgt>
<wgt id='9051'>0.34782E+02</wgt>
<wgt id='9052'>0.34802E+02</wgt>
<wgt id='9053'>0.34755E+02</wgt>
<wgt id='9054'>0.34685E+02</wgt>
<wgt id='9055'>0.34707E+02</wgt>
<wgt id='9056'>0.34738E+02</wgt>
<wgt id='9057'>0.34717E+02</wgt>
<wgt id='9058'>0.34692E+02</wgt>
<wgt id='9059'>0.34708E+02</wgt>
<wgt id='9060'>0.34737E+02</wgt>
<wgt id='9061'>0.34709E+02</wgt>
<wgt id='9062'>0.34748E+02</wgt>
<wgt id='9063'>0.34738E+02</wgt>
<wgt id='9064'>0.34757E+02</wgt>
<wgt id='9065'>0.34703E+02</wgt>
<wgt id='9066'>0.34705E+02</wgt>
<wgt id='9067'>0.34701E+02</wgt>
<wgt id='9068'>0.34732E+02</wgt>
<wgt id='9069'>0.34776E+02</wgt>
<wgt id='9070'>0.34722E+02</wgt>
<wgt id='9071'>0.34740E+02</wgt>
<wgt id='9072'>0.34748E+02</wgt>
<wgt id='9073'>0.34724E+02</wgt>
<wgt id='9074'>0.34755E+02</wgt>
<wgt id='9075'>0.34733E+02</wgt>
<wgt id='9076'>0.34727E+02</wgt>
<wgt id='9077'>0.34749E+02</wgt>
<wgt id='9078'>0.34755E+02</wgt>
<wgt id='9079'>0.34704E+02</wgt>
<wgt id='9080'>0.34770E+02</wgt>
<wgt id='9081'>0.34729E+02</wgt>
<wgt id='9082'>0.34731E+02</wgt>
<wgt id='9083'>0.34721E+02</wgt>
<wgt id='9084'>0.34693E+02</wgt>
<wgt id='9085'>0.34690E+02</wgt>
<wgt id='9086'>0.34750E+02</wgt>
<wgt id='9087'>0.34673E+02</wgt>
<wgt id='9088'>0.34705E+02</wgt>
<wgt id='9089'>0.34711E+02</wgt>
<wgt id='9090'>0.34744E+02</wgt>
<wgt id='9091'>0.34715E+02</wgt>
<wgt id='9092'>0.34721E+02</wgt>
<wgt id='9093'>0.34713E+02</wgt>
<wgt id='9094'>0.34709E+02</wgt>
<wgt id='9095'>0.34728E+02</wgt>
<wgt id='9096'>0.34718E+02</wgt>
<wgt id='9097'>0.34735E+02</wgt>
<wgt id='9098'>0.34726E+02</wgt>
<wgt id='9099'>0.34714E+02</wgt>
<wgt id='9100'>0.34730E+02</wgt>
<wgt id='9101'>0.33382E+02</wgt>
<wgt id='9102'>0.36261E+02</wgt>
<wgt id='10000'>0.36048E+02</wgt>
<wgt id='10001'>0.35598E+02</wgt>
<wgt id='10002'>0.35479E+02</wgt>
<wgt id='10003'>0.35893E+02</wgt>
<wgt id='10004'>0.35972E+02</wgt>
<wgt id='10005'>0.35325E+02</wgt>
<wgt id='10006'>0.35240E+02</wgt>
<wgt id='10007'>0.36021E+02</wgt>
<wgt id='10008'>0.35624E+02</wgt>
<wgt id='10009'>0.35788E+02</wgt>
<wgt id='10010'>0.35868E+02</wgt>
<wgt id='10011'>0.35634E+02</wgt>
<wgt id='10012'>0.35681E+02</wgt>
<wgt id='10013'>0.36140E+02</wgt>
<wgt id='10014'>0.36109E+02</wgt>
<wgt id='10015'>0.36225E+02</wgt>
<wgt id='10016'>0.36151E+02</wgt>
<wgt id='10017'>0.36165E+02</wgt>
<wgt id='10018'>0.36255E+02</wgt>
<wgt id='10019'>0.35098E+02</wgt>
<wgt id='10020'>0.36148E+02</wgt>
<wgt id='10021'>0.35941E+02</wgt>
<wgt id='10022'>0.37103E+02</wgt>
<wgt id='10023'>0.36038E+02</wgt>
<wgt id='10024'>0.36011E+02</wgt>
<wgt id='10025'>0.36022E+02</wgt>
<wgt id='10026'>0.35917E+02</wgt>
<wgt id='10027'>0.35976E+02</wgt>
<wgt id='10028'>0.35791E+02</wgt>
<wgt id='10029'>0.36113E+02</wgt>
<wgt id='10030'>0.36063E+02</wgt>
<wgt id='10031'>0.34847E+02</wgt>
<wgt id='10032'>0.37459E+02</wgt>
<wgt id='11000'>0.34730E+02</wgt>
<wgt id='11001'>0.34716E+02</wgt>
<wgt id='11002'>0.34382E+02</wgt>
<wgt id='11003'>0.34847E+02</wgt>
<wgt id='11004'>0.34086E+02</wgt>
<wgt id='11005'>0.36364E+02</wgt>
<wgt id='11006'>0.34749E+02</wgt>
<wgt id='11007'>0.34864E+02</wgt>
<wgt id='11008'>0.34803E+02</wgt>
<wgt id='11009'>0.34834E+02</wgt>
<wgt id='11010'>0.34564E+02</wgt>
<wgt id='11011'>0.34639E+02</wgt>
<wgt id='11012'>0.34559E+02</wgt>
<wgt id='11013'>0.34694E+02</wgt>
<wgt id='11014'>0.34581E+02</wgt>
<wgt id='11015'>0.34346E+02</wgt>
<wgt id='11016'>0.34884E+02</wgt>
<wgt id='11017'>0.34921E+02</wgt>
<wgt id='11018'>0.34744E+02</wgt>
<wgt id='11019'>0.34935E+02</wgt>
<wgt id='11020'>0.34819E+02</wgt>
<wgt id='11021'>0.34879E+02</wgt>
<wgt id='11022'>0.34569E+02</wgt>
<wgt id='11023'>0.34799E+02</wgt>
<wgt id='11024'>0.34497E+02</wgt>
<wgt id='11025'>0.34538E+02</wgt>
<wgt id='11026'>0.34754E+02</wgt>
<wgt id='11027'>0.34995E+02</wgt>
<wgt id='11028'>0.34657E+02</wgt>
<wgt id='11029'>0.33755E+02</wgt>
<wgt id='11030'>0.34706E+02</wgt>
<wgt id='11031'>0.33382E+02</wgt>
<wgt id='11032'>0.36261E+02</wgt>
<wgt id='12000'>0.25103E+02</wgt>
<wgt id='12001'>0.25078E+02</wgt>
<wgt id='12002'>0.25127E+02</wgt>
<wgt id='12003'>0.25121E+02</wgt>
<wgt id='12004'>0.25084E+02</wgt>
<wgt id='12005'>0.25084E+02</wgt>
<wgt id='12006'>0.25122E+02</wgt>
<wgt id='12007'>0.25182E+02</wgt>
<wgt id='12008'>0.25025E+02</wgt>
<wgt id='12009'>0.25065E+02</wgt>
<wgt id='12010'>0.25143E+02</wgt>
<wgt id='12011'>0.25025E+02</wgt>
<wgt id='12012'>0.25188E+02</wgt>
<wgt id='12013'>0.25157E+02</wgt>
<wgt id='12014'>0.25049E+02</wgt>
<wgt id='12015'>0.25226E+02</wgt>
<wgt id='12016'>0.24981E+02</wgt>
<wgt id='12017'>0.25148E+02</wgt>
<wgt id='12018'>0.25068E+02</wgt>
<wgt id='12019'>0.25484E+02</wgt>
<wgt id='12020'>0.24746E+02</wgt>
<wgt id='12021'>0.25159E+02</wgt>
<wgt id='12022'>0.25054E+02</wgt>
<wgt id='12023'>0.24864E+02</wgt>
<wgt id='12024'>0.25405E+02</wgt>
<wgt id='12025'>0.24775E+02</wgt>
<wgt id='12026'>0.25425E+02</wgt>
<wgt id='12027'>0.25508E+02</wgt>
<wgt id='12028'>0.24786E+02</wgt>
<wgt id='12050'>0.25103E+02</wgt>
<wgt id='12051'>0.25249E+02</wgt>
<wgt id='12052'>0.24909E+02</wgt>
<wgt id='12053'>0.25257E+02</wgt>
<wgt id='12054'>0.24974E+02</wgt>
<wgt id='12055'>0.24549E+02</wgt>
<wgt id='12056'>0.26234E+02</wgt>
<wgt id='12057'>0.25156E+02</wgt>
<wgt id='12058'>0.25082E+02</wgt>
<wgt id='12059'>0.25316E+02</wgt>
<wgt id='12060'>0.24912E+02</wgt>
<wgt id='12061'>0.25060E+02</wgt>
<wgt id='12062'>0.25012E+02</wgt>
<wgt id='12063'>0.25748E+02</wgt>
<wgt id='13000'>0.29878E+02</wgt>
<wgt id='13001'>0.29849E+02</wgt>
<wgt id='13002'>0.29902E+02</wgt>
<wgt id='13003'>0.29884E+02</wgt>
<wgt id='13004'>0.29866E+02</wgt>
<wgt id='13005'>0.29882E+02</wgt>
<wgt id='13006'>0.29869E+02</wgt>
<wgt id='13007'>0.30010E+02</wgt>
<wgt id='13008'>0.29744E+02</wgt>
<wgt id='13009'>0.29760E+02</wgt>
<wgt id='13010'>0.29995E+02</wgt>
<wgt id='13011'>0.29966E+02</wgt>
<wgt id='13012'>0.29789E+02</wgt>
<wgt id='13013'>0.29907E+02</wgt>
<wgt id='13014'>0.29843E+02</wgt>
<wgt id='13015'>0.30006E+02</wgt>
<wgt id='13016'>0.29718E+02</wgt>
<wgt id='13017'>0.29726E+02</wgt>
<wgt id='13018'>0.30033E+02</wgt>
<wgt id='13019'>0.30252E+02</wgt>
<wgt id='13020'>0.29515E+02</wgt>
<wgt id='13021'>0.30719E+02</wgt>
<wgt id='13022'>0.29108E+02</wgt>
<wgt id='13023'>0.29194E+02</wgt>
<wgt id='13024'>0.30570E+02</wgt>
<wgt id='13025'>0.29126E+02</wgt>
<wgt id='13026'>0.30612E+02</wgt>
<wgt id='13027'>0.29539E+02</wgt>
<wgt id='13028'>0.30254E+02</wgt>
<wgt id='13050'>0.29878E+02</wgt>
<wgt id='13051'>0.30004E+02</wgt>
<wgt id='13052'>0.29538E+02</wgt>
<wgt id='13053'>0.30047E+02</wgt>
<wgt id='13054'>0.29823E+02</wgt>
<wgt id='13055'>0.27932E+02</wgt>
<wgt id='13056'>0.31373E+02</wgt>
<wgt id='13057'>0.29942E+02</wgt>
<wgt id='13058'>0.29821E+02</wgt>
<wgt id='13059'>0.30389E+02</wgt>
<wgt id='13060'>0.27736E+02</wgt>
<wgt id='13061'>0.30285E+02</wgt>
<wgt id='13062'>0.29362E+02</wgt>
<wgt id='13063'>0.31124E+02</wgt>
<wgt id='14000'>0.36898E+02</wgt>
<wgt id='14001'>0.36895E+02</wgt>
<wgt id='14002'>0.36891E+02</wgt>
<wgt id='14003'>0.36887E+02</wgt>
<wgt id='14004'>0.36883E+02</wgt>
<wgt id='14005'>0.36879E+02</wgt>
<wgt id='14006'>0.36875E+02</wgt>
<wgt id='14007'>0.36871E+02</wgt>
<wgt id='14008'>0.36868E+02</wgt>
<wgt id='14009'>0.36864E+02</wgt>
<wgt id='14010'>0.36860E+02</wgt>
<wgt id='14011'>0.36856E+02</wgt>
<wgt id='14012'>0.36852E+02</wgt>
<wgt id='14013'>0.36848E+02</wgt>
<wgt id='14014'>0.36845E+02</wgt>
<wgt id='14015'>0.36841E+02</wgt>
<wgt id='14016'>0.36837E+02</wgt>
<wgt id='14017'>0.36833E+02</wgt>
<wgt id='14018'>0.36829E+02</wgt>
<wgt id='14019'>0.36825E+02</wgt>
<wgt id='14020'>0.36822E+02</wgt>
<wgt id='14021'>0.36818E+02</wgt>
<wgt id='14022'>0.36814E+02</wgt>
<wgt id='14023'>0.36810E+02</wgt>
<wgt id='14024'>0.36806E+02</wgt>
<wgt id='14025'>0.36802E+02</wgt>
<wgt id='14026'>0.36798E+02</wgt>
<wgt id='14027'>0.36795E+02</wgt>
<wgt id='14028'>0.36791E+02</wgt>
<wgt id='14029'>0.36787E+02</wgt>
<wgt id='14030'>0.36783E+02</wgt>
<wgt id='15000'>0.34324E+02</wgt>
<wgt id='15001'>0.34612E+02</wgt>
<wgt id='15002'>0.34119E+02</wgt>
<wgt id='15003'>0.34704E+02</wgt>
<wgt id='15004'>0.34619E+02</wgt>
<wgt id='15005'>0.34633E+02</wgt>
<wgt id='15006'>0.34471E+02</wgt>
<wgt id='15007'>0.34158E+02</wgt>
<wgt id='15008'>0.34123E+02</wgt>
<wgt id='15009'>0.34534E+02</wgt>
<wgt id='15010'>0.34591E+02</wgt>
<wgt id='15011'>0.34007E+02</wgt>
<wgt id='15012'>0.34606E+02</wgt>
<wgt id='15013'>0.35143E+02</wgt>
<wgt id='15014'>0.34476E+02</wgt>
<wgt id='15015'>0.33851E+02</wgt>
<wgt id='15016'>0.33834E+02</wgt>
<wgt id='15017'>0.34463E+02</wgt>
<wgt id='15018'>0.34625E+02</wgt>
<wgt id='15019'>0.34664E+02</wgt>
<wgt id='15020'>0.33738E+02</wgt>
<wgt id='15021'>0.33306E+02</wgt>
<wgt id='15022'>0.34593E+02</wgt>
<wgt id='15023'>0.33364E+02</wgt>
<wgt id='15024'>0.33978E+02</wgt>
<wgt id='15025'>0.34361E+02</wgt>
<wgt id='15026'>0.34068E+02</wgt>
<wgt id='15027'>0.34420E+02</wgt>
<wgt id='15028'>0.34497E+02</wgt>
<wgt id='15029'>0.34432E+02</wgt>
<wgt id='15030'>0.34367E+02</wgt>
<wgt id='15031'>0.34234E+02</wgt>
<wgt id='15032'>0.34366E+02</wgt>
<wgt id='15033'>0.34412E+02</wgt>
<wgt id='15034'>0.34395E+02</wgt>
<wgt id='15035'>0.34415E+02</wgt>
<wgt id='15036'>0.34361E+02</wgt>
<wgt id='15037'>0.34385E+02</wgt>
<wgt id='15038'>0.34408E+02</wgt>
<wgt id='15039'>0.34340E+02</wgt>
<wgt id='15040'>0.34231E+02</wgt>
<wgt id='15041'>0.34338E+02</wgt>
<wgt id='15042'>0.34445E+02</wgt>
<wgt id='15043'>0.34231E+02</wgt>
<wgt id='15044'>0.34368E+02</wgt>
<wgt id='15045'>0.34353E+02</wgt>
<wgt id='15046'>0.34254E+02</wgt>
<wgt id='15047'>0.34343E+02</wgt>
<wgt id='15048'>0.34362E+02</wgt>
<wgt id='15049'>0.34296E+02</wgt>
<wgt id='15050'>0.34321E+02</wgt>
<wgt id='15051'>0.34377E+02</wgt>
<wgt id='15052'>0.34395E+02</wgt>
<wgt id='15053'>0.34350E+02</wgt>
<wgt id='15054'>0.34280E+02</wgt>
<wgt id='15055'>0.34301E+02</wgt>
<wgt id='15056'>0.34333E+02</wgt>
<wgt id='15057'>0.34311E+02</wgt>
<wgt id='15058'>0.34286E+02</wgt>
<wgt id='15059'>0.34302E+02</wgt>
<wgt id='15060'>0.34331E+02</wgt>
<wgt id='15061'>0.34304E+02</wgt>
<wgt id='15062'>0.34343E+02</wgt>
<wgt id='15063'>0.34333E+02</wgt>
<wgt id='15064'>0.34351E+02</wgt>
<wgt id='15065'>0.34299E+02</wgt>
<wgt id='15066'>0.34300E+02</wgt>
<wgt id='15067'>0.34297E+02</wgt>
<wgt id='15068'>0.34326E+02</wgt>
<wgt id='15069'>0.34370E+02</wgt>
<wgt id='15070'>0.34316E+02</wgt>
<wgt id='15071'>0.34335E+02</wgt>
<wgt id='15072'>0.34343E+02</wgt>
<wgt id='15073'>0.34319E+02</wgt>
<wgt id='15074'>0.34349E+02</wgt>
<wgt id='15075'>0.34328E+02</wgt>
<wgt id='15076'>0.34322E+02</wgt>
<wgt id='15077'>0.34343E+02</wgt>
<wgt id='15078'>0.34349E+02</wgt>
<wgt id='15079'>0.34299E+02</wgt>
<wgt id='15080'>0.34364E+02</wgt>
<wgt id='15081'>0.34323E+02</wgt>
<wgt id='15082'>0.34326E+02</wgt>
<wgt id='15083'>0.34316E+02</wgt>
<wgt id='15084'>0.34288E+02</wgt>
<wgt id='15085'>0.34285E+02</wgt>
<wgt id='15086'>0.34343E+02</wgt>
<wgt id='15087'>0.34268E+02</wgt>
<wgt id='15088'>0.34300E+02</wgt>
<wgt id='15089'>0.34306E+02</wgt>
<wgt id='15090'>0.34338E+02</wgt>
<wgt id='15091'>0.34310E+02</wgt>
<wgt id='15092'>0.34316E+02</wgt>
<wgt id='15093'>0.34308E+02</wgt>
<wgt id='15094'>0.34304E+02</wgt>
<wgt id='15095'>0.34323E+02</wgt>
<wgt id='15096'>0.34313E+02</wgt>
<wgt id='15097'>0.34330E+02</wgt>
<wgt id='15098'>0.34320E+02</wgt>
<wgt id='15099'>0.34309E+02</wgt>
<wgt id='15100'>0.34324E+02</wgt>
<wgt id='15101'>0.34324E+02</wgt>
<wgt id='15102'>0.34322E+02</wgt>
<wgt id='15103'>0.34325E+02</wgt>
<wgt id='15104'>0.34325E+02</wgt>
<wgt id='15105'>0.34326E+02</wgt>
<wgt id='15106'>0.34325E+02</wgt>
<wgt id='15107'>0.34323E+02</wgt>
<wgt id='1500'>0.36104E+02</wgt>
<wgt id='1501'>0.34215E+02</wgt>
<wgt id='1502'>0.37172E+02</wgt>
<wgt id='1503'>0.33862E+02</wgt>
<wgt id='1504'>0.35426E+02</wgt>
<wgt id='1505'>0.33807E+02</wgt>
<wgt id='1506'>0.37378E+02</wgt>
<wgt id='1507'>0.35915E+02</wgt>
<wgt id='1508'>0.36731E+02</wgt>
<wgt id='1509'>0.35613E+02</wgt>
<wgt id='1510'>0.33374E+02</wgt>
<wgt id='1511'>0.38242E+02</wgt>
<wgt id='1512'>0.36010E+02</wgt>
<wgt id='1513'>0.38351E+02</wgt>
<wgt id='1514'>0.38312E+02</wgt>
<wgt id='1515'>0.37860E+02</wgt>
<wgt id='1516'>0.35674E+02</wgt>
<wgt id='1517'>0.40118E+02</wgt>
<wgt id='1518'>0.36920E+02</wgt>
<wgt id='1519'>0.35690E+02</wgt>
<wgt id='1520'>0.34772E+02</wgt>
<wgt id='1521'>0.35992E+02</wgt>
<wgt id='1522'>0.33226E+02</wgt>
<wgt id='1523'>0.34095E+02</wgt>
<wgt id='1524'>0.31781E+02</wgt>
<wgt id='1525'>0.36317E+02</wgt>
<wgt id='1526'>0.35696E+02</wgt>
<wgt id='1527'>0.40396E+02</wgt>
<wgt id='1528'>0.38693E+02</wgt>
<wgt id='1529'>0.37218E+02</wgt>
<wgt id='1530'>0.34976E+02</wgt>
<wgt id='1531'>0.34968E+02</wgt>
<wgt id='1532'>0.36303E+02</wgt>
<wgt id='1533'>0.35914E+02</wgt>
<wgt id='1534'>0.34670E+02</wgt>
<wgt id='1535'>0.37626E+02</wgt>
<wgt id='1536'>0.35596E+02</wgt>
<wgt id='1537'>0.38842E+02</wgt>
<wgt id='1538'>0.34966E+02</wgt>
<wgt id='1539'>0.35049E+02</wgt>
<wgt id='1540'>0.35322E+02</wgt>
<wgt id='1541'>0.34461E+02</wgt>
<wgt id='1542'>0.37109E+02</wgt>
<wgt id='1543'>0.33379E+02</wgt>
<wgt id='1544'>0.33828E+02</wgt>
<wgt id='1545'>0.33108E+02</wgt>
<wgt id='1546'>0.32768E+02</wgt>
<wgt id='1547'>0.37282E+02</wgt>
<wgt id='1548'>0.36819E+02</wgt>
<wgt id='1549'>0.37130E+02</wgt>
<wgt id='1550'>0.36143E+02</wgt>
<wgt id='1551'>0.35247E+02</wgt>
<wgt id='1552'>0.34267E+02</wgt>
<wgt id='1553'>0.35657E+02</wgt>
<wgt id='1554'>0.38118E+02</wgt>
<wgt id='1555'>0.35660E+02</wgt>
<wgt id='1556'>0.37881E+02</wgt>
<wgt id='1557'>0.36549E+02</wgt>
<wgt id='1558'>0.36344E+02</wgt>
<wgt id='1559'>0.36514E+02</wgt>
<wgt id='1560'>0.35176E+02</wgt>
<wgt id='1561'>0.36883E+02</wgt>
<wgt id='1562'>0.34149E+02</wgt>
<wgt id='1563'>0.37799E+02</wgt>
<wgt id='1564'>0.38247E+02</wgt>
<wgt id='1565'>0.35339E+02</wgt>
<wgt id='1566'>0.36112E+02</wgt>
<wgt id='1567'>0.34748E+02</wgt>
<wgt id='1568'>0.36802E+02</wgt>
<wgt id='1569'>0.37441E+02</wgt>
<wgt id='1570'>0.37871E+02</wgt>
<wgt id='1571'>0.33097E+02</wgt>
<wgt id='1572'>0.35979E+02</wgt>
<wgt id='1573'>0.36442E+02</wgt>
<wgt id='1574'>0.37796E+02</wgt>
<wgt id='1575'>0.36050E+02</wgt>
<wgt id='1576'>0.33256E+02</wgt>
<wgt id='1577'>0.35082E+02</wgt>
<wgt id='1578'>0.38594E+02</wgt>
<wgt id='1579'>0.35722E+02</wgt>
<wgt id='1580'>0.36534E+02</wgt>
<wgt id='1581'>0.34899E+02</wgt>
<wgt id='1582'>0.35578E+02</wgt>
<wgt id='1583'>0.38110E+02</wgt>
<wgt id='1584'>0.35992E+02</wgt>
<wgt id='1585'>0.36247E+02</wgt>
<wgt id='1586'>0.37262E+02</wgt>
<wgt id='1587'>0.36448E+02</wgt>
<wgt id='1588'>0.37430E+02</wgt>
<wgt id='1589'>0.36948E+02</wgt>
<wgt id='1590'>0.35926E+02</wgt>
<wgt id='1591'>0.35924E+02</wgt>
<wgt id='1592'>0.34434E+02</wgt>
<wgt id='1593'>0.37489E+02</wgt>
<wgt id='1594'>0.36214E+02</wgt>
<wgt id='1595'>0.40200E+02</wgt>
<wgt id='1596'>0.36302E+02</wgt>
<wgt id='1597'>0.35217E+02</wgt>
<wgt id='1598'>0.33051E+02</wgt>
<wgt id='1599'>0.37849E+02</wgt>
<wgt id='1600'>0.37871E+02</wgt>
<wgt id='1601'>0.34952E+02</wgt>
<wgt id='1602'>0.36926E+02</wgt>
<wgt id='1700'>0.33469E+02</wgt>
<wgt id='1800'>0.34058E+02</wgt>
<wgt id='1850'>0.42736E+02</wgt>
<wgt id='1900'>0.37602E+02</wgt>
<wgt id='1950'>0.42198E+02</wgt>
</rwgt>
</event>
<event>
      4   9999  3.15120E+01  3.65752E+01 -1.00000E+00  1.45035E-01
      21    -1     0     0   502   501  0.000000000E+00  0.000000000E+00  1.277424869E+03  1.277424869E+03  0.000000000E+00  0.00000E+00  9.000E+00
      21    -1     0     0   501   512  0.000000000E+00  0.000000000E+00 -5.138477446E+00  5.138477446E+00  0.000000000E+00  0.00000E+00  9.000E+00
      25     1     1     2     0     0  3.341429393E+01 -1.487381374E+01  9.876963412E+02  9.956326194E+02  1.200104369E+02  0.00000E+00  9.000E+00
      21     1     1     2   502   512 -3.341429393E+01  1.487381374E+01  2.845900501E+02  2.869307268E+02  3.814697266E-06  0.00000E+00  9.000E+00
#rwgt            1           1   22.139961780059235                1        1051           0
<rwgt>
<wgt id='1001'>0.31512E+02</wgt>
<wgt id='1002'>0.31582E+02</wgt>
<wgt id='1003'>0.31115E+02</wgt>
<wgt id='1004'>0.29434E+02</wgt>
<wgt id='1005'>0.29613E+02</wgt>
<wgt id='1006'>0.28910E+02</wgt>
<wgt id='1007'>0.32795E+02</wgt>
<wgt id='1008'>0.32661E+02</wgt>
<wgt id='1009'>0.32659E+02</wgt>
<wgt id='2000'>0.31512E+02</wgt>
<wgt id='2001'>0.31515E+02</wgt>
<wgt id='2002'>0.31332E+02</wgt>
<wgt id='2003'>0.31270E+02</wgt>
<wgt id='2004'>0.31581E+02</wgt>
<wgt id='2005'>0.31640E+02</wgt>
<wgt id='2006'>0.31502E+02</wgt>
<wgt id='2007'>0.31700E+02</wgt>
<wgt id='2008'>0.31606E+02</wgt>
<wgt id='2009'>0.31489E+02</wgt>
<wgt id='2010'>0.31407E+02</wgt>
<wgt id='2011'>0.31447E+02</wgt>
<wgt id='2012'>0.31527E+02</wgt>
<wgt id='2013'>0.31420E+02</wgt>
<wgt id='2014'>0.31451E+02</wgt>
<wgt id='2015'>0.31484E+02</wgt>
<wgt id='2016'>0.31560E+02</wgt>
<wgt id='2017'>0.31500E+02</wgt>
<wgt id='2018'>0.31451E+02</wgt>
<wgt id='2019'>0.31544E+02</wgt>
<wgt id='2020'>0.31476E+02</wgt>
<wgt id='2021'>0.31558E+02</wgt>
<wgt id='2022'>0.31424E+02</wgt>
<wgt id='2023'>0.31551E+02</wgt>
<wgt id='2024'>0.31475E+02</wgt>
<wgt id='2025'>0.31464E+02</wgt>
<wgt id='2026'>0.31511E+02</wgt>
<wgt id='2027'>0.31445E+02</wgt>
<wgt id='2028'>0.31482E+02</wgt>
<wgt id='2029'>0.31732E+02</wgt>
<wgt id='2030'>0.31595E+02</wgt>
<wgt id='2031'>0.31510E+02</wgt>
<wgt id='2032'>0.31637E+02</wgt>
<wgt id='2033'>0.31570E+02</wgt>
<wgt id='2034'>0.31363E+02</wgt>
<wgt id='2035'>0.31491E+02</wgt>
<wgt id='2036'>0.31512E+02</wgt>
<wgt id='2037'>0.31382E+02</wgt>
<wgt id='2038'>0.31508E+02</wgt>
<wgt id='2039'>0.31704E+02</wgt>
<wgt id='2040'>0.31702E+02</wgt>
<wgt id='2041'>0.31596E+02</wgt>
<wgt id='2042'>0.31286E+02</wgt>
<wgt id='2043'>0.31450E+02</wgt>
<wgt id='2044'>0.31481E+02</wgt>
<wgt id='2045'>0.31491E+02</wgt>
<wgt id='2046'>0.31567E+02</wgt>
<wgt id='2047'>0.31617E+02</wgt>
<wgt id='2048'>0.31367E+02</wgt>
<wgt id='2049'>0.31454E+02</wgt>
<wgt id='2050'>0.31539E+02</wgt>
<wgt id='2051'>0.31599E+02</wgt>
<wgt id='2052'>0.31550E+02</wgt>
<wgt id='2053'>0.31565E+02</wgt>
<wgt id='2054'>0.31544E+02</wgt>
<wgt id='2055'>0.31532E+02</wgt>
<wgt id='2056'>0.31497E+02</wgt>
<wgt id='2057'>0.31546E+02</wgt>
<wgt id='2058'>0.31489E+02</wgt>
<wgt id='2059'>0.31494E+02</wgt>
<wgt id='2060'>0.31503E+02</wgt>
<wgt id='2061'>0.31490E+02</wgt>
<wgt id='2062'>0.31520E+02</wgt>
<wgt id='2063'>0.31506E+02</wgt>
<wgt id='2064'>0.31494E+02</wgt>
<wgt id='2065'>0.31530E+02</wgt>
<wgt id='2066'>0.31522E+02</wgt>
<wgt id='2067'>0.31515E+02</wgt>
<wgt id='2068'>0.31536E+02</wgt>
<wgt id='2069'>0.31517E+02</wgt>
<wgt id='2070'>0.31480E+02</wgt>
<wgt id='2071'>0.31475E+02</wgt>
<wgt id='2072'>0.31514E+02</wgt>
<wgt id='2073'>0.31486E+02</wgt>
<wgt id='2074'>0.31482E+02</wgt>
<wgt id='2075'>0.31502E+02</wgt>
<wgt id='2076'>0.31523E+02</wgt>
<wgt id='2077'>0.31478E+02</wgt>
<wgt id='2078'>0.31520E+02</wgt>
<wgt id='2079'>0.31529E+02</wgt>
<wgt id='2080'>0.31511E+02</wgt>
<wgt id='2081'>0.31521E+02</wgt>
<wgt id='2082'>0.31529E+02</wgt>
<wgt id='2083'>0.31502E+02</wgt>
<wgt id='2084'>0.31511E+02</wgt>
<wgt id='2085'>0.31497E+02</wgt>
<wgt id='2086'>0.31508E+02</wgt>
<wgt id='2087'>0.31508E+02</wgt>
<wgt id='2088'>0.31523E+02</wgt>
<wgt id='2089'>0.31518E+02</wgt>
<wgt id='2090'>0.31507E+02</wgt>
<wgt id='2091'>0.31507E+02</wgt>
<wgt id='2092'>0.31506E+02</wgt>
<wgt id='2093'>0.31515E+02</wgt>
<wgt id='2094'>0.31515E+02</wgt>
<wgt id='2095'>0.31522E+02</wgt>
<wgt id='2096'>0.31508E+02</wgt>
<wgt id='2097'>0.31528E+02</wgt>
<wgt id='2098'>0.31508E+02</wgt>
<wgt id='2099'>0.31508E+02</wgt>
<wgt id='2100'>0.31512E+02</wgt>
<wgt id='2101'>0.30938E+02</wgt>
<wgt id='2102'>0.32364E+02</wgt>
<wgt id='2104'>0.27715E+02</wgt>
<wgt id='2105'>0.28473E+02</wgt>
<wgt id='2106'>0.29280E+02</wgt>
<wgt id='2107'>0.29858E+02</wgt>
<wgt id='2108'>0.31053E+02</wgt>
<wgt id='2109'>0.32013E+02</wgt>
<wgt id='2110'>0.33188E+02</wgt>
<wgt id='2111'>0.34241E+02</wgt>
<wgt id='3000'>0.34239E+02</wgt>
<wgt id='3001'>0.34120E+02</wgt>
<wgt id='3002'>0.34442E+02</wgt>
<wgt id='3003'>0.33984E+02</wgt>
<wgt id='3004'>0.34285E+02</wgt>
<wgt id='3005'>0.33991E+02</wgt>
<wgt id='3006'>0.34114E+02</wgt>
<wgt id='3007'>0.34043E+02</wgt>
<wgt id='3008'>0.34244E+02</wgt>
<wgt id='3009'>0.34113E+02</wgt>
<wgt id='3010'>0.34163E+02</wgt>
<wgt id='3011'>0.34225E+02</wgt>
<wgt id='3012'>0.34236E+02</wgt>
<wgt id='3013'>0.34361E+02</wgt>
<wgt id='3014'>0.34193E+02</wgt>
<wgt id='3015'>0.34177E+02</wgt>
<wgt id='3016'>0.34285E+02</wgt>
<wgt id='3017'>0.34219E+02</wgt>
<wgt id='3018'>0.34268E+02</wgt>
<wgt id='3019'>0.34246E+02</wgt>
<wgt id='3020'>0.34282E+02</wgt>
<wgt id='3021'>0.34279E+02</wgt>
<wgt id='3022'>0.34202E+02</wgt>
<wgt id='3023'>0.34189E+02</wgt>
<wgt id='3024'>0.34222E+02</wgt>
<wgt id='3025'>0.34251E+02</wgt>
<wgt id='3026'>0.34211E+02</wgt>
<wgt id='3027'>0.34264E+02</wgt>
<wgt id='3028'>0.34187E+02</wgt>
<wgt id='3029'>0.34250E+02</wgt>
<wgt id='3030'>0.34374E+02</wgt>
<wgt id='3031'>0.34280E+02</wgt>
<wgt id='3032'>0.34166E+02</wgt>
<wgt id='3033'>0.34158E+02</wgt>
<wgt id='3034'>0.34245E+02</wgt>
<wgt id='3035'>0.33943E+02</wgt>
<wgt id='3036'>0.34231E+02</wgt>
<wgt id='3037'>0.34398E+02</wgt>
<wgt id='3038'>0.34226E+02</wgt>
<wgt id='3039'>0.34188E+02</wgt>
<wgt id='3040'>0.34417E+02</wgt>
<wgt id='3041'>0.34349E+02</wgt>
<wgt id='3042'>0.34181E+02</wgt>
<wgt id='3043'>0.34164E+02</wgt>
<wgt id='3044'>0.34239E+02</wgt>
<wgt id='3045'>0.34203E+02</wgt>
<wgt id='3046'>0.34457E+02</wgt>
<wgt id='3047'>0.34261E+02</wgt>
<wgt id='3048'>0.34248E+02</wgt>
<wgt id='3049'>0.34245E+02</wgt>
<wgt id='3050'>0.34057E+02</wgt>
<wgt id='3051'>0.34337E+02</wgt>
<wgt id='3052'>0.34149E+02</wgt>
<wgt id='3053'>0.34253E+02</wgt>
<wgt id='3054'>0.34293E+02</wgt>
<wgt id='3055'>0.34161E+02</wgt>
<wgt id='3056'>0.34226E+02</wgt>
<wgt id='3057'>0.34287E+02</wgt>
<wgt id='3058'>0.34186E+02</wgt>
<wgt id='3059'>0.34220E+02</wgt>
<wgt id='3060'>0.34282E+02</wgt>
<wgt id='3061'>0.34267E+02</wgt>
<wgt id='3062'>0.34260E+02</wgt>
<wgt id='3063'>0.34226E+02</wgt>
<wgt id='3064'>0.34241E+02</wgt>
<wgt id='3065'>0.34209E+02</wgt>
<wgt id='3066'>0.34240E+02</wgt>
<wgt id='3067'>0.34194E+02</wgt>
<wgt id='3068'>0.34242E+02</wgt>
<wgt id='3069'>0.34213E+02</wgt>
<wgt id='3070'>0.34215E+02</wgt>
<wgt id='3071'>0.34223E+02</wgt>
<wgt id='3072'>0.34262E+02</wgt>
<wgt id='3073'>0.34229E+02</wgt>
<wgt id='3074'>0.34300E+02</wgt>
<wgt id='3075'>0.34259E+02</wgt>
<wgt id='3076'>0.34247E+02</wgt>
<wgt id='3077'>0.34240E+02</wgt>
<wgt id='3078'>0.34270E+02</wgt>
<wgt id='3079'>0.34211E+02</wgt>
<wgt id='3080'>0.34209E+02</wgt>
<wgt id='3081'>0.34234E+02</wgt>
<wgt id='3082'>0.34227E+02</wgt>
<wgt id='3083'>0.34249E+02</wgt>
<wgt id='3084'>0.34240E+02</wgt>
<wgt id='3085'>0.34246E+02</wgt>
<wgt id='3086'>0.34231E+02</wgt>
<wgt id='3087'>0.34230E+02</wgt>
<wgt id='3088'>0.34232E+02</wgt>
<wgt id='3089'>0.34238E+02</wgt>
<wgt id='3090'>0.34227E+02</wgt>
<wgt id='3091'>0.34232E+02</wgt>
<wgt id='3092'>0.34241E+02</wgt>
<wgt id='3093'>0.34254E+02</wgt>
<wgt id='3094'>0.34247E+02</wgt>
<wgt id='3095'>0.34236E+02</wgt>
<wgt id='3096'>0.34235E+02</wgt>
<wgt id='3097'>0.34234E+02</wgt>
<wgt id='3098'>0.34240E+02</wgt>
<wgt id='3099'>0.34247E+02</wgt>
<wgt id='3100'>0.34247E+02</wgt>
<wgt id='3101'>0.33485E+02</wgt>
<wgt id='3102'>0.35183E+02</wgt>
<wgt id='5000'>0.33987E+02</wgt>
<wgt id='5001'>0.33982E+02</wgt>
<wgt id='5002'>0.34037E+02</wgt>
<wgt id='5003'>0.33999E+02</wgt>
<wgt id='5004'>0.34282E+02</wgt>
<wgt id='5005'>0.34802E+02</wgt>
<wgt id='5006'>0.34126E+02</wgt>
<wgt id='5007'>0.34043E+02</wgt>
<wgt id='5008'>0.34342E+02</wgt>
<wgt id='5009'>0.33821E+02</wgt>
<wgt id='5010'>0.34095E+02</wgt>
<wgt id='5011'>0.34499E+02</wgt>
<wgt id='5012'>0.33423E+02</wgt>
<wgt id='5013'>0.35123E+02</wgt>
<wgt id='5014'>0.32862E+02</wgt>
<wgt id='5015'>0.33571E+02</wgt>
<wgt id='5016'>0.35039E+02</wgt>
<wgt id='5017'>0.33822E+02</wgt>
<wgt id='5018'>0.34172E+02</wgt>
<wgt id='5019'>0.33387E+02</wgt>
<wgt id='5020'>0.34543E+02</wgt>
<wgt id='5021'>0.33732E+02</wgt>
<wgt id='5022'>0.34147E+02</wgt>
<wgt id='5023'>0.33688E+02</wgt>
<wgt id='5024'>0.34327E+02</wgt>
<wgt id='5025'>0.34024E+02</wgt>
<wgt id='5026'>0.33958E+02</wgt>
<wgt id='5027'>0.33823E+02</wgt>
<wgt id='5028'>0.34248E+02</wgt>
<wgt id='5029'>0.34572E+02</wgt>
<wgt id='5030'>0.33609E+02</wgt>
<wgt id='5031'>0.34176E+02</wgt>
<wgt id='5032'>0.33693E+02</wgt>
<wgt id='5033'>0.33647E+02</wgt>
<wgt id='5034'>0.34330E+02</wgt>
<wgt id='5035'>0.33636E+02</wgt>
<wgt id='5036'>0.34311E+02</wgt>
<wgt id='5037'>0.33599E+02</wgt>
<wgt id='5038'>0.34458E+02</wgt>
<wgt id='5039'>0.34505E+02</wgt>
<wgt id='5040'>0.33747E+02</wgt>
<wgt id='5041'>0.34118E+02</wgt>
<wgt id='5042'>0.34024E+02</wgt>
<wgt id='5043'>0.34231E+02</wgt>
<wgt id='5044'>0.34216E+02</wgt>
<wgt id='5045'>0.32794E+02</wgt>
<wgt id='5046'>0.34701E+02</wgt>
<wgt id='5047'>0.32703E+02</wgt>
<wgt id='5048'>0.34718E+02</wgt>
<wgt id='5049'>0.33888E+02</wgt>
<wgt id='5050'>0.34083E+02</wgt>
<wgt id='5051'>0.34037E+02</wgt>
<wgt id='5052'>0.33894E+02</wgt>
<wgt id='5053'>0.33339E+02</wgt>
<wgt id='5054'>0.33592E+02</wgt>
<wgt id='5055'>0.33925E+02</wgt>
<wgt id='5056'>0.34083E+02</wgt>
<wgt id='5060'>0.32906E+02</wgt>
<wgt id='5070'>0.35188E+02</wgt>
<wgt id='4000'>0.35950E+02</wgt>
<wgt id='4001'>0.35873E+02</wgt>
<wgt id='4002'>0.36013E+02</wgt>
<wgt id='4003'>0.35270E+02</wgt>
<wgt id='4004'>0.36645E+02</wgt>
<wgt id='4005'>0.36100E+02</wgt>
<wgt id='4006'>0.35835E+02</wgt>
<wgt id='4007'>0.35201E+02</wgt>
<wgt id='4008'>0.36553E+02</wgt>
<wgt id='4009'>0.36212E+02</wgt>
<wgt id='4010'>0.36235E+02</wgt>
<wgt id='4011'>0.35811E+02</wgt>
<wgt id='4012'>0.36032E+02</wgt>
<wgt id='4013'>0.36224E+02</wgt>
<wgt id='4014'>0.35808E+02</wgt>
<wgt id='4015'>0.36526E+02</wgt>
<wgt id='4016'>0.35607E+02</wgt>
<wgt id='4017'>0.35418E+02</wgt>
<wgt id='4018'>0.36587E+02</wgt>
<wgt id='4019'>0.35424E+02</wgt>
<wgt id='4020'>0.36478E+02</wgt>
<wgt id='4021'>0.35790E+02</wgt>
<wgt id='4022'>0.36257E+02</wgt>
<wgt id='4023'>0.36428E+02</wgt>
<wgt id='4024'>0.35457E+02</wgt>
<wgt id='4025'>0.36011E+02</wgt>
<wgt id='4026'>0.35899E+02</wgt>
<wgt id='4027'>0.36236E+02</wgt>
<wgt id='4028'>0.35545E+02</wgt>
<wgt id='4029'>0.36271E+02</wgt>
<wgt id='4030'>0.35836E+02</wgt>
<wgt id='4031'>0.35892E+02</wgt>
<wgt id='4032'>0.36027E+02</wgt>
<wgt id='4033'>0.36074E+02</wgt>
<wgt id='4034'>0.35691E+02</wgt>
<wgt id='4035'>0.35288E+02</wgt>
<wgt id='4036'>0.36553E+02</wgt>
<wgt id='4037'>0.35348E+02</wgt>
<wgt id='4038'>0.36774E+02</wgt>
<wgt id='4039'>0.35504E+02</wgt>
<wgt id='4040'>0.36310E+02</wgt>
<wgt id='4041'>0.35815E+02</wgt>
<wgt id='4042'>0.35997E+02</wgt>
<wgt id='4043'>0.34774E+02</wgt>
<wgt id='4044'>0.36652E+02</wgt>
<wgt id='4045'>0.37239E+02</wgt>
<wgt id='4046'>0.35630E+02</wgt>
<wgt id='4047'>0.36108E+02</wgt>
<wgt id='4048'>0.36430E+02</wgt>
<wgt id='4049'>0.36446E+02</wgt>
<wgt id='4050'>0.36532E+02</wgt>
<wgt id='4051'>0.36027E+02</wgt>
<wgt id='4052'>0.35896E+02</wgt>
<wgt id='4053'>0.34989E+02</wgt>
<wgt id='4054'>0.35308E+02</wgt>
<wgt id='4055'>0.36048E+02</wgt>
<wgt id='4056'>0.35884E+02</wgt>
<wgt id='4060'>0.34810E+02</wgt>
<wgt id='4070'>0.37218E+02</wgt>
<wgt id='4080'>0.49258E+02</wgt>
<wgt id='6000'>0.34823E+02</wgt>
<wgt id='6001'>0.34908E+02</wgt>
<wgt id='6002'>0.34732E+02</wgt>
<wgt id='6003'>0.34846E+02</wgt>
<wgt id='6004'>0.34807E+02</wgt>
<wgt id='6005'>0.34767E+02</wgt>
<wgt id='6006'>0.34872E+02</wgt>
<wgt id='6007'>0.34789E+02</wgt>
<wgt id='6008'>0.34860E+02</wgt>
<wgt id='6009'>0.35034E+02</wgt>
<wgt id='6010'>0.34617E+02</wgt>
<wgt id='6011'>0.34909E+02</wgt>
<wgt id='6012'>0.34634E+02</wgt>
<wgt id='6013'>0.34774E+02</wgt>
<wgt id='6014'>0.34910E+02</wgt>
<wgt id='6015'>0.34765E+02</wgt>
<wgt id='6016'>0.34856E+02</wgt>
<wgt id='6017'>0.34589E+02</wgt>
<wgt id='6018'>0.35097E+02</wgt>
<wgt id='6019'>0.34780E+02</wgt>
<wgt id='6020'>0.34860E+02</wgt>
<wgt id='6021'>0.34749E+02</wgt>
<wgt id='6022'>0.34922E+02</wgt>
<wgt id='6023'>0.34571E+02</wgt>
<wgt id='6024'>0.35003E+02</wgt>
<wgt id='6025'>0.35406E+02</wgt>
<wgt id='6026'>0.34071E+02</wgt>
<wgt id='6027'>0.34916E+02</wgt>
<wgt id='6028'>0.34836E+02</wgt>
<wgt id='6029'>0.34580E+02</wgt>
<wgt id='6030'>0.35109E+02</wgt>
<wgt id='6031'>0.34399E+02</wgt>
<wgt id='6032'>0.35286E+02</wgt>
<wgt id='6033'>0.35007E+02</wgt>
<wgt id='6034'>0.34637E+02</wgt>
<wgt id='6035'>0.34929E+02</wgt>
<wgt id='6036'>0.34643E+02</wgt>
<wgt id='6037'>0.34880E+02</wgt>
<wgt id='6038'>0.34825E+02</wgt>
<wgt id='6039'>0.34688E+02</wgt>
<wgt id='6040'>0.34973E+02</wgt>
<wgt id='6041'>0.34612E+02</wgt>
<wgt id='6042'>0.35077E+02</wgt>
<wgt id='6043'>0.35279E+02</wgt>
<wgt id='6044'>0.34767E+02</wgt>
<wgt id='6045'>0.34764E+02</wgt>
<wgt id='6046'>0.34979E+02</wgt>
<wgt id='6047'>0.34772E+02</wgt>
<wgt id='6048'>0.35226E+02</wgt>
<wgt id='6049'>0.34725E+02</wgt>
<wgt id='6050'>0.34897E+02</wgt>
<wgt id='7000'>0.32431E+02</wgt>
<wgt id='7001'>0.32519E+02</wgt>
<wgt id='7002'>0.32319E+02</wgt>
<wgt id='7003'>0.32463E+02</wgt>
<wgt id='7004'>0.32400E+02</wgt>
<wgt id='7005'>0.32456E+02</wgt>
<wgt id='7006'>0.32421E+02</wgt>
<wgt id='7007'>0.32342E+02</wgt>
<wgt id='7008'>0.32520E+02</wgt>
<wgt id='7009'>0.32525E+02</wgt>
<wgt id='7010'>0.32341E+02</wgt>
<wgt id='7011'>0.32045E+02</wgt>
<wgt id='7012'>0.32598E+02</wgt>
<wgt id='7013'>0.32419E+02</wgt>
<wgt id='7014'>0.32446E+02</wgt>
<wgt id='7015'>0.32319E+02</wgt>
<wgt id='7016'>0.32552E+02</wgt>
<wgt id='7017'>0.31978E+02</wgt>
<wgt id='7018'>0.32679E+02</wgt>
<wgt id='7019'>0.32394E+02</wgt>
<wgt id='7020'>0.32482E+02</wgt>
<wgt id='7021'>0.32480E+02</wgt>
<wgt id='7022'>0.32396E+02</wgt>
<wgt id='7023'>0.32289E+02</wgt>
<wgt id='7024'>0.32517E+02</wgt>
<wgt id='7025'>0.32436E+02</wgt>
<wgt id='7026'>0.32430E+02</wgt>
<wgt id='7027'>0.32477E+02</wgt>
<wgt id='7028'>0.32497E+02</wgt>
<wgt id='7029'>0.32646E+02</wgt>
<wgt id='7030'>0.31802E+02</wgt>
<wgt id='7031'>0.32265E+02</wgt>
<wgt id='7032'>0.32794E+02</wgt>
<wgt id='7033'>0.32516E+02</wgt>
<wgt id='7034'>0.32312E+02</wgt>
<wgt id='7035'>0.32173E+02</wgt>
<wgt id='7036'>0.32585E+02</wgt>
<wgt id='7037'>0.32431E+02</wgt>
<wgt id='7038'>0.32498E+02</wgt>
<wgt id='7039'>0.32270E+02</wgt>
<wgt id='7040'>0.32550E+02</wgt>
<wgt id='7041'>0.32644E+02</wgt>
<wgt id='7042'>0.32185E+02</wgt>
<wgt id='7043'>0.32456E+02</wgt>
<wgt id='7044'>0.32289E+02</wgt>
<wgt id='7045'>0.32506E+02</wgt>
<wgt id='7046'>0.32573E+02</wgt>
<wgt id='7047'>0.32513E+02</wgt>
<wgt id='7048'>0.32422E+02</wgt>
<wgt id='7049'>0.32649E+02</wgt>
<wgt id='7050'>0.32475E+02</wgt>
<wgt id='7060'>0.61195E+02</wgt>
<wgt id='8000'>0.32314E+02</wgt>
<wgt id='8001'>0.32307E+02</wgt>
<wgt id='8002'>0.32323E+02</wgt>
<wgt id='8003'>0.32314E+02</wgt>
<wgt id='8004'>0.32313E+02</wgt>
<wgt id='8005'>0.32239E+02</wgt>
<wgt id='8006'>0.32320E+02</wgt>
<wgt id='8007'>0.32311E+02</wgt>
<wgt id='8008'>0.32375E+02</wgt>
<wgt id='8009'>0.32439E+02</wgt>
<wgt id='8010'>0.32305E+02</wgt>
<wgt id='8011'>0.32311E+02</wgt>
<wgt id='8012'>0.32254E+02</wgt>
<wgt id='8013'>0.32283E+02</wgt>
<wgt id='8014'>0.32346E+02</wgt>
<wgt id='8015'>0.32275E+02</wgt>
<wgt id='8016'>0.32366E+02</wgt>
<wgt id='8017'>0.32375E+02</wgt>
<wgt id='8018'>0.32409E+02</wgt>
<wgt id='8019'>0.32217E+02</wgt>
<wgt id='8020'>0.32466E+02</wgt>
<wgt id='8021'>0.32250E+02</wgt>
<wgt id='8022'>0.32598E+02</wgt>
<wgt id='8023'>0.32175E+02</wgt>
<wgt id='8024'>0.32084E+02</wgt>
<wgt id='8025'>0.32110E+02</wgt>
<wgt id='8026'>0.32301E+02</wgt>
<wgt id='8027'>0.32364E+02</wgt>
<wgt id='8028'>0.32333E+02</wgt>
<wgt id='8029'>0.32956E+02</wgt>
<wgt id='8500'>0.35010E+02</wgt>
<wgt id='8501'>0.34757E+02</wgt>
<wgt id='8502'>0.34570E+02</wgt>
<wgt id='8503'>0.35063E+02</wgt>
<wgt id='8504'>0.35006E+02</wgt>
<wgt id='8505'>0.35282E+02</wgt>
<wgt id='8506'>0.34800E+02</wgt>
<wgt id='8507'>0.35210E+02</wgt>
<wgt id='8508'>0.34998E+02</wgt>
<wgt id='8509'>0.35012E+02</wgt>
<wgt id='8510'>0.34621E+02</wgt>
<wgt id='8511'>0.34820E+02</wgt>
<wgt id='8512'>0.35363E+02</wgt>
<wgt id='8513'>0.35118E+02</wgt>
<wgt id='8514'>0.35292E+02</wgt>
<wgt id='8515'>0.35075E+02</wgt>
<wgt id='8516'>0.34986E+02</wgt>
<wgt id='8517'>0.35269E+02</wgt>
<wgt id='8518'>0.34763E+02</wgt>
<wgt id='8519'>0.34680E+02</wgt>
<wgt id='8520'>0.34682E+02</wgt>
<wgt id='8521'>0.34551E+02</wgt>
<wgt id='8522'>0.35384E+02</wgt>
<wgt id='8523'>0.34767E+02</wgt>
<wgt id='8524'>0.34926E+02</wgt>
<wgt id='8525'>0.35086E+02</wgt>
<wgt id='8526'>0.35039E+02</wgt>
<wgt id='8527'>0.35028E+02</wgt>
<wgt id='8528'>0.34928E+02</wgt>
<wgt id='8529'>0.34884E+02</wgt>
<wgt id='8530'>0.35019E+02</wgt>
<wgt id='8531'>0.35027E+02</wgt>
<wgt id='8532'>0.35008E+02</wgt>
<wgt id='8533'>0.34918E+02</wgt>
<wgt id='8534'>0.35019E+02</wgt>
<wgt id='8535'>0.35121E+02</wgt>
<wgt id='8536'>0.34971E+02</wgt>
<wgt id='8537'>0.35021E+02</wgt>
<wgt id='8538'>0.34976E+02</wgt>
<wgt id='8539'>0.35018E+02</wgt>
<wgt id='8540'>0.35020E+02</wgt>
<wgt id='8541'>0.35026E+02</wgt>
<wgt id='8542'>0.35011E+02</wgt>
<wgt id='8543'>0.34977E+02</wgt>
<wgt id='8544'>0.35040E+02</wgt>
<wgt id='8545'>0.35030E+02</wgt>
<wgt id='8546'>0.35067E+02</wgt>
<wgt id='8547'>0.34977E+02</wgt>
<wgt id='8548'>0.34972E+02</wgt>
<wgt id='8549'>0.35024E+02</wgt>
<wgt id='8550'>0.35000E+02</wgt>
<wgt id='8551'>0.34996E+02</wgt>
<wgt id='8552'>0.35001E+02</wgt>
<wgt id='8553'>0.34983E+02</wgt>
<wgt id='8554'>0.35007E+02</wgt>
<wgt id='8555'>0.35006E+02</wgt>
<wgt id='8556'>0.35005E+02</wgt>
<wgt id='8557'>0.35011E+02</wgt>
<wgt id='8558'>0.35049E+02</wgt>
<wgt id='8559'>0.34993E+02</wgt>
<wgt id='8560'>0.34977E+02</wgt>
<wgt id='8561'>0.35012E+02</wgt>
<wgt id='8562'>0.34978E+02</wgt>
<wgt id='8563'>0.35015E+02</wgt>
<wgt id='8564'>0.35003E+02</wgt>
<wgt id='8565'>0.35014E+02</wgt>
<wgt id='8566'>0.35018E+02</wgt>
<wgt id='8567'>0.35010E+02</wgt>
<wgt id='8568'>0.35026E+02</wgt>
<wgt id='8569'>0.35026E+02</wgt>
<wgt id='8570'>0.35013E+02</wgt>
<wgt id='8571'>0.34986E+02</wgt>
<wgt id='8572'>0.34982E+02</wgt>
<wgt id='8573'>0.34987E+02</wgt>
<wgt id='8574'>0.35023E+02</wgt>
<wgt id='8575'>0.35008E+02</wgt>
<wgt id='8576'>0.35005E+02</wgt>
<wgt id='8577'>0.34991E+02</wgt>
<wgt id='8578'>0.35019E+02</wgt>
<wgt id='8579'>0.35035E+02</wgt>
<wgt id='8580'>0.34998E+02</wgt>
<wgt id='8581'>0.35018E+02</wgt>
<wgt id='8582'>0.34983E+02</wgt>
<wgt id='8583'>0.35034E+02</wgt>
<wgt id='8584'>0.35029E+02</wgt>
<wgt id='8585'>0.35025E+02</wgt>
<wgt id='8586'>0.35042E+02</wgt>
<wgt id='8587'>0.35013E+02</wgt>
<wgt id='8588'>0.35002E+02</wgt>
<wgt id='8589'>0.35011E+02</wgt>
<wgt id='8590'>0.35003E+02</wgt>
<wgt id='8591'>0.34999E+02</wgt>
<wgt id='8592'>0.35009E+02</wgt>
<wgt id='8593'>0.34991E+02</wgt>
<wgt id='8594'>0.35012E+02</wgt>
<wgt id='8595'>0.35016E+02</wgt>
<wgt id='8596'>0.34995E+02</wgt>
<wgt id='8597'>0.35018E+02</wgt>
<wgt id='8598'>0.35024E+02</wgt>
<wgt id='8599'>0.35020E+02</wgt>
<wgt id='8600'>0.35009E+02</wgt>
<wgt id='8601'>0.34272E+02</wgt>
<wgt id='8602'>0.35841E+02</wgt>
<wgt id='9000'>0.32870E+02</wgt>
<wgt id='9001'>0.33043E+02</wgt>
<wgt id='9002'>0.32575E+02</wgt>
<wgt id='9003'>0.33301E+02</wgt>
<wgt id='9004'>0.33093E+02</wgt>
<wgt id='9005'>0.32821E+02</wgt>
<wgt id='9006'>0.33255E+02</wgt>
<wgt id='9007'>0.33108E+02</wgt>
<wgt id='9008'>0.32911E+02</wgt>
<wgt id='9009'>0.32976E+02</wgt>
<wgt id='9010'>0.33050E+02</wgt>
<wgt id='9011'>0.32819E+02</wgt>
<wgt id='9012'>0.32932E+02</wgt>
<wgt id='9013'>0.33430E+02</wgt>
<wgt id='9014'>0.32835E+02</wgt>
<wgt id='9015'>0.32414E+02</wgt>
<wgt id='9016'>0.32644E+02</wgt>
<wgt id='9017'>0.32878E+02</wgt>
<wgt id='9018'>0.33154E+02</wgt>
<wgt id='9019'>0.33066E+02</wgt>
<wgt id='9020'>0.33247E+02</wgt>
<wgt id='9021'>0.32293E+02</wgt>
<wgt id='9022'>0.32887E+02</wgt>
<wgt id='9023'>0.32607E+02</wgt>
<wgt id='9024'>0.32708E+02</wgt>
<wgt id='9025'>0.32923E+02</wgt>
<wgt id='9026'>0.32811E+02</wgt>
<wgt id='9027'>0.32824E+02</wgt>
<wgt id='9028'>0.32891E+02</wgt>
<wgt id='9029'>0.32964E+02</wgt>
<wgt id='9030'>0.32855E+02</wgt>
<wgt id='9031'>0.32800E+02</wgt>
<wgt id='9032'>0.32890E+02</wgt>
<wgt id='9033'>0.32900E+02</wgt>
<wgt id='9034'>0.32938E+02</wgt>
<wgt id='9035'>0.32940E+02</wgt>
<wgt id='9036'>0.32903E+02</wgt>
<wgt id='9037'>0.32894E+02</wgt>
<wgt id='9038'>0.32897E+02</wgt>
<wgt id='9039'>0.32844E+02</wgt>
<wgt id='9040'>0.32834E+02</wgt>
<wgt id='9041'>0.32862E+02</wgt>
<wgt id='9042'>0.32864E+02</wgt>
<wgt id='9043'>0.32820E+02</wgt>
<wgt id='9044'>0.32874E+02</wgt>
<wgt id='9045'>0.32866E+02</wgt>
<wgt id='9046'>0.32825E+02</wgt>
<wgt id='9047'>0.32885E+02</wgt>
<wgt id='9048'>0.32891E+02</wgt>
<wgt id='9049'>0.32851E+02</wgt>
<wgt id='9050'>0.32868E+02</wgt>
<wgt id='9051'>0.32893E+02</wgt>
<wgt id='9052'>0.32902E+02</wgt>
<wgt id='9053'>0.32876E+02</wgt>
<wgt id='9054'>0.32849E+02</wgt>
<wgt id='9055'>0.32846E+02</wgt>
<wgt id='9056'>0.32886E+02</wgt>
<wgt id='9057'>0.32864E+02</wgt>
<wgt id='9058'>0.32839E+02</wgt>
<wgt id='9059'>0.32850E+02</wgt>
<wgt id='9060'>0.32862E+02</wgt>
<wgt id='9061'>0.32868E+02</wgt>
<wgt id='9062'>0.32876E+02</wgt>
<wgt id='9063'>0.32878E+02</wgt>
<wgt id='9064'>0.32877E+02</wgt>
<wgt id='9065'>0.32860E+02</wgt>
<wgt id='9066'>0.32861E+02</wgt>
<wgt id='9067'>0.32877E+02</wgt>
<wgt id='9068'>0.32870E+02</wgt>
<wgt id='9069'>0.32903E+02</wgt>
<wgt id='9070'>0.32863E+02</wgt>
<wgt id='9071'>0.32891E+02</wgt>
<wgt id='9072'>0.32893E+02</wgt>
<wgt id='9073'>0.32861E+02</wgt>
<wgt id='9074'>0.32875E+02</wgt>
<wgt id='9075'>0.32865E+02</wgt>
<wgt id='9076'>0.32870E+02</wgt>
<wgt id='9077'>0.32882E+02</wgt>
<wgt id='9078'>0.32882E+02</wgt>
<wgt id='9079'>0.32867E+02</wgt>
<wgt id='9080'>0.32894E+02</wgt>
<wgt id='9081'>0.32878E+02</wgt>
<wgt id='9082'>0.32881E+02</wgt>
<wgt id='9083'>0.32860E+02</wgt>
<wgt id='9084'>0.32852E+02</wgt>
<wgt id='9085'>0.32850E+02</wgt>
<wgt id='9086'>0.32883E+02</wgt>
<wgt id='9087'>0.32838E+02</wgt>
<wgt id='9088'>0.32852E+02</wgt>
<wgt id='9089'>0.32857E+02</wgt>
<wgt id='9090'>0.32877E+02</wgt>
<wgt id='9091'>0.32864E+02</wgt>
<wgt id='9092'>0.32869E+02</wgt>
<wgt id='9093'>0.32863E+02</wgt>
<wgt id='9094'>0.32861E+02</wgt>
<wgt id='9095'>0.32877E+02</wgt>
<wgt id='9096'>0.32862E+02</wgt>
<wgt id='9097'>0.32872E+02</wgt>
<wgt id='9098'>0.32868E+02</wgt>
<wgt id='9099'>0.32860E+02</wgt>
<wgt id='9100'>0.32870E+02</wgt>
<wgt id='9101'>0.32179E+02</wgt>
<wgt id='9102'>0.33662E+02</wgt>
<wgt id='10000'>0.35009E+02</wgt>
<wgt id='10001'>0.34799E+02</wgt>
<wgt id='10002'>0.34816E+02</wgt>
<wgt id='10003'>0.34988E+02</wgt>
<wgt id='10004'>0.35275E+02</wgt>
<wgt id='10005'>0.34490E+02</wgt>
<wgt id='10006'>0.34709E+02</wgt>
<wgt id='10007'>0.34943E+02</wgt>
<wgt id='10008'>0.34856E+02</wgt>
<wgt id='10009'>0.35018E+02</wgt>
<wgt id='10010'>0.34896E+02</wgt>
<wgt id='10011'>0.34904E+02</wgt>
<wgt id='10012'>0.34731E+02</wgt>
<wgt id='10013'>0.35015E+02</wgt>
<wgt id='10014'>0.35069E+02</wgt>
<wgt id='10015'>0.35196E+02</wgt>
<wgt id='10016'>0.35102E+02</wgt>
<wgt id='10017'>0.34648E+02</wgt>
<wgt id='10018'>0.35095E+02</wgt>
<wgt id='10019'>0.34157E+02</wgt>
<wgt id='10020'>0.34978E+02</wgt>
<wgt id='10021'>0.34995E+02</wgt>
<wgt id='10022'>0.35079E+02</wgt>
<wgt id='10023'>0.35039E+02</wgt>
<wgt id='10024'>0.34992E+02</wgt>
<wgt id='10025'>0.34998E+02</wgt>
<wgt id='10026'>0.35067E+02</wgt>
<wgt id='10027'>0.35033E+02</wgt>
<wgt id='10028'>0.35174E+02</wgt>
<wgt id='10029'>0.34988E+02</wgt>
<wgt id='10030'>0.34993E+02</wgt>
<wgt id='10031'>0.34272E+02</wgt>
<wgt id='10032'>0.35841E+02</wgt>
<wgt id='11000'>0.32869E+02</wgt>
<wgt id='11001'>0.32557E+02</wgt>
<wgt id='11002'>0.32546E+02</wgt>
<wgt id='11003'>0.32887E+02</wgt>
<wgt id='11004'>0.32186E+02</wgt>
<wgt id='11005'>0.33164E+02</wgt>
<wgt id='11006'>0.32902E+02</wgt>
<wgt id='11007'>0.32984E+02</wgt>
<wgt id='11008'>0.32843E+02</wgt>
<wgt id='11009'>0.33018E+02</wgt>
<wgt id='11010'>0.33238E+02</wgt>
<wgt id='11011'>0.32862E+02</wgt>
<wgt id='11012'>0.32750E+02</wgt>
<wgt id='11013'>0.32800E+02</wgt>
<wgt id='11014'>0.32850E+02</wgt>
<wgt id='11015'>0.32635E+02</wgt>
<wgt id='11016'>0.32978E+02</wgt>
<wgt id='11017'>0.32919E+02</wgt>
<wgt id='11018'>0.32888E+02</wgt>
<wgt id='11019'>0.32996E+02</wgt>
<wgt id='11020'>0.32873E+02</wgt>
<wgt id='11021'>0.32946E+02</wgt>
<wgt id='11022'>0.32530E+02</wgt>
<wgt id='11023'>0.32898E+02</wgt>
<wgt id='11024'>0.32608E+02</wgt>
<wgt id='11025'>0.32853E+02</wgt>
<wgt id='11026'>0.32864E+02</wgt>
<wgt id='11027'>0.33044E+02</wgt>
<wgt id='11028'>0.32813E+02</wgt>
<wgt id='11029'>0.32095E+02</wgt>
<wgt id='11030'>0.32863E+02</wgt>
<wgt id='11031'>0.32179E+02</wgt>
<wgt id='11032'>0.33662E+02</wgt>
<wgt id='12000'>0.29062E+02</wgt>
<wgt id='12001'>0.29034E+02</wgt>
<wgt id='12002'>0.29090E+02</wgt>
<wgt id='12003'>0.29130E+02</wgt>
<wgt id='12004'>0.28994E+02</wgt>
<wgt id='12005'>0.29060E+02</wgt>
<wgt id='12006'>0.29063E+02</wgt>
<wgt id='12007'>0.29084E+02</wgt>
<wgt id='12008'>0.29040E+02</wgt>
<wgt id='12009'>0.29046E+02</wgt>
<wgt id='12010'>0.29079E+02</wgt>
<wgt id='12011'>0.28868E+02</wgt>
<wgt id='12012'>0.29244E+02</wgt>
<wgt id='12013'>0.29053E+02</wgt>
<wgt id='12014'>0.29070E+02</wgt>
<wgt id='12015'>0.29296E+02</wgt>
<wgt id='12016'>0.28903E+02</wgt>
<wgt id='12017'>0.29151E+02</wgt>
<wgt id='12018'>0.28943E+02</wgt>
<wgt id='12019'>0.29363E+02</wgt>
<wgt id='12020'>0.28786E+02</wgt>
<wgt id='12021'>0.29061E+02</wgt>
<wgt id='12022'>0.29044E+02</wgt>
<wgt id='12023'>0.28680E+02</wgt>
<wgt id='12024'>0.29395E+02</wgt>
<wgt id='12025'>0.28696E+02</wgt>
<wgt id='12026'>0.29463E+02</wgt>
<wgt id='12027'>0.29617E+02</wgt>
<wgt id='12028'>0.28575E+02</wgt>
<wgt id='12050'>0.29062E+02</wgt>
<wgt id='12051'>0.29192E+02</wgt>
<wgt id='12052'>0.28854E+02</wgt>
<wgt id='12053'>0.29190E+02</wgt>
<wgt id='12054'>0.28925E+02</wgt>
<wgt id='12055'>0.28753E+02</wgt>
<wgt id='12056'>0.30012E+02</wgt>
<wgt id='12057'>0.29111E+02</wgt>
<wgt id='12058'>0.29049E+02</wgt>
<wgt id='12059'>0.29227E+02</wgt>
<wgt id='12060'>0.28922E+02</wgt>
<wgt id='12061'>0.28828E+02</wgt>
<wgt id='12062'>0.29161E+02</wgt>
<wgt id='12063'>0.29693E+02</wgt>
<wgt id='13000'>0.32387E+02</wgt>
<wgt id='13001'>0.32363E+02</wgt>
<wgt id='13002'>0.32403E+02</wgt>
<wgt id='13003'>0.32453E+02</wgt>
<wgt id='13004'>0.32313E+02</wgt>
<wgt id='13005'>0.32432E+02</wgt>
<wgt id='13006'>0.32334E+02</wgt>
<wgt id='13007'>0.32462E+02</wgt>
<wgt id='13008'>0.32304E+02</wgt>
<wgt id='13009'>0.32259E+02</wgt>
<wgt id='13010'>0.32506E+02</wgt>
<wgt id='13011'>0.32491E+02</wgt>
<wgt id='13012'>0.32277E+02</wgt>
<wgt id='13013'>0.32354E+02</wgt>
<wgt id='13014'>0.32415E+02</wgt>
<wgt id='13015'>0.32539E+02</wgt>
<wgt id='13016'>0.32313E+02</wgt>
<wgt id='13017'>0.32279E+02</wgt>
<wgt id='13018'>0.32485E+02</wgt>
<wgt id='13019'>0.32548E+02</wgt>
<wgt id='13020'>0.32221E+02</wgt>
<wgt id='13021'>0.32876E+02</wgt>
<wgt id='13022'>0.31882E+02</wgt>
<wgt id='13023'>0.31881E+02</wgt>
<wgt id='13024'>0.32891E+02</wgt>
<wgt id='13025'>0.31754E+02</wgt>
<wgt id='13026'>0.32963E+02</wgt>
<wgt id='13027'>0.32123E+02</wgt>
<wgt id='13028'>0.32684E+02</wgt>
<wgt id='13050'>0.32387E+02</wgt>
<wgt id='13051'>0.32468E+02</wgt>
<wgt id='13052'>0.32039E+02</wgt>
<wgt id='13053'>0.32464E+02</wgt>
<wgt id='13054'>0.32351E+02</wgt>
<wgt id='13055'>0.31033E+02</wgt>
<wgt id='13056'>0.33122E+02</wgt>
<wgt id='13057'>0.32395E+02</wgt>
<wgt id='13058'>0.32418E+02</wgt>
<wgt id='13059'>0.32549E+02</wgt>
<wgt id='13060'>0.30816E+02</wgt>
<wgt id='13061'>0.32504E+02</wgt>
<wgt id='13062'>0.32321E+02</wgt>
<wgt id='13063'>0.33204E+02</wgt>
<wgt id='14000'>0.35798E+02</wgt>
<wgt id='14001'>0.35793E+02</wgt>
<wgt id='14002'>0.35788E+02</wgt>
<wgt id='14003'>0.35784E+02</wgt>
<wgt id='14004'>0.35779E+02</wgt>
<wgt id='14005'>0.35774E+02</wgt>
<wgt id='14006'>0.35769E+02</wgt>
<wgt id='14007'>0.35764E+02</wgt>
<wgt id='14008'>0.35760E+02</wgt>
<wgt id='14009'>0.35755E+02</wgt>
<wgt id='14010'>0.35750E+02</wgt>
<wgt id='14011'>0.35745E+02</wgt>
<wgt id='14012'>0.35740E+02</wgt>
<wgt id='14013'>0.35736E+02</wgt>
<wgt id='14014'>0.35731E+02</wgt>
<wgt id='14015'>0.35726E+02</wgt>
<wgt id='14016'>0.35721E+02</wgt>
<wgt id='14017'>0.35716E+02</wgt>
<wgt id='14018'>0.35712E+02</wgt>
<wgt id='14019'>0.35707E+02</wgt>
<wgt id='14020'>0.35702E+02</wgt>
<wgt id='14021'>0.35697E+02</wgt>
<wgt id='14022'>0.35693E+02</wgt>
<wgt id='14023'>0.35688E+02</wgt>
<wgt id='14024'>0.35683E+02</wgt>
<wgt id='14025'>0.35678E+02</wgt>
<wgt id='14026'>0.35673E+02</wgt>
<wgt id='14027'>0.35668E+02</wgt>
<wgt id='14028'>0.35664E+02</wgt>
<wgt id='14029'>0.35659E+02</wgt>
<wgt id='14030'>0.35654E+02</wgt>
<wgt id='15000'>0.32507E+02</wgt>
<wgt id='15001'>0.32688E+02</wgt>
<wgt id='15002'>0.32220E+02</wgt>
<wgt id='15003'>0.32931E+02</wgt>
<wgt id='15004'>0.32730E+02</wgt>
<wgt id='15005'>0.32460E+02</wgt>
<wgt id='15006'>0.32879E+02</wgt>
<wgt id='15007'>0.32735E+02</wgt>
<wgt id='15008'>0.32547E+02</wgt>
<wgt id='15009'>0.32610E+02</wgt>
<wgt id='15010'>0.32686E+02</wgt>
<wgt id='15011'>0.32448E+02</wgt>
<wgt id='15012'>0.32563E+02</wgt>
<wgt id='15013'>0.33054E+02</wgt>
<wgt id='15014'>0.32475E+02</wgt>
<wgt id='15015'>0.32072E+02</wgt>
<wgt id='15016'>0.32274E+02</wgt>
<wgt id='15017'>0.32519E+02</wgt>
<wgt id='15018'>0.32791E+02</wgt>
<wgt id='15019'>0.32696E+02</wgt>
<wgt id='15020'>0.32871E+02</wgt>
<wgt id='15021'>0.31940E+02</wgt>
<wgt id='15022'>0.32527E+02</wgt>
<wgt id='15023'>0.32240E+02</wgt>
<wgt id='15024'>0.32350E+02</wgt>
<wgt id='15025'>0.32570E+02</wgt>
<wgt id='15026'>0.32457E+02</wgt>
<wgt id='15027'>0.32452E+02</wgt>
<wgt id='15028'>0.32524E+02</wgt>
<wgt id='15029'>0.32605E+02</wgt>
<wgt id='15030'>0.32496E+02</wgt>
<wgt id='15031'>0.32427E+02</wgt>
<wgt id='15032'>0.32530E+02</wgt>
<wgt id='15033'>0.32540E+02</wgt>
<wgt id='15034'>0.32574E+02</wgt>
<wgt id='15035'>0.32579E+02</wgt>
<wgt id='15036'>0.32539E+02</wgt>
<wgt id='15037'>0.32531E+02</wgt>
<wgt id='15038'>0.32536E+02</wgt>
<wgt id='15039'>0.32485E+02</wgt>
<wgt id='15040'>0.32471E+02</wgt>
<wgt id='15041'>0.32501E+02</wgt>
<wgt id='15042'>0.32504E+02</wgt>
<wgt id='15043'>0.32452E+02</wgt>
<wgt id='15044'>0.32512E+02</wgt>
<wgt id='15045'>0.32504E+02</wgt>
<wgt id='15046'>0.32460E+02</wgt>
<wgt id='15047'>0.32524E+02</wgt>
<wgt id='15048'>0.32526E+02</wgt>
<wgt id='15049'>0.32490E+02</wgt>
<wgt id='15050'>0.32505E+02</wgt>
<wgt id='15051'>0.32531E+02</wgt>
<wgt id='15052'>0.32539E+02</wgt>
<wgt id='15053'>0.32513E+02</wgt>
<wgt id='15054'>0.32485E+02</wgt>
<wgt id='15055'>0.32482E+02</wgt>
<wgt id='15056'>0.32526E+02</wgt>
<wgt id='15057'>0.32501E+02</wgt>
<wgt id='15058'>0.32474E+02</wgt>
<wgt id='15059'>0.32486E+02</wgt>
<wgt id='15060'>0.32498E+02</wgt>
<wgt id='15061'>0.32504E+02</wgt>
<wgt id='15062'>0.32514E+02</wgt>
<wgt id='15063'>0.32517E+02</wgt>
<wgt id='15064'>0.32513E+02</wgt>
<wgt id='15065'>0.32498E+02</wgt>
<wgt id='15066'>0.32499E+02</wgt>
<wgt id='15067'>0.32515E+02</wgt>
<wgt id='15068'>0.32506E+02</wgt>
<wgt id='15069'>0.32542E+02</wgt>
<wgt id='15070'>0.32501E+02</wgt>
<wgt id='15071'>0.32528E+02</wgt>
<wgt id='15072'>0.32531E+02</wgt>
<wgt id='15073'>0.32499E+02</wgt>
<wgt id='15074'>0.32512E+02</wgt>
<wgt id='15075'>0.32502E+02</wgt>
<wgt id='15076'>0.32505E+02</wgt>
<wgt id='15077'>0.32518E+02</wgt>
<wgt id='15078'>0.32518E+02</wgt>
<wgt id='15079'>0.32505E+02</wgt>
<wgt id='15080'>0.32533E+02</wgt>
<wgt id='15081'>0.32514E+02</wgt>
<wgt id='15082'>0.32517E+02</wgt>
<wgt id='15083'>0.32498E+02</wgt>
<wgt id='15084'>0.32491E+02</wgt>
<wgt id='15085'>0.32487E+02</wgt>
<wgt id='15086'>0.32518E+02</wgt>
<wgt id='15087'>0.32476E+02</wgt>
<wgt id='15088'>0.32491E+02</wgt>
<wgt id='15089'>0.32495E+02</wgt>
<wgt id='15090'>0.32514E+02</wgt>
<wgt id='15091'>0.32502E+02</wgt>
<wgt id='15092'>0.32507E+02</wgt>
<wgt id='15093'>0.32500E+02</wgt>
<wgt id='15094'>0.32500E+02</wgt>
<wgt id='15095'>0.32514E+02</wgt>
<wgt id='15096'>0.32498E+02</wgt>
<wgt id='15097'>0.32509E+02</wgt>
<wgt id='15098'>0.32506E+02</wgt>
<wgt id='15099'>0.32497E+02</wgt>
<wgt id='15100'>0.32507E+02</wgt>
<wgt id='15101'>0.32507E+02</wgt>
<wgt id='15102'>0.32504E+02</wgt>
<wgt id='15103'>0.32507E+02</wgt>
<wgt id='15104'>0.32508E+02</wgt>
<wgt id='15105'>0.32508E+02</wgt>
<wgt id='15106'>0.32507E+02</wgt>
<wgt id='15107'>0.32505E+02</wgt>
<wgt id='1500'>0.34366E+02</wgt>
<wgt id='1501'>0.32735E+02</wgt>
<wgt id='1502'>0.34457E+02</wgt>
<wgt id='1503'>0.34693E+02</wgt>
<wgt id='1504'>0.32497E+02</wgt>
<wgt id='1505'>0.33375E+02</wgt>
<wgt id='1506'>0.34156E+02</wgt>
<wgt id='1507'>0.34212E+02</wgt>
<wgt id='1508'>0.34922E+02</wgt>
<wgt id='1509'>0.33673E+02</wgt>
<wgt id='1510'>0.36049E+02</wgt>
<wgt id='1511'>0.35236E+02</wgt>
<wgt id='1512'>0.34198E+02</wgt>
<wgt id='1513'>0.35106E+02</wgt>
<wgt id='1514'>0.37257E+02</wgt>
<wgt id='1515'>0.34890E+02</wgt>
<wgt id='1516'>0.34207E+02</wgt>
<wgt id='1517'>0.35643E+02</wgt>
<wgt id='1518'>0.34477E+02</wgt>
<wgt id='1519'>0.33783E+02</wgt>
<wgt id='1520'>0.33420E+02</wgt>
<wgt id='1521'>0.34305E+02</wgt>
<wgt id='1522'>0.34446E+02</wgt>
<wgt id='1523'>0.34305E+02</wgt>
<wgt id='1524'>0.33494E+02</wgt>
<wgt id='1525'>0.34300E+02</wgt>
<wgt id='1526'>0.32880E+02</wgt>
<wgt id='1527'>0.35486E+02</wgt>
<wgt id='1528'>0.35385E+02</wgt>
<wgt id='1529'>0.34371E+02</wgt>
<wgt id='1530'>0.33122E+02</wgt>
<wgt id='1531'>0.34139E+02</wgt>
<wgt id='1532'>0.34720E+02</wgt>
<wgt id='1533'>0.33960E+02</wgt>
<wgt id='1534'>0.32905E+02</wgt>
<wgt id='1535'>0.36018E+02</wgt>
<wgt id='1536'>0.34266E+02</wgt>
<wgt id='1537'>0.35128E+02</wgt>
<wgt id='1538'>0.34375E+02</wgt>
<wgt id='1539'>0.33433E+02</wgt>
<wgt id='1540'>0.33932E+02</wgt>
<wgt id='1541'>0.33963E+02</wgt>
<wgt id='1542'>0.33242E+02</wgt>
<wgt id='1543'>0.33316E+02</wgt>
<wgt id='1544'>0.33786E+02</wgt>
<wgt id='1545'>0.35888E+02</wgt>
<wgt id='1546'>0.33821E+02</wgt>
<wgt id='1547'>0.34595E+02</wgt>
<wgt id='1548'>0.34385E+02</wgt>
<wgt id='1549'>0.35276E+02</wgt>
<wgt id='1550'>0.34779E+02</wgt>
<wgt id='1551'>0.34209E+02</wgt>
<wgt id='1552'>0.34495E+02</wgt>
<wgt id='1553'>0.32648E+02</wgt>
<wgt id='1554'>0.34146E+02</wgt>
<wgt id='1555'>0.34533E+02</wgt>
<wgt id='1556'>0.35399E+02</wgt>
<wgt id='1557'>0.34284E+02</wgt>
<wgt id='1558'>0.35127E+02</wgt>
<wgt id='1559'>0.34321E+02</wgt>
<wgt id='1560'>0.34465E+02</wgt>
<wgt id='1561'>0.34463E+02</wgt>
<wgt id='1562'>0.34342E+02</wgt>
<wgt id='1563'>0.33543E+02</wgt>
<wgt id='1564'>0.35547E+02</wgt>
<wgt id='1565'>0.33214E+02</wgt>
<wgt id='1566'>0.34291E+02</wgt>
<wgt id='1567'>0.34775E+02</wgt>
<wgt id='1568'>0.34949E+02</wgt>
<wgt id='1569'>0.34288E+02</wgt>
<wgt id='1570'>0.34744E+02</wgt>
<wgt id='1571'>0.33754E+02</wgt>
<wgt id='1572'>0.34052E+02</wgt>
<wgt id='1573'>0.34227E+02</wgt>
<wgt id='1574'>0.33935E+02</wgt>
<wgt id='1575'>0.34931E+02</wgt>
<wgt id='1576'>0.33950E+02</wgt>
<wgt id='1577'>0.33821E+02</wgt>
<wgt id='1578'>0.33790E+02</wgt>
<wgt id='1579'>0.34133E+02</wgt>
<wgt id='1580'>0.34360E+02</wgt>
<wgt id='1581'>0.34850E+02</wgt>
<wgt id='1582'>0.34554E+02</wgt>
<wgt id='1583'>0.33008E+02</wgt>
<wgt id='1584'>0.35137E+02</wgt>
<wgt id='1585'>0.34972E+02</wgt>
<wgt id='1586'>0.34793E+02</wgt>
<wgt id='1587'>0.35506E+02</wgt>
<wgt id='1588'>0.34591E+02</wgt>
<wgt id='1589'>0.33756E+02</wgt>
<wgt id='1590'>0.34228E+02</wgt>
<wgt id='1591'>0.34507E+02</wgt>
<wgt id='1592'>0.33435E+02</wgt>
<wgt id='1593'>0.34894E+02</wgt>
<wgt id='1594'>0.34159E+02</wgt>
<wgt id='1595'>0.36696E+02</wgt>
<wgt id='1596'>0.33467E+02</wgt>
<wgt id='1597'>0.33898E+02</wgt>
<wgt id='1598'>0.34196E+02</wgt>
<wgt id='1599'>0.34390E+02</wgt>
<wgt id='1600'>0.35384E+02</wgt>
<wgt id='1601'>0.33871E+02</wgt>
<wgt id='1602'>0.34800E+02</wgt>
<wgt id='1700'>0.32243E+02</wgt>
<wgt id='1800'>0.41388E+02</wgt>
<wgt id='1850'>0.49458E+02</wgt>
<wgt id='1900'>0.44991E+02</wgt>
<wgt id='1950'>0.50035E+02</wgt>
</rwgt>
</event>
<event>
      4   9999  3.15120E+01  1.97422E+02 -1.00000E+00  1.10563E-01
      21    -1     0     0   502   501  0.000000000E+00  0.000000000E+00  2.825608734E+02  2.825608734E+02  0.000000000E+00  0.00000E+00  9.000E+00
      21    -1     0     0   511   502  0.000000000E+00  0.000000000E+00 -2.917751730E+02  2.917751730E+02  0.000000000E+00  0.00000E+00  9.000E+00
      25     1     1     2     0     0 -1.260475755E+02  1.519461966E+02  1.860686351E+02  2.966472592E+02  1.200100891E+02  0.00000E+00  9.000E+00
      21     1     1     2   511   501  1.260475755E+02 -1.519461966E+02 -1.952829348E+02  2.776887872E+02  5.394796609E-06  0.00000E+00  9.000E+00
#rwgt            2          11   4.7440372367660890                2          23           0
<rwgt>
<wgt id='1001'>0.31512E+02</wgt>
<wgt id='1002'>0.29239E+02</wgt>
<wgt id='1003'>0.33932E+02</wgt>
<wgt id='1004'>0.23753E+02</wgt>
<wgt id='1005'>0.22040E+02</wgt>
<wgt id='1006'>0.25577E+02</wgt>
<wgt id='1007'>0.43127E+02</wgt>
<wgt id='1008'>0.40016E+02</wgt>
<wgt id='1009'>0.46439E+02</wgt>
<wgt id='2000'>0.31512E+02</wgt>
<wgt id='2001'>0.31470E+02</wgt>
<wgt id='2002'>0.31523E+02</wgt>
<wgt id='2003'>0.31524E+02</wgt>
<wgt id='2004'>0.31588E+02</wgt>
<wgt id='2005'>0.31477E+02</wgt>
<wgt id='2006'>0.31428E+02</wgt>
<wgt id='2007'>0.31401E+02</wgt>
<wgt id='2008'>0.31374E+02</wgt>
<wgt id='2009'>0.31566E+02</wgt>
<wgt id='2010'>0.31526E+02</wgt>
<wgt id='2011'>0.31409E+02</wgt>
<wgt id='2012'>0.31495E+02</wgt>
<wgt id='2013'>0.31454E+02</wgt>
<wgt id='2014'>0.31605E+02</wgt>
<wgt id='2015'>0.31565E+02</wgt>
<wgt id='2016'>0.31570E+02</wgt>
<wgt id='2017'>0.31507E+02</wgt>
<wgt id='2018'>0.31557E+02</wgt>
<wgt id='2019'>0.31525E+02</wgt>
<wgt id='2020'>0.31649E+02</wgt>
<wgt id='2021'>0.31450E+02</wgt>
<wgt id='2022'>0.31639E+02</wgt>
<wgt id='2023'>0.31598E+02</wgt>
<wgt id='2024'>0.31469E+02</wgt>
<wgt id='2025'>0.31713E+02</wgt>
<wgt id='2026'>0.31683E+02</wgt>
<wgt id='2027'>0.31446E+02</wgt>
<wgt id='2028'>0.31378E+02</wgt>
<wgt id='2029'>0.31605E+02</wgt>
<wgt id='2030'>0.31509E+02</wgt>
<wgt id='2031'>0.31588E+02</wgt>
<wgt id='2032'>0.31452E+02</wgt>
<wgt id='2033'>0.31511E+02</wgt>
<wgt id='2034'>0.31594E+02</wgt>
<wgt id='2035'>0.31502E+02</wgt>
<wgt id='2036'>0.31548E+02</wgt>
<wgt id='2037'>0.31553E+02</wgt>
<wgt id='2038'>0.31514E+02</wgt>
<wgt id='2039'>0.31484E+02</wgt>
<wgt id='2040'>0.31542E+02</wgt>
<wgt id='2041'>0.31523E+02</wgt>
<wgt id='2042'>0.31463E+02</wgt>
<wgt id='2043'>0.31539E+02</wgt>
<wgt id='2044'>0.31550E+02</wgt>
<wgt id='2045'>0.31504E+02</wgt>
<wgt id='2046'>0.31532E+02</wgt>
<wgt id='2047'>0.31554E+02</wgt>
<wgt id='2048'>0.31503E+02</wgt>
<wgt id='2049'>0.31512E+02</wgt>
<wgt id='2050'>0.31521E+02</wgt>
<wgt id='2051'>0.31554E+02</wgt>
<wgt id='2052'>0.31503E+02</wgt>
<wgt id='2053'>0.31508E+02</wgt>
<wgt id='2054'>0.31509E+02</wgt>
<wgt id='2055'>0.31517E+02</wgt>
<wgt id='2056'>0.31514E+02</wgt>
<wgt id='2057'>0.31522E+02</wgt>
<wgt id='2058'>0.31531E+02</wgt>
<wgt id='2059'>0.31511E+02</wgt>
<wgt id='2060'>0.31528E+02</wgt>
<wgt id='2061'>0.31493E+02</wgt>
<wgt id='2062'>0.31500E+02</wgt>
<wgt id='2063'>0.31519E+02</wgt>
<wgt id='2064'>0.31490E+02</wgt>
<wgt id='2065'>0.31513E+02</wgt>
<wgt id='2066'>0.31492E+02</wgt>
<wgt id='2067'>0.31513E+02</wgt>
<wgt id='2068'>0.31522E+02</wgt>
<wgt id='2069'>0.31525E+02</wgt>
<wgt id='2070'>0.31515E+02</wgt>
<wgt id='2071'>0.31502E+02</wgt>
<wgt id='2072'>0.31518E+02</wgt>
<wgt id='2073'>0.31513E+02</wgt>
<wgt id='2074'>0.31521E+02</wgt>
<wgt id='2075'>0.31502E+02</wgt>
<wgt id='2076'>0.31519E+02</wgt>
<wgt id='2077'>0.31500E+02</wgt>
<wgt id='2078'>0.31511E+02</wgt>
<wgt id='2079'>0.31520E+02</wgt>
<wgt id='2080'>0.31513E+02</wgt>
<wgt id='2081'>0.31519E+02</wgt>
<wgt id='2082'>0.31519E+02</wgt>
<wgt id='2083'>0.31505E+02</wgt>
<wgt id='2084'>0.31511E+02</wgt>
<wgt id='2085'>0.31505E+02</wgt>
<wgt id='2086'>0.31512E+02</wgt>
<wgt id='2087'>0.31509E+02</wgt>
<wgt id='2088'>0.31514E+02</wgt>
<wgt id='2089'>0.31515E+02</wgt>
<wgt id='2090'>0.31513E+02</wgt>
<wgt id='2091'>0.31508E+02</wgt>
<wgt id='2092'>0.31508E+02</wgt>
<wgt id='2093'>0.31511E+02</wgt>
<wgt id='2094'>0.31508E+02</wgt>
<wgt id='2095'>0.31511E+02</wgt>
<wgt id='2096'>0.31510E+02</wgt>
<wgt id='2097'>0.31519E+02</wgt>
<wgt id='2098'>0.31507E+02</wgt>
<wgt id='2099'>0.31515E+02</wgt>
<wgt id='2100'>0.31511E+02</wgt>
<wgt id='2101'>0.30224E+02</wgt>
<wgt id='2102'>0.32758E+02</wgt>
<wgt id='2104'>0.25822E+02</wgt>
<wgt id='2105'>0.26873E+02</wgt>
<wgt id='2106'>0.28113E+02</wgt>
<wgt id='2107'>0.29247E+02</wgt>
<wgt id='2108'>0.30940E+02</wgt>
<wgt id='2109'>0.32167E+02</wgt>
<wgt id='2110'>0.33810E+02</wgt>
<wgt id='2111'>0.35061E+02</wgt>
<wgt id='3000'>0.33124E+02</wgt>
<wgt id='3001'>0.33137E+02</wgt>
<wgt id='3002'>0.33134E+02</wgt>
<wgt id='3003'>0.33134E+02</wgt>
<wgt id='3004'>0.33188E+02</wgt>
<wgt id='3005'>0.33184E+02</wgt>
<wgt id='3006'>0.33105E+02</wgt>
<wgt id='3007'>0.33215E+02</wgt>
<wgt id='3008'>0.33116E+02</wgt>
<wgt id='3009'>0.33228E+02</wgt>
<wgt id='3010'>0.33086E+02</wgt>
<wgt id='3011'>0.33052E+02</wgt>
<wgt id='3012'>0.33150E+02</wgt>
<wgt id='3013'>0.33184E+02</wgt>
<wgt id='3014'>0.33164E+02</wgt>
<wgt id='3015'>0.33043E+02</wgt>
<wgt id='3016'>0.33139E+02</wgt>
<wgt id='3017'>0.33154E+02</wgt>
<wgt id='3018'>0.33221E+02</wgt>
<wgt id='3019'>0.33061E+02</wgt>
<wgt id='3020'>0.33011E+02</wgt>
<wgt id='3021'>0.32993E+02</wgt>
<wgt id='3022'>0.33118E+02</wgt>
<wgt id='3023'>0.33031E+02</wgt>
<wgt id='3024'>0.32962E+02</wgt>
<wgt id='3025'>0.33138E+02</wgt>
<wgt id='3026'>0.33234E+02</wgt>
<wgt id='3027'>0.33131E+02</wgt>
<wgt id='3028'>0.32926E+02</wgt>
<wgt id='3029'>0.33027E+02</wgt>
<wgt id='3030'>0.33233E+02</wgt>
<wgt id='3031'>0.33180E+02</wgt>
<wgt id='3032'>0.33209E+02</wgt>
<wgt id='3033'>0.33232E+02</wgt>
<wgt id='3034'>0.33163E+02</wgt>
<wgt id='3035'>0.33211E+02</wgt>
<wgt id='3036'>0.33144E+02</wgt>
<wgt id='3037'>0.33126E+02</wgt>
<wgt id='3038'>0.33131E+02</wgt>
<wgt id='3039'>0.33066E+02</wgt>
<wgt id='3040'>0.33140E+02</wgt>
<wgt id='3041'>0.33163E+02</wgt>
<wgt id='3042'>0.33070E+02</wgt>
<wgt id='3043'>0.33078E+02</wgt>
<wgt id='3044'>0.33123E+02</wgt>
<wgt id='3045'>0.33158E+02</wgt>
<wgt id='3046'>0.33154E+02</wgt>
<wgt id='3047'>0.33114E+02</wgt>
<wgt id='3048'>0.33158E+02</wgt>
<wgt id='3049'>0.33119E+02</wgt>
<wgt id='3050'>0.33129E+02</wgt>
<wgt id='3051'>0.33175E+02</wgt>
<wgt id='3052'>0.33109E+02</wgt>
<wgt id='3053'>0.33108E+02</wgt>
<wgt id='3054'>0.33115E+02</wgt>
<wgt id='3055'>0.33104E+02</wgt>
<wgt id='3056'>0.33130E+02</wgt>
<wgt id='3057'>0.33098E+02</wgt>
<wgt id='3058'>0.33108E+02</wgt>
<wgt id='3059'>0.33120E+02</wgt>
<wgt id='3060'>0.33130E+02</wgt>
<wgt id='3061'>0.33125E+02</wgt>
<wgt id='3062'>0.33124E+02</wgt>
<wgt id='3063'>0.33141E+02</wgt>
<wgt id='3064'>0.33115E+02</wgt>
<wgt id='3065'>0.33131E+02</wgt>
<wgt id='3066'>0.33129E+02</wgt>
<wgt id='3067'>0.33114E+02</wgt>
<wgt id='3068'>0.33123E+02</wgt>
<wgt id='3069'>0.33109E+02</wgt>
<wgt id='3070'>0.33123E+02</wgt>
<wgt id='3071'>0.33126E+02</wgt>
<wgt id='3072'>0.33130E+02</wgt>
<wgt id='3073'>0.33119E+02</wgt>
<wgt id='3074'>0.33139E+02</wgt>
<wgt id='3075'>0.33129E+02</wgt>
<wgt id='3076'>0.33122E+02</wgt>
<wgt id='3077'>0.33124E+02</wgt>
<wgt id='3078'>0.33132E+02</wgt>
<wgt id='3079'>0.33116E+02</wgt>
<wgt id='3080'>0.33118E+02</wgt>
<wgt id='3081'>0.33119E+02</wgt>
<wgt id='3082'>0.33117E+02</wgt>
<wgt id='3083'>0.33128E+02</wgt>
<wgt id='3084'>0.33121E+02</wgt>
<wgt id='3085'>0.33131E+02</wgt>
<wgt id='3086'>0.33129E+02</wgt>
<wgt id='3087'>0.33124E+02</wgt>
<wgt id='3088'>0.33119E+02</wgt>
<wgt id='3089'>0.33125E+02</wgt>
<wgt id='3090'>0.33129E+02</wgt>
<wgt id='3091'>0.33121E+02</wgt>
<wgt id='3092'>0.33119E+02</wgt>
<wgt id='3093'>0.33126E+02</wgt>
<wgt id='3094'>0.33130E+02</wgt>
<wgt id='3095'>0.33125E+02</wgt>
<wgt id='3096'>0.33114E+02</wgt>
<wgt id='3097'>0.33117E+02</wgt>
<wgt id='3098'>0.33115E+02</wgt>
<wgt id='3099'>0.33127E+02</wgt>
<wgt id='3100'>0.33128E+02</wgt>
<wgt id='3101'>0.31810E+02</wgt>
<wgt id='3102'>0.34436E+02</wgt>
<wgt id='5000'>0.30735E+02</wgt>
<wgt id='5001'>0.30772E+02</wgt>
<wgt id='5002'>0.30797E+02</wgt>
<wgt id='5003'>0.30724E+02</wgt>
<wgt id='5004'>0.30584E+02</wgt>
<wgt id='5005'>0.30117E+02</wgt>
<wgt id='5006'>0.30005E+02</wgt>
<wgt id='5007'>0.30379E+02</wgt>
<wgt id='5008'>0.30791E+02</wgt>
<wgt id='5009'>0.30634E+02</wgt>
<wgt id='5010'>0.30668E+02</wgt>
<wgt id='5011'>0.30797E+02</wgt>
<wgt id='5012'>0.30741E+02</wgt>
<wgt id='5013'>0.30883E+02</wgt>
<wgt id='5014'>0.31283E+02</wgt>
<wgt id='5015'>0.30792E+02</wgt>
<wgt id='5016'>0.30574E+02</wgt>
<wgt id='5017'>0.30203E+02</wgt>
<wgt id='5018'>0.31298E+02</wgt>
<wgt id='5019'>0.31251E+02</wgt>
<wgt id='5020'>0.30258E+02</wgt>
<wgt id='5021'>0.30708E+02</wgt>
<wgt id='5022'>0.30751E+02</wgt>
<wgt id='5023'>0.30595E+02</wgt>
<wgt id='5024'>0.30885E+02</wgt>
<wgt id='5025'>0.30917E+02</wgt>
<wgt id='5026'>0.30584E+02</wgt>
<wgt id='5027'>0.30890E+02</wgt>
<wgt id='5028'>0.30471E+02</wgt>
<wgt id='5029'>0.30452E+02</wgt>
<wgt id='5030'>0.30912E+02</wgt>
<wgt id='5031'>0.30515E+02</wgt>
<wgt id='5032'>0.31061E+02</wgt>
<wgt id='5033'>0.30741E+02</wgt>
<wgt id='5034'>0.30722E+02</wgt>
<wgt id='5035'>0.31054E+02</wgt>
<wgt id='5036'>0.30436E+02</wgt>
<wgt id='5037'>0.29898E+02</wgt>
<wgt id='5038'>0.31675E+02</wgt>
<wgt id='5039'>0.31510E+02</wgt>
<wgt id='5040'>0.30311E+02</wgt>
<wgt id='5041'>0.30784E+02</wgt>
<wgt id='5042'>0.30672E+02</wgt>
<wgt id='5043'>0.30880E+02</wgt>
<wgt id='5044'>0.30584E+02</wgt>
<wgt id='5045'>0.31459E+02</wgt>
<wgt id='5046'>0.29729E+02</wgt>
<wgt id='5047'>0.31120E+02</wgt>
<wgt id='5048'>0.30283E+02</wgt>
<wgt id='5049'>0.30796E+02</wgt>
<wgt id='5050'>0.30662E+02</wgt>
<wgt id='5051'>0.30716E+02</wgt>
<wgt id='5052'>0.30744E+02</wgt>
<wgt id='5053'>0.30234E+02</wgt>
<wgt id='5054'>0.30415E+02</wgt>
<wgt id='5055'>0.30457E+02</wgt>
<wgt id='5056'>0.31332E+02</wgt>
<wgt id='5060'>0.29399E+02</wgt>
<wgt id='5070'>0.32093E+02</wgt>
<wgt id='4000'>0.31298E+02</wgt>
<wgt id='4001'>0.31280E+02</wgt>
<wgt id='4002'>0.31315E+02</wgt>
<wgt id='4003'>0.30970E+02</wgt>
<wgt id='4004'>0.30849E+02</wgt>
<wgt id='4005'>0.31180E+02</wgt>
<wgt id='4006'>0.31420E+02</wgt>
<wgt id='4007'>0.31582E+02</wgt>
<wgt id='4008'>0.30800E+02</wgt>
<wgt id='4009'>0.31267E+02</wgt>
<wgt id='4010'>0.31103E+02</wgt>
<wgt id='4011'>0.32041E+02</wgt>
<wgt id='4012'>0.30760E+02</wgt>
<wgt id='4013'>0.31099E+02</wgt>
<wgt id='4014'>0.31442E+02</wgt>
<wgt id='4015'>0.32024E+02</wgt>
<wgt id='4016'>0.30798E+02</wgt>
<wgt id='4017'>0.30681E+02</wgt>
<wgt id='4018'>0.32027E+02</wgt>
<wgt id='4019'>0.31702E+02</wgt>
<wgt id='4020'>0.30880E+02</wgt>
<wgt id='4021'>0.31438E+02</wgt>
<wgt id='4022'>0.31026E+02</wgt>
<wgt id='4023'>0.31178E+02</wgt>
<wgt id='4024'>0.31422E+02</wgt>
<wgt id='4025'>0.31926E+02</wgt>
<wgt id='4026'>0.30692E+02</wgt>
<wgt id='4027'>0.31329E+02</wgt>
<wgt id='4028'>0.31260E+02</wgt>
<wgt id='4029'>0.31225E+02</wgt>
<wgt id='4030'>0.31326E+02</wgt>
<wgt id='4031'>0.31438E+02</wgt>
<wgt id='4032'>0.31116E+02</wgt>
<wgt id='4033'>0.31019E+02</wgt>
<wgt id='4034'>0.31913E+02</wgt>
<wgt id='4035'>0.30968E+02</wgt>
<wgt id='4036'>0.31638E+02</wgt>
<wgt id='4037'>0.31337E+02</wgt>
<wgt id='4038'>0.31253E+02</wgt>
<wgt id='4039'>0.31333E+02</wgt>
<wgt id='4040'>0.31324E+02</wgt>
<wgt id='4041'>0.31249E+02</wgt>
<wgt id='4042'>0.31387E+02</wgt>
<wgt id='4043'>0.31381E+02</wgt>
<wgt id='4044'>0.31574E+02</wgt>
<wgt id='4045'>0.30954E+02</wgt>
<wgt id='4046'>0.31489E+02</wgt>
<wgt id='4047'>0.31208E+02</wgt>
<wgt id='4048'>0.30583E+02</wgt>
<wgt id='4049'>0.30566E+02</wgt>
<wgt id='4050'>0.31127E+02</wgt>
<wgt id='4051'>0.31357E+02</wgt>
<wgt id='4052'>0.31343E+02</wgt>
<wgt id='4053'>0.30445E+02</wgt>
<wgt id='4054'>0.31751E+02</wgt>
<wgt id='4055'>0.30992E+02</wgt>
<wgt id='4056'>0.31862E+02</wgt>
<wgt id='4060'>0.29989E+02</wgt>
<wgt id='4070'>0.32650E+02</wgt>
<wgt id='4080'>0.27543E+02</wgt>
<wgt id='6000'>0.32338E+02</wgt>
<wgt id='6001'>0.32356E+02</wgt>
<wgt id='6002'>0.32319E+02</wgt>
<wgt id='6003'>0.32374E+02</wgt>
<wgt id='6004'>0.32313E+02</wgt>
<wgt id='6005'>0.32529E+02</wgt>
<wgt id='6006'>0.32161E+02</wgt>
<wgt id='6007'>0.32203E+02</wgt>
<wgt id='6008'>0.32488E+02</wgt>
<wgt id='6009'>0.32373E+02</wgt>
<wgt id='6010'>0.32303E+02</wgt>
<wgt id='6011'>0.32372E+02</wgt>
<wgt id='6012'>0.32264E+02</wgt>
<wgt id='6013'>0.32325E+02</wgt>
<wgt id='6014'>0.32360E+02</wgt>
<wgt id='6015'>0.32279E+02</wgt>
<wgt id='6016'>0.32371E+02</wgt>
<wgt id='6017'>0.32206E+02</wgt>
<wgt id='6018'>0.32494E+02</wgt>
<wgt id='6019'>0.32363E+02</wgt>
<wgt id='6020'>0.32315E+02</wgt>
<wgt id='6021'>0.32271E+02</wgt>
<wgt id='6022'>0.32426E+02</wgt>
<wgt id='6023'>0.32144E+02</wgt>
<wgt id='6024'>0.32468E+02</wgt>
<wgt id='6025'>0.32302E+02</wgt>
<wgt id='6026'>0.32380E+02</wgt>
<wgt id='6027'>0.32366E+02</wgt>
<wgt id='6028'>0.32324E+02</wgt>
<wgt id='6029'>0.32273E+02</wgt>
<wgt id='6030'>0.32419E+02</wgt>
<wgt id='6031'>0.32029E+02</wgt>
<wgt id='6032'>0.32683E+02</wgt>
<wgt id='6033'>0.32484E+02</wgt>
<wgt id='6034'>0.32195E+02</wgt>
<wgt id='6035'>0.32384E+02</wgt>
<wgt id='6036'>0.32225E+02</wgt>
<wgt id='6037'>0.32369E+02</wgt>
<wgt id='6038'>0.32327E+02</wgt>
<wgt id='6039'>0.32264E+02</wgt>
<wgt id='6040'>0.32421E+02</wgt>
<wgt id='6041'>0.32093E+02</wgt>
<wgt id='6042'>0.32615E+02</wgt>
<wgt id='6043'>0.32621E+02</wgt>
<wgt id='6044'>0.32180E+02</wgt>
<wgt id='6045'>0.32305E+02</wgt>
<wgt id='6046'>0.32424E+02</wgt>
<wgt id='6047'>0.32818E+02</wgt>
<wgt id='6048'>0.31613E+02</wgt>
<wgt id='6049'>0.32562E+02</wgt>
<wgt id='6050'>0.32216E+02</wgt>
<wgt id='7000'>0.30789E+02</wgt>
<wgt id='7001'>0.30775E+02</wgt>
<wgt id='7002'>0.30808E+02</wgt>
<wgt id='7003'>0.30893E+02</wgt>
<wgt id='7004'>0.30686E+02</wgt>
<wgt id='7005'>0.30889E+02</wgt>
<wgt id='7006'>0.30749E+02</wgt>
<wgt id='7007'>0.30752E+02</wgt>
<wgt id='7008'>0.30826E+02</wgt>
<wgt id='7009'>0.30811E+02</wgt>
<wgt id='7010'>0.30766E+02</wgt>
<wgt id='7011'>0.30688E+02</wgt>
<wgt id='7012'>0.30832E+02</wgt>
<wgt id='7013'>0.30787E+02</wgt>
<wgt id='7014'>0.30791E+02</wgt>
<wgt id='7015'>0.30776E+02</wgt>
<wgt id='7016'>0.30804E+02</wgt>
<wgt id='7017'>0.30842E+02</wgt>
<wgt id='7018'>0.30759E+02</wgt>
<wgt id='7019'>0.30790E+02</wgt>
<wgt id='7020'>0.30785E+02</wgt>
<wgt id='7021'>0.30728E+02</wgt>
<wgt id='7022'>0.30832E+02</wgt>
<wgt id='7023'>0.31116E+02</wgt>
<wgt id='7024'>0.30483E+02</wgt>
<wgt id='7025'>0.30892E+02</wgt>
<wgt id='7026'>0.30530E+02</wgt>
<wgt id='7027'>0.30826E+02</wgt>
<wgt id='7028'>0.30734E+02</wgt>
<wgt id='7029'>0.30840E+02</wgt>
<wgt id='7030'>0.30684E+02</wgt>
<wgt id='7031'>0.30661E+02</wgt>
<wgt id='7032'>0.31053E+02</wgt>
<wgt id='7033'>0.30820E+02</wgt>
<wgt id='7034'>0.30724E+02</wgt>
<wgt id='7035'>0.30628E+02</wgt>
<wgt id='7036'>0.30855E+02</wgt>
<wgt id='7037'>0.30781E+02</wgt>
<wgt id='7038'>0.30782E+02</wgt>
<wgt id='7039'>0.30687E+02</wgt>
<wgt id='7040'>0.30867E+02</wgt>
<wgt id='7041'>0.30793E+02</wgt>
<wgt id='7042'>0.30755E+02</wgt>
<wgt id='7043'>0.30820E+02</wgt>
<wgt id='7044'>0.30611E+02</wgt>
<wgt id='7045'>0.30284E+02</wgt>
<wgt id='7046'>0.31118E+02</wgt>
<wgt id='7047'>0.30990E+02</wgt>
<wgt id='7048'>0.30696E+02</wgt>
<wgt id='7049'>0.30537E+02</wgt>
<wgt id='7050'>0.30927E+02</wgt>
<wgt id='7060'>0.41762E+02</wgt>
<wgt id='8000'>0.30639E+02</wgt>
<wgt id='8001'>0.30633E+02</wgt>
<wgt id='8002'>0.30649E+02</wgt>
<wgt id='8003'>0.30640E+02</wgt>
<wgt id='8004'>0.30638E+02</wgt>
<wgt id='8005'>0.30580E+02</wgt>
<wgt id='8006'>0.30673E+02</wgt>
<wgt id='8007'>0.30707E+02</wgt>
<wgt id='8008'>0.30714E+02</wgt>
<wgt id='8009'>0.30778E+02</wgt>
<wgt id='8010'>0.30601E+02</wgt>
<wgt id='8011'>0.30645E+02</wgt>
<wgt id='8012'>0.30513E+02</wgt>
<wgt id='8013'>0.30568E+02</wgt>
<wgt id='8014'>0.30719E+02</wgt>
<wgt id='8015'>0.30621E+02</wgt>
<wgt id='8016'>0.30669E+02</wgt>
<wgt id='8017'>0.30645E+02</wgt>
<wgt id='8018'>0.30720E+02</wgt>
<wgt id='8019'>0.30671E+02</wgt>
<wgt id='8020'>0.30604E+02</wgt>
<wgt id='8021'>0.30616E+02</wgt>
<wgt id='8022'>0.30572E+02</wgt>
<wgt id='8023'>0.30616E+02</wgt>
<wgt id='8024'>0.30555E+02</wgt>
<wgt id='8025'>0.30644E+02</wgt>
<wgt id='8026'>0.30688E+02</wgt>
<wgt id='8027'>0.30655E+02</wgt>
<wgt id='8028'>0.30664E+02</wgt>
<wgt id='8029'>0.30517E+02</wgt>
<wgt id='8500'>0.32403E+02</wgt>
<wgt id='8501'>0.32210E+02</wgt>
<wgt id='8502'>0.32696E+02</wgt>
<wgt id='8503'>0.32511E+02</wgt>
<wgt id='8504'>0.32257E+02</wgt>
<wgt id='8505'>0.32314E+02</wgt>
<wgt id='8506'>0.32640E+02</wgt>
<wgt id='8507'>0.31979E+02</wgt>
<wgt id='8508'>0.31814E+02</wgt>
<wgt id='8509'>0.32653E+02</wgt>
<wgt id='8510'>0.32893E+02</wgt>
<wgt id='8511'>0.32367E+02</wgt>
<wgt id='8512'>0.32234E+02</wgt>
<wgt id='8513'>0.32454E+02</wgt>
<wgt id='8514'>0.31811E+02</wgt>
<wgt id='8515'>0.32636E+02</wgt>
<wgt id='8516'>0.32324E+02</wgt>
<wgt id='8517'>0.32196E+02</wgt>
<wgt id='8518'>0.32245E+02</wgt>
<wgt id='8519'>0.32227E+02</wgt>
<wgt id='8520'>0.32288E+02</wgt>
<wgt id='8521'>0.32288E+02</wgt>
<wgt id='8522'>0.32512E+02</wgt>
<wgt id='8523'>0.32267E+02</wgt>
<wgt id='8524'>0.32405E+02</wgt>
<wgt id='8525'>0.32438E+02</wgt>
<wgt id='8526'>0.32364E+02</wgt>
<wgt id='8527'>0.32371E+02</wgt>
<wgt id='8528'>0.32365E+02</wgt>
<wgt id='8529'>0.32356E+02</wgt>
<wgt id='8530'>0.32438E+02</wgt>
<wgt id='8531'>0.32393E+02</wgt>
<wgt id='8532'>0.32400E+02</wgt>
<wgt id='8533'>0.32344E+02</wgt>
<wgt id='8534'>0.32417E+02</wgt>
<wgt id='8535'>0.32474E+02</wgt>
<wgt id='8536'>0.32389E+02</wgt>
<wgt id='8537'>0.32406E+02</wgt>
<wgt id='8538'>0.32397E+02</wgt>
<wgt id='8539'>0.32421E+02</wgt>
<wgt id='8540'>0.32429E+02</wgt>
<wgt id='8541'>0.32431E+02</wgt>
<wgt id='8542'>0.32424E+02</wgt>
<wgt id='8543'>0.32366E+02</wgt>
<wgt id='8544'>0.32446E+02</wgt>
<wgt id='8545'>0.32420E+02</wgt>
<wgt id='8546'>0.32435E+02</wgt>
<wgt id='8547'>0.32379E+02</wgt>
<wgt id='8548'>0.32389E+02</wgt>
<wgt id='8549'>0.32408E+02</wgt>
<wgt id='8550'>0.32379E+02</wgt>
<wgt id='8551'>0.32380E+02</wgt>
<wgt id='8552'>0.32382E+02</wgt>
<wgt id='8553'>0.32362E+02</wgt>
<wgt id='8554'>0.32382E+02</wgt>
<wgt id='8555'>0.32404E+02</wgt>
<wgt id='8556'>0.32393E+02</wgt>
<wgt id='8557'>0.32409E+02</wgt>
<wgt id='8558'>0.32442E+02</wgt>
<wgt id='8559'>0.32393E+02</wgt>
<wgt id='8560'>0.32361E+02</wgt>
<wgt id='8561'>0.32416E+02</wgt>
<wgt id='8562'>0.32384E+02</wgt>
<wgt id='8563'>0.32403E+02</wgt>
<wgt id='8564'>0.32390E+02</wgt>
<wgt id='8565'>0.32411E+02</wgt>
<wgt id='8566'>0.32419E+02</wgt>
<wgt id='8567'>0.32402E+02</wgt>
<wgt id='8568'>0.32425E+02</wgt>
<wgt id='8569'>0.32417E+02</wgt>
<wgt id='8570'>0.32391E+02</wgt>
<wgt id='8571'>0.32379E+02</wgt>
<wgt id='8572'>0.32385E+02</wgt>
<wgt id='8573'>0.32389E+02</wgt>
<wgt id='8574'>0.32387E+02</wgt>
<wgt id='8575'>0.32397E+02</wgt>
<wgt id='8576'>0.32405E+02</wgt>
<wgt id='8577'>0.32386E+02</wgt>
<wgt id='8578'>0.32397E+02</wgt>
<wgt id='8579'>0.32427E+02</wgt>
<wgt id='8580'>0.32401E+02</wgt>
<wgt id='8581'>0.32417E+02</wgt>
<wgt id='8582'>0.32387E+02</wgt>
<wgt id='8583'>0.32411E+02</wgt>
<wgt id='8584'>0.32423E+02</wgt>
<wgt id='8585'>0.32411E+02</wgt>
<wgt id='8586'>0.32435E+02</wgt>
<wgt id='8587'>0.32407E+02</wgt>
<wgt id='8588'>0.32403E+02</wgt>
<wgt id='8589'>0.32403E+02</wgt>
<wgt id='8590'>0.32405E+02</wgt>
<wgt id='8591'>0.32387E+02</wgt>
<wgt id='8592'>0.32400E+02</wgt>
<wgt id='8593'>0.32395E+02</wgt>
<wgt id='8594'>0.32398E+02</wgt>
<wgt id='8595'>0.32399E+02</wgt>
<wgt id='8596'>0.32399E+02</wgt>
<wgt id='8597'>0.32410E+02</wgt>
<wgt id='8598'>0.32409E+02</wgt>
<wgt id='8599'>0.32405E+02</wgt>
<wgt id='8600'>0.32403E+02</wgt>
<wgt id='8601'>0.31580E+02</wgt>
<wgt id='8602'>0.33213E+02</wgt>
<wgt id='9000'>0.30966E+02</wgt>
<wgt id='9001'>0.30924E+02</wgt>
<wgt id='9002'>0.31087E+02</wgt>
<wgt id='9003'>0.30769E+02</wgt>
<wgt id='9004'>0.30979E+02</wgt>
<wgt id='9005'>0.31161E+02</wgt>
<wgt id='9006'>0.30893E+02</wgt>
<wgt id='9007'>0.30719E+02</wgt>
<wgt id='9008'>0.30881E+02</wgt>
<wgt id='9009'>0.30981E+02</wgt>
<wgt id='9010'>0.30734E+02</wgt>
<wgt id='9011'>0.31292E+02</wgt>
<wgt id='9012'>0.31202E+02</wgt>
<wgt id='9013'>0.30677E+02</wgt>
<wgt id='9014'>0.30986E+02</wgt>
<wgt id='9015'>0.30915E+02</wgt>
<wgt id='9016'>0.31435E+02</wgt>
<wgt id='9017'>0.30725E+02</wgt>
<wgt id='9018'>0.30915E+02</wgt>
<wgt id='9019'>0.31000E+02</wgt>
<wgt id='9020'>0.31204E+02</wgt>
<wgt id='9021'>0.30935E+02</wgt>
<wgt id='9022'>0.31046E+02</wgt>
<wgt id='9023'>0.30772E+02</wgt>
<wgt id='9024'>0.30891E+02</wgt>
<wgt id='9025'>0.31001E+02</wgt>
<wgt id='9026'>0.30958E+02</wgt>
<wgt id='9027'>0.30942E+02</wgt>
<wgt id='9028'>0.30991E+02</wgt>
<wgt id='9029'>0.31009E+02</wgt>
<wgt id='9030'>0.30990E+02</wgt>
<wgt id='9031'>0.30933E+02</wgt>
<wgt id='9032'>0.30987E+02</wgt>
<wgt id='9033'>0.30994E+02</wgt>
<wgt id='9034'>0.30977E+02</wgt>
<wgt id='9035'>0.30998E+02</wgt>
<wgt id='9036'>0.30978E+02</wgt>
<wgt id='9037'>0.30991E+02</wgt>
<wgt id='9038'>0.30987E+02</wgt>
<wgt id='9039'>0.30964E+02</wgt>
<wgt id='9040'>0.30947E+02</wgt>
<wgt id='9041'>0.30967E+02</wgt>
<wgt id='9042'>0.30971E+02</wgt>
<wgt id='9043'>0.30930E+02</wgt>
<wgt id='9044'>0.30975E+02</wgt>
<wgt id='9045'>0.30976E+02</wgt>
<wgt id='9046'>0.30927E+02</wgt>
<wgt id='9047'>0.30974E+02</wgt>
<wgt id='9048'>0.30982E+02</wgt>
<wgt id='9049'>0.30947E+02</wgt>
<wgt id='9050'>0.30969E+02</wgt>
<wgt id='9051'>0.30987E+02</wgt>
<wgt id='9052'>0.30986E+02</wgt>
<wgt id='9053'>0.30964E+02</wgt>
<wgt id='9054'>0.30953E+02</wgt>
<wgt id='9055'>0.30952E+02</wgt>
<wgt id='9056'>0.30991E+02</wgt>
<wgt id='9057'>0.30972E+02</wgt>
<wgt id='9058'>0.30929E+02</wgt>
<wgt id='9059'>0.30949E+02</wgt>
<wgt id='9060'>0.30952E+02</wgt>
<wgt id='9061'>0.30969E+02</wgt>
<wgt id='9062'>0.30972E+02</wgt>
<wgt id='9063'>0.30977E+02</wgt>
<wgt id='9064'>0.30964E+02</wgt>
<wgt id='9065'>0.30960E+02</wgt>
<wgt id='9066'>0.30968E+02</wgt>
<wgt id='9067'>0.30977E+02</wgt>
<wgt id='9068'>0.30975E+02</wgt>
<wgt id='9069'>0.30990E+02</wgt>
<wgt id='9070'>0.30959E+02</wgt>
<wgt id='9071'>0.30990E+02</wgt>
<wgt id='9072'>0.30990E+02</wgt>
<wgt id='9073'>0.30958E+02</wgt>
<wgt id='9074'>0.30971E+02</wgt>
<wgt id='9075'>0.30965E+02</wgt>
<wgt id='9076'>0.30962E+02</wgt>
<wgt id='9077'>0.30975E+02</wgt>
<wgt id='9078'>0.30966E+02</wgt>
<wgt id='9079'>0.30961E+02</wgt>
<wgt id='9080'>0.30999E+02</wgt>
<wgt id='9081'>0.30964E+02</wgt>
<wgt id='9082'>0.30977E+02</wgt>
<wgt id='9083'>0.30954E+02</wgt>
<wgt id='9084'>0.30952E+02</wgt>
<wgt id='9085'>0.30951E+02</wgt>
<wgt id='9086'>0.30976E+02</wgt>
<wgt id='9087'>0.30935E+02</wgt>
<wgt id='9088'>0.30954E+02</wgt>
<wgt id='9089'>0.30954E+02</wgt>
<wgt id='9090'>0.30972E+02</wgt>
<wgt id='9091'>0.30958E+02</wgt>
<wgt id='9092'>0.30963E+02</wgt>
<wgt id='9093'>0.30959E+02</wgt>
<wgt id='9094'>0.30959E+02</wgt>
<wgt id='9095'>0.30969E+02</wgt>
<wgt id='9096'>0.30960E+02</wgt>
<wgt id='9097'>0.30970E+02</wgt>
<wgt id='9098'>0.30963E+02</wgt>
<wgt id='9099'>0.30958E+02</wgt>
<wgt id='9100'>0.30967E+02</wgt>
<wgt id='9101'>0.30212E+02</wgt>
<wgt id='9102'>0.31744E+02</wgt>
<wgt id='10000'>0.32404E+02</wgt>
<wgt id='10001'>0.32631E+02</wgt>
<wgt id='10002'>0.32021E+02</wgt>
<wgt id='10003'>0.32376E+02</wgt>
<wgt id='10004'>0.31666E+02</wgt>
<wgt id='10005'>0.32754E+02</wgt>
<wgt id='10006'>0.32211E+02</wgt>
<wgt id='10007'>0.32387E+02</wgt>
<wgt id='10008'>0.32543E+02</wgt>
<wgt id='10009'>0.32232E+02</wgt>
<wgt id='10010'>0.32544E+02</wgt>
<wgt id='10011'>0.32186E+02</wgt>
<wgt id='10012'>0.32431E+02</wgt>
<wgt id='10013'>0.32462E+02</wgt>
<wgt id='10014'>0.32321E+02</wgt>
<wgt id='10015'>0.32370E+02</wgt>
<wgt id='10016'>0.32216E+02</wgt>
<wgt id='10017'>0.32784E+02</wgt>
<wgt id='10018'>0.32468E+02</wgt>
<wgt id='10019'>0.32340E+02</wgt>
<wgt id='10020'>0.32286E+02</wgt>
<wgt id='10021'>0.32363E+02</wgt>
<wgt id='10022'>0.32364E+02</wgt>
<wgt id='10023'>0.32422E+02</wgt>
<wgt id='10024'>0.32343E+02</wgt>
<wgt id='10025'>0.32362E+02</wgt>
<wgt id='10026'>0.32581E+02</wgt>
<wgt id='10027'>0.32523E+02</wgt>
<wgt id='10028'>0.32916E+02</wgt>
<wgt id='10029'>0.32428E+02</wgt>
<wgt id='10030'>0.32389E+02</wgt>
<wgt id='10031'>0.31580E+02</wgt>
<wgt id='10032'>0.33213E+02</wgt>
<wgt id='11000'>0.30967E+02</wgt>
<wgt id='11001'>0.30331E+02</wgt>
<wgt id='11002'>0.31109E+02</wgt>
<wgt id='11003'>0.30947E+02</wgt>
<wgt id='11004'>0.31148E+02</wgt>
<wgt id='11005'>0.30846E+02</wgt>
<wgt id='11006'>0.30994E+02</wgt>
<wgt id='11007'>0.30901E+02</wgt>
<wgt id='11008'>0.30954E+02</wgt>
<wgt id='11009'>0.30868E+02</wgt>
<wgt id='11010'>0.30713E+02</wgt>
<wgt id='11011'>0.30883E+02</wgt>
<wgt id='11012'>0.30982E+02</wgt>
<wgt id='11013'>0.31026E+02</wgt>
<wgt id='11014'>0.30911E+02</wgt>
<wgt id='11015'>0.30945E+02</wgt>
<wgt id='11016'>0.30951E+02</wgt>
<wgt id='11017'>0.31139E+02</wgt>
<wgt id='11018'>0.30937E+02</wgt>
<wgt id='11019'>0.30939E+02</wgt>
<wgt id='11020'>0.31089E+02</wgt>
<wgt id='11021'>0.31008E+02</wgt>
<wgt id='11022'>0.31370E+02</wgt>
<wgt id='11023'>0.30995E+02</wgt>
<wgt id='11024'>0.31022E+02</wgt>
<wgt id='11025'>0.30992E+02</wgt>
<wgt id='11026'>0.30971E+02</wgt>
<wgt id='11027'>0.30967E+02</wgt>
<wgt id='11028'>0.31017E+02</wgt>
<wgt id='11029'>0.31020E+02</wgt>
<wgt id='11030'>0.30962E+02</wgt>
<wgt id='11031'>0.30212E+02</wgt>
<wgt id='11032'>0.31744E+02</wgt>
<wgt id='12000'>0.31465E+02</wgt>
<wgt id='12001'>0.31418E+02</wgt>
<wgt id='12002'>0.31511E+02</wgt>
<wgt id='12003'>0.31486E+02</wgt>
<wgt id='12004'>0.31443E+02</wgt>
<wgt id='12005'>0.31520E+02</wgt>
<wgt id='12006'>0.31409E+02</wgt>
<wgt id='12007'>0.31648E+02</wgt>
<wgt id='12008'>0.31285E+02</wgt>
<wgt id='12009'>0.31431E+02</wgt>
<wgt id='12010'>0.31499E+02</wgt>
<wgt id='12011'>0.31242E+02</wgt>
<wgt id='12012'>0.31713E+02</wgt>
<wgt id='12013'>0.31350E+02</wgt>
<wgt id='12014'>0.31581E+02</wgt>
<wgt id='12015'>0.31504E+02</wgt>
<wgt id='12016'>0.31360E+02</wgt>
<wgt id='12017'>0.31638E+02</wgt>
<wgt id='12018'>0.31357E+02</wgt>
<wgt id='12019'>0.31441E+02</wgt>
<wgt id='12020'>0.31457E+02</wgt>
<wgt id='12021'>0.31523E+02</wgt>
<wgt id='12022'>0.31404E+02</wgt>
<wgt id='12023'>0.31198E+02</wgt>
<wgt id='12024'>0.31660E+02</wgt>
<wgt id='12025'>0.31387E+02</wgt>
<wgt id='12026'>0.31562E+02</wgt>
<wgt id='12027'>0.31851E+02</wgt>
<wgt id='12028'>0.31111E+02</wgt>
<wgt id='12050'>0.31465E+02</wgt>
<wgt id='12051'>0.31580E+02</wgt>
<wgt id='12052'>0.31279E+02</wgt>
<wgt id='12053'>0.31583E+02</wgt>
<wgt id='12054'>0.31340E+02</wgt>
<wgt id='12055'>0.31518E+02</wgt>
<wgt id='12056'>0.31546E+02</wgt>
<wgt id='12057'>0.31425E+02</wgt>
<wgt id='12058'>0.31521E+02</wgt>
<wgt id='12059'>0.31639E+02</wgt>
<wgt id='12060'>0.31304E+02</wgt>
<wgt id='12061'>0.31353E+02</wgt>
<wgt id='12062'>0.31358E+02</wgt>
<wgt id='12063'>0.31236E+02</wgt>
<wgt id='13000'>0.30505E+02</wgt>
<wgt id='13001'>0.30466E+02</wgt>
<wgt id='13002'>0.30537E+02</wgt>
<wgt id='13003'>0.30489E+02</wgt>
<wgt id='13004'>0.30514E+02</wgt>
<wgt id='13005'>0.30545E+02</wgt>
<wgt id='13006'>0.30458E+02</wgt>
<wgt id='13007'>0.30711E+02</wgt>
<wgt id='13008'>0.30298E+02</wgt>
<wgt id='13009'>0.30359E+02</wgt>
<wgt id='13010'>0.30648E+02</wgt>
<wgt id='13011'>0.30618E+02</wgt>
<wgt id='13012'>0.30386E+02</wgt>
<wgt id='13013'>0.30449E+02</wgt>
<wgt id='13014'>0.30550E+02</wgt>
<wgt id='13015'>0.30457E+02</wgt>
<wgt id='13016'>0.30449E+02</wgt>
<wgt id='13017'>0.30520E+02</wgt>
<wgt id='13018'>0.30485E+02</wgt>
<wgt id='13019'>0.30429E+02</wgt>
<wgt id='13020'>0.30577E+02</wgt>
<wgt id='13021'>0.30527E+02</wgt>
<wgt id='13022'>0.30469E+02</wgt>
<wgt id='13023'>0.30385E+02</wgt>
<wgt id='13024'>0.30623E+02</wgt>
<wgt id='13025'>0.30123E+02</wgt>
<wgt id='13026'>0.30851E+02</wgt>
<wgt id='13027'>0.30354E+02</wgt>
<wgt id='13028'>0.30669E+02</wgt>
<wgt id='13050'>0.30505E+02</wgt>
<wgt id='13051'>0.30620E+02</wgt>
<wgt id='13052'>0.30232E+02</wgt>
<wgt id='13053'>0.30606E+02</wgt>
<wgt id='13054'>0.30409E+02</wgt>
<wgt id='13055'>0.30145E+02</wgt>
<wgt id='13056'>0.30274E+02</wgt>
<wgt id='13057'>0.30456E+02</wgt>
<wgt id='13058'>0.30640E+02</wgt>
<wgt id='13059'>0.30596E+02</wgt>
<wgt id='13060'>0.29877E+02</wgt>
<wgt id='13061'>0.30421E+02</wgt>
<wgt id='13062'>0.30689E+02</wgt>
<wgt id='13063'>0.30566E+02</wgt>
<wgt id='14000'>0.31266E+02</wgt>
<wgt id='14001'>0.31262E+02</wgt>
<wgt id='14002'>0.31259E+02</wgt>
<wgt id='14003'>0.31255E+02</wgt>
<wgt id='14004'>0.31252E+02</wgt>
<wgt id='14005'>0.31248E+02</wgt>
<wgt id='14006'>0.31244E+02</wgt>
<wgt id='14007'>0.31241E+02</wgt>
<wgt id='14008'>0.31237E+02</wgt>
<wgt id='14009'>0.31234E+02</wgt>
<wgt id='14010'>0.31230E+02</wgt>
<wgt id='14011'>0.31226E+02</wgt>
<wgt id='14012'>0.31223E+02</wgt>
<wgt id='14013'>0.31219E+02</wgt>
<wgt id='14014'>0.31215E+02</wgt>
<wgt id='14015'>0.31212E+02</wgt>
<wgt id='14016'>0.31208E+02</wgt>
<wgt id='14017'>0.31205E+02</wgt>
<wgt id='14018'>0.31201E+02</wgt>
<wgt id='14019'>0.31198E+02</wgt>
<wgt id='14020'>0.31194E+02</wgt>
<wgt id='14021'>0.31190E+02</wgt>
<wgt id='14022'>0.31187E+02</wgt>
<wgt id='14023'>0.31183E+02</wgt>
<wgt id='14024'>0.31179E+02</wgt>
<wgt id='14025'>0.31176E+02</wgt>
<wgt id='14026'>0.31172E+02</wgt>
<wgt id='14027'>0.31169E+02</wgt>
<wgt id='14028'>0.31165E+02</wgt>
<wgt id='14029'>0.31162E+02</wgt>
<wgt id='14030'>0.31158E+02</wgt>
<wgt id='15000'>0.30621E+02</wgt>
<wgt id='15001'>0.30580E+02</wgt>
<wgt id='15002'>0.30738E+02</wgt>
<wgt id='15003'>0.30428E+02</wgt>
<wgt id='15004'>0.30635E+02</wgt>
<wgt id='15005'>0.30815E+02</wgt>
<wgt id='15006'>0.30550E+02</wgt>
<wgt id='15007'>0.30375E+02</wgt>
<wgt id='15008'>0.30536E+02</wgt>
<wgt id='15009'>0.30636E+02</wgt>
<wgt id='15010'>0.30393E+02</wgt>
<wgt id='15011'>0.30940E+02</wgt>
<wgt id='15012'>0.30851E+02</wgt>
<wgt id='15013'>0.30338E+02</wgt>
<wgt id='15014'>0.30638E+02</wgt>
<wgt id='15015'>0.30567E+02</wgt>
<wgt id='15016'>0.31080E+02</wgt>
<wgt id='15017'>0.30382E+02</wgt>
<wgt id='15018'>0.30570E+02</wgt>
<wgt id='15019'>0.30654E+02</wgt>
<wgt id='15020'>0.30856E+02</wgt>
<wgt id='15021'>0.30589E+02</wgt>
<wgt id='15022'>0.30701E+02</wgt>
<wgt id='15023'>0.30425E+02</wgt>
<wgt id='15024'>0.30545E+02</wgt>
<wgt id='15025'>0.30655E+02</wgt>
<wgt id='15026'>0.30613E+02</wgt>
<wgt id='15027'>0.30597E+02</wgt>
<wgt id='15028'>0.30645E+02</wgt>
<wgt id='15029'>0.30664E+02</wgt>
<wgt id='15030'>0.30646E+02</wgt>
<wgt id='15031'>0.30586E+02</wgt>
<wgt id='15032'>0.30641E+02</wgt>
<wgt id='15033'>0.30648E+02</wgt>
<wgt id='15034'>0.30631E+02</wgt>
<wgt id='15035'>0.30653E+02</wgt>
<wgt id='15036'>0.30632E+02</wgt>
<wgt id='15037'>0.30645E+02</wgt>
<wgt id='15038'>0.30641E+02</wgt>
<wgt id='15039'>0.30618E+02</wgt>
<wgt id='15040'>0.30601E+02</wgt>
<wgt id='15041'>0.30621E+02</wgt>
<wgt id='15042'>0.30625E+02</wgt>
<wgt id='15043'>0.30584E+02</wgt>
<wgt id='15044'>0.30629E+02</wgt>
<wgt id='15045'>0.30630E+02</wgt>
<wgt id='15046'>0.30581E+02</wgt>
<wgt id='15047'>0.30627E+02</wgt>
<wgt id='15048'>0.30635E+02</wgt>
<wgt id='15049'>0.30601E+02</wgt>
<wgt id='15050'>0.30624E+02</wgt>
<wgt id='15051'>0.30641E+02</wgt>
<wgt id='15052'>0.30640E+02</wgt>
<wgt id='15053'>0.30619E+02</wgt>
<wgt id='15054'>0.30607E+02</wgt>
<wgt id='15055'>0.30607E+02</wgt>
<wgt id='15056'>0.30646E+02</wgt>
<wgt id='15057'>0.30626E+02</wgt>
<wgt id='15058'>0.30584E+02</wgt>
<wgt id='15059'>0.30603E+02</wgt>
<wgt id='15060'>0.30606E+02</wgt>
<wgt id='15061'>0.30624E+02</wgt>
<wgt id='15062'>0.30626E+02</wgt>
<wgt id='15063'>0.30632E+02</wgt>
<wgt id='15064'>0.30617E+02</wgt>
<wgt id='15065'>0.30615E+02</wgt>
<wgt id='15066'>0.30622E+02</wgt>
<wgt id='15067'>0.30631E+02</wgt>
<wgt id='15068'>0.30629E+02</wgt>
<wgt id='15069'>0.30644E+02</wgt>
<wgt id='15070'>0.30613E+02</wgt>
<wgt id='15071'>0.30644E+02</wgt>
<wgt id='15072'>0.30645E+02</wgt>
<wgt id='15073'>0.30612E+02</wgt>
<wgt id='15074'>0.30625E+02</wgt>
<wgt id='15075'>0.30619E+02</wgt>
<wgt id='15076'>0.30617E+02</wgt>
<wgt id='15077'>0.30629E+02</wgt>
<wgt id='15078'>0.30621E+02</wgt>
<wgt id='15079'>0.30615E+02</wgt>
<wgt id='15080'>0.30653E+02</wgt>
<wgt id='15081'>0.30618E+02</wgt>
<wgt id='15082'>0.30631E+02</wgt>
<wgt id='15083'>0.30608E+02</wgt>
<wgt id='15084'>0.30606E+02</wgt>
<wgt id='15085'>0.30605E+02</wgt>
<wgt id='15086'>0.30630E+02</wgt>
<wgt id='15087'>0.30590E+02</wgt>
<wgt id='15088'>0.30609E+02</wgt>
<wgt id='15089'>0.30609E+02</wgt>
<wgt id='15090'>0.30626E+02</wgt>
<wgt id='15091'>0.30612E+02</wgt>
<wgt id='15092'>0.30617E+02</wgt>
<wgt id='15093'>0.30613E+02</wgt>
<wgt id='15094'>0.30614E+02</wgt>
<wgt id='15095'>0.30624E+02</wgt>
<wgt id='15096'>0.30614E+02</wgt>
<wgt id='15097'>0.30624E+02</wgt>
<wgt id='15098'>0.30618E+02</wgt>
<wgt id='15099'>0.30612E+02</wgt>
<wgt id='15100'>0.30621E+02</wgt>
<wgt id='15101'>0.30620E+02</wgt>
<wgt id='15102'>0.30618E+02</wgt>
<wgt id='15103'>0.30621E+02</wgt>
<wgt id='15104'>0.30621E+02</wgt>
<wgt id='15105'>0.30622E+02</wgt>
<wgt id='15106'>0.30621E+02</wgt>
<wgt id='15107'>0.30619E+02</wgt>
<wgt id='1500'>0.33697E+02</wgt>
<wgt id='1501'>0.33301E+02</wgt>
<wgt id='1502'>0.33494E+02</wgt>
<wgt id='1503'>0.34066E+02</wgt>
<wgt id='1504'>0.33225E+02</wgt>
<wgt id='1505'>0.32110E+02</wgt>
<wgt id='1506'>0.34790E+02</wgt>
<wgt id='1507'>0.33534E+02</wgt>
<wgt id='1508'>0.34234E+02</wgt>
<wgt id='1509'>0.34372E+02</wgt>
<wgt id='1510'>0.32246E+02</wgt>
<wgt id='1511'>0.31092E+02</wgt>
<wgt id='1512'>0.34381E+02</wgt>
<wgt id='1513'>0.34252E+02</wgt>
<wgt id='1514'>0.32916E+02</wgt>
<wgt id='1515'>0.34667E+02</wgt>
<wgt id='1516'>0.34165E+02</wgt>
<wgt id='1517'>0.33867E+02</wgt>
<wgt id='1518'>0.34225E+02</wgt>
<wgt id='1519'>0.34497E+02</wgt>
<wgt id='1520'>0.35457E+02</wgt>
<wgt id='1521'>0.34062E+02</wgt>
<wgt id='1522'>0.32776E+02</wgt>
<wgt id='1523'>0.36002E+02</wgt>
<wgt id='1524'>0.33567E+02</wgt>
<wgt id='1525'>0.33431E+02</wgt>
<wgt id='1526'>0.33947E+02</wgt>
<wgt id='1527'>0.33841E+02</wgt>
<wgt id='1528'>0.33121E+02</wgt>
<wgt id='1529'>0.34381E+02</wgt>
<wgt id='1530'>0.34851E+02</wgt>
<wgt id='1531'>0.33195E+02</wgt>
<wgt id='1532'>0.32535E+02</wgt>
<wgt id='1533'>0.32730E+02</wgt>
<wgt id='1534'>0.33442E+02</wgt>
<wgt id='1535'>0.34397E+02</wgt>
<wgt id='1536'>0.33844E+02</wgt>
<wgt id='1537'>0.34406E+02</wgt>
<wgt id='1538'>0.34396E+02</wgt>
<wgt id='1539'>0.33634E+02</wgt>
<wgt id='1540'>0.33284E+02</wgt>
<wgt id='1541'>0.34255E+02</wgt>
<wgt id='1542'>0.33283E+02</wgt>
<wgt id='1543'>0.33264E+02</wgt>
<wgt id='1544'>0.33486E+02</wgt>
<wgt id='1545'>0.32853E+02</wgt>
<wgt id='1546'>0.34582E+02</wgt>
<wgt id='1547'>0.33449E+02</wgt>
<wgt id='1548'>0.33808E+02</wgt>
<wgt id='1549'>0.33192E+02</wgt>
<wgt id='1550'>0.33175E+02</wgt>
<wgt id='1551'>0.33297E+02</wgt>
<wgt id='1552'>0.32902E+02</wgt>
<wgt id='1553'>0.33839E+02</wgt>
<wgt id='1554'>0.33894E+02</wgt>
<wgt id='1555'>0.32932E+02</wgt>
<wgt id='1556'>0.33454E+02</wgt>
<wgt id='1557'>0.34390E+02</wgt>
<wgt id='1558'>0.32827E+02</wgt>
<wgt id='1559'>0.34552E+02</wgt>
<wgt id='1560'>0.33591E+02</wgt>
<wgt id='1561'>0.33640E+02</wgt>
<wgt id='1562'>0.33939E+02</wgt>
<wgt id='1563'>0.33331E+02</wgt>
<wgt id='1564'>0.33035E+02</wgt>
<wgt id='1565'>0.33908E+02</wgt>
<wgt id='1566'>0.33285E+02</wgt>
<wgt id='1567'>0.36704E+02</wgt>
<wgt id='1568'>0.33365E+02</wgt>
<wgt id='1569'>0.32487E+02</wgt>
<wgt id='1570'>0.32666E+02</wgt>
<wgt id='1571'>0.33188E+02</wgt>
<wgt id='1572'>0.34156E+02</wgt>
<wgt id='1573'>0.32640E+02</wgt>
<wgt id='1574'>0.33950E+02</wgt>
<wgt id='1575'>0.33557E+02</wgt>
<wgt id='1576'>0.32438E+02</wgt>
<wgt id='1577'>0.33282E+02</wgt>
<wgt id='1578'>0.34396E+02</wgt>
<wgt id='1579'>0.33515E+02</wgt>
<wgt id='1580'>0.33352E+02</wgt>
<wgt id='1581'>0.33604E+02</wgt>
<wgt id='1582'>0.32736E+02</wgt>
<wgt id='1583'>0.35450E+02</wgt>
<wgt id='1584'>0.33383E+02</wgt>
<wgt id='1585'>0.33196E+02</wgt>
<wgt id='1586'>0.33195E+02</wgt>
<wgt id='1587'>0.33544E+02</wgt>
<wgt id='1588'>0.33652E+02</wgt>
<wgt id='1589'>0.35692E+02</wgt>
<wgt id='1590'>0.33094E+02</wgt>
<wgt id='1591'>0.33765E+02</wgt>
<wgt id='1592'>0.33524E+02</wgt>
<wgt id='1593'>0.34039E+02</wgt>
<wgt id='1594'>0.34186E+02</wgt>
<wgt id='1595'>0.33006E+02</wgt>
<wgt id='1596'>0.34319E+02</wgt>
<wgt id='1597'>0.33764E+02</wgt>
<wgt id='1598'>0.34138E+02</wgt>
<wgt id='1599'>0.34396E+02</wgt>
<wgt id='1600'>0.34891E+02</wgt>
<wgt id='1601'>0.33111E+02</wgt>
<wgt id='1602'>0.34155E+02</wgt>
<wgt id='1700'>0.31549E+02</wgt>
<wgt id='1800'>0.31114E+02</wgt>
<wgt id='1850'>0.39304E+02</wgt>
<wgt id='1900'>0.34375E+02</wgt>
<wgt id='1950'>0.38247E+02</wgt>
</rwgt>
</event>
<event>
      4   9999  3.15120E+01  1.17236E+01 -1.00000E+00  1.84375E-01
      21    -1     0     0   512   501  0.000000000E+00  0.000000000E+00  3.283655553E+01  3.283655553E+01  0.000000000E+00  0.00000E+00  9.000E+00
      21    -1     0     0   501   502  0.000000000E+00  0.000000000E+00 -1.917842446E+02  1.917842446E+02  0.000000000E+00  0.00000E+00  9.000E+00
      25     1     1     2     0     0  1.135650855E+01  2.910661559E+00 -1.700615104E+02  2.084665665E+02  1.199997907E+02  0.00000E+00  9.000E+00
      21     1     1     2   512   502 -1.135650855E+01 -2.910661559E+00  1.111382139E+01  1.615423360E+01  2.920019320E-07  0.00000E+00  9.000E+00
#rwgt            1           1   26.243227874653158                2          61           0
<rwgt>
<wgt id='1001'>0.31512E+02</wgt>
<wgt id='1002'>0.35474E+02</wgt>
<wgt id='1003'>0.27313E+02</wgt>
<wgt id='1004'>0.25465E+02</wgt>
<wgt id='1005'>0.28529E+02</wgt>
<wgt id='1006'>0.22191E+02</wgt>
<wgt id='1007'>0.40013E+02</wgt>
<wgt id='1008'>0.45295E+02</wgt>
<wgt id='1009'>0.34464E+02</wgt>
<wgt id='2000'>0.31512E+02</wgt>
<wgt id='2001'>0.31465E+02</wgt>
<wgt id='2002'>0.31620E+02</wgt>
<wgt id='2003'>0.31593E+02</wgt>
<wgt id='2004'>0.31528E+02</wgt>
<wgt id='2005'>0.31470E+02</wgt>
<wgt id='2006'>0.31460E+02</wgt>
<wgt id='2007'>0.31438E+02</wgt>
<wgt id='2008'>0.31516E+02</wgt>
<wgt id='2009'>0.31508E+02</wgt>
<wgt id='2010'>0.31477E+02</wgt>
<wgt id='2011'>0.31631E+02</wgt>
<wgt id='2012'>0.31643E+02</wgt>
<wgt id='2013'>0.31683E+02</wgt>
<wgt id='2014'>0.31605E+02</wgt>
<wgt id='2015'>0.31581E+02</wgt>
<wgt id='2016'>0.31497E+02</wgt>
<wgt id='2017'>0.31507E+02</wgt>
<wgt id='2018'>0.31599E+02</wgt>
<wgt id='2019'>0.31499E+02</wgt>
<wgt id='2020'>0.31631E+02</wgt>
<wgt id='2021'>0.31453E+02</wgt>
<wgt id='2022'>0.31601E+02</wgt>
<wgt id='2023'>0.31568E+02</wgt>
<wgt id='2024'>0.31525E+02</wgt>
<wgt id='2025'>0.31587E+02</wgt>
<wgt id='2026'>0.31552E+02</wgt>
<wgt id='2027'>0.31489E+02</wgt>
<wgt id='2028'>0.31492E+02</wgt>
<wgt id='2029'>0.31538E+02</wgt>
<wgt id='2030'>0.31533E+02</wgt>
<wgt id='2031'>0.31515E+02</wgt>
<wgt id='2032'>0.31528E+02</wgt>
<wgt id='2033'>0.31523E+02</wgt>
<wgt id='2034'>0.31512E+02</wgt>
<wgt id='2035'>0.31509E+02</wgt>
<wgt id='2036'>0.31499E+02</wgt>
<wgt id='2037'>0.31518E+02</wgt>
<wgt id='2038'>0.31512E+02</wgt>
<wgt id='2039'>0.31502E+02</wgt>
<wgt id='2040'>0.31497E+02</wgt>
<wgt id='2041'>0.31495E+02</wgt>
<wgt id='2042'>0.31496E+02</wgt>
<wgt id='2043'>0.31512E+02</wgt>
<wgt id='2044'>0.31525E+02</wgt>
<wgt id='2045'>0.31509E+02</wgt>
<wgt id='2046'>0.31531E+02</wgt>
<wgt id='2047'>0.31520E+02</wgt>
<wgt id='2048'>0.31509E+02</wgt>
<wgt id='2049'>0.31511E+02</wgt>
<wgt id='2050'>0.31526E+02</wgt>
<wgt id='2051'>0.31518E+02</wgt>
<wgt id='2052'>0.31503E+02</wgt>
<wgt id='2053'>0.31515E+02</wgt>
<wgt id='2054'>0.31517E+02</wgt>
<wgt id='2055'>0.31514E+02</wgt>
<wgt id='2056'>0.31512E+02</wgt>
<wgt id='2057'>0.31512E+02</wgt>
<wgt id='2058'>0.31511E+02</wgt>
<wgt id='2059'>0.31507E+02</wgt>
<wgt id='2060'>0.31510E+02</wgt>
<wgt id='2061'>0.31511E+02</wgt>
<wgt id='2062'>0.31522E+02</wgt>
<wgt id='2063'>0.31504E+02</wgt>
<wgt id='2064'>0.31512E+02</wgt>
<wgt id='2065'>0.31530E+02</wgt>
<wgt id='2066'>0.31517E+02</wgt>
<wgt id='2067'>0.31512E+02</wgt>
<wgt id='2068'>0.31519E+02</wgt>
<wgt id='2069'>0.31508E+02</wgt>
<wgt id='2070'>0.31507E+02</wgt>
<wgt id='2071'>0.31507E+02</wgt>
<wgt id='2072'>0.31514E+02</wgt>
<wgt id='2073'>0.31517E+02</wgt>
<wgt id='2074'>0.31511E+02</wgt>
<wgt id='2075'>0.31509E+02</wgt>
<wgt id='2076'>0.31515E+02</wgt>
<wgt id='2077'>0.31509E+02</wgt>
<wgt id='2078'>0.31510E+02</wgt>
<wgt id='2079'>0.31515E+02</wgt>
<wgt id='2080'>0.31514E+02</wgt>
<wgt id='2081'>0.31513E+02</wgt>
<wgt id='2082'>0.31513E+02</wgt>
<wgt id='2083'>0.31513E+02</wgt>
<wgt id='2084'>0.31513E+02</wgt>
<wgt id='2085'>0.31511E+02</wgt>
<wgt id='2086'>0.31511E+02</wgt>
<wgt id='2087'>0.31511E+02</wgt>
<wgt id='2088'>0.31512E+02</wgt>
<wgt id='2089'>0.31512E+02</wgt>
<wgt id='2090'>0.31512E+02</wgt>
<wgt id='2091'>0.31513E+02</wgt>
<wgt id='2092'>0.31513E+02</wgt>
<wgt id='2093'>0.31512E+02</wgt>
<wgt id='2094'>0.31514E+02</wgt>
<wgt id='2095'>0.31513E+02</wgt>
<wgt id='2096'>0.31510E+02</wgt>
<wgt id='2097'>0.31512E+02</wgt>
<wgt id='2098'>0.31511E+02</wgt>
<wgt id='2099'>0.31512E+02</wgt>
<wgt id='2100'>0.31512E+02</wgt>
<wgt id='2101'>0.30596E+02</wgt>
<wgt id='2102'>0.32349E+02</wgt>
<wgt id='2104'>0.27282E+02</wgt>
<wgt id='2105'>0.28057E+02</wgt>
<wgt id='2106'>0.28899E+02</wgt>
<wgt id='2107'>0.29795E+02</wgt>
<wgt id='2108'>0.31118E+02</wgt>
<wgt id='2109'>0.32001E+02</wgt>
<wgt id='2110'>0.33160E+02</wgt>
<wgt id='2111'>0.34024E+02</wgt>
<wgt id='3000'>0.33024E+02</wgt>
<wgt id='3001'>0.33126E+02</wgt>
<wgt id='3002'>0.32911E+02</wgt>
<wgt id='3003'>0.33114E+02</wgt>
<wgt id='3004'>0.33078E+02</wgt>
<wgt id='3005'>0.33127E+02</wgt>
<wgt id='3006'>0.33054E+02</wgt>
<wgt id='3007'>0.33045E+02</wgt>
<wgt id='3008'>0.32956E+02</wgt>
<wgt id='3009'>0.32942E+02</wgt>
<wgt id='3010'>0.32931E+02</wgt>
<wgt id='3011'>0.33090E+02</wgt>
<wgt id='3012'>0.33205E+02</wgt>
<wgt id='3013'>0.32843E+02</wgt>
<wgt id='3014'>0.33110E+02</wgt>
<wgt id='3015'>0.33080E+02</wgt>
<wgt id='3016'>0.33047E+02</wgt>
<wgt id='3017'>0.33122E+02</wgt>
<wgt id='3018'>0.33085E+02</wgt>
<wgt id='3019'>0.32918E+02</wgt>
<wgt id='3020'>0.32947E+02</wgt>
<wgt id='3021'>0.32917E+02</wgt>
<wgt id='3022'>0.33016E+02</wgt>
<wgt id='3023'>0.32960E+02</wgt>
<wgt id='3024'>0.32964E+02</wgt>
<wgt id='3025'>0.33020E+02</wgt>
<wgt id='3026'>0.33066E+02</wgt>
<wgt id='3027'>0.33033E+02</wgt>
<wgt id='3028'>0.32961E+02</wgt>
<wgt id='3029'>0.33027E+02</wgt>
<wgt id='3030'>0.33050E+02</wgt>
<wgt id='3031'>0.33035E+02</wgt>
<wgt id='3032'>0.33028E+02</wgt>
<wgt id='3033'>0.33025E+02</wgt>
<wgt id='3034'>0.33036E+02</wgt>
<wgt id='3035'>0.33042E+02</wgt>
<wgt id='3036'>0.33031E+02</wgt>
<wgt id='3037'>0.33019E+02</wgt>
<wgt id='3038'>0.33022E+02</wgt>
<wgt id='3039'>0.33054E+02</wgt>
<wgt id='3040'>0.33008E+02</wgt>
<wgt id='3041'>0.33013E+02</wgt>
<wgt id='3042'>0.33012E+02</wgt>
<wgt id='3043'>0.33007E+02</wgt>
<wgt id='3044'>0.33040E+02</wgt>
<wgt id='3045'>0.33037E+02</wgt>
<wgt id='3046'>0.33029E+02</wgt>
<wgt id='3047'>0.33023E+02</wgt>
<wgt id='3048'>0.33025E+02</wgt>
<wgt id='3049'>0.33017E+02</wgt>
<wgt id='3050'>0.33014E+02</wgt>
<wgt id='3051'>0.33041E+02</wgt>
<wgt id='3052'>0.33018E+02</wgt>
<wgt id='3053'>0.33022E+02</wgt>
<wgt id='3054'>0.33023E+02</wgt>
<wgt id='3055'>0.33023E+02</wgt>
<wgt id='3056'>0.33030E+02</wgt>
<wgt id='3057'>0.33027E+02</wgt>
<wgt id='3058'>0.33015E+02</wgt>
<wgt id='3059'>0.33030E+02</wgt>
<wgt id='3060'>0.33029E+02</wgt>
<wgt id='3061'>0.33037E+02</wgt>
<wgt id='3062'>0.33032E+02</wgt>
<wgt id='3063'>0.33027E+02</wgt>
<wgt id='3064'>0.33022E+02</wgt>
<wgt id='3065'>0.33023E+02</wgt>
<wgt id='3066'>0.33029E+02</wgt>
<wgt id='3067'>0.33013E+02</wgt>
<wgt id='3068'>0.33027E+02</wgt>
<wgt id='3069'>0.33020E+02</wgt>
<wgt id='3070'>0.33019E+02</wgt>
<wgt id='3071'>0.33021E+02</wgt>
<wgt id='3072'>0.33028E+02</wgt>
<wgt id='3073'>0.33020E+02</wgt>
<wgt id='3074'>0.33029E+02</wgt>
<wgt id='3075'>0.33027E+02</wgt>
<wgt id='3076'>0.33021E+02</wgt>
<wgt id='3077'>0.33024E+02</wgt>
<wgt id='3078'>0.33029E+02</wgt>
<wgt id='3079'>0.33024E+02</wgt>
<wgt id='3080'>0.33026E+02</wgt>
<wgt id='3081'>0.33025E+02</wgt>
<wgt id='3082'>0.33023E+02</wgt>
<wgt id='3083'>0.33020E+02</wgt>
<wgt id='3084'>0.33020E+02</wgt>
<wgt id='3085'>0.33021E+02</wgt>
<wgt id='3086'>0.33018E+02</wgt>
<wgt id='3087'>0.33022E+02</wgt>
<wgt id='3088'>0.33026E+02</wgt>
<wgt id='3089'>0.33024E+02</wgt>
<wgt id='3090'>0.33025E+02</wgt>
<wgt id='3091'>0.33028E+02</wgt>
<wgt id='3092'>0.33029E+02</wgt>
<wgt id='3093'>0.33021E+02</wgt>
<wgt id='3094'>0.33028E+02</wgt>
<wgt id='3095'>0.33026E+02</wgt>
<wgt id='3096'>0.33028E+02</wgt>
<wgt id='3097'>0.33022E+02</wgt>
<wgt id='3098'>0.33028E+02</wgt>
<wgt id='3099'>0.33026E+02</wgt>
<wgt id='3100'>0.33025E+02</wgt>
<wgt id='3101'>0.32075E+02</wgt>
<wgt id='3102'>0.34084E+02</wgt>
<wgt id='5000'>0.30614E+02</wgt>
<wgt id='5001'>0.30512E+02</wgt>
<wgt id='5002'>0.30550E+02</wgt>
<wgt id='5003'>0.30450E+02</wgt>
<wgt id='5004'>0.30651E+02</wgt>
<wgt id='5005'>0.30070E+02</wgt>
<wgt id='5006'>0.30934E+02</wgt>
<wgt id='5007'>0.30707E+02</wgt>
<wgt id='5008'>0.30325E+02</wgt>
<wgt id='5009'>0.30930E+02</wgt>
<wgt id='5010'>0.30442E+02</wgt>
<wgt id='5011'>0.30572E+02</wgt>
<wgt id='5012'>0.30582E+02</wgt>
<wgt id='5013'>0.30024E+02</wgt>
<wgt id='5014'>0.30656E+02</wgt>
<wgt id='5015'>0.30827E+02</wgt>
<wgt id='5016'>0.29954E+02</wgt>
<wgt id='5017'>0.30659E+02</wgt>
<wgt id='5018'>0.30568E+02</wgt>
<wgt id='5019'>0.30505E+02</wgt>
<wgt id='5020'>0.30712E+02</wgt>
<wgt id='5021'>0.30715E+02</wgt>
<wgt id='5022'>0.30548E+02</wgt>
<wgt id='5023'>0.30524E+02</wgt>
<wgt id='5024'>0.30704E+02</wgt>
<wgt id='5025'>0.30574E+02</wgt>
<wgt id='5026'>0.30646E+02</wgt>
<wgt id='5027'>0.30922E+02</wgt>
<wgt id='5028'>0.30095E+02</wgt>
<wgt id='5029'>0.30045E+02</wgt>
<wgt id='5030'>0.30956E+02</wgt>
<wgt id='5031'>0.30282E+02</wgt>
<wgt id='5032'>0.31092E+02</wgt>
<wgt id='5033'>0.30402E+02</wgt>
<wgt id='5034'>0.30793E+02</wgt>
<wgt id='5035'>0.30176E+02</wgt>
<wgt id='5036'>0.30973E+02</wgt>
<wgt id='5037'>0.30537E+02</wgt>
<wgt id='5038'>0.30685E+02</wgt>
<wgt id='5039'>0.31117E+02</wgt>
<wgt id='5040'>0.30358E+02</wgt>
<wgt id='5041'>0.30331E+02</wgt>
<wgt id='5042'>0.30648E+02</wgt>
<wgt id='5043'>0.30871E+02</wgt>
<wgt id='5044'>0.29862E+02</wgt>
<wgt id='5045'>0.31428E+02</wgt>
<wgt id='5046'>0.30401E+02</wgt>
<wgt id='5047'>0.30791E+02</wgt>
<wgt id='5048'>0.30789E+02</wgt>
<wgt id='5049'>0.30633E+02</wgt>
<wgt id='5050'>0.30676E+02</wgt>
<wgt id='5051'>0.30690E+02</wgt>
<wgt id='5052'>0.30597E+02</wgt>
<wgt id='5053'>0.30343E+02</wgt>
<wgt id='5054'>0.31095E+02</wgt>
<wgt id='5055'>0.30431E+02</wgt>
<wgt id='5056'>0.30812E+02</wgt>
<wgt id='5060'>0.29729E+02</wgt>
<wgt id='5070'>0.31422E+02</wgt>
<wgt id='4000'>0.32375E+02</wgt>
<wgt id='4001'>0.32407E+02</wgt>
<wgt id='4002'>0.32465E+02</wgt>
<wgt id='4003'>0.32932E+02</wgt>
<wgt id='4004'>0.32142E+02</wgt>
<wgt id='4005'>0.32487E+02</wgt>
<wgt id='4006'>0.32286E+02</wgt>
<wgt id='4007'>0.32679E+02</wgt>
<wgt id='4008'>0.32268E+02</wgt>
<wgt id='4009'>0.31758E+02</wgt>
<wgt id='4010'>0.32790E+02</wgt>
<wgt id='4011'>0.32833E+02</wgt>
<wgt id='4012'>0.32115E+02</wgt>
<wgt id='4013'>0.31233E+02</wgt>
<wgt id='4014'>0.33023E+02</wgt>
<wgt id='4015'>0.32676E+02</wgt>
<wgt id='4016'>0.32179E+02</wgt>
<wgt id='4017'>0.32050E+02</wgt>
<wgt id='4018'>0.32760E+02</wgt>
<wgt id='4019'>0.32764E+02</wgt>
<wgt id='4020'>0.31938E+02</wgt>
<wgt id='4021'>0.32441E+02</wgt>
<wgt id='4022'>0.32226E+02</wgt>
<wgt id='4023'>0.32228E+02</wgt>
<wgt id='4024'>0.32502E+02</wgt>
<wgt id='4025'>0.31980E+02</wgt>
<wgt id='4026'>0.32736E+02</wgt>
<wgt id='4027'>0.32268E+02</wgt>
<wgt id='4028'>0.32517E+02</wgt>
<wgt id='4029'>0.32144E+02</wgt>
<wgt id='4030'>0.32454E+02</wgt>
<wgt id='4031'>0.32421E+02</wgt>
<wgt id='4032'>0.32314E+02</wgt>
<wgt id='4033'>0.32349E+02</wgt>
<wgt id='4034'>0.32425E+02</wgt>
<wgt id='4035'>0.32823E+02</wgt>
<wgt id='4036'>0.31944E+02</wgt>
<wgt id='4037'>0.32610E+02</wgt>
<wgt id='4038'>0.31972E+02</wgt>
<wgt id='4039'>0.32345E+02</wgt>
<wgt id='4040'>0.32340E+02</wgt>
<wgt id='4041'>0.32623E+02</wgt>
<wgt id='4042'>0.32146E+02</wgt>
<wgt id='4043'>0.32616E+02</wgt>
<wgt id='4044'>0.32121E+02</wgt>
<wgt id='4045'>0.31963E+02</wgt>
<wgt id='4046'>0.32270E+02</wgt>
<wgt id='4047'>0.32047E+02</wgt>
<wgt id='4048'>0.32569E+02</wgt>
<wgt id='4049'>0.32391E+02</wgt>
<wgt id='4050'>0.31904E+02</wgt>
<wgt id='4051'>0.32302E+02</wgt>
<wgt id='4052'>0.32306E+02</wgt>
<wgt id='4053'>0.31530E+02</wgt>
<wgt id='4054'>0.32499E+02</wgt>
<wgt id='4055'>0.32151E+02</wgt>
<wgt id='4056'>0.32612E+02</wgt>
<wgt id='4060'>0.31330E+02</wgt>
<wgt id='4070'>0.33367E+02</wgt>
<wgt id='4080'>0.32608E+02</wgt>
<wgt id='6000'>0.32910E+02</wgt>
<wgt id='6001'>0.32931E+02</wgt>
<wgt id='6002'>0.32886E+02</wgt>
<wgt id='6003'>0.32925E+02</wgt>
<wgt id='6004'>0.32899E+02</wgt>
<wgt id='6005'>0.32979E+02</wgt>
<wgt id='6006'>0.32845E+02</wgt>
<wgt id='6007'>0.32779E+02</wgt>
<wgt id='6008'>0.33056E+02</wgt>
<wgt id='6009'>0.33026E+02</wgt>
<wgt id='6010'>0.32796E+02</wgt>
<wgt id='6011'>0.32983E+02</wgt>
<wgt id='6012'>0.32752E+02</wgt>
<wgt id='6013'>0.32873E+02</wgt>
<wgt id='6014'>0.32976E+02</wgt>
<wgt id='6015'>0.32808E+02</wgt>
<wgt id='6016'>0.32967E+02</wgt>
<wgt id='6017'>0.32720E+02</wgt>
<wgt id='6018'>0.33134E+02</wgt>
<wgt id='6019'>0.32949E+02</wgt>
<wgt id='6020'>0.32874E+02</wgt>
<wgt id='6021'>0.32839E+02</wgt>
<wgt id='6022'>0.33005E+02</wgt>
<wgt id='6023'>0.32681E+02</wgt>
<wgt id='6024'>0.33071E+02</wgt>
<wgt id='6025'>0.32630E+02</wgt>
<wgt id='6026'>0.33112E+02</wgt>
<wgt id='6027'>0.33001E+02</wgt>
<wgt id='6028'>0.32910E+02</wgt>
<wgt id='6029'>0.33084E+02</wgt>
<wgt id='6030'>0.32707E+02</wgt>
<wgt id='6031'>0.32939E+02</wgt>
<wgt id='6032'>0.32864E+02</wgt>
<wgt id='6033'>0.32971E+02</wgt>
<wgt id='6034'>0.32845E+02</wgt>
<wgt id='6035'>0.32897E+02</wgt>
<wgt id='6036'>0.33003E+02</wgt>
<wgt id='6037'>0.32969E+02</wgt>
<wgt id='6038'>0.32906E+02</wgt>
<wgt id='6039'>0.32875E+02</wgt>
<wgt id='6040'>0.32947E+02</wgt>
<wgt id='6041'>0.32852E+02</wgt>
<wgt id='6042'>0.32981E+02</wgt>
<wgt id='6043'>0.33336E+02</wgt>
<wgt id='6044'>0.32716E+02</wgt>
<wgt id='6045'>0.32884E+02</wgt>
<wgt id='6046'>0.32975E+02</wgt>
<wgt id='6047'>0.32920E+02</wgt>
<wgt id='6048'>0.32658E+02</wgt>
<wgt id='6049'>0.32919E+02</wgt>
<wgt id='6050'>0.32889E+02</wgt>
<wgt id='7000'>0.30815E+02</wgt>
<wgt id='7001'>0.30816E+02</wgt>
<wgt id='7002'>0.30815E+02</wgt>
<wgt id='7003'>0.30907E+02</wgt>
<wgt id='7004'>0.30724E+02</wgt>
<wgt id='7005'>0.30871E+02</wgt>
<wgt id='7006'>0.30793E+02</wgt>
<wgt id='7007'>0.30689E+02</wgt>
<wgt id='7008'>0.30942E+02</wgt>
<wgt id='7009'>0.30872E+02</wgt>
<wgt id='7010'>0.30760E+02</wgt>
<wgt id='7011'>0.30510E+02</wgt>
<wgt id='7012'>0.30948E+02</wgt>
<wgt id='7013'>0.30816E+02</wgt>
<wgt id='7014'>0.30814E+02</wgt>
<wgt id='7015'>0.30723E+02</wgt>
<wgt id='7016'>0.30914E+02</wgt>
<wgt id='7017'>0.30695E+02</wgt>
<wgt id='7018'>0.30878E+02</wgt>
<wgt id='7019'>0.30776E+02</wgt>
<wgt id='7020'>0.30870E+02</wgt>
<wgt id='7021'>0.30810E+02</wgt>
<wgt id='7022'>0.30818E+02</wgt>
<wgt id='7023'>0.31100E+02</wgt>
<wgt id='7024'>0.30530E+02</wgt>
<wgt id='7025'>0.30934E+02</wgt>
<wgt id='7026'>0.30525E+02</wgt>
<wgt id='7027'>0.30945E+02</wgt>
<wgt id='7028'>0.30765E+02</wgt>
<wgt id='7029'>0.30696E+02</wgt>
<wgt id='7030'>0.31115E+02</wgt>
<wgt id='7031'>0.30810E+02</wgt>
<wgt id='7032'>0.30833E+02</wgt>
<wgt id='7033'>0.30781E+02</wgt>
<wgt id='7034'>0.30900E+02</wgt>
<wgt id='7035'>0.30880E+02</wgt>
<wgt id='7036'>0.30802E+02</wgt>
<wgt id='7037'>0.30827E+02</wgt>
<wgt id='7038'>0.30825E+02</wgt>
<wgt id='7039'>0.30780E+02</wgt>
<wgt id='7040'>0.30839E+02</wgt>
<wgt id='7041'>0.30757E+02</wgt>
<wgt id='7042'>0.30862E+02</wgt>
<wgt id='7043'>0.30841E+02</wgt>
<wgt id='7044'>0.30670E+02</wgt>
<wgt id='7045'>0.30572E+02</wgt>
<wgt id='7046'>0.30904E+02</wgt>
<wgt id='7047'>0.30851E+02</wgt>
<wgt id='7048'>0.30790E+02</wgt>
<wgt id='7049'>0.30777E+02</wgt>
<wgt id='7050'>0.30781E+02</wgt>
<wgt id='7060'>0.50154E+02</wgt>
<wgt id='8000'>0.31167E+02</wgt>
<wgt id='8001'>0.31158E+02</wgt>
<wgt id='8002'>0.31176E+02</wgt>
<wgt id='8003'>0.31170E+02</wgt>
<wgt id='8004'>0.31166E+02</wgt>
<wgt id='8005'>0.31092E+02</wgt>
<wgt id='8006'>0.31148E+02</wgt>
<wgt id='8007'>0.31127E+02</wgt>
<wgt id='8008'>0.31222E+02</wgt>
<wgt id='8009'>0.31281E+02</wgt>
<wgt id='8010'>0.31168E+02</wgt>
<wgt id='8011'>0.31151E+02</wgt>
<wgt id='8012'>0.31133E+02</wgt>
<wgt id='8013'>0.31159E+02</wgt>
<wgt id='8014'>0.31151E+02</wgt>
<wgt id='8015'>0.31142E+02</wgt>
<wgt id='8016'>0.31177E+02</wgt>
<wgt id='8017'>0.31168E+02</wgt>
<wgt id='8018'>0.31168E+02</wgt>
<wgt id='8019'>0.31215E+02</wgt>
<wgt id='8020'>0.31073E+02</wgt>
<wgt id='8021'>0.31170E+02</wgt>
<wgt id='8022'>0.30995E+02</wgt>
<wgt id='8023'>0.31197E+02</wgt>
<wgt id='8024'>0.31224E+02</wgt>
<wgt id='8025'>0.31265E+02</wgt>
<wgt id='8026'>0.31229E+02</wgt>
<wgt id='8027'>0.31117E+02</wgt>
<wgt id='8028'>0.31198E+02</wgt>
<wgt id='8029'>0.30950E+02</wgt>
<wgt id='8500'>0.32544E+02</wgt>
<wgt id='8501'>0.32469E+02</wgt>
<wgt id='8502'>0.32780E+02</wgt>
<wgt id='8503'>0.32731E+02</wgt>
<wgt id='8504'>0.32483E+02</wgt>
<wgt id='8505'>0.32445E+02</wgt>
<wgt id='8506'>0.32477E+02</wgt>
<wgt id='8507'>0.32708E+02</wgt>
<wgt id='8508'>0.32899E+02</wgt>
<wgt id='8509'>0.32415E+02</wgt>
<wgt id='8510'>0.32993E+02</wgt>
<wgt id='8511'>0.32571E+02</wgt>
<wgt id='8512'>0.32217E+02</wgt>
<wgt id='8513'>0.32573E+02</wgt>
<wgt id='8514'>0.32337E+02</wgt>
<wgt id='8515'>0.32584E+02</wgt>
<wgt id='8516'>0.32633E+02</wgt>
<wgt id='8517'>0.32452E+02</wgt>
<wgt id='8518'>0.32454E+02</wgt>
<wgt id='8519'>0.32479E+02</wgt>
<wgt id='8520'>0.32574E+02</wgt>
<wgt id='8521'>0.32369E+02</wgt>
<wgt id='8522'>0.32569E+02</wgt>
<wgt id='8523'>0.32485E+02</wgt>
<wgt id='8524'>0.32526E+02</wgt>
<wgt id='8525'>0.32490E+02</wgt>
<wgt id='8526'>0.32505E+02</wgt>
<wgt id='8527'>0.32565E+02</wgt>
<wgt id='8528'>0.32453E+02</wgt>
<wgt id='8529'>0.32521E+02</wgt>
<wgt id='8530'>0.32529E+02</wgt>
<wgt id='8531'>0.32534E+02</wgt>
<wgt id='8532'>0.32547E+02</wgt>
<wgt id='8533'>0.32478E+02</wgt>
<wgt id='8534'>0.32552E+02</wgt>
<wgt id='8535'>0.32620E+02</wgt>
<wgt id='8536'>0.32519E+02</wgt>
<wgt id='8537'>0.32556E+02</wgt>
<wgt id='8538'>0.32518E+02</wgt>
<wgt id='8539'>0.32551E+02</wgt>
<wgt id='8540'>0.32545E+02</wgt>
<wgt id='8541'>0.32562E+02</wgt>
<wgt id='8542'>0.32570E+02</wgt>
<wgt id='8543'>0.32517E+02</wgt>
<wgt id='8544'>0.32574E+02</wgt>
<wgt id='8545'>0.32571E+02</wgt>
<wgt id='8546'>0.32581E+02</wgt>
<wgt id='8547'>0.32514E+02</wgt>
<wgt id='8548'>0.32512E+02</wgt>
<wgt id='8549'>0.32546E+02</wgt>
<wgt id='8550'>0.32548E+02</wgt>
<wgt id='8551'>0.32513E+02</wgt>
<wgt id='8552'>0.32551E+02</wgt>
<wgt id='8553'>0.32529E+02</wgt>
<wgt id='8554'>0.32530E+02</wgt>
<wgt id='8555'>0.32548E+02</wgt>
<wgt id='8556'>0.32541E+02</wgt>
<wgt id='8557'>0.32537E+02</wgt>
<wgt id='8558'>0.32582E+02</wgt>
<wgt id='8559'>0.32527E+02</wgt>
<wgt id='8560'>0.32506E+02</wgt>
<wgt id='8561'>0.32539E+02</wgt>
<wgt id='8562'>0.32518E+02</wgt>
<wgt id='8563'>0.32546E+02</wgt>
<wgt id='8564'>0.32537E+02</wgt>
<wgt id='8565'>0.32544E+02</wgt>
<wgt id='8566'>0.32535E+02</wgt>
<wgt id='8567'>0.32539E+02</wgt>
<wgt id='8568'>0.32557E+02</wgt>
<wgt id='8569'>0.32553E+02</wgt>
<wgt id='8570'>0.32544E+02</wgt>
<wgt id='8571'>0.32529E+02</wgt>
<wgt id='8572'>0.32534E+02</wgt>
<wgt id='8573'>0.32532E+02</wgt>
<wgt id='8574'>0.32553E+02</wgt>
<wgt id='8575'>0.32540E+02</wgt>
<wgt id='8576'>0.32540E+02</wgt>
<wgt id='8577'>0.32546E+02</wgt>
<wgt id='8578'>0.32547E+02</wgt>
<wgt id='8579'>0.32564E+02</wgt>
<wgt id='8580'>0.32546E+02</wgt>
<wgt id='8581'>0.32552E+02</wgt>
<wgt id='8582'>0.32521E+02</wgt>
<wgt id='8583'>0.32558E+02</wgt>
<wgt id='8584'>0.32551E+02</wgt>
<wgt id='8585'>0.32551E+02</wgt>
<wgt id='8586'>0.32557E+02</wgt>
<wgt id='8587'>0.32538E+02</wgt>
<wgt id='8588'>0.32535E+02</wgt>
<wgt id='8589'>0.32545E+02</wgt>
<wgt id='8590'>0.32541E+02</wgt>
<wgt id='8591'>0.32542E+02</wgt>
<wgt id='8592'>0.32544E+02</wgt>
<wgt id='8593'>0.32532E+02</wgt>
<wgt id='8594'>0.32551E+02</wgt>
<wgt id='8595'>0.32549E+02</wgt>
<wgt id='8596'>0.32538E+02</wgt>
<wgt id='8597'>0.32547E+02</wgt>
<wgt id='8598'>0.32552E+02</wgt>
<wgt id='8599'>0.32548E+02</wgt>
<wgt id='8600'>0.32544E+02</wgt>
<wgt id='8601'>0.31806E+02</wgt>
<wgt id='8602'>0.33213E+02</wgt>
<wgt id='9000'>0.30806E+02</wgt>
<wgt id='9001'>0.30849E+02</wgt>
<wgt id='9002'>0.30939E+02</wgt>
<wgt id='9003'>0.30589E+02</wgt>
<wgt id='9004'>0.30759E+02</wgt>
<wgt id='9005'>0.30899E+02</wgt>
<wgt id='9006'>0.30753E+02</wgt>
<wgt id='9007'>0.30860E+02</wgt>
<wgt id='9008'>0.30872E+02</wgt>
<wgt id='9009'>0.30778E+02</wgt>
<wgt id='9010'>0.30736E+02</wgt>
<wgt id='9011'>0.31113E+02</wgt>
<wgt id='9012'>0.30505E+02</wgt>
<wgt id='9013'>0.30410E+02</wgt>
<wgt id='9014'>0.30526E+02</wgt>
<wgt id='9015'>0.30814E+02</wgt>
<wgt id='9016'>0.31017E+02</wgt>
<wgt id='9017'>0.30797E+02</wgt>
<wgt id='9018'>0.30760E+02</wgt>
<wgt id='9019'>0.30748E+02</wgt>
<wgt id='9020'>0.30932E+02</wgt>
<wgt id='9021'>0.30753E+02</wgt>
<wgt id='9022'>0.30849E+02</wgt>
<wgt id='9023'>0.30752E+02</wgt>
<wgt id='9024'>0.30774E+02</wgt>
<wgt id='9025'>0.30857E+02</wgt>
<wgt id='9026'>0.30816E+02</wgt>
<wgt id='9027'>0.30744E+02</wgt>
<wgt id='9028'>0.30832E+02</wgt>
<wgt id='9029'>0.30842E+02</wgt>
<wgt id='9030'>0.30812E+02</wgt>
<wgt id='9031'>0.30788E+02</wgt>
<wgt id='9032'>0.30837E+02</wgt>
<wgt id='9033'>0.30849E+02</wgt>
<wgt id='9034'>0.30791E+02</wgt>
<wgt id='9035'>0.30858E+02</wgt>
<wgt id='9036'>0.30806E+02</wgt>
<wgt id='9037'>0.30835E+02</wgt>
<wgt id='9038'>0.30811E+02</wgt>
<wgt id='9039'>0.30815E+02</wgt>
<wgt id='9040'>0.30773E+02</wgt>
<wgt id='9041'>0.30795E+02</wgt>
<wgt id='9042'>0.30803E+02</wgt>
<wgt id='9043'>0.30779E+02</wgt>
<wgt id='9044'>0.30818E+02</wgt>
<wgt id='9045'>0.30805E+02</wgt>
<wgt id='9046'>0.30764E+02</wgt>
<wgt id='9047'>0.30795E+02</wgt>
<wgt id='9048'>0.30815E+02</wgt>
<wgt id='9049'>0.30790E+02</wgt>
<wgt id='9050'>0.30813E+02</wgt>
<wgt id='9051'>0.30820E+02</wgt>
<wgt id='9052'>0.30815E+02</wgt>
<wgt id='9053'>0.30810E+02</wgt>
<wgt id='9054'>0.30790E+02</wgt>
<wgt id='9055'>0.30798E+02</wgt>
<wgt id='9056'>0.30836E+02</wgt>
<wgt id='9057'>0.30804E+02</wgt>
<wgt id='9058'>0.30781E+02</wgt>
<wgt id='9059'>0.30792E+02</wgt>
<wgt id='9060'>0.30794E+02</wgt>
<wgt id='9061'>0.30810E+02</wgt>
<wgt id='9062'>0.30811E+02</wgt>
<wgt id='9063'>0.30822E+02</wgt>
<wgt id='9064'>0.30797E+02</wgt>
<wgt id='9065'>0.30806E+02</wgt>
<wgt id='9066'>0.30810E+02</wgt>
<wgt id='9067'>0.30818E+02</wgt>
<wgt id='9068'>0.30816E+02</wgt>
<wgt id='9069'>0.30824E+02</wgt>
<wgt id='9070'>0.30803E+02</wgt>
<wgt id='9071'>0.30824E+02</wgt>
<wgt id='9072'>0.30826E+02</wgt>
<wgt id='9073'>0.30799E+02</wgt>
<wgt id='9074'>0.30811E+02</wgt>
<wgt id='9075'>0.30804E+02</wgt>
<wgt id='9076'>0.30801E+02</wgt>
<wgt id='9077'>0.30811E+02</wgt>
<wgt id='9078'>0.30808E+02</wgt>
<wgt id='9079'>0.30801E+02</wgt>
<wgt id='9080'>0.30828E+02</wgt>
<wgt id='9081'>0.30801E+02</wgt>
<wgt id='9082'>0.30813E+02</wgt>
<wgt id='9083'>0.30796E+02</wgt>
<wgt id='9084'>0.30798E+02</wgt>
<wgt id='9085'>0.30798E+02</wgt>
<wgt id='9086'>0.30808E+02</wgt>
<wgt id='9087'>0.30788E+02</wgt>
<wgt id='9088'>0.30801E+02</wgt>
<wgt id='9089'>0.30800E+02</wgt>
<wgt id='9090'>0.30812E+02</wgt>
<wgt id='9091'>0.30805E+02</wgt>
<wgt id='9092'>0.30806E+02</wgt>
<wgt id='9093'>0.30801E+02</wgt>
<wgt id='9094'>0.30806E+02</wgt>
<wgt id='9095'>0.30810E+02</wgt>
<wgt id='9096'>0.30799E+02</wgt>
<wgt id='9097'>0.30808E+02</wgt>
<wgt id='9098'>0.30807E+02</wgt>
<wgt id='9099'>0.30799E+02</wgt>
<wgt id='9100'>0.30805E+02</wgt>
<wgt id='9101'>0.30227E+02</wgt>
<wgt id='9102'>0.31322E+02</wgt>
<wgt id='10000'>0.32542E+02</wgt>
<wgt id='10001'>0.32670E+02</wgt>
<wgt id='10002'>0.32498E+02</wgt>
<wgt id='10003'>0.32542E+02</wgt>
<wgt id='10004'>0.32579E+02</wgt>
<wgt id='10005'>0.33323E+02</wgt>
<wgt id='10006'>0.32520E+02</wgt>
<wgt id='10007'>0.32531E+02</wgt>
<wgt id='10008'>0.32571E+02</wgt>
<wgt id='10009'>0.32489E+02</wgt>
<wgt id='10010'>0.32560E+02</wgt>
<wgt id='10011'>0.32519E+02</wgt>
<wgt id='10012'>0.32490E+02</wgt>
<wgt id='10013'>0.32536E+02</wgt>
<wgt id='10014'>0.32540E+02</wgt>
<wgt id='10015'>0.32578E+02</wgt>
<wgt id='10016'>0.32541E+02</wgt>
<wgt id='10017'>0.32334E+02</wgt>
<wgt id='10018'>0.32570E+02</wgt>
<wgt id='10019'>0.32500E+02</wgt>
<wgt id='10020'>0.32537E+02</wgt>
<wgt id='10021'>0.32539E+02</wgt>
<wgt id='10022'>0.32529E+02</wgt>
<wgt id='10023'>0.32548E+02</wgt>
<wgt id='10024'>0.32530E+02</wgt>
<wgt id='10025'>0.32527E+02</wgt>
<wgt id='10026'>0.32566E+02</wgt>
<wgt id='10027'>0.32564E+02</wgt>
<wgt id='10028'>0.32673E+02</wgt>
<wgt id='10029'>0.32580E+02</wgt>
<wgt id='10030'>0.32534E+02</wgt>
<wgt id='10031'>0.31806E+02</wgt>
<wgt id='10032'>0.33213E+02</wgt>
<wgt id='11000'>0.30804E+02</wgt>
<wgt id='11001'>0.30749E+02</wgt>
<wgt id='11002'>0.30910E+02</wgt>
<wgt id='11003'>0.30771E+02</wgt>
<wgt id='11004'>0.30905E+02</wgt>
<wgt id='11005'>0.30434E+02</wgt>
<wgt id='11006'>0.30807E+02</wgt>
<wgt id='11007'>0.30736E+02</wgt>
<wgt id='11008'>0.30729E+02</wgt>
<wgt id='11009'>0.30679E+02</wgt>
<wgt id='11010'>0.30952E+02</wgt>
<wgt id='11011'>0.30662E+02</wgt>
<wgt id='11012'>0.30833E+02</wgt>
<wgt id='11013'>0.30903E+02</wgt>
<wgt id='11014'>0.30727E+02</wgt>
<wgt id='11015'>0.30773E+02</wgt>
<wgt id='11016'>0.30771E+02</wgt>
<wgt id='11017'>0.31031E+02</wgt>
<wgt id='11018'>0.30798E+02</wgt>
<wgt id='11019'>0.30792E+02</wgt>
<wgt id='11020'>0.30859E+02</wgt>
<wgt id='11021'>0.30884E+02</wgt>
<wgt id='11022'>0.31351E+02</wgt>
<wgt id='11023'>0.30803E+02</wgt>
<wgt id='11024'>0.30800E+02</wgt>
<wgt id='11025'>0.30763E+02</wgt>
<wgt id='11026'>0.30810E+02</wgt>
<wgt id='11027'>0.30797E+02</wgt>
<wgt id='11028'>0.30807E+02</wgt>
<wgt id='11029'>0.30800E+02</wgt>
<wgt id='11030'>0.30806E+02</wgt>
<wgt id='11031'>0.30227E+02</wgt>
<wgt id='11032'>0.31322E+02</wgt>
<wgt id='12000'>0.34383E+02</wgt>
<wgt id='12001'>0.34338E+02</wgt>
<wgt id='12002'>0.34428E+02</wgt>
<wgt id='12003'>0.34471E+02</wgt>
<wgt id='12004'>0.34295E+02</wgt>
<wgt id='12005'>0.34435E+02</wgt>
<wgt id='12006'>0.34331E+02</wgt>
<wgt id='12007'>0.34467E+02</wgt>
<wgt id='12008'>0.34301E+02</wgt>
<wgt id='12009'>0.34433E+02</wgt>
<wgt id='12010'>0.34334E+02</wgt>
<wgt id='12011'>0.34307E+02</wgt>
<wgt id='12012'>0.34461E+02</wgt>
<wgt id='12013'>0.34256E+02</wgt>
<wgt id='12014'>0.34511E+02</wgt>
<wgt id='12015'>0.34390E+02</wgt>
<wgt id='12016'>0.34350E+02</wgt>
<wgt id='12017'>0.34491E+02</wgt>
<wgt id='12018'>0.34259E+02</wgt>
<wgt id='12019'>0.34279E+02</wgt>
<wgt id='12020'>0.34485E+02</wgt>
<wgt id='12021'>0.34507E+02</wgt>
<wgt id='12022'>0.34220E+02</wgt>
<wgt id='12023'>0.34232E+02</wgt>
<wgt id='12024'>0.34365E+02</wgt>
<wgt id='12025'>0.34455E+02</wgt>
<wgt id='12026'>0.34360E+02</wgt>
<wgt id='12027'>0.34388E+02</wgt>
<wgt id='12028'>0.34408E+02</wgt>
<wgt id='12050'>0.34383E+02</wgt>
<wgt id='12051'>0.34363E+02</wgt>
<wgt id='12052'>0.34388E+02</wgt>
<wgt id='12053'>0.34355E+02</wgt>
<wgt id='12054'>0.34387E+02</wgt>
<wgt id='12055'>0.34498E+02</wgt>
<wgt id='12056'>0.34185E+02</wgt>
<wgt id='12057'>0.34257E+02</wgt>
<wgt id='12058'>0.34502E+02</wgt>
<wgt id='12059'>0.34309E+02</wgt>
<wgt id='12060'>0.34467E+02</wgt>
<wgt id='12061'>0.34373E+02</wgt>
<wgt id='12062'>0.34447E+02</wgt>
<wgt id='12063'>0.34068E+02</wgt>
<wgt id='13000'>0.31184E+02</wgt>
<wgt id='13001'>0.31161E+02</wgt>
<wgt id='13002'>0.31203E+02</wgt>
<wgt id='13003'>0.31229E+02</wgt>
<wgt id='13004'>0.31134E+02</wgt>
<wgt id='13005'>0.31256E+02</wgt>
<wgt id='13006'>0.31107E+02</wgt>
<wgt id='13007'>0.31307E+02</wgt>
<wgt id='13008'>0.31059E+02</wgt>
<wgt id='13009'>0.31179E+02</wgt>
<wgt id='13010'>0.31186E+02</wgt>
<wgt id='13011'>0.31260E+02</wgt>
<wgt id='13012'>0.31104E+02</wgt>
<wgt id='13013'>0.31094E+02</wgt>
<wgt id='13014'>0.31270E+02</wgt>
<wgt id='13015'>0.31146E+02</wgt>
<wgt id='13016'>0.31209E+02</wgt>
<wgt id='13017'>0.31161E+02</wgt>
<wgt id='13018'>0.31196E+02</wgt>
<wgt id='13019'>0.31133E+02</wgt>
<wgt id='13020'>0.31227E+02</wgt>
<wgt id='13021'>0.30956E+02</wgt>
<wgt id='13022'>0.31364E+02</wgt>
<wgt id='13023'>0.31174E+02</wgt>
<wgt id='13024'>0.31185E+02</wgt>
<wgt id='13025'>0.31079E+02</wgt>
<wgt id='13026'>0.31208E+02</wgt>
<wgt id='13027'>0.31181E+02</wgt>
<wgt id='13028'>0.31217E+02</wgt>
<wgt id='13050'>0.31184E+02</wgt>
<wgt id='13051'>0.31193E+02</wgt>
<wgt id='13052'>0.31104E+02</wgt>
<wgt id='13053'>0.31182E+02</wgt>
<wgt id='13054'>0.31170E+02</wgt>
<wgt id='13055'>0.31098E+02</wgt>
<wgt id='13056'>0.31206E+02</wgt>
<wgt id='13057'>0.31078E+02</wgt>
<wgt id='13058'>0.31341E+02</wgt>
<wgt id='13059'>0.31087E+02</wgt>
<wgt id='13060'>0.31199E+02</wgt>
<wgt id='13061'>0.31095E+02</wgt>
<wgt id='13062'>0.31423E+02</wgt>
<wgt id='13063'>0.31026E+02</wgt>
<wgt id='14000'>0.32229E+02</wgt>
<wgt id='14001'>0.32224E+02</wgt>
<wgt id='14002'>0.32219E+02</wgt>
<wgt id='14003'>0.32214E+02</wgt>
<wgt id='14004'>0.32209E+02</wgt>
<wgt id='14005'>0.32204E+02</wgt>
<wgt id='14006'>0.32199E+02</wgt>
<wgt id='14007'>0.32193E+02</wgt>
<wgt id='14008'>0.32188E+02</wgt>
<wgt id='14009'>0.32183E+02</wgt>
<wgt id='14010'>0.32178E+02</wgt>
<wgt id='14011'>0.32173E+02</wgt>
<wgt id='14012'>0.32168E+02</wgt>
<wgt id='14013'>0.32163E+02</wgt>
<wgt id='14014'>0.32157E+02</wgt>
<wgt id='14015'>0.32153E+02</wgt>
<wgt id='14016'>0.32147E+02</wgt>
<wgt id='14017'>0.32142E+02</wgt>
<wgt id='14018'>0.32137E+02</wgt>
<wgt id='14019'>0.32132E+02</wgt>
<wgt id='14020'>0.32127E+02</wgt>
<wgt id='14021'>0.32122E+02</wgt>
<wgt id='14022'>0.32117E+02</wgt>
<wgt id='14023'>0.32111E+02</wgt>
<wgt id='14024'>0.32107E+02</wgt>
<wgt id='14025'>0.32101E+02</wgt>
<wgt id='14026'>0.32096E+02</wgt>
<wgt id='14027'>0.32091E+02</wgt>
<wgt id='14028'>0.32086E+02</wgt>
<wgt id='14029'>0.32081E+02</wgt>
<wgt id='14030'>0.32076E+02</wgt>
<wgt id='15000'>0.30409E+02</wgt>
<wgt id='15001'>0.30441E+02</wgt>
<wgt id='15002'>0.30536E+02</wgt>
<wgt id='15003'>0.30196E+02</wgt>
<wgt id='15004'>0.30361E+02</wgt>
<wgt id='15005'>0.30501E+02</wgt>
<wgt id='15006'>0.30366E+02</wgt>
<wgt id='15007'>0.30471E+02</wgt>
<wgt id='15008'>0.30475E+02</wgt>
<wgt id='15009'>0.30382E+02</wgt>
<wgt id='15010'>0.30339E+02</wgt>
<wgt id='15011'>0.30722E+02</wgt>
<wgt id='15012'>0.30116E+02</wgt>
<wgt id='15013'>0.30025E+02</wgt>
<wgt id='15014'>0.30131E+02</wgt>
<wgt id='15015'>0.30399E+02</wgt>
<wgt id='15016'>0.30627E+02</wgt>
<wgt id='15017'>0.30394E+02</wgt>
<wgt id='15018'>0.30361E+02</wgt>
<wgt id='15019'>0.30360E+02</wgt>
<wgt id='15020'>0.30543E+02</wgt>
<wgt id='15021'>0.30353E+02</wgt>
<wgt id='15022'>0.30450E+02</wgt>
<wgt id='15023'>0.30356E+02</wgt>
<wgt id='15024'>0.30371E+02</wgt>
<wgt id='15025'>0.30451E+02</wgt>
<wgt id='15026'>0.30410E+02</wgt>
<wgt id='15027'>0.30359E+02</wgt>
<wgt id='15028'>0.30438E+02</wgt>
<wgt id='15029'>0.30440E+02</wgt>
<wgt id='15030'>0.30413E+02</wgt>
<wgt id='15031'>0.30400E+02</wgt>
<wgt id='15032'>0.30435E+02</wgt>
<wgt id='15033'>0.30449E+02</wgt>
<wgt id='15034'>0.30394E+02</wgt>
<wgt id='15035'>0.30458E+02</wgt>
<wgt id='15036'>0.30410E+02</wgt>
<wgt id='15037'>0.30438E+02</wgt>
<wgt id='15038'>0.30413E+02</wgt>
<wgt id='15039'>0.30414E+02</wgt>
<wgt id='15040'>0.30376E+02</wgt>
<wgt id='15041'>0.30396E+02</wgt>
<wgt id='15042'>0.30404E+02</wgt>
<wgt id='15043'>0.30388E+02</wgt>
<wgt id='15044'>0.30420E+02</wgt>
<wgt id='15045'>0.30406E+02</wgt>
<wgt id='15046'>0.30369E+02</wgt>
<wgt id='15047'>0.30396E+02</wgt>
<wgt id='15048'>0.30419E+02</wgt>
<wgt id='15049'>0.30392E+02</wgt>
<wgt id='15050'>0.30416E+02</wgt>
<wgt id='15051'>0.30422E+02</wgt>
<wgt id='15052'>0.30417E+02</wgt>
<wgt id='15053'>0.30413E+02</wgt>
<wgt id='15054'>0.30395E+02</wgt>
<wgt id='15055'>0.30402E+02</wgt>
<wgt id='15056'>0.30436E+02</wgt>
<wgt id='15057'>0.30407E+02</wgt>
<wgt id='15058'>0.30388E+02</wgt>
<wgt id='15059'>0.30396E+02</wgt>
<wgt id='15060'>0.30399E+02</wgt>
<wgt id='15061'>0.30414E+02</wgt>
<wgt id='15062'>0.30413E+02</wgt>
<wgt id='15063'>0.30424E+02</wgt>
<wgt id='15064'>0.30402E+02</wgt>
<wgt id='15065'>0.30409E+02</wgt>
<wgt id='15066'>0.30413E+02</wgt>
<wgt id='15067'>0.30419E+02</wgt>
<wgt id='15068'>0.30419E+02</wgt>
<wgt id='15069'>0.30426E+02</wgt>
<wgt id='15070'>0.30406E+02</wgt>
<wgt id='15071'>0.30428E+02</wgt>
<wgt id='15072'>0.30428E+02</wgt>
<wgt id='15073'>0.30401E+02</wgt>
<wgt id='15074'>0.30414E+02</wgt>
<wgt id='15075'>0.30407E+02</wgt>
<wgt id='15076'>0.30406E+02</wgt>
<wgt id='15077'>0.30414E+02</wgt>
<wgt id='15078'>0.30412E+02</wgt>
<wgt id='15079'>0.30404E+02</wgt>
<wgt id='15080'>0.30429E+02</wgt>
<wgt id='15081'>0.30406E+02</wgt>
<wgt id='15082'>0.30416E+02</wgt>
<wgt id='15083'>0.30399E+02</wgt>
<wgt id='15084'>0.30400E+02</wgt>
<wgt id='15085'>0.30402E+02</wgt>
<wgt id='15086'>0.30413E+02</wgt>
<wgt id='15087'>0.30391E+02</wgt>
<wgt id='15088'>0.30403E+02</wgt>
<wgt id='15089'>0.30402E+02</wgt>
<wgt id='15090'>0.30414E+02</wgt>
<wgt id='15091'>0.30406E+02</wgt>
<wgt id='15092'>0.30408E+02</wgt>
<wgt id='15093'>0.30404E+02</wgt>
<wgt id='15094'>0.30407E+02</wgt>
<wgt id='15095'>0.30413E+02</wgt>
<wgt id='15096'>0.30403E+02</wgt>
<wgt id='15097'>0.30411E+02</wgt>
<wgt id='15098'>0.30409E+02</wgt>
<wgt id='15099'>0.30403E+02</wgt>
<wgt id='15100'>0.30408E+02</wgt>
<wgt id='15101'>0.30409E+02</wgt>
<wgt id='15102'>0.30407E+02</wgt>
<wgt id='15103'>0.30410E+02</wgt>
<wgt id='15104'>0.30410E+02</wgt>
<wgt id='15105'>0.30410E+02</wgt>
<wgt id='15106'>0.30409E+02</wgt>
<wgt id='15107'>0.30408E+02</wgt>
<wgt id='1500'>0.32369E+02</wgt>
<wgt id='1501'>0.29608E+02</wgt>
<wgt id='1502'>0.32280E+02</wgt>
<wgt id='1503'>0.32331E+02</wgt>
<wgt id='1504'>0.31976E+02</wgt>
<wgt id='1505'>0.28550E+02</wgt>
<wgt id='1506'>0.32718E+02</wgt>
<wgt id='1507'>0.32723E+02</wgt>
<wgt id='1508'>0.32598E+02</wgt>
<wgt id='1509'>0.32501E+02</wgt>
<wgt id='1510'>0.31401E+02</wgt>
<wgt id='1511'>0.31776E+02</wgt>
<wgt id='1512'>0.32928E+02</wgt>
<wgt id='1513'>0.32961E+02</wgt>
<wgt id='1514'>0.31734E+02</wgt>
<wgt id='1515'>0.32808E+02</wgt>
<wgt id='1516'>0.32727E+02</wgt>
<wgt id='1517'>0.32011E+02</wgt>
<wgt id='1518'>0.32076E+02</wgt>
<wgt id='1519'>0.32812E+02</wgt>
<wgt id='1520'>0.32860E+02</wgt>
<wgt id='1521'>0.32568E+02</wgt>
<wgt id='1522'>0.32141E+02</wgt>
<wgt id='1523'>0.34757E+02</wgt>
<wgt id='1524'>0.32242E+02</wgt>
<wgt id='1525'>0.32689E+02</wgt>
<wgt id='1526'>0.31960E+02</wgt>
<wgt id='1527'>0.32014E+02</wgt>
<wgt id='1528'>0.32137E+02</wgt>
<wgt id='1529'>0.32148E+02</wgt>
<wgt id='1530'>0.33038E+02</wgt>
<wgt id='1531'>0.32314E+02</wgt>
<wgt id='1532'>0.31602E+02</wgt>
<wgt id='1533'>0.32558E+02</wgt>
<wgt id='1534'>0.32574E+02</wgt>
<wgt id='1535'>0.33236E+02</wgt>
<wgt id='1536'>0.33003E+02</wgt>
<wgt id='1537'>0.32913E+02</wgt>
<wgt id='1538'>0.32699E+02</wgt>
<wgt id='1539'>0.31346E+02</wgt>
<wgt id='1540'>0.32819E+02</wgt>
<wgt id='1541'>0.32390E+02</wgt>
<wgt id='1542'>0.32529E+02</wgt>
<wgt id='1543'>0.32683E+02</wgt>
<wgt id='1544'>0.32177E+02</wgt>
<wgt id='1545'>0.32510E+02</wgt>
<wgt id='1546'>0.32772E+02</wgt>
<wgt id='1547'>0.31914E+02</wgt>
<wgt id='1548'>0.31940E+02</wgt>
<wgt id='1549'>0.32235E+02</wgt>
<wgt id='1550'>0.32371E+02</wgt>
<wgt id='1551'>0.32358E+02</wgt>
<wgt id='1552'>0.32105E+02</wgt>
<wgt id='1553'>0.32844E+02</wgt>
<wgt id='1554'>0.32511E+02</wgt>
<wgt id='1555'>0.32273E+02</wgt>
<wgt id='1556'>0.31666E+02</wgt>
<wgt id='1557'>0.33229E+02</wgt>
<wgt id='1558'>0.32067E+02</wgt>
<wgt id='1559'>0.32762E+02</wgt>
<wgt id='1560'>0.32273E+02</wgt>
<wgt id='1561'>0.32505E+02</wgt>
<wgt id='1562'>0.32400E+02</wgt>
<wgt id='1563'>0.32879E+02</wgt>
<wgt id='1564'>0.31756E+02</wgt>
<wgt id='1565'>0.32718E+02</wgt>
<wgt id='1566'>0.32624E+02</wgt>
<wgt id='1567'>0.34133E+02</wgt>
<wgt id='1568'>0.31912E+02</wgt>
<wgt id='1569'>0.31608E+02</wgt>
<wgt id='1570'>0.32343E+02</wgt>
<wgt id='1571'>0.32841E+02</wgt>
<wgt id='1572'>0.32434E+02</wgt>
<wgt id='1573'>0.30222E+02</wgt>
<wgt id='1574'>0.32721E+02</wgt>
<wgt id='1575'>0.32089E+02</wgt>
<wgt id='1576'>0.31779E+02</wgt>
<wgt id='1577'>0.32744E+02</wgt>
<wgt id='1578'>0.33482E+02</wgt>
<wgt id='1579'>0.32134E+02</wgt>
<wgt id='1580'>0.32506E+02</wgt>
<wgt id='1581'>0.32630E+02</wgt>
<wgt id='1582'>0.32061E+02</wgt>
<wgt id='1583'>0.32689E+02</wgt>
<wgt id='1584'>0.32398E+02</wgt>
<wgt id='1585'>0.31585E+02</wgt>
<wgt id='1586'>0.32248E+02</wgt>
<wgt id='1587'>0.32351E+02</wgt>
<wgt id='1588'>0.32356E+02</wgt>
<wgt id='1589'>0.33162E+02</wgt>
<wgt id='1590'>0.32206E+02</wgt>
<wgt id='1591'>0.31837E+02</wgt>
<wgt id='1592'>0.32818E+02</wgt>
<wgt id='1593'>0.32168E+02</wgt>
<wgt id='1594'>0.33078E+02</wgt>
<wgt id='1595'>0.31827E+02</wgt>
<wgt id='1596'>0.32877E+02</wgt>
<wgt id='1597'>0.32372E+02</wgt>
<wgt id='1598'>0.33479E+02</wgt>
<wgt id='1599'>0.33122E+02</wgt>
<wgt id='1600'>0.32429E+02</wgt>
<wgt id='1601'>0.31799E+02</wgt>
<wgt id='1602'>0.32732E+02</wgt>
<wgt id='1700'>0.31040E+02</wgt>
<wgt id='1800'>0.37930E+02</wgt>
<wgt id='1850'>0.46856E+02</wgt>
<wgt id='1900'>0.38209E+02</wgt>
<wgt id='1950'>0.45886E+02</wgt>
</rwgt>
</event>
<event>
      4   9999  3.15120E+01  1.43076E+01 -1.00000E+00  1.75962E-01
      21    -1     0     0   511   501  0.000000000E+00  0.000000000E+00  2.208267150E+03  2.208267150E+03  0.000000000E+00  0.00000E+00  9.000E+00
      21    -1     0     0   501   502  0.000000000E+00  0.000000000E+00 -2.116655391E+00  2.116655391E+00  0.000000000E+00  0.00000E+00  9.000E+00
      25     1     1     2     0     0  9.582879126E+00  1.062434311E+01  1.847814848E+03  1.851762635E+03  1.200018149E+02  0.00000E+00  9.000E+00
      21     1     1     2   511   502 -9.582879126E+00 -1.062434311E+01  3.583356467E+02  3.586211705E+02  7.629394531E-06  0.00000E+00  9.000E+00
#rwgt            1           1   51.011042486485294                2         291           0
<rwgt>
<wgt id='1001'>0.31512E+02</wgt>
<wgt id='1002'>0.27522E+02</wgt>
<wgt id='1003'>0.35788E+02</wgt>
<wgt id='1004'>0.27470E+02</wgt>
<wgt id='1005'>0.24470E+02</wgt>
<wgt id='1006'>0.30625E+02</wgt>
<wgt id='1007'>0.36366E+02</wgt>
<wgt id='1008'>0.30893E+02</wgt>
<wgt id='1009'>0.42342E+02</wgt>
<wgt id='2000'>0.31512E+02</wgt>
<wgt id='2001'>0.31528E+02</wgt>
<wgt id='2002'>0.31272E+02</wgt>
<wgt id='2003'>0.31246E+02</wgt>
<wgt id='2004'>0.31612E+02</wgt>
<wgt id='2005'>0.31659E+02</wgt>
<wgt id='2006'>0.31538E+02</wgt>
<wgt id='2007'>0.31693E+02</wgt>
<wgt id='2008'>0.31494E+02</wgt>
<wgt id='2009'>0.31526E+02</wgt>
<wgt id='2010'>0.31420E+02</wgt>
<wgt id='2011'>0.31355E+02</wgt>
<wgt id='2012'>0.31400E+02</wgt>
<wgt id='2013'>0.31259E+02</wgt>
<wgt id='2014'>0.31362E+02</wgt>
<wgt id='2015'>0.31449E+02</wgt>
<wgt id='2016'>0.31587E+02</wgt>
<wgt id='2017'>0.31492E+02</wgt>
<wgt id='2018'>0.31418E+02</wgt>
<wgt id='2019'>0.31528E+02</wgt>
<wgt id='2020'>0.31437E+02</wgt>
<wgt id='2021'>0.31615E+02</wgt>
<wgt id='2022'>0.31528E+02</wgt>
<wgt id='2023'>0.31629E+02</wgt>
<wgt id='2024'>0.31388E+02</wgt>
<wgt id='2025'>0.31568E+02</wgt>
<wgt id='2026'>0.31692E+02</wgt>
<wgt id='2027'>0.31431E+02</wgt>
<wgt id='2028'>0.31388E+02</wgt>
<wgt id='2029'>0.31834E+02</wgt>
<wgt id='2030'>0.31498E+02</wgt>
<wgt id='2031'>0.31513E+02</wgt>
<wgt id='2032'>0.31473E+02</wgt>
<wgt id='2033'>0.31436E+02</wgt>
<wgt id='2034'>0.31580E+02</wgt>
<wgt id='2035'>0.31613E+02</wgt>
<wgt id='2036'>0.31564E+02</wgt>
<wgt id='2037'>0.31533E+02</wgt>
<wgt id='2038'>0.31464E+02</wgt>
<wgt id='2039'>0.31278E+02</wgt>
<wgt id='2040'>0.31471E+02</wgt>
<wgt id='2041'>0.31549E+02</wgt>
<wgt id='2042'>0.31753E+02</wgt>
<wgt id='2043'>0.31236E+02</wgt>
<wgt id='2044'>0.31485E+02</wgt>
<wgt id='2045'>0.31540E+02</wgt>
<wgt id='2046'>0.31714E+02</wgt>
<wgt id='2047'>0.31587E+02</wgt>
<wgt id='2048'>0.31401E+02</wgt>
<wgt id='2049'>0.31413E+02</wgt>
<wgt id='2050'>0.31571E+02</wgt>
<wgt id='2051'>0.31206E+02</wgt>
<wgt id='2052'>0.31332E+02</wgt>
<wgt id='2053'>0.31441E+02</wgt>
<wgt id='2054'>0.31511E+02</wgt>
<wgt id='2055'>0.31582E+02</wgt>
<wgt id='2056'>0.31417E+02</wgt>
<wgt id='2057'>0.31249E+02</wgt>
<wgt id='2058'>0.31507E+02</wgt>
<wgt id='2059'>0.31528E+02</wgt>
<wgt id='2060'>0.31561E+02</wgt>
<wgt id='2061'>0.31463E+02</wgt>
<wgt id='2062'>0.31357E+02</wgt>
<wgt id='2063'>0.31601E+02</wgt>
<wgt id='2064'>0.31506E+02</wgt>
<wgt id='2065'>0.31524E+02</wgt>
<wgt id='2066'>0.31613E+02</wgt>
<wgt id='2067'>0.31494E+02</wgt>
<wgt id='2068'>0.31484E+02</wgt>
<wgt id='2069'>0.31609E+02</wgt>
<wgt id='2070'>0.31361E+02</wgt>
<wgt id='2071'>0.31517E+02</wgt>
<wgt id='2072'>0.31520E+02</wgt>
<wgt id='2073'>0.31388E+02</wgt>
<wgt id='2074'>0.31493E+02</wgt>
<wgt id='2075'>0.31430E+02</wgt>
<wgt id='2076'>0.31603E+02</wgt>
<wgt id='2077'>0.31326E+02</wgt>
<wgt id='2078'>0.31534E+02</wgt>
<wgt id='2079'>0.31520E+02</wgt>
<wgt id='2080'>0.31609E+02</wgt>
<wgt id='2081'>0.31551E+02</wgt>
<wgt id='2082'>0.31575E+02</wgt>
<wgt id='2083'>0.31555E+02</wgt>
<wgt id='2084'>0.31493E+02</wgt>
<wgt id='2085'>0.31603E+02</wgt>
<wgt id='2086'>0.31528E+02</wgt>
<wgt id='2087'>0.31435E+02</wgt>
<wgt id='2088'>0.31533E+02</wgt>
<wgt id='2089'>0.31401E+02</wgt>
<wgt id='2090'>0.31585E+02</wgt>
<wgt id='2091'>0.31556E+02</wgt>
<wgt id='2092'>0.31520E+02</wgt>
<wgt id='2093'>0.31570E+02</wgt>
<wgt id='2094'>0.31494E+02</wgt>
<wgt id='2095'>0.31546E+02</wgt>
<wgt id='2096'>0.31468E+02</wgt>
<wgt id='2097'>0.31608E+02</wgt>
<wgt id='2098'>0.31467E+02</wgt>
<wgt id='2099'>0.31553E+02</wgt>
<wgt id='2100'>0.31492E+02</wgt>
<wgt id='2101'>0.30313E+02</wgt>
<wgt id='2102'>0.33083E+02</wgt>
<wgt id='2104'>0.25758E+02</wgt>
<wgt id='2105'>0.26950E+02</wgt>
<wgt id='2106'>0.27885E+02</wgt>
<wgt id='2107'>0.28874E+02</wgt>
<wgt id='2108'>0.30821E+02</wgt>
<wgt id='2109'>0.32176E+02</wgt>
<wgt id='2110'>0.34352E+02</wgt>
<wgt id='2111'>0.35964E+02</wgt>
<wgt id='3000'>0.35322E+02</wgt>
<wgt id='3001'>0.35102E+02</wgt>
<wgt id='3002'>0.35524E+02</wgt>
<wgt id='3003'>0.35090E+02</wgt>
<wgt id='3004'>0.35421E+02</wgt>
<wgt id='3005'>0.35105E+02</wgt>
<wgt id='3006'>0.35215E+02</wgt>
<wgt id='3007'>0.35235E+02</wgt>
<wgt id='3008'>0.35370E+02</wgt>
<wgt id='3009'>0.35319E+02</wgt>
<wgt id='3010'>0.35362E+02</wgt>
<wgt id='3011'>0.35240E+02</wgt>
<wgt id='3012'>0.35224E+02</wgt>
<wgt id='3013'>0.35532E+02</wgt>
<wgt id='3014'>0.35249E+02</wgt>
<wgt id='3015'>0.35207E+02</wgt>
<wgt id='3016'>0.35270E+02</wgt>
<wgt id='3017'>0.35215E+02</wgt>
<wgt id='3018'>0.35417E+02</wgt>
<wgt id='3019'>0.35512E+02</wgt>
<wgt id='3020'>0.35427E+02</wgt>
<wgt id='3021'>0.35348E+02</wgt>
<wgt id='3022'>0.35329E+02</wgt>
<wgt id='3023'>0.35328E+02</wgt>
<wgt id='3024'>0.35279E+02</wgt>
<wgt id='3025'>0.35429E+02</wgt>
<wgt id='3026'>0.35391E+02</wgt>
<wgt id='3027'>0.35346E+02</wgt>
<wgt id='3028'>0.35210E+02</wgt>
<wgt id='3029'>0.35077E+02</wgt>
<wgt id='3030'>0.35664E+02</wgt>
<wgt id='3031'>0.35453E+02</wgt>
<wgt id='3032'>0.35402E+02</wgt>
<wgt id='3033'>0.35480E+02</wgt>
<wgt id='3034'>0.35267E+02</wgt>
<wgt id='3035'>0.35647E+02</wgt>
<wgt id='3036'>0.35309E+02</wgt>
<wgt id='3037'>0.35320E+02</wgt>
<wgt id='3038'>0.35302E+02</wgt>
<wgt id='3039'>0.35309E+02</wgt>
<wgt id='3040'>0.35195E+02</wgt>
<wgt id='3041'>0.35304E+02</wgt>
<wgt id='3042'>0.35431E+02</wgt>
<wgt id='3043'>0.35556E+02</wgt>
<wgt id='3044'>0.35220E+02</wgt>
<wgt id='3045'>0.35243E+02</wgt>
<wgt id='3046'>0.35340E+02</wgt>
<wgt id='3047'>0.35445E+02</wgt>
<wgt id='3048'>0.35077E+02</wgt>
<wgt id='3049'>0.35323E+02</wgt>
<wgt id='3050'>0.35274E+02</wgt>
<wgt id='3051'>0.35420E+02</wgt>
<wgt id='3052'>0.35302E+02</wgt>
<wgt id='3053'>0.35205E+02</wgt>
<wgt id='3054'>0.35313E+02</wgt>
<wgt id='3055'>0.35666E+02</wgt>
<wgt id='3056'>0.35171E+02</wgt>
<wgt id='3057'>0.35222E+02</wgt>
<wgt id='3058'>0.35434E+02</wgt>
<wgt id='3059'>0.35140E+02</wgt>
<wgt id='3060'>0.35445E+02</wgt>
<wgt id='3061'>0.35139E+02</wgt>
<wgt id='3062'>0.35333E+02</wgt>
<wgt id='3063'>0.35129E+02</wgt>
<wgt id='3064'>0.35402E+02</wgt>
<wgt id='3065'>0.35163E+02</wgt>
<wgt id='3066'>0.35372E+02</wgt>
<wgt id='3067'>0.35242E+02</wgt>
<wgt id='3068'>0.35328E+02</wgt>
<wgt id='3069'>0.35241E+02</wgt>
<wgt id='3070'>0.35316E+02</wgt>
<wgt id='3071'>0.35333E+02</wgt>
<wgt id='3072'>0.35267E+02</wgt>
<wgt id='3073'>0.35314E+02</wgt>
<wgt id='3074'>0.35495E+02</wgt>
<wgt id='3075'>0.35312E+02</wgt>
<wgt id='3076'>0.35406E+02</wgt>
<wgt id='3077'>0.35435E+02</wgt>
<wgt id='3078'>0.35335E+02</wgt>
<wgt id='3079'>0.35131E+02</wgt>
<wgt id='3080'>0.35273E+02</wgt>
<wgt id='3081'>0.35270E+02</wgt>
<wgt id='3082'>0.35253E+02</wgt>
<wgt id='3083'>0.35192E+02</wgt>
<wgt id='3084'>0.35217E+02</wgt>
<wgt id='3085'>0.35447E+02</wgt>
<wgt id='3086'>0.35187E+02</wgt>
<wgt id='3087'>0.35179E+02</wgt>
<wgt id='3088'>0.35238E+02</wgt>
<wgt id='3089'>0.35281E+02</wgt>
<wgt id='3090'>0.35379E+02</wgt>
<wgt id='3091'>0.35317E+02</wgt>
<wgt id='3092'>0.35308E+02</wgt>
<wgt id='3093'>0.35344E+02</wgt>
<wgt id='3094'>0.35393E+02</wgt>
<wgt id='3095'>0.35342E+02</wgt>
<wgt id='3096'>0.35305E+02</wgt>
<wgt id='3097'>0.35329E+02</wgt>
<wgt id='3098'>0.35291E+02</wgt>
<wgt id='3099'>0.35329E+02</wgt>
<wgt id='3100'>0.35379E+02</wgt>
<wgt id='3101'>0.34049E+02</wgt>
<wgt id='3102'>0.36602E+02</wgt>
<wgt id='5000'>0.36750E+02</wgt>
<wgt id='5001'>0.37032E+02</wgt>
<wgt id='5002'>0.36708E+02</wgt>
<wgt id='5003'>0.37010E+02</wgt>
<wgt id='5004'>0.37033E+02</wgt>
<wgt id='5005'>0.39169E+02</wgt>
<wgt id='5006'>0.38051E+02</wgt>
<wgt id='5007'>0.37346E+02</wgt>
<wgt id='5008'>0.37491E+02</wgt>
<wgt id='5009'>0.37196E+02</wgt>
<wgt id='5010'>0.36696E+02</wgt>
<wgt id='5011'>0.37763E+02</wgt>
<wgt id='5012'>0.35682E+02</wgt>
<wgt id='5013'>0.36216E+02</wgt>
<wgt id='5014'>0.36526E+02</wgt>
<wgt id='5015'>0.35580E+02</wgt>
<wgt id='5016'>0.40095E+02</wgt>
<wgt id='5017'>0.36790E+02</wgt>
<wgt id='5018'>0.36700E+02</wgt>
<wgt id='5019'>0.35552E+02</wgt>
<wgt id='5020'>0.37864E+02</wgt>
<wgt id='5021'>0.36132E+02</wgt>
<wgt id='5022'>0.37145E+02</wgt>
<wgt id='5023'>0.36230E+02</wgt>
<wgt id='5024'>0.37369E+02</wgt>
<wgt id='5025'>0.36689E+02</wgt>
<wgt id='5026'>0.36801E+02</wgt>
<wgt id='5027'>0.35998E+02</wgt>
<wgt id='5028'>0.38046E+02</wgt>
<wgt id='5029'>0.38617E+02</wgt>
<wgt id='5030'>0.35628E+02</wgt>
<wgt id='5031'>0.37714E+02</wgt>
<wgt id='5032'>0.35389E+02</wgt>
<wgt id='5033'>0.36272E+02</wgt>
<wgt id='5034'>0.37222E+02</wgt>
<wgt id='5035'>0.35878E+02</wgt>
<wgt id='5036'>0.37530E+02</wgt>
<wgt id='5037'>0.36221E+02</wgt>
<wgt id='5038'>0.37399E+02</wgt>
<wgt id='5039'>0.36816E+02</wgt>
<wgt id='5040'>0.36760E+02</wgt>
<wgt id='5041'>0.38555E+02</wgt>
<wgt id='5042'>0.36139E+02</wgt>
<wgt id='5043'>0.34273E+02</wgt>
<wgt id='5044'>0.39535E+02</wgt>
<wgt id='5045'>0.36065E+02</wgt>
<wgt id='5046'>0.38239E+02</wgt>
<wgt id='5047'>0.36780E+02</wgt>
<wgt id='5048'>0.36607E+02</wgt>
<wgt id='5049'>0.36892E+02</wgt>
<wgt id='5050'>0.36229E+02</wgt>
<wgt id='5051'>0.36445E+02</wgt>
<wgt id='5052'>0.36945E+02</wgt>
<wgt id='5053'>0.34667E+02</wgt>
<wgt id='5054'>0.34412E+02</wgt>
<wgt id='5055'>0.36789E+02</wgt>
<wgt id='5056'>0.37081E+02</wgt>
<wgt id='5060'>0.34605E+02</wgt>
<wgt id='5070'>0.39333E+02</wgt>
<wgt id='4000'>0.38545E+02</wgt>
<wgt id='4001'>0.38544E+02</wgt>
<wgt id='4002'>0.38184E+02</wgt>
<wgt id='4003'>0.38598E+02</wgt>
<wgt id='4004'>0.39863E+02</wgt>
<wgt id='4005'>0.37464E+02</wgt>
<wgt id='4006'>0.39171E+02</wgt>
<wgt id='4007'>0.38234E+02</wgt>
<wgt id='4008'>0.39091E+02</wgt>
<wgt id='4009'>0.40721E+02</wgt>
<wgt id='4010'>0.36320E+02</wgt>
<wgt id='4011'>0.38103E+02</wgt>
<wgt id='4012'>0.38869E+02</wgt>
<wgt id='4013'>0.41864E+02</wgt>
<wgt id='4014'>0.36473E+02</wgt>
<wgt id='4015'>0.39525E+02</wgt>
<wgt id='4016'>0.37974E+02</wgt>
<wgt id='4017'>0.38017E+02</wgt>
<wgt id='4018'>0.39188E+02</wgt>
<wgt id='4019'>0.36575E+02</wgt>
<wgt id='4020'>0.40724E+02</wgt>
<wgt id='4021'>0.37982E+02</wgt>
<wgt id='4022'>0.39688E+02</wgt>
<wgt id='4023'>0.39965E+02</wgt>
<wgt id='4024'>0.37179E+02</wgt>
<wgt id='4025'>0.38031E+02</wgt>
<wgt id='4026'>0.39057E+02</wgt>
<wgt id='4027'>0.39115E+02</wgt>
<wgt id='4028'>0.37742E+02</wgt>
<wgt id='4029'>0.39141E+02</wgt>
<wgt id='4030'>0.38333E+02</wgt>
<wgt id='4031'>0.38302E+02</wgt>
<wgt id='4032'>0.38865E+02</wgt>
<wgt id='4033'>0.38984E+02</wgt>
<wgt id='4034'>0.37607E+02</wgt>
<wgt id='4035'>0.37873E+02</wgt>
<wgt id='4036'>0.39067E+02</wgt>
<wgt id='4037'>0.36965E+02</wgt>
<wgt id='4038'>0.40949E+02</wgt>
<wgt id='4039'>0.37655E+02</wgt>
<wgt id='4040'>0.39312E+02</wgt>
<wgt id='4041'>0.39299E+02</wgt>
<wgt id='4042'>0.37565E+02</wgt>
<wgt id='4043'>0.39048E+02</wgt>
<wgt id='4044'>0.37468E+02</wgt>
<wgt id='4045'>0.39331E+02</wgt>
<wgt id='4046'>0.38653E+02</wgt>
<wgt id='4047'>0.39236E+02</wgt>
<wgt id='4048'>0.39991E+02</wgt>
<wgt id='4049'>0.39748E+02</wgt>
<wgt id='4050'>0.40602E+02</wgt>
<wgt id='4051'>0.38589E+02</wgt>
<wgt id='4052'>0.38713E+02</wgt>
<wgt id='4053'>0.37171E+02</wgt>
<wgt id='4054'>0.38032E+02</wgt>
<wgt id='4055'>0.38624E+02</wgt>
<wgt id='4056'>0.38678E+02</wgt>
<wgt id='4060'>0.36532E+02</wgt>
<wgt id='4070'>0.41023E+02</wgt>
<wgt id='4080'>0.59800E+02</wgt>
<wgt id='6000'>0.35773E+02</wgt>
<wgt id='6001'>0.35873E+02</wgt>
<wgt id='6002'>0.35666E+02</wgt>
<wgt id='6003'>0.35791E+02</wgt>
<wgt id='6004'>0.35761E+02</wgt>
<wgt id='6005'>0.35691E+02</wgt>
<wgt id='6006'>0.35848E+02</wgt>
<wgt id='6007'>0.35807E+02</wgt>
<wgt id='6008'>0.35735E+02</wgt>
<wgt id='6009'>0.35994E+02</wgt>
<wgt id='6010'>0.35558E+02</wgt>
<wgt id='6011'>0.35846E+02</wgt>
<wgt id='6012'>0.35615E+02</wgt>
<wgt id='6013'>0.35730E+02</wgt>
<wgt id='6014'>0.35851E+02</wgt>
<wgt id='6015'>0.35763E+02</wgt>
<wgt id='6016'>0.35780E+02</wgt>
<wgt id='6017'>0.35510E+02</wgt>
<wgt id='6018'>0.36082E+02</wgt>
<wgt id='6019'>0.35694E+02</wgt>
<wgt id='6020'>0.35841E+02</wgt>
<wgt id='6021'>0.35643E+02</wgt>
<wgt id='6022'>0.35946E+02</wgt>
<wgt id='6023'>0.35484E+02</wgt>
<wgt id='6024'>0.35970E+02</wgt>
<wgt id='6025'>0.36643E+02</wgt>
<wgt id='6026'>0.34755E+02</wgt>
<wgt id='6027'>0.35827E+02</wgt>
<wgt id='6028'>0.35808E+02</wgt>
<wgt id='6029'>0.35205E+02</wgt>
<wgt id='6030'>0.36464E+02</wgt>
<wgt id='6031'>0.34882E+02</wgt>
<wgt id='6032'>0.36822E+02</wgt>
<wgt id='6033'>0.36118E+02</wgt>
<wgt id='6034'>0.35439E+02</wgt>
<wgt id='6035'>0.35975E+02</wgt>
<wgt id='6036'>0.35393E+02</wgt>
<wgt id='6037'>0.35777E+02</wgt>
<wgt id='6038'>0.35762E+02</wgt>
<wgt id='6039'>0.35539E+02</wgt>
<wgt id='6040'>0.36037E+02</wgt>
<wgt id='6041'>0.35336E+02</wgt>
<wgt id='6042'>0.36291E+02</wgt>
<wgt id='6043'>0.36088E+02</wgt>
<wgt id='6044'>0.35893E+02</wgt>
<wgt id='6045'>0.35667E+02</wgt>
<wgt id='6046'>0.36049E+02</wgt>
<wgt id='6047'>0.35059E+02</wgt>
<wgt id='6048'>0.37304E+02</wgt>
<wgt id='6049'>0.35257E+02</wgt>
<wgt id='6050'>0.36077E+02</wgt>
<wgt id='7000'>0.36029E+02</wgt>
<wgt id='7001'>0.36148E+02</wgt>
<wgt id='7002'>0.35873E+02</wgt>
<wgt id='7003'>0.36051E+02</wgt>
<wgt id='7004'>0.36006E+02</wgt>
<wgt id='7005'>0.36035E+02</wgt>
<wgt id='7006'>0.36026E+02</wgt>
<wgt id='7007'>0.35974E+02</wgt>
<wgt id='7008'>0.36080E+02</wgt>
<wgt id='7009'>0.36141E+02</wgt>
<wgt id='7010'>0.35920E+02</wgt>
<wgt id='7011'>0.35622E+02</wgt>
<wgt id='7012'>0.36202E+02</wgt>
<wgt id='7013'>0.36005E+02</wgt>
<wgt id='7014'>0.36055E+02</wgt>
<wgt id='7015'>0.35916E+02</wgt>
<wgt id='7016'>0.36149E+02</wgt>
<wgt id='7017'>0.35343E+02</wgt>
<wgt id='7018'>0.36408E+02</wgt>
<wgt id='7019'>0.35990E+02</wgt>
<wgt id='7020'>0.36084E+02</wgt>
<wgt id='7021'>0.36140E+02</wgt>
<wgt id='7022'>0.35949E+02</wgt>
<wgt id='7023'>0.35799E+02</wgt>
<wgt id='7024'>0.36190E+02</wgt>
<wgt id='7025'>0.36002E+02</wgt>
<wgt id='7026'>0.36097E+02</wgt>
<wgt id='7027'>0.35975E+02</wgt>
<wgt id='7028'>0.36210E+02</wgt>
<wgt id='7029'>0.36649E+02</wgt>
<wgt id='7030'>0.34392E+02</wgt>
<wgt id='7031'>0.35577E+02</wgt>
<wgt id='7032'>0.37033E+02</wgt>
<wgt id='7033'>0.36261E+02</wgt>
<wgt id='7034'>0.35660E+02</wgt>
<wgt id='7035'>0.35322E+02</wgt>
<wgt id='7036'>0.36420E+02</wgt>
<wgt id='7037'>0.36004E+02</wgt>
<wgt id='7038'>0.36173E+02</wgt>
<wgt id='7039'>0.35680E+02</wgt>
<wgt id='7040'>0.36289E+02</wgt>
<wgt id='7041'>0.36806E+02</wgt>
<wgt id='7042'>0.35005E+02</wgt>
<wgt id='7043'>0.36080E+02</wgt>
<wgt id='7044'>0.35742E+02</wgt>
<wgt id='7045'>0.36838E+02</wgt>
<wgt id='7046'>0.35670E+02</wgt>
<wgt id='7047'>0.35857E+02</wgt>
<wgt id='7048'>0.36135E+02</wgt>
<wgt id='7049'>0.36952E+02</wgt>
<wgt id='7050'>0.35608E+02</wgt>
<wgt id='7060'>0.72102E+02</wgt>
<wgt id='8000'>0.31108E+02</wgt>
<wgt id='8001'>0.31102E+02</wgt>
<wgt id='8002'>0.31115E+02</wgt>
<wgt id='8003'>0.31107E+02</wgt>
<wgt id='8004'>0.31107E+02</wgt>
<wgt id='8005'>0.31040E+02</wgt>
<wgt id='8006'>0.31123E+02</wgt>
<wgt id='8007'>0.31108E+02</wgt>
<wgt id='8008'>0.31147E+02</wgt>
<wgt id='8009'>0.31206E+02</wgt>
<wgt id='8010'>0.31101E+02</wgt>
<wgt id='8011'>0.31128E+02</wgt>
<wgt id='8012'>0.31076E+02</wgt>
<wgt id='8013'>0.31080E+02</wgt>
<wgt id='8014'>0.31143E+02</wgt>
<wgt id='8015'>0.31072E+02</wgt>
<wgt id='8016'>0.31194E+02</wgt>
<wgt id='8017'>0.31209E+02</wgt>
<wgt id='8018'>0.31269E+02</wgt>
<wgt id='8019'>0.30849E+02</wgt>
<wgt id='8020'>0.31511E+02</wgt>
<wgt id='8021'>0.30992E+02</wgt>
<wgt id='8022'>0.31837E+02</wgt>
<wgt id='8023'>0.30838E+02</wgt>
<wgt id='8024'>0.30658E+02</wgt>
<wgt id='8025'>0.30627E+02</wgt>
<wgt id='8026'>0.31007E+02</wgt>
<wgt id='8027'>0.31230E+02</wgt>
<wgt id='8028'>0.31104E+02</wgt>
<wgt id='8029'>0.33138E+02</wgt>
<wgt id='8500'>0.37081E+02</wgt>
<wgt id='8501'>0.36550E+02</wgt>
<wgt id='8502'>0.36493E+02</wgt>
<wgt id='8503'>0.37107E+02</wgt>
<wgt id='8504'>0.37017E+02</wgt>
<wgt id='8505'>0.37474E+02</wgt>
<wgt id='8506'>0.36898E+02</wgt>
<wgt id='8507'>0.37203E+02</wgt>
<wgt id='8508'>0.36508E+02</wgt>
<wgt id='8509'>0.37262E+02</wgt>
<wgt id='8510'>0.36348E+02</wgt>
<wgt id='8511'>0.36767E+02</wgt>
<wgt id='8512'>0.37866E+02</wgt>
<wgt id='8513'>0.37625E+02</wgt>
<wgt id='8514'>0.37488E+02</wgt>
<wgt id='8515'>0.37172E+02</wgt>
<wgt id='8516'>0.36924E+02</wgt>
<wgt id='8517'>0.37776E+02</wgt>
<wgt id='8518'>0.37500E+02</wgt>
<wgt id='8519'>0.37773E+02</wgt>
<wgt id='8520'>0.35590E+02</wgt>
<wgt id='8521'>0.36938E+02</wgt>
<wgt id='8522'>0.38007E+02</wgt>
<wgt id='8523'>0.36278E+02</wgt>
<wgt id='8524'>0.37532E+02</wgt>
<wgt id='8525'>0.37033E+02</wgt>
<wgt id='8526'>0.36907E+02</wgt>
<wgt id='8527'>0.37191E+02</wgt>
<wgt id='8528'>0.36863E+02</wgt>
<wgt id='8529'>0.37046E+02</wgt>
<wgt id='8530'>0.37011E+02</wgt>
<wgt id='8531'>0.37043E+02</wgt>
<wgt id='8532'>0.37005E+02</wgt>
<wgt id='8533'>0.36894E+02</wgt>
<wgt id='8534'>0.37013E+02</wgt>
<wgt id='8535'>0.37256E+02</wgt>
<wgt id='8536'>0.36886E+02</wgt>
<wgt id='8537'>0.37069E+02</wgt>
<wgt id='8538'>0.37097E+02</wgt>
<wgt id='8539'>0.37031E+02</wgt>
<wgt id='8540'>0.37147E+02</wgt>
<wgt id='8541'>0.37109E+02</wgt>
<wgt id='8542'>0.36986E+02</wgt>
<wgt id='8543'>0.36946E+02</wgt>
<wgt id='8544'>0.37129E+02</wgt>
<wgt id='8545'>0.37119E+02</wgt>
<wgt id='8546'>0.37203E+02</wgt>
<wgt id='8547'>0.37009E+02</wgt>
<wgt id='8548'>0.36965E+02</wgt>
<wgt id='8549'>0.37095E+02</wgt>
<wgt id='8550'>0.37102E+02</wgt>
<wgt id='8551'>0.37124E+02</wgt>
<wgt id='8552'>0.37032E+02</wgt>
<wgt id='8553'>0.37004E+02</wgt>
<wgt id='8554'>0.37074E+02</wgt>
<wgt id='8555'>0.37074E+02</wgt>
<wgt id='8556'>0.37054E+02</wgt>
<wgt id='8557'>0.37097E+02</wgt>
<wgt id='8558'>0.37113E+02</wgt>
<wgt id='8559'>0.37068E+02</wgt>
<wgt id='8560'>0.37048E+02</wgt>
<wgt id='8561'>0.37110E+02</wgt>
<wgt id='8562'>0.37075E+02</wgt>
<wgt id='8563'>0.37087E+02</wgt>
<wgt id='8564'>0.37080E+02</wgt>
<wgt id='8565'>0.37112E+02</wgt>
<wgt id='8566'>0.37130E+02</wgt>
<wgt id='8567'>0.37099E+02</wgt>
<wgt id='8568'>0.37107E+02</wgt>
<wgt id='8569'>0.37094E+02</wgt>
<wgt id='8570'>0.37079E+02</wgt>
<wgt id='8571'>0.37016E+02</wgt>
<wgt id='8572'>0.37057E+02</wgt>
<wgt id='8573'>0.37034E+02</wgt>
<wgt id='8574'>0.37086E+02</wgt>
<wgt id='8575'>0.37040E+02</wgt>
<wgt id='8576'>0.37087E+02</wgt>
<wgt id='8577'>0.37049E+02</wgt>
<wgt id='8578'>0.37114E+02</wgt>
<wgt id='8579'>0.37138E+02</wgt>
<wgt id='8580'>0.37046E+02</wgt>
<wgt id='8581'>0.37097E+02</wgt>
<wgt id='8582'>0.37038E+02</wgt>
<wgt id='8583'>0.37099E+02</wgt>
<wgt id='8584'>0.37126E+02</wgt>
<wgt id='8585'>0.37102E+02</wgt>
<wgt id='8586'>0.37155E+02</wgt>
<wgt id='8587'>0.37083E+02</wgt>
<wgt id='8588'>0.37071E+02</wgt>
<wgt id='8589'>0.37087E+02</wgt>
<wgt id='8590'>0.37066E+02</wgt>
<wgt id='8591'>0.37058E+02</wgt>
<wgt id='8592'>0.37076E+02</wgt>
<wgt id='8593'>0.37045E+02</wgt>
<wgt id='8594'>0.37077E+02</wgt>
<wgt id='8595'>0.37077E+02</wgt>
<wgt id='8596'>0.37059E+02</wgt>
<wgt id='8597'>0.37098E+02</wgt>
<wgt id='8598'>0.37100E+02</wgt>
<wgt id='8599'>0.37097E+02</wgt>
<wgt id='8600'>0.37081E+02</wgt>
<wgt id='8601'>0.35749E+02</wgt>
<wgt id='8602'>0.38727E+02</wgt>
<wgt id='9000'>0.35539E+02</wgt>
<wgt id='9001'>0.35944E+02</wgt>
<wgt id='9002'>0.35104E+02</wgt>
<wgt id='9003'>0.36339E+02</wgt>
<wgt id='9004'>0.35877E+02</wgt>
<wgt id='9005'>0.35567E+02</wgt>
<wgt id='9006'>0.35843E+02</wgt>
<wgt id='9007'>0.35600E+02</wgt>
<wgt id='9008'>0.35317E+02</wgt>
<wgt id='9009'>0.35710E+02</wgt>
<wgt id='9010'>0.35875E+02</wgt>
<wgt id='9011'>0.34922E+02</wgt>
<wgt id='9012'>0.35963E+02</wgt>
<wgt id='9013'>0.36519E+02</wgt>
<wgt id='9014'>0.35887E+02</wgt>
<wgt id='9015'>0.35247E+02</wgt>
<wgt id='9016'>0.34943E+02</wgt>
<wgt id='9017'>0.35731E+02</wgt>
<wgt id='9018'>0.35823E+02</wgt>
<wgt id='9019'>0.35904E+02</wgt>
<wgt id='9020'>0.34410E+02</wgt>
<wgt id='9021'>0.34460E+02</wgt>
<wgt id='9022'>0.35965E+02</wgt>
<wgt id='9023'>0.34209E+02</wgt>
<wgt id='9024'>0.35076E+02</wgt>
<wgt id='9025'>0.35734E+02</wgt>
<wgt id='9026'>0.35192E+02</wgt>
<wgt id='9027'>0.35663E+02</wgt>
<wgt id='9028'>0.35828E+02</wgt>
<wgt id='9029'>0.35625E+02</wgt>
<wgt id='9030'>0.35546E+02</wgt>
<wgt id='9031'>0.35459E+02</wgt>
<wgt id='9032'>0.35606E+02</wgt>
<wgt id='9033'>0.35656E+02</wgt>
<wgt id='9034'>0.35617E+02</wgt>
<wgt id='9035'>0.35636E+02</wgt>
<wgt id='9036'>0.35581E+02</wgt>
<wgt id='9037'>0.35596E+02</wgt>
<wgt id='9038'>0.35644E+02</wgt>
<wgt id='9039'>0.35571E+02</wgt>
<wgt id='9040'>0.35433E+02</wgt>
<wgt id='9041'>0.35556E+02</wgt>
<wgt id='9042'>0.35673E+02</wgt>
<wgt id='9043'>0.35405E+02</wgt>
<wgt id='9044'>0.35630E+02</wgt>
<wgt id='9045'>0.35553E+02</wgt>
<wgt id='9046'>0.35453E+02</wgt>
<wgt id='9047'>0.35561E+02</wgt>
<wgt id='9048'>0.35548E+02</wgt>
<wgt id='9049'>0.35504E+02</wgt>
<wgt id='9050'>0.35539E+02</wgt>
<wgt id='9051'>0.35606E+02</wgt>
<wgt id='9052'>0.35609E+02</wgt>
<wgt id='9053'>0.35585E+02</wgt>
<wgt id='9054'>0.35512E+02</wgt>
<wgt id='9055'>0.35523E+02</wgt>
<wgt id='9056'>0.35548E+02</wgt>
<wgt id='9057'>0.35529E+02</wgt>
<wgt id='9058'>0.35492E+02</wgt>
<wgt id='9059'>0.35513E+02</wgt>
<wgt id='9060'>0.35554E+02</wgt>
<wgt id='9061'>0.35512E+02</wgt>
<wgt id='9062'>0.35563E+02</wgt>
<wgt id='9063'>0.35546E+02</wgt>
<wgt id='9064'>0.35569E+02</wgt>
<wgt id='9065'>0.35507E+02</wgt>
<wgt id='9066'>0.35512E+02</wgt>
<wgt id='9067'>0.35501E+02</wgt>
<wgt id='9068'>0.35543E+02</wgt>
<wgt id='9069'>0.35586E+02</wgt>
<wgt id='9070'>0.35533E+02</wgt>
<wgt id='9071'>0.35547E+02</wgt>
<wgt id='9072'>0.35551E+02</wgt>
<wgt id='9073'>0.35533E+02</wgt>
<wgt id='9074'>0.35576E+02</wgt>
<wgt id='9075'>0.35527E+02</wgt>
<wgt id='9076'>0.35536E+02</wgt>
<wgt id='9077'>0.35558E+02</wgt>
<wgt id='9078'>0.35566E+02</wgt>
<wgt id='9079'>0.35506E+02</wgt>
<wgt id='9080'>0.35579E+02</wgt>
<wgt id='9081'>0.35536E+02</wgt>
<wgt id='9082'>0.35532E+02</wgt>
<wgt id='9083'>0.35529E+02</wgt>
<wgt id='9084'>0.35500E+02</wgt>
<wgt id='9085'>0.35501E+02</wgt>
<wgt id='9086'>0.35558E+02</wgt>
<wgt id='9087'>0.35470E+02</wgt>
<wgt id='9088'>0.35514E+02</wgt>
<wgt id='9089'>0.35523E+02</wgt>
<wgt id='9090'>0.35557E+02</wgt>
<wgt id='9091'>0.35522E+02</wgt>
<wgt id='9092'>0.35532E+02</wgt>
<wgt id='9093'>0.35521E+02</wgt>
<wgt id='9094'>0.35517E+02</wgt>
<wgt id='9095'>0.35537E+02</wgt>
<wgt id='9096'>0.35524E+02</wgt>
<wgt id='9097'>0.35542E+02</wgt>
<wgt id='9098'>0.35538E+02</wgt>
<wgt id='9099'>0.35516E+02</wgt>
<wgt id='9100'>0.35539E+02</wgt>
<wgt id='9101'>0.34083E+02</wgt>
<wgt id='9102'>0.37373E+02</wgt>
<wgt id='10000'>0.37078E+02</wgt>
<wgt id='10001'>0.36452E+02</wgt>
<wgt id='10002'>0.36332E+02</wgt>
<wgt id='10003'>0.36869E+02</wgt>
<wgt id='10004'>0.36944E+02</wgt>
<wgt id='10005'>0.35813E+02</wgt>
<wgt id='10006'>0.36078E+02</wgt>
<wgt id='10007'>0.37053E+02</wgt>
<wgt id='10008'>0.36682E+02</wgt>
<wgt id='10009'>0.36986E+02</wgt>
<wgt id='10010'>0.36875E+02</wgt>
<wgt id='10011'>0.36785E+02</wgt>
<wgt id='10012'>0.36618E+02</wgt>
<wgt id='10013'>0.37187E+02</wgt>
<wgt id='10014'>0.37121E+02</wgt>
<wgt id='10015'>0.37250E+02</wgt>
<wgt id='10016'>0.37188E+02</wgt>
<wgt id='10017'>0.36913E+02</wgt>
<wgt id='10018'>0.37380E+02</wgt>
<wgt id='10019'>0.36318E+02</wgt>
<wgt id='10020'>0.37171E+02</wgt>
<wgt id='10021'>0.36895E+02</wgt>
<wgt id='10022'>0.38690E+02</wgt>
<wgt id='10023'>0.37093E+02</wgt>
<wgt id='10024'>0.37021E+02</wgt>
<wgt id='10025'>0.37030E+02</wgt>
<wgt id='10026'>0.36952E+02</wgt>
<wgt id='10027'>0.37007E+02</wgt>
<wgt id='10028'>0.36789E+02</wgt>
<wgt id='10029'>0.37089E+02</wgt>
<wgt id='10030'>0.37114E+02</wgt>
<wgt id='10031'>0.35749E+02</wgt>
<wgt id='10032'>0.38727E+02</wgt>
<wgt id='11000'>0.35536E+02</wgt>
<wgt id='11001'>0.35728E+02</wgt>
<wgt id='11002'>0.35132E+02</wgt>
<wgt id='11003'>0.35690E+02</wgt>
<wgt id='11004'>0.34766E+02</wgt>
<wgt id='11005'>0.37989E+02</wgt>
<wgt id='11006'>0.35547E+02</wgt>
<wgt id='11007'>0.35658E+02</wgt>
<wgt id='11008'>0.35589E+02</wgt>
<wgt id='11009'>0.35702E+02</wgt>
<wgt id='11010'>0.35796E+02</wgt>
<wgt id='11011'>0.35483E+02</wgt>
<wgt id='11012'>0.35353E+02</wgt>
<wgt id='11013'>0.35375E+02</wgt>
<wgt id='11014'>0.35392E+02</wgt>
<wgt id='11015'>0.35184E+02</wgt>
<wgt id='11016'>0.35714E+02</wgt>
<wgt id='11017'>0.35632E+02</wgt>
<wgt id='11018'>0.35529E+02</wgt>
<wgt id='11019'>0.35748E+02</wgt>
<wgt id='11020'>0.35618E+02</wgt>
<wgt id='11021'>0.35614E+02</wgt>
<wgt id='11022'>0.35204E+02</wgt>
<wgt id='11023'>0.35637E+02</wgt>
<wgt id='11024'>0.35357E+02</wgt>
<wgt id='11025'>0.35509E+02</wgt>
<wgt id='11026'>0.35559E+02</wgt>
<wgt id='11027'>0.35767E+02</wgt>
<wgt id='11028'>0.35455E+02</wgt>
<wgt id='11029'>0.34685E+02</wgt>
<wgt id='11030'>0.35478E+02</wgt>
<wgt id='11031'>0.34083E+02</wgt>
<wgt id='11032'>0.37373E+02</wgt>
<wgt id='12000'>0.25071E+02</wgt>
<wgt id='12001'>0.25055E+02</wgt>
<wgt id='12002'>0.25087E+02</wgt>
<wgt id='12003'>0.25119E+02</wgt>
<wgt id='12004'>0.25023E+02</wgt>
<wgt id='12005'>0.25022E+02</wgt>
<wgt id='12006'>0.25120E+02</wgt>
<wgt id='12007'>0.25071E+02</wgt>
<wgt id='12008'>0.25071E+02</wgt>
<wgt id='12009'>0.25050E+02</wgt>
<wgt id='12010'>0.25096E+02</wgt>
<wgt id='12011'>0.25011E+02</wgt>
<wgt id='12012'>0.25114E+02</wgt>
<wgt id='12013'>0.25189E+02</wgt>
<wgt id='12014'>0.24953E+02</wgt>
<wgt id='12015'>0.25179E+02</wgt>
<wgt id='12016'>0.25052E+02</wgt>
<wgt id='12017'>0.25058E+02</wgt>
<wgt id='12018'>0.25053E+02</wgt>
<wgt id='12019'>0.25517E+02</wgt>
<wgt id='12020'>0.24679E+02</wgt>
<wgt id='12021'>0.25149E+02</wgt>
<wgt id='12022'>0.24993E+02</wgt>
<wgt id='12023'>0.24875E+02</wgt>
<wgt id='12024'>0.25329E+02</wgt>
<wgt id='12025'>0.24733E+02</wgt>
<wgt id='12026'>0.25408E+02</wgt>
<wgt id='12027'>0.25416E+02</wgt>
<wgt id='12028'>0.24825E+02</wgt>
<wgt id='12050'>0.25071E+02</wgt>
<wgt id='12051'>0.25182E+02</wgt>
<wgt id='12052'>0.24935E+02</wgt>
<wgt id='12053'>0.25188E+02</wgt>
<wgt id='12054'>0.24981E+02</wgt>
<wgt id='12055'>0.24608E+02</wgt>
<wgt id='12056'>0.26240E+02</wgt>
<wgt id='12057'>0.25126E+02</wgt>
<wgt id='12058'>0.25049E+02</wgt>
<wgt id='12059'>0.25191E+02</wgt>
<wgt id='12060'>0.24979E+02</wgt>
<wgt id='12061'>0.25082E+02</wgt>
<wgt id='12062'>0.25040E+02</wgt>
<wgt id='12063'>0.25758E+02</wgt>
<wgt id='13000'>0.29933E+02</wgt>
<wgt id='13001'>0.29918E+02</wgt>
<wgt id='13002'>0.29945E+02</wgt>
<wgt id='13003'>0.29999E+02</wgt>
<wgt id='13004'>0.29864E+02</wgt>
<wgt id='13005'>0.29937E+02</wgt>
<wgt id='13006'>0.29926E+02</wgt>
<wgt id='13007'>0.29965E+02</wgt>
<wgt id='13008'>0.29897E+02</wgt>
<wgt id='13009'>0.29838E+02</wgt>
<wgt id='13010'>0.30024E+02</wgt>
<wgt id='13011'>0.30014E+02</wgt>
<wgt id='13012'>0.29852E+02</wgt>
<wgt id='13013'>0.30003E+02</wgt>
<wgt id='13014'>0.29864E+02</wgt>
<wgt id='13015'>0.30147E+02</wgt>
<wgt id='13016'>0.29822E+02</wgt>
<wgt id='13017'>0.29747E+02</wgt>
<wgt id='13018'>0.30124E+02</wgt>
<wgt id='13019'>0.30413E+02</wgt>
<wgt id='13020'>0.29469E+02</wgt>
<wgt id='13021'>0.30893E+02</wgt>
<wgt id='13022'>0.29060E+02</wgt>
<wgt id='13023'>0.29155E+02</wgt>
<wgt id='13024'>0.30723E+02</wgt>
<wgt id='13025'>0.29156E+02</wgt>
<wgt id='13026'>0.30678E+02</wgt>
<wgt id='13027'>0.29591E+02</wgt>
<wgt id='13028'>0.30326E+02</wgt>
<wgt id='13050'>0.29933E+02</wgt>
<wgt id='13051'>0.30023E+02</wgt>
<wgt id='13052'>0.29676E+02</wgt>
<wgt id='13053'>0.30082E+02</wgt>
<wgt id='13054'>0.29916E+02</wgt>
<wgt id='13055'>0.27815E+02</wgt>
<wgt id='13056'>0.31791E+02</wgt>
<wgt id='13057'>0.30015E+02</wgt>
<wgt id='13058'>0.29828E+02</wgt>
<wgt id='13059'>0.30352E+02</wgt>
<wgt id='13060'>0.27699E+02</wgt>
<wgt id='13061'>0.30357E+02</wgt>
<wgt id='13062'>0.29394E+02</wgt>
<wgt id='13063'>0.31436E+02</wgt>
<wgt id='14000'>0.38312E+02</wgt>
<wgt id='14001'>0.38308E+02</wgt>
<wgt id='14002'>0.38303E+02</wgt>
<wgt id='14003'>0.38299E+02</wgt>
<wgt id='14004'>0.38294E+02</wgt>
<wgt id='14005'>0.38289E+02</wgt>
<wgt id='14006'>0.38285E+02</wgt>
<wgt id='14007'>0.38280E+02</wgt>
<wgt id='14008'>0.38275E+02</wgt>
<wgt id='14009'>0.38270E+02</wgt>
<wgt id='14010'>0.38266E+02</wgt>
<wgt id='14011'>0.38261E+02</wgt>
<wgt id='14012'>0.38257E+02</wgt>
<wgt id='14013'>0.38252E+02</wgt>
<wgt id='14014'>0.38247E+02</wgt>
<wgt id='14015'>0.38243E+02</wgt>
<wgt id='14016'>0.38238E+02</wgt>
<wgt id='14017'>0.38233E+02</wgt>
<wgt id='14018'>0.38229E+02</wgt>
<wgt id='14019'>0.38224E+02</wgt>
<wgt id='14020'>0.38219E+02</wgt>
<wgt id='14021'>0.38215E+02</wgt>
<wgt id='14022'>0.38210E+02</wgt>
<wgt id='14023'>0.38205E+02</wgt>
<wgt id='14024'>0.38201E+02</wgt>
<wgt id='14025'>0.38196E+02</wgt>
<wgt id='14026'>0.38191E+02</wgt>
<wgt id='14027'>0.38187E+02</wgt>
<wgt id='14028'>0.38182E+02</wgt>
<wgt id='14029'>0.38177E+02</wgt>
<wgt id='14030'>0.38173E+02</wgt>
<wgt id='15000'>0.35093E+02</wgt>
<wgt id='15001'>0.35487E+02</wgt>
<wgt id='15002'>0.34662E+02</wgt>
<wgt id='15003'>0.35883E+02</wgt>
<wgt id='15004'>0.35426E+02</wgt>
<wgt id='15005'>0.35121E+02</wgt>
<wgt id='15006'>0.35399E+02</wgt>
<wgt id='15007'>0.35157E+02</wgt>
<wgt id='15008'>0.34874E+02</wgt>
<wgt id='15009'>0.35263E+02</wgt>
<wgt id='15010'>0.35424E+02</wgt>
<wgt id='15011'>0.34492E+02</wgt>
<wgt id='15012'>0.35515E+02</wgt>
<wgt id='15013'>0.36063E+02</wgt>
<wgt id='15014'>0.35435E+02</wgt>
<wgt id='15015'>0.34794E+02</wgt>
<wgt id='15016'>0.34512E+02</wgt>
<wgt id='15017'>0.35279E+02</wgt>
<wgt id='15018'>0.35372E+02</wgt>
<wgt id='15019'>0.35459E+02</wgt>
<wgt id='15020'>0.33985E+02</wgt>
<wgt id='15021'>0.34024E+02</wgt>
<wgt id='15022'>0.35513E+02</wgt>
<wgt id='15023'>0.33781E+02</wgt>
<wgt id='15024'>0.34632E+02</wgt>
<wgt id='15025'>0.35281E+02</wgt>
<wgt id='15026'>0.34745E+02</wgt>
<wgt id='15027'>0.35221E+02</wgt>
<wgt id='15028'>0.35381E+02</wgt>
<wgt id='15029'>0.35175E+02</wgt>
<wgt id='15030'>0.35098E+02</wgt>
<wgt id='15031'>0.35020E+02</wgt>
<wgt id='15032'>0.35157E+02</wgt>
<wgt id='15033'>0.35207E+02</wgt>
<wgt id='15034'>0.35170E+02</wgt>
<wgt id='15035'>0.35188E+02</wgt>
<wgt id='15036'>0.35135E+02</wgt>
<wgt id='15037'>0.35150E+02</wgt>
<wgt id='15038'>0.35196E+02</wgt>
<wgt id='15039'>0.35122E+02</wgt>
<wgt id='15040'>0.34988E+02</wgt>
<wgt id='15041'>0.35108E+02</wgt>
<wgt id='15042'>0.35224E+02</wgt>
<wgt id='15043'>0.34964E+02</wgt>
<wgt id='15044'>0.35182E+02</wgt>
<wgt id='15045'>0.35106E+02</wgt>
<wgt id='15046'>0.35009E+02</wgt>
<wgt id='15047'>0.35114E+02</wgt>
<wgt id='15048'>0.35103E+02</wgt>
<wgt id='15049'>0.35058E+02</wgt>
<wgt id='15050'>0.35093E+02</wgt>
<wgt id='15051'>0.35159E+02</wgt>
<wgt id='15052'>0.35162E+02</wgt>
<wgt id='15053'>0.35139E+02</wgt>
<wgt id='15054'>0.35067E+02</wgt>
<wgt id='15055'>0.35078E+02</wgt>
<wgt id='15056'>0.35100E+02</wgt>
<wgt id='15057'>0.35083E+02</wgt>
<wgt id='15058'>0.35049E+02</wgt>
<wgt id='15059'>0.35069E+02</wgt>
<wgt id='15060'>0.35109E+02</wgt>
<wgt id='15061'>0.35066E+02</wgt>
<wgt id='15062'>0.35116E+02</wgt>
<wgt id='15063'>0.35100E+02</wgt>
<wgt id='15064'>0.35124E+02</wgt>
<wgt id='15065'>0.35061E+02</wgt>
<wgt id='15066'>0.35066E+02</wgt>
<wgt id='15067'>0.35054E+02</wgt>
<wgt id='15068'>0.35097E+02</wgt>
<wgt id='15069'>0.35139E+02</wgt>
<wgt id='15070'>0.35087E+02</wgt>
<wgt id='15071'>0.35101E+02</wgt>
<wgt id='15072'>0.35105E+02</wgt>
<wgt id='15073'>0.35087E+02</wgt>
<wgt id='15074'>0.35129E+02</wgt>
<wgt id='15075'>0.35081E+02</wgt>
<wgt id='15076'>0.35092E+02</wgt>
<wgt id='15077'>0.35112E+02</wgt>
<wgt id='15078'>0.35121E+02</wgt>
<wgt id='15079'>0.35060E+02</wgt>
<wgt id='15080'>0.35132E+02</wgt>
<wgt id='15081'>0.35091E+02</wgt>
<wgt id='15082'>0.35087E+02</wgt>
<wgt id='15083'>0.35083E+02</wgt>
<wgt id='15084'>0.35054E+02</wgt>
<wgt id='15085'>0.35056E+02</wgt>
<wgt id='15086'>0.35114E+02</wgt>
<wgt id='15087'>0.35024E+02</wgt>
<wgt id='15088'>0.35068E+02</wgt>
<wgt id='15089'>0.35077E+02</wgt>
<wgt id='15090'>0.35111E+02</wgt>
<wgt id='15091'>0.35075E+02</wgt>
<wgt id='15092'>0.35085E+02</wgt>
<wgt id='15093'>0.35076E+02</wgt>
<wgt id='15094'>0.35070E+02</wgt>
<wgt id='15095'>0.35091E+02</wgt>
<wgt id='15096'>0.35079E+02</wgt>
<wgt id='15097'>0.35097E+02</wgt>
<wgt id='15098'>0.35092E+02</wgt>
<wgt id='15099'>0.35070E+02</wgt>
<wgt id='15100'>0.35093E+02</wgt>
<wgt id='15101'>0.35092E+02</wgt>
<wgt id='15102'>0.35090E+02</wgt>
<wgt id='15103'>0.35093E+02</wgt>
<wgt id='15104'>0.35093E+02</wgt>
<wgt id='15105'>0.35094E+02</wgt>
<wgt id='15106'>0.35093E+02</wgt>
<wgt id='15107'>0.35091E+02</wgt>
<wgt id='1500'>0.37042E+02</wgt>
<wgt id='1501'>0.34844E+02</wgt>
<wgt id='1502'>0.37783E+02</wgt>
<wgt id='1503'>0.35415E+02</wgt>
<wgt id='1504'>0.36946E+02</wgt>
<wgt id='1505'>0.34255E+02</wgt>
<wgt id='1506'>0.39204E+02</wgt>
<wgt id='1507'>0.35552E+02</wgt>
<wgt id='1508'>0.37721E+02</wgt>
<wgt id='1509'>0.37205E+02</wgt>
<wgt id='1510'>0.34232E+02</wgt>
<wgt id='1511'>0.39706E+02</wgt>
<wgt id='1512'>0.36301E+02</wgt>
<wgt id='1513'>0.38846E+02</wgt>
<wgt id='1514'>0.40505E+02</wgt>
<wgt id='1515'>0.38232E+02</wgt>
<wgt id='1516'>0.35421E+02</wgt>
<wgt id='1517'>0.43167E+02</wgt>
<wgt id='1518'>0.37899E+02</wgt>
<wgt id='1519'>0.36528E+02</wgt>
<wgt id='1520'>0.35145E+02</wgt>
<wgt id='1521'>0.36998E+02</wgt>
<wgt id='1522'>0.32455E+02</wgt>
<wgt id='1523'>0.32982E+02</wgt>
<wgt id='1524'>0.32933E+02</wgt>
<wgt id='1525'>0.36922E+02</wgt>
<wgt id='1526'>0.37209E+02</wgt>
<wgt id='1527'>0.42096E+02</wgt>
<wgt id='1528'>0.41336E+02</wgt>
<wgt id='1529'>0.39442E+02</wgt>
<wgt id='1530'>0.35446E+02</wgt>
<wgt id='1531'>0.36049E+02</wgt>
<wgt id='1532'>0.37738E+02</wgt>
<wgt id='1533'>0.36267E+02</wgt>
<wgt id='1534'>0.35808E+02</wgt>
<wgt id='1535'>0.38500E+02</wgt>
<wgt id='1536'>0.35487E+02</wgt>
<wgt id='1537'>0.40054E+02</wgt>
<wgt id='1538'>0.34571E+02</wgt>
<wgt id='1539'>0.35662E+02</wgt>
<wgt id='1540'>0.36263E+02</wgt>
<wgt id='1541'>0.34452E+02</wgt>
<wgt id='1542'>0.38215E+02</wgt>
<wgt id='1543'>0.33980E+02</wgt>
<wgt id='1544'>0.35700E+02</wgt>
<wgt id='1545'>0.32913E+02</wgt>
<wgt id='1546'>0.32366E+02</wgt>
<wgt id='1547'>0.39216E+02</wgt>
<wgt id='1548'>0.38641E+02</wgt>
<wgt id='1549'>0.37527E+02</wgt>
<wgt id='1550'>0.37054E+02</wgt>
<wgt id='1551'>0.36878E+02</wgt>
<wgt id='1552'>0.34224E+02</wgt>
<wgt id='1553'>0.37359E+02</wgt>
<wgt id='1554'>0.39751E+02</wgt>
<wgt id='1555'>0.36708E+02</wgt>
<wgt id='1556'>0.40384E+02</wgt>
<wgt id='1557'>0.36015E+02</wgt>
<wgt id='1558'>0.38077E+02</wgt>
<wgt id='1559'>0.37461E+02</wgt>
<wgt id='1560'>0.35384E+02</wgt>
<wgt id='1561'>0.37338E+02</wgt>
<wgt id='1562'>0.34771E+02</wgt>
<wgt id='1563'>0.40711E+02</wgt>
<wgt id='1564'>0.39844E+02</wgt>
<wgt id='1565'>0.37767E+02</wgt>
<wgt id='1566'>0.37314E+02</wgt>
<wgt id='1567'>0.34200E+02</wgt>
<wgt id='1568'>0.38614E+02</wgt>
<wgt id='1569'>0.39278E+02</wgt>
<wgt id='1570'>0.40123E+02</wgt>
<wgt id='1571'>0.32080E+02</wgt>
<wgt id='1572'>0.37019E+02</wgt>
<wgt id='1573'>0.36933E+02</wgt>
<wgt id='1574'>0.40466E+02</wgt>
<wgt id='1575'>0.36369E+02</wgt>
<wgt id='1576'>0.34839E+02</wgt>
<wgt id='1577'>0.35276E+02</wgt>
<wgt id='1578'>0.39206E+02</wgt>
<wgt id='1579'>0.36108E+02</wgt>
<wgt id='1580'>0.36953E+02</wgt>
<wgt id='1581'>0.35130E+02</wgt>
<wgt id='1582'>0.35967E+02</wgt>
<wgt id='1583'>0.40588E+02</wgt>
<wgt id='1584'>0.36384E+02</wgt>
<wgt id='1585'>0.37949E+02</wgt>
<wgt id='1586'>0.38827E+02</wgt>
<wgt id='1587'>0.37740E+02</wgt>
<wgt id='1588'>0.38564E+02</wgt>
<wgt id='1589'>0.37437E+02</wgt>
<wgt id='1590'>0.37104E+02</wgt>
<wgt id='1591'>0.37576E+02</wgt>
<wgt id='1592'>0.34065E+02</wgt>
<wgt id='1593'>0.38517E+02</wgt>
<wgt id='1594'>0.36287E+02</wgt>
<wgt id='1595'>0.42254E+02</wgt>
<wgt id='1596'>0.37492E+02</wgt>
<wgt id='1597'>0.35509E+02</wgt>
<wgt id='1598'>0.31403E+02</wgt>
<wgt id='1599'>0.38279E+02</wgt>
<wgt id='1600'>0.38482E+02</wgt>
<wgt id='1601'>0.35837E+02</wgt>
<wgt id='1602'>0.38163E+02</wgt>
<wgt id='1700'>0.34015E+02</wgt>
<wgt id='1800'>0.36671E+02</wgt>
<wgt id='1850'>0.47133E+02</wgt>
<wgt id='1900'>0.43620E+02</wgt>
<wgt id='1950'>0.48955E+02</wgt>
</rwgt>
</event>
<event>
      4   9999  3.15120E+01  1.07483E+02 -1.00000E+00  1.20884E-01
      21    -1     0     0   502   501  0.000000000E+00  0.000000000E+00  8.259883426E+01  8.259883426E+01  0.000000000E+00  0.00000E+00  9.000E+00
      21    -1     0     0   512   502  0.000000000E+00  0.000000000E+00 -2.272501669E+02  2.272501669E+02  0.000000000E+00  0.00000E+00  9.000E+00
      25     1     1     2     0     0  1.072140072E+02  7.598922224E+00 -5.610113523E+01  1.705876482E+02  1.200009225E+02  0.00000E+00  9.000E+00
      21     1     1     2   512   501 -1.072140072E+02 -7.598922224E+00 -8.855019743E+01  1.392613529E+02  1.651812370E-06  0.00000E+00  9.000E+00
#rwgt            2          11   4.3198219936971034                2         612           0
<rwgt>
<wgt id='1001'>0.31512E+02</wgt>
<wgt id='1002'>0.31088E+02</wgt>
<wgt id='1003'>0.31573E+02</wgt>
<wgt id='1004'>0.23753E+02</wgt>
<wgt id='1005'>0.23434E+02</wgt>
<wgt id='1006'>0.23799E+02</wgt>
<wgt id='1007'>0.43127E+02</wgt>
<wgt id='1008'>0.42547E+02</wgt>
<wgt id='1009'>0.43211E+02</wgt>
<wgt id='2000'>0.31512E+02</wgt>
<wgt id='2001'>0.31476E+02</wgt>
<wgt id='2002'>0.31592E+02</wgt>
<wgt id='2003'>0.31594E+02</wgt>
<wgt id='2004'>0.31571E+02</wgt>
<wgt id='2005'>0.31441E+02</wgt>
<wgt id='2006'>0.31409E+02</wgt>
<wgt id='2007'>0.31350E+02</wgt>
<wgt id='2008'>0.31371E+02</wgt>
<wgt id='2009'>0.31578E+02</wgt>
<wgt id='2010'>0.31518E+02</wgt>
<wgt id='2011'>0.31534E+02</wgt>
<wgt id='2012'>0.31619E+02</wgt>
<wgt id='2013'>0.31676E+02</wgt>
<wgt id='2014'>0.31666E+02</wgt>
<wgt id='2015'>0.31601E+02</wgt>
<wgt id='2016'>0.31493E+02</wgt>
<wgt id='2017'>0.31507E+02</wgt>
<wgt id='2018'>0.31644E+02</wgt>
<wgt id='2019'>0.31503E+02</wgt>
<wgt id='2020'>0.31674E+02</wgt>
<wgt id='2021'>0.31428E+02</wgt>
<wgt id='2022'>0.31608E+02</wgt>
<wgt id='2023'>0.31580E+02</wgt>
<wgt id='2024'>0.31516E+02</wgt>
<wgt id='2025'>0.31607E+02</wgt>
<wgt id='2026'>0.31579E+02</wgt>
<wgt id='2027'>0.31477E+02</wgt>
<wgt id='2028'>0.31464E+02</wgt>
<wgt id='2029'>0.31558E+02</wgt>
<wgt id='2030'>0.31526E+02</wgt>
<wgt id='2031'>0.31541E+02</wgt>
<wgt id='2032'>0.31502E+02</wgt>
<wgt id='2033'>0.31520E+02</wgt>
<wgt id='2034'>0.31541E+02</wgt>
<wgt id='2035'>0.31506E+02</wgt>
<wgt id='2036'>0.31520E+02</wgt>
<wgt id='2037'>0.31527E+02</wgt>
<wgt id='2038'>0.31515E+02</wgt>
<wgt id='2039'>0.31498E+02</wgt>
<wgt id='2040'>0.31519E+02</wgt>
<wgt id='2041'>0.31509E+02</wgt>
<wgt id='2042'>0.31484E+02</wgt>
<wgt id='2043'>0.31526E+02</wgt>
<wgt id='2044'>0.31531E+02</wgt>
<wgt id='2045'>0.31510E+02</wgt>
<wgt id='2046'>0.31528E+02</wgt>
<wgt id='2047'>0.31533E+02</wgt>
<wgt id='2048'>0.31509E+02</wgt>
<wgt id='2049'>0.31511E+02</wgt>
<wgt id='2050'>0.31524E+02</wgt>
<wgt id='2051'>0.31530E+02</wgt>
<wgt id='2052'>0.31502E+02</wgt>
<wgt id='2053'>0.31507E+02</wgt>
<wgt id='2054'>0.31510E+02</wgt>
<wgt id='2055'>0.31516E+02</wgt>
<wgt id='2056'>0.31513E+02</wgt>
<wgt id='2057'>0.31510E+02</wgt>
<wgt id='2058'>0.31521E+02</wgt>
<wgt id='2059'>0.31508E+02</wgt>
<wgt id='2060'>0.31516E+02</wgt>
<wgt id='2061'>0.31505E+02</wgt>
<wgt id='2062'>0.31512E+02</wgt>
<wgt id='2063'>0.31511E+02</wgt>
<wgt id='2064'>0.31504E+02</wgt>
<wgt id='2065'>0.31517E+02</wgt>
<wgt id='2066'>0.31506E+02</wgt>
<wgt id='2067'>0.31512E+02</wgt>
<wgt id='2068'>0.31517E+02</wgt>
<wgt id='2069'>0.31513E+02</wgt>
<wgt id='2070'>0.31509E+02</wgt>
<wgt id='2071'>0.31499E+02</wgt>
<wgt id='2072'>0.31515E+02</wgt>
<wgt id='2073'>0.31513E+02</wgt>
<wgt id='2074'>0.31503E+02</wgt>
<wgt id='2075'>0.31510E+02</wgt>
<wgt id='2076'>0.31509E+02</wgt>
<wgt id='2077'>0.31507E+02</wgt>
<wgt id='2078'>0.31511E+02</wgt>
<wgt id='2079'>0.31516E+02</wgt>
<wgt id='2080'>0.31514E+02</wgt>
<wgt id='2081'>0.31516E+02</wgt>
<wgt id='2082'>0.31516E+02</wgt>
<wgt id='2083'>0.31513E+02</wgt>
<wgt id='2084'>0.31512E+02</wgt>
<wgt id='2085'>0.31507E+02</wgt>
<wgt id='2086'>0.31512E+02</wgt>
<wgt id='2087'>0.31511E+02</wgt>
<wgt id='2088'>0.31512E+02</wgt>
<wgt id='2089'>0.31513E+02</wgt>
<wgt id='2090'>0.31515E+02</wgt>
<wgt id='2091'>0.31511E+02</wgt>
<wgt id='2092'>0.31515E+02</wgt>
<wgt id='2093'>0.31511E+02</wgt>
<wgt id='2094'>0.31515E+02</wgt>
<wgt id='2095'>0.31511E+02</wgt>
<wgt id='2096'>0.31510E+02</wgt>
<wgt id='2097'>0.31515E+02</wgt>
<wgt id='2098'>0.31509E+02</wgt>
<wgt id='2099'>0.31513E+02</wgt>
<wgt id='2100'>0.31512E+02</wgt>
<wgt id='2101'>0.30353E+02</wgt>
<wgt id='2102'>0.32573E+02</wgt>
<wgt id='2104'>0.26369E+02</wgt>
<wgt id='2105'>0.27289E+02</wgt>
<wgt id='2106'>0.28385E+02</wgt>
<wgt id='2107'>0.29500E+02</wgt>
<wgt id='2108'>0.31043E+02</wgt>
<wgt id='2109'>0.32137E+02</wgt>
<wgt id='2110'>0.33539E+02</wgt>
<wgt id='2111'>0.34642E+02</wgt>
<wgt id='3000'>0.33068E+02</wgt>
<wgt id='3001'>0.33149E+02</wgt>
<wgt id='3002'>0.33001E+02</wgt>
<wgt id='3003'>0.33156E+02</wgt>
<wgt id='3004'>0.33142E+02</wgt>
<wgt id='3005'>0.33216E+02</wgt>
<wgt id='3006'>0.33089E+02</wgt>
<wgt id='3007'>0.33187E+02</wgt>
<wgt id='3008'>0.33000E+02</wgt>
<wgt id='3009'>0.33140E+02</wgt>
<wgt id='3010'>0.32962E+02</wgt>
<wgt id='3011'>0.33065E+02</wgt>
<wgt id='3012'>0.33242E+02</wgt>
<wgt id='3013'>0.32923E+02</wgt>
<wgt id='3014'>0.33200E+02</wgt>
<wgt id='3015'>0.33094E+02</wgt>
<wgt id='3016'>0.33092E+02</wgt>
<wgt id='3017'>0.33205E+02</wgt>
<wgt id='3018'>0.33155E+02</wgt>
<wgt id='3019'>0.32915E+02</wgt>
<wgt id='3020'>0.32976E+02</wgt>
<wgt id='3021'>0.32921E+02</wgt>
<wgt id='3022'>0.33057E+02</wgt>
<wgt id='3023'>0.32993E+02</wgt>
<wgt id='3024'>0.32988E+02</wgt>
<wgt id='3025'>0.33073E+02</wgt>
<wgt id='3026'>0.33121E+02</wgt>
<wgt id='3027'>0.33082E+02</wgt>
<wgt id='3028'>0.32978E+02</wgt>
<wgt id='3029'>0.33047E+02</wgt>
<wgt id='3030'>0.33120E+02</wgt>
<wgt id='3031'>0.33090E+02</wgt>
<wgt id='3032'>0.33089E+02</wgt>
<wgt id='3033'>0.33098E+02</wgt>
<wgt id='3034'>0.33082E+02</wgt>
<wgt id='3035'>0.33105E+02</wgt>
<wgt id='3036'>0.33080E+02</wgt>
<wgt id='3037'>0.33069E+02</wgt>
<wgt id='3038'>0.33069E+02</wgt>
<wgt id='3039'>0.33063E+02</wgt>
<wgt id='3040'>0.33068E+02</wgt>
<wgt id='3041'>0.33075E+02</wgt>
<wgt id='3042'>0.33041E+02</wgt>
<wgt id='3043'>0.33043E+02</wgt>
<wgt id='3044'>0.33078E+02</wgt>
<wgt id='3045'>0.33089E+02</wgt>
<wgt id='3046'>0.33082E+02</wgt>
<wgt id='3047'>0.33061E+02</wgt>
<wgt id='3048'>0.33084E+02</wgt>
<wgt id='3049'>0.33062E+02</wgt>
<wgt id='3050'>0.33066E+02</wgt>
<wgt id='3051'>0.33098E+02</wgt>
<wgt id='3052'>0.33061E+02</wgt>
<wgt id='3053'>0.33062E+02</wgt>
<wgt id='3054'>0.33062E+02</wgt>
<wgt id='3055'>0.33065E+02</wgt>
<wgt id='3056'>0.33074E+02</wgt>
<wgt id='3057'>0.33056E+02</wgt>
<wgt id='3058'>0.33060E+02</wgt>
<wgt id='3059'>0.33068E+02</wgt>
<wgt id='3060'>0.33071E+02</wgt>
<wgt id='3061'>0.33074E+02</wgt>
<wgt id='3062'>0.33072E+02</wgt>
<wgt id='3063'>0.33078E+02</wgt>
<wgt id='3064'>0.33066E+02</wgt>
<wgt id='3065'>0.33074E+02</wgt>
<wgt id='3066'>0.33073E+02</wgt>
<wgt id='3067'>0.33059E+02</wgt>
<wgt id='3068'>0.33066E+02</wgt>
<wgt id='3069'>0.33059E+02</wgt>
<wgt id='3070'>0.33063E+02</wgt>
<wgt id='3071'>0.33070E+02</wgt>
<wgt id='3072'>0.33075E+02</wgt>
<wgt id='3073'>0.33066E+02</wgt>
<wgt id='3074'>0.33078E+02</wgt>
<wgt id='3075'>0.33075E+02</wgt>
<wgt id='3076'>0.33064E+02</wgt>
<wgt id='3077'>0.33064E+02</wgt>
<wgt id='3078'>0.33076E+02</wgt>
<wgt id='3079'>0.33062E+02</wgt>
<wgt id='3080'>0.33067E+02</wgt>
<wgt id='3081'>0.33066E+02</wgt>
<wgt id='3082'>0.33065E+02</wgt>
<wgt id='3083'>0.33067E+02</wgt>
<wgt id='3084'>0.33065E+02</wgt>
<wgt id='3085'>0.33069E+02</wgt>
<wgt id='3086'>0.33069E+02</wgt>
<wgt id='3087'>0.33067E+02</wgt>
<wgt id='3088'>0.33066E+02</wgt>
<wgt id='3089'>0.33068E+02</wgt>
<wgt id='3090'>0.33069E+02</wgt>
<wgt id='3091'>0.33068E+02</wgt>
<wgt id='3092'>0.33066E+02</wgt>
<wgt id='3093'>0.33069E+02</wgt>
<wgt id='3094'>0.33072E+02</wgt>
<wgt id='3095'>0.33069E+02</wgt>
<wgt id='3096'>0.33065E+02</wgt>
<wgt id='3097'>0.33063E+02</wgt>
<wgt id='3098'>0.33066E+02</wgt>
<wgt id='3099'>0.33071E+02</wgt>
<wgt id='3100'>0.33070E+02</wgt>
<wgt id='3101'>0.31927E+02</wgt>
<wgt id='3102'>0.34301E+02</wgt>
<wgt id='5000'>0.30724E+02</wgt>
<wgt id='5001'>0.30657E+02</wgt>
<wgt id='5002'>0.30739E+02</wgt>
<wgt id='5003'>0.30573E+02</wgt>
<wgt id='5004'>0.30711E+02</wgt>
<wgt id='5005'>0.29897E+02</wgt>
<wgt id='5006'>0.30741E+02</wgt>
<wgt id='5007'>0.30695E+02</wgt>
<wgt id='5008'>0.30451E+02</wgt>
<wgt id='5009'>0.30942E+02</wgt>
<wgt id='5010'>0.30541E+02</wgt>
<wgt id='5011'>0.30696E+02</wgt>
<wgt id='5012'>0.30744E+02</wgt>
<wgt id='5013'>0.30368E+02</wgt>
<wgt id='5014'>0.31032E+02</wgt>
<wgt id='5015'>0.30903E+02</wgt>
<wgt id='5016'>0.30194E+02</wgt>
<wgt id='5017'>0.30497E+02</wgt>
<wgt id='5018'>0.30958E+02</wgt>
<wgt id='5019'>0.30973E+02</wgt>
<wgt id='5020'>0.30478E+02</wgt>
<wgt id='5021'>0.30779E+02</wgt>
<wgt id='5022'>0.30688E+02</wgt>
<wgt id='5023'>0.30639E+02</wgt>
<wgt id='5024'>0.30810E+02</wgt>
<wgt id='5025'>0.30797E+02</wgt>
<wgt id='5026'>0.30662E+02</wgt>
<wgt id='5027'>0.30984E+02</wgt>
<wgt id='5028'>0.30286E+02</wgt>
<wgt id='5029'>0.30233E+02</wgt>
<wgt id='5030'>0.31023E+02</wgt>
<wgt id='5031'>0.30406E+02</wgt>
<wgt id='5032'>0.31189E+02</wgt>
<wgt id='5033'>0.30604E+02</wgt>
<wgt id='5034'>0.30819E+02</wgt>
<wgt id='5035'>0.30643E+02</wgt>
<wgt id='5036'>0.30757E+02</wgt>
<wgt id='5037'>0.30298E+02</wgt>
<wgt id='5038'>0.31183E+02</wgt>
<wgt id='5039'>0.31387E+02</wgt>
<wgt id='5040'>0.30368E+02</wgt>
<wgt id='5041'>0.30519E+02</wgt>
<wgt id='5042'>0.30737E+02</wgt>
<wgt id='5043'>0.30994E+02</wgt>
<wgt id='5044'>0.30149E+02</wgt>
<wgt id='5045'>0.31822E+02</wgt>
<wgt id='5046'>0.29956E+02</wgt>
<wgt id='5047'>0.31183E+02</wgt>
<wgt id='5048'>0.30465E+02</wgt>
<wgt id='5049'>0.30782E+02</wgt>
<wgt id='5050'>0.30704E+02</wgt>
<wgt id='5051'>0.30766E+02</wgt>
<wgt id='5052'>0.30717E+02</wgt>
<wgt id='5053'>0.30595E+02</wgt>
<wgt id='5054'>0.31216E+02</wgt>
<wgt id='5055'>0.30493E+02</wgt>
<wgt id='5056'>0.31092E+02</wgt>
<wgt id='5060'>0.29627E+02</wgt>
<wgt id='5070'>0.31758E+02</wgt>
<wgt id='4000'>0.31872E+02</wgt>
<wgt id='4001'>0.31890E+02</wgt>
<wgt id='4002'>0.31934E+02</wgt>
<wgt id='4003'>0.32305E+02</wgt>
<wgt id='4004'>0.31346E+02</wgt>
<wgt id='4005'>0.31859E+02</wgt>
<wgt id='4006'>0.31894E+02</wgt>
<wgt id='4007'>0.32341E+02</wgt>
<wgt id='4008'>0.31436E+02</wgt>
<wgt id='4009'>0.31442E+02</wgt>
<wgt id='4010'>0.32087E+02</wgt>
<wgt id='4011'>0.32576E+02</wgt>
<wgt id='4012'>0.31412E+02</wgt>
<wgt id='4013'>0.31087E+02</wgt>
<wgt id='4014'>0.32333E+02</wgt>
<wgt id='4015'>0.32373E+02</wgt>
<wgt id='4016'>0.31527E+02</wgt>
<wgt id='4017'>0.31415E+02</wgt>
<wgt id='4018'>0.32412E+02</wgt>
<wgt id='4019'>0.32343E+02</wgt>
<wgt id='4020'>0.31367E+02</wgt>
<wgt id='4021'>0.32007E+02</wgt>
<wgt id='4022'>0.31603E+02</wgt>
<wgt id='4023'>0.31692E+02</wgt>
<wgt id='4024'>0.32045E+02</wgt>
<wgt id='4025'>0.31924E+02</wgt>
<wgt id='4026'>0.31798E+02</wgt>
<wgt id='4027'>0.31817E+02</wgt>
<wgt id='4028'>0.31949E+02</wgt>
<wgt id='4029'>0.31680E+02</wgt>
<wgt id='4030'>0.31940E+02</wgt>
<wgt id='4031'>0.31976E+02</wgt>
<wgt id='4032'>0.31736E+02</wgt>
<wgt id='4033'>0.31706E+02</wgt>
<wgt id='4034'>0.32231E+02</wgt>
<wgt id='4035'>0.31997E+02</wgt>
<wgt id='4036'>0.31757E+02</wgt>
<wgt id='4037'>0.32075E+02</wgt>
<wgt id='4038'>0.31553E+02</wgt>
<wgt id='4039'>0.31906E+02</wgt>
<wgt id='4040'>0.31837E+02</wgt>
<wgt id='4041'>0.32021E+02</wgt>
<wgt id='4042'>0.31755E+02</wgt>
<wgt id='4043'>0.32170E+02</wgt>
<wgt id='4044'>0.31745E+02</wgt>
<wgt id='4045'>0.31449E+02</wgt>
<wgt id='4046'>0.31873E+02</wgt>
<wgt id='4047'>0.31517E+02</wgt>
<wgt id='4048'>0.31769E+02</wgt>
<wgt id='4049'>0.31631E+02</wgt>
<wgt id='4050'>0.31316E+02</wgt>
<wgt id='4051'>0.31866E+02</wgt>
<wgt id='4052'>0.31840E+02</wgt>
<wgt id='4053'>0.31123E+02</wgt>
<wgt id='4054'>0.32267E+02</wgt>
<wgt id='4055'>0.31557E+02</wgt>
<wgt id='4056'>0.32299E+02</wgt>
<wgt id='4060'>0.30696E+02</wgt>
<wgt id='4070'>0.33020E+02</wgt>
<wgt id='4080'>0.28763E+02</wgt>
<wgt id='6000'>0.32692E+02</wgt>
<wgt id='6001'>0.32700E+02</wgt>
<wgt id='6002'>0.32682E+02</wgt>
<wgt id='6003'>0.32717E+02</wgt>
<wgt id='6004'>0.32674E+02</wgt>
<wgt id='6005'>0.32842E+02</wgt>
<wgt id='6006'>0.32552E+02</wgt>
<wgt id='6007'>0.32547E+02</wgt>
<wgt id='6008'>0.32854E+02</wgt>
<wgt id='6009'>0.32747E+02</wgt>
<wgt id='6010'>0.32636E+02</wgt>
<wgt id='6011'>0.32741E+02</wgt>
<wgt id='6012'>0.32585E+02</wgt>
<wgt id='6013'>0.32671E+02</wgt>
<wgt id='6014'>0.32729E+02</wgt>
<wgt id='6015'>0.32608E+02</wgt>
<wgt id='6016'>0.32739E+02</wgt>
<wgt id='6017'>0.32542E+02</wgt>
<wgt id='6018'>0.32868E+02</wgt>
<wgt id='6019'>0.32741E+02</wgt>
<wgt id='6020'>0.32649E+02</wgt>
<wgt id='6021'>0.32623E+02</wgt>
<wgt id='6022'>0.32784E+02</wgt>
<wgt id='6023'>0.32484E+02</wgt>
<wgt id='6024'>0.32834E+02</wgt>
<wgt id='6025'>0.32408E+02</wgt>
<wgt id='6026'>0.32969E+02</wgt>
<wgt id='6027'>0.32745E+02</wgt>
<wgt id='6028'>0.32686E+02</wgt>
<wgt id='6029'>0.32778E+02</wgt>
<wgt id='6030'>0.32594E+02</wgt>
<wgt id='6031'>0.32567E+02</wgt>
<wgt id='6032'>0.32825E+02</wgt>
<wgt id='6033'>0.32795E+02</wgt>
<wgt id='6034'>0.32589E+02</wgt>
<wgt id='6035'>0.32698E+02</wgt>
<wgt id='6036'>0.32701E+02</wgt>
<wgt id='6037'>0.32737E+02</wgt>
<wgt id='6038'>0.32681E+02</wgt>
<wgt id='6039'>0.32645E+02</wgt>
<wgt id='6040'>0.32744E+02</wgt>
<wgt id='6041'>0.32532E+02</wgt>
<wgt id='6042'>0.32874E+02</wgt>
<wgt id='6043'>0.33024E+02</wgt>
<wgt id='6044'>0.32505E+02</wgt>
<wgt id='6045'>0.32662E+02</wgt>
<wgt id='6046'>0.32766E+02</wgt>
<wgt id='6047'>0.32875E+02</wgt>
<wgt id='6048'>0.32203E+02</wgt>
<wgt id='6049'>0.32781E+02</wgt>
<wgt id='6050'>0.32628E+02</wgt>
<wgt id='7000'>0.30829E+02</wgt>
<wgt id='7001'>0.30808E+02</wgt>
<wgt id='7002'>0.30856E+02</wgt>
<wgt id='7003'>0.30928E+02</wgt>
<wgt id='7004'>0.30730E+02</wgt>
<wgt id='7005'>0.30911E+02</wgt>
<wgt id='7006'>0.30796E+02</wgt>
<wgt id='7007'>0.30749E+02</wgt>
<wgt id='7008'>0.30909E+02</wgt>
<wgt id='7009'>0.30860E+02</wgt>
<wgt id='7010'>0.30798E+02</wgt>
<wgt id='7011'>0.30650E+02</wgt>
<wgt id='7012'>0.30907E+02</wgt>
<wgt id='7013'>0.30830E+02</wgt>
<wgt id='7014'>0.30827E+02</wgt>
<wgt id='7015'>0.30784E+02</wgt>
<wgt id='7016'>0.30877E+02</wgt>
<wgt id='7017'>0.30860E+02</wgt>
<wgt id='7018'>0.30810E+02</wgt>
<wgt id='7019'>0.30808E+02</wgt>
<wgt id='7020'>0.30856E+02</wgt>
<wgt id='7021'>0.30789E+02</wgt>
<wgt id='7022'>0.30856E+02</wgt>
<wgt id='7023'>0.31206E+02</wgt>
<wgt id='7024'>0.30473E+02</wgt>
<wgt id='7025'>0.30959E+02</wgt>
<wgt id='7026'>0.30508E+02</wgt>
<wgt id='7027'>0.30918E+02</wgt>
<wgt id='7028'>0.30763E+02</wgt>
<wgt id='7029'>0.30766E+02</wgt>
<wgt id='7030'>0.31011E+02</wgt>
<wgt id='7031'>0.30768E+02</wgt>
<wgt id='7032'>0.30958E+02</wgt>
<wgt id='7033'>0.30816E+02</wgt>
<wgt id='7034'>0.30855E+02</wgt>
<wgt id='7035'>0.30802E+02</wgt>
<wgt id='7036'>0.30844E+02</wgt>
<wgt id='7037'>0.30833E+02</wgt>
<wgt id='7038'>0.30821E+02</wgt>
<wgt id='7039'>0.30770E+02</wgt>
<wgt id='7040'>0.30873E+02</wgt>
<wgt id='7041'>0.30794E+02</wgt>
<wgt id='7042'>0.30833E+02</wgt>
<wgt id='7043'>0.30859E+02</wgt>
<wgt id='7044'>0.30655E+02</wgt>
<wgt id='7045'>0.30437E+02</wgt>
<wgt id='7046'>0.31013E+02</wgt>
<wgt id='7047'>0.30929E+02</wgt>
<wgt id='7048'>0.30773E+02</wgt>
<wgt id='7049'>0.30681E+02</wgt>
<wgt id='7050'>0.30846E+02</wgt>
<wgt id='7060'>0.44748E+02</wgt>
<wgt id='8000'>0.30909E+02</wgt>
<wgt id='8001'>0.30902E+02</wgt>
<wgt id='8002'>0.30919E+02</wgt>
<wgt id='8003'>0.30911E+02</wgt>
<wgt id='8004'>0.30908E+02</wgt>
<wgt id='8005'>0.30844E+02</wgt>
<wgt id='8006'>0.30917E+02</wgt>
<wgt id='8007'>0.30924E+02</wgt>
<wgt id='8008'>0.30975E+02</wgt>
<wgt id='8009'>0.31036E+02</wgt>
<wgt id='8010'>0.30890E+02</wgt>
<wgt id='8011'>0.30904E+02</wgt>
<wgt id='8012'>0.30827E+02</wgt>
<wgt id='8013'>0.30869E+02</wgt>
<wgt id='8014'>0.30940E+02</wgt>
<wgt id='8015'>0.30889E+02</wgt>
<wgt id='8016'>0.30926E+02</wgt>
<wgt id='8017'>0.30906E+02</wgt>
<wgt id='8018'>0.30945E+02</wgt>
<wgt id='8019'>0.30960E+02</wgt>
<wgt id='8020'>0.30827E+02</wgt>
<wgt id='8021'>0.30902E+02</wgt>
<wgt id='8022'>0.30755E+02</wgt>
<wgt id='8023'>0.30926E+02</wgt>
<wgt id='8024'>0.30915E+02</wgt>
<wgt id='8025'>0.30983E+02</wgt>
<wgt id='8026'>0.30971E+02</wgt>
<wgt id='8027'>0.30885E+02</wgt>
<wgt id='8028'>0.30937E+02</wgt>
<wgt id='8029'>0.30710E+02</wgt>
<wgt id='8500'>0.32542E+02</wgt>
<wgt id='8501'>0.32447E+02</wgt>
<wgt id='8502'>0.32905E+02</wgt>
<wgt id='8503'>0.32734E+02</wgt>
<wgt id='8504'>0.32432E+02</wgt>
<wgt id='8505'>0.32378E+02</wgt>
<wgt id='8506'>0.32620E+02</wgt>
<wgt id='8507'>0.32404E+02</wgt>
<wgt id='8508'>0.32533E+02</wgt>
<wgt id='8509'>0.32531E+02</wgt>
<wgt id='8510'>0.33079E+02</wgt>
<wgt id='8511'>0.32537E+02</wgt>
<wgt id='8512'>0.32186E+02</wgt>
<wgt id='8513'>0.32608E+02</wgt>
<wgt id='8514'>0.32178E+02</wgt>
<wgt id='8515'>0.32633E+02</wgt>
<wgt id='8516'>0.32585E+02</wgt>
<wgt id='8517'>0.32431E+02</wgt>
<wgt id='8518'>0.32432E+02</wgt>
<wgt id='8519'>0.32433E+02</wgt>
<wgt id='8520'>0.32511E+02</wgt>
<wgt id='8521'>0.32400E+02</wgt>
<wgt id='8522'>0.32605E+02</wgt>
<wgt id='8523'>0.32464E+02</wgt>
<wgt id='8524'>0.32544E+02</wgt>
<wgt id='8525'>0.32537E+02</wgt>
<wgt id='8526'>0.32511E+02</wgt>
<wgt id='8527'>0.32533E+02</wgt>
<wgt id='8528'>0.32484E+02</wgt>
<wgt id='8529'>0.32516E+02</wgt>
<wgt id='8530'>0.32554E+02</wgt>
<wgt id='8531'>0.32532E+02</wgt>
<wgt id='8532'>0.32544E+02</wgt>
<wgt id='8533'>0.32485E+02</wgt>
<wgt id='8534'>0.32559E+02</wgt>
<wgt id='8535'>0.32611E+02</wgt>
<wgt id='8536'>0.32524E+02</wgt>
<wgt id='8537'>0.32551E+02</wgt>
<wgt id='8538'>0.32524E+02</wgt>
<wgt id='8539'>0.32554E+02</wgt>
<wgt id='8540'>0.32560E+02</wgt>
<wgt id='8541'>0.32565E+02</wgt>
<wgt id='8542'>0.32568E+02</wgt>
<wgt id='8543'>0.32510E+02</wgt>
<wgt id='8544'>0.32584E+02</wgt>
<wgt id='8545'>0.32565E+02</wgt>
<wgt id='8546'>0.32572E+02</wgt>
<wgt id='8547'>0.32516E+02</wgt>
<wgt id='8548'>0.32518E+02</wgt>
<wgt id='8549'>0.32547E+02</wgt>
<wgt id='8550'>0.32533E+02</wgt>
<wgt id='8551'>0.32513E+02</wgt>
<wgt id='8552'>0.32536E+02</wgt>
<wgt id='8553'>0.32515E+02</wgt>
<wgt id='8554'>0.32523E+02</wgt>
<wgt id='8555'>0.32546E+02</wgt>
<wgt id='8556'>0.32537E+02</wgt>
<wgt id='8557'>0.32541E+02</wgt>
<wgt id='8558'>0.32580E+02</wgt>
<wgt id='8559'>0.32530E+02</wgt>
<wgt id='8560'>0.32504E+02</wgt>
<wgt id='8561'>0.32547E+02</wgt>
<wgt id='8562'>0.32522E+02</wgt>
<wgt id='8563'>0.32542E+02</wgt>
<wgt id='8564'>0.32534E+02</wgt>
<wgt id='8565'>0.32546E+02</wgt>
<wgt id='8566'>0.32547E+02</wgt>
<wgt id='8567'>0.32541E+02</wgt>
<wgt id='8568'>0.32559E+02</wgt>
<wgt id='8569'>0.32553E+02</wgt>
<wgt id='8570'>0.32533E+02</wgt>
<wgt id='8571'>0.32524E+02</wgt>
<wgt id='8572'>0.32531E+02</wgt>
<wgt id='8573'>0.32530E+02</wgt>
<wgt id='8574'>0.32537E+02</wgt>
<wgt id='8575'>0.32537E+02</wgt>
<wgt id='8576'>0.32543E+02</wgt>
<wgt id='8577'>0.32533E+02</wgt>
<wgt id='8578'>0.32541E+02</wgt>
<wgt id='8579'>0.32564E+02</wgt>
<wgt id='8580'>0.32542E+02</wgt>
<wgt id='8581'>0.32552E+02</wgt>
<wgt id='8582'>0.32525E+02</wgt>
<wgt id='8583'>0.32552E+02</wgt>
<wgt id='8584'>0.32556E+02</wgt>
<wgt id='8585'>0.32548E+02</wgt>
<wgt id='8586'>0.32565E+02</wgt>
<wgt id='8587'>0.32543E+02</wgt>
<wgt id='8588'>0.32539E+02</wgt>
<wgt id='8589'>0.32543E+02</wgt>
<wgt id='8590'>0.32542E+02</wgt>
<wgt id='8591'>0.32532E+02</wgt>
<wgt id='8592'>0.32540E+02</wgt>
<wgt id='8593'>0.32533E+02</wgt>
<wgt id='8594'>0.32542E+02</wgt>
<wgt id='8595'>0.32542E+02</wgt>
<wgt id='8596'>0.32537E+02</wgt>
<wgt id='8597'>0.32548E+02</wgt>
<wgt id='8598'>0.32549E+02</wgt>
<wgt id='8599'>0.32546E+02</wgt>
<wgt id='8600'>0.32542E+02</wgt>
<wgt id='8601'>0.31745E+02</wgt>
<wgt id='8602'>0.33279E+02</wgt>
<wgt id='9000'>0.30958E+02</wgt>
<wgt id='9001'>0.30968E+02</wgt>
<wgt id='9002'>0.31119E+02</wgt>
<wgt id='9003'>0.30692E+02</wgt>
<wgt id='9004'>0.30918E+02</wgt>
<wgt id='9005'>0.31161E+02</wgt>
<wgt id='9006'>0.30833E+02</wgt>
<wgt id='9007'>0.30775E+02</wgt>
<wgt id='9008'>0.30926E+02</wgt>
<wgt id='9009'>0.30957E+02</wgt>
<wgt id='9010'>0.30807E+02</wgt>
<wgt id='9011'>0.31331E+02</wgt>
<wgt id='9012'>0.30863E+02</wgt>
<wgt id='9013'>0.30534E+02</wgt>
<wgt id='9014'>0.30719E+02</wgt>
<wgt id='9015'>0.30922E+02</wgt>
<wgt id='9016'>0.31273E+02</wgt>
<wgt id='9017'>0.30893E+02</wgt>
<wgt id='9018'>0.30929E+02</wgt>
<wgt id='9019'>0.30942E+02</wgt>
<wgt id='9020'>0.31121E+02</wgt>
<wgt id='9021'>0.30909E+02</wgt>
<wgt id='9022'>0.31011E+02</wgt>
<wgt id='9023'>0.30861E+02</wgt>
<wgt id='9024'>0.30908E+02</wgt>
<wgt id='9025'>0.31006E+02</wgt>
<wgt id='9026'>0.30967E+02</wgt>
<wgt id='9027'>0.30922E+02</wgt>
<wgt id='9028'>0.30980E+02</wgt>
<wgt id='9029'>0.30991E+02</wgt>
<wgt id='9030'>0.30972E+02</wgt>
<wgt id='9031'>0.30939E+02</wgt>
<wgt id='9032'>0.30979E+02</wgt>
<wgt id='9033'>0.30992E+02</wgt>
<wgt id='9034'>0.30948E+02</wgt>
<wgt id='9035'>0.30998E+02</wgt>
<wgt id='9036'>0.30959E+02</wgt>
<wgt id='9037'>0.30986E+02</wgt>
<wgt id='9038'>0.30966E+02</wgt>
<wgt id='9039'>0.30958E+02</wgt>
<wgt id='9040'>0.30930E+02</wgt>
<wgt id='9041'>0.30951E+02</wgt>
<wgt id='9042'>0.30957E+02</wgt>
<wgt id='9043'>0.30930E+02</wgt>
<wgt id='9044'>0.30968E+02</wgt>
<wgt id='9045'>0.30960E+02</wgt>
<wgt id='9046'>0.30916E+02</wgt>
<wgt id='9047'>0.30951E+02</wgt>
<wgt id='9048'>0.30971E+02</wgt>
<wgt id='9049'>0.30941E+02</wgt>
<wgt id='9050'>0.30965E+02</wgt>
<wgt id='9051'>0.30972E+02</wgt>
<wgt id='9052'>0.30969E+02</wgt>
<wgt id='9053'>0.30959E+02</wgt>
<wgt id='9054'>0.30941E+02</wgt>
<wgt id='9055'>0.30950E+02</wgt>
<wgt id='9056'>0.30987E+02</wgt>
<wgt id='9057'>0.30959E+02</wgt>
<wgt id='9058'>0.30929E+02</wgt>
<wgt id='9059'>0.30942E+02</wgt>
<wgt id='9060'>0.30945E+02</wgt>
<wgt id='9061'>0.30962E+02</wgt>
<wgt id='9062'>0.30963E+02</wgt>
<wgt id='9063'>0.30971E+02</wgt>
<wgt id='9064'>0.30953E+02</wgt>
<wgt id='9065'>0.30955E+02</wgt>
<wgt id='9066'>0.30960E+02</wgt>
<wgt id='9067'>0.30969E+02</wgt>
<wgt id='9068'>0.30969E+02</wgt>
<wgt id='9069'>0.30977E+02</wgt>
<wgt id='9070'>0.30953E+02</wgt>
<wgt id='9071'>0.30978E+02</wgt>
<wgt id='9072'>0.30978E+02</wgt>
<wgt id='9073'>0.30949E+02</wgt>
<wgt id='9074'>0.30963E+02</wgt>
<wgt id='9075'>0.30957E+02</wgt>
<wgt id='9076'>0.30954E+02</wgt>
<wgt id='9077'>0.30963E+02</wgt>
<wgt id='9078'>0.30959E+02</wgt>
<wgt id='9079'>0.30952E+02</wgt>
<wgt id='9080'>0.30984E+02</wgt>
<wgt id='9081'>0.30955E+02</wgt>
<wgt id='9082'>0.30967E+02</wgt>
<wgt id='9083'>0.30947E+02</wgt>
<wgt id='9084'>0.30947E+02</wgt>
<wgt id='9085'>0.30946E+02</wgt>
<wgt id='9086'>0.30964E+02</wgt>
<wgt id='9087'>0.30933E+02</wgt>
<wgt id='9088'>0.30949E+02</wgt>
<wgt id='9089'>0.30948E+02</wgt>
<wgt id='9090'>0.30962E+02</wgt>
<wgt id='9091'>0.30952E+02</wgt>
<wgt id='9092'>0.30955E+02</wgt>
<wgt id='9093'>0.30952E+02</wgt>
<wgt id='9094'>0.30953E+02</wgt>
<wgt id='9095'>0.30961E+02</wgt>
<wgt id='9096'>0.30952E+02</wgt>
<wgt id='9097'>0.30960E+02</wgt>
<wgt id='9098'>0.30956E+02</wgt>
<wgt id='9099'>0.30951E+02</wgt>
<wgt id='9100'>0.30958E+02</wgt>
<wgt id='9101'>0.30278E+02</wgt>
<wgt id='9102'>0.31577E+02</wgt>
<wgt id='10000'>0.32543E+02</wgt>
<wgt id='10001'>0.32748E+02</wgt>
<wgt id='10002'>0.32384E+02</wgt>
<wgt id='10003'>0.32537E+02</wgt>
<wgt id='10004'>0.32246E+02</wgt>
<wgt id='10005'>0.33310E+02</wgt>
<wgt id='10006'>0.32459E+02</wgt>
<wgt id='10007'>0.32532E+02</wgt>
<wgt id='10008'>0.32623E+02</wgt>
<wgt id='10009'>0.32444E+02</wgt>
<wgt id='10010'>0.32610E+02</wgt>
<wgt id='10011'>0.32427E+02</wgt>
<wgt id='10012'>0.32543E+02</wgt>
<wgt id='10013'>0.32568E+02</wgt>
<wgt id='10014'>0.32505E+02</wgt>
<wgt id='10015'>0.32537E+02</wgt>
<wgt id='10016'>0.32462E+02</wgt>
<wgt id='10017'>0.32670E+02</wgt>
<wgt id='10018'>0.32578E+02</wgt>
<wgt id='10019'>0.32484E+02</wgt>
<wgt id='10020'>0.32505E+02</wgt>
<wgt id='10021'>0.32528E+02</wgt>
<wgt id='10022'>0.32529E+02</wgt>
<wgt id='10023'>0.32559E+02</wgt>
<wgt id='10024'>0.32517E+02</wgt>
<wgt id='10025'>0.32518E+02</wgt>
<wgt id='10026'>0.32613E+02</wgt>
<wgt id='10027'>0.32589E+02</wgt>
<wgt id='10028'>0.32785E+02</wgt>
<wgt id='10029'>0.32562E+02</wgt>
<wgt id='10030'>0.32530E+02</wgt>
<wgt id='10031'>0.31745E+02</wgt>
<wgt id='10032'>0.33279E+02</wgt>
<wgt id='11000'>0.30958E+02</wgt>
<wgt id='11001'>0.30697E+02</wgt>
<wgt id='11002'>0.31109E+02</wgt>
<wgt id='11003'>0.30934E+02</wgt>
<wgt id='11004'>0.31122E+02</wgt>
<wgt id='11005'>0.30641E+02</wgt>
<wgt id='11006'>0.30968E+02</wgt>
<wgt id='11007'>0.30886E+02</wgt>
<wgt id='11008'>0.30922E+02</wgt>
<wgt id='11009'>0.30822E+02</wgt>
<wgt id='11010'>0.30797E+02</wgt>
<wgt id='11011'>0.30804E+02</wgt>
<wgt id='11012'>0.30986E+02</wgt>
<wgt id='11013'>0.31052E+02</wgt>
<wgt id='11014'>0.30867E+02</wgt>
<wgt id='11015'>0.30924E+02</wgt>
<wgt id='11016'>0.30926E+02</wgt>
<wgt id='11017'>0.31210E+02</wgt>
<wgt id='11018'>0.30942E+02</wgt>
<wgt id='11019'>0.30938E+02</wgt>
<wgt id='11020'>0.31044E+02</wgt>
<wgt id='11021'>0.31041E+02</wgt>
<wgt id='11022'>0.31563E+02</wgt>
<wgt id='11023'>0.30966E+02</wgt>
<wgt id='11024'>0.30964E+02</wgt>
<wgt id='11025'>0.30948E+02</wgt>
<wgt id='11026'>0.30957E+02</wgt>
<wgt id='11027'>0.30951E+02</wgt>
<wgt id='11028'>0.30966E+02</wgt>
<wgt id='11029'>0.30966E+02</wgt>
<wgt id='11030'>0.30957E+02</wgt>
<wgt id='11031'>0.30278E+02</wgt>
<wgt id='11032'>0.31577E+02</wgt>
<wgt id='12000'>0.33202E+02</wgt>
<wgt id='12001'>0.33155E+02</wgt>
<wgt id='12002'>0.33249E+02</wgt>
<wgt id='12003'>0.33251E+02</wgt>
<wgt id='12004'>0.33153E+02</wgt>
<wgt id='12005'>0.33263E+02</wgt>
<wgt id='12006'>0.33141E+02</wgt>
<wgt id='12007'>0.33350E+02</wgt>
<wgt id='12008'>0.33057E+02</wgt>
<wgt id='12009'>0.33215E+02</wgt>
<wgt id='12010'>0.33190E+02</wgt>
<wgt id='12011'>0.33067E+02</wgt>
<wgt id='12012'>0.33355E+02</wgt>
<wgt id='12013'>0.33069E+02</wgt>
<wgt id='12014'>0.33338E+02</wgt>
<wgt id='12015'>0.33208E+02</wgt>
<wgt id='12016'>0.33131E+02</wgt>
<wgt id='12017'>0.33346E+02</wgt>
<wgt id='12018'>0.33092E+02</wgt>
<wgt id='12019'>0.33101E+02</wgt>
<wgt id='12020'>0.33282E+02</wgt>
<wgt id='12021'>0.33305E+02</wgt>
<wgt id='12022'>0.33079E+02</wgt>
<wgt id='12023'>0.33020E+02</wgt>
<wgt id='12024'>0.33259E+02</wgt>
<wgt id='12025'>0.33243E+02</wgt>
<wgt id='12026'>0.33196E+02</wgt>
<wgt id='12027'>0.33345E+02</wgt>
<wgt id='12028'>0.33087E+02</wgt>
<wgt id='12050'>0.33202E+02</wgt>
<wgt id='12051'>0.33238E+02</wgt>
<wgt id='12052'>0.33128E+02</wgt>
<wgt id='12053'>0.33235E+02</wgt>
<wgt id='12054'>0.33153E+02</wgt>
<wgt id='12055'>0.33295E+02</wgt>
<wgt id='12056'>0.33050E+02</wgt>
<wgt id='12057'>0.33105E+02</wgt>
<wgt id='12058'>0.33300E+02</wgt>
<wgt id='12059'>0.33242E+02</wgt>
<wgt id='12060'>0.33171E+02</wgt>
<wgt id='12061'>0.33166E+02</wgt>
<wgt id='12062'>0.33164E+02</wgt>
<wgt id='12063'>0.32852E+02</wgt>
<wgt id='13000'>0.30623E+02</wgt>
<wgt id='13001'>0.30592E+02</wgt>
<wgt id='13002'>0.30649E+02</wgt>
<wgt id='13003'>0.30630E+02</wgt>
<wgt id='13004'>0.30610E+02</wgt>
<wgt id='13005'>0.30680E+02</wgt>
<wgt id='13006'>0.30560E+02</wgt>
<wgt id='13007'>0.30795E+02</wgt>
<wgt id='13008'>0.30450E+02</wgt>
<wgt id='13009'>0.30556E+02</wgt>
<wgt id='13010'>0.30688E+02</wgt>
<wgt id='13011'>0.30717E+02</wgt>
<wgt id='13012'>0.30524E+02</wgt>
<wgt id='13013'>0.30545E+02</wgt>
<wgt id='13014'>0.30693E+02</wgt>
<wgt id='13015'>0.30560E+02</wgt>
<wgt id='13016'>0.30610E+02</wgt>
<wgt id='13017'>0.30624E+02</wgt>
<wgt id='13018'>0.30614E+02</wgt>
<wgt id='13019'>0.30545E+02</wgt>
<wgt id='13020'>0.30696E+02</wgt>
<wgt id='13021'>0.30474E+02</wgt>
<wgt id='13022'>0.30742E+02</wgt>
<wgt id='13023'>0.30598E+02</wgt>
<wgt id='13024'>0.30644E+02</wgt>
<wgt id='13025'>0.30424E+02</wgt>
<wgt id='13026'>0.30765E+02</wgt>
<wgt id='13027'>0.30569E+02</wgt>
<wgt id='13028'>0.30698E+02</wgt>
<wgt id='13050'>0.30623E+02</wgt>
<wgt id='13051'>0.30682E+02</wgt>
<wgt id='13052'>0.30464E+02</wgt>
<wgt id='13053'>0.30669E+02</wgt>
<wgt id='13054'>0.30567E+02</wgt>
<wgt id='13055'>0.30497E+02</wgt>
<wgt id='13056'>0.30467E+02</wgt>
<wgt id='13057'>0.30539E+02</wgt>
<wgt id='13058'>0.30774E+02</wgt>
<wgt id='13059'>0.30616E+02</wgt>
<wgt id='13060'>0.30433E+02</wgt>
<wgt id='13061'>0.30532E+02</wgt>
<wgt id='13062'>0.30839E+02</wgt>
<wgt id='13063'>0.30502E+02</wgt>
<wgt id='14000'>0.31765E+02</wgt>
<wgt id='14001'>0.31761E+02</wgt>
<wgt id='14002'>0.31756E+02</wgt>
<wgt id='14003'>0.31752E+02</wgt>
<wgt id='14004'>0.31747E+02</wgt>
<wgt id='14005'>0.31743E+02</wgt>
<wgt id='14006'>0.31738E+02</wgt>
<wgt id='14007'>0.31734E+02</wgt>
<wgt id='14008'>0.31730E+02</wgt>
<wgt id='14009'>0.31725E+02</wgt>
<wgt id='14010'>0.31721E+02</wgt>
<wgt id='14011'>0.31716E+02</wgt>
<wgt id='14012'>0.31712E+02</wgt>
<wgt id='14013'>0.31707E+02</wgt>
<wgt id='14014'>0.31703E+02</wgt>
<wgt id='14015'>0.31698E+02</wgt>
<wgt id='14016'>0.31694E+02</wgt>
<wgt id='14017'>0.31689E+02</wgt>
<wgt id='14018'>0.31685E+02</wgt>
<wgt id='14019'>0.31681E+02</wgt>
<wgt id='14020'>0.31676E+02</wgt>
<wgt id='14021'>0.31672E+02</wgt>
<wgt id='14022'>0.31667E+02</wgt>
<wgt id='14023'>0.31663E+02</wgt>
<wgt id='14024'>0.31658E+02</wgt>
<wgt id='14025'>0.31654E+02</wgt>
<wgt id='14026'>0.31649E+02</wgt>
<wgt id='14027'>0.31645E+02</wgt>
<wgt id='14028'>0.31641E+02</wgt>
<wgt id='14029'>0.31636E+02</wgt>
<wgt id='14030'>0.31632E+02</wgt>
<wgt id='15000'>0.30589E+02</wgt>
<wgt id='15001'>0.30597E+02</wgt>
<wgt id='15002'>0.30746E+02</wgt>
<wgt id='15003'>0.30328E+02</wgt>
<wgt id='15004'>0.30550E+02</wgt>
<wgt id='15005'>0.30790E+02</wgt>
<wgt id='15006'>0.30467E+02</wgt>
<wgt id='15007'>0.30408E+02</wgt>
<wgt id='15008'>0.30557E+02</wgt>
<wgt id='15009'>0.30588E+02</wgt>
<wgt id='15010'>0.30440E+02</wgt>
<wgt id='15011'>0.30959E+02</wgt>
<wgt id='15012'>0.30495E+02</wgt>
<wgt id='15013'>0.30171E+02</wgt>
<wgt id='15014'>0.30351E+02</wgt>
<wgt id='15015'>0.30549E+02</wgt>
<wgt id='15016'>0.30902E+02</wgt>
<wgt id='15017'>0.30525E+02</wgt>
<wgt id='15018'>0.30559E+02</wgt>
<wgt id='15019'>0.30574E+02</wgt>
<wgt id='15020'>0.30752E+02</wgt>
<wgt id='15021'>0.30537E+02</wgt>
<wgt id='15022'>0.30642E+02</wgt>
<wgt id='15023'>0.30492E+02</wgt>
<wgt id='15024'>0.30538E+02</wgt>
<wgt id='15025'>0.30636E+02</wgt>
<wgt id='15026'>0.30596E+02</wgt>
<wgt id='15027'>0.30553E+02</wgt>
<wgt id='15028'>0.30612E+02</wgt>
<wgt id='15029'>0.30622E+02</wgt>
<wgt id='15030'>0.30600E+02</wgt>
<wgt id='15031'>0.30572E+02</wgt>
<wgt id='15032'>0.30610E+02</wgt>
<wgt id='15033'>0.30623E+02</wgt>
<wgt id='15034'>0.30579E+02</wgt>
<wgt id='15035'>0.30629E+02</wgt>
<wgt id='15036'>0.30590E+02</wgt>
<wgt id='15037'>0.30617E+02</wgt>
<wgt id='15038'>0.30597E+02</wgt>
<wgt id='15039'>0.30588E+02</wgt>
<wgt id='15040'>0.30560E+02</wgt>
<wgt id='15041'>0.30581E+02</wgt>
<wgt id='15042'>0.30587E+02</wgt>
<wgt id='15043'>0.30562E+02</wgt>
<wgt id='15044'>0.30599E+02</wgt>
<wgt id='15045'>0.30591E+02</wgt>
<wgt id='15046'>0.30548E+02</wgt>
<wgt id='15047'>0.30581E+02</wgt>
<wgt id='15048'>0.30602E+02</wgt>
<wgt id='15049'>0.30571E+02</wgt>
<wgt id='15050'>0.30596E+02</wgt>
<wgt id='15051'>0.30603E+02</wgt>
<wgt id='15052'>0.30599E+02</wgt>
<wgt id='15053'>0.30590E+02</wgt>
<wgt id='15054'>0.30572E+02</wgt>
<wgt id='15055'>0.30581E+02</wgt>
<wgt id='15056'>0.30617E+02</wgt>
<wgt id='15057'>0.30589E+02</wgt>
<wgt id='15058'>0.30561E+02</wgt>
<wgt id='15059'>0.30573E+02</wgt>
<wgt id='15060'>0.30577E+02</wgt>
<wgt id='15061'>0.30593E+02</wgt>
<wgt id='15062'>0.30594E+02</wgt>
<wgt id='15063'>0.30602E+02</wgt>
<wgt id='15064'>0.30584E+02</wgt>
<wgt id='15065'>0.30585E+02</wgt>
<wgt id='15066'>0.30591E+02</wgt>
<wgt id='15067'>0.30599E+02</wgt>
<wgt id='15068'>0.30600E+02</wgt>
<wgt id='15069'>0.30608E+02</wgt>
<wgt id='15070'>0.30584E+02</wgt>
<wgt id='15071'>0.30609E+02</wgt>
<wgt id='15072'>0.30609E+02</wgt>
<wgt id='15073'>0.30580E+02</wgt>
<wgt id='15074'>0.30594E+02</wgt>
<wgt id='15075'>0.30588E+02</wgt>
<wgt id='15076'>0.30585E+02</wgt>
<wgt id='15077'>0.30594E+02</wgt>
<wgt id='15078'>0.30590E+02</wgt>
<wgt id='15079'>0.30583E+02</wgt>
<wgt id='15080'>0.30614E+02</wgt>
<wgt id='15081'>0.30586E+02</wgt>
<wgt id='15082'>0.30598E+02</wgt>
<wgt id='15083'>0.30578E+02</wgt>
<wgt id='15084'>0.30578E+02</wgt>
<wgt id='15085'>0.30577E+02</wgt>
<wgt id='15086'>0.30595E+02</wgt>
<wgt id='15087'>0.30564E+02</wgt>
<wgt id='15088'>0.30579E+02</wgt>
<wgt id='15089'>0.30579E+02</wgt>
<wgt id='15090'>0.30593E+02</wgt>
<wgt id='15091'>0.30583E+02</wgt>
<wgt id='15092'>0.30586E+02</wgt>
<wgt id='15093'>0.30583E+02</wgt>
<wgt id='15094'>0.30584E+02</wgt>
<wgt id='15095'>0.30592E+02</wgt>
<wgt id='15096'>0.30583E+02</wgt>
<wgt id='15097'>0.30591E+02</wgt>
<wgt id='15098'>0.30587E+02</wgt>
<wgt id='15099'>0.30582E+02</wgt>
<wgt id='15100'>0.30589E+02</wgt>
<wgt id='15101'>0.30588E+02</wgt>
<wgt id='15102'>0.30586E+02</wgt>
<wgt id='15103'>0.30589E+02</wgt>
<wgt id='15104'>0.30589E+02</wgt>
<wgt id='15105'>0.30590E+02</wgt>
<wgt id='15106'>0.30589E+02</wgt>
<wgt id='15107'>0.30587E+02</wgt>
<wgt id='1500'>0.32987E+02</wgt>
<wgt id='1501'>0.31012E+02</wgt>
<wgt id='1502'>0.32850E+02</wgt>
<wgt id='1503'>0.32897E+02</wgt>
<wgt id='1504'>0.32691E+02</wgt>
<wgt id='1505'>0.29432E+02</wgt>
<wgt id='1506'>0.33518E+02</wgt>
<wgt id='1507'>0.33197E+02</wgt>
<wgt id='1508'>0.33213E+02</wgt>
<wgt id='1509'>0.33238E+02</wgt>
<wgt id='1510'>0.31556E+02</wgt>
<wgt id='1511'>0.31262E+02</wgt>
<wgt id='1512'>0.33661E+02</wgt>
<wgt id='1513'>0.33629E+02</wgt>
<wgt id='1514'>0.31923E+02</wgt>
<wgt id='1515'>0.33323E+02</wgt>
<wgt id='1516'>0.33543E+02</wgt>
<wgt id='1517'>0.32704E+02</wgt>
<wgt id='1518'>0.33101E+02</wgt>
<wgt id='1519'>0.33687E+02</wgt>
<wgt id='1520'>0.34002E+02</wgt>
<wgt id='1521'>0.33186E+02</wgt>
<wgt id='1522'>0.32341E+02</wgt>
<wgt id='1523'>0.35442E+02</wgt>
<wgt id='1524'>0.32731E+02</wgt>
<wgt id='1525'>0.33221E+02</wgt>
<wgt id='1526'>0.32787E+02</wgt>
<wgt id='1527'>0.32914E+02</wgt>
<wgt id='1528'>0.32660E+02</wgt>
<wgt id='1529'>0.32902E+02</wgt>
<wgt id='1530'>0.33801E+02</wgt>
<wgt id='1531'>0.32674E+02</wgt>
<wgt id='1532'>0.31905E+02</wgt>
<wgt id='1533'>0.33097E+02</wgt>
<wgt id='1534'>0.32979E+02</wgt>
<wgt id='1535'>0.33794E+02</wgt>
<wgt id='1536'>0.33962E+02</wgt>
<wgt id='1537'>0.33502E+02</wgt>
<wgt id='1538'>0.33309E+02</wgt>
<wgt id='1539'>0.32207E+02</wgt>
<wgt id='1540'>0.33193E+02</wgt>
<wgt id='1541'>0.33313E+02</wgt>
<wgt id='1542'>0.33095E+02</wgt>
<wgt id='1543'>0.33055E+02</wgt>
<wgt id='1544'>0.32653E+02</wgt>
<wgt id='1545'>0.32896E+02</wgt>
<wgt id='1546'>0.33558E+02</wgt>
<wgt id='1547'>0.32636E+02</wgt>
<wgt id='1548'>0.32738E+02</wgt>
<wgt id='1549'>0.32961E+02</wgt>
<wgt id='1550'>0.32886E+02</wgt>
<wgt id='1551'>0.32861E+02</wgt>
<wgt id='1552'>0.32520E+02</wgt>
<wgt id='1553'>0.33361E+02</wgt>
<wgt id='1554'>0.33133E+02</wgt>
<wgt id='1555'>0.32860E+02</wgt>
<wgt id='1556'>0.32292E+02</wgt>
<wgt id='1557'>0.34333E+02</wgt>
<wgt id='1558'>0.32450E+02</wgt>
<wgt id='1559'>0.33435E+02</wgt>
<wgt id='1560'>0.32978E+02</wgt>
<wgt id='1561'>0.33350E+02</wgt>
<wgt id='1562'>0.33035E+02</wgt>
<wgt id='1563'>0.33416E+02</wgt>
<wgt id='1564'>0.32313E+02</wgt>
<wgt id='1565'>0.33588E+02</wgt>
<wgt id='1566'>0.32822E+02</wgt>
<wgt id='1567'>0.35052E+02</wgt>
<wgt id='1568'>0.32591E+02</wgt>
<wgt id='1569'>0.32029E+02</wgt>
<wgt id='1570'>0.32688E+02</wgt>
<wgt id='1571'>0.33427E+02</wgt>
<wgt id='1572'>0.33025E+02</wgt>
<wgt id='1573'>0.30782E+02</wgt>
<wgt id='1574'>0.33180E+02</wgt>
<wgt id='1575'>0.32813E+02</wgt>
<wgt id='1576'>0.31795E+02</wgt>
<wgt id='1577'>0.32894E+02</wgt>
<wgt id='1578'>0.34095E+02</wgt>
<wgt id='1579'>0.32920E+02</wgt>
<wgt id='1580'>0.32974E+02</wgt>
<wgt id='1581'>0.33051E+02</wgt>
<wgt id='1582'>0.32399E+02</wgt>
<wgt id='1583'>0.33862E+02</wgt>
<wgt id='1584'>0.33042E+02</wgt>
<wgt id='1585'>0.32143E+02</wgt>
<wgt id='1586'>0.32694E+02</wgt>
<wgt id='1587'>0.32751E+02</wgt>
<wgt id='1588'>0.33066E+02</wgt>
<wgt id='1589'>0.34341E+02</wgt>
<wgt id='1590'>0.32544E+02</wgt>
<wgt id='1591'>0.32625E+02</wgt>
<wgt id='1592'>0.33585E+02</wgt>
<wgt id='1593'>0.33026E+02</wgt>
<wgt id='1594'>0.33534E+02</wgt>
<wgt id='1595'>0.32243E+02</wgt>
<wgt id='1596'>0.33689E+02</wgt>
<wgt id='1597'>0.33211E+02</wgt>
<wgt id='1598'>0.34199E+02</wgt>
<wgt id='1599'>0.34081E+02</wgt>
<wgt id='1600'>0.33166E+02</wgt>
<wgt id='1601'>0.32399E+02</wgt>
<wgt id='1602'>0.33406E+02</wgt>
<wgt id='1700'>0.31281E+02</wgt>
<wgt id='1800'>0.33926E+02</wgt>
<wgt id='1850'>0.42493E+02</wgt>
<wgt id='1900'>0.35062E+02</wgt>
<wgt id='1950'>0.40980E+02</wgt>
</rwgt>
</event>
<event>
      4   9999  3.15120E+01  3.60147E+00 -1.00000E+00  2.66572E-01
      21    -1     0     0   502   501  0.000000000E+00  0.000000000E+00  4.210026069E+01  4.210026069E+01  0.000000000E+00  0.00000E+00  9.000E+00
      21    -1     0     0   501   511  0.000000000E+00  0.000000000E+00 -9.082817711E+01  9.082817711E+01  0.000000000E+00  0.00000E+00  9.000E+00
      25     1     1     2     0     0  2.345918183E+00  2.732623797E+00 -4.699519051E+01  1.289318262E+02  1.200079052E+02  0.00000E+00  9.000E+00
      21     1     1     2   502   511 -2.345918183E+00 -2.732623797E+00 -1.732725913E+00  3.996611569E+00  5.960464478E-08  0.00000E+00  9.000E+00
#rwgt            1           1   23.696568526231971                2         661           0
<rwgt>
<wgt id='1001'>0.31512E+02</wgt>
<wgt id='1002'>0.29975E+02</wgt>
<wgt id='1003'>0.33441E+02</wgt>
<wgt id='1004'>0.26709E+02</wgt>
<wgt id='1005'>0.25700E+02</wgt>
<wgt id='1006'>0.27957E+02</wgt>
<wgt id='1007'>0.37752E+02</wgt>
<wgt id='1008'>0.35375E+02</wgt>
<wgt id='1009'>0.40765E+02</wgt>
<wgt id='2000'>0.31512E+02</wgt>
<wgt id='2001'>0.31480E+02</wgt>
<wgt id='2002'>0.31625E+02</wgt>
<wgt id='2003'>0.31616E+02</wgt>
<wgt id='2004'>0.31543E+02</wgt>
<wgt id='2005'>0.31448E+02</wgt>
<wgt id='2006'>0.31433E+02</wgt>
<wgt id='2007'>0.31398E+02</wgt>
<wgt id='2008'>0.31450E+02</wgt>
<wgt id='2009'>0.31552E+02</wgt>
<wgt id='2010'>0.31492E+02</wgt>
<wgt id='2011'>0.31615E+02</wgt>
<wgt id='2012'>0.31639E+02</wgt>
<wgt id='2013'>0.31728E+02</wgt>
<wgt id='2014'>0.31605E+02</wgt>
<wgt id='2015'>0.31565E+02</wgt>
<wgt id='2016'>0.31459E+02</wgt>
<wgt id='2017'>0.31512E+02</wgt>
<wgt id='2018'>0.31608E+02</wgt>
<wgt id='2019'>0.31496E+02</wgt>
<wgt id='2020'>0.31577E+02</wgt>
<wgt id='2021'>0.31476E+02</wgt>
<wgt id='2022'>0.31526E+02</wgt>
<wgt id='2023'>0.31534E+02</wgt>
<wgt id='2024'>0.31519E+02</wgt>
<wgt id='2025'>0.31511E+02</wgt>
<wgt id='2026'>0.31519E+02</wgt>
<wgt id='2027'>0.31501E+02</wgt>
<wgt id='2028'>0.31508E+02</wgt>
<wgt id='2029'>0.31537E+02</wgt>
<wgt id='2030'>0.31509E+02</wgt>
<wgt id='2031'>0.31521E+02</wgt>
<wgt id='2032'>0.31521E+02</wgt>
<wgt id='2033'>0.31508E+02</wgt>
<wgt id='2034'>0.31530E+02</wgt>
<wgt id='2035'>0.31512E+02</wgt>
<wgt id='2036'>0.31514E+02</wgt>
<wgt id='2037'>0.31520E+02</wgt>
<wgt id='2038'>0.31511E+02</wgt>
<wgt id='2039'>0.31485E+02</wgt>
<wgt id='2040'>0.31505E+02</wgt>
<wgt id='2041'>0.31509E+02</wgt>
<wgt id='2042'>0.31524E+02</wgt>
<wgt id='2043'>0.31502E+02</wgt>
<wgt id='2044'>0.31518E+02</wgt>
<wgt id='2045'>0.31510E+02</wgt>
<wgt id='2046'>0.31516E+02</wgt>
<wgt id='2047'>0.31511E+02</wgt>
<wgt id='2048'>0.31501E+02</wgt>
<wgt id='2049'>0.31506E+02</wgt>
<wgt id='2050'>0.31519E+02</wgt>
<wgt id='2051'>0.31506E+02</wgt>
<wgt id='2052'>0.31504E+02</wgt>
<wgt id='2053'>0.31507E+02</wgt>
<wgt id='2054'>0.31515E+02</wgt>
<wgt id='2055'>0.31511E+02</wgt>
<wgt id='2056'>0.31508E+02</wgt>
<wgt id='2057'>0.31507E+02</wgt>
<wgt id='2058'>0.31524E+02</wgt>
<wgt id='2059'>0.31514E+02</wgt>
<wgt id='2060'>0.31511E+02</wgt>
<wgt id='2061'>0.31514E+02</wgt>
<wgt id='2062'>0.31508E+02</wgt>
<wgt id='2063'>0.31509E+02</wgt>
<wgt id='2064'>0.31517E+02</wgt>
<wgt id='2065'>0.31506E+02</wgt>
<wgt id='2066'>0.31511E+02</wgt>
<wgt id='2067'>0.31512E+02</wgt>
<wgt id='2068'>0.31511E+02</wgt>
<wgt id='2069'>0.31516E+02</wgt>
<wgt id='2070'>0.31500E+02</wgt>
<wgt id='2071'>0.31511E+02</wgt>
<wgt id='2072'>0.31515E+02</wgt>
<wgt id='2073'>0.31498E+02</wgt>
<wgt id='2074'>0.31507E+02</wgt>
<wgt id='2075'>0.31501E+02</wgt>
<wgt id='2076'>0.31528E+02</wgt>
<wgt id='2077'>0.31489E+02</wgt>
<wgt id='2078'>0.31515E+02</wgt>
<wgt id='2079'>0.31515E+02</wgt>
<wgt id='2080'>0.31523E+02</wgt>
<wgt id='2081'>0.31514E+02</wgt>
<wgt id='2082'>0.31521E+02</wgt>
<wgt id='2083'>0.31512E+02</wgt>
<wgt id='2084'>0.31505E+02</wgt>
<wgt id='2085'>0.31516E+02</wgt>
<wgt id='2086'>0.31512E+02</wgt>
<wgt id='2087'>0.31501E+02</wgt>
<wgt id='2088'>0.31515E+02</wgt>
<wgt id='2089'>0.31509E+02</wgt>
<wgt id='2090'>0.31517E+02</wgt>
<wgt id='2091'>0.31515E+02</wgt>
<wgt id='2092'>0.31511E+02</wgt>
<wgt id='2093'>0.31515E+02</wgt>
<wgt id='2094'>0.31516E+02</wgt>
<wgt id='2095'>0.31513E+02</wgt>
<wgt id='2096'>0.31505E+02</wgt>
<wgt id='2097'>0.31521E+02</wgt>
<wgt id='2098'>0.31505E+02</wgt>
<wgt id='2099'>0.31511E+02</wgt>
<wgt id='2100'>0.31513E+02</wgt>
<wgt id='2101'>0.30588E+02</wgt>
<wgt id='2102'>0.32361E+02</wgt>
<wgt id='2104'>0.27321E+02</wgt>
<wgt id='2105'>0.28068E+02</wgt>
<wgt id='2106'>0.28910E+02</wgt>
<wgt id='2107'>0.29814E+02</wgt>
<wgt id='2108'>0.31131E+02</wgt>
<wgt id='2109'>0.31998E+02</wgt>
<wgt id='2110'>0.33196E+02</wgt>
<wgt id='2111'>0.34093E+02</wgt>
<wgt id='3000'>0.32876E+02</wgt>
<wgt id='3001'>0.32980E+02</wgt>
<wgt id='3002'>0.32753E+02</wgt>
<wgt id='3003'>0.32983E+02</wgt>
<wgt id='3004'>0.32934E+02</wgt>
<wgt id='3005'>0.33009E+02</wgt>
<wgt id='3006'>0.32918E+02</wgt>
<wgt id='3007'>0.32953E+02</wgt>
<wgt id='3008'>0.32802E+02</wgt>
<wgt id='3009'>0.32868E+02</wgt>
<wgt id='3010'>0.32781E+02</wgt>
<wgt id='3011'>0.32927E+02</wgt>
<wgt id='3012'>0.33057E+02</wgt>
<wgt id='3013'>0.32680E+02</wgt>
<wgt id='3014'>0.32983E+02</wgt>
<wgt id='3015'>0.32965E+02</wgt>
<wgt id='3016'>0.32886E+02</wgt>
<wgt id='3017'>0.32990E+02</wgt>
<wgt id='3018'>0.32906E+02</wgt>
<wgt id='3019'>0.32795E+02</wgt>
<wgt id='3020'>0.32870E+02</wgt>
<wgt id='3021'>0.32821E+02</wgt>
<wgt id='3022'>0.32872E+02</wgt>
<wgt id='3023'>0.32859E+02</wgt>
<wgt id='3024'>0.32883E+02</wgt>
<wgt id='3025'>0.32888E+02</wgt>
<wgt id='3026'>0.32879E+02</wgt>
<wgt id='3027'>0.32885E+02</wgt>
<wgt id='3028'>0.32869E+02</wgt>
<wgt id='3029'>0.32864E+02</wgt>
<wgt id='3030'>0.32914E+02</wgt>
<wgt id='3031'>0.32890E+02</wgt>
<wgt id='3032'>0.32877E+02</wgt>
<wgt id='3033'>0.32886E+02</wgt>
<wgt id='3034'>0.32871E+02</wgt>
<wgt id='3035'>0.32909E+02</wgt>
<wgt id='3036'>0.32887E+02</wgt>
<wgt id='3037'>0.32854E+02</wgt>
<wgt id='3038'>0.32885E+02</wgt>
<wgt id='3039'>0.32878E+02</wgt>
<wgt id='3040'>0.32868E+02</wgt>
<wgt id='3041'>0.32876E+02</wgt>
<wgt id='3042'>0.32879E+02</wgt>
<wgt id='3043'>0.32880E+02</wgt>
<wgt id='3044'>0.32872E+02</wgt>
<wgt id='3045'>0.32875E+02</wgt>
<wgt id='3046'>0.32876E+02</wgt>
<wgt id='3047'>0.32881E+02</wgt>
<wgt id='3048'>0.32867E+02</wgt>
<wgt id='3049'>0.32873E+02</wgt>
<wgt id='3050'>0.32885E+02</wgt>
<wgt id='3051'>0.32875E+02</wgt>
<wgt id='3052'>0.32867E+02</wgt>
<wgt id='3053'>0.32876E+02</wgt>
<wgt id='3054'>0.32883E+02</wgt>
<wgt id='3055'>0.32883E+02</wgt>
<wgt id='3056'>0.32865E+02</wgt>
<wgt id='3057'>0.32877E+02</wgt>
<wgt id='3058'>0.32873E+02</wgt>
<wgt id='3059'>0.32871E+02</wgt>
<wgt id='3060'>0.32881E+02</wgt>
<wgt id='3061'>0.32873E+02</wgt>
<wgt id='3062'>0.32875E+02</wgt>
<wgt id='3063'>0.32869E+02</wgt>
<wgt id='3064'>0.32889E+02</wgt>
<wgt id='3065'>0.32873E+02</wgt>
<wgt id='3066'>0.32884E+02</wgt>
<wgt id='3067'>0.32881E+02</wgt>
<wgt id='3068'>0.32872E+02</wgt>
<wgt id='3069'>0.32868E+02</wgt>
<wgt id='3070'>0.32876E+02</wgt>
<wgt id='3071'>0.32878E+02</wgt>
<wgt id='3072'>0.32876E+02</wgt>
<wgt id='3073'>0.32873E+02</wgt>
<wgt id='3074'>0.32899E+02</wgt>
<wgt id='3075'>0.32878E+02</wgt>
<wgt id='3076'>0.32886E+02</wgt>
<wgt id='3077'>0.32885E+02</wgt>
<wgt id='3078'>0.32884E+02</wgt>
<wgt id='3079'>0.32850E+02</wgt>
<wgt id='3080'>0.32870E+02</wgt>
<wgt id='3081'>0.32863E+02</wgt>
<wgt id='3082'>0.32863E+02</wgt>
<wgt id='3083'>0.32870E+02</wgt>
<wgt id='3084'>0.32867E+02</wgt>
<wgt id='3085'>0.32886E+02</wgt>
<wgt id='3086'>0.32860E+02</wgt>
<wgt id='3087'>0.32862E+02</wgt>
<wgt id='3088'>0.32875E+02</wgt>
<wgt id='3089'>0.32872E+02</wgt>
<wgt id='3090'>0.32884E+02</wgt>
<wgt id='3091'>0.32881E+02</wgt>
<wgt id='3092'>0.32870E+02</wgt>
<wgt id='3093'>0.32878E+02</wgt>
<wgt id='3094'>0.32886E+02</wgt>
<wgt id='3095'>0.32878E+02</wgt>
<wgt id='3096'>0.32874E+02</wgt>
<wgt id='3097'>0.32873E+02</wgt>
<wgt id='3098'>0.32871E+02</wgt>
<wgt id='3099'>0.32876E+02</wgt>
<wgt id='3100'>0.32881E+02</wgt>
<wgt id='3101'>0.31960E+02</wgt>
<wgt id='3102'>0.33882E+02</wgt>
<wgt id='5000'>0.31143E+02</wgt>
<wgt id='5001'>0.31142E+02</wgt>
<wgt id='5002'>0.31178E+02</wgt>
<wgt id='5003'>0.31022E+02</wgt>
<wgt id='5004'>0.31222E+02</wgt>
<wgt id='5005'>0.30732E+02</wgt>
<wgt id='5006'>0.31630E+02</wgt>
<wgt id='5007'>0.31333E+02</wgt>
<wgt id='5008'>0.30934E+02</wgt>
<wgt id='5009'>0.31420E+02</wgt>
<wgt id='5010'>0.31014E+02</wgt>
<wgt id='5011'>0.31173E+02</wgt>
<wgt id='5012'>0.31122E+02</wgt>
<wgt id='5013'>0.30589E+02</wgt>
<wgt id='5014'>0.31232E+02</wgt>
<wgt id='5015'>0.31244E+02</wgt>
<wgt id='5016'>0.30870E+02</wgt>
<wgt id='5017'>0.31168E+02</wgt>
<wgt id='5018'>0.31107E+02</wgt>
<wgt id='5019'>0.31008E+02</wgt>
<wgt id='5020'>0.31246E+02</wgt>
<wgt id='5021'>0.31177E+02</wgt>
<wgt id='5022'>0.31121E+02</wgt>
<wgt id='5023'>0.31086E+02</wgt>
<wgt id='5024'>0.31202E+02</wgt>
<wgt id='5025'>0.31114E+02</wgt>
<wgt id='5026'>0.31166E+02</wgt>
<wgt id='5027'>0.31318E+02</wgt>
<wgt id='5028'>0.30852E+02</wgt>
<wgt id='5029'>0.30856E+02</wgt>
<wgt id='5030'>0.31318E+02</wgt>
<wgt id='5031'>0.30957E+02</wgt>
<wgt id='5032'>0.31419E+02</wgt>
<wgt id='5033'>0.30923E+02</wgt>
<wgt id='5034'>0.31336E+02</wgt>
<wgt id='5035'>0.30787E+02</wgt>
<wgt id='5036'>0.31426E+02</wgt>
<wgt id='5037'>0.31068E+02</wgt>
<wgt id='5038'>0.31215E+02</wgt>
<wgt id='5039'>0.31550E+02</wgt>
<wgt id='5040'>0.30927E+02</wgt>
<wgt id='5041'>0.31033E+02</wgt>
<wgt id='5042'>0.31133E+02</wgt>
<wgt id='5043'>0.31146E+02</wgt>
<wgt id='5044'>0.30825E+02</wgt>
<wgt id='5045'>0.31904E+02</wgt>
<wgt id='5046'>0.30936E+02</wgt>
<wgt id='5047'>0.31436E+02</wgt>
<wgt id='5048'>0.31097E+02</wgt>
<wgt id='5049'>0.31157E+02</wgt>
<wgt id='5050'>0.31081E+02</wgt>
<wgt id='5051'>0.31151E+02</wgt>
<wgt id='5052'>0.31092E+02</wgt>
<wgt id='5053'>0.30762E+02</wgt>
<wgt id='5054'>0.31610E+02</wgt>
<wgt id='5055'>0.30980E+02</wgt>
<wgt id='5056'>0.31343E+02</wgt>
<wgt id='5060'>0.30293E+02</wgt>
<wgt id='5070'>0.31949E+02</wgt>
<wgt id='4000'>0.32590E+02</wgt>
<wgt id='4001'>0.32559E+02</wgt>
<wgt id='4002'>0.32593E+02</wgt>
<wgt id='4003'>0.33252E+02</wgt>
<wgt id='4004'>0.32341E+02</wgt>
<wgt id='4005'>0.32519E+02</wgt>
<wgt id='4006'>0.32573E+02</wgt>
<wgt id='4007'>0.32925E+02</wgt>
<wgt id='4008'>0.32411E+02</wgt>
<wgt id='4009'>0.32295E+02</wgt>
<wgt id='4010'>0.32761E+02</wgt>
<wgt id='4011'>0.32987E+02</wgt>
<wgt id='4012'>0.32337E+02</wgt>
<wgt id='4013'>0.32023E+02</wgt>
<wgt id='4014'>0.32960E+02</wgt>
<wgt id='4015'>0.32887E+02</wgt>
<wgt id='4016'>0.32386E+02</wgt>
<wgt id='4017'>0.32343E+02</wgt>
<wgt id='4018'>0.32884E+02</wgt>
<wgt id='4019'>0.32757E+02</wgt>
<wgt id='4020'>0.32404E+02</wgt>
<wgt id='4021'>0.32642E+02</wgt>
<wgt id='4022'>0.32487E+02</wgt>
<wgt id='4023'>0.32513E+02</wgt>
<wgt id='4024'>0.32659E+02</wgt>
<wgt id='4025'>0.32235E+02</wgt>
<wgt id='4026'>0.32912E+02</wgt>
<wgt id='4027'>0.32545E+02</wgt>
<wgt id='4028'>0.32650E+02</wgt>
<wgt id='4029'>0.32450E+02</wgt>
<wgt id='4030'>0.32638E+02</wgt>
<wgt id='4031'>0.32615E+02</wgt>
<wgt id='4032'>0.32559E+02</wgt>
<wgt id='4033'>0.32593E+02</wgt>
<wgt id='4034'>0.32578E+02</wgt>
<wgt id='4035'>0.32881E+02</wgt>
<wgt id='4036'>0.32294E+02</wgt>
<wgt id='4037'>0.32719E+02</wgt>
<wgt id='4038'>0.32415E+02</wgt>
<wgt id='4039'>0.32587E+02</wgt>
<wgt id='4040'>0.32610E+02</wgt>
<wgt id='4041'>0.32825E+02</wgt>
<wgt id='4042'>0.32329E+02</wgt>
<wgt id='4043'>0.32988E+02</wgt>
<wgt id='4044'>0.32191E+02</wgt>
<wgt id='4045'>0.32346E+02</wgt>
<wgt id='4046'>0.32515E+02</wgt>
<wgt id='4047'>0.32349E+02</wgt>
<wgt id='4048'>0.32974E+02</wgt>
<wgt id='4049'>0.32813E+02</wgt>
<wgt id='4050'>0.32235E+02</wgt>
<wgt id='4051'>0.32613E+02</wgt>
<wgt id='4052'>0.32607E+02</wgt>
<wgt id='4053'>0.31726E+02</wgt>
<wgt id='4054'>0.32843E+02</wgt>
<wgt id='4055'>0.32362E+02</wgt>
<wgt id='4056'>0.32833E+02</wgt>
<wgt id='4060'>0.31636E+02</wgt>
<wgt id='4070'>0.33525E+02</wgt>
<wgt id='4080'>0.32939E+02</wgt>
<wgt id='6000'>0.32949E+02</wgt>
<wgt id='6001'>0.32957E+02</wgt>
<wgt id='6002'>0.32941E+02</wgt>
<wgt id='6003'>0.32964E+02</wgt>
<wgt id='6004'>0.32939E+02</wgt>
<wgt id='6005'>0.33054E+02</wgt>
<wgt id='6006'>0.32853E+02</wgt>
<wgt id='6007'>0.32864E+02</wgt>
<wgt id='6008'>0.33046E+02</wgt>
<wgt id='6009'>0.33006E+02</wgt>
<wgt id='6010'>0.32894E+02</wgt>
<wgt id='6011'>0.32986E+02</wgt>
<wgt id='6012'>0.32868E+02</wgt>
<wgt id='6013'>0.32933E+02</wgt>
<wgt id='6014'>0.32978E+02</wgt>
<wgt id='6015'>0.32903E+02</wgt>
<wgt id='6016'>0.32976E+02</wgt>
<wgt id='6017'>0.32828E+02</wgt>
<wgt id='6018'>0.33093E+02</wgt>
<wgt id='6019'>0.32975E+02</wgt>
<wgt id='6020'>0.32926E+02</wgt>
<wgt id='6021'>0.32886E+02</wgt>
<wgt id='6022'>0.33033E+02</wgt>
<wgt id='6023'>0.32776E+02</wgt>
<wgt id='6024'>0.33064E+02</wgt>
<wgt id='6025'>0.32691E+02</wgt>
<wgt id='6026'>0.33179E+02</wgt>
<wgt id='6027'>0.32986E+02</wgt>
<wgt id='6028'>0.32942E+02</wgt>
<wgt id='6029'>0.33062E+02</wgt>
<wgt id='6030'>0.32821E+02</wgt>
<wgt id='6031'>0.32919E+02</wgt>
<wgt id='6032'>0.32986E+02</wgt>
<wgt id='6033'>0.33005E+02</wgt>
<wgt id='6034'>0.32893E+02</wgt>
<wgt id='6035'>0.32939E+02</wgt>
<wgt id='6036'>0.33004E+02</wgt>
<wgt id='6037'>0.32975E+02</wgt>
<wgt id='6038'>0.32942E+02</wgt>
<wgt id='6039'>0.32918E+02</wgt>
<wgt id='6040'>0.32984E+02</wgt>
<wgt id='6041'>0.32847E+02</wgt>
<wgt id='6042'>0.33068E+02</wgt>
<wgt id='6043'>0.33246E+02</wgt>
<wgt id='6044'>0.32803E+02</wgt>
<wgt id='6045'>0.32918E+02</wgt>
<wgt id='6046'>0.33044E+02</wgt>
<wgt id='6047'>0.32812E+02</wgt>
<wgt id='6048'>0.32920E+02</wgt>
<wgt id='6049'>0.32885E+02</wgt>
<wgt id='6050'>0.32967E+02</wgt>
<wgt id='7000'>0.31469E+02</wgt>
<wgt id='7001'>0.31454E+02</wgt>
<wgt id='7002'>0.31490E+02</wgt>
<wgt id='7003'>0.31560E+02</wgt>
<wgt id='7004'>0.31379E+02</wgt>
<wgt id='7005'>0.31528E+02</wgt>
<wgt id='7006'>0.31446E+02</wgt>
<wgt id='7007'>0.31416E+02</wgt>
<wgt id='7008'>0.31523E+02</wgt>
<wgt id='7009'>0.31506E+02</wgt>
<wgt id='7010'>0.31434E+02</wgt>
<wgt id='7011'>0.31302E+02</wgt>
<wgt id='7012'>0.31543E+02</wgt>
<wgt id='7013'>0.31466E+02</wgt>
<wgt id='7014'>0.31474E+02</wgt>
<wgt id='7015'>0.31431E+02</wgt>
<wgt id='7016'>0.31512E+02</wgt>
<wgt id='7017'>0.31408E+02</wgt>
<wgt id='7018'>0.31503E+02</wgt>
<wgt id='7019'>0.31450E+02</wgt>
<wgt id='7020'>0.31495E+02</wgt>
<wgt id='7021'>0.31460E+02</wgt>
<wgt id='7022'>0.31475E+02</wgt>
<wgt id='7023'>0.31720E+02</wgt>
<wgt id='7024'>0.31227E+02</wgt>
<wgt id='7025'>0.31567E+02</wgt>
<wgt id='7026'>0.31227E+02</wgt>
<wgt id='7027'>0.31536E+02</wgt>
<wgt id='7028'>0.31419E+02</wgt>
<wgt id='7029'>0.31415E+02</wgt>
<wgt id='7030'>0.31636E+02</wgt>
<wgt id='7031'>0.31430E+02</wgt>
<wgt id='7032'>0.31556E+02</wgt>
<wgt id='7033'>0.31455E+02</wgt>
<wgt id='7034'>0.31503E+02</wgt>
<wgt id='7035'>0.31474E+02</wgt>
<wgt id='7036'>0.31474E+02</wgt>
<wgt id='7037'>0.31474E+02</wgt>
<wgt id='7038'>0.31476E+02</wgt>
<wgt id='7039'>0.31427E+02</wgt>
<wgt id='7040'>0.31502E+02</wgt>
<wgt id='7041'>0.31509E+02</wgt>
<wgt id='7042'>0.31369E+02</wgt>
<wgt id='7043'>0.31492E+02</wgt>
<wgt id='7044'>0.31345E+02</wgt>
<wgt id='7045'>0.31332E+02</wgt>
<wgt id='7046'>0.31460E+02</wgt>
<wgt id='7047'>0.31474E+02</wgt>
<wgt id='7048'>0.31462E+02</wgt>
<wgt id='7049'>0.31519E+02</wgt>
<wgt id='7050'>0.31346E+02</wgt>
<wgt id='7060'>0.46871E+02</wgt>
<wgt id='8000'>0.31108E+02</wgt>
<wgt id='8001'>0.31101E+02</wgt>
<wgt id='8002'>0.31115E+02</wgt>
<wgt id='8003'>0.31109E+02</wgt>
<wgt id='8004'>0.31107E+02</wgt>
<wgt id='8005'>0.31047E+02</wgt>
<wgt id='8006'>0.31101E+02</wgt>
<wgt id='8007'>0.31088E+02</wgt>
<wgt id='8008'>0.31142E+02</wgt>
<wgt id='8009'>0.31185E+02</wgt>
<wgt id='8010'>0.31105E+02</wgt>
<wgt id='8011'>0.31102E+02</wgt>
<wgt id='8012'>0.31083E+02</wgt>
<wgt id='8013'>0.31094E+02</wgt>
<wgt id='8014'>0.31098E+02</wgt>
<wgt id='8015'>0.31095E+02</wgt>
<wgt id='8016'>0.31114E+02</wgt>
<wgt id='8017'>0.31106E+02</wgt>
<wgt id='8018'>0.31113E+02</wgt>
<wgt id='8019'>0.31132E+02</wgt>
<wgt id='8020'>0.31058E+02</wgt>
<wgt id='8021'>0.31106E+02</wgt>
<wgt id='8022'>0.31010E+02</wgt>
<wgt id='8023'>0.31121E+02</wgt>
<wgt id='8024'>0.31133E+02</wgt>
<wgt id='8025'>0.31160E+02</wgt>
<wgt id='8026'>0.31145E+02</wgt>
<wgt id='8027'>0.31079E+02</wgt>
<wgt id='8028'>0.31120E+02</wgt>
<wgt id='8029'>0.31101E+02</wgt>
<wgt id='8500'>0.32732E+02</wgt>
<wgt id='8501'>0.32621E+02</wgt>
<wgt id='8502'>0.32990E+02</wgt>
<wgt id='8503'>0.32909E+02</wgt>
<wgt id='8504'>0.32644E+02</wgt>
<wgt id='8505'>0.32612E+02</wgt>
<wgt id='8506'>0.32685E+02</wgt>
<wgt id='8507'>0.32826E+02</wgt>
<wgt id='8508'>0.32999E+02</wgt>
<wgt id='8509'>0.32606E+02</wgt>
<wgt id='8510'>0.33083E+02</wgt>
<wgt id='8511'>0.32730E+02</wgt>
<wgt id='8512'>0.32497E+02</wgt>
<wgt id='8513'>0.32814E+02</wgt>
<wgt id='8514'>0.32642E+02</wgt>
<wgt id='8515'>0.32752E+02</wgt>
<wgt id='8516'>0.32794E+02</wgt>
<wgt id='8517'>0.32760E+02</wgt>
<wgt id='8518'>0.32725E+02</wgt>
<wgt id='8519'>0.32741E+02</wgt>
<wgt id='8520'>0.32640E+02</wgt>
<wgt id='8521'>0.32649E+02</wgt>
<wgt id='8522'>0.32811E+02</wgt>
<wgt id='8523'>0.32657E+02</wgt>
<wgt id='8524'>0.32785E+02</wgt>
<wgt id='8525'>0.32693E+02</wgt>
<wgt id='8526'>0.32701E+02</wgt>
<wgt id='8527'>0.32734E+02</wgt>
<wgt id='8528'>0.32663E+02</wgt>
<wgt id='8529'>0.32695E+02</wgt>
<wgt id='8530'>0.32745E+02</wgt>
<wgt id='8531'>0.32728E+02</wgt>
<wgt id='8532'>0.32729E+02</wgt>
<wgt id='8533'>0.32663E+02</wgt>
<wgt id='8534'>0.32734E+02</wgt>
<wgt id='8535'>0.32804E+02</wgt>
<wgt id='8536'>0.32694E+02</wgt>
<wgt id='8537'>0.32736E+02</wgt>
<wgt id='8538'>0.32714E+02</wgt>
<wgt id='8539'>0.32741E+02</wgt>
<wgt id='8540'>0.32748E+02</wgt>
<wgt id='8541'>0.32750E+02</wgt>
<wgt id='8542'>0.32743E+02</wgt>
<wgt id='8543'>0.32696E+02</wgt>
<wgt id='8544'>0.32774E+02</wgt>
<wgt id='8545'>0.32752E+02</wgt>
<wgt id='8546'>0.32780E+02</wgt>
<wgt id='8547'>0.32705E+02</wgt>
<wgt id='8548'>0.32700E+02</wgt>
<wgt id='8549'>0.32738E+02</wgt>
<wgt id='8550'>0.32730E+02</wgt>
<wgt id='8551'>0.32724E+02</wgt>
<wgt id='8552'>0.32727E+02</wgt>
<wgt id='8553'>0.32698E+02</wgt>
<wgt id='8554'>0.32725E+02</wgt>
<wgt id='8555'>0.32734E+02</wgt>
<wgt id='8556'>0.32724E+02</wgt>
<wgt id='8557'>0.32734E+02</wgt>
<wgt id='8558'>0.32757E+02</wgt>
<wgt id='8559'>0.32718E+02</wgt>
<wgt id='8560'>0.32702E+02</wgt>
<wgt id='8561'>0.32740E+02</wgt>
<wgt id='8562'>0.32715E+02</wgt>
<wgt id='8563'>0.32734E+02</wgt>
<wgt id='8564'>0.32725E+02</wgt>
<wgt id='8565'>0.32741E+02</wgt>
<wgt id='8566'>0.32743E+02</wgt>
<wgt id='8567'>0.32740E+02</wgt>
<wgt id='8568'>0.32750E+02</wgt>
<wgt id='8569'>0.32746E+02</wgt>
<wgt id='8570'>0.32726E+02</wgt>
<wgt id='8571'>0.32705E+02</wgt>
<wgt id='8572'>0.32716E+02</wgt>
<wgt id='8573'>0.32707E+02</wgt>
<wgt id='8574'>0.32739E+02</wgt>
<wgt id='8575'>0.32722E+02</wgt>
<wgt id='8576'>0.32731E+02</wgt>
<wgt id='8577'>0.32716E+02</wgt>
<wgt id='8578'>0.32739E+02</wgt>
<wgt id='8579'>0.32760E+02</wgt>
<wgt id='8580'>0.32718E+02</wgt>
<wgt id='8581'>0.32745E+02</wgt>
<wgt id='8582'>0.32710E+02</wgt>
<wgt id='8583'>0.32749E+02</wgt>
<wgt id='8584'>0.32752E+02</wgt>
<wgt id='8585'>0.32744E+02</wgt>
<wgt id='8586'>0.32763E+02</wgt>
<wgt id='8587'>0.32732E+02</wgt>
<wgt id='8588'>0.32725E+02</wgt>
<wgt id='8589'>0.32732E+02</wgt>
<wgt id='8590'>0.32727E+02</wgt>
<wgt id='8591'>0.32720E+02</wgt>
<wgt id='8592'>0.32728E+02</wgt>
<wgt id='8593'>0.32717E+02</wgt>
<wgt id='8594'>0.32733E+02</wgt>
<wgt id='8595'>0.32733E+02</wgt>
<wgt id='8596'>0.32723E+02</wgt>
<wgt id='8597'>0.32741E+02</wgt>
<wgt id='8598'>0.32744E+02</wgt>
<wgt id='8599'>0.32736E+02</wgt>
<wgt id='8600'>0.32731E+02</wgt>
<wgt id='8601'>0.32027E+02</wgt>
<wgt id='8602'>0.33387E+02</wgt>
<wgt id='9000'>0.31309E+02</wgt>
<wgt id='9001'>0.31398E+02</wgt>
<wgt id='9002'>0.31440E+02</wgt>
<wgt id='9003'>0.31110E+02</wgt>
<wgt id='9004'>0.31288E+02</wgt>
<wgt id='9005'>0.31463E+02</wgt>
<wgt id='9006'>0.31222E+02</wgt>
<wgt id='9007'>0.31281E+02</wgt>
<wgt id='9008'>0.31321E+02</wgt>
<wgt id='9009'>0.31302E+02</wgt>
<wgt id='9010'>0.31281E+02</wgt>
<wgt id='9011'>0.31516E+02</wgt>
<wgt id='9012'>0.31066E+02</wgt>
<wgt id='9013'>0.31050E+02</wgt>
<wgt id='9014'>0.31085E+02</wgt>
<wgt id='9015'>0.31294E+02</wgt>
<wgt id='9016'>0.31352E+02</wgt>
<wgt id='9017'>0.31350E+02</wgt>
<wgt id='9018'>0.31333E+02</wgt>
<wgt id='9019'>0.31305E+02</wgt>
<wgt id='9020'>0.31261E+02</wgt>
<wgt id='9021'>0.31235E+02</wgt>
<wgt id='9022'>0.31362E+02</wgt>
<wgt id='9023'>0.31170E+02</wgt>
<wgt id='9024'>0.31267E+02</wgt>
<wgt id='9025'>0.31386E+02</wgt>
<wgt id='9026'>0.31299E+02</wgt>
<wgt id='9027'>0.31289E+02</wgt>
<wgt id='9028'>0.31333E+02</wgt>
<wgt id='9029'>0.31329E+02</wgt>
<wgt id='9030'>0.31315E+02</wgt>
<wgt id='9031'>0.31281E+02</wgt>
<wgt id='9032'>0.31331E+02</wgt>
<wgt id='9033'>0.31348E+02</wgt>
<wgt id='9034'>0.31314E+02</wgt>
<wgt id='9035'>0.31349E+02</wgt>
<wgt id='9036'>0.31315E+02</wgt>
<wgt id='9037'>0.31331E+02</wgt>
<wgt id='9038'>0.31319E+02</wgt>
<wgt id='9039'>0.31314E+02</wgt>
<wgt id='9040'>0.31286E+02</wgt>
<wgt id='9041'>0.31302E+02</wgt>
<wgt id='9042'>0.31327E+02</wgt>
<wgt id='9043'>0.31282E+02</wgt>
<wgt id='9044'>0.31323E+02</wgt>
<wgt id='9045'>0.31317E+02</wgt>
<wgt id='9046'>0.31270E+02</wgt>
<wgt id='9047'>0.31304E+02</wgt>
<wgt id='9048'>0.31326E+02</wgt>
<wgt id='9049'>0.31292E+02</wgt>
<wgt id='9050'>0.31310E+02</wgt>
<wgt id='9051'>0.31329E+02</wgt>
<wgt id='9052'>0.31336E+02</wgt>
<wgt id='9053'>0.31322E+02</wgt>
<wgt id='9054'>0.31291E+02</wgt>
<wgt id='9055'>0.31295E+02</wgt>
<wgt id='9056'>0.31326E+02</wgt>
<wgt id='9057'>0.31304E+02</wgt>
<wgt id='9058'>0.31285E+02</wgt>
<wgt id='9059'>0.31294E+02</wgt>
<wgt id='9060'>0.31304E+02</wgt>
<wgt id='9061'>0.31304E+02</wgt>
<wgt id='9062'>0.31319E+02</wgt>
<wgt id='9063'>0.31318E+02</wgt>
<wgt id='9064'>0.31315E+02</wgt>
<wgt id='9065'>0.31299E+02</wgt>
<wgt id='9066'>0.31299E+02</wgt>
<wgt id='9067'>0.31311E+02</wgt>
<wgt id='9068'>0.31316E+02</wgt>
<wgt id='9069'>0.31339E+02</wgt>
<wgt id='9070'>0.31303E+02</wgt>
<wgt id='9071'>0.31323E+02</wgt>
<wgt id='9072'>0.31328E+02</wgt>
<wgt id='9073'>0.31304E+02</wgt>
<wgt id='9074'>0.31317E+02</wgt>
<wgt id='9075'>0.31306E+02</wgt>
<wgt id='9076'>0.31309E+02</wgt>
<wgt id='9077'>0.31319E+02</wgt>
<wgt id='9078'>0.31321E+02</wgt>
<wgt id='9079'>0.31297E+02</wgt>
<wgt id='9080'>0.31334E+02</wgt>
<wgt id='9081'>0.31311E+02</wgt>
<wgt id='9082'>0.31315E+02</wgt>
<wgt id='9083'>0.31299E+02</wgt>
<wgt id='9084'>0.31292E+02</wgt>
<wgt id='9085'>0.31291E+02</wgt>
<wgt id='9086'>0.31315E+02</wgt>
<wgt id='9087'>0.31276E+02</wgt>
<wgt id='9088'>0.31295E+02</wgt>
<wgt id='9089'>0.31295E+02</wgt>
<wgt id='9090'>0.31314E+02</wgt>
<wgt id='9091'>0.31304E+02</wgt>
<wgt id='9092'>0.31305E+02</wgt>
<wgt id='9093'>0.31300E+02</wgt>
<wgt id='9094'>0.31304E+02</wgt>
<wgt id='9095'>0.31313E+02</wgt>
<wgt id='9096'>0.31299E+02</wgt>
<wgt id='9097'>0.31313E+02</wgt>
<wgt id='9098'>0.31307E+02</wgt>
<wgt id='9099'>0.31301E+02</wgt>
<wgt id='9100'>0.31308E+02</wgt>
<wgt id='9101'>0.30702E+02</wgt>
<wgt id='9102'>0.31860E+02</wgt>
<wgt id='10000'>0.32731E+02</wgt>
<wgt id='10001'>0.32830E+02</wgt>
<wgt id='10002'>0.32663E+02</wgt>
<wgt id='10003'>0.32712E+02</wgt>
<wgt id='10004'>0.32743E+02</wgt>
<wgt id='10005'>0.33358E+02</wgt>
<wgt id='10006'>0.32674E+02</wgt>
<wgt id='10007'>0.32728E+02</wgt>
<wgt id='10008'>0.32725E+02</wgt>
<wgt id='10009'>0.32641E+02</wgt>
<wgt id='10010'>0.32731E+02</wgt>
<wgt id='10011'>0.32656E+02</wgt>
<wgt id='10012'>0.32696E+02</wgt>
<wgt id='10013'>0.32741E+02</wgt>
<wgt id='10014'>0.32736E+02</wgt>
<wgt id='10015'>0.32746E+02</wgt>
<wgt id='10016'>0.32732E+02</wgt>
<wgt id='10017'>0.32649E+02</wgt>
<wgt id='10018'>0.32760E+02</wgt>
<wgt id='10019'>0.32646E+02</wgt>
<wgt id='10020'>0.32767E+02</wgt>
<wgt id='10021'>0.32728E+02</wgt>
<wgt id='10022'>0.32899E+02</wgt>
<wgt id='10023'>0.32745E+02</wgt>
<wgt id='10024'>0.32710E+02</wgt>
<wgt id='10025'>0.32721E+02</wgt>
<wgt id='10026'>0.32725E+02</wgt>
<wgt id='10027'>0.32722E+02</wgt>
<wgt id='10028'>0.32755E+02</wgt>
<wgt id='10029'>0.32767E+02</wgt>
<wgt id='10030'>0.32710E+02</wgt>
<wgt id='10031'>0.32027E+02</wgt>
<wgt id='10032'>0.33387E+02</wgt>
<wgt id='11000'>0.31307E+02</wgt>
<wgt id='11001'>0.31356E+02</wgt>
<wgt id='11002'>0.31391E+02</wgt>
<wgt id='11003'>0.31295E+02</wgt>
<wgt id='11004'>0.31389E+02</wgt>
<wgt id='11005'>0.31217E+02</wgt>
<wgt id='11006'>0.31300E+02</wgt>
<wgt id='11007'>0.31259E+02</wgt>
<wgt id='11008'>0.31294E+02</wgt>
<wgt id='11009'>0.31176E+02</wgt>
<wgt id='11010'>0.31324E+02</wgt>
<wgt id='11011'>0.31175E+02</wgt>
<wgt id='11012'>0.31325E+02</wgt>
<wgt id='11013'>0.31411E+02</wgt>
<wgt id='11014'>0.31227E+02</wgt>
<wgt id='11015'>0.31277E+02</wgt>
<wgt id='11016'>0.31308E+02</wgt>
<wgt id='11017'>0.31473E+02</wgt>
<wgt id='11018'>0.31310E+02</wgt>
<wgt id='11019'>0.31301E+02</wgt>
<wgt id='11020'>0.31336E+02</wgt>
<wgt id='11021'>0.31391E+02</wgt>
<wgt id='11022'>0.31788E+02</wgt>
<wgt id='11023'>0.31300E+02</wgt>
<wgt id='11024'>0.31304E+02</wgt>
<wgt id='11025'>0.31237E+02</wgt>
<wgt id='11026'>0.31301E+02</wgt>
<wgt id='11027'>0.31313E+02</wgt>
<wgt id='11028'>0.31290E+02</wgt>
<wgt id='11029'>0.31234E+02</wgt>
<wgt id='11030'>0.31313E+02</wgt>
<wgt id='11031'>0.30702E+02</wgt>
<wgt id='11032'>0.31860E+02</wgt>
<wgt id='12000'>0.33627E+02</wgt>
<wgt id='12001'>0.33590E+02</wgt>
<wgt id='12002'>0.33664E+02</wgt>
<wgt id='12003'>0.33680E+02</wgt>
<wgt id='12004'>0.33573E+02</wgt>
<wgt id='12005'>0.33652E+02</wgt>
<wgt id='12006'>0.33601E+02</wgt>
<wgt id='12007'>0.33713E+02</wgt>
<wgt id='12008'>0.33543E+02</wgt>
<wgt id='12009'>0.33645E+02</wgt>
<wgt id='12010'>0.33610E+02</wgt>
<wgt id='12011'>0.33610E+02</wgt>
<wgt id='12012'>0.33650E+02</wgt>
<wgt id='12013'>0.33554E+02</wgt>
<wgt id='12014'>0.33700E+02</wgt>
<wgt id='12015'>0.33605E+02</wgt>
<wgt id='12016'>0.33608E+02</wgt>
<wgt id='12017'>0.33671E+02</wgt>
<wgt id='12018'>0.33580E+02</wgt>
<wgt id='12019'>0.33579E+02</wgt>
<wgt id='12020'>0.33672E+02</wgt>
<wgt id='12021'>0.33746E+02</wgt>
<wgt id='12022'>0.33488E+02</wgt>
<wgt id='12023'>0.33566E+02</wgt>
<wgt id='12024'>0.33608E+02</wgt>
<wgt id='12025'>0.33690E+02</wgt>
<wgt id='12026'>0.33580E+02</wgt>
<wgt id='12027'>0.33552E+02</wgt>
<wgt id='12028'>0.33729E+02</wgt>
<wgt id='12050'>0.33627E+02</wgt>
<wgt id='12051'>0.33653E+02</wgt>
<wgt id='12052'>0.33594E+02</wgt>
<wgt id='12053'>0.33657E+02</wgt>
<wgt id='12054'>0.33603E+02</wgt>
<wgt id='12055'>0.33643E+02</wgt>
<wgt id='12056'>0.33468E+02</wgt>
<wgt id='12057'>0.33523E+02</wgt>
<wgt id='12058'>0.33722E+02</wgt>
<wgt id='12059'>0.33584E+02</wgt>
<wgt id='12060'>0.33675E+02</wgt>
<wgt id='12061'>0.33664E+02</wgt>
<wgt id='12062'>0.33632E+02</wgt>
<wgt id='12063'>0.33468E+02</wgt>
<wgt id='13000'>0.31113E+02</wgt>
<wgt id='13001'>0.31091E+02</wgt>
<wgt id='13002'>0.31132E+02</wgt>
<wgt id='13003'>0.31138E+02</wgt>
<wgt id='13004'>0.31086E+02</wgt>
<wgt id='13005'>0.31149E+02</wgt>
<wgt id='13006'>0.31075E+02</wgt>
<wgt id='13007'>0.31220E+02</wgt>
<wgt id='13008'>0.31007E+02</wgt>
<wgt id='13009'>0.31119E+02</wgt>
<wgt id='13010'>0.31107E+02</wgt>
<wgt id='13011'>0.31147E+02</wgt>
<wgt id='13012'>0.31077E+02</wgt>
<wgt id='13013'>0.31073E+02</wgt>
<wgt id='13014'>0.31150E+02</wgt>
<wgt id='13015'>0.31078E+02</wgt>
<wgt id='13016'>0.31116E+02</wgt>
<wgt id='13017'>0.31111E+02</wgt>
<wgt id='13018'>0.31110E+02</wgt>
<wgt id='13019'>0.31125E+02</wgt>
<wgt id='13020'>0.31099E+02</wgt>
<wgt id='13021'>0.30972E+02</wgt>
<wgt id='13022'>0.31235E+02</wgt>
<wgt id='13023'>0.31079E+02</wgt>
<wgt id='13024'>0.31136E+02</wgt>
<wgt id='13025'>0.31031E+02</wgt>
<wgt id='13026'>0.31141E+02</wgt>
<wgt id='13027'>0.31088E+02</wgt>
<wgt id='13028'>0.31161E+02</wgt>
<wgt id='13050'>0.31113E+02</wgt>
<wgt id='13051'>0.31148E+02</wgt>
<wgt id='13052'>0.31084E+02</wgt>
<wgt id='13053'>0.31153E+02</wgt>
<wgt id='13054'>0.31083E+02</wgt>
<wgt id='13055'>0.30942E+02</wgt>
<wgt id='13056'>0.31243E+02</wgt>
<wgt id='13057'>0.31035E+02</wgt>
<wgt id='13058'>0.31228E+02</wgt>
<wgt id='13059'>0.31085E+02</wgt>
<wgt id='13060'>0.31047E+02</wgt>
<wgt id='13061'>0.31075E+02</wgt>
<wgt id='13062'>0.31241E+02</wgt>
<wgt id='13063'>0.31052E+02</wgt>
<wgt id='14000'>0.32420E+02</wgt>
<wgt id='14001'>0.32415E+02</wgt>
<wgt id='14002'>0.32410E+02</wgt>
<wgt id='14003'>0.32405E+02</wgt>
<wgt id='14004'>0.32400E+02</wgt>
<wgt id='14005'>0.32396E+02</wgt>
<wgt id='14006'>0.32391E+02</wgt>
<wgt id='14007'>0.32386E+02</wgt>
<wgt id='14008'>0.32382E+02</wgt>
<wgt id='14009'>0.32377E+02</wgt>
<wgt id='14010'>0.32372E+02</wgt>
<wgt id='14011'>0.32367E+02</wgt>
<wgt id='14012'>0.32363E+02</wgt>
<wgt id='14013'>0.32358E+02</wgt>
<wgt id='14014'>0.32353E+02</wgt>
<wgt id='14015'>0.32348E+02</wgt>
<wgt id='14016'>0.32344E+02</wgt>
<wgt id='14017'>0.32339E+02</wgt>
<wgt id='14018'>0.32334E+02</wgt>
<wgt id='14019'>0.32330E+02</wgt>
<wgt id='14020'>0.32325E+02</wgt>
<wgt id='14021'>0.32320E+02</wgt>
<wgt id='14022'>0.32315E+02</wgt>
<wgt id='14023'>0.32311E+02</wgt>
<wgt id='14024'>0.32306E+02</wgt>
<wgt id='14025'>0.32301E+02</wgt>
<wgt id='14026'>0.32297E+02</wgt>
<wgt id='14027'>0.32292E+02</wgt>
<wgt id='14028'>0.32287E+02</wgt>
<wgt id='14029'>0.32282E+02</wgt>
<wgt id='14030'>0.32278E+02</wgt>
<wgt id='15000'>0.30950E+02</wgt>
<wgt id='15001'>0.31038E+02</wgt>
<wgt id='15002'>0.31078E+02</wgt>
<wgt id='15003'>0.30755E+02</wgt>
<wgt id='15004'>0.30930E+02</wgt>
<wgt id='15005'>0.31103E+02</wgt>
<wgt id='15006'>0.30865E+02</wgt>
<wgt id='15007'>0.30923E+02</wgt>
<wgt id='15008'>0.30962E+02</wgt>
<wgt id='15009'>0.30944E+02</wgt>
<wgt id='15010'>0.30923E+02</wgt>
<wgt id='15011'>0.31156E+02</wgt>
<wgt id='15012'>0.30710E+02</wgt>
<wgt id='15013'>0.30696E+02</wgt>
<wgt id='15014'>0.30728E+02</wgt>
<wgt id='15015'>0.30933E+02</wgt>
<wgt id='15016'>0.30994E+02</wgt>
<wgt id='15017'>0.30990E+02</wgt>
<wgt id='15018'>0.30974E+02</wgt>
<wgt id='15019'>0.30947E+02</wgt>
<wgt id='15020'>0.30905E+02</wgt>
<wgt id='15021'>0.30875E+02</wgt>
<wgt id='15022'>0.31004E+02</wgt>
<wgt id='15023'>0.30811E+02</wgt>
<wgt id='15024'>0.30908E+02</wgt>
<wgt id='15025'>0.31026E+02</wgt>
<wgt id='15026'>0.30939E+02</wgt>
<wgt id='15027'>0.30931E+02</wgt>
<wgt id='15028'>0.30975E+02</wgt>
<wgt id='15029'>0.30970E+02</wgt>
<wgt id='15030'>0.30956E+02</wgt>
<wgt id='15031'>0.30923E+02</wgt>
<wgt id='15032'>0.30973E+02</wgt>
<wgt id='15033'>0.30989E+02</wgt>
<wgt id='15034'>0.30955E+02</wgt>
<wgt id='15035'>0.30990E+02</wgt>
<wgt id='15036'>0.30956E+02</wgt>
<wgt id='15037'>0.30972E+02</wgt>
<wgt id='15038'>0.30960E+02</wgt>
<wgt id='15039'>0.30955E+02</wgt>
<wgt id='15040'>0.30928E+02</wgt>
<wgt id='15041'>0.30943E+02</wgt>
<wgt id='15042'>0.30967E+02</wgt>
<wgt id='15043'>0.30925E+02</wgt>
<wgt id='15044'>0.30964E+02</wgt>
<wgt id='15045'>0.30958E+02</wgt>
<wgt id='15046'>0.30912E+02</wgt>
<wgt id='15047'>0.30945E+02</wgt>
<wgt id='15048'>0.30967E+02</wgt>
<wgt id='15049'>0.30933E+02</wgt>
<wgt id='15050'>0.30952E+02</wgt>
<wgt id='15051'>0.30970E+02</wgt>
<wgt id='15052'>0.30977E+02</wgt>
<wgt id='15053'>0.30963E+02</wgt>
<wgt id='15054'>0.30933E+02</wgt>
<wgt id='15055'>0.30937E+02</wgt>
<wgt id='15056'>0.30966E+02</wgt>
<wgt id='15057'>0.30945E+02</wgt>
<wgt id='15058'>0.30927E+02</wgt>
<wgt id='15059'>0.30935E+02</wgt>
<wgt id='15060'>0.30946E+02</wgt>
<wgt id='15061'>0.30946E+02</wgt>
<wgt id='15062'>0.30960E+02</wgt>
<wgt id='15063'>0.30959E+02</wgt>
<wgt id='15064'>0.30956E+02</wgt>
<wgt id='15065'>0.30940E+02</wgt>
<wgt id='15066'>0.30941E+02</wgt>
<wgt id='15067'>0.30952E+02</wgt>
<wgt id='15068'>0.30958E+02</wgt>
<wgt id='15069'>0.30980E+02</wgt>
<wgt id='15070'>0.30944E+02</wgt>
<wgt id='15071'>0.30965E+02</wgt>
<wgt id='15072'>0.30969E+02</wgt>
<wgt id='15073'>0.30945E+02</wgt>
<wgt id='15074'>0.30958E+02</wgt>
<wgt id='15075'>0.30948E+02</wgt>
<wgt id='15076'>0.30951E+02</wgt>
<wgt id='15077'>0.30960E+02</wgt>
<wgt id='15078'>0.30963E+02</wgt>
<wgt id='15079'>0.30938E+02</wgt>
<wgt id='15080'>0.30975E+02</wgt>
<wgt id='15081'>0.30953E+02</wgt>
<wgt id='15082'>0.30957E+02</wgt>
<wgt id='15083'>0.30941E+02</wgt>
<wgt id='15084'>0.30933E+02</wgt>
<wgt id='15085'>0.30933E+02</wgt>
<wgt id='15086'>0.30956E+02</wgt>
<wgt id='15087'>0.30917E+02</wgt>
<wgt id='15088'>0.30937E+02</wgt>
<wgt id='15089'>0.30936E+02</wgt>
<wgt id='15090'>0.30955E+02</wgt>
<wgt id='15091'>0.30945E+02</wgt>
<wgt id='15092'>0.30946E+02</wgt>
<wgt id='15093'>0.30941E+02</wgt>
<wgt id='15094'>0.30945E+02</wgt>
<wgt id='15095'>0.30955E+02</wgt>
<wgt id='15096'>0.30940E+02</wgt>
<wgt id='15097'>0.30954E+02</wgt>
<wgt id='15098'>0.30948E+02</wgt>
<wgt id='15099'>0.30942E+02</wgt>
<wgt id='15100'>0.30950E+02</wgt>
<wgt id='15101'>0.30950E+02</wgt>
<wgt id='15102'>0.30948E+02</wgt>
<wgt id='15103'>0.30950E+02</wgt>
<wgt id='15104'>0.30950E+02</wgt>
<wgt id='15105'>0.30951E+02</wgt>
<wgt id='15106'>0.30950E+02</wgt>
<wgt id='15107'>0.30949E+02</wgt>
<wgt id='1500'>0.32630E+02</wgt>
<wgt id='1501'>0.30230E+02</wgt>
<wgt id='1502'>0.32858E+02</wgt>
<wgt id='1503'>0.32452E+02</wgt>
<wgt id='1504'>0.32451E+02</wgt>
<wgt id='1505'>0.29274E+02</wgt>
<wgt id='1506'>0.32753E+02</wgt>
<wgt id='1507'>0.32877E+02</wgt>
<wgt id='1508'>0.32538E+02</wgt>
<wgt id='1509'>0.32683E+02</wgt>
<wgt id='1510'>0.31752E+02</wgt>
<wgt id='1511'>0.32525E+02</wgt>
<wgt id='1512'>0.33060E+02</wgt>
<wgt id='1513'>0.33307E+02</wgt>
<wgt id='1514'>0.32165E+02</wgt>
<wgt id='1515'>0.32780E+02</wgt>
<wgt id='1516'>0.32901E+02</wgt>
<wgt id='1517'>0.32964E+02</wgt>
<wgt id='1518'>0.32481E+02</wgt>
<wgt id='1519'>0.32712E+02</wgt>
<wgt id='1520'>0.32727E+02</wgt>
<wgt id='1521'>0.32726E+02</wgt>
<wgt id='1522'>0.31935E+02</wgt>
<wgt id='1523'>0.34430E+02</wgt>
<wgt id='1524'>0.32082E+02</wgt>
<wgt id='1525'>0.32963E+02</wgt>
<wgt id='1526'>0.32085E+02</wgt>
<wgt id='1527'>0.33041E+02</wgt>
<wgt id='1528'>0.32769E+02</wgt>
<wgt id='1529'>0.32414E+02</wgt>
<wgt id='1530'>0.32898E+02</wgt>
<wgt id='1531'>0.32357E+02</wgt>
<wgt id='1532'>0.32045E+02</wgt>
<wgt id='1533'>0.33186E+02</wgt>
<wgt id='1534'>0.32515E+02</wgt>
<wgt id='1535'>0.33699E+02</wgt>
<wgt id='1536'>0.33320E+02</wgt>
<wgt id='1537'>0.33043E+02</wgt>
<wgt id='1538'>0.32136E+02</wgt>
<wgt id='1539'>0.31554E+02</wgt>
<wgt id='1540'>0.32875E+02</wgt>
<wgt id='1541'>0.32282E+02</wgt>
<wgt id='1542'>0.33173E+02</wgt>
<wgt id='1543'>0.32744E+02</wgt>
<wgt id='1544'>0.32331E+02</wgt>
<wgt id='1545'>0.32746E+02</wgt>
<wgt id='1546'>0.32289E+02</wgt>
<wgt id='1547'>0.32438E+02</wgt>
<wgt id='1548'>0.32277E+02</wgt>
<wgt id='1549'>0.32940E+02</wgt>
<wgt id='1550'>0.32698E+02</wgt>
<wgt id='1551'>0.32608E+02</wgt>
<wgt id='1552'>0.32473E+02</wgt>
<wgt id='1553'>0.32947E+02</wgt>
<wgt id='1554'>0.33101E+02</wgt>
<wgt id='1555'>0.32737E+02</wgt>
<wgt id='1556'>0.32125E+02</wgt>
<wgt id='1557'>0.33602E+02</wgt>
<wgt id='1558'>0.32443E+02</wgt>
<wgt id='1559'>0.32828E+02</wgt>
<wgt id='1560'>0.32379E+02</wgt>
<wgt id='1561'>0.32866E+02</wgt>
<wgt id='1562'>0.32444E+02</wgt>
<wgt id='1563'>0.33500E+02</wgt>
<wgt id='1564'>0.32576E+02</wgt>
<wgt id='1565'>0.33326E+02</wgt>
<wgt id='1566'>0.32579E+02</wgt>
<wgt id='1567'>0.33788E+02</wgt>
<wgt id='1568'>0.32328E+02</wgt>
<wgt id='1569'>0.32419E+02</wgt>
<wgt id='1570'>0.32954E+02</wgt>
<wgt id='1571'>0.32921E+02</wgt>
<wgt id='1572'>0.32329E+02</wgt>
<wgt id='1573'>0.30900E+02</wgt>
<wgt id='1574'>0.33173E+02</wgt>
<wgt id='1575'>0.32335E+02</wgt>
<wgt id='1576'>0.31715E+02</wgt>
<wgt id='1577'>0.32643E+02</wgt>
<wgt id='1578'>0.34020E+02</wgt>
<wgt id='1579'>0.32488E+02</wgt>
<wgt id='1580'>0.32750E+02</wgt>
<wgt id='1581'>0.32561E+02</wgt>
<wgt id='1582'>0.32331E+02</wgt>
<wgt id='1583'>0.32774E+02</wgt>
<wgt id='1584'>0.32643E+02</wgt>
<wgt id='1585'>0.31999E+02</wgt>
<wgt id='1586'>0.32775E+02</wgt>
<wgt id='1587'>0.32677E+02</wgt>
<wgt id='1588'>0.32896E+02</wgt>
<wgt id='1589'>0.33250E+02</wgt>
<wgt id='1590'>0.32511E+02</wgt>
<wgt id='1591'>0.31900E+02</wgt>
<wgt id='1592'>0.33114E+02</wgt>
<wgt id='1593'>0.32485E+02</wgt>
<wgt id='1594'>0.33199E+02</wgt>
<wgt id='1595'>0.32537E+02</wgt>
<wgt id='1596'>0.33051E+02</wgt>
<wgt id='1597'>0.32850E+02</wgt>
<wgt id='1598'>0.33280E+02</wgt>
<wgt id='1599'>0.33569E+02</wgt>
<wgt id='1600'>0.32588E+02</wgt>
<wgt id='1601'>0.32044E+02</wgt>
<wgt id='1602'>0.33008E+02</wgt>
<wgt id='1700'>0.31314E+02</wgt>
<wgt id='1800'>0.36357E+02</wgt>
<wgt id='1850'>0.43780E+02</wgt>
<wgt id='1900'>0.36206E+02</wgt>
<wgt id='1950'>0.42719E+02</wgt>
</rwgt>
</event>
<event>
      4   9999  3.15120E+01  5.23245E+00 -1.00000E+00  2.29218E-01
       2    -1     0     0   502     0  0.000000000E+00  0.000000000E+00  5.120514874E+01  5.120514874E+01  0.000000000E+00  0.00000E+00  9.000E+00
      21    -1     0     0   501   502  0.000000000E+00  0.000000000E+00 -2.335124259E+02  2.335124259E+02  0.000000000E+00  0.00000E+00  9.000E+00
      25     1     1     2     0     0  2.155391935E+00 -4.767889252E+00 -2.178619692E+02  2.487799257E+02  1.200009806E+02  0.00000E+00  9.000E+00
       2     1     1     2   501     0 -2.155391935E+00  4.767889252E+00  3.555469205E+01  3.593764891E+01  8.259061849E-07  0.00000E+00  9.000E+00
#rwgt            1           1   23.637329413722835                2        1195           0
<rwgt>
<wgt id='1001'>0.31512E+02</wgt>
<wgt id='1002'>0.31505E+02</wgt>
<wgt id='1003'>0.31177E+02</wgt>
<wgt id='1004'>0.28728E+02</wgt>
<wgt id='1005'>0.28934E+02</wgt>
<wgt id='1006'>0.28173E+02</wgt>
<wgt id='1007'>0.34079E+02</wgt>
<wgt id='1008'>0.33685E+02</wgt>
<wgt id='1009'>0.34170E+02</wgt>
<wgt id='2000'>0.31512E+02</wgt>
<wgt id='2001'>0.31457E+02</wgt>
<wgt id='2002'>0.31595E+02</wgt>
<wgt id='2003'>0.31571E+02</wgt>
<wgt id='2004'>0.31525E+02</wgt>
<wgt id='2005'>0.31482E+02</wgt>
<wgt id='2006'>0.31472E+02</wgt>
<wgt id='2007'>0.31453E+02</wgt>
<wgt id='2008'>0.31529E+02</wgt>
<wgt id='2009'>0.31494E+02</wgt>
<wgt id='2010'>0.31476E+02</wgt>
<wgt id='2011'>0.31608E+02</wgt>
<wgt id='2012'>0.31611E+02</wgt>
<wgt id='2013'>0.31615E+02</wgt>
<wgt id='2014'>0.31597E+02</wgt>
<wgt id='2015'>0.31578E+02</wgt>
<wgt id='2016'>0.31529E+02</wgt>
<wgt id='2017'>0.31512E+02</wgt>
<wgt id='2018'>0.31582E+02</wgt>
<wgt id='2019'>0.31506E+02</wgt>
<wgt id='2020'>0.31648E+02</wgt>
<wgt id='2021'>0.31447E+02</wgt>
<wgt id='2022'>0.31647E+02</wgt>
<wgt id='2023'>0.31585E+02</wgt>
<wgt id='2024'>0.31514E+02</wgt>
<wgt id='2025'>0.31674E+02</wgt>
<wgt id='2026'>0.31618E+02</wgt>
<wgt id='2027'>0.31475E+02</wgt>
<wgt id='2028'>0.31443E+02</wgt>
<wgt id='2029'>0.31522E+02</wgt>
<wgt id='2030'>0.31520E+02</wgt>
<wgt id='2031'>0.31547E+02</wgt>
<wgt id='2032'>0.31482E+02</wgt>
<wgt id='2033'>0.31512E+02</wgt>
<wgt id='2034'>0.31538E+02</wgt>
<wgt id='2035'>0.31511E+02</wgt>
<wgt id='2036'>0.31534E+02</wgt>
<wgt id='2037'>0.31521E+02</wgt>
<wgt id='2038'>0.31519E+02</wgt>
<wgt id='2039'>0.31503E+02</wgt>
<wgt id='2040'>0.31531E+02</wgt>
<wgt id='2041'>0.31526E+02</wgt>
<wgt id='2042'>0.31491E+02</wgt>
<wgt id='2043'>0.31523E+02</wgt>
<wgt id='2044'>0.31526E+02</wgt>
<wgt id='2045'>0.31512E+02</wgt>
<wgt id='2046'>0.31513E+02</wgt>
<wgt id='2047'>0.31527E+02</wgt>
<wgt id='2048'>0.31511E+02</wgt>
<wgt id='2049'>0.31512E+02</wgt>
<wgt id='2050'>0.31512E+02</wgt>
<wgt id='2051'>0.31531E+02</wgt>
<wgt id='2052'>0.31511E+02</wgt>
<wgt id='2053'>0.31509E+02</wgt>
<wgt id='2054'>0.31506E+02</wgt>
<wgt id='2055'>0.31512E+02</wgt>
<wgt id='2056'>0.31513E+02</wgt>
<wgt id='2057'>0.31516E+02</wgt>
<wgt id='2058'>0.31521E+02</wgt>
<wgt id='2059'>0.31510E+02</wgt>
<wgt id='2060'>0.31514E+02</wgt>
<wgt id='2061'>0.31502E+02</wgt>
<wgt id='2062'>0.31508E+02</wgt>
<wgt id='2063'>0.31516E+02</wgt>
<wgt id='2064'>0.31504E+02</wgt>
<wgt id='2065'>0.31518E+02</wgt>
<wgt id='2066'>0.31507E+02</wgt>
<wgt id='2067'>0.31510E+02</wgt>
<wgt id='2068'>0.31515E+02</wgt>
<wgt id='2069'>0.31512E+02</wgt>
<wgt id='2070'>0.31509E+02</wgt>
<wgt id='2071'>0.31504E+02</wgt>
<wgt id='2072'>0.31515E+02</wgt>
<wgt id='2073'>0.31512E+02</wgt>
<wgt id='2074'>0.31510E+02</wgt>
<wgt id='2075'>0.31510E+02</wgt>
<wgt id='2076'>0.31511E+02</wgt>
<wgt id='2077'>0.31510E+02</wgt>
<wgt id='2078'>0.31511E+02</wgt>
<wgt id='2079'>0.31512E+02</wgt>
<wgt id='2080'>0.31514E+02</wgt>
<wgt id='2081'>0.31514E+02</wgt>
<wgt id='2082'>0.31514E+02</wgt>
<wgt id='2083'>0.31514E+02</wgt>
<wgt id='2084'>0.31514E+02</wgt>
<wgt id='2085'>0.31514E+02</wgt>
<wgt id='2086'>0.31507E+02</wgt>
<wgt id='2087'>0.31509E+02</wgt>
<wgt id='2088'>0.31514E+02</wgt>
<wgt id='2089'>0.31508E+02</wgt>
<wgt id='2090'>0.31511E+02</wgt>
<wgt id='2091'>0.31513E+02</wgt>
<wgt id='2092'>0.31512E+02</wgt>
<wgt id='2093'>0.31511E+02</wgt>
<wgt id='2094'>0.31515E+02</wgt>
<wgt id='2095'>0.31515E+02</wgt>
<wgt id='2096'>0.31512E+02</wgt>
<wgt id='2097'>0.31513E+02</wgt>
<wgt id='2098'>0.31513E+02</wgt>
<wgt id='2099'>0.31510E+02</wgt>
<wgt id='2100'>0.31513E+02</wgt>
<wgt id='2101'>0.30822E+02</wgt>
<wgt id='2102'>0.32110E+02</wgt>
<wgt id='2104'>0.28403E+02</wgt>
<wgt id='2105'>0.28951E+02</wgt>
<wgt id='2106'>0.29618E+02</wgt>
<wgt id='2107'>0.30294E+02</wgt>
<wgt id='2108'>0.31221E+02</wgt>
<wgt id='2109'>0.31871E+02</wgt>
<wgt id='2110'>0.32629E+02</wgt>
<wgt id='2111'>0.33240E+02</wgt>
<wgt id='3000'>0.32856E+02</wgt>
<wgt id='3001'>0.32932E+02</wgt>
<wgt id='3002'>0.32771E+02</wgt>
<wgt id='3003'>0.32927E+02</wgt>
<wgt id='3004'>0.32895E+02</wgt>
<wgt id='3005'>0.32936E+02</wgt>
<wgt id='3006'>0.32875E+02</wgt>
<wgt id='3007'>0.32860E+02</wgt>
<wgt id='3008'>0.32805E+02</wgt>
<wgt id='3009'>0.32755E+02</wgt>
<wgt id='3010'>0.32785E+02</wgt>
<wgt id='3011'>0.32911E+02</wgt>
<wgt id='3012'>0.32993E+02</wgt>
<wgt id='3013'>0.32739E+02</wgt>
<wgt id='3014'>0.32914E+02</wgt>
<wgt id='3015'>0.32874E+02</wgt>
<wgt id='3016'>0.32876E+02</wgt>
<wgt id='3017'>0.32920E+02</wgt>
<wgt id='3018'>0.32933E+02</wgt>
<wgt id='3019'>0.32768E+02</wgt>
<wgt id='3020'>0.32743E+02</wgt>
<wgt id='3021'>0.32717E+02</wgt>
<wgt id='3022'>0.32849E+02</wgt>
<wgt id='3023'>0.32763E+02</wgt>
<wgt id='3024'>0.32729E+02</wgt>
<wgt id='3025'>0.32850E+02</wgt>
<wgt id='3026'>0.32956E+02</wgt>
<wgt id='3027'>0.32859E+02</wgt>
<wgt id='3028'>0.32714E+02</wgt>
<wgt id='3029'>0.32829E+02</wgt>
<wgt id='3030'>0.32875E+02</wgt>
<wgt id='3031'>0.32866E+02</wgt>
<wgt id='3032'>0.32911E+02</wgt>
<wgt id='3033'>0.32903E+02</wgt>
<wgt id='3034'>0.32890E+02</wgt>
<wgt id='3035'>0.32875E+02</wgt>
<wgt id='3036'>0.32856E+02</wgt>
<wgt id='3037'>0.32859E+02</wgt>
<wgt id='3038'>0.32856E+02</wgt>
<wgt id='3039'>0.32821E+02</wgt>
<wgt id='3040'>0.32867E+02</wgt>
<wgt id='3041'>0.32873E+02</wgt>
<wgt id='3042'>0.32834E+02</wgt>
<wgt id='3043'>0.32841E+02</wgt>
<wgt id='3044'>0.32852E+02</wgt>
<wgt id='3045'>0.32870E+02</wgt>
<wgt id='3046'>0.32864E+02</wgt>
<wgt id='3047'>0.32852E+02</wgt>
<wgt id='3048'>0.32872E+02</wgt>
<wgt id='3049'>0.32855E+02</wgt>
<wgt id='3050'>0.32863E+02</wgt>
<wgt id='3051'>0.32872E+02</wgt>
<wgt id='3052'>0.32846E+02</wgt>
<wgt id='3053'>0.32847E+02</wgt>
<wgt id='3054'>0.32849E+02</wgt>
<wgt id='3055'>0.32843E+02</wgt>
<wgt id='3056'>0.32857E+02</wgt>
<wgt id='3057'>0.32840E+02</wgt>
<wgt id='3058'>0.32848E+02</wgt>
<wgt id='3059'>0.32853E+02</wgt>
<wgt id='3060'>0.32858E+02</wgt>
<wgt id='3061'>0.32852E+02</wgt>
<wgt id='3062'>0.32858E+02</wgt>
<wgt id='3063'>0.32868E+02</wgt>
<wgt id='3064'>0.32853E+02</wgt>
<wgt id='3065'>0.32859E+02</wgt>
<wgt id='3066'>0.32859E+02</wgt>
<wgt id='3067'>0.32851E+02</wgt>
<wgt id='3068'>0.32856E+02</wgt>
<wgt id='3069'>0.32852E+02</wgt>
<wgt id='3070'>0.32857E+02</wgt>
<wgt id='3071'>0.32856E+02</wgt>
<wgt id='3072'>0.32857E+02</wgt>
<wgt id='3073'>0.32849E+02</wgt>
<wgt id='3074'>0.32862E+02</wgt>
<wgt id='3075'>0.32855E+02</wgt>
<wgt id='3076'>0.32854E+02</wgt>
<wgt id='3077'>0.32857E+02</wgt>
<wgt id='3078'>0.32858E+02</wgt>
<wgt id='3079'>0.32855E+02</wgt>
<wgt id='3080'>0.32852E+02</wgt>
<wgt id='3081'>0.32855E+02</wgt>
<wgt id='3082'>0.32853E+02</wgt>
<wgt id='3083'>0.32855E+02</wgt>
<wgt id='3084'>0.32854E+02</wgt>
<wgt id='3085'>0.32857E+02</wgt>
<wgt id='3086'>0.32854E+02</wgt>
<wgt id='3087'>0.32852E+02</wgt>
<wgt id='3088'>0.32855E+02</wgt>
<wgt id='3089'>0.32855E+02</wgt>
<wgt id='3090'>0.32857E+02</wgt>
<wgt id='3091'>0.32857E+02</wgt>
<wgt id='3092'>0.32856E+02</wgt>
<wgt id='3093'>0.32857E+02</wgt>
<wgt id='3094'>0.32860E+02</wgt>
<wgt id='3095'>0.32856E+02</wgt>
<wgt id='3096'>0.32856E+02</wgt>
<wgt id='3097'>0.32852E+02</wgt>
<wgt id='3098'>0.32856E+02</wgt>
<wgt id='3099'>0.32856E+02</wgt>
<wgt id='3100'>0.32858E+02</wgt>
<wgt id='3101'>0.32141E+02</wgt>
<wgt id='3102'>0.33651E+02</wgt>
<wgt id='5000'>0.30338E+02</wgt>
<wgt id='5001'>0.30260E+02</wgt>
<wgt id='5002'>0.30266E+02</wgt>
<wgt id='5003'>0.30212E+02</wgt>
<wgt id='5004'>0.30318E+02</wgt>
<wgt id='5005'>0.29832E+02</wgt>
<wgt id='5006'>0.30463E+02</wgt>
<wgt id='5007'>0.30332E+02</wgt>
<wgt id='5008'>0.30121E+02</wgt>
<wgt id='5009'>0.30603E+02</wgt>
<wgt id='5010'>0.30186E+02</wgt>
<wgt id='5011'>0.30299E+02</wgt>
<wgt id='5012'>0.30312E+02</wgt>
<wgt id='5013'>0.29744E+02</wgt>
<wgt id='5014'>0.30497E+02</wgt>
<wgt id='5015'>0.30553E+02</wgt>
<wgt id='5016'>0.29680E+02</wgt>
<wgt id='5017'>0.30320E+02</wgt>
<wgt id='5018'>0.30359E+02</wgt>
<wgt id='5019'>0.30293E+02</wgt>
<wgt id='5020'>0.30386E+02</wgt>
<wgt id='5021'>0.30426E+02</wgt>
<wgt id='5022'>0.30281E+02</wgt>
<wgt id='5023'>0.30231E+02</wgt>
<wgt id='5024'>0.30447E+02</wgt>
<wgt id='5025'>0.30314E+02</wgt>
<wgt id='5026'>0.30357E+02</wgt>
<wgt id='5027'>0.30648E+02</wgt>
<wgt id='5028'>0.29815E+02</wgt>
<wgt id='5029'>0.29758E+02</wgt>
<wgt id='5030'>0.30688E+02</wgt>
<wgt id='5031'>0.29999E+02</wgt>
<wgt id='5032'>0.30828E+02</wgt>
<wgt id='5033'>0.30153E+02</wgt>
<wgt id='5034'>0.30491E+02</wgt>
<wgt id='5035'>0.29949E+02</wgt>
<wgt id='5036'>0.30658E+02</wgt>
<wgt id='5037'>0.30174E+02</wgt>
<wgt id='5038'>0.30507E+02</wgt>
<wgt id='5039'>0.30885E+02</wgt>
<wgt id='5040'>0.30061E+02</wgt>
<wgt id='5041'>0.30107E+02</wgt>
<wgt id='5042'>0.30349E+02</wgt>
<wgt id='5043'>0.30532E+02</wgt>
<wgt id='5044'>0.29631E+02</wgt>
<wgt id='5045'>0.31151E+02</wgt>
<wgt id='5046'>0.30077E+02</wgt>
<wgt id='5047'>0.30548E+02</wgt>
<wgt id='5048'>0.30490E+02</wgt>
<wgt id='5049'>0.30355E+02</wgt>
<wgt id='5050'>0.30388E+02</wgt>
<wgt id='5051'>0.30394E+02</wgt>
<wgt id='5052'>0.30329E+02</wgt>
<wgt id='5053'>0.29975E+02</wgt>
<wgt id='5054'>0.30555E+02</wgt>
<wgt id='5055'>0.30138E+02</wgt>
<wgt id='5056'>0.30614E+02</wgt>
<wgt id='5060'>0.29636E+02</wgt>
<wgt id='5070'>0.30970E+02</wgt>
<wgt id='4000'>0.31834E+02</wgt>
<wgt id='4001'>0.31859E+02</wgt>
<wgt id='4002'>0.31908E+02</wgt>
<wgt id='4003'>0.32218E+02</wgt>
<wgt id='4004'>0.31633E+02</wgt>
<wgt id='4005'>0.31918E+02</wgt>
<wgt id='4006'>0.31764E+02</wgt>
<wgt id='4007'>0.32121E+02</wgt>
<wgt id='4008'>0.31733E+02</wgt>
<wgt id='4009'>0.31279E+02</wgt>
<wgt id='4010'>0.32103E+02</wgt>
<wgt id='4011'>0.32316E+02</wgt>
<wgt id='4012'>0.31552E+02</wgt>
<wgt id='4013'>0.30740E+02</wgt>
<wgt id='4014'>0.32452E+02</wgt>
<wgt id='4015'>0.32196E+02</wgt>
<wgt id='4016'>0.31602E+02</wgt>
<wgt id='4017'>0.31460E+02</wgt>
<wgt id='4018'>0.32279E+02</wgt>
<wgt id='4019'>0.32235E+02</wgt>
<wgt id='4020'>0.31387E+02</wgt>
<wgt id='4021'>0.31905E+02</wgt>
<wgt id='4022'>0.31677E+02</wgt>
<wgt id='4023'>0.31692E+02</wgt>
<wgt id='4024'>0.31956E+02</wgt>
<wgt id='4025'>0.31532E+02</wgt>
<wgt id='4026'>0.32107E+02</wgt>
<wgt id='4027'>0.31737E+02</wgt>
<wgt id='4028'>0.31963E+02</wgt>
<wgt id='4029'>0.31599E+02</wgt>
<wgt id='4030'>0.31916E+02</wgt>
<wgt id='4031'>0.31895E+02</wgt>
<wgt id='4032'>0.31755E+02</wgt>
<wgt id='4033'>0.31778E+02</wgt>
<wgt id='4034'>0.31954E+02</wgt>
<wgt id='4035'>0.32226E+02</wgt>
<wgt id='4036'>0.31460E+02</wgt>
<wgt id='4037'>0.32065E+02</wgt>
<wgt id='4038'>0.31444E+02</wgt>
<wgt id='4039'>0.31807E+02</wgt>
<wgt id='4040'>0.31805E+02</wgt>
<wgt id='4041'>0.32057E+02</wgt>
<wgt id='4042'>0.31634E+02</wgt>
<wgt id='4043'>0.32095E+02</wgt>
<wgt id='4044'>0.31631E+02</wgt>
<wgt id='4045'>0.31320E+02</wgt>
<wgt id='4046'>0.31793E+02</wgt>
<wgt id='4047'>0.31579E+02</wgt>
<wgt id='4048'>0.31829E+02</wgt>
<wgt id='4049'>0.31664E+02</wgt>
<wgt id='4050'>0.31472E+02</wgt>
<wgt id='4051'>0.31761E+02</wgt>
<wgt id='4052'>0.31786E+02</wgt>
<wgt id='4053'>0.30976E+02</wgt>
<wgt id='4054'>0.31945E+02</wgt>
<wgt id='4055'>0.31614E+02</wgt>
<wgt id='4056'>0.32126E+02</wgt>
<wgt id='4060'>0.31006E+02</wgt>
<wgt id='4070'>0.32611E+02</wgt>
<wgt id='4080'>0.31916E+02</wgt>
<wgt id='6000'>0.32305E+02</wgt>
<wgt id='6001'>0.32333E+02</wgt>
<wgt id='6002'>0.32274E+02</wgt>
<wgt id='6003'>0.32320E+02</wgt>
<wgt id='6004'>0.32294E+02</wgt>
<wgt id='6005'>0.32372E+02</wgt>
<wgt id='6006'>0.32240E+02</wgt>
<wgt id='6007'>0.32176E+02</wgt>
<wgt id='6008'>0.32448E+02</wgt>
<wgt id='6009'>0.32431E+02</wgt>
<wgt id='6010'>0.32181E+02</wgt>
<wgt id='6011'>0.32380E+02</wgt>
<wgt id='6012'>0.32144E+02</wgt>
<wgt id='6013'>0.32265E+02</wgt>
<wgt id='6014'>0.32374E+02</wgt>
<wgt id='6015'>0.32205E+02</wgt>
<wgt id='6016'>0.32360E+02</wgt>
<wgt id='6017'>0.32104E+02</wgt>
<wgt id='6018'>0.32542E+02</wgt>
<wgt id='6019'>0.32335E+02</wgt>
<wgt id='6020'>0.32277E+02</wgt>
<wgt id='6021'>0.32230E+02</wgt>
<wgt id='6022'>0.32406E+02</wgt>
<wgt id='6023'>0.32065E+02</wgt>
<wgt id='6024'>0.32474E+02</wgt>
<wgt id='6025'>0.32080E+02</wgt>
<wgt id='6026'>0.32441E+02</wgt>
<wgt id='6027'>0.32398E+02</wgt>
<wgt id='6028'>0.32305E+02</wgt>
<wgt id='6029'>0.32458E+02</wgt>
<wgt id='6030'>0.32126E+02</wgt>
<wgt id='6031'>0.32306E+02</wgt>
<wgt id='6032'>0.32289E+02</wgt>
<wgt id='6033'>0.32375E+02</wgt>
<wgt id='6034'>0.32232E+02</wgt>
<wgt id='6035'>0.32298E+02</wgt>
<wgt id='6036'>0.32383E+02</wgt>
<wgt id='6037'>0.32366E+02</wgt>
<wgt id='6038'>0.32302E+02</wgt>
<wgt id='6039'>0.32261E+02</wgt>
<wgt id='6040'>0.32351E+02</wgt>
<wgt id='6041'>0.32238E+02</wgt>
<wgt id='6042'>0.32388E+02</wgt>
<wgt id='6043'>0.32753E+02</wgt>
<wgt id='6044'>0.32113E+02</wgt>
<wgt id='6045'>0.32279E+02</wgt>
<wgt id='6046'>0.32373E+02</wgt>
<wgt id='6047'>0.32425E+02</wgt>
<wgt id='6048'>0.31939E+02</wgt>
<wgt id='6049'>0.32369E+02</wgt>
<wgt id='6050'>0.32259E+02</wgt>
<wgt id='7000'>0.30440E+02</wgt>
<wgt id='7001'>0.30447E+02</wgt>
<wgt id='7002'>0.30431E+02</wgt>
<wgt id='7003'>0.30532E+02</wgt>
<wgt id='7004'>0.30347E+02</wgt>
<wgt id='7005'>0.30495E+02</wgt>
<wgt id='7006'>0.30417E+02</wgt>
<wgt id='7007'>0.30315E+02</wgt>
<wgt id='7008'>0.30563E+02</wgt>
<wgt id='7009'>0.30500E+02</wgt>
<wgt id='7010'>0.30380E+02</wgt>
<wgt id='7011'>0.30123E+02</wgt>
<wgt id='7012'>0.30575E+02</wgt>
<wgt id='7013'>0.30438E+02</wgt>
<wgt id='7014'>0.30440E+02</wgt>
<wgt id='7015'>0.30345E+02</wgt>
<wgt id='7016'>0.30540E+02</wgt>
<wgt id='7017'>0.30295E+02</wgt>
<wgt id='7018'>0.30516E+02</wgt>
<wgt id='7019'>0.30403E+02</wgt>
<wgt id='7020'>0.30489E+02</wgt>
<wgt id='7021'>0.30430E+02</wgt>
<wgt id='7022'>0.30445E+02</wgt>
<wgt id='7023'>0.30715E+02</wgt>
<wgt id='7024'>0.30159E+02</wgt>
<wgt id='7025'>0.30556E+02</wgt>
<wgt id='7026'>0.30153E+02</wgt>
<wgt id='7027'>0.30567E+02</wgt>
<wgt id='7028'>0.30392E+02</wgt>
<wgt id='7029'>0.30335E+02</wgt>
<wgt id='7030'>0.30694E+02</wgt>
<wgt id='7031'>0.30424E+02</wgt>
<wgt id='7032'>0.30481E+02</wgt>
<wgt id='7033'>0.30411E+02</wgt>
<wgt id='7034'>0.30514E+02</wgt>
<wgt id='7035'>0.30486E+02</wgt>
<wgt id='7036'>0.30436E+02</wgt>
<wgt id='7037'>0.30451E+02</wgt>
<wgt id='7038'>0.30453E+02</wgt>
<wgt id='7039'>0.30391E+02</wgt>
<wgt id='7040'>0.30474E+02</wgt>
<wgt id='7041'>0.30378E+02</wgt>
<wgt id='7042'>0.30497E+02</wgt>
<wgt id='7043'>0.30465E+02</wgt>
<wgt id='7044'>0.30291E+02</wgt>
<wgt id='7045'>0.30154E+02</wgt>
<wgt id='7046'>0.30578E+02</wgt>
<wgt id='7047'>0.30506E+02</wgt>
<wgt id='7048'>0.30403E+02</wgt>
<wgt id='7049'>0.30370E+02</wgt>
<wgt id='7050'>0.30446E+02</wgt>
<wgt id='7060'>0.46475E+02</wgt>
<wgt id='8000'>0.30817E+02</wgt>
<wgt id='8001'>0.30810E+02</wgt>
<wgt id='8002'>0.30827E+02</wgt>
<wgt id='8003'>0.30820E+02</wgt>
<wgt id='8004'>0.30816E+02</wgt>
<wgt id='8005'>0.30738E+02</wgt>
<wgt id='8006'>0.30803E+02</wgt>
<wgt id='8007'>0.30783E+02</wgt>
<wgt id='8008'>0.30877E+02</wgt>
<wgt id='8009'>0.30941E+02</wgt>
<wgt id='8010'>0.30816E+02</wgt>
<wgt id='8011'>0.30803E+02</wgt>
<wgt id='8012'>0.30774E+02</wgt>
<wgt id='8013'>0.30808E+02</wgt>
<wgt id='8014'>0.30811E+02</wgt>
<wgt id='8015'>0.30793E+02</wgt>
<wgt id='8016'>0.30830E+02</wgt>
<wgt id='8017'>0.30829E+02</wgt>
<wgt id='8018'>0.30824E+02</wgt>
<wgt id='8019'>0.30867E+02</wgt>
<wgt id='8020'>0.30724E+02</wgt>
<wgt id='8021'>0.30819E+02</wgt>
<wgt id='8022'>0.30647E+02</wgt>
<wgt id='8023'>0.30843E+02</wgt>
<wgt id='8024'>0.30864E+02</wgt>
<wgt id='8025'>0.30913E+02</wgt>
<wgt id='8026'>0.30880E+02</wgt>
<wgt id='8027'>0.30770E+02</wgt>
<wgt id='8028'>0.30850E+02</wgt>
<wgt id='8029'>0.30572E+02</wgt>
<wgt id='8500'>0.32158E+02</wgt>
<wgt id='8501'>0.32055E+02</wgt>
<wgt id='8502'>0.32365E+02</wgt>
<wgt id='8503'>0.32323E+02</wgt>
<wgt id='8504'>0.32094E+02</wgt>
<wgt id='8505'>0.32090E+02</wgt>
<wgt id='8506'>0.32127E+02</wgt>
<wgt id='8507'>0.32268E+02</wgt>
<wgt id='8508'>0.32366E+02</wgt>
<wgt id='8509'>0.32100E+02</wgt>
<wgt id='8510'>0.32629E+02</wgt>
<wgt id='8511'>0.32183E+02</wgt>
<wgt id='8512'>0.31849E+02</wgt>
<wgt id='8513'>0.32193E+02</wgt>
<wgt id='8514'>0.31837E+02</wgt>
<wgt id='8515'>0.32241E+02</wgt>
<wgt id='8516'>0.32212E+02</wgt>
<wgt id='8517'>0.31996E+02</wgt>
<wgt id='8518'>0.32076E+02</wgt>
<wgt id='8519'>0.32101E+02</wgt>
<wgt id='8520'>0.32160E+02</wgt>
<wgt id='8521'>0.31988E+02</wgt>
<wgt id='8522'>0.32182E+02</wgt>
<wgt id='8523'>0.32075E+02</wgt>
<wgt id='8524'>0.32123E+02</wgt>
<wgt id='8525'>0.32112E+02</wgt>
<wgt id='8526'>0.32107E+02</wgt>
<wgt id='8527'>0.32160E+02</wgt>
<wgt id='8528'>0.32068E+02</wgt>
<wgt id='8529'>0.32117E+02</wgt>
<wgt id='8530'>0.32164E+02</wgt>
<wgt id='8531'>0.32144E+02</wgt>
<wgt id='8532'>0.32161E+02</wgt>
<wgt id='8533'>0.32082E+02</wgt>
<wgt id='8534'>0.32164E+02</wgt>
<wgt id='8535'>0.32240E+02</wgt>
<wgt id='8536'>0.32138E+02</wgt>
<wgt id='8537'>0.32170E+02</wgt>
<wgt id='8538'>0.32130E+02</wgt>
<wgt id='8539'>0.32163E+02</wgt>
<wgt id='8540'>0.32162E+02</wgt>
<wgt id='8541'>0.32173E+02</wgt>
<wgt id='8542'>0.32180E+02</wgt>
<wgt id='8543'>0.32126E+02</wgt>
<wgt id='8544'>0.32186E+02</wgt>
<wgt id='8545'>0.32183E+02</wgt>
<wgt id='8546'>0.32193E+02</wgt>
<wgt id='8547'>0.32131E+02</wgt>
<wgt id='8548'>0.32128E+02</wgt>
<wgt id='8549'>0.32157E+02</wgt>
<wgt id='8550'>0.32166E+02</wgt>
<wgt id='8551'>0.32131E+02</wgt>
<wgt id='8552'>0.32163E+02</wgt>
<wgt id='8553'>0.32144E+02</wgt>
<wgt id='8554'>0.32146E+02</wgt>
<wgt id='8555'>0.32161E+02</wgt>
<wgt id='8556'>0.32154E+02</wgt>
<wgt id='8557'>0.32151E+02</wgt>
<wgt id='8558'>0.32192E+02</wgt>
<wgt id='8559'>0.32140E+02</wgt>
<wgt id='8560'>0.32124E+02</wgt>
<wgt id='8561'>0.32152E+02</wgt>
<wgt id='8562'>0.32133E+02</wgt>
<wgt id='8563'>0.32160E+02</wgt>
<wgt id='8564'>0.32152E+02</wgt>
<wgt id='8565'>0.32158E+02</wgt>
<wgt id='8566'>0.32150E+02</wgt>
<wgt id='8567'>0.32155E+02</wgt>
<wgt id='8568'>0.32170E+02</wgt>
<wgt id='8569'>0.32167E+02</wgt>
<wgt id='8570'>0.32157E+02</wgt>
<wgt id='8571'>0.32143E+02</wgt>
<wgt id='8572'>0.32147E+02</wgt>
<wgt id='8573'>0.32145E+02</wgt>
<wgt id='8574'>0.32168E+02</wgt>
<wgt id='8575'>0.32154E+02</wgt>
<wgt id='8576'>0.32154E+02</wgt>
<wgt id='8577'>0.32157E+02</wgt>
<wgt id='8578'>0.32161E+02</wgt>
<wgt id='8579'>0.32176E+02</wgt>
<wgt id='8580'>0.32157E+02</wgt>
<wgt id='8581'>0.32165E+02</wgt>
<wgt id='8582'>0.32135E+02</wgt>
<wgt id='8583'>0.32171E+02</wgt>
<wgt id='8584'>0.32165E+02</wgt>
<wgt id='8585'>0.32165E+02</wgt>
<wgt id='8586'>0.32170E+02</wgt>
<wgt id='8587'>0.32153E+02</wgt>
<wgt id='8588'>0.32150E+02</wgt>
<wgt id='8589'>0.32158E+02</wgt>
<wgt id='8590'>0.32154E+02</wgt>
<wgt id='8591'>0.32155E+02</wgt>
<wgt id='8592'>0.32157E+02</wgt>
<wgt id='8593'>0.32146E+02</wgt>
<wgt id='8594'>0.32164E+02</wgt>
<wgt id='8595'>0.32163E+02</wgt>
<wgt id='8596'>0.32150E+02</wgt>
<wgt id='8597'>0.32161E+02</wgt>
<wgt id='8598'>0.32166E+02</wgt>
<wgt id='8599'>0.32162E+02</wgt>
<wgt id='8600'>0.32157E+02</wgt>
<wgt id='8601'>0.31612E+02</wgt>
<wgt id='8602'>0.32632E+02</wgt>
<wgt id='9000'>0.30596E+02</wgt>
<wgt id='9001'>0.30609E+02</wgt>
<wgt id='9002'>0.30723E+02</wgt>
<wgt id='9003'>0.30388E+02</wgt>
<wgt id='9004'>0.30554E+02</wgt>
<wgt id='9005'>0.30670E+02</wgt>
<wgt id='9006'>0.30560E+02</wgt>
<wgt id='9007'>0.30664E+02</wgt>
<wgt id='9008'>0.30661E+02</wgt>
<wgt id='9009'>0.30566E+02</wgt>
<wgt id='9010'>0.30488E+02</wgt>
<wgt id='9011'>0.30913E+02</wgt>
<wgt id='9012'>0.30368E+02</wgt>
<wgt id='9013'>0.30188E+02</wgt>
<wgt id='9014'>0.30383E+02</wgt>
<wgt id='9015'>0.30616E+02</wgt>
<wgt id='9016'>0.30892E+02</wgt>
<wgt id='9017'>0.30519E+02</wgt>
<wgt id='9018'>0.30511E+02</wgt>
<wgt id='9019'>0.30535E+02</wgt>
<wgt id='9020'>0.30733E+02</wgt>
<wgt id='9021'>0.30571E+02</wgt>
<wgt id='9022'>0.30654E+02</wgt>
<wgt id='9023'>0.30509E+02</wgt>
<wgt id='9024'>0.30558E+02</wgt>
<wgt id='9025'>0.30609E+02</wgt>
<wgt id='9026'>0.30596E+02</wgt>
<wgt id='9027'>0.30551E+02</wgt>
<wgt id='9028'>0.30622E+02</wgt>
<wgt id='9029'>0.30643E+02</wgt>
<wgt id='9030'>0.30626E+02</wgt>
<wgt id='9031'>0.30571E+02</wgt>
<wgt id='9032'>0.30621E+02</wgt>
<wgt id='9033'>0.30634E+02</wgt>
<wgt id='9034'>0.30590E+02</wgt>
<wgt id='9035'>0.30652E+02</wgt>
<wgt id='9036'>0.30598E+02</wgt>
<wgt id='9037'>0.30624E+02</wgt>
<wgt id='9038'>0.30601E+02</wgt>
<wgt id='9039'>0.30598E+02</wgt>
<wgt id='9040'>0.30564E+02</wgt>
<wgt id='9041'>0.30582E+02</wgt>
<wgt id='9042'>0.30586E+02</wgt>
<wgt id='9043'>0.30565E+02</wgt>
<wgt id='9044'>0.30605E+02</wgt>
<wgt id='9045'>0.30588E+02</wgt>
<wgt id='9046'>0.30554E+02</wgt>
<wgt id='9047'>0.30586E+02</wgt>
<wgt id='9048'>0.30604E+02</wgt>
<wgt id='9049'>0.30581E+02</wgt>
<wgt id='9050'>0.30601E+02</wgt>
<wgt id='9051'>0.30610E+02</wgt>
<wgt id='9052'>0.30605E+02</wgt>
<wgt id='9053'>0.30602E+02</wgt>
<wgt id='9054'>0.30583E+02</wgt>
<wgt id='9055'>0.30589E+02</wgt>
<wgt id='9056'>0.30626E+02</wgt>
<wgt id='9057'>0.30594E+02</wgt>
<wgt id='9058'>0.30571E+02</wgt>
<wgt id='9059'>0.30583E+02</wgt>
<wgt id='9060'>0.30587E+02</wgt>
<wgt id='9061'>0.30599E+02</wgt>
<wgt id='9062'>0.30603E+02</wgt>
<wgt id='9063'>0.30611E+02</wgt>
<wgt id='9064'>0.30588E+02</wgt>
<wgt id='9065'>0.30595E+02</wgt>
<wgt id='9066'>0.30598E+02</wgt>
<wgt id='9067'>0.30606E+02</wgt>
<wgt id='9068'>0.30604E+02</wgt>
<wgt id='9069'>0.30615E+02</wgt>
<wgt id='9070'>0.30593E+02</wgt>
<wgt id='9071'>0.30613E+02</wgt>
<wgt id='9072'>0.30615E+02</wgt>
<wgt id='9073'>0.30589E+02</wgt>
<wgt id='9074'>0.30601E+02</wgt>
<wgt id='9075'>0.30595E+02</wgt>
<wgt id='9076'>0.30592E+02</wgt>
<wgt id='9077'>0.30601E+02</wgt>
<wgt id='9078'>0.30599E+02</wgt>
<wgt id='9079'>0.30591E+02</wgt>
<wgt id='9080'>0.30616E+02</wgt>
<wgt id='9081'>0.30593E+02</wgt>
<wgt id='9082'>0.30603E+02</wgt>
<wgt id='9083'>0.30587E+02</wgt>
<wgt id='9084'>0.30588E+02</wgt>
<wgt id='9085'>0.30587E+02</wgt>
<wgt id='9086'>0.30598E+02</wgt>
<wgt id='9087'>0.30578E+02</wgt>
<wgt id='9088'>0.30590E+02</wgt>
<wgt id='9089'>0.30590E+02</wgt>
<wgt id='9090'>0.30601E+02</wgt>
<wgt id='9091'>0.30595E+02</wgt>
<wgt id='9092'>0.30596E+02</wgt>
<wgt id='9093'>0.30591E+02</wgt>
<wgt id='9094'>0.30596E+02</wgt>
<wgt id='9095'>0.30600E+02</wgt>
<wgt id='9096'>0.30589E+02</wgt>
<wgt id='9097'>0.30598E+02</wgt>
<wgt id='9098'>0.30597E+02</wgt>
<wgt id='9099'>0.30589E+02</wgt>
<wgt id='9100'>0.30595E+02</wgt>
<wgt id='9101'>0.30200E+02</wgt>
<wgt id='9102'>0.30957E+02</wgt>
<wgt id='10000'>0.32168E+02</wgt>
<wgt id='10001'>0.32306E+02</wgt>
<wgt id='10002'>0.32043E+02</wgt>
<wgt id='10003'>0.32160E+02</wgt>
<wgt id='10004'>0.32060E+02</wgt>
<wgt id='10005'>0.32884E+02</wgt>
<wgt id='10006'>0.32117E+02</wgt>
<wgt id='10007'>0.32149E+02</wgt>
<wgt id='10008'>0.32244E+02</wgt>
<wgt id='10009'>0.32101E+02</wgt>
<wgt id='10010'>0.32217E+02</wgt>
<wgt id='10011'>0.32131E+02</wgt>
<wgt id='10012'>0.32132E+02</wgt>
<wgt id='10013'>0.32169E+02</wgt>
<wgt id='10014'>0.32148E+02</wgt>
<wgt id='10015'>0.32196E+02</wgt>
<wgt id='10016'>0.32128E+02</wgt>
<wgt id='10017'>0.31990E+02</wgt>
<wgt id='10018'>0.32203E+02</wgt>
<wgt id='10019'>0.32165E+02</wgt>
<wgt id='10020'>0.32140E+02</wgt>
<wgt id='10021'>0.32156E+02</wgt>
<wgt id='10022'>0.32147E+02</wgt>
<wgt id='10023'>0.32173E+02</wgt>
<wgt id='10024'>0.32140E+02</wgt>
<wgt id='10025'>0.32138E+02</wgt>
<wgt id='10026'>0.32230E+02</wgt>
<wgt id='10027'>0.32221E+02</wgt>
<wgt id='10028'>0.32368E+02</wgt>
<wgt id='10029'>0.32213E+02</wgt>
<wgt id='10030'>0.32161E+02</wgt>
<wgt id='10031'>0.31612E+02</wgt>
<wgt id='10032'>0.32632E+02</wgt>
<wgt id='11000'>0.30605E+02</wgt>
<wgt id='11001'>0.30455E+02</wgt>
<wgt id='11002'>0.30721E+02</wgt>
<wgt id='11003'>0.30566E+02</wgt>
<wgt id='11004'>0.30740E+02</wgt>
<wgt id='11005'>0.30254E+02</wgt>
<wgt id='11006'>0.30615E+02</wgt>
<wgt id='11007'>0.30524E+02</wgt>
<wgt id='11008'>0.30520E+02</wgt>
<wgt id='11009'>0.30476E+02</wgt>
<wgt id='11010'>0.30762E+02</wgt>
<wgt id='11011'>0.30482E+02</wgt>
<wgt id='11012'>0.30633E+02</wgt>
<wgt id='11013'>0.30699E+02</wgt>
<wgt id='11014'>0.30533E+02</wgt>
<wgt id='11015'>0.30579E+02</wgt>
<wgt id='11016'>0.30573E+02</wgt>
<wgt id='11017'>0.30824E+02</wgt>
<wgt id='11018'>0.30589E+02</wgt>
<wgt id='11019'>0.30586E+02</wgt>
<wgt id='11020'>0.30686E+02</wgt>
<wgt id='11021'>0.30677E+02</wgt>
<wgt id='11022'>0.31124E+02</wgt>
<wgt id='11023'>0.30612E+02</wgt>
<wgt id='11024'>0.30635E+02</wgt>
<wgt id='11025'>0.30575E+02</wgt>
<wgt id='11026'>0.30613E+02</wgt>
<wgt id='11027'>0.30598E+02</wgt>
<wgt id='11028'>0.30634E+02</wgt>
<wgt id='11029'>0.30663E+02</wgt>
<wgt id='11030'>0.30601E+02</wgt>
<wgt id='11031'>0.30200E+02</wgt>
<wgt id='11032'>0.30957E+02</wgt>
<wgt id='12000'>0.34056E+02</wgt>
<wgt id='12001'>0.34008E+02</wgt>
<wgt id='12002'>0.34104E+02</wgt>
<wgt id='12003'>0.34147E+02</wgt>
<wgt id='12004'>0.33966E+02</wgt>
<wgt id='12005'>0.34110E+02</wgt>
<wgt id='12006'>0.34003E+02</wgt>
<wgt id='12007'>0.34153E+02</wgt>
<wgt id='12008'>0.33962E+02</wgt>
<wgt id='12009'>0.34100E+02</wgt>
<wgt id='12010'>0.34013E+02</wgt>
<wgt id='12011'>0.33950E+02</wgt>
<wgt id='12012'>0.34164E+02</wgt>
<wgt id='12013'>0.33928E+02</wgt>
<wgt id='12014'>0.34185E+02</wgt>
<wgt id='12015'>0.34058E+02</wgt>
<wgt id='12016'>0.34033E+02</wgt>
<wgt id='12017'>0.34175E+02</wgt>
<wgt id='12018'>0.33927E+02</wgt>
<wgt id='12019'>0.33964E+02</wgt>
<wgt id='12020'>0.34145E+02</wgt>
<wgt id='12021'>0.34186E+02</wgt>
<wgt id='12022'>0.33888E+02</wgt>
<wgt id='12023'>0.33876E+02</wgt>
<wgt id='12024'>0.34065E+02</wgt>
<wgt id='12025'>0.34105E+02</wgt>
<wgt id='12026'>0.34055E+02</wgt>
<wgt id='12027'>0.34115E+02</wgt>
<wgt id='12028'>0.34031E+02</wgt>
<wgt id='12050'>0.34056E+02</wgt>
<wgt id='12051'>0.34043E+02</wgt>
<wgt id='12052'>0.34050E+02</wgt>
<wgt id='12053'>0.34034E+02</wgt>
<wgt id='12054'>0.34053E+02</wgt>
<wgt id='12055'>0.34198E+02</wgt>
<wgt id='12056'>0.33878E+02</wgt>
<wgt id='12057'>0.33934E+02</wgt>
<wgt id='12058'>0.34176E+02</wgt>
<wgt id='12059'>0.33998E+02</wgt>
<wgt id='12060'>0.34127E+02</wgt>
<wgt id='12061'>0.34034E+02</wgt>
<wgt id='12062'>0.34111E+02</wgt>
<wgt id='12063'>0.33715E+02</wgt>
<wgt id='13000'>0.31104E+02</wgt>
<wgt id='13001'>0.31079E+02</wgt>
<wgt id='13002'>0.31125E+02</wgt>
<wgt id='13003'>0.31152E+02</wgt>
<wgt id='13004'>0.31053E+02</wgt>
<wgt id='13005'>0.31178E+02</wgt>
<wgt id='13006'>0.31026E+02</wgt>
<wgt id='13007'>0.31239E+02</wgt>
<wgt id='13008'>0.30968E+02</wgt>
<wgt id='13009'>0.31084E+02</wgt>
<wgt id='13010'>0.31121E+02</wgt>
<wgt id='13011'>0.31190E+02</wgt>
<wgt id='13012'>0.31014E+02</wgt>
<wgt id='13013'>0.31017E+02</wgt>
<wgt id='13014'>0.31187E+02</wgt>
<wgt id='13015'>0.31068E+02</wgt>
<wgt id='13016'>0.31129E+02</wgt>
<wgt id='13017'>0.31090E+02</wgt>
<wgt id='13018'>0.31108E+02</wgt>
<wgt id='13019'>0.31055E+02</wgt>
<wgt id='13020'>0.31147E+02</wgt>
<wgt id='13021'>0.30882E+02</wgt>
<wgt id='13022'>0.31278E+02</wgt>
<wgt id='13023'>0.31075E+02</wgt>
<wgt id='13024'>0.31123E+02</wgt>
<wgt id='13025'>0.30955E+02</wgt>
<wgt id='13026'>0.31168E+02</wgt>
<wgt id='13027'>0.31082E+02</wgt>
<wgt id='13028'>0.31160E+02</wgt>
<wgt id='13050'>0.31104E+02</wgt>
<wgt id='13051'>0.31112E+02</wgt>
<wgt id='13052'>0.31024E+02</wgt>
<wgt id='13053'>0.31099E+02</wgt>
<wgt id='13054'>0.31092E+02</wgt>
<wgt id='13055'>0.30972E+02</wgt>
<wgt id='13056'>0.31098E+02</wgt>
<wgt id='13057'>0.30998E+02</wgt>
<wgt id='13058'>0.31271E+02</wgt>
<wgt id='13059'>0.31002E+02</wgt>
<wgt id='13060'>0.31043E+02</wgt>
<wgt id='13061'>0.30996E+02</wgt>
<wgt id='13062'>0.31375E+02</wgt>
<wgt id='13063'>0.30970E+02</wgt>
<wgt id='14000'>0.31713E+02</wgt>
<wgt id='14001'>0.31708E+02</wgt>
<wgt id='14002'>0.31703E+02</wgt>
<wgt id='14003'>0.31698E+02</wgt>
<wgt id='14004'>0.31693E+02</wgt>
<wgt id='14005'>0.31689E+02</wgt>
<wgt id='14006'>0.31684E+02</wgt>
<wgt id='14007'>0.31679E+02</wgt>
<wgt id='14008'>0.31674E+02</wgt>
<wgt id='14009'>0.31669E+02</wgt>
<wgt id='14010'>0.31665E+02</wgt>
<wgt id='14011'>0.31660E+02</wgt>
<wgt id='14012'>0.31655E+02</wgt>
<wgt id='14013'>0.31650E+02</wgt>
<wgt id='14014'>0.31645E+02</wgt>
<wgt id='14015'>0.31641E+02</wgt>
<wgt id='14016'>0.31636E+02</wgt>
<wgt id='14017'>0.31631E+02</wgt>
<wgt id='14018'>0.31626E+02</wgt>
<wgt id='14019'>0.31621E+02</wgt>
<wgt id='14020'>0.31616E+02</wgt>
<wgt id='14021'>0.31612E+02</wgt>
<wgt id='14022'>0.31607E+02</wgt>
<wgt id='14023'>0.31602E+02</wgt>
<wgt id='14024'>0.31597E+02</wgt>
<wgt id='14025'>0.31592E+02</wgt>
<wgt id='14026'>0.31588E+02</wgt>
<wgt id='14027'>0.31583E+02</wgt>
<wgt id='14028'>0.31578E+02</wgt>
<wgt id='14029'>0.31573E+02</wgt>
<wgt id='14030'>0.31568E+02</wgt>
<wgt id='15000'>0.30222E+02</wgt>
<wgt id='15001'>0.30227E+02</wgt>
<wgt id='15002'>0.30345E+02</wgt>
<wgt id='15003'>0.30018E+02</wgt>
<wgt id='15004'>0.30178E+02</wgt>
<wgt id='15005'>0.30295E+02</wgt>
<wgt id='15006'>0.30192E+02</wgt>
<wgt id='15007'>0.30295E+02</wgt>
<wgt id='15008'>0.30287E+02</wgt>
<wgt id='15009'>0.30193E+02</wgt>
<wgt id='15010'>0.30115E+02</wgt>
<wgt id='15011'>0.30545E+02</wgt>
<wgt id='15012'>0.29999E+02</wgt>
<wgt id='15013'>0.29822E+02</wgt>
<wgt id='15014'>0.30008E+02</wgt>
<wgt id='15015'>0.30229E+02</wgt>
<wgt id='15016'>0.30524E+02</wgt>
<wgt id='15017'>0.30145E+02</wgt>
<wgt id='15018'>0.30137E+02</wgt>
<wgt id='15019'>0.30168E+02</wgt>
<wgt id='15020'>0.30364E+02</wgt>
<wgt id='15021'>0.30189E+02</wgt>
<wgt id='15022'>0.30278E+02</wgt>
<wgt id='15023'>0.30138E+02</wgt>
<wgt id='15024'>0.30180E+02</wgt>
<wgt id='15025'>0.30232E+02</wgt>
<wgt id='15026'>0.30216E+02</wgt>
<wgt id='15027'>0.30183E+02</wgt>
<wgt id='15028'>0.30251E+02</wgt>
<wgt id='15029'>0.30266E+02</wgt>
<wgt id='15030'>0.30246E+02</wgt>
<wgt id='15031'>0.30204E+02</wgt>
<wgt id='15032'>0.30245E+02</wgt>
<wgt id='15033'>0.30258E+02</wgt>
<wgt id='15034'>0.30215E+02</wgt>
<wgt id='15035'>0.30275E+02</wgt>
<wgt id='15036'>0.30224E+02</wgt>
<wgt id='15037'>0.30250E+02</wgt>
<wgt id='15038'>0.30226E+02</wgt>
<wgt id='15039'>0.30222E+02</wgt>
<wgt id='15040'>0.30190E+02</wgt>
<wgt id='15041'>0.30207E+02</wgt>
<wgt id='15042'>0.30212E+02</wgt>
<wgt id='15043'>0.30195E+02</wgt>
<wgt id='15044'>0.30231E+02</wgt>
<wgt id='15045'>0.30214E+02</wgt>
<wgt id='15046'>0.30182E+02</wgt>
<wgt id='15047'>0.30211E+02</wgt>
<wgt id='15048'>0.30231E+02</wgt>
<wgt id='15049'>0.30206E+02</wgt>
<wgt id='15050'>0.30228E+02</wgt>
<wgt id='15051'>0.30235E+02</wgt>
<wgt id='15052'>0.30231E+02</wgt>
<wgt id='15053'>0.30229E+02</wgt>
<wgt id='15054'>0.30209E+02</wgt>
<wgt id='15055'>0.30216E+02</wgt>
<wgt id='15056'>0.30249E+02</wgt>
<wgt id='15057'>0.30220E+02</wgt>
<wgt id='15058'>0.30200E+02</wgt>
<wgt id='15059'>0.30210E+02</wgt>
<wgt id='15060'>0.30214E+02</wgt>
<wgt id='15061'>0.30226E+02</wgt>
<wgt id='15062'>0.30228E+02</wgt>
<wgt id='15063'>0.30236E+02</wgt>
<wgt id='15064'>0.30216E+02</wgt>
<wgt id='15065'>0.30220E+02</wgt>
<wgt id='15066'>0.30224E+02</wgt>
<wgt id='15067'>0.30231E+02</wgt>
<wgt id='15068'>0.30231E+02</wgt>
<wgt id='15069'>0.30240E+02</wgt>
<wgt id='15070'>0.30219E+02</wgt>
<wgt id='15071'>0.30239E+02</wgt>
<wgt id='15072'>0.30240E+02</wgt>
<wgt id='15073'>0.30214E+02</wgt>
<wgt id='15074'>0.30228E+02</wgt>
<wgt id='15075'>0.30221E+02</wgt>
<wgt id='15076'>0.30220E+02</wgt>
<wgt id='15077'>0.30227E+02</wgt>
<wgt id='15078'>0.30226E+02</wgt>
<wgt id='15079'>0.30217E+02</wgt>
<wgt id='15080'>0.30241E+02</wgt>
<wgt id='15081'>0.30220E+02</wgt>
<wgt id='15082'>0.30230E+02</wgt>
<wgt id='15083'>0.30213E+02</wgt>
<wgt id='15084'>0.30214E+02</wgt>
<wgt id='15085'>0.30213E+02</wgt>
<wgt id='15086'>0.30226E+02</wgt>
<wgt id='15087'>0.30204E+02</wgt>
<wgt id='15088'>0.30215E+02</wgt>
<wgt id='15089'>0.30215E+02</wgt>
<wgt id='15090'>0.30227E+02</wgt>
<wgt id='15091'>0.30220E+02</wgt>
<wgt id='15092'>0.30221E+02</wgt>
<wgt id='15093'>0.30218E+02</wgt>
<wgt id='15094'>0.30221E+02</wgt>
<wgt id='15095'>0.30226E+02</wgt>
<wgt id='15096'>0.30216E+02</wgt>
<wgt id='15097'>0.30224E+02</wgt>
<wgt id='15098'>0.30222E+02</wgt>
<wgt id='15099'>0.30215E+02</wgt>
<wgt id='15100'>0.30222E+02</wgt>
<wgt id='15101'>0.30222E+02</wgt>
<wgt id='15102'>0.30220E+02</wgt>
<wgt id='15103'>0.30223E+02</wgt>
<wgt id='15104'>0.30223E+02</wgt>
<wgt id='15105'>0.30223E+02</wgt>
<wgt id='15106'>0.30222E+02</wgt>
<wgt id='15107'>0.30221E+02</wgt>
<wgt id='1500'>0.32233E+02</wgt>
<wgt id='1501'>0.29855E+02</wgt>
<wgt id='1502'>0.32082E+02</wgt>
<wgt id='1503'>0.32275E+02</wgt>
<wgt id='1504'>0.31842E+02</wgt>
<wgt id='1505'>0.28993E+02</wgt>
<wgt id='1506'>0.32979E+02</wgt>
<wgt id='1507'>0.32451E+02</wgt>
<wgt id='1508'>0.32516E+02</wgt>
<wgt id='1509'>0.32534E+02</wgt>
<wgt id='1510'>0.31061E+02</wgt>
<wgt id='1511'>0.31326E+02</wgt>
<wgt id='1512'>0.32891E+02</wgt>
<wgt id='1513'>0.33090E+02</wgt>
<wgt id='1514'>0.31549E+02</wgt>
<wgt id='1515'>0.32998E+02</wgt>
<wgt id='1516'>0.32516E+02</wgt>
<wgt id='1517'>0.31902E+02</wgt>
<wgt id='1518'>0.31989E+02</wgt>
<wgt id='1519'>0.32817E+02</wgt>
<wgt id='1520'>0.32953E+02</wgt>
<wgt id='1521'>0.32618E+02</wgt>
<wgt id='1522'>0.31905E+02</wgt>
<wgt id='1523'>0.34955E+02</wgt>
<wgt id='1524'>0.32179E+02</wgt>
<wgt id='1525'>0.32417E+02</wgt>
<wgt id='1526'>0.32016E+02</wgt>
<wgt id='1527'>0.31789E+02</wgt>
<wgt id='1528'>0.31831E+02</wgt>
<wgt id='1529'>0.32245E+02</wgt>
<wgt id='1530'>0.33118E+02</wgt>
<wgt id='1531'>0.32215E+02</wgt>
<wgt id='1532'>0.31358E+02</wgt>
<wgt id='1533'>0.31981E+02</wgt>
<wgt id='1534'>0.32460E+02</wgt>
<wgt id='1535'>0.32937E+02</wgt>
<wgt id='1536'>0.32560E+02</wgt>
<wgt id='1537'>0.32912E+02</wgt>
<wgt id='1538'>0.32588E+02</wgt>
<wgt id='1539'>0.31419E+02</wgt>
<wgt id='1540'>0.32503E+02</wgt>
<wgt id='1541'>0.32372E+02</wgt>
<wgt id='1542'>0.32262E+02</wgt>
<wgt id='1543'>0.32452E+02</wgt>
<wgt id='1544'>0.32068E+02</wgt>
<wgt id='1545'>0.31983E+02</wgt>
<wgt id='1546'>0.32824E+02</wgt>
<wgt id='1547'>0.31747E+02</wgt>
<wgt id='1548'>0.31913E+02</wgt>
<wgt id='1549'>0.31787E+02</wgt>
<wgt id='1550'>0.32085E+02</wgt>
<wgt id='1551'>0.32123E+02</wgt>
<wgt id='1552'>0.31777E+02</wgt>
<wgt id='1553'>0.32615E+02</wgt>
<wgt id='1554'>0.32646E+02</wgt>
<wgt id='1555'>0.31849E+02</wgt>
<wgt id='1556'>0.31602E+02</wgt>
<wgt id='1557'>0.32958E+02</wgt>
<wgt id='1558'>0.31783E+02</wgt>
<wgt id='1559'>0.32790E+02</wgt>
<wgt id='1560'>0.32083E+02</wgt>
<wgt id='1561'>0.32171E+02</wgt>
<wgt id='1562'>0.32281E+02</wgt>
<wgt id='1563'>0.32504E+02</wgt>
<wgt id='1564'>0.31469E+02</wgt>
<wgt id='1565'>0.32426E+02</wgt>
<wgt id='1566'>0.32458E+02</wgt>
<wgt id='1567'>0.34462E+02</wgt>
<wgt id='1568'>0.31783E+02</wgt>
<wgt id='1569'>0.31299E+02</wgt>
<wgt id='1570'>0.31963E+02</wgt>
<wgt id='1571'>0.32344E+02</wgt>
<wgt id='1572'>0.32531E+02</wgt>
<wgt id='1573'>0.30176E+02</wgt>
<wgt id='1574'>0.32609E+02</wgt>
<wgt id='1575'>0.31915E+02</wgt>
<wgt id='1576'>0.31665E+02</wgt>
<wgt id='1577'>0.32682E+02</wgt>
<wgt id='1578'>0.33341E+02</wgt>
<wgt id='1579'>0.31877E+02</wgt>
<wgt id='1580'>0.32350E+02</wgt>
<wgt id='1581'>0.32461E+02</wgt>
<wgt id='1582'>0.31745E+02</wgt>
<wgt id='1583'>0.32882E+02</wgt>
<wgt id='1584'>0.32044E+02</wgt>
<wgt id='1585'>0.31449E+02</wgt>
<wgt id='1586'>0.31996E+02</wgt>
<wgt id='1587'>0.32158E+02</wgt>
<wgt id='1588'>0.32106E+02</wgt>
<wgt id='1589'>0.33381E+02</wgt>
<wgt id='1590'>0.32057E+02</wgt>
<wgt id='1591'>0.31832E+02</wgt>
<wgt id='1592'>0.32427E+02</wgt>
<wgt id='1593'>0.32092E+02</wgt>
<wgt id='1594'>0.32908E+02</wgt>
<wgt id='1595'>0.31579E+02</wgt>
<wgt id='1596'>0.32747E+02</wgt>
<wgt id='1597'>0.32109E+02</wgt>
<wgt id='1598'>0.33109E+02</wgt>
<wgt id='1599'>0.32854E+02</wgt>
<wgt id='1600'>0.32913E+02</wgt>
<wgt id='1601'>0.31800E+02</wgt>
<wgt id='1602'>0.32476E+02</wgt>
<wgt id='1700'>0.30992E+02</wgt>
<wgt id='1800'>0.37232E+02</wgt>
<wgt id='1850'>0.44273E+02</wgt>
<wgt id='1900'>0.38366E+02</wgt>
<wgt id='1950'>0.43684E+02</wgt>
</rwgt>
</event>
<event>
      4   9999  3.15120E+01  1.46003E+01 -1.00000E+00  1.75152E-01
       2    -1     0     0   502     0  0.000000000E+00  0.000000000E+00  2.439369656E+03  2.439369656E+03  0.000000000E+00  0.00000E+00  9.000E+00
      21    -1     0     0   501   502  0.000000000E+00  0.000000000E+00 -2.362379951E+02  2.362379951E+02  0.000000000E+00  0.00000E+00  9.000E+00
      25     1     1     2     0     0 -9.108696556E+00 -1.141052138E+01 -2.207528783E+02  2.516791399E+02  1.199891155E+02  0.00000E+00  9.000E+00
       2     1     1     2   501     0  9.108696556E+00  1.141052138E+01  2.423884539E+03  2.423928511E+03  4.315837288E-05  0.00000E+00  9.000E+00
#rwgt            1           1   27.559899865641334                2        1594           0
<rwgt>
<wgt id='1001'>0.31512E+02</wgt>
<wgt id='1002'>0.35344E+02</wgt>
<wgt id='1003'>0.27486E+02</wgt>
<wgt id='1004'>0.26181E+02</wgt>
<wgt id='1005'>0.29172E+02</wgt>
<wgt id='1006'>0.22999E+02</wgt>
<wgt id='1007'>0.38712E+02</wgt>
<wgt id='1008'>0.43769E+02</wgt>
<wgt id='1009'>0.33470E+02</wgt>
<wgt id='2000'>0.31512E+02</wgt>
<wgt id='2001'>0.31464E+02</wgt>
<wgt id='2002'>0.31595E+02</wgt>
<wgt id='2003'>0.31568E+02</wgt>
<wgt id='2004'>0.31526E+02</wgt>
<wgt id='2005'>0.31486E+02</wgt>
<wgt id='2006'>0.31473E+02</wgt>
<wgt id='2007'>0.31462E+02</wgt>
<wgt id='2008'>0.31530E+02</wgt>
<wgt id='2009'>0.31499E+02</wgt>
<wgt id='2010'>0.31477E+02</wgt>
<wgt id='2011'>0.31603E+02</wgt>
<wgt id='2012'>0.31611E+02</wgt>
<wgt id='2013'>0.31620E+02</wgt>
<wgt id='2014'>0.31590E+02</wgt>
<wgt id='2015'>0.31573E+02</wgt>
<wgt id='2016'>0.31519E+02</wgt>
<wgt id='2017'>0.31509E+02</wgt>
<wgt id='2018'>0.31581E+02</wgt>
<wgt id='2019'>0.31505E+02</wgt>
<wgt id='2020'>0.31631E+02</wgt>
<wgt id='2021'>0.31454E+02</wgt>
<wgt id='2022'>0.31614E+02</wgt>
<wgt id='2023'>0.31577E+02</wgt>
<wgt id='2024'>0.31515E+02</wgt>
<wgt id='2025'>0.31622E+02</wgt>
<wgt id='2026'>0.31584E+02</wgt>
<wgt id='2027'>0.31478E+02</wgt>
<wgt id='2028'>0.31467E+02</wgt>
<wgt id='2029'>0.31538E+02</wgt>
<wgt id='2030'>0.31525E+02</wgt>
<wgt id='2031'>0.31536E+02</wgt>
<wgt id='2032'>0.31504E+02</wgt>
<wgt id='2033'>0.31518E+02</wgt>
<wgt id='2034'>0.31527E+02</wgt>
<wgt id='2035'>0.31507E+02</wgt>
<wgt id='2036'>0.31519E+02</wgt>
<wgt id='2037'>0.31520E+02</wgt>
<wgt id='2038'>0.31519E+02</wgt>
<wgt id='2039'>0.31507E+02</wgt>
<wgt id='2040'>0.31515E+02</wgt>
<wgt id='2041'>0.31507E+02</wgt>
<wgt id='2042'>0.31485E+02</wgt>
<wgt id='2043'>0.31529E+02</wgt>
<wgt id='2044'>0.31528E+02</wgt>
<wgt id='2045'>0.31511E+02</wgt>
<wgt id='2046'>0.31526E+02</wgt>
<wgt id='2047'>0.31527E+02</wgt>
<wgt id='2048'>0.31513E+02</wgt>
<wgt id='2049'>0.31511E+02</wgt>
<wgt id='2050'>0.31526E+02</wgt>
<wgt id='2051'>0.31519E+02</wgt>
<wgt id='2052'>0.31499E+02</wgt>
<wgt id='2053'>0.31506E+02</wgt>
<wgt id='2054'>0.31513E+02</wgt>
<wgt id='2055'>0.31515E+02</wgt>
<wgt id='2056'>0.31513E+02</wgt>
<wgt id='2057'>0.31507E+02</wgt>
<wgt id='2058'>0.31517E+02</wgt>
<wgt id='2059'>0.31508E+02</wgt>
<wgt id='2060'>0.31513E+02</wgt>
<wgt id='2061'>0.31509E+02</wgt>
<wgt id='2062'>0.31517E+02</wgt>
<wgt id='2063'>0.31510E+02</wgt>
<wgt id='2064'>0.31509E+02</wgt>
<wgt id='2065'>0.31516E+02</wgt>
<wgt id='2066'>0.31510E+02</wgt>
<wgt id='2067'>0.31510E+02</wgt>
<wgt id='2068'>0.31515E+02</wgt>
<wgt id='2069'>0.31506E+02</wgt>
<wgt id='2070'>0.31504E+02</wgt>
<wgt id='2071'>0.31499E+02</wgt>
<wgt id='2072'>0.31512E+02</wgt>
<wgt id='2073'>0.31511E+02</wgt>
<wgt id='2074'>0.31498E+02</wgt>
<wgt id='2075'>0.31515E+02</wgt>
<wgt id='2076'>0.31506E+02</wgt>
<wgt id='2077'>0.31510E+02</wgt>
<wgt id='2078'>0.31515E+02</wgt>
<wgt id='2079'>0.31513E+02</wgt>
<wgt id='2080'>0.31513E+02</wgt>
<wgt id='2081'>0.31516E+02</wgt>
<wgt id='2082'>0.31513E+02</wgt>
<wgt id='2083'>0.31513E+02</wgt>
<wgt id='2084'>0.31514E+02</wgt>
<wgt id='2085'>0.31512E+02</wgt>
<wgt id='2086'>0.31511E+02</wgt>
<wgt id='2087'>0.31511E+02</wgt>
<wgt id='2088'>0.31514E+02</wgt>
<wgt id='2089'>0.31511E+02</wgt>
<wgt id='2090'>0.31513E+02</wgt>
<wgt id='2091'>0.31512E+02</wgt>
<wgt id='2092'>0.31516E+02</wgt>
<wgt id='2093'>0.31510E+02</wgt>
<wgt id='2094'>0.31516E+02</wgt>
<wgt id='2095'>0.31513E+02</wgt>
<wgt id='2096'>0.31511E+02</wgt>
<wgt id='2097'>0.31514E+02</wgt>
<wgt id='2098'>0.31511E+02</wgt>
<wgt id='2099'>0.31512E+02</wgt>
<wgt id='2100'>0.31512E+02</wgt>
<wgt id='2101'>0.30615E+02</wgt>
<wgt id='2102'>0.32338E+02</wgt>
<wgt id='2104'>0.27379E+02</wgt>
<wgt id='2105'>0.28140E+02</wgt>
<wgt id='2106'>0.28972E+02</wgt>
<wgt id='2107'>0.29844E+02</wgt>
<wgt id='2108'>0.31113E+02</wgt>
<wgt id='2109'>0.31988E+02</wgt>
<wgt id='2110'>0.33115E+02</wgt>
<wgt id='2111'>0.33969E+02</wgt>
<wgt id='3000'>0.33006E+02</wgt>
<wgt id='3001'>0.33088E+02</wgt>
<wgt id='3002'>0.32916E+02</wgt>
<wgt id='3003'>0.33071E+02</wgt>
<wgt id='3004'>0.33048E+02</wgt>
<wgt id='3005'>0.33078E+02</wgt>
<wgt id='3006'>0.33025E+02</wgt>
<wgt id='3007'>0.33007E+02</wgt>
<wgt id='3008'>0.32956E+02</wgt>
<wgt id='3009'>0.32915E+02</wgt>
<wgt id='3010'>0.32930E+02</wgt>
<wgt id='3011'>0.33058E+02</wgt>
<wgt id='3012'>0.33143E+02</wgt>
<wgt id='3013'>0.32881E+02</wgt>
<wgt id='3014'>0.33065E+02</wgt>
<wgt id='3015'>0.33027E+02</wgt>
<wgt id='3016'>0.33027E+02</wgt>
<wgt id='3017'>0.33074E+02</wgt>
<wgt id='3018'>0.33071E+02</wgt>
<wgt id='3019'>0.32917E+02</wgt>
<wgt id='3020'>0.32915E+02</wgt>
<wgt id='3021'>0.32889E+02</wgt>
<wgt id='3022'>0.32997E+02</wgt>
<wgt id='3023'>0.32931E+02</wgt>
<wgt id='3024'>0.32916E+02</wgt>
<wgt id='3025'>0.33002E+02</wgt>
<wgt id='3026'>0.33069E+02</wgt>
<wgt id='3027'>0.33015E+02</wgt>
<wgt id='3028'>0.32911E+02</wgt>
<wgt id='3029'>0.32992E+02</wgt>
<wgt id='3030'>0.33036E+02</wgt>
<wgt id='3031'>0.33019E+02</wgt>
<wgt id='3032'>0.33027E+02</wgt>
<wgt id='3033'>0.33024E+02</wgt>
<wgt id='3034'>0.33023E+02</wgt>
<wgt id='3035'>0.33024E+02</wgt>
<wgt id='3036'>0.33012E+02</wgt>
<wgt id='3037'>0.33008E+02</wgt>
<wgt id='3038'>0.33006E+02</wgt>
<wgt id='3039'>0.33008E+02</wgt>
<wgt id='3040'>0.33006E+02</wgt>
<wgt id='3041'>0.33005E+02</wgt>
<wgt id='3042'>0.32982E+02</wgt>
<wgt id='3043'>0.32983E+02</wgt>
<wgt id='3044'>0.33018E+02</wgt>
<wgt id='3045'>0.33024E+02</wgt>
<wgt id='3046'>0.33015E+02</wgt>
<wgt id='3047'>0.32998E+02</wgt>
<wgt id='3048'>0.33021E+02</wgt>
<wgt id='3049'>0.32999E+02</wgt>
<wgt id='3050'>0.33004E+02</wgt>
<wgt id='3051'>0.33032E+02</wgt>
<wgt id='3052'>0.33001E+02</wgt>
<wgt id='3053'>0.33001E+02</wgt>
<wgt id='3054'>0.32999E+02</wgt>
<wgt id='3055'>0.33012E+02</wgt>
<wgt id='3056'>0.33011E+02</wgt>
<wgt id='3057'>0.32997E+02</wgt>
<wgt id='3058'>0.33000E+02</wgt>
<wgt id='3059'>0.33007E+02</wgt>
<wgt id='3060'>0.33008E+02</wgt>
<wgt id='3061'>0.33015E+02</wgt>
<wgt id='3062'>0.33007E+02</wgt>
<wgt id='3063'>0.33011E+02</wgt>
<wgt id='3064'>0.33006E+02</wgt>
<wgt id='3065'>0.33012E+02</wgt>
<wgt id='3066'>0.33009E+02</wgt>
<wgt id='3067'>0.32997E+02</wgt>
<wgt id='3068'>0.33004E+02</wgt>
<wgt id='3069'>0.32996E+02</wgt>
<wgt id='3070'>0.32996E+02</wgt>
<wgt id='3071'>0.33007E+02</wgt>
<wgt id='3072'>0.33013E+02</wgt>
<wgt id='3073'>0.33008E+02</wgt>
<wgt id='3074'>0.33010E+02</wgt>
<wgt id='3075'>0.33011E+02</wgt>
<wgt id='3076'>0.33006E+02</wgt>
<wgt id='3077'>0.33003E+02</wgt>
<wgt id='3078'>0.33012E+02</wgt>
<wgt id='3079'>0.33004E+02</wgt>
<wgt id='3080'>0.33002E+02</wgt>
<wgt id='3081'>0.33005E+02</wgt>
<wgt id='3082'>0.33004E+02</wgt>
<wgt id='3083'>0.33004E+02</wgt>
<wgt id='3084'>0.33002E+02</wgt>
<wgt id='3085'>0.33007E+02</wgt>
<wgt id='3086'>0.33006E+02</wgt>
<wgt id='3087'>0.33004E+02</wgt>
<wgt id='3088'>0.33004E+02</wgt>
<wgt id='3089'>0.33006E+02</wgt>
<wgt id='3090'>0.33005E+02</wgt>
<wgt id='3091'>0.33007E+02</wgt>
<wgt id='3092'>0.33004E+02</wgt>
<wgt id='3093'>0.33005E+02</wgt>
<wgt id='3094'>0.33008E+02</wgt>
<wgt id='3095'>0.33007E+02</wgt>
<wgt id='3096'>0.33005E+02</wgt>
<wgt id='3097'>0.33002E+02</wgt>
<wgt id='3098'>0.33006E+02</wgt>
<wgt id='3099'>0.33007E+02</wgt>
<wgt id='3100'>0.33006E+02</wgt>
<wgt id='3101'>0.32078E+02</wgt>
<wgt id='3102'>0.34041E+02</wgt>
<wgt id='5000'>0.30500E+02</wgt>
<wgt id='5001'>0.30418E+02</wgt>
<wgt id='5002'>0.30435E+02</wgt>
<wgt id='5003'>0.30372E+02</wgt>
<wgt id='5004'>0.30504E+02</wgt>
<wgt id='5005'>0.30040E+02</wgt>
<wgt id='5006'>0.30659E+02</wgt>
<wgt id='5007'>0.30520E+02</wgt>
<wgt id='5008'>0.30289E+02</wgt>
<wgt id='5009'>0.30750E+02</wgt>
<wgt id='5010'>0.30356E+02</wgt>
<wgt id='5011'>0.30473E+02</wgt>
<wgt id='5012'>0.30461E+02</wgt>
<wgt id='5013'>0.29993E+02</wgt>
<wgt id='5014'>0.30585E+02</wgt>
<wgt id='5015'>0.30689E+02</wgt>
<wgt id='5016'>0.29909E+02</wgt>
<wgt id='5017'>0.30496E+02</wgt>
<wgt id='5018'>0.30506E+02</wgt>
<wgt id='5019'>0.30427E+02</wgt>
<wgt id='5020'>0.30568E+02</wgt>
<wgt id='5021'>0.30586E+02</wgt>
<wgt id='5022'>0.30443E+02</wgt>
<wgt id='5023'>0.30396E+02</wgt>
<wgt id='5024'>0.30606E+02</wgt>
<wgt id='5025'>0.30474E+02</wgt>
<wgt id='5026'>0.30520E+02</wgt>
<wgt id='5027'>0.30785E+02</wgt>
<wgt id='5028'>0.30016E+02</wgt>
<wgt id='5029'>0.29969E+02</wgt>
<wgt id='5030'>0.30818E+02</wgt>
<wgt id='5031'>0.30190E+02</wgt>
<wgt id='5032'>0.30944E+02</wgt>
<wgt id='5033'>0.30317E+02</wgt>
<wgt id='5034'>0.30652E+02</wgt>
<wgt id='5035'>0.30127E+02</wgt>
<wgt id='5036'>0.30806E+02</wgt>
<wgt id='5037'>0.30358E+02</wgt>
<wgt id='5038'>0.30645E+02</wgt>
<wgt id='5039'>0.31004E+02</wgt>
<wgt id='5040'>0.30243E+02</wgt>
<wgt id='5041'>0.30275E+02</wgt>
<wgt id='5042'>0.30515E+02</wgt>
<wgt id='5043'>0.30716E+02</wgt>
<wgt id='5044'>0.29833E+02</wgt>
<wgt id='5045'>0.31209E+02</wgt>
<wgt id='5046'>0.30284E+02</wgt>
<wgt id='5047'>0.30645E+02</wgt>
<wgt id='5048'>0.30667E+02</wgt>
<wgt id='5049'>0.30515E+02</wgt>
<wgt id='5050'>0.30558E+02</wgt>
<wgt id='5051'>0.30562E+02</wgt>
<wgt id='5052'>0.30490E+02</wgt>
<wgt id='5053'>0.30159E+02</wgt>
<wgt id='5054'>0.30773E+02</wgt>
<wgt id='5055'>0.30317E+02</wgt>
<wgt id='5056'>0.30732E+02</wgt>
<wgt id='5060'>0.29600E+02</wgt>
<wgt id='5070'>0.31340E+02</wgt>
<wgt id='4000'>0.32134E+02</wgt>
<wgt id='4001'>0.32161E+02</wgt>
<wgt id='4002'>0.32213E+02</wgt>
<wgt id='4003'>0.32507E+02</wgt>
<wgt id='4004'>0.31955E+02</wgt>
<wgt id='4005'>0.32231E+02</wgt>
<wgt id='4006'>0.32062E+02</wgt>
<wgt id='4007'>0.32382E+02</wgt>
<wgt id='4008'>0.32047E+02</wgt>
<wgt id='4009'>0.31603E+02</wgt>
<wgt id='4010'>0.32447E+02</wgt>
<wgt id='4011'>0.32573E+02</wgt>
<wgt id='4012'>0.31879E+02</wgt>
<wgt id='4013'>0.31106E+02</wgt>
<wgt id='4014'>0.32715E+02</wgt>
<wgt id='4015'>0.32464E+02</wgt>
<wgt id='4016'>0.31921E+02</wgt>
<wgt id='4017'>0.31788E+02</wgt>
<wgt id='4018'>0.32545E+02</wgt>
<wgt id='4019'>0.32499E+02</wgt>
<wgt id='4020'>0.31725E+02</wgt>
<wgt id='4021'>0.32194E+02</wgt>
<wgt id='4022'>0.31998E+02</wgt>
<wgt id='4023'>0.32007E+02</wgt>
<wgt id='4024'>0.32243E+02</wgt>
<wgt id='4025'>0.31843E+02</wgt>
<wgt id='4026'>0.32398E+02</wgt>
<wgt id='4027'>0.32043E+02</wgt>
<wgt id='4028'>0.32255E+02</wgt>
<wgt id='4029'>0.31926E+02</wgt>
<wgt id='4030'>0.32206E+02</wgt>
<wgt id='4031'>0.32184E+02</wgt>
<wgt id='4032'>0.32069E+02</wgt>
<wgt id='4033'>0.32092E+02</wgt>
<wgt id='4034'>0.32222E+02</wgt>
<wgt id='4035'>0.32500E+02</wgt>
<wgt id='4036'>0.31783E+02</wgt>
<wgt id='4037'>0.32333E+02</wgt>
<wgt id='4038'>0.31788E+02</wgt>
<wgt id='4039'>0.32098E+02</wgt>
<wgt id='4040'>0.32112E+02</wgt>
<wgt id='4041'>0.32343E+02</wgt>
<wgt id='4042'>0.31946E+02</wgt>
<wgt id='4043'>0.32326E+02</wgt>
<wgt id='4044'>0.31965E+02</wgt>
<wgt id='4045'>0.31723E+02</wgt>
<wgt id='4046'>0.32074E+02</wgt>
<wgt id='4047'>0.31881E+02</wgt>
<wgt id='4048'>0.32187E+02</wgt>
<wgt id='4049'>0.32035E+02</wgt>
<wgt id='4050'>0.31780E+02</wgt>
<wgt id='4051'>0.32067E+02</wgt>
<wgt id='4052'>0.32080E+02</wgt>
<wgt id='4053'>0.31282E+02</wgt>
<wgt id='4054'>0.32226E+02</wgt>
<wgt id='4055'>0.31929E+02</wgt>
<wgt id='4056'>0.32384E+02</wgt>
<wgt id='4060'>0.31096E+02</wgt>
<wgt id='4070'>0.33133E+02</wgt>
<wgt id='4080'>0.32491E+02</wgt>
<wgt id='6000'>0.32498E+02</wgt>
<wgt id='6001'>0.32524E+02</wgt>
<wgt id='6002'>0.32469E+02</wgt>
<wgt id='6003'>0.32513E+02</wgt>
<wgt id='6004'>0.32486E+02</wgt>
<wgt id='6005'>0.32563E+02</wgt>
<wgt id='6006'>0.32436E+02</wgt>
<wgt id='6007'>0.32374E+02</wgt>
<wgt id='6008'>0.32635E+02</wgt>
<wgt id='6009'>0.32614E+02</wgt>
<wgt id='6010'>0.32383E+02</wgt>
<wgt id='6011'>0.32569E+02</wgt>
<wgt id='6012'>0.32344E+02</wgt>
<wgt id='6013'>0.32462E+02</wgt>
<wgt id='6014'>0.32563E+02</wgt>
<wgt id='6015'>0.32401E+02</wgt>
<wgt id='6016'>0.32551E+02</wgt>
<wgt id='6017'>0.32310E+02</wgt>
<wgt id='6018'>0.32719E+02</wgt>
<wgt id='6019'>0.32528E+02</wgt>
<wgt id='6020'>0.32471E+02</wgt>
<wgt id='6021'>0.32429E+02</wgt>
<wgt id='6022'>0.32591E+02</wgt>
<wgt id='6023'>0.32275E+02</wgt>
<wgt id='6024'>0.32655E+02</wgt>
<wgt id='6025'>0.32291E+02</wgt>
<wgt id='6026'>0.32621E+02</wgt>
<wgt id='6027'>0.32587E+02</wgt>
<wgt id='6028'>0.32497E+02</wgt>
<wgt id='6029'>0.32639E+02</wgt>
<wgt id='6030'>0.32332E+02</wgt>
<wgt id='6031'>0.32498E+02</wgt>
<wgt id='6032'>0.32484E+02</wgt>
<wgt id='6033'>0.32564E+02</wgt>
<wgt id='6034'>0.32429E+02</wgt>
<wgt id='6035'>0.32493E+02</wgt>
<wgt id='6036'>0.32568E+02</wgt>
<wgt id='6037'>0.32554E+02</wgt>
<wgt id='6038'>0.32495E+02</wgt>
<wgt id='6039'>0.32458E+02</wgt>
<wgt id='6040'>0.32541E+02</wgt>
<wgt id='6041'>0.32435E+02</wgt>
<wgt id='6042'>0.32575E+02</wgt>
<wgt id='6043'>0.32914E+02</wgt>
<wgt id='6044'>0.32317E+02</wgt>
<wgt id='6045'>0.32473E+02</wgt>
<wgt id='6046'>0.32562E+02</wgt>
<wgt id='6047'>0.32580E+02</wgt>
<wgt id='6048'>0.32196E+02</wgt>
<wgt id='6049'>0.32541E+02</wgt>
<wgt id='6050'>0.32463E+02</wgt>
<wgt id='7000'>0.30523E+02</wgt>
<wgt id='7001'>0.30529E+02</wgt>
<wgt id='7002'>0.30515E+02</wgt>
<wgt id='7003'>0.30612E+02</wgt>
<wgt id='7004'>0.30435E+02</wgt>
<wgt id='7005'>0.30578E+02</wgt>
<wgt id='7006'>0.30501E+02</wgt>
<wgt id='7007'>0.30403E+02</wgt>
<wgt id='7008'>0.30643E+02</wgt>
<wgt id='7009'>0.30580E+02</wgt>
<wgt id='7010'>0.30467E+02</wgt>
<wgt id='7011'>0.30226E+02</wgt>
<wgt id='7012'>0.30652E+02</wgt>
<wgt id='7013'>0.30523E+02</wgt>
<wgt id='7014'>0.30523E+02</wgt>
<wgt id='7015'>0.30434E+02</wgt>
<wgt id='7016'>0.30619E+02</wgt>
<wgt id='7017'>0.30389E+02</wgt>
<wgt id='7018'>0.30594E+02</wgt>
<wgt id='7019'>0.30488E+02</wgt>
<wgt id='7020'>0.30572E+02</wgt>
<wgt id='7021'>0.30515E+02</wgt>
<wgt id='7022'>0.30527E+02</wgt>
<wgt id='7023'>0.30777E+02</wgt>
<wgt id='7024'>0.30265E+02</wgt>
<wgt id='7025'>0.30631E+02</wgt>
<wgt id='7026'>0.30258E+02</wgt>
<wgt id='7027'>0.30644E+02</wgt>
<wgt id='7028'>0.30479E+02</wgt>
<wgt id='7029'>0.30427E+02</wgt>
<wgt id='7030'>0.30757E+02</wgt>
<wgt id='7031'>0.30509E+02</wgt>
<wgt id='7032'>0.30560E+02</wgt>
<wgt id='7033'>0.30497E+02</wgt>
<wgt id='7034'>0.30591E+02</wgt>
<wgt id='7035'>0.30565E+02</wgt>
<wgt id='7036'>0.30520E+02</wgt>
<wgt id='7037'>0.30533E+02</wgt>
<wgt id='7038'>0.30535E+02</wgt>
<wgt id='7039'>0.30480E+02</wgt>
<wgt id='7040'>0.30553E+02</wgt>
<wgt id='7041'>0.30468E+02</wgt>
<wgt id='7042'>0.30573E+02</wgt>
<wgt id='7043'>0.30548E+02</wgt>
<wgt id='7044'>0.30384E+02</wgt>
<wgt id='7045'>0.30269E+02</wgt>
<wgt id='7046'>0.30642E+02</wgt>
<wgt id='7047'>0.30579E+02</wgt>
<wgt id='7048'>0.30491E+02</wgt>
<wgt id='7049'>0.30466E+02</wgt>
<wgt id='7050'>0.30523E+02</wgt>
<wgt id='7060'>0.48927E+02</wgt>
<wgt id='8000'>0.31002E+02</wgt>
<wgt id='8001'>0.30993E+02</wgt>
<wgt id='8002'>0.31011E+02</wgt>
<wgt id='8003'>0.31004E+02</wgt>
<wgt id='8004'>0.31001E+02</wgt>
<wgt id='8005'>0.30929E+02</wgt>
<wgt id='8006'>0.30987E+02</wgt>
<wgt id='8007'>0.30969E+02</wgt>
<wgt id='8008'>0.31058E+02</wgt>
<wgt id='8009'>0.31117E+02</wgt>
<wgt id='8010'>0.31001E+02</wgt>
<wgt id='8011'>0.30987E+02</wgt>
<wgt id='8012'>0.30962E+02</wgt>
<wgt id='8013'>0.30990E+02</wgt>
<wgt id='8014'>0.30994E+02</wgt>
<wgt id='8015'>0.30977E+02</wgt>
<wgt id='8016'>0.31014E+02</wgt>
<wgt id='8017'>0.31005E+02</wgt>
<wgt id='8018'>0.31009E+02</wgt>
<wgt id='8019'>0.31045E+02</wgt>
<wgt id='8020'>0.30918E+02</wgt>
<wgt id='8021'>0.31002E+02</wgt>
<wgt id='8022'>0.30848E+02</wgt>
<wgt id='8023'>0.31024E+02</wgt>
<wgt id='8024'>0.31043E+02</wgt>
<wgt id='8025'>0.31086E+02</wgt>
<wgt id='8026'>0.31060E+02</wgt>
<wgt id='8027'>0.30959E+02</wgt>
<wgt id='8028'>0.31032E+02</wgt>
<wgt id='8029'>0.30793E+02</wgt>
<wgt id='8500'>0.32419E+02</wgt>
<wgt id='8501'>0.32313E+02</wgt>
<wgt id='8502'>0.32605E+02</wgt>
<wgt id='8503'>0.32574E+02</wgt>
<wgt id='8504'>0.32357E+02</wgt>
<wgt id='8505'>0.32362E+02</wgt>
<wgt id='8506'>0.32372E+02</wgt>
<wgt id='8507'>0.32544E+02</wgt>
<wgt id='8508'>0.32647E+02</wgt>
<wgt id='8509'>0.32348E+02</wgt>
<wgt id='8510'>0.32838E+02</wgt>
<wgt id='8511'>0.32436E+02</wgt>
<wgt id='8512'>0.32133E+02</wgt>
<wgt id='8513'>0.32458E+02</wgt>
<wgt id='8514'>0.32155E+02</wgt>
<wgt id='8515'>0.32484E+02</wgt>
<wgt id='8516'>0.32476E+02</wgt>
<wgt id='8517'>0.32293E+02</wgt>
<wgt id='8518'>0.32335E+02</wgt>
<wgt id='8519'>0.32341E+02</wgt>
<wgt id='8520'>0.32424E+02</wgt>
<wgt id='8521'>0.32259E+02</wgt>
<wgt id='8522'>0.32454E+02</wgt>
<wgt id='8523'>0.32345E+02</wgt>
<wgt id='8524'>0.32402E+02</wgt>
<wgt id='8525'>0.32391E+02</wgt>
<wgt id='8526'>0.32380E+02</wgt>
<wgt id='8527'>0.32429E+02</wgt>
<wgt id='8528'>0.32336E+02</wgt>
<wgt id='8529'>0.32390E+02</wgt>
<wgt id='8530'>0.32410E+02</wgt>
<wgt id='8531'>0.32408E+02</wgt>
<wgt id='8532'>0.32422E+02</wgt>
<wgt id='8533'>0.32356E+02</wgt>
<wgt id='8534'>0.32430E+02</wgt>
<wgt id='8535'>0.32493E+02</wgt>
<wgt id='8536'>0.32395E+02</wgt>
<wgt id='8537'>0.32431E+02</wgt>
<wgt id='8538'>0.32393E+02</wgt>
<wgt id='8539'>0.32426E+02</wgt>
<wgt id='8540'>0.32423E+02</wgt>
<wgt id='8541'>0.32434E+02</wgt>
<wgt id='8542'>0.32441E+02</wgt>
<wgt id='8543'>0.32392E+02</wgt>
<wgt id='8544'>0.32447E+02</wgt>
<wgt id='8545'>0.32444E+02</wgt>
<wgt id='8546'>0.32453E+02</wgt>
<wgt id='8547'>0.32396E+02</wgt>
<wgt id='8548'>0.32390E+02</wgt>
<wgt id='8549'>0.32419E+02</wgt>
<wgt id='8550'>0.32421E+02</wgt>
<wgt id='8551'>0.32389E+02</wgt>
<wgt id='8552'>0.32423E+02</wgt>
<wgt id='8553'>0.32403E+02</wgt>
<wgt id='8554'>0.32406E+02</wgt>
<wgt id='8555'>0.32421E+02</wgt>
<wgt id='8556'>0.32417E+02</wgt>
<wgt id='8557'>0.32412E+02</wgt>
<wgt id='8558'>0.32454E+02</wgt>
<wgt id='8559'>0.32403E+02</wgt>
<wgt id='8560'>0.32384E+02</wgt>
<wgt id='8561'>0.32415E+02</wgt>
<wgt id='8562'>0.32394E+02</wgt>
<wgt id='8563'>0.32421E+02</wgt>
<wgt id='8564'>0.32411E+02</wgt>
<wgt id='8565'>0.32418E+02</wgt>
<wgt id='8566'>0.32415E+02</wgt>
<wgt id='8567'>0.32416E+02</wgt>
<wgt id='8568'>0.32432E+02</wgt>
<wgt id='8569'>0.32428E+02</wgt>
<wgt id='8570'>0.32418E+02</wgt>
<wgt id='8571'>0.32406E+02</wgt>
<wgt id='8572'>0.32408E+02</wgt>
<wgt id='8573'>0.32405E+02</wgt>
<wgt id='8574'>0.32426E+02</wgt>
<wgt id='8575'>0.32416E+02</wgt>
<wgt id='8576'>0.32416E+02</wgt>
<wgt id='8577'>0.32417E+02</wgt>
<wgt id='8578'>0.32422E+02</wgt>
<wgt id='8579'>0.32439E+02</wgt>
<wgt id='8580'>0.32420E+02</wgt>
<wgt id='8581'>0.32425E+02</wgt>
<wgt id='8582'>0.32398E+02</wgt>
<wgt id='8583'>0.32433E+02</wgt>
<wgt id='8584'>0.32428E+02</wgt>
<wgt id='8585'>0.32426E+02</wgt>
<wgt id='8586'>0.32436E+02</wgt>
<wgt id='8587'>0.32415E+02</wgt>
<wgt id='8588'>0.32411E+02</wgt>
<wgt id='8589'>0.32421E+02</wgt>
<wgt id='8590'>0.32416E+02</wgt>
<wgt id='8591'>0.32415E+02</wgt>
<wgt id='8592'>0.32419E+02</wgt>
<wgt id='8593'>0.32407E+02</wgt>
<wgt id='8594'>0.32424E+02</wgt>
<wgt id='8595'>0.32423E+02</wgt>
<wgt id='8596'>0.32411E+02</wgt>
<wgt id='8597'>0.32424E+02</wgt>
<wgt id='8598'>0.32427E+02</wgt>
<wgt id='8599'>0.32424E+02</wgt>
<wgt id='8600'>0.32419E+02</wgt>
<wgt id='8601'>0.31703E+02</wgt>
<wgt id='8602'>0.33076E+02</wgt>
<wgt id='9000'>0.30739E+02</wgt>
<wgt id='9001'>0.30760E+02</wgt>
<wgt id='9002'>0.30850E+02</wgt>
<wgt id='9003'>0.30551E+02</wgt>
<wgt id='9004'>0.30700E+02</wgt>
<wgt id='9005'>0.30810E+02</wgt>
<wgt id='9006'>0.30717E+02</wgt>
<wgt id='9007'>0.30812E+02</wgt>
<wgt id='9008'>0.30802E+02</wgt>
<wgt id='9009'>0.30713E+02</wgt>
<wgt id='9010'>0.30654E+02</wgt>
<wgt id='9011'>0.31036E+02</wgt>
<wgt id='9012'>0.30509E+02</wgt>
<wgt id='9013'>0.30380E+02</wgt>
<wgt id='9014'>0.30518E+02</wgt>
<wgt id='9015'>0.30733E+02</wgt>
<wgt id='9016'>0.30994E+02</wgt>
<wgt id='9017'>0.30687E+02</wgt>
<wgt id='9018'>0.30679E+02</wgt>
<wgt id='9019'>0.30694E+02</wgt>
<wgt id='9020'>0.30887E+02</wgt>
<wgt id='9021'>0.30693E+02</wgt>
<wgt id='9022'>0.30784E+02</wgt>
<wgt id='9023'>0.30670E+02</wgt>
<wgt id='9024'>0.30696E+02</wgt>
<wgt id='9025'>0.30771E+02</wgt>
<wgt id='9026'>0.30735E+02</wgt>
<wgt id='9027'>0.30695E+02</wgt>
<wgt id='9028'>0.30769E+02</wgt>
<wgt id='9029'>0.30775E+02</wgt>
<wgt id='9030'>0.30745E+02</wgt>
<wgt id='9031'>0.30728E+02</wgt>
<wgt id='9032'>0.30766E+02</wgt>
<wgt id='9033'>0.30777E+02</wgt>
<wgt id='9034'>0.30728E+02</wgt>
<wgt id='9035'>0.30788E+02</wgt>
<wgt id='9036'>0.30743E+02</wgt>
<wgt id='9037'>0.30767E+02</wgt>
<wgt id='9038'>0.30745E+02</wgt>
<wgt id='9039'>0.30743E+02</wgt>
<wgt id='9040'>0.30708E+02</wgt>
<wgt id='9041'>0.30726E+02</wgt>
<wgt id='9042'>0.30734E+02</wgt>
<wgt id='9043'>0.30716E+02</wgt>
<wgt id='9044'>0.30748E+02</wgt>
<wgt id='9045'>0.30736E+02</wgt>
<wgt id='9046'>0.30700E+02</wgt>
<wgt id='9047'>0.30729E+02</wgt>
<wgt id='9048'>0.30749E+02</wgt>
<wgt id='9049'>0.30721E+02</wgt>
<wgt id='9050'>0.30745E+02</wgt>
<wgt id='9051'>0.30754E+02</wgt>
<wgt id='9052'>0.30748E+02</wgt>
<wgt id='9053'>0.30743E+02</wgt>
<wgt id='9054'>0.30726E+02</wgt>
<wgt id='9055'>0.30731E+02</wgt>
<wgt id='9056'>0.30765E+02</wgt>
<wgt id='9057'>0.30738E+02</wgt>
<wgt id='9058'>0.30716E+02</wgt>
<wgt id='9059'>0.30726E+02</wgt>
<wgt id='9060'>0.30728E+02</wgt>
<wgt id='9061'>0.30743E+02</wgt>
<wgt id='9062'>0.30743E+02</wgt>
<wgt id='9063'>0.30753E+02</wgt>
<wgt id='9064'>0.30731E+02</wgt>
<wgt id='9065'>0.30738E+02</wgt>
<wgt id='9066'>0.30743E+02</wgt>
<wgt id='9067'>0.30749E+02</wgt>
<wgt id='9068'>0.30748E+02</wgt>
<wgt id='9069'>0.30756E+02</wgt>
<wgt id='9070'>0.30735E+02</wgt>
<wgt id='9071'>0.30758E+02</wgt>
<wgt id='9072'>0.30758E+02</wgt>
<wgt id='9073'>0.30731E+02</wgt>
<wgt id='9074'>0.30743E+02</wgt>
<wgt id='9075'>0.30737E+02</wgt>
<wgt id='9076'>0.30736E+02</wgt>
<wgt id='9077'>0.30744E+02</wgt>
<wgt id='9078'>0.30742E+02</wgt>
<wgt id='9079'>0.30734E+02</wgt>
<wgt id='9080'>0.30760E+02</wgt>
<wgt id='9081'>0.30736E+02</wgt>
<wgt id='9082'>0.30747E+02</wgt>
<wgt id='9083'>0.30729E+02</wgt>
<wgt id='9084'>0.30730E+02</wgt>
<wgt id='9085'>0.30731E+02</wgt>
<wgt id='9086'>0.30744E+02</wgt>
<wgt id='9087'>0.30719E+02</wgt>
<wgt id='9088'>0.30732E+02</wgt>
<wgt id='9089'>0.30732E+02</wgt>
<wgt id='9090'>0.30744E+02</wgt>
<wgt id='9091'>0.30735E+02</wgt>
<wgt id='9092'>0.30738E+02</wgt>
<wgt id='9093'>0.30734E+02</wgt>
<wgt id='9094'>0.30737E+02</wgt>
<wgt id='9095'>0.30743E+02</wgt>
<wgt id='9096'>0.30733E+02</wgt>
<wgt id='9097'>0.30741E+02</wgt>
<wgt id='9098'>0.30739E+02</wgt>
<wgt id='9099'>0.30732E+02</wgt>
<wgt id='9100'>0.30738E+02</wgt>
<wgt id='9101'>0.30173E+02</wgt>
<wgt id='9102'>0.31263E+02</wgt>
<wgt id='10000'>0.32430E+02</wgt>
<wgt id='10001'>0.32553E+02</wgt>
<wgt id='10002'>0.32341E+02</wgt>
<wgt id='10003'>0.32423E+02</wgt>
<wgt id='10004'>0.32384E+02</wgt>
<wgt id='10005'>0.33102E+02</wgt>
<wgt id='10006'>0.32387E+02</wgt>
<wgt id='10007'>0.32414E+02</wgt>
<wgt id='10008'>0.32472E+02</wgt>
<wgt id='10009'>0.32368E+02</wgt>
<wgt id='10010'>0.32462E+02</wgt>
<wgt id='10011'>0.32396E+02</wgt>
<wgt id='10012'>0.32382E+02</wgt>
<wgt id='10013'>0.32428E+02</wgt>
<wgt id='10014'>0.32417E+02</wgt>
<wgt id='10015'>0.32462E+02</wgt>
<wgt id='10016'>0.32409E+02</wgt>
<wgt id='10017'>0.32247E+02</wgt>
<wgt id='10018'>0.32462E+02</wgt>
<wgt id='10019'>0.32394E+02</wgt>
<wgt id='10020'>0.32406E+02</wgt>
<wgt id='10021'>0.32420E+02</wgt>
<wgt id='10022'>0.32410E+02</wgt>
<wgt id='10023'>0.32435E+02</wgt>
<wgt id='10024'>0.32408E+02</wgt>
<wgt id='10025'>0.32409E+02</wgt>
<wgt id='10026'>0.32476E+02</wgt>
<wgt id='10027'>0.32470E+02</wgt>
<wgt id='10028'>0.32614E+02</wgt>
<wgt id='10029'>0.32470E+02</wgt>
<wgt id='10030'>0.32421E+02</wgt>
<wgt id='10031'>0.31703E+02</wgt>
<wgt id='10032'>0.33076E+02</wgt>
<wgt id='11000'>0.30748E+02</wgt>
<wgt id='11001'>0.30624E+02</wgt>
<wgt id='11002'>0.30848E+02</wgt>
<wgt id='11003'>0.30713E+02</wgt>
<wgt id='11004'>0.30846E+02</wgt>
<wgt id='11005'>0.30420E+02</wgt>
<wgt id='11006'>0.30755E+02</wgt>
<wgt id='11007'>0.30680E+02</wgt>
<wgt id='11008'>0.30674E+02</wgt>
<wgt id='11009'>0.30634E+02</wgt>
<wgt id='11010'>0.30904E+02</wgt>
<wgt id='11011'>0.30624E+02</wgt>
<wgt id='11012'>0.30772E+02</wgt>
<wgt id='11013'>0.30836E+02</wgt>
<wgt id='11014'>0.30680E+02</wgt>
<wgt id='11015'>0.30722E+02</wgt>
<wgt id='11016'>0.30718E+02</wgt>
<wgt id='11017'>0.30951E+02</wgt>
<wgt id='11018'>0.30737E+02</wgt>
<wgt id='11019'>0.30734E+02</wgt>
<wgt id='11020'>0.30809E+02</wgt>
<wgt id='11021'>0.30814E+02</wgt>
<wgt id='11022'>0.31236E+02</wgt>
<wgt id='11023'>0.30752E+02</wgt>
<wgt id='11024'>0.30757E+02</wgt>
<wgt id='11025'>0.30719E+02</wgt>
<wgt id='11026'>0.30755E+02</wgt>
<wgt id='11027'>0.30739E+02</wgt>
<wgt id='11028'>0.30761E+02</wgt>
<wgt id='11029'>0.30762E+02</wgt>
<wgt id='11030'>0.30747E+02</wgt>
<wgt id='11031'>0.30173E+02</wgt>
<wgt id='11032'>0.31263E+02</wgt>
<wgt id='12000'>0.34045E+02</wgt>
<wgt id='12001'>0.34001E+02</wgt>
<wgt id='12002'>0.34089E+02</wgt>
<wgt id='12003'>0.34129E+02</wgt>
<wgt id='12004'>0.33961E+02</wgt>
<wgt id='12005'>0.34095E+02</wgt>
<wgt id='12006'>0.33995E+02</wgt>
<wgt id='12007'>0.34130E+02</wgt>
<wgt id='12008'>0.33962E+02</wgt>
<wgt id='12009'>0.34087E+02</wgt>
<wgt id='12010'>0.34004E+02</wgt>
<wgt id='12011'>0.33950E+02</wgt>
<wgt id='12012'>0.34142E+02</wgt>
<wgt id='12013'>0.33924E+02</wgt>
<wgt id='12014'>0.34167E+02</wgt>
<wgt id='12015'>0.34058E+02</wgt>
<wgt id='12016'>0.34013E+02</wgt>
<wgt id='12017'>0.34157E+02</wgt>
<wgt id='12018'>0.33921E+02</wgt>
<wgt id='12019'>0.33959E+02</wgt>
<wgt id='12020'>0.34128E+02</wgt>
<wgt id='12021'>0.34159E+02</wgt>
<wgt id='12022'>0.33895E+02</wgt>
<wgt id='12023'>0.33876E+02</wgt>
<wgt id='12024'>0.34054E+02</wgt>
<wgt id='12025'>0.34089E+02</wgt>
<wgt id='12026'>0.34047E+02</wgt>
<wgt id='12027'>0.34100E+02</wgt>
<wgt id='12028'>0.34020E+02</wgt>
<wgt id='12050'>0.34045E+02</wgt>
<wgt id='12051'>0.34036E+02</wgt>
<wgt id='12052'>0.34034E+02</wgt>
<wgt id='12053'>0.34028E+02</wgt>
<wgt id='12054'>0.34039E+02</wgt>
<wgt id='12055'>0.34161E+02</wgt>
<wgt id='12056'>0.33901E+02</wgt>
<wgt id='12057'>0.33932E+02</wgt>
<wgt id='12058'>0.34155E+02</wgt>
<wgt id='12059'>0.33993E+02</wgt>
<wgt id='12060'>0.34109E+02</wgt>
<wgt id='12061'>0.34020E+02</wgt>
<wgt id='12062'>0.34101E+02</wgt>
<wgt id='12063'>0.33753E+02</wgt>
<wgt id='13000'>0.31199E+02</wgt>
<wgt id='13001'>0.31175E+02</wgt>
<wgt id='13002'>0.31218E+02</wgt>
<wgt id='13003'>0.31243E+02</wgt>
<wgt id='13004'>0.31150E+02</wgt>
<wgt id='13005'>0.31269E+02</wgt>
<wgt id='13006'>0.31125E+02</wgt>
<wgt id='13007'>0.31322E+02</wgt>
<wgt id='13008'>0.31074E+02</wgt>
<wgt id='13009'>0.31181E+02</wgt>
<wgt id='13010'>0.31213E+02</wgt>
<wgt id='13011'>0.31278E+02</wgt>
<wgt id='13012'>0.31116E+02</wgt>
<wgt id='13013'>0.31114E+02</wgt>
<wgt id='13014'>0.31280E+02</wgt>
<wgt id='13015'>0.31168E+02</wgt>
<wgt id='13016'>0.31220E+02</wgt>
<wgt id='13017'>0.31178E+02</wgt>
<wgt id='13018'>0.31210E+02</wgt>
<wgt id='13019'>0.31151E+02</wgt>
<wgt id='13020'>0.31240E+02</wgt>
<wgt id='13021'>0.31003E+02</wgt>
<wgt id='13022'>0.31349E+02</wgt>
<wgt id='13023'>0.31169E+02</wgt>
<wgt id='13024'>0.31221E+02</wgt>
<wgt id='13025'>0.31060E+02</wgt>
<wgt id='13026'>0.31259E+02</wgt>
<wgt id='13027'>0.31178E+02</wgt>
<wgt id='13028'>0.31249E+02</wgt>
<wgt id='13050'>0.31199E+02</wgt>
<wgt id='13051'>0.31212E+02</wgt>
<wgt id='13052'>0.31107E+02</wgt>
<wgt id='13053'>0.31200E+02</wgt>
<wgt id='13054'>0.31183E+02</wgt>
<wgt id='13055'>0.31068E+02</wgt>
<wgt id='13056'>0.31214E+02</wgt>
<wgt id='13057'>0.31101E+02</wgt>
<wgt id='13058'>0.31351E+02</wgt>
<wgt id='13059'>0.31111E+02</wgt>
<wgt id='13060'>0.31134E+02</wgt>
<wgt id='13061'>0.31108E+02</wgt>
<wgt id='13062'>0.31437E+02</wgt>
<wgt id='13063'>0.31080E+02</wgt>
<wgt id='14000'>0.32037E+02</wgt>
<wgt id='14001'>0.32032E+02</wgt>
<wgt id='14002'>0.32027E+02</wgt>
<wgt id='14003'>0.32022E+02</wgt>
<wgt id='14004'>0.32017E+02</wgt>
<wgt id='14005'>0.32012E+02</wgt>
<wgt id='14006'>0.32007E+02</wgt>
<wgt id='14007'>0.32002E+02</wgt>
<wgt id='14008'>0.31997E+02</wgt>
<wgt id='14009'>0.31992E+02</wgt>
<wgt id='14010'>0.31987E+02</wgt>
<wgt id='14011'>0.31982E+02</wgt>
<wgt id='14012'>0.31977E+02</wgt>
<wgt id='14013'>0.31972E+02</wgt>
<wgt id='14014'>0.31967E+02</wgt>
<wgt id='14015'>0.31962E+02</wgt>
<wgt id='14016'>0.31957E+02</wgt>
<wgt id='14017'>0.31952E+02</wgt>
<wgt id='14018'>0.31947E+02</wgt>
<wgt id='14019'>0.31942E+02</wgt>
<wgt id='14020'>0.31937E+02</wgt>
<wgt id='14021'>0.31932E+02</wgt>
<wgt id='14022'>0.31927E+02</wgt>
<wgt id='14023'>0.31922E+02</wgt>
<wgt id='14024'>0.31917E+02</wgt>
<wgt id='14025'>0.31912E+02</wgt>
<wgt id='14026'>0.31907E+02</wgt>
<wgt id='14027'>0.31902E+02</wgt>
<wgt id='14028'>0.31897E+02</wgt>
<wgt id='14029'>0.31892E+02</wgt>
<wgt id='14030'>0.31887E+02</wgt>
<wgt id='15000'>0.30367E+02</wgt>
<wgt id='15001'>0.30387E+02</wgt>
<wgt id='15002'>0.30477E+02</wgt>
<wgt id='15003'>0.30182E+02</wgt>
<wgt id='15004'>0.30329E+02</wgt>
<wgt id='15005'>0.30438E+02</wgt>
<wgt id='15006'>0.30345E+02</wgt>
<wgt id='15007'>0.30438E+02</wgt>
<wgt id='15008'>0.30428E+02</wgt>
<wgt id='15009'>0.30341E+02</wgt>
<wgt id='15010'>0.30282E+02</wgt>
<wgt id='15011'>0.30663E+02</wgt>
<wgt id='15012'>0.30141E+02</wgt>
<wgt id='15013'>0.30011E+02</wgt>
<wgt id='15014'>0.30147E+02</wgt>
<wgt id='15015'>0.30361E+02</wgt>
<wgt id='15016'>0.30622E+02</wgt>
<wgt id='15017'>0.30317E+02</wgt>
<wgt id='15018'>0.30307E+02</wgt>
<wgt id='15019'>0.30323E+02</wgt>
<wgt id='15020'>0.30514E+02</wgt>
<wgt id='15021'>0.30317E+02</wgt>
<wgt id='15022'>0.30412E+02</wgt>
<wgt id='15023'>0.30297E+02</wgt>
<wgt id='15024'>0.30324E+02</wgt>
<wgt id='15025'>0.30401E+02</wgt>
<wgt id='15026'>0.30363E+02</wgt>
<wgt id='15027'>0.30322E+02</wgt>
<wgt id='15028'>0.30397E+02</wgt>
<wgt id='15029'>0.30403E+02</wgt>
<wgt id='15030'>0.30370E+02</wgt>
<wgt id='15031'>0.30356E+02</wgt>
<wgt id='15032'>0.30395E+02</wgt>
<wgt id='15033'>0.30405E+02</wgt>
<wgt id='15034'>0.30356E+02</wgt>
<wgt id='15035'>0.30416E+02</wgt>
<wgt id='15036'>0.30370E+02</wgt>
<wgt id='15037'>0.30395E+02</wgt>
<wgt id='15038'>0.30373E+02</wgt>
<wgt id='15039'>0.30371E+02</wgt>
<wgt id='15040'>0.30336E+02</wgt>
<wgt id='15041'>0.30355E+02</wgt>
<wgt id='15042'>0.30363E+02</wgt>
<wgt id='15043'>0.30344E+02</wgt>
<wgt id='15044'>0.30377E+02</wgt>
<wgt id='15045'>0.30365E+02</wgt>
<wgt id='15046'>0.30328E+02</wgt>
<wgt id='15047'>0.30357E+02</wgt>
<wgt id='15048'>0.30377E+02</wgt>
<wgt id='15049'>0.30349E+02</wgt>
<wgt id='15050'>0.30373E+02</wgt>
<wgt id='15051'>0.30382E+02</wgt>
<wgt id='15052'>0.30376E+02</wgt>
<wgt id='15053'>0.30371E+02</wgt>
<wgt id='15054'>0.30354E+02</wgt>
<wgt id='15055'>0.30359E+02</wgt>
<wgt id='15056'>0.30393E+02</wgt>
<wgt id='15057'>0.30366E+02</wgt>
<wgt id='15058'>0.30344E+02</wgt>
<wgt id='15059'>0.30354E+02</wgt>
<wgt id='15060'>0.30357E+02</wgt>
<wgt id='15061'>0.30371E+02</wgt>
<wgt id='15062'>0.30371E+02</wgt>
<wgt id='15063'>0.30381E+02</wgt>
<wgt id='15064'>0.30360E+02</wgt>
<wgt id='15065'>0.30366E+02</wgt>
<wgt id='15066'>0.30371E+02</wgt>
<wgt id='15067'>0.30377E+02</wgt>
<wgt id='15068'>0.30377E+02</wgt>
<wgt id='15069'>0.30384E+02</wgt>
<wgt id='15070'>0.30363E+02</wgt>
<wgt id='15071'>0.30386E+02</wgt>
<wgt id='15072'>0.30386E+02</wgt>
<wgt id='15073'>0.30359E+02</wgt>
<wgt id='15074'>0.30371E+02</wgt>
<wgt id='15075'>0.30365E+02</wgt>
<wgt id='15076'>0.30365E+02</wgt>
<wgt id='15077'>0.30372E+02</wgt>
<wgt id='15078'>0.30370E+02</wgt>
<wgt id='15079'>0.30362E+02</wgt>
<wgt id='15080'>0.30388E+02</wgt>
<wgt id='15081'>0.30364E+02</wgt>
<wgt id='15082'>0.30375E+02</wgt>
<wgt id='15083'>0.30357E+02</wgt>
<wgt id='15084'>0.30358E+02</wgt>
<wgt id='15085'>0.30359E+02</wgt>
<wgt id='15086'>0.30372E+02</wgt>
<wgt id='15087'>0.30348E+02</wgt>
<wgt id='15088'>0.30360E+02</wgt>
<wgt id='15089'>0.30360E+02</wgt>
<wgt id='15090'>0.30372E+02</wgt>
<wgt id='15091'>0.30364E+02</wgt>
<wgt id='15092'>0.30366E+02</wgt>
<wgt id='15093'>0.30362E+02</wgt>
<wgt id='15094'>0.30365E+02</wgt>
<wgt id='15095'>0.30371E+02</wgt>
<wgt id='15096'>0.30361E+02</wgt>
<wgt id='15097'>0.30369E+02</wgt>
<wgt id='15098'>0.30367E+02</wgt>
<wgt id='15099'>0.30360E+02</wgt>
<wgt id='15100'>0.30366E+02</wgt>
<wgt id='15101'>0.30367E+02</wgt>
<wgt id='15102'>0.30365E+02</wgt>
<wgt id='15103'>0.30368E+02</wgt>
<wgt id='15104'>0.30368E+02</wgt>
<wgt id='15105'>0.30368E+02</wgt>
<wgt id='15106'>0.30367E+02</wgt>
<wgt id='15107'>0.30366E+02</wgt>
<wgt id='1500'>0.32430E+02</wgt>
<wgt id='1501'>0.29976E+02</wgt>
<wgt id='1502'>0.32285E+02</wgt>
<wgt id='1503'>0.32506E+02</wgt>
<wgt id='1504'>0.32005E+02</wgt>
<wgt id='1505'>0.29078E+02</wgt>
<wgt id='1506'>0.32940E+02</wgt>
<wgt id='1507'>0.32679E+02</wgt>
<wgt id='1508'>0.32714E+02</wgt>
<wgt id='1509'>0.32663E+02</wgt>
<wgt id='1510'>0.31511E+02</wgt>
<wgt id='1511'>0.31709E+02</wgt>
<wgt id='1512'>0.32979E+02</wgt>
<wgt id='1513'>0.33030E+02</wgt>
<wgt id='1514'>0.31911E+02</wgt>
<wgt id='1515'>0.32990E+02</wgt>
<wgt id='1516'>0.32716E+02</wgt>
<wgt id='1517'>0.32172E+02</wgt>
<wgt id='1518'>0.32183E+02</wgt>
<wgt id='1519'>0.32890E+02</wgt>
<wgt id='1520'>0.33037E+02</wgt>
<wgt id='1521'>0.32714E+02</wgt>
<wgt id='1522'>0.32176E+02</wgt>
<wgt id='1523'>0.34802E+02</wgt>
<wgt id='1524'>0.32366E+02</wgt>
<wgt id='1525'>0.32627E+02</wgt>
<wgt id='1526'>0.32143E+02</wgt>
<wgt id='1527'>0.32045E+02</wgt>
<wgt id='1528'>0.32163E+02</wgt>
<wgt id='1529'>0.32365E+02</wgt>
<wgt id='1530'>0.33166E+02</wgt>
<wgt id='1531'>0.32372E+02</wgt>
<wgt id='1532'>0.31693E+02</wgt>
<wgt id='1533'>0.32352E+02</wgt>
<wgt id='1534'>0.32617E+02</wgt>
<wgt id='1535'>0.33232E+02</wgt>
<wgt id='1536'>0.32817E+02</wgt>
<wgt id='1537'>0.33004E+02</wgt>
<wgt id='1538'>0.32768E+02</wgt>
<wgt id='1539'>0.31569E+02</wgt>
<wgt id='1540'>0.32734E+02</wgt>
<wgt id='1541'>0.32502E+02</wgt>
<wgt id='1542'>0.32460E+02</wgt>
<wgt id='1543'>0.32651E+02</wgt>
<wgt id='1544'>0.32292E+02</wgt>
<wgt id='1545'>0.32415E+02</wgt>
<wgt id='1546'>0.32900E+02</wgt>
<wgt id='1547'>0.32000E+02</wgt>
<wgt id='1548'>0.32086E+02</wgt>
<wgt id='1549'>0.32150E+02</wgt>
<wgt id='1550'>0.32330E+02</wgt>
<wgt id='1551'>0.32376E+02</wgt>
<wgt id='1552'>0.32084E+02</wgt>
<wgt id='1553'>0.32869E+02</wgt>
<wgt id='1554'>0.32626E+02</wgt>
<wgt id='1555'>0.32187E+02</wgt>
<wgt id='1556'>0.31843E+02</wgt>
<wgt id='1557'>0.33095E+02</wgt>
<wgt id='1558'>0.32078E+02</wgt>
<wgt id='1559'>0.32896E+02</wgt>
<wgt id='1560'>0.32309E+02</wgt>
<wgt id='1561'>0.32442E+02</wgt>
<wgt id='1562'>0.32496E+02</wgt>
<wgt id='1563'>0.32764E+02</wgt>
<wgt id='1564'>0.31802E+02</wgt>
<wgt id='1565'>0.32672E+02</wgt>
<wgt id='1566'>0.32661E+02</wgt>
<wgt id='1567'>0.34396E+02</wgt>
<wgt id='1568'>0.32008E+02</wgt>
<wgt id='1569'>0.31612E+02</wgt>
<wgt id='1570'>0.32253E+02</wgt>
<wgt id='1571'>0.32660E+02</wgt>
<wgt id='1572'>0.32637E+02</wgt>
<wgt id='1573'>0.30520E+02</wgt>
<wgt id='1574'>0.32824E+02</wgt>
<wgt id='1575'>0.32140E+02</wgt>
<wgt id='1576'>0.31925E+02</wgt>
<wgt id='1577'>0.32790E+02</wgt>
<wgt id='1578'>0.33433E+02</wgt>
<wgt id='1579'>0.32143E+02</wgt>
<wgt id='1580'>0.32498E+02</wgt>
<wgt id='1581'>0.32677E+02</wgt>
<wgt id='1582'>0.32030E+02</wgt>
<wgt id='1583'>0.32921E+02</wgt>
<wgt id='1584'>0.32359E+02</wgt>
<wgt id='1585'>0.31733E+02</wgt>
<wgt id='1586'>0.32270E+02</wgt>
<wgt id='1587'>0.32446E+02</wgt>
<wgt id='1588'>0.32365E+02</wgt>
<wgt id='1589'>0.33339E+02</wgt>
<wgt id='1590'>0.32259E+02</wgt>
<wgt id='1591'>0.32014E+02</wgt>
<wgt id='1592'>0.32657E+02</wgt>
<wgt id='1593'>0.32275E+02</wgt>
<wgt id='1594'>0.33115E+02</wgt>
<wgt id='1595'>0.31902E+02</wgt>
<wgt id='1596'>0.32904E+02</wgt>
<wgt id='1597'>0.32353E+02</wgt>
<wgt id='1598'>0.33329E+02</wgt>
<wgt id='1599'>0.33038E+02</wgt>
<wgt id='1600'>0.32686E+02</wgt>
<wgt id='1601'>0.31881E+02</wgt>
<wgt id='1602'>0.32785E+02</wgt>
<wgt id='1700'>0.31065E+02</wgt>
<wgt id='1800'>0.37413E+02</wgt>
<wgt id='1850'>0.46059E+02</wgt>
<wgt id='1900'>0.38344E+02</wgt>
<wgt id='1950'>0.45406E+02</wgt>
</rwgt>
</event>
<event>
      4   9999  3.15120E+01  4.56097E+01 -1.00000E+00  1.39314E-01
      21    -1     0     0   502   511  0.000000000E+00  0.000000000E+00  1.379256073E+02  1.379256073E+02  0.000000000E+00  0.00000E+00  9.000E+00
      21    -1     0     0   501   502  0.000000000E+00  0.000000000E+00 -5.793616768E+01  5.793616768E+01  0.000000000E+00  0.00000E+00  9.000E+00
      25     1     1     2     0     0  4.553000024E+01 -2.695430885E+00  3.804663679E+01  1.338985199E+02  1.200042532E+02  0.00000E+00  9.000E+00
      21     1     1     2   501   511 -4.553000024E+01  2.695430885E+00  4.194280280E+01  6.196325505E+01  1.168007728E-06  0.00000E+00  9.000E+00
#rwgt            1           1   22.613931898143282                2        1718           0
<rwgt>
<wgt id='1001'>0.31512E+02</wgt>
<wgt id='1002'>0.30194E+02</wgt>
<wgt id='1003'>0.32447E+02</wgt>
<wgt id='1004'>0.29862E+02</wgt>
<wgt id='1005'>0.29181E+02</wgt>
<wgt id='1006'>0.30141E+02</wgt>
<wgt id='1007'>0.32017E+02</wgt>
<wgt id='1008'>0.29645E+02</wgt>
<wgt id='1009'>0.34072E+02</wgt>
<wgt id='2000'>0.31512E+02</wgt>
<wgt id='2001'>0.31481E+02</wgt>
<wgt id='2002'>0.31679E+02</wgt>
<wgt id='2003'>0.31668E+02</wgt>
<wgt id='2004'>0.31546E+02</wgt>
<wgt id='2005'>0.31415E+02</wgt>
<wgt id='2006'>0.31410E+02</wgt>
<wgt id='2007'>0.31365E+02</wgt>
<wgt id='2008'>0.31462E+02</wgt>
<wgt id='2009'>0.31543E+02</wgt>
<wgt id='2010'>0.31479E+02</wgt>
<wgt id='2011'>0.31724E+02</wgt>
<wgt id='2012'>0.31735E+02</wgt>
<wgt id='2013'>0.31888E+02</wgt>
<wgt id='2014'>0.31636E+02</wgt>
<wgt id='2015'>0.31582E+02</wgt>
<wgt id='2016'>0.31400E+02</wgt>
<wgt id='2017'>0.31509E+02</wgt>
<wgt id='2018'>0.31653E+02</wgt>
<wgt id='2019'>0.31491E+02</wgt>
<wgt id='2020'>0.31580E+02</wgt>
<wgt id='2021'>0.31475E+02</wgt>
<wgt id='2022'>0.31491E+02</wgt>
<wgt id='2023'>0.31521E+02</wgt>
<wgt id='2024'>0.31538E+02</wgt>
<wgt id='2025'>0.31464E+02</wgt>
<wgt id='2026'>0.31476E+02</wgt>
<wgt id='2027'>0.31508E+02</wgt>
<wgt id='2028'>0.31524E+02</wgt>
<wgt id='2029'>0.31544E+02</wgt>
<wgt id='2030'>0.31521E+02</wgt>
<wgt id='2031'>0.31518E+02</wgt>
<wgt id='2032'>0.31514E+02</wgt>
<wgt id='2033'>0.31518E+02</wgt>
<wgt id='2034'>0.31530E+02</wgt>
<wgt id='2035'>0.31509E+02</wgt>
<wgt id='2036'>0.31516E+02</wgt>
<wgt id='2037'>0.31522E+02</wgt>
<wgt id='2038'>0.31508E+02</wgt>
<wgt id='2039'>0.31493E+02</wgt>
<wgt id='2040'>0.31516E+02</wgt>
<wgt id='2041'>0.31515E+02</wgt>
<wgt id='2042'>0.31505E+02</wgt>
<wgt id='2043'>0.31508E+02</wgt>
<wgt id='2044'>0.31523E+02</wgt>
<wgt id='2045'>0.31511E+02</wgt>
<wgt id='2046'>0.31519E+02</wgt>
<wgt id='2047'>0.31523E+02</wgt>
<wgt id='2048'>0.31507E+02</wgt>
<wgt id='2049'>0.31509E+02</wgt>
<wgt id='2050'>0.31515E+02</wgt>
<wgt id='2051'>0.31524E+02</wgt>
<wgt id='2052'>0.31512E+02</wgt>
<wgt id='2053'>0.31513E+02</wgt>
<wgt id='2054'>0.31510E+02</wgt>
<wgt id='2055'>0.31513E+02</wgt>
<wgt id='2056'>0.31511E+02</wgt>
<wgt id='2057'>0.31516E+02</wgt>
<wgt id='2058'>0.31516E+02</wgt>
<wgt id='2059'>0.31510E+02</wgt>
<wgt id='2060'>0.31516E+02</wgt>
<wgt id='2061'>0.31506E+02</wgt>
<wgt id='2062'>0.31509E+02</wgt>
<wgt id='2063'>0.31514E+02</wgt>
<wgt id='2064'>0.31507E+02</wgt>
<wgt id='2065'>0.31512E+02</wgt>
<wgt id='2066'>0.31507E+02</wgt>
<wgt id='2067'>0.31513E+02</wgt>
<wgt id='2068'>0.31513E+02</wgt>
<wgt id='2069'>0.31511E+02</wgt>
<wgt id='2070'>0.31511E+02</wgt>
<wgt id='2071'>0.31507E+02</wgt>
<wgt id='2072'>0.31513E+02</wgt>
<wgt id='2073'>0.31510E+02</wgt>
<wgt id='2074'>0.31509E+02</wgt>
<wgt id='2075'>0.31512E+02</wgt>
<wgt id='2076'>0.31510E+02</wgt>
<wgt id='2077'>0.31510E+02</wgt>
<wgt id='2078'>0.31515E+02</wgt>
<wgt id='2079'>0.31513E+02</wgt>
<wgt id='2080'>0.31513E+02</wgt>
<wgt id='2081'>0.31514E+02</wgt>
<wgt id='2082'>0.31513E+02</wgt>
<wgt id='2083'>0.31510E+02</wgt>
<wgt id='2084'>0.31514E+02</wgt>
<wgt id='2085'>0.31514E+02</wgt>
<wgt id='2086'>0.31510E+02</wgt>
<wgt id='2087'>0.31511E+02</wgt>
<wgt id='2088'>0.31514E+02</wgt>
<wgt id='2089'>0.31511E+02</wgt>
<wgt id='2090'>0.31513E+02</wgt>
<wgt id='2091'>0.31512E+02</wgt>
<wgt id='2092'>0.31513E+02</wgt>
<wgt id='2093'>0.31511E+02</wgt>
<wgt id='2094'>0.31514E+02</wgt>
<wgt id='2095'>0.31512E+02</wgt>
<wgt id='2096'>0.31510E+02</wgt>
<wgt id='2097'>0.31513E+02</wgt>
<wgt id='2098'>0.31511E+02</wgt>
<wgt id='2099'>0.31512E+02</wgt>
<wgt id='2100'>0.31512E+02</wgt>
<wgt id='2101'>0.31047E+02</wgt>
<wgt id='2102'>0.31845E+02</wgt>
<wgt id='2104'>0.29393E+02</wgt>
<wgt id='2105'>0.29706E+02</wgt>
<wgt id='2106'>0.30124E+02</wgt>
<wgt id='2107'>0.30661E+02</wgt>
<wgt id='2108'>0.31385E+02</wgt>
<wgt id='2109'>0.31785E+02</wgt>
<wgt id='2110'>0.32213E+02</wgt>
<wgt id='2111'>0.32588E+02</wgt>
<wgt id='3000'>0.32751E+02</wgt>
<wgt id='3001'>0.32897E+02</wgt>
<wgt id='3002'>0.32580E+02</wgt>
<wgt id='3003'>0.32908E+02</wgt>
<wgt id='3004'>0.32830E+02</wgt>
<wgt id='3005'>0.32942E+02</wgt>
<wgt id='3006'>0.32818E+02</wgt>
<wgt id='3007'>0.32828E+02</wgt>
<wgt id='3008'>0.32626E+02</wgt>
<wgt id='3009'>0.32687E+02</wgt>
<wgt id='3010'>0.32600E+02</wgt>
<wgt id='3011'>0.32862E+02</wgt>
<wgt id='3012'>0.33052E+02</wgt>
<wgt id='3013'>0.32396E+02</wgt>
<wgt id='3014'>0.32911E+02</wgt>
<wgt id='3015'>0.32933E+02</wgt>
<wgt id='3016'>0.32763E+02</wgt>
<wgt id='3017'>0.32927E+02</wgt>
<wgt id='3018'>0.32773E+02</wgt>
<wgt id='3019'>0.32637E+02</wgt>
<wgt id='3020'>0.32773E+02</wgt>
<wgt id='3021'>0.32699E+02</wgt>
<wgt id='3022'>0.32746E+02</wgt>
<wgt id='3023'>0.32742E+02</wgt>
<wgt id='3024'>0.32803E+02</wgt>
<wgt id='3025'>0.32762E+02</wgt>
<wgt id='3026'>0.32722E+02</wgt>
<wgt id='3027'>0.32768E+02</wgt>
<wgt id='3028'>0.32778E+02</wgt>
<wgt id='3029'>0.32766E+02</wgt>
<wgt id='3030'>0.32781E+02</wgt>
<wgt id='3031'>0.32763E+02</wgt>
<wgt id='3032'>0.32734E+02</wgt>
<wgt id='3033'>0.32755E+02</wgt>
<wgt id='3034'>0.32744E+02</wgt>
<wgt id='3035'>0.32783E+02</wgt>
<wgt id='3036'>0.32762E+02</wgt>
<wgt id='3037'>0.32751E+02</wgt>
<wgt id='3038'>0.32753E+02</wgt>
<wgt id='3039'>0.32747E+02</wgt>
<wgt id='3040'>0.32743E+02</wgt>
<wgt id='3041'>0.32755E+02</wgt>
<wgt id='3042'>0.32745E+02</wgt>
<wgt id='3043'>0.32748E+02</wgt>
<wgt id='3044'>0.32750E+02</wgt>
<wgt id='3045'>0.32758E+02</wgt>
<wgt id='3046'>0.32764E+02</wgt>
<wgt id='3047'>0.32752E+02</wgt>
<wgt id='3048'>0.32753E+02</wgt>
<wgt id='3049'>0.32751E+02</wgt>
<wgt id='3050'>0.32747E+02</wgt>
<wgt id='3051'>0.32760E+02</wgt>
<wgt id='3052'>0.32743E+02</wgt>
<wgt id='3053'>0.32747E+02</wgt>
<wgt id='3054'>0.32750E+02</wgt>
<wgt id='3055'>0.32738E+02</wgt>
<wgt id='3056'>0.32752E+02</wgt>
<wgt id='3057'>0.32746E+02</wgt>
<wgt id='3058'>0.32747E+02</wgt>
<wgt id='3059'>0.32749E+02</wgt>
<wgt id='3060'>0.32753E+02</wgt>
<wgt id='3061'>0.32749E+02</wgt>
<wgt id='3062'>0.32755E+02</wgt>
<wgt id='3063'>0.32756E+02</wgt>
<wgt id='3064'>0.32748E+02</wgt>
<wgt id='3065'>0.32753E+02</wgt>
<wgt id='3066'>0.32753E+02</wgt>
<wgt id='3067'>0.32747E+02</wgt>
<wgt id='3068'>0.32751E+02</wgt>
<wgt id='3069'>0.32749E+02</wgt>
<wgt id='3070'>0.32754E+02</wgt>
<wgt id='3071'>0.32751E+02</wgt>
<wgt id='3072'>0.32751E+02</wgt>
<wgt id='3073'>0.32749E+02</wgt>
<wgt id='3074'>0.32758E+02</wgt>
<wgt id='3075'>0.32755E+02</wgt>
<wgt id='3076'>0.32748E+02</wgt>
<wgt id='3077'>0.32751E+02</wgt>
<wgt id='3078'>0.32754E+02</wgt>
<wgt id='3079'>0.32748E+02</wgt>
<wgt id='3080'>0.32752E+02</wgt>
<wgt id='3081'>0.32751E+02</wgt>
<wgt id='3082'>0.32750E+02</wgt>
<wgt id='3083'>0.32751E+02</wgt>
<wgt id='3084'>0.32751E+02</wgt>
<wgt id='3085'>0.32752E+02</wgt>
<wgt id='3086'>0.32751E+02</wgt>
<wgt id='3087'>0.32752E+02</wgt>
<wgt id='3088'>0.32751E+02</wgt>
<wgt id='3089'>0.32751E+02</wgt>
<wgt id='3090'>0.32752E+02</wgt>
<wgt id='3091'>0.32751E+02</wgt>
<wgt id='3092'>0.32751E+02</wgt>
<wgt id='3093'>0.32751E+02</wgt>
<wgt id='3094'>0.32753E+02</wgt>
<wgt id='3095'>0.32752E+02</wgt>
<wgt id='3096'>0.32750E+02</wgt>
<wgt id='3097'>0.32749E+02</wgt>
<wgt id='3098'>0.32751E+02</wgt>
<wgt id='3099'>0.32752E+02</wgt>
<wgt id='3100'>0.32751E+02</wgt>
<wgt id='3101'>0.32309E+02</wgt>
<wgt id='3102'>0.33320E+02</wgt>
<wgt id='5000'>0.30603E+02</wgt>
<wgt id='5001'>0.30467E+02</wgt>
<wgt id='5002'>0.30558E+02</wgt>
<wgt id='5003'>0.30358E+02</wgt>
<wgt id='5004'>0.30748E+02</wgt>
<wgt id='5005'>0.29864E+02</wgt>
<wgt id='5006'>0.31366E+02</wgt>
<wgt id='5007'>0.30900E+02</wgt>
<wgt id='5008'>0.30136E+02</wgt>
<wgt id='5009'>0.31081E+02</wgt>
<wgt id='5010'>0.30369E+02</wgt>
<wgt id='5011'>0.30546E+02</wgt>
<wgt id='5012'>0.30577E+02</wgt>
<wgt id='5013'>0.29808E+02</wgt>
<wgt id='5014'>0.30486E+02</wgt>
<wgt id='5015'>0.30877E+02</wgt>
<wgt id='5016'>0.29771E+02</wgt>
<wgt id='5017'>0.30776E+02</wgt>
<wgt id='5018'>0.30421E+02</wgt>
<wgt id='5019'>0.30336E+02</wgt>
<wgt id='5020'>0.30828E+02</wgt>
<wgt id='5021'>0.30749E+02</wgt>
<wgt id='5022'>0.30510E+02</wgt>
<wgt id='5023'>0.30529E+02</wgt>
<wgt id='5024'>0.30676E+02</wgt>
<wgt id='5025'>0.30512E+02</wgt>
<wgt id='5026'>0.30678E+02</wgt>
<wgt id='5027'>0.30984E+02</wgt>
<wgt id='5028'>0.29964E+02</wgt>
<wgt id='5029'>0.29916E+02</wgt>
<wgt id='5030'>0.31016E+02</wgt>
<wgt id='5031'>0.30206E+02</wgt>
<wgt id='5032'>0.31177E+02</wgt>
<wgt id='5033'>0.30276E+02</wgt>
<wgt id='5034'>0.30887E+02</wgt>
<wgt id='5035'>0.29950E+02</wgt>
<wgt id='5036'>0.31142E+02</wgt>
<wgt id='5037'>0.30682E+02</wgt>
<wgt id='5038'>0.30497E+02</wgt>
<wgt id='5039'>0.31155E+02</wgt>
<wgt id='5040'>0.30322E+02</wgt>
<wgt id='5041'>0.30173E+02</wgt>
<wgt id='5042'>0.30677E+02</wgt>
<wgt id='5043'>0.30977E+02</wgt>
<wgt id='5044'>0.29619E+02</wgt>
<wgt id='5045'>0.31618E+02</wgt>
<wgt id='5046'>0.30440E+02</wgt>
<wgt id='5047'>0.30791E+02</wgt>
<wgt id='5048'>0.30852E+02</wgt>
<wgt id='5049'>0.30616E+02</wgt>
<wgt id='5050'>0.30676E+02</wgt>
<wgt id='5051'>0.30710E+02</wgt>
<wgt id='5052'>0.30551E+02</wgt>
<wgt id='5053'>0.30351E+02</wgt>
<wgt id='5054'>0.31580E+02</wgt>
<wgt id='5055'>0.30410E+02</wgt>
<wgt id='5056'>0.30740E+02</wgt>
<wgt id='5060'>0.30279E+02</wgt>
<wgt id='5070'>0.30789E+02</wgt>
<wgt id='4000'>0.32427E+02</wgt>
<wgt id='4001'>0.32454E+02</wgt>
<wgt id='4002'>0.32538E+02</wgt>
<wgt id='4003'>0.33465E+02</wgt>
<wgt id='4004'>0.32079E+02</wgt>
<wgt id='4005'>0.32580E+02</wgt>
<wgt id='4006'>0.32279E+02</wgt>
<wgt id='4007'>0.32860E+02</wgt>
<wgt id='4008'>0.32287E+02</wgt>
<wgt id='4009'>0.31572E+02</wgt>
<wgt id='4010'>0.33154E+02</wgt>
<wgt id='4011'>0.32949E+02</wgt>
<wgt id='4012'>0.32137E+02</wgt>
<wgt id='4013'>0.30936E+02</wgt>
<wgt id='4014'>0.33306E+02</wgt>
<wgt id='4015'>0.32691E+02</wgt>
<wgt id='4016'>0.32253E+02</wgt>
<wgt id='4017'>0.32124E+02</wgt>
<wgt id='4018'>0.32788E+02</wgt>
<wgt id='4019'>0.32869E+02</wgt>
<wgt id='4020'>0.31922E+02</wgt>
<wgt id='4021'>0.32511E+02</wgt>
<wgt id='4022'>0.32241E+02</wgt>
<wgt id='4023'>0.32228E+02</wgt>
<wgt id='4024'>0.32602E+02</wgt>
<wgt id='4025'>0.31739E+02</wgt>
<wgt id='4026'>0.33067E+02</wgt>
<wgt id='4027'>0.32279E+02</wgt>
<wgt id='4028'>0.32624E+02</wgt>
<wgt id='4029'>0.32140E+02</wgt>
<wgt id='4030'>0.32525E+02</wgt>
<wgt id='4031'>0.32456E+02</wgt>
<wgt id='4032'>0.32388E+02</wgt>
<wgt id='4033'>0.32457E+02</wgt>
<wgt id='4034'>0.32350E+02</wgt>
<wgt id='4035'>0.33098E+02</wgt>
<wgt id='4036'>0.31774E+02</wgt>
<wgt id='4037'>0.32751E+02</wgt>
<wgt id='4038'>0.31890E+02</wgt>
<wgt id='4039'>0.32404E+02</wgt>
<wgt id='4040'>0.32379E+02</wgt>
<wgt id='4041'>0.32781E+02</wgt>
<wgt id='4042'>0.32077E+02</wgt>
<wgt id='4043'>0.32772E+02</wgt>
<wgt id='4044'>0.31967E+02</wgt>
<wgt id='4045'>0.32069E+02</wgt>
<wgt id='4046'>0.32201E+02</wgt>
<wgt id='4047'>0.31915E+02</wgt>
<wgt id='4048'>0.33047E+02</wgt>
<wgt id='4049'>0.32797E+02</wgt>
<wgt id='4050'>0.31661E+02</wgt>
<wgt id='4051'>0.32360E+02</wgt>
<wgt id='4052'>0.32333E+02</wgt>
<wgt id='4053'>0.31528E+02</wgt>
<wgt id='4054'>0.32642E+02</wgt>
<wgt id='4055'>0.32158E+02</wgt>
<wgt id='4056'>0.32644E+02</wgt>
<wgt id='4060'>0.31920E+02</wgt>
<wgt id='4070'>0.32824E+02</wgt>
<wgt id='4080'>0.32635E+02</wgt>
<wgt id='6000'>0.32957E+02</wgt>
<wgt id='6001'>0.32976E+02</wgt>
<wgt id='6002'>0.32938E+02</wgt>
<wgt id='6003'>0.32973E+02</wgt>
<wgt id='6004'>0.32946E+02</wgt>
<wgt id='6005'>0.33051E+02</wgt>
<wgt id='6006'>0.32871E+02</wgt>
<wgt id='6007'>0.32804E+02</wgt>
<wgt id='6008'>0.33129E+02</wgt>
<wgt id='6009'>0.33079E+02</wgt>
<wgt id='6010'>0.32839E+02</wgt>
<wgt id='6011'>0.33037E+02</wgt>
<wgt id='6012'>0.32783E+02</wgt>
<wgt id='6013'>0.32917E+02</wgt>
<wgt id='6014'>0.33028E+02</wgt>
<wgt id='6015'>0.32843E+02</wgt>
<wgt id='6016'>0.33023E+02</wgt>
<wgt id='6017'>0.32747E+02</wgt>
<wgt id='6018'>0.33206E+02</wgt>
<wgt id='6019'>0.33008E+02</wgt>
<wgt id='6020'>0.32913E+02</wgt>
<wgt id='6021'>0.32874E+02</wgt>
<wgt id='6022'>0.33069E+02</wgt>
<wgt id='6023'>0.32705E+02</wgt>
<wgt id='6024'>0.33133E+02</wgt>
<wgt id='6025'>0.32464E+02</wgt>
<wgt id='6026'>0.33401E+02</wgt>
<wgt id='6027'>0.33055E+02</wgt>
<wgt id='6028'>0.32958E+02</wgt>
<wgt id='6029'>0.33216E+02</wgt>
<wgt id='6030'>0.32655E+02</wgt>
<wgt id='6031'>0.33044E+02</wgt>
<wgt id='6032'>0.32847E+02</wgt>
<wgt id='6033'>0.33011E+02</wgt>
<wgt id='6034'>0.32898E+02</wgt>
<wgt id='6035'>0.32923E+02</wgt>
<wgt id='6036'>0.33109E+02</wgt>
<wgt id='6037'>0.33022E+02</wgt>
<wgt id='6038'>0.32951E+02</wgt>
<wgt id='6039'>0.32932E+02</wgt>
<wgt id='6040'>0.32984E+02</wgt>
<wgt id='6041'>0.32904E+02</wgt>
<wgt id='6042'>0.33024E+02</wgt>
<wgt id='6043'>0.33433E+02</wgt>
<wgt id='6044'>0.32730E+02</wgt>
<wgt id='6045'>0.32924E+02</wgt>
<wgt id='6046'>0.33044E+02</wgt>
<wgt id='6047'>0.32746E+02</wgt>
<wgt id='6048'>0.32888E+02</wgt>
<wgt id='6049'>0.32858E+02</wgt>
<wgt id='6050'>0.32983E+02</wgt>
<wgt id='7000'>0.30865E+02</wgt>
<wgt id='7001'>0.30857E+02</wgt>
<wgt id='7002'>0.30876E+02</wgt>
<wgt id='7003'>0.30972E+02</wgt>
<wgt id='7004'>0.30758E+02</wgt>
<wgt id='7005'>0.30930E+02</wgt>
<wgt id='7006'>0.30839E+02</wgt>
<wgt id='7007'>0.30725E+02</wgt>
<wgt id='7008'>0.31005E+02</wgt>
<wgt id='7009'>0.30927E+02</wgt>
<wgt id='7010'>0.30805E+02</wgt>
<wgt id='7011'>0.30528E+02</wgt>
<wgt id='7012'>0.31013E+02</wgt>
<wgt id='7013'>0.30867E+02</wgt>
<wgt id='7014'>0.30864E+02</wgt>
<wgt id='7015'>0.30766E+02</wgt>
<wgt id='7016'>0.30974E+02</wgt>
<wgt id='7017'>0.30770E+02</wgt>
<wgt id='7018'>0.30916E+02</wgt>
<wgt id='7019'>0.30822E+02</wgt>
<wgt id='7020'>0.30924E+02</wgt>
<wgt id='7021'>0.30848E+02</wgt>
<wgt id='7022'>0.30876E+02</wgt>
<wgt id='7023'>0.31262E+02</wgt>
<wgt id='7024'>0.30481E+02</wgt>
<wgt id='7025'>0.31020E+02</wgt>
<wgt id='7026'>0.30489E+02</wgt>
<wgt id='7027'>0.31023E+02</wgt>
<wgt id='7028'>0.30795E+02</wgt>
<wgt id='7029'>0.30687E+02</wgt>
<wgt id='7030'>0.31335E+02</wgt>
<wgt id='7031'>0.30877E+02</wgt>
<wgt id='7032'>0.30848E+02</wgt>
<wgt id='7033'>0.30811E+02</wgt>
<wgt id='7034'>0.30989E+02</wgt>
<wgt id='7035'>0.30985E+02</wgt>
<wgt id='7036'>0.30829E+02</wgt>
<wgt id='7037'>0.30880E+02</wgt>
<wgt id='7038'>0.30871E+02</wgt>
<wgt id='7039'>0.30845E+02</wgt>
<wgt id='7040'>0.30879E+02</wgt>
<wgt id='7041'>0.30804E+02</wgt>
<wgt id='7042'>0.30895E+02</wgt>
<wgt id='7043'>0.30895E+02</wgt>
<wgt id='7044'>0.30699E+02</wgt>
<wgt id='7045'>0.30646E+02</wgt>
<wgt id='7046'>0.30874E+02</wgt>
<wgt id='7047'>0.30853E+02</wgt>
<wgt id='7048'>0.30856E+02</wgt>
<wgt id='7049'>0.30887E+02</wgt>
<wgt id='7050'>0.30736E+02</wgt>
<wgt id='7060'>0.46245E+02</wgt>
<wgt id='8000'>0.31325E+02</wgt>
<wgt id='8001'>0.31317E+02</wgt>
<wgt id='8002'>0.31335E+02</wgt>
<wgt id='8003'>0.31328E+02</wgt>
<wgt id='8004'>0.31324E+02</wgt>
<wgt id='8005'>0.31236E+02</wgt>
<wgt id='8006'>0.31296E+02</wgt>
<wgt id='8007'>0.31264E+02</wgt>
<wgt id='8008'>0.31382E+02</wgt>
<wgt id='8009'>0.31446E+02</wgt>
<wgt id='8010'>0.31333E+02</wgt>
<wgt id='8011'>0.31303E+02</wgt>
<wgt id='8012'>0.31301E+02</wgt>
<wgt id='8013'>0.31332E+02</wgt>
<wgt id='8014'>0.31291E+02</wgt>
<wgt id='8015'>0.31298E+02</wgt>
<wgt id='8016'>0.31331E+02</wgt>
<wgt id='8017'>0.31337E+02</wgt>
<wgt id='8018'>0.31305E+02</wgt>
<wgt id='8019'>0.31391E+02</wgt>
<wgt id='8020'>0.31200E+02</wgt>
<wgt id='8021'>0.31335E+02</wgt>
<wgt id='8022'>0.31097E+02</wgt>
<wgt id='8023'>0.31373E+02</wgt>
<wgt id='8024'>0.31426E+02</wgt>
<wgt id='8025'>0.31462E+02</wgt>
<wgt id='8026'>0.31398E+02</wgt>
<wgt id='8027'>0.31255E+02</wgt>
<wgt id='8028'>0.31360E+02</wgt>
<wgt id='8029'>0.31099E+02</wgt>
<wgt id='8500'>0.32422E+02</wgt>
<wgt id='8501'>0.32375E+02</wgt>
<wgt id='8502'>0.32780E+02</wgt>
<wgt id='8503'>0.32681E+02</wgt>
<wgt id='8504'>0.32345E+02</wgt>
<wgt id='8505'>0.32248E+02</wgt>
<wgt id='8506'>0.32279E+02</wgt>
<wgt id='8507'>0.32725E+02</wgt>
<wgt id='8508'>0.33094E+02</wgt>
<wgt id='8509'>0.32128E+02</wgt>
<wgt id='8510'>0.32940E+02</wgt>
<wgt id='8511'>0.32451E+02</wgt>
<wgt id='8512'>0.31990E+02</wgt>
<wgt id='8513'>0.32474E+02</wgt>
<wgt id='8514'>0.32349E+02</wgt>
<wgt id='8515'>0.32403E+02</wgt>
<wgt id='8516'>0.32541E+02</wgt>
<wgt id='8517'>0.32408E+02</wgt>
<wgt id='8518'>0.32328E+02</wgt>
<wgt id='8519'>0.32320E+02</wgt>
<wgt id='8520'>0.32454E+02</wgt>
<wgt id='8521'>0.32292E+02</wgt>
<wgt id='8522'>0.32439E+02</wgt>
<wgt id='8523'>0.32377E+02</wgt>
<wgt id='8524'>0.32428E+02</wgt>
<wgt id='8525'>0.32383E+02</wgt>
<wgt id='8526'>0.32366E+02</wgt>
<wgt id='8527'>0.32423E+02</wgt>
<wgt id='8528'>0.32338E+02</wgt>
<wgt id='8529'>0.32404E+02</wgt>
<wgt id='8530'>0.32420E+02</wgt>
<wgt id='8531'>0.32411E+02</wgt>
<wgt id='8532'>0.32430E+02</wgt>
<wgt id='8533'>0.32355E+02</wgt>
<wgt id='8534'>0.32429E+02</wgt>
<wgt id='8535'>0.32494E+02</wgt>
<wgt id='8536'>0.32400E+02</wgt>
<wgt id='8537'>0.32433E+02</wgt>
<wgt id='8538'>0.32391E+02</wgt>
<wgt id='8539'>0.32426E+02</wgt>
<wgt id='8540'>0.32422E+02</wgt>
<wgt id='8541'>0.32434E+02</wgt>
<wgt id='8542'>0.32442E+02</wgt>
<wgt id='8543'>0.32397E+02</wgt>
<wgt id='8544'>0.32446E+02</wgt>
<wgt id='8545'>0.32448E+02</wgt>
<wgt id='8546'>0.32454E+02</wgt>
<wgt id='8547'>0.32398E+02</wgt>
<wgt id='8548'>0.32391E+02</wgt>
<wgt id='8549'>0.32422E+02</wgt>
<wgt id='8550'>0.32432E+02</wgt>
<wgt id='8551'>0.32393E+02</wgt>
<wgt id='8552'>0.32432E+02</wgt>
<wgt id='8553'>0.32413E+02</wgt>
<wgt id='8554'>0.32412E+02</wgt>
<wgt id='8555'>0.32426E+02</wgt>
<wgt id='8556'>0.32421E+02</wgt>
<wgt id='8557'>0.32413E+02</wgt>
<wgt id='8558'>0.32454E+02</wgt>
<wgt id='8559'>0.32406E+02</wgt>
<wgt id='8560'>0.32389E+02</wgt>
<wgt id='8561'>0.32415E+02</wgt>
<wgt id='8562'>0.32396E+02</wgt>
<wgt id='8563'>0.32425E+02</wgt>
<wgt id='8564'>0.32415E+02</wgt>
<wgt id='8565'>0.32419E+02</wgt>
<wgt id='8566'>0.32413E+02</wgt>
<wgt id='8567'>0.32418E+02</wgt>
<wgt id='8568'>0.32433E+02</wgt>
<wgt id='8569'>0.32430E+02</wgt>
<wgt id='8570'>0.32424E+02</wgt>
<wgt id='8571'>0.32411E+02</wgt>
<wgt id='8572'>0.32413E+02</wgt>
<wgt id='8573'>0.32409E+02</wgt>
<wgt id='8574'>0.32433E+02</wgt>
<wgt id='8575'>0.32420E+02</wgt>
<wgt id='8576'>0.32418E+02</wgt>
<wgt id='8577'>0.32424E+02</wgt>
<wgt id='8578'>0.32426E+02</wgt>
<wgt id='8579'>0.32440E+02</wgt>
<wgt id='8580'>0.32423E+02</wgt>
<wgt id='8581'>0.32426E+02</wgt>
<wgt id='8582'>0.32401E+02</wgt>
<wgt id='8583'>0.32436E+02</wgt>
<wgt id='8584'>0.32427E+02</wgt>
<wgt id='8585'>0.32428E+02</wgt>
<wgt id='8586'>0.32434E+02</wgt>
<wgt id='8587'>0.32415E+02</wgt>
<wgt id='8588'>0.32413E+02</wgt>
<wgt id='8589'>0.32425E+02</wgt>
<wgt id='8590'>0.32418E+02</wgt>
<wgt id='8591'>0.32420E+02</wgt>
<wgt id='8592'>0.32422E+02</wgt>
<wgt id='8593'>0.32410E+02</wgt>
<wgt id='8594'>0.32428E+02</wgt>
<wgt id='8595'>0.32427E+02</wgt>
<wgt id='8596'>0.32414E+02</wgt>
<wgt id='8597'>0.32425E+02</wgt>
<wgt id='8598'>0.32429E+02</wgt>
<wgt id='8599'>0.32427E+02</wgt>
<wgt id='8600'>0.32422E+02</wgt>
<wgt id='8601'>0.32046E+02</wgt>
<wgt id='8602'>0.32691E+02</wgt>
<wgt id='9000'>0.30795E+02</wgt>
<wgt id='9001'>0.30860E+02</wgt>
<wgt id='9002'>0.30979E+02</wgt>
<wgt id='9003'>0.30477E+02</wgt>
<wgt id='9004'>0.30719E+02</wgt>
<wgt id='9005'>0.30958E+02</wgt>
<wgt id='9006'>0.30704E+02</wgt>
<wgt id='9007'>0.30856E+02</wgt>
<wgt id='9008'>0.30891E+02</wgt>
<wgt id='9009'>0.30767E+02</wgt>
<wgt id='9010'>0.30768E+02</wgt>
<wgt id='9011'>0.31157E+02</wgt>
<wgt id='9012'>0.30271E+02</wgt>
<wgt id='9013'>0.30342E+02</wgt>
<wgt id='9014'>0.30363E+02</wgt>
<wgt id='9015'>0.30748E+02</wgt>
<wgt id='9016'>0.30862E+02</wgt>
<wgt id='9017'>0.30838E+02</wgt>
<wgt id='9018'>0.30815E+02</wgt>
<wgt id='9019'>0.30772E+02</wgt>
<wgt id='9020'>0.30919E+02</wgt>
<wgt id='9021'>0.30789E+02</wgt>
<wgt id='9022'>0.30826E+02</wgt>
<wgt id='9023'>0.30751E+02</wgt>
<wgt id='9024'>0.30745E+02</wgt>
<wgt id='9025'>0.30847E+02</wgt>
<wgt id='9026'>0.30811E+02</wgt>
<wgt id='9027'>0.30772E+02</wgt>
<wgt id='9028'>0.30820E+02</wgt>
<wgt id='9029'>0.30820E+02</wgt>
<wgt id='9030'>0.30817E+02</wgt>
<wgt id='9031'>0.30789E+02</wgt>
<wgt id='9032'>0.30814E+02</wgt>
<wgt id='9033'>0.30837E+02</wgt>
<wgt id='9034'>0.30778E+02</wgt>
<wgt id='9035'>0.30846E+02</wgt>
<wgt id='9036'>0.30795E+02</wgt>
<wgt id='9037'>0.30824E+02</wgt>
<wgt id='9038'>0.30796E+02</wgt>
<wgt id='9039'>0.30800E+02</wgt>
<wgt id='9040'>0.30761E+02</wgt>
<wgt id='9041'>0.30780E+02</wgt>
<wgt id='9042'>0.30788E+02</wgt>
<wgt id='9043'>0.30774E+02</wgt>
<wgt id='9044'>0.30803E+02</wgt>
<wgt id='9045'>0.30788E+02</wgt>
<wgt id='9046'>0.30756E+02</wgt>
<wgt id='9047'>0.30780E+02</wgt>
<wgt id='9048'>0.30803E+02</wgt>
<wgt id='9049'>0.30779E+02</wgt>
<wgt id='9050'>0.30801E+02</wgt>
<wgt id='9051'>0.30807E+02</wgt>
<wgt id='9052'>0.30802E+02</wgt>
<wgt id='9053'>0.30800E+02</wgt>
<wgt id='9054'>0.30782E+02</wgt>
<wgt id='9055'>0.30788E+02</wgt>
<wgt id='9056'>0.30822E+02</wgt>
<wgt id='9057'>0.30793E+02</wgt>
<wgt id='9058'>0.30777E+02</wgt>
<wgt id='9059'>0.30783E+02</wgt>
<wgt id='9060'>0.30786E+02</wgt>
<wgt id='9061'>0.30800E+02</wgt>
<wgt id='9062'>0.30799E+02</wgt>
<wgt id='9063'>0.30809E+02</wgt>
<wgt id='9064'>0.30787E+02</wgt>
<wgt id='9065'>0.30796E+02</wgt>
<wgt id='9066'>0.30799E+02</wgt>
<wgt id='9067'>0.30805E+02</wgt>
<wgt id='9068'>0.30804E+02</wgt>
<wgt id='9069'>0.30811E+02</wgt>
<wgt id='9070'>0.30792E+02</wgt>
<wgt id='9071'>0.30812E+02</wgt>
<wgt id='9072'>0.30813E+02</wgt>
<wgt id='9073'>0.30787E+02</wgt>
<wgt id='9074'>0.30799E+02</wgt>
<wgt id='9075'>0.30793E+02</wgt>
<wgt id='9076'>0.30793E+02</wgt>
<wgt id='9077'>0.30800E+02</wgt>
<wgt id='9078'>0.30798E+02</wgt>
<wgt id='9079'>0.30791E+02</wgt>
<wgt id='9080'>0.30814E+02</wgt>
<wgt id='9081'>0.30791E+02</wgt>
<wgt id='9082'>0.30801E+02</wgt>
<wgt id='9083'>0.30785E+02</wgt>
<wgt id='9084'>0.30788E+02</wgt>
<wgt id='9085'>0.30789E+02</wgt>
<wgt id='9086'>0.30798E+02</wgt>
<wgt id='9087'>0.30780E+02</wgt>
<wgt id='9088'>0.30791E+02</wgt>
<wgt id='9089'>0.30790E+02</wgt>
<wgt id='9090'>0.30800E+02</wgt>
<wgt id='9091'>0.30793E+02</wgt>
<wgt id='9092'>0.30795E+02</wgt>
<wgt id='9093'>0.30791E+02</wgt>
<wgt id='9094'>0.30794E+02</wgt>
<wgt id='9095'>0.30799E+02</wgt>
<wgt id='9096'>0.30789E+02</wgt>
<wgt id='9097'>0.30797E+02</wgt>
<wgt id='9098'>0.30796E+02</wgt>
<wgt id='9099'>0.30789E+02</wgt>
<wgt id='9100'>0.30794E+02</wgt>
<wgt id='9101'>0.30580E+02</wgt>
<wgt id='9102'>0.30892E+02</wgt>
<wgt id='10000'>0.32419E+02</wgt>
<wgt id='10001'>0.32560E+02</wgt>
<wgt id='10002'>0.32461E+02</wgt>
<wgt id='10003'>0.32437E+02</wgt>
<wgt id='10004'>0.32649E+02</wgt>
<wgt id='10005'>0.33491E+02</wgt>
<wgt id='10006'>0.32448E+02</wgt>
<wgt id='10007'>0.32414E+02</wgt>
<wgt id='10008'>0.32460E+02</wgt>
<wgt id='10009'>0.32377E+02</wgt>
<wgt id='10010'>0.32409E+02</wgt>
<wgt id='10011'>0.32412E+02</wgt>
<wgt id='10012'>0.32355E+02</wgt>
<wgt id='10013'>0.32400E+02</wgt>
<wgt id='10014'>0.32456E+02</wgt>
<wgt id='10015'>0.32471E+02</wgt>
<wgt id='10016'>0.32463E+02</wgt>
<wgt id='10017'>0.32122E+02</wgt>
<wgt id='10018'>0.32450E+02</wgt>
<wgt id='10019'>0.32352E+02</wgt>
<wgt id='10020'>0.32445E+02</wgt>
<wgt id='10021'>0.32431E+02</wgt>
<wgt id='10022'>0.32417E+02</wgt>
<wgt id='10023'>0.32442E+02</wgt>
<wgt id='10024'>0.32435E+02</wgt>
<wgt id='10025'>0.32399E+02</wgt>
<wgt id='10026'>0.32390E+02</wgt>
<wgt id='10027'>0.32393E+02</wgt>
<wgt id='10028'>0.32400E+02</wgt>
<wgt id='10029'>0.32456E+02</wgt>
<wgt id='10030'>0.32404E+02</wgt>
<wgt id='10031'>0.32046E+02</wgt>
<wgt id='10032'>0.32691E+02</wgt>
<wgt id='11000'>0.30792E+02</wgt>
<wgt id='11001'>0.30898E+02</wgt>
<wgt id='11002'>0.30889E+02</wgt>
<wgt id='11003'>0.30755E+02</wgt>
<wgt id='11004'>0.30898E+02</wgt>
<wgt id='11005'>0.30316E+02</wgt>
<wgt id='11006'>0.30771E+02</wgt>
<wgt id='11007'>0.30726E+02</wgt>
<wgt id='11008'>0.30715E+02</wgt>
<wgt id='11009'>0.30621E+02</wgt>
<wgt id='11010'>0.30944E+02</wgt>
<wgt id='11011'>0.30591E+02</wgt>
<wgt id='11012'>0.30823E+02</wgt>
<wgt id='11013'>0.30931E+02</wgt>
<wgt id='11014'>0.30680E+02</wgt>
<wgt id='11015'>0.30743E+02</wgt>
<wgt id='11016'>0.30760E+02</wgt>
<wgt id='11017'>0.31072E+02</wgt>
<wgt id='11018'>0.30802E+02</wgt>
<wgt id='11019'>0.30786E+02</wgt>
<wgt id='11020'>0.30814E+02</wgt>
<wgt id='11021'>0.30914E+02</wgt>
<wgt id='11022'>0.31466E+02</wgt>
<wgt id='11023'>0.30765E+02</wgt>
<wgt id='11024'>0.30755E+02</wgt>
<wgt id='11025'>0.30681E+02</wgt>
<wgt id='11026'>0.30786E+02</wgt>
<wgt id='11027'>0.30796E+02</wgt>
<wgt id='11028'>0.30766E+02</wgt>
<wgt id='11029'>0.30749E+02</wgt>
<wgt id='11030'>0.30800E+02</wgt>
<wgt id='11031'>0.30580E+02</wgt>
<wgt id='11032'>0.30892E+02</wgt>
<wgt id='12000'>0.34897E+02</wgt>
<wgt id='12001'>0.34845E+02</wgt>
<wgt id='12002'>0.34950E+02</wgt>
<wgt id='12003'>0.35002E+02</wgt>
<wgt id='12004'>0.34793E+02</wgt>
<wgt id='12005'>0.34955E+02</wgt>
<wgt id='12006'>0.34840E+02</wgt>
<wgt id='12007'>0.34989E+02</wgt>
<wgt id='12008'>0.34809E+02</wgt>
<wgt id='12009'>0.34964E+02</wgt>
<wgt id='12010'>0.34832E+02</wgt>
<wgt id='12011'>0.34867E+02</wgt>
<wgt id='12012'>0.34929E+02</wgt>
<wgt id='12013'>0.34749E+02</wgt>
<wgt id='12014'>0.35048E+02</wgt>
<wgt id='12015'>0.34903E+02</wgt>
<wgt id='12016'>0.34846E+02</wgt>
<wgt id='12017'>0.34991E+02</wgt>
<wgt id='12018'>0.34775E+02</wgt>
<wgt id='12019'>0.34756E+02</wgt>
<wgt id='12020'>0.35040E+02</wgt>
<wgt id='12021'>0.35064E+02</wgt>
<wgt id='12022'>0.34683E+02</wgt>
<wgt id='12023'>0.34781E+02</wgt>
<wgt id='12024'>0.34818E+02</wgt>
<wgt id='12025'>0.35036E+02</wgt>
<wgt id='12026'>0.34814E+02</wgt>
<wgt id='12027'>0.34768E+02</wgt>
<wgt id='12028'>0.35060E+02</wgt>
<wgt id='12050'>0.34897E+02</wgt>
<wgt id='12051'>0.34864E+02</wgt>
<wgt id='12052'>0.34925E+02</wgt>
<wgt id='12053'>0.34857E+02</wgt>
<wgt id='12054'>0.34916E+02</wgt>
<wgt id='12055'>0.34998E+02</wgt>
<wgt id='12056'>0.34545E+02</wgt>
<wgt id='12057'>0.34729E+02</wgt>
<wgt id='12058'>0.35049E+02</wgt>
<wgt id='12059'>0.34769E+02</wgt>
<wgt id='12060'>0.35033E+02</wgt>
<wgt id='12061'>0.34921E+02</wgt>
<wgt id='12062'>0.34990E+02</wgt>
<wgt id='12063'>0.34572E+02</wgt>
<wgt id='13000'>0.31165E+02</wgt>
<wgt id='13001'>0.31140E+02</wgt>
<wgt id='13002'>0.31186E+02</wgt>
<wgt id='13003'>0.31219E+02</wgt>
<wgt id='13004'>0.31107E+02</wgt>
<wgt id='13005'>0.31247E+02</wgt>
<wgt id='13006'>0.31079E+02</wgt>
<wgt id='13007'>0.31302E+02</wgt>
<wgt id='13008'>0.31028E+02</wgt>
<wgt id='13009'>0.31192E+02</wgt>
<wgt id='13010'>0.31136E+02</wgt>
<wgt id='13011'>0.31233E+02</wgt>
<wgt id='13012'>0.31093E+02</wgt>
<wgt id='13013'>0.31060E+02</wgt>
<wgt id='13014'>0.31266E+02</wgt>
<wgt id='13015'>0.31112E+02</wgt>
<wgt id='13016'>0.31199E+02</wgt>
<wgt id='13017'>0.31137E+02</wgt>
<wgt id='13018'>0.31181E+02</wgt>
<wgt id='13019'>0.31112E+02</wgt>
<wgt id='13020'>0.31210E+02</wgt>
<wgt id='13021'>0.30845E+02</wgt>
<wgt id='13022'>0.31431E+02</wgt>
<wgt id='13023'>0.31191E+02</wgt>
<wgt id='13024'>0.31128E+02</wgt>
<wgt id='13025'>0.31118E+02</wgt>
<wgt id='13026'>0.31120E+02</wgt>
<wgt id='13027'>0.31190E+02</wgt>
<wgt id='13028'>0.31175E+02</wgt>
<wgt id='13050'>0.31165E+02</wgt>
<wgt id='13051'>0.31171E+02</wgt>
<wgt id='13052'>0.31102E+02</wgt>
<wgt id='13053'>0.31161E+02</wgt>
<wgt id='13054'>0.31151E+02</wgt>
<wgt id='13055'>0.31138E+02</wgt>
<wgt id='13056'>0.31218E+02</wgt>
<wgt id='13057'>0.31033E+02</wgt>
<wgt id='13058'>0.31351E+02</wgt>
<wgt id='13059'>0.31043E+02</wgt>
<wgt id='13060'>0.31335E+02</wgt>
<wgt id='13061'>0.31073E+02</wgt>
<wgt id='13062'>0.31431E+02</wgt>
<wgt id='13063'>0.30921E+02</wgt>
<wgt id='14000'>0.32274E+02</wgt>
<wgt id='14001'>0.32269E+02</wgt>
<wgt id='14002'>0.32263E+02</wgt>
<wgt id='14003'>0.32259E+02</wgt>
<wgt id='14004'>0.32254E+02</wgt>
<wgt id='14005'>0.32249E+02</wgt>
<wgt id='14006'>0.32244E+02</wgt>
<wgt id='14007'>0.32239E+02</wgt>
<wgt id='14008'>0.32234E+02</wgt>
<wgt id='14009'>0.32229E+02</wgt>
<wgt id='14010'>0.32224E+02</wgt>
<wgt id='14011'>0.32219E+02</wgt>
<wgt id='14012'>0.32214E+02</wgt>
<wgt id='14013'>0.32209E+02</wgt>
<wgt id='14014'>0.32204E+02</wgt>
<wgt id='14015'>0.32199E+02</wgt>
<wgt id='14016'>0.32194E+02</wgt>
<wgt id='14017'>0.32189E+02</wgt>
<wgt id='14018'>0.32184E+02</wgt>
<wgt id='14019'>0.32179E+02</wgt>
<wgt id='14020'>0.32174E+02</wgt>
<wgt id='14021'>0.32169E+02</wgt>
<wgt id='14022'>0.32164E+02</wgt>
<wgt id='14023'>0.32159E+02</wgt>
<wgt id='14024'>0.32154E+02</wgt>
<wgt id='14025'>0.32149E+02</wgt>
<wgt id='14026'>0.32144E+02</wgt>
<wgt id='14027'>0.32139E+02</wgt>
<wgt id='14028'>0.32134E+02</wgt>
<wgt id='14029'>0.32130E+02</wgt>
<wgt id='14030'>0.32125E+02</wgt>
<wgt id='15000'>0.30410E+02</wgt>
<wgt id='15001'>0.30474E+02</wgt>
<wgt id='15002'>0.30591E+02</wgt>
<wgt id='15003'>0.30097E+02</wgt>
<wgt id='15004'>0.30336E+02</wgt>
<wgt id='15005'>0.30572E+02</wgt>
<wgt id='15006'>0.30321E+02</wgt>
<wgt id='15007'>0.30469E+02</wgt>
<wgt id='15008'>0.30504E+02</wgt>
<wgt id='15009'>0.30383E+02</wgt>
<wgt id='15010'>0.30383E+02</wgt>
<wgt id='15011'>0.30767E+02</wgt>
<wgt id='15012'>0.29892E+02</wgt>
<wgt id='15013'>0.29964E+02</wgt>
<wgt id='15014'>0.29982E+02</wgt>
<wgt id='15015'>0.30361E+02</wgt>
<wgt id='15016'>0.30476E+02</wgt>
<wgt id='15017'>0.30451E+02</wgt>
<wgt id='15018'>0.30430E+02</wgt>
<wgt id='15019'>0.30388E+02</wgt>
<wgt id='15020'>0.30533E+02</wgt>
<wgt id='15021'>0.30401E+02</wgt>
<wgt id='15022'>0.30442E+02</wgt>
<wgt id='15023'>0.30364E+02</wgt>
<wgt id='15024'>0.30359E+02</wgt>
<wgt id='15025'>0.30462E+02</wgt>
<wgt id='15026'>0.30425E+02</wgt>
<wgt id='15027'>0.30387E+02</wgt>
<wgt id='15028'>0.30435E+02</wgt>
<wgt id='15029'>0.30434E+02</wgt>
<wgt id='15030'>0.30431E+02</wgt>
<wgt id='15031'>0.30404E+02</wgt>
<wgt id='15032'>0.30428E+02</wgt>
<wgt id='15033'>0.30451E+02</wgt>
<wgt id='15034'>0.30393E+02</wgt>
<wgt id='15035'>0.30461E+02</wgt>
<wgt id='15036'>0.30409E+02</wgt>
<wgt id='15037'>0.30438E+02</wgt>
<wgt id='15038'>0.30411E+02</wgt>
<wgt id='15039'>0.30414E+02</wgt>
<wgt id='15040'>0.30376E+02</wgt>
<wgt id='15041'>0.30394E+02</wgt>
<wgt id='15042'>0.30402E+02</wgt>
<wgt id='15043'>0.30388E+02</wgt>
<wgt id='15044'>0.30418E+02</wgt>
<wgt id='15045'>0.30402E+02</wgt>
<wgt id='15046'>0.30371E+02</wgt>
<wgt id='15047'>0.30395E+02</wgt>
<wgt id='15048'>0.30418E+02</wgt>
<wgt id='15049'>0.30394E+02</wgt>
<wgt id='15050'>0.30415E+02</wgt>
<wgt id='15051'>0.30422E+02</wgt>
<wgt id='15052'>0.30417E+02</wgt>
<wgt id='15053'>0.30415E+02</wgt>
<wgt id='15054'>0.30396E+02</wgt>
<wgt id='15055'>0.30403E+02</wgt>
<wgt id='15056'>0.30436E+02</wgt>
<wgt id='15057'>0.30407E+02</wgt>
<wgt id='15058'>0.30392E+02</wgt>
<wgt id='15059'>0.30398E+02</wgt>
<wgt id='15060'>0.30401E+02</wgt>
<wgt id='15061'>0.30414E+02</wgt>
<wgt id='15062'>0.30414E+02</wgt>
<wgt id='15063'>0.30424E+02</wgt>
<wgt id='15064'>0.30401E+02</wgt>
<wgt id='15065'>0.30410E+02</wgt>
<wgt id='15066'>0.30414E+02</wgt>
<wgt id='15067'>0.30419E+02</wgt>
<wgt id='15068'>0.30418E+02</wgt>
<wgt id='15069'>0.30425E+02</wgt>
<wgt id='15070'>0.30406E+02</wgt>
<wgt id='15071'>0.30427E+02</wgt>
<wgt id='15072'>0.30428E+02</wgt>
<wgt id='15073'>0.30402E+02</wgt>
<wgt id='15074'>0.30413E+02</wgt>
<wgt id='15075'>0.30407E+02</wgt>
<wgt id='15076'>0.30408E+02</wgt>
<wgt id='15077'>0.30415E+02</wgt>
<wgt id='15078'>0.30413E+02</wgt>
<wgt id='15079'>0.30406E+02</wgt>
<wgt id='15080'>0.30428E+02</wgt>
<wgt id='15081'>0.30406E+02</wgt>
<wgt id='15082'>0.30416E+02</wgt>
<wgt id='15083'>0.30400E+02</wgt>
<wgt id='15084'>0.30402E+02</wgt>
<wgt id='15085'>0.30404E+02</wgt>
<wgt id='15086'>0.30413E+02</wgt>
<wgt id='15087'>0.30394E+02</wgt>
<wgt id='15088'>0.30405E+02</wgt>
<wgt id='15089'>0.30404E+02</wgt>
<wgt id='15090'>0.30415E+02</wgt>
<wgt id='15091'>0.30408E+02</wgt>
<wgt id='15092'>0.30410E+02</wgt>
<wgt id='15093'>0.30405E+02</wgt>
<wgt id='15094'>0.30409E+02</wgt>
<wgt id='15095'>0.30413E+02</wgt>
<wgt id='15096'>0.30404E+02</wgt>
<wgt id='15097'>0.30412E+02</wgt>
<wgt id='15098'>0.30410E+02</wgt>
<wgt id='15099'>0.30403E+02</wgt>
<wgt id='15100'>0.30409E+02</wgt>
<wgt id='15101'>0.30410E+02</wgt>
<wgt id='15102'>0.30407E+02</wgt>
<wgt id='15103'>0.30410E+02</wgt>
<wgt id='15104'>0.30410E+02</wgt>
<wgt id='15105'>0.30411E+02</wgt>
<wgt id='15106'>0.30410E+02</wgt>
<wgt id='15107'>0.30408E+02</wgt>
<wgt id='1500'>0.31883E+02</wgt>
<wgt id='1501'>0.28701E+02</wgt>
<wgt id='1502'>0.32188E+02</wgt>
<wgt id='1503'>0.31550E+02</wgt>
<wgt id='1504'>0.31464E+02</wgt>
<wgt id='1505'>0.27540E+02</wgt>
<wgt id='1506'>0.31760E+02</wgt>
<wgt id='1507'>0.32549E+02</wgt>
<wgt id='1508'>0.31464E+02</wgt>
<wgt id='1509'>0.31731E+02</wgt>
<wgt id='1510'>0.31074E+02</wgt>
<wgt id='1511'>0.31845E+02</wgt>
<wgt id='1512'>0.32465E+02</wgt>
<wgt id='1513'>0.32365E+02</wgt>
<wgt id='1514'>0.31005E+02</wgt>
<wgt id='1515'>0.31687E+02</wgt>
<wgt id='1516'>0.32566E+02</wgt>
<wgt id='1517'>0.31236E+02</wgt>
<wgt id='1518'>0.31414E+02</wgt>
<wgt id='1519'>0.32117E+02</wgt>
<wgt id='1520'>0.32121E+02</wgt>
<wgt id='1521'>0.32001E+02</wgt>
<wgt id='1522'>0.31837E+02</wgt>
<wgt id='1523'>0.34493E+02</wgt>
<wgt id='1524'>0.31513E+02</wgt>
<wgt id='1525'>0.32525E+02</wgt>
<wgt id='1526'>0.31009E+02</wgt>
<wgt id='1527'>0.31548E+02</wgt>
<wgt id='1528'>0.31762E+02</wgt>
<wgt id='1529'>0.31246E+02</wgt>
<wgt id='1530'>0.32446E+02</wgt>
<wgt id='1531'>0.31716E+02</wgt>
<wgt id='1532'>0.31010E+02</wgt>
<wgt id='1533'>0.33108E+02</wgt>
<wgt id='1534'>0.32207E+02</wgt>
<wgt id='1535'>0.32952E+02</wgt>
<wgt id='1536'>0.33048E+02</wgt>
<wgt id='1537'>0.32165E+02</wgt>
<wgt id='1538'>0.31192E+02</wgt>
<wgt id='1539'>0.30499E+02</wgt>
<wgt id='1540'>0.32526E+02</wgt>
<wgt id='1541'>0.31564E+02</wgt>
<wgt id='1542'>0.32668E+02</wgt>
<wgt id='1543'>0.32420E+02</wgt>
<wgt id='1544'>0.31611E+02</wgt>
<wgt id='1545'>0.32875E+02</wgt>
<wgt id='1546'>0.31943E+02</wgt>
<wgt id='1547'>0.31272E+02</wgt>
<wgt id='1548'>0.31070E+02</wgt>
<wgt id='1549'>0.32479E+02</wgt>
<wgt id='1550'>0.32093E+02</wgt>
<wgt id='1551'>0.31999E+02</wgt>
<wgt id='1552'>0.31960E+02</wgt>
<wgt id='1553'>0.32577E+02</wgt>
<wgt id='1554'>0.31766E+02</wgt>
<wgt id='1555'>0.32128E+02</wgt>
<wgt id='1556'>0.30847E+02</wgt>
<wgt id='1557'>0.33435E+02</wgt>
<wgt id='1558'>0.31730E+02</wgt>
<wgt id='1559'>0.32261E+02</wgt>
<wgt id='1560'>0.31756E+02</wgt>
<wgt id='1561'>0.32381E+02</wgt>
<wgt id='1562'>0.31945E+02</wgt>
<wgt id='1563'>0.32663E+02</wgt>
<wgt id='1564'>0.31603E+02</wgt>
<wgt id='1565'>0.32393E+02</wgt>
<wgt id='1566'>0.32052E+02</wgt>
<wgt id='1567'>0.33207E+02</wgt>
<wgt id='1568'>0.31425E+02</wgt>
<wgt id='1569'>0.31184E+02</wgt>
<wgt id='1570'>0.32192E+02</wgt>
<wgt id='1571'>0.33014E+02</wgt>
<wgt id='1572'>0.31480E+02</wgt>
<wgt id='1573'>0.29128E+02</wgt>
<wgt id='1574'>0.32189E+02</wgt>
<wgt id='1575'>0.31493E+02</wgt>
<wgt id='1576'>0.31065E+02</wgt>
<wgt id='1577'>0.32267E+02</wgt>
<wgt id='1578'>0.33320E+02</wgt>
<wgt id='1579'>0.31762E+02</wgt>
<wgt id='1580'>0.32241E+02</wgt>
<wgt id='1581'>0.32125E+02</wgt>
<wgt id='1582'>0.31561E+02</wgt>
<wgt id='1583'>0.31686E+02</wgt>
<wgt id='1584'>0.32108E+02</wgt>
<wgt id='1585'>0.30861E+02</wgt>
<wgt id='1586'>0.31881E+02</wgt>
<wgt id='1587'>0.31829E+02</wgt>
<wgt id='1588'>0.32001E+02</wgt>
<wgt id='1589'>0.32331E+02</wgt>
<wgt id='1590'>0.31810E+02</wgt>
<wgt id='1591'>0.30615E+02</wgt>
<wgt id='1592'>0.32960E+02</wgt>
<wgt id='1593'>0.31492E+02</wgt>
<wgt id='1594'>0.32837E+02</wgt>
<wgt id='1595'>0.31424E+02</wgt>
<wgt id='1596'>0.32382E+02</wgt>
<wgt id='1597'>0.32143E+02</wgt>
<wgt id='1598'>0.33479E+02</wgt>
<wgt id='1599'>0.32829E+02</wgt>
<wgt id='1600'>0.31495E+02</wgt>
<wgt id='1601'>0.31485E+02</wgt>
<wgt id='1602'>0.31930E+02</wgt>
<wgt id='1700'>0.30902E+02</wgt>
<wgt id='1800'>0.39402E+02</wgt>
<wgt id='1850'>0.45003E+02</wgt>
<wgt id='1900'>0.37872E+02</wgt>
<wgt id='1950'>0.43239E+02</wgt>
</rwgt>
</event>
<event>
      4   9999  3.15120E+01  2.44098E+01 -1.00000E+00  1.56875E-01
      21    -1     0     0   502   501  0.000000000E+00  0.000000000E+00  4.819792692E+02  4.819792692E+02  0.000000000E+00  0.00000E+00  9.000E+00
       4    -1     0     0   501     0  0.000000000E+00  0.000000000E+00 -1.559570821E+01  1.559570821E+01  0.000000000E+00  0.00000E+00  9.000E+00
      25     1     1     2     0     0 -3.758205210E-02  2.440978550E+01  4.539599485E+02  4.701854687E+02  1.199954210E+02  0.00000E+00  9.000E+00
       4     1     1     2   502     0  3.758205210E-02 -2.440978550E+01  1.242361243E+01  2.738950869E+01  4.460403188E-07  0.00000E+00  9.000E+00
#rwgt            1           1   24.247503179234414                2        1804           0
<rwgt>
<wgt id='1001'>0.31512E+02</wgt>
<wgt id='1002'>0.35000E+02</wgt>
<wgt id='1003'>0.27785E+02</wgt>
<wgt id='1004'>0.26287E+02</wgt>
<wgt id='1005'>0.29000E+02</wgt>
<wgt id='1006'>0.23349E+02</wgt>
<wgt id='1007'>0.38519E+02</wgt>
<wgt id='1008'>0.43140E+02</wgt>
<wgt id='1009'>0.33651E+02</wgt>
<wgt id='2000'>0.31512E+02</wgt>
<wgt id='2001'>0.31480E+02</wgt>
<wgt id='2002'>0.31516E+02</wgt>
<wgt id='2003'>0.31474E+02</wgt>
<wgt id='2004'>0.31542E+02</wgt>
<wgt id='2005'>0.31552E+02</wgt>
<wgt id='2006'>0.31517E+02</wgt>
<wgt id='2007'>0.31595E+02</wgt>
<wgt id='2008'>0.31604E+02</wgt>
<wgt id='2009'>0.31466E+02</wgt>
<wgt id='2010'>0.31457E+02</wgt>
<wgt id='2011'>0.31513E+02</wgt>
<wgt id='2012'>0.31512E+02</wgt>
<wgt id='2013'>0.31441E+02</wgt>
<wgt id='2014'>0.31487E+02</wgt>
<wgt id='2015'>0.31514E+02</wgt>
<wgt id='2016'>0.31553E+02</wgt>
<wgt id='2017'>0.31497E+02</wgt>
<wgt id='2018'>0.31483E+02</wgt>
<wgt id='2019'>0.31524E+02</wgt>
<wgt id='2020'>0.31519E+02</wgt>
<wgt id='2021'>0.31516E+02</wgt>
<wgt id='2022'>0.31508E+02</wgt>
<wgt id='2023'>0.31545E+02</wgt>
<wgt id='2024'>0.31465E+02</wgt>
<wgt id='2025'>0.31544E+02</wgt>
<wgt id='2026'>0.31589E+02</wgt>
<wgt id='2027'>0.31471E+02</wgt>
<wgt id='2028'>0.31445E+02</wgt>
<wgt id='2029'>0.31632E+02</wgt>
<wgt id='2030'>0.31509E+02</wgt>
<wgt id='2031'>0.31553E+02</wgt>
<wgt id='2032'>0.31468E+02</wgt>
<wgt id='2033'>0.31512E+02</wgt>
<wgt id='2034'>0.31607E+02</wgt>
<wgt id='2035'>0.31502E+02</wgt>
<wgt id='2036'>0.31526E+02</wgt>
<wgt id='2037'>0.31570E+02</wgt>
<wgt id='2038'>0.31494E+02</wgt>
<wgt id='2039'>0.31434E+02</wgt>
<wgt id='2040'>0.31504E+02</wgt>
<wgt id='2041'>0.31516E+02</wgt>
<wgt id='2042'>0.31507E+02</wgt>
<wgt id='2043'>0.31487E+02</wgt>
<wgt id='2044'>0.31544E+02</wgt>
<wgt id='2045'>0.31490E+02</wgt>
<wgt id='2046'>0.31542E+02</wgt>
<wgt id='2047'>0.31543E+02</wgt>
<wgt id='2048'>0.31481E+02</wgt>
<wgt id='2049'>0.31497E+02</wgt>
<wgt id='2050'>0.31519E+02</wgt>
<wgt id='2051'>0.31559E+02</wgt>
<wgt id='2052'>0.31527E+02</wgt>
<wgt id='2053'>0.31534E+02</wgt>
<wgt id='2054'>0.31525E+02</wgt>
<wgt id='2055'>0.31503E+02</wgt>
<wgt id='2056'>0.31514E+02</wgt>
<wgt id='2057'>0.31541E+02</wgt>
<wgt id='2058'>0.31517E+02</wgt>
<wgt id='2059'>0.31502E+02</wgt>
<wgt id='2060'>0.31507E+02</wgt>
<wgt id='2061'>0.31497E+02</wgt>
<wgt id='2062'>0.31520E+02</wgt>
<wgt id='2063'>0.31512E+02</wgt>
<wgt id='2064'>0.31507E+02</wgt>
<wgt id='2065'>0.31538E+02</wgt>
<wgt id='2066'>0.31511E+02</wgt>
<wgt id='2067'>0.31513E+02</wgt>
<wgt id='2068'>0.31519E+02</wgt>
<wgt id='2069'>0.31511E+02</wgt>
<wgt id='2070'>0.31500E+02</wgt>
<wgt id='2071'>0.31501E+02</wgt>
<wgt id='2072'>0.31514E+02</wgt>
<wgt id='2073'>0.31515E+02</wgt>
<wgt id='2074'>0.31507E+02</wgt>
<wgt id='2075'>0.31512E+02</wgt>
<wgt id='2076'>0.31506E+02</wgt>
<wgt id='2077'>0.31513E+02</wgt>
<wgt id='2078'>0.31509E+02</wgt>
<wgt id='2079'>0.31514E+02</wgt>
<wgt id='2080'>0.31517E+02</wgt>
<wgt id='2081'>0.31514E+02</wgt>
<wgt id='2082'>0.31515E+02</wgt>
<wgt id='2083'>0.31520E+02</wgt>
<wgt id='2084'>0.31516E+02</wgt>
<wgt id='2085'>0.31516E+02</wgt>
<wgt id='2086'>0.31505E+02</wgt>
<wgt id='2087'>0.31508E+02</wgt>
<wgt id='2088'>0.31517E+02</wgt>
<wgt id='2089'>0.31504E+02</wgt>
<wgt id='2090'>0.31511E+02</wgt>
<wgt id='2091'>0.31515E+02</wgt>
<wgt id='2092'>0.31517E+02</wgt>
<wgt id='2093'>0.31510E+02</wgt>
<wgt id='2094'>0.31519E+02</wgt>
<wgt id='2095'>0.31516E+02</wgt>
<wgt id='2096'>0.31508E+02</wgt>
<wgt id='2097'>0.31515E+02</wgt>
<wgt id='2098'>0.31511E+02</wgt>
<wgt id='2099'>0.31509E+02</wgt>
<wgt id='2100'>0.31513E+02</wgt>
<wgt id='2101'>0.30567E+02</wgt>
<wgt id='2102'>0.32490E+02</wgt>
<wgt id='2104'>0.26968E+02</wgt>
<wgt id='2105'>0.27840E+02</wgt>
<wgt id='2106'>0.28674E+02</wgt>
<wgt id='2107'>0.29546E+02</wgt>
<wgt id='2108'>0.31023E+02</wgt>
<wgt id='2109'>0.31972E+02</wgt>
<wgt id='2110'>0.33396E+02</wgt>
<wgt id='2111'>0.34350E+02</wgt>
<wgt id='3000'>0.33141E+02</wgt>
<wgt id='3001'>0.33153E+02</wgt>
<wgt id='3002'>0.33123E+02</wgt>
<wgt id='3003'>0.33089E+02</wgt>
<wgt id='3004'>0.33173E+02</wgt>
<wgt id='3005'>0.33061E+02</wgt>
<wgt id='3006'>0.33099E+02</wgt>
<wgt id='3007'>0.33033E+02</wgt>
<wgt id='3008'>0.33149E+02</wgt>
<wgt id='3009'>0.33014E+02</wgt>
<wgt id='3010'>0.33129E+02</wgt>
<wgt id='3011'>0.33157E+02</wgt>
<wgt id='3012'>0.33138E+02</wgt>
<wgt id='3013'>0.33177E+02</wgt>
<wgt id='3014'>0.33096E+02</wgt>
<wgt id='3015'>0.33115E+02</wgt>
<wgt id='3016'>0.33140E+02</wgt>
<wgt id='3017'>0.33101E+02</wgt>
<wgt id='3018'>0.33166E+02</wgt>
<wgt id='3019'>0.33193E+02</wgt>
<wgt id='3020'>0.33148E+02</wgt>
<wgt id='3021'>0.33147E+02</wgt>
<wgt id='3022'>0.33143E+02</wgt>
<wgt id='3023'>0.33130E+02</wgt>
<wgt id='3024'>0.33115E+02</wgt>
<wgt id='3025'>0.33174E+02</wgt>
<wgt id='3026'>0.33149E+02</wgt>
<wgt id='3027'>0.33148E+02</wgt>
<wgt id='3028'>0.33069E+02</wgt>
<wgt id='3029'>0.33058E+02</wgt>
<wgt id='3030'>0.33276E+02</wgt>
<wgt id='3031'>0.33211E+02</wgt>
<wgt id='3032'>0.33182E+02</wgt>
<wgt id='3033'>0.33232E+02</wgt>
<wgt id='3034'>0.33159E+02</wgt>
<wgt id='3035'>0.33275E+02</wgt>
<wgt id='3036'>0.33169E+02</wgt>
<wgt id='3037'>0.33119E+02</wgt>
<wgt id='3038'>0.33148E+02</wgt>
<wgt id='3039'>0.33118E+02</wgt>
<wgt id='3040'>0.33106E+02</wgt>
<wgt id='3041'>0.33170E+02</wgt>
<wgt id='3042'>0.33116E+02</wgt>
<wgt id='3043'>0.33108E+02</wgt>
<wgt id='3044'>0.33145E+02</wgt>
<wgt id='3045'>0.33163E+02</wgt>
<wgt id='3046'>0.33175E+02</wgt>
<wgt id='3047'>0.33149E+02</wgt>
<wgt id='3048'>0.33141E+02</wgt>
<wgt id='3049'>0.33135E+02</wgt>
<wgt id='3050'>0.33123E+02</wgt>
<wgt id='3051'>0.33167E+02</wgt>
<wgt id='3052'>0.33117E+02</wgt>
<wgt id='3053'>0.33134E+02</wgt>
<wgt id='3054'>0.33148E+02</wgt>
<wgt id='3055'>0.33089E+02</wgt>
<wgt id='3056'>0.33145E+02</wgt>
<wgt id='3057'>0.33139E+02</wgt>
<wgt id='3058'>0.33114E+02</wgt>
<wgt id='3059'>0.33147E+02</wgt>
<wgt id='3060'>0.33153E+02</wgt>
<wgt id='3061'>0.33147E+02</wgt>
<wgt id='3062'>0.33152E+02</wgt>
<wgt id='3063'>0.33158E+02</wgt>
<wgt id='3064'>0.33128E+02</wgt>
<wgt id='3065'>0.33136E+02</wgt>
<wgt id='3066'>0.33148E+02</wgt>
<wgt id='3067'>0.33121E+02</wgt>
<wgt id='3068'>0.33154E+02</wgt>
<wgt id='3069'>0.33140E+02</wgt>
<wgt id='3070'>0.33151E+02</wgt>
<wgt id='3071'>0.33132E+02</wgt>
<wgt id='3072'>0.33135E+02</wgt>
<wgt id='3073'>0.33123E+02</wgt>
<wgt id='3074'>0.33149E+02</wgt>
<wgt id='3075'>0.33135E+02</wgt>
<wgt id='3076'>0.33136E+02</wgt>
<wgt id='3077'>0.33147E+02</wgt>
<wgt id='3078'>0.33144E+02</wgt>
<wgt id='3079'>0.33143E+02</wgt>
<wgt id='3080'>0.33142E+02</wgt>
<wgt id='3081'>0.33145E+02</wgt>
<wgt id='3082'>0.33140E+02</wgt>
<wgt id='3083'>0.33139E+02</wgt>
<wgt id='3084'>0.33138E+02</wgt>
<wgt id='3085'>0.33140E+02</wgt>
<wgt id='3086'>0.33129E+02</wgt>
<wgt id='3087'>0.33135E+02</wgt>
<wgt id='3088'>0.33142E+02</wgt>
<wgt id='3089'>0.33140E+02</wgt>
<wgt id='3090'>0.33142E+02</wgt>
<wgt id='3091'>0.33145E+02</wgt>
<wgt id='3092'>0.33143E+02</wgt>
<wgt id='3093'>0.33141E+02</wgt>
<wgt id='3094'>0.33146E+02</wgt>
<wgt id='3095'>0.33141E+02</wgt>
<wgt id='3096'>0.33142E+02</wgt>
<wgt id='3097'>0.33137E+02</wgt>
<wgt id='3098'>0.33142E+02</wgt>
<wgt id='3099'>0.33144E+02</wgt>
<wgt id='3100'>0.33140E+02</wgt>
<wgt id='3101'>0.32065E+02</wgt>
<wgt id='3102'>0.34188E+02</wgt>
<wgt id='5000'>0.30864E+02</wgt>
<wgt id='5001'>0.30853E+02</wgt>
<wgt id='5002'>0.30796E+02</wgt>
<wgt id='5003'>0.30871E+02</wgt>
<wgt id='5004'>0.30785E+02</wgt>
<wgt id='5005'>0.30856E+02</wgt>
<wgt id='5006'>0.30498E+02</wgt>
<wgt id='5007'>0.30647E+02</wgt>
<wgt id='5008'>0.30977E+02</wgt>
<wgt id='5009'>0.30843E+02</wgt>
<wgt id='5010'>0.30855E+02</wgt>
<wgt id='5011'>0.30938E+02</wgt>
<wgt id='5012'>0.30747E+02</wgt>
<wgt id='5013'>0.30801E+02</wgt>
<wgt id='5014'>0.30908E+02</wgt>
<wgt id='5015'>0.30932E+02</wgt>
<wgt id='5016'>0.30606E+02</wgt>
<wgt id='5017'>0.30746E+02</wgt>
<wgt id='5018'>0.30995E+02</wgt>
<wgt id='5019'>0.30767E+02</wgt>
<wgt id='5020'>0.30970E+02</wgt>
<wgt id='5021'>0.30875E+02</wgt>
<wgt id='5022'>0.30855E+02</wgt>
<wgt id='5023'>0.30697E+02</wgt>
<wgt id='5024'>0.31042E+02</wgt>
<wgt id='5025'>0.30871E+02</wgt>
<wgt id='5026'>0.30858E+02</wgt>
<wgt id='5027'>0.31056E+02</wgt>
<wgt id='5028'>0.30534E+02</wgt>
<wgt id='5029'>0.30547E+02</wgt>
<wgt id='5030'>0.31050E+02</wgt>
<wgt id='5031'>0.30662E+02</wgt>
<wgt id='5032'>0.31150E+02</wgt>
<wgt id='5033'>0.30727E+02</wgt>
<wgt id='5034'>0.30983E+02</wgt>
<wgt id='5035'>0.30613E+02</wgt>
<wgt id='5036'>0.31081E+02</wgt>
<wgt id='5037'>0.30569E+02</wgt>
<wgt id='5038'>0.31195E+02</wgt>
<wgt id='5039'>0.31364E+02</wgt>
<wgt id='5040'>0.30614E+02</wgt>
<wgt id='5041'>0.30820E+02</wgt>
<wgt id='5042'>0.30842E+02</wgt>
<wgt id='5043'>0.31006E+02</wgt>
<wgt id='5044'>0.30501E+02</wgt>
<wgt id='5045'>0.30853E+02</wgt>
<wgt id='5046'>0.30856E+02</wgt>
<wgt id='5047'>0.30619E+02</wgt>
<wgt id='5048'>0.31197E+02</wgt>
<wgt id='5049'>0.30844E+02</wgt>
<wgt id='5050'>0.30937E+02</wgt>
<wgt id='5051'>0.30895E+02</wgt>
<wgt id='5052'>0.30854E+02</wgt>
<wgt id='5053'>0.30022E+02</wgt>
<wgt id='5054'>0.30341E+02</wgt>
<wgt id='5055'>0.30678E+02</wgt>
<wgt id='5056'>0.31190E+02</wgt>
<wgt id='5060'>0.29793E+02</wgt>
<wgt id='5070'>0.31954E+02</wgt>
<wgt id='4000'>0.32464E+02</wgt>
<wgt id='4001'>0.32458E+02</wgt>
<wgt id='4002'>0.32522E+02</wgt>
<wgt id='4003'>0.32120E+02</wgt>
<wgt id='4004'>0.32589E+02</wgt>
<wgt id='4005'>0.32570E+02</wgt>
<wgt id='4006'>0.32398E+02</wgt>
<wgt id='4007'>0.32354E+02</wgt>
<wgt id='4008'>0.32591E+02</wgt>
<wgt id='4009'>0.32214E+02</wgt>
<wgt id='4010'>0.32572E+02</wgt>
<wgt id='4011'>0.32735E+02</wgt>
<wgt id='4012'>0.32292E+02</wgt>
<wgt id='4013'>0.31800E+02</wgt>
<wgt id='4014'>0.32851E+02</wgt>
<wgt id='4015'>0.32879E+02</wgt>
<wgt id='4016'>0.32204E+02</wgt>
<wgt id='4017'>0.32045E+02</wgt>
<wgt id='4018'>0.32962E+02</wgt>
<wgt id='4019'>0.32669E+02</wgt>
<wgt id='4020'>0.32227E+02</wgt>
<wgt id='4021'>0.32477E+02</wgt>
<wgt id='4022'>0.32421E+02</wgt>
<wgt id='4023'>0.32450E+02</wgt>
<wgt id='4024'>0.32461E+02</wgt>
<wgt id='4025'>0.32438E+02</wgt>
<wgt id='4026'>0.32482E+02</wgt>
<wgt id='4027'>0.32451E+02</wgt>
<wgt id='4028'>0.32477E+02</wgt>
<wgt id='4029'>0.32373E+02</wgt>
<wgt id='4030'>0.32496E+02</wgt>
<wgt id='4031'>0.32509E+02</wgt>
<wgt id='4032'>0.32406E+02</wgt>
<wgt id='4033'>0.32412E+02</wgt>
<wgt id='4034'>0.32581E+02</wgt>
<wgt id='4035'>0.32525E+02</wgt>
<wgt id='4036'>0.32409E+02</wgt>
<wgt id='4037'>0.32497E+02</wgt>
<wgt id='4038'>0.32367E+02</wgt>
<wgt id='4039'>0.32364E+02</wgt>
<wgt id='4040'>0.32519E+02</wgt>
<wgt id='4041'>0.32510E+02</wgt>
<wgt id='4042'>0.32431E+02</wgt>
<wgt id='4043'>0.32309E+02</wgt>
<wgt id='4044'>0.32672E+02</wgt>
<wgt id='4045'>0.32264E+02</wgt>
<wgt id='4046'>0.32486E+02</wgt>
<wgt id='4047'>0.32487E+02</wgt>
<wgt id='4048'>0.32149E+02</wgt>
<wgt id='4049'>0.32100E+02</wgt>
<wgt id='4050'>0.32564E+02</wgt>
<wgt id='4051'>0.32423E+02</wgt>
<wgt id='4052'>0.32450E+02</wgt>
<wgt id='4053'>0.31471E+02</wgt>
<wgt id='4054'>0.32340E+02</wgt>
<wgt id='4055'>0.32356E+02</wgt>
<wgt id='4056'>0.32702E+02</wgt>
<wgt id='4060'>0.31284E+02</wgt>
<wgt id='4070'>0.33667E+02</wgt>
<wgt id='4080'>0.35074E+02</wgt>
<wgt id='6000'>0.32784E+02</wgt>
<wgt id='6001'>0.32833E+02</wgt>
<wgt id='6002'>0.32733E+02</wgt>
<wgt id='6003'>0.32803E+02</wgt>
<wgt id='6004'>0.32772E+02</wgt>
<wgt id='6005'>0.32819E+02</wgt>
<wgt id='6006'>0.32752E+02</wgt>
<wgt id='6007'>0.32689E+02</wgt>
<wgt id='6008'>0.32890E+02</wgt>
<wgt id='6009'>0.32928E+02</wgt>
<wgt id='6010'>0.32645E+02</wgt>
<wgt id='6011'>0.32859E+02</wgt>
<wgt id='6012'>0.32625E+02</wgt>
<wgt id='6013'>0.32743E+02</wgt>
<wgt id='6014'>0.32855E+02</wgt>
<wgt id='6015'>0.32704E+02</wgt>
<wgt id='6016'>0.32829E+02</wgt>
<wgt id='6017'>0.32586E+02</wgt>
<wgt id='6018'>0.33020E+02</wgt>
<wgt id='6019'>0.32781E+02</wgt>
<wgt id='6020'>0.32787E+02</wgt>
<wgt id='6021'>0.32719E+02</wgt>
<wgt id='6022'>0.32875E+02</wgt>
<wgt id='6023'>0.32562E+02</wgt>
<wgt id='6024'>0.32942E+02</wgt>
<wgt id='6025'>0.32841E+02</wgt>
<wgt id='6026'>0.32608E+02</wgt>
<wgt id='6027'>0.32873E+02</wgt>
<wgt id='6028'>0.32784E+02</wgt>
<wgt id='6029'>0.32818E+02</wgt>
<wgt id='6030'>0.32742E+02</wgt>
<wgt id='6031'>0.32683E+02</wgt>
<wgt id='6032'>0.32880E+02</wgt>
<wgt id='6033'>0.32871E+02</wgt>
<wgt id='6034'>0.32696E+02</wgt>
<wgt id='6035'>0.32809E+02</wgt>
<wgt id='6036'>0.32783E+02</wgt>
<wgt id='6037'>0.32838E+02</wgt>
<wgt id='6038'>0.32786E+02</wgt>
<wgt id='6039'>0.32723E+02</wgt>
<wgt id='6040'>0.32853E+02</wgt>
<wgt id='6041'>0.32702E+02</wgt>
<wgt id='6042'>0.32885E+02</wgt>
<wgt id='6043'>0.33211E+02</wgt>
<wgt id='6044'>0.32640E+02</wgt>
<wgt id='6045'>0.32757E+02</wgt>
<wgt id='6046'>0.32859E+02</wgt>
<wgt id='6047'>0.33000E+02</wgt>
<wgt id='6048'>0.32496E+02</wgt>
<wgt id='6049'>0.32878E+02</wgt>
<wgt id='6050'>0.32737E+02</wgt>
<wgt id='7000'>0.30768E+02</wgt>
<wgt id='7001'>0.30803E+02</wgt>
<wgt id='7002'>0.30727E+02</wgt>
<wgt id='7003'>0.30844E+02</wgt>
<wgt id='7004'>0.30694E+02</wgt>
<wgt id='7005'>0.30815E+02</wgt>
<wgt id='7006'>0.30751E+02</wgt>
<wgt id='7007'>0.30663E+02</wgt>
<wgt id='7008'>0.30875E+02</wgt>
<wgt id='7009'>0.30835E+02</wgt>
<wgt id='7010'>0.30705E+02</wgt>
<wgt id='7011'>0.30456E+02</wgt>
<wgt id='7012'>0.30905E+02</wgt>
<wgt id='7013'>0.30766E+02</wgt>
<wgt id='7014'>0.30774E+02</wgt>
<wgt id='7015'>0.30675E+02</wgt>
<wgt id='7016'>0.30869E+02</wgt>
<wgt id='7017'>0.30539E+02</wgt>
<wgt id='7018'>0.30893E+02</wgt>
<wgt id='7019'>0.30742E+02</wgt>
<wgt id='7020'>0.30808E+02</wgt>
<wgt id='7021'>0.30766E+02</wgt>
<wgt id='7022'>0.30769E+02</wgt>
<wgt id='7023'>0.30894E+02</wgt>
<wgt id='7024'>0.30623E+02</wgt>
<wgt id='7025'>0.30840E+02</wgt>
<wgt id='7026'>0.30597E+02</wgt>
<wgt id='7027'>0.30865E+02</wgt>
<wgt id='7028'>0.30752E+02</wgt>
<wgt id='7029'>0.30757E+02</wgt>
<wgt id='7030'>0.30766E+02</wgt>
<wgt id='7031'>0.30721E+02</wgt>
<wgt id='7032'>0.30877E+02</wgt>
<wgt id='7033'>0.30774E+02</wgt>
<wgt id='7034'>0.30785E+02</wgt>
<wgt id='7035'>0.30734E+02</wgt>
<wgt id='7036'>0.30804E+02</wgt>
<wgt id='7037'>0.30773E+02</wgt>
<wgt id='7038'>0.30798E+02</wgt>
<wgt id='7039'>0.30694E+02</wgt>
<wgt id='7040'>0.30822E+02</wgt>
<wgt id='7041'>0.30747E+02</wgt>
<wgt id='7042'>0.30805E+02</wgt>
<wgt id='7043'>0.30789E+02</wgt>
<wgt id='7044'>0.30646E+02</wgt>
<wgt id='7045'>0.30528E+02</wgt>
<wgt id='7046'>0.30971E+02</wgt>
<wgt id='7047'>0.30881E+02</wgt>
<wgt id='7048'>0.30726E+02</wgt>
<wgt id='7049'>0.30703E+02</wgt>
<wgt id='7050'>0.30861E+02</wgt>
<wgt id='7060'>0.51496E+02</wgt>
<wgt id='8000'>0.31161E+02</wgt>
<wgt id='8001'>0.31152E+02</wgt>
<wgt id='8002'>0.31169E+02</wgt>
<wgt id='8003'>0.31162E+02</wgt>
<wgt id='8004'>0.31160E+02</wgt>
<wgt id='8005'>0.31088E+02</wgt>
<wgt id='8006'>0.31156E+02</wgt>
<wgt id='8007'>0.31143E+02</wgt>
<wgt id='8008'>0.31219E+02</wgt>
<wgt id='8009'>0.31280E+02</wgt>
<wgt id='8010'>0.31156E+02</wgt>
<wgt id='8011'>0.31152E+02</wgt>
<wgt id='8012'>0.31110E+02</wgt>
<wgt id='8013'>0.31138E+02</wgt>
<wgt id='8014'>0.31173E+02</wgt>
<wgt id='8015'>0.31135E+02</wgt>
<wgt id='8016'>0.31183E+02</wgt>
<wgt id='8017'>0.31174E+02</wgt>
<wgt id='8018'>0.31194E+02</wgt>
<wgt id='8019'>0.31176E+02</wgt>
<wgt id='8020'>0.31127E+02</wgt>
<wgt id='8021'>0.31149E+02</wgt>
<wgt id='8022'>0.31100E+02</wgt>
<wgt id='8023'>0.31147E+02</wgt>
<wgt id='8024'>0.31135E+02</wgt>
<wgt id='8025'>0.31183E+02</wgt>
<wgt id='8026'>0.31204E+02</wgt>
<wgt id='8027'>0.31143E+02</wgt>
<wgt id='8028'>0.31190E+02</wgt>
<wgt id='8029'>0.31055E+02</wgt>
<wgt id='8500'>0.32883E+02</wgt>
<wgt id='8501'>0.32725E+02</wgt>
<wgt id='8502'>0.32892E+02</wgt>
<wgt id='8503'>0.32960E+02</wgt>
<wgt id='8504'>0.32823E+02</wgt>
<wgt id='8505'>0.32945E+02</wgt>
<wgt id='8506'>0.32894E+02</wgt>
<wgt id='8507'>0.32937E+02</wgt>
<wgt id='8508'>0.32821E+02</wgt>
<wgt id='8509'>0.32958E+02</wgt>
<wgt id='8510'>0.33175E+02</wgt>
<wgt id='8511'>0.32884E+02</wgt>
<wgt id='8512'>0.32814E+02</wgt>
<wgt id='8513'>0.32865E+02</wgt>
<wgt id='8514'>0.32578E+02</wgt>
<wgt id='8515'>0.33029E+02</wgt>
<wgt id='8516'>0.32878E+02</wgt>
<wgt id='8517'>0.32751E+02</wgt>
<wgt id='8518'>0.32718E+02</wgt>
<wgt id='8519'>0.32695E+02</wgt>
<wgt id='8520'>0.32854E+02</wgt>
<wgt id='8521'>0.32743E+02</wgt>
<wgt id='8522'>0.32949E+02</wgt>
<wgt id='8523'>0.32772E+02</wgt>
<wgt id='8524'>0.32900E+02</wgt>
<wgt id='8525'>0.32862E+02</wgt>
<wgt id='8526'>0.32802E+02</wgt>
<wgt id='8527'>0.32875E+02</wgt>
<wgt id='8528'>0.32795E+02</wgt>
<wgt id='8529'>0.32846E+02</wgt>
<wgt id='8530'>0.32902E+02</wgt>
<wgt id='8531'>0.32871E+02</wgt>
<wgt id='8532'>0.32886E+02</wgt>
<wgt id='8533'>0.32797E+02</wgt>
<wgt id='8534'>0.32882E+02</wgt>
<wgt id='8535'>0.32969E+02</wgt>
<wgt id='8536'>0.32858E+02</wgt>
<wgt id='8537'>0.32891E+02</wgt>
<wgt id='8538'>0.32861E+02</wgt>
<wgt id='8539'>0.32891E+02</wgt>
<wgt id='8540'>0.32885E+02</wgt>
<wgt id='8541'>0.32902E+02</wgt>
<wgt id='8542'>0.32899E+02</wgt>
<wgt id='8543'>0.32854E+02</wgt>
<wgt id='8544'>0.32909E+02</wgt>
<wgt id='8545'>0.32908E+02</wgt>
<wgt id='8546'>0.32926E+02</wgt>
<wgt id='8547'>0.32852E+02</wgt>
<wgt id='8548'>0.32857E+02</wgt>
<wgt id='8549'>0.32887E+02</wgt>
<wgt id='8550'>0.32882E+02</wgt>
<wgt id='8551'>0.32862E+02</wgt>
<wgt id='8552'>0.32881E+02</wgt>
<wgt id='8553'>0.32861E+02</wgt>
<wgt id='8554'>0.32873E+02</wgt>
<wgt id='8555'>0.32885E+02</wgt>
<wgt id='8556'>0.32876E+02</wgt>
<wgt id='8557'>0.32881E+02</wgt>
<wgt id='8558'>0.32921E+02</wgt>
<wgt id='8559'>0.32867E+02</wgt>
<wgt id='8560'>0.32844E+02</wgt>
<wgt id='8561'>0.32884E+02</wgt>
<wgt id='8562'>0.32857E+02</wgt>
<wgt id='8563'>0.32886E+02</wgt>
<wgt id='8564'>0.32873E+02</wgt>
<wgt id='8565'>0.32886E+02</wgt>
<wgt id='8566'>0.32878E+02</wgt>
<wgt id='8567'>0.32878E+02</wgt>
<wgt id='8568'>0.32899E+02</wgt>
<wgt id='8569'>0.32895E+02</wgt>
<wgt id='8570'>0.32885E+02</wgt>
<wgt id='8571'>0.32863E+02</wgt>
<wgt id='8572'>0.32866E+02</wgt>
<wgt id='8573'>0.32869E+02</wgt>
<wgt id='8574'>0.32890E+02</wgt>
<wgt id='8575'>0.32878E+02</wgt>
<wgt id='8576'>0.32878E+02</wgt>
<wgt id='8577'>0.32880E+02</wgt>
<wgt id='8578'>0.32884E+02</wgt>
<wgt id='8579'>0.32904E+02</wgt>
<wgt id='8580'>0.32882E+02</wgt>
<wgt id='8581'>0.32894E+02</wgt>
<wgt id='8582'>0.32858E+02</wgt>
<wgt id='8583'>0.32899E+02</wgt>
<wgt id='8584'>0.32893E+02</wgt>
<wgt id='8585'>0.32894E+02</wgt>
<wgt id='8586'>0.32902E+02</wgt>
<wgt id='8587'>0.32879E+02</wgt>
<wgt id='8588'>0.32875E+02</wgt>
<wgt id='8589'>0.32883E+02</wgt>
<wgt id='8590'>0.32881E+02</wgt>
<wgt id='8591'>0.32879E+02</wgt>
<wgt id='8592'>0.32882E+02</wgt>
<wgt id='8593'>0.32870E+02</wgt>
<wgt id='8594'>0.32888E+02</wgt>
<wgt id='8595'>0.32888E+02</wgt>
<wgt id='8596'>0.32876E+02</wgt>
<wgt id='8597'>0.32887E+02</wgt>
<wgt id='8598'>0.32892E+02</wgt>
<wgt id='8599'>0.32887E+02</wgt>
<wgt id='8600'>0.32883E+02</wgt>
<wgt id='8601'>0.32106E+02</wgt>
<wgt id='8602'>0.33646E+02</wgt>
<wgt id='9000'>0.31063E+02</wgt>
<wgt id='9001'>0.31091E+02</wgt>
<wgt id='9002'>0.31088E+02</wgt>
<wgt id='9003'>0.31005E+02</wgt>
<wgt id='9004'>0.31088E+02</wgt>
<wgt id='9005'>0.31055E+02</wgt>
<wgt id='9006'>0.31157E+02</wgt>
<wgt id='9007'>0.31222E+02</wgt>
<wgt id='9008'>0.31139E+02</wgt>
<wgt id='9009'>0.31037E+02</wgt>
<wgt id='9010'>0.30985E+02</wgt>
<wgt id='9011'>0.31235E+02</wgt>
<wgt id='9012'>0.30988E+02</wgt>
<wgt id='9013'>0.30907E+02</wgt>
<wgt id='9014'>0.31037E+02</wgt>
<wgt id='9015'>0.31037E+02</wgt>
<wgt id='9016'>0.31285E+02</wgt>
<wgt id='9017'>0.30897E+02</wgt>
<wgt id='9018'>0.31048E+02</wgt>
<wgt id='9019'>0.31076E+02</wgt>
<wgt id='9020'>0.31283E+02</wgt>
<wgt id='9021'>0.31072E+02</wgt>
<wgt id='9022'>0.31123E+02</wgt>
<wgt id='9023'>0.30910E+02</wgt>
<wgt id='9024'>0.30978E+02</wgt>
<wgt id='9025'>0.31126E+02</wgt>
<wgt id='9026'>0.31064E+02</wgt>
<wgt id='9027'>0.31039E+02</wgt>
<wgt id='9028'>0.31098E+02</wgt>
<wgt id='9029'>0.31098E+02</wgt>
<wgt id='9030'>0.31100E+02</wgt>
<wgt id='9031'>0.31035E+02</wgt>
<wgt id='9032'>0.31086E+02</wgt>
<wgt id='9033'>0.31103E+02</wgt>
<wgt id='9034'>0.31066E+02</wgt>
<wgt id='9035'>0.31114E+02</wgt>
<wgt id='9036'>0.31074E+02</wgt>
<wgt id='9037'>0.31090E+02</wgt>
<wgt id='9038'>0.31077E+02</wgt>
<wgt id='9039'>0.31071E+02</wgt>
<wgt id='9040'>0.31031E+02</wgt>
<wgt id='9041'>0.31057E+02</wgt>
<wgt id='9042'>0.31066E+02</wgt>
<wgt id='9043'>0.31026E+02</wgt>
<wgt id='9044'>0.31070E+02</wgt>
<wgt id='9045'>0.31066E+02</wgt>
<wgt id='9046'>0.31021E+02</wgt>
<wgt id='9047'>0.31064E+02</wgt>
<wgt id='9048'>0.31074E+02</wgt>
<wgt id='9049'>0.31047E+02</wgt>
<wgt id='9050'>0.31064E+02</wgt>
<wgt id='9051'>0.31082E+02</wgt>
<wgt id='9052'>0.31081E+02</wgt>
<wgt id='9053'>0.31066E+02</wgt>
<wgt id='9054'>0.31048E+02</wgt>
<wgt id='9055'>0.31048E+02</wgt>
<wgt id='9056'>0.31088E+02</wgt>
<wgt id='9057'>0.31063E+02</wgt>
<wgt id='9058'>0.31033E+02</wgt>
<wgt id='9059'>0.31047E+02</wgt>
<wgt id='9060'>0.31050E+02</wgt>
<wgt id='9061'>0.31064E+02</wgt>
<wgt id='9062'>0.31068E+02</wgt>
<wgt id='9063'>0.31075E+02</wgt>
<wgt id='9064'>0.31058E+02</wgt>
<wgt id='9065'>0.31060E+02</wgt>
<wgt id='9066'>0.31064E+02</wgt>
<wgt id='9067'>0.31074E+02</wgt>
<wgt id='9068'>0.31068E+02</wgt>
<wgt id='9069'>0.31086E+02</wgt>
<wgt id='9070'>0.31058E+02</wgt>
<wgt id='9071'>0.31082E+02</wgt>
<wgt id='9072'>0.31085E+02</wgt>
<wgt id='9073'>0.31056E+02</wgt>
<wgt id='9074'>0.31067E+02</wgt>
<wgt id='9075'>0.31060E+02</wgt>
<wgt id='9076'>0.31059E+02</wgt>
<wgt id='9077'>0.31070E+02</wgt>
<wgt id='9078'>0.31065E+02</wgt>
<wgt id='9079'>0.31060E+02</wgt>
<wgt id='9080'>0.31089E+02</wgt>
<wgt id='9081'>0.31060E+02</wgt>
<wgt id='9082'>0.31071E+02</wgt>
<wgt id='9083'>0.31053E+02</wgt>
<wgt id='9084'>0.31053E+02</wgt>
<wgt id='9085'>0.31051E+02</wgt>
<wgt id='9086'>0.31067E+02</wgt>
<wgt id='9087'>0.31041E+02</wgt>
<wgt id='9088'>0.31055E+02</wgt>
<wgt id='9089'>0.31055E+02</wgt>
<wgt id='9090'>0.31069E+02</wgt>
<wgt id='9091'>0.31060E+02</wgt>
<wgt id='9092'>0.31063E+02</wgt>
<wgt id='9093'>0.31056E+02</wgt>
<wgt id='9094'>0.31061E+02</wgt>
<wgt id='9095'>0.31066E+02</wgt>
<wgt id='9096'>0.31056E+02</wgt>
<wgt id='9097'>0.31065E+02</wgt>
<wgt id='9098'>0.31063E+02</wgt>
<wgt id='9099'>0.31055E+02</wgt>
<wgt id='9100'>0.31063E+02</wgt>
<wgt id='9101'>0.30424E+02</wgt>
<wgt id='9102'>0.31745E+02</wgt>
<wgt id='10000'>0.32870E+02</wgt>
<wgt id='10001'>0.32960E+02</wgt>
<wgt id='10002'>0.32659E+02</wgt>
<wgt id='10003'>0.32853E+02</wgt>
<wgt id='10004'>0.32657E+02</wgt>
<wgt id='10005'>0.33105E+02</wgt>
<wgt id='10006'>0.32759E+02</wgt>
<wgt id='10007'>0.32855E+02</wgt>
<wgt id='10008'>0.32944E+02</wgt>
<wgt id='10009'>0.32790E+02</wgt>
<wgt id='10010'>0.32929E+02</wgt>
<wgt id='10011'>0.32805E+02</wgt>
<wgt id='10012'>0.32796E+02</wgt>
<wgt id='10013'>0.32879E+02</wgt>
<wgt id='10014'>0.32846E+02</wgt>
<wgt id='10015'>0.32909E+02</wgt>
<wgt id='10016'>0.32804E+02</wgt>
<wgt id='10017'>0.32688E+02</wgt>
<wgt id='10018'>0.32935E+02</wgt>
<wgt id='10019'>0.32792E+02</wgt>
<wgt id='10020'>0.32797E+02</wgt>
<wgt id='10021'>0.32841E+02</wgt>
<wgt id='10022'>0.32826E+02</wgt>
<wgt id='10023'>0.32887E+02</wgt>
<wgt id='10024'>0.32830E+02</wgt>
<wgt id='10025'>0.32846E+02</wgt>
<wgt id='10026'>0.32988E+02</wgt>
<wgt id='10027'>0.32949E+02</wgt>
<wgt id='10028'>0.33252E+02</wgt>
<wgt id='10029'>0.32902E+02</wgt>
<wgt id='10030'>0.32854E+02</wgt>
<wgt id='10031'>0.32106E+02</wgt>
<wgt id='10032'>0.33646E+02</wgt>
<wgt id='11000'>0.31051E+02</wgt>
<wgt id='11001'>0.30696E+02</wgt>
<wgt id='11002'>0.31074E+02</wgt>
<wgt id='11003'>0.31022E+02</wgt>
<wgt id='11004'>0.31053E+02</wgt>
<wgt id='11005'>0.30905E+02</wgt>
<wgt id='11006'>0.31061E+02</wgt>
<wgt id='11007'>0.31009E+02</wgt>
<wgt id='11008'>0.30987E+02</wgt>
<wgt id='11009'>0.30994E+02</wgt>
<wgt id='11010'>0.31336E+02</wgt>
<wgt id='11011'>0.30994E+02</wgt>
<wgt id='11012'>0.31050E+02</wgt>
<wgt id='11013'>0.31096E+02</wgt>
<wgt id='11014'>0.31020E+02</wgt>
<wgt id='11015'>0.31032E+02</wgt>
<wgt id='11016'>0.31045E+02</wgt>
<wgt id='11017'>0.31145E+02</wgt>
<wgt id='11018'>0.31042E+02</wgt>
<wgt id='11019'>0.31047E+02</wgt>
<wgt id='11020'>0.31089E+02</wgt>
<wgt id='11021'>0.31080E+02</wgt>
<wgt id='11022'>0.31251E+02</wgt>
<wgt id='11023'>0.31056E+02</wgt>
<wgt id='11024'>0.31071E+02</wgt>
<wgt id='11025'>0.31035E+02</wgt>
<wgt id='11026'>0.31055E+02</wgt>
<wgt id='11027'>0.31055E+02</wgt>
<wgt id='11028'>0.31071E+02</wgt>
<wgt id='11029'>0.31054E+02</wgt>
<wgt id='11030'>0.31046E+02</wgt>
<wgt id='11031'>0.30424E+02</wgt>
<wgt id='11032'>0.31745E+02</wgt>
<wgt id='12000'>0.33057E+02</wgt>
<wgt id='12001'>0.33016E+02</wgt>
<wgt id='12002'>0.33098E+02</wgt>
<wgt id='12003'>0.33136E+02</wgt>
<wgt id='12004'>0.32978E+02</wgt>
<wgt id='12005'>0.33094E+02</wgt>
<wgt id='12006'>0.33021E+02</wgt>
<wgt id='12007'>0.33134E+02</wgt>
<wgt id='12008'>0.32982E+02</wgt>
<wgt id='12009'>0.33074E+02</wgt>
<wgt id='12010'>0.33041E+02</wgt>
<wgt id='12011'>0.32901E+02</wgt>
<wgt id='12012'>0.33212E+02</wgt>
<wgt id='12013'>0.32966E+02</wgt>
<wgt id='12014'>0.33148E+02</wgt>
<wgt id='12015'>0.33129E+02</wgt>
<wgt id='12016'>0.32997E+02</wgt>
<wgt id='12017'>0.33168E+02</wgt>
<wgt id='12018'>0.32936E+02</wgt>
<wgt id='12019'>0.33075E+02</wgt>
<wgt id='12020'>0.33041E+02</wgt>
<wgt id='12021'>0.33138E+02</wgt>
<wgt id='12022'>0.32947E+02</wgt>
<wgt id='12023'>0.32806E+02</wgt>
<wgt id='12024'>0.33179E+02</wgt>
<wgt id='12025'>0.32974E+02</wgt>
<wgt id='12026'>0.33180E+02</wgt>
<wgt id='12027'>0.33300E+02</wgt>
<wgt id='12028'>0.32851E+02</wgt>
<wgt id='12050'>0.33057E+02</wgt>
<wgt id='12051'>0.33093E+02</wgt>
<wgt id='12052'>0.32980E+02</wgt>
<wgt id='12053'>0.33087E+02</wgt>
<wgt id='12054'>0.33007E+02</wgt>
<wgt id='12055'>0.33127E+02</wgt>
<wgt id='12056'>0.33163E+02</wgt>
<wgt id='12057'>0.32996E+02</wgt>
<wgt id='12058'>0.33129E+02</wgt>
<wgt id='12059'>0.33080E+02</wgt>
<wgt id='12060'>0.33051E+02</wgt>
<wgt id='12061'>0.32943E+02</wgt>
<wgt id='12062'>0.33126E+02</wgt>
<wgt id='12063'>0.32976E+02</wgt>
<wgt id='13000'>0.31703E+02</wgt>
<wgt id='13001'>0.31679E+02</wgt>
<wgt id='13002'>0.31722E+02</wgt>
<wgt id='13003'>0.31752E+02</wgt>
<wgt id='13004'>0.31650E+02</wgt>
<wgt id='13005'>0.31765E+02</wgt>
<wgt id='13006'>0.31637E+02</wgt>
<wgt id='13007'>0.31821E+02</wgt>
<wgt id='13008'>0.31583E+02</wgt>
<wgt id='13009'>0.31644E+02</wgt>
<wgt id='13010'>0.31758E+02</wgt>
<wgt id='13011'>0.31792E+02</wgt>
<wgt id='13012'>0.31611E+02</wgt>
<wgt id='13013'>0.31635E+02</wgt>
<wgt id='13014'>0.31767E+02</wgt>
<wgt id='13015'>0.31717E+02</wgt>
<wgt id='13016'>0.31702E+02</wgt>
<wgt id='13017'>0.31680E+02</wgt>
<wgt id='13018'>0.31718E+02</wgt>
<wgt id='13019'>0.31688E+02</wgt>
<wgt id='13020'>0.31713E+02</wgt>
<wgt id='13021'>0.31655E+02</wgt>
<wgt id='13022'>0.31710E+02</wgt>
<wgt id='13023'>0.31566E+02</wgt>
<wgt id='13024'>0.31833E+02</wgt>
<wgt id='13025'>0.31424E+02</wgt>
<wgt id='13026'>0.31909E+02</wgt>
<wgt id='13027'>0.31612E+02</wgt>
<wgt id='13028'>0.31825E+02</wgt>
<wgt id='13050'>0.31703E+02</wgt>
<wgt id='13051'>0.31731E+02</wgt>
<wgt id='13052'>0.31553E+02</wgt>
<wgt id='13053'>0.31715E+02</wgt>
<wgt id='13054'>0.31684E+02</wgt>
<wgt id='13055'>0.31308E+02</wgt>
<wgt id='13056'>0.31780E+02</wgt>
<wgt id='13057'>0.31632E+02</wgt>
<wgt id='13058'>0.31836E+02</wgt>
<wgt id='13059'>0.31657E+02</wgt>
<wgt id='13060'>0.31263E+02</wgt>
<wgt id='13061'>0.31626E+02</wgt>
<wgt id='13062'>0.31922E+02</wgt>
<wgt id='13063'>0.31789E+02</wgt>
<wgt id='14000'>0.32357E+02</wgt>
<wgt id='14001'>0.32352E+02</wgt>
<wgt id='14002'>0.32347E+02</wgt>
<wgt id='14003'>0.32342E+02</wgt>
<wgt id='14004'>0.32338E+02</wgt>
<wgt id='14005'>0.32333E+02</wgt>
<wgt id='14006'>0.32328E+02</wgt>
<wgt id='14007'>0.32323E+02</wgt>
<wgt id='14008'>0.32319E+02</wgt>
<wgt id='14009'>0.32314E+02</wgt>
<wgt id='14010'>0.32309E+02</wgt>
<wgt id='14011'>0.32304E+02</wgt>
<wgt id='14012'>0.32300E+02</wgt>
<wgt id='14013'>0.32295E+02</wgt>
<wgt id='14014'>0.32290E+02</wgt>
<wgt id='14015'>0.32285E+02</wgt>
<wgt id='14016'>0.32281E+02</wgt>
<wgt id='14017'>0.32276E+02</wgt>
<wgt id='14018'>0.32271E+02</wgt>
<wgt id='14019'>0.32267E+02</wgt>
<wgt id='14020'>0.32262E+02</wgt>
<wgt id='14021'>0.32257E+02</wgt>
<wgt id='14022'>0.32252E+02</wgt>
<wgt id='14023'>0.32248E+02</wgt>
<wgt id='14024'>0.32243E+02</wgt>
<wgt id='14025'>0.32238E+02</wgt>
<wgt id='14026'>0.32233E+02</wgt>
<wgt id='14027'>0.32229E+02</wgt>
<wgt id='14028'>0.32224E+02</wgt>
<wgt id='14029'>0.32219E+02</wgt>
<wgt id='14030'>0.32214E+02</wgt>
<wgt id='15000'>0.30586E+02</wgt>
<wgt id='15001'>0.30604E+02</wgt>
<wgt id='15002'>0.30605E+02</wgt>
<wgt id='15003'>0.30533E+02</wgt>
<wgt id='15004'>0.30610E+02</wgt>
<wgt id='15005'>0.30578E+02</wgt>
<wgt id='15006'>0.30688E+02</wgt>
<wgt id='15007'>0.30750E+02</wgt>
<wgt id='15008'>0.30661E+02</wgt>
<wgt id='15009'>0.30562E+02</wgt>
<wgt id='15010'>0.30510E+02</wgt>
<wgt id='15011'>0.30763E+02</wgt>
<wgt id='15012'>0.30516E+02</wgt>
<wgt id='15013'>0.30441E+02</wgt>
<wgt id='15014'>0.30557E+02</wgt>
<wgt id='15015'>0.30542E+02</wgt>
<wgt id='15016'>0.30812E+02</wgt>
<wgt id='15017'>0.30419E+02</wgt>
<wgt id='15018'>0.30570E+02</wgt>
<wgt id='15019'>0.30606E+02</wgt>
<wgt id='15020'>0.30813E+02</wgt>
<wgt id='15021'>0.30588E+02</wgt>
<wgt id='15022'>0.30644E+02</wgt>
<wgt id='15023'>0.30436E+02</wgt>
<wgt id='15024'>0.30496E+02</wgt>
<wgt id='15025'>0.30643E+02</wgt>
<wgt id='15026'>0.30579E+02</wgt>
<wgt id='15027'>0.30570E+02</wgt>
<wgt id='15028'>0.30624E+02</wgt>
<wgt id='15029'>0.30615E+02</wgt>
<wgt id='15030'>0.30617E+02</wgt>
<wgt id='15031'>0.30568E+02</wgt>
<wgt id='15032'>0.30606E+02</wgt>
<wgt id='15033'>0.30624E+02</wgt>
<wgt id='15034'>0.30588E+02</wgt>
<wgt id='15035'>0.30634E+02</wgt>
<wgt id='15036'>0.30596E+02</wgt>
<wgt id='15037'>0.30614E+02</wgt>
<wgt id='15038'>0.30599E+02</wgt>
<wgt id='15039'>0.30591E+02</wgt>
<wgt id='15040'>0.30553E+02</wgt>
<wgt id='15041'>0.30577E+02</wgt>
<wgt id='15042'>0.30588E+02</wgt>
<wgt id='15043'>0.30555E+02</wgt>
<wgt id='15044'>0.30592E+02</wgt>
<wgt id='15045'>0.30588E+02</wgt>
<wgt id='15046'>0.30546E+02</wgt>
<wgt id='15047'>0.30584E+02</wgt>
<wgt id='15048'>0.30598E+02</wgt>
<wgt id='15049'>0.30568E+02</wgt>
<wgt id='15050'>0.30588E+02</wgt>
<wgt id='15051'>0.30604E+02</wgt>
<wgt id='15052'>0.30603E+02</wgt>
<wgt id='15053'>0.30589E+02</wgt>
<wgt id='15054'>0.30572E+02</wgt>
<wgt id='15055'>0.30571E+02</wgt>
<wgt id='15056'>0.30607E+02</wgt>
<wgt id='15057'>0.30585E+02</wgt>
<wgt id='15058'>0.30560E+02</wgt>
<wgt id='15059'>0.30571E+02</wgt>
<wgt id='15060'>0.30574E+02</wgt>
<wgt id='15061'>0.30588E+02</wgt>
<wgt id='15062'>0.30590E+02</wgt>
<wgt id='15063'>0.30597E+02</wgt>
<wgt id='15064'>0.30582E+02</wgt>
<wgt id='15065'>0.30583E+02</wgt>
<wgt id='15066'>0.30586E+02</wgt>
<wgt id='15067'>0.30596E+02</wgt>
<wgt id='15068'>0.30590E+02</wgt>
<wgt id='15069'>0.30607E+02</wgt>
<wgt id='15070'>0.30580E+02</wgt>
<wgt id='15071'>0.30605E+02</wgt>
<wgt id='15072'>0.30607E+02</wgt>
<wgt id='15073'>0.30578E+02</wgt>
<wgt id='15074'>0.30590E+02</wgt>
<wgt id='15075'>0.30582E+02</wgt>
<wgt id='15076'>0.30584E+02</wgt>
<wgt id='15077'>0.30593E+02</wgt>
<wgt id='15078'>0.30589E+02</wgt>
<wgt id='15079'>0.30582E+02</wgt>
<wgt id='15080'>0.30609E+02</wgt>
<wgt id='15081'>0.30584E+02</wgt>
<wgt id='15082'>0.30594E+02</wgt>
<wgt id='15083'>0.30576E+02</wgt>
<wgt id='15084'>0.30575E+02</wgt>
<wgt id='15085'>0.30575E+02</wgt>
<wgt id='15086'>0.30591E+02</wgt>
<wgt id='15087'>0.30563E+02</wgt>
<wgt id='15088'>0.30576E+02</wgt>
<wgt id='15089'>0.30577E+02</wgt>
<wgt id='15090'>0.30591E+02</wgt>
<wgt id='15091'>0.30581E+02</wgt>
<wgt id='15092'>0.30584E+02</wgt>
<wgt id='15093'>0.30579E+02</wgt>
<wgt id='15094'>0.30582E+02</wgt>
<wgt id='15095'>0.30589E+02</wgt>
<wgt id='15096'>0.30579E+02</wgt>
<wgt id='15097'>0.30588E+02</wgt>
<wgt id='15098'>0.30585E+02</wgt>
<wgt id='15099'>0.30578E+02</wgt>
<wgt id='15100'>0.30585E+02</wgt>
<wgt id='15101'>0.30585E+02</wgt>
<wgt id='15102'>0.30583E+02</wgt>
<wgt id='15103'>0.30586E+02</wgt>
<wgt id='15104'>0.30586E+02</wgt>
<wgt id='15105'>0.30587E+02</wgt>
<wgt id='15106'>0.30586E+02</wgt>
<wgt id='15107'>0.30584E+02</wgt>
<wgt id='1500'>0.33151E+02</wgt>
<wgt id='1501'>0.31761E+02</wgt>
<wgt id='1502'>0.33077E+02</wgt>
<wgt id='1503'>0.33809E+02</wgt>
<wgt id='1504'>0.32414E+02</wgt>
<wgt id='1505'>0.31647E+02</wgt>
<wgt id='1506'>0.33830E+02</wgt>
<wgt id='1507'>0.33087E+02</wgt>
<wgt id='1508'>0.33128E+02</wgt>
<wgt id='1509'>0.33684E+02</wgt>
<wgt id='1510'>0.32957E+02</wgt>
<wgt id='1511'>0.32425E+02</wgt>
<wgt id='1512'>0.33554E+02</wgt>
<wgt id='1513'>0.33274E+02</wgt>
<wgt id='1514'>0.33405E+02</wgt>
<wgt id='1515'>0.33870E+02</wgt>
<wgt id='1516'>0.33317E+02</wgt>
<wgt id='1517'>0.33323E+02</wgt>
<wgt id='1518'>0.33065E+02</wgt>
<wgt id='1519'>0.33395E+02</wgt>
<wgt id='1520'>0.34035E+02</wgt>
<wgt id='1521'>0.33638E+02</wgt>
<wgt id='1522'>0.32982E+02</wgt>
<wgt id='1523'>0.34978E+02</wgt>
<wgt id='1524'>0.33330E+02</wgt>
<wgt id='1525'>0.32974E+02</wgt>
<wgt id='1526'>0.33037E+02</wgt>
<wgt id='1527'>0.32857E+02</wgt>
<wgt id='1528'>0.33050E+02</wgt>
<wgt id='1529'>0.33645E+02</wgt>
<wgt id='1530'>0.33998E+02</wgt>
<wgt id='1531'>0.33080E+02</wgt>
<wgt id='1532'>0.32616E+02</wgt>
<wgt id='1533'>0.32536E+02</wgt>
<wgt id='1534'>0.33362E+02</wgt>
<wgt id='1535'>0.33855E+02</wgt>
<wgt id='1536'>0.32744E+02</wgt>
<wgt id='1537'>0.33733E+02</wgt>
<wgt id='1538'>0.32727E+02</wgt>
<wgt id='1539'>0.32568E+02</wgt>
<wgt id='1540'>0.32917E+02</wgt>
<wgt id='1541'>0.33107E+02</wgt>
<wgt id='1542'>0.32978E+02</wgt>
<wgt id='1543'>0.33035E+02</wgt>
<wgt id='1544'>0.33356E+02</wgt>
<wgt id='1545'>0.33317E+02</wgt>
<wgt id='1546'>0.33545E+02</wgt>
<wgt id='1547'>0.32770E+02</wgt>
<wgt id='1548'>0.32979E+02</wgt>
<wgt id='1549'>0.32820E+02</wgt>
<wgt id='1550'>0.32846E+02</wgt>
<wgt id='1551'>0.33035E+02</wgt>
<wgt id='1552'>0.32805E+02</wgt>
<wgt id='1553'>0.33644E+02</wgt>
<wgt id='1554'>0.33055E+02</wgt>
<wgt id='1555'>0.32618E+02</wgt>
<wgt id='1556'>0.33086E+02</wgt>
<wgt id='1557'>0.33062E+02</wgt>
<wgt id='1558'>0.32855E+02</wgt>
<wgt id='1559'>0.34025E+02</wgt>
<wgt id='1560'>0.32906E+02</wgt>
<wgt id='1561'>0.32854E+02</wgt>
<wgt id='1562'>0.33556E+02</wgt>
<wgt id='1563'>0.32839E+02</wgt>
<wgt id='1564'>0.32893E+02</wgt>
<wgt id='1565'>0.32998E+02</wgt>
<wgt id='1566'>0.33302E+02</wgt>
<wgt id='1567'>0.35182E+02</wgt>
<wgt id='1568'>0.33024E+02</wgt>
<wgt id='1569'>0.32193E+02</wgt>
<wgt id='1570'>0.32621E+02</wgt>
<wgt id='1571'>0.32716E+02</wgt>
<wgt id='1572'>0.33558E+02</wgt>
<wgt id='1573'>0.31700E+02</wgt>
<wgt id='1574'>0.33876E+02</wgt>
<wgt id='1575'>0.32787E+02</wgt>
<wgt id='1576'>0.32986E+02</wgt>
<wgt id='1577'>0.33283E+02</wgt>
<wgt id='1578'>0.33617E+02</wgt>
<wgt id='1579'>0.32676E+02</wgt>
<wgt id='1580'>0.32961E+02</wgt>
<wgt id='1581'>0.33385E+02</wgt>
<wgt id='1582'>0.32425E+02</wgt>
<wgt id='1583'>0.33955E+02</wgt>
<wgt id='1584'>0.32879E+02</wgt>
<wgt id='1585'>0.32922E+02</wgt>
<wgt id='1586'>0.32966E+02</wgt>
<wgt id='1587'>0.33510E+02</wgt>
<wgt id='1588'>0.32942E+02</wgt>
<wgt id='1589'>0.34050E+02</wgt>
<wgt id='1590'>0.32976E+02</wgt>
<wgt id='1591'>0.32741E+02</wgt>
<wgt id='1592'>0.32717E+02</wgt>
<wgt id='1593'>0.33117E+02</wgt>
<wgt id='1594'>0.33954E+02</wgt>
<wgt id='1595'>0.33017E+02</wgt>
<wgt id='1596'>0.33294E+02</wgt>
<wgt id='1597'>0.32894E+02</wgt>
<wgt id='1598'>0.33216E+02</wgt>
<wgt id='1599'>0.33196E+02</wgt>
<wgt id='1600'>0.33707E+02</wgt>
<wgt id='1601'>0.32556E+02</wgt>
<wgt id='1602'>0.33536E+02</wgt>
<wgt id='1700'>0.31413E+02</wgt>
<wgt id='1800'>0.37688E+02</wgt>
<wgt id='1850'>0.46973E+02</wgt>
<wgt id='1900'>0.40477E+02</wgt>
<wgt id='1950'>0.47306E+02</wgt>
</rwgt>
</event>
<event>
      4   9999 -3.15120E+01  1.90591E+01 -1.00000E+00  1.65156E-01
      21    -1     0     0   502   501  0.000000000E+00  0.000000000E+00  1.884620468E+03  1.884620468E+03  0.000000000E+00  0.00000E+00  9.000E+00
      21    -1     0     0   511   502  0.000000000E+00  0.000000000E+00 -5.506457478E+00  5.506457478E+00  0.000000000E+00  0.00000E+00  9.000E+00
      25     1     1     2     0     0  1.424532298E+01 -1.266182506E+01  1.856842280E+03  1.860813430E+03  1.200004898E+02  0.00000E+00  9.000E+00
      21     1     1     2   511   501 -1.424532298E+01  1.266182506E+01  2.227173096E+01  2.931349588E+01  1.118282261E-06  0.00000E+00  9.000E+00
#rwgt            1           1  -133.61771515675289                2        1947           0
<rwgt>
<wgt id='1001'>-.31512E+02</wgt>
<wgt id='1002'>-.28599E+02</wgt>
<wgt id='1003'>-.35118E+02</wgt>
<wgt id='1004'>-.22877E+02</wgt>
<wgt id='1005'>-.20679E+02</wgt>
<wgt id='1006'>-.25611E+02</wgt>
<wgt id='1007'>-.44721E+02</wgt>
<wgt id='1008'>-.40737E+02</wgt>
<wgt id='1009'>-.49627E+02</wgt>
<wgt id='2000'>-.31512E+02</wgt>
<wgt id='2001'>-.31469E+02</wgt>
<wgt id='2002'>-.31550E+02</wgt>
<wgt id='2003'>-.31475E+02</wgt>
<wgt id='2004'>-.31666E+02</wgt>
<wgt id='2005'>-.31503E+02</wgt>
<wgt id='2006'>-.31433E+02</wgt>
<wgt id='2007'>-.31407E+02</wgt>
<wgt id='2008'>-.31287E+02</wgt>
<wgt id='2009'>-.31599E+02</wgt>
<wgt id='2010'>-.31429E+02</wgt>
<wgt id='2011'>-.31304E+02</wgt>
<wgt id='2012'>-.31454E+02</wgt>
<wgt id='2013'>-.31408E+02</wgt>
<wgt id='2014'>-.31522E+02</wgt>
<wgt id='2015'>-.31542E+02</wgt>
<wgt id='2016'>-.31596E+02</wgt>
<wgt id='2017'>-.31531E+02</wgt>
<wgt id='2018'>-.31538E+02</wgt>
<wgt id='2019'>-.31530E+02</wgt>
<wgt id='2020'>-.31636E+02</wgt>
<wgt id='2021'>-.31525E+02</wgt>
<wgt id='2022'>-.31684E+02</wgt>
<wgt id='2023'>-.31675E+02</wgt>
<wgt id='2024'>-.31446E+02</wgt>
<wgt id='2025'>-.31716E+02</wgt>
<wgt id='2026'>-.31681E+02</wgt>
<wgt id='2027'>-.31448E+02</wgt>
<wgt id='2028'>-.31408E+02</wgt>
<wgt id='2029'>-.31700E+02</wgt>
<wgt id='2030'>-.31523E+02</wgt>
<wgt id='2031'>-.31512E+02</wgt>
<wgt id='2032'>-.31442E+02</wgt>
<wgt id='2033'>-.31424E+02</wgt>
<wgt id='2034'>-.31448E+02</wgt>
<wgt id='2035'>-.31636E+02</wgt>
<wgt id='2036'>-.31640E+02</wgt>
<wgt id='2037'>-.31357E+02</wgt>
<wgt id='2038'>-.31367E+02</wgt>
<wgt id='2039'>-.31376E+02</wgt>
<wgt id='2040'>-.31667E+02</wgt>
<wgt id='2041'>-.31708E+02</wgt>
<wgt id='2042'>-.31717E+02</wgt>
<wgt id='2043'>-.30999E+02</wgt>
<wgt id='2044'>-.31363E+02</wgt>
<wgt id='2045'>-.31522E+02</wgt>
<wgt id='2046'>-.31856E+02</wgt>
<wgt id='2047'>-.31731E+02</wgt>
<wgt id='2048'>-.31317E+02</wgt>
<wgt id='2049'>-.31343E+02</wgt>
<wgt id='2050'>-.31750E+02</wgt>
<wgt id='2051'>-.31267E+02</wgt>
<wgt id='2052'>-.31374E+02</wgt>
<wgt id='2053'>-.31426E+02</wgt>
<wgt id='2054'>-.31539E+02</wgt>
<wgt id='2055'>-.31698E+02</wgt>
<wgt id='2056'>-.31424E+02</wgt>
<wgt id='2057'>-.31251E+02</wgt>
<wgt id='2058'>-.31498E+02</wgt>
<wgt id='2059'>-.31579E+02</wgt>
<wgt id='2060'>-.31585E+02</wgt>
<wgt id='2061'>-.31543E+02</wgt>
<wgt id='2062'>-.31549E+02</wgt>
<wgt id='2063'>-.31439E+02</wgt>
<wgt id='2064'>-.31446E+02</wgt>
<wgt id='2065'>-.31392E+02</wgt>
<wgt id='2066'>-.31488E+02</wgt>
<wgt id='2067'>-.31532E+02</wgt>
<wgt id='2068'>-.31511E+02</wgt>
<wgt id='2069'>-.31600E+02</wgt>
<wgt id='2070'>-.31503E+02</wgt>
<wgt id='2071'>-.31484E+02</wgt>
<wgt id='2072'>-.31492E+02</wgt>
<wgt id='2073'>-.31446E+02</wgt>
<wgt id='2074'>-.31507E+02</wgt>
<wgt id='2075'>-.31440E+02</wgt>
<wgt id='2076'>-.31645E+02</wgt>
<wgt id='2077'>-.31376E+02</wgt>
<wgt id='2078'>-.31507E+02</wgt>
<wgt id='2079'>-.31524E+02</wgt>
<wgt id='2080'>-.31589E+02</wgt>
<wgt id='2081'>-.31552E+02</wgt>
<wgt id='2082'>-.31571E+02</wgt>
<wgt id='2083'>-.31539E+02</wgt>
<wgt id='2084'>-.31519E+02</wgt>
<wgt id='2085'>-.31561E+02</wgt>
<wgt id='2086'>-.31508E+02</wgt>
<wgt id='2087'>-.31452E+02</wgt>
<wgt id='2088'>-.31552E+02</wgt>
<wgt id='2089'>-.31404E+02</wgt>
<wgt id='2090'>-.31534E+02</wgt>
<wgt id='2091'>-.31573E+02</wgt>
<wgt id='2092'>-.31531E+02</wgt>
<wgt id='2093'>-.31508E+02</wgt>
<wgt id='2094'>-.31551E+02</wgt>
<wgt id='2095'>-.31583E+02</wgt>
<wgt id='2096'>-.31477E+02</wgt>
<wgt id='2097'>-.31554E+02</wgt>
<wgt id='2098'>-.31482E+02</wgt>
<wgt id='2099'>-.31495E+02</wgt>
<wgt id='2100'>-.31533E+02</wgt>
<wgt id='2101'>-.29824E+02</wgt>
<wgt id='2102'>-.33292E+02</wgt>
<wgt id='2104'>-.24343E+02</wgt>
<wgt id='2105'>-.25795E+02</wgt>
<wgt id='2106'>-.27354E+02</wgt>
<wgt id='2107'>-.28530E+02</wgt>
<wgt id='2108'>-.30730E+02</wgt>
<wgt id='2109'>-.32375E+02</wgt>
<wgt id='2110'>-.34681E+02</wgt>
<wgt id='2111'>-.36679E+02</wgt>
<wgt id='3000'>-.34618E+02</wgt>
<wgt id='3001'>-.34620E+02</wgt>
<wgt id='3002'>-.34602E+02</wgt>
<wgt id='3003'>-.34700E+02</wgt>
<wgt id='3004'>-.34832E+02</wgt>
<wgt id='3005'>-.34719E+02</wgt>
<wgt id='3006'>-.34605E+02</wgt>
<wgt id='3007'>-.34742E+02</wgt>
<wgt id='3008'>-.34561E+02</wgt>
<wgt id='3009'>-.34733E+02</wgt>
<wgt id='3010'>-.34594E+02</wgt>
<wgt id='3011'>-.34550E+02</wgt>
<wgt id='3012'>-.34607E+02</wgt>
<wgt id='3013'>-.34770E+02</wgt>
<wgt id='3014'>-.34654E+02</wgt>
<wgt id='3015'>-.34465E+02</wgt>
<wgt id='3016'>-.34640E+02</wgt>
<wgt id='3017'>-.34623E+02</wgt>
<wgt id='3018'>-.34769E+02</wgt>
<wgt id='3019'>-.34603E+02</wgt>
<wgt id='3020'>-.34564E+02</wgt>
<wgt id='3021'>-.34472E+02</wgt>
<wgt id='3022'>-.34594E+02</wgt>
<wgt id='3023'>-.34549E+02</wgt>
<wgt id='3024'>-.34501E+02</wgt>
<wgt id='3025'>-.34689E+02</wgt>
<wgt id='3026'>-.34765E+02</wgt>
<wgt id='3027'>-.34650E+02</wgt>
<wgt id='3028'>-.34436E+02</wgt>
<wgt id='3029'>-.34521E+02</wgt>
<wgt id='3030'>-.34833E+02</wgt>
<wgt id='3031'>-.34657E+02</wgt>
<wgt id='3032'>-.34707E+02</wgt>
<wgt id='3033'>-.34764E+02</wgt>
<wgt id='3034'>-.34582E+02</wgt>
<wgt id='3035'>-.34776E+02</wgt>
<wgt id='3036'>-.34535E+02</wgt>
<wgt id='3037'>-.34680E+02</wgt>
<wgt id='3038'>-.34529E+02</wgt>
<wgt id='3039'>-.34485E+02</wgt>
<wgt id='3040'>-.34550E+02</wgt>
<wgt id='3041'>-.34642E+02</wgt>
<wgt id='3042'>-.34853E+02</wgt>
<wgt id='3043'>-.34932E+02</wgt>
<wgt id='3044'>-.34508E+02</wgt>
<wgt id='3045'>-.34448E+02</wgt>
<wgt id='3046'>-.34869E+02</wgt>
<wgt id='3047'>-.34822E+02</wgt>
<wgt id='3048'>-.34287E+02</wgt>
<wgt id='3049'>-.34630E+02</wgt>
<wgt id='3050'>-.34255E+02</wgt>
<wgt id='3051'>-.34949E+02</wgt>
<wgt id='3052'>-.34553E+02</wgt>
<wgt id='3053'>-.34493E+02</wgt>
<wgt id='3054'>-.34695E+02</wgt>
<wgt id='3055'>-.35040E+02</wgt>
<wgt id='3056'>-.34570E+02</wgt>
<wgt id='3057'>-.34665E+02</wgt>
<wgt id='3058'>-.34682E+02</wgt>
<wgt id='3059'>-.34479E+02</wgt>
<wgt id='3060'>-.34599E+02</wgt>
<wgt id='3061'>-.34569E+02</wgt>
<wgt id='3062'>-.34547E+02</wgt>
<wgt id='3063'>-.34610E+02</wgt>
<wgt id='3064'>-.34660E+02</wgt>
<wgt id='3065'>-.34581E+02</wgt>
<wgt id='3066'>-.34634E+02</wgt>
<wgt id='3067'>-.34689E+02</wgt>
<wgt id='3068'>-.34569E+02</wgt>
<wgt id='3069'>-.34543E+02</wgt>
<wgt id='3070'>-.34585E+02</wgt>
<wgt id='3071'>-.34673E+02</wgt>
<wgt id='3072'>-.34563E+02</wgt>
<wgt id='3073'>-.34572E+02</wgt>
<wgt id='3074'>-.34802E+02</wgt>
<wgt id='3075'>-.34554E+02</wgt>
<wgt id='3076'>-.34650E+02</wgt>
<wgt id='3077'>-.34761E+02</wgt>
<wgt id='3078'>-.34651E+02</wgt>
<wgt id='3079'>-.34493E+02</wgt>
<wgt id='3080'>-.34584E+02</wgt>
<wgt id='3081'>-.34599E+02</wgt>
<wgt id='3082'>-.34597E+02</wgt>
<wgt id='3083'>-.34506E+02</wgt>
<wgt id='3084'>-.34570E+02</wgt>
<wgt id='3085'>-.34730E+02</wgt>
<wgt id='3086'>-.34444E+02</wgt>
<wgt id='3087'>-.34561E+02</wgt>
<wgt id='3088'>-.34602E+02</wgt>
<wgt id='3089'>-.34601E+02</wgt>
<wgt id='3090'>-.34731E+02</wgt>
<wgt id='3091'>-.34727E+02</wgt>
<wgt id='3092'>-.34565E+02</wgt>
<wgt id='3093'>-.34600E+02</wgt>
<wgt id='3094'>-.34698E+02</wgt>
<wgt id='3095'>-.34577E+02</wgt>
<wgt id='3096'>-.34639E+02</wgt>
<wgt id='3097'>-.34632E+02</wgt>
<wgt id='3098'>-.34533E+02</wgt>
<wgt id='3099'>-.34592E+02</wgt>
<wgt id='3100'>-.34656E+02</wgt>
<wgt id='3101'>-.33253E+02</wgt>
<wgt id='3102'>-.36170E+02</wgt>
<wgt id='5000'>-.36447E+02</wgt>
<wgt id='5001'>-.36567E+02</wgt>
<wgt id='5002'>-.36720E+02</wgt>
<wgt id='5003'>-.36385E+02</wgt>
<wgt id='5004'>-.36812E+02</wgt>
<wgt id='5005'>-.36726E+02</wgt>
<wgt id='5006'>-.37258E+02</wgt>
<wgt id='5007'>-.36883E+02</wgt>
<wgt id='5008'>-.36544E+02</wgt>
<wgt id='5009'>-.36617E+02</wgt>
<wgt id='5010'>-.36308E+02</wgt>
<wgt id='5011'>-.37293E+02</wgt>
<wgt id='5012'>-.35681E+02</wgt>
<wgt id='5013'>-.37301E+02</wgt>
<wgt id='5014'>-.35988E+02</wgt>
<wgt id='5015'>-.35478E+02</wgt>
<wgt id='5016'>-.39238E+02</wgt>
<wgt id='5017'>-.35733E+02</wgt>
<wgt id='5018'>-.37171E+02</wgt>
<wgt id='5019'>-.36377E+02</wgt>
<wgt id='5020'>-.36391E+02</wgt>
<wgt id='5021'>-.35825E+02</wgt>
<wgt id='5022'>-.36845E+02</wgt>
<wgt id='5023'>-.36113E+02</wgt>
<wgt id='5024'>-.36846E+02</wgt>
<wgt id='5025'>-.36758E+02</wgt>
<wgt id='5026'>-.36193E+02</wgt>
<wgt id='5027'>-.35784E+02</wgt>
<wgt id='5028'>-.37596E+02</wgt>
<wgt id='5029'>-.38192E+02</wgt>
<wgt id='5030'>-.35404E+02</wgt>
<wgt id='5031'>-.37165E+02</wgt>
<wgt id='5032'>-.35426E+02</wgt>
<wgt id='5033'>-.36205E+02</wgt>
<wgt id='5034'>-.36703E+02</wgt>
<wgt id='5035'>-.36744E+02</wgt>
<wgt id='5036'>-.36138E+02</wgt>
<wgt id='5037'>-.35260E+02</wgt>
<wgt id='5038'>-.37834E+02</wgt>
<wgt id='5039'>-.37064E+02</wgt>
<wgt id='5040'>-.36122E+02</wgt>
<wgt id='5041'>-.37423E+02</wgt>
<wgt id='5042'>-.36197E+02</wgt>
<wgt id='5043'>-.35338E+02</wgt>
<wgt id='5044'>-.38319E+02</wgt>
<wgt id='5045'>-.36841E+02</wgt>
<wgt id='5046'>-.35842E+02</wgt>
<wgt id='5047'>-.36786E+02</wgt>
<wgt id='5048'>-.35336E+02</wgt>
<wgt id='5049'>-.36596E+02</wgt>
<wgt id='5050'>-.35954E+02</wgt>
<wgt id='5051'>-.36280E+02</wgt>
<wgt id='5052'>-.36470E+02</wgt>
<wgt id='5053'>-.35419E+02</wgt>
<wgt id='5054'>-.35979E+02</wgt>
<wgt id='5055'>-.36308E+02</wgt>
<wgt id='5056'>-.36804E+02</wgt>
<wgt id='5060'>-.34252E+02</wgt>
<wgt id='5070'>-.38926E+02</wgt>
<wgt id='4000'>-.36324E+02</wgt>
<wgt id='4001'>-.36252E+02</wgt>
<wgt id='4002'>-.36134E+02</wgt>
<wgt id='4003'>-.36549E+02</wgt>
<wgt id='4004'>-.36136E+02</wgt>
<wgt id='4005'>-.35525E+02</wgt>
<wgt id='4006'>-.36840E+02</wgt>
<wgt id='4007'>-.36491E+02</wgt>
<wgt id='4008'>-.35842E+02</wgt>
<wgt id='4009'>-.37843E+02</wgt>
<wgt id='4010'>-.35041E+02</wgt>
<wgt id='4011'>-.36736E+02</wgt>
<wgt id='4012'>-.35963E+02</wgt>
<wgt id='4013'>-.39085E+02</wgt>
<wgt id='4014'>-.34678E+02</wgt>
<wgt id='4015'>-.37466E+02</wgt>
<wgt id='4016'>-.35580E+02</wgt>
<wgt id='4017'>-.35615E+02</wgt>
<wgt id='4018'>-.37177E+02</wgt>
<wgt id='4019'>-.35189E+02</wgt>
<wgt id='4020'>-.37551E+02</wgt>
<wgt id='4021'>-.36146E+02</wgt>
<wgt id='4022'>-.36699E+02</wgt>
<wgt id='4023'>-.37234E+02</wgt>
<wgt id='4024'>-.35443E+02</wgt>
<wgt id='4025'>-.37031E+02</wgt>
<wgt id='4026'>-.35635E+02</wgt>
<wgt id='4027'>-.36898E+02</wgt>
<wgt id='4028'>-.35536E+02</wgt>
<wgt id='4029'>-.36935E+02</wgt>
<wgt id='4030'>-.36113E+02</wgt>
<wgt id='4031'>-.36314E+02</wgt>
<wgt id='4032'>-.36337E+02</wgt>
<wgt id='4033'>-.36304E+02</wgt>
<wgt id='4034'>-.36356E+02</wgt>
<wgt id='4035'>-.34842E+02</wgt>
<wgt id='4036'>-.37722E+02</wgt>
<wgt id='4037'>-.35143E+02</wgt>
<wgt id='4038'>-.38152E+02</wgt>
<wgt id='4039'>-.35789E+02</wgt>
<wgt id='4040'>-.36875E+02</wgt>
<wgt id='4041'>-.36464E+02</wgt>
<wgt id='4042'>-.36023E+02</wgt>
<wgt id='4043'>-.36229E+02</wgt>
<wgt id='4044'>-.36110E+02</wgt>
<wgt id='4045'>-.37520E+02</wgt>
<wgt id='4046'>-.36193E+02</wgt>
<wgt id='4047'>-.36253E+02</wgt>
<wgt id='4048'>-.37200E+02</wgt>
<wgt id='4049'>-.37117E+02</wgt>
<wgt id='4050'>-.36666E+02</wgt>
<wgt id='4051'>-.36558E+02</wgt>
<wgt id='4052'>-.36391E+02</wgt>
<wgt id='4053'>-.34862E+02</wgt>
<wgt id='4054'>-.37146E+02</wgt>
<wgt id='4055'>-.36018E+02</wgt>
<wgt id='4056'>-.36724E+02</wgt>
<wgt id='4060'>-.34459E+02</wgt>
<wgt id='4070'>-.38508E+02</wgt>
<wgt id='4080'>-.38731E+02</wgt>
<wgt id='6000'>-.34910E+02</wgt>
<wgt id='6001'>-.34895E+02</wgt>
<wgt id='6002'>-.34931E+02</wgt>
<wgt id='6003'>-.34927E+02</wgt>
<wgt id='6004'>-.34901E+02</wgt>
<wgt id='6005'>-.35179E+02</wgt>
<wgt id='6006'>-.34668E+02</wgt>
<wgt id='6007'>-.34819E+02</wgt>
<wgt id='6008'>-.35015E+02</wgt>
<wgt id='6009'>-.34876E+02</wgt>
<wgt id='6010'>-.34949E+02</wgt>
<wgt id='6011'>-.34904E+02</wgt>
<wgt id='6012'>-.34931E+02</wgt>
<wgt id='6013'>-.34924E+02</wgt>
<wgt id='6014'>-.34891E+02</wgt>
<wgt id='6015'>-.34920E+02</wgt>
<wgt id='6016'>-.34911E+02</wgt>
<wgt id='6017'>-.34816E+02</wgt>
<wgt id='6018'>-.35022E+02</wgt>
<wgt id='6019'>-.34934E+02</wgt>
<wgt id='6020'>-.34893E+02</wgt>
<wgt id='6021'>-.34808E+02</wgt>
<wgt id='6022'>-.35048E+02</wgt>
<wgt id='6023'>-.34672E+02</wgt>
<wgt id='6024'>-.35055E+02</wgt>
<wgt id='6025'>-.35456E+02</wgt>
<wgt id='6026'>-.34434E+02</wgt>
<wgt id='6027'>-.34849E+02</wgt>
<wgt id='6028'>-.34914E+02</wgt>
<wgt id='6029'>-.34354E+02</wgt>
<wgt id='6030'>-.35597E+02</wgt>
<wgt id='6031'>-.33903E+02</wgt>
<wgt id='6032'>-.36119E+02</wgt>
<wgt id='6033'>-.35295E+02</wgt>
<wgt id='6034'>-.34549E+02</wgt>
<wgt id='6035'>-.35094E+02</wgt>
<wgt id='6036'>-.34454E+02</wgt>
<wgt id='6037'>-.34898E+02</wgt>
<wgt id='6038'>-.34879E+02</wgt>
<wgt id='6039'>-.34701E+02</wgt>
<wgt id='6040'>-.35149E+02</wgt>
<wgt id='6041'>-.34316E+02</wgt>
<wgt id='6042'>-.35599E+02</wgt>
<wgt id='6043'>-.34980E+02</wgt>
<wgt id='6044'>-.34881E+02</wgt>
<wgt id='6045'>-.34811E+02</wgt>
<wgt id='6046'>-.35156E+02</wgt>
<wgt id='6047'>-.34610E+02</wgt>
<wgt id='6048'>-.35491E+02</wgt>
<wgt id='6049'>-.34651E+02</wgt>
<wgt id='6050'>-.35055E+02</wgt>
<wgt id='7000'>-.34939E+02</wgt>
<wgt id='7001'>-.34875E+02</wgt>
<wgt id='7002'>-.35014E+02</wgt>
<wgt id='7003'>-.35074E+02</wgt>
<wgt id='7004'>-.34803E+02</wgt>
<wgt id='7005'>-.35021E+02</wgt>
<wgt id='7006'>-.34903E+02</wgt>
<wgt id='7007'>-.34995E+02</wgt>
<wgt id='7008'>-.34876E+02</wgt>
<wgt id='7009'>-.34939E+02</wgt>
<wgt id='7010'>-.34936E+02</wgt>
<wgt id='7011'>-.35011E+02</wgt>
<wgt id='7012'>-.34906E+02</wgt>
<wgt id='7013'>-.34926E+02</wgt>
<wgt id='7014'>-.34948E+02</wgt>
<wgt id='7015'>-.34987E+02</wgt>
<wgt id='7016'>-.34884E+02</wgt>
<wgt id='7017'>-.34924E+02</wgt>
<wgt id='7018'>-.34947E+02</wgt>
<wgt id='7019'>-.34941E+02</wgt>
<wgt id='7020'>-.34928E+02</wgt>
<wgt id='7021'>-.34956E+02</wgt>
<wgt id='7022'>-.34926E+02</wgt>
<wgt id='7023'>-.35102E+02</wgt>
<wgt id='7024'>-.34796E+02</wgt>
<wgt id='7025'>-.34981E+02</wgt>
<wgt id='7026'>-.34812E+02</wgt>
<wgt id='7027'>-.34786E+02</wgt>
<wgt id='7028'>-.34979E+02</wgt>
<wgt id='7029'>-.35476E+02</wgt>
<wgt id='7030'>-.33642E+02</wgt>
<wgt id='7031'>-.34474E+02</wgt>
<wgt id='7032'>-.35932E+02</wgt>
<wgt id='7033'>-.35134E+02</wgt>
<wgt id='7034'>-.34558E+02</wgt>
<wgt id='7035'>-.34217E+02</wgt>
<wgt id='7036'>-.35265E+02</wgt>
<wgt id='7037'>-.34903E+02</wgt>
<wgt id='7038'>-.34973E+02</wgt>
<wgt id='7039'>-.34634E+02</wgt>
<wgt id='7040'>-.35173E+02</wgt>
<wgt id='7041'>-.35533E+02</wgt>
<wgt id='7042'>-.34049E+02</wgt>
<wgt id='7043'>-.34990E+02</wgt>
<wgt id='7044'>-.34635E+02</wgt>
<wgt id='7045'>-.35024E+02</wgt>
<wgt id='7046'>-.34801E+02</wgt>
<wgt id='7047'>-.34909E+02</wgt>
<wgt id='7048'>-.34941E+02</wgt>
<wgt id='7049'>-.35274E+02</wgt>
<wgt id='7050'>-.34604E+02</wgt>
<wgt id='7060'>-.48073E+02</wgt>
<wgt id='8000'>-.31170E+02</wgt>
<wgt id='8001'>-.31167E+02</wgt>
<wgt id='8002'>-.31177E+02</wgt>
<wgt id='8003'>-.31169E+02</wgt>
<wgt id='8004'>-.31170E+02</wgt>
<wgt id='8005'>-.31144E+02</wgt>
<wgt id='8006'>-.31242E+02</wgt>
<wgt id='8007'>-.31306E+02</wgt>
<wgt id='8008'>-.31232E+02</wgt>
<wgt id='8009'>-.31287E+02</wgt>
<wgt id='8010'>-.31105E+02</wgt>
<wgt id='8011'>-.31207E+02</wgt>
<wgt id='8012'>-.31017E+02</wgt>
<wgt id='8013'>-.31065E+02</wgt>
<wgt id='8014'>-.31303E+02</wgt>
<wgt id='8015'>-.31157E+02</wgt>
<wgt id='8016'>-.31245E+02</wgt>
<wgt id='8017'>-.31227E+02</wgt>
<wgt id='8018'>-.31381E+02</wgt>
<wgt id='8019'>-.30990E+02</wgt>
<wgt id='8020'>-.31488E+02</wgt>
<wgt id='8021'>-.31047E+02</wgt>
<wgt id='8022'>-.31740E+02</wgt>
<wgt id='8023'>-.30934E+02</wgt>
<wgt id='8024'>-.30712E+02</wgt>
<wgt id='8025'>-.30759E+02</wgt>
<wgt id='8026'>-.31103E+02</wgt>
<wgt id='8027'>-.31315E+02</wgt>
<wgt id='8028'>-.31149E+02</wgt>
<wgt id='8029'>-.32770E+02</wgt>
<wgt id='8500'>-.35897E+02</wgt>
<wgt id='8501'>-.35301E+02</wgt>
<wgt id='8502'>-.35995E+02</wgt>
<wgt id='8503'>-.36023E+02</wgt>
<wgt id='8504'>-.35661E+02</wgt>
<wgt id='8505'>-.35875E+02</wgt>
<wgt id='8506'>-.35942E+02</wgt>
<wgt id='8507'>-.35469E+02</wgt>
<wgt id='8508'>-.35063E+02</wgt>
<wgt id='8509'>-.36103E+02</wgt>
<wgt id='8510'>-.35405E+02</wgt>
<wgt id='8511'>-.35549E+02</wgt>
<wgt id='8512'>-.36392E+02</wgt>
<wgt id='8513'>-.36390E+02</wgt>
<wgt id='8514'>-.36082E+02</wgt>
<wgt id='8515'>-.36007E+02</wgt>
<wgt id='8516'>-.35761E+02</wgt>
<wgt id='8517'>-.36342E+02</wgt>
<wgt id='8518'>-.36090E+02</wgt>
<wgt id='8519'>-.36205E+02</wgt>
<wgt id='8520'>-.34717E+02</wgt>
<wgt id='8521'>-.35508E+02</wgt>
<wgt id='8522'>-.36711E+02</wgt>
<wgt id='8523'>-.35368E+02</wgt>
<wgt id='8524'>-.35854E+02</wgt>
<wgt id='8525'>-.36052E+02</wgt>
<wgt id='8526'>-.35729E+02</wgt>
<wgt id='8527'>-.35881E+02</wgt>
<wgt id='8528'>-.35797E+02</wgt>
<wgt id='8529'>-.35957E+02</wgt>
<wgt id='8530'>-.35931E+02</wgt>
<wgt id='8531'>-.35901E+02</wgt>
<wgt id='8532'>-.35849E+02</wgt>
<wgt id='8533'>-.35794E+02</wgt>
<wgt id='8534'>-.35894E+02</wgt>
<wgt id='8535'>-.35956E+02</wgt>
<wgt id='8536'>-.35685E+02</wgt>
<wgt id='8537'>-.35898E+02</wgt>
<wgt id='8538'>-.35880E+02</wgt>
<wgt id='8539'>-.35919E+02</wgt>
<wgt id='8540'>-.35966E+02</wgt>
<wgt id='8541'>-.35993E+02</wgt>
<wgt id='8542'>-.35895E+02</wgt>
<wgt id='8543'>-.35804E+02</wgt>
<wgt id='8544'>-.36001E+02</wgt>
<wgt id='8545'>-.35901E+02</wgt>
<wgt id='8546'>-.35968E+02</wgt>
<wgt id='8547'>-.35828E+02</wgt>
<wgt id='8548'>-.35840E+02</wgt>
<wgt id='8549'>-.35884E+02</wgt>
<wgt id='8550'>-.35900E+02</wgt>
<wgt id='8551'>-.35938E+02</wgt>
<wgt id='8552'>-.35822E+02</wgt>
<wgt id='8553'>-.35797E+02</wgt>
<wgt id='8554'>-.35877E+02</wgt>
<wgt id='8555'>-.35918E+02</wgt>
<wgt id='8556'>-.35871E+02</wgt>
<wgt id='8557'>-.35908E+02</wgt>
<wgt id='8558'>-.35941E+02</wgt>
<wgt id='8559'>-.35892E+02</wgt>
<wgt id='8560'>-.35884E+02</wgt>
<wgt id='8561'>-.35932E+02</wgt>
<wgt id='8562'>-.35897E+02</wgt>
<wgt id='8563'>-.35902E+02</wgt>
<wgt id='8564'>-.35898E+02</wgt>
<wgt id='8565'>-.35942E+02</wgt>
<wgt id='8566'>-.35960E+02</wgt>
<wgt id='8567'>-.35932E+02</wgt>
<wgt id='8568'>-.35933E+02</wgt>
<wgt id='8569'>-.35926E+02</wgt>
<wgt id='8570'>-.35873E+02</wgt>
<wgt id='8571'>-.35836E+02</wgt>
<wgt id='8572'>-.35877E+02</wgt>
<wgt id='8573'>-.35854E+02</wgt>
<wgt id='8574'>-.35859E+02</wgt>
<wgt id='8575'>-.35850E+02</wgt>
<wgt id='8576'>-.35902E+02</wgt>
<wgt id='8577'>-.35843E+02</wgt>
<wgt id='8578'>-.35903E+02</wgt>
<wgt id='8579'>-.35946E+02</wgt>
<wgt id='8580'>-.35870E+02</wgt>
<wgt id='8581'>-.35928E+02</wgt>
<wgt id='8582'>-.35886E+02</wgt>
<wgt id='8583'>-.35911E+02</wgt>
<wgt id='8584'>-.35954E+02</wgt>
<wgt id='8585'>-.35917E+02</wgt>
<wgt id='8586'>-.35975E+02</wgt>
<wgt id='8587'>-.35922E+02</wgt>
<wgt id='8588'>-.35912E+02</wgt>
<wgt id='8589'>-.35902E+02</wgt>
<wgt id='8590'>-.35893E+02</wgt>
<wgt id='8591'>-.35878E+02</wgt>
<wgt id='8592'>-.35879E+02</wgt>
<wgt id='8593'>-.35883E+02</wgt>
<wgt id='8594'>-.35884E+02</wgt>
<wgt id='8595'>-.35879E+02</wgt>
<wgt id='8596'>-.35887E+02</wgt>
<wgt id='8597'>-.35913E+02</wgt>
<wgt id='8598'>-.35902E+02</wgt>
<wgt id='8599'>-.35900E+02</wgt>
<wgt id='8600'>-.35895E+02</wgt>
<wgt id='8601'>-.34657E+02</wgt>
<wgt id='8602'>-.37350E+02</wgt>
<wgt id='9000'>-.35067E+02</wgt>
<wgt id='9001'>-.35318E+02</wgt>
<wgt id='9002'>-.34852E+02</wgt>
<wgt id='9003'>-.35409E+02</wgt>
<wgt id='9004'>-.35406E+02</wgt>
<wgt id='9005'>-.35560E+02</wgt>
<wgt id='9006'>-.35095E+02</wgt>
<wgt id='9007'>-.34464E+02</wgt>
<wgt id='9008'>-.34718E+02</wgt>
<wgt id='9009'>-.35353E+02</wgt>
<wgt id='9010'>-.35260E+02</wgt>
<wgt id='9011'>-.34851E+02</wgt>
<wgt id='9012'>-.35691E+02</wgt>
<wgt id='9013'>-.35854E+02</wgt>
<wgt id='9014'>-.35184E+02</wgt>
<wgt id='9015'>-.34454E+02</wgt>
<wgt id='9016'>-.34762E+02</wgt>
<wgt id='9017'>-.35216E+02</wgt>
<wgt id='9018'>-.35354E+02</wgt>
<wgt id='9019'>-.35398E+02</wgt>
<wgt id='9020'>-.34703E+02</wgt>
<wgt id='9021'>-.33918E+02</wgt>
<wgt id='9022'>-.35280E+02</wgt>
<wgt id='9023'>-.34229E+02</wgt>
<wgt id='9024'>-.34767E+02</wgt>
<wgt id='9025'>-.34970E+02</wgt>
<wgt id='9026'>-.34830E+02</wgt>
<wgt id='9027'>-.35189E+02</wgt>
<wgt id='9028'>-.35213E+02</wgt>
<wgt id='9029'>-.35180E+02</wgt>
<wgt id='9030'>-.35164E+02</wgt>
<wgt id='9031'>-.34992E+02</wgt>
<wgt id='9032'>-.35107E+02</wgt>
<wgt id='9033'>-.35152E+02</wgt>
<wgt id='9034'>-.35085E+02</wgt>
<wgt id='9035'>-.35149E+02</wgt>
<wgt id='9036'>-.35086E+02</wgt>
<wgt id='9037'>-.35144E+02</wgt>
<wgt id='9038'>-.35163E+02</wgt>
<wgt id='9039'>-.35095E+02</wgt>
<wgt id='9040'>-.34957E+02</wgt>
<wgt id='9041'>-.35090E+02</wgt>
<wgt id='9042'>-.35236E+02</wgt>
<wgt id='9043'>-.34993E+02</wgt>
<wgt id='9044'>-.35097E+02</wgt>
<wgt id='9045'>-.35129E+02</wgt>
<wgt id='9046'>-.34988E+02</wgt>
<wgt id='9047'>-.35073E+02</wgt>
<wgt id='9048'>-.35133E+02</wgt>
<wgt id='9049'>-.35055E+02</wgt>
<wgt id='9050'>-.35073E+02</wgt>
<wgt id='9051'>-.35111E+02</wgt>
<wgt id='9052'>-.35141E+02</wgt>
<wgt id='9053'>-.35095E+02</wgt>
<wgt id='9054'>-.35026E+02</wgt>
<wgt id='9055'>-.35068E+02</wgt>
<wgt id='9056'>-.35090E+02</wgt>
<wgt id='9057'>-.35066E+02</wgt>
<wgt id='9058'>-.35024E+02</wgt>
<wgt id='9059'>-.35049E+02</wgt>
<wgt id='9060'>-.35084E+02</wgt>
<wgt id='9061'>-.35047E+02</wgt>
<wgt id='9062'>-.35095E+02</wgt>
<wgt id='9063'>-.35076E+02</wgt>
<wgt id='9064'>-.35082E+02</wgt>
<wgt id='9065'>-.35037E+02</wgt>
<wgt id='9066'>-.35047E+02</wgt>
<wgt id='9067'>-.35034E+02</wgt>
<wgt id='9068'>-.35063E+02</wgt>
<wgt id='9069'>-.35120E+02</wgt>
<wgt id='9070'>-.35053E+02</wgt>
<wgt id='9071'>-.35076E+02</wgt>
<wgt id='9072'>-.35087E+02</wgt>
<wgt id='9073'>-.35067E+02</wgt>
<wgt id='9074'>-.35101E+02</wgt>
<wgt id='9075'>-.35088E+02</wgt>
<wgt id='9076'>-.35065E+02</wgt>
<wgt id='9077'>-.35085E+02</wgt>
<wgt id='9078'>-.35092E+02</wgt>
<wgt id='9079'>-.35041E+02</wgt>
<wgt id='9080'>-.35117E+02</wgt>
<wgt id='9081'>-.35071E+02</wgt>
<wgt id='9082'>-.35075E+02</wgt>
<wgt id='9083'>-.35059E+02</wgt>
<wgt id='9084'>-.35040E+02</wgt>
<wgt id='9085'>-.35027E+02</wgt>
<wgt id='9086'>-.35085E+02</wgt>
<wgt id='9087'>-.34999E+02</wgt>
<wgt id='9088'>-.35039E+02</wgt>
<wgt id='9089'>-.35044E+02</wgt>
<wgt id='9090'>-.35080E+02</wgt>
<wgt id='9091'>-.35053E+02</wgt>
<wgt id='9092'>-.35052E+02</wgt>
<wgt id='9093'>-.35042E+02</wgt>
<wgt id='9094'>-.35040E+02</wgt>
<wgt id='9095'>-.35062E+02</wgt>
<wgt id='9096'>-.35062E+02</wgt>
<wgt id='9097'>-.35079E+02</wgt>
<wgt id='9098'>-.35059E+02</wgt>
<wgt id='9099'>-.35053E+02</wgt>
<wgt id='9100'>-.35066E+02</wgt>
<wgt id='9101'>-.33600E+02</wgt>
<wgt id='9102'>-.36676E+02</wgt>
<wgt id='10000'>-.35895E+02</wgt>
<wgt id='10001'>-.35517E+02</wgt>
<wgt id='10002'>-.35296E+02</wgt>
<wgt id='10003'>-.35735E+02</wgt>
<wgt id='10004'>-.35530E+02</wgt>
<wgt id='10005'>-.35201E+02</wgt>
<wgt id='10006'>-.35072E+02</wgt>
<wgt id='10007'>-.35857E+02</wgt>
<wgt id='10008'>-.35511E+02</wgt>
<wgt id='10009'>-.35575E+02</wgt>
<wgt id='10010'>-.35779E+02</wgt>
<wgt id='10011'>-.35380E+02</wgt>
<wgt id='10012'>-.35634E+02</wgt>
<wgt id='10013'>-.36012E+02</wgt>
<wgt id='10014'>-.35910E+02</wgt>
<wgt id='10015'>-.36031E+02</wgt>
<wgt id='10016'>-.35932E+02</wgt>
<wgt id='10017'>-.36513E+02</wgt>
<wgt id='10018'>-.36019E+02</wgt>
<wgt id='10019'>-.34832E+02</wgt>
<wgt id='10020'>-.35997E+02</wgt>
<wgt id='10021'>-.35797E+02</wgt>
<wgt id='10022'>-.36713E+02</wgt>
<wgt id='10023'>-.35873E+02</wgt>
<wgt id='10024'>-.35836E+02</wgt>
<wgt id='10025'>-.35876E+02</wgt>
<wgt id='10026'>-.35787E+02</wgt>
<wgt id='10027'>-.35847E+02</wgt>
<wgt id='10028'>-.35749E+02</wgt>
<wgt id='10029'>-.35943E+02</wgt>
<wgt id='10030'>-.35916E+02</wgt>
<wgt id='10031'>-.34657E+02</wgt>
<wgt id='10032'>-.37350E+02</wgt>
<wgt id='11000'>-.35065E+02</wgt>
<wgt id='11001'>-.34775E+02</wgt>
<wgt id='11002'>-.34746E+02</wgt>
<wgt id='11003'>-.35195E+02</wgt>
<wgt id='11004'>-.34389E+02</wgt>
<wgt id='11005'>-.36492E+02</wgt>
<wgt id='11006'>-.35112E+02</wgt>
<wgt id='11007'>-.35217E+02</wgt>
<wgt id='11008'>-.35216E+02</wgt>
<wgt id='11009'>-.35219E+02</wgt>
<wgt id='11010'>-.34318E+02</wgt>
<wgt id='11011'>-.34975E+02</wgt>
<wgt id='11012'>-.34866E+02</wgt>
<wgt id='11013'>-.34991E+02</wgt>
<wgt id='11014'>-.34892E+02</wgt>
<wgt id='11015'>-.34627E+02</wgt>
<wgt id='11016'>-.35194E+02</wgt>
<wgt id='11017'>-.35317E+02</wgt>
<wgt id='11018'>-.35062E+02</wgt>
<wgt id='11019'>-.35292E+02</wgt>
<wgt id='11020'>-.35212E+02</wgt>
<wgt id='11021'>-.35216E+02</wgt>
<wgt id='11022'>-.34932E+02</wgt>
<wgt id='11023'>-.35176E+02</wgt>
<wgt id='11024'>-.34808E+02</wgt>
<wgt id='11025'>-.34928E+02</wgt>
<wgt id='11026'>-.35098E+02</wgt>
<wgt id='11027'>-.35344E+02</wgt>
<wgt id='11028'>-.34984E+02</wgt>
<wgt id='11029'>-.33993E+02</wgt>
<wgt id='11030'>-.35029E+02</wgt>
<wgt id='11031'>-.33600E+02</wgt>
<wgt id='11032'>-.36676E+02</wgt>
<wgt id='12000'>-.23997E+02</wgt>
<wgt id='12001'>-.23978E+02</wgt>
<wgt id='12002'>-.24015E+02</wgt>
<wgt id='12003'>-.23966E+02</wgt>
<wgt id='12004'>-.24028E+02</wgt>
<wgt id='12005'>-.23993E+02</wgt>
<wgt id='12006'>-.24000E+02</wgt>
<wgt id='12007'>-.24125E+02</wgt>
<wgt id='12008'>-.23871E+02</wgt>
<wgt id='12009'>-.23934E+02</wgt>
<wgt id='12010'>-.24062E+02</wgt>
<wgt id='12011'>-.23871E+02</wgt>
<wgt id='12012'>-.24147E+02</wgt>
<wgt id='12013'>-.24038E+02</wgt>
<wgt id='12014'>-.23958E+02</wgt>
<wgt id='12015'>-.24105E+02</wgt>
<wgt id='12016'>-.23845E+02</wgt>
<wgt id='12017'>-.24082E+02</wgt>
<wgt id='12018'>-.23974E+02</wgt>
<wgt id='12019'>-.24352E+02</wgt>
<wgt id='12020'>-.23641E+02</wgt>
<wgt id='12021'>-.24003E+02</wgt>
<wgt id='12022'>-.24016E+02</wgt>
<wgt id='12023'>-.23739E+02</wgt>
<wgt id='12024'>-.24357E+02</wgt>
<wgt id='12025'>-.23646E+02</wgt>
<wgt id='12026'>-.24331E+02</wgt>
<wgt id='12027'>-.24534E+02</wgt>
<wgt id='12028'>-.23543E+02</wgt>
<wgt id='12050'>-.23997E+02</wgt>
<wgt id='12051'>-.24154E+02</wgt>
<wgt id='12052'>-.23778E+02</wgt>
<wgt id='12053'>-.24161E+02</wgt>
<wgt id='12054'>-.23851E+02</wgt>
<wgt id='12055'>-.23426E+02</wgt>
<wgt id='12056'>-.25184E+02</wgt>
<wgt id='12057'>-.24093E+02</wgt>
<wgt id='12058'>-.23941E+02</wgt>
<wgt id='12059'>-.24317E+02</wgt>
<wgt id='12060'>-.23697E+02</wgt>
<wgt id='12061'>-.23927E+02</wgt>
<wgt id='12062'>-.23809E+02</wgt>
<wgt id='12063'>-.24527E+02</wgt>
<wgt id='13000'>-.29571E+02</wgt>
<wgt id='13001'>-.29537E+02</wgt>
<wgt id='13002'>-.29597E+02</wgt>
<wgt id='13003'>-.29512E+02</wgt>
<wgt id='13004'>-.29623E+02</wgt>
<wgt id='13005'>-.29554E+02</wgt>
<wgt id='13006'>-.29580E+02</wgt>
<wgt id='13007'>-.29743E+02</wgt>
<wgt id='13008'>-.29397E+02</wgt>
<wgt id='13009'>-.29384E+02</wgt>
<wgt id='13010'>-.29759E+02</wgt>
<wgt id='13011'>-.29683E+02</wgt>
<wgt id='13012'>-.29457E+02</wgt>
<wgt id='13013'>-.29608E+02</wgt>
<wgt id='13014'>-.29523E+02</wgt>
<wgt id='13015'>-.29655E+02</wgt>
<wgt id='13016'>-.29363E+02</wgt>
<wgt id='13017'>-.29457E+02</wgt>
<wgt id='13018'>-.29690E+02</wgt>
<wgt id='13019'>-.29889E+02</wgt>
<wgt id='13020'>-.29262E+02</wgt>
<wgt id='13021'>-.30505E+02</wgt>
<wgt id='13022'>-.28730E+02</wgt>
<wgt id='13023'>-.28902E+02</wgt>
<wgt id='13024'>-.30252E+02</wgt>
<wgt id='13025'>-.28762E+02</wgt>
<wgt id='13026'>-.30398E+02</wgt>
<wgt id='13027'>-.29201E+02</wgt>
<wgt id='13028'>-.29961E+02</wgt>
<wgt id='13050'>-.29571E+02</wgt>
<wgt id='13051'>-.29714E+02</wgt>
<wgt id='13052'>-.29187E+02</wgt>
<wgt id='13053'>-.29747E+02</wgt>
<wgt id='13054'>-.29497E+02</wgt>
<wgt id='13055'>-.27674E+02</wgt>
<wgt id='13056'>-.30757E+02</wgt>
<wgt id='13057'>-.29676E+02</wgt>
<wgt id='13058'>-.29480E+02</wgt>
<wgt id='13059'>-.30203E+02</wgt>
<wgt id='13060'>-.27282E+02</wgt>
<wgt id='13061'>-.29988E+02</wgt>
<wgt id='13062'>-.28991E+02</wgt>
<wgt id='13063'>-.30797E+02</wgt>
<wgt id='14000'>-.36228E+02</wgt>
<wgt id='14001'>-.36224E+02</wgt>
<wgt id='14002'>-.36219E+02</wgt>
<wgt id='14003'>-.36216E+02</wgt>
<wgt id='14004'>-.36212E+02</wgt>
<wgt id='14005'>-.36208E+02</wgt>
<wgt id='14006'>-.36204E+02</wgt>
<wgt id='14007'>-.36200E+02</wgt>
<wgt id='14008'>-.36196E+02</wgt>
<wgt id='14009'>-.36192E+02</wgt>
<wgt id='14010'>-.36189E+02</wgt>
<wgt id='14011'>-.36185E+02</wgt>
<wgt id='14012'>-.36181E+02</wgt>
<wgt id='14013'>-.36177E+02</wgt>
<wgt id='14014'>-.36173E+02</wgt>
<wgt id='14015'>-.36169E+02</wgt>
<wgt id='14016'>-.36165E+02</wgt>
<wgt id='14017'>-.36161E+02</wgt>
<wgt id='14018'>-.36157E+02</wgt>
<wgt id='14019'>-.36153E+02</wgt>
<wgt id='14020'>-.36150E+02</wgt>
<wgt id='14021'>-.36146E+02</wgt>
<wgt id='14022'>-.36142E+02</wgt>
<wgt id='14023'>-.36138E+02</wgt>
<wgt id='14024'>-.36134E+02</wgt>
<wgt id='14025'>-.36130E+02</wgt>
<wgt id='14026'>-.36126E+02</wgt>
<wgt id='14027'>-.36123E+02</wgt>
<wgt id='14028'>-.36119E+02</wgt>
<wgt id='14029'>-.36114E+02</wgt>
<wgt id='14030'>-.36111E+02</wgt>
<wgt id='15000'>-.34653E+02</wgt>
<wgt id='15001'>-.34899E+02</wgt>
<wgt id='15002'>-.34438E+02</wgt>
<wgt id='15003'>-.34992E+02</wgt>
<wgt id='15004'>-.34988E+02</wgt>
<wgt id='15005'>-.35141E+02</wgt>
<wgt id='15006'>-.34683E+02</wgt>
<wgt id='15007'>-.34057E+02</wgt>
<wgt id='15008'>-.34307E+02</wgt>
<wgt id='15009'>-.34937E+02</wgt>
<wgt id='15010'>-.34844E+02</wgt>
<wgt id='15011'>-.34443E+02</wgt>
<wgt id='15012'>-.35270E+02</wgt>
<wgt id='15013'>-.35432E+02</wgt>
<wgt id='15014'>-.34765E+02</wgt>
<wgt id='15015'>-.34040E+02</wgt>
<wgt id='15016'>-.34354E+02</wgt>
<wgt id='15017'>-.34799E+02</wgt>
<wgt id='15018'>-.34935E+02</wgt>
<wgt id='15019'>-.34981E+02</wgt>
<wgt id='15020'>-.34296E+02</wgt>
<wgt id='15021'>-.33514E+02</wgt>
<wgt id='15022'>-.34863E+02</wgt>
<wgt id='15023'>-.33825E+02</wgt>
<wgt id='15024'>-.34354E+02</wgt>
<wgt id='15025'>-.34554E+02</wgt>
<wgt id='15026'>-.34417E+02</wgt>
<wgt id='15027'>-.34774E+02</wgt>
<wgt id='15028'>-.34798E+02</wgt>
<wgt id='15029'>-.34763E+02</wgt>
<wgt id='15030'>-.34747E+02</wgt>
<wgt id='15031'>-.34580E+02</wgt>
<wgt id='15032'>-.34692E+02</wgt>
<wgt id='15033'>-.34736E+02</wgt>
<wgt id='15034'>-.34670E+02</wgt>
<wgt id='15035'>-.34733E+02</wgt>
<wgt id='15036'>-.34671E+02</wgt>
<wgt id='15037'>-.34729E+02</wgt>
<wgt id='15038'>-.34747E+02</wgt>
<wgt id='15039'>-.34680E+02</wgt>
<wgt id='15040'>-.34543E+02</wgt>
<wgt id='15041'>-.34673E+02</wgt>
<wgt id='15042'>-.34818E+02</wgt>
<wgt id='15043'>-.34581E+02</wgt>
<wgt id='15044'>-.34681E+02</wgt>
<wgt id='15045'>-.34713E+02</wgt>
<wgt id='15046'>-.34574E+02</wgt>
<wgt id='15047'>-.34657E+02</wgt>
<wgt id='15048'>-.34718E+02</wgt>
<wgt id='15049'>-.34639E+02</wgt>
<wgt id='15050'>-.34659E+02</wgt>
<wgt id='15051'>-.34696E+02</wgt>
<wgt id='15052'>-.34726E+02</wgt>
<wgt id='15053'>-.34681E+02</wgt>
<wgt id='15054'>-.34611E+02</wgt>
<wgt id='15055'>-.34653E+02</wgt>
<wgt id='15056'>-.34675E+02</wgt>
<wgt id='15057'>-.34651E+02</wgt>
<wgt id='15058'>-.34610E+02</wgt>
<wgt id='15059'>-.34635E+02</wgt>
<wgt id='15060'>-.34669E+02</wgt>
<wgt id='15061'>-.34632E+02</wgt>
<wgt id='15062'>-.34680E+02</wgt>
<wgt id='15063'>-.34661E+02</wgt>
<wgt id='15064'>-.34667E+02</wgt>
<wgt id='15065'>-.34623E+02</wgt>
<wgt id='15066'>-.34633E+02</wgt>
<wgt id='15067'>-.34619E+02</wgt>
<wgt id='15068'>-.34648E+02</wgt>
<wgt id='15069'>-.34705E+02</wgt>
<wgt id='15070'>-.34638E+02</wgt>
<wgt id='15071'>-.34662E+02</wgt>
<wgt id='15072'>-.34673E+02</wgt>
<wgt id='15073'>-.34651E+02</wgt>
<wgt id='15074'>-.34686E+02</wgt>
<wgt id='15075'>-.34674E+02</wgt>
<wgt id='15076'>-.34651E+02</wgt>
<wgt id='15077'>-.34671E+02</wgt>
<wgt id='15078'>-.34677E+02</wgt>
<wgt id='15079'>-.34627E+02</wgt>
<wgt id='15080'>-.34702E+02</wgt>
<wgt id='15081'>-.34656E+02</wgt>
<wgt id='15082'>-.34661E+02</wgt>
<wgt id='15083'>-.34645E+02</wgt>
<wgt id='15084'>-.34625E+02</wgt>
<wgt id='15085'>-.34613E+02</wgt>
<wgt id='15086'>-.34671E+02</wgt>
<wgt id='15087'>-.34586E+02</wgt>
<wgt id='15088'>-.34625E+02</wgt>
<wgt id='15089'>-.34629E+02</wgt>
<wgt id='15090'>-.34665E+02</wgt>
<wgt id='15091'>-.34638E+02</wgt>
<wgt id='15092'>-.34637E+02</wgt>
<wgt id='15093'>-.34628E+02</wgt>
<wgt id='15094'>-.34626E+02</wgt>
<wgt id='15095'>-.34647E+02</wgt>
<wgt id='15096'>-.34648E+02</wgt>
<wgt id='15097'>-.34664E+02</wgt>
<wgt id='15098'>-.34645E+02</wgt>
<wgt id='15099'>-.34640E+02</wgt>
<wgt id='15100'>-.34651E+02</wgt>
<wgt id='15101'>-.34652E+02</wgt>
<wgt id='15102'>-.34650E+02</wgt>
<wgt id='15103'>-.34653E+02</wgt>
<wgt id='15104'>-.34653E+02</wgt>
<wgt id='15105'>-.34654E+02</wgt>
<wgt id='15106'>-.34653E+02</wgt>
<wgt id='15107'>-.34651E+02</wgt>
<wgt id='1500'>-.36564E+02</wgt>
<wgt id='1501'>-.35570E+02</wgt>
<wgt id='1502'>-.36975E+02</wgt>
<wgt id='1503'>-.33006E+02</wgt>
<wgt id='1504'>-.36174E+02</wgt>
<wgt id='1505'>-.34516E+02</wgt>
<wgt id='1506'>-.38200E+02</wgt>
<wgt id='1507'>-.36886E+02</wgt>
<wgt id='1508'>-.37569E+02</wgt>
<wgt id='1509'>-.35992E+02</wgt>
<wgt id='1510'>-.31362E+02</wgt>
<wgt id='1511'>-.36729E+02</wgt>
<wgt id='1512'>-.36819E+02</wgt>
<wgt id='1513'>-.39324E+02</wgt>
<wgt id='1514'>-.37875E+02</wgt>
<wgt id='1515'>-.38902E+02</wgt>
<wgt id='1516'>-.36334E+02</wgt>
<wgt id='1517'>-.39581E+02</wgt>
<wgt id='1518'>-.37813E+02</wgt>
<wgt id='1519'>-.37011E+02</wgt>
<wgt id='1520'>-.35963E+02</wgt>
<wgt id='1521'>-.36931E+02</wgt>
<wgt id='1522'>-.33647E+02</wgt>
<wgt id='1523'>-.34866E+02</wgt>
<wgt id='1524'>-.31718E+02</wgt>
<wgt id='1525'>-.36691E+02</wgt>
<wgt id='1526'>-.37431E+02</wgt>
<wgt id='1527'>-.40463E+02</wgt>
<wgt id='1528'>-.38874E+02</wgt>
<wgt id='1529'>-.37420E+02</wgt>
<wgt id='1530'>-.35828E+02</wgt>
<wgt id='1531'>-.35469E+02</wgt>
<wgt id='1532'>-.36847E+02</wgt>
<wgt id='1533'>-.35967E+02</wgt>
<wgt id='1534'>-.35912E+02</wgt>
<wgt id='1535'>-.36245E+02</wgt>
<wgt id='1536'>-.36852E+02</wgt>
<wgt id='1537'>-.39532E+02</wgt>
<wgt id='1538'>-.36704E+02</wgt>
<wgt id='1539'>-.36122E+02</wgt>
<wgt id='1540'>-.35567E+02</wgt>
<wgt id='1541'>-.36195E+02</wgt>
<wgt id='1542'>-.37290E+02</wgt>
<wgt id='1543'>-.33352E+02</wgt>
<wgt id='1544'>-.33174E+02</wgt>
<wgt id='1545'>-.32820E+02</wgt>
<wgt id='1546'>-.34186E+02</wgt>
<wgt id='1547'>-.37585E+02</wgt>
<wgt id='1548'>-.37505E+02</wgt>
<wgt id='1549'>-.37379E+02</wgt>
<wgt id='1550'>-.36531E+02</wgt>
<wgt id='1551'>-.35205E+02</wgt>
<wgt id='1552'>-.34219E+02</wgt>
<wgt id='1553'>-.37310E+02</wgt>
<wgt id='1554'>-.38629E+02</wgt>
<wgt id='1555'>-.35979E+02</wgt>
<wgt id='1556'>-.37830E+02</wgt>
<wgt id='1557'>-.38032E+02</wgt>
<wgt id='1558'>-.36218E+02</wgt>
<wgt id='1559'>-.37086E+02</wgt>
<wgt id='1560'>-.36260E+02</wgt>
<wgt id='1561'>-.38408E+02</wgt>
<wgt id='1562'>-.34459E+02</wgt>
<wgt id='1563'>-.38181E+02</wgt>
<wgt id='1564'>-.37624E+02</wgt>
<wgt id='1565'>-.34179E+02</wgt>
<wgt id='1566'>-.36564E+02</wgt>
<wgt id='1567'>-.35734E+02</wgt>
<wgt id='1568'>-.37224E+02</wgt>
<wgt id='1569'>-.37204E+02</wgt>
<wgt id='1570'>-.37442E+02</wgt>
<wgt id='1571'>-.33971E+02</wgt>
<wgt id='1572'>-.37000E+02</wgt>
<wgt id='1573'>-.36823E+02</wgt>
<wgt id='1574'>-.38005E+02</wgt>
<wgt id='1575'>-.36893E+02</wgt>
<wgt id='1576'>-.33001E+02</wgt>
<wgt id='1577'>-.35422E+02</wgt>
<wgt id='1578'>-.39069E+02</wgt>
<wgt id='1579'>-.36608E+02</wgt>
<wgt id='1580'>-.37013E+02</wgt>
<wgt id='1581'>-.36223E+02</wgt>
<wgt id='1582'>-.36090E+02</wgt>
<wgt id='1583'>-.39713E+02</wgt>
<wgt id='1584'>-.36815E+02</wgt>
<wgt id='1585'>-.36094E+02</wgt>
<wgt id='1586'>-.36929E+02</wgt>
<wgt id='1587'>-.36111E+02</wgt>
<wgt id='1588'>-.37725E+02</wgt>
<wgt id='1589'>-.38372E+02</wgt>
<wgt id='1590'>-.35901E+02</wgt>
<wgt id='1591'>-.37158E+02</wgt>
<wgt id='1592'>-.35282E+02</wgt>
<wgt id='1593'>-.38559E+02</wgt>
<wgt id='1594'>-.36706E+02</wgt>
<wgt id='1595'>-.39781E+02</wgt>
<wgt id='1596'>-.36940E+02</wgt>
<wgt id='1597'>-.35730E+02</wgt>
<wgt id='1598'>-.34092E+02</wgt>
<wgt id='1599'>-.39093E+02</wgt>
<wgt id='1600'>-.37537E+02</wgt>
<wgt id='1601'>-.35445E+02</wgt>
<wgt id='1602'>-.37400E+02</wgt>
<wgt id='1700'>-.33780E+02</wgt>
<wgt id='1800'>-.28420E+02</wgt>
<wgt id='1850'>-.35473E+02</wgt>
<wgt id='1900'>-.31755E+02</wgt>
<wgt id='1950'>-.34812E+02</wgt>
</rwgt>
</event>
<event>
      4   9999  3.15120E+01  2.72045E+01 -1.00000E+00  1.53510E-01
      21    -1     0     0   502   501  0.000000000E+00  0.000000000E+00  1.081611461E+03  1.081611461E+03  0.000000000E+00  0.00000E+00  9.000E+00
       2    -1     0     0   501     0  0.000000000E+00  0.000000000E+00 -1.306504746E+01  1.306504746E+01  0.000000000E+00  0.00000E+00  9.000E+00
      25     1     1     2     0     0  2.313273480E+00  2.710592951E+01  1.058574861E+03  1.065702132E+03  1.200008910E+02  0.00000E+00  9.000E+00
       2     1     1     2   502     0 -2.313273480E+00 -2.710592951E+01  9.971552061E+00  2.897437660E+01  1.581489940E-06  0.00000E+00  9.000E+00
#rwgt            1           1   30.280702098107543                2        2117           0
<rwgt>
<wgt id='1001'>0.31512E+02</wgt>
<wgt id='1002'>0.29443E+02</wgt>
<wgt id='1003'>0.33381E+02</wgt>
<wgt id='1004'>0.28890E+02</wgt>
<wgt id='1005'>0.27435E+02</wgt>
<wgt id='1006'>0.30106E+02</wgt>
<wgt id='1007'>0.33784E+02</wgt>
<wgt id='1008'>0.30762E+02</wgt>
<wgt id='1009'>0.36693E+02</wgt>
<wgt id='2000'>0.31512E+02</wgt>
<wgt id='2001'>0.31519E+02</wgt>
<wgt id='2002'>0.31325E+02</wgt>
<wgt id='2003'>0.31270E+02</wgt>
<wgt id='2004'>0.31571E+02</wgt>
<wgt id='2005'>0.31645E+02</wgt>
<wgt id='2006'>0.31497E+02</wgt>
<wgt id='2007'>0.31715E+02</wgt>
<wgt id='2008'>0.31626E+02</wgt>
<wgt id='2009'>0.31482E+02</wgt>
<wgt id='2010'>0.31412E+02</wgt>
<wgt id='2011'>0.31458E+02</wgt>
<wgt id='2012'>0.31513E+02</wgt>
<wgt id='2013'>0.31376E+02</wgt>
<wgt id='2014'>0.31427E+02</wgt>
<wgt id='2015'>0.31474E+02</wgt>
<wgt id='2016'>0.31570E+02</wgt>
<wgt id='2017'>0.31490E+02</wgt>
<wgt id='2018'>0.31436E+02</wgt>
<wgt id='2019'>0.31543E+02</wgt>
<wgt id='2020'>0.31460E+02</wgt>
<wgt id='2021'>0.31566E+02</wgt>
<wgt id='2022'>0.31420E+02</wgt>
<wgt id='2023'>0.31549E+02</wgt>
<wgt id='2024'>0.31465E+02</wgt>
<wgt id='2025'>0.31444E+02</wgt>
<wgt id='2026'>0.31515E+02</wgt>
<wgt id='2027'>0.31447E+02</wgt>
<wgt id='2028'>0.31483E+02</wgt>
<wgt id='2029'>0.31777E+02</wgt>
<wgt id='2030'>0.31604E+02</wgt>
<wgt id='2031'>0.31500E+02</wgt>
<wgt id='2032'>0.31644E+02</wgt>
<wgt id='2033'>0.31581E+02</wgt>
<wgt id='2034'>0.31383E+02</wgt>
<wgt id='2035'>0.31496E+02</wgt>
<wgt id='2036'>0.31491E+02</wgt>
<wgt id='2037'>0.31415E+02</wgt>
<wgt id='2038'>0.31553E+02</wgt>
<wgt id='2039'>0.31689E+02</wgt>
<wgt id='2040'>0.31669E+02</wgt>
<wgt id='2041'>0.31553E+02</wgt>
<wgt id='2042'>0.31297E+02</wgt>
<wgt id='2043'>0.31496E+02</wgt>
<wgt id='2044'>0.31501E+02</wgt>
<wgt id='2045'>0.31488E+02</wgt>
<wgt id='2046'>0.31574E+02</wgt>
<wgt id='2047'>0.31606E+02</wgt>
<wgt id='2048'>0.31421E+02</wgt>
<wgt id='2049'>0.31475E+02</wgt>
<wgt id='2050'>0.31515E+02</wgt>
<wgt id='2051'>0.31565E+02</wgt>
<wgt id='2052'>0.31541E+02</wgt>
<wgt id='2053'>0.31563E+02</wgt>
<wgt id='2054'>0.31524E+02</wgt>
<wgt id='2055'>0.31500E+02</wgt>
<wgt id='2056'>0.31485E+02</wgt>
<wgt id='2057'>0.31527E+02</wgt>
<wgt id='2058'>0.31493E+02</wgt>
<wgt id='2059'>0.31477E+02</wgt>
<wgt id='2060'>0.31503E+02</wgt>
<wgt id='2061'>0.31460E+02</wgt>
<wgt id='2062'>0.31481E+02</wgt>
<wgt id='2063'>0.31565E+02</wgt>
<wgt id='2064'>0.31499E+02</wgt>
<wgt id='2065'>0.31569E+02</wgt>
<wgt id='2066'>0.31546E+02</wgt>
<wgt id='2067'>0.31511E+02</wgt>
<wgt id='2068'>0.31529E+02</wgt>
<wgt id='2069'>0.31541E+02</wgt>
<wgt id='2070'>0.31442E+02</wgt>
<wgt id='2071'>0.31484E+02</wgt>
<wgt id='2072'>0.31519E+02</wgt>
<wgt id='2073'>0.31478E+02</wgt>
<wgt id='2074'>0.31489E+02</wgt>
<wgt id='2075'>0.31501E+02</wgt>
<wgt id='2076'>0.31513E+02</wgt>
<wgt id='2077'>0.31462E+02</wgt>
<wgt id='2078'>0.31528E+02</wgt>
<wgt id='2079'>0.31522E+02</wgt>
<wgt id='2080'>0.31520E+02</wgt>
<wgt id='2081'>0.31527E+02</wgt>
<wgt id='2082'>0.31538E+02</wgt>
<wgt id='2083'>0.31510E+02</wgt>
<wgt id='2084'>0.31516E+02</wgt>
<wgt id='2085'>0.31505E+02</wgt>
<wgt id='2086'>0.31490E+02</wgt>
<wgt id='2087'>0.31504E+02</wgt>
<wgt id='2088'>0.31529E+02</wgt>
<wgt id='2089'>0.31515E+02</wgt>
<wgt id='2090'>0.31520E+02</wgt>
<wgt id='2091'>0.31527E+02</wgt>
<wgt id='2092'>0.31511E+02</wgt>
<wgt id='2093'>0.31510E+02</wgt>
<wgt id='2094'>0.31521E+02</wgt>
<wgt id='2095'>0.31513E+02</wgt>
<wgt id='2096'>0.31502E+02</wgt>
<wgt id='2097'>0.31525E+02</wgt>
<wgt id='2098'>0.31494E+02</wgt>
<wgt id='2099'>0.31512E+02</wgt>
<wgt id='2100'>0.31515E+02</wgt>
<wgt id='2101'>0.30892E+02</wgt>
<wgt id='2102'>0.32424E+02</wgt>
<wgt id='2104'>0.27424E+02</wgt>
<wgt id='2105'>0.28251E+02</wgt>
<wgt id='2106'>0.29055E+02</wgt>
<wgt id='2107'>0.29718E+02</wgt>
<wgt id='2108'>0.31016E+02</wgt>
<wgt id='2109'>0.32032E+02</wgt>
<wgt id='2110'>0.33391E+02</wgt>
<wgt id='2111'>0.34499E+02</wgt>
<wgt id='3000'>0.34293E+02</wgt>
<wgt id='3001'>0.34170E+02</wgt>
<wgt id='3002'>0.34485E+02</wgt>
<wgt id='3003'>0.34034E+02</wgt>
<wgt id='3004'>0.34323E+02</wgt>
<wgt id='3005'>0.34053E+02</wgt>
<wgt id='3006'>0.34172E+02</wgt>
<wgt id='3007'>0.34094E+02</wgt>
<wgt id='3008'>0.34318E+02</wgt>
<wgt id='3009'>0.34158E+02</wgt>
<wgt id='3010'>0.34219E+02</wgt>
<wgt id='3011'>0.34277E+02</wgt>
<wgt id='3012'>0.34279E+02</wgt>
<wgt id='3013'>0.34430E+02</wgt>
<wgt id='3014'>0.34224E+02</wgt>
<wgt id='3015'>0.34227E+02</wgt>
<wgt id='3016'>0.34339E+02</wgt>
<wgt id='3017'>0.34252E+02</wgt>
<wgt id='3018'>0.34328E+02</wgt>
<wgt id='3019'>0.34312E+02</wgt>
<wgt id='3020'>0.34341E+02</wgt>
<wgt id='3021'>0.34352E+02</wgt>
<wgt id='3022'>0.34253E+02</wgt>
<wgt id='3023'>0.34251E+02</wgt>
<wgt id='3024'>0.34284E+02</wgt>
<wgt id='3025'>0.34301E+02</wgt>
<wgt id='3026'>0.34265E+02</wgt>
<wgt id='3027'>0.34316E+02</wgt>
<wgt id='3028'>0.34252E+02</wgt>
<wgt id='3029'>0.34291E+02</wgt>
<wgt id='3030'>0.34444E+02</wgt>
<wgt id='3031'>0.34353E+02</wgt>
<wgt id='3032'>0.34214E+02</wgt>
<wgt id='3033'>0.34205E+02</wgt>
<wgt id='3034'>0.34293E+02</wgt>
<wgt id='3035'>0.34037E+02</wgt>
<wgt id='3036'>0.34297E+02</wgt>
<wgt id='3037'>0.34464E+02</wgt>
<wgt id='3038'>0.34305E+02</wgt>
<wgt id='3039'>0.34276E+02</wgt>
<wgt id='3040'>0.34479E+02</wgt>
<wgt id='3041'>0.34383E+02</wgt>
<wgt id='3042'>0.34191E+02</wgt>
<wgt id='3043'>0.34202E+02</wgt>
<wgt id='3044'>0.34266E+02</wgt>
<wgt id='3045'>0.34263E+02</wgt>
<wgt id='3046'>0.34439E+02</wgt>
<wgt id='3047'>0.34289E+02</wgt>
<wgt id='3048'>0.34311E+02</wgt>
<wgt id='3049'>0.34303E+02</wgt>
<wgt id='3050'>0.34182E+02</wgt>
<wgt id='3051'>0.34345E+02</wgt>
<wgt id='3052'>0.34226E+02</wgt>
<wgt id='3053'>0.34271E+02</wgt>
<wgt id='3054'>0.34318E+02</wgt>
<wgt id='3055'>0.34185E+02</wgt>
<wgt id='3056'>0.34260E+02</wgt>
<wgt id='3057'>0.34304E+02</wgt>
<wgt id='3058'>0.34249E+02</wgt>
<wgt id='3059'>0.34252E+02</wgt>
<wgt id='3060'>0.34347E+02</wgt>
<wgt id='3061'>0.34284E+02</wgt>
<wgt id='3062'>0.34350E+02</wgt>
<wgt id='3063'>0.34221E+02</wgt>
<wgt id='3064'>0.34298E+02</wgt>
<wgt id='3065'>0.34233E+02</wgt>
<wgt id='3066'>0.34309E+02</wgt>
<wgt id='3067'>0.34199E+02</wgt>
<wgt id='3068'>0.34314E+02</wgt>
<wgt id='3069'>0.34250E+02</wgt>
<wgt id='3070'>0.34274E+02</wgt>
<wgt id='3071'>0.34259E+02</wgt>
<wgt id='3072'>0.34329E+02</wgt>
<wgt id='3073'>0.34279E+02</wgt>
<wgt id='3074'>0.34351E+02</wgt>
<wgt id='3075'>0.34307E+02</wgt>
<wgt id='3076'>0.34304E+02</wgt>
<wgt id='3077'>0.34318E+02</wgt>
<wgt id='3078'>0.34323E+02</wgt>
<wgt id='3079'>0.34252E+02</wgt>
<wgt id='3080'>0.34261E+02</wgt>
<wgt id='3081'>0.34290E+02</wgt>
<wgt id='3082'>0.34287E+02</wgt>
<wgt id='3083'>0.34265E+02</wgt>
<wgt id='3084'>0.34285E+02</wgt>
<wgt id='3085'>0.34307E+02</wgt>
<wgt id='3086'>0.34279E+02</wgt>
<wgt id='3087'>0.34298E+02</wgt>
<wgt id='3088'>0.34285E+02</wgt>
<wgt id='3089'>0.34280E+02</wgt>
<wgt id='3090'>0.34315E+02</wgt>
<wgt id='3091'>0.34303E+02</wgt>
<wgt id='3092'>0.34286E+02</wgt>
<wgt id='3093'>0.34290E+02</wgt>
<wgt id='3094'>0.34304E+02</wgt>
<wgt id='3095'>0.34282E+02</wgt>
<wgt id='3096'>0.34292E+02</wgt>
<wgt id='3097'>0.34280E+02</wgt>
<wgt id='3098'>0.34272E+02</wgt>
<wgt id='3099'>0.34293E+02</wgt>
<wgt id='3100'>0.34303E+02</wgt>
<wgt id='3101'>0.33436E+02</wgt>
<wgt id='3102'>0.35326E+02</wgt>
<wgt id='5000'>0.34011E+02</wgt>
<wgt id='5001'>0.34051E+02</wgt>
<wgt id='5002'>0.34043E+02</wgt>
<wgt id='5003'>0.34055E+02</wgt>
<wgt id='5004'>0.34284E+02</wgt>
<wgt id='5005'>0.34958E+02</wgt>
<wgt id='5006'>0.34160E+02</wgt>
<wgt id='5007'>0.34047E+02</wgt>
<wgt id='5008'>0.34441E+02</wgt>
<wgt id='5009'>0.33869E+02</wgt>
<wgt id='5010'>0.34115E+02</wgt>
<wgt id='5011'>0.34540E+02</wgt>
<wgt id='5012'>0.33440E+02</wgt>
<wgt id='5013'>0.34976E+02</wgt>
<wgt id='5014'>0.32984E+02</wgt>
<wgt id='5015'>0.33563E+02</wgt>
<wgt id='5016'>0.35174E+02</wgt>
<wgt id='5017'>0.33879E+02</wgt>
<wgt id='5018'>0.34160E+02</wgt>
<wgt id='5019'>0.33377E+02</wgt>
<wgt id='5020'>0.34605E+02</wgt>
<wgt id='5021'>0.33733E+02</wgt>
<wgt id='5022'>0.34184E+02</wgt>
<wgt id='5023'>0.33674E+02</wgt>
<wgt id='5024'>0.34392E+02</wgt>
<wgt id='5025'>0.34054E+02</wgt>
<wgt id='5026'>0.33977E+02</wgt>
<wgt id='5027'>0.33825E+02</wgt>
<wgt id='5028'>0.34312E+02</wgt>
<wgt id='5029'>0.34639E+02</wgt>
<wgt id='5030'>0.33609E+02</wgt>
<wgt id='5031'>0.34234E+02</wgt>
<wgt id='5032'>0.33671E+02</wgt>
<wgt id='5033'>0.33685E+02</wgt>
<wgt id='5034'>0.34339E+02</wgt>
<wgt id='5035'>0.33602E+02</wgt>
<wgt id='5036'>0.34386E+02</wgt>
<wgt id='5037'>0.33642E+02</wgt>
<wgt id='5038'>0.34461E+02</wgt>
<wgt id='5039'>0.34480E+02</wgt>
<wgt id='5040'>0.33797E+02</wgt>
<wgt id='5041'>0.34239E+02</wgt>
<wgt id='5042'>0.34006E+02</wgt>
<wgt id='5043'>0.34017E+02</wgt>
<wgt id='5044'>0.34410E+02</wgt>
<wgt id='5045'>0.32807E+02</wgt>
<wgt id='5046'>0.34814E+02</wgt>
<wgt id='5047'>0.32825E+02</wgt>
<wgt id='5048'>0.34713E+02</wgt>
<wgt id='5049'>0.33914E+02</wgt>
<wgt id='5050'>0.34082E+02</wgt>
<wgt id='5051'>0.34034E+02</wgt>
<wgt id='5052'>0.33921E+02</wgt>
<wgt id='5053'>0.33157E+02</wgt>
<wgt id='5054'>0.33362E+02</wgt>
<wgt id='5055'>0.33973E+02</wgt>
<wgt id='5056'>0.34122E+02</wgt>
<wgt id='5060'>0.32824E+02</wgt>
<wgt id='5070'>0.35345E+02</wgt>
<wgt id='4000'>0.35953E+02</wgt>
<wgt id='4001'>0.35860E+02</wgt>
<wgt id='4002'>0.35982E+02</wgt>
<wgt id='4003'>0.35268E+02</wgt>
<wgt id='4004'>0.36729E+02</wgt>
<wgt id='4005'>0.36042E+02</wgt>
<wgt id='4006'>0.35867E+02</wgt>
<wgt id='4007'>0.35225E+02</wgt>
<wgt id='4008'>0.36587E+02</wgt>
<wgt id='4009'>0.36353E+02</wgt>
<wgt id='4010'>0.36008E+02</wgt>
<wgt id='4011'>0.35789E+02</wgt>
<wgt id='4012'>0.36056E+02</wgt>
<wgt id='4013'>0.36392E+02</wgt>
<wgt id='4014'>0.35701E+02</wgt>
<wgt id='4015'>0.36533E+02</wgt>
<wgt id='4016'>0.35612E+02</wgt>
<wgt id='4017'>0.35436E+02</wgt>
<wgt id='4018'>0.36573E+02</wgt>
<wgt id='4019'>0.35383E+02</wgt>
<wgt id='4020'>0.36533E+02</wgt>
<wgt id='4021'>0.35756E+02</wgt>
<wgt id='4022'>0.36327E+02</wgt>
<wgt id='4023'>0.36485E+02</wgt>
<wgt id='4024'>0.35406E+02</wgt>
<wgt id='4025'>0.35949E+02</wgt>
<wgt id='4026'>0.35966E+02</wgt>
<wgt id='4027'>0.36252E+02</wgt>
<wgt id='4028'>0.35529E+02</wgt>
<wgt id='4029'>0.36273E+02</wgt>
<wgt id='4030'>0.35840E+02</wgt>
<wgt id='4031'>0.35883E+02</wgt>
<wgt id='4032'>0.36046E+02</wgt>
<wgt id='4033'>0.36096E+02</wgt>
<wgt id='4034'>0.35655E+02</wgt>
<wgt id='4035'>0.35322E+02</wgt>
<wgt id='4036'>0.36520E+02</wgt>
<wgt id='4037'>0.35319E+02</wgt>
<wgt id='4038'>0.36845E+02</wgt>
<wgt id='4039'>0.35499E+02</wgt>
<wgt id='4040'>0.36330E+02</wgt>
<wgt id='4041'>0.35873E+02</wgt>
<wgt id='4042'>0.35932E+02</wgt>
<wgt id='4043'>0.34926E+02</wgt>
<wgt id='4044'>0.36521E+02</wgt>
<wgt id='4045'>0.37139E+02</wgt>
<wgt id='4046'>0.35685E+02</wgt>
<wgt id='4047'>0.36153E+02</wgt>
<wgt id='4048'>0.36446E+02</wgt>
<wgt id='4049'>0.36426E+02</wgt>
<wgt id='4050'>0.36685E+02</wgt>
<wgt id='4051'>0.36023E+02</wgt>
<wgt id='4052'>0.35935E+02</wgt>
<wgt id='4053'>0.34940E+02</wgt>
<wgt id='4054'>0.35307E+02</wgt>
<wgt id='4055'>0.36079E+02</wgt>
<wgt id='4056'>0.35888E+02</wgt>
<wgt id='4060'>0.34716E+02</wgt>
<wgt id='4070'>0.37343E+02</wgt>
<wgt id='4080'>0.49613E+02</wgt>
<wgt id='6000'>0.34810E+02</wgt>
<wgt id='6001'>0.34899E+02</wgt>
<wgt id='6002'>0.34714E+02</wgt>
<wgt id='6003'>0.34831E+02</wgt>
<wgt id='6004'>0.34795E+02</wgt>
<wgt id='6005'>0.34747E+02</wgt>
<wgt id='6006'>0.34866E+02</wgt>
<wgt id='6007'>0.34784E+02</wgt>
<wgt id='6008'>0.34838E+02</wgt>
<wgt id='6009'>0.35027E+02</wgt>
<wgt id='6010'>0.34597E+02</wgt>
<wgt id='6011'>0.34895E+02</wgt>
<wgt id='6012'>0.34622E+02</wgt>
<wgt id='6013'>0.34761E+02</wgt>
<wgt id='6014'>0.34897E+02</wgt>
<wgt id='6015'>0.34759E+02</wgt>
<wgt id='6016'>0.34838E+02</wgt>
<wgt id='6017'>0.34579E+02</wgt>
<wgt id='6018'>0.35081E+02</wgt>
<wgt id='6019'>0.34751E+02</wgt>
<wgt id='6020'>0.34861E+02</wgt>
<wgt id='6021'>0.34749E+02</wgt>
<wgt id='6022'>0.34893E+02</wgt>
<wgt id='6023'>0.34553E+02</wgt>
<wgt id='6024'>0.34994E+02</wgt>
<wgt id='6025'>0.35415E+02</wgt>
<wgt id='6026'>0.34029E+02</wgt>
<wgt id='6027'>0.34896E+02</wgt>
<wgt id='6028'>0.34822E+02</wgt>
<wgt id='6029'>0.34567E+02</wgt>
<wgt id='6030'>0.35096E+02</wgt>
<wgt id='6031'>0.34384E+02</wgt>
<wgt id='6032'>0.35277E+02</wgt>
<wgt id='6033'>0.35000E+02</wgt>
<wgt id='6034'>0.34619E+02</wgt>
<wgt id='6035'>0.34919E+02</wgt>
<wgt id='6036'>0.34624E+02</wgt>
<wgt id='6037'>0.34860E+02</wgt>
<wgt id='6038'>0.34835E+02</wgt>
<wgt id='6039'>0.34672E+02</wgt>
<wgt id='6040'>0.34965E+02</wgt>
<wgt id='6041'>0.34605E+02</wgt>
<wgt id='6042'>0.35061E+02</wgt>
<wgt id='6043'>0.35273E+02</wgt>
<wgt id='6044'>0.34770E+02</wgt>
<wgt id='6045'>0.34740E+02</wgt>
<wgt id='6046'>0.34973E+02</wgt>
<wgt id='6047'>0.34727E+02</wgt>
<wgt id='6048'>0.35272E+02</wgt>
<wgt id='6049'>0.34704E+02</wgt>
<wgt id='6050'>0.34890E+02</wgt>
<wgt id='7000'>0.32553E+02</wgt>
<wgt id='7001'>0.32647E+02</wgt>
<wgt id='7002'>0.32433E+02</wgt>
<wgt id='7003'>0.32585E+02</wgt>
<wgt id='7004'>0.32521E+02</wgt>
<wgt id='7005'>0.32572E+02</wgt>
<wgt id='7006'>0.32545E+02</wgt>
<wgt id='7007'>0.32466E+02</wgt>
<wgt id='7008'>0.32639E+02</wgt>
<wgt id='7009'>0.32651E+02</wgt>
<wgt id='7010'>0.32459E+02</wgt>
<wgt id='7011'>0.32163E+02</wgt>
<wgt id='7012'>0.32722E+02</wgt>
<wgt id='7013'>0.32539E+02</wgt>
<wgt id='7014'>0.32570E+02</wgt>
<wgt id='7015'>0.32442E+02</wgt>
<wgt id='7016'>0.32673E+02</wgt>
<wgt id='7017'>0.32076E+02</wgt>
<wgt id='7018'>0.32813E+02</wgt>
<wgt id='7019'>0.32524E+02</wgt>
<wgt id='7020'>0.32595E+02</wgt>
<wgt id='7021'>0.32595E+02</wgt>
<wgt id='7022'>0.32522E+02</wgt>
<wgt id='7023'>0.32372E+02</wgt>
<wgt id='7024'>0.32673E+02</wgt>
<wgt id='7025'>0.32556E+02</wgt>
<wgt id='7026'>0.32554E+02</wgt>
<wgt id='7027'>0.32599E+02</wgt>
<wgt id='7028'>0.32610E+02</wgt>
<wgt id='7029'>0.32772E+02</wgt>
<wgt id='7030'>0.31909E+02</wgt>
<wgt id='7031'>0.32382E+02</wgt>
<wgt id='7032'>0.32922E+02</wgt>
<wgt id='7033'>0.32636E+02</wgt>
<wgt id='7034'>0.32435E+02</wgt>
<wgt id='7035'>0.32284E+02</wgt>
<wgt id='7036'>0.32710E+02</wgt>
<wgt id='7037'>0.32550E+02</wgt>
<wgt id='7038'>0.32637E+02</wgt>
<wgt id='7039'>0.32387E+02</wgt>
<wgt id='7040'>0.32675E+02</wgt>
<wgt id='7041'>0.32782E+02</wgt>
<wgt id='7042'>0.32284E+02</wgt>
<wgt id='7043'>0.32575E+02</wgt>
<wgt id='7044'>0.32428E+02</wgt>
<wgt id='7045'>0.32662E+02</wgt>
<wgt id='7046'>0.32675E+02</wgt>
<wgt id='7047'>0.32631E+02</wgt>
<wgt id='7048'>0.32536E+02</wgt>
<wgt id='7049'>0.32795E+02</wgt>
<wgt id='7050'>0.32587E+02</wgt>
<wgt id='7060'>0.62068E+02</wgt>
<wgt id='8000'>0.32108E+02</wgt>
<wgt id='8001'>0.32100E+02</wgt>
<wgt id='8002'>0.32116E+02</wgt>
<wgt id='8003'>0.32108E+02</wgt>
<wgt id='8004'>0.32107E+02</wgt>
<wgt id='8005'>0.32033E+02</wgt>
<wgt id='8006'>0.32114E+02</wgt>
<wgt id='8007'>0.32101E+02</wgt>
<wgt id='8008'>0.32165E+02</wgt>
<wgt id='8009'>0.32226E+02</wgt>
<wgt id='8010'>0.32102E+02</wgt>
<wgt id='8011'>0.32102E+02</wgt>
<wgt id='8012'>0.32057E+02</wgt>
<wgt id='8013'>0.32077E+02</wgt>
<wgt id='8014'>0.32140E+02</wgt>
<wgt id='8015'>0.32071E+02</wgt>
<wgt id='8016'>0.32155E+02</wgt>
<wgt id='8017'>0.32168E+02</wgt>
<wgt id='8018'>0.32204E+02</wgt>
<wgt id='8019'>0.32000E+02</wgt>
<wgt id='8020'>0.32271E+02</wgt>
<wgt id='8021'>0.32044E+02</wgt>
<wgt id='8022'>0.32415E+02</wgt>
<wgt id='8023'>0.31960E+02</wgt>
<wgt id='8024'>0.31868E+02</wgt>
<wgt id='8025'>0.31898E+02</wgt>
<wgt id='8026'>0.32092E+02</wgt>
<wgt id='8027'>0.32154E+02</wgt>
<wgt id='8028'>0.32105E+02</wgt>
<wgt id='8029'>0.32813E+02</wgt>
<wgt id='8500'>0.35057E+02</wgt>
<wgt id='8501'>0.34795E+02</wgt>
<wgt id='8502'>0.34598E+02</wgt>
<wgt id='8503'>0.35097E+02</wgt>
<wgt id='8504'>0.35046E+02</wgt>
<wgt id='8505'>0.35336E+02</wgt>
<wgt id='8506'>0.34857E+02</wgt>
<wgt id='8507'>0.35257E+02</wgt>
<wgt id='8508'>0.35018E+02</wgt>
<wgt id='8509'>0.35076E+02</wgt>
<wgt id='8510'>0.34675E+02</wgt>
<wgt id='8511'>0.34866E+02</wgt>
<wgt id='8512'>0.35442E+02</wgt>
<wgt id='8513'>0.35160E+02</wgt>
<wgt id='8514'>0.35331E+02</wgt>
<wgt id='8515'>0.35123E+02</wgt>
<wgt id='8516'>0.35028E+02</wgt>
<wgt id='8517'>0.35349E+02</wgt>
<wgt id='8518'>0.34831E+02</wgt>
<wgt id='8519'>0.34786E+02</wgt>
<wgt id='8520'>0.34705E+02</wgt>
<wgt id='8521'>0.34638E+02</wgt>
<wgt id='8522'>0.35433E+02</wgt>
<wgt id='8523'>0.34791E+02</wgt>
<wgt id='8524'>0.35060E+02</wgt>
<wgt id='8525'>0.35096E+02</wgt>
<wgt id='8526'>0.35082E+02</wgt>
<wgt id='8527'>0.35097E+02</wgt>
<wgt id='8528'>0.34961E+02</wgt>
<wgt id='8529'>0.34923E+02</wgt>
<wgt id='8530'>0.35038E+02</wgt>
<wgt id='8531'>0.35057E+02</wgt>
<wgt id='8532'>0.35041E+02</wgt>
<wgt id='8533'>0.34951E+02</wgt>
<wgt id='8534'>0.35047E+02</wgt>
<wgt id='8535'>0.35205E+02</wgt>
<wgt id='8536'>0.35034E+02</wgt>
<wgt id='8537'>0.35064E+02</wgt>
<wgt id='8538'>0.35026E+02</wgt>
<wgt id='8539'>0.35069E+02</wgt>
<wgt id='8540'>0.35071E+02</wgt>
<wgt id='8541'>0.35082E+02</wgt>
<wgt id='8542'>0.35053E+02</wgt>
<wgt id='8543'>0.35014E+02</wgt>
<wgt id='8544'>0.35104E+02</wgt>
<wgt id='8545'>0.35059E+02</wgt>
<wgt id='8546'>0.35109E+02</wgt>
<wgt id='8547'>0.35032E+02</wgt>
<wgt id='8548'>0.35014E+02</wgt>
<wgt id='8549'>0.35059E+02</wgt>
<wgt id='8550'>0.35061E+02</wgt>
<wgt id='8551'>0.35046E+02</wgt>
<wgt id='8552'>0.35045E+02</wgt>
<wgt id='8553'>0.35019E+02</wgt>
<wgt id='8554'>0.35049E+02</wgt>
<wgt id='8555'>0.35050E+02</wgt>
<wgt id='8556'>0.35054E+02</wgt>
<wgt id='8557'>0.35048E+02</wgt>
<wgt id='8558'>0.35088E+02</wgt>
<wgt id='8559'>0.35032E+02</wgt>
<wgt id='8560'>0.35022E+02</wgt>
<wgt id='8561'>0.35069E+02</wgt>
<wgt id='8562'>0.35026E+02</wgt>
<wgt id='8563'>0.35064E+02</wgt>
<wgt id='8564'>0.35041E+02</wgt>
<wgt id='8565'>0.35055E+02</wgt>
<wgt id='8566'>0.35054E+02</wgt>
<wgt id='8567'>0.35061E+02</wgt>
<wgt id='8568'>0.35084E+02</wgt>
<wgt id='8569'>0.35075E+02</wgt>
<wgt id='8570'>0.35058E+02</wgt>
<wgt id='8571'>0.35036E+02</wgt>
<wgt id='8572'>0.35039E+02</wgt>
<wgt id='8573'>0.35023E+02</wgt>
<wgt id='8574'>0.35076E+02</wgt>
<wgt id='8575'>0.35057E+02</wgt>
<wgt id='8576'>0.35046E+02</wgt>
<wgt id='8577'>0.35046E+02</wgt>
<wgt id='8578'>0.35064E+02</wgt>
<wgt id='8579'>0.35079E+02</wgt>
<wgt id='8580'>0.35040E+02</wgt>
<wgt id='8581'>0.35081E+02</wgt>
<wgt id='8582'>0.35024E+02</wgt>
<wgt id='8583'>0.35087E+02</wgt>
<wgt id='8584'>0.35069E+02</wgt>
<wgt id='8585'>0.35077E+02</wgt>
<wgt id='8586'>0.35077E+02</wgt>
<wgt id='8587'>0.35061E+02</wgt>
<wgt id='8588'>0.35045E+02</wgt>
<wgt id='8589'>0.35060E+02</wgt>
<wgt id='8590'>0.35054E+02</wgt>
<wgt id='8591'>0.35048E+02</wgt>
<wgt id='8592'>0.35053E+02</wgt>
<wgt id='8593'>0.35040E+02</wgt>
<wgt id='8594'>0.35073E+02</wgt>
<wgt id='8595'>0.35061E+02</wgt>
<wgt id='8596'>0.35041E+02</wgt>
<wgt id='8597'>0.35068E+02</wgt>
<wgt id='8598'>0.35072E+02</wgt>
<wgt id='8599'>0.35060E+02</wgt>
<wgt id='8600'>0.35056E+02</wgt>
<wgt id='8601'>0.34255E+02</wgt>
<wgt id='8602'>0.35971E+02</wgt>
<wgt id='9000'>0.32934E+02</wgt>
<wgt id='9001'>0.33131E+02</wgt>
<wgt id='9002'>0.32632E+02</wgt>
<wgt id='9003'>0.33389E+02</wgt>
<wgt id='9004'>0.33148E+02</wgt>
<wgt id='9005'>0.32869E+02</wgt>
<wgt id='9006'>0.33317E+02</wgt>
<wgt id='9007'>0.33170E+02</wgt>
<wgt id='9008'>0.32974E+02</wgt>
<wgt id='9009'>0.33040E+02</wgt>
<wgt id='9010'>0.33122E+02</wgt>
<wgt id='9011'>0.32832E+02</wgt>
<wgt id='9012'>0.33012E+02</wgt>
<wgt id='9013'>0.33513E+02</wgt>
<wgt id='9014'>0.32927E+02</wgt>
<wgt id='9015'>0.32529E+02</wgt>
<wgt id='9016'>0.32692E+02</wgt>
<wgt id='9017'>0.32949E+02</wgt>
<wgt id='9018'>0.33211E+02</wgt>
<wgt id='9019'>0.33130E+02</wgt>
<wgt id='9020'>0.33208E+02</wgt>
<wgt id='9021'>0.32373E+02</wgt>
<wgt id='9022'>0.32978E+02</wgt>
<wgt id='9023'>0.32616E+02</wgt>
<wgt id='9024'>0.32759E+02</wgt>
<wgt id='9025'>0.33042E+02</wgt>
<wgt id='9026'>0.32856E+02</wgt>
<wgt id='9027'>0.32887E+02</wgt>
<wgt id='9028'>0.32969E+02</wgt>
<wgt id='9029'>0.33011E+02</wgt>
<wgt id='9030'>0.32911E+02</wgt>
<wgt id='9031'>0.32877E+02</wgt>
<wgt id='9032'>0.32999E+02</wgt>
<wgt id='9033'>0.32973E+02</wgt>
<wgt id='9034'>0.32974E+02</wgt>
<wgt id='9035'>0.32995E+02</wgt>
<wgt id='9036'>0.32972E+02</wgt>
<wgt id='9037'>0.32963E+02</wgt>
<wgt id='9038'>0.32970E+02</wgt>
<wgt id='9039'>0.32923E+02</wgt>
<wgt id='9040'>0.32900E+02</wgt>
<wgt id='9041'>0.32934E+02</wgt>
<wgt id='9042'>0.32899E+02</wgt>
<wgt id='9043'>0.32878E+02</wgt>
<wgt id='9044'>0.32934E+02</wgt>
<wgt id='9045'>0.32900E+02</wgt>
<wgt id='9046'>0.32892E+02</wgt>
<wgt id='9047'>0.32952E+02</wgt>
<wgt id='9048'>0.32954E+02</wgt>
<wgt id='9049'>0.32911E+02</wgt>
<wgt id='9050'>0.32933E+02</wgt>
<wgt id='9051'>0.32965E+02</wgt>
<wgt id='9052'>0.32972E+02</wgt>
<wgt id='9053'>0.32936E+02</wgt>
<wgt id='9054'>0.32920E+02</wgt>
<wgt id='9055'>0.32919E+02</wgt>
<wgt id='9056'>0.32957E+02</wgt>
<wgt id='9057'>0.32932E+02</wgt>
<wgt id='9058'>0.32891E+02</wgt>
<wgt id='9059'>0.32923E+02</wgt>
<wgt id='9060'>0.32932E+02</wgt>
<wgt id='9061'>0.32926E+02</wgt>
<wgt id='9062'>0.32941E+02</wgt>
<wgt id='9063'>0.32943E+02</wgt>
<wgt id='9064'>0.32942E+02</wgt>
<wgt id='9065'>0.32933E+02</wgt>
<wgt id='9066'>0.32932E+02</wgt>
<wgt id='9067'>0.32934E+02</wgt>
<wgt id='9068'>0.32930E+02</wgt>
<wgt id='9069'>0.32976E+02</wgt>
<wgt id='9070'>0.32918E+02</wgt>
<wgt id='9071'>0.32961E+02</wgt>
<wgt id='9072'>0.32961E+02</wgt>
<wgt id='9073'>0.32929E+02</wgt>
<wgt id='9074'>0.32941E+02</wgt>
<wgt id='9075'>0.32929E+02</wgt>
<wgt id='9076'>0.32947E+02</wgt>
<wgt id='9077'>0.32937E+02</wgt>
<wgt id='9078'>0.32948E+02</wgt>
<wgt id='9079'>0.32928E+02</wgt>
<wgt id='9080'>0.32966E+02</wgt>
<wgt id='9081'>0.32938E+02</wgt>
<wgt id='9082'>0.32950E+02</wgt>
<wgt id='9083'>0.32928E+02</wgt>
<wgt id='9084'>0.32926E+02</wgt>
<wgt id='9085'>0.32913E+02</wgt>
<wgt id='9086'>0.32932E+02</wgt>
<wgt id='9087'>0.32901E+02</wgt>
<wgt id='9088'>0.32922E+02</wgt>
<wgt id='9089'>0.32921E+02</wgt>
<wgt id='9090'>0.32941E+02</wgt>
<wgt id='9091'>0.32938E+02</wgt>
<wgt id='9092'>0.32925E+02</wgt>
<wgt id='9093'>0.32929E+02</wgt>
<wgt id='9094'>0.32932E+02</wgt>
<wgt id='9095'>0.32944E+02</wgt>
<wgt id='9096'>0.32926E+02</wgt>
<wgt id='9097'>0.32935E+02</wgt>
<wgt id='9098'>0.32933E+02</wgt>
<wgt id='9099'>0.32929E+02</wgt>
<wgt id='9100'>0.32931E+02</wgt>
<wgt id='9101'>0.32175E+02</wgt>
<wgt id='9102'>0.33805E+02</wgt>
<wgt id='10000'>0.35055E+02</wgt>
<wgt id='10001'>0.34838E+02</wgt>
<wgt id='10002'>0.34834E+02</wgt>
<wgt id='10003'>0.35045E+02</wgt>
<wgt id='10004'>0.35282E+02</wgt>
<wgt id='10005'>0.34488E+02</wgt>
<wgt id='10006'>0.34741E+02</wgt>
<wgt id='10007'>0.35006E+02</wgt>
<wgt id='10008'>0.34921E+02</wgt>
<wgt id='10009'>0.35055E+02</wgt>
<wgt id='10010'>0.34955E+02</wgt>
<wgt id='10011'>0.34949E+02</wgt>
<wgt id='10012'>0.34769E+02</wgt>
<wgt id='10013'>0.35072E+02</wgt>
<wgt id='10014'>0.35107E+02</wgt>
<wgt id='10015'>0.35233E+02</wgt>
<wgt id='10016'>0.35133E+02</wgt>
<wgt id='10017'>0.34686E+02</wgt>
<wgt id='10018'>0.35157E+02</wgt>
<wgt id='10019'>0.34266E+02</wgt>
<wgt id='10020'>0.35015E+02</wgt>
<wgt id='10021'>0.35024E+02</wgt>
<wgt id='10022'>0.35245E+02</wgt>
<wgt id='10023'>0.35097E+02</wgt>
<wgt id='10024'>0.35058E+02</wgt>
<wgt id='10025'>0.35035E+02</wgt>
<wgt id='10026'>0.35119E+02</wgt>
<wgt id='10027'>0.35078E+02</wgt>
<wgt id='10028'>0.35227E+02</wgt>
<wgt id='10029'>0.35041E+02</wgt>
<wgt id='10030'>0.35047E+02</wgt>
<wgt id='10031'>0.34255E+02</wgt>
<wgt id='10032'>0.35971E+02</wgt>
<wgt id='11000'>0.32932E+02</wgt>
<wgt id='11001'>0.32647E+02</wgt>
<wgt id='11002'>0.32617E+02</wgt>
<wgt id='11003'>0.32973E+02</wgt>
<wgt id='11004'>0.32264E+02</wgt>
<wgt id='11005'>0.33361E+02</wgt>
<wgt id='11006'>0.32963E+02</wgt>
<wgt id='11007'>0.33034E+02</wgt>
<wgt id='11008'>0.32919E+02</wgt>
<wgt id='11009'>0.33085E+02</wgt>
<wgt id='11010'>0.33330E+02</wgt>
<wgt id='11011'>0.32924E+02</wgt>
<wgt id='11012'>0.32823E+02</wgt>
<wgt id='11013'>0.32860E+02</wgt>
<wgt id='11014'>0.32913E+02</wgt>
<wgt id='11015'>0.32700E+02</wgt>
<wgt id='11016'>0.33015E+02</wgt>
<wgt id='11017'>0.32957E+02</wgt>
<wgt id='11018'>0.32953E+02</wgt>
<wgt id='11019'>0.33064E+02</wgt>
<wgt id='11020'>0.32925E+02</wgt>
<wgt id='11021'>0.32992E+02</wgt>
<wgt id='11022'>0.32598E+02</wgt>
<wgt id='11023'>0.32956E+02</wgt>
<wgt id='11024'>0.32677E+02</wgt>
<wgt id='11025'>0.32932E+02</wgt>
<wgt id='11026'>0.32926E+02</wgt>
<wgt id='11027'>0.33097E+02</wgt>
<wgt id='11028'>0.32857E+02</wgt>
<wgt id='11029'>0.32207E+02</wgt>
<wgt id='11030'>0.32922E+02</wgt>
<wgt id='11031'>0.32175E+02</wgt>
<wgt id='11032'>0.33805E+02</wgt>
<wgt id='12000'>0.29246E+02</wgt>
<wgt id='12001'>0.29218E+02</wgt>
<wgt id='12002'>0.29273E+02</wgt>
<wgt id='12003'>0.29315E+02</wgt>
<wgt id='12004'>0.29176E+02</wgt>
<wgt id='12005'>0.29239E+02</wgt>
<wgt id='12006'>0.29253E+02</wgt>
<wgt id='12007'>0.29265E+02</wgt>
<wgt id='12008'>0.29227E+02</wgt>
<wgt id='12009'>0.29226E+02</wgt>
<wgt id='12010'>0.29267E+02</wgt>
<wgt id='12011'>0.29065E+02</wgt>
<wgt id='12012'>0.29413E+02</wgt>
<wgt id='12013'>0.29229E+02</wgt>
<wgt id='12014'>0.29261E+02</wgt>
<wgt id='12015'>0.29466E+02</wgt>
<wgt id='12016'>0.29103E+02</wgt>
<wgt id='12017'>0.29317E+02</wgt>
<wgt id='12018'>0.29140E+02</wgt>
<wgt id='12019'>0.29533E+02</wgt>
<wgt id='12020'>0.28981E+02</wgt>
<wgt id='12021'>0.29231E+02</wgt>
<wgt id='12022'>0.29242E+02</wgt>
<wgt id='12023'>0.28866E+02</wgt>
<wgt id='12024'>0.29585E+02</wgt>
<wgt id='12025'>0.28876E+02</wgt>
<wgt id='12026'>0.29649E+02</wgt>
<wgt id='12027'>0.29760E+02</wgt>
<wgt id='12028'>0.28802E+02</wgt>
<wgt id='12050'>0.29246E+02</wgt>
<wgt id='12051'>0.29377E+02</wgt>
<wgt id='12052'>0.29042E+02</wgt>
<wgt id='12053'>0.29377E+02</wgt>
<wgt id='12054'>0.29111E+02</wgt>
<wgt id='12055'>0.28942E+02</wgt>
<wgt id='12056'>0.30176E+02</wgt>
<wgt id='12057'>0.29293E+02</wgt>
<wgt id='12058'>0.29233E+02</wgt>
<wgt id='12059'>0.29399E+02</wgt>
<wgt id='12060'>0.29117E+02</wgt>
<wgt id='12061'>0.29034E+02</wgt>
<wgt id='12062'>0.29339E+02</wgt>
<wgt id='12063'>0.29868E+02</wgt>
<wgt id='13000'>0.32550E+02</wgt>
<wgt id='13001'>0.32528E+02</wgt>
<wgt id='13002'>0.32565E+02</wgt>
<wgt id='13003'>0.32620E+02</wgt>
<wgt id='13004'>0.32473E+02</wgt>
<wgt id='13005'>0.32592E+02</wgt>
<wgt id='13006'>0.32501E+02</wgt>
<wgt id='13007'>0.32619E+02</wgt>
<wgt id='13008'>0.32474E+02</wgt>
<wgt id='13009'>0.32429E+02</wgt>
<wgt id='13010'>0.32663E+02</wgt>
<wgt id='13011'>0.32641E+02</wgt>
<wgt id='13012'>0.32454E+02</wgt>
<wgt id='13013'>0.32513E+02</wgt>
<wgt id='13014'>0.32583E+02</wgt>
<wgt id='13015'>0.32701E+02</wgt>
<wgt id='13016'>0.32485E+02</wgt>
<wgt id='13017'>0.32454E+02</wgt>
<wgt id='13018'>0.32636E+02</wgt>
<wgt id='13019'>0.32717E+02</wgt>
<wgt id='13020'>0.32375E+02</wgt>
<wgt id='13021'>0.33053E+02</wgt>
<wgt id='13022'>0.32037E+02</wgt>
<wgt id='13023'>0.32018E+02</wgt>
<wgt id='13024'>0.33082E+02</wgt>
<wgt id='13025'>0.31926E+02</wgt>
<wgt id='13026'>0.33116E+02</wgt>
<wgt id='13027'>0.32273E+02</wgt>
<wgt id='13028'>0.32861E+02</wgt>
<wgt id='13050'>0.32550E+02</wgt>
<wgt id='13051'>0.32621E+02</wgt>
<wgt id='13052'>0.32164E+02</wgt>
<wgt id='13053'>0.32624E+02</wgt>
<wgt id='13054'>0.32524E+02</wgt>
<wgt id='13055'>0.31152E+02</wgt>
<wgt id='13056'>0.33346E+02</wgt>
<wgt id='13057'>0.32561E+02</wgt>
<wgt id='13058'>0.32574E+02</wgt>
<wgt id='13059'>0.32698E+02</wgt>
<wgt id='13060'>0.30966E+02</wgt>
<wgt id='13061'>0.32660E+02</wgt>
<wgt id='13062'>0.32479E+02</wgt>
<wgt id='13063'>0.33356E+02</wgt>
<wgt id='14000'>0.35796E+02</wgt>
<wgt id='14001'>0.35791E+02</wgt>
<wgt id='14002'>0.35786E+02</wgt>
<wgt id='14003'>0.35781E+02</wgt>
<wgt id='14004'>0.35777E+02</wgt>
<wgt id='14005'>0.35772E+02</wgt>
<wgt id='14006'>0.35767E+02</wgt>
<wgt id='14007'>0.35762E+02</wgt>
<wgt id='14008'>0.35758E+02</wgt>
<wgt id='14009'>0.35753E+02</wgt>
<wgt id='14010'>0.35748E+02</wgt>
<wgt id='14011'>0.35743E+02</wgt>
<wgt id='14012'>0.35739E+02</wgt>
<wgt id='14013'>0.35734E+02</wgt>
<wgt id='14014'>0.35729E+02</wgt>
<wgt id='14015'>0.35724E+02</wgt>
<wgt id='14016'>0.35720E+02</wgt>
<wgt id='14017'>0.35715E+02</wgt>
<wgt id='14018'>0.35710E+02</wgt>
<wgt id='14019'>0.35705E+02</wgt>
<wgt id='14020'>0.35701E+02</wgt>
<wgt id='14021'>0.35696E+02</wgt>
<wgt id='14022'>0.35691E+02</wgt>
<wgt id='14023'>0.35687E+02</wgt>
<wgt id='14024'>0.35682E+02</wgt>
<wgt id='14025'>0.35677E+02</wgt>
<wgt id='14026'>0.35672E+02</wgt>
<wgt id='14027'>0.35668E+02</wgt>
<wgt id='14028'>0.35663E+02</wgt>
<wgt id='14029'>0.35658E+02</wgt>
<wgt id='14030'>0.35653E+02</wgt>
<wgt id='15000'>0.32564E+02</wgt>
<wgt id='15001'>0.32763E+02</wgt>
<wgt id='15002'>0.32267E+02</wgt>
<wgt id='15003'>0.33012E+02</wgt>
<wgt id='15004'>0.32776E+02</wgt>
<wgt id='15005'>0.32500E+02</wgt>
<wgt id='15006'>0.32938E+02</wgt>
<wgt id='15007'>0.32793E+02</wgt>
<wgt id='15008'>0.32602E+02</wgt>
<wgt id='15009'>0.32668E+02</wgt>
<wgt id='15010'>0.32749E+02</wgt>
<wgt id='15011'>0.32459E+02</wgt>
<wgt id='15012'>0.32638E+02</wgt>
<wgt id='15013'>0.33132E+02</wgt>
<wgt id='15014'>0.32557E+02</wgt>
<wgt id='15015'>0.32171E+02</wgt>
<wgt id='15016'>0.32320E+02</wgt>
<wgt id='15017'>0.32580E+02</wgt>
<wgt id='15018'>0.32839E+02</wgt>
<wgt id='15019'>0.32754E+02</wgt>
<wgt id='15020'>0.32830E+02</wgt>
<wgt id='15021'>0.32010E+02</wgt>
<wgt id='15022'>0.32609E+02</wgt>
<wgt id='15023'>0.32244E+02</wgt>
<wgt id='15024'>0.32392E+02</wgt>
<wgt id='15025'>0.32676E+02</wgt>
<wgt id='15026'>0.32490E+02</wgt>
<wgt id='15027'>0.32512E+02</wgt>
<wgt id='15028'>0.32597E+02</wgt>
<wgt id='15029'>0.32642E+02</wgt>
<wgt id='15030'>0.32543E+02</wgt>
<wgt id='15031'>0.32501E+02</wgt>
<wgt id='15032'>0.32629E+02</wgt>
<wgt id='15033'>0.32604E+02</wgt>
<wgt id='15034'>0.32603E+02</wgt>
<wgt id='15035'>0.32626E+02</wgt>
<wgt id='15036'>0.32601E+02</wgt>
<wgt id='15037'>0.32593E+02</wgt>
<wgt id='15038'>0.32600E+02</wgt>
<wgt id='15039'>0.32555E+02</wgt>
<wgt id='15040'>0.32529E+02</wgt>
<wgt id='15041'>0.32565E+02</wgt>
<wgt id='15042'>0.32530E+02</wgt>
<wgt id='15043'>0.32506E+02</wgt>
<wgt id='15044'>0.32564E+02</wgt>
<wgt id='15045'>0.32530E+02</wgt>
<wgt id='15046'>0.32520E+02</wgt>
<wgt id='15047'>0.32583E+02</wgt>
<wgt id='15048'>0.32583E+02</wgt>
<wgt id='15049'>0.32541E+02</wgt>
<wgt id='15050'>0.32562E+02</wgt>
<wgt id='15051'>0.32594E+02</wgt>
<wgt id='15052'>0.32601E+02</wgt>
<wgt id='15053'>0.32565E+02</wgt>
<wgt id='15054'>0.32549E+02</wgt>
<wgt id='15055'>0.32548E+02</wgt>
<wgt id='15056'>0.32588E+02</wgt>
<wgt id='15057'>0.32561E+02</wgt>
<wgt id='15058'>0.32520E+02</wgt>
<wgt id='15059'>0.32552E+02</wgt>
<wgt id='15060'>0.32561E+02</wgt>
<wgt id='15061'>0.32555E+02</wgt>
<wgt id='15062'>0.32571E+02</wgt>
<wgt id='15063'>0.32573E+02</wgt>
<wgt id='15064'>0.32571E+02</wgt>
<wgt id='15065'>0.32562E+02</wgt>
<wgt id='15066'>0.32562E+02</wgt>
<wgt id='15067'>0.32564E+02</wgt>
<wgt id='15068'>0.32559E+02</wgt>
<wgt id='15069'>0.32606E+02</wgt>
<wgt id='15070'>0.32548E+02</wgt>
<wgt id='15071'>0.32590E+02</wgt>
<wgt id='15072'>0.32590E+02</wgt>
<wgt id='15073'>0.32559E+02</wgt>
<wgt id='15074'>0.32570E+02</wgt>
<wgt id='15075'>0.32558E+02</wgt>
<wgt id='15076'>0.32576E+02</wgt>
<wgt id='15077'>0.32567E+02</wgt>
<wgt id='15078'>0.32577E+02</wgt>
<wgt id='15079'>0.32557E+02</wgt>
<wgt id='15080'>0.32596E+02</wgt>
<wgt id='15081'>0.32567E+02</wgt>
<wgt id='15082'>0.32579E+02</wgt>
<wgt id='15083'>0.32558E+02</wgt>
<wgt id='15084'>0.32556E+02</wgt>
<wgt id='15085'>0.32543E+02</wgt>
<wgt id='15086'>0.32561E+02</wgt>
<wgt id='15087'>0.32531E+02</wgt>
<wgt id='15088'>0.32552E+02</wgt>
<wgt id='15089'>0.32551E+02</wgt>
<wgt id='15090'>0.32571E+02</wgt>
<wgt id='15091'>0.32568E+02</wgt>
<wgt id='15092'>0.32555E+02</wgt>
<wgt id='15093'>0.32558E+02</wgt>
<wgt id='15094'>0.32562E+02</wgt>
<wgt id='15095'>0.32573E+02</wgt>
<wgt id='15096'>0.32556E+02</wgt>
<wgt id='15097'>0.32565E+02</wgt>
<wgt id='15098'>0.32563E+02</wgt>
<wgt id='15099'>0.32558E+02</wgt>
<wgt id='15100'>0.32561E+02</wgt>
<wgt id='15101'>0.32563E+02</wgt>
<wgt id='15102'>0.32561E+02</wgt>
<wgt id='15103'>0.32564E+02</wgt>
<wgt id='15104'>0.32564E+02</wgt>
<wgt id='15105'>0.32565E+02</wgt>
<wgt id='15106'>0.32564E+02</wgt>
<wgt id='15107'>0.32562E+02</wgt>
<wgt id='1500'>0.34471E+02</wgt>
<wgt id='1501'>0.32834E+02</wgt>
<wgt id='1502'>0.34664E+02</wgt>
<wgt id='1503'>0.35248E+02</wgt>
<wgt id='1504'>0.32680E+02</wgt>
<wgt id='1505'>0.33165E+02</wgt>
<wgt id='1506'>0.34251E+02</wgt>
<wgt id='1507'>0.34194E+02</wgt>
<wgt id='1508'>0.34952E+02</wgt>
<wgt id='1509'>0.33860E+02</wgt>
<wgt id='1510'>0.36109E+02</wgt>
<wgt id='1511'>0.35580E+02</wgt>
<wgt id='1512'>0.33834E+02</wgt>
<wgt id='1513'>0.35042E+02</wgt>
<wgt id='1514'>0.37263E+02</wgt>
<wgt id='1515'>0.34587E+02</wgt>
<wgt id='1516'>0.34281E+02</wgt>
<wgt id='1517'>0.36471E+02</wgt>
<wgt id='1518'>0.34622E+02</wgt>
<wgt id='1519'>0.33882E+02</wgt>
<wgt id='1520'>0.33576E+02</wgt>
<wgt id='1521'>0.34157E+02</wgt>
<wgt id='1522'>0.34310E+02</wgt>
<wgt id='1523'>0.34079E+02</wgt>
<wgt id='1524'>0.33766E+02</wgt>
<wgt id='1525'>0.34381E+02</wgt>
<wgt id='1526'>0.32901E+02</wgt>
<wgt id='1527'>0.35999E+02</wgt>
<wgt id='1528'>0.35596E+02</wgt>
<wgt id='1529'>0.34833E+02</wgt>
<wgt id='1530'>0.33315E+02</wgt>
<wgt id='1531'>0.34190E+02</wgt>
<wgt id='1532'>0.34793E+02</wgt>
<wgt id='1533'>0.34078E+02</wgt>
<wgt id='1534'>0.32905E+02</wgt>
<wgt id='1535'>0.36284E+02</wgt>
<wgt id='1536'>0.34116E+02</wgt>
<wgt id='1537'>0.35182E+02</wgt>
<wgt id='1538'>0.34323E+02</wgt>
<wgt id='1539'>0.33376E+02</wgt>
<wgt id='1540'>0.34129E+02</wgt>
<wgt id='1541'>0.33915E+02</wgt>
<wgt id='1542'>0.33273E+02</wgt>
<wgt id='1543'>0.33425E+02</wgt>
<wgt id='1544'>0.34427E+02</wgt>
<wgt id='1545'>0.35619E+02</wgt>
<wgt id='1546'>0.33573E+02</wgt>
<wgt id='1547'>0.34706E+02</wgt>
<wgt id='1548'>0.34672E+02</wgt>
<wgt id='1549'>0.35245E+02</wgt>
<wgt id='1550'>0.34606E+02</wgt>
<wgt id='1551'>0.34248E+02</wgt>
<wgt id='1552'>0.34229E+02</wgt>
<wgt id='1553'>0.33111E+02</wgt>
<wgt id='1554'>0.34378E+02</wgt>
<wgt id='1555'>0.34630E+02</wgt>
<wgt id='1556'>0.35868E+02</wgt>
<wgt id='1557'>0.34002E+02</wgt>
<wgt id='1558'>0.35161E+02</wgt>
<wgt id='1559'>0.34493E+02</wgt>
<wgt id='1560'>0.34391E+02</wgt>
<wgt id='1561'>0.34662E+02</wgt>
<wgt id='1562'>0.34535E+02</wgt>
<wgt id='1563'>0.34064E+02</wgt>
<wgt id='1564'>0.35872E+02</wgt>
<wgt id='1565'>0.33668E+02</wgt>
<wgt id='1566'>0.34584E+02</wgt>
<wgt id='1567'>0.34528E+02</wgt>
<wgt id='1568'>0.35026E+02</wgt>
<wgt id='1569'>0.34416E+02</wgt>
<wgt id='1570'>0.34862E+02</wgt>
<wgt id='1571'>0.33478E+02</wgt>
<wgt id='1572'>0.33918E+02</wgt>
<wgt id='1573'>0.34130E+02</wgt>
<wgt id='1574'>0.34002E+02</wgt>
<wgt id='1575'>0.34824E+02</wgt>
<wgt id='1576'>0.33992E+02</wgt>
<wgt id='1577'>0.33778E+02</wgt>
<wgt id='1578'>0.33795E+02</wgt>
<wgt id='1579'>0.34205E+02</wgt>
<wgt id='1580'>0.34314E+02</wgt>
<wgt id='1581'>0.34596E+02</wgt>
<wgt id='1582'>0.34398E+02</wgt>
<wgt id='1583'>0.33120E+02</wgt>
<wgt id='1584'>0.35160E+02</wgt>
<wgt id='1585'>0.35277E+02</wgt>
<wgt id='1586'>0.35179E+02</wgt>
<wgt id='1587'>0.35469E+02</wgt>
<wgt id='1588'>0.34832E+02</wgt>
<wgt id='1589'>0.33537E+02</wgt>
<wgt id='1590'>0.34282E+02</wgt>
<wgt id='1591'>0.34551E+02</wgt>
<wgt id='1592'>0.33376E+02</wgt>
<wgt id='1593'>0.34997E+02</wgt>
<wgt id='1594'>0.34088E+02</wgt>
<wgt id='1595'>0.36897E+02</wgt>
<wgt id='1596'>0.33633E+02</wgt>
<wgt id='1597'>0.33796E+02</wgt>
<wgt id='1598'>0.33739E+02</wgt>
<wgt id='1599'>0.34229E+02</wgt>
<wgt id='1600'>0.35616E+02</wgt>
<wgt id='1601'>0.33929E+02</wgt>
<wgt id='1602'>0.34937E+02</wgt>
<wgt id='1700'>0.32264E+02</wgt>
<wgt id='1800'>0.40822E+02</wgt>
<wgt id='1850'>0.49423E+02</wgt>
<wgt id='1900'>0.44777E+02</wgt>
<wgt id='1950'>0.49963E+02</wgt>
</rwgt>
</event>
<event>
      4   9999  3.15120E+01  8.46665E+01 -1.00000E+00  1.25495E-01
      21    -1     0     0   502   501  0.000000000E+00  0.000000000E+00  6.453862520E+00  6.453862520E+00  0.000000000E+00  0.00000E+00  9.000E+00
       2    -1     0     0   501     0  0.000000000E+00  0.000000000E+00 -2.918599563E+03  2.918599563E+03  0.000000000E+00  0.00000E+00  9.000E+00
      25     1     1     2     0     0  1.798570957E+01  8.273406111E+01 -9.691791997E+02  9.802430919E+02  1.199991144E+02  0.00000E+00  9.000E+00
       2     1     1     2   502     0 -1.798570957E+01 -8.273406111E+01 -1.942966501E+03  1.944810334E+03  3.051757812E-05  0.00000E+00  9.000E+00
#rwgt            1           1   26.521551811848884                2        2244           0
<rwgt>
<wgt id='1001'>0.31512E+02</wgt>
<wgt id='1002'>0.26814E+02</wgt>
<wgt id='1003'>0.36611E+02</wgt>
<wgt id='1004'>0.26402E+02</wgt>
<wgt id='1005'>0.22928E+02</wgt>
<wgt id='1006'>0.30132E+02</wgt>
<wgt id='1007'>0.38310E+02</wgt>
<wgt id='1008'>0.31759E+02</wgt>
<wgt id='1009'>0.45495E+02</wgt>
<wgt id='2000'>0.31512E+02</wgt>
<wgt id='2001'>0.31500E+02</wgt>
<wgt id='2002'>0.31494E+02</wgt>
<wgt id='2003'>0.31434E+02</wgt>
<wgt id='2004'>0.31566E+02</wgt>
<wgt id='2005'>0.31566E+02</wgt>
<wgt id='2006'>0.31490E+02</wgt>
<wgt id='2007'>0.31630E+02</wgt>
<wgt id='2008'>0.31596E+02</wgt>
<wgt id='2009'>0.31492E+02</wgt>
<wgt id='2010'>0.31453E+02</wgt>
<wgt id='2011'>0.31477E+02</wgt>
<wgt id='2012'>0.31502E+02</wgt>
<wgt id='2013'>0.31434E+02</wgt>
<wgt id='2014'>0.31425E+02</wgt>
<wgt id='2015'>0.31470E+02</wgt>
<wgt id='2016'>0.31518E+02</wgt>
<wgt id='2017'>0.31485E+02</wgt>
<wgt id='2018'>0.31437E+02</wgt>
<wgt id='2019'>0.31528E+02</wgt>
<wgt id='2020'>0.31404E+02</wgt>
<wgt id='2021'>0.31579E+02</wgt>
<wgt id='2022'>0.31368E+02</wgt>
<wgt id='2023'>0.31521E+02</wgt>
<wgt id='2024'>0.31456E+02</wgt>
<wgt id='2025'>0.31383E+02</wgt>
<wgt id='2026'>0.31486E+02</wgt>
<wgt id='2027'>0.31453E+02</wgt>
<wgt id='2028'>0.31504E+02</wgt>
<wgt id='2029'>0.31768E+02</wgt>
<wgt id='2030'>0.31561E+02</wgt>
<wgt id='2031'>0.31503E+02</wgt>
<wgt id='2032'>0.31615E+02</wgt>
<wgt id='2033'>0.31575E+02</wgt>
<wgt id='2034'>0.31458E+02</wgt>
<wgt id='2035'>0.31463E+02</wgt>
<wgt id='2036'>0.31451E+02</wgt>
<wgt id='2037'>0.31516E+02</wgt>
<wgt id='2038'>0.31523E+02</wgt>
<wgt id='2039'>0.31584E+02</wgt>
<wgt id='2040'>0.31529E+02</wgt>
<wgt id='2041'>0.31460E+02</wgt>
<wgt id='2042'>0.31346E+02</wgt>
<wgt id='2043'>0.31586E+02</wgt>
<wgt id='2044'>0.31553E+02</wgt>
<wgt id='2045'>0.31495E+02</wgt>
<wgt id='2046'>0.31570E+02</wgt>
<wgt id='2047'>0.31570E+02</wgt>
<wgt id='2048'>0.31470E+02</wgt>
<wgt id='2049'>0.31504E+02</wgt>
<wgt id='2050'>0.31556E+02</wgt>
<wgt id='2051'>0.31546E+02</wgt>
<wgt id='2052'>0.31476E+02</wgt>
<wgt id='2053'>0.31505E+02</wgt>
<wgt id='2054'>0.31527E+02</wgt>
<wgt id='2055'>0.31536E+02</wgt>
<wgt id='2056'>0.31513E+02</wgt>
<wgt id='2057'>0.31481E+02</wgt>
<wgt id='2058'>0.31516E+02</wgt>
<wgt id='2059'>0.31507E+02</wgt>
<wgt id='2060'>0.31534E+02</wgt>
<wgt id='2061'>0.31492E+02</wgt>
<wgt id='2062'>0.31494E+02</wgt>
<wgt id='2063'>0.31510E+02</wgt>
<wgt id='2064'>0.31485E+02</wgt>
<wgt id='2065'>0.31516E+02</wgt>
<wgt id='2066'>0.31498E+02</wgt>
<wgt id='2067'>0.31511E+02</wgt>
<wgt id='2068'>0.31525E+02</wgt>
<wgt id='2069'>0.31522E+02</wgt>
<wgt id='2070'>0.31506E+02</wgt>
<wgt id='2071'>0.31491E+02</wgt>
<wgt id='2072'>0.31513E+02</wgt>
<wgt id='2073'>0.31510E+02</wgt>
<wgt id='2074'>0.31515E+02</wgt>
<wgt id='2075'>0.31500E+02</wgt>
<wgt id='2076'>0.31523E+02</wgt>
<wgt id='2077'>0.31497E+02</wgt>
<wgt id='2078'>0.31509E+02</wgt>
<wgt id='2079'>0.31517E+02</wgt>
<wgt id='2080'>0.31523E+02</wgt>
<wgt id='2081'>0.31523E+02</wgt>
<wgt id='2082'>0.31524E+02</wgt>
<wgt id='2083'>0.31514E+02</wgt>
<wgt id='2084'>0.31514E+02</wgt>
<wgt id='2085'>0.31517E+02</wgt>
<wgt id='2086'>0.31507E+02</wgt>
<wgt id='2087'>0.31501E+02</wgt>
<wgt id='2088'>0.31515E+02</wgt>
<wgt id='2089'>0.31502E+02</wgt>
<wgt id='2090'>0.31508E+02</wgt>
<wgt id='2091'>0.31514E+02</wgt>
<wgt id='2092'>0.31510E+02</wgt>
<wgt id='2093'>0.31516E+02</wgt>
<wgt id='2094'>0.31516E+02</wgt>
<wgt id='2095'>0.31523E+02</wgt>
<wgt id='2096'>0.31504E+02</wgt>
<wgt id='2097'>0.31524E+02</wgt>
<wgt id='2098'>0.31512E+02</wgt>
<wgt id='2099'>0.31503E+02</wgt>
<wgt id='2100'>0.31516E+02</wgt>
<wgt id='2101'>0.30635E+02</wgt>
<wgt id='2102'>0.32632E+02</wgt>
<wgt id='2104'>0.26476E+02</wgt>
<wgt id='2105'>0.27486E+02</wgt>
<wgt id='2106'>0.28414E+02</wgt>
<wgt id='2107'>0.29296E+02</wgt>
<wgt id='2108'>0.30974E+02</wgt>
<wgt id='2109'>0.32119E+02</wgt>
<wgt id='2110'>0.33765E+02</wgt>
<wgt id='2111'>0.34931E+02</wgt>
<wgt id='3000'>0.33576E+02</wgt>
<wgt id='3001'>0.33587E+02</wgt>
<wgt id='3002'>0.33591E+02</wgt>
<wgt id='3003'>0.33473E+02</wgt>
<wgt id='3004'>0.33633E+02</wgt>
<wgt id='3005'>0.33470E+02</wgt>
<wgt id='3006'>0.33529E+02</wgt>
<wgt id='3007'>0.33464E+02</wgt>
<wgt id='3008'>0.33579E+02</wgt>
<wgt id='3009'>0.33485E+02</wgt>
<wgt id='3010'>0.33522E+02</wgt>
<wgt id='3011'>0.33568E+02</wgt>
<wgt id='3012'>0.33578E+02</wgt>
<wgt id='3013'>0.33616E+02</wgt>
<wgt id='3014'>0.33516E+02</wgt>
<wgt id='3015'>0.33543E+02</wgt>
<wgt id='3016'>0.33597E+02</wgt>
<wgt id='3017'>0.33538E+02</wgt>
<wgt id='3018'>0.33562E+02</wgt>
<wgt id='3019'>0.33640E+02</wgt>
<wgt id='3020'>0.33678E+02</wgt>
<wgt id='3021'>0.33670E+02</wgt>
<wgt id='3022'>0.33562E+02</wgt>
<wgt id='3023'>0.33582E+02</wgt>
<wgt id='3024'>0.33626E+02</wgt>
<wgt id='3025'>0.33599E+02</wgt>
<wgt id='3026'>0.33486E+02</wgt>
<wgt id='3027'>0.33613E+02</wgt>
<wgt id='3028'>0.33616E+02</wgt>
<wgt id='3029'>0.33528E+02</wgt>
<wgt id='3030'>0.33749E+02</wgt>
<wgt id='3031'>0.33661E+02</wgt>
<wgt id='3032'>0.33474E+02</wgt>
<wgt id='3033'>0.33485E+02</wgt>
<wgt id='3034'>0.33551E+02</wgt>
<wgt id='3035'>0.33473E+02</wgt>
<wgt id='3036'>0.33614E+02</wgt>
<wgt id='3037'>0.33673E+02</wgt>
<wgt id='3038'>0.33586E+02</wgt>
<wgt id='3039'>0.33667E+02</wgt>
<wgt id='3040'>0.33657E+02</wgt>
<wgt id='3041'>0.33589E+02</wgt>
<wgt id='3042'>0.33457E+02</wgt>
<wgt id='3043'>0.33457E+02</wgt>
<wgt id='3044'>0.33650E+02</wgt>
<wgt id='3045'>0.33639E+02</wgt>
<wgt id='3046'>0.33662E+02</wgt>
<wgt id='3047'>0.33544E+02</wgt>
<wgt id='3048'>0.33657E+02</wgt>
<wgt id='3049'>0.33555E+02</wgt>
<wgt id='3050'>0.33530E+02</wgt>
<wgt id='3051'>0.33675E+02</wgt>
<wgt id='3052'>0.33543E+02</wgt>
<wgt id='3053'>0.33544E+02</wgt>
<wgt id='3054'>0.33572E+02</wgt>
<wgt id='3055'>0.33588E+02</wgt>
<wgt id='3056'>0.33575E+02</wgt>
<wgt id='3057'>0.33544E+02</wgt>
<wgt id='3058'>0.33578E+02</wgt>
<wgt id='3059'>0.33549E+02</wgt>
<wgt id='3060'>0.33591E+02</wgt>
<wgt id='3061'>0.33552E+02</wgt>
<wgt id='3062'>0.33573E+02</wgt>
<wgt id='3063'>0.33589E+02</wgt>
<wgt id='3064'>0.33566E+02</wgt>
<wgt id='3065'>0.33567E+02</wgt>
<wgt id='3066'>0.33582E+02</wgt>
<wgt id='3067'>0.33560E+02</wgt>
<wgt id='3068'>0.33580E+02</wgt>
<wgt id='3069'>0.33563E+02</wgt>
<wgt id='3070'>0.33577E+02</wgt>
<wgt id='3071'>0.33576E+02</wgt>
<wgt id='3072'>0.33571E+02</wgt>
<wgt id='3073'>0.33561E+02</wgt>
<wgt id='3074'>0.33618E+02</wgt>
<wgt id='3075'>0.33576E+02</wgt>
<wgt id='3076'>0.33585E+02</wgt>
<wgt id='3077'>0.33587E+02</wgt>
<wgt id='3078'>0.33587E+02</wgt>
<wgt id='3079'>0.33562E+02</wgt>
<wgt id='3080'>0.33564E+02</wgt>
<wgt id='3081'>0.33573E+02</wgt>
<wgt id='3082'>0.33566E+02</wgt>
<wgt id='3083'>0.33581E+02</wgt>
<wgt id='3084'>0.33572E+02</wgt>
<wgt id='3085'>0.33587E+02</wgt>
<wgt id='3086'>0.33559E+02</wgt>
<wgt id='3087'>0.33569E+02</wgt>
<wgt id='3088'>0.33572E+02</wgt>
<wgt id='3089'>0.33576E+02</wgt>
<wgt id='3090'>0.33576E+02</wgt>
<wgt id='3091'>0.33578E+02</wgt>
<wgt id='3092'>0.33581E+02</wgt>
<wgt id='3093'>0.33583E+02</wgt>
<wgt id='3094'>0.33590E+02</wgt>
<wgt id='3095'>0.33575E+02</wgt>
<wgt id='3096'>0.33575E+02</wgt>
<wgt id='3097'>0.33572E+02</wgt>
<wgt id='3098'>0.33575E+02</wgt>
<wgt id='3099'>0.33581E+02</wgt>
<wgt id='3100'>0.33582E+02</wgt>
<wgt id='3101'>0.32484E+02</wgt>
<wgt id='3102'>0.34789E+02</wgt>
<wgt id='5000'>0.32509E+02</wgt>
<wgt id='5001'>0.32535E+02</wgt>
<wgt id='5002'>0.32541E+02</wgt>
<wgt id='5003'>0.32547E+02</wgt>
<wgt id='5004'>0.32587E+02</wgt>
<wgt id='5005'>0.32864E+02</wgt>
<wgt id='5006'>0.32189E+02</wgt>
<wgt id='5007'>0.32345E+02</wgt>
<wgt id='5008'>0.32794E+02</wgt>
<wgt id='5009'>0.32293E+02</wgt>
<wgt id='5010'>0.32598E+02</wgt>
<wgt id='5011'>0.32828E+02</wgt>
<wgt id='5012'>0.32177E+02</wgt>
<wgt id='5013'>0.33290E+02</wgt>
<wgt id='5014'>0.32048E+02</wgt>
<wgt id='5015'>0.32293E+02</wgt>
<wgt id='5016'>0.33049E+02</wgt>
<wgt id='5017'>0.32241E+02</wgt>
<wgt id='5018'>0.32793E+02</wgt>
<wgt id='5019'>0.32268E+02</wgt>
<wgt id='5020'>0.32717E+02</wgt>
<wgt id='5021'>0.32345E+02</wgt>
<wgt id='5022'>0.32611E+02</wgt>
<wgt id='5023'>0.32285E+02</wgt>
<wgt id='5024'>0.32760E+02</wgt>
<wgt id='5025'>0.32577E+02</wgt>
<wgt id='5026'>0.32454E+02</wgt>
<wgt id='5027'>0.32471E+02</wgt>
<wgt id='5028'>0.32564E+02</wgt>
<wgt id='5029'>0.32766E+02</wgt>
<wgt id='5030'>0.32339E+02</wgt>
<wgt id='5031'>0.32552E+02</wgt>
<wgt id='5032'>0.32436E+02</wgt>
<wgt id='5033'>0.32319E+02</wgt>
<wgt id='5034'>0.32698E+02</wgt>
<wgt id='5035'>0.32389E+02</wgt>
<wgt id='5036'>0.32614E+02</wgt>
<wgt id='5037'>0.32045E+02</wgt>
<wgt id='5038'>0.33050E+02</wgt>
<wgt id='5039'>0.33038E+02</wgt>
<wgt id='5040'>0.32251E+02</wgt>
<wgt id='5041'>0.32616E+02</wgt>
<wgt id='5042'>0.32520E+02</wgt>
<wgt id='5043'>0.32757E+02</wgt>
<wgt id='5044'>0.32599E+02</wgt>
<wgt id='5045'>0.31742E+02</wgt>
<wgt id='5046'>0.32676E+02</wgt>
<wgt id='5047'>0.31706E+02</wgt>
<wgt id='5048'>0.32891E+02</wgt>
<wgt id='5049'>0.32441E+02</wgt>
<wgt id='5050'>0.32561E+02</wgt>
<wgt id='5051'>0.32529E+02</wgt>
<wgt id='5052'>0.32442E+02</wgt>
<wgt id='5053'>0.31450E+02</wgt>
<wgt id='5054'>0.31999E+02</wgt>
<wgt id='5055'>0.32367E+02</wgt>
<wgt id='5056'>0.32769E+02</wgt>
<wgt id='5060'>0.31307E+02</wgt>
<wgt id='5070'>0.33804E+02</wgt>
<wgt id='4000'>0.33911E+02</wgt>
<wgt id='4001'>0.33842E+02</wgt>
<wgt id='4002'>0.33950E+02</wgt>
<wgt id='4003'>0.33258E+02</wgt>
<wgt id='4004'>0.34203E+02</wgt>
<wgt id='4005'>0.34005E+02</wgt>
<wgt id='4006'>0.33845E+02</wgt>
<wgt id='4007'>0.33472E+02</wgt>
<wgt id='4008'>0.34167E+02</wgt>
<wgt id='4009'>0.34035E+02</wgt>
<wgt id='4010'>0.34096E+02</wgt>
<wgt id='4011'>0.34017E+02</wgt>
<wgt id='4012'>0.33804E+02</wgt>
<wgt id='4013'>0.33952E+02</wgt>
<wgt id='4014'>0.33945E+02</wgt>
<wgt id='4015'>0.34448E+02</wgt>
<wgt id='4016'>0.33578E+02</wgt>
<wgt id='4017'>0.33418E+02</wgt>
<wgt id='4018'>0.34500E+02</wgt>
<wgt id='4019'>0.33731E+02</wgt>
<wgt id='4020'>0.34081E+02</wgt>
<wgt id='4021'>0.33866E+02</wgt>
<wgt id='4022'>0.33992E+02</wgt>
<wgt id='4023'>0.34149E+02</wgt>
<wgt id='4024'>0.33659E+02</wgt>
<wgt id='4025'>0.34151E+02</wgt>
<wgt id='4026'>0.33681E+02</wgt>
<wgt id='4027'>0.34083E+02</wgt>
<wgt id='4028'>0.33667E+02</wgt>
<wgt id='4029'>0.34076E+02</wgt>
<wgt id='4030'>0.33853E+02</wgt>
<wgt id='4031'>0.33925E+02</wgt>
<wgt id='4032'>0.33893E+02</wgt>
<wgt id='4033'>0.33898E+02</wgt>
<wgt id='4034'>0.33944E+02</wgt>
<wgt id='4035'>0.33404E+02</wgt>
<wgt id='4036'>0.34389E+02</wgt>
<wgt id='4037'>0.33592E+02</wgt>
<wgt id='4038'>0.34347E+02</wgt>
<wgt id='4039'>0.33660E+02</wgt>
<wgt id='4040'>0.34128E+02</wgt>
<wgt id='4041'>0.33773E+02</wgt>
<wgt id='4042'>0.34007E+02</wgt>
<wgt id='4043'>0.33204E+02</wgt>
<wgt id='4044'>0.34478E+02</wgt>
<wgt id='4045'>0.34567E+02</wgt>
<wgt id='4046'>0.33789E+02</wgt>
<wgt id='4047'>0.34012E+02</wgt>
<wgt id='4048'>0.33874E+02</wgt>
<wgt id='4049'>0.33905E+02</wgt>
<wgt id='4050'>0.34223E+02</wgt>
<wgt id='4051'>0.33972E+02</wgt>
<wgt id='4052'>0.33899E+02</wgt>
<wgt id='4053'>0.32733E+02</wgt>
<wgt id='4054'>0.33791E+02</wgt>
<wgt id='4055'>0.33884E+02</wgt>
<wgt id='4056'>0.34033E+02</wgt>
<wgt id='4060'>0.32673E+02</wgt>
<wgt id='4070'>0.35244E+02</wgt>
<wgt id='4080'>0.39453E+02</wgt>
<wgt id='6000'>0.33722E+02</wgt>
<wgt id='6001'>0.33769E+02</wgt>
<wgt id='6002'>0.33671E+02</wgt>
<wgt id='6003'>0.33736E+02</wgt>
<wgt id='6004'>0.33712E+02</wgt>
<wgt id='6005'>0.33785E+02</wgt>
<wgt id='6006'>0.33663E+02</wgt>
<wgt id='6007'>0.33647E+02</wgt>
<wgt id='6008'>0.33806E+02</wgt>
<wgt id='6009'>0.33846E+02</wgt>
<wgt id='6010'>0.33600E+02</wgt>
<wgt id='6011'>0.33779E+02</wgt>
<wgt id='6012'>0.33596E+02</wgt>
<wgt id='6013'>0.33689E+02</wgt>
<wgt id='6014'>0.33779E+02</wgt>
<wgt id='6015'>0.33671E+02</wgt>
<wgt id='6016'>0.33750E+02</wgt>
<wgt id='6017'>0.33534E+02</wgt>
<wgt id='6018'>0.33943E+02</wgt>
<wgt id='6019'>0.33695E+02</wgt>
<wgt id='6020'>0.33745E+02</wgt>
<wgt id='6021'>0.33650E+02</wgt>
<wgt id='6022'>0.33817E+02</wgt>
<wgt id='6023'>0.33501E+02</wgt>
<wgt id='6024'>0.33874E+02</wgt>
<wgt id='6025'>0.34012E+02</wgt>
<wgt id='6026'>0.33337E+02</wgt>
<wgt id='6027'>0.33778E+02</wgt>
<wgt id='6028'>0.33725E+02</wgt>
<wgt id='6029'>0.33583E+02</wgt>
<wgt id='6030'>0.33888E+02</wgt>
<wgt id='6031'>0.33389E+02</wgt>
<wgt id='6032'>0.34091E+02</wgt>
<wgt id='6033'>0.33876E+02</wgt>
<wgt id='6034'>0.33568E+02</wgt>
<wgt id='6035'>0.33792E+02</wgt>
<wgt id='6036'>0.33597E+02</wgt>
<wgt id='6037'>0.33766E+02</wgt>
<wgt id='6038'>0.33714E+02</wgt>
<wgt id='6039'>0.33617E+02</wgt>
<wgt id='6040'>0.33838E+02</wgt>
<wgt id='6041'>0.33533E+02</wgt>
<wgt id='6042'>0.33944E+02</wgt>
<wgt id='6043'>0.34077E+02</wgt>
<wgt id='6044'>0.33630E+02</wgt>
<wgt id='6045'>0.33675E+02</wgt>
<wgt id='6046'>0.33845E+02</wgt>
<wgt id='6047'>0.33775E+02</wgt>
<wgt id='6048'>0.33789E+02</wgt>
<wgt id='6049'>0.33705E+02</wgt>
<wgt id='6050'>0.33741E+02</wgt>
<wgt id='7000'>0.31832E+02</wgt>
<wgt id='7001'>0.31864E+02</wgt>
<wgt id='7002'>0.31792E+02</wgt>
<wgt id='7003'>0.31912E+02</wgt>
<wgt id='7004'>0.31753E+02</wgt>
<wgt id='7005'>0.31874E+02</wgt>
<wgt id='7006'>0.31816E+02</wgt>
<wgt id='7007'>0.31770E+02</wgt>
<wgt id='7008'>0.31895E+02</wgt>
<wgt id='7009'>0.31894E+02</wgt>
<wgt id='7010'>0.31774E+02</wgt>
<wgt id='7011'>0.31587E+02</wgt>
<wgt id='7012'>0.31938E+02</wgt>
<wgt id='7013'>0.31823E+02</wgt>
<wgt id='7014'>0.31844E+02</wgt>
<wgt id='7015'>0.31765E+02</wgt>
<wgt id='7016'>0.31905E+02</wgt>
<wgt id='7017'>0.31581E+02</wgt>
<wgt id='7018'>0.31970E+02</wgt>
<wgt id='7019'>0.31821E+02</wgt>
<wgt id='7020'>0.31849E+02</wgt>
<wgt id='7021'>0.31830E+02</wgt>
<wgt id='7022'>0.31834E+02</wgt>
<wgt id='7023'>0.31882E+02</wgt>
<wgt id='7024'>0.31761E+02</wgt>
<wgt id='7025'>0.31875E+02</wgt>
<wgt id='7026'>0.31729E+02</wgt>
<wgt id='7027'>0.31864E+02</wgt>
<wgt id='7028'>0.31846E+02</wgt>
<wgt id='7029'>0.31967E+02</wgt>
<wgt id='7030'>0.31460E+02</wgt>
<wgt id='7031'>0.31692E+02</wgt>
<wgt id='7032'>0.32134E+02</wgt>
<wgt id='7033'>0.31887E+02</wgt>
<wgt id='7034'>0.31747E+02</wgt>
<wgt id='7035'>0.31632E+02</wgt>
<wgt id='7036'>0.31940E+02</wgt>
<wgt id='7037'>0.31829E+02</wgt>
<wgt id='7038'>0.31869E+02</wgt>
<wgt id='7039'>0.31701E+02</wgt>
<wgt id='7040'>0.31930E+02</wgt>
<wgt id='7041'>0.31950E+02</wgt>
<wgt id='7042'>0.31676E+02</wgt>
<wgt id='7043'>0.31856E+02</wgt>
<wgt id='7044'>0.31698E+02</wgt>
<wgt id='7045'>0.31713E+02</wgt>
<wgt id='7046'>0.31981E+02</wgt>
<wgt id='7047'>0.31926E+02</wgt>
<wgt id='7048'>0.31801E+02</wgt>
<wgt id='7049'>0.31879E+02</wgt>
<wgt id='7050'>0.31867E+02</wgt>
<wgt id='7060'>0.52438E+02</wgt>
<wgt id='8000'>0.31693E+02</wgt>
<wgt id='8001'>0.31686E+02</wgt>
<wgt id='8002'>0.31701E+02</wgt>
<wgt id='8003'>0.31693E+02</wgt>
<wgt id='8004'>0.31692E+02</wgt>
<wgt id='8005'>0.31632E+02</wgt>
<wgt id='8006'>0.31709E+02</wgt>
<wgt id='8007'>0.31713E+02</wgt>
<wgt id='8008'>0.31751E+02</wgt>
<wgt id='8009'>0.31811E+02</wgt>
<wgt id='8010'>0.31675E+02</wgt>
<wgt id='8011'>0.31696E+02</wgt>
<wgt id='8012'>0.31620E+02</wgt>
<wgt id='8013'>0.31648E+02</wgt>
<wgt id='8014'>0.31741E+02</wgt>
<wgt id='8015'>0.31669E+02</wgt>
<wgt id='8016'>0.31732E+02</wgt>
<wgt id='8017'>0.31720E+02</wgt>
<wgt id='8018'>0.31777E+02</wgt>
<wgt id='8019'>0.31648E+02</wgt>
<wgt id='8020'>0.31767E+02</wgt>
<wgt id='8021'>0.31651E+02</wgt>
<wgt id='8022'>0.31828E+02</wgt>
<wgt id='8023'>0.31608E+02</wgt>
<wgt id='8024'>0.31535E+02</wgt>
<wgt id='8025'>0.31583E+02</wgt>
<wgt id='8026'>0.31702E+02</wgt>
<wgt id='8027'>0.31726E+02</wgt>
<wgt id='8028'>0.31711E+02</wgt>
<wgt id='8029'>0.32023E+02</wgt>
<wgt id='8500'>0.33817E+02</wgt>
<wgt id='8501'>0.33563E+02</wgt>
<wgt id='8502'>0.33708E+02</wgt>
<wgt id='8503'>0.33868E+02</wgt>
<wgt id='8504'>0.33727E+02</wgt>
<wgt id='8505'>0.33935E+02</wgt>
<wgt id='8506'>0.33782E+02</wgt>
<wgt id='8507'>0.33833E+02</wgt>
<wgt id='8508'>0.33663E+02</wgt>
<wgt id='8509'>0.33888E+02</wgt>
<wgt id='8510'>0.33763E+02</wgt>
<wgt id='8511'>0.33717E+02</wgt>
<wgt id='8512'>0.34033E+02</wgt>
<wgt id='8513'>0.33831E+02</wgt>
<wgt id='8514'>0.33834E+02</wgt>
<wgt id='8515'>0.33955E+02</wgt>
<wgt id='8516'>0.33766E+02</wgt>
<wgt id='8517'>0.33940E+02</wgt>
<wgt id='8518'>0.33549E+02</wgt>
<wgt id='8519'>0.33464E+02</wgt>
<wgt id='8520'>0.33664E+02</wgt>
<wgt id='8521'>0.33585E+02</wgt>
<wgt id='8522'>0.34039E+02</wgt>
<wgt id='8523'>0.33640E+02</wgt>
<wgt id='8524'>0.33890E+02</wgt>
<wgt id='8525'>0.33855E+02</wgt>
<wgt id='8526'>0.33821E+02</wgt>
<wgt id='8527'>0.33862E+02</wgt>
<wgt id='8528'>0.33739E+02</wgt>
<wgt id='8529'>0.33772E+02</wgt>
<wgt id='8530'>0.33784E+02</wgt>
<wgt id='8531'>0.33815E+02</wgt>
<wgt id='8532'>0.33806E+02</wgt>
<wgt id='8533'>0.33753E+02</wgt>
<wgt id='8534'>0.33833E+02</wgt>
<wgt id='8535'>0.33910E+02</wgt>
<wgt id='8536'>0.33772E+02</wgt>
<wgt id='8537'>0.33827E+02</wgt>
<wgt id='8538'>0.33803E+02</wgt>
<wgt id='8539'>0.33832E+02</wgt>
<wgt id='8540'>0.33837E+02</wgt>
<wgt id='8541'>0.33839E+02</wgt>
<wgt id='8542'>0.33821E+02</wgt>
<wgt id='8543'>0.33769E+02</wgt>
<wgt id='8544'>0.33858E+02</wgt>
<wgt id='8545'>0.33835E+02</wgt>
<wgt id='8546'>0.33874E+02</wgt>
<wgt id='8547'>0.33787E+02</wgt>
<wgt id='8548'>0.33790E+02</wgt>
<wgt id='8549'>0.33822E+02</wgt>
<wgt id='8550'>0.33806E+02</wgt>
<wgt id='8551'>0.33815E+02</wgt>
<wgt id='8552'>0.33800E+02</wgt>
<wgt id='8553'>0.33783E+02</wgt>
<wgt id='8554'>0.33806E+02</wgt>
<wgt id='8555'>0.33816E+02</wgt>
<wgt id='8556'>0.33807E+02</wgt>
<wgt id='8557'>0.33824E+02</wgt>
<wgt id='8558'>0.33853E+02</wgt>
<wgt id='8559'>0.33807E+02</wgt>
<wgt id='8560'>0.33785E+02</wgt>
<wgt id='8561'>0.33828E+02</wgt>
<wgt id='8562'>0.33796E+02</wgt>
<wgt id='8563'>0.33819E+02</wgt>
<wgt id='8564'>0.33808E+02</wgt>
<wgt id='8565'>0.33829E+02</wgt>
<wgt id='8566'>0.33831E+02</wgt>
<wgt id='8567'>0.33820E+02</wgt>
<wgt id='8568'>0.33837E+02</wgt>
<wgt id='8569'>0.33832E+02</wgt>
<wgt id='8570'>0.33813E+02</wgt>
<wgt id='8571'>0.33789E+02</wgt>
<wgt id='8572'>0.33790E+02</wgt>
<wgt id='8573'>0.33798E+02</wgt>
<wgt id='8574'>0.33818E+02</wgt>
<wgt id='8575'>0.33809E+02</wgt>
<wgt id='8576'>0.33815E+02</wgt>
<wgt id='8577'>0.33798E+02</wgt>
<wgt id='8578'>0.33820E+02</wgt>
<wgt id='8579'>0.33842E+02</wgt>
<wgt id='8580'>0.33805E+02</wgt>
<wgt id='8581'>0.33830E+02</wgt>
<wgt id='8582'>0.33794E+02</wgt>
<wgt id='8583'>0.33833E+02</wgt>
<wgt id='8584'>0.33838E+02</wgt>
<wgt id='8585'>0.33831E+02</wgt>
<wgt id='8586'>0.33850E+02</wgt>
<wgt id='8587'>0.33821E+02</wgt>
<wgt id='8588'>0.33813E+02</wgt>
<wgt id='8589'>0.33815E+02</wgt>
<wgt id='8590'>0.33815E+02</wgt>
<wgt id='8591'>0.33803E+02</wgt>
<wgt id='8592'>0.33813E+02</wgt>
<wgt id='8593'>0.33802E+02</wgt>
<wgt id='8594'>0.33815E+02</wgt>
<wgt id='8595'>0.33819E+02</wgt>
<wgt id='8596'>0.33807E+02</wgt>
<wgt id='8597'>0.33825E+02</wgt>
<wgt id='8598'>0.33828E+02</wgt>
<wgt id='8599'>0.33823E+02</wgt>
<wgt id='8600'>0.33817E+02</wgt>
<wgt id='8601'>0.32980E+02</wgt>
<wgt id='8602'>0.34711E+02</wgt>
<wgt id='9000'>0.32078E+02</wgt>
<wgt id='9001'>0.32187E+02</wgt>
<wgt id='9002'>0.31994E+02</wgt>
<wgt id='9003'>0.32195E+02</wgt>
<wgt id='9004'>0.32204E+02</wgt>
<wgt id='9005'>0.32120E+02</wgt>
<wgt id='9006'>0.32273E+02</wgt>
<wgt id='9007'>0.32191E+02</wgt>
<wgt id='9008'>0.32104E+02</wgt>
<wgt id='9009'>0.32113E+02</wgt>
<wgt id='9010'>0.32131E+02</wgt>
<wgt id='9011'>0.32101E+02</wgt>
<wgt id='9012'>0.32107E+02</wgt>
<wgt id='9013'>0.32361E+02</wgt>
<wgt id='9014'>0.32092E+02</wgt>
<wgt id='9015'>0.31831E+02</wgt>
<wgt id='9016'>0.32017E+02</wgt>
<wgt id='9017'>0.31983E+02</wgt>
<wgt id='9018'>0.32275E+02</wgt>
<wgt id='9019'>0.32227E+02</wgt>
<wgt id='9020'>0.32397E+02</wgt>
<wgt id='9021'>0.31818E+02</wgt>
<wgt id='9022'>0.32113E+02</wgt>
<wgt id='9023'>0.31855E+02</wgt>
<wgt id='9024'>0.31935E+02</wgt>
<wgt id='9025'>0.32259E+02</wgt>
<wgt id='9026'>0.32054E+02</wgt>
<wgt id='9027'>0.32012E+02</wgt>
<wgt id='9028'>0.32125E+02</wgt>
<wgt id='9029'>0.32100E+02</wgt>
<wgt id='9030'>0.32032E+02</wgt>
<wgt id='9031'>0.32041E+02</wgt>
<wgt id='9032'>0.32119E+02</wgt>
<wgt id='9033'>0.32120E+02</wgt>
<wgt id='9034'>0.32104E+02</wgt>
<wgt id='9035'>0.32126E+02</wgt>
<wgt id='9036'>0.32096E+02</wgt>
<wgt id='9037'>0.32097E+02</wgt>
<wgt id='9038'>0.32102E+02</wgt>
<wgt id='9039'>0.32083E+02</wgt>
<wgt id='9040'>0.32043E+02</wgt>
<wgt id='9041'>0.32076E+02</wgt>
<wgt id='9042'>0.32096E+02</wgt>
<wgt id='9043'>0.32027E+02</wgt>
<wgt id='9044'>0.32097E+02</wgt>
<wgt id='9045'>0.32091E+02</wgt>
<wgt id='9046'>0.32032E+02</wgt>
<wgt id='9047'>0.32091E+02</wgt>
<wgt id='9048'>0.32090E+02</wgt>
<wgt id='9049'>0.32065E+02</wgt>
<wgt id='9050'>0.32076E+02</wgt>
<wgt id='9051'>0.32101E+02</wgt>
<wgt id='9052'>0.32107E+02</wgt>
<wgt id='9053'>0.32088E+02</wgt>
<wgt id='9054'>0.32064E+02</wgt>
<wgt id='9055'>0.32060E+02</wgt>
<wgt id='9056'>0.32095E+02</wgt>
<wgt id='9057'>0.32078E+02</wgt>
<wgt id='9058'>0.32043E+02</wgt>
<wgt id='9059'>0.32062E+02</wgt>
<wgt id='9060'>0.32073E+02</wgt>
<wgt id='9061'>0.32075E+02</wgt>
<wgt id='9062'>0.32086E+02</wgt>
<wgt id='9063'>0.32085E+02</wgt>
<wgt id='9064'>0.32084E+02</wgt>
<wgt id='9065'>0.32067E+02</wgt>
<wgt id='9066'>0.32069E+02</wgt>
<wgt id='9067'>0.32082E+02</wgt>
<wgt id='9068'>0.32078E+02</wgt>
<wgt id='9069'>0.32110E+02</wgt>
<wgt id='9070'>0.32071E+02</wgt>
<wgt id='9071'>0.32094E+02</wgt>
<wgt id='9072'>0.32103E+02</wgt>
<wgt id='9073'>0.32074E+02</wgt>
<wgt id='9074'>0.32086E+02</wgt>
<wgt id='9075'>0.32078E+02</wgt>
<wgt id='9076'>0.32075E+02</wgt>
<wgt id='9077'>0.32089E+02</wgt>
<wgt id='9078'>0.32087E+02</wgt>
<wgt id='9079'>0.32074E+02</wgt>
<wgt id='9080'>0.32106E+02</wgt>
<wgt id='9081'>0.32081E+02</wgt>
<wgt id='9082'>0.32086E+02</wgt>
<wgt id='9083'>0.32070E+02</wgt>
<wgt id='9084'>0.32060E+02</wgt>
<wgt id='9085'>0.32057E+02</wgt>
<wgt id='9086'>0.32088E+02</wgt>
<wgt id='9087'>0.32047E+02</wgt>
<wgt id='9088'>0.32062E+02</wgt>
<wgt id='9089'>0.32066E+02</wgt>
<wgt id='9090'>0.32084E+02</wgt>
<wgt id='9091'>0.32072E+02</wgt>
<wgt id='9092'>0.32076E+02</wgt>
<wgt id='9093'>0.32071E+02</wgt>
<wgt id='9094'>0.32072E+02</wgt>
<wgt id='9095'>0.32083E+02</wgt>
<wgt id='9096'>0.32070E+02</wgt>
<wgt id='9097'>0.32081E+02</wgt>
<wgt id='9098'>0.32076E+02</wgt>
<wgt id='9099'>0.32068E+02</wgt>
<wgt id='9100'>0.32079E+02</wgt>
<wgt id='9101'>0.31286E+02</wgt>
<wgt id='9102'>0.32917E+02</wgt>
<wgt id='10000'>0.33820E+02</wgt>
<wgt id='10001'>0.33786E+02</wgt>
<wgt id='10002'>0.33598E+02</wgt>
<wgt id='10003'>0.33814E+02</wgt>
<wgt id='10004'>0.33749E+02</wgt>
<wgt id='10005'>0.33606E+02</wgt>
<wgt id='10006'>0.33597E+02</wgt>
<wgt id='10007'>0.33799E+02</wgt>
<wgt id='10008'>0.33820E+02</wgt>
<wgt id='10009'>0.33707E+02</wgt>
<wgt id='10010'>0.33825E+02</wgt>
<wgt id='10011'>0.33667E+02</wgt>
<wgt id='10012'>0.33642E+02</wgt>
<wgt id='10013'>0.33833E+02</wgt>
<wgt id='10014'>0.33835E+02</wgt>
<wgt id='10015'>0.33928E+02</wgt>
<wgt id='10016'>0.33807E+02</wgt>
<wgt id='10017'>0.33700E+02</wgt>
<wgt id='10018'>0.33912E+02</wgt>
<wgt id='10019'>0.33350E+02</wgt>
<wgt id='10020'>0.33752E+02</wgt>
<wgt id='10021'>0.33790E+02</wgt>
<wgt id='10022'>0.33847E+02</wgt>
<wgt id='10023'>0.33866E+02</wgt>
<wgt id='10024'>0.33809E+02</wgt>
<wgt id='10025'>0.33797E+02</wgt>
<wgt id='10026'>0.33929E+02</wgt>
<wgt id='10027'>0.33863E+02</wgt>
<wgt id='10028'>0.34163E+02</wgt>
<wgt id='10029'>0.33839E+02</wgt>
<wgt id='10030'>0.33806E+02</wgt>
<wgt id='10031'>0.32980E+02</wgt>
<wgt id='10032'>0.34711E+02</wgt>
<wgt id='11000'>0.32081E+02</wgt>
<wgt id='11001'>0.31653E+02</wgt>
<wgt id='11002'>0.31939E+02</wgt>
<wgt id='11003'>0.32083E+02</wgt>
<wgt id='11004'>0.31774E+02</wgt>
<wgt id='11005'>0.32245E+02</wgt>
<wgt id='11006'>0.32089E+02</wgt>
<wgt id='11007'>0.32124E+02</wgt>
<wgt id='11008'>0.32076E+02</wgt>
<wgt id='11009'>0.32129E+02</wgt>
<wgt id='11010'>0.32301E+02</wgt>
<wgt id='11011'>0.32048E+02</wgt>
<wgt id='11012'>0.32030E+02</wgt>
<wgt id='11013'>0.32089E+02</wgt>
<wgt id='11014'>0.32064E+02</wgt>
<wgt id='11015'>0.31967E+02</wgt>
<wgt id='11016'>0.32149E+02</wgt>
<wgt id='11017'>0.32112E+02</wgt>
<wgt id='11018'>0.32103E+02</wgt>
<wgt id='11019'>0.32140E+02</wgt>
<wgt id='11020'>0.32060E+02</wgt>
<wgt id='11021'>0.32134E+02</wgt>
<wgt id='11022'>0.32010E+02</wgt>
<wgt id='11023'>0.32085E+02</wgt>
<wgt id='11024'>0.31944E+02</wgt>
<wgt id='11025'>0.32047E+02</wgt>
<wgt id='11026'>0.32082E+02</wgt>
<wgt id='11027'>0.32161E+02</wgt>
<wgt id='11028'>0.32038E+02</wgt>
<wgt id='11029'>0.31660E+02</wgt>
<wgt id='11030'>0.32084E+02</wgt>
<wgt id='11031'>0.31286E+02</wgt>
<wgt id='11032'>0.32917E+02</wgt>
<wgt id='12000'>0.30243E+02</wgt>
<wgt id='12001'>0.30212E+02</wgt>
<wgt id='12002'>0.30275E+02</wgt>
<wgt id='12003'>0.30291E+02</wgt>
<wgt id='12004'>0.30195E+02</wgt>
<wgt id='12005'>0.30260E+02</wgt>
<wgt id='12006'>0.30227E+02</wgt>
<wgt id='12007'>0.30322E+02</wgt>
<wgt id='12008'>0.30167E+02</wgt>
<wgt id='12009'>0.30226E+02</wgt>
<wgt id='12010'>0.30262E+02</wgt>
<wgt id='12011'>0.30066E+02</wgt>
<wgt id='12012'>0.30424E+02</wgt>
<wgt id='12013'>0.30205E+02</wgt>
<wgt id='12014'>0.30282E+02</wgt>
<wgt id='12015'>0.30407E+02</wgt>
<wgt id='12016'>0.30094E+02</wgt>
<wgt id='12017'>0.30334E+02</wgt>
<wgt id='12018'>0.30153E+02</wgt>
<wgt id='12019'>0.30440E+02</wgt>
<wgt id='12020'>0.30051E+02</wgt>
<wgt id='12021'>0.30279E+02</wgt>
<wgt id='12022'>0.30195E+02</wgt>
<wgt id='12023'>0.29923E+02</wgt>
<wgt id='12024'>0.30513E+02</wgt>
<wgt id='12025'>0.29986E+02</wgt>
<wgt id='12026'>0.30524E+02</wgt>
<wgt id='12027'>0.30690E+02</wgt>
<wgt id='12028'>0.29848E+02</wgt>
<wgt id='12050'>0.30243E+02</wgt>
<wgt id='12051'>0.30340E+02</wgt>
<wgt id='12052'>0.30084E+02</wgt>
<wgt id='12053'>0.30337E+02</wgt>
<wgt id='12054'>0.30138E+02</wgt>
<wgt id='12055'>0.30045E+02</wgt>
<wgt id='12056'>0.30833E+02</wgt>
<wgt id='12057'>0.30266E+02</wgt>
<wgt id='12058'>0.30248E+02</wgt>
<wgt id='12059'>0.30398E+02</wgt>
<wgt id='12060'>0.30107E+02</wgt>
<wgt id='12061'>0.30040E+02</wgt>
<wgt id='12062'>0.30294E+02</wgt>
<wgt id='12063'>0.30597E+02</wgt>
<wgt id='13000'>0.31972E+02</wgt>
<wgt id='13001'>0.31947E+02</wgt>
<wgt id='13002'>0.31991E+02</wgt>
<wgt id='13003'>0.32001E+02</wgt>
<wgt id='13004'>0.31937E+02</wgt>
<wgt id='13005'>0.32011E+02</wgt>
<wgt id='13006'>0.31927E+02</wgt>
<wgt id='13007'>0.32093E+02</wgt>
<wgt id='13008'>0.31848E+02</wgt>
<wgt id='13009'>0.31863E+02</wgt>
<wgt id='13010'>0.32077E+02</wgt>
<wgt id='13011'>0.32067E+02</wgt>
<wgt id='13012'>0.31872E+02</wgt>
<wgt id='13013'>0.31935E+02</wgt>
<wgt id='13014'>0.32003E+02</wgt>
<wgt id='13015'>0.32043E+02</wgt>
<wgt id='13016'>0.31900E+02</wgt>
<wgt id='13017'>0.31923E+02</wgt>
<wgt id='13018'>0.32014E+02</wgt>
<wgt id='13019'>0.32057E+02</wgt>
<wgt id='13020'>0.31884E+02</wgt>
<wgt id='13021'>0.32245E+02</wgt>
<wgt id='13022'>0.31682E+02</wgt>
<wgt id='13023'>0.31633E+02</wgt>
<wgt id='13024'>0.32305E+02</wgt>
<wgt id='13025'>0.31477E+02</wgt>
<wgt id='13026'>0.32414E+02</wgt>
<wgt id='13027'>0.31768E+02</wgt>
<wgt id='13028'>0.32203E+02</wgt>
<wgt id='13050'>0.31972E+02</wgt>
<wgt id='13051'>0.32025E+02</wgt>
<wgt id='13052'>0.31730E+02</wgt>
<wgt id='13053'>0.32009E+02</wgt>
<wgt id='13054'>0.31949E+02</wgt>
<wgt id='13055'>0.31018E+02</wgt>
<wgt id='13056'>0.32339E+02</wgt>
<wgt id='13057'>0.31962E+02</wgt>
<wgt id='13058'>0.32039E+02</wgt>
<wgt id='13059'>0.32110E+02</wgt>
<wgt id='13060'>0.30824E+02</wgt>
<wgt id='13061'>0.32024E+02</wgt>
<wgt id='13062'>0.31997E+02</wgt>
<wgt id='13063'>0.32467E+02</wgt>
<wgt id='14000'>0.33826E+02</wgt>
<wgt id='14001'>0.33821E+02</wgt>
<wgt id='14002'>0.33817E+02</wgt>
<wgt id='14003'>0.33812E+02</wgt>
<wgt id='14004'>0.33807E+02</wgt>
<wgt id='14005'>0.33803E+02</wgt>
<wgt id='14006'>0.33798E+02</wgt>
<wgt id='14007'>0.33794E+02</wgt>
<wgt id='14008'>0.33789E+02</wgt>
<wgt id='14009'>0.33785E+02</wgt>
<wgt id='14010'>0.33780E+02</wgt>
<wgt id='14011'>0.33776E+02</wgt>
<wgt id='14012'>0.33771E+02</wgt>
<wgt id='14013'>0.33767E+02</wgt>
<wgt id='14014'>0.33762E+02</wgt>
<wgt id='14015'>0.33757E+02</wgt>
<wgt id='14016'>0.33753E+02</wgt>
<wgt id='14017'>0.33748E+02</wgt>
<wgt id='14018'>0.33744E+02</wgt>
<wgt id='14019'>0.33739E+02</wgt>
<wgt id='14020'>0.33735E+02</wgt>
<wgt id='14021'>0.33730E+02</wgt>
<wgt id='14022'>0.33726E+02</wgt>
<wgt id='14023'>0.33721E+02</wgt>
<wgt id='14024'>0.33717E+02</wgt>
<wgt id='14025'>0.33712E+02</wgt>
<wgt id='14026'>0.33708E+02</wgt>
<wgt id='14027'>0.33703E+02</wgt>
<wgt id='14028'>0.33698E+02</wgt>
<wgt id='14029'>0.33694E+02</wgt>
<wgt id='14030'>0.33689E+02</wgt>
<wgt id='15000'>0.31719E+02</wgt>
<wgt id='15001'>0.31825E+02</wgt>
<wgt id='15002'>0.31632E+02</wgt>
<wgt id='15003'>0.31840E+02</wgt>
<wgt id='15004'>0.31844E+02</wgt>
<wgt id='15005'>0.31763E+02</wgt>
<wgt id='15006'>0.31916E+02</wgt>
<wgt id='15007'>0.31830E+02</wgt>
<wgt id='15008'>0.31745E+02</wgt>
<wgt id='15009'>0.31756E+02</wgt>
<wgt id='15010'>0.31774E+02</wgt>
<wgt id='15011'>0.31744E+02</wgt>
<wgt id='15012'>0.31749E+02</wgt>
<wgt id='15013'>0.32003E+02</wgt>
<wgt id='15014'>0.31728E+02</wgt>
<wgt id='15015'>0.31465E+02</wgt>
<wgt id='15016'>0.31662E+02</wgt>
<wgt id='15017'>0.31625E+02</wgt>
<wgt id='15018'>0.31912E+02</wgt>
<wgt id='15019'>0.31868E+02</wgt>
<wgt id='15020'>0.32039E+02</wgt>
<wgt id='15021'>0.31457E+02</wgt>
<wgt id='15022'>0.31756E+02</wgt>
<wgt id='15023'>0.31498E+02</wgt>
<wgt id='15024'>0.31575E+02</wgt>
<wgt id='15025'>0.31894E+02</wgt>
<wgt id='15026'>0.31692E+02</wgt>
<wgt id='15027'>0.31657E+02</wgt>
<wgt id='15028'>0.31767E+02</wgt>
<wgt id='15029'>0.31740E+02</wgt>
<wgt id='15030'>0.31673E+02</wgt>
<wgt id='15031'>0.31686E+02</wgt>
<wgt id='15032'>0.31759E+02</wgt>
<wgt id='15033'>0.31761E+02</wgt>
<wgt id='15034'>0.31744E+02</wgt>
<wgt id='15035'>0.31767E+02</wgt>
<wgt id='15036'>0.31737E+02</wgt>
<wgt id='15037'>0.31739E+02</wgt>
<wgt id='15038'>0.31742E+02</wgt>
<wgt id='15039'>0.31723E+02</wgt>
<wgt id='15040'>0.31684E+02</wgt>
<wgt id='15041'>0.31715E+02</wgt>
<wgt id='15042'>0.31735E+02</wgt>
<wgt id='15043'>0.31672E+02</wgt>
<wgt id='15044'>0.31738E+02</wgt>
<wgt id='15045'>0.31730E+02</wgt>
<wgt id='15046'>0.31674E+02</wgt>
<wgt id='15047'>0.31730E+02</wgt>
<wgt id='15048'>0.31732E+02</wgt>
<wgt id='15049'>0.31705E+02</wgt>
<wgt id='15050'>0.31717E+02</wgt>
<wgt id='15051'>0.31742E+02</wgt>
<wgt id='15052'>0.31747E+02</wgt>
<wgt id='15053'>0.31730E+02</wgt>
<wgt id='15054'>0.31706E+02</wgt>
<wgt id='15055'>0.31701E+02</wgt>
<wgt id='15056'>0.31735E+02</wgt>
<wgt id='15057'>0.31718E+02</wgt>
<wgt id='15058'>0.31686E+02</wgt>
<wgt id='15059'>0.31704E+02</wgt>
<wgt id='15060'>0.31715E+02</wgt>
<wgt id='15061'>0.31716E+02</wgt>
<wgt id='15062'>0.31726E+02</wgt>
<wgt id='15063'>0.31726E+02</wgt>
<wgt id='15064'>0.31725E+02</wgt>
<wgt id='15065'>0.31709E+02</wgt>
<wgt id='15066'>0.31710E+02</wgt>
<wgt id='15067'>0.31722E+02</wgt>
<wgt id='15068'>0.31719E+02</wgt>
<wgt id='15069'>0.31750E+02</wgt>
<wgt id='15070'>0.31712E+02</wgt>
<wgt id='15071'>0.31736E+02</wgt>
<wgt id='15072'>0.31743E+02</wgt>
<wgt id='15073'>0.31714E+02</wgt>
<wgt id='15074'>0.31727E+02</wgt>
<wgt id='15075'>0.31718E+02</wgt>
<wgt id='15076'>0.31718E+02</wgt>
<wgt id='15077'>0.31731E+02</wgt>
<wgt id='15078'>0.31729E+02</wgt>
<wgt id='15079'>0.31715E+02</wgt>
<wgt id='15080'>0.31745E+02</wgt>
<wgt id='15081'>0.31723E+02</wgt>
<wgt id='15082'>0.31727E+02</wgt>
<wgt id='15083'>0.31711E+02</wgt>
<wgt id='15084'>0.31701E+02</wgt>
<wgt id='15085'>0.31699E+02</wgt>
<wgt id='15086'>0.31730E+02</wgt>
<wgt id='15087'>0.31688E+02</wgt>
<wgt id='15088'>0.31703E+02</wgt>
<wgt id='15089'>0.31707E+02</wgt>
<wgt id='15090'>0.31725E+02</wgt>
<wgt id='15091'>0.31713E+02</wgt>
<wgt id='15092'>0.31716E+02</wgt>
<wgt id='15093'>0.31712E+02</wgt>
<wgt id='15094'>0.31712E+02</wgt>
<wgt id='15095'>0.31724E+02</wgt>
<wgt id='15096'>0.31711E+02</wgt>
<wgt id='15097'>0.31722E+02</wgt>
<wgt id='15098'>0.31717E+02</wgt>
<wgt id='15099'>0.31709E+02</wgt>
<wgt id='15100'>0.31720E+02</wgt>
<wgt id='15101'>0.31719E+02</wgt>
<wgt id='15102'>0.31717E+02</wgt>
<wgt id='15103'>0.31720E+02</wgt>
<wgt id='15104'>0.31720E+02</wgt>
<wgt id='15105'>0.31720E+02</wgt>
<wgt id='15106'>0.31720E+02</wgt>
<wgt id='15107'>0.31718E+02</wgt>
<wgt id='1500'>0.33828E+02</wgt>
<wgt id='1501'>0.32461E+02</wgt>
<wgt id='1502'>0.34285E+02</wgt>
<wgt id='1503'>0.34726E+02</wgt>
<wgt id='1504'>0.32350E+02</wgt>
<wgt id='1505'>0.32452E+02</wgt>
<wgt id='1506'>0.33354E+02</wgt>
<wgt id='1507'>0.33887E+02</wgt>
<wgt id='1508'>0.34057E+02</wgt>
<wgt id='1509'>0.33865E+02</wgt>
<wgt id='1510'>0.35064E+02</wgt>
<wgt id='1511'>0.34131E+02</wgt>
<wgt id='1512'>0.33557E+02</wgt>
<wgt id='1513'>0.33376E+02</wgt>
<wgt id='1514'>0.35467E+02</wgt>
<wgt id='1515'>0.33993E+02</wgt>
<wgt id='1516'>0.34195E+02</wgt>
<wgt id='1517'>0.34922E+02</wgt>
<wgt id='1518'>0.34182E+02</wgt>
<wgt id='1519'>0.33263E+02</wgt>
<wgt id='1520'>0.33998E+02</wgt>
<wgt id='1521'>0.33156E+02</wgt>
<wgt id='1522'>0.33918E+02</wgt>
<wgt id='1523'>0.34016E+02</wgt>
<wgt id='1524'>0.33476E+02</wgt>
<wgt id='1525'>0.33674E+02</wgt>
<wgt id='1526'>0.32818E+02</wgt>
<wgt id='1527'>0.34804E+02</wgt>
<wgt id='1528'>0.34384E+02</wgt>
<wgt id='1529'>0.34345E+02</wgt>
<wgt id='1530'>0.33608E+02</wgt>
<wgt id='1531'>0.33377E+02</wgt>
<wgt id='1532'>0.33870E+02</wgt>
<wgt id='1533'>0.33570E+02</wgt>
<wgt id='1534'>0.33118E+02</wgt>
<wgt id='1535'>0.35378E+02</wgt>
<wgt id='1536'>0.33624E+02</wgt>
<wgt id='1537'>0.34125E+02</wgt>
<wgt id='1538'>0.33705E+02</wgt>
<wgt id='1539'>0.32868E+02</wgt>
<wgt id='1540'>0.33523E+02</wgt>
<wgt id='1541'>0.33199E+02</wgt>
<wgt id='1542'>0.33183E+02</wgt>
<wgt id='1543'>0.33187E+02</wgt>
<wgt id='1544'>0.33945E+02</wgt>
<wgt id='1545'>0.35020E+02</wgt>
<wgt id='1546'>0.33456E+02</wgt>
<wgt id='1547'>0.33818E+02</wgt>
<wgt id='1548'>0.33718E+02</wgt>
<wgt id='1549'>0.34491E+02</wgt>
<wgt id='1550'>0.33924E+02</wgt>
<wgt id='1551'>0.33719E+02</wgt>
<wgt id='1552'>0.34097E+02</wgt>
<wgt id='1553'>0.33863E+02</wgt>
<wgt id='1554'>0.33050E+02</wgt>
<wgt id='1555'>0.33790E+02</wgt>
<wgt id='1556'>0.34465E+02</wgt>
<wgt id='1557'>0.33386E+02</wgt>
<wgt id='1558'>0.34066E+02</wgt>
<wgt id='1559'>0.34345E+02</wgt>
<wgt id='1560'>0.33692E+02</wgt>
<wgt id='1561'>0.33868E+02</wgt>
<wgt id='1562'>0.34357E+02</wgt>
<wgt id='1563'>0.33334E+02</wgt>
<wgt id='1564'>0.34813E+02</wgt>
<wgt id='1565'>0.33525E+02</wgt>
<wgt id='1566'>0.33943E+02</wgt>
<wgt id='1567'>0.34763E+02</wgt>
<wgt id='1568'>0.33981E+02</wgt>
<wgt id='1569'>0.33565E+02</wgt>
<wgt id='1570'>0.33774E+02</wgt>
<wgt id='1571'>0.33560E+02</wgt>
<wgt id='1572'>0.33510E+02</wgt>
<wgt id='1573'>0.33554E+02</wgt>
<wgt id='1574'>0.34036E+02</wgt>
<wgt id='1575'>0.33950E+02</wgt>
<wgt id='1576'>0.33358E+02</wgt>
<wgt id='1577'>0.33166E+02</wgt>
<wgt id='1578'>0.33297E+02</wgt>
<wgt id='1579'>0.33632E+02</wgt>
<wgt id='1580'>0.33484E+02</wgt>
<wgt id='1581'>0.34053E+02</wgt>
<wgt id='1582'>0.33645E+02</wgt>
<wgt id='1583'>0.33522E+02</wgt>
<wgt id='1584'>0.34235E+02</wgt>
<wgt id='1585'>0.34300E+02</wgt>
<wgt id='1586'>0.34107E+02</wgt>
<wgt id='1587'>0.34838E+02</wgt>
<wgt id='1588'>0.34012E+02</wgt>
<wgt id='1589'>0.33308E+02</wgt>
<wgt id='1590'>0.33603E+02</wgt>
<wgt id='1591'>0.33333E+02</wgt>
<wgt id='1592'>0.33403E+02</wgt>
<wgt id='1593'>0.34121E+02</wgt>
<wgt id='1594'>0.34558E+02</wgt>
<wgt id='1595'>0.35144E+02</wgt>
<wgt id='1596'>0.33523E+02</wgt>
<wgt id='1597'>0.33732E+02</wgt>
<wgt id='1598'>0.33582E+02</wgt>
<wgt id='1599'>0.33735E+02</wgt>
<wgt id='1600'>0.34268E+02</wgt>
<wgt id='1601'>0.33201E+02</wgt>
<wgt id='1602'>0.34253E+02</wgt>
<wgt id='1700'>0.31878E+02</wgt>
<wgt id='1800'>0.37093E+02</wgt>
<wgt id='1850'>0.45448E+02</wgt>
<wgt id='1900'>0.40011E+02</wgt>
<wgt id='1950'>0.45283E+02</wgt>
</rwgt>
</event>
<event>
      4   9999  3.15120E+01  3.01657E+01 -1.00000E+00  1.50438E-01
      21    -1     0     0   502   501  0.000000000E+00  0.000000000E+00  1.065755566E+02  1.065755566E+02  0.000000000E+00  0.00000E+00  9.000E+00
      21    -1     0     0   501   511  0.000000000E+00  0.000000000E+00 -1.964295463E+02  1.964295463E+02  0.000000000E+00  0.00000E+00  9.000E+00
      25     1     1     2     0     0  9.763798426E+00 -2.854184118E+01  6.875452586E+01  1.415534702E+02  1.200009652E+02  0.00000E+00  9.000E+00
      21     1     1     2   502   511 -9.763798426E+00  2.854184118E+01 -1.586085156E+02  1.614516326E+02  1.907348633E-06  0.00000E+00  9.000E+00
#rwgt            1           1   30.569892583966485                2        2300           0
<rwgt>
<wgt id='1001'>0.31512E+02</wgt>
<wgt id='1002'>0.27248E+02</wgt>
<wgt id='1003'>0.35732E+02</wgt>
<wgt id='1004'>0.27467E+02</wgt>
<wgt id='1005'>0.24440E+02</wgt>
<wgt id='1006'>0.30393E+02</wgt>
<wgt id='1007'>0.36372E+02</wgt>
<wgt id='1008'>0.30197E+02</wgt>
<wgt id='1009'>0.42611E+02</wgt>
<wgt id='2000'>0.31512E+02</wgt>
<wgt id='2001'>0.31476E+02</wgt>
<wgt id='2002'>0.31629E+02</wgt>
<wgt id='2003'>0.31618E+02</wgt>
<wgt id='2004'>0.31560E+02</wgt>
<wgt id='2005'>0.31435E+02</wgt>
<wgt id='2006'>0.31416E+02</wgt>
<wgt id='2007'>0.31372E+02</wgt>
<wgt id='2008'>0.31437E+02</wgt>
<wgt id='2009'>0.31546E+02</wgt>
<wgt id='2010'>0.31491E+02</wgt>
<wgt id='2011'>0.31632E+02</wgt>
<wgt id='2012'>0.31680E+02</wgt>
<wgt id='2013'>0.31781E+02</wgt>
<wgt id='2014'>0.31643E+02</wgt>
<wgt id='2015'>0.31589E+02</wgt>
<wgt id='2016'>0.31450E+02</wgt>
<wgt id='2017'>0.31506E+02</wgt>
<wgt id='2018'>0.31637E+02</wgt>
<wgt id='2019'>0.31504E+02</wgt>
<wgt id='2020'>0.31627E+02</wgt>
<wgt id='2021'>0.31457E+02</wgt>
<wgt id='2022'>0.31557E+02</wgt>
<wgt id='2023'>0.31553E+02</wgt>
<wgt id='2024'>0.31527E+02</wgt>
<wgt id='2025'>0.31549E+02</wgt>
<wgt id='2026'>0.31523E+02</wgt>
<wgt id='2027'>0.31492E+02</wgt>
<wgt id='2028'>0.31500E+02</wgt>
<wgt id='2029'>0.31544E+02</wgt>
<wgt id='2030'>0.31527E+02</wgt>
<wgt id='2031'>0.31524E+02</wgt>
<wgt id='2032'>0.31518E+02</wgt>
<wgt id='2033'>0.31519E+02</wgt>
<wgt id='2034'>0.31513E+02</wgt>
<wgt id='2035'>0.31498E+02</wgt>
<wgt id='2036'>0.31513E+02</wgt>
<wgt id='2037'>0.31506E+02</wgt>
<wgt id='2038'>0.31494E+02</wgt>
<wgt id='2039'>0.31516E+02</wgt>
<wgt id='2040'>0.31532E+02</wgt>
<wgt id='2041'>0.31522E+02</wgt>
<wgt id='2042'>0.31482E+02</wgt>
<wgt id='2043'>0.31493E+02</wgt>
<wgt id='2044'>0.31515E+02</wgt>
<wgt id='2045'>0.31504E+02</wgt>
<wgt id='2046'>0.31540E+02</wgt>
<wgt id='2047'>0.31541E+02</wgt>
<wgt id='2048'>0.31499E+02</wgt>
<wgt id='2049'>0.31503E+02</wgt>
<wgt id='2050'>0.31543E+02</wgt>
<wgt id='2051'>0.31545E+02</wgt>
<wgt id='2052'>0.31518E+02</wgt>
<wgt id='2053'>0.31517E+02</wgt>
<wgt id='2054'>0.31519E+02</wgt>
<wgt id='2055'>0.31523E+02</wgt>
<wgt id='2056'>0.31509E+02</wgt>
<wgt id='2057'>0.31525E+02</wgt>
<wgt id='2058'>0.31517E+02</wgt>
<wgt id='2059'>0.31511E+02</wgt>
<wgt id='2060'>0.31521E+02</wgt>
<wgt id='2061'>0.31507E+02</wgt>
<wgt id='2062'>0.31527E+02</wgt>
<wgt id='2063'>0.31496E+02</wgt>
<wgt id='2064'>0.31487E+02</wgt>
<wgt id='2065'>0.31505E+02</wgt>
<wgt id='2066'>0.31484E+02</wgt>
<wgt id='2067'>0.31517E+02</wgt>
<wgt id='2068'>0.31521E+02</wgt>
<wgt id='2069'>0.31504E+02</wgt>
<wgt id='2070'>0.31532E+02</wgt>
<wgt id='2071'>0.31495E+02</wgt>
<wgt id='2072'>0.31512E+02</wgt>
<wgt id='2073'>0.31526E+02</wgt>
<wgt id='2074'>0.31514E+02</wgt>
<wgt id='2075'>0.31512E+02</wgt>
<wgt id='2076'>0.31509E+02</wgt>
<wgt id='2077'>0.31524E+02</wgt>
<wgt id='2078'>0.31507E+02</wgt>
<wgt id='2079'>0.31515E+02</wgt>
<wgt id='2080'>0.31506E+02</wgt>
<wgt id='2081'>0.31514E+02</wgt>
<wgt id='2082'>0.31507E+02</wgt>
<wgt id='2083'>0.31508E+02</wgt>
<wgt id='2084'>0.31520E+02</wgt>
<wgt id='2085'>0.31508E+02</wgt>
<wgt id='2086'>0.31502E+02</wgt>
<wgt id='2087'>0.31513E+02</wgt>
<wgt id='2088'>0.31517E+02</wgt>
<wgt id='2089'>0.31508E+02</wgt>
<wgt id='2090'>0.31506E+02</wgt>
<wgt id='2091'>0.31514E+02</wgt>
<wgt id='2092'>0.31520E+02</wgt>
<wgt id='2093'>0.31505E+02</wgt>
<wgt id='2094'>0.31522E+02</wgt>
<wgt id='2095'>0.31516E+02</wgt>
<wgt id='2096'>0.31517E+02</wgt>
<wgt id='2097'>0.31506E+02</wgt>
<wgt id='2098'>0.31517E+02</wgt>
<wgt id='2099'>0.31507E+02</wgt>
<wgt id='2100'>0.31512E+02</wgt>
<wgt id='2101'>0.30736E+02</wgt>
<wgt id='2102'>0.32170E+02</wgt>
<wgt id='2104'>0.28003E+02</wgt>
<wgt id='2105'>0.28590E+02</wgt>
<wgt id='2106'>0.29344E+02</wgt>
<wgt id='2107'>0.30115E+02</wgt>
<wgt id='2108'>0.31222E+02</wgt>
<wgt id='2109'>0.31945E+02</wgt>
<wgt id='2110'>0.32818E+02</wgt>
<wgt id='2111'>0.33530E+02</wgt>
<wgt id='3000'>0.32814E+02</wgt>
<wgt id='3001'>0.32915E+02</wgt>
<wgt id='3002'>0.32717E+02</wgt>
<wgt id='3003'>0.32926E+02</wgt>
<wgt id='3004'>0.32896E+02</wgt>
<wgt id='3005'>0.32966E+02</wgt>
<wgt id='3006'>0.32849E+02</wgt>
<wgt id='3007'>0.32888E+02</wgt>
<wgt id='3008'>0.32715E+02</wgt>
<wgt id='3009'>0.32790E+02</wgt>
<wgt id='3010'>0.32687E+02</wgt>
<wgt id='3011'>0.32880E+02</wgt>
<wgt id='3012'>0.33050E+02</wgt>
<wgt id='3013'>0.32569E+02</wgt>
<wgt id='3014'>0.32948E+02</wgt>
<wgt id='3015'>0.32918E+02</wgt>
<wgt id='3016'>0.32835E+02</wgt>
<wgt id='3017'>0.32961E+02</wgt>
<wgt id='3018'>0.32867E+02</wgt>
<wgt id='3019'>0.32685E+02</wgt>
<wgt id='3020'>0.32772E+02</wgt>
<wgt id='3021'>0.32715E+02</wgt>
<wgt id='3022'>0.32802E+02</wgt>
<wgt id='3023'>0.32764E+02</wgt>
<wgt id='3024'>0.32798E+02</wgt>
<wgt id='3025'>0.32817E+02</wgt>
<wgt id='3026'>0.32828E+02</wgt>
<wgt id='3027'>0.32830E+02</wgt>
<wgt id='3028'>0.32778E+02</wgt>
<wgt id='3029'>0.32830E+02</wgt>
<wgt id='3030'>0.32844E+02</wgt>
<wgt id='3031'>0.32823E+02</wgt>
<wgt id='3032'>0.32811E+02</wgt>
<wgt id='3033'>0.32821E+02</wgt>
<wgt id='3034'>0.32821E+02</wgt>
<wgt id='3035'>0.32817E+02</wgt>
<wgt id='3036'>0.32822E+02</wgt>
<wgt id='3037'>0.32820E+02</wgt>
<wgt id='3038'>0.32809E+02</wgt>
<wgt id='3039'>0.32806E+02</wgt>
<wgt id='3040'>0.32820E+02</wgt>
<wgt id='3041'>0.32825E+02</wgt>
<wgt id='3042'>0.32807E+02</wgt>
<wgt id='3043'>0.32800E+02</wgt>
<wgt id='3044'>0.32825E+02</wgt>
<wgt id='3045'>0.32825E+02</wgt>
<wgt id='3046'>0.32857E+02</wgt>
<wgt id='3047'>0.32818E+02</wgt>
<wgt id='3048'>0.32820E+02</wgt>
<wgt id='3049'>0.32810E+02</wgt>
<wgt id='3050'>0.32770E+02</wgt>
<wgt id='3051'>0.32863E+02</wgt>
<wgt id='3052'>0.32799E+02</wgt>
<wgt id='3053'>0.32801E+02</wgt>
<wgt id='3054'>0.32814E+02</wgt>
<wgt id='3055'>0.32804E+02</wgt>
<wgt id='3056'>0.32833E+02</wgt>
<wgt id='3057'>0.32822E+02</wgt>
<wgt id='3058'>0.32801E+02</wgt>
<wgt id='3059'>0.32817E+02</wgt>
<wgt id='3060'>0.32799E+02</wgt>
<wgt id='3061'>0.32833E+02</wgt>
<wgt id='3062'>0.32809E+02</wgt>
<wgt id='3063'>0.32856E+02</wgt>
<wgt id='3064'>0.32798E+02</wgt>
<wgt id='3065'>0.32831E+02</wgt>
<wgt id='3066'>0.32805E+02</wgt>
<wgt id='3067'>0.32815E+02</wgt>
<wgt id='3068'>0.32808E+02</wgt>
<wgt id='3069'>0.32816E+02</wgt>
<wgt id='3070'>0.32815E+02</wgt>
<wgt id='3071'>0.32816E+02</wgt>
<wgt id='3072'>0.32813E+02</wgt>
<wgt id='3073'>0.32800E+02</wgt>
<wgt id='3074'>0.32817E+02</wgt>
<wgt id='3075'>0.32808E+02</wgt>
<wgt id='3076'>0.32796E+02</wgt>
<wgt id='3077'>0.32813E+02</wgt>
<wgt id='3078'>0.32817E+02</wgt>
<wgt id='3079'>0.32830E+02</wgt>
<wgt id='3080'>0.32815E+02</wgt>
<wgt id='3081'>0.32821E+02</wgt>
<wgt id='3082'>0.32826E+02</wgt>
<wgt id='3083'>0.32815E+02</wgt>
<wgt id='3084'>0.32819E+02</wgt>
<wgt id='3085'>0.32810E+02</wgt>
<wgt id='3086'>0.32813E+02</wgt>
<wgt id='3087'>0.32825E+02</wgt>
<wgt id='3088'>0.32823E+02</wgt>
<wgt id='3089'>0.32817E+02</wgt>
<wgt id='3090'>0.32820E+02</wgt>
<wgt id='3091'>0.32827E+02</wgt>
<wgt id='3092'>0.32810E+02</wgt>
<wgt id='3093'>0.32812E+02</wgt>
<wgt id='3094'>0.32820E+02</wgt>
<wgt id='3095'>0.32809E+02</wgt>
<wgt id='3096'>0.32811E+02</wgt>
<wgt id='3097'>0.32812E+02</wgt>
<wgt id='3098'>0.32811E+02</wgt>
<wgt id='3099'>0.32812E+02</wgt>
<wgt id='3100'>0.32817E+02</wgt>
<wgt id='3101'>0.32060E+02</wgt>
<wgt id='3102'>0.33696E+02</wgt>
<wgt id='5000'>0.30589E+02</wgt>
<wgt id='5001'>0.30371E+02</wgt>
<wgt id='5002'>0.30502E+02</wgt>
<wgt id='5003'>0.30345E+02</wgt>
<wgt id='5004'>0.30631E+02</wgt>
<wgt id='5005'>0.29670E+02</wgt>
<wgt id='5006'>0.30849E+02</wgt>
<wgt id='5007'>0.30665E+02</wgt>
<wgt id='5008'>0.30119E+02</wgt>
<wgt id='5009'>0.30935E+02</wgt>
<wgt id='5010'>0.30347E+02</wgt>
<wgt id='5011'>0.30489E+02</wgt>
<wgt id='5012'>0.30568E+02</wgt>
<wgt id='5013'>0.30212E+02</wgt>
<wgt id='5014'>0.30542E+02</wgt>
<wgt id='5015'>0.30859E+02</wgt>
<wgt id='5016'>0.29716E+02</wgt>
<wgt id='5017'>0.30566E+02</wgt>
<wgt id='5018'>0.30618E+02</wgt>
<wgt id='5019'>0.30647E+02</wgt>
<wgt id='5020'>0.30518E+02</wgt>
<wgt id='5021'>0.30708E+02</wgt>
<wgt id='5022'>0.30512E+02</wgt>
<wgt id='5023'>0.30508E+02</wgt>
<wgt id='5024'>0.30668E+02</wgt>
<wgt id='5025'>0.30611E+02</wgt>
<wgt id='5026'>0.30570E+02</wgt>
<wgt id='5027'>0.30951E+02</wgt>
<wgt id='5028'>0.29975E+02</wgt>
<wgt id='5029'>0.29926E+02</wgt>
<wgt id='5030'>0.30984E+02</wgt>
<wgt id='5031'>0.30177E+02</wgt>
<wgt id='5032'>0.31176E+02</wgt>
<wgt id='5033'>0.30415E+02</wgt>
<wgt id='5034'>0.30734E+02</wgt>
<wgt id='5035'>0.30263E+02</wgt>
<wgt id='5036'>0.30838E+02</wgt>
<wgt id='5037'>0.30437E+02</wgt>
<wgt id='5038'>0.30741E+02</wgt>
<wgt id='5039'>0.31180E+02</wgt>
<wgt id='5040'>0.30285E+02</wgt>
<wgt id='5041'>0.30100E+02</wgt>
<wgt id='5042'>0.30707E+02</wgt>
<wgt id='5043'>0.31189E+02</wgt>
<wgt id='5044'>0.29530E+02</wgt>
<wgt id='5045'>0.31540E+02</wgt>
<wgt id='5046'>0.30080E+02</wgt>
<wgt id='5047'>0.30746E+02</wgt>
<wgt id='5048'>0.30702E+02</wgt>
<wgt id='5049'>0.30648E+02</wgt>
<wgt id='5050'>0.30718E+02</wgt>
<wgt id='5051'>0.30737E+02</wgt>
<wgt id='5052'>0.30597E+02</wgt>
<wgt id='5053'>0.30529E+02</wgt>
<wgt id='5054'>0.31445E+02</wgt>
<wgt id='5055'>0.30371E+02</wgt>
<wgt id='5056'>0.30768E+02</wgt>
<wgt id='5060'>0.29905E+02</wgt>
<wgt id='5070'>0.31150E+02</wgt>
<wgt id='4000'>0.31999E+02</wgt>
<wgt id='4001'>0.32092E+02</wgt>
<wgt id='4002'>0.32179E+02</wgt>
<wgt id='4003'>0.32625E+02</wgt>
<wgt id='4004'>0.31513E+02</wgt>
<wgt id='4005'>0.32239E+02</wgt>
<wgt id='4006'>0.31898E+02</wgt>
<wgt id='4007'>0.32368E+02</wgt>
<wgt id='4008'>0.31753E+02</wgt>
<wgt id='4009'>0.31158E+02</wgt>
<wgt id='4010'>0.32721E+02</wgt>
<wgt id='4011'>0.32582E+02</wgt>
<wgt id='4012'>0.31668E+02</wgt>
<wgt id='4013'>0.30600E+02</wgt>
<wgt id='4014'>0.32762E+02</wgt>
<wgt id='4015'>0.32308E+02</wgt>
<wgt id='4016'>0.31794E+02</wgt>
<wgt id='4017'>0.31633E+02</wgt>
<wgt id='4018'>0.32434E+02</wgt>
<wgt id='4019'>0.32584E+02</wgt>
<wgt id='4020'>0.31347E+02</wgt>
<wgt id='4021'>0.32108E+02</wgt>
<wgt id='4022'>0.31761E+02</wgt>
<wgt id='4023'>0.31790E+02</wgt>
<wgt id='4024'>0.32190E+02</wgt>
<wgt id='4025'>0.31738E+02</wgt>
<wgt id='4026'>0.32226E+02</wgt>
<wgt id='4027'>0.31882E+02</wgt>
<wgt id='4028'>0.32159E+02</wgt>
<wgt id='4029'>0.31751E+02</wgt>
<wgt id='4030'>0.32085E+02</wgt>
<wgt id='4031'>0.32084E+02</wgt>
<wgt id='4032'>0.31888E+02</wgt>
<wgt id='4033'>0.31906E+02</wgt>
<wgt id='4034'>0.32195E+02</wgt>
<wgt id='4035'>0.32379E+02</wgt>
<wgt id='4036'>0.31653E+02</wgt>
<wgt id='4037'>0.32307E+02</wgt>
<wgt id='4038'>0.31443E+02</wgt>
<wgt id='4039'>0.31977E+02</wgt>
<wgt id='4040'>0.31909E+02</wgt>
<wgt id='4041'>0.32199E+02</wgt>
<wgt id='4042'>0.31867E+02</wgt>
<wgt id='4043'>0.32056E+02</wgt>
<wgt id='4044'>0.31917E+02</wgt>
<wgt id='4045'>0.31649E+02</wgt>
<wgt id='4046'>0.31817E+02</wgt>
<wgt id='4047'>0.31448E+02</wgt>
<wgt id='4048'>0.32142E+02</wgt>
<wgt id='4049'>0.31970E+02</wgt>
<wgt id='4050'>0.31173E+02</wgt>
<wgt id='4051'>0.31885E+02</wgt>
<wgt id='4052'>0.31832E+02</wgt>
<wgt id='4053'>0.31217E+02</wgt>
<wgt id='4054'>0.32268E+02</wgt>
<wgt id='4055'>0.31714E+02</wgt>
<wgt id='4056'>0.32265E+02</wgt>
<wgt id='4060'>0.31174E+02</wgt>
<wgt id='4070'>0.32735E+02</wgt>
<wgt id='4080'>0.29629E+02</wgt>
<wgt id='6000'>0.32743E+02</wgt>
<wgt id='6001'>0.32746E+02</wgt>
<wgt id='6002'>0.32740E+02</wgt>
<wgt id='6003'>0.32759E+02</wgt>
<wgt id='6004'>0.32732E+02</wgt>
<wgt id='6005'>0.32842E+02</wgt>
<wgt id='6006'>0.32651E+02</wgt>
<wgt id='6007'>0.32563E+02</wgt>
<wgt id='6008'>0.32945E+02</wgt>
<wgt id='6009'>0.32832E+02</wgt>
<wgt id='6010'>0.32656E+02</wgt>
<wgt id='6011'>0.32819E+02</wgt>
<wgt id='6012'>0.32577E+02</wgt>
<wgt id='6013'>0.32705E+02</wgt>
<wgt id='6014'>0.32809E+02</wgt>
<wgt id='6015'>0.32608E+02</wgt>
<wgt id='6016'>0.32820E+02</wgt>
<wgt id='6017'>0.32563E+02</wgt>
<wgt id='6018'>0.32956E+02</wgt>
<wgt id='6019'>0.32823E+02</wgt>
<wgt id='6020'>0.32673E+02</wgt>
<wgt id='6021'>0.32679E+02</wgt>
<wgt id='6022'>0.32830E+02</wgt>
<wgt id='6023'>0.32515E+02</wgt>
<wgt id='6024'>0.32904E+02</wgt>
<wgt id='6025'>0.32357E+02</wgt>
<wgt id='6026'>0.33094E+02</wgt>
<wgt id='6027'>0.32843E+02</wgt>
<wgt id='6028'>0.32746E+02</wgt>
<wgt id='6029'>0.32931E+02</wgt>
<wgt id='6030'>0.32523E+02</wgt>
<wgt id='6031'>0.32753E+02</wgt>
<wgt id='6032'>0.32715E+02</wgt>
<wgt id='6033'>0.32824E+02</wgt>
<wgt id='6034'>0.32658E+02</wgt>
<wgt id='6035'>0.32728E+02</wgt>
<wgt id='6036'>0.32832E+02</wgt>
<wgt id='6037'>0.32824E+02</wgt>
<wgt id='6038'>0.32728E+02</wgt>
<wgt id='6039'>0.32714E+02</wgt>
<wgt id='6040'>0.32774E+02</wgt>
<wgt id='6041'>0.32668E+02</wgt>
<wgt id='6042'>0.32831E+02</wgt>
<wgt id='6043'>0.33141E+02</wgt>
<wgt id='6044'>0.32512E+02</wgt>
<wgt id='6045'>0.32729E+02</wgt>
<wgt id='6046'>0.32779E+02</wgt>
<wgt id='6047'>0.32800E+02</wgt>
<wgt id='6048'>0.32363E+02</wgt>
<wgt id='6049'>0.32772E+02</wgt>
<wgt id='6050'>0.32707E+02</wgt>
<wgt id='7000'>0.30562E+02</wgt>
<wgt id='7001'>0.30538E+02</wgt>
<wgt id='7002'>0.30592E+02</wgt>
<wgt id='7003'>0.30653E+02</wgt>
<wgt id='7004'>0.30470E+02</wgt>
<wgt id='7005'>0.30625E+02</wgt>
<wgt id='7006'>0.30537E+02</wgt>
<wgt id='7007'>0.30407E+02</wgt>
<wgt id='7008'>0.30716E+02</wgt>
<wgt id='7009'>0.30602E+02</wgt>
<wgt id='7010'>0.30522E+02</wgt>
<wgt id='7011'>0.30271E+02</wgt>
<wgt id='7012'>0.30689E+02</wgt>
<wgt id='7013'>0.30572E+02</wgt>
<wgt id='7014'>0.30550E+02</wgt>
<wgt id='7015'>0.30468E+02</wgt>
<wgt id='7016'>0.30664E+02</wgt>
<wgt id='7017'>0.30572E+02</wgt>
<wgt id='7018'>0.30555E+02</wgt>
<wgt id='7019'>0.30511E+02</wgt>
<wgt id='7020'>0.30631E+02</wgt>
<wgt id='7021'>0.30546E+02</wgt>
<wgt id='7022'>0.30572E+02</wgt>
<wgt id='7023'>0.30950E+02</wgt>
<wgt id='7024'>0.30190E+02</wgt>
<wgt id='7025'>0.30706E+02</wgt>
<wgt id='7026'>0.30212E+02</wgt>
<wgt id='7027'>0.30712E+02</wgt>
<wgt id='7028'>0.30497E+02</wgt>
<wgt id='7029'>0.30409E+02</wgt>
<wgt id='7030'>0.30961E+02</wgt>
<wgt id='7031'>0.30561E+02</wgt>
<wgt id='7032'>0.30567E+02</wgt>
<wgt id='7033'>0.30515E+02</wgt>
<wgt id='7034'>0.30666E+02</wgt>
<wgt id='7035'>0.30640E+02</wgt>
<wgt id='7036'>0.30537E+02</wgt>
<wgt id='7037'>0.30580E+02</wgt>
<wgt id='7038'>0.30541E+02</wgt>
<wgt id='7039'>0.30541E+02</wgt>
<wgt id='7040'>0.30576E+02</wgt>
<wgt id='7041'>0.30439E+02</wgt>
<wgt id='7042'>0.30689E+02</wgt>
<wgt id='7043'>0.30592E+02</wgt>
<wgt id='7044'>0.30387E+02</wgt>
<wgt id='7045'>0.30189E+02</wgt>
<wgt id='7046'>0.30712E+02</wgt>
<wgt id='7047'>0.30606E+02</wgt>
<wgt id='7048'>0.30529E+02</wgt>
<wgt id='7049'>0.30421E+02</wgt>
<wgt id='7050'>0.30561E+02</wgt>
<wgt id='7060'>0.44185E+02</wgt>
<wgt id='8000'>0.31384E+02</wgt>
<wgt id='8001'>0.31375E+02</wgt>
<wgt id='8002'>0.31392E+02</wgt>
<wgt id='8003'>0.31387E+02</wgt>
<wgt id='8004'>0.31383E+02</wgt>
<wgt id='8005'>0.31317E+02</wgt>
<wgt id='8006'>0.31367E+02</wgt>
<wgt id='8007'>0.31359E+02</wgt>
<wgt id='8008'>0.31453E+02</wgt>
<wgt id='8009'>0.31516E+02</wgt>
<wgt id='8010'>0.31375E+02</wgt>
<wgt id='8011'>0.31363E+02</wgt>
<wgt id='8012'>0.31319E+02</wgt>
<wgt id='8013'>0.31368E+02</wgt>
<wgt id='8014'>0.31381E+02</wgt>
<wgt id='8015'>0.31353E+02</wgt>
<wgt id='8016'>0.31396E+02</wgt>
<wgt id='8017'>0.31382E+02</wgt>
<wgt id='8018'>0.31391E+02</wgt>
<wgt id='8019'>0.31453E+02</wgt>
<wgt id='8020'>0.31260E+02</wgt>
<wgt id='8021'>0.31382E+02</wgt>
<wgt id='8022'>0.31165E+02</wgt>
<wgt id='8023'>0.31423E+02</wgt>
<wgt id='8024'>0.31448E+02</wgt>
<wgt id='8025'>0.31503E+02</wgt>
<wgt id='8026'>0.31460E+02</wgt>
<wgt id='8027'>0.31331E+02</wgt>
<wgt id='8028'>0.31424E+02</wgt>
<wgt id='8029'>0.31061E+02</wgt>
<wgt id='8500'>0.32281E+02</wgt>
<wgt id='8501'>0.32227E+02</wgt>
<wgt id='8502'>0.32622E+02</wgt>
<wgt id='8503'>0.32502E+02</wgt>
<wgt id='8504'>0.32200E+02</wgt>
<wgt id='8505'>0.32113E+02</wgt>
<wgt id='8506'>0.32227E+02</wgt>
<wgt id='8507'>0.32396E+02</wgt>
<wgt id='8508'>0.32680E+02</wgt>
<wgt id='8509'>0.32108E+02</wgt>
<wgt id='8510'>0.32782E+02</wgt>
<wgt id='8511'>0.32298E+02</wgt>
<wgt id='8512'>0.31869E+02</wgt>
<wgt id='8513'>0.32298E+02</wgt>
<wgt id='8514'>0.32073E+02</wgt>
<wgt id='8515'>0.32307E+02</wgt>
<wgt id='8516'>0.32387E+02</wgt>
<wgt id='8517'>0.32159E+02</wgt>
<wgt id='8518'>0.32118E+02</wgt>
<wgt id='8519'>0.32089E+02</wgt>
<wgt id='8520'>0.32377E+02</wgt>
<wgt id='8521'>0.32084E+02</wgt>
<wgt id='8522'>0.32278E+02</wgt>
<wgt id='8523'>0.32241E+02</wgt>
<wgt id='8524'>0.32210E+02</wgt>
<wgt id='8525'>0.32280E+02</wgt>
<wgt id='8526'>0.32230E+02</wgt>
<wgt id='8527'>0.32262E+02</wgt>
<wgt id='8528'>0.32206E+02</wgt>
<wgt id='8529'>0.32280E+02</wgt>
<wgt id='8530'>0.32292E+02</wgt>
<wgt id='8531'>0.32269E+02</wgt>
<wgt id='8532'>0.32293E+02</wgt>
<wgt id='8533'>0.32223E+02</wgt>
<wgt id='8534'>0.32306E+02</wgt>
<wgt id='8535'>0.32339E+02</wgt>
<wgt id='8536'>0.32261E+02</wgt>
<wgt id='8537'>0.32301E+02</wgt>
<wgt id='8538'>0.32243E+02</wgt>
<wgt id='8539'>0.32292E+02</wgt>
<wgt id='8540'>0.32285E+02</wgt>
<wgt id='8541'>0.32304E+02</wgt>
<wgt id='8542'>0.32324E+02</wgt>
<wgt id='8543'>0.32256E+02</wgt>
<wgt id='8544'>0.32317E+02</wgt>
<wgt id='8545'>0.32311E+02</wgt>
<wgt id='8546'>0.32297E+02</wgt>
<wgt id='8547'>0.32251E+02</wgt>
<wgt id='8548'>0.32257E+02</wgt>
<wgt id='8549'>0.32273E+02</wgt>
<wgt id='8550'>0.32290E+02</wgt>
<wgt id='8551'>0.32229E+02</wgt>
<wgt id='8552'>0.32286E+02</wgt>
<wgt id='8553'>0.32276E+02</wgt>
<wgt id='8554'>0.32256E+02</wgt>
<wgt id='8555'>0.32287E+02</wgt>
<wgt id='8556'>0.32286E+02</wgt>
<wgt id='8557'>0.32272E+02</wgt>
<wgt id='8558'>0.32332E+02</wgt>
<wgt id='8559'>0.32266E+02</wgt>
<wgt id='8560'>0.32238E+02</wgt>
<wgt id='8561'>0.32272E+02</wgt>
<wgt id='8562'>0.32251E+02</wgt>
<wgt id='8563'>0.32279E+02</wgt>
<wgt id='8564'>0.32276E+02</wgt>
<wgt id='8565'>0.32270E+02</wgt>
<wgt id='8566'>0.32267E+02</wgt>
<wgt id='8567'>0.32269E+02</wgt>
<wgt id='8568'>0.32291E+02</wgt>
<wgt id='8569'>0.32284E+02</wgt>
<wgt id='8570'>0.32277E+02</wgt>
<wgt id='8571'>0.32274E+02</wgt>
<wgt id='8572'>0.32276E+02</wgt>
<wgt id='8573'>0.32281E+02</wgt>
<wgt id='8574'>0.32277E+02</wgt>
<wgt id='8575'>0.32284E+02</wgt>
<wgt id='8576'>0.32276E+02</wgt>
<wgt id='8577'>0.32281E+02</wgt>
<wgt id='8578'>0.32279E+02</wgt>
<wgt id='8579'>0.32292E+02</wgt>
<wgt id='8580'>0.32294E+02</wgt>
<wgt id='8581'>0.32280E+02</wgt>
<wgt id='8582'>0.32267E+02</wgt>
<wgt id='8583'>0.32289E+02</wgt>
<wgt id='8584'>0.32284E+02</wgt>
<wgt id='8585'>0.32282E+02</wgt>
<wgt id='8586'>0.32291E+02</wgt>
<wgt id='8587'>0.32277E+02</wgt>
<wgt id='8588'>0.32276E+02</wgt>
<wgt id='8589'>0.32282E+02</wgt>
<wgt id='8590'>0.32280E+02</wgt>
<wgt id='8591'>0.32279E+02</wgt>
<wgt id='8592'>0.32282E+02</wgt>
<wgt id='8593'>0.32274E+02</wgt>
<wgt id='8594'>0.32280E+02</wgt>
<wgt id='8595'>0.32284E+02</wgt>
<wgt id='8596'>0.32278E+02</wgt>
<wgt id='8597'>0.32282E+02</wgt>
<wgt id='8598'>0.32284E+02</wgt>
<wgt id='8599'>0.32286E+02</wgt>
<wgt id='8600'>0.32280E+02</wgt>
<wgt id='8601'>0.31717E+02</wgt>
<wgt id='8602'>0.32757E+02</wgt>
<wgt id='9000'>0.30696E+02</wgt>
<wgt id='9001'>0.30719E+02</wgt>
<wgt id='9002'>0.30846E+02</wgt>
<wgt id='9003'>0.30417E+02</wgt>
<wgt id='9004'>0.30642E+02</wgt>
<wgt id='9005'>0.30866E+02</wgt>
<wgt id='9006'>0.30614E+02</wgt>
<wgt id='9007'>0.30645E+02</wgt>
<wgt id='9008'>0.30754E+02</wgt>
<wgt id='9009'>0.30687E+02</wgt>
<wgt id='9010'>0.30618E+02</wgt>
<wgt id='9011'>0.31095E+02</wgt>
<wgt id='9012'>0.30359E+02</wgt>
<wgt id='9013'>0.30254E+02</wgt>
<wgt id='9014'>0.30314E+02</wgt>
<wgt id='9015'>0.30616E+02</wgt>
<wgt id='9016'>0.30917E+02</wgt>
<wgt id='9017'>0.30678E+02</wgt>
<wgt id='9018'>0.30674E+02</wgt>
<wgt id='9019'>0.30658E+02</wgt>
<wgt id='9020'>0.31007E+02</wgt>
<wgt id='9021'>0.30684E+02</wgt>
<wgt id='9022'>0.30714E+02</wgt>
<wgt id='9023'>0.30732E+02</wgt>
<wgt id='9024'>0.30654E+02</wgt>
<wgt id='9025'>0.30702E+02</wgt>
<wgt id='9026'>0.30734E+02</wgt>
<wgt id='9027'>0.30649E+02</wgt>
<wgt id='9028'>0.30714E+02</wgt>
<wgt id='9029'>0.30738E+02</wgt>
<wgt id='9030'>0.30724E+02</wgt>
<wgt id='9031'>0.30702E+02</wgt>
<wgt id='9032'>0.30705E+02</wgt>
<wgt id='9033'>0.30730E+02</wgt>
<wgt id='9034'>0.30665E+02</wgt>
<wgt id='9035'>0.30753E+02</wgt>
<wgt id='9036'>0.30688E+02</wgt>
<wgt id='9037'>0.30735E+02</wgt>
<wgt id='9038'>0.30693E+02</wgt>
<wgt id='9039'>0.30688E+02</wgt>
<wgt id='9040'>0.30648E+02</wgt>
<wgt id='9041'>0.30680E+02</wgt>
<wgt id='9042'>0.30683E+02</wgt>
<wgt id='9043'>0.30680E+02</wgt>
<wgt id='9044'>0.30698E+02</wgt>
<wgt id='9045'>0.30692E+02</wgt>
<wgt id='9046'>0.30650E+02</wgt>
<wgt id='9047'>0.30672E+02</wgt>
<wgt id='9048'>0.30709E+02</wgt>
<wgt id='9049'>0.30685E+02</wgt>
<wgt id='9050'>0.30711E+02</wgt>
<wgt id='9051'>0.30697E+02</wgt>
<wgt id='9052'>0.30687E+02</wgt>
<wgt id='9053'>0.30691E+02</wgt>
<wgt id='9054'>0.30681E+02</wgt>
<wgt id='9055'>0.30699E+02</wgt>
<wgt id='9056'>0.30738E+02</wgt>
<wgt id='9057'>0.30700E+02</wgt>
<wgt id='9058'>0.30671E+02</wgt>
<wgt id='9059'>0.30679E+02</wgt>
<wgt id='9060'>0.30681E+02</wgt>
<wgt id='9061'>0.30710E+02</wgt>
<wgt id='9062'>0.30700E+02</wgt>
<wgt id='9063'>0.30713E+02</wgt>
<wgt id='9064'>0.30674E+02</wgt>
<wgt id='9065'>0.30700E+02</wgt>
<wgt id='9066'>0.30708E+02</wgt>
<wgt id='9067'>0.30718E+02</wgt>
<wgt id='9068'>0.30707E+02</wgt>
<wgt id='9069'>0.30705E+02</wgt>
<wgt id='9070'>0.30691E+02</wgt>
<wgt id='9071'>0.30720E+02</wgt>
<wgt id='9072'>0.30713E+02</wgt>
<wgt id='9073'>0.30683E+02</wgt>
<wgt id='9074'>0.30698E+02</wgt>
<wgt id='9075'>0.30699E+02</wgt>
<wgt id='9076'>0.30687E+02</wgt>
<wgt id='9077'>0.30697E+02</wgt>
<wgt id='9078'>0.30689E+02</wgt>
<wgt id='9079'>0.30698E+02</wgt>
<wgt id='9080'>0.30714E+02</wgt>
<wgt id='9081'>0.30695E+02</wgt>
<wgt id='9082'>0.30706E+02</wgt>
<wgt id='9083'>0.30683E+02</wgt>
<wgt id='9084'>0.30692E+02</wgt>
<wgt id='9085'>0.30696E+02</wgt>
<wgt id='9086'>0.30703E+02</wgt>
<wgt id='9087'>0.30686E+02</wgt>
<wgt id='9088'>0.30690E+02</wgt>
<wgt id='9089'>0.30690E+02</wgt>
<wgt id='9090'>0.30698E+02</wgt>
<wgt id='9091'>0.30691E+02</wgt>
<wgt id='9092'>0.30700E+02</wgt>
<wgt id='9093'>0.30694E+02</wgt>
<wgt id='9094'>0.30691E+02</wgt>
<wgt id='9095'>0.30699E+02</wgt>
<wgt id='9096'>0.30693E+02</wgt>
<wgt id='9097'>0.30698E+02</wgt>
<wgt id='9098'>0.30694E+02</wgt>
<wgt id='9099'>0.30692E+02</wgt>
<wgt id='9100'>0.30695E+02</wgt>
<wgt id='9101'>0.30285E+02</wgt>
<wgt id='9102'>0.30998E+02</wgt>
<wgt id='10000'>0.32282E+02</wgt>
<wgt id='10001'>0.32459E+02</wgt>
<wgt id='10002'>0.32302E+02</wgt>
<wgt id='10003'>0.32309E+02</wgt>
<wgt id='10004'>0.32330E+02</wgt>
<wgt id='10005'>0.33228E+02</wgt>
<wgt id='10006'>0.32295E+02</wgt>
<wgt id='10007'>0.32264E+02</wgt>
<wgt id='10008'>0.32361E+02</wgt>
<wgt id='10009'>0.32231E+02</wgt>
<wgt id='10010'>0.32311E+02</wgt>
<wgt id='10011'>0.32240E+02</wgt>
<wgt id='10012'>0.32237E+02</wgt>
<wgt id='10013'>0.32273E+02</wgt>
<wgt id='10014'>0.32281E+02</wgt>
<wgt id='10015'>0.32325E+02</wgt>
<wgt id='10016'>0.32269E+02</wgt>
<wgt id='10017'>0.32151E+02</wgt>
<wgt id='10018'>0.32315E+02</wgt>
<wgt id='10019'>0.32187E+02</wgt>
<wgt id='10020'>0.32276E+02</wgt>
<wgt id='10021'>0.32297E+02</wgt>
<wgt id='10022'>0.32108E+02</wgt>
<wgt id='10023'>0.32299E+02</wgt>
<wgt id='10024'>0.32287E+02</wgt>
<wgt id='10025'>0.32256E+02</wgt>
<wgt id='10026'>0.32298E+02</wgt>
<wgt id='10027'>0.32295E+02</wgt>
<wgt id='10028'>0.32438E+02</wgt>
<wgt id='10029'>0.32305E+02</wgt>
<wgt id='10030'>0.32269E+02</wgt>
<wgt id='10031'>0.31717E+02</wgt>
<wgt id='10032'>0.32757E+02</wgt>
<wgt id='11000'>0.30697E+02</wgt>
<wgt id='11001'>0.30572E+02</wgt>
<wgt id='11002'>0.30804E+02</wgt>
<wgt id='11003'>0.30660E+02</wgt>
<wgt id='11004'>0.30772E+02</wgt>
<wgt id='11005'>0.30100E+02</wgt>
<wgt id='11006'>0.30700E+02</wgt>
<wgt id='11007'>0.30637E+02</wgt>
<wgt id='11008'>0.30616E+02</wgt>
<wgt id='11009'>0.30581E+02</wgt>
<wgt id='11010'>0.30703E+02</wgt>
<wgt id='11011'>0.30518E+02</wgt>
<wgt id='11012'>0.30718E+02</wgt>
<wgt id='11013'>0.30801E+02</wgt>
<wgt id='11014'>0.30611E+02</wgt>
<wgt id='11015'>0.30647E+02</wgt>
<wgt id='11016'>0.30655E+02</wgt>
<wgt id='11017'>0.30994E+02</wgt>
<wgt id='11018'>0.30699E+02</wgt>
<wgt id='11019'>0.30694E+02</wgt>
<wgt id='11020'>0.30735E+02</wgt>
<wgt id='11021'>0.30794E+02</wgt>
<wgt id='11022'>0.31288E+02</wgt>
<wgt id='11023'>0.30692E+02</wgt>
<wgt id='11024'>0.30640E+02</wgt>
<wgt id='11025'>0.30642E+02</wgt>
<wgt id='11026'>0.30698E+02</wgt>
<wgt id='11027'>0.30686E+02</wgt>
<wgt id='11028'>0.30684E+02</wgt>
<wgt id='11029'>0.30673E+02</wgt>
<wgt id='11030'>0.30700E+02</wgt>
<wgt id='11031'>0.30285E+02</wgt>
<wgt id='11032'>0.30998E+02</wgt>
<wgt id='12000'>0.33854E+02</wgt>
<wgt id='12001'>0.33810E+02</wgt>
<wgt id='12002'>0.33898E+02</wgt>
<wgt id='12003'>0.33931E+02</wgt>
<wgt id='12004'>0.33777E+02</wgt>
<wgt id='12005'>0.33934E+02</wgt>
<wgt id='12006'>0.33774E+02</wgt>
<wgt id='12007'>0.33954E+02</wgt>
<wgt id='12008'>0.33756E+02</wgt>
<wgt id='12009'>0.33916E+02</wgt>
<wgt id='12010'>0.33792E+02</wgt>
<wgt id='12011'>0.33741E+02</wgt>
<wgt id='12012'>0.33977E+02</wgt>
<wgt id='12013'>0.33681E+02</wgt>
<wgt id='12014'>0.34028E+02</wgt>
<wgt id='12015'>0.33901E+02</wgt>
<wgt id='12016'>0.33752E+02</wgt>
<wgt id='12017'>0.34018E+02</wgt>
<wgt id='12018'>0.33691E+02</wgt>
<wgt id='12019'>0.33692E+02</wgt>
<wgt id='12020'>0.34003E+02</wgt>
<wgt id='12021'>0.33949E+02</wgt>
<wgt id='12022'>0.33717E+02</wgt>
<wgt id='12023'>0.33660E+02</wgt>
<wgt id='12024'>0.33843E+02</wgt>
<wgt id='12025'>0.33940E+02</wgt>
<wgt id='12026'>0.33835E+02</wgt>
<wgt id='12027'>0.33942E+02</wgt>
<wgt id='12028'>0.33789E+02</wgt>
<wgt id='12050'>0.33854E+02</wgt>
<wgt id='12051'>0.33806E+02</wgt>
<wgt id='12052'>0.33872E+02</wgt>
<wgt id='12053'>0.33791E+02</wgt>
<wgt id='12054'>0.33869E+02</wgt>
<wgt id='12055'>0.33973E+02</wgt>
<wgt id='12056'>0.33639E+02</wgt>
<wgt id='12057'>0.33736E+02</wgt>
<wgt id='12058'>0.33967E+02</wgt>
<wgt id='12059'>0.33814E+02</wgt>
<wgt id='12060'>0.33902E+02</wgt>
<wgt id='12061'>0.33795E+02</wgt>
<wgt id='12062'>0.33914E+02</wgt>
<wgt id='12063'>0.33460E+02</wgt>
<wgt id='13000'>0.30935E+02</wgt>
<wgt id='13001'>0.30909E+02</wgt>
<wgt id='13002'>0.30952E+02</wgt>
<wgt id='13003'>0.30960E+02</wgt>
<wgt id='13004'>0.30902E+02</wgt>
<wgt id='13005'>0.31023E+02</wgt>
<wgt id='13006'>0.30838E+02</wgt>
<wgt id='13007'>0.31081E+02</wgt>
<wgt id='13008'>0.30784E+02</wgt>
<wgt id='13009'>0.30903E+02</wgt>
<wgt id='13010'>0.30961E+02</wgt>
<wgt id='13011'>0.31041E+02</wgt>
<wgt id='13012'>0.30819E+02</wgt>
<wgt id='13013'>0.30804E+02</wgt>
<wgt id='13014'>0.31056E+02</wgt>
<wgt id='13015'>0.30873E+02</wgt>
<wgt id='13016'>0.30945E+02</wgt>
<wgt id='13017'>0.30894E+02</wgt>
<wgt id='13018'>0.30960E+02</wgt>
<wgt id='13019'>0.30810E+02</wgt>
<wgt id='13020'>0.31048E+02</wgt>
<wgt id='13021'>0.30692E+02</wgt>
<wgt id='13022'>0.31119E+02</wgt>
<wgt id='13023'>0.30967E+02</wgt>
<wgt id='13024'>0.30904E+02</wgt>
<wgt id='13025'>0.30823E+02</wgt>
<wgt id='13026'>0.30973E+02</wgt>
<wgt id='13027'>0.30951E+02</wgt>
<wgt id='13028'>0.30941E+02</wgt>
<wgt id='13050'>0.30935E+02</wgt>
<wgt id='13051'>0.30942E+02</wgt>
<wgt id='13052'>0.30787E+02</wgt>
<wgt id='13053'>0.30915E+02</wgt>
<wgt id='13054'>0.30915E+02</wgt>
<wgt id='13055'>0.30965E+02</wgt>
<wgt id='13056'>0.30785E+02</wgt>
<wgt id='13057'>0.30830E+02</wgt>
<wgt id='13058'>0.31096E+02</wgt>
<wgt id='13059'>0.30871E+02</wgt>
<wgt id='13060'>0.30989E+02</wgt>
<wgt id='13061'>0.30848E+02</wgt>
<wgt id='13062'>0.31175E+02</wgt>
<wgt id='13063'>0.30695E+02</wgt>
<wgt id='14000'>0.31908E+02</wgt>
<wgt id='14001'>0.31903E+02</wgt>
<wgt id='14002'>0.31897E+02</wgt>
<wgt id='14003'>0.31891E+02</wgt>
<wgt id='14004'>0.31886E+02</wgt>
<wgt id='14005'>0.31880E+02</wgt>
<wgt id='14006'>0.31875E+02</wgt>
<wgt id='14007'>0.31869E+02</wgt>
<wgt id='14008'>0.31863E+02</wgt>
<wgt id='14009'>0.31858E+02</wgt>
<wgt id='14010'>0.31852E+02</wgt>
<wgt id='14011'>0.31847E+02</wgt>
<wgt id='14012'>0.31841E+02</wgt>
<wgt id='14013'>0.31835E+02</wgt>
<wgt id='14014'>0.31830E+02</wgt>
<wgt id='14015'>0.31824E+02</wgt>
<wgt id='14016'>0.31818E+02</wgt>
<wgt id='14017'>0.31813E+02</wgt>
<wgt id='14018'>0.31807E+02</wgt>
<wgt id='14019'>0.31802E+02</wgt>
<wgt id='14020'>0.31796E+02</wgt>
<wgt id='14021'>0.31790E+02</wgt>
<wgt id='14022'>0.31785E+02</wgt>
<wgt id='14023'>0.31779E+02</wgt>
<wgt id='14024'>0.31774E+02</wgt>
<wgt id='14025'>0.31768E+02</wgt>
<wgt id='14026'>0.31762E+02</wgt>
<wgt id='14027'>0.31757E+02</wgt>
<wgt id='14028'>0.31751E+02</wgt>
<wgt id='14029'>0.31745E+02</wgt>
<wgt id='14030'>0.31740E+02</wgt>
<wgt id='15000'>0.30342E+02</wgt>
<wgt id='15001'>0.30364E+02</wgt>
<wgt id='15002'>0.30489E+02</wgt>
<wgt id='15003'>0.30067E+02</wgt>
<wgt id='15004'>0.30289E+02</wgt>
<wgt id='15005'>0.30511E+02</wgt>
<wgt id='15006'>0.30261E+02</wgt>
<wgt id='15007'>0.30290E+02</wgt>
<wgt id='15008'>0.30398E+02</wgt>
<wgt id='15009'>0.30334E+02</wgt>
<wgt id='15010'>0.30265E+02</wgt>
<wgt id='15011'>0.30736E+02</wgt>
<wgt id='15012'>0.30009E+02</wgt>
<wgt id='15013'>0.29906E+02</wgt>
<wgt id='15014'>0.29963E+02</wgt>
<wgt id='15015'>0.30261E+02</wgt>
<wgt id='15016'>0.30561E+02</wgt>
<wgt id='15017'>0.30323E+02</wgt>
<wgt id='15018'>0.30320E+02</wgt>
<wgt id='15019'>0.30305E+02</wgt>
<wgt id='15020'>0.30650E+02</wgt>
<wgt id='15021'>0.30327E+02</wgt>
<wgt id='15022'>0.30360E+02</wgt>
<wgt id='15023'>0.30375E+02</wgt>
<wgt id='15024'>0.30299E+02</wgt>
<wgt id='15025'>0.30348E+02</wgt>
<wgt id='15026'>0.30378E+02</wgt>
<wgt id='15027'>0.30295E+02</wgt>
<wgt id='15028'>0.30360E+02</wgt>
<wgt id='15029'>0.30383E+02</wgt>
<wgt id='15030'>0.30369E+02</wgt>
<wgt id='15031'>0.30347E+02</wgt>
<wgt id='15032'>0.30351E+02</wgt>
<wgt id='15033'>0.30375E+02</wgt>
<wgt id='15034'>0.30311E+02</wgt>
<wgt id='15035'>0.30398E+02</wgt>
<wgt id='15036'>0.30334E+02</wgt>
<wgt id='15037'>0.30381E+02</wgt>
<wgt id='15038'>0.30338E+02</wgt>
<wgt id='15039'>0.30333E+02</wgt>
<wgt id='15040'>0.30294E+02</wgt>
<wgt id='15041'>0.30326E+02</wgt>
<wgt id='15042'>0.30329E+02</wgt>
<wgt id='15043'>0.30326E+02</wgt>
<wgt id='15044'>0.30343E+02</wgt>
<wgt id='15045'>0.30338E+02</wgt>
<wgt id='15046'>0.30296E+02</wgt>
<wgt id='15047'>0.30317E+02</wgt>
<wgt id='15048'>0.30354E+02</wgt>
<wgt id='15049'>0.30330E+02</wgt>
<wgt id='15050'>0.30357E+02</wgt>
<wgt id='15051'>0.30343E+02</wgt>
<wgt id='15052'>0.30333E+02</wgt>
<wgt id='15053'>0.30337E+02</wgt>
<wgt id='15054'>0.30327E+02</wgt>
<wgt id='15055'>0.30344E+02</wgt>
<wgt id='15056'>0.30383E+02</wgt>
<wgt id='15057'>0.30345E+02</wgt>
<wgt id='15058'>0.30317E+02</wgt>
<wgt id='15059'>0.30325E+02</wgt>
<wgt id='15060'>0.30327E+02</wgt>
<wgt id='15061'>0.30355E+02</wgt>
<wgt id='15062'>0.30345E+02</wgt>
<wgt id='15063'>0.30359E+02</wgt>
<wgt id='15064'>0.30320E+02</wgt>
<wgt id='15065'>0.30345E+02</wgt>
<wgt id='15066'>0.30353E+02</wgt>
<wgt id='15067'>0.30363E+02</wgt>
<wgt id='15068'>0.30353E+02</wgt>
<wgt id='15069'>0.30351E+02</wgt>
<wgt id='15070'>0.30337E+02</wgt>
<wgt id='15071'>0.30366E+02</wgt>
<wgt id='15072'>0.30358E+02</wgt>
<wgt id='15073'>0.30329E+02</wgt>
<wgt id='15074'>0.30343E+02</wgt>
<wgt id='15075'>0.30344E+02</wgt>
<wgt id='15076'>0.30333E+02</wgt>
<wgt id='15077'>0.30342E+02</wgt>
<wgt id='15078'>0.30335E+02</wgt>
<wgt id='15079'>0.30344E+02</wgt>
<wgt id='15080'>0.30359E+02</wgt>
<wgt id='15081'>0.30341E+02</wgt>
<wgt id='15082'>0.30352E+02</wgt>
<wgt id='15083'>0.30329E+02</wgt>
<wgt id='15084'>0.30338E+02</wgt>
<wgt id='15085'>0.30341E+02</wgt>
<wgt id='15086'>0.30348E+02</wgt>
<wgt id='15087'>0.30332E+02</wgt>
<wgt id='15088'>0.30335E+02</wgt>
<wgt id='15089'>0.30335E+02</wgt>
<wgt id='15090'>0.30344E+02</wgt>
<wgt id='15091'>0.30336E+02</wgt>
<wgt id='15092'>0.30346E+02</wgt>
<wgt id='15093'>0.30339E+02</wgt>
<wgt id='15094'>0.30337E+02</wgt>
<wgt id='15095'>0.30345E+02</wgt>
<wgt id='15096'>0.30339E+02</wgt>
<wgt id='15097'>0.30343E+02</wgt>
<wgt id='15098'>0.30339E+02</wgt>
<wgt id='15099'>0.30337E+02</wgt>
<wgt id='15100'>0.30341E+02</wgt>
<wgt id='15101'>0.30341E+02</wgt>
<wgt id='15102'>0.30339E+02</wgt>
<wgt id='15103'>0.30342E+02</wgt>
<wgt id='15104'>0.30342E+02</wgt>
<wgt id='15105'>0.30343E+02</wgt>
<wgt id='15106'>0.30342E+02</wgt>
<wgt id='15107'>0.30340E+02</wgt>
<wgt id='1500'>0.32114E+02</wgt>
<wgt id='1501'>0.29550E+02</wgt>
<wgt id='1502'>0.32130E+02</wgt>
<wgt id='1503'>0.31885E+02</wgt>
<wgt id='1504'>0.31550E+02</wgt>
<wgt id='1505'>0.28352E+02</wgt>
<wgt id='1506'>0.32227E+02</wgt>
<wgt id='1507'>0.32755E+02</wgt>
<wgt id='1508'>0.31983E+02</wgt>
<wgt id='1509'>0.32109E+02</wgt>
<wgt id='1510'>0.31054E+02</wgt>
<wgt id='1511'>0.31023E+02</wgt>
<wgt id='1512'>0.32762E+02</wgt>
<wgt id='1513'>0.32592E+02</wgt>
<wgt id='1514'>0.31192E+02</wgt>
<wgt id='1515'>0.32355E+02</wgt>
<wgt id='1516'>0.32857E+02</wgt>
<wgt id='1517'>0.30995E+02</wgt>
<wgt id='1518'>0.31823E+02</wgt>
<wgt id='1519'>0.32690E+02</wgt>
<wgt id='1520'>0.32901E+02</wgt>
<wgt id='1521'>0.32312E+02</wgt>
<wgt id='1522'>0.32174E+02</wgt>
<wgt id='1523'>0.34959E+02</wgt>
<wgt id='1524'>0.32003E+02</wgt>
<wgt id='1525'>0.32496E+02</wgt>
<wgt id='1526'>0.31695E+02</wgt>
<wgt id='1527'>0.31450E+02</wgt>
<wgt id='1528'>0.31621E+02</wgt>
<wgt id='1529'>0.31592E+02</wgt>
<wgt id='1530'>0.32944E+02</wgt>
<wgt id='1531'>0.32080E+02</wgt>
<wgt id='1532'>0.31149E+02</wgt>
<wgt id='1533'>0.32731E+02</wgt>
<wgt id='1534'>0.32525E+02</wgt>
<wgt id='1535'>0.32751E+02</wgt>
<wgt id='1536'>0.33280E+02</wgt>
<wgt id='1537'>0.32434E+02</wgt>
<wgt id='1538'>0.32210E+02</wgt>
<wgt id='1539'>0.31013E+02</wgt>
<wgt id='1540'>0.32603E+02</wgt>
<wgt id='1541'>0.32378E+02</wgt>
<wgt id='1542'>0.32502E+02</wgt>
<wgt id='1543'>0.32501E+02</wgt>
<wgt id='1544'>0.31778E+02</wgt>
<wgt id='1545'>0.32910E+02</wgt>
<wgt id='1546'>0.32905E+02</wgt>
<wgt id='1547'>0.31471E+02</wgt>
<wgt id='1548'>0.31441E+02</wgt>
<wgt id='1549'>0.32342E+02</wgt>
<wgt id='1550'>0.32271E+02</wgt>
<wgt id='1551'>0.32066E+02</wgt>
<wgt id='1552'>0.32007E+02</wgt>
<wgt id='1553'>0.32821E+02</wgt>
<wgt id='1554'>0.31779E+02</wgt>
<wgt id='1555'>0.32133E+02</wgt>
<wgt id='1556'>0.30983E+02</wgt>
<wgt id='1557'>0.33652E+02</wgt>
<wgt id='1558'>0.31679E+02</wgt>
<wgt id='1559'>0.32577E+02</wgt>
<wgt id='1560'>0.32207E+02</wgt>
<wgt id='1561'>0.32475E+02</wgt>
<wgt id='1562'>0.32342E+02</wgt>
<wgt id='1563'>0.32258E+02</wgt>
<wgt id='1564'>0.31431E+02</wgt>
<wgt id='1565'>0.32135E+02</wgt>
<wgt id='1566'>0.32201E+02</wgt>
<wgt id='1567'>0.34078E+02</wgt>
<wgt id='1568'>0.31675E+02</wgt>
<wgt id='1569'>0.30974E+02</wgt>
<wgt id='1570'>0.31785E+02</wgt>
<wgt id='1571'>0.33186E+02</wgt>
<wgt id='1572'>0.32039E+02</wgt>
<wgt id='1573'>0.29453E+02</wgt>
<wgt id='1574'>0.32214E+02</wgt>
<wgt id='1575'>0.31944E+02</wgt>
<wgt id='1576'>0.31251E+02</wgt>
<wgt id='1577'>0.32454E+02</wgt>
<wgt id='1578'>0.33087E+02</wgt>
<wgt id='1579'>0.32039E+02</wgt>
<wgt id='1580'>0.32404E+02</wgt>
<wgt id='1581'>0.32672E+02</wgt>
<wgt id='1582'>0.31733E+02</wgt>
<wgt id='1583'>0.32352E+02</wgt>
<wgt id='1584'>0.32334E+02</wgt>
<wgt id='1585'>0.31053E+02</wgt>
<wgt id='1586'>0.31797E+02</wgt>
<wgt id='1587'>0.31969E+02</wgt>
<wgt id='1588'>0.32018E+02</wgt>
<wgt id='1589'>0.32960E+02</wgt>
<wgt id='1590'>0.31859E+02</wgt>
<wgt id='1591'>0.31300E+02</wgt>
<wgt id='1592'>0.32959E+02</wgt>
<wgt id='1593'>0.31933E+02</wgt>
<wgt id='1594'>0.33041E+02</wgt>
<wgt id='1595'>0.31233E+02</wgt>
<wgt id='1596'>0.32554E+02</wgt>
<wgt id='1597'>0.32274E+02</wgt>
<wgt id='1598'>0.33964E+02</wgt>
<wgt id='1599'>0.32973E+02</wgt>
<wgt id='1600'>0.31912E+02</wgt>
<wgt id='1601'>0.31655E+02</wgt>
<wgt id='1602'>0.32286E+02</wgt>
<wgt id='1700'>0.30935E+02</wgt>
<wgt id='1800'>0.36360E+02</wgt>
<wgt id='1850'>0.43136E+02</wgt>
<wgt id='1900'>0.35954E+02</wgt>
<wgt id='1950'>0.41488E+02</wgt>
</rwgt>
</event>
<event>
      4   9999  3.15120E+01  1.85869E+01 -1.00000E+00  1.66047E-01
      21    -1     0     0   502   501  0.000000000E+00  0.000000000E+00  1.809653507E+01  1.809653507E+01  0.000000000E+00  0.00000E+00  9.000E+00
      21    -1     0     0   501   512  0.000000000E+00  0.000000000E+00 -4.045651210E+02  4.045651210E+02  0.000000000E+00  0.00000E+00  9.000E+00
      25     1     1     2     0     0 -1.825441557E+01  3.499826442E+00 -1.910942844E+02  2.264052162E+02  1.199867657E+02  0.00000E+00  9.000E+00
      21     1     1     2   502   512  1.825441557E+01 -3.499826442E+00 -1.953743015E+02  1.962564398E+02  2.697398305E-06  0.00000E+00  9.000E+00
#rwgt            1           1   30.400071624774260                2        2410           0
<rwgt>
<wgt id='1001'>0.31512E+02</wgt>
<wgt id='1002'>0.27072E+02</wgt>
<wgt id='1003'>0.35756E+02</wgt>
<wgt id='1004'>0.28132E+02</wgt>
<wgt id='1005'>0.24978E+02</wgt>
<wgt id='1006'>0.31058E+02</wgt>
<wgt id='1007'>0.35162E+02</wgt>
<wgt id='1008'>0.28734E+02</wgt>
<wgt id='1009'>0.41467E+02</wgt>
<wgt id='2000'>0.31512E+02</wgt>
<wgt id='2001'>0.31464E+02</wgt>
<wgt id='2002'>0.31616E+02</wgt>
<wgt id='2003'>0.31590E+02</wgt>
<wgt id='2004'>0.31530E+02</wgt>
<wgt id='2005'>0.31469E+02</wgt>
<wgt id='2006'>0.31461E+02</wgt>
<wgt id='2007'>0.31434E+02</wgt>
<wgt id='2008'>0.31517E+02</wgt>
<wgt id='2009'>0.31502E+02</wgt>
<wgt id='2010'>0.31475E+02</wgt>
<wgt id='2011'>0.31641E+02</wgt>
<wgt id='2012'>0.31649E+02</wgt>
<wgt id='2013'>0.31694E+02</wgt>
<wgt id='2014'>0.31602E+02</wgt>
<wgt id='2015'>0.31577E+02</wgt>
<wgt id='2016'>0.31493E+02</wgt>
<wgt id='2017'>0.31511E+02</wgt>
<wgt id='2018'>0.31602E+02</wgt>
<wgt id='2019'>0.31502E+02</wgt>
<wgt id='2020'>0.31635E+02</wgt>
<wgt id='2021'>0.31453E+02</wgt>
<wgt id='2022'>0.31609E+02</wgt>
<wgt id='2023'>0.31576E+02</wgt>
<wgt id='2024'>0.31529E+02</wgt>
<wgt id='2025'>0.31609E+02</wgt>
<wgt id='2026'>0.31560E+02</wgt>
<wgt id='2027'>0.31483E+02</wgt>
<wgt id='2028'>0.31484E+02</wgt>
<wgt id='2029'>0.31526E+02</wgt>
<wgt id='2030'>0.31532E+02</wgt>
<wgt id='2031'>0.31521E+02</wgt>
<wgt id='2032'>0.31517E+02</wgt>
<wgt id='2033'>0.31519E+02</wgt>
<wgt id='2034'>0.31495E+02</wgt>
<wgt id='2035'>0.31506E+02</wgt>
<wgt id='2036'>0.31516E+02</wgt>
<wgt id='2037'>0.31496E+02</wgt>
<wgt id='2038'>0.31510E+02</wgt>
<wgt id='2039'>0.31525E+02</wgt>
<wgt id='2040'>0.31526E+02</wgt>
<wgt id='2041'>0.31515E+02</wgt>
<wgt id='2042'>0.31482E+02</wgt>
<wgt id='2043'>0.31501E+02</wgt>
<wgt id='2044'>0.31516E+02</wgt>
<wgt id='2045'>0.31511E+02</wgt>
<wgt id='2046'>0.31540E+02</wgt>
<wgt id='2047'>0.31537E+02</wgt>
<wgt id='2048'>0.31503E+02</wgt>
<wgt id='2049'>0.31504E+02</wgt>
<wgt id='2050'>0.31535E+02</wgt>
<wgt id='2051'>0.31518E+02</wgt>
<wgt id='2052'>0.31500E+02</wgt>
<wgt id='2053'>0.31511E+02</wgt>
<wgt id='2054'>0.31517E+02</wgt>
<wgt id='2055'>0.31526E+02</wgt>
<wgt id='2056'>0.31506E+02</wgt>
<wgt id='2057'>0.31502E+02</wgt>
<wgt id='2058'>0.31514E+02</wgt>
<wgt id='2059'>0.31511E+02</wgt>
<wgt id='2060'>0.31515E+02</wgt>
<wgt id='2061'>0.31509E+02</wgt>
<wgt id='2062'>0.31520E+02</wgt>
<wgt id='2063'>0.31503E+02</wgt>
<wgt id='2064'>0.31505E+02</wgt>
<wgt id='2065'>0.31522E+02</wgt>
<wgt id='2066'>0.31506E+02</wgt>
<wgt id='2067'>0.31514E+02</wgt>
<wgt id='2068'>0.31517E+02</wgt>
<wgt id='2069'>0.31508E+02</wgt>
<wgt id='2070'>0.31512E+02</wgt>
<wgt id='2071'>0.31499E+02</wgt>
<wgt id='2072'>0.31511E+02</wgt>
<wgt id='2073'>0.31516E+02</wgt>
<wgt id='2074'>0.31504E+02</wgt>
<wgt id='2075'>0.31517E+02</wgt>
<wgt id='2076'>0.31504E+02</wgt>
<wgt id='2077'>0.31517E+02</wgt>
<wgt id='2078'>0.31508E+02</wgt>
<wgt id='2079'>0.31513E+02</wgt>
<wgt id='2080'>0.31506E+02</wgt>
<wgt id='2081'>0.31513E+02</wgt>
<wgt id='2082'>0.31510E+02</wgt>
<wgt id='2083'>0.31510E+02</wgt>
<wgt id='2084'>0.31515E+02</wgt>
<wgt id='2085'>0.31506E+02</wgt>
<wgt id='2086'>0.31509E+02</wgt>
<wgt id='2087'>0.31514E+02</wgt>
<wgt id='2088'>0.31515E+02</wgt>
<wgt id='2089'>0.31511E+02</wgt>
<wgt id='2090'>0.31514E+02</wgt>
<wgt id='2091'>0.31513E+02</wgt>
<wgt id='2092'>0.31515E+02</wgt>
<wgt id='2093'>0.31512E+02</wgt>
<wgt id='2094'>0.31513E+02</wgt>
<wgt id='2095'>0.31511E+02</wgt>
<wgt id='2096'>0.31514E+02</wgt>
<wgt id='2097'>0.31510E+02</wgt>
<wgt id='2098'>0.31515E+02</wgt>
<wgt id='2099'>0.31515E+02</wgt>
<wgt id='2100'>0.31508E+02</wgt>
<wgt id='2101'>0.30794E+02</wgt>
<wgt id='2102'>0.32136E+02</wgt>
<wgt id='2104'>0.28196E+02</wgt>
<wgt id='2105'>0.28785E+02</wgt>
<wgt id='2106'>0.29478E+02</wgt>
<wgt id='2107'>0.30182E+02</wgt>
<wgt id='2108'>0.31210E+02</wgt>
<wgt id='2109'>0.31915E+02</wgt>
<wgt id='2110'>0.32728E+02</wgt>
<wgt id='2111'>0.33399E+02</wgt>
<wgt id='3000'>0.32885E+02</wgt>
<wgt id='3001'>0.32985E+02</wgt>
<wgt id='3002'>0.32780E+02</wgt>
<wgt id='3003'>0.32978E+02</wgt>
<wgt id='3004'>0.32944E+02</wgt>
<wgt id='3005'>0.32991E+02</wgt>
<wgt id='3006'>0.32917E+02</wgt>
<wgt id='3007'>0.32903E+02</wgt>
<wgt id='3008'>0.32809E+02</wgt>
<wgt id='3009'>0.32792E+02</wgt>
<wgt id='3010'>0.32787E+02</wgt>
<wgt id='3011'>0.32957E+02</wgt>
<wgt id='3012'>0.33073E+02</wgt>
<wgt id='3013'>0.32697E+02</wgt>
<wgt id='3014'>0.32972E+02</wgt>
<wgt id='3015'>0.32943E+02</wgt>
<wgt id='3016'>0.32909E+02</wgt>
<wgt id='3017'>0.32984E+02</wgt>
<wgt id='3018'>0.32949E+02</wgt>
<wgt id='3019'>0.32776E+02</wgt>
<wgt id='3020'>0.32803E+02</wgt>
<wgt id='3021'>0.32765E+02</wgt>
<wgt id='3022'>0.32874E+02</wgt>
<wgt id='3023'>0.32811E+02</wgt>
<wgt id='3024'>0.32813E+02</wgt>
<wgt id='3025'>0.32880E+02</wgt>
<wgt id='3026'>0.32939E+02</wgt>
<wgt id='3027'>0.32897E+02</wgt>
<wgt id='3028'>0.32805E+02</wgt>
<wgt id='3029'>0.32899E+02</wgt>
<wgt id='3030'>0.32898E+02</wgt>
<wgt id='3031'>0.32886E+02</wgt>
<wgt id='3032'>0.32895E+02</wgt>
<wgt id='3033'>0.32887E+02</wgt>
<wgt id='3034'>0.32902E+02</wgt>
<wgt id='3035'>0.32875E+02</wgt>
<wgt id='3036'>0.32883E+02</wgt>
<wgt id='3037'>0.32901E+02</wgt>
<wgt id='3038'>0.32876E+02</wgt>
<wgt id='3039'>0.32890E+02</wgt>
<wgt id='3040'>0.32885E+02</wgt>
<wgt id='3041'>0.32880E+02</wgt>
<wgt id='3042'>0.32874E+02</wgt>
<wgt id='3043'>0.32876E+02</wgt>
<wgt id='3044'>0.32898E+02</wgt>
<wgt id='3045'>0.32891E+02</wgt>
<wgt id='3046'>0.32910E+02</wgt>
<wgt id='3047'>0.32887E+02</wgt>
<wgt id='3048'>0.32884E+02</wgt>
<wgt id='3049'>0.32881E+02</wgt>
<wgt id='3050'>0.32853E+02</wgt>
<wgt id='3051'>0.32925E+02</wgt>
<wgt id='3052'>0.32875E+02</wgt>
<wgt id='3053'>0.32878E+02</wgt>
<wgt id='3054'>0.32882E+02</wgt>
<wgt id='3055'>0.32904E+02</wgt>
<wgt id='3056'>0.32893E+02</wgt>
<wgt id='3057'>0.32881E+02</wgt>
<wgt id='3058'>0.32879E+02</wgt>
<wgt id='3059'>0.32886E+02</wgt>
<wgt id='3060'>0.32887E+02</wgt>
<wgt id='3061'>0.32896E+02</wgt>
<wgt id='3062'>0.32887E+02</wgt>
<wgt id='3063'>0.32894E+02</wgt>
<wgt id='3064'>0.32877E+02</wgt>
<wgt id='3065'>0.32888E+02</wgt>
<wgt id='3066'>0.32883E+02</wgt>
<wgt id='3067'>0.32870E+02</wgt>
<wgt id='3068'>0.32887E+02</wgt>
<wgt id='3069'>0.32875E+02</wgt>
<wgt id='3070'>0.32875E+02</wgt>
<wgt id='3071'>0.32887E+02</wgt>
<wgt id='3072'>0.32891E+02</wgt>
<wgt id='3073'>0.32883E+02</wgt>
<wgt id='3074'>0.32884E+02</wgt>
<wgt id='3075'>0.32886E+02</wgt>
<wgt id='3076'>0.32876E+02</wgt>
<wgt id='3077'>0.32878E+02</wgt>
<wgt id='3078'>0.32890E+02</wgt>
<wgt id='3079'>0.32891E+02</wgt>
<wgt id='3080'>0.32882E+02</wgt>
<wgt id='3081'>0.32886E+02</wgt>
<wgt id='3082'>0.32890E+02</wgt>
<wgt id='3083'>0.32879E+02</wgt>
<wgt id='3084'>0.32884E+02</wgt>
<wgt id='3085'>0.32881E+02</wgt>
<wgt id='3086'>0.32890E+02</wgt>
<wgt id='3087'>0.32888E+02</wgt>
<wgt id='3088'>0.32882E+02</wgt>
<wgt id='3089'>0.32887E+02</wgt>
<wgt id='3090'>0.32880E+02</wgt>
<wgt id='3091'>0.32884E+02</wgt>
<wgt id='3092'>0.32886E+02</wgt>
<wgt id='3093'>0.32886E+02</wgt>
<wgt id='3094'>0.32888E+02</wgt>
<wgt id='3095'>0.32882E+02</wgt>
<wgt id='3096'>0.32883E+02</wgt>
<wgt id='3097'>0.32883E+02</wgt>
<wgt id='3098'>0.32888E+02</wgt>
<wgt id='3099'>0.32886E+02</wgt>
<wgt id='3100'>0.32886E+02</wgt>
<wgt id='3101'>0.32170E+02</wgt>
<wgt id='3102'>0.33731E+02</wgt>
<wgt id='5000'>0.30603E+02</wgt>
<wgt id='5001'>0.30470E+02</wgt>
<wgt id='5002'>0.30537E+02</wgt>
<wgt id='5003'>0.30434E+02</wgt>
<wgt id='5004'>0.30681E+02</wgt>
<wgt id='5005'>0.30004E+02</wgt>
<wgt id='5006'>0.30991E+02</wgt>
<wgt id='5007'>0.30725E+02</wgt>
<wgt id='5008'>0.30272E+02</wgt>
<wgt id='5009'>0.30947E+02</wgt>
<wgt id='5010'>0.30407E+02</wgt>
<wgt id='5011'>0.30568E+02</wgt>
<wgt id='5012'>0.30552E+02</wgt>
<wgt id='5013'>0.30081E+02</wgt>
<wgt id='5014'>0.30516E+02</wgt>
<wgt id='5015'>0.30820E+02</wgt>
<wgt id='5016'>0.29919E+02</wgt>
<wgt id='5017'>0.30641E+02</wgt>
<wgt id='5018'>0.30565E+02</wgt>
<wgt id='5019'>0.30483E+02</wgt>
<wgt id='5020'>0.30706E+02</wgt>
<wgt id='5021'>0.30701E+02</wgt>
<wgt id='5022'>0.30540E+02</wgt>
<wgt id='5023'>0.30485E+02</wgt>
<wgt id='5024'>0.30724E+02</wgt>
<wgt id='5025'>0.30579E+02</wgt>
<wgt id='5026'>0.30623E+02</wgt>
<wgt id='5027'>0.30923E+02</wgt>
<wgt id='5028'>0.30062E+02</wgt>
<wgt id='5029'>0.30037E+02</wgt>
<wgt id='5030'>0.30941E+02</wgt>
<wgt id='5031'>0.30267E+02</wgt>
<wgt id='5032'>0.31084E+02</wgt>
<wgt id='5033'>0.30386E+02</wgt>
<wgt id='5034'>0.30787E+02</wgt>
<wgt id='5035'>0.30166E+02</wgt>
<wgt id='5036'>0.30961E+02</wgt>
<wgt id='5037'>0.30521E+02</wgt>
<wgt id='5038'>0.30679E+02</wgt>
<wgt id='5039'>0.31124E+02</wgt>
<wgt id='5040'>0.30342E+02</wgt>
<wgt id='5041'>0.30252E+02</wgt>
<wgt id='5042'>0.30662E+02</wgt>
<wgt id='5043'>0.30937E+02</wgt>
<wgt id='5044'>0.29761E+02</wgt>
<wgt id='5045'>0.31427E+02</wgt>
<wgt id='5046'>0.30390E+02</wgt>
<wgt id='5047'>0.30720E+02</wgt>
<wgt id='5048'>0.30815E+02</wgt>
<wgt id='5049'>0.30620E+02</wgt>
<wgt id='5050'>0.30688E+02</wgt>
<wgt id='5051'>0.30692E+02</wgt>
<wgt id='5052'>0.30582E+02</wgt>
<wgt id='5053'>0.30411E+02</wgt>
<wgt id='5054'>0.31199E+02</wgt>
<wgt id='5055'>0.30433E+02</wgt>
<wgt id='5056'>0.30775E+02</wgt>
<wgt id='5060'>0.29910E+02</wgt>
<wgt id='5070'>0.31202E+02</wgt>
<wgt id='4000'>0.32202E+02</wgt>
<wgt id='4001'>0.32240E+02</wgt>
<wgt id='4002'>0.32298E+02</wgt>
<wgt id='4003'>0.32796E+02</wgt>
<wgt id='4004'>0.31956E+02</wgt>
<wgt id='4005'>0.32351E+02</wgt>
<wgt id='4006'>0.32093E+02</wgt>
<wgt id='4007'>0.32506E+02</wgt>
<wgt id='4008'>0.32117E+02</wgt>
<wgt id='4009'>0.31534E+02</wgt>
<wgt id='4010'>0.32688E+02</wgt>
<wgt id='4011'>0.32661E+02</wgt>
<wgt id='4012'>0.31944E+02</wgt>
<wgt id='4013'>0.30981E+02</wgt>
<wgt id='4014'>0.32878E+02</wgt>
<wgt id='4015'>0.32498E+02</wgt>
<wgt id='4016'>0.32014E+02</wgt>
<wgt id='4017'>0.31862E+02</wgt>
<wgt id='4018'>0.32605E+02</wgt>
<wgt id='4019'>0.32614E+02</wgt>
<wgt id='4020'>0.31734E+02</wgt>
<wgt id='4021'>0.32263E+02</wgt>
<wgt id='4022'>0.32054E+02</wgt>
<wgt id='4023'>0.32073E+02</wgt>
<wgt id='4024'>0.32308E+02</wgt>
<wgt id='4025'>0.31819E+02</wgt>
<wgt id='4026'>0.32549E+02</wgt>
<wgt id='4027'>0.32099E+02</wgt>
<wgt id='4028'>0.32337E+02</wgt>
<wgt id='4029'>0.31987E+02</wgt>
<wgt id='4030'>0.32275E+02</wgt>
<wgt id='4031'>0.32244E+02</wgt>
<wgt id='4032'>0.32145E+02</wgt>
<wgt id='4033'>0.32181E+02</wgt>
<wgt id='4034'>0.32240E+02</wgt>
<wgt id='4035'>0.32615E+02</wgt>
<wgt id='4036'>0.31803E+02</wgt>
<wgt id='4037'>0.32440E+02</wgt>
<wgt id='4038'>0.31781E+02</wgt>
<wgt id='4039'>0.32149E+02</wgt>
<wgt id='4040'>0.32174E+02</wgt>
<wgt id='4041'>0.32434E+02</wgt>
<wgt id='4042'>0.31988E+02</wgt>
<wgt id='4043'>0.32348E+02</wgt>
<wgt id='4044'>0.32003E+02</wgt>
<wgt id='4045'>0.31866E+02</wgt>
<wgt id='4046'>0.32069E+02</wgt>
<wgt id='4047'>0.31815E+02</wgt>
<wgt id='4048'>0.32462E+02</wgt>
<wgt id='4049'>0.32273E+02</wgt>
<wgt id='4050'>0.31669E+02</wgt>
<wgt id='4051'>0.32121E+02</wgt>
<wgt id='4052'>0.32106E+02</wgt>
<wgt id='4053'>0.31367E+02</wgt>
<wgt id='4054'>0.32328E+02</wgt>
<wgt id='4055'>0.31990E+02</wgt>
<wgt id='4056'>0.32424E+02</wgt>
<wgt id='4060'>0.31361E+02</wgt>
<wgt id='4070'>0.32973E+02</wgt>
<wgt id='4080'>0.32287E+02</wgt>
<wgt id='6000'>0.32604E+02</wgt>
<wgt id='6001'>0.32627E+02</wgt>
<wgt id='6002'>0.32577E+02</wgt>
<wgt id='6003'>0.32615E+02</wgt>
<wgt id='6004'>0.32596E+02</wgt>
<wgt id='6005'>0.32674E+02</wgt>
<wgt id='6006'>0.32537E+02</wgt>
<wgt id='6007'>0.32463E+02</wgt>
<wgt id='6008'>0.32761E+02</wgt>
<wgt id='6009'>0.32727E+02</wgt>
<wgt id='6010'>0.32483E+02</wgt>
<wgt id='6011'>0.32681E+02</wgt>
<wgt id='6012'>0.32436E+02</wgt>
<wgt id='6013'>0.32563E+02</wgt>
<wgt id='6014'>0.32677E+02</wgt>
<wgt id='6015'>0.32495E+02</wgt>
<wgt id='6016'>0.32665E+02</wgt>
<wgt id='6017'>0.32407E+02</wgt>
<wgt id='6018'>0.32836E+02</wgt>
<wgt id='6019'>0.32635E+02</wgt>
<wgt id='6020'>0.32576E+02</wgt>
<wgt id='6021'>0.32540E+02</wgt>
<wgt id='6022'>0.32690E+02</wgt>
<wgt id='6023'>0.32378E+02</wgt>
<wgt id='6024'>0.32764E+02</wgt>
<wgt id='6025'>0.32328E+02</wgt>
<wgt id='6026'>0.32802E+02</wgt>
<wgt id='6027'>0.32700E+02</wgt>
<wgt id='6028'>0.32605E+02</wgt>
<wgt id='6029'>0.32774E+02</wgt>
<wgt id='6030'>0.32405E+02</wgt>
<wgt id='6031'>0.32626E+02</wgt>
<wgt id='6032'>0.32563E+02</wgt>
<wgt id='6033'>0.32670E+02</wgt>
<wgt id='6034'>0.32534E+02</wgt>
<wgt id='6035'>0.32592E+02</wgt>
<wgt id='6036'>0.32692E+02</wgt>
<wgt id='6037'>0.32677E+02</wgt>
<wgt id='6038'>0.32597E+02</wgt>
<wgt id='6039'>0.32567E+02</wgt>
<wgt id='6040'>0.32642E+02</wgt>
<wgt id='6041'>0.32556E+02</wgt>
<wgt id='6042'>0.32665E+02</wgt>
<wgt id='6043'>0.33039E+02</wgt>
<wgt id='6044'>0.32407E+02</wgt>
<wgt id='6045'>0.32577E+02</wgt>
<wgt id='6046'>0.32663E+02</wgt>
<wgt id='6047'>0.32609E+02</wgt>
<wgt id='6048'>0.32351E+02</wgt>
<wgt id='6049'>0.32612E+02</wgt>
<wgt id='6050'>0.32583E+02</wgt>
<wgt id='7000'>0.30604E+02</wgt>
<wgt id='7001'>0.30606E+02</wgt>
<wgt id='7002'>0.30602E+02</wgt>
<wgt id='7003'>0.30699E+02</wgt>
<wgt id='7004'>0.30509E+02</wgt>
<wgt id='7005'>0.30654E+02</wgt>
<wgt id='7006'>0.30584E+02</wgt>
<wgt id='7007'>0.30467E+02</wgt>
<wgt id='7008'>0.30739E+02</wgt>
<wgt id='7009'>0.30663E+02</wgt>
<wgt id='7010'>0.30546E+02</wgt>
<wgt id='7011'>0.30281E+02</wgt>
<wgt id='7012'>0.30743E+02</wgt>
<wgt id='7013'>0.30604E+02</wgt>
<wgt id='7014'>0.30602E+02</wgt>
<wgt id='7015'>0.30504E+02</wgt>
<wgt id='7016'>0.30711E+02</wgt>
<wgt id='7017'>0.30484E+02</wgt>
<wgt id='7018'>0.30666E+02</wgt>
<wgt id='7019'>0.30569E+02</wgt>
<wgt id='7020'>0.30652E+02</wgt>
<wgt id='7021'>0.30581E+02</wgt>
<wgt id='7022'>0.30618E+02</wgt>
<wgt id='7023'>0.30890E+02</wgt>
<wgt id='7024'>0.30317E+02</wgt>
<wgt id='7025'>0.30723E+02</wgt>
<wgt id='7026'>0.30313E+02</wgt>
<wgt id='7027'>0.30740E+02</wgt>
<wgt id='7028'>0.30552E+02</wgt>
<wgt id='7029'>0.30478E+02</wgt>
<wgt id='7030'>0.30915E+02</wgt>
<wgt id='7031'>0.30602E+02</wgt>
<wgt id='7032'>0.30611E+02</wgt>
<wgt id='7033'>0.30566E+02</wgt>
<wgt id='7034'>0.30693E+02</wgt>
<wgt id='7035'>0.30670E+02</wgt>
<wgt id='7036'>0.30588E+02</wgt>
<wgt id='7037'>0.30618E+02</wgt>
<wgt id='7038'>0.30606E+02</wgt>
<wgt id='7039'>0.30570E+02</wgt>
<wgt id='7040'>0.30626E+02</wgt>
<wgt id='7041'>0.30523E+02</wgt>
<wgt id='7042'>0.30681E+02</wgt>
<wgt id='7043'>0.30628E+02</wgt>
<wgt id='7044'>0.30464E+02</wgt>
<wgt id='7045'>0.30347E+02</wgt>
<wgt id='7046'>0.30699E+02</wgt>
<wgt id='7047'>0.30634E+02</wgt>
<wgt id='7048'>0.30577E+02</wgt>
<wgt id='7049'>0.30555E+02</wgt>
<wgt id='7050'>0.30576E+02</wgt>
<wgt id='7060'>0.47102E+02</wgt>
<wgt id='8000'>0.31158E+02</wgt>
<wgt id='8001'>0.31149E+02</wgt>
<wgt id='8002'>0.31166E+02</wgt>
<wgt id='8003'>0.31161E+02</wgt>
<wgt id='8004'>0.31157E+02</wgt>
<wgt id='8005'>0.31083E+02</wgt>
<wgt id='8006'>0.31138E+02</wgt>
<wgt id='8007'>0.31116E+02</wgt>
<wgt id='8008'>0.31216E+02</wgt>
<wgt id='8009'>0.31277E+02</wgt>
<wgt id='8010'>0.31159E+02</wgt>
<wgt id='8011'>0.31138E+02</wgt>
<wgt id='8012'>0.31120E+02</wgt>
<wgt id='8013'>0.31151E+02</wgt>
<wgt id='8014'>0.31145E+02</wgt>
<wgt id='8015'>0.31130E+02</wgt>
<wgt id='8016'>0.31168E+02</wgt>
<wgt id='8017'>0.31163E+02</wgt>
<wgt id='8018'>0.31159E+02</wgt>
<wgt id='8019'>0.31209E+02</wgt>
<wgt id='8020'>0.31062E+02</wgt>
<wgt id='8021'>0.31158E+02</wgt>
<wgt id='8022'>0.30988E+02</wgt>
<wgt id='8023'>0.31181E+02</wgt>
<wgt id='8024'>0.31210E+02</wgt>
<wgt id='8025'>0.31255E+02</wgt>
<wgt id='8026'>0.31222E+02</wgt>
<wgt id='8027'>0.31109E+02</wgt>
<wgt id='8028'>0.31189E+02</wgt>
<wgt id='8029'>0.30942E+02</wgt>
<wgt id='8500'>0.32341E+02</wgt>
<wgt id='8501'>0.32258E+02</wgt>
<wgt id='8502'>0.32572E+02</wgt>
<wgt id='8503'>0.32523E+02</wgt>
<wgt id='8504'>0.32283E+02</wgt>
<wgt id='8505'>0.32245E+02</wgt>
<wgt id='8506'>0.32253E+02</wgt>
<wgt id='8507'>0.32524E+02</wgt>
<wgt id='8508'>0.32727E+02</wgt>
<wgt id='8509'>0.32195E+02</wgt>
<wgt id='8510'>0.32765E+02</wgt>
<wgt id='8511'>0.32362E+02</wgt>
<wgt id='8512'>0.32004E+02</wgt>
<wgt id='8513'>0.32378E+02</wgt>
<wgt id='8514'>0.32150E+02</wgt>
<wgt id='8515'>0.32370E+02</wgt>
<wgt id='8516'>0.32430E+02</wgt>
<wgt id='8517'>0.32235E+02</wgt>
<wgt id='8518'>0.32247E+02</wgt>
<wgt id='8519'>0.32248E+02</wgt>
<wgt id='8520'>0.32365E+02</wgt>
<wgt id='8521'>0.32138E+02</wgt>
<wgt id='8522'>0.32374E+02</wgt>
<wgt id='8523'>0.32283E+02</wgt>
<wgt id='8524'>0.32284E+02</wgt>
<wgt id='8525'>0.32316E+02</wgt>
<wgt id='8526'>0.32296E+02</wgt>
<wgt id='8527'>0.32355E+02</wgt>
<wgt id='8528'>0.32256E+02</wgt>
<wgt id='8529'>0.32323E+02</wgt>
<wgt id='8530'>0.32323E+02</wgt>
<wgt id='8531'>0.32328E+02</wgt>
<wgt id='8532'>0.32345E+02</wgt>
<wgt id='8533'>0.32279E+02</wgt>
<wgt id='8534'>0.32356E+02</wgt>
<wgt id='8535'>0.32412E+02</wgt>
<wgt id='8536'>0.32317E+02</wgt>
<wgt id='8537'>0.32361E+02</wgt>
<wgt id='8538'>0.32309E+02</wgt>
<wgt id='8539'>0.32353E+02</wgt>
<wgt id='8540'>0.32340E+02</wgt>
<wgt id='8541'>0.32359E+02</wgt>
<wgt id='8542'>0.32369E+02</wgt>
<wgt id='8543'>0.32315E+02</wgt>
<wgt id='8544'>0.32371E+02</wgt>
<wgt id='8545'>0.32366E+02</wgt>
<wgt id='8546'>0.32375E+02</wgt>
<wgt id='8547'>0.32312E+02</wgt>
<wgt id='8548'>0.32316E+02</wgt>
<wgt id='8549'>0.32341E+02</wgt>
<wgt id='8550'>0.32344E+02</wgt>
<wgt id='8551'>0.32308E+02</wgt>
<wgt id='8552'>0.32346E+02</wgt>
<wgt id='8553'>0.32331E+02</wgt>
<wgt id='8554'>0.32327E+02</wgt>
<wgt id='8555'>0.32343E+02</wgt>
<wgt id='8556'>0.32340E+02</wgt>
<wgt id='8557'>0.32336E+02</wgt>
<wgt id='8558'>0.32382E+02</wgt>
<wgt id='8559'>0.32327E+02</wgt>
<wgt id='8560'>0.32303E+02</wgt>
<wgt id='8561'>0.32337E+02</wgt>
<wgt id='8562'>0.32311E+02</wgt>
<wgt id='8563'>0.32340E+02</wgt>
<wgt id='8564'>0.32333E+02</wgt>
<wgt id='8565'>0.32337E+02</wgt>
<wgt id='8566'>0.32327E+02</wgt>
<wgt id='8567'>0.32333E+02</wgt>
<wgt id='8568'>0.32353E+02</wgt>
<wgt id='8569'>0.32349E+02</wgt>
<wgt id='8570'>0.32344E+02</wgt>
<wgt id='8571'>0.32329E+02</wgt>
<wgt id='8572'>0.32327E+02</wgt>
<wgt id='8573'>0.32334E+02</wgt>
<wgt id='8574'>0.32347E+02</wgt>
<wgt id='8575'>0.32344E+02</wgt>
<wgt id='8576'>0.32332E+02</wgt>
<wgt id='8577'>0.32341E+02</wgt>
<wgt id='8578'>0.32342E+02</wgt>
<wgt id='8579'>0.32352E+02</wgt>
<wgt id='8580'>0.32345E+02</wgt>
<wgt id='8581'>0.32347E+02</wgt>
<wgt id='8582'>0.32321E+02</wgt>
<wgt id='8583'>0.32356E+02</wgt>
<wgt id='8584'>0.32346E+02</wgt>
<wgt id='8585'>0.32349E+02</wgt>
<wgt id='8586'>0.32352E+02</wgt>
<wgt id='8587'>0.32337E+02</wgt>
<wgt id='8588'>0.32334E+02</wgt>
<wgt id='8589'>0.32340E+02</wgt>
<wgt id='8590'>0.32340E+02</wgt>
<wgt id='8591'>0.32339E+02</wgt>
<wgt id='8592'>0.32340E+02</wgt>
<wgt id='8593'>0.32331E+02</wgt>
<wgt id='8594'>0.32346E+02</wgt>
<wgt id='8595'>0.32347E+02</wgt>
<wgt id='8596'>0.32334E+02</wgt>
<wgt id='8597'>0.32344E+02</wgt>
<wgt id='8598'>0.32347E+02</wgt>
<wgt id='8599'>0.32346E+02</wgt>
<wgt id='8600'>0.32340E+02</wgt>
<wgt id='8601'>0.31763E+02</wgt>
<wgt id='8602'>0.32845E+02</wgt>
<wgt id='9000'>0.30760E+02</wgt>
<wgt id='9001'>0.30796E+02</wgt>
<wgt id='9002'>0.30883E+02</wgt>
<wgt id='9003'>0.30545E+02</wgt>
<wgt id='9004'>0.30713E+02</wgt>
<wgt id='9005'>0.30854E+02</wgt>
<wgt id='9006'>0.30719E+02</wgt>
<wgt id='9007'>0.30820E+02</wgt>
<wgt id='9008'>0.30834E+02</wgt>
<wgt id='9009'>0.30737E+02</wgt>
<wgt id='9010'>0.30701E+02</wgt>
<wgt id='9011'>0.31081E+02</wgt>
<wgt id='9012'>0.30443E+02</wgt>
<wgt id='9013'>0.30371E+02</wgt>
<wgt id='9014'>0.30452E+02</wgt>
<wgt id='9015'>0.30725E+02</wgt>
<wgt id='9016'>0.30973E+02</wgt>
<wgt id='9017'>0.30755E+02</wgt>
<wgt id='9018'>0.30717E+02</wgt>
<wgt id='9019'>0.30707E+02</wgt>
<wgt id='9020'>0.30952E+02</wgt>
<wgt id='9021'>0.30676E+02</wgt>
<wgt id='9022'>0.30785E+02</wgt>
<wgt id='9023'>0.30734E+02</wgt>
<wgt id='9024'>0.30726E+02</wgt>
<wgt id='9025'>0.30777E+02</wgt>
<wgt id='9026'>0.30761E+02</wgt>
<wgt id='9027'>0.30707E+02</wgt>
<wgt id='9028'>0.30786E+02</wgt>
<wgt id='9029'>0.30800E+02</wgt>
<wgt id='9030'>0.30770E+02</wgt>
<wgt id='9031'>0.30752E+02</wgt>
<wgt id='9032'>0.30790E+02</wgt>
<wgt id='9033'>0.30800E+02</wgt>
<wgt id='9034'>0.30740E+02</wgt>
<wgt id='9035'>0.30812E+02</wgt>
<wgt id='9036'>0.30760E+02</wgt>
<wgt id='9037'>0.30789E+02</wgt>
<wgt id='9038'>0.30765E+02</wgt>
<wgt id='9039'>0.30766E+02</wgt>
<wgt id='9040'>0.30719E+02</wgt>
<wgt id='9041'>0.30752E+02</wgt>
<wgt id='9042'>0.30755E+02</wgt>
<wgt id='9043'>0.30734E+02</wgt>
<wgt id='9044'>0.30764E+02</wgt>
<wgt id='9045'>0.30759E+02</wgt>
<wgt id='9046'>0.30717E+02</wgt>
<wgt id='9047'>0.30750E+02</wgt>
<wgt id='9048'>0.30769E+02</wgt>
<wgt id='9049'>0.30747E+02</wgt>
<wgt id='9050'>0.30764E+02</wgt>
<wgt id='9051'>0.30768E+02</wgt>
<wgt id='9052'>0.30766E+02</wgt>
<wgt id='9053'>0.30762E+02</wgt>
<wgt id='9054'>0.30749E+02</wgt>
<wgt id='9055'>0.30752E+02</wgt>
<wgt id='9056'>0.30791E+02</wgt>
<wgt id='9057'>0.30761E+02</wgt>
<wgt id='9058'>0.30733E+02</wgt>
<wgt id='9059'>0.30746E+02</wgt>
<wgt id='9060'>0.30748E+02</wgt>
<wgt id='9061'>0.30766E+02</wgt>
<wgt id='9062'>0.30763E+02</wgt>
<wgt id='9063'>0.30772E+02</wgt>
<wgt id='9064'>0.30749E+02</wgt>
<wgt id='9065'>0.30759E+02</wgt>
<wgt id='9066'>0.30764E+02</wgt>
<wgt id='9067'>0.30779E+02</wgt>
<wgt id='9068'>0.30763E+02</wgt>
<wgt id='9069'>0.30778E+02</wgt>
<wgt id='9070'>0.30756E+02</wgt>
<wgt id='9071'>0.30782E+02</wgt>
<wgt id='9072'>0.30782E+02</wgt>
<wgt id='9073'>0.30751E+02</wgt>
<wgt id='9074'>0.30761E+02</wgt>
<wgt id='9075'>0.30758E+02</wgt>
<wgt id='9076'>0.30756E+02</wgt>
<wgt id='9077'>0.30764E+02</wgt>
<wgt id='9078'>0.30760E+02</wgt>
<wgt id='9079'>0.30763E+02</wgt>
<wgt id='9080'>0.30779E+02</wgt>
<wgt id='9081'>0.30761E+02</wgt>
<wgt id='9082'>0.30769E+02</wgt>
<wgt id='9083'>0.30751E+02</wgt>
<wgt id='9084'>0.30754E+02</wgt>
<wgt id='9085'>0.30755E+02</wgt>
<wgt id='9086'>0.30763E+02</wgt>
<wgt id='9087'>0.30747E+02</wgt>
<wgt id='9088'>0.30752E+02</wgt>
<wgt id='9089'>0.30753E+02</wgt>
<wgt id='9090'>0.30763E+02</wgt>
<wgt id='9091'>0.30758E+02</wgt>
<wgt id='9092'>0.30762E+02</wgt>
<wgt id='9093'>0.30756E+02</wgt>
<wgt id='9094'>0.30759E+02</wgt>
<wgt id='9095'>0.30764E+02</wgt>
<wgt id='9096'>0.30754E+02</wgt>
<wgt id='9097'>0.30763E+02</wgt>
<wgt id='9098'>0.30759E+02</wgt>
<wgt id='9099'>0.30754E+02</wgt>
<wgt id='9100'>0.30759E+02</wgt>
<wgt id='9101'>0.30329E+02</wgt>
<wgt id='9102'>0.31113E+02</wgt>
<wgt id='10000'>0.32335E+02</wgt>
<wgt id='10001'>0.32444E+02</wgt>
<wgt id='10002'>0.32304E+02</wgt>
<wgt id='10003'>0.32341E+02</wgt>
<wgt id='10004'>0.32415E+02</wgt>
<wgt id='10005'>0.33127E+02</wgt>
<wgt id='10006'>0.32319E+02</wgt>
<wgt id='10007'>0.32318E+02</wgt>
<wgt id='10008'>0.32365E+02</wgt>
<wgt id='10009'>0.32285E+02</wgt>
<wgt id='10010'>0.32348E+02</wgt>
<wgt id='10011'>0.32320E+02</wgt>
<wgt id='10012'>0.32277E+02</wgt>
<wgt id='10013'>0.32324E+02</wgt>
<wgt id='10014'>0.32340E+02</wgt>
<wgt id='10015'>0.32385E+02</wgt>
<wgt id='10016'>0.32345E+02</wgt>
<wgt id='10017'>0.32108E+02</wgt>
<wgt id='10018'>0.32367E+02</wgt>
<wgt id='10019'>0.32248E+02</wgt>
<wgt id='10020'>0.32331E+02</wgt>
<wgt id='10021'>0.32343E+02</wgt>
<wgt id='10022'>0.32274E+02</wgt>
<wgt id='10023'>0.32337E+02</wgt>
<wgt id='10024'>0.32326E+02</wgt>
<wgt id='10025'>0.32318E+02</wgt>
<wgt id='10026'>0.32349E+02</wgt>
<wgt id='10027'>0.32360E+02</wgt>
<wgt id='10028'>0.32446E+02</wgt>
<wgt id='10029'>0.32375E+02</wgt>
<wgt id='10030'>0.32324E+02</wgt>
<wgt id='10031'>0.31763E+02</wgt>
<wgt id='10032'>0.32845E+02</wgt>
<wgt id='11000'>0.30754E+02</wgt>
<wgt id='11001'>0.30695E+02</wgt>
<wgt id='11002'>0.30839E+02</wgt>
<wgt id='11003'>0.30718E+02</wgt>
<wgt id='11004'>0.30825E+02</wgt>
<wgt id='11005'>0.30321E+02</wgt>
<wgt id='11006'>0.30759E+02</wgt>
<wgt id='11007'>0.30691E+02</wgt>
<wgt id='11008'>0.30667E+02</wgt>
<wgt id='11009'>0.30643E+02</wgt>
<wgt id='11010'>0.30896E+02</wgt>
<wgt id='11011'>0.30608E+02</wgt>
<wgt id='11012'>0.30773E+02</wgt>
<wgt id='11013'>0.30849E+02</wgt>
<wgt id='11014'>0.30677E+02</wgt>
<wgt id='11015'>0.30707E+02</wgt>
<wgt id='11016'>0.30718E+02</wgt>
<wgt id='11017'>0.30998E+02</wgt>
<wgt id='11018'>0.30750E+02</wgt>
<wgt id='11019'>0.30749E+02</wgt>
<wgt id='11020'>0.30805E+02</wgt>
<wgt id='11021'>0.30836E+02</wgt>
<wgt id='11022'>0.31287E+02</wgt>
<wgt id='11023'>0.30756E+02</wgt>
<wgt id='11024'>0.30726E+02</wgt>
<wgt id='11025'>0.30705E+02</wgt>
<wgt id='11026'>0.30764E+02</wgt>
<wgt id='11027'>0.30756E+02</wgt>
<wgt id='11028'>0.30754E+02</wgt>
<wgt id='11029'>0.30708E+02</wgt>
<wgt id='11030'>0.30755E+02</wgt>
<wgt id='11031'>0.30329E+02</wgt>
<wgt id='11032'>0.31113E+02</wgt>
<wgt id='12000'>0.33962E+02</wgt>
<wgt id='12001'>0.33918E+02</wgt>
<wgt id='12002'>0.34007E+02</wgt>
<wgt id='12003'>0.34052E+02</wgt>
<wgt id='12004'>0.33873E+02</wgt>
<wgt id='12005'>0.34019E+02</wgt>
<wgt id='12006'>0.33906E+02</wgt>
<wgt id='12007'>0.34046E+02</wgt>
<wgt id='12008'>0.33881E+02</wgt>
<wgt id='12009'>0.34013E+02</wgt>
<wgt id='12010'>0.33913E+02</wgt>
<wgt id='12011'>0.33879E+02</wgt>
<wgt id='12012'>0.34048E+02</wgt>
<wgt id='12013'>0.33821E+02</wgt>
<wgt id='12014'>0.34105E+02</wgt>
<wgt id='12015'>0.33984E+02</wgt>
<wgt id='12016'>0.33914E+02</wgt>
<wgt id='12017'>0.34083E+02</wgt>
<wgt id='12018'>0.33825E+02</wgt>
<wgt id='12019'>0.33846E+02</wgt>
<wgt id='12020'>0.34076E+02</wgt>
<wgt id='12021'>0.34072E+02</wgt>
<wgt id='12022'>0.33812E+02</wgt>
<wgt id='12023'>0.33789E+02</wgt>
<wgt id='12024'>0.33958E+02</wgt>
<wgt id='12025'>0.34025E+02</wgt>
<wgt id='12026'>0.33956E+02</wgt>
<wgt id='12027'>0.33996E+02</wgt>
<wgt id='12028'>0.33959E+02</wgt>
<wgt id='12050'>0.33962E+02</wgt>
<wgt id='12051'>0.33937E+02</wgt>
<wgt id='12052'>0.33969E+02</wgt>
<wgt id='12053'>0.33927E+02</wgt>
<wgt id='12054'>0.33968E+02</wgt>
<wgt id='12055'>0.34068E+02</wgt>
<wgt id='12056'>0.33798E+02</wgt>
<wgt id='12057'>0.33842E+02</wgt>
<wgt id='12058'>0.34078E+02</wgt>
<wgt id='12059'>0.33896E+02</wgt>
<wgt id='12060'>0.34039E+02</wgt>
<wgt id='12061'>0.33946E+02</wgt>
<wgt id='12062'>0.34025E+02</wgt>
<wgt id='12063'>0.33680E+02</wgt>
<wgt id='13000'>0.31172E+02</wgt>
<wgt id='13001'>0.31149E+02</wgt>
<wgt id='13002'>0.31190E+02</wgt>
<wgt id='13003'>0.31218E+02</wgt>
<wgt id='13004'>0.31121E+02</wgt>
<wgt id='13005'>0.31249E+02</wgt>
<wgt id='13006'>0.31090E+02</wgt>
<wgt id='13007'>0.31299E+02</wgt>
<wgt id='13008'>0.31043E+02</wgt>
<wgt id='13009'>0.31161E+02</wgt>
<wgt id='13010'>0.31179E+02</wgt>
<wgt id='13011'>0.31250E+02</wgt>
<wgt id='13012'>0.31089E+02</wgt>
<wgt id='13013'>0.31068E+02</wgt>
<wgt id='13014'>0.31271E+02</wgt>
<wgt id='13015'>0.31134E+02</wgt>
<wgt id='13016'>0.31197E+02</wgt>
<wgt id='13017'>0.31140E+02</wgt>
<wgt id='13018'>0.31192E+02</wgt>
<wgt id='13019'>0.31104E+02</wgt>
<wgt id='13020'>0.31232E+02</wgt>
<wgt id='13021'>0.30957E+02</wgt>
<wgt id='13022'>0.31336E+02</wgt>
<wgt id='13023'>0.31149E+02</wgt>
<wgt id='13024'>0.31191E+02</wgt>
<wgt id='13025'>0.31040E+02</wgt>
<wgt id='13026'>0.31226E+02</wgt>
<wgt id='13027'>0.31156E+02</wgt>
<wgt id='13028'>0.31217E+02</wgt>
<wgt id='13050'>0.31172E+02</wgt>
<wgt id='13051'>0.31170E+02</wgt>
<wgt id='13052'>0.31069E+02</wgt>
<wgt id='13053'>0.31155E+02</wgt>
<wgt id='13054'>0.31169E+02</wgt>
<wgt id='13055'>0.31064E+02</wgt>
<wgt id='13056'>0.31185E+02</wgt>
<wgt id='13057'>0.31069E+02</wgt>
<wgt id='13058'>0.31331E+02</wgt>
<wgt id='13059'>0.31072E+02</wgt>
<wgt id='13060'>0.31145E+02</wgt>
<wgt id='13061'>0.31074E+02</wgt>
<wgt id='13062'>0.31421E+02</wgt>
<wgt id='13063'>0.31022E+02</wgt>
<wgt id='14000'>0.32091E+02</wgt>
<wgt id='14001'>0.32085E+02</wgt>
<wgt id='14002'>0.32080E+02</wgt>
<wgt id='14003'>0.32075E+02</wgt>
<wgt id='14004'>0.32070E+02</wgt>
<wgt id='14005'>0.32065E+02</wgt>
<wgt id='14006'>0.32060E+02</wgt>
<wgt id='14007'>0.32054E+02</wgt>
<wgt id='14008'>0.32049E+02</wgt>
<wgt id='14009'>0.32044E+02</wgt>
<wgt id='14010'>0.32039E+02</wgt>
<wgt id='14011'>0.32034E+02</wgt>
<wgt id='14012'>0.32029E+02</wgt>
<wgt id='14013'>0.32024E+02</wgt>
<wgt id='14014'>0.32018E+02</wgt>
<wgt id='14015'>0.32013E+02</wgt>
<wgt id='14016'>0.32008E+02</wgt>
<wgt id='14017'>0.32003E+02</wgt>
<wgt id='14018'>0.31998E+02</wgt>
<wgt id='14019'>0.31993E+02</wgt>
<wgt id='14020'>0.31988E+02</wgt>
<wgt id='14021'>0.31982E+02</wgt>
<wgt id='14022'>0.31977E+02</wgt>
<wgt id='14023'>0.31972E+02</wgt>
<wgt id='14024'>0.31967E+02</wgt>
<wgt id='14025'>0.31962E+02</wgt>
<wgt id='14026'>0.31957E+02</wgt>
<wgt id='14027'>0.31951E+02</wgt>
<wgt id='14028'>0.31946E+02</wgt>
<wgt id='14029'>0.31941E+02</wgt>
<wgt id='14030'>0.31936E+02</wgt>
<wgt id='15000'>0.30375E+02</wgt>
<wgt id='15001'>0.30403E+02</wgt>
<wgt id='15002'>0.30495E+02</wgt>
<wgt id='15003'>0.30163E+02</wgt>
<wgt id='15004'>0.30327E+02</wgt>
<wgt id='15005'>0.30468E+02</wgt>
<wgt id='15006'>0.30340E+02</wgt>
<wgt id='15007'>0.30439E+02</wgt>
<wgt id='15008'>0.30448E+02</wgt>
<wgt id='15009'>0.30353E+02</wgt>
<wgt id='15010'>0.30315E+02</wgt>
<wgt id='15011'>0.30700E+02</wgt>
<wgt id='15012'>0.30065E+02</wgt>
<wgt id='15013'>0.29994E+02</wgt>
<wgt id='15014'>0.30070E+02</wgt>
<wgt id='15015'>0.30331E+02</wgt>
<wgt id='15016'>0.30593E+02</wgt>
<wgt id='15017'>0.30367E+02</wgt>
<wgt id='15018'>0.30331E+02</wgt>
<wgt id='15019'>0.30328E+02</wgt>
<wgt id='15020'>0.30570E+02</wgt>
<wgt id='15021'>0.30288E+02</wgt>
<wgt id='15022'>0.30399E+02</wgt>
<wgt id='15023'>0.30349E+02</wgt>
<wgt id='15024'>0.30338E+02</wgt>
<wgt id='15025'>0.30388E+02</wgt>
<wgt id='15026'>0.30371E+02</wgt>
<wgt id='15027'>0.30328E+02</wgt>
<wgt id='15028'>0.30404E+02</wgt>
<wgt id='15029'>0.30412E+02</wgt>
<wgt id='15030'>0.30382E+02</wgt>
<wgt id='15031'>0.30373E+02</wgt>
<wgt id='15032'>0.30403E+02</wgt>
<wgt id='15033'>0.30413E+02</wgt>
<wgt id='15034'>0.30355E+02</wgt>
<wgt id='15035'>0.30426E+02</wgt>
<wgt id='15036'>0.30375E+02</wgt>
<wgt id='15037'>0.30404E+02</wgt>
<wgt id='15038'>0.30380E+02</wgt>
<wgt id='15039'>0.30379E+02</wgt>
<wgt id='15040'>0.30334E+02</wgt>
<wgt id='15041'>0.30366E+02</wgt>
<wgt id='15042'>0.30369E+02</wgt>
<wgt id='15043'>0.30352E+02</wgt>
<wgt id='15044'>0.30378E+02</wgt>
<wgt id='15045'>0.30374E+02</wgt>
<wgt id='15046'>0.30334E+02</wgt>
<wgt id='15047'>0.30364E+02</wgt>
<wgt id='15048'>0.30385E+02</wgt>
<wgt id='15049'>0.30362E+02</wgt>
<wgt id='15050'>0.30380E+02</wgt>
<wgt id='15051'>0.30382E+02</wgt>
<wgt id='15052'>0.30381E+02</wgt>
<wgt id='15053'>0.30377E+02</wgt>
<wgt id='15054'>0.30365E+02</wgt>
<wgt id='15055'>0.30368E+02</wgt>
<wgt id='15056'>0.30404E+02</wgt>
<wgt id='15057'>0.30376E+02</wgt>
<wgt id='15058'>0.30350E+02</wgt>
<wgt id='15059'>0.30362E+02</wgt>
<wgt id='15060'>0.30364E+02</wgt>
<wgt id='15061'>0.30381E+02</wgt>
<wgt id='15062'>0.30378E+02</wgt>
<wgt id='15063'>0.30386E+02</wgt>
<wgt id='15064'>0.30364E+02</wgt>
<wgt id='15065'>0.30374E+02</wgt>
<wgt id='15066'>0.30379E+02</wgt>
<wgt id='15067'>0.30393E+02</wgt>
<wgt id='15068'>0.30378E+02</wgt>
<wgt id='15069'>0.30392E+02</wgt>
<wgt id='15070'>0.30370E+02</wgt>
<wgt id='15071'>0.30397E+02</wgt>
<wgt id='15072'>0.30396E+02</wgt>
<wgt id='15073'>0.30365E+02</wgt>
<wgt id='15074'>0.30376E+02</wgt>
<wgt id='15075'>0.30373E+02</wgt>
<wgt id='15076'>0.30372E+02</wgt>
<wgt id='15077'>0.30379E+02</wgt>
<wgt id='15078'>0.30376E+02</wgt>
<wgt id='15079'>0.30378E+02</wgt>
<wgt id='15080'>0.30393E+02</wgt>
<wgt id='15081'>0.30376E+02</wgt>
<wgt id='15082'>0.30384E+02</wgt>
<wgt id='15083'>0.30366E+02</wgt>
<wgt id='15084'>0.30369E+02</wgt>
<wgt id='15085'>0.30370E+02</wgt>
<wgt id='15086'>0.30379E+02</wgt>
<wgt id='15087'>0.30361E+02</wgt>
<wgt id='15088'>0.30367E+02</wgt>
<wgt id='15089'>0.30368E+02</wgt>
<wgt id='15090'>0.30378E+02</wgt>
<wgt id='15091'>0.30372E+02</wgt>
<wgt id='15092'>0.30376E+02</wgt>
<wgt id='15093'>0.30371E+02</wgt>
<wgt id='15094'>0.30373E+02</wgt>
<wgt id='15095'>0.30379E+02</wgt>
<wgt id='15096'>0.30369E+02</wgt>
<wgt id='15097'>0.30377E+02</wgt>
<wgt id='15098'>0.30374E+02</wgt>
<wgt id='15099'>0.30370E+02</wgt>
<wgt id='15100'>0.30374E+02</wgt>
<wgt id='15101'>0.30375E+02</wgt>
<wgt id='15102'>0.30373E+02</wgt>
<wgt id='15103'>0.30376E+02</wgt>
<wgt id='15104'>0.30376E+02</wgt>
<wgt id='15105'>0.30376E+02</wgt>
<wgt id='15106'>0.30375E+02</wgt>
<wgt id='15107'>0.30373E+02</wgt>
<wgt id='1500'>0.32116E+02</wgt>
<wgt id='1501'>0.29238E+02</wgt>
<wgt id='1502'>0.31992E+02</wgt>
<wgt id='1503'>0.31849E+02</wgt>
<wgt id='1504'>0.31625E+02</wgt>
<wgt id='1505'>0.28250E+02</wgt>
<wgt id='1506'>0.32440E+02</wgt>
<wgt id='1507'>0.32556E+02</wgt>
<wgt id='1508'>0.32338E+02</wgt>
<wgt id='1509'>0.32123E+02</wgt>
<wgt id='1510'>0.31172E+02</wgt>
<wgt id='1511'>0.31536E+02</wgt>
<wgt id='1512'>0.32690E+02</wgt>
<wgt id='1513'>0.32735E+02</wgt>
<wgt id='1514'>0.31518E+02</wgt>
<wgt id='1515'>0.32626E+02</wgt>
<wgt id='1516'>0.32517E+02</wgt>
<wgt id='1517'>0.31468E+02</wgt>
<wgt id='1518'>0.31753E+02</wgt>
<wgt id='1519'>0.32602E+02</wgt>
<wgt id='1520'>0.32539E+02</wgt>
<wgt id='1521'>0.32333E+02</wgt>
<wgt id='1522'>0.32038E+02</wgt>
<wgt id='1523'>0.34567E+02</wgt>
<wgt id='1524'>0.31900E+02</wgt>
<wgt id='1525'>0.32442E+02</wgt>
<wgt id='1526'>0.31701E+02</wgt>
<wgt id='1527'>0.31595E+02</wgt>
<wgt id='1528'>0.31819E+02</wgt>
<wgt id='1529'>0.31739E+02</wgt>
<wgt id='1530'>0.32745E+02</wgt>
<wgt id='1531'>0.32093E+02</wgt>
<wgt id='1532'>0.31414E+02</wgt>
<wgt id='1533'>0.32344E+02</wgt>
<wgt id='1534'>0.32422E+02</wgt>
<wgt id='1535'>0.32903E+02</wgt>
<wgt id='1536'>0.32789E+02</wgt>
<wgt id='1537'>0.32641E+02</wgt>
<wgt id='1538'>0.32537E+02</wgt>
<wgt id='1539'>0.31146E+02</wgt>
<wgt id='1540'>0.32579E+02</wgt>
<wgt id='1541'>0.32238E+02</wgt>
<wgt id='1542'>0.32238E+02</wgt>
<wgt id='1543'>0.32354E+02</wgt>
<wgt id='1544'>0.31748E+02</wgt>
<wgt id='1545'>0.32327E+02</wgt>
<wgt id='1546'>0.32662E+02</wgt>
<wgt id='1547'>0.31565E+02</wgt>
<wgt id='1548'>0.31632E+02</wgt>
<wgt id='1549'>0.32001E+02</wgt>
<wgt id='1550'>0.32125E+02</wgt>
<wgt id='1551'>0.32040E+02</wgt>
<wgt id='1552'>0.31829E+02</wgt>
<wgt id='1553'>0.32636E+02</wgt>
<wgt id='1554'>0.32176E+02</wgt>
<wgt id='1555'>0.31980E+02</wgt>
<wgt id='1556'>0.31304E+02</wgt>
<wgt id='1557'>0.33132E+02</wgt>
<wgt id='1558'>0.31757E+02</wgt>
<wgt id='1559'>0.32467E+02</wgt>
<wgt id='1560'>0.32069E+02</wgt>
<wgt id='1561'>0.32303E+02</wgt>
<wgt id='1562'>0.32082E+02</wgt>
<wgt id='1563'>0.32570E+02</wgt>
<wgt id='1564'>0.31436E+02</wgt>
<wgt id='1565'>0.32305E+02</wgt>
<wgt id='1566'>0.32403E+02</wgt>
<wgt id='1567'>0.33997E+02</wgt>
<wgt id='1568'>0.31711E+02</wgt>
<wgt id='1569'>0.31302E+02</wgt>
<wgt id='1570'>0.31970E+02</wgt>
<wgt id='1571'>0.32681E+02</wgt>
<wgt id='1572'>0.32232E+02</wgt>
<wgt id='1573'>0.30012E+02</wgt>
<wgt id='1574'>0.32330E+02</wgt>
<wgt id='1575'>0.31862E+02</wgt>
<wgt id='1576'>0.31504E+02</wgt>
<wgt id='1577'>0.32596E+02</wgt>
<wgt id='1578'>0.33220E+02</wgt>
<wgt id='1579'>0.31876E+02</wgt>
<wgt id='1580'>0.32349E+02</wgt>
<wgt id='1581'>0.32513E+02</wgt>
<wgt id='1582'>0.31864E+02</wgt>
<wgt id='1583'>0.32330E+02</wgt>
<wgt id='1584'>0.32205E+02</wgt>
<wgt id='1585'>0.31198E+02</wgt>
<wgt id='1586'>0.31948E+02</wgt>
<wgt id='1587'>0.32002E+02</wgt>
<wgt id='1588'>0.32052E+02</wgt>
<wgt id='1589'>0.32856E+02</wgt>
<wgt id='1590'>0.31916E+02</wgt>
<wgt id='1591'>0.31573E+02</wgt>
<wgt id='1592'>0.32612E+02</wgt>
<wgt id='1593'>0.31930E+02</wgt>
<wgt id='1594'>0.32875E+02</wgt>
<wgt id='1595'>0.31573E+02</wgt>
<wgt id='1596'>0.32632E+02</wgt>
<wgt id='1597'>0.32037E+02</wgt>
<wgt id='1598'>0.33362E+02</wgt>
<wgt id='1599'>0.32826E+02</wgt>
<wgt id='1600'>0.32121E+02</wgt>
<wgt id='1601'>0.31637E+02</wgt>
<wgt id='1602'>0.32342E+02</wgt>
<wgt id='1700'>0.30985E+02</wgt>
<wgt id='1800'>0.37460E+02</wgt>
<wgt id='1850'>0.44664E+02</wgt>
<wgt id='1900'>0.37758E+02</wgt>
<wgt id='1950'>0.43763E+02</wgt>
</rwgt>
</event>
<event>
      4   9999  3.15120E+01  3.08673E+01 -1.00000E+00  1.49772E-01
      21    -1     0     0   502   501  0.000000000E+00  0.000000000E+00  2.204623843E+01  2.204623843E+01  0.000000000E+00  0.00000E+00  9.000E+00
      -2    -1     0     0     0   502  0.000000000E+00  0.000000000E+00 -3.057711013E+02  3.057711013E+02  0.000000000E+00  0.00000E+00  9.000E+00
      25     1     1     2     0     0  2.092877698E+01  2.268862521E+01 -2.627435771E+02  2.904944007E+02  1.200000923E+02  0.00000E+00  9.000E+00
      -2     1     1     2     0   501 -2.092877698E+01 -2.268862521E+01 -2.098128577E+01  3.732293896E+01  7.152557373E-07  0.00000E+00  9.000E+00
#rwgt            1           1   26.414150788129572                2        2535           0
<rwgt>
<wgt id='1001'>0.31512E+02</wgt>
<wgt id='1002'>0.33888E+02</wgt>
<wgt id='1003'>0.28877E+02</wgt>
<wgt id='1004'>0.27255E+02</wgt>
<wgt id='1005'>0.29188E+02</wgt>
<wgt id='1006'>0.25063E+02</wgt>
<wgt id='1007'>0.36759E+02</wgt>
<wgt id='1008'>0.39752E+02</wgt>
<wgt id='1009'>0.33526E+02</wgt>
<wgt id='2000'>0.31512E+02</wgt>
<wgt id='2001'>0.31460E+02</wgt>
<wgt id='2002'>0.31578E+02</wgt>
<wgt id='2003'>0.31549E+02</wgt>
<wgt id='2004'>0.31526E+02</wgt>
<wgt id='2005'>0.31497E+02</wgt>
<wgt id='2006'>0.31482E+02</wgt>
<wgt id='2007'>0.31483E+02</wgt>
<wgt id='2008'>0.31544E+02</wgt>
<wgt id='2009'>0.31487E+02</wgt>
<wgt id='2010'>0.31473E+02</wgt>
<wgt id='2011'>0.31582E+02</wgt>
<wgt id='2012'>0.31585E+02</wgt>
<wgt id='2013'>0.31571E+02</wgt>
<wgt id='2014'>0.31573E+02</wgt>
<wgt id='2015'>0.31563E+02</wgt>
<wgt id='2016'>0.31534E+02</wgt>
<wgt id='2017'>0.31509E+02</wgt>
<wgt id='2018'>0.31560E+02</wgt>
<wgt id='2019'>0.31511E+02</wgt>
<wgt id='2020'>0.31622E+02</wgt>
<wgt id='2021'>0.31461E+02</wgt>
<wgt id='2022'>0.31617E+02</wgt>
<wgt id='2023'>0.31577E+02</wgt>
<wgt id='2024'>0.31505E+02</wgt>
<wgt id='2025'>0.31644E+02</wgt>
<wgt id='2026'>0.31605E+02</wgt>
<wgt id='2027'>0.31476E+02</wgt>
<wgt id='2028'>0.31446E+02</wgt>
<wgt id='2029'>0.31542E+02</wgt>
<wgt id='2030'>0.31517E+02</wgt>
<wgt id='2031'>0.31549E+02</wgt>
<wgt id='2032'>0.31484E+02</wgt>
<wgt id='2033'>0.31513E+02</wgt>
<wgt id='2034'>0.31544E+02</wgt>
<wgt id='2035'>0.31506E+02</wgt>
<wgt id='2036'>0.31535E+02</wgt>
<wgt id='2037'>0.31526E+02</wgt>
<wgt id='2038'>0.31519E+02</wgt>
<wgt id='2039'>0.31506E+02</wgt>
<wgt id='2040'>0.31535E+02</wgt>
<wgt id='2041'>0.31520E+02</wgt>
<wgt id='2042'>0.31481E+02</wgt>
<wgt id='2043'>0.31535E+02</wgt>
<wgt id='2044'>0.31532E+02</wgt>
<wgt id='2045'>0.31512E+02</wgt>
<wgt id='2046'>0.31520E+02</wgt>
<wgt id='2047'>0.31533E+02</wgt>
<wgt id='2048'>0.31514E+02</wgt>
<wgt id='2049'>0.31514E+02</wgt>
<wgt id='2050'>0.31517E+02</wgt>
<wgt id='2051'>0.31529E+02</wgt>
<wgt id='2052'>0.31503E+02</wgt>
<wgt id='2053'>0.31505E+02</wgt>
<wgt id='2054'>0.31508E+02</wgt>
<wgt id='2055'>0.31516E+02</wgt>
<wgt id='2056'>0.31513E+02</wgt>
<wgt id='2057'>0.31513E+02</wgt>
<wgt id='2058'>0.31523E+02</wgt>
<wgt id='2059'>0.31512E+02</wgt>
<wgt id='2060'>0.31521E+02</wgt>
<wgt id='2061'>0.31502E+02</wgt>
<wgt id='2062'>0.31504E+02</wgt>
<wgt id='2063'>0.31517E+02</wgt>
<wgt id='2064'>0.31498E+02</wgt>
<wgt id='2065'>0.31509E+02</wgt>
<wgt id='2066'>0.31499E+02</wgt>
<wgt id='2067'>0.31511E+02</wgt>
<wgt id='2068'>0.31518E+02</wgt>
<wgt id='2069'>0.31516E+02</wgt>
<wgt id='2070'>0.31514E+02</wgt>
<wgt id='2071'>0.31506E+02</wgt>
<wgt id='2072'>0.31515E+02</wgt>
<wgt id='2073'>0.31513E+02</wgt>
<wgt id='2074'>0.31517E+02</wgt>
<wgt id='2075'>0.31507E+02</wgt>
<wgt id='2076'>0.31518E+02</wgt>
<wgt id='2077'>0.31505E+02</wgt>
<wgt id='2078'>0.31512E+02</wgt>
<wgt id='2079'>0.31517E+02</wgt>
<wgt id='2080'>0.31512E+02</wgt>
<wgt id='2081'>0.31518E+02</wgt>
<wgt id='2082'>0.31515E+02</wgt>
<wgt id='2083'>0.31507E+02</wgt>
<wgt id='2084'>0.31511E+02</wgt>
<wgt id='2085'>0.31508E+02</wgt>
<wgt id='2086'>0.31512E+02</wgt>
<wgt id='2087'>0.31510E+02</wgt>
<wgt id='2088'>0.31512E+02</wgt>
<wgt id='2089'>0.31515E+02</wgt>
<wgt id='2090'>0.31513E+02</wgt>
<wgt id='2091'>0.31509E+02</wgt>
<wgt id='2092'>0.31510E+02</wgt>
<wgt id='2093'>0.31512E+02</wgt>
<wgt id='2094'>0.31509E+02</wgt>
<wgt id='2095'>0.31511E+02</wgt>
<wgt id='2096'>0.31512E+02</wgt>
<wgt id='2097'>0.31515E+02</wgt>
<wgt id='2098'>0.31511E+02</wgt>
<wgt id='2099'>0.31514E+02</wgt>
<wgt id='2100'>0.31511E+02</wgt>
<wgt id='2101'>0.30676E+02</wgt>
<wgt id='2102'>0.32291E+02</wgt>
<wgt id='2104'>0.27646E+02</wgt>
<wgt id='2105'>0.28352E+02</wgt>
<wgt id='2106'>0.29141E+02</wgt>
<wgt id='2107'>0.29941E+02</wgt>
<wgt id='2108'>0.31130E+02</wgt>
<wgt id='2109'>0.31948E+02</wgt>
<wgt id='2110'>0.33002E+02</wgt>
<wgt id='2111'>0.33793E+02</wgt>
<wgt id='3000'>0.32954E+02</wgt>
<wgt id='3001'>0.33018E+02</wgt>
<wgt id='3002'>0.32885E+02</wgt>
<wgt id='3003'>0.32999E+02</wgt>
<wgt id='3004'>0.32989E+02</wgt>
<wgt id='3005'>0.33001E+02</wgt>
<wgt id='3006'>0.32965E+02</wgt>
<wgt id='3007'>0.32938E+02</wgt>
<wgt id='3008'>0.32917E+02</wgt>
<wgt id='3009'>0.32852E+02</wgt>
<wgt id='3010'>0.32896E+02</wgt>
<wgt id='3011'>0.32998E+02</wgt>
<wgt id='3012'>0.33057E+02</wgt>
<wgt id='3013'>0.32875E+02</wgt>
<wgt id='3014'>0.32988E+02</wgt>
<wgt id='3015'>0.32956E+02</wgt>
<wgt id='3016'>0.32972E+02</wgt>
<wgt id='3017'>0.32994E+02</wgt>
<wgt id='3018'>0.33019E+02</wgt>
<wgt id='3019'>0.32895E+02</wgt>
<wgt id='3020'>0.32865E+02</wgt>
<wgt id='3021'>0.32842E+02</wgt>
<wgt id='3022'>0.32947E+02</wgt>
<wgt id='3023'>0.32878E+02</wgt>
<wgt id='3024'>0.32847E+02</wgt>
<wgt id='3025'>0.32954E+02</wgt>
<wgt id='3026'>0.33032E+02</wgt>
<wgt id='3027'>0.32962E+02</wgt>
<wgt id='3028'>0.32836E+02</wgt>
<wgt id='3029'>0.32921E+02</wgt>
<wgt id='3030'>0.32991E+02</wgt>
<wgt id='3031'>0.32973E+02</wgt>
<wgt id='3032'>0.32998E+02</wgt>
<wgt id='3033'>0.32998E+02</wgt>
<wgt id='3034'>0.32978E+02</wgt>
<wgt id='3035'>0.32984E+02</wgt>
<wgt id='3036'>0.32962E+02</wgt>
<wgt id='3037'>0.32960E+02</wgt>
<wgt id='3038'>0.32958E+02</wgt>
<wgt id='3039'>0.32923E+02</wgt>
<wgt id='3040'>0.32967E+02</wgt>
<wgt id='3041'>0.32973E+02</wgt>
<wgt id='3042'>0.32926E+02</wgt>
<wgt id='3043'>0.32932E+02</wgt>
<wgt id='3044'>0.32953E+02</wgt>
<wgt id='3045'>0.32974E+02</wgt>
<wgt id='3046'>0.32968E+02</wgt>
<wgt id='3047'>0.32947E+02</wgt>
<wgt id='3048'>0.32977E+02</wgt>
<wgt id='3049'>0.32952E+02</wgt>
<wgt id='3050'>0.32961E+02</wgt>
<wgt id='3051'>0.32982E+02</wgt>
<wgt id='3052'>0.32948E+02</wgt>
<wgt id='3053'>0.32944E+02</wgt>
<wgt id='3054'>0.32946E+02</wgt>
<wgt id='3055'>0.32950E+02</wgt>
<wgt id='3056'>0.32957E+02</wgt>
<wgt id='3057'>0.32936E+02</wgt>
<wgt id='3058'>0.32948E+02</wgt>
<wgt id='3059'>0.32950E+02</wgt>
<wgt id='3060'>0.32956E+02</wgt>
<wgt id='3061'>0.32954E+02</wgt>
<wgt id='3062'>0.32954E+02</wgt>
<wgt id='3063'>0.32965E+02</wgt>
<wgt id='3064'>0.32952E+02</wgt>
<wgt id='3065'>0.32961E+02</wgt>
<wgt id='3066'>0.32956E+02</wgt>
<wgt id='3067'>0.32951E+02</wgt>
<wgt id='3068'>0.32951E+02</wgt>
<wgt id='3069'>0.32945E+02</wgt>
<wgt id='3070'>0.32951E+02</wgt>
<wgt id='3071'>0.32958E+02</wgt>
<wgt id='3072'>0.32961E+02</wgt>
<wgt id='3073'>0.32954E+02</wgt>
<wgt id='3074'>0.32962E+02</wgt>
<wgt id='3075'>0.32959E+02</wgt>
<wgt id='3076'>0.32953E+02</wgt>
<wgt id='3077'>0.32953E+02</wgt>
<wgt id='3078'>0.32959E+02</wgt>
<wgt id='3079'>0.32950E+02</wgt>
<wgt id='3080'>0.32950E+02</wgt>
<wgt id='3081'>0.32951E+02</wgt>
<wgt id='3082'>0.32951E+02</wgt>
<wgt id='3083'>0.32957E+02</wgt>
<wgt id='3084'>0.32953E+02</wgt>
<wgt id='3085'>0.32958E+02</wgt>
<wgt id='3086'>0.32959E+02</wgt>
<wgt id='3087'>0.32954E+02</wgt>
<wgt id='3088'>0.32952E+02</wgt>
<wgt id='3089'>0.32955E+02</wgt>
<wgt id='3090'>0.32957E+02</wgt>
<wgt id='3091'>0.32953E+02</wgt>
<wgt id='3092'>0.32952E+02</wgt>
<wgt id='3093'>0.32955E+02</wgt>
<wgt id='3094'>0.32957E+02</wgt>
<wgt id='3095'>0.32954E+02</wgt>
<wgt id='3096'>0.32948E+02</wgt>
<wgt id='3097'>0.32951E+02</wgt>
<wgt id='3098'>0.32950E+02</wgt>
<wgt id='3099'>0.32955E+02</wgt>
<wgt id='3100'>0.32956E+02</wgt>
<wgt id='3101'>0.32070E+02</wgt>
<wgt id='3102'>0.33919E+02</wgt>
<wgt id='5000'>0.30513E+02</wgt>
<wgt id='5001'>0.30448E+02</wgt>
<wgt id='5002'>0.30446E+02</wgt>
<wgt id='5003'>0.30417E+02</wgt>
<wgt id='5004'>0.30486E+02</wgt>
<wgt id='5005'>0.30129E+02</wgt>
<wgt id='5006'>0.30533E+02</wgt>
<wgt id='5007'>0.30469E+02</wgt>
<wgt id='5008'>0.30370E+02</wgt>
<wgt id='5009'>0.30706E+02</wgt>
<wgt id='5010'>0.30395E+02</wgt>
<wgt id='5011'>0.30500E+02</wgt>
<wgt id='5012'>0.30467E+02</wgt>
<wgt id='5013'>0.30078E+02</wgt>
<wgt id='5014'>0.30629E+02</wgt>
<wgt id='5015'>0.30683E+02</wgt>
<wgt id='5016'>0.29977E+02</wgt>
<wgt id='5017'>0.30474E+02</wgt>
<wgt id='5018'>0.30558E+02</wgt>
<wgt id='5019'>0.30462E+02</wgt>
<wgt id='5020'>0.30567E+02</wgt>
<wgt id='5021'>0.30585E+02</wgt>
<wgt id='5022'>0.30466E+02</wgt>
<wgt id='5023'>0.30397E+02</wgt>
<wgt id='5024'>0.30633E+02</wgt>
<wgt id='5025'>0.30500E+02</wgt>
<wgt id='5026'>0.30524E+02</wgt>
<wgt id='5027'>0.30783E+02</wgt>
<wgt id='5028'>0.30056E+02</wgt>
<wgt id='5029'>0.30017E+02</wgt>
<wgt id='5030'>0.30811E+02</wgt>
<wgt id='5031'>0.30222E+02</wgt>
<wgt id='5032'>0.30932E+02</wgt>
<wgt id='5033'>0.30351E+02</wgt>
<wgt id='5034'>0.30649E+02</wgt>
<wgt id='5035'>0.30184E+02</wgt>
<wgt id='5036'>0.30785E+02</wgt>
<wgt id='5037'>0.30325E+02</wgt>
<wgt id='5038'>0.30714E+02</wgt>
<wgt id='5039'>0.31020E+02</wgt>
<wgt id='5040'>0.30256E+02</wgt>
<wgt id='5041'>0.30332E+02</wgt>
<wgt id='5042'>0.30516E+02</wgt>
<wgt id='5043'>0.30698E+02</wgt>
<wgt id='5044'>0.29912E+02</wgt>
<wgt id='5045'>0.31113E+02</wgt>
<wgt id='5046'>0.30308E+02</wgt>
<wgt id='5047'>0.30614E+02</wgt>
<wgt id='5048'>0.30690E+02</wgt>
<wgt id='5049'>0.30526E+02</wgt>
<wgt id='5050'>0.30570E+02</wgt>
<wgt id='5051'>0.30566E+02</wgt>
<wgt id='5052'>0.30507E+02</wgt>
<wgt id='5053'>0.30069E+02</wgt>
<wgt id='5054'>0.30591E+02</wgt>
<wgt id='5055'>0.30325E+02</wgt>
<wgt id='5056'>0.30779E+02</wgt>
<wgt id='5060'>0.29642E+02</wgt>
<wgt id='5070'>0.31339E+02</wgt>
<wgt id='4000'>0.32035E+02</wgt>
<wgt id='4001'>0.32058E+02</wgt>
<wgt id='4002'>0.32107E+02</wgt>
<wgt id='4003'>0.32248E+02</wgt>
<wgt id='4004'>0.31905E+02</wgt>
<wgt id='4005'>0.32124E+02</wgt>
<wgt id='4006'>0.31973E+02</wgt>
<wgt id='4007'>0.32225E+02</wgt>
<wgt id='4008'>0.31976E+02</wgt>
<wgt id='4009'>0.31569E+02</wgt>
<wgt id='4010'>0.32271E+02</wgt>
<wgt id='4011'>0.32453E+02</wgt>
<wgt id='4012'>0.31788E+02</wgt>
<wgt id='4013'>0.31092E+02</wgt>
<wgt id='4014'>0.32566E+02</wgt>
<wgt id='4015'>0.32389E+02</wgt>
<wgt id='4016'>0.31808E+02</wgt>
<wgt id='4017'>0.31671E+02</wgt>
<wgt id='4018'>0.32468E+02</wgt>
<wgt id='4019'>0.32379E+02</wgt>
<wgt id='4020'>0.31650E+02</wgt>
<wgt id='4021'>0.32089E+02</wgt>
<wgt id='4022'>0.31911E+02</wgt>
<wgt id='4023'>0.31927E+02</wgt>
<wgt id='4024'>0.32127E+02</wgt>
<wgt id='4025'>0.31819E+02</wgt>
<wgt id='4026'>0.32229E+02</wgt>
<wgt id='4027'>0.31958E+02</wgt>
<wgt id='4028'>0.32137E+02</wgt>
<wgt id='4029'>0.31847E+02</wgt>
<wgt id='4030'>0.32101E+02</wgt>
<wgt id='4031'>0.32088E+02</wgt>
<wgt id='4032'>0.31966E+02</wgt>
<wgt id='4033'>0.31983E+02</wgt>
<wgt id='4034'>0.32149E+02</wgt>
<wgt id='4035'>0.32335E+02</wgt>
<wgt id='4036'>0.31750E+02</wgt>
<wgt id='4037'>0.32207E+02</wgt>
<wgt id='4038'>0.31732E+02</wgt>
<wgt id='4039'>0.31992E+02</wgt>
<wgt id='4040'>0.32025E+02</wgt>
<wgt id='4041'>0.32210E+02</wgt>
<wgt id='4042'>0.31882E+02</wgt>
<wgt id='4043'>0.32179E+02</wgt>
<wgt id='4044'>0.31939E+02</wgt>
<wgt id='4045'>0.31627E+02</wgt>
<wgt id='4046'>0.32008E+02</wgt>
<wgt id='4047'>0.31844E+02</wgt>
<wgt id='4048'>0.31971E+02</wgt>
<wgt id='4049'>0.31841E+02</wgt>
<wgt id='4050'>0.31776E+02</wgt>
<wgt id='4051'>0.31972E+02</wgt>
<wgt id='4052'>0.31992E+02</wgt>
<wgt id='4053'>0.31154E+02</wgt>
<wgt id='4054'>0.32105E+02</wgt>
<wgt id='4055'>0.31844E+02</wgt>
<wgt id='4056'>0.32298E+02</wgt>
<wgt id='4060'>0.31042E+02</wgt>
<wgt id='4070'>0.32999E+02</wgt>
<wgt id='4080'>0.32555E+02</wgt>
<wgt id='6000'>0.32467E+02</wgt>
<wgt id='6001'>0.32497E+02</wgt>
<wgt id='6002'>0.32436E+02</wgt>
<wgt id='6003'>0.32483E+02</wgt>
<wgt id='6004'>0.32456E+02</wgt>
<wgt id='6005'>0.32531E+02</wgt>
<wgt id='6006'>0.32408E+02</wgt>
<wgt id='6007'>0.32348E+02</wgt>
<wgt id='6008'>0.32600E+02</wgt>
<wgt id='6009'>0.32587E+02</wgt>
<wgt id='6010'>0.32350E+02</wgt>
<wgt id='6011'>0.32538E+02</wgt>
<wgt id='6012'>0.32314E+02</wgt>
<wgt id='6013'>0.32431E+02</wgt>
<wgt id='6014'>0.32533E+02</wgt>
<wgt id='6015'>0.32374E+02</wgt>
<wgt id='6016'>0.32519E+02</wgt>
<wgt id='6017'>0.32279E+02</wgt>
<wgt id='6018'>0.32690E+02</wgt>
<wgt id='6019'>0.32492E+02</wgt>
<wgt id='6020'>0.32445E+02</wgt>
<wgt id='6021'>0.32398E+02</wgt>
<wgt id='6022'>0.32560E+02</wgt>
<wgt id='6023'>0.32244E+02</wgt>
<wgt id='6024'>0.32625E+02</wgt>
<wgt id='6025'>0.32312E+02</wgt>
<wgt id='6026'>0.32533E+02</wgt>
<wgt id='6027'>0.32556E+02</wgt>
<wgt id='6028'>0.32466E+02</wgt>
<wgt id='6029'>0.32588E+02</wgt>
<wgt id='6030'>0.32326E+02</wgt>
<wgt id='6031'>0.32446E+02</wgt>
<wgt id='6032'>0.32477E+02</wgt>
<wgt id='6033'>0.32539E+02</wgt>
<wgt id='6034'>0.32393E+02</wgt>
<wgt id='6035'>0.32469E+02</wgt>
<wgt id='6036'>0.32523E+02</wgt>
<wgt id='6037'>0.32524E+02</wgt>
<wgt id='6038'>0.32465E+02</wgt>
<wgt id='6039'>0.32422E+02</wgt>
<wgt id='6040'>0.32515E+02</wgt>
<wgt id='6041'>0.32400E+02</wgt>
<wgt id='6042'>0.32550E+02</wgt>
<wgt id='6043'>0.32883E+02</wgt>
<wgt id='6044'>0.32293E+02</wgt>
<wgt id='6045'>0.32443E+02</wgt>
<wgt id='6046'>0.32532E+02</wgt>
<wgt id='6047'>0.32598E+02</wgt>
<wgt id='6048'>0.32137E+02</wgt>
<wgt id='6049'>0.32532E+02</wgt>
<wgt id='6050'>0.32423E+02</wgt>
<wgt id='7000'>0.30581E+02</wgt>
<wgt id='7001'>0.30591E+02</wgt>
<wgt id='7002'>0.30568E+02</wgt>
<wgt id='7003'>0.30669E+02</wgt>
<wgt id='7004'>0.30494E+02</wgt>
<wgt id='7005'>0.30634E+02</wgt>
<wgt id='7006'>0.30559E+02</wgt>
<wgt id='7007'>0.30464E+02</wgt>
<wgt id='7008'>0.30698E+02</wgt>
<wgt id='7009'>0.30639E+02</wgt>
<wgt id='7010'>0.30524E+02</wgt>
<wgt id='7011'>0.30284E+02</wgt>
<wgt id='7012'>0.30709E+02</wgt>
<wgt id='7013'>0.30580E+02</wgt>
<wgt id='7014'>0.30581E+02</wgt>
<wgt id='7015'>0.30493E+02</wgt>
<wgt id='7016'>0.30676E+02</wgt>
<wgt id='7017'>0.30433E+02</wgt>
<wgt id='7018'>0.30659E+02</wgt>
<wgt id='7019'>0.30548E+02</wgt>
<wgt id='7020'>0.30626E+02</wgt>
<wgt id='7021'>0.30573E+02</wgt>
<wgt id='7022'>0.30586E+02</wgt>
<wgt id='7023'>0.30814E+02</wgt>
<wgt id='7024'>0.30341E+02</wgt>
<wgt id='7025'>0.30682E+02</wgt>
<wgt id='7026'>0.30332E+02</wgt>
<wgt id='7027'>0.30696E+02</wgt>
<wgt id='7028'>0.30541E+02</wgt>
<wgt id='7029'>0.30501E+02</wgt>
<wgt id='7030'>0.30770E+02</wgt>
<wgt id='7031'>0.30559E+02</wgt>
<wgt id='7032'>0.30633E+02</wgt>
<wgt id='7033'>0.30561E+02</wgt>
<wgt id='7034'>0.30638E+02</wgt>
<wgt id='7035'>0.30606E+02</wgt>
<wgt id='7036'>0.30585E+02</wgt>
<wgt id='7037'>0.30590E+02</wgt>
<wgt id='7038'>0.30595E+02</wgt>
<wgt id='7039'>0.30531E+02</wgt>
<wgt id='7040'>0.30616E+02</wgt>
<wgt id='7041'>0.30529E+02</wgt>
<wgt id='7042'>0.30631E+02</wgt>
<wgt id='7043'>0.30606E+02</wgt>
<wgt id='7044'>0.30444E+02</wgt>
<wgt id='7045'>0.30317E+02</wgt>
<wgt id='7046'>0.30723E+02</wgt>
<wgt id='7047'>0.30651E+02</wgt>
<wgt id='7048'>0.30545E+02</wgt>
<wgt id='7049'>0.30512E+02</wgt>
<wgt id='7050'>0.30603E+02</wgt>
<wgt id='7060'>0.48041E+02</wgt>
<wgt id='8000'>0.30992E+02</wgt>
<wgt id='8001'>0.30984E+02</wgt>
<wgt id='8002'>0.31000E+02</wgt>
<wgt id='8003'>0.30994E+02</wgt>
<wgt id='8004'>0.30991E+02</wgt>
<wgt id='8005'>0.30919E+02</wgt>
<wgt id='8006'>0.30980E+02</wgt>
<wgt id='8007'>0.30963E+02</wgt>
<wgt id='8008'>0.31048E+02</wgt>
<wgt id='8009'>0.31108E+02</wgt>
<wgt id='8010'>0.30989E+02</wgt>
<wgt id='8011'>0.30979E+02</wgt>
<wgt id='8012'>0.30948E+02</wgt>
<wgt id='8013'>0.30978E+02</wgt>
<wgt id='8014'>0.30989E+02</wgt>
<wgt id='8015'>0.30968E+02</wgt>
<wgt id='8016'>0.31006E+02</wgt>
<wgt id='8017'>0.30999E+02</wgt>
<wgt id='8018'>0.31005E+02</wgt>
<wgt id='8019'>0.31031E+02</wgt>
<wgt id='8020'>0.30916E+02</wgt>
<wgt id='8021'>0.30990E+02</wgt>
<wgt id='8022'>0.30854E+02</wgt>
<wgt id='8023'>0.31007E+02</wgt>
<wgt id='8024'>0.31020E+02</wgt>
<wgt id='8025'>0.31065E+02</wgt>
<wgt id='8026'>0.31047E+02</wgt>
<wgt id='8027'>0.30954E+02</wgt>
<wgt id='8028'>0.31022E+02</wgt>
<wgt id='8029'>0.30794E+02</wgt>
<wgt id='8500'>0.32288E+02</wgt>
<wgt id='8501'>0.32161E+02</wgt>
<wgt id='8502'>0.32440E+02</wgt>
<wgt id='8503'>0.32421E+02</wgt>
<wgt id='8504'>0.32223E+02</wgt>
<wgt id='8505'>0.32258E+02</wgt>
<wgt id='8506'>0.32260E+02</wgt>
<wgt id='8507'>0.32381E+02</wgt>
<wgt id='8508'>0.32422E+02</wgt>
<wgt id='8509'>0.32260E+02</wgt>
<wgt id='8510'>0.32687E+02</wgt>
<wgt id='8511'>0.32300E+02</wgt>
<wgt id='8512'>0.32041E+02</wgt>
<wgt id='8513'>0.32323E+02</wgt>
<wgt id='8514'>0.31985E+02</wgt>
<wgt id='8515'>0.32376E+02</wgt>
<wgt id='8516'>0.32323E+02</wgt>
<wgt id='8517'>0.32138E+02</wgt>
<wgt id='8518'>0.32199E+02</wgt>
<wgt id='8519'>0.32197E+02</wgt>
<wgt id='8520'>0.32277E+02</wgt>
<wgt id='8521'>0.32136E+02</wgt>
<wgt id='8522'>0.32326E+02</wgt>
<wgt id='8523'>0.32202E+02</wgt>
<wgt id='8524'>0.32270E+02</wgt>
<wgt id='8525'>0.32268E+02</wgt>
<wgt id='8526'>0.32241E+02</wgt>
<wgt id='8527'>0.32287E+02</wgt>
<wgt id='8528'>0.32207E+02</wgt>
<wgt id='8529'>0.32252E+02</wgt>
<wgt id='8530'>0.32289E+02</wgt>
<wgt id='8531'>0.32275E+02</wgt>
<wgt id='8532'>0.32291E+02</wgt>
<wgt id='8533'>0.32221E+02</wgt>
<wgt id='8534'>0.32297E+02</wgt>
<wgt id='8535'>0.32363E+02</wgt>
<wgt id='8536'>0.32265E+02</wgt>
<wgt id='8537'>0.32298E+02</wgt>
<wgt id='8538'>0.32261E+02</wgt>
<wgt id='8539'>0.32294E+02</wgt>
<wgt id='8540'>0.32293E+02</wgt>
<wgt id='8541'>0.32302E+02</wgt>
<wgt id='8542'>0.32308E+02</wgt>
<wgt id='8543'>0.32258E+02</wgt>
<wgt id='8544'>0.32315E+02</wgt>
<wgt id='8545'>0.32311E+02</wgt>
<wgt id='8546'>0.32321E+02</wgt>
<wgt id='8547'>0.32266E+02</wgt>
<wgt id='8548'>0.32260E+02</wgt>
<wgt id='8549'>0.32287E+02</wgt>
<wgt id='8550'>0.32290E+02</wgt>
<wgt id='8551'>0.32259E+02</wgt>
<wgt id='8552'>0.32290E+02</wgt>
<wgt id='8553'>0.32271E+02</wgt>
<wgt id='8554'>0.32275E+02</wgt>
<wgt id='8555'>0.32289E+02</wgt>
<wgt id='8556'>0.32285E+02</wgt>
<wgt id='8557'>0.32281E+02</wgt>
<wgt id='8558'>0.32322E+02</wgt>
<wgt id='8559'>0.32271E+02</wgt>
<wgt id='8560'>0.32253E+02</wgt>
<wgt id='8561'>0.32284E+02</wgt>
<wgt id='8562'>0.32262E+02</wgt>
<wgt id='8563'>0.32290E+02</wgt>
<wgt id='8564'>0.32279E+02</wgt>
<wgt id='8565'>0.32287E+02</wgt>
<wgt id='8566'>0.32284E+02</wgt>
<wgt id='8567'>0.32285E+02</wgt>
<wgt id='8568'>0.32300E+02</wgt>
<wgt id='8569'>0.32297E+02</wgt>
<wgt id='8570'>0.32286E+02</wgt>
<wgt id='8571'>0.32274E+02</wgt>
<wgt id='8572'>0.32275E+02</wgt>
<wgt id='8573'>0.32273E+02</wgt>
<wgt id='8574'>0.32293E+02</wgt>
<wgt id='8575'>0.32285E+02</wgt>
<wgt id='8576'>0.32285E+02</wgt>
<wgt id='8577'>0.32284E+02</wgt>
<wgt id='8578'>0.32290E+02</wgt>
<wgt id='8579'>0.32307E+02</wgt>
<wgt id='8580'>0.32287E+02</wgt>
<wgt id='8581'>0.32294E+02</wgt>
<wgt id='8582'>0.32267E+02</wgt>
<wgt id='8583'>0.32301E+02</wgt>
<wgt id='8584'>0.32296E+02</wgt>
<wgt id='8585'>0.32294E+02</wgt>
<wgt id='8586'>0.32305E+02</wgt>
<wgt id='8587'>0.32284E+02</wgt>
<wgt id='8588'>0.32280E+02</wgt>
<wgt id='8589'>0.32289E+02</wgt>
<wgt id='8590'>0.32284E+02</wgt>
<wgt id='8591'>0.32282E+02</wgt>
<wgt id='8592'>0.32287E+02</wgt>
<wgt id='8593'>0.32275E+02</wgt>
<wgt id='8594'>0.32291E+02</wgt>
<wgt id='8595'>0.32290E+02</wgt>
<wgt id='8596'>0.32279E+02</wgt>
<wgt id='8597'>0.32292E+02</wgt>
<wgt id='8598'>0.32295E+02</wgt>
<wgt id='8599'>0.32292E+02</wgt>
<wgt id='8600'>0.32287E+02</wgt>
<wgt id='8601'>0.31621E+02</wgt>
<wgt id='8602'>0.32900E+02</wgt>
<wgt id='9000'>0.30673E+02</wgt>
<wgt id='9001'>0.30683E+02</wgt>
<wgt id='9002'>0.30769E+02</wgt>
<wgt id='9003'>0.30507E+02</wgt>
<wgt id='9004'>0.30645E+02</wgt>
<wgt id='9005'>0.30729E+02</wgt>
<wgt id='9006'>0.30672E+02</wgt>
<wgt id='9007'>0.30758E+02</wgt>
<wgt id='9008'>0.30736E+02</wgt>
<wgt id='9009'>0.30648E+02</wgt>
<wgt id='9010'>0.30578E+02</wgt>
<wgt id='9011'>0.30953E+02</wgt>
<wgt id='9012'>0.30492E+02</wgt>
<wgt id='9013'>0.30346E+02</wgt>
<wgt id='9014'>0.30503E+02</wgt>
<wgt id='9015'>0.30664E+02</wgt>
<wgt id='9016'>0.30948E+02</wgt>
<wgt id='9017'>0.30585E+02</wgt>
<wgt id='9018'>0.30606E+02</wgt>
<wgt id='9019'>0.30637E+02</wgt>
<wgt id='9020'>0.30835E+02</wgt>
<wgt id='9021'>0.30643E+02</wgt>
<wgt id='9022'>0.30723E+02</wgt>
<wgt id='9023'>0.30586E+02</wgt>
<wgt id='9024'>0.30622E+02</wgt>
<wgt id='9025'>0.30695E+02</wgt>
<wgt id='9026'>0.30666E+02</wgt>
<wgt id='9027'>0.30640E+02</wgt>
<wgt id='9028'>0.30703E+02</wgt>
<wgt id='9029'>0.30711E+02</wgt>
<wgt id='9030'>0.30689E+02</wgt>
<wgt id='9031'>0.30660E+02</wgt>
<wgt id='9032'>0.30697E+02</wgt>
<wgt id='9033'>0.30709E+02</wgt>
<wgt id='9034'>0.30667E+02</wgt>
<wgt id='9035'>0.30723E+02</wgt>
<wgt id='9036'>0.30678E+02</wgt>
<wgt id='9037'>0.30700E+02</wgt>
<wgt id='9038'>0.30679E+02</wgt>
<wgt id='9039'>0.30674E+02</wgt>
<wgt id='9040'>0.30642E+02</wgt>
<wgt id='9041'>0.30660E+02</wgt>
<wgt id='9042'>0.30667E+02</wgt>
<wgt id='9043'>0.30648E+02</wgt>
<wgt id='9044'>0.30681E+02</wgt>
<wgt id='9045'>0.30669E+02</wgt>
<wgt id='9046'>0.30634E+02</wgt>
<wgt id='9047'>0.30664E+02</wgt>
<wgt id='9048'>0.30683E+02</wgt>
<wgt id='9049'>0.30656E+02</wgt>
<wgt id='9050'>0.30678E+02</wgt>
<wgt id='9051'>0.30688E+02</wgt>
<wgt id='9052'>0.30683E+02</wgt>
<wgt id='9053'>0.30677E+02</wgt>
<wgt id='9054'>0.30661E+02</wgt>
<wgt id='9055'>0.30665E+02</wgt>
<wgt id='9056'>0.30698E+02</wgt>
<wgt id='9057'>0.30673E+02</wgt>
<wgt id='9058'>0.30649E+02</wgt>
<wgt id='9059'>0.30660E+02</wgt>
<wgt id='9060'>0.30663E+02</wgt>
<wgt id='9061'>0.30677E+02</wgt>
<wgt id='9062'>0.30678E+02</wgt>
<wgt id='9063'>0.30686E+02</wgt>
<wgt id='9064'>0.30666E+02</wgt>
<wgt id='9065'>0.30672E+02</wgt>
<wgt id='9066'>0.30676E+02</wgt>
<wgt id='9067'>0.30682E+02</wgt>
<wgt id='9068'>0.30681E+02</wgt>
<wgt id='9069'>0.30691E+02</wgt>
<wgt id='9070'>0.30669E+02</wgt>
<wgt id='9071'>0.30692E+02</wgt>
<wgt id='9072'>0.30693E+02</wgt>
<wgt id='9073'>0.30665E+02</wgt>
<wgt id='9074'>0.30677E+02</wgt>
<wgt id='9075'>0.30671E+02</wgt>
<wgt id='9076'>0.30671E+02</wgt>
<wgt id='9077'>0.30679E+02</wgt>
<wgt id='9078'>0.30676E+02</wgt>
<wgt id='9079'>0.30668E+02</wgt>
<wgt id='9080'>0.30694E+02</wgt>
<wgt id='9081'>0.30671E+02</wgt>
<wgt id='9082'>0.30681E+02</wgt>
<wgt id='9083'>0.30663E+02</wgt>
<wgt id='9084'>0.30663E+02</wgt>
<wgt id='9085'>0.30664E+02</wgt>
<wgt id='9086'>0.30678E+02</wgt>
<wgt id='9087'>0.30653E+02</wgt>
<wgt id='9088'>0.30665E+02</wgt>
<wgt id='9089'>0.30665E+02</wgt>
<wgt id='9090'>0.30678E+02</wgt>
<wgt id='9091'>0.30669E+02</wgt>
<wgt id='9092'>0.30672E+02</wgt>
<wgt id='9093'>0.30668E+02</wgt>
<wgt id='9094'>0.30670E+02</wgt>
<wgt id='9095'>0.30677E+02</wgt>
<wgt id='9096'>0.30667E+02</wgt>
<wgt id='9097'>0.30675E+02</wgt>
<wgt id='9098'>0.30673E+02</wgt>
<wgt id='9099'>0.30666E+02</wgt>
<wgt id='9100'>0.30673E+02</wgt>
<wgt id='9101'>0.30150E+02</wgt>
<wgt id='9102'>0.31174E+02</wgt>
<wgt id='10000'>0.32290E+02</wgt>
<wgt id='10001'>0.32411E+02</wgt>
<wgt id='10002'>0.32156E+02</wgt>
<wgt id='10003'>0.32281E+02</wgt>
<wgt id='10004'>0.32169E+02</wgt>
<wgt id='10005'>0.32870E+02</wgt>
<wgt id='10006'>0.32231E+02</wgt>
<wgt id='10007'>0.32270E+02</wgt>
<wgt id='10008'>0.32371E+02</wgt>
<wgt id='10009'>0.32217E+02</wgt>
<wgt id='10010'>0.32340E+02</wgt>
<wgt id='10011'>0.32245E+02</wgt>
<wgt id='10012'>0.32249E+02</wgt>
<wgt id='10013'>0.32295E+02</wgt>
<wgt id='10014'>0.32268E+02</wgt>
<wgt id='10015'>0.32320E+02</wgt>
<wgt id='10016'>0.32248E+02</wgt>
<wgt id='10017'>0.32123E+02</wgt>
<wgt id='10018'>0.32329E+02</wgt>
<wgt id='10019'>0.32262E+02</wgt>
<wgt id='10020'>0.32254E+02</wgt>
<wgt id='10021'>0.32277E+02</wgt>
<wgt id='10022'>0.32266E+02</wgt>
<wgt id='10023'>0.32299E+02</wgt>
<wgt id='10024'>0.32260E+02</wgt>
<wgt id='10025'>0.32262E+02</wgt>
<wgt id='10026'>0.32357E+02</wgt>
<wgt id='10027'>0.32346E+02</wgt>
<wgt id='10028'>0.32520E+02</wgt>
<wgt id='10029'>0.32333E+02</wgt>
<wgt id='10030'>0.32281E+02</wgt>
<wgt id='10031'>0.31621E+02</wgt>
<wgt id='10032'>0.32900E+02</wgt>
<wgt id='11000'>0.30675E+02</wgt>
<wgt id='11001'>0.30492E+02</wgt>
<wgt id='11002'>0.30767E+02</wgt>
<wgt id='11003'>0.30639E+02</wgt>
<wgt id='11004'>0.30771E+02</wgt>
<wgt id='11005'>0.30383E+02</wgt>
<wgt id='11006'>0.30685E+02</wgt>
<wgt id='11007'>0.30607E+02</wgt>
<wgt id='11008'>0.30602E+02</wgt>
<wgt id='11009'>0.30569E+02</wgt>
<wgt id='11010'>0.30844E+02</wgt>
<wgt id='11011'>0.30568E+02</wgt>
<wgt id='11012'>0.30694E+02</wgt>
<wgt id='11013'>0.30758E+02</wgt>
<wgt id='11014'>0.30617E+02</wgt>
<wgt id='11015'>0.30652E+02</wgt>
<wgt id='11016'>0.30652E+02</wgt>
<wgt id='11017'>0.30857E+02</wgt>
<wgt id='11018'>0.30663E+02</wgt>
<wgt id='11019'>0.30660E+02</wgt>
<wgt id='11020'>0.30740E+02</wgt>
<wgt id='11021'>0.30732E+02</wgt>
<wgt id='11022'>0.31104E+02</wgt>
<wgt id='11023'>0.30682E+02</wgt>
<wgt id='11024'>0.30697E+02</wgt>
<wgt id='11025'>0.30650E+02</wgt>
<wgt id='11026'>0.30683E+02</wgt>
<wgt id='11027'>0.30668E+02</wgt>
<wgt id='11028'>0.30699E+02</wgt>
<wgt id='11029'>0.30709E+02</wgt>
<wgt id='11030'>0.30672E+02</wgt>
<wgt id='11031'>0.30150E+02</wgt>
<wgt id='11032'>0.31174E+02</wgt>
<wgt id='12000'>0.33722E+02</wgt>
<wgt id='12001'>0.33679E+02</wgt>
<wgt id='12002'>0.33766E+02</wgt>
<wgt id='12003'>0.33804E+02</wgt>
<wgt id='12004'>0.33641E+02</wgt>
<wgt id='12005'>0.33770E+02</wgt>
<wgt id='12006'>0.33674E+02</wgt>
<wgt id='12007'>0.33809E+02</wgt>
<wgt id='12008'>0.33638E+02</wgt>
<wgt id='12009'>0.33758E+02</wgt>
<wgt id='12010'>0.33687E+02</wgt>
<wgt id='12011'>0.33612E+02</wgt>
<wgt id='12012'>0.33834E+02</wgt>
<wgt id='12013'>0.33607E+02</wgt>
<wgt id='12014'>0.33839E+02</wgt>
<wgt id='12015'>0.33742E+02</wgt>
<wgt id='12016'>0.33688E+02</wgt>
<wgt id='12017'>0.33837E+02</wgt>
<wgt id='12018'>0.33598E+02</wgt>
<wgt id='12019'>0.33654E+02</wgt>
<wgt id='12020'>0.33788E+02</wgt>
<wgt id='12021'>0.33829E+02</wgt>
<wgt id='12022'>0.33581E+02</wgt>
<wgt id='12023'>0.33536E+02</wgt>
<wgt id='12024'>0.33755E+02</wgt>
<wgt id='12025'>0.33742E+02</wgt>
<wgt id='12026'>0.33747E+02</wgt>
<wgt id='12027'>0.33820E+02</wgt>
<wgt id='12028'>0.33656E+02</wgt>
<wgt id='12050'>0.33722E+02</wgt>
<wgt id='12051'>0.33722E+02</wgt>
<wgt id='12052'>0.33699E+02</wgt>
<wgt id='12053'>0.33714E+02</wgt>
<wgt id='12054'>0.33708E+02</wgt>
<wgt id='12055'>0.33836E+02</wgt>
<wgt id='12056'>0.33622E+02</wgt>
<wgt id='12057'>0.33621E+02</wgt>
<wgt id='12058'>0.33824E+02</wgt>
<wgt id='12059'>0.33688E+02</wgt>
<wgt id='12060'>0.33770E+02</wgt>
<wgt id='12061'>0.33681E+02</wgt>
<wgt id='12062'>0.33775E+02</wgt>
<wgt id='12063'>0.33455E+02</wgt>
<wgt id='13000'>0.31212E+02</wgt>
<wgt id='13001'>0.31188E+02</wgt>
<wgt id='13002'>0.31231E+02</wgt>
<wgt id='13003'>0.31255E+02</wgt>
<wgt id='13004'>0.31164E+02</wgt>
<wgt id='13005'>0.31280E+02</wgt>
<wgt id='13006'>0.31139E+02</wgt>
<wgt id='13007'>0.31336E+02</wgt>
<wgt id='13008'>0.31085E+02</wgt>
<wgt id='13009'>0.31184E+02</wgt>
<wgt id='13010'>0.31236E+02</wgt>
<wgt id='13011'>0.31294E+02</wgt>
<wgt id='13012'>0.31126E+02</wgt>
<wgt id='13013'>0.31130E+02</wgt>
<wgt id='13014'>0.31289E+02</wgt>
<wgt id='13015'>0.31187E+02</wgt>
<wgt id='13016'>0.31228E+02</wgt>
<wgt id='13017'>0.31192E+02</wgt>
<wgt id='13018'>0.31221E+02</wgt>
<wgt id='13019'>0.31168E+02</wgt>
<wgt id='13020'>0.31250E+02</wgt>
<wgt id='13021'>0.31043E+02</wgt>
<wgt id='13022'>0.31336E+02</wgt>
<wgt id='13023'>0.31164E+02</wgt>
<wgt id='13024'>0.31252E+02</wgt>
<wgt id='13025'>0.31044E+02</wgt>
<wgt id='13026'>0.31302E+02</wgt>
<wgt id='13027'>0.31177E+02</wgt>
<wgt id='13028'>0.31276E+02</wgt>
<wgt id='13050'>0.31212E+02</wgt>
<wgt id='13051'>0.31227E+02</wgt>
<wgt id='13052'>0.31111E+02</wgt>
<wgt id='13053'>0.31214E+02</wgt>
<wgt id='13054'>0.31195E+02</wgt>
<wgt id='13055'>0.31038E+02</wgt>
<wgt id='13056'>0.31225E+02</wgt>
<wgt id='13057'>0.31119E+02</wgt>
<wgt id='13058'>0.31361E+02</wgt>
<wgt id='13059'>0.31133E+02</wgt>
<wgt id='13060'>0.31076E+02</wgt>
<wgt id='13061'>0.31120E+02</wgt>
<wgt id='13062'>0.31449E+02</wgt>
<wgt id='13063'>0.31127E+02</wgt>
<wgt id='14000'>0.31891E+02</wgt>
<wgt id='14001'>0.31886E+02</wgt>
<wgt id='14002'>0.31881E+02</wgt>
<wgt id='14003'>0.31876E+02</wgt>
<wgt id='14004'>0.31871E+02</wgt>
<wgt id='14005'>0.31866E+02</wgt>
<wgt id='14006'>0.31861E+02</wgt>
<wgt id='14007'>0.31856E+02</wgt>
<wgt id='14008'>0.31851E+02</wgt>
<wgt id='14009'>0.31846E+02</wgt>
<wgt id='14010'>0.31841E+02</wgt>
<wgt id='14011'>0.31837E+02</wgt>
<wgt id='14012'>0.31832E+02</wgt>
<wgt id='14013'>0.31827E+02</wgt>
<wgt id='14014'>0.31822E+02</wgt>
<wgt id='14015'>0.31817E+02</wgt>
<wgt id='14016'>0.31812E+02</wgt>
<wgt id='14017'>0.31807E+02</wgt>
<wgt id='14018'>0.31802E+02</wgt>
<wgt id='14019'>0.31797E+02</wgt>
<wgt id='14020'>0.31792E+02</wgt>
<wgt id='14021'>0.31787E+02</wgt>
<wgt id='14022'>0.31783E+02</wgt>
<wgt id='14023'>0.31778E+02</wgt>
<wgt id='14024'>0.31773E+02</wgt>
<wgt id='14025'>0.31768E+02</wgt>
<wgt id='14026'>0.31763E+02</wgt>
<wgt id='14027'>0.31758E+02</wgt>
<wgt id='14028'>0.31753E+02</wgt>
<wgt id='14029'>0.31748E+02</wgt>
<wgt id='14030'>0.31743E+02</wgt>
<wgt id='15000'>0.30317E+02</wgt>
<wgt id='15001'>0.30329E+02</wgt>
<wgt id='15002'>0.30413E+02</wgt>
<wgt id='15003'>0.30152E+02</wgt>
<wgt id='15004'>0.30290E+02</wgt>
<wgt id='15005'>0.30373E+02</wgt>
<wgt id='15006'>0.30315E+02</wgt>
<wgt id='15007'>0.30400E+02</wgt>
<wgt id='15008'>0.30379E+02</wgt>
<wgt id='15009'>0.30292E+02</wgt>
<wgt id='15010'>0.30223E+02</wgt>
<wgt id='15011'>0.30591E+02</wgt>
<wgt id='15012'>0.30137E+02</wgt>
<wgt id='15013'>0.29993E+02</wgt>
<wgt id='15014'>0.30149E+02</wgt>
<wgt id='15015'>0.30311E+02</wgt>
<wgt id='15016'>0.30586E+02</wgt>
<wgt id='15017'>0.30230E+02</wgt>
<wgt id='15018'>0.30252E+02</wgt>
<wgt id='15019'>0.30281E+02</wgt>
<wgt id='15020'>0.30475E+02</wgt>
<wgt id='15021'>0.30288E+02</wgt>
<wgt id='15022'>0.30368E+02</wgt>
<wgt id='15023'>0.30227E+02</wgt>
<wgt id='15024'>0.30266E+02</wgt>
<wgt id='15025'>0.30340E+02</wgt>
<wgt id='15026'>0.30311E+02</wgt>
<wgt id='15027'>0.30282E+02</wgt>
<wgt id='15028'>0.30346E+02</wgt>
<wgt id='15029'>0.30356E+02</wgt>
<wgt id='15030'>0.30335E+02</wgt>
<wgt id='15031'>0.30301E+02</wgt>
<wgt id='15032'>0.30340E+02</wgt>
<wgt id='15033'>0.30353E+02</wgt>
<wgt id='15034'>0.30311E+02</wgt>
<wgt id='15035'>0.30367E+02</wgt>
<wgt id='15036'>0.30322E+02</wgt>
<wgt id='15037'>0.30344E+02</wgt>
<wgt id='15038'>0.30323E+02</wgt>
<wgt id='15039'>0.30318E+02</wgt>
<wgt id='15040'>0.30286E+02</wgt>
<wgt id='15041'>0.30305E+02</wgt>
<wgt id='15042'>0.30311E+02</wgt>
<wgt id='15043'>0.30290E+02</wgt>
<wgt id='15044'>0.30325E+02</wgt>
<wgt id='15045'>0.30313E+02</wgt>
<wgt id='15046'>0.30278E+02</wgt>
<wgt id='15047'>0.30309E+02</wgt>
<wgt id='15048'>0.30326E+02</wgt>
<wgt id='15049'>0.30300E+02</wgt>
<wgt id='15050'>0.30321E+02</wgt>
<wgt id='15051'>0.30332E+02</wgt>
<wgt id='15052'>0.30327E+02</wgt>
<wgt id='15053'>0.30321E+02</wgt>
<wgt id='15054'>0.30304E+02</wgt>
<wgt id='15055'>0.30308E+02</wgt>
<wgt id='15056'>0.30342E+02</wgt>
<wgt id='15057'>0.30317E+02</wgt>
<wgt id='15058'>0.30293E+02</wgt>
<wgt id='15059'>0.30304E+02</wgt>
<wgt id='15060'>0.30307E+02</wgt>
<wgt id='15061'>0.30320E+02</wgt>
<wgt id='15062'>0.30322E+02</wgt>
<wgt id='15063'>0.30330E+02</wgt>
<wgt id='15064'>0.30310E+02</wgt>
<wgt id='15065'>0.30315E+02</wgt>
<wgt id='15066'>0.30320E+02</wgt>
<wgt id='15067'>0.30326E+02</wgt>
<wgt id='15068'>0.30325E+02</wgt>
<wgt id='15069'>0.30335E+02</wgt>
<wgt id='15070'>0.30312E+02</wgt>
<wgt id='15071'>0.30336E+02</wgt>
<wgt id='15072'>0.30337E+02</wgt>
<wgt id='15073'>0.30309E+02</wgt>
<wgt id='15074'>0.30321E+02</wgt>
<wgt id='15075'>0.30315E+02</wgt>
<wgt id='15076'>0.30314E+02</wgt>
<wgt id='15077'>0.30322E+02</wgt>
<wgt id='15078'>0.30320E+02</wgt>
<wgt id='15079'>0.30312E+02</wgt>
<wgt id='15080'>0.30338E+02</wgt>
<wgt id='15081'>0.30314E+02</wgt>
<wgt id='15082'>0.30325E+02</wgt>
<wgt id='15083'>0.30307E+02</wgt>
<wgt id='15084'>0.30307E+02</wgt>
<wgt id='15085'>0.30308E+02</wgt>
<wgt id='15086'>0.30322E+02</wgt>
<wgt id='15087'>0.30297E+02</wgt>
<wgt id='15088'>0.30309E+02</wgt>
<wgt id='15089'>0.30309E+02</wgt>
<wgt id='15090'>0.30322E+02</wgt>
<wgt id='15091'>0.30313E+02</wgt>
<wgt id='15092'>0.30316E+02</wgt>
<wgt id='15093'>0.30312E+02</wgt>
<wgt id='15094'>0.30314E+02</wgt>
<wgt id='15095'>0.30320E+02</wgt>
<wgt id='15096'>0.30310E+02</wgt>
<wgt id='15097'>0.30319E+02</wgt>
<wgt id='15098'>0.30316E+02</wgt>
<wgt id='15099'>0.30310E+02</wgt>
<wgt id='15100'>0.30316E+02</wgt>
<wgt id='15101'>0.30316E+02</wgt>
<wgt id='15102'>0.30314E+02</wgt>
<wgt id='15103'>0.30317E+02</wgt>
<wgt id='15104'>0.30317E+02</wgt>
<wgt id='15105'>0.30318E+02</wgt>
<wgt id='15106'>0.30317E+02</wgt>
<wgt id='15107'>0.30315E+02</wgt>
<wgt id='1500'>0.32423E+02</wgt>
<wgt id='1501'>0.30266E+02</wgt>
<wgt id='1502'>0.32277E+02</wgt>
<wgt id='1503'>0.32605E+02</wgt>
<wgt id='1504'>0.31962E+02</wgt>
<wgt id='1505'>0.29543E+02</wgt>
<wgt id='1506'>0.33062E+02</wgt>
<wgt id='1507'>0.32593E+02</wgt>
<wgt id='1508'>0.32682E+02</wgt>
<wgt id='1509'>0.32746E+02</wgt>
<wgt id='1510'>0.31559E+02</wgt>
<wgt id='1511'>0.31621E+02</wgt>
<wgt id='1512'>0.32969E+02</wgt>
<wgt id='1513'>0.33036E+02</wgt>
<wgt id='1514'>0.32001E+02</wgt>
<wgt id='1515'>0.33098E+02</wgt>
<wgt id='1516'>0.32671E+02</wgt>
<wgt id='1517'>0.32239E+02</wgt>
<wgt id='1518'>0.32219E+02</wgt>
<wgt id='1519'>0.32884E+02</wgt>
<wgt id='1520'>0.33135E+02</wgt>
<wgt id='1521'>0.32781E+02</wgt>
<wgt id='1522'>0.32153E+02</wgt>
<wgt id='1523'>0.34807E+02</wgt>
<wgt id='1524'>0.32407E+02</wgt>
<wgt id='1525'>0.32523E+02</wgt>
<wgt id='1526'>0.32223E+02</wgt>
<wgt id='1527'>0.32033E+02</wgt>
<wgt id='1528'>0.32121E+02</wgt>
<wgt id='1529'>0.32502E+02</wgt>
<wgt id='1530'>0.33231E+02</wgt>
<wgt id='1531'>0.32370E+02</wgt>
<wgt id='1532'>0.31697E+02</wgt>
<wgt id='1533'>0.32144E+02</wgt>
<wgt id='1534'>0.32606E+02</wgt>
<wgt id='1535'>0.33164E+02</wgt>
<wgt id='1536'>0.32601E+02</wgt>
<wgt id='1537'>0.33025E+02</wgt>
<wgt id='1538'>0.32668E+02</wgt>
<wgt id='1539'>0.31672E+02</wgt>
<wgt id='1540'>0.32592E+02</wgt>
<wgt id='1541'>0.32518E+02</wgt>
<wgt id='1542'>0.32383E+02</wgt>
<wgt id='1543'>0.32563E+02</wgt>
<wgt id='1544'>0.32337E+02</wgt>
<wgt id='1545'>0.32312E+02</wgt>
<wgt id='1546'>0.32931E+02</wgt>
<wgt id='1547'>0.31995E+02</wgt>
<wgt id='1548'>0.32138E+02</wgt>
<wgt id='1549'>0.32047E+02</wgt>
<wgt id='1550'>0.32247E+02</wgt>
<wgt id='1551'>0.32324E+02</wgt>
<wgt id='1552'>0.32025E+02</wgt>
<wgt id='1553'>0.32837E+02</wgt>
<wgt id='1554'>0.32664E+02</wgt>
<wgt id='1555'>0.32055E+02</wgt>
<wgt id='1556'>0.31931E+02</wgt>
<wgt id='1557'>0.32933E+02</wgt>
<wgt id='1558'>0.32030E+02</wgt>
<wgt id='1559'>0.32988E+02</wgt>
<wgt id='1560'>0.32269E+02</wgt>
<wgt id='1561'>0.32331E+02</wgt>
<wgt id='1562'>0.32537E+02</wgt>
<wgt id='1563'>0.32589E+02</wgt>
<wgt id='1564'>0.31809E+02</wgt>
<wgt id='1565'>0.32563E+02</wgt>
<wgt id='1566'>0.32631E+02</wgt>
<wgt id='1567'>0.34540E+02</wgt>
<wgt id='1568'>0.32044E+02</wgt>
<wgt id='1569'>0.31547E+02</wgt>
<wgt id='1570'>0.32116E+02</wgt>
<wgt id='1571'>0.32454E+02</wgt>
<wgt id='1572'>0.32726E+02</wgt>
<wgt id='1573'>0.30651E+02</wgt>
<wgt id='1574'>0.32858E+02</wgt>
<wgt id='1575'>0.32117E+02</wgt>
<wgt id='1576'>0.31972E+02</wgt>
<wgt id='1577'>0.32773E+02</wgt>
<wgt id='1578'>0.33341E+02</wgt>
<wgt id='1579'>0.32083E+02</wgt>
<wgt id='1580'>0.32450E+02</wgt>
<wgt id='1581'>0.32656E+02</wgt>
<wgt id='1582'>0.31930E+02</wgt>
<wgt id='1583'>0.33046E+02</wgt>
<wgt id='1584'>0.32258E+02</wgt>
<wgt id='1585'>0.31799E+02</wgt>
<wgt id='1586'>0.32227E+02</wgt>
<wgt id='1587'>0.32472E+02</wgt>
<wgt id='1588'>0.32309E+02</wgt>
<wgt id='1589'>0.33426E+02</wgt>
<wgt id='1590'>0.32250E+02</wgt>
<wgt id='1591'>0.32052E+02</wgt>
<wgt id='1592'>0.32479E+02</wgt>
<wgt id='1593'>0.32305E+02</wgt>
<wgt id='1594'>0.33112E+02</wgt>
<wgt id='1595'>0.31915E+02</wgt>
<wgt id='1596'>0.32852E+02</wgt>
<wgt id='1597'>0.32289E+02</wgt>
<wgt id='1598'>0.33133E+02</wgt>
<wgt id='1599'>0.32907E+02</wgt>
<wgt id='1600'>0.32903E+02</wgt>
<wgt id='1601'>0.31911E+02</wgt>
<wgt id='1602'>0.32746E+02</wgt>
<wgt id='1700'>0.31052E+02</wgt>
<wgt id='1800'>0.37054E+02</wgt>
<wgt id='1850'>0.45122E+02</wgt>
<wgt id='1900'>0.38411E+02</wgt>
<wgt id='1950'>0.44643E+02</wgt>
</rwgt>
</event>
<event>
      4   9999  3.15120E+01  1.35652E+01 -1.00000E+00  1.78134E-01
      21    -1     0     0   511   501  0.000000000E+00  0.000000000E+00  1.829214074E+02  1.829214074E+02  0.000000000E+00  0.00000E+00  9.000E+00
      21    -1     0     0   501   502  0.000000000E+00  0.000000000E+00 -3.397460648E+01  3.397460648E+01  0.000000000E+00  0.00000E+00  9.000E+00
      25     1     1     2     0     0 -4.561495352E+00  1.277524593E+01  7.597760557E+01  1.426766255E+02  1.200000365E+02  0.00000E+00  9.000E+00
      21     1     1     2   511   502  4.561495352E+00 -1.277524593E+01  7.296919538E+01  7.421938846E+01  0.000000000E+00  0.00000E+00  9.000E+00
#rwgt            1           1   32.648647995843959                2        2625           0
<rwgt>
<wgt id='1001'>0.31512E+02</wgt>
<wgt id='1002'>0.27681E+02</wgt>
<wgt id='1003'>0.35444E+02</wgt>
<wgt id='1004'>0.26739E+02</wgt>
<wgt id='1005'>0.24000E+02</wgt>
<wgt id='1006'>0.29499E+02</wgt>
<wgt id='1007'>0.37696E+02</wgt>
<wgt id='1008'>0.32182E+02</wgt>
<wgt id='1009'>0.43449E+02</wgt>
<wgt id='2000'>0.31512E+02</wgt>
<wgt id='2001'>0.31478E+02</wgt>
<wgt id='2002'>0.31612E+02</wgt>
<wgt id='2003'>0.31598E+02</wgt>
<wgt id='2004'>0.31557E+02</wgt>
<wgt id='2005'>0.31451E+02</wgt>
<wgt id='2006'>0.31428E+02</wgt>
<wgt id='2007'>0.31401E+02</wgt>
<wgt id='2008'>0.31456E+02</wgt>
<wgt id='2009'>0.31543E+02</wgt>
<wgt id='2010'>0.31492E+02</wgt>
<wgt id='2011'>0.31615E+02</wgt>
<wgt id='2012'>0.31646E+02</wgt>
<wgt id='2013'>0.31711E+02</wgt>
<wgt id='2014'>0.31605E+02</wgt>
<wgt id='2015'>0.31567E+02</wgt>
<wgt id='2016'>0.31468E+02</wgt>
<wgt id='2017'>0.31506E+02</wgt>
<wgt id='2018'>0.31601E+02</wgt>
<wgt id='2019'>0.31504E+02</wgt>
<wgt id='2020'>0.31592E+02</wgt>
<wgt id='2021'>0.31473E+02</wgt>
<wgt id='2022'>0.31544E+02</wgt>
<wgt id='2023'>0.31542E+02</wgt>
<wgt id='2024'>0.31519E+02</wgt>
<wgt id='2025'>0.31536E+02</wgt>
<wgt id='2026'>0.31528E+02</wgt>
<wgt id='2027'>0.31494E+02</wgt>
<wgt id='2028'>0.31493E+02</wgt>
<wgt id='2029'>0.31565E+02</wgt>
<wgt id='2030'>0.31533E+02</wgt>
<wgt id='2031'>0.31516E+02</wgt>
<wgt id='2032'>0.31516E+02</wgt>
<wgt id='2033'>0.31522E+02</wgt>
<wgt id='2034'>0.31524E+02</wgt>
<wgt id='2035'>0.31511E+02</wgt>
<wgt id='2036'>0.31507E+02</wgt>
<wgt id='2037'>0.31519E+02</wgt>
<wgt id='2038'>0.31510E+02</wgt>
<wgt id='2039'>0.31503E+02</wgt>
<wgt id='2040'>0.31516E+02</wgt>
<wgt id='2041'>0.31510E+02</wgt>
<wgt id='2042'>0.31501E+02</wgt>
<wgt id='2043'>0.31488E+02</wgt>
<wgt id='2044'>0.31519E+02</wgt>
<wgt id='2045'>0.31504E+02</wgt>
<wgt id='2046'>0.31551E+02</wgt>
<wgt id='2047'>0.31541E+02</wgt>
<wgt id='2048'>0.31514E+02</wgt>
<wgt id='2049'>0.31509E+02</wgt>
<wgt id='2050'>0.31525E+02</wgt>
<wgt id='2051'>0.31523E+02</wgt>
<wgt id='2052'>0.31515E+02</wgt>
<wgt id='2053'>0.31527E+02</wgt>
<wgt id='2054'>0.31514E+02</wgt>
<wgt id='2055'>0.31506E+02</wgt>
<wgt id='2056'>0.31501E+02</wgt>
<wgt id='2057'>0.31516E+02</wgt>
<wgt id='2058'>0.31511E+02</wgt>
<wgt id='2059'>0.31501E+02</wgt>
<wgt id='2060'>0.31515E+02</wgt>
<wgt id='2061'>0.31496E+02</wgt>
<wgt id='2062'>0.31504E+02</wgt>
<wgt id='2063'>0.31531E+02</wgt>
<wgt id='2064'>0.31500E+02</wgt>
<wgt id='2065'>0.31528E+02</wgt>
<wgt id='2066'>0.31509E+02</wgt>
<wgt id='2067'>0.31516E+02</wgt>
<wgt id='2068'>0.31521E+02</wgt>
<wgt id='2069'>0.31515E+02</wgt>
<wgt id='2070'>0.31503E+02</wgt>
<wgt id='2071'>0.31497E+02</wgt>
<wgt id='2072'>0.31514E+02</wgt>
<wgt id='2073'>0.31512E+02</wgt>
<wgt id='2074'>0.31509E+02</wgt>
<wgt id='2075'>0.31514E+02</wgt>
<wgt id='2076'>0.31501E+02</wgt>
<wgt id='2077'>0.31509E+02</wgt>
<wgt id='2078'>0.31517E+02</wgt>
<wgt id='2079'>0.31514E+02</wgt>
<wgt id='2080'>0.31506E+02</wgt>
<wgt id='2081'>0.31517E+02</wgt>
<wgt id='2082'>0.31515E+02</wgt>
<wgt id='2083'>0.31507E+02</wgt>
<wgt id='2084'>0.31519E+02</wgt>
<wgt id='2085'>0.31503E+02</wgt>
<wgt id='2086'>0.31497E+02</wgt>
<wgt id='2087'>0.31516E+02</wgt>
<wgt id='2088'>0.31518E+02</wgt>
<wgt id='2089'>0.31520E+02</wgt>
<wgt id='2090'>0.31507E+02</wgt>
<wgt id='2091'>0.31513E+02</wgt>
<wgt id='2092'>0.31512E+02</wgt>
<wgt id='2093'>0.31508E+02</wgt>
<wgt id='2094'>0.31518E+02</wgt>
<wgt id='2095'>0.31508E+02</wgt>
<wgt id='2096'>0.31514E+02</wgt>
<wgt id='2097'>0.31507E+02</wgt>
<wgt id='2098'>0.31512E+02</wgt>
<wgt id='2099'>0.31508E+02</wgt>
<wgt id='2100'>0.31512E+02</wgt>
<wgt id='2101'>0.30626E+02</wgt>
<wgt id='2102'>0.32313E+02</wgt>
<wgt id='2104'>0.27443E+02</wgt>
<wgt id='2105'>0.28164E+02</wgt>
<wgt id='2106'>0.28988E+02</wgt>
<wgt id='2107'>0.29848E+02</wgt>
<wgt id='2108'>0.31137E+02</wgt>
<wgt id='2109'>0.31996E+02</wgt>
<wgt id='2110'>0.33118E+02</wgt>
<wgt id='2111'>0.33982E+02</wgt>
<wgt id='3000'>0.32876E+02</wgt>
<wgt id='3001'>0.32969E+02</wgt>
<wgt id='3002'>0.32776E+02</wgt>
<wgt id='3003'>0.32969E+02</wgt>
<wgt id='3004'>0.32947E+02</wgt>
<wgt id='3005'>0.33003E+02</wgt>
<wgt id='3006'>0.32905E+02</wgt>
<wgt id='3007'>0.32936E+02</wgt>
<wgt id='3008'>0.32796E+02</wgt>
<wgt id='3009'>0.32860E+02</wgt>
<wgt id='3010'>0.32769E+02</wgt>
<wgt id='3011'>0.32924E+02</wgt>
<wgt id='3012'>0.33067E+02</wgt>
<wgt id='3013'>0.32684E+02</wgt>
<wgt id='3014'>0.32982E+02</wgt>
<wgt id='3015'>0.32958E+02</wgt>
<wgt id='3016'>0.32894E+02</wgt>
<wgt id='3017'>0.32983E+02</wgt>
<wgt id='3018'>0.32920E+02</wgt>
<wgt id='3019'>0.32783E+02</wgt>
<wgt id='3020'>0.32849E+02</wgt>
<wgt id='3021'>0.32811E+02</wgt>
<wgt id='3022'>0.32869E+02</wgt>
<wgt id='3023'>0.32845E+02</wgt>
<wgt id='3024'>0.32866E+02</wgt>
<wgt id='3025'>0.32881E+02</wgt>
<wgt id='3026'>0.32885E+02</wgt>
<wgt id='3027'>0.32885E+02</wgt>
<wgt id='3028'>0.32843E+02</wgt>
<wgt id='3029'>0.32878E+02</wgt>
<wgt id='3030'>0.32917E+02</wgt>
<wgt id='3031'>0.32894E+02</wgt>
<wgt id='3032'>0.32881E+02</wgt>
<wgt id='3033'>0.32895E+02</wgt>
<wgt id='3034'>0.32883E+02</wgt>
<wgt id='3035'>0.32908E+02</wgt>
<wgt id='3036'>0.32885E+02</wgt>
<wgt id='3037'>0.32889E+02</wgt>
<wgt id='3038'>0.32876E+02</wgt>
<wgt id='3039'>0.32882E+02</wgt>
<wgt id='3040'>0.32868E+02</wgt>
<wgt id='3041'>0.32874E+02</wgt>
<wgt id='3042'>0.32860E+02</wgt>
<wgt id='3043'>0.32864E+02</wgt>
<wgt id='3044'>0.32871E+02</wgt>
<wgt id='3045'>0.32876E+02</wgt>
<wgt id='3046'>0.32887E+02</wgt>
<wgt id='3047'>0.32876E+02</wgt>
<wgt id='3048'>0.32868E+02</wgt>
<wgt id='3049'>0.32877E+02</wgt>
<wgt id='3050'>0.32854E+02</wgt>
<wgt id='3051'>0.32901E+02</wgt>
<wgt id='3052'>0.32874E+02</wgt>
<wgt id='3053'>0.32854E+02</wgt>
<wgt id='3054'>0.32865E+02</wgt>
<wgt id='3055'>0.32857E+02</wgt>
<wgt id='3056'>0.32883E+02</wgt>
<wgt id='3057'>0.32870E+02</wgt>
<wgt id='3058'>0.32864E+02</wgt>
<wgt id='3059'>0.32871E+02</wgt>
<wgt id='3060'>0.32877E+02</wgt>
<wgt id='3061'>0.32876E+02</wgt>
<wgt id='3062'>0.32898E+02</wgt>
<wgt id='3063'>0.32873E+02</wgt>
<wgt id='3064'>0.32869E+02</wgt>
<wgt id='3065'>0.32869E+02</wgt>
<wgt id='3066'>0.32879E+02</wgt>
<wgt id='3067'>0.32848E+02</wgt>
<wgt id='3068'>0.32883E+02</wgt>
<wgt id='3069'>0.32866E+02</wgt>
<wgt id='3070'>0.32874E+02</wgt>
<wgt id='3071'>0.32867E+02</wgt>
<wgt id='3072'>0.32890E+02</wgt>
<wgt id='3073'>0.32863E+02</wgt>
<wgt id='3074'>0.32887E+02</wgt>
<wgt id='3075'>0.32873E+02</wgt>
<wgt id='3076'>0.32869E+02</wgt>
<wgt id='3077'>0.32882E+02</wgt>
<wgt id='3078'>0.32882E+02</wgt>
<wgt id='3079'>0.32879E+02</wgt>
<wgt id='3080'>0.32866E+02</wgt>
<wgt id='3081'>0.32882E+02</wgt>
<wgt id='3082'>0.32878E+02</wgt>
<wgt id='3083'>0.32876E+02</wgt>
<wgt id='3084'>0.32884E+02</wgt>
<wgt id='3085'>0.32865E+02</wgt>
<wgt id='3086'>0.32883E+02</wgt>
<wgt id='3087'>0.32894E+02</wgt>
<wgt id='3088'>0.32880E+02</wgt>
<wgt id='3089'>0.32875E+02</wgt>
<wgt id='3090'>0.32878E+02</wgt>
<wgt id='3091'>0.32878E+02</wgt>
<wgt id='3092'>0.32876E+02</wgt>
<wgt id='3093'>0.32872E+02</wgt>
<wgt id='3094'>0.32877E+02</wgt>
<wgt id='3095'>0.32870E+02</wgt>
<wgt id='3096'>0.32874E+02</wgt>
<wgt id='3097'>0.32868E+02</wgt>
<wgt id='3098'>0.32873E+02</wgt>
<wgt id='3099'>0.32876E+02</wgt>
<wgt id='3100'>0.32874E+02</wgt>
<wgt id='3101'>0.32001E+02</wgt>
<wgt id='3102'>0.33858E+02</wgt>
<wgt id='5000'>0.30920E+02</wgt>
<wgt id='5001'>0.30798E+02</wgt>
<wgt id='5002'>0.30882E+02</wgt>
<wgt id='5003'>0.30739E+02</wgt>
<wgt id='5004'>0.30972E+02</wgt>
<wgt id='5005'>0.30250E+02</wgt>
<wgt id='5006'>0.31187E+02</wgt>
<wgt id='5007'>0.31002E+02</wgt>
<wgt id='5008'>0.30606E+02</wgt>
<wgt id='5009'>0.31197E+02</wgt>
<wgt id='5010'>0.30731E+02</wgt>
<wgt id='5011'>0.30890E+02</wgt>
<wgt id='5012'>0.30888E+02</wgt>
<wgt id='5013'>0.30582E+02</wgt>
<wgt id='5014'>0.30888E+02</wgt>
<wgt id='5015'>0.31088E+02</wgt>
<wgt id='5016'>0.30380E+02</wgt>
<wgt id='5017'>0.30893E+02</wgt>
<wgt id='5018'>0.30950E+02</wgt>
<wgt id='5019'>0.30923E+02</wgt>
<wgt id='5020'>0.30898E+02</wgt>
<wgt id='5021'>0.30987E+02</wgt>
<wgt id='5022'>0.30875E+02</wgt>
<wgt id='5023'>0.30820E+02</wgt>
<wgt id='5024'>0.31021E+02</wgt>
<wgt id='5025'>0.30955E+02</wgt>
<wgt id='5026'>0.30889E+02</wgt>
<wgt id='5027'>0.31183E+02</wgt>
<wgt id='5028'>0.30474E+02</wgt>
<wgt id='5029'>0.30464E+02</wgt>
<wgt id='5030'>0.31191E+02</wgt>
<wgt id='5031'>0.30627E+02</wgt>
<wgt id='5032'>0.31338E+02</wgt>
<wgt id='5033'>0.30755E+02</wgt>
<wgt id='5034'>0.31060E+02</wgt>
<wgt id='5035'>0.30636E+02</wgt>
<wgt id='5036'>0.31137E+02</wgt>
<wgt id='5037'>0.30758E+02</wgt>
<wgt id='5038'>0.31088E+02</wgt>
<wgt id='5039'>0.31425E+02</wgt>
<wgt id='5040'>0.30653E+02</wgt>
<wgt id='5041'>0.30598E+02</wgt>
<wgt id='5042'>0.30982E+02</wgt>
<wgt id='5043'>0.31241E+02</wgt>
<wgt id='5044'>0.30229E+02</wgt>
<wgt id='5045'>0.31683E+02</wgt>
<wgt id='5046'>0.30534E+02</wgt>
<wgt id='5047'>0.31090E+02</wgt>
<wgt id='5048'>0.30957E+02</wgt>
<wgt id='5049'>0.30965E+02</wgt>
<wgt id='5050'>0.30981E+02</wgt>
<wgt id='5051'>0.31013E+02</wgt>
<wgt id='5052'>0.30904E+02</wgt>
<wgt id='5053'>0.30666E+02</wgt>
<wgt id='5054'>0.31486E+02</wgt>
<wgt id='5055'>0.30729E+02</wgt>
<wgt id='5056'>0.31103E+02</wgt>
<wgt id='5060'>0.30080E+02</wgt>
<wgt id='5070'>0.31682E+02</wgt>
<wgt id='4000'>0.32272E+02</wgt>
<wgt id='4001'>0.32312E+02</wgt>
<wgt id='4002'>0.32384E+02</wgt>
<wgt id='4003'>0.32786E+02</wgt>
<wgt id='4004'>0.31916E+02</wgt>
<wgt id='4005'>0.32392E+02</wgt>
<wgt id='4006'>0.32215E+02</wgt>
<wgt id='4007'>0.32574E+02</wgt>
<wgt id='4008'>0.32064E+02</wgt>
<wgt id='4009'>0.31726E+02</wgt>
<wgt id='4010'>0.32697E+02</wgt>
<wgt id='4011'>0.32761E+02</wgt>
<wgt id='4012'>0.31982E+02</wgt>
<wgt id='4013'>0.31322E+02</wgt>
<wgt id='4014'>0.32790E+02</wgt>
<wgt id='4015'>0.32589E+02</wgt>
<wgt id='4016'>0.32057E+02</wgt>
<wgt id='4017'>0.31945E+02</wgt>
<wgt id='4018'>0.32660E+02</wgt>
<wgt id='4019'>0.32683E+02</wgt>
<wgt id='4020'>0.31813E+02</wgt>
<wgt id='4021'>0.32337E+02</wgt>
<wgt id='4022'>0.32121E+02</wgt>
<wgt id='4023'>0.32144E+02</wgt>
<wgt id='4024'>0.32387E+02</wgt>
<wgt id='4025'>0.32050E+02</wgt>
<wgt id='4026'>0.32466E+02</wgt>
<wgt id='4027'>0.32202E+02</wgt>
<wgt id='4028'>0.32368E+02</wgt>
<wgt id='4029'>0.32102E+02</wgt>
<wgt id='4030'>0.32331E+02</wgt>
<wgt id='4031'>0.32330E+02</wgt>
<wgt id='4032'>0.32197E+02</wgt>
<wgt id='4033'>0.32212E+02</wgt>
<wgt id='4034'>0.32400E+02</wgt>
<wgt id='4035'>0.32535E+02</wgt>
<wgt id='4036'>0.32025E+02</wgt>
<wgt id='4037'>0.32467E+02</wgt>
<wgt id='4038'>0.31930E+02</wgt>
<wgt id='4039'>0.32249E+02</wgt>
<wgt id='4040'>0.32239E+02</wgt>
<wgt id='4041'>0.32455E+02</wgt>
<wgt id='4042'>0.32120E+02</wgt>
<wgt id='4043'>0.32382E+02</wgt>
<wgt id='4044'>0.32138E+02</wgt>
<wgt id='4045'>0.32022E+02</wgt>
<wgt id='4046'>0.32146E+02</wgt>
<wgt id='4047'>0.31861E+02</wgt>
<wgt id='4048'>0.32459E+02</wgt>
<wgt id='4049'>0.32300E+02</wgt>
<wgt id='4050'>0.31696E+02</wgt>
<wgt id='4051'>0.32215E+02</wgt>
<wgt id='4052'>0.32183E+02</wgt>
<wgt id='4053'>0.31440E+02</wgt>
<wgt id='4054'>0.32525E+02</wgt>
<wgt id='4055'>0.32024E+02</wgt>
<wgt id='4056'>0.32517E+02</wgt>
<wgt id='4060'>0.31321E+02</wgt>
<wgt id='4070'>0.33175E+02</wgt>
<wgt id='4080'>0.31071E+02</wgt>
<wgt id='6000'>0.32826E+02</wgt>
<wgt id='6001'>0.32831E+02</wgt>
<wgt id='6002'>0.32821E+02</wgt>
<wgt id='6003'>0.32844E+02</wgt>
<wgt id='6004'>0.32815E+02</wgt>
<wgt id='6005'>0.32927E+02</wgt>
<wgt id='6006'>0.32733E+02</wgt>
<wgt id='6007'>0.32685E+02</wgt>
<wgt id='6008'>0.32986E+02</wgt>
<wgt id='6009'>0.32898E+02</wgt>
<wgt id='6010'>0.32756E+02</wgt>
<wgt id='6011'>0.32884E+02</wgt>
<wgt id='6012'>0.32700E+02</wgt>
<wgt id='6013'>0.32799E+02</wgt>
<wgt id='6014'>0.32874E+02</wgt>
<wgt id='6015'>0.32729E+02</wgt>
<wgt id='6016'>0.32882E+02</wgt>
<wgt id='6017'>0.32685E+02</wgt>
<wgt id='6018'>0.32994E+02</wgt>
<wgt id='6019'>0.32882E+02</wgt>
<wgt id='6020'>0.32778E+02</wgt>
<wgt id='6021'>0.32779E+02</wgt>
<wgt id='6022'>0.32890E+02</wgt>
<wgt id='6023'>0.32630E+02</wgt>
<wgt id='6024'>0.32962E+02</wgt>
<wgt id='6025'>0.32550E+02</wgt>
<wgt id='6026'>0.33068E+02</wgt>
<wgt id='6027'>0.32896E+02</wgt>
<wgt id='6028'>0.32824E+02</wgt>
<wgt id='6029'>0.32960E+02</wgt>
<wgt id='6030'>0.32673E+02</wgt>
<wgt id='6031'>0.32797E+02</wgt>
<wgt id='6032'>0.32849E+02</wgt>
<wgt id='6033'>0.32903E+02</wgt>
<wgt id='6034'>0.32746E+02</wgt>
<wgt id='6035'>0.32821E+02</wgt>
<wgt id='6036'>0.32874E+02</wgt>
<wgt id='6037'>0.32884E+02</wgt>
<wgt id='6038'>0.32827E+02</wgt>
<wgt id='6039'>0.32796E+02</wgt>
<wgt id='6040'>0.32860E+02</wgt>
<wgt id='6041'>0.32735E+02</wgt>
<wgt id='6042'>0.32935E+02</wgt>
<wgt id='6043'>0.33170E+02</wgt>
<wgt id='6044'>0.32635E+02</wgt>
<wgt id='6045'>0.32797E+02</wgt>
<wgt id='6046'>0.32882E+02</wgt>
<wgt id='6047'>0.32836E+02</wgt>
<wgt id='6048'>0.32581E+02</wgt>
<wgt id='6049'>0.32835E+02</wgt>
<wgt id='6050'>0.32806E+02</wgt>
<wgt id='7000'>0.30914E+02</wgt>
<wgt id='7001'>0.30894E+02</wgt>
<wgt id='7002'>0.30940E+02</wgt>
<wgt id='7003'>0.31002E+02</wgt>
<wgt id='7004'>0.30826E+02</wgt>
<wgt id='7005'>0.30976E+02</wgt>
<wgt id='7006'>0.30889E+02</wgt>
<wgt id='7007'>0.30802E+02</wgt>
<wgt id='7008'>0.31025E+02</wgt>
<wgt id='7009'>0.30950E+02</wgt>
<wgt id='7010'>0.30878E+02</wgt>
<wgt id='7011'>0.30684E+02</wgt>
<wgt id='7012'>0.31014E+02</wgt>
<wgt id='7013'>0.30919E+02</wgt>
<wgt id='7014'>0.30908E+02</wgt>
<wgt id='7015'>0.30846E+02</wgt>
<wgt id='7016'>0.30988E+02</wgt>
<wgt id='7017'>0.30910E+02</wgt>
<wgt id='7018'>0.30914E+02</wgt>
<wgt id='7019'>0.30879E+02</wgt>
<wgt id='7020'>0.30961E+02</wgt>
<wgt id='7021'>0.30896E+02</wgt>
<wgt id='7022'>0.30925E+02</wgt>
<wgt id='7023'>0.31205E+02</wgt>
<wgt id='7024'>0.30633E+02</wgt>
<wgt id='7025'>0.31030E+02</wgt>
<wgt id='7026'>0.30630E+02</wgt>
<wgt id='7027'>0.31025E+02</wgt>
<wgt id='7028'>0.30850E+02</wgt>
<wgt id='7029'>0.30811E+02</wgt>
<wgt id='7030'>0.31188E+02</wgt>
<wgt id='7031'>0.30895E+02</wgt>
<wgt id='7032'>0.30951E+02</wgt>
<wgt id='7033'>0.30883E+02</wgt>
<wgt id='7034'>0.30981E+02</wgt>
<wgt id='7035'>0.30944E+02</wgt>
<wgt id='7036'>0.30905E+02</wgt>
<wgt id='7037'>0.30924E+02</wgt>
<wgt id='7038'>0.30906E+02</wgt>
<wgt id='7039'>0.30886E+02</wgt>
<wgt id='7040'>0.30934E+02</wgt>
<wgt id='7041'>0.30854E+02</wgt>
<wgt id='7042'>0.30954E+02</wgt>
<wgt id='7043'>0.30938E+02</wgt>
<wgt id='7044'>0.30773E+02</wgt>
<wgt id='7045'>0.30624E+02</wgt>
<wgt id='7046'>0.31022E+02</wgt>
<wgt id='7047'>0.30955E+02</wgt>
<wgt id='7048'>0.30878E+02</wgt>
<wgt id='7049'>0.30828E+02</wgt>
<wgt id='7050'>0.30889E+02</wgt>
<wgt id='7060'>0.45366E+02</wgt>
<wgt id='8000'>0.31345E+02</wgt>
<wgt id='8001'>0.31337E+02</wgt>
<wgt id='8002'>0.31353E+02</wgt>
<wgt id='8003'>0.31348E+02</wgt>
<wgt id='8004'>0.31344E+02</wgt>
<wgt id='8005'>0.31285E+02</wgt>
<wgt id='8006'>0.31336E+02</wgt>
<wgt id='8007'>0.31330E+02</wgt>
<wgt id='8008'>0.31401E+02</wgt>
<wgt id='8009'>0.31452E+02</wgt>
<wgt id='8010'>0.31338E+02</wgt>
<wgt id='8011'>0.31328E+02</wgt>
<wgt id='8012'>0.31292E+02</wgt>
<wgt id='8013'>0.31325E+02</wgt>
<wgt id='8014'>0.31346E+02</wgt>
<wgt id='8015'>0.31320E+02</wgt>
<wgt id='8016'>0.31353E+02</wgt>
<wgt id='8017'>0.31343E+02</wgt>
<wgt id='8018'>0.31359E+02</wgt>
<wgt id='8019'>0.31390E+02</wgt>
<wgt id='8020'>0.31263E+02</wgt>
<wgt id='8021'>0.31338E+02</wgt>
<wgt id='8022'>0.31199E+02</wgt>
<wgt id='8023'>0.31362E+02</wgt>
<wgt id='8024'>0.31375E+02</wgt>
<wgt id='8025'>0.31424E+02</wgt>
<wgt id='8026'>0.31404E+02</wgt>
<wgt id='8027'>0.31307E+02</wgt>
<wgt id='8028'>0.31362E+02</wgt>
<wgt id='8029'>0.31181E+02</wgt>
<wgt id='8500'>0.32535E+02</wgt>
<wgt id='8501'>0.32443E+02</wgt>
<wgt id='8502'>0.32812E+02</wgt>
<wgt id='8503'>0.32721E+02</wgt>
<wgt id='8504'>0.32447E+02</wgt>
<wgt id='8505'>0.32400E+02</wgt>
<wgt id='8506'>0.32495E+02</wgt>
<wgt id='8507'>0.32615E+02</wgt>
<wgt id='8508'>0.32813E+02</wgt>
<wgt id='8509'>0.32412E+02</wgt>
<wgt id='8510'>0.32938E+02</wgt>
<wgt id='8511'>0.32535E+02</wgt>
<wgt id='8512'>0.32238E+02</wgt>
<wgt id='8513'>0.32568E+02</wgt>
<wgt id='8514'>0.32367E+02</wgt>
<wgt id='8515'>0.32568E+02</wgt>
<wgt id='8516'>0.32611E+02</wgt>
<wgt id='8517'>0.32469E+02</wgt>
<wgt id='8518'>0.32424E+02</wgt>
<wgt id='8519'>0.32415E+02</wgt>
<wgt id='8520'>0.32549E+02</wgt>
<wgt id='8521'>0.32383E+02</wgt>
<wgt id='8522'>0.32570E+02</wgt>
<wgt id='8523'>0.32479E+02</wgt>
<wgt id='8524'>0.32516E+02</wgt>
<wgt id='8525'>0.32526E+02</wgt>
<wgt id='8526'>0.32484E+02</wgt>
<wgt id='8527'>0.32526E+02</wgt>
<wgt id='8528'>0.32468E+02</wgt>
<wgt id='8529'>0.32523E+02</wgt>
<wgt id='8530'>0.32537E+02</wgt>
<wgt id='8531'>0.32519E+02</wgt>
<wgt id='8532'>0.32539E+02</wgt>
<wgt id='8533'>0.32471E+02</wgt>
<wgt id='8534'>0.32549E+02</wgt>
<wgt id='8535'>0.32615E+02</wgt>
<wgt id='8536'>0.32527E+02</wgt>
<wgt id='8537'>0.32547E+02</wgt>
<wgt id='8538'>0.32503E+02</wgt>
<wgt id='8539'>0.32552E+02</wgt>
<wgt id='8540'>0.32542E+02</wgt>
<wgt id='8541'>0.32560E+02</wgt>
<wgt id='8542'>0.32570E+02</wgt>
<wgt id='8543'>0.32513E+02</wgt>
<wgt id='8544'>0.32581E+02</wgt>
<wgt id='8545'>0.32553E+02</wgt>
<wgt id='8546'>0.32557E+02</wgt>
<wgt id='8547'>0.32508E+02</wgt>
<wgt id='8548'>0.32510E+02</wgt>
<wgt id='8549'>0.32537E+02</wgt>
<wgt id='8550'>0.32534E+02</wgt>
<wgt id='8551'>0.32493E+02</wgt>
<wgt id='8552'>0.32535E+02</wgt>
<wgt id='8553'>0.32513E+02</wgt>
<wgt id='8554'>0.32512E+02</wgt>
<wgt id='8555'>0.32538E+02</wgt>
<wgt id='8556'>0.32536E+02</wgt>
<wgt id='8557'>0.32525E+02</wgt>
<wgt id='8558'>0.32577E+02</wgt>
<wgt id='8559'>0.32517E+02</wgt>
<wgt id='8560'>0.32493E+02</wgt>
<wgt id='8561'>0.32537E+02</wgt>
<wgt id='8562'>0.32505E+02</wgt>
<wgt id='8563'>0.32535E+02</wgt>
<wgt id='8564'>0.32524E+02</wgt>
<wgt id='8565'>0.32530E+02</wgt>
<wgt id='8566'>0.32525E+02</wgt>
<wgt id='8567'>0.32530E+02</wgt>
<wgt id='8568'>0.32554E+02</wgt>
<wgt id='8569'>0.32547E+02</wgt>
<wgt id='8570'>0.32529E+02</wgt>
<wgt id='8571'>0.32526E+02</wgt>
<wgt id='8572'>0.32526E+02</wgt>
<wgt id='8573'>0.32522E+02</wgt>
<wgt id='8574'>0.32535E+02</wgt>
<wgt id='8575'>0.32538E+02</wgt>
<wgt id='8576'>0.32530E+02</wgt>
<wgt id='8577'>0.32534E+02</wgt>
<wgt id='8578'>0.32532E+02</wgt>
<wgt id='8579'>0.32550E+02</wgt>
<wgt id='8580'>0.32538E+02</wgt>
<wgt id='8581'>0.32548E+02</wgt>
<wgt id='8582'>0.32516E+02</wgt>
<wgt id='8583'>0.32550E+02</wgt>
<wgt id='8584'>0.32540E+02</wgt>
<wgt id='8585'>0.32543E+02</wgt>
<wgt id='8586'>0.32546E+02</wgt>
<wgt id='8587'>0.32535E+02</wgt>
<wgt id='8588'>0.32529E+02</wgt>
<wgt id='8589'>0.32537E+02</wgt>
<wgt id='8590'>0.32536E+02</wgt>
<wgt id='8591'>0.32529E+02</wgt>
<wgt id='8592'>0.32533E+02</wgt>
<wgt id='8593'>0.32528E+02</wgt>
<wgt id='8594'>0.32542E+02</wgt>
<wgt id='8595'>0.32537E+02</wgt>
<wgt id='8596'>0.32528E+02</wgt>
<wgt id='8597'>0.32540E+02</wgt>
<wgt id='8598'>0.32542E+02</wgt>
<wgt id='8599'>0.32537E+02</wgt>
<wgt id='8600'>0.32535E+02</wgt>
<wgt id='8601'>0.31874E+02</wgt>
<wgt id='8602'>0.33137E+02</wgt>
<wgt id='9000'>0.31005E+02</wgt>
<wgt id='9001'>0.31055E+02</wgt>
<wgt id='9002'>0.31118E+02</wgt>
<wgt id='9003'>0.30792E+02</wgt>
<wgt id='9004'>0.30975E+02</wgt>
<wgt id='9005'>0.31163E+02</wgt>
<wgt id='9006'>0.30944E+02</wgt>
<wgt id='9007'>0.30948E+02</wgt>
<wgt id='9008'>0.31044E+02</wgt>
<wgt id='9009'>0.31007E+02</wgt>
<wgt id='9010'>0.30951E+02</wgt>
<wgt id='9011'>0.31299E+02</wgt>
<wgt id='9012'>0.30754E+02</wgt>
<wgt id='9013'>0.30687E+02</wgt>
<wgt id='9014'>0.30713E+02</wgt>
<wgt id='9015'>0.30937E+02</wgt>
<wgt id='9016'>0.31157E+02</wgt>
<wgt id='9017'>0.30997E+02</wgt>
<wgt id='9018'>0.30999E+02</wgt>
<wgt id='9019'>0.30987E+02</wgt>
<wgt id='9020'>0.31197E+02</wgt>
<wgt id='9021'>0.30958E+02</wgt>
<wgt id='9022'>0.31034E+02</wgt>
<wgt id='9023'>0.30975E+02</wgt>
<wgt id='9024'>0.30962E+02</wgt>
<wgt id='9025'>0.31032E+02</wgt>
<wgt id='9026'>0.31015E+02</wgt>
<wgt id='9027'>0.30970E+02</wgt>
<wgt id='9028'>0.31027E+02</wgt>
<wgt id='9029'>0.31032E+02</wgt>
<wgt id='9030'>0.31027E+02</wgt>
<wgt id='9031'>0.31011E+02</wgt>
<wgt id='9032'>0.31039E+02</wgt>
<wgt id='9033'>0.31043E+02</wgt>
<wgt id='9034'>0.30967E+02</wgt>
<wgt id='9035'>0.31046E+02</wgt>
<wgt id='9036'>0.31006E+02</wgt>
<wgt id='9037'>0.31042E+02</wgt>
<wgt id='9038'>0.31012E+02</wgt>
<wgt id='9039'>0.31010E+02</wgt>
<wgt id='9040'>0.30966E+02</wgt>
<wgt id='9041'>0.31001E+02</wgt>
<wgt id='9042'>0.30983E+02</wgt>
<wgt id='9043'>0.30985E+02</wgt>
<wgt id='9044'>0.31004E+02</wgt>
<wgt id='9045'>0.30992E+02</wgt>
<wgt id='9046'>0.30964E+02</wgt>
<wgt id='9047'>0.30993E+02</wgt>
<wgt id='9048'>0.31021E+02</wgt>
<wgt id='9049'>0.30987E+02</wgt>
<wgt id='9050'>0.31014E+02</wgt>
<wgt id='9051'>0.31015E+02</wgt>
<wgt id='9052'>0.31011E+02</wgt>
<wgt id='9053'>0.30996E+02</wgt>
<wgt id='9054'>0.30988E+02</wgt>
<wgt id='9055'>0.31001E+02</wgt>
<wgt id='9056'>0.31041E+02</wgt>
<wgt id='9057'>0.31007E+02</wgt>
<wgt id='9058'>0.30975E+02</wgt>
<wgt id='9059'>0.30992E+02</wgt>
<wgt id='9060'>0.30991E+02</wgt>
<wgt id='9061'>0.31012E+02</wgt>
<wgt id='9062'>0.31006E+02</wgt>
<wgt id='9063'>0.31020E+02</wgt>
<wgt id='9064'>0.30996E+02</wgt>
<wgt id='9065'>0.31009E+02</wgt>
<wgt id='9066'>0.31015E+02</wgt>
<wgt id='9067'>0.31019E+02</wgt>
<wgt id='9068'>0.31013E+02</wgt>
<wgt id='9069'>0.31026E+02</wgt>
<wgt id='9070'>0.30995E+02</wgt>
<wgt id='9071'>0.31033E+02</wgt>
<wgt id='9072'>0.31028E+02</wgt>
<wgt id='9073'>0.30995E+02</wgt>
<wgt id='9074'>0.31006E+02</wgt>
<wgt id='9075'>0.31004E+02</wgt>
<wgt id='9076'>0.31007E+02</wgt>
<wgt id='9077'>0.31004E+02</wgt>
<wgt id='9078'>0.31004E+02</wgt>
<wgt id='9079'>0.31004E+02</wgt>
<wgt id='9080'>0.31031E+02</wgt>
<wgt id='9081'>0.31002E+02</wgt>
<wgt id='9082'>0.31020E+02</wgt>
<wgt id='9083'>0.30996E+02</wgt>
<wgt id='9084'>0.31001E+02</wgt>
<wgt id='9085'>0.30996E+02</wgt>
<wgt id='9086'>0.31006E+02</wgt>
<wgt id='9087'>0.30987E+02</wgt>
<wgt id='9088'>0.30999E+02</wgt>
<wgt id='9089'>0.30997E+02</wgt>
<wgt id='9090'>0.31009E+02</wgt>
<wgt id='9091'>0.31005E+02</wgt>
<wgt id='9092'>0.31001E+02</wgt>
<wgt id='9093'>0.31002E+02</wgt>
<wgt id='9094'>0.31004E+02</wgt>
<wgt id='9095'>0.31011E+02</wgt>
<wgt id='9096'>0.31000E+02</wgt>
<wgt id='9097'>0.31007E+02</wgt>
<wgt id='9098'>0.31004E+02</wgt>
<wgt id='9099'>0.31001E+02</wgt>
<wgt id='9100'>0.31004E+02</wgt>
<wgt id='9101'>0.30468E+02</wgt>
<wgt id='9102'>0.31460E+02</wgt>
<wgt id='10000'>0.32536E+02</wgt>
<wgt id='10001'>0.32674E+02</wgt>
<wgt id='10002'>0.32512E+02</wgt>
<wgt id='10003'>0.32547E+02</wgt>
<wgt id='10004'>0.32546E+02</wgt>
<wgt id='10005'>0.33264E+02</wgt>
<wgt id='10006'>0.32517E+02</wgt>
<wgt id='10007'>0.32531E+02</wgt>
<wgt id='10008'>0.32578E+02</wgt>
<wgt id='10009'>0.32462E+02</wgt>
<wgt id='10010'>0.32565E+02</wgt>
<wgt id='10011'>0.32469E+02</wgt>
<wgt id='10012'>0.32493E+02</wgt>
<wgt id='10013'>0.32540E+02</wgt>
<wgt id='10014'>0.32532E+02</wgt>
<wgt id='10015'>0.32565E+02</wgt>
<wgt id='10016'>0.32522E+02</wgt>
<wgt id='10017'>0.32444E+02</wgt>
<wgt id='10018'>0.32569E+02</wgt>
<wgt id='10019'>0.32429E+02</wgt>
<wgt id='10020'>0.32533E+02</wgt>
<wgt id='10021'>0.32540E+02</wgt>
<wgt id='10022'>0.32494E+02</wgt>
<wgt id='10023'>0.32554E+02</wgt>
<wgt id='10024'>0.32542E+02</wgt>
<wgt id='10025'>0.32515E+02</wgt>
<wgt id='10026'>0.32549E+02</wgt>
<wgt id='10027'>0.32546E+02</wgt>
<wgt id='10028'>0.32671E+02</wgt>
<wgt id='10029'>0.32564E+02</wgt>
<wgt id='10030'>0.32519E+02</wgt>
<wgt id='10031'>0.31874E+02</wgt>
<wgt id='10032'>0.33137E+02</wgt>
<wgt id='11000'>0.31005E+02</wgt>
<wgt id='11001'>0.30908E+02</wgt>
<wgt id='11002'>0.31087E+02</wgt>
<wgt id='11003'>0.30987E+02</wgt>
<wgt id='11004'>0.31048E+02</wgt>
<wgt id='11005'>0.30635E+02</wgt>
<wgt id='11006'>0.31007E+02</wgt>
<wgt id='11007'>0.30952E+02</wgt>
<wgt id='11008'>0.30961E+02</wgt>
<wgt id='11009'>0.30907E+02</wgt>
<wgt id='11010'>0.31004E+02</wgt>
<wgt id='11011'>0.30856E+02</wgt>
<wgt id='11012'>0.31020E+02</wgt>
<wgt id='11013'>0.31096E+02</wgt>
<wgt id='11014'>0.30927E+02</wgt>
<wgt id='11015'>0.30955E+02</wgt>
<wgt id='11016'>0.30965E+02</wgt>
<wgt id='11017'>0.31227E+02</wgt>
<wgt id='11018'>0.31009E+02</wgt>
<wgt id='11019'>0.31009E+02</wgt>
<wgt id='11020'>0.31033E+02</wgt>
<wgt id='11021'>0.31081E+02</wgt>
<wgt id='11022'>0.31491E+02</wgt>
<wgt id='11023'>0.30998E+02</wgt>
<wgt id='11024'>0.30957E+02</wgt>
<wgt id='11025'>0.30951E+02</wgt>
<wgt id='11026'>0.31004E+02</wgt>
<wgt id='11027'>0.31002E+02</wgt>
<wgt id='11028'>0.30978E+02</wgt>
<wgt id='11029'>0.30952E+02</wgt>
<wgt id='11030'>0.31008E+02</wgt>
<wgt id='11031'>0.30468E+02</wgt>
<wgt id='11032'>0.31460E+02</wgt>
<wgt id='12000'>0.33485E+02</wgt>
<wgt id='12001'>0.33446E+02</wgt>
<wgt id='12002'>0.33523E+02</wgt>
<wgt id='12003'>0.33546E+02</wgt>
<wgt id='12004'>0.33424E+02</wgt>
<wgt id='12005'>0.33541E+02</wgt>
<wgt id='12006'>0.33428E+02</wgt>
<wgt id='12007'>0.33573E+02</wgt>
<wgt id='12008'>0.33398E+02</wgt>
<wgt id='12009'>0.33520E+02</wgt>
<wgt id='12010'>0.33449E+02</wgt>
<wgt id='12011'>0.33402E+02</wgt>
<wgt id='12012'>0.33576E+02</wgt>
<wgt id='12013'>0.33344E+02</wgt>
<wgt id='12014'>0.33626E+02</wgt>
<wgt id='12015'>0.33518E+02</wgt>
<wgt id='12016'>0.33404E+02</wgt>
<wgt id='12017'>0.33605E+02</wgt>
<wgt id='12018'>0.33365E+02</wgt>
<wgt id='12019'>0.33362E+02</wgt>
<wgt id='12020'>0.33594E+02</wgt>
<wgt id='12021'>0.33551E+02</wgt>
<wgt id='12022'>0.33387E+02</wgt>
<wgt id='12023'>0.33325E+02</wgt>
<wgt id='12024'>0.33499E+02</wgt>
<wgt id='12025'>0.33536E+02</wgt>
<wgt id='12026'>0.33481E+02</wgt>
<wgt id='12027'>0.33541E+02</wgt>
<wgt id='12028'>0.33450E+02</wgt>
<wgt id='12050'>0.33485E+02</wgt>
<wgt id='12051'>0.33485E+02</wgt>
<wgt id='12052'>0.33456E+02</wgt>
<wgt id='12053'>0.33478E+02</wgt>
<wgt id='12054'>0.33466E+02</wgt>
<wgt id='12055'>0.33547E+02</wgt>
<wgt id='12056'>0.33350E+02</wgt>
<wgt id='12057'>0.33386E+02</wgt>
<wgt id='12058'>0.33579E+02</wgt>
<wgt id='12059'>0.33465E+02</wgt>
<wgt id='12060'>0.33510E+02</wgt>
<wgt id='12061'>0.33453E+02</wgt>
<wgt id='12062'>0.33511E+02</wgt>
<wgt id='12063'>0.33229E+02</wgt>
<wgt id='13000'>0.31136E+02</wgt>
<wgt id='13001'>0.31112E+02</wgt>
<wgt id='13002'>0.31154E+02</wgt>
<wgt id='13003'>0.31157E+02</wgt>
<wgt id='13004'>0.31109E+02</wgt>
<wgt id='13005'>0.31201E+02</wgt>
<wgt id='13006'>0.31065E+02</wgt>
<wgt id='13007'>0.31263E+02</wgt>
<wgt id='13008'>0.31006E+02</wgt>
<wgt id='13009'>0.31107E+02</wgt>
<wgt id='13010'>0.31161E+02</wgt>
<wgt id='13011'>0.31209E+02</wgt>
<wgt id='13012'>0.31056E+02</wgt>
<wgt id='13013'>0.31032E+02</wgt>
<wgt id='13014'>0.31232E+02</wgt>
<wgt id='13015'>0.31088E+02</wgt>
<wgt id='13016'>0.31140E+02</wgt>
<wgt id='13017'>0.31108E+02</wgt>
<wgt id='13018'>0.31152E+02</wgt>
<wgt id='13019'>0.31050E+02</wgt>
<wgt id='13020'>0.31211E+02</wgt>
<wgt id='13021'>0.30982E+02</wgt>
<wgt id='13022'>0.31251E+02</wgt>
<wgt id='13023'>0.31117E+02</wgt>
<wgt id='13024'>0.31156E+02</wgt>
<wgt id='13025'>0.31018E+02</wgt>
<wgt id='13026'>0.31198E+02</wgt>
<wgt id='13027'>0.31116E+02</wgt>
<wgt id='13028'>0.31173E+02</wgt>
<wgt id='13050'>0.31136E+02</wgt>
<wgt id='13051'>0.31166E+02</wgt>
<wgt id='13052'>0.30951E+02</wgt>
<wgt id='13053'>0.31155E+02</wgt>
<wgt id='13054'>0.31103E+02</wgt>
<wgt id='13055'>0.31049E+02</wgt>
<wgt id='13056'>0.31106E+02</wgt>
<wgt id='13057'>0.31051E+02</wgt>
<wgt id='13058'>0.31266E+02</wgt>
<wgt id='13059'>0.31100E+02</wgt>
<wgt id='13060'>0.31074E+02</wgt>
<wgt id='13061'>0.31072E+02</wgt>
<wgt id='13062'>0.31308E+02</wgt>
<wgt id='13063'>0.30981E+02</wgt>
<wgt id='14000'>0.32175E+02</wgt>
<wgt id='14001'>0.32170E+02</wgt>
<wgt id='14002'>0.32165E+02</wgt>
<wgt id='14003'>0.32159E+02</wgt>
<wgt id='14004'>0.32154E+02</wgt>
<wgt id='14005'>0.32149E+02</wgt>
<wgt id='14006'>0.32143E+02</wgt>
<wgt id='14007'>0.32138E+02</wgt>
<wgt id='14008'>0.32133E+02</wgt>
<wgt id='14009'>0.32127E+02</wgt>
<wgt id='14010'>0.32122E+02</wgt>
<wgt id='14011'>0.32117E+02</wgt>
<wgt id='14012'>0.32111E+02</wgt>
<wgt id='14013'>0.32106E+02</wgt>
<wgt id='14014'>0.32101E+02</wgt>
<wgt id='14015'>0.32096E+02</wgt>
<wgt id='14016'>0.32090E+02</wgt>
<wgt id='14017'>0.32085E+02</wgt>
<wgt id='14018'>0.32080E+02</wgt>
<wgt id='14019'>0.32074E+02</wgt>
<wgt id='14020'>0.32069E+02</wgt>
<wgt id='14021'>0.32064E+02</wgt>
<wgt id='14022'>0.32059E+02</wgt>
<wgt id='14023'>0.32053E+02</wgt>
<wgt id='14024'>0.32048E+02</wgt>
<wgt id='14025'>0.32043E+02</wgt>
<wgt id='14026'>0.32037E+02</wgt>
<wgt id='14027'>0.32032E+02</wgt>
<wgt id='14028'>0.32027E+02</wgt>
<wgt id='14029'>0.32022E+02</wgt>
<wgt id='14030'>0.32016E+02</wgt>
<wgt id='15000'>0.30654E+02</wgt>
<wgt id='15001'>0.30705E+02</wgt>
<wgt id='15002'>0.30765E+02</wgt>
<wgt id='15003'>0.30445E+02</wgt>
<wgt id='15004'>0.30626E+02</wgt>
<wgt id='15005'>0.30811E+02</wgt>
<wgt id='15006'>0.30594E+02</wgt>
<wgt id='15007'>0.30597E+02</wgt>
<wgt id='15008'>0.30693E+02</wgt>
<wgt id='15009'>0.30657E+02</wgt>
<wgt id='15010'>0.30602E+02</wgt>
<wgt id='15011'>0.30944E+02</wgt>
<wgt id='15012'>0.30406E+02</wgt>
<wgt id='15013'>0.30341E+02</wgt>
<wgt id='15014'>0.30364E+02</wgt>
<wgt id='15015'>0.30587E+02</wgt>
<wgt id='15016'>0.30803E+02</wgt>
<wgt id='15017'>0.30647E+02</wgt>
<wgt id='15018'>0.30650E+02</wgt>
<wgt id='15019'>0.30637E+02</wgt>
<wgt id='15020'>0.30844E+02</wgt>
<wgt id='15021'>0.30606E+02</wgt>
<wgt id='15022'>0.30684E+02</wgt>
<wgt id='15023'>0.30622E+02</wgt>
<wgt id='15024'>0.30611E+02</wgt>
<wgt id='15025'>0.30683E+02</wgt>
<wgt id='15026'>0.30664E+02</wgt>
<wgt id='15027'>0.30619E+02</wgt>
<wgt id='15028'>0.30676E+02</wgt>
<wgt id='15029'>0.30682E+02</wgt>
<wgt id='15030'>0.30676E+02</wgt>
<wgt id='15031'>0.30659E+02</wgt>
<wgt id='15032'>0.30688E+02</wgt>
<wgt id='15033'>0.30693E+02</wgt>
<wgt id='15034'>0.30617E+02</wgt>
<wgt id='15035'>0.30695E+02</wgt>
<wgt id='15036'>0.30655E+02</wgt>
<wgt id='15037'>0.30691E+02</wgt>
<wgt id='15038'>0.30661E+02</wgt>
<wgt id='15039'>0.30660E+02</wgt>
<wgt id='15040'>0.30615E+02</wgt>
<wgt id='15041'>0.30650E+02</wgt>
<wgt id='15042'>0.30633E+02</wgt>
<wgt id='15043'>0.30634E+02</wgt>
<wgt id='15044'>0.30654E+02</wgt>
<wgt id='15045'>0.30642E+02</wgt>
<wgt id='15046'>0.30614E+02</wgt>
<wgt id='15047'>0.30642E+02</wgt>
<wgt id='15048'>0.30670E+02</wgt>
<wgt id='15049'>0.30637E+02</wgt>
<wgt id='15050'>0.30663E+02</wgt>
<wgt id='15051'>0.30664E+02</wgt>
<wgt id='15052'>0.30660E+02</wgt>
<wgt id='15053'>0.30646E+02</wgt>
<wgt id='15054'>0.30637E+02</wgt>
<wgt id='15055'>0.30650E+02</wgt>
<wgt id='15056'>0.30690E+02</wgt>
<wgt id='15057'>0.30656E+02</wgt>
<wgt id='15058'>0.30624E+02</wgt>
<wgt id='15059'>0.30642E+02</wgt>
<wgt id='15060'>0.30640E+02</wgt>
<wgt id='15061'>0.30661E+02</wgt>
<wgt id='15062'>0.30655E+02</wgt>
<wgt id='15063'>0.30669E+02</wgt>
<wgt id='15064'>0.30645E+02</wgt>
<wgt id='15065'>0.30659E+02</wgt>
<wgt id='15066'>0.30664E+02</wgt>
<wgt id='15067'>0.30669E+02</wgt>
<wgt id='15068'>0.30662E+02</wgt>
<wgt id='15069'>0.30675E+02</wgt>
<wgt id='15070'>0.30645E+02</wgt>
<wgt id='15071'>0.30682E+02</wgt>
<wgt id='15072'>0.30678E+02</wgt>
<wgt id='15073'>0.30644E+02</wgt>
<wgt id='15074'>0.30655E+02</wgt>
<wgt id='15075'>0.30653E+02</wgt>
<wgt id='15076'>0.30656E+02</wgt>
<wgt id='15077'>0.30654E+02</wgt>
<wgt id='15078'>0.30653E+02</wgt>
<wgt id='15079'>0.30653E+02</wgt>
<wgt id='15080'>0.30681E+02</wgt>
<wgt id='15081'>0.30652E+02</wgt>
<wgt id='15082'>0.30669E+02</wgt>
<wgt id='15083'>0.30645E+02</wgt>
<wgt id='15084'>0.30651E+02</wgt>
<wgt id='15085'>0.30646E+02</wgt>
<wgt id='15086'>0.30655E+02</wgt>
<wgt id='15087'>0.30637E+02</wgt>
<wgt id='15088'>0.30648E+02</wgt>
<wgt id='15089'>0.30646E+02</wgt>
<wgt id='15090'>0.30659E+02</wgt>
<wgt id='15091'>0.30654E+02</wgt>
<wgt id='15092'>0.30650E+02</wgt>
<wgt id='15093'>0.30651E+02</wgt>
<wgt id='15094'>0.30654E+02</wgt>
<wgt id='15095'>0.30660E+02</wgt>
<wgt id='15096'>0.30650E+02</wgt>
<wgt id='15097'>0.30656E+02</wgt>
<wgt id='15098'>0.30653E+02</wgt>
<wgt id='15099'>0.30650E+02</wgt>
<wgt id='15100'>0.30653E+02</wgt>
<wgt id='15101'>0.30654E+02</wgt>
<wgt id='15102'>0.30652E+02</wgt>
<wgt id='15103'>0.30655E+02</wgt>
<wgt id='15104'>0.30655E+02</wgt>
<wgt id='15105'>0.30655E+02</wgt>
<wgt id='15106'>0.30655E+02</wgt>
<wgt id='15107'>0.30653E+02</wgt>
<wgt id='1500'>0.32457E+02</wgt>
<wgt id='1501'>0.30215E+02</wgt>
<wgt id='1502'>0.32555E+02</wgt>
<wgt id='1503'>0.32395E+02</wgt>
<wgt id='1504'>0.31997E+02</wgt>
<wgt id='1505'>0.29094E+02</wgt>
<wgt id='1506'>0.32570E+02</wgt>
<wgt id='1507'>0.32881E+02</wgt>
<wgt id='1508'>0.32340E+02</wgt>
<wgt id='1509'>0.32449E+02</wgt>
<wgt id='1510'>0.31603E+02</wgt>
<wgt id='1511'>0.31720E+02</wgt>
<wgt id='1512'>0.32848E+02</wgt>
<wgt id='1513'>0.32881E+02</wgt>
<wgt id='1514'>0.31708E+02</wgt>
<wgt id='1515'>0.32630E+02</wgt>
<wgt id='1516'>0.33036E+02</wgt>
<wgt id='1517'>0.32028E+02</wgt>
<wgt id='1518'>0.32271E+02</wgt>
<wgt id='1519'>0.32881E+02</wgt>
<wgt id='1520'>0.33065E+02</wgt>
<wgt id='1521'>0.32691E+02</wgt>
<wgt id='1522'>0.32223E+02</wgt>
<wgt id='1523'>0.34673E+02</wgt>
<wgt id='1524'>0.32245E+02</wgt>
<wgt id='1525'>0.32804E+02</wgt>
<wgt id='1526'>0.31985E+02</wgt>
<wgt id='1527'>0.32261E+02</wgt>
<wgt id='1528'>0.32182E+02</wgt>
<wgt id='1529'>0.32218E+02</wgt>
<wgt id='1530'>0.33117E+02</wgt>
<wgt id='1531'>0.32303E+02</wgt>
<wgt id='1532'>0.31630E+02</wgt>
<wgt id='1533'>0.32956E+02</wgt>
<wgt id='1534'>0.32588E+02</wgt>
<wgt id='1535'>0.33404E+02</wgt>
<wgt id='1536'>0.33195E+02</wgt>
<wgt id='1537'>0.32854E+02</wgt>
<wgt id='1538'>0.32433E+02</wgt>
<wgt id='1539'>0.31454E+02</wgt>
<wgt id='1540'>0.32780E+02</wgt>
<wgt id='1541'>0.32589E+02</wgt>
<wgt id='1542'>0.32738E+02</wgt>
<wgt id='1543'>0.32594E+02</wgt>
<wgt id='1544'>0.32244E+02</wgt>
<wgt id='1545'>0.32819E+02</wgt>
<wgt id='1546'>0.32802E+02</wgt>
<wgt id='1547'>0.31883E+02</wgt>
<wgt id='1548'>0.31984E+02</wgt>
<wgt id='1549'>0.32619E+02</wgt>
<wgt id='1550'>0.32389E+02</wgt>
<wgt id='1551'>0.32265E+02</wgt>
<wgt id='1552'>0.32111E+02</wgt>
<wgt id='1553'>0.32944E+02</wgt>
<wgt id='1554'>0.32394E+02</wgt>
<wgt id='1555'>0.32429E+02</wgt>
<wgt id='1556'>0.31754E+02</wgt>
<wgt id='1557'>0.33574E+02</wgt>
<wgt id='1558'>0.32051E+02</wgt>
<wgt id='1559'>0.32970E+02</wgt>
<wgt id='1560'>0.32400E+02</wgt>
<wgt id='1561'>0.32850E+02</wgt>
<wgt id='1562'>0.32567E+02</wgt>
<wgt id='1563'>0.32835E+02</wgt>
<wgt id='1564'>0.31992E+02</wgt>
<wgt id='1565'>0.32740E+02</wgt>
<wgt id='1566'>0.32566E+02</wgt>
<wgt id='1567'>0.34081E+02</wgt>
<wgt id='1568'>0.32102E+02</wgt>
<wgt id='1569'>0.31591E+02</wgt>
<wgt id='1570'>0.32191E+02</wgt>
<wgt id='1571'>0.33033E+02</wgt>
<wgt id='1572'>0.32284E+02</wgt>
<wgt id='1573'>0.30292E+02</wgt>
<wgt id='1574'>0.32645E+02</wgt>
<wgt id='1575'>0.32195E+02</wgt>
<wgt id='1576'>0.31528E+02</wgt>
<wgt id='1577'>0.32623E+02</wgt>
<wgt id='1578'>0.33488E+02</wgt>
<wgt id='1579'>0.32358E+02</wgt>
<wgt id='1580'>0.32617E+02</wgt>
<wgt id='1581'>0.32648E+02</wgt>
<wgt id='1582'>0.32009E+02</wgt>
<wgt id='1583'>0.32617E+02</wgt>
<wgt id='1584'>0.32592E+02</wgt>
<wgt id='1585'>0.31681E+02</wgt>
<wgt id='1586'>0.32309E+02</wgt>
<wgt id='1587'>0.32264E+02</wgt>
<wgt id='1588'>0.32488E+02</wgt>
<wgt id='1589'>0.33115E+02</wgt>
<wgt id='1590'>0.32177E+02</wgt>
<wgt id='1591'>0.31728E+02</wgt>
<wgt id='1592'>0.33082E+02</wgt>
<wgt id='1593'>0.32336E+02</wgt>
<wgt id='1594'>0.33166E+02</wgt>
<wgt id='1595'>0.31864E+02</wgt>
<wgt id='1596'>0.32902E+02</wgt>
<wgt id='1597'>0.32476E+02</wgt>
<wgt id='1598'>0.33685E+02</wgt>
<wgt id='1599'>0.33201E+02</wgt>
<wgt id='1600'>0.32353E+02</wgt>
<wgt id='1601'>0.31918E+02</wgt>
<wgt id='1602'>0.32713E+02</wgt>
<wgt id='1700'>0.31117E+02</wgt>
<wgt id='1800'>0.35858E+02</wgt>
<wgt id='1850'>0.43231E+02</wgt>
<wgt id='1900'>0.35895E+02</wgt>
<wgt id='1950'>0.41803E+02</wgt>
</rwgt>
</event>
<event>
      4   9999  3.15120E+01  8.60611E+01 -1.00000E+00  1.25168E-01
      21    -1     0     0   502   512  0.000000000E+00  0.000000000E+00  3.282274004E+02  3.282274004E+02  0.000000000E+00  0.00000E+00  9.000E+00
      21    -1     0     0   501   502  0.000000000E+00  0.000000000E+00 -1.156822634E+02  1.156822634E+02  0.000000000E+00  0.00000E+00  9.000E+00
      25     1     1     2     0     0 -5.721752838E+01  6.428583710E+01 -5.902534934E+01  1.590289107E+02  1.199987008E+02  0.00000E+00  9.000E+00
      21     1     1     2   501   512  5.721752838E+01 -6.428583710E+01  2.715704864E+02  2.848807531E+02  0.000000000E+00  0.00000E+00  9.000E+00
#rwgt            1           1   27.015083008330592                2        2851           0
<rwgt>
<wgt id='1001'>0.31512E+02</wgt>
<wgt id='1002'>0.35481E+02</wgt>
<wgt id='1003'>0.27370E+02</wgt>
<wgt id='1004'>0.26235E+02</wgt>
<wgt id='1005'>0.29352E+02</wgt>
<wgt id='1006'>0.22941E+02</wgt>
<wgt id='1007'>0.38614E+02</wgt>
<wgt id='1008'>0.43816E+02</wgt>
<wgt id='1009'>0.33258E+02</wgt>
<wgt id='2000'>0.31512E+02</wgt>
<wgt id='2001'>0.31477E+02</wgt>
<wgt id='2002'>0.31653E+02</wgt>
<wgt id='2003'>0.31641E+02</wgt>
<wgt id='2004'>0.31546E+02</wgt>
<wgt id='2005'>0.31430E+02</wgt>
<wgt id='2006'>0.31423E+02</wgt>
<wgt id='2007'>0.31385E+02</wgt>
<wgt id='2008'>0.31467E+02</wgt>
<wgt id='2009'>0.31539E+02</wgt>
<wgt id='2010'>0.31482E+02</wgt>
<wgt id='2011'>0.31682E+02</wgt>
<wgt id='2012'>0.31696E+02</wgt>
<wgt id='2013'>0.31810E+02</wgt>
<wgt id='2014'>0.31621E+02</wgt>
<wgt id='2015'>0.31576E+02</wgt>
<wgt id='2016'>0.31430E+02</wgt>
<wgt id='2017'>0.31509E+02</wgt>
<wgt id='2018'>0.31628E+02</wgt>
<wgt id='2019'>0.31495E+02</wgt>
<wgt id='2020'>0.31584E+02</wgt>
<wgt id='2021'>0.31475E+02</wgt>
<wgt id='2022'>0.31522E+02</wgt>
<wgt id='2023'>0.31530E+02</wgt>
<wgt id='2024'>0.31531E+02</wgt>
<wgt id='2025'>0.31512E+02</wgt>
<wgt id='2026'>0.31511E+02</wgt>
<wgt id='2027'>0.31499E+02</wgt>
<wgt id='2028'>0.31504E+02</wgt>
<wgt id='2029'>0.31539E+02</wgt>
<wgt id='2030'>0.31521E+02</wgt>
<wgt id='2031'>0.31522E+02</wgt>
<wgt id='2032'>0.31509E+02</wgt>
<wgt id='2033'>0.31517E+02</wgt>
<wgt id='2034'>0.31527E+02</wgt>
<wgt id='2035'>0.31507E+02</wgt>
<wgt id='2036'>0.31516E+02</wgt>
<wgt id='2037'>0.31521E+02</wgt>
<wgt id='2038'>0.31510E+02</wgt>
<wgt id='2039'>0.31502E+02</wgt>
<wgt id='2040'>0.31513E+02</wgt>
<wgt id='2041'>0.31512E+02</wgt>
<wgt id='2042'>0.31503E+02</wgt>
<wgt id='2043'>0.31512E+02</wgt>
<wgt id='2044'>0.31521E+02</wgt>
<wgt id='2045'>0.31511E+02</wgt>
<wgt id='2046'>0.31522E+02</wgt>
<wgt id='2047'>0.31522E+02</wgt>
<wgt id='2048'>0.31509E+02</wgt>
<wgt id='2049'>0.31513E+02</wgt>
<wgt id='2050'>0.31519E+02</wgt>
<wgt id='2051'>0.31521E+02</wgt>
<wgt id='2052'>0.31510E+02</wgt>
<wgt id='2053'>0.31514E+02</wgt>
<wgt id='2054'>0.31513E+02</wgt>
<wgt id='2055'>0.31513E+02</wgt>
<wgt id='2056'>0.31513E+02</wgt>
<wgt id='2057'>0.31515E+02</wgt>
<wgt id='2058'>0.31515E+02</wgt>
<wgt id='2059'>0.31508E+02</wgt>
<wgt id='2060'>0.31511E+02</wgt>
<wgt id='2061'>0.31506E+02</wgt>
<wgt id='2062'>0.31513E+02</wgt>
<wgt id='2063'>0.31511E+02</wgt>
<wgt id='2064'>0.31506E+02</wgt>
<wgt id='2065'>0.31522E+02</wgt>
<wgt id='2066'>0.31508E+02</wgt>
<wgt id='2067'>0.31512E+02</wgt>
<wgt id='2068'>0.31517E+02</wgt>
<wgt id='2069'>0.31512E+02</wgt>
<wgt id='2070'>0.31511E+02</wgt>
<wgt id='2071'>0.31509E+02</wgt>
<wgt id='2072'>0.31516E+02</wgt>
<wgt id='2073'>0.31518E+02</wgt>
<wgt id='2074'>0.31515E+02</wgt>
<wgt id='2075'>0.31507E+02</wgt>
<wgt id='2076'>0.31517E+02</wgt>
<wgt id='2077'>0.31508E+02</wgt>
<wgt id='2078'>0.31504E+02</wgt>
<wgt id='2079'>0.31516E+02</wgt>
<wgt id='2080'>0.31515E+02</wgt>
<wgt id='2081'>0.31516E+02</wgt>
<wgt id='2082'>0.31515E+02</wgt>
<wgt id='2083'>0.31514E+02</wgt>
<wgt id='2084'>0.31509E+02</wgt>
<wgt id='2085'>0.31504E+02</wgt>
<wgt id='2086'>0.31513E+02</wgt>
<wgt id='2087'>0.31512E+02</wgt>
<wgt id='2088'>0.31508E+02</wgt>
<wgt id='2089'>0.31514E+02</wgt>
<wgt id='2090'>0.31517E+02</wgt>
<wgt id='2091'>0.31510E+02</wgt>
<wgt id='2092'>0.31515E+02</wgt>
<wgt id='2093'>0.31513E+02</wgt>
<wgt id='2094'>0.31515E+02</wgt>
<wgt id='2095'>0.31509E+02</wgt>
<wgt id='2096'>0.31510E+02</wgt>
<wgt id='2097'>0.31512E+02</wgt>
<wgt id='2098'>0.31511E+02</wgt>
<wgt id='2099'>0.31513E+02</wgt>
<wgt id='2100'>0.31512E+02</wgt>
<wgt id='2101'>0.30694E+02</wgt>
<wgt id='2102'>0.32223E+02</wgt>
<wgt id='2104'>0.27756E+02</wgt>
<wgt id='2105'>0.28392E+02</wgt>
<wgt id='2106'>0.29144E+02</wgt>
<wgt id='2107'>0.29980E+02</wgt>
<wgt id='2108'>0.31188E+02</wgt>
<wgt id='2109'>0.31958E+02</wgt>
<wgt id='2110'>0.32951E+02</wgt>
<wgt id='2111'>0.33720E+02</wgt>
<wgt id='3000'>0.32893E+02</wgt>
<wgt id='3001'>0.33017E+02</wgt>
<wgt id='3002'>0.32749E+02</wgt>
<wgt id='3003'>0.33025E+02</wgt>
<wgt id='3004'>0.32966E+02</wgt>
<wgt id='3005'>0.33054E+02</wgt>
<wgt id='3006'>0.32945E+02</wgt>
<wgt id='3007'>0.32960E+02</wgt>
<wgt id='3008'>0.32789E+02</wgt>
<wgt id='3009'>0.32839E+02</wgt>
<wgt id='3010'>0.32764E+02</wgt>
<wgt id='3011'>0.32981E+02</wgt>
<wgt id='3012'>0.33144E+02</wgt>
<wgt id='3013'>0.32609E+02</wgt>
<wgt id='3014'>0.33027E+02</wgt>
<wgt id='3015'>0.33028E+02</wgt>
<wgt id='3016'>0.32907E+02</wgt>
<wgt id='3017'>0.33036E+02</wgt>
<wgt id='3018'>0.32925E+02</wgt>
<wgt id='3019'>0.32792E+02</wgt>
<wgt id='3020'>0.32887E+02</wgt>
<wgt id='3021'>0.32831E+02</wgt>
<wgt id='3022'>0.32889E+02</wgt>
<wgt id='3023'>0.32870E+02</wgt>
<wgt id='3024'>0.32906E+02</wgt>
<wgt id='3025'>0.32900E+02</wgt>
<wgt id='3026'>0.32891E+02</wgt>
<wgt id='3027'>0.32906E+02</wgt>
<wgt id='3028'>0.32883E+02</wgt>
<wgt id='3029'>0.32897E+02</wgt>
<wgt id='3030'>0.32919E+02</wgt>
<wgt id='3031'>0.32904E+02</wgt>
<wgt id='3032'>0.32891E+02</wgt>
<wgt id='3033'>0.32903E+02</wgt>
<wgt id='3034'>0.32896E+02</wgt>
<wgt id='3035'>0.32916E+02</wgt>
<wgt id='3036'>0.32902E+02</wgt>
<wgt id='3037'>0.32893E+02</wgt>
<wgt id='3038'>0.32895E+02</wgt>
<wgt id='3039'>0.32889E+02</wgt>
<wgt id='3040'>0.32889E+02</wgt>
<wgt id='3041'>0.32898E+02</wgt>
<wgt id='3042'>0.32884E+02</wgt>
<wgt id='3043'>0.32886E+02</wgt>
<wgt id='3044'>0.32897E+02</wgt>
<wgt id='3045'>0.32904E+02</wgt>
<wgt id='3046'>0.32900E+02</wgt>
<wgt id='3047'>0.32891E+02</wgt>
<wgt id='3048'>0.32897E+02</wgt>
<wgt id='3049'>0.32890E+02</wgt>
<wgt id='3050'>0.32891E+02</wgt>
<wgt id='3051'>0.32905E+02</wgt>
<wgt id='3052'>0.32889E+02</wgt>
<wgt id='3053'>0.32890E+02</wgt>
<wgt id='3054'>0.32890E+02</wgt>
<wgt id='3055'>0.32888E+02</wgt>
<wgt id='3056'>0.32897E+02</wgt>
<wgt id='3057'>0.32887E+02</wgt>
<wgt id='3058'>0.32887E+02</wgt>
<wgt id='3059'>0.32894E+02</wgt>
<wgt id='3060'>0.32894E+02</wgt>
<wgt id='3061'>0.32895E+02</wgt>
<wgt id='3062'>0.32900E+02</wgt>
<wgt id='3063'>0.32900E+02</wgt>
<wgt id='3064'>0.32891E+02</wgt>
<wgt id='3065'>0.32896E+02</wgt>
<wgt id='3066'>0.32896E+02</wgt>
<wgt id='3067'>0.32888E+02</wgt>
<wgt id='3068'>0.32891E+02</wgt>
<wgt id='3069'>0.32890E+02</wgt>
<wgt id='3070'>0.32894E+02</wgt>
<wgt id='3071'>0.32894E+02</wgt>
<wgt id='3072'>0.32898E+02</wgt>
<wgt id='3073'>0.32888E+02</wgt>
<wgt id='3074'>0.32903E+02</wgt>
<wgt id='3075'>0.32900E+02</wgt>
<wgt id='3076'>0.32883E+02</wgt>
<wgt id='3077'>0.32889E+02</wgt>
<wgt id='3078'>0.32899E+02</wgt>
<wgt id='3079'>0.32887E+02</wgt>
<wgt id='3080'>0.32901E+02</wgt>
<wgt id='3081'>0.32893E+02</wgt>
<wgt id='3082'>0.32893E+02</wgt>
<wgt id='3083'>0.32890E+02</wgt>
<wgt id='3084'>0.32890E+02</wgt>
<wgt id='3085'>0.32887E+02</wgt>
<wgt id='3086'>0.32888E+02</wgt>
<wgt id='3087'>0.32894E+02</wgt>
<wgt id='3088'>0.32894E+02</wgt>
<wgt id='3089'>0.32893E+02</wgt>
<wgt id='3090'>0.32893E+02</wgt>
<wgt id='3091'>0.32893E+02</wgt>
<wgt id='3092'>0.32895E+02</wgt>
<wgt id='3093'>0.32894E+02</wgt>
<wgt id='3094'>0.32895E+02</wgt>
<wgt id='3095'>0.32893E+02</wgt>
<wgt id='3096'>0.32891E+02</wgt>
<wgt id='3097'>0.32891E+02</wgt>
<wgt id='3098'>0.32893E+02</wgt>
<wgt id='3099'>0.32894E+02</wgt>
<wgt id='3100'>0.32894E+02</wgt>
<wgt id='3101'>0.32074E+02</wgt>
<wgt id='3102'>0.33838E+02</wgt>
<wgt id='5000'>0.30614E+02</wgt>
<wgt id='5001'>0.30481E+02</wgt>
<wgt id='5002'>0.30556E+02</wgt>
<wgt id='5003'>0.30400E+02</wgt>
<wgt id='5004'>0.30691E+02</wgt>
<wgt id='5005'>0.29926E+02</wgt>
<wgt id='5006'>0.31146E+02</wgt>
<wgt id='5007'>0.30806E+02</wgt>
<wgt id='5008'>0.30207E+02</wgt>
<wgt id='5009'>0.31007E+02</wgt>
<wgt id='5010'>0.30406E+02</wgt>
<wgt id='5011'>0.30553E+02</wgt>
<wgt id='5012'>0.30590E+02</wgt>
<wgt id='5013'>0.29951E+02</wgt>
<wgt id='5014'>0.30585E+02</wgt>
<wgt id='5015'>0.30853E+02</wgt>
<wgt id='5016'>0.29875E+02</wgt>
<wgt id='5017'>0.30717E+02</wgt>
<wgt id='5018'>0.30503E+02</wgt>
<wgt id='5019'>0.30456E+02</wgt>
<wgt id='5020'>0.30741E+02</wgt>
<wgt id='5021'>0.30726E+02</wgt>
<wgt id='5022'>0.30541E+02</wgt>
<wgt id='5023'>0.30545E+02</wgt>
<wgt id='5024'>0.30679E+02</wgt>
<wgt id='5025'>0.30562E+02</wgt>
<wgt id='5026'>0.30655E+02</wgt>
<wgt id='5027'>0.30946E+02</wgt>
<wgt id='5028'>0.30055E+02</wgt>
<wgt id='5029'>0.30020E+02</wgt>
<wgt id='5030'>0.30969E+02</wgt>
<wgt id='5031'>0.30258E+02</wgt>
<wgt id='5032'>0.31125E+02</wgt>
<wgt id='5033'>0.30360E+02</wgt>
<wgt id='5034'>0.30831E+02</wgt>
<wgt id='5035'>0.30097E+02</wgt>
<wgt id='5036'>0.31033E+02</wgt>
<wgt id='5037'>0.30626E+02</wgt>
<wgt id='5038'>0.30584E+02</wgt>
<wgt id='5039'>0.31117E+02</wgt>
<wgt id='5040'>0.30357E+02</wgt>
<wgt id='5041'>0.30241E+02</wgt>
<wgt id='5042'>0.30682E+02</wgt>
<wgt id='5043'>0.30947E+02</wgt>
<wgt id='5044'>0.29753E+02</wgt>
<wgt id='5045'>0.31526E+02</wgt>
<wgt id='5046'>0.30381E+02</wgt>
<wgt id='5047'>0.30809E+02</wgt>
<wgt id='5048'>0.30786E+02</wgt>
<wgt id='5049'>0.30639E+02</wgt>
<wgt id='5050'>0.30677E+02</wgt>
<wgt id='5051'>0.30712E+02</wgt>
<wgt id='5052'>0.30584E+02</wgt>
<wgt id='5053'>0.30345E+02</wgt>
<wgt id='5054'>0.31376E+02</wgt>
<wgt id='5055'>0.30417E+02</wgt>
<wgt id='5056'>0.30772E+02</wgt>
<wgt id='5060'>0.29904E+02</wgt>
<wgt id='5070'>0.31217E+02</wgt>
<wgt id='4000'>0.32389E+02</wgt>
<wgt id='4001'>0.32427E+02</wgt>
<wgt id='4002'>0.32500E+02</wgt>
<wgt id='4003'>0.33206E+02</wgt>
<wgt id='4004'>0.32047E+02</wgt>
<wgt id='4005'>0.32526E+02</wgt>
<wgt id='4006'>0.32280E+02</wgt>
<wgt id='4007'>0.32763E+02</wgt>
<wgt id='4008'>0.32244E+02</wgt>
<wgt id='4009'>0.31657E+02</wgt>
<wgt id='4010'>0.32973E+02</wgt>
<wgt id='4011'>0.32873E+02</wgt>
<wgt id='4012'>0.32119E+02</wgt>
<wgt id='4013'>0.31114E+02</wgt>
<wgt id='4014'>0.33124E+02</wgt>
<wgt id='4015'>0.32649E+02</wgt>
<wgt id='4016'>0.32219E+02</wgt>
<wgt id='4017'>0.32101E+02</wgt>
<wgt id='4018'>0.32733E+02</wgt>
<wgt id='4019'>0.32806E+02</wgt>
<wgt id='4020'>0.31918E+02</wgt>
<wgt id='4021'>0.32466E+02</wgt>
<wgt id='4022'>0.32219E+02</wgt>
<wgt id='4023'>0.32219E+02</wgt>
<wgt id='4024'>0.32539E+02</wgt>
<wgt id='4025'>0.31863E+02</wgt>
<wgt id='4026'>0.32873E+02</wgt>
<wgt id='4027'>0.32270E+02</wgt>
<wgt id='4028'>0.32550E+02</wgt>
<wgt id='4029'>0.32138E+02</wgt>
<wgt id='4030'>0.32475E+02</wgt>
<wgt id='4031'>0.32434E+02</wgt>
<wgt id='4032'>0.32331E+02</wgt>
<wgt id='4033'>0.32385E+02</wgt>
<wgt id='4034'>0.32391E+02</wgt>
<wgt id='4035'>0.32917E+02</wgt>
<wgt id='4036'>0.31881E+02</wgt>
<wgt id='4037'>0.32674E+02</wgt>
<wgt id='4038'>0.31911E+02</wgt>
<wgt id='4039'>0.32368E+02</wgt>
<wgt id='4040'>0.32338E+02</wgt>
<wgt id='4041'>0.32680E+02</wgt>
<wgt id='4042'>0.32118E+02</wgt>
<wgt id='4043'>0.32681E+02</wgt>
<wgt id='4044'>0.32035E+02</wgt>
<wgt id='4045'>0.32011E+02</wgt>
<wgt id='4046'>0.32211E+02</wgt>
<wgt id='4047'>0.31939E+02</wgt>
<wgt id='4048'>0.32791E+02</wgt>
<wgt id='4049'>0.32584E+02</wgt>
<wgt id='4050'>0.31717E+02</wgt>
<wgt id='4051'>0.32313E+02</wgt>
<wgt id='4052'>0.32296E+02</wgt>
<wgt id='4053'>0.31518E+02</wgt>
<wgt id='4054'>0.32607E+02</wgt>
<wgt id='4055'>0.32128E+02</wgt>
<wgt id='4056'>0.32618E+02</wgt>
<wgt id='4060'>0.31508E+02</wgt>
<wgt id='4070'>0.33193E+02</wgt>
<wgt id='4080'>0.32074E+02</wgt>
<wgt id='6000'>0.32932E+02</wgt>
<wgt id='6001'>0.32942E+02</wgt>
<wgt id='6002'>0.32921E+02</wgt>
<wgt id='6003'>0.32946E+02</wgt>
<wgt id='6004'>0.32922E+02</wgt>
<wgt id='6005'>0.33020E+02</wgt>
<wgt id='6006'>0.32851E+02</wgt>
<wgt id='6007'>0.32789E+02</wgt>
<wgt id='6008'>0.33092E+02</wgt>
<wgt id='6009'>0.33032E+02</wgt>
<wgt id='6010'>0.32835E+02</wgt>
<wgt id='6011'>0.33002E+02</wgt>
<wgt id='6012'>0.32777E+02</wgt>
<wgt id='6013'>0.32897E+02</wgt>
<wgt id='6014'>0.32993E+02</wgt>
<wgt id='6015'>0.32826E+02</wgt>
<wgt id='6016'>0.32994E+02</wgt>
<wgt id='6017'>0.32751E+02</wgt>
<wgt id='6018'>0.33146E+02</wgt>
<wgt id='6019'>0.32990E+02</wgt>
<wgt id='6020'>0.32882E+02</wgt>
<wgt id='6021'>0.32857E+02</wgt>
<wgt id='6022'>0.33031E+02</wgt>
<wgt id='6023'>0.32701E+02</wgt>
<wgt id='6024'>0.33091E+02</wgt>
<wgt id='6025'>0.32526E+02</wgt>
<wgt id='6026'>0.33292E+02</wgt>
<wgt id='6027'>0.33019E+02</wgt>
<wgt id='6028'>0.32934E+02</wgt>
<wgt id='6029'>0.33147E+02</wgt>
<wgt id='6030'>0.32681E+02</wgt>
<wgt id='6031'>0.32987E+02</wgt>
<wgt id='6032'>0.32861E+02</wgt>
<wgt id='6033'>0.32990E+02</wgt>
<wgt id='6034'>0.32869E+02</wgt>
<wgt id='6035'>0.32907E+02</wgt>
<wgt id='6036'>0.33054E+02</wgt>
<wgt id='6037'>0.32992E+02</wgt>
<wgt id='6038'>0.32925E+02</wgt>
<wgt id='6039'>0.32906E+02</wgt>
<wgt id='6040'>0.32960E+02</wgt>
<wgt id='6041'>0.32872E+02</wgt>
<wgt id='6042'>0.33006E+02</wgt>
<wgt id='6043'>0.33351E+02</wgt>
<wgt id='6044'>0.32719E+02</wgt>
<wgt id='6045'>0.32905E+02</wgt>
<wgt id='6046'>0.33003E+02</wgt>
<wgt id='6047'>0.32817E+02</wgt>
<wgt id='6048'>0.32781E+02</wgt>
<wgt id='6049'>0.32881E+02</wgt>
<wgt id='6050'>0.32937E+02</wgt>
<wgt id='7000'>0.30829E+02</wgt>
<wgt id='7001'>0.30814E+02</wgt>
<wgt id='7002'>0.30850E+02</wgt>
<wgt id='7003'>0.30925E+02</wgt>
<wgt id='7004'>0.30734E+02</wgt>
<wgt id='7005'>0.30887E+02</wgt>
<wgt id='7006'>0.30807E+02</wgt>
<wgt id='7007'>0.30701E+02</wgt>
<wgt id='7008'>0.30958E+02</wgt>
<wgt id='7009'>0.30880E+02</wgt>
<wgt id='7010'>0.30781E+02</wgt>
<wgt id='7011'>0.30538E+02</wgt>
<wgt id='7012'>0.30959E+02</wgt>
<wgt id='7013'>0.30834E+02</wgt>
<wgt id='7014'>0.30826E+02</wgt>
<wgt id='7015'>0.30743E+02</wgt>
<wgt id='7016'>0.30925E+02</wgt>
<wgt id='7017'>0.30764E+02</wgt>
<wgt id='7018'>0.30866E+02</wgt>
<wgt id='7019'>0.30785E+02</wgt>
<wgt id='7020'>0.30890E+02</wgt>
<wgt id='7021'>0.30824E+02</wgt>
<wgt id='7022'>0.30832E+02</wgt>
<wgt id='7023'>0.31179E+02</wgt>
<wgt id='7024'>0.30492E+02</wgt>
<wgt id='7025'>0.30968E+02</wgt>
<wgt id='7026'>0.30495E+02</wgt>
<wgt id='7027'>0.30967E+02</wgt>
<wgt id='7028'>0.30769E+02</wgt>
<wgt id='7029'>0.30682E+02</wgt>
<wgt id='7030'>0.31223E+02</wgt>
<wgt id='7031'>0.30830E+02</wgt>
<wgt id='7032'>0.30833E+02</wgt>
<wgt id='7033'>0.30784E+02</wgt>
<wgt id='7034'>0.30935E+02</wgt>
<wgt id='7035'>0.30921E+02</wgt>
<wgt id='7036'>0.30804E+02</wgt>
<wgt id='7037'>0.30844E+02</wgt>
<wgt id='7038'>0.30831E+02</wgt>
<wgt id='7039'>0.30806E+02</wgt>
<wgt id='7040'>0.30847E+02</wgt>
<wgt id='7041'>0.30769E+02</wgt>
<wgt id='7042'>0.30865E+02</wgt>
<wgt id='7043'>0.30859E+02</wgt>
<wgt id='7044'>0.30673E+02</wgt>
<wgt id='7045'>0.30592E+02</wgt>
<wgt id='7046'>0.30872E+02</wgt>
<wgt id='7047'>0.30835E+02</wgt>
<wgt id='7048'>0.30814E+02</wgt>
<wgt id='7049'>0.30813E+02</wgt>
<wgt id='7050'>0.30739E+02</wgt>
<wgt id='7060'>0.48238E+02</wgt>
<wgt id='8000'>0.31230E+02</wgt>
<wgt id='8001'>0.31221E+02</wgt>
<wgt id='8002'>0.31239E+02</wgt>
<wgt id='8003'>0.31233E+02</wgt>
<wgt id='8004'>0.31229E+02</wgt>
<wgt id='8005'>0.31155E+02</wgt>
<wgt id='8006'>0.31208E+02</wgt>
<wgt id='8007'>0.31185E+02</wgt>
<wgt id='8008'>0.31284E+02</wgt>
<wgt id='8009'>0.31343E+02</wgt>
<wgt id='8010'>0.31232E+02</wgt>
<wgt id='8011'>0.31212E+02</wgt>
<wgt id='8012'>0.31199E+02</wgt>
<wgt id='8013'>0.31226E+02</wgt>
<wgt id='8014'>0.31207E+02</wgt>
<wgt id='8015'>0.31206E+02</wgt>
<wgt id='8016'>0.31237E+02</wgt>
<wgt id='8017'>0.31229E+02</wgt>
<wgt id='8018'>0.31222E+02</wgt>
<wgt id='8019'>0.31286E+02</wgt>
<wgt id='8020'>0.31121E+02</wgt>
<wgt id='8021'>0.31235E+02</wgt>
<wgt id='8022'>0.31031E+02</wgt>
<wgt id='8023'>0.31271E+02</wgt>
<wgt id='8024'>0.31308E+02</wgt>
<wgt id='8025'>0.31347E+02</wgt>
<wgt id='8026'>0.31296E+02</wgt>
<wgt id='8027'>0.31171E+02</wgt>
<wgt id='8028'>0.31260E+02</wgt>
<wgt id='8029'>0.31015E+02</wgt>
<wgt id='8500'>0.32505E+02</wgt>
<wgt id='8501'>0.32442E+02</wgt>
<wgt id='8502'>0.32823E+02</wgt>
<wgt id='8503'>0.32734E+02</wgt>
<wgt id='8504'>0.32428E+02</wgt>
<wgt id='8505'>0.32351E+02</wgt>
<wgt id='8506'>0.32403E+02</wgt>
<wgt id='8507'>0.32727E+02</wgt>
<wgt id='8508'>0.33022E+02</wgt>
<wgt id='8509'>0.32283E+02</wgt>
<wgt id='8510'>0.32981E+02</wgt>
<wgt id='8511'>0.32530E+02</wgt>
<wgt id='8512'>0.32129E+02</wgt>
<wgt id='8513'>0.32546E+02</wgt>
<wgt id='8514'>0.32388E+02</wgt>
<wgt id='8515'>0.32510E+02</wgt>
<wgt id='8516'>0.32610E+02</wgt>
<wgt id='8517'>0.32458E+02</wgt>
<wgt id='8518'>0.32415E+02</wgt>
<wgt id='8519'>0.32416E+02</wgt>
<wgt id='8520'>0.32537E+02</wgt>
<wgt id='8521'>0.32370E+02</wgt>
<wgt id='8522'>0.32516E+02</wgt>
<wgt id='8523'>0.32452E+02</wgt>
<wgt id='8524'>0.32501E+02</wgt>
<wgt id='8525'>0.32467E+02</wgt>
<wgt id='8526'>0.32454E+02</wgt>
<wgt id='8527'>0.32504E+02</wgt>
<wgt id='8528'>0.32420E+02</wgt>
<wgt id='8529'>0.32485E+02</wgt>
<wgt id='8530'>0.32506E+02</wgt>
<wgt id='8531'>0.32493E+02</wgt>
<wgt id='8532'>0.32511E+02</wgt>
<wgt id='8533'>0.32439E+02</wgt>
<wgt id='8534'>0.32519E+02</wgt>
<wgt id='8535'>0.32578E+02</wgt>
<wgt id='8536'>0.32483E+02</wgt>
<wgt id='8537'>0.32518E+02</wgt>
<wgt id='8538'>0.32472E+02</wgt>
<wgt id='8539'>0.32511E+02</wgt>
<wgt id='8540'>0.32511E+02</wgt>
<wgt id='8541'>0.32521E+02</wgt>
<wgt id='8542'>0.32530E+02</wgt>
<wgt id='8543'>0.32477E+02</wgt>
<wgt id='8544'>0.32539E+02</wgt>
<wgt id='8545'>0.32533E+02</wgt>
<wgt id='8546'>0.32536E+02</wgt>
<wgt id='8547'>0.32477E+02</wgt>
<wgt id='8548'>0.32473E+02</wgt>
<wgt id='8549'>0.32507E+02</wgt>
<wgt id='8550'>0.32513E+02</wgt>
<wgt id='8551'>0.32474E+02</wgt>
<wgt id='8552'>0.32513E+02</wgt>
<wgt id='8553'>0.32493E+02</wgt>
<wgt id='8554'>0.32491E+02</wgt>
<wgt id='8555'>0.32510E+02</wgt>
<wgt id='8556'>0.32503E+02</wgt>
<wgt id='8557'>0.32498E+02</wgt>
<wgt id='8558'>0.32540E+02</wgt>
<wgt id='8559'>0.32489E+02</wgt>
<wgt id='8560'>0.32471E+02</wgt>
<wgt id='8561'>0.32501E+02</wgt>
<wgt id='8562'>0.32481E+02</wgt>
<wgt id='8563'>0.32507E+02</wgt>
<wgt id='8564'>0.32500E+02</wgt>
<wgt id='8565'>0.32503E+02</wgt>
<wgt id='8566'>0.32498E+02</wgt>
<wgt id='8567'>0.32503E+02</wgt>
<wgt id='8568'>0.32517E+02</wgt>
<wgt id='8569'>0.32514E+02</wgt>
<wgt id='8570'>0.32503E+02</wgt>
<wgt id='8571'>0.32492E+02</wgt>
<wgt id='8572'>0.32496E+02</wgt>
<wgt id='8573'>0.32492E+02</wgt>
<wgt id='8574'>0.32513E+02</wgt>
<wgt id='8575'>0.32502E+02</wgt>
<wgt id='8576'>0.32502E+02</wgt>
<wgt id='8577'>0.32505E+02</wgt>
<wgt id='8578'>0.32509E+02</wgt>
<wgt id='8579'>0.32523E+02</wgt>
<wgt id='8580'>0.32505E+02</wgt>
<wgt id='8581'>0.32511E+02</wgt>
<wgt id='8582'>0.32485E+02</wgt>
<wgt id='8583'>0.32518E+02</wgt>
<wgt id='8584'>0.32512E+02</wgt>
<wgt id='8585'>0.32511E+02</wgt>
<wgt id='8586'>0.32519E+02</wgt>
<wgt id='8587'>0.32500E+02</wgt>
<wgt id='8588'>0.32498E+02</wgt>
<wgt id='8589'>0.32507E+02</wgt>
<wgt id='8590'>0.32502E+02</wgt>
<wgt id='8591'>0.32502E+02</wgt>
<wgt id='8592'>0.32504E+02</wgt>
<wgt id='8593'>0.32494E+02</wgt>
<wgt id='8594'>0.32510E+02</wgt>
<wgt id='8595'>0.32509E+02</wgt>
<wgt id='8596'>0.32498E+02</wgt>
<wgt id='8597'>0.32509E+02</wgt>
<wgt id='8598'>0.32512E+02</wgt>
<wgt id='8599'>0.32509E+02</wgt>
<wgt id='8600'>0.32505E+02</wgt>
<wgt id='8601'>0.31862E+02</wgt>
<wgt id='8602'>0.33063E+02</wgt>
<wgt id='9000'>0.30807E+02</wgt>
<wgt id='9001'>0.30867E+02</wgt>
<wgt id='9002'>0.30965E+02</wgt>
<wgt id='9003'>0.30532E+02</wgt>
<wgt id='9004'>0.30750E+02</wgt>
<wgt id='9005'>0.30959E+02</wgt>
<wgt id='9006'>0.30725E+02</wgt>
<wgt id='9007'>0.30834E+02</wgt>
<wgt id='9008'>0.30882E+02</wgt>
<wgt id='9009'>0.30786E+02</wgt>
<wgt id='9010'>0.30766E+02</wgt>
<wgt id='9011'>0.31134E+02</wgt>
<wgt id='9012'>0.30391E+02</wgt>
<wgt id='9013'>0.30400E+02</wgt>
<wgt id='9014'>0.30444E+02</wgt>
<wgt id='9015'>0.30774E+02</wgt>
<wgt id='9016'>0.30913E+02</wgt>
<wgt id='9017'>0.30828E+02</wgt>
<wgt id='9018'>0.30803E+02</wgt>
<wgt id='9019'>0.30775E+02</wgt>
<wgt id='9020'>0.30933E+02</wgt>
<wgt id='9021'>0.30799E+02</wgt>
<wgt id='9022'>0.30844E+02</wgt>
<wgt id='9023'>0.30767E+02</wgt>
<wgt id='9024'>0.30764E+02</wgt>
<wgt id='9025'>0.30849E+02</wgt>
<wgt id='9026'>0.30823E+02</wgt>
<wgt id='9027'>0.30773E+02</wgt>
<wgt id='9028'>0.30831E+02</wgt>
<wgt id='9029'>0.30838E+02</wgt>
<wgt id='9030'>0.30824E+02</wgt>
<wgt id='9031'>0.30800E+02</wgt>
<wgt id='9032'>0.30827E+02</wgt>
<wgt id='9033'>0.30847E+02</wgt>
<wgt id='9034'>0.30786E+02</wgt>
<wgt id='9035'>0.30860E+02</wgt>
<wgt id='9036'>0.30803E+02</wgt>
<wgt id='9037'>0.30837E+02</wgt>
<wgt id='9038'>0.30806E+02</wgt>
<wgt id='9039'>0.30809E+02</wgt>
<wgt id='9040'>0.30769E+02</wgt>
<wgt id='9041'>0.30792E+02</wgt>
<wgt id='9042'>0.30800E+02</wgt>
<wgt id='9043'>0.30783E+02</wgt>
<wgt id='9044'>0.30817E+02</wgt>
<wgt id='9045'>0.30800E+02</wgt>
<wgt id='9046'>0.30763E+02</wgt>
<wgt id='9047'>0.30790E+02</wgt>
<wgt id='9048'>0.30818E+02</wgt>
<wgt id='9049'>0.30792E+02</wgt>
<wgt id='9050'>0.30815E+02</wgt>
<wgt id='9051'>0.30817E+02</wgt>
<wgt id='9052'>0.30813E+02</wgt>
<wgt id='9053'>0.30812E+02</wgt>
<wgt id='9054'>0.30791E+02</wgt>
<wgt id='9055'>0.30802E+02</wgt>
<wgt id='9056'>0.30837E+02</wgt>
<wgt id='9057'>0.30804E+02</wgt>
<wgt id='9058'>0.30786E+02</wgt>
<wgt id='9059'>0.30794E+02</wgt>
<wgt id='9060'>0.30798E+02</wgt>
<wgt id='9061'>0.30812E+02</wgt>
<wgt id='9062'>0.30812E+02</wgt>
<wgt id='9063'>0.30821E+02</wgt>
<wgt id='9064'>0.30801E+02</wgt>
<wgt id='9065'>0.30806E+02</wgt>
<wgt id='9066'>0.30810E+02</wgt>
<wgt id='9067'>0.30817E+02</wgt>
<wgt id='9068'>0.30817E+02</wgt>
<wgt id='9069'>0.30823E+02</wgt>
<wgt id='9070'>0.30804E+02</wgt>
<wgt id='9071'>0.30824E+02</wgt>
<wgt id='9072'>0.30824E+02</wgt>
<wgt id='9073'>0.30799E+02</wgt>
<wgt id='9074'>0.30811E+02</wgt>
<wgt id='9075'>0.30806E+02</wgt>
<wgt id='9076'>0.30804E+02</wgt>
<wgt id='9077'>0.30811E+02</wgt>
<wgt id='9078'>0.30809E+02</wgt>
<wgt id='9079'>0.30802E+02</wgt>
<wgt id='9080'>0.30827E+02</wgt>
<wgt id='9081'>0.30804E+02</wgt>
<wgt id='9082'>0.30814E+02</wgt>
<wgt id='9083'>0.30798E+02</wgt>
<wgt id='9084'>0.30799E+02</wgt>
<wgt id='9085'>0.30799E+02</wgt>
<wgt id='9086'>0.30811E+02</wgt>
<wgt id='9087'>0.30789E+02</wgt>
<wgt id='9088'>0.30801E+02</wgt>
<wgt id='9089'>0.30800E+02</wgt>
<wgt id='9090'>0.30811E+02</wgt>
<wgt id='9091'>0.30804E+02</wgt>
<wgt id='9092'>0.30806E+02</wgt>
<wgt id='9093'>0.30802E+02</wgt>
<wgt id='9094'>0.30805E+02</wgt>
<wgt id='9095'>0.30810E+02</wgt>
<wgt id='9096'>0.30801E+02</wgt>
<wgt id='9097'>0.30809E+02</wgt>
<wgt id='9098'>0.30807E+02</wgt>
<wgt id='9099'>0.30800E+02</wgt>
<wgt id='9100'>0.30807E+02</wgt>
<wgt id='9101'>0.30323E+02</wgt>
<wgt id='9102'>0.31196E+02</wgt>
<wgt id='10000'>0.32503E+02</wgt>
<wgt id='10001'>0.32643E+02</wgt>
<wgt id='10002'>0.32524E+02</wgt>
<wgt id='10003'>0.32512E+02</wgt>
<wgt id='10004'>0.32649E+02</wgt>
<wgt id='10005'>0.33433E+02</wgt>
<wgt id='10006'>0.32512E+02</wgt>
<wgt id='10007'>0.32497E+02</wgt>
<wgt id='10008'>0.32539E+02</wgt>
<wgt id='10009'>0.32450E+02</wgt>
<wgt id='10010'>0.32507E+02</wgt>
<wgt id='10011'>0.32474E+02</wgt>
<wgt id='10012'>0.32448E+02</wgt>
<wgt id='10013'>0.32491E+02</wgt>
<wgt id='10014'>0.32522E+02</wgt>
<wgt id='10015'>0.32545E+02</wgt>
<wgt id='10016'>0.32524E+02</wgt>
<wgt id='10017'>0.32277E+02</wgt>
<wgt id='10018'>0.32532E+02</wgt>
<wgt id='10019'>0.32445E+02</wgt>
<wgt id='10020'>0.32525E+02</wgt>
<wgt id='10021'>0.32509E+02</wgt>
<wgt id='10022'>0.32494E+02</wgt>
<wgt id='10023'>0.32519E+02</wgt>
<wgt id='10024'>0.32509E+02</wgt>
<wgt id='10025'>0.32484E+02</wgt>
<wgt id='10026'>0.32494E+02</wgt>
<wgt id='10027'>0.32493E+02</wgt>
<wgt id='10028'>0.32547E+02</wgt>
<wgt id='10029'>0.32538E+02</wgt>
<wgt id='10030'>0.32490E+02</wgt>
<wgt id='10031'>0.31862E+02</wgt>
<wgt id='10032'>0.33063E+02</wgt>
<wgt id='11000'>0.30805E+02</wgt>
<wgt id='11001'>0.30844E+02</wgt>
<wgt id='11002'>0.30904E+02</wgt>
<wgt id='11003'>0.30772E+02</wgt>
<wgt id='11004'>0.30896E+02</wgt>
<wgt id='11005'>0.30386E+02</wgt>
<wgt id='11006'>0.30795E+02</wgt>
<wgt id='11007'>0.30741E+02</wgt>
<wgt id='11008'>0.30740E+02</wgt>
<wgt id='11009'>0.30659E+02</wgt>
<wgt id='11010'>0.30911E+02</wgt>
<wgt id='11011'>0.30631E+02</wgt>
<wgt id='11012'>0.30831E+02</wgt>
<wgt id='11013'>0.30926E+02</wgt>
<wgt id='11014'>0.30710E+02</wgt>
<wgt id='11015'>0.30766E+02</wgt>
<wgt id='11016'>0.30775E+02</wgt>
<wgt id='11017'>0.31057E+02</wgt>
<wgt id='11018'>0.30812E+02</wgt>
<wgt id='11019'>0.30800E+02</wgt>
<wgt id='11020'>0.30830E+02</wgt>
<wgt id='11021'>0.30908E+02</wgt>
<wgt id='11022'>0.31403E+02</wgt>
<wgt id='11023'>0.30787E+02</wgt>
<wgt id='11024'>0.30774E+02</wgt>
<wgt id='11025'>0.30719E+02</wgt>
<wgt id='11026'>0.30802E+02</wgt>
<wgt id='11027'>0.30799E+02</wgt>
<wgt id='11028'>0.30786E+02</wgt>
<wgt id='11029'>0.30784E+02</wgt>
<wgt id='11030'>0.30810E+02</wgt>
<wgt id='11031'>0.30323E+02</wgt>
<wgt id='11032'>0.31196E+02</wgt>
<wgt id='12000'>0.34572E+02</wgt>
<wgt id='12001'>0.34526E+02</wgt>
<wgt id='12002'>0.34618E+02</wgt>
<wgt id='12003'>0.34660E+02</wgt>
<wgt id='12004'>0.34485E+02</wgt>
<wgt id='12005'>0.34630E+02</wgt>
<wgt id='12006'>0.34515E+02</wgt>
<wgt id='12007'>0.34660E+02</wgt>
<wgt id='12008'>0.34487E+02</wgt>
<wgt id='12009'>0.34632E+02</wgt>
<wgt id='12010'>0.34514E+02</wgt>
<wgt id='12011'>0.34524E+02</wgt>
<wgt id='12012'>0.34625E+02</wgt>
<wgt id='12013'>0.34436E+02</wgt>
<wgt id='12014'>0.34711E+02</wgt>
<wgt id='12015'>0.34579E+02</wgt>
<wgt id='12016'>0.34521E+02</wgt>
<wgt id='12017'>0.34671E+02</wgt>
<wgt id='12018'>0.34456E+02</wgt>
<wgt id='12019'>0.34446E+02</wgt>
<wgt id='12020'>0.34696E+02</wgt>
<wgt id='12021'>0.34711E+02</wgt>
<wgt id='12022'>0.34393E+02</wgt>
<wgt id='12023'>0.34450E+02</wgt>
<wgt id='12024'>0.34518E+02</wgt>
<wgt id='12025'>0.34681E+02</wgt>
<wgt id='12026'>0.34514E+02</wgt>
<wgt id='12027'>0.34507E+02</wgt>
<wgt id='12028'>0.34667E+02</wgt>
<wgt id='12050'>0.34572E+02</wgt>
<wgt id='12051'>0.34535E+02</wgt>
<wgt id='12052'>0.34601E+02</wgt>
<wgt id='12053'>0.34526E+02</wgt>
<wgt id='12054'>0.34593E+02</wgt>
<wgt id='12055'>0.34669E+02</wgt>
<wgt id='12056'>0.34292E+02</wgt>
<wgt id='12057'>0.34432E+02</wgt>
<wgt id='12058'>0.34701E+02</wgt>
<wgt id='12059'>0.34477E+02</wgt>
<wgt id='12060'>0.34675E+02</wgt>
<wgt id='12061'>0.34575E+02</wgt>
<wgt id='12062'>0.34647E+02</wgt>
<wgt id='12063'>0.34241E+02</wgt>
<wgt id='13000'>0.31113E+02</wgt>
<wgt id='13001'>0.31090E+02</wgt>
<wgt id='13002'>0.31132E+02</wgt>
<wgt id='13003'>0.31155E+02</wgt>
<wgt id='13004'>0.31068E+02</wgt>
<wgt id='13005'>0.31188E+02</wgt>
<wgt id='13006'>0.31034E+02</wgt>
<wgt id='13007'>0.31240E+02</wgt>
<wgt id='13008'>0.30986E+02</wgt>
<wgt id='13009'>0.31125E+02</wgt>
<wgt id='13010'>0.31099E+02</wgt>
<wgt id='13011'>0.31186E+02</wgt>
<wgt id='13012'>0.31037E+02</wgt>
<wgt id='13013'>0.31016E+02</wgt>
<wgt id='13014'>0.31206E+02</wgt>
<wgt id='13015'>0.31063E+02</wgt>
<wgt id='13016'>0.31138E+02</wgt>
<wgt id='13017'>0.31089E+02</wgt>
<wgt id='13018'>0.31126E+02</wgt>
<wgt id='13019'>0.31059E+02</wgt>
<wgt id='13020'>0.31161E+02</wgt>
<wgt id='13021'>0.30845E+02</wgt>
<wgt id='13022'>0.31333E+02</wgt>
<wgt id='13023'>0.31133E+02</wgt>
<wgt id='13024'>0.31086E+02</wgt>
<wgt id='13025'>0.31056E+02</wgt>
<wgt id='13026'>0.31089E+02</wgt>
<wgt id='13027'>0.31135E+02</wgt>
<wgt id='13028'>0.31122E+02</wgt>
<wgt id='13050'>0.31113E+02</wgt>
<wgt id='13051'>0.31114E+02</wgt>
<wgt id='13052'>0.31049E+02</wgt>
<wgt id='13053'>0.31102E+02</wgt>
<wgt id='13054'>0.31103E+02</wgt>
<wgt id='13055'>0.31084E+02</wgt>
<wgt id='13056'>0.31134E+02</wgt>
<wgt id='13057'>0.31000E+02</wgt>
<wgt id='13058'>0.31274E+02</wgt>
<wgt id='13059'>0.31021E+02</wgt>
<wgt id='13060'>0.31228E+02</wgt>
<wgt id='13061'>0.31037E+02</wgt>
<wgt id='13062'>0.31342E+02</wgt>
<wgt id='13063'>0.30902E+02</wgt>
<wgt id='14000'>0.32293E+02</wgt>
<wgt id='14001'>0.32288E+02</wgt>
<wgt id='14002'>0.32283E+02</wgt>
<wgt id='14003'>0.32278E+02</wgt>
<wgt id='14004'>0.32272E+02</wgt>
<wgt id='14005'>0.32267E+02</wgt>
<wgt id='14006'>0.32262E+02</wgt>
<wgt id='14007'>0.32257E+02</wgt>
<wgt id='14008'>0.32251E+02</wgt>
<wgt id='14009'>0.32246E+02</wgt>
<wgt id='14010'>0.32241E+02</wgt>
<wgt id='14011'>0.32236E+02</wgt>
<wgt id='14012'>0.32230E+02</wgt>
<wgt id='14013'>0.32225E+02</wgt>
<wgt id='14014'>0.32220E+02</wgt>
<wgt id='14015'>0.32214E+02</wgt>
<wgt id='14016'>0.32209E+02</wgt>
<wgt id='14017'>0.32204E+02</wgt>
<wgt id='14018'>0.32199E+02</wgt>
<wgt id='14019'>0.32193E+02</wgt>
<wgt id='14020'>0.32188E+02</wgt>
<wgt id='14021'>0.32183E+02</wgt>
<wgt id='14022'>0.32178E+02</wgt>
<wgt id='14023'>0.32172E+02</wgt>
<wgt id='14024'>0.32167E+02</wgt>
<wgt id='14025'>0.32162E+02</wgt>
<wgt id='14026'>0.32157E+02</wgt>
<wgt id='14027'>0.32151E+02</wgt>
<wgt id='14028'>0.32146E+02</wgt>
<wgt id='14029'>0.32141E+02</wgt>
<wgt id='14030'>0.32135E+02</wgt>
<wgt id='15000'>0.30445E+02</wgt>
<wgt id='15001'>0.30502E+02</wgt>
<wgt id='15002'>0.30600E+02</wgt>
<wgt id='15003'>0.30176E+02</wgt>
<wgt id='15004'>0.30389E+02</wgt>
<wgt id='15005'>0.30596E+02</wgt>
<wgt id='15006'>0.30367E+02</wgt>
<wgt id='15007'>0.30473E+02</wgt>
<wgt id='15008'>0.30519E+02</wgt>
<wgt id='15009'>0.30426E+02</wgt>
<wgt id='15010'>0.30405E+02</wgt>
<wgt id='15011'>0.30770E+02</wgt>
<wgt id='15012'>0.30036E+02</wgt>
<wgt id='15013'>0.30045E+02</wgt>
<wgt id='15014'>0.30086E+02</wgt>
<wgt id='15015'>0.30408E+02</wgt>
<wgt id='15016'>0.30553E+02</wgt>
<wgt id='15017'>0.30465E+02</wgt>
<wgt id='15018'>0.30440E+02</wgt>
<wgt id='15019'>0.30415E+02</wgt>
<wgt id='15020'>0.30572E+02</wgt>
<wgt id='15021'>0.30433E+02</wgt>
<wgt id='15022'>0.30482E+02</wgt>
<wgt id='15023'>0.30404E+02</wgt>
<wgt id='15024'>0.30401E+02</wgt>
<wgt id='15025'>0.30485E+02</wgt>
<wgt id='15026'>0.30459E+02</wgt>
<wgt id='15027'>0.30413E+02</wgt>
<wgt id='15028'>0.30471E+02</wgt>
<wgt id='15029'>0.30475E+02</wgt>
<wgt id='15030'>0.30461E+02</wgt>
<wgt id='15031'>0.30440E+02</wgt>
<wgt id='15032'>0.30465E+02</wgt>
<wgt id='15033'>0.30485E+02</wgt>
<wgt id='15034'>0.30425E+02</wgt>
<wgt id='15035'>0.30497E+02</wgt>
<wgt id='15036'>0.30441E+02</wgt>
<wgt id='15037'>0.30475E+02</wgt>
<wgt id='15038'>0.30444E+02</wgt>
<wgt id='15039'>0.30447E+02</wgt>
<wgt id='15040'>0.30408E+02</wgt>
<wgt id='15041'>0.30429E+02</wgt>
<wgt id='15042'>0.30437E+02</wgt>
<wgt id='15043'>0.30423E+02</wgt>
<wgt id='15044'>0.30455E+02</wgt>
<wgt id='15045'>0.30438E+02</wgt>
<wgt id='15046'>0.30402E+02</wgt>
<wgt id='15047'>0.30427E+02</wgt>
<wgt id='15048'>0.30456E+02</wgt>
<wgt id='15049'>0.30429E+02</wgt>
<wgt id='15050'>0.30453E+02</wgt>
<wgt id='15051'>0.30455E+02</wgt>
<wgt id='15052'>0.30451E+02</wgt>
<wgt id='15053'>0.30450E+02</wgt>
<wgt id='15054'>0.30429E+02</wgt>
<wgt id='15055'>0.30441E+02</wgt>
<wgt id='15056'>0.30474E+02</wgt>
<wgt id='15057'>0.30442E+02</wgt>
<wgt id='15058'>0.30425E+02</wgt>
<wgt id='15059'>0.30432E+02</wgt>
<wgt id='15060'>0.30436E+02</wgt>
<wgt id='15061'>0.30450E+02</wgt>
<wgt id='15062'>0.30450E+02</wgt>
<wgt id='15063'>0.30459E+02</wgt>
<wgt id='15064'>0.30439E+02</wgt>
<wgt id='15065'>0.30444E+02</wgt>
<wgt id='15066'>0.30448E+02</wgt>
<wgt id='15067'>0.30455E+02</wgt>
<wgt id='15068'>0.30455E+02</wgt>
<wgt id='15069'>0.30461E+02</wgt>
<wgt id='15070'>0.30442E+02</wgt>
<wgt id='15071'>0.30463E+02</wgt>
<wgt id='15072'>0.30463E+02</wgt>
<wgt id='15073'>0.30437E+02</wgt>
<wgt id='15074'>0.30450E+02</wgt>
<wgt id='15075'>0.30444E+02</wgt>
<wgt id='15076'>0.30443E+02</wgt>
<wgt id='15077'>0.30449E+02</wgt>
<wgt id='15078'>0.30448E+02</wgt>
<wgt id='15079'>0.30440E+02</wgt>
<wgt id='15080'>0.30464E+02</wgt>
<wgt id='15081'>0.30442E+02</wgt>
<wgt id='15082'>0.30452E+02</wgt>
<wgt id='15083'>0.30436E+02</wgt>
<wgt id='15084'>0.30437E+02</wgt>
<wgt id='15085'>0.30438E+02</wgt>
<wgt id='15086'>0.30449E+02</wgt>
<wgt id='15087'>0.30427E+02</wgt>
<wgt id='15088'>0.30439E+02</wgt>
<wgt id='15089'>0.30438E+02</wgt>
<wgt id='15090'>0.30450E+02</wgt>
<wgt id='15091'>0.30442E+02</wgt>
<wgt id='15092'>0.30444E+02</wgt>
<wgt id='15093'>0.30441E+02</wgt>
<wgt id='15094'>0.30443E+02</wgt>
<wgt id='15095'>0.30449E+02</wgt>
<wgt id='15096'>0.30439E+02</wgt>
<wgt id='15097'>0.30447E+02</wgt>
<wgt id='15098'>0.30445E+02</wgt>
<wgt id='15099'>0.30439E+02</wgt>
<wgt id='15100'>0.30445E+02</wgt>
<wgt id='15101'>0.30445E+02</wgt>
<wgt id='15102'>0.30443E+02</wgt>
<wgt id='15103'>0.30446E+02</wgt>
<wgt id='15104'>0.30446E+02</wgt>
<wgt id='15105'>0.30446E+02</wgt>
<wgt id='15106'>0.30445E+02</wgt>
<wgt id='15107'>0.30444E+02</wgt>
<wgt id='1500'>0.32148E+02</wgt>
<wgt id='1501'>0.29300E+02</wgt>
<wgt id='1502'>0.32396E+02</wgt>
<wgt id='1503'>0.31953E+02</wgt>
<wgt id='1504'>0.31748E+02</wgt>
<wgt id='1505'>0.28213E+02</wgt>
<wgt id='1506'>0.32175E+02</wgt>
<wgt id='1507'>0.32694E+02</wgt>
<wgt id='1508'>0.31920E+02</wgt>
<wgt id='1509'>0.32118E+02</wgt>
<wgt id='1510'>0.31303E+02</wgt>
<wgt id='1511'>0.31836E+02</wgt>
<wgt id='1512'>0.32703E+02</wgt>
<wgt id='1513'>0.32695E+02</wgt>
<wgt id='1514'>0.31324E+02</wgt>
<wgt id='1515'>0.32198E+02</wgt>
<wgt id='1516'>0.32733E+02</wgt>
<wgt id='1517'>0.31604E+02</wgt>
<wgt id='1518'>0.31796E+02</wgt>
<wgt id='1519'>0.32434E+02</wgt>
<wgt id='1520'>0.32510E+02</wgt>
<wgt id='1521'>0.32316E+02</wgt>
<wgt id='1522'>0.31998E+02</wgt>
<wgt id='1523'>0.34669E+02</wgt>
<wgt id='1524'>0.31846E+02</wgt>
<wgt id='1525'>0.32647E+02</wgt>
<wgt id='1526'>0.31476E+02</wgt>
<wgt id='1527'>0.31857E+02</wgt>
<wgt id='1528'>0.31944E+02</wgt>
<wgt id='1529'>0.31706E+02</wgt>
<wgt id='1530'>0.32761E+02</wgt>
<wgt id='1531'>0.32032E+02</wgt>
<wgt id='1532'>0.31298E+02</wgt>
<wgt id='1533'>0.32978E+02</wgt>
<wgt id='1534'>0.32407E+02</wgt>
<wgt id='1535'>0.33173E+02</wgt>
<wgt id='1536'>0.33103E+02</wgt>
<wgt id='1537'>0.32488E+02</wgt>
<wgt id='1538'>0.31767E+02</wgt>
<wgt id='1539'>0.30881E+02</wgt>
<wgt id='1540'>0.32656E+02</wgt>
<wgt id='1541'>0.31969E+02</wgt>
<wgt id='1542'>0.32744E+02</wgt>
<wgt id='1543'>0.32552E+02</wgt>
<wgt id='1544'>0.31904E+02</wgt>
<wgt id='1545'>0.32820E+02</wgt>
<wgt id='1546'>0.32326E+02</wgt>
<wgt id='1547'>0.31586E+02</wgt>
<wgt id='1548'>0.31490E+02</wgt>
<wgt id='1549'>0.32500E+02</wgt>
<wgt id='1550'>0.32287E+02</wgt>
<wgt id='1551'>0.32169E+02</wgt>
<wgt id='1552'>0.32104E+02</wgt>
<wgt id='1553'>0.32741E+02</wgt>
<wgt id='1554'>0.32147E+02</wgt>
<wgt id='1555'>0.32248E+02</wgt>
<wgt id='1556'>0.31236E+02</wgt>
<wgt id='1557'>0.33471E+02</wgt>
<wgt id='1558'>0.31909E+02</wgt>
<wgt id='1559'>0.32573E+02</wgt>
<wgt id='1560'>0.32029E+02</wgt>
<wgt id='1561'>0.32511E+02</wgt>
<wgt id='1562'>0.32219E+02</wgt>
<wgt id='1563'>0.32766E+02</wgt>
<wgt id='1564'>0.31778E+02</wgt>
<wgt id='1565'>0.32597E+02</wgt>
<wgt id='1566'>0.32301E+02</wgt>
<wgt id='1567'>0.33671E+02</wgt>
<wgt id='1568'>0.31707E+02</wgt>
<wgt id='1569'>0.31417E+02</wgt>
<wgt id='1570'>0.32278E+02</wgt>
<wgt id='1571'>0.33001E+02</wgt>
<wgt id='1572'>0.31872E+02</wgt>
<wgt id='1573'>0.29687E+02</wgt>
<wgt id='1574'>0.32471E+02</wgt>
<wgt id='1575'>0.31809E+02</wgt>
<wgt id='1576'>0.31326E+02</wgt>
<wgt id='1577'>0.32459E+02</wgt>
<wgt id='1578'>0.33439E+02</wgt>
<wgt id='1579'>0.31984E+02</wgt>
<wgt id='1580'>0.32432E+02</wgt>
<wgt id='1581'>0.32373E+02</wgt>
<wgt id='1582'>0.31800E+02</wgt>
<wgt id='1583'>0.32145E+02</wgt>
<wgt id='1584'>0.32274E+02</wgt>
<wgt id='1585'>0.31231E+02</wgt>
<wgt id='1586'>0.32068E+02</wgt>
<wgt id='1587'>0.32099E+02</wgt>
<wgt id='1588'>0.32208E+02</wgt>
<wgt id='1589'>0.32721E+02</wgt>
<wgt id='1590'>0.32043E+02</wgt>
<wgt id='1591'>0.31124E+02</wgt>
<wgt id='1592'>0.33012E+02</wgt>
<wgt id='1593'>0.31849E+02</wgt>
<wgt id='1594'>0.32992E+02</wgt>
<wgt id='1595'>0.31621E+02</wgt>
<wgt id='1596'>0.32630E+02</wgt>
<wgt id='1597'>0.32323E+02</wgt>
<wgt id='1598'>0.33569E+02</wgt>
<wgt id='1599'>0.33026E+02</wgt>
<wgt id='1600'>0.31970E+02</wgt>
<wgt id='1601'>0.31598E+02</wgt>
<wgt id='1602'>0.32398E+02</wgt>
<wgt id='1700'>0.30933E+02</wgt>
<wgt id='1800'>0.38129E+02</wgt>
<wgt id='1850'>0.46012E+02</wgt>
<wgt id='1900'>0.37264E+02</wgt>
<wgt id='1950'>0.44473E+02</wgt>
</rwgt>
</event>
<event>
      4   9999  3.15120E+01  1.78371E+01 -1.00000E+00  1.67530E-01
      21    -1     0     0   502   511  0.000000000E+00  0.000000000E+00  1.878171657E+03  1.878171657E+03  0.000000000E+00  0.00000E+00  9.000E+00
      21    -1     0     0   501   502  0.000000000E+00  0.000000000E+00 -8.302478869E+00  8.302478869E+00  0.000000000E+00  0.00000E+00  9.000E+00
      25     1     1     2     0     0  1.691067645E+01  5.673849416E+00  4.379337217E+02  4.544275881E+02  1.200013529E+02  0.00000E+00  9.000E+00
      21     1     1     2   501   511 -1.691067645E+01 -5.673849416E+00  1.431935457E+03  1.432046548E+03  2.157918644E-05  0.00000E+00  9.000E+00
#rwgt            1           1   16.727756098183637                2        2921           0
<rwgt>
<wgt id='1001'>0.31512E+02</wgt>
<wgt id='1002'>0.24910E+02</wgt>
<wgt id='1003'>0.37773E+02</wgt>
<wgt id='1004'>0.34557E+02</wgt>
<wgt id='1005'>0.29943E+02</wgt>
<wgt id='1006'>0.38725E+02</wgt>
<wgt id='1007'>0.23476E+02</wgt>
<wgt id='1008'>0.13783E+02</wgt>
<wgt id='1009'>0.33047E+02</wgt>
<wgt id='2000'>0.31512E+02</wgt>
<wgt id='2001'>0.31469E+02</wgt>
<wgt id='2002'>0.31474E+02</wgt>
<wgt id='2003'>0.31364E+02</wgt>
<wgt id='2004'>0.31471E+02</wgt>
<wgt id='2005'>0.31670E+02</wgt>
<wgt id='2006'>0.31644E+02</wgt>
<wgt id='2007'>0.31851E+02</wgt>
<wgt id='2008'>0.31915E+02</wgt>
<wgt id='2009'>0.31312E+02</wgt>
<wgt id='2010'>0.31359E+02</wgt>
<wgt id='2011'>0.31601E+02</wgt>
<wgt id='2012'>0.31496E+02</wgt>
<wgt id='2013'>0.31312E+02</wgt>
<wgt id='2014'>0.31359E+02</wgt>
<wgt id='2015'>0.31463E+02</wgt>
<wgt id='2016'>0.31619E+02</wgt>
<wgt id='2017'>0.31492E+02</wgt>
<wgt id='2018'>0.31357E+02</wgt>
<wgt id='2019'>0.31532E+02</wgt>
<wgt id='2020'>0.31427E+02</wgt>
<wgt id='2021'>0.31581E+02</wgt>
<wgt id='2022'>0.31481E+02</wgt>
<wgt id='2023'>0.31520E+02</wgt>
<wgt id='2024'>0.31453E+02</wgt>
<wgt id='2025'>0.31534E+02</wgt>
<wgt id='2026'>0.31578E+02</wgt>
<wgt id='2027'>0.31467E+02</wgt>
<wgt id='2028'>0.31445E+02</wgt>
<wgt id='2029'>0.31657E+02</wgt>
<wgt id='2030'>0.31512E+02</wgt>
<wgt id='2031'>0.31554E+02</wgt>
<wgt id='2032'>0.31499E+02</wgt>
<wgt id='2033'>0.31520E+02</wgt>
<wgt id='2034'>0.31549E+02</wgt>
<wgt id='2035'>0.31494E+02</wgt>
<wgt id='2036'>0.31516E+02</wgt>
<wgt id='2037'>0.31520E+02</wgt>
<wgt id='2038'>0.31486E+02</wgt>
<wgt id='2039'>0.31502E+02</wgt>
<wgt id='2040'>0.31532E+02</wgt>
<wgt id='2041'>0.31514E+02</wgt>
<wgt id='2042'>0.31461E+02</wgt>
<wgt id='2043'>0.31475E+02</wgt>
<wgt id='2044'>0.31523E+02</wgt>
<wgt id='2045'>0.31493E+02</wgt>
<wgt id='2046'>0.31579E+02</wgt>
<wgt id='2047'>0.31563E+02</wgt>
<wgt id='2048'>0.31465E+02</wgt>
<wgt id='2049'>0.31487E+02</wgt>
<wgt id='2050'>0.31557E+02</wgt>
<wgt id='2051'>0.31542E+02</wgt>
<wgt id='2052'>0.31509E+02</wgt>
<wgt id='2053'>0.31532E+02</wgt>
<wgt id='2054'>0.31539E+02</wgt>
<wgt id='2055'>0.31525E+02</wgt>
<wgt id='2056'>0.31505E+02</wgt>
<wgt id='2057'>0.31517E+02</wgt>
<wgt id='2058'>0.31508E+02</wgt>
<wgt id='2059'>0.31506E+02</wgt>
<wgt id='2060'>0.31524E+02</wgt>
<wgt id='2061'>0.31497E+02</wgt>
<wgt id='2062'>0.31523E+02</wgt>
<wgt id='2063'>0.31504E+02</wgt>
<wgt id='2064'>0.31496E+02</wgt>
<wgt id='2065'>0.31534E+02</wgt>
<wgt id='2066'>0.31501E+02</wgt>
<wgt id='2067'>0.31516E+02</wgt>
<wgt id='2068'>0.31520E+02</wgt>
<wgt id='2069'>0.31517E+02</wgt>
<wgt id='2070'>0.31510E+02</wgt>
<wgt id='2071'>0.31502E+02</wgt>
<wgt id='2072'>0.31506E+02</wgt>
<wgt id='2073'>0.31518E+02</wgt>
<wgt id='2074'>0.31517E+02</wgt>
<wgt id='2075'>0.31518E+02</wgt>
<wgt id='2076'>0.31506E+02</wgt>
<wgt id='2077'>0.31528E+02</wgt>
<wgt id='2078'>0.31504E+02</wgt>
<wgt id='2079'>0.31510E+02</wgt>
<wgt id='2080'>0.31511E+02</wgt>
<wgt id='2081'>0.31513E+02</wgt>
<wgt id='2082'>0.31511E+02</wgt>
<wgt id='2083'>0.31515E+02</wgt>
<wgt id='2084'>0.31523E+02</wgt>
<wgt id='2085'>0.31515E+02</wgt>
<wgt id='2086'>0.31503E+02</wgt>
<wgt id='2087'>0.31510E+02</wgt>
<wgt id='2088'>0.31523E+02</wgt>
<wgt id='2089'>0.31498E+02</wgt>
<wgt id='2090'>0.31512E+02</wgt>
<wgt id='2091'>0.31520E+02</wgt>
<wgt id='2092'>0.31519E+02</wgt>
<wgt id='2093'>0.31509E+02</wgt>
<wgt id='2094'>0.31516E+02</wgt>
<wgt id='2095'>0.31514E+02</wgt>
<wgt id='2096'>0.31513E+02</wgt>
<wgt id='2097'>0.31515E+02</wgt>
<wgt id='2098'>0.31512E+02</wgt>
<wgt id='2099'>0.31512E+02</wgt>
<wgt id='2100'>0.31508E+02</wgt>
<wgt id='2101'>0.31478E+02</wgt>
<wgt id='2102'>0.31707E+02</wgt>
<wgt id='2104'>0.30427E+02</wgt>
<wgt id='2105'>0.30727E+02</wgt>
<wgt id='2106'>0.30790E+02</wgt>
<wgt id='2107'>0.30848E+02</wgt>
<wgt id='2108'>0.31322E+02</wgt>
<wgt id='2109'>0.31533E+02</wgt>
<wgt id='2110'>0.31865E+02</wgt>
<wgt id='2111'>0.31982E+02</wgt>
<wgt id='3000'>0.33297E+02</wgt>
<wgt id='3001'>0.33287E+02</wgt>
<wgt id='3002'>0.33288E+02</wgt>
<wgt id='3003'>0.33154E+02</wgt>
<wgt id='3004'>0.33276E+02</wgt>
<wgt id='3005'>0.33025E+02</wgt>
<wgt id='3006'>0.33223E+02</wgt>
<wgt id='3007'>0.32925E+02</wgt>
<wgt id='3008'>0.33339E+02</wgt>
<wgt id='3009'>0.32843E+02</wgt>
<wgt id='3010'>0.33317E+02</wgt>
<wgt id='3011'>0.33402E+02</wgt>
<wgt id='3012'>0.33220E+02</wgt>
<wgt id='3013'>0.33401E+02</wgt>
<wgt id='3014'>0.33120E+02</wgt>
<wgt id='3015'>0.33220E+02</wgt>
<wgt id='3016'>0.33316E+02</wgt>
<wgt id='3017'>0.33125E+02</wgt>
<wgt id='3018'>0.33298E+02</wgt>
<wgt id='3019'>0.33448E+02</wgt>
<wgt id='3020'>0.33314E+02</wgt>
<wgt id='3021'>0.33387E+02</wgt>
<wgt id='3022'>0.33297E+02</wgt>
<wgt id='3023'>0.33290E+02</wgt>
<wgt id='3024'>0.33279E+02</wgt>
<wgt id='3025'>0.33314E+02</wgt>
<wgt id='3026'>0.33293E+02</wgt>
<wgt id='3027'>0.33301E+02</wgt>
<wgt id='3028'>0.33238E+02</wgt>
<wgt id='3029'>0.33230E+02</wgt>
<wgt id='3030'>0.33432E+02</wgt>
<wgt id='3031'>0.33366E+02</wgt>
<wgt id='3032'>0.33310E+02</wgt>
<wgt id='3033'>0.33360E+02</wgt>
<wgt id='3034'>0.33304E+02</wgt>
<wgt id='3035'>0.33347E+02</wgt>
<wgt id='3036'>0.33310E+02</wgt>
<wgt id='3037'>0.33318E+02</wgt>
<wgt id='3038'>0.33287E+02</wgt>
<wgt id='3039'>0.33286E+02</wgt>
<wgt id='3040'>0.33305E+02</wgt>
<wgt id='3041'>0.33322E+02</wgt>
<wgt id='3042'>0.33258E+02</wgt>
<wgt id='3043'>0.33264E+02</wgt>
<wgt id='3044'>0.33315E+02</wgt>
<wgt id='3045'>0.33308E+02</wgt>
<wgt id='3046'>0.33373E+02</wgt>
<wgt id='3047'>0.33304E+02</wgt>
<wgt id='3048'>0.33291E+02</wgt>
<wgt id='3049'>0.33290E+02</wgt>
<wgt id='3050'>0.33221E+02</wgt>
<wgt id='3051'>0.33372E+02</wgt>
<wgt id='3052'>0.33270E+02</wgt>
<wgt id='3053'>0.33286E+02</wgt>
<wgt id='3054'>0.33303E+02</wgt>
<wgt id='3055'>0.33294E+02</wgt>
<wgt id='3056'>0.33307E+02</wgt>
<wgt id='3057'>0.33297E+02</wgt>
<wgt id='3058'>0.33282E+02</wgt>
<wgt id='3059'>0.33301E+02</wgt>
<wgt id='3060'>0.33306E+02</wgt>
<wgt id='3061'>0.33304E+02</wgt>
<wgt id='3062'>0.33296E+02</wgt>
<wgt id='3063'>0.33306E+02</wgt>
<wgt id='3064'>0.33272E+02</wgt>
<wgt id='3065'>0.33289E+02</wgt>
<wgt id='3066'>0.33293E+02</wgt>
<wgt id='3067'>0.33266E+02</wgt>
<wgt id='3068'>0.33315E+02</wgt>
<wgt id='3069'>0.33291E+02</wgt>
<wgt id='3070'>0.33299E+02</wgt>
<wgt id='3071'>0.33291E+02</wgt>
<wgt id='3072'>0.33284E+02</wgt>
<wgt id='3073'>0.33281E+02</wgt>
<wgt id='3074'>0.33295E+02</wgt>
<wgt id='3075'>0.33280E+02</wgt>
<wgt id='3076'>0.33285E+02</wgt>
<wgt id='3077'>0.33301E+02</wgt>
<wgt id='3078'>0.33297E+02</wgt>
<wgt id='3079'>0.33310E+02</wgt>
<wgt id='3080'>0.33297E+02</wgt>
<wgt id='3081'>0.33302E+02</wgt>
<wgt id='3082'>0.33307E+02</wgt>
<wgt id='3083'>0.33284E+02</wgt>
<wgt id='3084'>0.33290E+02</wgt>
<wgt id='3085'>0.33297E+02</wgt>
<wgt id='3086'>0.33287E+02</wgt>
<wgt id='3087'>0.33301E+02</wgt>
<wgt id='3088'>0.33293E+02</wgt>
<wgt id='3089'>0.33298E+02</wgt>
<wgt id='3090'>0.33300E+02</wgt>
<wgt id='3091'>0.33304E+02</wgt>
<wgt id='3092'>0.33296E+02</wgt>
<wgt id='3093'>0.33297E+02</wgt>
<wgt id='3094'>0.33311E+02</wgt>
<wgt id='3095'>0.33293E+02</wgt>
<wgt id='3096'>0.33294E+02</wgt>
<wgt id='3097'>0.33293E+02</wgt>
<wgt id='3098'>0.33297E+02</wgt>
<wgt id='3099'>0.33302E+02</wgt>
<wgt id='3100'>0.33302E+02</wgt>
<wgt id='3101'>0.33014E+02</wgt>
<wgt id='3102'>0.33610E+02</wgt>
<wgt id='5000'>0.31203E+02</wgt>
<wgt id='5001'>0.31191E+02</wgt>
<wgt id='5002'>0.31047E+02</wgt>
<wgt id='5003'>0.31251E+02</wgt>
<wgt id='5004'>0.31254E+02</wgt>
<wgt id='5005'>0.32063E+02</wgt>
<wgt id='5006'>0.31072E+02</wgt>
<wgt id='5007'>0.31086E+02</wgt>
<wgt id='5008'>0.31587E+02</wgt>
<wgt id='5009'>0.31148E+02</wgt>
<wgt id='5010'>0.31306E+02</wgt>
<wgt id='5011'>0.31394E+02</wgt>
<wgt id='5012'>0.30900E+02</wgt>
<wgt id='5013'>0.31299E+02</wgt>
<wgt id='5014'>0.30492E+02</wgt>
<wgt id='5015'>0.31194E+02</wgt>
<wgt id='5016'>0.31081E+02</wgt>
<wgt id='5017'>0.31472E+02</wgt>
<wgt id='5018'>0.30949E+02</wgt>
<wgt id='5019'>0.30424E+02</wgt>
<wgt id='5020'>0.31982E+02</wgt>
<wgt id='5021'>0.31224E+02</wgt>
<wgt id='5022'>0.31187E+02</wgt>
<wgt id='5023'>0.30952E+02</wgt>
<wgt id='5024'>0.31475E+02</wgt>
<wgt id='5025'>0.31070E+02</wgt>
<wgt id='5026'>0.31314E+02</wgt>
<wgt id='5027'>0.31387E+02</wgt>
<wgt id='5028'>0.30873E+02</wgt>
<wgt id='5029'>0.30918E+02</wgt>
<wgt id='5030'>0.31354E+02</wgt>
<wgt id='5031'>0.31039E+02</wgt>
<wgt id='5032'>0.31414E+02</wgt>
<wgt id='5033'>0.30863E+02</wgt>
<wgt id='5034'>0.31520E+02</wgt>
<wgt id='5035'>0.30370E+02</wgt>
<wgt id='5036'>0.31962E+02</wgt>
<wgt id='5037'>0.31303E+02</wgt>
<wgt id='5038'>0.31105E+02</wgt>
<wgt id='5039'>0.31570E+02</wgt>
<wgt id='5040'>0.31038E+02</wgt>
<wgt id='5041'>0.31088E+02</wgt>
<wgt id='5042'>0.31205E+02</wgt>
<wgt id='5043'>0.31354E+02</wgt>
<wgt id='5044'>0.30723E+02</wgt>
<wgt id='5045'>0.30095E+02</wgt>
<wgt id='5046'>0.32367E+02</wgt>
<wgt id='5047'>0.30043E+02</wgt>
<wgt id='5048'>0.32486E+02</wgt>
<wgt id='5049'>0.31093E+02</wgt>
<wgt id='5050'>0.31454E+02</wgt>
<wgt id='5051'>0.31290E+02</wgt>
<wgt id='5052'>0.31156E+02</wgt>
<wgt id='5053'>0.29884E+02</wgt>
<wgt id='5054'>0.30167E+02</wgt>
<wgt id='5055'>0.31096E+02</wgt>
<wgt id='5056'>0.31308E+02</wgt>
<wgt id='5060'>0.30801E+02</wgt>
<wgt id='5070'>0.31630E+02</wgt>
<wgt id='4000'>0.33742E+02</wgt>
<wgt id='4001'>0.33728E+02</wgt>
<wgt id='4002'>0.33866E+02</wgt>
<wgt id='4003'>0.33017E+02</wgt>
<wgt id='4004'>0.34682E+02</wgt>
<wgt id='4005'>0.34097E+02</wgt>
<wgt id='4006'>0.33483E+02</wgt>
<wgt id='4007'>0.32988E+02</wgt>
<wgt id='4008'>0.34611E+02</wgt>
<wgt id='4009'>0.33383E+02</wgt>
<wgt id='4010'>0.34122E+02</wgt>
<wgt id='4011'>0.33479E+02</wgt>
<wgt id='4012'>0.33971E+02</wgt>
<wgt id='4013'>0.32718E+02</wgt>
<wgt id='4014'>0.34305E+02</wgt>
<wgt id='4015'>0.34011E+02</wgt>
<wgt id='4016'>0.33600E+02</wgt>
<wgt id='4017'>0.33385E+02</wgt>
<wgt id='4018'>0.34167E+02</wgt>
<wgt id='4019'>0.33680E+02</wgt>
<wgt id='4020'>0.33752E+02</wgt>
<wgt id='4021'>0.33581E+02</wgt>
<wgt id='4022'>0.34012E+02</wgt>
<wgt id='4023'>0.33866E+02</wgt>
<wgt id='4024'>0.33587E+02</wgt>
<wgt id='4025'>0.33158E+02</wgt>
<wgt id='4026'>0.34303E+02</wgt>
<wgt id='4027'>0.33739E+02</wgt>
<wgt id='4028'>0.33733E+02</wgt>
<wgt id='4029'>0.33700E+02</wgt>
<wgt id='4030'>0.33754E+02</wgt>
<wgt id='4031'>0.33670E+02</wgt>
<wgt id='4032'>0.33836E+02</wgt>
<wgt id='4033'>0.33921E+02</wgt>
<wgt id='4034'>0.33359E+02</wgt>
<wgt id='4035'>0.34057E+02</wgt>
<wgt id='4036'>0.33420E+02</wgt>
<wgt id='4037'>0.33638E+02</wgt>
<wgt id='4038'>0.33785E+02</wgt>
<wgt id='4039'>0.33468E+02</wgt>
<wgt id='4040'>0.33895E+02</wgt>
<wgt id='4041'>0.33808E+02</wgt>
<wgt id='4042'>0.33652E+02</wgt>
<wgt id='4043'>0.32989E+02</wgt>
<wgt id='4044'>0.34153E+02</wgt>
<wgt id='4045'>0.34008E+02</wgt>
<wgt id='4046'>0.33573E+02</wgt>
<wgt id='4047'>0.33999E+02</wgt>
<wgt id='4048'>0.33800E+02</wgt>
<wgt id='4049'>0.33742E+02</wgt>
<wgt id='4050'>0.34378E+02</wgt>
<wgt id='4051'>0.33650E+02</wgt>
<wgt id='4052'>0.33699E+02</wgt>
<wgt id='4053'>0.32508E+02</wgt>
<wgt id='4054'>0.32913E+02</wgt>
<wgt id='4055'>0.33886E+02</wgt>
<wgt id='4056'>0.33636E+02</wgt>
<wgt id='4060'>0.33134E+02</wgt>
<wgt id='4070'>0.34351E+02</wgt>
<wgt id='4080'>0.45783E+02</wgt>
<wgt id='6000'>0.33253E+02</wgt>
<wgt id='6001'>0.33366E+02</wgt>
<wgt id='6002'>0.33134E+02</wgt>
<wgt id='6003'>0.33283E+02</wgt>
<wgt id='6004'>0.33234E+02</wgt>
<wgt id='6005'>0.33118E+02</wgt>
<wgt id='6006'>0.33378E+02</wgt>
<wgt id='6007'>0.33196E+02</wgt>
<wgt id='6008'>0.33316E+02</wgt>
<wgt id='6009'>0.33549E+02</wgt>
<wgt id='6010'>0.32967E+02</wgt>
<wgt id='6011'>0.33385E+02</wgt>
<wgt id='6012'>0.32972E+02</wgt>
<wgt id='6013'>0.33179E+02</wgt>
<wgt id='6014'>0.33385E+02</wgt>
<wgt id='6015'>0.33142E+02</wgt>
<wgt id='6016'>0.33316E+02</wgt>
<wgt id='6017'>0.32958E+02</wgt>
<wgt id='6018'>0.33606E+02</wgt>
<wgt id='6019'>0.33212E+02</wgt>
<wgt id='6020'>0.33290E+02</wgt>
<wgt id='6021'>0.33189E+02</wgt>
<wgt id='6022'>0.33347E+02</wgt>
<wgt id='6023'>0.32976E+02</wgt>
<wgt id='6024'>0.33460E+02</wgt>
<wgt id='6025'>0.33620E+02</wgt>
<wgt id='6026'>0.32593E+02</wgt>
<wgt id='6027'>0.33420E+02</wgt>
<wgt id='6028'>0.33268E+02</wgt>
<wgt id='6029'>0.33323E+02</wgt>
<wgt id='6030'>0.33163E+02</wgt>
<wgt id='6031'>0.33285E+02</wgt>
<wgt id='6032'>0.33178E+02</wgt>
<wgt id='6033'>0.33298E+02</wgt>
<wgt id='6034'>0.33201E+02</wgt>
<wgt id='6035'>0.33282E+02</wgt>
<wgt id='6036'>0.33305E+02</wgt>
<wgt id='6037'>0.33345E+02</wgt>
<wgt id='6038'>0.33273E+02</wgt>
<wgt id='6039'>0.33187E+02</wgt>
<wgt id='6040'>0.33324E+02</wgt>
<wgt id='6041'>0.33282E+02</wgt>
<wgt id='6042'>0.33238E+02</wgt>
<wgt id='6043'>0.33913E+02</wgt>
<wgt id='6044'>0.33114E+02</wgt>
<wgt id='6045'>0.33217E+02</wgt>
<wgt id='6046'>0.33346E+02</wgt>
<wgt id='6047'>0.33317E+02</wgt>
<wgt id='6048'>0.33393E+02</wgt>
<wgt id='6049'>0.33257E+02</wgt>
<wgt id='6050'>0.33268E+02</wgt>
<wgt id='7000'>0.30681E+02</wgt>
<wgt id='7001'>0.30800E+02</wgt>
<wgt id='7002'>0.30531E+02</wgt>
<wgt id='7003'>0.30726E+02</wgt>
<wgt id='7004'>0.30637E+02</wgt>
<wgt id='7005'>0.30710E+02</wgt>
<wgt id='7006'>0.30671E+02</wgt>
<wgt id='7007'>0.30490E+02</wgt>
<wgt id='7008'>0.30874E+02</wgt>
<wgt id='7009'>0.30809E+02</wgt>
<wgt id='7010'>0.30558E+02</wgt>
<wgt id='7011'>0.30084E+02</wgt>
<wgt id='7012'>0.30941E+02</wgt>
<wgt id='7013'>0.30675E+02</wgt>
<wgt id='7014'>0.30691E+02</wgt>
<wgt id='7015'>0.30491E+02</wgt>
<wgt id='7016'>0.30886E+02</wgt>
<wgt id='7017'>0.30080E+02</wgt>
<wgt id='7018'>0.31006E+02</wgt>
<wgt id='7019'>0.30616E+02</wgt>
<wgt id='7020'>0.30775E+02</wgt>
<wgt id='7021'>0.30747E+02</wgt>
<wgt id='7022'>0.30632E+02</wgt>
<wgt id='7023'>0.30509E+02</wgt>
<wgt id='7024'>0.30772E+02</wgt>
<wgt id='7025'>0.30700E+02</wgt>
<wgt id='7026'>0.30647E+02</wgt>
<wgt id='7027'>0.30836E+02</wgt>
<wgt id='7028'>0.30723E+02</wgt>
<wgt id='7029'>0.30654E+02</wgt>
<wgt id='7030'>0.30634E+02</wgt>
<wgt id='7031'>0.30690E+02</wgt>
<wgt id='7032'>0.30674E+02</wgt>
<wgt id='7033'>0.30682E+02</wgt>
<wgt id='7034'>0.30740E+02</wgt>
<wgt id='7035'>0.30722E+02</wgt>
<wgt id='7036'>0.30708E+02</wgt>
<wgt id='7037'>0.30698E+02</wgt>
<wgt id='7038'>0.30745E+02</wgt>
<wgt id='7039'>0.30621E+02</wgt>
<wgt id='7040'>0.30720E+02</wgt>
<wgt id='7041'>0.30677E+02</wgt>
<wgt id='7042'>0.30740E+02</wgt>
<wgt id='7043'>0.30695E+02</wgt>
<wgt id='7044'>0.30600E+02</wgt>
<wgt id='7045'>0.30696E+02</wgt>
<wgt id='7046'>0.30836E+02</wgt>
<wgt id='7047'>0.30755E+02</wgt>
<wgt id='7048'>0.30672E+02</wgt>
<wgt id='7049'>0.30814E+02</wgt>
<wgt id='7050'>0.30788E+02</wgt>
<wgt id='7060'>0.59943E+02</wgt>
<wgt id='8000'>0.31820E+02</wgt>
<wgt id='8001'>0.31811E+02</wgt>
<wgt id='8002'>0.31830E+02</wgt>
<wgt id='8003'>0.31821E+02</wgt>
<wgt id='8004'>0.31818E+02</wgt>
<wgt id='8005'>0.31713E+02</wgt>
<wgt id='8006'>0.31777E+02</wgt>
<wgt id='8007'>0.31719E+02</wgt>
<wgt id='8008'>0.31873E+02</wgt>
<wgt id='8009'>0.31939E+02</wgt>
<wgt id='8010'>0.31851E+02</wgt>
<wgt id='8011'>0.31789E+02</wgt>
<wgt id='8012'>0.31830E+02</wgt>
<wgt id='8013'>0.31846E+02</wgt>
<wgt id='8014'>0.31769E+02</wgt>
<wgt id='8015'>0.31769E+02</wgt>
<wgt id='8016'>0.31845E+02</wgt>
<wgt id='8017'>0.31876E+02</wgt>
<wgt id='8018'>0.31814E+02</wgt>
<wgt id='8019'>0.31803E+02</wgt>
<wgt id='8020'>0.31817E+02</wgt>
<wgt id='8021'>0.31806E+02</wgt>
<wgt id='8022'>0.31829E+02</wgt>
<wgt id='8023'>0.31781E+02</wgt>
<wgt id='8024'>0.31804E+02</wgt>
<wgt id='8025'>0.31815E+02</wgt>
<wgt id='8026'>0.31855E+02</wgt>
<wgt id='8027'>0.31782E+02</wgt>
<wgt id='8028'>0.31855E+02</wgt>
<wgt id='8029'>0.31822E+02</wgt>
<wgt id='8500'>0.33186E+02</wgt>
<wgt id='8501'>0.33002E+02</wgt>
<wgt id='8502'>0.32777E+02</wgt>
<wgt id='8503'>0.33207E+02</wgt>
<wgt id='8504'>0.33222E+02</wgt>
<wgt id='8505'>0.33490E+02</wgt>
<wgt id='8506'>0.32945E+02</wgt>
<wgt id='8507'>0.33729E+02</wgt>
<wgt id='8508'>0.33532E+02</wgt>
<wgt id='8509'>0.33170E+02</wgt>
<wgt id='8510'>0.33174E+02</wgt>
<wgt id='8511'>0.33187E+02</wgt>
<wgt id='8512'>0.33360E+02</wgt>
<wgt id='8513'>0.33082E+02</wgt>
<wgt id='8514'>0.33152E+02</wgt>
<wgt id='8515'>0.33306E+02</wgt>
<wgt id='8516'>0.33201E+02</wgt>
<wgt id='8517'>0.33114E+02</wgt>
<wgt id='8518'>0.32953E+02</wgt>
<wgt id='8519'>0.32956E+02</wgt>
<wgt id='8520'>0.33201E+02</wgt>
<wgt id='8521'>0.32899E+02</wgt>
<wgt id='8522'>0.33249E+02</wgt>
<wgt id='8523'>0.33071E+02</wgt>
<wgt id='8524'>0.33107E+02</wgt>
<wgt id='8525'>0.33094E+02</wgt>
<wgt id='8526'>0.33068E+02</wgt>
<wgt id='8527'>0.33219E+02</wgt>
<wgt id='8528'>0.33055E+02</wgt>
<wgt id='8529'>0.33150E+02</wgt>
<wgt id='8530'>0.33152E+02</wgt>
<wgt id='8531'>0.33169E+02</wgt>
<wgt id='8532'>0.33185E+02</wgt>
<wgt id='8533'>0.33087E+02</wgt>
<wgt id='8534'>0.33142E+02</wgt>
<wgt id='8535'>0.33289E+02</wgt>
<wgt id='8536'>0.33156E+02</wgt>
<wgt id='8537'>0.33196E+02</wgt>
<wgt id='8538'>0.33168E+02</wgt>
<wgt id='8539'>0.33173E+02</wgt>
<wgt id='8540'>0.33153E+02</wgt>
<wgt id='8541'>0.33209E+02</wgt>
<wgt id='8542'>0.33208E+02</wgt>
<wgt id='8543'>0.33159E+02</wgt>
<wgt id='8544'>0.33190E+02</wgt>
<wgt id='8545'>0.33211E+02</wgt>
<wgt id='8546'>0.33246E+02</wgt>
<wgt id='8547'>0.33152E+02</wgt>
<wgt id='8548'>0.33149E+02</wgt>
<wgt id='8549'>0.33175E+02</wgt>
<wgt id='8550'>0.33205E+02</wgt>
<wgt id='8551'>0.33149E+02</wgt>
<wgt id='8552'>0.33201E+02</wgt>
<wgt id='8553'>0.33184E+02</wgt>
<wgt id='8554'>0.33182E+02</wgt>
<wgt id='8555'>0.33181E+02</wgt>
<wgt id='8556'>0.33189E+02</wgt>
<wgt id='8557'>0.33173E+02</wgt>
<wgt id='8558'>0.33240E+02</wgt>
<wgt id='8559'>0.33153E+02</wgt>
<wgt id='8560'>0.33133E+02</wgt>
<wgt id='8561'>0.33163E+02</wgt>
<wgt id='8562'>0.33139E+02</wgt>
<wgt id='8563'>0.33188E+02</wgt>
<wgt id='8564'>0.33173E+02</wgt>
<wgt id='8565'>0.33178E+02</wgt>
<wgt id='8566'>0.33148E+02</wgt>
<wgt id='8567'>0.33168E+02</wgt>
<wgt id='8568'>0.33197E+02</wgt>
<wgt id='8569'>0.33193E+02</wgt>
<wgt id='8570'>0.33204E+02</wgt>
<wgt id='8571'>0.33170E+02</wgt>
<wgt id='8572'>0.33166E+02</wgt>
<wgt id='8573'>0.33178E+02</wgt>
<wgt id='8574'>0.33216E+02</wgt>
<wgt id='8575'>0.33192E+02</wgt>
<wgt id='8576'>0.33165E+02</wgt>
<wgt id='8577'>0.33201E+02</wgt>
<wgt id='8578'>0.33192E+02</wgt>
<wgt id='8579'>0.33198E+02</wgt>
<wgt id='8580'>0.33193E+02</wgt>
<wgt id='8581'>0.33192E+02</wgt>
<wgt id='8582'>0.33147E+02</wgt>
<wgt id='8583'>0.33213E+02</wgt>
<wgt id='8584'>0.33185E+02</wgt>
<wgt id='8585'>0.33202E+02</wgt>
<wgt id='8586'>0.33187E+02</wgt>
<wgt id='8587'>0.33171E+02</wgt>
<wgt id='8588'>0.33169E+02</wgt>
<wgt id='8589'>0.33183E+02</wgt>
<wgt id='8590'>0.33180E+02</wgt>
<wgt id='8591'>0.33196E+02</wgt>
<wgt id='8592'>0.33185E+02</wgt>
<wgt id='8593'>0.33167E+02</wgt>
<wgt id='8594'>0.33201E+02</wgt>
<wgt id='8595'>0.33203E+02</wgt>
<wgt id='8596'>0.33173E+02</wgt>
<wgt id='8597'>0.33187E+02</wgt>
<wgt id='8598'>0.33197E+02</wgt>
<wgt id='8599'>0.33192E+02</wgt>
<wgt id='8600'>0.33183E+02</wgt>
<wgt id='8601'>0.32830E+02</wgt>
<wgt id='8602'>0.33535E+02</wgt>
<wgt id='9000'>0.31033E+02</wgt>
<wgt id='9001'>0.31110E+02</wgt>
<wgt id='9002'>0.30902E+02</wgt>
<wgt id='9003'>0.31222E+02</wgt>
<wgt id='9004'>0.31122E+02</wgt>
<wgt id='9005'>0.30772E+02</wgt>
<wgt id='9006'>0.31409E+02</wgt>
<wgt id='9007'>0.31702E+02</wgt>
<wgt id='9008'>0.31295E+02</wgt>
<wgt id='9009'>0.30981E+02</wgt>
<wgt id='9010'>0.31108E+02</wgt>
<wgt id='9011'>0.31055E+02</wgt>
<wgt id='9012'>0.30741E+02</wgt>
<wgt id='9013'>0.31140E+02</wgt>
<wgt id='9014'>0.31053E+02</wgt>
<wgt id='9015'>0.30975E+02</wgt>
<wgt id='9016'>0.31074E+02</wgt>
<wgt id='9017'>0.30878E+02</wgt>
<wgt id='9018'>0.31054E+02</wgt>
<wgt id='9019'>0.31039E+02</wgt>
<wgt id='9020'>0.31346E+02</wgt>
<wgt id='9021'>0.30945E+02</wgt>
<wgt id='9022'>0.31064E+02</wgt>
<wgt id='9023'>0.30899E+02</wgt>
<wgt id='9024'>0.30952E+02</wgt>
<wgt id='9025'>0.31078E+02</wgt>
<wgt id='9026'>0.31036E+02</wgt>
<wgt id='9027'>0.30976E+02</wgt>
<wgt id='9028'>0.31064E+02</wgt>
<wgt id='9029'>0.31096E+02</wgt>
<wgt id='9030'>0.31068E+02</wgt>
<wgt id='9031'>0.30991E+02</wgt>
<wgt id='9032'>0.31079E+02</wgt>
<wgt id='9033'>0.31080E+02</wgt>
<wgt id='9034'>0.31028E+02</wgt>
<wgt id='9035'>0.31080E+02</wgt>
<wgt id='9036'>0.31048E+02</wgt>
<wgt id='9037'>0.31068E+02</wgt>
<wgt id='9038'>0.31062E+02</wgt>
<wgt id='9039'>0.31056E+02</wgt>
<wgt id='9040'>0.31006E+02</wgt>
<wgt id='9041'>0.31029E+02</wgt>
<wgt id='9042'>0.31033E+02</wgt>
<wgt id='9043'>0.31000E+02</wgt>
<wgt id='9044'>0.31043E+02</wgt>
<wgt id='9045'>0.31041E+02</wgt>
<wgt id='9046'>0.30996E+02</wgt>
<wgt id='9047'>0.31036E+02</wgt>
<wgt id='9048'>0.31035E+02</wgt>
<wgt id='9049'>0.31017E+02</wgt>
<wgt id='9050'>0.31034E+02</wgt>
<wgt id='9051'>0.31052E+02</wgt>
<wgt id='9052'>0.31040E+02</wgt>
<wgt id='9053'>0.31041E+02</wgt>
<wgt id='9054'>0.31028E+02</wgt>
<wgt id='9055'>0.31021E+02</wgt>
<wgt id='9056'>0.31069E+02</wgt>
<wgt id='9057'>0.31032E+02</wgt>
<wgt id='9058'>0.30997E+02</wgt>
<wgt id='9059'>0.31017E+02</wgt>
<wgt id='9060'>0.31018E+02</wgt>
<wgt id='9061'>0.31037E+02</wgt>
<wgt id='9062'>0.31039E+02</wgt>
<wgt id='9063'>0.31054E+02</wgt>
<wgt id='9064'>0.31010E+02</wgt>
<wgt id='9065'>0.31035E+02</wgt>
<wgt id='9066'>0.31042E+02</wgt>
<wgt id='9067'>0.31060E+02</wgt>
<wgt id='9068'>0.31035E+02</wgt>
<wgt id='9069'>0.31057E+02</wgt>
<wgt id='9070'>0.31029E+02</wgt>
<wgt id='9071'>0.31057E+02</wgt>
<wgt id='9072'>0.31061E+02</wgt>
<wgt id='9073'>0.31023E+02</wgt>
<wgt id='9074'>0.31035E+02</wgt>
<wgt id='9075'>0.31031E+02</wgt>
<wgt id='9076'>0.31025E+02</wgt>
<wgt id='9077'>0.31036E+02</wgt>
<wgt id='9078'>0.31034E+02</wgt>
<wgt id='9079'>0.31037E+02</wgt>
<wgt id='9080'>0.31053E+02</wgt>
<wgt id='9081'>0.31033E+02</wgt>
<wgt id='9082'>0.31041E+02</wgt>
<wgt id='9083'>0.31024E+02</wgt>
<wgt id='9084'>0.31029E+02</wgt>
<wgt id='9085'>0.31029E+02</wgt>
<wgt id='9086'>0.31031E+02</wgt>
<wgt id='9087'>0.31025E+02</wgt>
<wgt id='9088'>0.31026E+02</wgt>
<wgt id='9089'>0.31029E+02</wgt>
<wgt id='9090'>0.31037E+02</wgt>
<wgt id='9091'>0.31036E+02</wgt>
<wgt id='9092'>0.31040E+02</wgt>
<wgt id='9093'>0.31029E+02</wgt>
<wgt id='9094'>0.31037E+02</wgt>
<wgt id='9095'>0.31038E+02</wgt>
<wgt id='9096'>0.31023E+02</wgt>
<wgt id='9097'>0.31035E+02</wgt>
<wgt id='9098'>0.31034E+02</wgt>
<wgt id='9099'>0.31027E+02</wgt>
<wgt id='9100'>0.31031E+02</wgt>
<wgt id='9101'>0.30862E+02</wgt>
<wgt id='9102'>0.31291E+02</wgt>
<wgt id='10000'>0.33179E+02</wgt>
<wgt id='10001'>0.33084E+02</wgt>
<wgt id='10002'>0.33065E+02</wgt>
<wgt id='10003'>0.33174E+02</wgt>
<wgt id='10004'>0.33473E+02</wgt>
<wgt id='10005'>0.33069E+02</wgt>
<wgt id='10006'>0.33122E+02</wgt>
<wgt id='10007'>0.33141E+02</wgt>
<wgt id='10008'>0.33159E+02</wgt>
<wgt id='10009'>0.33185E+02</wgt>
<wgt id='10010'>0.33150E+02</wgt>
<wgt id='10011'>0.33237E+02</wgt>
<wgt id='10012'>0.32957E+02</wgt>
<wgt id='10013'>0.33134E+02</wgt>
<wgt id='10014'>0.33228E+02</wgt>
<wgt id='10015'>0.33317E+02</wgt>
<wgt id='10016'>0.33239E+02</wgt>
<wgt id='10017'>0.32371E+02</wgt>
<wgt id='10018'>0.33254E+02</wgt>
<wgt id='10019'>0.32952E+02</wgt>
<wgt id='10020'>0.33091E+02</wgt>
<wgt id='10021'>0.33165E+02</wgt>
<wgt id='10022'>0.33062E+02</wgt>
<wgt id='10023'>0.33183E+02</wgt>
<wgt id='10024'>0.33163E+02</wgt>
<wgt id='10025'>0.33156E+02</wgt>
<wgt id='10026'>0.33272E+02</wgt>
<wgt id='10027'>0.33235E+02</wgt>
<wgt id='10028'>0.33497E+02</wgt>
<wgt id='10029'>0.33236E+02</wgt>
<wgt id='10030'>0.33165E+02</wgt>
<wgt id='10031'>0.32830E+02</wgt>
<wgt id='10032'>0.33535E+02</wgt>
<wgt id='11000'>0.31027E+02</wgt>
<wgt id='11001'>0.30815E+02</wgt>
<wgt id='11002'>0.30878E+02</wgt>
<wgt id='11003'>0.30987E+02</wgt>
<wgt id='11004'>0.30735E+02</wgt>
<wgt id='11005'>0.30884E+02</wgt>
<wgt id='11006'>0.31037E+02</wgt>
<wgt id='11007'>0.31023E+02</wgt>
<wgt id='11008'>0.30885E+02</wgt>
<wgt id='11009'>0.31053E+02</wgt>
<wgt id='11010'>0.31958E+02</wgt>
<wgt id='11011'>0.31034E+02</wgt>
<wgt id='11012'>0.30995E+02</wgt>
<wgt id='11013'>0.31033E+02</wgt>
<wgt id='11014'>0.31041E+02</wgt>
<wgt id='11015'>0.30971E+02</wgt>
<wgt id='11016'>0.31045E+02</wgt>
<wgt id='11017'>0.31022E+02</wgt>
<wgt id='11018'>0.31036E+02</wgt>
<wgt id='11019'>0.31057E+02</wgt>
<wgt id='11020'>0.31021E+02</wgt>
<wgt id='11021'>0.31025E+02</wgt>
<wgt id='11022'>0.30878E+02</wgt>
<wgt id='11023'>0.31033E+02</wgt>
<wgt id='11024'>0.30978E+02</wgt>
<wgt id='11025'>0.30967E+02</wgt>
<wgt id='11026'>0.31030E+02</wgt>
<wgt id='11027'>0.31071E+02</wgt>
<wgt id='11028'>0.31037E+02</wgt>
<wgt id='11029'>0.30866E+02</wgt>
<wgt id='11030'>0.31024E+02</wgt>
<wgt id='11031'>0.30862E+02</wgt>
<wgt id='11032'>0.31291E+02</wgt>
<wgt id='12000'>0.33547E+02</wgt>
<wgt id='12001'>0.33506E+02</wgt>
<wgt id='12002'>0.33589E+02</wgt>
<wgt id='12003'>0.33697E+02</wgt>
<wgt id='12004'>0.33398E+02</wgt>
<wgt id='12005'>0.33555E+02</wgt>
<wgt id='12006'>0.33540E+02</wgt>
<wgt id='12007'>0.33504E+02</wgt>
<wgt id='12008'>0.33591E+02</wgt>
<wgt id='12009'>0.33592E+02</wgt>
<wgt id='12010'>0.33504E+02</wgt>
<wgt id='12011'>0.33414E+02</wgt>
<wgt id='12012'>0.33647E+02</wgt>
<wgt id='12013'>0.33473E+02</wgt>
<wgt id='12014'>0.33620E+02</wgt>
<wgt id='12015'>0.33713E+02</wgt>
<wgt id='12016'>0.33503E+02</wgt>
<wgt id='12017'>0.33636E+02</wgt>
<wgt id='12018'>0.33361E+02</wgt>
<wgt id='12019'>0.33640E+02</wgt>
<wgt id='12020'>0.33494E+02</wgt>
<wgt id='12021'>0.33598E+02</wgt>
<wgt id='12022'>0.33441E+02</wgt>
<wgt id='12023'>0.33236E+02</wgt>
<wgt id='12024'>0.33675E+02</wgt>
<wgt id='12025'>0.33385E+02</wgt>
<wgt id='12026'>0.33782E+02</wgt>
<wgt id='12027'>0.33775E+02</wgt>
<wgt id='12028'>0.33364E+02</wgt>
<wgt id='12050'>0.33547E+02</wgt>
<wgt id='12051'>0.33610E+02</wgt>
<wgt id='12052'>0.33437E+02</wgt>
<wgt id='12053'>0.33606E+02</wgt>
<wgt id='12054'>0.33475E+02</wgt>
<wgt id='12055'>0.33582E+02</wgt>
<wgt id='12056'>0.33900E+02</wgt>
<wgt id='12057'>0.33473E+02</wgt>
<wgt id='12058'>0.33634E+02</wgt>
<wgt id='12059'>0.33469E+02</wgt>
<wgt id='12060'>0.33652E+02</wgt>
<wgt id='12061'>0.33395E+02</wgt>
<wgt id='12062'>0.33785E+02</wgt>
<wgt id='12063'>0.33842E+02</wgt>
<wgt id='13000'>0.33042E+02</wgt>
<wgt id='13001'>0.33024E+02</wgt>
<wgt id='13002'>0.33056E+02</wgt>
<wgt id='13003'>0.33177E+02</wgt>
<wgt id='13004'>0.32903E+02</wgt>
<wgt id='13005'>0.33131E+02</wgt>
<wgt id='13006'>0.32950E+02</wgt>
<wgt id='13007'>0.33083E+02</wgt>
<wgt id='13008'>0.32995E+02</wgt>
<wgt id='13009'>0.33030E+02</wgt>
<wgt id='13010'>0.33046E+02</wgt>
<wgt id='13011'>0.33108E+02</wgt>
<wgt id='13012'>0.32971E+02</wgt>
<wgt id='13013'>0.32947E+02</wgt>
<wgt id='13014'>0.33139E+02</wgt>
<wgt id='13015'>0.33155E+02</wgt>
<wgt id='13016'>0.33087E+02</wgt>
<wgt id='13017'>0.32938E+02</wgt>
<wgt id='13018'>0.33131E+02</wgt>
<wgt id='13019'>0.33080E+02</wgt>
<wgt id='13020'>0.32992E+02</wgt>
<wgt id='13021'>0.33048E+02</wgt>
<wgt id='13022'>0.32966E+02</wgt>
<wgt id='13023'>0.32790E+02</wgt>
<wgt id='13024'>0.33288E+02</wgt>
<wgt id='13025'>0.32742E+02</wgt>
<wgt id='13026'>0.33243E+02</wgt>
<wgt id='13027'>0.32941E+02</wgt>
<wgt id='13028'>0.33187E+02</wgt>
<wgt id='13050'>0.33042E+02</wgt>
<wgt id='13051'>0.33087E+02</wgt>
<wgt id='13052'>0.32795E+02</wgt>
<wgt id='13053'>0.33083E+02</wgt>
<wgt id='13054'>0.33020E+02</wgt>
<wgt id='13055'>0.32389E+02</wgt>
<wgt id='13056'>0.33563E+02</wgt>
<wgt id='13057'>0.32946E+02</wgt>
<wgt id='13058'>0.33180E+02</wgt>
<wgt id='13059'>0.32893E+02</wgt>
<wgt id='13060'>0.32494E+02</wgt>
<wgt id='13061'>0.32986E+02</wgt>
<wgt id='13062'>0.33269E+02</wgt>
<wgt id='13063'>0.33302E+02</wgt>
<wgt id='14000'>0.33577E+02</wgt>
<wgt id='14001'>0.33572E+02</wgt>
<wgt id='14002'>0.33567E+02</wgt>
<wgt id='14003'>0.33562E+02</wgt>
<wgt id='14004'>0.33557E+02</wgt>
<wgt id='14005'>0.33552E+02</wgt>
<wgt id='14006'>0.33547E+02</wgt>
<wgt id='14007'>0.33542E+02</wgt>
<wgt id='14008'>0.33537E+02</wgt>
<wgt id='14009'>0.33531E+02</wgt>
<wgt id='14010'>0.33526E+02</wgt>
<wgt id='14011'>0.33521E+02</wgt>
<wgt id='14012'>0.33516E+02</wgt>
<wgt id='14013'>0.33511E+02</wgt>
<wgt id='14014'>0.33506E+02</wgt>
<wgt id='14015'>0.33501E+02</wgt>
<wgt id='14016'>0.33496E+02</wgt>
<wgt id='14017'>0.33491E+02</wgt>
<wgt id='14018'>0.33486E+02</wgt>
<wgt id='14019'>0.33481E+02</wgt>
<wgt id='14020'>0.33475E+02</wgt>
<wgt id='14021'>0.33471E+02</wgt>
<wgt id='14022'>0.33465E+02</wgt>
<wgt id='14023'>0.33460E+02</wgt>
<wgt id='14024'>0.33455E+02</wgt>
<wgt id='14025'>0.33450E+02</wgt>
<wgt id='14026'>0.33445E+02</wgt>
<wgt id='14027'>0.33440E+02</wgt>
<wgt id='14028'>0.33435E+02</wgt>
<wgt id='14029'>0.33430E+02</wgt>
<wgt id='14030'>0.33425E+02</wgt>
<wgt id='15000'>0.30557E+02</wgt>
<wgt id='15001'>0.30611E+02</wgt>
<wgt id='15002'>0.30419E+02</wgt>
<wgt id='15003'>0.30747E+02</wgt>
<wgt id='15004'>0.30641E+02</wgt>
<wgt id='15005'>0.30300E+02</wgt>
<wgt id='15006'>0.30945E+02</wgt>
<wgt id='15007'>0.31231E+02</wgt>
<wgt id='15008'>0.30816E+02</wgt>
<wgt id='15009'>0.30508E+02</wgt>
<wgt id='15010'>0.30629E+02</wgt>
<wgt id='15011'>0.30599E+02</wgt>
<wgt id='15012'>0.30277E+02</wgt>
<wgt id='15013'>0.30675E+02</wgt>
<wgt id='15014'>0.30571E+02</wgt>
<wgt id='15015'>0.30464E+02</wgt>
<wgt id='15016'>0.30618E+02</wgt>
<wgt id='15017'>0.30395E+02</wgt>
<wgt id='15018'>0.30572E+02</wgt>
<wgt id='15019'>0.30577E+02</wgt>
<wgt id='15020'>0.30884E+02</wgt>
<wgt id='15021'>0.30458E+02</wgt>
<wgt id='15022'>0.30584E+02</wgt>
<wgt id='15023'>0.30431E+02</wgt>
<wgt id='15024'>0.30466E+02</wgt>
<wgt id='15025'>0.30585E+02</wgt>
<wgt id='15026'>0.30543E+02</wgt>
<wgt id='15027'>0.30518E+02</wgt>
<wgt id='15028'>0.30596E+02</wgt>
<wgt id='15029'>0.30610E+02</wgt>
<wgt id='15030'>0.30582E+02</wgt>
<wgt id='15031'>0.30536E+02</wgt>
<wgt id='15032'>0.30596E+02</wgt>
<wgt id='15033'>0.30597E+02</wgt>
<wgt id='15034'>0.30551E+02</wgt>
<wgt id='15035'>0.30599E+02</wgt>
<wgt id='15036'>0.30572E+02</wgt>
<wgt id='15037'>0.30593E+02</wgt>
<wgt id='15038'>0.30583E+02</wgt>
<wgt id='15039'>0.30573E+02</wgt>
<wgt id='15040'>0.30530E+02</wgt>
<wgt id='15041'>0.30547E+02</wgt>
<wgt id='15042'>0.30553E+02</wgt>
<wgt id='15043'>0.30535E+02</wgt>
<wgt id='15044'>0.30565E+02</wgt>
<wgt id='15045'>0.30562E+02</wgt>
<wgt id='15046'>0.30525E+02</wgt>
<wgt id='15047'>0.30555E+02</wgt>
<wgt id='15048'>0.30561E+02</wgt>
<wgt id='15049'>0.30538E+02</wgt>
<wgt id='15050'>0.30560E+02</wgt>
<wgt id='15051'>0.30574E+02</wgt>
<wgt id='15052'>0.30563E+02</wgt>
<wgt id='15053'>0.30566E+02</wgt>
<wgt id='15054'>0.30554E+02</wgt>
<wgt id='15055'>0.30546E+02</wgt>
<wgt id='15056'>0.30586E+02</wgt>
<wgt id='15057'>0.30556E+02</wgt>
<wgt id='15058'>0.30528E+02</wgt>
<wgt id='15059'>0.30544E+02</wgt>
<wgt id='15060'>0.30545E+02</wgt>
<wgt id='15061'>0.30562E+02</wgt>
<wgt id='15062'>0.30561E+02</wgt>
<wgt id='15063'>0.30575E+02</wgt>
<wgt id='15064'>0.30536E+02</wgt>
<wgt id='15065'>0.30558E+02</wgt>
<wgt id='15066'>0.30565E+02</wgt>
<wgt id='15067'>0.30580E+02</wgt>
<wgt id='15068'>0.30559E+02</wgt>
<wgt id='15069'>0.30577E+02</wgt>
<wgt id='15070'>0.30551E+02</wgt>
<wgt id='15071'>0.30582E+02</wgt>
<wgt id='15072'>0.30583E+02</wgt>
<wgt id='15073'>0.30544E+02</wgt>
<wgt id='15074'>0.30558E+02</wgt>
<wgt id='15075'>0.30554E+02</wgt>
<wgt id='15076'>0.30553E+02</wgt>
<wgt id='15077'>0.30560E+02</wgt>
<wgt id='15078'>0.30561E+02</wgt>
<wgt id='15079'>0.30560E+02</wgt>
<wgt id='15080'>0.30573E+02</wgt>
<wgt id='15081'>0.30559E+02</wgt>
<wgt id='15082'>0.30566E+02</wgt>
<wgt id='15083'>0.30547E+02</wgt>
<wgt id='15084'>0.30551E+02</wgt>
<wgt id='15085'>0.30554E+02</wgt>
<wgt id='15086'>0.30558E+02</wgt>
<wgt id='15087'>0.30547E+02</wgt>
<wgt id='15088'>0.30548E+02</wgt>
<wgt id='15089'>0.30550E+02</wgt>
<wgt id='15090'>0.30559E+02</wgt>
<wgt id='15091'>0.30557E+02</wgt>
<wgt id='15092'>0.30562E+02</wgt>
<wgt id='15093'>0.30553E+02</wgt>
<wgt id='15094'>0.30557E+02</wgt>
<wgt id='15095'>0.30562E+02</wgt>
<wgt id='15096'>0.30548E+02</wgt>
<wgt id='15097'>0.30559E+02</wgt>
<wgt id='15098'>0.30557E+02</wgt>
<wgt id='15099'>0.30551E+02</wgt>
<wgt id='15100'>0.30555E+02</wgt>
<wgt id='15101'>0.30557E+02</wgt>
<wgt id='15102'>0.30554E+02</wgt>
<wgt id='15103'>0.30557E+02</wgt>
<wgt id='15104'>0.30558E+02</wgt>
<wgt id='15105'>0.30558E+02</wgt>
<wgt id='15106'>0.30557E+02</wgt>
<wgt id='15107'>0.30555E+02</wgt>
<wgt id='1500'>0.32471E+02</wgt>
<wgt id='1501'>0.30411E+02</wgt>
<wgt id='1502'>0.32256E+02</wgt>
<wgt id='1503'>0.33421E+02</wgt>
<wgt id='1504'>0.31082E+02</wgt>
<wgt id='1505'>0.31946E+02</wgt>
<wgt id='1506'>0.32924E+02</wgt>
<wgt id='1507'>0.32633E+02</wgt>
<wgt id='1508'>0.32587E+02</wgt>
<wgt id='1509'>0.32743E+02</wgt>
<wgt id='1510'>0.33335E+02</wgt>
<wgt id='1511'>0.33785E+02</wgt>
<wgt id='1512'>0.32477E+02</wgt>
<wgt id='1513'>0.32319E+02</wgt>
<wgt id='1514'>0.34343E+02</wgt>
<wgt id='1515'>0.33430E+02</wgt>
<wgt id='1516'>0.32204E+02</wgt>
<wgt id='1517'>0.32414E+02</wgt>
<wgt id='1518'>0.31715E+02</wgt>
<wgt id='1519'>0.32297E+02</wgt>
<wgt id='1520'>0.32542E+02</wgt>
<wgt id='1521'>0.33095E+02</wgt>
<wgt id='1522'>0.33283E+02</wgt>
<wgt id='1523'>0.33802E+02</wgt>
<wgt id='1524'>0.33042E+02</wgt>
<wgt id='1525'>0.32180E+02</wgt>
<wgt id='1526'>0.31872E+02</wgt>
<wgt id='1527'>0.31627E+02</wgt>
<wgt id='1528'>0.32644E+02</wgt>
<wgt id='1529'>0.33003E+02</wgt>
<wgt id='1530'>0.32949E+02</wgt>
<wgt id='1531'>0.32981E+02</wgt>
<wgt id='1532'>0.32643E+02</wgt>
<wgt id='1533'>0.31427E+02</wgt>
<wgt id='1534'>0.33012E+02</wgt>
<wgt id='1535'>0.33215E+02</wgt>
<wgt id='1536'>0.31127E+02</wgt>
<wgt id='1537'>0.33107E+02</wgt>
<wgt id='1538'>0.32258E+02</wgt>
<wgt id='1539'>0.31639E+02</wgt>
<wgt id='1540'>0.32389E+02</wgt>
<wgt id='1541'>0.31964E+02</wgt>
<wgt id='1542'>0.31907E+02</wgt>
<wgt id='1543'>0.32413E+02</wgt>
<wgt id='1544'>0.32807E+02</wgt>
<wgt id='1545'>0.33141E+02</wgt>
<wgt id='1546'>0.32827E+02</wgt>
<wgt id='1547'>0.31815E+02</wgt>
<wgt id='1548'>0.32068E+02</wgt>
<wgt id='1549'>0.31878E+02</wgt>
<wgt id='1550'>0.32332E+02</wgt>
<wgt id='1551'>0.32414E+02</wgt>
<wgt id='1552'>0.32377E+02</wgt>
<wgt id='1553'>0.32888E+02</wgt>
<wgt id='1554'>0.32005E+02</wgt>
<wgt id='1555'>0.31748E+02</wgt>
<wgt id='1556'>0.32716E+02</wgt>
<wgt id='1557'>0.31102E+02</wgt>
<wgt id='1558'>0.32667E+02</wgt>
<wgt id='1559'>0.33283E+02</wgt>
<wgt id='1560'>0.32052E+02</wgt>
<wgt id='1561'>0.31683E+02</wgt>
<wgt id='1562'>0.33000E+02</wgt>
<wgt id='1563'>0.31800E+02</wgt>
<wgt id='1564'>0.32396E+02</wgt>
<wgt id='1565'>0.31189E+02</wgt>
<wgt id='1566'>0.33441E+02</wgt>
<wgt id='1567'>0.34029E+02</wgt>
<wgt id='1568'>0.32532E+02</wgt>
<wgt id='1569'>0.31671E+02</wgt>
<wgt id='1570'>0.32103E+02</wgt>
<wgt id='1571'>0.31558E+02</wgt>
<wgt id='1572'>0.32994E+02</wgt>
<wgt id='1573'>0.31517E+02</wgt>
<wgt id='1574'>0.33416E+02</wgt>
<wgt id='1575'>0.32066E+02</wgt>
<wgt id='1576'>0.33603E+02</wgt>
<wgt id='1577'>0.33359E+02</wgt>
<wgt id='1578'>0.32355E+02</wgt>
<wgt id='1579'>0.31533E+02</wgt>
<wgt id='1580'>0.32492E+02</wgt>
<wgt id='1581'>0.33289E+02</wgt>
<wgt id='1582'>0.32163E+02</wgt>
<wgt id='1583'>0.32314E+02</wgt>
<wgt id='1584'>0.32211E+02</wgt>
<wgt id='1585'>0.32652E+02</wgt>
<wgt id='1586'>0.32528E+02</wgt>
<wgt id='1587'>0.33446E+02</wgt>
<wgt id='1588'>0.32008E+02</wgt>
<wgt id='1589'>0.32244E+02</wgt>
<wgt id='1590'>0.32746E+02</wgt>
<wgt id='1591'>0.32032E+02</wgt>
<wgt id='1592'>0.31184E+02</wgt>
<wgt id='1593'>0.32188E+02</wgt>
<wgt id='1594'>0.33612E+02</wgt>
<wgt id='1595'>0.33254E+02</wgt>
<wgt id='1596'>0.31964E+02</wgt>
<wgt id='1597'>0.31441E+02</wgt>
<wgt id='1598'>0.31884E+02</wgt>
<wgt id='1599'>0.31477E+02</wgt>
<wgt id='1600'>0.33019E+02</wgt>
<wgt id='1601'>0.32146E+02</wgt>
<wgt id='1602'>0.32513E+02</wgt>
<wgt id='1700'>0.31212E+02</wgt>
<wgt id='1800'>0.46226E+02</wgt>
<wgt id='1850'>0.53358E+02</wgt>
<wgt id='1900'>0.49144E+02</wgt>
<wgt id='1950'>0.55028E+02</wgt>
</rwgt>
</event>
<event>
      4   9999  3.15120E+01  1.19883E+01 -1.00000E+00  1.83390E-01
      21    -1     0     0   502   512  0.000000000E+00  0.000000000E+00  6.457483317E+02  6.457483317E+02  0.000000000E+00  0.00000E+00  9.000E+00
      21    -1     0     0   501   502  0.000000000E+00  0.000000000E+00 -6.850205311E+00  6.850205311E+00  0.000000000E+00  0.00000E+00  9.000E+00
      25     1     1     2     0     0 -4.090574319E-02  1.198820723E+01  5.642678460E+02  5.770115174E+02  1.200015432E+02  0.00000E+00  9.000E+00
      21     1     1     2   501   512  4.090574319E-02 -1.198820723E+01  7.463028040E+01  7.558701964E+01  1.348699152E-06  0.00000E+00  9.000E+00
#rwgt            1           1   28.425557275466460                2        3037           0
<rwgt>
<wgt id='1001'>0.31512E+02</wgt>
<wgt id='1002'>0.35210E+02</wgt>
<wgt id='1003'>0.27563E+02</wgt>
<wgt id='1004'>0.25866E+02</wgt>
<wgt id='1005'>0.28717E+02</wgt>
<wgt id='1006'>0.22789E+02</wgt>
<wgt id='1007'>0.39284E+02</wgt>
<wgt id='1008'>0.44228E+02</wgt>
<wgt id='1009'>0.34062E+02</wgt>
<wgt id='2000'>0.31512E+02</wgt>
<wgt id='2001'>0.31495E+02</wgt>
<wgt id='2002'>0.31486E+02</wgt>
<wgt id='2003'>0.31434E+02</wgt>
<wgt id='2004'>0.31551E+02</wgt>
<wgt id='2005'>0.31579E+02</wgt>
<wgt id='2006'>0.31526E+02</wgt>
<wgt id='2007'>0.31649E+02</wgt>
<wgt id='2008'>0.31625E+02</wgt>
<wgt id='2009'>0.31462E+02</wgt>
<wgt id='2010'>0.31450E+02</wgt>
<wgt id='2011'>0.31486E+02</wgt>
<wgt id='2012'>0.31489E+02</wgt>
<wgt id='2013'>0.31403E+02</wgt>
<wgt id='2014'>0.31443E+02</wgt>
<wgt id='2015'>0.31488E+02</wgt>
<wgt id='2016'>0.31545E+02</wgt>
<wgt id='2017'>0.31489E+02</wgt>
<wgt id='2018'>0.31443E+02</wgt>
<wgt id='2019'>0.31526E+02</wgt>
<wgt id='2020'>0.31445E+02</wgt>
<wgt id='2021'>0.31553E+02</wgt>
<wgt id='2022'>0.31433E+02</wgt>
<wgt id='2023'>0.31526E+02</wgt>
<wgt id='2024'>0.31445E+02</wgt>
<wgt id='2025'>0.31466E+02</wgt>
<wgt id='2026'>0.31555E+02</wgt>
<wgt id='2027'>0.31465E+02</wgt>
<wgt id='2028'>0.31461E+02</wgt>
<wgt id='2029'>0.31697E+02</wgt>
<wgt id='2030'>0.31513E+02</wgt>
<wgt id='2031'>0.31537E+02</wgt>
<wgt id='2032'>0.31498E+02</wgt>
<wgt id='2033'>0.31522E+02</wgt>
<wgt id='2034'>0.31612E+02</wgt>
<wgt id='2035'>0.31491E+02</wgt>
<wgt id='2036'>0.31501E+02</wgt>
<wgt id='2037'>0.31591E+02</wgt>
<wgt id='2038'>0.31487E+02</wgt>
<wgt id='2039'>0.31419E+02</wgt>
<wgt id='2040'>0.31474E+02</wgt>
<wgt id='2041'>0.31482E+02</wgt>
<wgt id='2042'>0.31501E+02</wgt>
<wgt id='2043'>0.31489E+02</wgt>
<wgt id='2044'>0.31558E+02</wgt>
<wgt id='2045'>0.31485E+02</wgt>
<wgt id='2046'>0.31567E+02</wgt>
<wgt id='2047'>0.31560E+02</wgt>
<wgt id='2048'>0.31480E+02</wgt>
<wgt id='2049'>0.31494E+02</wgt>
<wgt id='2050'>0.31538E+02</wgt>
<wgt id='2051'>0.31552E+02</wgt>
<wgt id='2052'>0.31509E+02</wgt>
<wgt id='2053'>0.31529E+02</wgt>
<wgt id='2054'>0.31534E+02</wgt>
<wgt id='2055'>0.31515E+02</wgt>
<wgt id='2056'>0.31511E+02</wgt>
<wgt id='2057'>0.31526E+02</wgt>
<wgt id='2058'>0.31514E+02</wgt>
<wgt id='2059'>0.31499E+02</wgt>
<wgt id='2060'>0.31508E+02</wgt>
<wgt id='2061'>0.31511E+02</wgt>
<wgt id='2062'>0.31533E+02</wgt>
<wgt id='2063'>0.31501E+02</wgt>
<wgt id='2064'>0.31510E+02</wgt>
<wgt id='2065'>0.31530E+02</wgt>
<wgt id='2066'>0.31508E+02</wgt>
<wgt id='2067'>0.31518E+02</wgt>
<wgt id='2068'>0.31520E+02</wgt>
<wgt id='2069'>0.31507E+02</wgt>
<wgt id='2070'>0.31499E+02</wgt>
<wgt id='2071'>0.31491E+02</wgt>
<wgt id='2072'>0.31513E+02</wgt>
<wgt id='2073'>0.31512E+02</wgt>
<wgt id='2074'>0.31486E+02</wgt>
<wgt id='2075'>0.31520E+02</wgt>
<wgt id='2076'>0.31505E+02</wgt>
<wgt id='2077'>0.31508E+02</wgt>
<wgt id='2078'>0.31518E+02</wgt>
<wgt id='2079'>0.31521E+02</wgt>
<wgt id='2080'>0.31506E+02</wgt>
<wgt id='2081'>0.31515E+02</wgt>
<wgt id='2082'>0.31513E+02</wgt>
<wgt id='2083'>0.31514E+02</wgt>
<wgt id='2084'>0.31509E+02</wgt>
<wgt id='2085'>0.31505E+02</wgt>
<wgt id='2086'>0.31515E+02</wgt>
<wgt id='2087'>0.31514E+02</wgt>
<wgt id='2088'>0.31516E+02</wgt>
<wgt id='2089'>0.31518E+02</wgt>
<wgt id='2090'>0.31521E+02</wgt>
<wgt id='2091'>0.31507E+02</wgt>
<wgt id='2092'>0.31515E+02</wgt>
<wgt id='2093'>0.31512E+02</wgt>
<wgt id='2094'>0.31510E+02</wgt>
<wgt id='2095'>0.31510E+02</wgt>
<wgt id='2096'>0.31510E+02</wgt>
<wgt id='2097'>0.31523E+02</wgt>
<wgt id='2098'>0.31502E+02</wgt>
<wgt id='2099'>0.31523E+02</wgt>
<wgt id='2100'>0.31508E+02</wgt>
<wgt id='2101'>0.30524E+02</wgt>
<wgt id='2102'>0.32584E+02</wgt>
<wgt id='2104'>0.26633E+02</wgt>
<wgt id='2105'>0.27623E+02</wgt>
<wgt id='2106'>0.28431E+02</wgt>
<wgt id='2107'>0.29312E+02</wgt>
<wgt id='2108'>0.30973E+02</wgt>
<wgt id='2109'>0.32006E+02</wgt>
<wgt id='2110'>0.33608E+02</wgt>
<wgt id='2111'>0.34638E+02</wgt>
<wgt id='3000'>0.33252E+02</wgt>
<wgt id='3001'>0.33250E+02</wgt>
<wgt id='3002'>0.33250E+02</wgt>
<wgt id='3003'>0.33149E+02</wgt>
<wgt id='3004'>0.33294E+02</wgt>
<wgt id='3005'>0.33109E+02</wgt>
<wgt id='3006'>0.33188E+02</wgt>
<wgt id='3007'>0.33110E+02</wgt>
<wgt id='3008'>0.33275E+02</wgt>
<wgt id='3009'>0.33133E+02</wgt>
<wgt id='3010'>0.33243E+02</wgt>
<wgt id='3011'>0.33252E+02</wgt>
<wgt id='3012'>0.33223E+02</wgt>
<wgt id='3013'>0.33312E+02</wgt>
<wgt id='3014'>0.33182E+02</wgt>
<wgt id='3015'>0.33225E+02</wgt>
<wgt id='3016'>0.33249E+02</wgt>
<wgt id='3017'>0.33183E+02</wgt>
<wgt id='3018'>0.33245E+02</wgt>
<wgt id='3019'>0.33363E+02</wgt>
<wgt id='3020'>0.33336E+02</wgt>
<wgt id='3021'>0.33347E+02</wgt>
<wgt id='3022'>0.33255E+02</wgt>
<wgt id='3023'>0.33294E+02</wgt>
<wgt id='3024'>0.33299E+02</wgt>
<wgt id='3025'>0.33303E+02</wgt>
<wgt id='3026'>0.33194E+02</wgt>
<wgt id='3027'>0.33271E+02</wgt>
<wgt id='3028'>0.33239E+02</wgt>
<wgt id='3029'>0.33156E+02</wgt>
<wgt id='3030'>0.33456E+02</wgt>
<wgt id='3031'>0.33357E+02</wgt>
<wgt id='3032'>0.33251E+02</wgt>
<wgt id='3033'>0.33328E+02</wgt>
<wgt id='3034'>0.33247E+02</wgt>
<wgt id='3035'>0.33440E+02</wgt>
<wgt id='3036'>0.33302E+02</wgt>
<wgt id='3037'>0.33211E+02</wgt>
<wgt id='3038'>0.33265E+02</wgt>
<wgt id='3039'>0.33298E+02</wgt>
<wgt id='3040'>0.33169E+02</wgt>
<wgt id='3041'>0.33260E+02</wgt>
<wgt id='3042'>0.33232E+02</wgt>
<wgt id='3043'>0.33201E+02</wgt>
<wgt id='3044'>0.33283E+02</wgt>
<wgt id='3045'>0.33276E+02</wgt>
<wgt id='3046'>0.33297E+02</wgt>
<wgt id='3047'>0.33259E+02</wgt>
<wgt id='3048'>0.33230E+02</wgt>
<wgt id='3049'>0.33236E+02</wgt>
<wgt id='3050'>0.33209E+02</wgt>
<wgt id='3051'>0.33301E+02</wgt>
<wgt id='3052'>0.33236E+02</wgt>
<wgt id='3053'>0.33264E+02</wgt>
<wgt id='3054'>0.33266E+02</wgt>
<wgt id='3055'>0.33227E+02</wgt>
<wgt id='3056'>0.33266E+02</wgt>
<wgt id='3057'>0.33271E+02</wgt>
<wgt id='3058'>0.33221E+02</wgt>
<wgt id='3059'>0.33272E+02</wgt>
<wgt id='3060'>0.33272E+02</wgt>
<wgt id='3061'>0.33300E+02</wgt>
<wgt id='3062'>0.33268E+02</wgt>
<wgt id='3063'>0.33253E+02</wgt>
<wgt id='3064'>0.33243E+02</wgt>
<wgt id='3065'>0.33250E+02</wgt>
<wgt id='3066'>0.33265E+02</wgt>
<wgt id='3067'>0.33221E+02</wgt>
<wgt id='3068'>0.33261E+02</wgt>
<wgt id='3069'>0.33227E+02</wgt>
<wgt id='3070'>0.33232E+02</wgt>
<wgt id='3071'>0.33244E+02</wgt>
<wgt id='3072'>0.33275E+02</wgt>
<wgt id='3073'>0.33256E+02</wgt>
<wgt id='3074'>0.33249E+02</wgt>
<wgt id='3075'>0.33268E+02</wgt>
<wgt id='3076'>0.33248E+02</wgt>
<wgt id='3077'>0.33243E+02</wgt>
<wgt id='3078'>0.33266E+02</wgt>
<wgt id='3079'>0.33248E+02</wgt>
<wgt id='3080'>0.33247E+02</wgt>
<wgt id='3081'>0.33247E+02</wgt>
<wgt id='3082'>0.33255E+02</wgt>
<wgt id='3083'>0.33244E+02</wgt>
<wgt id='3084'>0.33238E+02</wgt>
<wgt id='3085'>0.33265E+02</wgt>
<wgt id='3086'>0.33259E+02</wgt>
<wgt id='3087'>0.33252E+02</wgt>
<wgt id='3088'>0.33243E+02</wgt>
<wgt id='3089'>0.33255E+02</wgt>
<wgt id='3090'>0.33262E+02</wgt>
<wgt id='3091'>0.33251E+02</wgt>
<wgt id='3092'>0.33244E+02</wgt>
<wgt id='3093'>0.33254E+02</wgt>
<wgt id='3094'>0.33255E+02</wgt>
<wgt id='3095'>0.33253E+02</wgt>
<wgt id='3096'>0.33243E+02</wgt>
<wgt id='3097'>0.33248E+02</wgt>
<wgt id='3098'>0.33240E+02</wgt>
<wgt id='3099'>0.33253E+02</wgt>
<wgt id='3100'>0.33257E+02</wgt>
<wgt id='3101'>0.32111E+02</wgt>
<wgt id='3102'>0.34362E+02</wgt>
<wgt id='5000'>0.31181E+02</wgt>
<wgt id='5001'>0.31192E+02</wgt>
<wgt id='5002'>0.31121E+02</wgt>
<wgt id='5003'>0.31228E+02</wgt>
<wgt id='5004'>0.31105E+02</wgt>
<wgt id='5005'>0.31369E+02</wgt>
<wgt id='5006'>0.30689E+02</wgt>
<wgt id='5007'>0.30909E+02</wgt>
<wgt id='5008'>0.31411E+02</wgt>
<wgt id='5009'>0.31059E+02</wgt>
<wgt id='5010'>0.31226E+02</wgt>
<wgt id='5011'>0.31314E+02</wgt>
<wgt id='5012'>0.31009E+02</wgt>
<wgt id='5013'>0.31352E+02</wgt>
<wgt id='5014'>0.31117E+02</wgt>
<wgt id='5015'>0.31184E+02</wgt>
<wgt id='5016'>0.31102E+02</wgt>
<wgt id='5017'>0.31031E+02</wgt>
<wgt id='5018'>0.31347E+02</wgt>
<wgt id='5019'>0.31028E+02</wgt>
<wgt id='5020'>0.31340E+02</wgt>
<wgt id='5021'>0.31150E+02</wgt>
<wgt id='5022'>0.31198E+02</wgt>
<wgt id='5023'>0.30988E+02</wgt>
<wgt id='5024'>0.31389E+02</wgt>
<wgt id='5025'>0.31197E+02</wgt>
<wgt id='5026'>0.31168E+02</wgt>
<wgt id='5027'>0.31322E+02</wgt>
<wgt id='5028'>0.30932E+02</wgt>
<wgt id='5029'>0.30986E+02</wgt>
<wgt id='5030'>0.31289E+02</wgt>
<wgt id='5031'>0.31033E+02</wgt>
<wgt id='5032'>0.31386E+02</wgt>
<wgt id='5033'>0.31038E+02</wgt>
<wgt id='5034'>0.31311E+02</wgt>
<wgt id='5035'>0.30946E+02</wgt>
<wgt id='5036'>0.31389E+02</wgt>
<wgt id='5037'>0.30846E+02</wgt>
<wgt id='5038'>0.31563E+02</wgt>
<wgt id='5039'>0.31683E+02</wgt>
<wgt id='5040'>0.30934E+02</wgt>
<wgt id='5041'>0.31190E+02</wgt>
<wgt id='5042'>0.31160E+02</wgt>
<wgt id='5043'>0.31338E+02</wgt>
<wgt id='5044'>0.30935E+02</wgt>
<wgt id='5045'>0.30826E+02</wgt>
<wgt id='5046'>0.31301E+02</wgt>
<wgt id='5047'>0.30710E+02</wgt>
<wgt id='5048'>0.31615E+02</wgt>
<wgt id='5049'>0.31138E+02</wgt>
<wgt id='5050'>0.31266E+02</wgt>
<wgt id='5051'>0.31206E+02</wgt>
<wgt id='5052'>0.31158E+02</wgt>
<wgt id='5053'>0.30171E+02</wgt>
<wgt id='5054'>0.30447E+02</wgt>
<wgt id='5055'>0.31002E+02</wgt>
<wgt id='5056'>0.31516E+02</wgt>
<wgt id='5060'>0.30030E+02</wgt>
<wgt id='5070'>0.32382E+02</wgt>
<wgt id='4000'>0.32862E+02</wgt>
<wgt id='4001'>0.32836E+02</wgt>
<wgt id='4002'>0.32917E+02</wgt>
<wgt id='4003'>0.32275E+02</wgt>
<wgt id='4004'>0.33119E+02</wgt>
<wgt id='4005'>0.32988E+02</wgt>
<wgt id='4006'>0.32782E+02</wgt>
<wgt id='4007'>0.32584E+02</wgt>
<wgt id='4008'>0.33098E+02</wgt>
<wgt id='4009'>0.32713E+02</wgt>
<wgt id='4010'>0.32964E+02</wgt>
<wgt id='4011'>0.33046E+02</wgt>
<wgt id='4012'>0.32735E+02</wgt>
<wgt id='4013'>0.32342E+02</wgt>
<wgt id='4014'>0.33180E+02</wgt>
<wgt id='4015'>0.33307E+02</wgt>
<wgt id='4016'>0.32586E+02</wgt>
<wgt id='4017'>0.32415E+02</wgt>
<wgt id='4018'>0.33392E+02</wgt>
<wgt id='4019'>0.32972E+02</wgt>
<wgt id='4020'>0.32723E+02</wgt>
<wgt id='4021'>0.32850E+02</wgt>
<wgt id='4022'>0.32866E+02</wgt>
<wgt id='4023'>0.32911E+02</wgt>
<wgt id='4024'>0.32794E+02</wgt>
<wgt id='4025'>0.32909E+02</wgt>
<wgt id='4026'>0.32812E+02</wgt>
<wgt id='4027'>0.32893E+02</wgt>
<wgt id='4028'>0.32812E+02</wgt>
<wgt id='4029'>0.32831E+02</wgt>
<wgt id='4030'>0.32872E+02</wgt>
<wgt id='4031'>0.32898E+02</wgt>
<wgt id='4032'>0.32814E+02</wgt>
<wgt id='4033'>0.32821E+02</wgt>
<wgt id='4034'>0.32956E+02</wgt>
<wgt id='4035'>0.32782E+02</wgt>
<wgt id='4036'>0.32938E+02</wgt>
<wgt id='4037'>0.32808E+02</wgt>
<wgt id='4038'>0.32891E+02</wgt>
<wgt id='4039'>0.32719E+02</wgt>
<wgt id='4040'>0.32959E+02</wgt>
<wgt id='4041'>0.32838E+02</wgt>
<wgt id='4042'>0.32887E+02</wgt>
<wgt id='4043'>0.32515E+02</wgt>
<wgt id='4044'>0.33228E+02</wgt>
<wgt id='4045'>0.32849E+02</wgt>
<wgt id='4046'>0.32873E+02</wgt>
<wgt id='4047'>0.32972E+02</wgt>
<wgt id='4048'>0.32502E+02</wgt>
<wgt id='4049'>0.32489E+02</wgt>
<wgt id='4050'>0.33122E+02</wgt>
<wgt id='4051'>0.32838E+02</wgt>
<wgt id='4052'>0.32855E+02</wgt>
<wgt id='4053'>0.31821E+02</wgt>
<wgt id='4054'>0.32619E+02</wgt>
<wgt id='4055'>0.32800E+02</wgt>
<wgt id='4056'>0.33068E+02</wgt>
<wgt id='4060'>0.31605E+02</wgt>
<wgt id='4070'>0.34167E+02</wgt>
<wgt id='4080'>0.36946E+02</wgt>
<wgt id='6000'>0.32829E+02</wgt>
<wgt id='6001'>0.32883E+02</wgt>
<wgt id='6002'>0.32769E+02</wgt>
<wgt id='6003'>0.32848E+02</wgt>
<wgt id='6004'>0.32816E+02</wgt>
<wgt id='6005'>0.32852E+02</wgt>
<wgt id='6006'>0.32809E+02</wgt>
<wgt id='6007'>0.32748E+02</wgt>
<wgt id='6008'>0.32922E+02</wgt>
<wgt id='6009'>0.32983E+02</wgt>
<wgt id='6010'>0.32680E+02</wgt>
<wgt id='6011'>0.32906E+02</wgt>
<wgt id='6012'>0.32667E+02</wgt>
<wgt id='6013'>0.32789E+02</wgt>
<wgt id='6014'>0.32903E+02</wgt>
<wgt id='6015'>0.32756E+02</wgt>
<wgt id='6016'>0.32870E+02</wgt>
<wgt id='6017'>0.32624E+02</wgt>
<wgt id='6018'>0.33072E+02</wgt>
<wgt id='6019'>0.32813E+02</wgt>
<wgt id='6020'>0.32842E+02</wgt>
<wgt id='6021'>0.32763E+02</wgt>
<wgt id='6022'>0.32920E+02</wgt>
<wgt id='6023'>0.32604E+02</wgt>
<wgt id='6024'>0.32989E+02</wgt>
<wgt id='6025'>0.32988E+02</wgt>
<wgt id='6026'>0.32541E+02</wgt>
<wgt id='6027'>0.32915E+02</wgt>
<wgt id='6028'>0.32831E+02</wgt>
<wgt id='6029'>0.32816E+02</wgt>
<wgt id='6030'>0.32841E+02</wgt>
<wgt id='6031'>0.32679E+02</wgt>
<wgt id='6032'>0.32980E+02</wgt>
<wgt id='6033'>0.32929E+02</wgt>
<wgt id='6034'>0.32727E+02</wgt>
<wgt id='6035'>0.32867E+02</wgt>
<wgt id='6036'>0.32799E+02</wgt>
<wgt id='6037'>0.32884E+02</wgt>
<wgt id='6038'>0.32829E+02</wgt>
<wgt id='6039'>0.32756E+02</wgt>
<wgt id='6040'>0.32911E+02</wgt>
<wgt id='6041'>0.32731E+02</wgt>
<wgt id='6042'>0.32947E+02</wgt>
<wgt id='6043'>0.33260E+02</wgt>
<wgt id='6044'>0.32701E+02</wgt>
<wgt id='6045'>0.32797E+02</wgt>
<wgt id='6046'>0.32915E+02</wgt>
<wgt id='6047'>0.33047E+02</wgt>
<wgt id='6048'>0.32614E+02</wgt>
<wgt id='6049'>0.32913E+02</wgt>
<wgt id='6050'>0.32789E+02</wgt>
<wgt id='7000'>0.30721E+02</wgt>
<wgt id='7001'>0.30765E+02</wgt>
<wgt id='7002'>0.30665E+02</wgt>
<wgt id='7003'>0.30791E+02</wgt>
<wgt id='7004'>0.30652E+02</wgt>
<wgt id='7005'>0.30762E+02</wgt>
<wgt id='7006'>0.30704E+02</wgt>
<wgt id='7007'>0.30622E+02</wgt>
<wgt id='7008'>0.30821E+02</wgt>
<wgt id='7009'>0.30791E+02</wgt>
<wgt id='7010'>0.30652E+02</wgt>
<wgt id='7011'>0.30401E+02</wgt>
<wgt id='7012'>0.30859E+02</wgt>
<wgt id='7013'>0.30715E+02</wgt>
<wgt id='7014'>0.30729E+02</wgt>
<wgt id='7015'>0.30626E+02</wgt>
<wgt id='7016'>0.30822E+02</wgt>
<wgt id='7017'>0.30449E+02</wgt>
<wgt id='7018'>0.30867E+02</wgt>
<wgt id='7019'>0.30696E+02</wgt>
<wgt id='7020'>0.30758E+02</wgt>
<wgt id='7021'>0.30723E+02</wgt>
<wgt id='7022'>0.30718E+02</wgt>
<wgt id='7023'>0.30794E+02</wgt>
<wgt id='7024'>0.30622E+02</wgt>
<wgt id='7025'>0.30777E+02</wgt>
<wgt id='7026'>0.30584E+02</wgt>
<wgt id='7027'>0.30805E+02</wgt>
<wgt id='7028'>0.30719E+02</wgt>
<wgt id='7029'>0.30748E+02</wgt>
<wgt id='7030'>0.30613E+02</wgt>
<wgt id='7031'>0.30653E+02</wgt>
<wgt id='7032'>0.30863E+02</wgt>
<wgt id='7033'>0.30739E+02</wgt>
<wgt id='7034'>0.30713E+02</wgt>
<wgt id='7035'>0.30651E+02</wgt>
<wgt id='7036'>0.30773E+02</wgt>
<wgt id='7037'>0.30725E+02</wgt>
<wgt id='7038'>0.30757E+02</wgt>
<wgt id='7039'>0.30632E+02</wgt>
<wgt id='7040'>0.30785E+02</wgt>
<wgt id='7041'>0.30723E+02</wgt>
<wgt id='7042'>0.30730E+02</wgt>
<wgt id='7043'>0.30741E+02</wgt>
<wgt id='7044'>0.30603E+02</wgt>
<wgt id='7045'>0.30507E+02</wgt>
<wgt id='7046'>0.30938E+02</wgt>
<wgt id='7047'>0.30843E+02</wgt>
<wgt id='7048'>0.30678E+02</wgt>
<wgt id='7049'>0.30676E+02</wgt>
<wgt id='7050'>0.30830E+02</wgt>
<wgt id='7060'>0.53140E+02</wgt>
<wgt id='8000'>0.31592E+02</wgt>
<wgt id='8001'>0.31584E+02</wgt>
<wgt id='8002'>0.31601E+02</wgt>
<wgt id='8003'>0.31593E+02</wgt>
<wgt id='8004'>0.31591E+02</wgt>
<wgt id='8005'>0.31519E+02</wgt>
<wgt id='8006'>0.31590E+02</wgt>
<wgt id='8007'>0.31578E+02</wgt>
<wgt id='8008'>0.31651E+02</wgt>
<wgt id='8009'>0.31714E+02</wgt>
<wgt id='8010'>0.31586E+02</wgt>
<wgt id='8011'>0.31585E+02</wgt>
<wgt id='8012'>0.31540E+02</wgt>
<wgt id='8013'>0.31566E+02</wgt>
<wgt id='8014'>0.31610E+02</wgt>
<wgt id='8015'>0.31565E+02</wgt>
<wgt id='8016'>0.31619E+02</wgt>
<wgt id='8017'>0.31610E+02</wgt>
<wgt id='8018'>0.31636E+02</wgt>
<wgt id='8019'>0.31591E+02</wgt>
<wgt id='8020'>0.31584E+02</wgt>
<wgt id='8021'>0.31574E+02</wgt>
<wgt id='8022'>0.31580E+02</wgt>
<wgt id='8023'>0.31560E+02</wgt>
<wgt id='8024'>0.31535E+02</wgt>
<wgt id='8025'>0.31583E+02</wgt>
<wgt id='8026'>0.31628E+02</wgt>
<wgt id='8027'>0.31585E+02</wgt>
<wgt id='8028'>0.31620E+02</wgt>
<wgt id='8029'>0.31567E+02</wgt>
<wgt id='8500'>0.32904E+02</wgt>
<wgt id='8501'>0.32709E+02</wgt>
<wgt id='8502'>0.32815E+02</wgt>
<wgt id='8503'>0.32947E+02</wgt>
<wgt id='8504'>0.32841E+02</wgt>
<wgt id='8505'>0.33035E+02</wgt>
<wgt id='8506'>0.32904E+02</wgt>
<wgt id='8507'>0.32961E+02</wgt>
<wgt id='8508'>0.32753E+02</wgt>
<wgt id='8509'>0.33013E+02</wgt>
<wgt id='8510'>0.33093E+02</wgt>
<wgt id='8511'>0.32875E+02</wgt>
<wgt id='8512'>0.32934E+02</wgt>
<wgt id='8513'>0.32893E+02</wgt>
<wgt id='8514'>0.32633E+02</wgt>
<wgt id='8515'>0.33065E+02</wgt>
<wgt id='8516'>0.32861E+02</wgt>
<wgt id='8517'>0.32804E+02</wgt>
<wgt id='8518'>0.32707E+02</wgt>
<wgt id='8519'>0.32638E+02</wgt>
<wgt id='8520'>0.32845E+02</wgt>
<wgt id='8521'>0.32779E+02</wgt>
<wgt id='8522'>0.32999E+02</wgt>
<wgt id='8523'>0.32770E+02</wgt>
<wgt id='8524'>0.32963E+02</wgt>
<wgt id='8525'>0.32923E+02</wgt>
<wgt id='8526'>0.32831E+02</wgt>
<wgt id='8527'>0.32906E+02</wgt>
<wgt id='8528'>0.32826E+02</wgt>
<wgt id='8529'>0.32888E+02</wgt>
<wgt id='8530'>0.32907E+02</wgt>
<wgt id='8531'>0.32895E+02</wgt>
<wgt id='8532'>0.32907E+02</wgt>
<wgt id='8533'>0.32830E+02</wgt>
<wgt id='8534'>0.32907E+02</wgt>
<wgt id='8535'>0.32977E+02</wgt>
<wgt id='8536'>0.32867E+02</wgt>
<wgt id='8537'>0.32909E+02</wgt>
<wgt id='8538'>0.32875E+02</wgt>
<wgt id='8539'>0.32911E+02</wgt>
<wgt id='8540'>0.32902E+02</wgt>
<wgt id='8541'>0.32920E+02</wgt>
<wgt id='8542'>0.32915E+02</wgt>
<wgt id='8543'>0.32883E+02</wgt>
<wgt id='8544'>0.32931E+02</wgt>
<wgt id='8545'>0.32926E+02</wgt>
<wgt id='8546'>0.32944E+02</wgt>
<wgt id='8547'>0.32878E+02</wgt>
<wgt id='8548'>0.32874E+02</wgt>
<wgt id='8549'>0.32915E+02</wgt>
<wgt id='8550'>0.32898E+02</wgt>
<wgt id='8551'>0.32886E+02</wgt>
<wgt id='8552'>0.32900E+02</wgt>
<wgt id='8553'>0.32880E+02</wgt>
<wgt id='8554'>0.32895E+02</wgt>
<wgt id='8555'>0.32903E+02</wgt>
<wgt id='8556'>0.32899E+02</wgt>
<wgt id='8557'>0.32903E+02</wgt>
<wgt id='8558'>0.32937E+02</wgt>
<wgt id='8559'>0.32891E+02</wgt>
<wgt id='8560'>0.32869E+02</wgt>
<wgt id='8561'>0.32906E+02</wgt>
<wgt id='8562'>0.32879E+02</wgt>
<wgt id='8563'>0.32906E+02</wgt>
<wgt id='8564'>0.32892E+02</wgt>
<wgt id='8565'>0.32905E+02</wgt>
<wgt id='8566'>0.32906E+02</wgt>
<wgt id='8567'>0.32902E+02</wgt>
<wgt id='8568'>0.32919E+02</wgt>
<wgt id='8569'>0.32915E+02</wgt>
<wgt id='8570'>0.32902E+02</wgt>
<wgt id='8571'>0.32885E+02</wgt>
<wgt id='8572'>0.32887E+02</wgt>
<wgt id='8573'>0.32885E+02</wgt>
<wgt id='8574'>0.32908E+02</wgt>
<wgt id='8575'>0.32900E+02</wgt>
<wgt id='8576'>0.32899E+02</wgt>
<wgt id='8577'>0.32895E+02</wgt>
<wgt id='8578'>0.32907E+02</wgt>
<wgt id='8579'>0.32924E+02</wgt>
<wgt id='8580'>0.32900E+02</wgt>
<wgt id='8581'>0.32911E+02</wgt>
<wgt id='8582'>0.32883E+02</wgt>
<wgt id='8583'>0.32920E+02</wgt>
<wgt id='8584'>0.32917E+02</wgt>
<wgt id='8585'>0.32915E+02</wgt>
<wgt id='8586'>0.32928E+02</wgt>
<wgt id='8587'>0.32905E+02</wgt>
<wgt id='8588'>0.32898E+02</wgt>
<wgt id='8589'>0.32904E+02</wgt>
<wgt id='8590'>0.32902E+02</wgt>
<wgt id='8591'>0.32896E+02</wgt>
<wgt id='8592'>0.32903E+02</wgt>
<wgt id='8593'>0.32890E+02</wgt>
<wgt id='8594'>0.32905E+02</wgt>
<wgt id='8595'>0.32907E+02</wgt>
<wgt id='8596'>0.32894E+02</wgt>
<wgt id='8597'>0.32911E+02</wgt>
<wgt id='8598'>0.32913E+02</wgt>
<wgt id='8599'>0.32910E+02</wgt>
<wgt id='8600'>0.32904E+02</wgt>
<wgt id='8601'>0.32085E+02</wgt>
<wgt id='8602'>0.33734E+02</wgt>
<wgt id='9000'>0.30979E+02</wgt>
<wgt id='9001'>0.31004E+02</wgt>
<wgt id='9002'>0.30951E+02</wgt>
<wgt id='9003'>0.30996E+02</wgt>
<wgt id='9004'>0.31032E+02</wgt>
<wgt id='9005'>0.30944E+02</wgt>
<wgt id='9006'>0.31150E+02</wgt>
<wgt id='9007'>0.31193E+02</wgt>
<wgt id='9008'>0.31061E+02</wgt>
<wgt id='9009'>0.30958E+02</wgt>
<wgt id='9010'>0.30927E+02</wgt>
<wgt id='9011'>0.31114E+02</wgt>
<wgt id='9012'>0.30954E+02</wgt>
<wgt id='9013'>0.30956E+02</wgt>
<wgt id='9014'>0.31001E+02</wgt>
<wgt id='9015'>0.30886E+02</wgt>
<wgt id='9016'>0.31164E+02</wgt>
<wgt id='9017'>0.30788E+02</wgt>
<wgt id='9018'>0.31011E+02</wgt>
<wgt id='9019'>0.31043E+02</wgt>
<wgt id='9020'>0.31262E+02</wgt>
<wgt id='9021'>0.30962E+02</wgt>
<wgt id='9022'>0.31033E+02</wgt>
<wgt id='9023'>0.30808E+02</wgt>
<wgt id='9024'>0.30865E+02</wgt>
<wgt id='9025'>0.31076E+02</wgt>
<wgt id='9026'>0.30965E+02</wgt>
<wgt id='9027'>0.30963E+02</wgt>
<wgt id='9028'>0.31030E+02</wgt>
<wgt id='9029'>0.30992E+02</wgt>
<wgt id='9030'>0.30992E+02</wgt>
<wgt id='9031'>0.30974E+02</wgt>
<wgt id='9032'>0.31003E+02</wgt>
<wgt id='9033'>0.31019E+02</wgt>
<wgt id='9034'>0.30980E+02</wgt>
<wgt id='9035'>0.31021E+02</wgt>
<wgt id='9036'>0.30991E+02</wgt>
<wgt id='9037'>0.31010E+02</wgt>
<wgt id='9038'>0.30996E+02</wgt>
<wgt id='9039'>0.30988E+02</wgt>
<wgt id='9040'>0.30943E+02</wgt>
<wgt id='9041'>0.30974E+02</wgt>
<wgt id='9042'>0.30992E+02</wgt>
<wgt id='9043'>0.30952E+02</wgt>
<wgt id='9044'>0.30986E+02</wgt>
<wgt id='9045'>0.30990E+02</wgt>
<wgt id='9046'>0.30942E+02</wgt>
<wgt id='9047'>0.30979E+02</wgt>
<wgt id='9048'>0.30997E+02</wgt>
<wgt id='9049'>0.30962E+02</wgt>
<wgt id='9050'>0.30982E+02</wgt>
<wgt id='9051'>0.30997E+02</wgt>
<wgt id='9052'>0.31000E+02</wgt>
<wgt id='9053'>0.30982E+02</wgt>
<wgt id='9054'>0.30963E+02</wgt>
<wgt id='9055'>0.30963E+02</wgt>
<wgt id='9056'>0.30996E+02</wgt>
<wgt id='9057'>0.30977E+02</wgt>
<wgt id='9058'>0.30957E+02</wgt>
<wgt id='9059'>0.30965E+02</wgt>
<wgt id='9060'>0.30969E+02</wgt>
<wgt id='9061'>0.30980E+02</wgt>
<wgt id='9062'>0.30983E+02</wgt>
<wgt id='9063'>0.30988E+02</wgt>
<wgt id='9064'>0.30981E+02</wgt>
<wgt id='9065'>0.30975E+02</wgt>
<wgt id='9066'>0.30977E+02</wgt>
<wgt id='9067'>0.30989E+02</wgt>
<wgt id='9068'>0.30983E+02</wgt>
<wgt id='9069'>0.31002E+02</wgt>
<wgt id='9070'>0.30973E+02</wgt>
<wgt id='9071'>0.31000E+02</wgt>
<wgt id='9072'>0.31000E+02</wgt>
<wgt id='9073'>0.30972E+02</wgt>
<wgt id='9074'>0.30983E+02</wgt>
<wgt id='9075'>0.30974E+02</wgt>
<wgt id='9076'>0.30980E+02</wgt>
<wgt id='9077'>0.30988E+02</wgt>
<wgt id='9078'>0.30985E+02</wgt>
<wgt id='9079'>0.30976E+02</wgt>
<wgt id='9080'>0.31003E+02</wgt>
<wgt id='9081'>0.30981E+02</wgt>
<wgt id='9082'>0.30988E+02</wgt>
<wgt id='9083'>0.30971E+02</wgt>
<wgt id='9084'>0.30969E+02</wgt>
<wgt id='9085'>0.30968E+02</wgt>
<wgt id='9086'>0.30987E+02</wgt>
<wgt id='9087'>0.30954E+02</wgt>
<wgt id='9088'>0.30968E+02</wgt>
<wgt id='9089'>0.30969E+02</wgt>
<wgt id='9090'>0.30984E+02</wgt>
<wgt id='9091'>0.30974E+02</wgt>
<wgt id='9092'>0.30977E+02</wgt>
<wgt id='9093'>0.30972E+02</wgt>
<wgt id='9094'>0.30973E+02</wgt>
<wgt id='9095'>0.30983E+02</wgt>
<wgt id='9096'>0.30974E+02</wgt>
<wgt id='9097'>0.30982E+02</wgt>
<wgt id='9098'>0.30978E+02</wgt>
<wgt id='9099'>0.30973E+02</wgt>
<wgt id='9100'>0.30980E+02</wgt>
<wgt id='9101'>0.30290E+02</wgt>
<wgt id='9102'>0.31736E+02</wgt>
<wgt id='10000'>0.32985E+02</wgt>
<wgt id='10001'>0.33047E+02</wgt>
<wgt id='10002'>0.32768E+02</wgt>
<wgt id='10003'>0.32967E+02</wgt>
<wgt id='10004'>0.32798E+02</wgt>
<wgt id='10005'>0.33045E+02</wgt>
<wgt id='10006'>0.32848E+02</wgt>
<wgt id='10007'>0.32978E+02</wgt>
<wgt id='10008'>0.33014E+02</wgt>
<wgt id='10009'>0.32910E+02</wgt>
<wgt id='10010'>0.33030E+02</wgt>
<wgt id='10011'>0.32909E+02</wgt>
<wgt id='10012'>0.32872E+02</wgt>
<wgt id='10013'>0.32989E+02</wgt>
<wgt id='10014'>0.32974E+02</wgt>
<wgt id='10015'>0.33039E+02</wgt>
<wgt id='10016'>0.32927E+02</wgt>
<wgt id='10017'>0.32785E+02</wgt>
<wgt id='10018'>0.33061E+02</wgt>
<wgt id='10019'>0.32841E+02</wgt>
<wgt id='10020'>0.32896E+02</wgt>
<wgt id='10021'>0.32948E+02</wgt>
<wgt id='10022'>0.32933E+02</wgt>
<wgt id='10023'>0.33005E+02</wgt>
<wgt id='10024'>0.32952E+02</wgt>
<wgt id='10025'>0.32968E+02</wgt>
<wgt id='10026'>0.33122E+02</wgt>
<wgt id='10027'>0.33062E+02</wgt>
<wgt id='10028'>0.33425E+02</wgt>
<wgt id='10029'>0.33007E+02</wgt>
<wgt id='10030'>0.32970E+02</wgt>
<wgt id='10031'>0.32085E+02</wgt>
<wgt id='10032'>0.33734E+02</wgt>
<wgt id='11000'>0.31055E+02</wgt>
<wgt id='11001'>0.30634E+02</wgt>
<wgt id='11002'>0.31031E+02</wgt>
<wgt id='11003'>0.31036E+02</wgt>
<wgt id='11004'>0.30971E+02</wgt>
<wgt id='11005'>0.30992E+02</wgt>
<wgt id='11006'>0.31062E+02</wgt>
<wgt id='11007'>0.31035E+02</wgt>
<wgt id='11008'>0.31001E+02</wgt>
<wgt id='11009'>0.31031E+02</wgt>
<wgt id='11010'>0.31398E+02</wgt>
<wgt id='11011'>0.31016E+02</wgt>
<wgt id='11012'>0.31044E+02</wgt>
<wgt id='11013'>0.31078E+02</wgt>
<wgt id='11014'>0.31034E+02</wgt>
<wgt id='11015'>0.31029E+02</wgt>
<wgt id='11016'>0.31062E+02</wgt>
<wgt id='11017'>0.31108E+02</wgt>
<wgt id='11018'>0.31052E+02</wgt>
<wgt id='11019'>0.31065E+02</wgt>
<wgt id='11020'>0.31068E+02</wgt>
<wgt id='11021'>0.31075E+02</wgt>
<wgt id='11022'>0.31148E+02</wgt>
<wgt id='11023'>0.31058E+02</wgt>
<wgt id='11024'>0.31046E+02</wgt>
<wgt id='11025'>0.31044E+02</wgt>
<wgt id='11026'>0.31057E+02</wgt>
<wgt id='11027'>0.31068E+02</wgt>
<wgt id='11028'>0.31056E+02</wgt>
<wgt id='11029'>0.30988E+02</wgt>
<wgt id='11030'>0.31050E+02</wgt>
<wgt id='11031'>0.30290E+02</wgt>
<wgt id='11032'>0.31736E+02</wgt>
<wgt id='12000'>0.32587E+02</wgt>
<wgt id='12001'>0.32548E+02</wgt>
<wgt id='12002'>0.32626E+02</wgt>
<wgt id='12003'>0.32665E+02</wgt>
<wgt id='12004'>0.32510E+02</wgt>
<wgt id='12005'>0.32617E+02</wgt>
<wgt id='12006'>0.32558E+02</wgt>
<wgt id='12007'>0.32659E+02</wgt>
<wgt id='12008'>0.32517E+02</wgt>
<wgt id='12009'>0.32596E+02</wgt>
<wgt id='12010'>0.32580E+02</wgt>
<wgt id='12011'>0.32411E+02</wgt>
<wgt id='12012'>0.32760E+02</wgt>
<wgt id='12013'>0.32511E+02</wgt>
<wgt id='12014'>0.32663E+02</wgt>
<wgt id='12015'>0.32692E+02</wgt>
<wgt id='12016'>0.32507E+02</wgt>
<wgt id='12017'>0.32692E+02</wgt>
<wgt id='12018'>0.32469E+02</wgt>
<wgt id='12019'>0.32659E+02</wgt>
<wgt id='12020'>0.32519E+02</wgt>
<wgt id='12021'>0.32656E+02</wgt>
<wgt id='12022'>0.32492E+02</wgt>
<wgt id='12023'>0.32301E+02</wgt>
<wgt id='12024'>0.32758E+02</wgt>
<wgt id='12025'>0.32444E+02</wgt>
<wgt id='12026'>0.32768E+02</wgt>
<wgt id='12027'>0.32906E+02</wgt>
<wgt id='12028'>0.32310E+02</wgt>
<wgt id='12050'>0.32587E+02</wgt>
<wgt id='12051'>0.32642E+02</wgt>
<wgt id='12052'>0.32483E+02</wgt>
<wgt id='12053'>0.32637E+02</wgt>
<wgt id='12054'>0.32519E+02</wgt>
<wgt id='12055'>0.32613E+02</wgt>
<wgt id='12056'>0.32821E+02</wgt>
<wgt id='12057'>0.32549E+02</wgt>
<wgt id='12058'>0.32642E+02</wgt>
<wgt id='12059'>0.32641E+02</wgt>
<wgt id='12060'>0.32553E+02</wgt>
<wgt id='12061'>0.32434E+02</wgt>
<wgt id='12062'>0.32668E+02</wgt>
<wgt id='12063'>0.32631E+02</wgt>
<wgt id='13000'>0.31963E+02</wgt>
<wgt id='13001'>0.31939E+02</wgt>
<wgt id='13002'>0.31982E+02</wgt>
<wgt id='13003'>0.32015E+02</wgt>
<wgt id='13004'>0.31906E+02</wgt>
<wgt id='13005'>0.32022E+02</wgt>
<wgt id='13006'>0.31899E+02</wgt>
<wgt id='13007'>0.32076E+02</wgt>
<wgt id='13008'>0.31847E+02</wgt>
<wgt id='13009'>0.31888E+02</wgt>
<wgt id='13010'>0.32033E+02</wgt>
<wgt id='13011'>0.32056E+02</wgt>
<wgt id='13012'>0.31866E+02</wgt>
<wgt id='13013'>0.31903E+02</wgt>
<wgt id='13014'>0.32019E+02</wgt>
<wgt id='13015'>0.32001E+02</wgt>
<wgt id='13016'>0.31950E+02</wgt>
<wgt id='13017'>0.31935E+02</wgt>
<wgt id='13018'>0.31982E+02</wgt>
<wgt id='13019'>0.31971E+02</wgt>
<wgt id='13020'>0.31949E+02</wgt>
<wgt id='13021'>0.31991E+02</wgt>
<wgt id='13022'>0.31895E+02</wgt>
<wgt id='13023'>0.31767E+02</wgt>
<wgt id='13024'>0.32150E+02</wgt>
<wgt id='13025'>0.31618E+02</wgt>
<wgt id='13026'>0.32235E+02</wgt>
<wgt id='13027'>0.31838E+02</wgt>
<wgt id='13028'>0.32119E+02</wgt>
<wgt id='13050'>0.31963E+02</wgt>
<wgt id='13051'>0.31996E+02</wgt>
<wgt id='13052'>0.31786E+02</wgt>
<wgt id='13053'>0.31978E+02</wgt>
<wgt id='13054'>0.31944E+02</wgt>
<wgt id='13055'>0.31418E+02</wgt>
<wgt id='13056'>0.32099E+02</wgt>
<wgt id='13057'>0.31905E+02</wgt>
<wgt id='13058'>0.32084E+02</wgt>
<wgt id='13059'>0.31942E+02</wgt>
<wgt id='13060'>0.31331E+02</wgt>
<wgt id='13061'>0.31903E+02</wgt>
<wgt id='13062'>0.32161E+02</wgt>
<wgt id='13063'>0.32159E+02</wgt>
<wgt id='14000'>0.32746E+02</wgt>
<wgt id='14001'>0.32741E+02</wgt>
<wgt id='14002'>0.32737E+02</wgt>
<wgt id='14003'>0.32732E+02</wgt>
<wgt id='14004'>0.32727E+02</wgt>
<wgt id='14005'>0.32723E+02</wgt>
<wgt id='14006'>0.32718E+02</wgt>
<wgt id='14007'>0.32714E+02</wgt>
<wgt id='14008'>0.32709E+02</wgt>
<wgt id='14009'>0.32704E+02</wgt>
<wgt id='14010'>0.32699E+02</wgt>
<wgt id='14011'>0.32695E+02</wgt>
<wgt id='14012'>0.32690E+02</wgt>
<wgt id='14013'>0.32686E+02</wgt>
<wgt id='14014'>0.32681E+02</wgt>
<wgt id='14015'>0.32676E+02</wgt>
<wgt id='14016'>0.32672E+02</wgt>
<wgt id='14017'>0.32667E+02</wgt>
<wgt id='14018'>0.32663E+02</wgt>
<wgt id='14019'>0.32657E+02</wgt>
<wgt id='14020'>0.32653E+02</wgt>
<wgt id='14021'>0.32648E+02</wgt>
<wgt id='14022'>0.32644E+02</wgt>
<wgt id='14023'>0.32639E+02</wgt>
<wgt id='14024'>0.32634E+02</wgt>
<wgt id='14025'>0.32629E+02</wgt>
<wgt id='14026'>0.32625E+02</wgt>
<wgt id='14027'>0.32620E+02</wgt>
<wgt id='14028'>0.32615E+02</wgt>
<wgt id='14029'>0.32611E+02</wgt>
<wgt id='14030'>0.32606E+02</wgt>
<wgt id='15000'>0.30756E+02</wgt>
<wgt id='15001'>0.30790E+02</wgt>
<wgt id='15002'>0.30728E+02</wgt>
<wgt id='15003'>0.30774E+02</wgt>
<wgt id='15004'>0.30810E+02</wgt>
<wgt id='15005'>0.30724E+02</wgt>
<wgt id='15006'>0.30917E+02</wgt>
<wgt id='15007'>0.30958E+02</wgt>
<wgt id='15008'>0.30835E+02</wgt>
<wgt id='15009'>0.30735E+02</wgt>
<wgt id='15010'>0.30708E+02</wgt>
<wgt id='15011'>0.30881E+02</wgt>
<wgt id='15012'>0.30723E+02</wgt>
<wgt id='15013'>0.30728E+02</wgt>
<wgt id='15014'>0.30772E+02</wgt>
<wgt id='15015'>0.30672E+02</wgt>
<wgt id='15016'>0.30929E+02</wgt>
<wgt id='15017'>0.30573E+02</wgt>
<wgt id='15018'>0.30789E+02</wgt>
<wgt id='15019'>0.30813E+02</wgt>
<wgt id='15020'>0.31029E+02</wgt>
<wgt id='15021'>0.30737E+02</wgt>
<wgt id='15022'>0.30811E+02</wgt>
<wgt id='15023'>0.30581E+02</wgt>
<wgt id='15024'>0.30645E+02</wgt>
<wgt id='15025'>0.30859E+02</wgt>
<wgt id='15026'>0.30747E+02</wgt>
<wgt id='15027'>0.30731E+02</wgt>
<wgt id='15028'>0.30803E+02</wgt>
<wgt id='15029'>0.30773E+02</wgt>
<wgt id='15030'>0.30770E+02</wgt>
<wgt id='15031'>0.30743E+02</wgt>
<wgt id='15032'>0.30782E+02</wgt>
<wgt id='15033'>0.30798E+02</wgt>
<wgt id='15034'>0.30756E+02</wgt>
<wgt id='15035'>0.30800E+02</wgt>
<wgt id='15036'>0.30767E+02</wgt>
<wgt id='15037'>0.30787E+02</wgt>
<wgt id='15038'>0.30774E+02</wgt>
<wgt id='15039'>0.30768E+02</wgt>
<wgt id='15040'>0.30719E+02</wgt>
<wgt id='15041'>0.30750E+02</wgt>
<wgt id='15042'>0.30768E+02</wgt>
<wgt id='15043'>0.30726E+02</wgt>
<wgt id='15044'>0.30764E+02</wgt>
<wgt id='15045'>0.30765E+02</wgt>
<wgt id='15046'>0.30716E+02</wgt>
<wgt id='15047'>0.30756E+02</wgt>
<wgt id='15048'>0.30772E+02</wgt>
<wgt id='15049'>0.30738E+02</wgt>
<wgt id='15050'>0.30758E+02</wgt>
<wgt id='15051'>0.30774E+02</wgt>
<wgt id='15052'>0.30776E+02</wgt>
<wgt id='15053'>0.30759E+02</wgt>
<wgt id='15054'>0.30739E+02</wgt>
<wgt id='15055'>0.30738E+02</wgt>
<wgt id='15056'>0.30774E+02</wgt>
<wgt id='15057'>0.30753E+02</wgt>
<wgt id='15058'>0.30731E+02</wgt>
<wgt id='15059'>0.30740E+02</wgt>
<wgt id='15060'>0.30744E+02</wgt>
<wgt id='15061'>0.30756E+02</wgt>
<wgt id='15062'>0.30760E+02</wgt>
<wgt id='15063'>0.30766E+02</wgt>
<wgt id='15064'>0.30756E+02</wgt>
<wgt id='15065'>0.30752E+02</wgt>
<wgt id='15066'>0.30753E+02</wgt>
<wgt id='15067'>0.30766E+02</wgt>
<wgt id='15068'>0.30759E+02</wgt>
<wgt id='15069'>0.30779E+02</wgt>
<wgt id='15070'>0.30750E+02</wgt>
<wgt id='15071'>0.30775E+02</wgt>
<wgt id='15072'>0.30777E+02</wgt>
<wgt id='15073'>0.30748E+02</wgt>
<wgt id='15074'>0.30759E+02</wgt>
<wgt id='15075'>0.30750E+02</wgt>
<wgt id='15076'>0.30755E+02</wgt>
<wgt id='15077'>0.30764E+02</wgt>
<wgt id='15078'>0.30761E+02</wgt>
<wgt id='15079'>0.30753E+02</wgt>
<wgt id='15080'>0.30780E+02</wgt>
<wgt id='15081'>0.30756E+02</wgt>
<wgt id='15082'>0.30764E+02</wgt>
<wgt id='15083'>0.30747E+02</wgt>
<wgt id='15084'>0.30746E+02</wgt>
<wgt id='15085'>0.30745E+02</wgt>
<wgt id='15086'>0.30761E+02</wgt>
<wgt id='15087'>0.30731E+02</wgt>
<wgt id='15088'>0.30745E+02</wgt>
<wgt id='15089'>0.30746E+02</wgt>
<wgt id='15090'>0.30760E+02</wgt>
<wgt id='15091'>0.30752E+02</wgt>
<wgt id='15092'>0.30754E+02</wgt>
<wgt id='15093'>0.30748E+02</wgt>
<wgt id='15094'>0.30751E+02</wgt>
<wgt id='15095'>0.30759E+02</wgt>
<wgt id='15096'>0.30749E+02</wgt>
<wgt id='15097'>0.30758E+02</wgt>
<wgt id='15098'>0.30755E+02</wgt>
<wgt id='15099'>0.30748E+02</wgt>
<wgt id='15100'>0.30756E+02</wgt>
<wgt id='15101'>0.30755E+02</wgt>
<wgt id='15102'>0.30753E+02</wgt>
<wgt id='15103'>0.30756E+02</wgt>
<wgt id='15104'>0.30756E+02</wgt>
<wgt id='15105'>0.30757E+02</wgt>
<wgt id='15106'>0.30756E+02</wgt>
<wgt id='15107'>0.30754E+02</wgt>
<wgt id='1500'>0.33226E+02</wgt>
<wgt id='1501'>0.32003E+02</wgt>
<wgt id='1502'>0.33264E+02</wgt>
<wgt id='1503'>0.34161E+02</wgt>
<wgt id='1504'>0.32272E+02</wgt>
<wgt id='1505'>0.32092E+02</wgt>
<wgt id='1506'>0.33667E+02</wgt>
<wgt id='1507'>0.33086E+02</wgt>
<wgt id='1508'>0.33146E+02</wgt>
<wgt id='1509'>0.33799E+02</wgt>
<wgt id='1510'>0.33541E+02</wgt>
<wgt id='1511'>0.32684E+02</wgt>
<wgt id='1512'>0.33495E+02</wgt>
<wgt id='1513'>0.32792E+02</wgt>
<wgt id='1514'>0.33954E+02</wgt>
<wgt id='1515'>0.33887E+02</wgt>
<wgt id='1516'>0.33401E+02</wgt>
<wgt id='1517'>0.33636E+02</wgt>
<wgt id='1518'>0.33239E+02</wgt>
<wgt id='1519'>0.33260E+02</wgt>
<wgt id='1520'>0.34103E+02</wgt>
<wgt id='1521'>0.33621E+02</wgt>
<wgt id='1522'>0.33163E+02</wgt>
<wgt id='1523'>0.34377E+02</wgt>
<wgt id='1524'>0.33481E+02</wgt>
<wgt id='1525'>0.32952E+02</wgt>
<wgt id='1526'>0.33043E+02</wgt>
<wgt id='1527'>0.33126E+02</wgt>
<wgt id='1528'>0.33352E+02</wgt>
<wgt id='1529'>0.33916E+02</wgt>
<wgt id='1530'>0.33969E+02</wgt>
<wgt id='1531'>0.33120E+02</wgt>
<wgt id='1532'>0.32841E+02</wgt>
<wgt id='1533'>0.32550E+02</wgt>
<wgt id='1534'>0.33423E+02</wgt>
<wgt id='1535'>0.34063E+02</wgt>
<wgt id='1536'>0.32648E+02</wgt>
<wgt id='1537'>0.33786E+02</wgt>
<wgt id='1538'>0.32650E+02</wgt>
<wgt id='1539'>0.32611E+02</wgt>
<wgt id='1540'>0.32869E+02</wgt>
<wgt id='1541'>0.33014E+02</wgt>
<wgt id='1542'>0.33001E+02</wgt>
<wgt id='1543'>0.32975E+02</wgt>
<wgt id='1544'>0.33602E+02</wgt>
<wgt id='1545'>0.33712E+02</wgt>
<wgt id='1546'>0.33463E+02</wgt>
<wgt id='1547'>0.32903E+02</wgt>
<wgt id='1548'>0.33089E+02</wgt>
<wgt id='1549'>0.33062E+02</wgt>
<wgt id='1550'>0.32951E+02</wgt>
<wgt id='1551'>0.33142E+02</wgt>
<wgt id='1552'>0.33024E+02</wgt>
<wgt id='1553'>0.33798E+02</wgt>
<wgt id='1554'>0.32676E+02</wgt>
<wgt id='1555'>0.32733E+02</wgt>
<wgt id='1556'>0.33432E+02</wgt>
<wgt id='1557'>0.32773E+02</wgt>
<wgt id='1558'>0.33074E+02</wgt>
<wgt id='1559'>0.34227E+02</wgt>
<wgt id='1560'>0.32962E+02</wgt>
<wgt id='1561'>0.32898E+02</wgt>
<wgt id='1562'>0.33824E+02</wgt>
<wgt id='1563'>0.32741E+02</wgt>
<wgt id='1564'>0.33291E+02</wgt>
<wgt id='1565'>0.32969E+02</wgt>
<wgt id='1566'>0.33381E+02</wgt>
<wgt id='1567'>0.34903E+02</wgt>
<wgt id='1568'>0.33207E+02</wgt>
<wgt id='1569'>0.32330E+02</wgt>
<wgt id='1570'>0.32704E+02</wgt>
<wgt id='1571'>0.32678E+02</wgt>
<wgt id='1572'>0.33547E+02</wgt>
<wgt id='1573'>0.32019E+02</wgt>
<wgt id='1574'>0.34113E+02</wgt>
<wgt id='1575'>0.32878E+02</wgt>
<wgt id='1576'>0.33172E+02</wgt>
<wgt id='1577'>0.33137E+02</wgt>
<wgt id='1578'>0.33389E+02</wgt>
<wgt id='1579'>0.32729E+02</wgt>
<wgt id='1580'>0.32887E+02</wgt>
<wgt id='1581'>0.33481E+02</wgt>
<wgt id='1582'>0.32515E+02</wgt>
<wgt id='1583'>0.33981E+02</wgt>
<wgt id='1584'>0.33032E+02</wgt>
<wgt id='1585'>0.33263E+02</wgt>
<wgt id='1586'>0.33112E+02</wgt>
<wgt id='1587'>0.33815E+02</wgt>
<wgt id='1588'>0.33022E+02</wgt>
<wgt id='1589'>0.33844E+02</wgt>
<wgt id='1590'>0.33042E+02</wgt>
<wgt id='1591'>0.32756E+02</wgt>
<wgt id='1592'>0.32635E+02</wgt>
<wgt id='1593'>0.33248E+02</wgt>
<wgt id='1594'>0.34124E+02</wgt>
<wgt id='1595'>0.33436E+02</wgt>
<wgt id='1596'>0.33177E+02</wgt>
<wgt id='1597'>0.32940E+02</wgt>
<wgt id='1598'>0.33016E+02</wgt>
<wgt id='1599'>0.33115E+02</wgt>
<wgt id='1600'>0.33453E+02</wgt>
<wgt id='1601'>0.32594E+02</wgt>
<wgt id='1602'>0.33630E+02</wgt>
<wgt id='1700'>0.31304E+02</wgt>
<wgt id='1800'>0.38358E+02</wgt>
<wgt id='1850'>0.48148E+02</wgt>
<wgt id='1900'>0.41259E+02</wgt>
<wgt id='1950'>0.48217E+02</wgt>
</rwgt>
</event>
<event>
      4   9999  3.15120E+01  1.81339E+01 -1.00000E+00  1.66932E-01
      21    -1     0     0   511   501  0.000000000E+00  0.000000000E+00  3.423625305E+01  3.423625305E+01  0.000000000E+00  0.00000E+00  9.000E+00
      21    -1     0     0   501   502  0.000000000E+00  0.000000000E+00 -1.434589507E+02  1.434589507E+02  0.000000000E+00  0.00000E+00  9.000E+00
      25     1     1     2     0     0  1.729619687E+01 -5.447828456E+00 -1.005030150E+02  1.575738189E+02  1.199992297E+02  0.00000E+00  9.000E+00
      21     1     1     2   511   502 -1.729619687E+01  5.447828456E+00 -8.719682716E+00  2.012138484E+01  2.064765462E-07  0.00000E+00  9.000E+00
#rwgt            1           1   26.737212631002066                2        3328           0
<rwgt>
<wgt id='1001'>0.31512E+02</wgt>
<wgt id='1002'>0.35501E+02</wgt>
<wgt id='1003'>0.27281E+02</wgt>
<wgt id='1004'>0.25357E+02</wgt>
<wgt id='1005'>0.28442E+02</wgt>
<wgt id='1006'>0.22059E+02</wgt>
<wgt id='1007'>0.40211E+02</wgt>
<wgt id='1008'>0.45528E+02</wgt>
<wgt id='1009'>0.34616E+02</wgt>
<wgt id='2000'>0.31512E+02</wgt>
<wgt id='2001'>0.31469E+02</wgt>
<wgt id='2002'>0.31644E+02</wgt>
<wgt id='2003'>0.31623E+02</wgt>
<wgt id='2004'>0.31536E+02</wgt>
<wgt id='2005'>0.31447E+02</wgt>
<wgt id='2006'>0.31441E+02</wgt>
<wgt id='2007'>0.31408E+02</wgt>
<wgt id='2008'>0.31495E+02</wgt>
<wgt id='2009'>0.31525E+02</wgt>
<wgt id='2010'>0.31481E+02</wgt>
<wgt id='2011'>0.31667E+02</wgt>
<wgt id='2012'>0.31677E+02</wgt>
<wgt id='2013'>0.31763E+02</wgt>
<wgt id='2014'>0.31614E+02</wgt>
<wgt id='2015'>0.31578E+02</wgt>
<wgt id='2016'>0.31457E+02</wgt>
<wgt id='2017'>0.31508E+02</wgt>
<wgt id='2018'>0.31614E+02</wgt>
<wgt id='2019'>0.31497E+02</wgt>
<wgt id='2020'>0.31602E+02</wgt>
<wgt id='2021'>0.31466E+02</wgt>
<wgt id='2022'>0.31557E+02</wgt>
<wgt id='2023'>0.31546E+02</wgt>
<wgt id='2024'>0.31526E+02</wgt>
<wgt id='2025'>0.31541E+02</wgt>
<wgt id='2026'>0.31521E+02</wgt>
<wgt id='2027'>0.31497E+02</wgt>
<wgt id='2028'>0.31506E+02</wgt>
<wgt id='2029'>0.31537E+02</wgt>
<wgt id='2030'>0.31525E+02</wgt>
<wgt id='2031'>0.31509E+02</wgt>
<wgt id='2032'>0.31527E+02</wgt>
<wgt id='2033'>0.31523E+02</wgt>
<wgt id='2034'>0.31511E+02</wgt>
<wgt id='2035'>0.31507E+02</wgt>
<wgt id='2036'>0.31500E+02</wgt>
<wgt id='2037'>0.31521E+02</wgt>
<wgt id='2038'>0.31505E+02</wgt>
<wgt id='2039'>0.31498E+02</wgt>
<wgt id='2040'>0.31499E+02</wgt>
<wgt id='2041'>0.31500E+02</wgt>
<wgt id='2042'>0.31507E+02</wgt>
<wgt id='2043'>0.31502E+02</wgt>
<wgt id='2044'>0.31521E+02</wgt>
<wgt id='2045'>0.31508E+02</wgt>
<wgt id='2046'>0.31526E+02</wgt>
<wgt id='2047'>0.31518E+02</wgt>
<wgt id='2048'>0.31507E+02</wgt>
<wgt id='2049'>0.31511E+02</wgt>
<wgt id='2050'>0.31519E+02</wgt>
<wgt id='2051'>0.31525E+02</wgt>
<wgt id='2052'>0.31513E+02</wgt>
<wgt id='2053'>0.31518E+02</wgt>
<wgt id='2054'>0.31514E+02</wgt>
<wgt id='2055'>0.31511E+02</wgt>
<wgt id='2056'>0.31513E+02</wgt>
<wgt id='2057'>0.31518E+02</wgt>
<wgt id='2058'>0.31518E+02</wgt>
<wgt id='2059'>0.31508E+02</wgt>
<wgt id='2060'>0.31516E+02</wgt>
<wgt id='2061'>0.31504E+02</wgt>
<wgt id='2062'>0.31507E+02</wgt>
<wgt id='2063'>0.31517E+02</wgt>
<wgt id='2064'>0.31504E+02</wgt>
<wgt id='2065'>0.31511E+02</wgt>
<wgt id='2066'>0.31504E+02</wgt>
<wgt id='2067'>0.31514E+02</wgt>
<wgt id='2068'>0.31514E+02</wgt>
<wgt id='2069'>0.31512E+02</wgt>
<wgt id='2070'>0.31513E+02</wgt>
<wgt id='2071'>0.31502E+02</wgt>
<wgt id='2072'>0.31514E+02</wgt>
<wgt id='2073'>0.31510E+02</wgt>
<wgt id='2074'>0.31509E+02</wgt>
<wgt id='2075'>0.31510E+02</wgt>
<wgt id='2076'>0.31509E+02</wgt>
<wgt id='2077'>0.31510E+02</wgt>
<wgt id='2078'>0.31516E+02</wgt>
<wgt id='2079'>0.31512E+02</wgt>
<wgt id='2080'>0.31510E+02</wgt>
<wgt id='2081'>0.31513E+02</wgt>
<wgt id='2082'>0.31513E+02</wgt>
<wgt id='2083'>0.31510E+02</wgt>
<wgt id='2084'>0.31514E+02</wgt>
<wgt id='2085'>0.31515E+02</wgt>
<wgt id='2086'>0.31507E+02</wgt>
<wgt id='2087'>0.31510E+02</wgt>
<wgt id='2088'>0.31515E+02</wgt>
<wgt id='2089'>0.31511E+02</wgt>
<wgt id='2090'>0.31511E+02</wgt>
<wgt id='2091'>0.31510E+02</wgt>
<wgt id='2092'>0.31511E+02</wgt>
<wgt id='2093'>0.31511E+02</wgt>
<wgt id='2094'>0.31512E+02</wgt>
<wgt id='2095'>0.31514E+02</wgt>
<wgt id='2096'>0.31513E+02</wgt>
<wgt id='2097'>0.31513E+02</wgt>
<wgt id='2098'>0.31511E+02</wgt>
<wgt id='2099'>0.31513E+02</wgt>
<wgt id='2100'>0.31513E+02</wgt>
<wgt id='2101'>0.30625E+02</wgt>
<wgt id='2102'>0.32305E+02</wgt>
<wgt id='2104'>0.27403E+02</wgt>
<wgt id='2105'>0.28130E+02</wgt>
<wgt id='2106'>0.28949E+02</wgt>
<wgt id='2107'>0.29836E+02</wgt>
<wgt id='2108'>0.31146E+02</wgt>
<wgt id='2109'>0.31996E+02</wgt>
<wgt id='2110'>0.33107E+02</wgt>
<wgt id='2111'>0.33941E+02</wgt>
<wgt id='3000'>0.32983E+02</wgt>
<wgt id='3001'>0.33101E+02</wgt>
<wgt id='3002'>0.32846E+02</wgt>
<wgt id='3003'>0.33102E+02</wgt>
<wgt id='3004'>0.33049E+02</wgt>
<wgt id='3005'>0.33122E+02</wgt>
<wgt id='3006'>0.33028E+02</wgt>
<wgt id='3007'>0.33028E+02</wgt>
<wgt id='3008'>0.32890E+02</wgt>
<wgt id='3009'>0.32911E+02</wgt>
<wgt id='3010'>0.32866E+02</wgt>
<wgt id='3011'>0.33066E+02</wgt>
<wgt id='3012'>0.33210E+02</wgt>
<wgt id='3013'>0.32733E+02</wgt>
<wgt id='3014'>0.33097E+02</wgt>
<wgt id='3015'>0.33090E+02</wgt>
<wgt id='3016'>0.33001E+02</wgt>
<wgt id='3017'>0.33108E+02</wgt>
<wgt id='3018'>0.33025E+02</wgt>
<wgt id='3019'>0.32879E+02</wgt>
<wgt id='3020'>0.32948E+02</wgt>
<wgt id='3021'>0.32903E+02</wgt>
<wgt id='3022'>0.32977E+02</wgt>
<wgt id='3023'>0.32943E+02</wgt>
<wgt id='3024'>0.32968E+02</wgt>
<wgt id='3025'>0.32985E+02</wgt>
<wgt id='3026'>0.32997E+02</wgt>
<wgt id='3027'>0.32994E+02</wgt>
<wgt id='3028'>0.32955E+02</wgt>
<wgt id='3029'>0.32990E+02</wgt>
<wgt id='3030'>0.33007E+02</wgt>
<wgt id='3031'>0.32992E+02</wgt>
<wgt id='3032'>0.32980E+02</wgt>
<wgt id='3033'>0.32984E+02</wgt>
<wgt id='3034'>0.32988E+02</wgt>
<wgt id='3035'>0.33002E+02</wgt>
<wgt id='3036'>0.32990E+02</wgt>
<wgt id='3037'>0.32979E+02</wgt>
<wgt id='3038'>0.32983E+02</wgt>
<wgt id='3039'>0.32999E+02</wgt>
<wgt id='3040'>0.32969E+02</wgt>
<wgt id='3041'>0.32978E+02</wgt>
<wgt id='3042'>0.32975E+02</wgt>
<wgt id='3043'>0.32972E+02</wgt>
<wgt id='3044'>0.32993E+02</wgt>
<wgt id='3045'>0.32990E+02</wgt>
<wgt id='3046'>0.32989E+02</wgt>
<wgt id='3047'>0.32983E+02</wgt>
<wgt id='3048'>0.32982E+02</wgt>
<wgt id='3049'>0.32979E+02</wgt>
<wgt id='3050'>0.32976E+02</wgt>
<wgt id='3051'>0.32994E+02</wgt>
<wgt id='3052'>0.32977E+02</wgt>
<wgt id='3053'>0.32978E+02</wgt>
<wgt id='3054'>0.32982E+02</wgt>
<wgt id='3055'>0.32974E+02</wgt>
<wgt id='3056'>0.32986E+02</wgt>
<wgt id='3057'>0.32981E+02</wgt>
<wgt id='3058'>0.32974E+02</wgt>
<wgt id='3059'>0.32983E+02</wgt>
<wgt id='3060'>0.32986E+02</wgt>
<wgt id='3061'>0.32985E+02</wgt>
<wgt id='3062'>0.32990E+02</wgt>
<wgt id='3063'>0.32991E+02</wgt>
<wgt id='3064'>0.32980E+02</wgt>
<wgt id='3065'>0.32981E+02</wgt>
<wgt id='3066'>0.32985E+02</wgt>
<wgt id='3067'>0.32975E+02</wgt>
<wgt id='3068'>0.32985E+02</wgt>
<wgt id='3069'>0.32981E+02</wgt>
<wgt id='3070'>0.32986E+02</wgt>
<wgt id='3071'>0.32980E+02</wgt>
<wgt id='3072'>0.32983E+02</wgt>
<wgt id='3073'>0.32974E+02</wgt>
<wgt id='3074'>0.32988E+02</wgt>
<wgt id='3075'>0.32979E+02</wgt>
<wgt id='3076'>0.32984E+02</wgt>
<wgt id='3077'>0.32986E+02</wgt>
<wgt id='3078'>0.32983E+02</wgt>
<wgt id='3079'>0.32985E+02</wgt>
<wgt id='3080'>0.32977E+02</wgt>
<wgt id='3081'>0.32982E+02</wgt>
<wgt id='3082'>0.32980E+02</wgt>
<wgt id='3083'>0.32986E+02</wgt>
<wgt id='3084'>0.32983E+02</wgt>
<wgt id='3085'>0.32986E+02</wgt>
<wgt id='3086'>0.32985E+02</wgt>
<wgt id='3087'>0.32981E+02</wgt>
<wgt id='3088'>0.32982E+02</wgt>
<wgt id='3089'>0.32983E+02</wgt>
<wgt id='3090'>0.32984E+02</wgt>
<wgt id='3091'>0.32982E+02</wgt>
<wgt id='3092'>0.32982E+02</wgt>
<wgt id='3093'>0.32984E+02</wgt>
<wgt id='3094'>0.32986E+02</wgt>
<wgt id='3095'>0.32982E+02</wgt>
<wgt id='3096'>0.32978E+02</wgt>
<wgt id='3097'>0.32979E+02</wgt>
<wgt id='3098'>0.32980E+02</wgt>
<wgt id='3099'>0.32983E+02</wgt>
<wgt id='3100'>0.32983E+02</wgt>
<wgt id='3101'>0.32077E+02</wgt>
<wgt id='3102'>0.34016E+02</wgt>
<wgt id='5000'>0.30630E+02</wgt>
<wgt id='5001'>0.30507E+02</wgt>
<wgt id='5002'>0.30568E+02</wgt>
<wgt id='5003'>0.30431E+02</wgt>
<wgt id='5004'>0.30696E+02</wgt>
<wgt id='5005'>0.30001E+02</wgt>
<wgt id='5006'>0.31103E+02</wgt>
<wgt id='5007'>0.30794E+02</wgt>
<wgt id='5008'>0.30263E+02</wgt>
<wgt id='5009'>0.31001E+02</wgt>
<wgt id='5010'>0.30434E+02</wgt>
<wgt id='5011'>0.30575E+02</wgt>
<wgt id='5012'>0.30602E+02</wgt>
<wgt id='5013'>0.29980E+02</wgt>
<wgt id='5014'>0.30617E+02</wgt>
<wgt id='5015'>0.30862E+02</wgt>
<wgt id='5016'>0.29912E+02</wgt>
<wgt id='5017'>0.30724E+02</wgt>
<wgt id='5018'>0.30531E+02</wgt>
<wgt id='5019'>0.30475E+02</wgt>
<wgt id='5020'>0.30760E+02</wgt>
<wgt id='5021'>0.30741E+02</wgt>
<wgt id='5022'>0.30558E+02</wgt>
<wgt id='5023'>0.30554E+02</wgt>
<wgt id='5024'>0.30704E+02</wgt>
<wgt id='5025'>0.30578E+02</wgt>
<wgt id='5026'>0.30672E+02</wgt>
<wgt id='5027'>0.30956E+02</wgt>
<wgt id='5028'>0.30081E+02</wgt>
<wgt id='5029'>0.30039E+02</wgt>
<wgt id='5030'>0.30984E+02</wgt>
<wgt id='5031'>0.30281E+02</wgt>
<wgt id='5032'>0.31133E+02</wgt>
<wgt id='5033'>0.30386E+02</wgt>
<wgt id='5034'>0.30838E+02</wgt>
<wgt id='5035'>0.30126E+02</wgt>
<wgt id='5036'>0.31042E+02</wgt>
<wgt id='5037'>0.30624E+02</wgt>
<wgt id='5038'>0.30622E+02</wgt>
<wgt id='5039'>0.31130E+02</wgt>
<wgt id='5040'>0.30375E+02</wgt>
<wgt id='5041'>0.30285E+02</wgt>
<wgt id='5042'>0.30686E+02</wgt>
<wgt id='5043'>0.30936E+02</wgt>
<wgt id='5044'>0.29799E+02</wgt>
<wgt id='5045'>0.31505E+02</wgt>
<wgt id='5046'>0.30424E+02</wgt>
<wgt id='5047'>0.30812E+02</wgt>
<wgt id='5048'>0.30819E+02</wgt>
<wgt id='5049'>0.30652E+02</wgt>
<wgt id='5050'>0.30695E+02</wgt>
<wgt id='5051'>0.30722E+02</wgt>
<wgt id='5052'>0.30604E+02</wgt>
<wgt id='5053'>0.30363E+02</wgt>
<wgt id='5054'>0.31300E+02</wgt>
<wgt id='5055'>0.30439E+02</wgt>
<wgt id='5056'>0.30796E+02</wgt>
<wgt id='5060'>0.29820E+02</wgt>
<wgt id='5070'>0.31344E+02</wgt>
<wgt id='4000'>0.32468E+02</wgt>
<wgt id='4001'>0.32504E+02</wgt>
<wgt id='4002'>0.32573E+02</wgt>
<wgt id='4003'>0.33203E+02</wgt>
<wgt id='4004'>0.32175E+02</wgt>
<wgt id='4005'>0.32600E+02</wgt>
<wgt id='4006'>0.32362E+02</wgt>
<wgt id='4007'>0.32813E+02</wgt>
<wgt id='4008'>0.32347E+02</wgt>
<wgt id='4009'>0.31767E+02</wgt>
<wgt id='4010'>0.33001E+02</wgt>
<wgt id='4011'>0.32937E+02</wgt>
<wgt id='4012'>0.32207E+02</wgt>
<wgt id='4013'>0.31221E+02</wgt>
<wgt id='4014'>0.33183E+02</wgt>
<wgt id='4015'>0.32737E+02</wgt>
<wgt id='4016'>0.32293E+02</wgt>
<wgt id='4017'>0.32170E+02</wgt>
<wgt id='4018'>0.32823E+02</wgt>
<wgt id='4019'>0.32874E+02</wgt>
<wgt id='4020'>0.32010E+02</wgt>
<wgt id='4021'>0.32539E+02</wgt>
<wgt id='4022'>0.32309E+02</wgt>
<wgt id='4023'>0.32306E+02</wgt>
<wgt id='4024'>0.32610E+02</wgt>
<wgt id='4025'>0.31968E+02</wgt>
<wgt id='4026'>0.32929E+02</wgt>
<wgt id='4027'>0.32350E+02</wgt>
<wgt id='4028'>0.32626E+02</wgt>
<wgt id='4029'>0.32221E+02</wgt>
<wgt id='4030'>0.32553E+02</wgt>
<wgt id='4031'>0.32511E+02</wgt>
<wgt id='4032'>0.32412E+02</wgt>
<wgt id='4033'>0.32462E+02</wgt>
<wgt id='4034'>0.32475E+02</wgt>
<wgt id='4035'>0.32984E+02</wgt>
<wgt id='4036'>0.31971E+02</wgt>
<wgt id='4037'>0.32738E+02</wgt>
<wgt id='4038'>0.32011E+02</wgt>
<wgt id='4039'>0.32442E+02</wgt>
<wgt id='4040'>0.32422E+02</wgt>
<wgt id='4041'>0.32750E+02</wgt>
<wgt id='4042'>0.32205E+02</wgt>
<wgt id='4043'>0.32743E+02</wgt>
<wgt id='4044'>0.32141E+02</wgt>
<wgt id='4045'>0.32076E+02</wgt>
<wgt id='4046'>0.32311E+02</wgt>
<wgt id='4047'>0.32061E+02</wgt>
<wgt id='4048'>0.32811E+02</wgt>
<wgt id='4049'>0.32611E+02</wgt>
<wgt id='4050'>0.31869E+02</wgt>
<wgt id='4051'>0.32391E+02</wgt>
<wgt id='4052'>0.32382E+02</wgt>
<wgt id='4053'>0.31602E+02</wgt>
<wgt id='4054'>0.32644E+02</wgt>
<wgt id='4055'>0.32222E+02</wgt>
<wgt id='4056'>0.32694E+02</wgt>
<wgt id='4060'>0.31483E+02</wgt>
<wgt id='4070'>0.33384E+02</wgt>
<wgt id='4080'>0.32510E+02</wgt>
<wgt id='6000'>0.32903E+02</wgt>
<wgt id='6001'>0.32917E+02</wgt>
<wgt id='6002'>0.32887E+02</wgt>
<wgt id='6003'>0.32917E+02</wgt>
<wgt id='6004'>0.32894E+02</wgt>
<wgt id='6005'>0.32979E+02</wgt>
<wgt id='6006'>0.32830E+02</wgt>
<wgt id='6007'>0.32765E+02</wgt>
<wgt id='6008'>0.33059E+02</wgt>
<wgt id='6009'>0.33011E+02</wgt>
<wgt id='6010'>0.32797E+02</wgt>
<wgt id='6011'>0.32974E+02</wgt>
<wgt id='6012'>0.32747E+02</wgt>
<wgt id='6013'>0.32866E+02</wgt>
<wgt id='6014'>0.32967E+02</wgt>
<wgt id='6015'>0.32798E+02</wgt>
<wgt id='6016'>0.32962E+02</wgt>
<wgt id='6017'>0.32718E+02</wgt>
<wgt id='6018'>0.33122E+02</wgt>
<wgt id='6019'>0.32954E+02</wgt>
<wgt id='6020'>0.32856E+02</wgt>
<wgt id='6021'>0.32831E+02</wgt>
<wgt id='6022'>0.33000E+02</wgt>
<wgt id='6023'>0.32671E+02</wgt>
<wgt id='6024'>0.33065E+02</wgt>
<wgt id='6025'>0.32542E+02</wgt>
<wgt id='6026'>0.33201E+02</wgt>
<wgt id='6027'>0.32993E+02</wgt>
<wgt id='6028'>0.32904E+02</wgt>
<wgt id='6029'>0.33107E+02</wgt>
<wgt id='6030'>0.32667E+02</wgt>
<wgt id='6031'>0.32954E+02</wgt>
<wgt id='6032'>0.32833E+02</wgt>
<wgt id='6033'>0.32961E+02</wgt>
<wgt id='6034'>0.32840E+02</wgt>
<wgt id='6035'>0.32881E+02</wgt>
<wgt id='6036'>0.33015E+02</wgt>
<wgt id='6037'>0.32964E+02</wgt>
<wgt id='6038'>0.32896E+02</wgt>
<wgt id='6039'>0.32874E+02</wgt>
<wgt id='6040'>0.32933E+02</wgt>
<wgt id='6041'>0.32846E+02</wgt>
<wgt id='6042'>0.32974E+02</wgt>
<wgt id='6043'>0.33329E+02</wgt>
<wgt id='6044'>0.32697E+02</wgt>
<wgt id='6045'>0.32877E+02</wgt>
<wgt id='6046'>0.32970E+02</wgt>
<wgt id='6047'>0.32829E+02</wgt>
<wgt id='6048'>0.32721E+02</wgt>
<wgt id='6049'>0.32870E+02</wgt>
<wgt id='6050'>0.32900E+02</wgt>
<wgt id='7000'>0.30757E+02</wgt>
<wgt id='7001'>0.30748E+02</wgt>
<wgt id='7002'>0.30768E+02</wgt>
<wgt id='7003'>0.30850E+02</wgt>
<wgt id='7004'>0.30663E+02</wgt>
<wgt id='7005'>0.30813E+02</wgt>
<wgt id='7006'>0.30733E+02</wgt>
<wgt id='7007'>0.30627E+02</wgt>
<wgt id='7008'>0.30883E+02</wgt>
<wgt id='7009'>0.30809E+02</wgt>
<wgt id='7010'>0.30704E+02</wgt>
<wgt id='7011'>0.30452E+02</wgt>
<wgt id='7012'>0.30885E+02</wgt>
<wgt id='7013'>0.30756E+02</wgt>
<wgt id='7014'>0.30753E+02</wgt>
<wgt id='7015'>0.30663E+02</wgt>
<wgt id='7016'>0.30854E+02</wgt>
<wgt id='7017'>0.30664E+02</wgt>
<wgt id='7018'>0.30804E+02</wgt>
<wgt id='7019'>0.30712E+02</wgt>
<wgt id='7020'>0.30815E+02</wgt>
<wgt id='7021'>0.30752E+02</wgt>
<wgt id='7022'>0.30757E+02</wgt>
<wgt id='7023'>0.31078E+02</wgt>
<wgt id='7024'>0.30441E+02</wgt>
<wgt id='7025'>0.30885E+02</wgt>
<wgt id='7026'>0.30439E+02</wgt>
<wgt id='7027'>0.30892E+02</wgt>
<wgt id='7028'>0.30697E+02</wgt>
<wgt id='7029'>0.30615E+02</wgt>
<wgt id='7030'>0.31120E+02</wgt>
<wgt id='7031'>0.30757E+02</wgt>
<wgt id='7032'>0.30758E+02</wgt>
<wgt id='7033'>0.30713E+02</wgt>
<wgt id='7034'>0.30854E+02</wgt>
<wgt id='7035'>0.30839E+02</wgt>
<wgt id='7036'>0.30733E+02</wgt>
<wgt id='7037'>0.30769E+02</wgt>
<wgt id='7038'>0.30760E+02</wgt>
<wgt id='7039'>0.30728E+02</wgt>
<wgt id='7040'>0.30774E+02</wgt>
<wgt id='7041'>0.30696E+02</wgt>
<wgt id='7042'>0.30794E+02</wgt>
<wgt id='7043'>0.30782E+02</wgt>
<wgt id='7044'>0.30603E+02</wgt>
<wgt id='7045'>0.30520E+02</wgt>
<wgt id='7046'>0.30811E+02</wgt>
<wgt id='7047'>0.30767E+02</wgt>
<wgt id='7048'>0.30739E+02</wgt>
<wgt id='7049'>0.30736E+02</wgt>
<wgt id='7050'>0.30683E+02</wgt>
<wgt id='7060'>0.49732E+02</wgt>
<wgt id='8000'>0.31181E+02</wgt>
<wgt id='8001'>0.31172E+02</wgt>
<wgt id='8002'>0.31190E+02</wgt>
<wgt id='8003'>0.31184E+02</wgt>
<wgt id='8004'>0.31180E+02</wgt>
<wgt id='8005'>0.31106E+02</wgt>
<wgt id='8006'>0.31159E+02</wgt>
<wgt id='8007'>0.31136E+02</wgt>
<wgt id='8008'>0.31235E+02</wgt>
<wgt id='8009'>0.31294E+02</wgt>
<wgt id='8010'>0.31184E+02</wgt>
<wgt id='8011'>0.31164E+02</wgt>
<wgt id='8012'>0.31150E+02</wgt>
<wgt id='8013'>0.31176E+02</wgt>
<wgt id='8014'>0.31158E+02</wgt>
<wgt id='8015'>0.31157E+02</wgt>
<wgt id='8016'>0.31189E+02</wgt>
<wgt id='8017'>0.31180E+02</wgt>
<wgt id='8018'>0.31175E+02</wgt>
<wgt id='8019'>0.31234E+02</wgt>
<wgt id='8020'>0.31077E+02</wgt>
<wgt id='8021'>0.31185E+02</wgt>
<wgt id='8022'>0.30990E+02</wgt>
<wgt id='8023'>0.31219E+02</wgt>
<wgt id='8024'>0.31254E+02</wgt>
<wgt id='8025'>0.31292E+02</wgt>
<wgt id='8026'>0.31246E+02</wgt>
<wgt id='8027'>0.31125E+02</wgt>
<wgt id='8028'>0.31211E+02</wgt>
<wgt id='8029'>0.30964E+02</wgt>
<wgt id='8500'>0.32534E+02</wgt>
<wgt id='8501'>0.32457E+02</wgt>
<wgt id='8502'>0.32810E+02</wgt>
<wgt id='8503'>0.32745E+02</wgt>
<wgt id='8504'>0.32462E+02</wgt>
<wgt id='8505'>0.32410E+02</wgt>
<wgt id='8506'>0.32433E+02</wgt>
<wgt id='8507'>0.32751E+02</wgt>
<wgt id='8508'>0.33001E+02</wgt>
<wgt id='8509'>0.32340E+02</wgt>
<wgt id='8510'>0.32989E+02</wgt>
<wgt id='8511'>0.32553E+02</wgt>
<wgt id='8512'>0.32171E+02</wgt>
<wgt id='8513'>0.32584E+02</wgt>
<wgt id='8514'>0.32382E+02</wgt>
<wgt id='8515'>0.32546E+02</wgt>
<wgt id='8516'>0.32629E+02</wgt>
<wgt id='8517'>0.32466E+02</wgt>
<wgt id='8518'>0.32454E+02</wgt>
<wgt id='8519'>0.32454E+02</wgt>
<wgt id='8520'>0.32559E+02</wgt>
<wgt id='8521'>0.32386E+02</wgt>
<wgt id='8522'>0.32554E+02</wgt>
<wgt id='8523'>0.32478E+02</wgt>
<wgt id='8524'>0.32530E+02</wgt>
<wgt id='8525'>0.32504E+02</wgt>
<wgt id='8526'>0.32494E+02</wgt>
<wgt id='8527'>0.32540E+02</wgt>
<wgt id='8528'>0.32453E+02</wgt>
<wgt id='8529'>0.32519E+02</wgt>
<wgt id='8530'>0.32530E+02</wgt>
<wgt id='8531'>0.32522E+02</wgt>
<wgt id='8532'>0.32540E+02</wgt>
<wgt id='8533'>0.32469E+02</wgt>
<wgt id='8534'>0.32547E+02</wgt>
<wgt id='8535'>0.32606E+02</wgt>
<wgt id='8536'>0.32511E+02</wgt>
<wgt id='8537'>0.32546E+02</wgt>
<wgt id='8538'>0.32500E+02</wgt>
<wgt id='8539'>0.32539E+02</wgt>
<wgt id='8540'>0.32537E+02</wgt>
<wgt id='8541'>0.32547E+02</wgt>
<wgt id='8542'>0.32558E+02</wgt>
<wgt id='8543'>0.32505E+02</wgt>
<wgt id='8544'>0.32564E+02</wgt>
<wgt id='8545'>0.32559E+02</wgt>
<wgt id='8546'>0.32563E+02</wgt>
<wgt id='8547'>0.32510E+02</wgt>
<wgt id='8548'>0.32501E+02</wgt>
<wgt id='8549'>0.32536E+02</wgt>
<wgt id='8550'>0.32541E+02</wgt>
<wgt id='8551'>0.32501E+02</wgt>
<wgt id='8552'>0.32541E+02</wgt>
<wgt id='8553'>0.32522E+02</wgt>
<wgt id='8554'>0.32520E+02</wgt>
<wgt id='8555'>0.32537E+02</wgt>
<wgt id='8556'>0.32533E+02</wgt>
<wgt id='8557'>0.32525E+02</wgt>
<wgt id='8558'>0.32567E+02</wgt>
<wgt id='8559'>0.32517E+02</wgt>
<wgt id='8560'>0.32500E+02</wgt>
<wgt id='8561'>0.32528E+02</wgt>
<wgt id='8562'>0.32509E+02</wgt>
<wgt id='8563'>0.32535E+02</wgt>
<wgt id='8564'>0.32527E+02</wgt>
<wgt id='8565'>0.32531E+02</wgt>
<wgt id='8566'>0.32528E+02</wgt>
<wgt id='8567'>0.32531E+02</wgt>
<wgt id='8568'>0.32545E+02</wgt>
<wgt id='8569'>0.32542E+02</wgt>
<wgt id='8570'>0.32531E+02</wgt>
<wgt id='8571'>0.32522E+02</wgt>
<wgt id='8572'>0.32525E+02</wgt>
<wgt id='8573'>0.32520E+02</wgt>
<wgt id='8574'>0.32542E+02</wgt>
<wgt id='8575'>0.32531E+02</wgt>
<wgt id='8576'>0.32531E+02</wgt>
<wgt id='8577'>0.32532E+02</wgt>
<wgt id='8578'>0.32538E+02</wgt>
<wgt id='8579'>0.32552E+02</wgt>
<wgt id='8580'>0.32534E+02</wgt>
<wgt id='8581'>0.32538E+02</wgt>
<wgt id='8582'>0.32514E+02</wgt>
<wgt id='8583'>0.32547E+02</wgt>
<wgt id='8584'>0.32541E+02</wgt>
<wgt id='8585'>0.32539E+02</wgt>
<wgt id='8586'>0.32548E+02</wgt>
<wgt id='8587'>0.32529E+02</wgt>
<wgt id='8588'>0.32526E+02</wgt>
<wgt id='8589'>0.32536E+02</wgt>
<wgt id='8590'>0.32530E+02</wgt>
<wgt id='8591'>0.32529E+02</wgt>
<wgt id='8592'>0.32533E+02</wgt>
<wgt id='8593'>0.32522E+02</wgt>
<wgt id='8594'>0.32538E+02</wgt>
<wgt id='8595'>0.32537E+02</wgt>
<wgt id='8596'>0.32525E+02</wgt>
<wgt id='8597'>0.32538E+02</wgt>
<wgt id='8598'>0.32541E+02</wgt>
<wgt id='8599'>0.32539E+02</wgt>
<wgt id='8600'>0.32533E+02</wgt>
<wgt id='8601'>0.31821E+02</wgt>
<wgt id='8602'>0.33165E+02</wgt>
<wgt id='9000'>0.30777E+02</wgt>
<wgt id='9001'>0.30821E+02</wgt>
<wgt id='9002'>0.30921E+02</wgt>
<wgt id='9003'>0.30527E+02</wgt>
<wgt id='9004'>0.30722E+02</wgt>
<wgt id='9005'>0.30902E+02</wgt>
<wgt id='9006'>0.30715E+02</wgt>
<wgt id='9007'>0.30830E+02</wgt>
<wgt id='9008'>0.30853E+02</wgt>
<wgt id='9009'>0.30753E+02</wgt>
<wgt id='9010'>0.30727E+02</wgt>
<wgt id='9011'>0.31106E+02</wgt>
<wgt id='9012'>0.30400E+02</wgt>
<wgt id='9013'>0.30379E+02</wgt>
<wgt id='9014'>0.30437E+02</wgt>
<wgt id='9015'>0.30746E+02</wgt>
<wgt id='9016'>0.30931E+02</wgt>
<wgt id='9017'>0.30788E+02</wgt>
<wgt id='9018'>0.30752E+02</wgt>
<wgt id='9019'>0.30736E+02</wgt>
<wgt id='9020'>0.30908E+02</wgt>
<wgt id='9021'>0.30741E+02</wgt>
<wgt id='9022'>0.30814E+02</wgt>
<wgt id='9023'>0.30739E+02</wgt>
<wgt id='9024'>0.30735E+02</wgt>
<wgt id='9025'>0.30818E+02</wgt>
<wgt id='9026'>0.30784E+02</wgt>
<wgt id='9027'>0.30738E+02</wgt>
<wgt id='9028'>0.30806E+02</wgt>
<wgt id='9029'>0.30801E+02</wgt>
<wgt id='9030'>0.30791E+02</wgt>
<wgt id='9031'>0.30775E+02</wgt>
<wgt id='9032'>0.30796E+02</wgt>
<wgt id='9033'>0.30816E+02</wgt>
<wgt id='9034'>0.30757E+02</wgt>
<wgt id='9035'>0.30827E+02</wgt>
<wgt id='9036'>0.30775E+02</wgt>
<wgt id='9037'>0.30807E+02</wgt>
<wgt id='9038'>0.30777E+02</wgt>
<wgt id='9039'>0.30778E+02</wgt>
<wgt id='9040'>0.30741E+02</wgt>
<wgt id='9041'>0.30761E+02</wgt>
<wgt id='9042'>0.30769E+02</wgt>
<wgt id='9043'>0.30757E+02</wgt>
<wgt id='9044'>0.30786E+02</wgt>
<wgt id='9045'>0.30770E+02</wgt>
<wgt id='9046'>0.30736E+02</wgt>
<wgt id='9047'>0.30759E+02</wgt>
<wgt id='9048'>0.30788E+02</wgt>
<wgt id='9049'>0.30760E+02</wgt>
<wgt id='9050'>0.30785E+02</wgt>
<wgt id='9051'>0.30787E+02</wgt>
<wgt id='9052'>0.30783E+02</wgt>
<wgt id='9053'>0.30781E+02</wgt>
<wgt id='9054'>0.30762E+02</wgt>
<wgt id='9055'>0.30772E+02</wgt>
<wgt id='9056'>0.30804E+02</wgt>
<wgt id='9057'>0.30774E+02</wgt>
<wgt id='9058'>0.30757E+02</wgt>
<wgt id='9059'>0.30764E+02</wgt>
<wgt id='9060'>0.30768E+02</wgt>
<wgt id='9061'>0.30782E+02</wgt>
<wgt id='9062'>0.30781E+02</wgt>
<wgt id='9063'>0.30790E+02</wgt>
<wgt id='9064'>0.30770E+02</wgt>
<wgt id='9065'>0.30776E+02</wgt>
<wgt id='9066'>0.30780E+02</wgt>
<wgt id='9067'>0.30786E+02</wgt>
<wgt id='9068'>0.30787E+02</wgt>
<wgt id='9069'>0.30792E+02</wgt>
<wgt id='9070'>0.30774E+02</wgt>
<wgt id='9071'>0.30795E+02</wgt>
<wgt id='9072'>0.30794E+02</wgt>
<wgt id='9073'>0.30768E+02</wgt>
<wgt id='9074'>0.30782E+02</wgt>
<wgt id='9075'>0.30775E+02</wgt>
<wgt id='9076'>0.30775E+02</wgt>
<wgt id='9077'>0.30781E+02</wgt>
<wgt id='9078'>0.30780E+02</wgt>
<wgt id='9079'>0.30771E+02</wgt>
<wgt id='9080'>0.30795E+02</wgt>
<wgt id='9081'>0.30774E+02</wgt>
<wgt id='9082'>0.30784E+02</wgt>
<wgt id='9083'>0.30767E+02</wgt>
<wgt id='9084'>0.30768E+02</wgt>
<wgt id='9085'>0.30770E+02</wgt>
<wgt id='9086'>0.30781E+02</wgt>
<wgt id='9087'>0.30759E+02</wgt>
<wgt id='9088'>0.30770E+02</wgt>
<wgt id='9089'>0.30770E+02</wgt>
<wgt id='9090'>0.30781E+02</wgt>
<wgt id='9091'>0.30774E+02</wgt>
<wgt id='9092'>0.30776E+02</wgt>
<wgt id='9093'>0.30772E+02</wgt>
<wgt id='9094'>0.30774E+02</wgt>
<wgt id='9095'>0.30780E+02</wgt>
<wgt id='9096'>0.30771E+02</wgt>
<wgt id='9097'>0.30779E+02</wgt>
<wgt id='9098'>0.30777E+02</wgt>
<wgt id='9099'>0.30770E+02</wgt>
<wgt id='9100'>0.30776E+02</wgt>
<wgt id='9101'>0.30228E+02</wgt>
<wgt id='9102'>0.31241E+02</wgt>
<wgt id='10000'>0.32544E+02</wgt>
<wgt id='10001'>0.32678E+02</wgt>
<wgt id='10002'>0.32542E+02</wgt>
<wgt id='10003'>0.32553E+02</wgt>
<wgt id='10004'>0.32659E+02</wgt>
<wgt id='10005'>0.33426E+02</wgt>
<wgt id='10006'>0.32543E+02</wgt>
<wgt id='10007'>0.32535E+02</wgt>
<wgt id='10008'>0.32588E+02</wgt>
<wgt id='10009'>0.32492E+02</wgt>
<wgt id='10010'>0.32554E+02</wgt>
<wgt id='10011'>0.32521E+02</wgt>
<wgt id='10012'>0.32489E+02</wgt>
<wgt id='10013'>0.32535E+02</wgt>
<wgt id='10014'>0.32555E+02</wgt>
<wgt id='10015'>0.32585E+02</wgt>
<wgt id='10016'>0.32559E+02</wgt>
<wgt id='10017'>0.32310E+02</wgt>
<wgt id='10018'>0.32572E+02</wgt>
<wgt id='10019'>0.32492E+02</wgt>
<wgt id='10020'>0.32558E+02</wgt>
<wgt id='10021'>0.32548E+02</wgt>
<wgt id='10022'>0.32536E+02</wgt>
<wgt id='10023'>0.32558E+02</wgt>
<wgt id='10024'>0.32543E+02</wgt>
<wgt id='10025'>0.32526E+02</wgt>
<wgt id='10026'>0.32545E+02</wgt>
<wgt id='10027'>0.32545E+02</wgt>
<wgt id='10028'>0.32615E+02</wgt>
<wgt id='10029'>0.32580E+02</wgt>
<wgt id='10030'>0.32532E+02</wgt>
<wgt id='10031'>0.31821E+02</wgt>
<wgt id='10032'>0.33165E+02</wgt>
<wgt id='11000'>0.30786E+02</wgt>
<wgt id='11001'>0.30799E+02</wgt>
<wgt id='11002'>0.30888E+02</wgt>
<wgt id='11003'>0.30753E+02</wgt>
<wgt id='11004'>0.30882E+02</wgt>
<wgt id='11005'>0.30380E+02</wgt>
<wgt id='11006'>0.30782E+02</wgt>
<wgt id='11007'>0.30719E+02</wgt>
<wgt id='11008'>0.30714E+02</wgt>
<wgt id='11009'>0.30647E+02</wgt>
<wgt id='11010'>0.30920E+02</wgt>
<wgt id='11011'>0.30626E+02</wgt>
<wgt id='11012'>0.30814E+02</wgt>
<wgt id='11013'>0.30899E+02</wgt>
<wgt id='11014'>0.30699E+02</wgt>
<wgt id='11015'>0.30748E+02</wgt>
<wgt id='11016'>0.30755E+02</wgt>
<wgt id='11017'>0.31030E+02</wgt>
<wgt id='11018'>0.30789E+02</wgt>
<wgt id='11019'>0.30778E+02</wgt>
<wgt id='11020'>0.30825E+02</wgt>
<wgt id='11021'>0.30883E+02</wgt>
<wgt id='11022'>0.31369E+02</wgt>
<wgt id='11023'>0.30775E+02</wgt>
<wgt id='11024'>0.30767E+02</wgt>
<wgt id='11025'>0.30717E+02</wgt>
<wgt id='11026'>0.30788E+02</wgt>
<wgt id='11027'>0.30781E+02</wgt>
<wgt id='11028'>0.30777E+02</wgt>
<wgt id='11029'>0.30769E+02</wgt>
<wgt id='11030'>0.30791E+02</wgt>
<wgt id='11031'>0.30228E+02</wgt>
<wgt id='11032'>0.31241E+02</wgt>
<wgt id='12000'>0.34588E+02</wgt>
<wgt id='12001'>0.34542E+02</wgt>
<wgt id='12002'>0.34634E+02</wgt>
<wgt id='12003'>0.34677E+02</wgt>
<wgt id='12004'>0.34498E+02</wgt>
<wgt id='12005'>0.34643E+02</wgt>
<wgt id='12006'>0.34533E+02</wgt>
<wgt id='12007'>0.34672E+02</wgt>
<wgt id='12008'>0.34506E+02</wgt>
<wgt id='12009'>0.34645E+02</wgt>
<wgt id='12010'>0.34531E+02</wgt>
<wgt id='12011'>0.34532E+02</wgt>
<wgt id='12012'>0.34646E+02</wgt>
<wgt id='12013'>0.34454E+02</wgt>
<wgt id='12014'>0.34723E+02</wgt>
<wgt id='12015'>0.34594E+02</wgt>
<wgt id='12016'>0.34546E+02</wgt>
<wgt id='12017'>0.34689E+02</wgt>
<wgt id='12018'>0.34468E+02</wgt>
<wgt id='12019'>0.34468E+02</wgt>
<wgt id='12020'>0.34705E+02</wgt>
<wgt id='12021'>0.34722E+02</wgt>
<wgt id='12022'>0.34412E+02</wgt>
<wgt id='12023'>0.34457E+02</wgt>
<wgt id='12024'>0.34543E+02</wgt>
<wgt id='12025'>0.34685E+02</wgt>
<wgt id='12026'>0.34541E+02</wgt>
<wgt id='12027'>0.34541E+02</wgt>
<wgt id='12028'>0.34664E+02</wgt>
<wgt id='12050'>0.34588E+02</wgt>
<wgt id='12051'>0.34556E+02</wgt>
<wgt id='12052'>0.34610E+02</wgt>
<wgt id='12053'>0.34547E+02</wgt>
<wgt id='12054'>0.34603E+02</wgt>
<wgt id='12055'>0.34693E+02</wgt>
<wgt id='12056'>0.34334E+02</wgt>
<wgt id='12057'>0.34450E+02</wgt>
<wgt id='12058'>0.34715E+02</wgt>
<wgt id='12059'>0.34495E+02</wgt>
<wgt id='12060'>0.34689E+02</wgt>
<wgt id='12061'>0.34588E+02</wgt>
<wgt id='12062'>0.34662E+02</wgt>
<wgt id='12063'>0.34262E+02</wgt>
<wgt id='13000'>0.31140E+02</wgt>
<wgt id='13001'>0.31117E+02</wgt>
<wgt id='13002'>0.31159E+02</wgt>
<wgt id='13003'>0.31185E+02</wgt>
<wgt id='13004'>0.31091E+02</wgt>
<wgt id='13005'>0.31215E+02</wgt>
<wgt id='13006'>0.31061E+02</wgt>
<wgt id='13007'>0.31264E+02</wgt>
<wgt id='13008'>0.31015E+02</wgt>
<wgt id='13009'>0.31148E+02</wgt>
<wgt id='13010'>0.31129E+02</wgt>
<wgt id='13011'>0.31213E+02</wgt>
<wgt id='13012'>0.31063E+02</wgt>
<wgt id='13013'>0.31045E+02</wgt>
<wgt id='13014'>0.31231E+02</wgt>
<wgt id='13015'>0.31095E+02</wgt>
<wgt id='13016'>0.31167E+02</wgt>
<wgt id='13017'>0.31115E+02</wgt>
<wgt id='13018'>0.31154E+02</wgt>
<wgt id='13019'>0.31088E+02</wgt>
<wgt id='13020'>0.31185E+02</wgt>
<wgt id='13021'>0.30883E+02</wgt>
<wgt id='13022'>0.31349E+02</wgt>
<wgt id='13023'>0.31150E+02</wgt>
<wgt id='13024'>0.31122E+02</wgt>
<wgt id='13025'>0.31070E+02</wgt>
<wgt id='13026'>0.31128E+02</wgt>
<wgt id='13027'>0.31155E+02</wgt>
<wgt id='13028'>0.31156E+02</wgt>
<wgt id='13050'>0.31140E+02</wgt>
<wgt id='13051'>0.31144E+02</wgt>
<wgt id='13052'>0.31072E+02</wgt>
<wgt id='13053'>0.31132E+02</wgt>
<wgt id='13054'>0.31129E+02</wgt>
<wgt id='13055'>0.31094E+02</wgt>
<wgt id='13056'>0.31170E+02</wgt>
<wgt id='13057'>0.31028E+02</wgt>
<wgt id='13058'>0.31300E+02</wgt>
<wgt id='13059'>0.31042E+02</wgt>
<wgt id='13060'>0.31229E+02</wgt>
<wgt id='13061'>0.31059E+02</wgt>
<wgt id='13062'>0.31373E+02</wgt>
<wgt id='13063'>0.30946E+02</wgt>
<wgt id='14000'>0.32292E+02</wgt>
<wgt id='14001'>0.32286E+02</wgt>
<wgt id='14002'>0.32281E+02</wgt>
<wgt id='14003'>0.32276E+02</wgt>
<wgt id='14004'>0.32271E+02</wgt>
<wgt id='14005'>0.32266E+02</wgt>
<wgt id='14006'>0.32260E+02</wgt>
<wgt id='14007'>0.32255E+02</wgt>
<wgt id='14008'>0.32250E+02</wgt>
<wgt id='14009'>0.32245E+02</wgt>
<wgt id='14010'>0.32239E+02</wgt>
<wgt id='14011'>0.32234E+02</wgt>
<wgt id='14012'>0.32229E+02</wgt>
<wgt id='14013'>0.32224E+02</wgt>
<wgt id='14014'>0.32219E+02</wgt>
<wgt id='14015'>0.32213E+02</wgt>
<wgt id='14016'>0.32208E+02</wgt>
<wgt id='14017'>0.32203E+02</wgt>
<wgt id='14018'>0.32198E+02</wgt>
<wgt id='14019'>0.32192E+02</wgt>
<wgt id='14020'>0.32187E+02</wgt>
<wgt id='14021'>0.32182E+02</wgt>
<wgt id='14022'>0.32177E+02</wgt>
<wgt id='14023'>0.32171E+02</wgt>
<wgt id='14024'>0.32166E+02</wgt>
<wgt id='14025'>0.32161E+02</wgt>
<wgt id='14026'>0.32156E+02</wgt>
<wgt id='14027'>0.32151E+02</wgt>
<wgt id='14028'>0.32145E+02</wgt>
<wgt id='14029'>0.32140E+02</wgt>
<wgt id='14030'>0.32135E+02</wgt>
<wgt id='15000'>0.30403E+02</wgt>
<wgt id='15001'>0.30450E+02</wgt>
<wgt id='15002'>0.30547E+02</wgt>
<wgt id='15003'>0.30156E+02</wgt>
<wgt id='15004'>0.30350E+02</wgt>
<wgt id='15005'>0.30528E+02</wgt>
<wgt id='15006'>0.30340E+02</wgt>
<wgt id='15007'>0.30452E+02</wgt>
<wgt id='15008'>0.30477E+02</wgt>
<wgt id='15009'>0.30379E+02</wgt>
<wgt id='15010'>0.30355E+02</wgt>
<wgt id='15011'>0.30725E+02</wgt>
<wgt id='15012'>0.30029E+02</wgt>
<wgt id='15013'>0.30009E+02</wgt>
<wgt id='15014'>0.30067E+02</wgt>
<wgt id='15015'>0.30376E+02</wgt>
<wgt id='15016'>0.30551E+02</wgt>
<wgt id='15017'>0.30415E+02</wgt>
<wgt id='15018'>0.30381E+02</wgt>
<wgt id='15019'>0.30362E+02</wgt>
<wgt id='15020'>0.30531E+02</wgt>
<wgt id='15021'>0.30368E+02</wgt>
<wgt id='15022'>0.30442E+02</wgt>
<wgt id='15023'>0.30361E+02</wgt>
<wgt id='15024'>0.30362E+02</wgt>
<wgt id='15025'>0.30449E+02</wgt>
<wgt id='15026'>0.30413E+02</wgt>
<wgt id='15027'>0.30362E+02</wgt>
<wgt id='15028'>0.30432E+02</wgt>
<wgt id='15029'>0.30428E+02</wgt>
<wgt id='15030'>0.30420E+02</wgt>
<wgt id='15031'>0.30398E+02</wgt>
<wgt id='15032'>0.30422E+02</wgt>
<wgt id='15033'>0.30443E+02</wgt>
<wgt id='15034'>0.30385E+02</wgt>
<wgt id='15035'>0.30454E+02</wgt>
<wgt id='15036'>0.30401E+02</wgt>
<wgt id='15037'>0.30434E+02</wgt>
<wgt id='15038'>0.30403E+02</wgt>
<wgt id='15039'>0.30406E+02</wgt>
<wgt id='15040'>0.30368E+02</wgt>
<wgt id='15041'>0.30388E+02</wgt>
<wgt id='15042'>0.30396E+02</wgt>
<wgt id='15043'>0.30382E+02</wgt>
<wgt id='15044'>0.30413E+02</wgt>
<wgt id='15045'>0.30397E+02</wgt>
<wgt id='15046'>0.30362E+02</wgt>
<wgt id='15047'>0.30387E+02</wgt>
<wgt id='15048'>0.30414E+02</wgt>
<wgt id='15049'>0.30386E+02</wgt>
<wgt id='15050'>0.30411E+02</wgt>
<wgt id='15051'>0.30413E+02</wgt>
<wgt id='15052'>0.30410E+02</wgt>
<wgt id='15053'>0.30408E+02</wgt>
<wgt id='15054'>0.30388E+02</wgt>
<wgt id='15055'>0.30398E+02</wgt>
<wgt id='15056'>0.30431E+02</wgt>
<wgt id='15057'>0.30400E+02</wgt>
<wgt id='15058'>0.30383E+02</wgt>
<wgt id='15059'>0.30391E+02</wgt>
<wgt id='15060'>0.30394E+02</wgt>
<wgt id='15061'>0.30408E+02</wgt>
<wgt id='15062'>0.30408E+02</wgt>
<wgt id='15063'>0.30417E+02</wgt>
<wgt id='15064'>0.30396E+02</wgt>
<wgt id='15065'>0.30403E+02</wgt>
<wgt id='15066'>0.30406E+02</wgt>
<wgt id='15067'>0.30413E+02</wgt>
<wgt id='15068'>0.30413E+02</wgt>
<wgt id='15069'>0.30419E+02</wgt>
<wgt id='15070'>0.30400E+02</wgt>
<wgt id='15071'>0.30421E+02</wgt>
<wgt id='15072'>0.30421E+02</wgt>
<wgt id='15073'>0.30395E+02</wgt>
<wgt id='15074'>0.30408E+02</wgt>
<wgt id='15075'>0.30401E+02</wgt>
<wgt id='15076'>0.30401E+02</wgt>
<wgt id='15077'>0.30407E+02</wgt>
<wgt id='15078'>0.30406E+02</wgt>
<wgt id='15079'>0.30398E+02</wgt>
<wgt id='15080'>0.30422E+02</wgt>
<wgt id='15081'>0.30400E+02</wgt>
<wgt id='15082'>0.30410E+02</wgt>
<wgt id='15083'>0.30394E+02</wgt>
<wgt id='15084'>0.30395E+02</wgt>
<wgt id='15085'>0.30396E+02</wgt>
<wgt id='15086'>0.30407E+02</wgt>
<wgt id='15087'>0.30385E+02</wgt>
<wgt id='15088'>0.30397E+02</wgt>
<wgt id='15089'>0.30396E+02</wgt>
<wgt id='15090'>0.30408E+02</wgt>
<wgt id='15091'>0.30400E+02</wgt>
<wgt id='15092'>0.30402E+02</wgt>
<wgt id='15093'>0.30399E+02</wgt>
<wgt id='15094'>0.30401E+02</wgt>
<wgt id='15095'>0.30407E+02</wgt>
<wgt id='15096'>0.30397E+02</wgt>
<wgt id='15097'>0.30405E+02</wgt>
<wgt id='15098'>0.30403E+02</wgt>
<wgt id='15099'>0.30397E+02</wgt>
<wgt id='15100'>0.30403E+02</wgt>
<wgt id='15101'>0.30403E+02</wgt>
<wgt id='15102'>0.30401E+02</wgt>
<wgt id='15103'>0.30404E+02</wgt>
<wgt id='15104'>0.30404E+02</wgt>
<wgt id='15105'>0.30404E+02</wgt>
<wgt id='15106'>0.30403E+02</wgt>
<wgt id='15107'>0.30402E+02</wgt>
<wgt id='1500'>0.32238E+02</wgt>
<wgt id='1501'>0.29360E+02</wgt>
<wgt id='1502'>0.32342E+02</wgt>
<wgt id='1503'>0.32104E+02</wgt>
<wgt id='1504'>0.31843E+02</wgt>
<wgt id='1505'>0.28281E+02</wgt>
<wgt id='1506'>0.32379E+02</wgt>
<wgt id='1507'>0.32726E+02</wgt>
<wgt id='1508'>0.32154E+02</wgt>
<wgt id='1509'>0.32264E+02</wgt>
<wgt id='1510'>0.31333E+02</wgt>
<wgt id='1511'>0.31869E+02</wgt>
<wgt id='1512'>0.32796E+02</wgt>
<wgt id='1513'>0.32807E+02</wgt>
<wgt id='1514'>0.31498E+02</wgt>
<wgt id='1515'>0.32480E+02</wgt>
<wgt id='1516'>0.32733E+02</wgt>
<wgt id='1517'>0.31762E+02</wgt>
<wgt id='1518'>0.31896E+02</wgt>
<wgt id='1519'>0.32584E+02</wgt>
<wgt id='1520'>0.32629E+02</wgt>
<wgt id='1521'>0.32384E+02</wgt>
<wgt id='1522'>0.32075E+02</wgt>
<wgt id='1523'>0.34703E+02</wgt>
<wgt id='1524'>0.32011E+02</wgt>
<wgt id='1525'>0.32683E+02</wgt>
<wgt id='1526'>0.31654E+02</wgt>
<wgt id='1527'>0.31934E+02</wgt>
<wgt id='1528'>0.32036E+02</wgt>
<wgt id='1529'>0.31866E+02</wgt>
<wgt id='1530'>0.32869E+02</wgt>
<wgt id='1531'>0.32161E+02</wgt>
<wgt id='1532'>0.31428E+02</wgt>
<wgt id='1533'>0.32833E+02</wgt>
<wgt id='1534'>0.32483E+02</wgt>
<wgt id='1535'>0.33165E+02</wgt>
<wgt id='1536'>0.33083E+02</wgt>
<wgt id='1537'>0.32689E+02</wgt>
<wgt id='1538'>0.32121E+02</wgt>
<wgt id='1539'>0.31031E+02</wgt>
<wgt id='1540'>0.32756E+02</wgt>
<wgt id='1541'>0.32130E+02</wgt>
<wgt id='1542'>0.32660E+02</wgt>
<wgt id='1543'>0.32626E+02</wgt>
<wgt id='1544'>0.32015E+02</wgt>
<wgt id='1545'>0.32711E+02</wgt>
<wgt id='1546'>0.32489E+02</wgt>
<wgt id='1547'>0.31715E+02</wgt>
<wgt id='1548'>0.31661E+02</wgt>
<wgt id='1549'>0.32395E+02</wgt>
<wgt id='1550'>0.32338E+02</wgt>
<wgt id='1551'>0.32255E+02</wgt>
<wgt id='1552'>0.32121E+02</wgt>
<wgt id='1553'>0.32789E+02</wgt>
<wgt id='1554'>0.32295E+02</wgt>
<wgt id='1555'>0.32286E+02</wgt>
<wgt id='1556'>0.31402E+02</wgt>
<wgt id='1557'>0.33368E+02</wgt>
<wgt id='1558'>0.31988E+02</wgt>
<wgt id='1559'>0.32647E+02</wgt>
<wgt id='1560'>0.32130E+02</wgt>
<wgt id='1561'>0.32517E+02</wgt>
<wgt id='1562'>0.32290E+02</wgt>
<wgt id='1563'>0.32839E+02</wgt>
<wgt id='1564'>0.31760E+02</wgt>
<wgt id='1565'>0.32653E+02</wgt>
<wgt id='1566'>0.32470E+02</wgt>
<wgt id='1567'>0.33772E+02</wgt>
<wgt id='1568'>0.31797E+02</wgt>
<wgt id='1569'>0.31509E+02</wgt>
<wgt id='1570'>0.32335E+02</wgt>
<wgt id='1571'>0.32972E+02</wgt>
<wgt id='1572'>0.32089E+02</wgt>
<wgt id='1573'>0.29777E+02</wgt>
<wgt id='1574'>0.32564E+02</wgt>
<wgt id='1575'>0.31924E+02</wgt>
<wgt id='1576'>0.31525E+02</wgt>
<wgt id='1577'>0.32610E+02</wgt>
<wgt id='1578'>0.33468E+02</wgt>
<wgt id='1579'>0.32046E+02</wgt>
<wgt id='1580'>0.32474E+02</wgt>
<wgt id='1581'>0.32489E+02</wgt>
<wgt id='1582'>0.31935E+02</wgt>
<wgt id='1583'>0.32335E+02</wgt>
<wgt id='1584'>0.32340E+02</wgt>
<wgt id='1585'>0.31373E+02</wgt>
<wgt id='1586'>0.32154E+02</wgt>
<wgt id='1587'>0.32210E+02</wgt>
<wgt id='1588'>0.32273E+02</wgt>
<wgt id='1589'>0.32876E+02</wgt>
<wgt id='1590'>0.32105E+02</wgt>
<wgt id='1591'>0.31399E+02</wgt>
<wgt id='1592'>0.32948E+02</wgt>
<wgt id='1593'>0.31969E+02</wgt>
<wgt id='1594'>0.33041E+02</wgt>
<wgt id='1595'>0.31714E+02</wgt>
<wgt id='1596'>0.32730E+02</wgt>
<wgt id='1597'>0.32361E+02</wgt>
<wgt id='1598'>0.33530E+02</wgt>
<wgt id='1599'>0.33081E+02</wgt>
<wgt id='1600'>0.32183E+02</wgt>
<wgt id='1601'>0.31660E+02</wgt>
<wgt id='1602'>0.32557E+02</wgt>
<wgt id='1700'>0.30962E+02</wgt>
<wgt id='1800'>0.38339E+02</wgt>
<wgt id='1850'>0.47030E+02</wgt>
<wgt id='1900'>0.37819E+02</wgt>
<wgt id='1950'>0.45676E+02</wgt>
</rwgt>
</event>
<event>
      4   9999  3.15120E+01  2.65894E+01 -1.00000E+00  1.54207E-01
      21    -1     0     0   512   501  0.000000000E+00  0.000000000E+00  3.347268670E+01  3.347268670E+01  0.000000000E+00  0.00000E+00  9.000E+00
      21    -1     0     0   501   502  0.000000000E+00  0.000000000E+00 -1.707543565E+02  1.707543565E+02  0.000000000E+00  0.00000E+00  9.000E+00
      25     1     1     2     0     0 -1.409952602E+01 -2.254326509E+01 -1.236537046E+02  1.743486753E+02  1.200009436E+02  0.00000E+00  9.000E+00
      21     1     1     2   512   502  1.409952602E+01  2.254326509E+01 -1.362796518E+01  2.987836792E+01  4.460403188E-07  0.00000E+00  9.000E+00
#rwgt            1           1   33.680854615338276                2        3472           0
<rwgt>
<wgt id='1001'>0.31512E+02</wgt>
<wgt id='1002'>0.26924E+02</wgt>
<wgt id='1003'>0.35813E+02</wgt>
<wgt id='1004'>0.28894E+02</wgt>
<wgt id='1005'>0.25681E+02</wgt>
<wgt id='1006'>0.31796E+02</wgt>
<wgt id='1007'>0.33776E+02</wgt>
<wgt id='1008'>0.27051E+02</wgt>
<wgt id='1009'>0.40282E+02</wgt>
<wgt id='2000'>0.31512E+02</wgt>
<wgt id='2001'>0.31468E+02</wgt>
<wgt id='2002'>0.31653E+02</wgt>
<wgt id='2003'>0.31635E+02</wgt>
<wgt id='2004'>0.31543E+02</wgt>
<wgt id='2005'>0.31433E+02</wgt>
<wgt id='2006'>0.31420E+02</wgt>
<wgt id='2007'>0.31378E+02</wgt>
<wgt id='2008'>0.31465E+02</wgt>
<wgt id='2009'>0.31537E+02</wgt>
<wgt id='2010'>0.31499E+02</wgt>
<wgt id='2011'>0.31659E+02</wgt>
<wgt id='2012'>0.31691E+02</wgt>
<wgt id='2013'>0.31784E+02</wgt>
<wgt id='2014'>0.31646E+02</wgt>
<wgt id='2015'>0.31601E+02</wgt>
<wgt id='2016'>0.31448E+02</wgt>
<wgt id='2017'>0.31501E+02</wgt>
<wgt id='2018'>0.31645E+02</wgt>
<wgt id='2019'>0.31495E+02</wgt>
<wgt id='2020'>0.31641E+02</wgt>
<wgt id='2021'>0.31444E+02</wgt>
<wgt id='2022'>0.31570E+02</wgt>
<wgt id='2023'>0.31567E+02</wgt>
<wgt id='2024'>0.31532E+02</wgt>
<wgt id='2025'>0.31552E+02</wgt>
<wgt id='2026'>0.31526E+02</wgt>
<wgt id='2027'>0.31481E+02</wgt>
<wgt id='2028'>0.31502E+02</wgt>
<wgt id='2029'>0.31560E+02</wgt>
<wgt id='2030'>0.31540E+02</wgt>
<wgt id='2031'>0.31509E+02</wgt>
<wgt id='2032'>0.31547E+02</wgt>
<wgt id='2033'>0.31542E+02</wgt>
<wgt id='2034'>0.31507E+02</wgt>
<wgt id='2035'>0.31487E+02</wgt>
<wgt id='2036'>0.31471E+02</wgt>
<wgt id='2037'>0.31544E+02</wgt>
<wgt id='2038'>0.31516E+02</wgt>
<wgt id='2039'>0.31512E+02</wgt>
<wgt id='2040'>0.31462E+02</wgt>
<wgt id='2041'>0.31452E+02</wgt>
<wgt id='2042'>0.31466E+02</wgt>
<wgt id='2043'>0.31568E+02</wgt>
<wgt id='2044'>0.31549E+02</wgt>
<wgt id='2045'>0.31504E+02</wgt>
<wgt id='2046'>0.31519E+02</wgt>
<wgt id='2047'>0.31507E+02</wgt>
<wgt id='2048'>0.31528E+02</wgt>
<wgt id='2049'>0.31532E+02</wgt>
<wgt id='2050'>0.31519E+02</wgt>
<wgt id='2051'>0.31539E+02</wgt>
<wgt id='2052'>0.31506E+02</wgt>
<wgt id='2053'>0.31517E+02</wgt>
<wgt id='2054'>0.31515E+02</wgt>
<wgt id='2055'>0.31501E+02</wgt>
<wgt id='2056'>0.31527E+02</wgt>
<wgt id='2057'>0.31528E+02</wgt>
<wgt id='2058'>0.31516E+02</wgt>
<wgt id='2059'>0.31499E+02</wgt>
<wgt id='2060'>0.31513E+02</wgt>
<wgt id='2061'>0.31497E+02</wgt>
<wgt id='2062'>0.31513E+02</wgt>
<wgt id='2063'>0.31516E+02</wgt>
<wgt id='2064'>0.31504E+02</wgt>
<wgt id='2065'>0.31534E+02</wgt>
<wgt id='2066'>0.31511E+02</wgt>
<wgt id='2067'>0.31507E+02</wgt>
<wgt id='2068'>0.31520E+02</wgt>
<wgt id='2069'>0.31503E+02</wgt>
<wgt id='2070'>0.31519E+02</wgt>
<wgt id='2071'>0.31508E+02</wgt>
<wgt id='2072'>0.31517E+02</wgt>
<wgt id='2073'>0.31531E+02</wgt>
<wgt id='2074'>0.31513E+02</wgt>
<wgt id='2075'>0.31511E+02</wgt>
<wgt id='2076'>0.31501E+02</wgt>
<wgt id='2077'>0.31519E+02</wgt>
<wgt id='2078'>0.31511E+02</wgt>
<wgt id='2079'>0.31511E+02</wgt>
<wgt id='2080'>0.31513E+02</wgt>
<wgt id='2081'>0.31515E+02</wgt>
<wgt id='2082'>0.31510E+02</wgt>
<wgt id='2083'>0.31521E+02</wgt>
<wgt id='2084'>0.31513E+02</wgt>
<wgt id='2085'>0.31524E+02</wgt>
<wgt id='2086'>0.31511E+02</wgt>
<wgt id='2087'>0.31510E+02</wgt>
<wgt id='2088'>0.31509E+02</wgt>
<wgt id='2089'>0.31508E+02</wgt>
<wgt id='2090'>0.31511E+02</wgt>
<wgt id='2091'>0.31511E+02</wgt>
<wgt id='2092'>0.31518E+02</wgt>
<wgt id='2093'>0.31511E+02</wgt>
<wgt id='2094'>0.31513E+02</wgt>
<wgt id='2095'>0.31514E+02</wgt>
<wgt id='2096'>0.31511E+02</wgt>
<wgt id='2097'>0.31511E+02</wgt>
<wgt id='2098'>0.31509E+02</wgt>
<wgt id='2099'>0.31516E+02</wgt>
<wgt id='2100'>0.31517E+02</wgt>
<wgt id='2101'>0.30925E+02</wgt>
<wgt id='2102'>0.31983E+02</wgt>
<wgt id='2104'>0.28788E+02</wgt>
<wgt id='2105'>0.29260E+02</wgt>
<wgt id='2106'>0.29812E+02</wgt>
<wgt id='2107'>0.30458E+02</wgt>
<wgt id='2108'>0.31318E+02</wgt>
<wgt id='2109'>0.31860E+02</wgt>
<wgt id='2110'>0.32469E+02</wgt>
<wgt id='2111'>0.32942E+02</wgt>
<wgt id='3000'>0.32734E+02</wgt>
<wgt id='3001'>0.32862E+02</wgt>
<wgt id='3002'>0.32601E+02</wgt>
<wgt id='3003'>0.32853E+02</wgt>
<wgt id='3004'>0.32809E+02</wgt>
<wgt id='3005'>0.32896E+02</wgt>
<wgt id='3006'>0.32778E+02</wgt>
<wgt id='3007'>0.32802E+02</wgt>
<wgt id='3008'>0.32641E+02</wgt>
<wgt id='3009'>0.32693E+02</wgt>
<wgt id='3010'>0.32596E+02</wgt>
<wgt id='3011'>0.32807E+02</wgt>
<wgt id='3012'>0.32992E+02</wgt>
<wgt id='3013'>0.32459E+02</wgt>
<wgt id='3014'>0.32870E+02</wgt>
<wgt id='3015'>0.32842E+02</wgt>
<wgt id='3016'>0.32758E+02</wgt>
<wgt id='3017'>0.32897E+02</wgt>
<wgt id='3018'>0.32798E+02</wgt>
<wgt id='3019'>0.32580E+02</wgt>
<wgt id='3020'>0.32675E+02</wgt>
<wgt id='3021'>0.32617E+02</wgt>
<wgt id='3022'>0.32724E+02</wgt>
<wgt id='3023'>0.32670E+02</wgt>
<wgt id='3024'>0.32703E+02</wgt>
<wgt id='3025'>0.32730E+02</wgt>
<wgt id='3026'>0.32747E+02</wgt>
<wgt id='3027'>0.32755E+02</wgt>
<wgt id='3028'>0.32699E+02</wgt>
<wgt id='3029'>0.32747E+02</wgt>
<wgt id='3030'>0.32766E+02</wgt>
<wgt id='3031'>0.32754E+02</wgt>
<wgt id='3032'>0.32713E+02</wgt>
<wgt id='3033'>0.32704E+02</wgt>
<wgt id='3034'>0.32748E+02</wgt>
<wgt id='3035'>0.32741E+02</wgt>
<wgt id='3036'>0.32755E+02</wgt>
<wgt id='3037'>0.32736E+02</wgt>
<wgt id='3038'>0.32743E+02</wgt>
<wgt id='3039'>0.32799E+02</wgt>
<wgt id='3040'>0.32729E+02</wgt>
<wgt id='3041'>0.32717E+02</wgt>
<wgt id='3042'>0.32681E+02</wgt>
<wgt id='3043'>0.32676E+02</wgt>
<wgt id='3044'>0.32775E+02</wgt>
<wgt id='3045'>0.32780E+02</wgt>
<wgt id='3046'>0.32720E+02</wgt>
<wgt id='3047'>0.32708E+02</wgt>
<wgt id='3048'>0.32776E+02</wgt>
<wgt id='3049'>0.32716E+02</wgt>
<wgt id='3050'>0.32757E+02</wgt>
<wgt id='3051'>0.32742E+02</wgt>
<wgt id='3052'>0.32737E+02</wgt>
<wgt id='3053'>0.32727E+02</wgt>
<wgt id='3054'>0.32721E+02</wgt>
<wgt id='3055'>0.32703E+02</wgt>
<wgt id='3056'>0.32745E+02</wgt>
<wgt id='3057'>0.32728E+02</wgt>
<wgt id='3058'>0.32719E+02</wgt>
<wgt id='3059'>0.32741E+02</wgt>
<wgt id='3060'>0.32734E+02</wgt>
<wgt id='3061'>0.32745E+02</wgt>
<wgt id='3062'>0.32751E+02</wgt>
<wgt id='3063'>0.32747E+02</wgt>
<wgt id='3064'>0.32722E+02</wgt>
<wgt id='3065'>0.32735E+02</wgt>
<wgt id='3066'>0.32739E+02</wgt>
<wgt id='3067'>0.32713E+02</wgt>
<wgt id='3068'>0.32740E+02</wgt>
<wgt id='3069'>0.32739E+02</wgt>
<wgt id='3070'>0.32738E+02</wgt>
<wgt id='3071'>0.32728E+02</wgt>
<wgt id='3072'>0.32735E+02</wgt>
<wgt id='3073'>0.32727E+02</wgt>
<wgt id='3074'>0.32722E+02</wgt>
<wgt id='3075'>0.32735E+02</wgt>
<wgt id='3076'>0.32729E+02</wgt>
<wgt id='3077'>0.32733E+02</wgt>
<wgt id='3078'>0.32732E+02</wgt>
<wgt id='3079'>0.32754E+02</wgt>
<wgt id='3080'>0.32747E+02</wgt>
<wgt id='3081'>0.32744E+02</wgt>
<wgt id='3082'>0.32739E+02</wgt>
<wgt id='3083'>0.32736E+02</wgt>
<wgt id='3084'>0.32730E+02</wgt>
<wgt id='3085'>0.32737E+02</wgt>
<wgt id='3086'>0.32734E+02</wgt>
<wgt id='3087'>0.32732E+02</wgt>
<wgt id='3088'>0.32736E+02</wgt>
<wgt id='3089'>0.32736E+02</wgt>
<wgt id='3090'>0.32746E+02</wgt>
<wgt id='3091'>0.32739E+02</wgt>
<wgt id='3092'>0.32740E+02</wgt>
<wgt id='3093'>0.32726E+02</wgt>
<wgt id='3094'>0.32732E+02</wgt>
<wgt id='3095'>0.32738E+02</wgt>
<wgt id='3096'>0.32733E+02</wgt>
<wgt id='3097'>0.32732E+02</wgt>
<wgt id='3098'>0.32731E+02</wgt>
<wgt id='3099'>0.32735E+02</wgt>
<wgt id='3100'>0.32730E+02</wgt>
<wgt id='3101'>0.32111E+02</wgt>
<wgt id='3102'>0.33475E+02</wgt>
<wgt id='5000'>0.30057E+02</wgt>
<wgt id='5001'>0.29851E+02</wgt>
<wgt id='5002'>0.29930E+02</wgt>
<wgt id='5003'>0.29810E+02</wgt>
<wgt id='5004'>0.30041E+02</wgt>
<wgt id='5005'>0.29130E+02</wgt>
<wgt id='5006'>0.30294E+02</wgt>
<wgt id='5007'>0.30099E+02</wgt>
<wgt id='5008'>0.29564E+02</wgt>
<wgt id='5009'>0.30451E+02</wgt>
<wgt id='5010'>0.29815E+02</wgt>
<wgt id='5011'>0.29913E+02</wgt>
<wgt id='5012'>0.30057E+02</wgt>
<wgt id='5013'>0.29333E+02</wgt>
<wgt id='5014'>0.30230E+02</wgt>
<wgt id='5015'>0.30404E+02</wgt>
<wgt id='5016'>0.28970E+02</wgt>
<wgt id='5017'>0.30073E+02</wgt>
<wgt id='5018'>0.30041E+02</wgt>
<wgt id='5019'>0.30071E+02</wgt>
<wgt id='5020'>0.30033E+02</wgt>
<wgt id='5021'>0.30225E+02</wgt>
<wgt id='5022'>0.29949E+02</wgt>
<wgt id='5023'>0.29990E+02</wgt>
<wgt id='5024'>0.30118E+02</wgt>
<wgt id='5025'>0.30008E+02</wgt>
<wgt id='5026'>0.30096E+02</wgt>
<wgt id='5027'>0.30500E+02</wgt>
<wgt id='5028'>0.29309E+02</wgt>
<wgt id='5029'>0.29204E+02</wgt>
<wgt id='5030'>0.30570E+02</wgt>
<wgt id='5031'>0.29567E+02</wgt>
<wgt id='5032'>0.30762E+02</wgt>
<wgt id='5033'>0.29858E+02</wgt>
<wgt id='5034'>0.30216E+02</wgt>
<wgt id='5035'>0.29597E+02</wgt>
<wgt id='5036'>0.30422E+02</wgt>
<wgt id='5037'>0.29958E+02</wgt>
<wgt id='5038'>0.30144E+02</wgt>
<wgt id='5039'>0.30681E+02</wgt>
<wgt id='5040'>0.29746E+02</wgt>
<wgt id='5041'>0.29609E+02</wgt>
<wgt id='5042'>0.30142E+02</wgt>
<wgt id='5043'>0.30608E+02</wgt>
<wgt id='5044'>0.28891E+02</wgt>
<wgt id='5045'>0.31193E+02</wgt>
<wgt id='5046'>0.29571E+02</wgt>
<wgt id='5047'>0.30329E+02</wgt>
<wgt id='5048'>0.30230E+02</wgt>
<wgt id='5049'>0.30099E+02</wgt>
<wgt id='5050'>0.30187E+02</wgt>
<wgt id='5051'>0.30196E+02</wgt>
<wgt id='5052'>0.30070E+02</wgt>
<wgt id='5053'>0.29929E+02</wgt>
<wgt id='5054'>0.30866E+02</wgt>
<wgt id='5055'>0.29824E+02</wgt>
<wgt id='5056'>0.30293E+02</wgt>
<wgt id='5060'>0.29548E+02</wgt>
<wgt id='5070'>0.30427E+02</wgt>
<wgt id='4000'>0.31600E+02</wgt>
<wgt id='4001'>0.31693E+02</wgt>
<wgt id='4002'>0.31772E+02</wgt>
<wgt id='4003'>0.32311E+02</wgt>
<wgt id='4004'>0.31126E+02</wgt>
<wgt id='4005'>0.31837E+02</wgt>
<wgt id='4006'>0.31476E+02</wgt>
<wgt id='4007'>0.32058E+02</wgt>
<wgt id='4008'>0.31362E+02</wgt>
<wgt id='4009'>0.30643E+02</wgt>
<wgt id='4010'>0.32327E+02</wgt>
<wgt id='4011'>0.32254E+02</wgt>
<wgt id='4012'>0.31232E+02</wgt>
<wgt id='4013'>0.29947E+02</wgt>
<wgt id='4014'>0.32534E+02</wgt>
<wgt id='4015'>0.31914E+02</wgt>
<wgt id='4016'>0.31402E+02</wgt>
<wgt id='4017'>0.31218E+02</wgt>
<wgt id='4018'>0.32056E+02</wgt>
<wgt id='4019'>0.32246E+02</wgt>
<wgt id='4020'>0.30885E+02</wgt>
<wgt id='4021'>0.31738E+02</wgt>
<wgt id='4022'>0.31313E+02</wgt>
<wgt id='4023'>0.31340E+02</wgt>
<wgt id='4024'>0.31836E+02</wgt>
<wgt id='4025'>0.31196E+02</wgt>
<wgt id='4026'>0.31962E+02</wgt>
<wgt id='4027'>0.31428E+02</wgt>
<wgt id='4028'>0.31831E+02</wgt>
<wgt id='4029'>0.31253E+02</wgt>
<wgt id='4030'>0.31721E+02</wgt>
<wgt id='4031'>0.31695E+02</wgt>
<wgt id='4032'>0.31476E+02</wgt>
<wgt id='4033'>0.31509E+02</wgt>
<wgt id='4034'>0.31790E+02</wgt>
<wgt id='4035'>0.32195E+02</wgt>
<wgt id='4036'>0.31045E+02</wgt>
<wgt id='4037'>0.31988E+02</wgt>
<wgt id='4038'>0.30924E+02</wgt>
<wgt id='4039'>0.31592E+02</wgt>
<wgt id='4040'>0.31482E+02</wgt>
<wgt id='4041'>0.31888E+02</wgt>
<wgt id='4042'>0.31381E+02</wgt>
<wgt id='4043'>0.31896E+02</wgt>
<wgt id='4044'>0.31355E+02</wgt>
<wgt id='4045'>0.30956E+02</wgt>
<wgt id='4046'>0.31459E+02</wgt>
<wgt id='4047'>0.31086E+02</wgt>
<wgt id='4048'>0.31661E+02</wgt>
<wgt id='4049'>0.31464E+02</wgt>
<wgt id='4050'>0.30781E+02</wgt>
<wgt id='4051'>0.31456E+02</wgt>
<wgt id='4052'>0.31448E+02</wgt>
<wgt id='4053'>0.30794E+02</wgt>
<wgt id='4054'>0.31829E+02</wgt>
<wgt id='4055'>0.31298E+02</wgt>
<wgt id='4056'>0.31910E+02</wgt>
<wgt id='4060'>0.30925E+02</wgt>
<wgt id='4070'>0.32166E+02</wgt>
<wgt id='4080'>0.29145E+02</wgt>
<wgt id='6000'>0.32492E+02</wgt>
<wgt id='6001'>0.32504E+02</wgt>
<wgt id='6002'>0.32479E+02</wgt>
<wgt id='6003'>0.32506E+02</wgt>
<wgt id='6004'>0.32484E+02</wgt>
<wgt id='6005'>0.32581E+02</wgt>
<wgt id='6006'>0.32410E+02</wgt>
<wgt id='6007'>0.32308E+02</wgt>
<wgt id='6008'>0.32700E+02</wgt>
<wgt id='6009'>0.32615E+02</wgt>
<wgt id='6010'>0.32374E+02</wgt>
<wgt id='6011'>0.32581E+02</wgt>
<wgt id='6012'>0.32299E+02</wgt>
<wgt id='6013'>0.32446E+02</wgt>
<wgt id='6014'>0.32574E+02</wgt>
<wgt id='6015'>0.32348E+02</wgt>
<wgt id='6016'>0.32574E+02</wgt>
<wgt id='6017'>0.32264E+02</wgt>
<wgt id='6018'>0.32763E+02</wgt>
<wgt id='6019'>0.32568E+02</wgt>
<wgt id='6020'>0.32426E+02</wgt>
<wgt id='6021'>0.32401E+02</wgt>
<wgt id='6022'>0.32616E+02</wgt>
<wgt id='6023'>0.32213E+02</wgt>
<wgt id='6024'>0.32689E+02</wgt>
<wgt id='6025'>0.32016E+02</wgt>
<wgt id='6026'>0.32914E+02</wgt>
<wgt id='6027'>0.32615E+02</wgt>
<wgt id='6028'>0.32496E+02</wgt>
<wgt id='6029'>0.32744E+02</wgt>
<wgt id='6030'>0.32198E+02</wgt>
<wgt id='6031'>0.32557E+02</wgt>
<wgt id='6032'>0.32401E+02</wgt>
<wgt id='6033'>0.32569E+02</wgt>
<wgt id='6034'>0.32410E+02</wgt>
<wgt id='6035'>0.32469E+02</wgt>
<wgt id='6036'>0.32632E+02</wgt>
<wgt id='6037'>0.32563E+02</wgt>
<wgt id='6038'>0.32484E+02</wgt>
<wgt id='6039'>0.32458E+02</wgt>
<wgt id='6040'>0.32528E+02</wgt>
<wgt id='6041'>0.32442E+02</wgt>
<wgt id='6042'>0.32556E+02</wgt>
<wgt id='6043'>0.32971E+02</wgt>
<wgt id='6044'>0.32250E+02</wgt>
<wgt id='6045'>0.32476E+02</wgt>
<wgt id='6046'>0.32536E+02</wgt>
<wgt id='6047'>0.32562E+02</wgt>
<wgt id='6048'>0.32041E+02</wgt>
<wgt id='6049'>0.32528E+02</wgt>
<wgt id='6050'>0.32449E+02</wgt>
<wgt id='7000'>0.30298E+02</wgt>
<wgt id='7001'>0.30283E+02</wgt>
<wgt id='7002'>0.30317E+02</wgt>
<wgt id='7003'>0.30398E+02</wgt>
<wgt id='7004'>0.30198E+02</wgt>
<wgt id='7005'>0.30357E+02</wgt>
<wgt id='7006'>0.30274E+02</wgt>
<wgt id='7007'>0.30127E+02</wgt>
<wgt id='7008'>0.30468E+02</wgt>
<wgt id='7009'>0.30353E+02</wgt>
<wgt id='7010'>0.30244E+02</wgt>
<wgt id='7011'>0.29943E+02</wgt>
<wgt id='7012'>0.30451E+02</wgt>
<wgt id='7013'>0.30304E+02</wgt>
<wgt id='7014'>0.30289E+02</wgt>
<wgt id='7015'>0.30184E+02</wgt>
<wgt id='7016'>0.30420E+02</wgt>
<wgt id='7017'>0.30235E+02</wgt>
<wgt id='7018'>0.30329E+02</wgt>
<wgt id='7019'>0.30242E+02</wgt>
<wgt id='7020'>0.30373E+02</wgt>
<wgt id='7021'>0.30289E+02</wgt>
<wgt id='7022'>0.30302E+02</wgt>
<wgt id='7023'>0.30750E+02</wgt>
<wgt id='7024'>0.29861E+02</wgt>
<wgt id='7025'>0.30467E+02</wgt>
<wgt id='7026'>0.29886E+02</wgt>
<wgt id='7027'>0.30479E+02</wgt>
<wgt id='7028'>0.30226E+02</wgt>
<wgt id='7029'>0.30109E+02</wgt>
<wgt id='7030'>0.30783E+02</wgt>
<wgt id='7031'>0.30306E+02</wgt>
<wgt id='7032'>0.30288E+02</wgt>
<wgt id='7033'>0.30241E+02</wgt>
<wgt id='7034'>0.30430E+02</wgt>
<wgt id='7035'>0.30413E+02</wgt>
<wgt id='7036'>0.30267E+02</wgt>
<wgt id='7037'>0.30311E+02</wgt>
<wgt id='7038'>0.30303E+02</wgt>
<wgt id='7039'>0.30266E+02</wgt>
<wgt id='7040'>0.30318E+02</wgt>
<wgt id='7041'>0.30161E+02</wgt>
<wgt id='7042'>0.30442E+02</wgt>
<wgt id='7043'>0.30331E+02</wgt>
<wgt id='7044'>0.30101E+02</wgt>
<wgt id='7045'>0.29916E+02</wgt>
<wgt id='7046'>0.30442E+02</wgt>
<wgt id='7047'>0.30348E+02</wgt>
<wgt id='7048'>0.30263E+02</wgt>
<wgt id='7049'>0.30163E+02</wgt>
<wgt id='7050'>0.30291E+02</wgt>
<wgt id='7060'>0.43931E+02</wgt>
<wgt id='8000'>0.31127E+02</wgt>
<wgt id='8001'>0.31119E+02</wgt>
<wgt id='8002'>0.31137E+02</wgt>
<wgt id='8003'>0.31131E+02</wgt>
<wgt id='8004'>0.31126E+02</wgt>
<wgt id='8005'>0.31045E+02</wgt>
<wgt id='8006'>0.31103E+02</wgt>
<wgt id='8007'>0.31083E+02</wgt>
<wgt id='8008'>0.31201E+02</wgt>
<wgt id='8009'>0.31276E+02</wgt>
<wgt id='8010'>0.31123E+02</wgt>
<wgt id='8011'>0.31108E+02</wgt>
<wgt id='8012'>0.31072E+02</wgt>
<wgt id='8013'>0.31123E+02</wgt>
<wgt id='8014'>0.31114E+02</wgt>
<wgt id='8015'>0.31102E+02</wgt>
<wgt id='8016'>0.31140E+02</wgt>
<wgt id='8017'>0.31134E+02</wgt>
<wgt id='8018'>0.31124E+02</wgt>
<wgt id='8019'>0.31211E+02</wgt>
<wgt id='8020'>0.30974E+02</wgt>
<wgt id='8021'>0.31138E+02</wgt>
<wgt id='8022'>0.30848E+02</wgt>
<wgt id='8023'>0.31191E+02</wgt>
<wgt id='8024'>0.31231E+02</wgt>
<wgt id='8025'>0.31288E+02</wgt>
<wgt id='8026'>0.31214E+02</wgt>
<wgt id='8027'>0.31054E+02</wgt>
<wgt id='8028'>0.31177E+02</wgt>
<wgt id='8029'>0.30696E+02</wgt>
<wgt id='8500'>0.31974E+02</wgt>
<wgt id='8501'>0.31941E+02</wgt>
<wgt id='8502'>0.32339E+02</wgt>
<wgt id='8503'>0.32213E+02</wgt>
<wgt id='8504'>0.31898E+02</wgt>
<wgt id='8505'>0.31807E+02</wgt>
<wgt id='8506'>0.31918E+02</wgt>
<wgt id='8507'>0.32134E+02</wgt>
<wgt id='8508'>0.32432E+02</wgt>
<wgt id='8509'>0.31788E+02</wgt>
<wgt id='8510'>0.32597E+02</wgt>
<wgt id='8511'>0.32018E+02</wgt>
<wgt id='8512'>0.31480E+02</wgt>
<wgt id='8513'>0.31992E+02</wgt>
<wgt id='8514'>0.31680E+02</wgt>
<wgt id='8515'>0.32013E+02</wgt>
<wgt id='8516'>0.32085E+02</wgt>
<wgt id='8517'>0.31822E+02</wgt>
<wgt id='8518'>0.31812E+02</wgt>
<wgt id='8519'>0.31806E+02</wgt>
<wgt id='8520'>0.32110E+02</wgt>
<wgt id='8521'>0.31805E+02</wgt>
<wgt id='8522'>0.31942E+02</wgt>
<wgt id='8523'>0.31925E+02</wgt>
<wgt id='8524'>0.31977E+02</wgt>
<wgt id='8525'>0.31940E+02</wgt>
<wgt id='8526'>0.31955E+02</wgt>
<wgt id='8527'>0.31997E+02</wgt>
<wgt id='8528'>0.31875E+02</wgt>
<wgt id='8529'>0.31962E+02</wgt>
<wgt id='8530'>0.31947E+02</wgt>
<wgt id='8531'>0.31960E+02</wgt>
<wgt id='8532'>0.31982E+02</wgt>
<wgt id='8533'>0.31923E+02</wgt>
<wgt id='8534'>0.32004E+02</wgt>
<wgt id='8535'>0.32045E+02</wgt>
<wgt id='8536'>0.31958E+02</wgt>
<wgt id='8537'>0.31987E+02</wgt>
<wgt id='8538'>0.31939E+02</wgt>
<wgt id='8539'>0.31976E+02</wgt>
<wgt id='8540'>0.31978E+02</wgt>
<wgt id='8541'>0.31985E+02</wgt>
<wgt id='8542'>0.32002E+02</wgt>
<wgt id='8543'>0.31943E+02</wgt>
<wgt id='8544'>0.31997E+02</wgt>
<wgt id='8545'>0.32007E+02</wgt>
<wgt id='8546'>0.31988E+02</wgt>
<wgt id='8547'>0.31953E+02</wgt>
<wgt id='8548'>0.31938E+02</wgt>
<wgt id='8549'>0.31970E+02</wgt>
<wgt id='8550'>0.31986E+02</wgt>
<wgt id='8551'>0.31928E+02</wgt>
<wgt id='8552'>0.31987E+02</wgt>
<wgt id='8553'>0.31972E+02</wgt>
<wgt id='8554'>0.31953E+02</wgt>
<wgt id='8555'>0.31980E+02</wgt>
<wgt id='8556'>0.31975E+02</wgt>
<wgt id='8557'>0.31960E+02</wgt>
<wgt id='8558'>0.32008E+02</wgt>
<wgt id='8559'>0.31961E+02</wgt>
<wgt id='8560'>0.31939E+02</wgt>
<wgt id='8561'>0.31964E+02</wgt>
<wgt id='8562'>0.31954E+02</wgt>
<wgt id='8563'>0.31978E+02</wgt>
<wgt id='8564'>0.31968E+02</wgt>
<wgt id='8565'>0.31966E+02</wgt>
<wgt id='8566'>0.31964E+02</wgt>
<wgt id='8567'>0.31965E+02</wgt>
<wgt id='8568'>0.31981E+02</wgt>
<wgt id='8569'>0.31977E+02</wgt>
<wgt id='8570'>0.31969E+02</wgt>
<wgt id='8571'>0.31969E+02</wgt>
<wgt id='8572'>0.31977E+02</wgt>
<wgt id='8573'>0.31965E+02</wgt>
<wgt id='8574'>0.31977E+02</wgt>
<wgt id='8575'>0.31965E+02</wgt>
<wgt id='8576'>0.31976E+02</wgt>
<wgt id='8577'>0.31985E+02</wgt>
<wgt id='8578'>0.31975E+02</wgt>
<wgt id='8579'>0.31993E+02</wgt>
<wgt id='8580'>0.31984E+02</wgt>
<wgt id='8581'>0.31973E+02</wgt>
<wgt id='8582'>0.31956E+02</wgt>
<wgt id='8583'>0.31977E+02</wgt>
<wgt id='8584'>0.31973E+02</wgt>
<wgt id='8585'>0.31971E+02</wgt>
<wgt id='8586'>0.31981E+02</wgt>
<wgt id='8587'>0.31965E+02</wgt>
<wgt id='8588'>0.31967E+02</wgt>
<wgt id='8589'>0.31980E+02</wgt>
<wgt id='8590'>0.31973E+02</wgt>
<wgt id='8591'>0.31974E+02</wgt>
<wgt id='8592'>0.31978E+02</wgt>
<wgt id='8593'>0.31964E+02</wgt>
<wgt id='8594'>0.31978E+02</wgt>
<wgt id='8595'>0.31975E+02</wgt>
<wgt id='8596'>0.31971E+02</wgt>
<wgt id='8597'>0.31974E+02</wgt>
<wgt id='8598'>0.31977E+02</wgt>
<wgt id='8599'>0.31977E+02</wgt>
<wgt id='8600'>0.31977E+02</wgt>
<wgt id='8601'>0.31522E+02</wgt>
<wgt id='8602'>0.32320E+02</wgt>
<wgt id='9000'>0.30366E+02</wgt>
<wgt id='9001'>0.30368E+02</wgt>
<wgt id='9002'>0.30562E+02</wgt>
<wgt id='9003'>0.30031E+02</wgt>
<wgt id='9004'>0.30269E+02</wgt>
<wgt id='9005'>0.30509E+02</wgt>
<wgt id='9006'>0.30265E+02</wgt>
<wgt id='9007'>0.30374E+02</wgt>
<wgt id='9008'>0.30443E+02</wgt>
<wgt id='9009'>0.30327E+02</wgt>
<wgt id='9010'>0.30248E+02</wgt>
<wgt id='9011'>0.30820E+02</wgt>
<wgt id='9012'>0.29965E+02</wgt>
<wgt id='9013'>0.29792E+02</wgt>
<wgt id='9014'>0.29962E+02</wgt>
<wgt id='9015'>0.30365E+02</wgt>
<wgt id='9016'>0.30679E+02</wgt>
<wgt id='9017'>0.30332E+02</wgt>
<wgt id='9018'>0.30299E+02</wgt>
<wgt id='9019'>0.30300E+02</wgt>
<wgt id='9020'>0.30619E+02</wgt>
<wgt id='9021'>0.30401E+02</wgt>
<wgt id='9022'>0.30408E+02</wgt>
<wgt id='9023'>0.30377E+02</wgt>
<wgt id='9024'>0.30317E+02</wgt>
<wgt id='9025'>0.30438E+02</wgt>
<wgt id='9026'>0.30395E+02</wgt>
<wgt id='9027'>0.30294E+02</wgt>
<wgt id='9028'>0.30403E+02</wgt>
<wgt id='9029'>0.30395E+02</wgt>
<wgt id='9030'>0.30352E+02</wgt>
<wgt id='9031'>0.30375E+02</wgt>
<wgt id='9032'>0.30391E+02</wgt>
<wgt id='9033'>0.30408E+02</wgt>
<wgt id='9034'>0.30338E+02</wgt>
<wgt id='9035'>0.30429E+02</wgt>
<wgt id='9036'>0.30358E+02</wgt>
<wgt id='9037'>0.30398E+02</wgt>
<wgt id='9038'>0.30357E+02</wgt>
<wgt id='9039'>0.30368E+02</wgt>
<wgt id='9040'>0.30326E+02</wgt>
<wgt id='9041'>0.30341E+02</wgt>
<wgt id='9042'>0.30345E+02</wgt>
<wgt id='9043'>0.30344E+02</wgt>
<wgt id='9044'>0.30383E+02</wgt>
<wgt id='9045'>0.30349E+02</wgt>
<wgt id='9046'>0.30319E+02</wgt>
<wgt id='9047'>0.30339E+02</wgt>
<wgt id='9048'>0.30370E+02</wgt>
<wgt id='9049'>0.30348E+02</wgt>
<wgt id='9050'>0.30383E+02</wgt>
<wgt id='9051'>0.30375E+02</wgt>
<wgt id='9052'>0.30361E+02</wgt>
<wgt id='9053'>0.30366E+02</wgt>
<wgt id='9054'>0.30355E+02</wgt>
<wgt id='9055'>0.30370E+02</wgt>
<wgt id='9056'>0.30400E+02</wgt>
<wgt id='9057'>0.30367E+02</wgt>
<wgt id='9058'>0.30351E+02</wgt>
<wgt id='9059'>0.30354E+02</wgt>
<wgt id='9060'>0.30354E+02</wgt>
<wgt id='9061'>0.30376E+02</wgt>
<wgt id='9062'>0.30369E+02</wgt>
<wgt id='9063'>0.30384E+02</wgt>
<wgt id='9064'>0.30353E+02</wgt>
<wgt id='9065'>0.30374E+02</wgt>
<wgt id='9066'>0.30379E+02</wgt>
<wgt id='9067'>0.30374E+02</wgt>
<wgt id='9068'>0.30384E+02</wgt>
<wgt id='9069'>0.30368E+02</wgt>
<wgt id='9070'>0.30366E+02</wgt>
<wgt id='9071'>0.30382E+02</wgt>
<wgt id='9072'>0.30379E+02</wgt>
<wgt id='9073'>0.30358E+02</wgt>
<wgt id='9074'>0.30373E+02</wgt>
<wgt id='9075'>0.30365E+02</wgt>
<wgt id='9076'>0.30361E+02</wgt>
<wgt id='9077'>0.30369E+02</wgt>
<wgt id='9078'>0.30361E+02</wgt>
<wgt id='9079'>0.30359E+02</wgt>
<wgt id='9080'>0.30385E+02</wgt>
<wgt id='9081'>0.30353E+02</wgt>
<wgt id='9082'>0.30371E+02</wgt>
<wgt id='9083'>0.30355E+02</wgt>
<wgt id='9084'>0.30364E+02</wgt>
<wgt id='9085'>0.30366E+02</wgt>
<wgt id='9086'>0.30371E+02</wgt>
<wgt id='9087'>0.30353E+02</wgt>
<wgt id='9088'>0.30369E+02</wgt>
<wgt id='9089'>0.30365E+02</wgt>
<wgt id='9090'>0.30372E+02</wgt>
<wgt id='9091'>0.30362E+02</wgt>
<wgt id='9092'>0.30366E+02</wgt>
<wgt id='9093'>0.30362E+02</wgt>
<wgt id='9094'>0.30365E+02</wgt>
<wgt id='9095'>0.30367E+02</wgt>
<wgt id='9096'>0.30365E+02</wgt>
<wgt id='9097'>0.30367E+02</wgt>
<wgt id='9098'>0.30369E+02</wgt>
<wgt id='9099'>0.30357E+02</wgt>
<wgt id='9100'>0.30368E+02</wgt>
<wgt id='9101'>0.30090E+02</wgt>
<wgt id='9102'>0.30533E+02</wgt>
<wgt id='10000'>0.31973E+02</wgt>
<wgt id='10001'>0.32188E+02</wgt>
<wgt id='10002'>0.31978E+02</wgt>
<wgt id='10003'>0.31994E+02</wgt>
<wgt id='10004'>0.31992E+02</wgt>
<wgt id='10005'>0.33076E+02</wgt>
<wgt id='10006'>0.31983E+02</wgt>
<wgt id='10007'>0.31967E+02</wgt>
<wgt id='10008'>0.32058E+02</wgt>
<wgt id='10009'>0.31936E+02</wgt>
<wgt id='10010'>0.32013E+02</wgt>
<wgt id='10011'>0.31962E+02</wgt>
<wgt id='10012'>0.31924E+02</wgt>
<wgt id='10013'>0.31956E+02</wgt>
<wgt id='10014'>0.31965E+02</wgt>
<wgt id='10015'>0.32010E+02</wgt>
<wgt id='10016'>0.31956E+02</wgt>
<wgt id='10017'>0.31781E+02</wgt>
<wgt id='10018'>0.32000E+02</wgt>
<wgt id='10019'>0.31999E+02</wgt>
<wgt id='10020'>0.31950E+02</wgt>
<wgt id='10021'>0.31961E+02</wgt>
<wgt id='10022'>0.31842E+02</wgt>
<wgt id='10023'>0.31989E+02</wgt>
<wgt id='10024'>0.31979E+02</wgt>
<wgt id='10025'>0.31951E+02</wgt>
<wgt id='10026'>0.32013E+02</wgt>
<wgt id='10027'>0.31998E+02</wgt>
<wgt id='10028'>0.32165E+02</wgt>
<wgt id='10029'>0.31999E+02</wgt>
<wgt id='10030'>0.31977E+02</wgt>
<wgt id='10031'>0.31522E+02</wgt>
<wgt id='10032'>0.32320E+02</wgt>
<wgt id='11000'>0.30365E+02</wgt>
<wgt id='11001'>0.30250E+02</wgt>
<wgt id='11002'>0.30532E+02</wgt>
<wgt id='11003'>0.30319E+02</wgt>
<wgt id='11004'>0.30556E+02</wgt>
<wgt id='11005'>0.29748E+02</wgt>
<wgt id='11006'>0.30362E+02</wgt>
<wgt id='11007'>0.30271E+02</wgt>
<wgt id='11008'>0.30267E+02</wgt>
<wgt id='11009'>0.30199E+02</wgt>
<wgt id='11010'>0.30473E+02</wgt>
<wgt id='11011'>0.30170E+02</wgt>
<wgt id='11012'>0.30418E+02</wgt>
<wgt id='11013'>0.30490E+02</wgt>
<wgt id='11014'>0.30267E+02</wgt>
<wgt id='11015'>0.30343E+02</wgt>
<wgt id='11016'>0.30305E+02</wgt>
<wgt id='11017'>0.30681E+02</wgt>
<wgt id='11018'>0.30362E+02</wgt>
<wgt id='11019'>0.30345E+02</wgt>
<wgt id='11020'>0.30424E+02</wgt>
<wgt id='11021'>0.30473E+02</wgt>
<wgt id='11022'>0.31112E+02</wgt>
<wgt id='11023'>0.30351E+02</wgt>
<wgt id='11024'>0.30358E+02</wgt>
<wgt id='11025'>0.30331E+02</wgt>
<wgt id='11026'>0.30373E+02</wgt>
<wgt id='11027'>0.30334E+02</wgt>
<wgt id='11028'>0.30368E+02</wgt>
<wgt id='11029'>0.30448E+02</wgt>
<wgt id='11030'>0.30368E+02</wgt>
<wgt id='11031'>0.30090E+02</wgt>
<wgt id='11032'>0.30533E+02</wgt>
<wgt id='12000'>0.34896E+02</wgt>
<wgt id='12001'>0.34842E+02</wgt>
<wgt id='12002'>0.34950E+02</wgt>
<wgt id='12003'>0.34999E+02</wgt>
<wgt id='12004'>0.34793E+02</wgt>
<wgt id='12005'>0.34982E+02</wgt>
<wgt id='12006'>0.34810E+02</wgt>
<wgt id='12007'>0.35014E+02</wgt>
<wgt id='12008'>0.34782E+02</wgt>
<wgt id='12009'>0.34979E+02</wgt>
<wgt id='12010'>0.34814E+02</wgt>
<wgt id='12011'>0.34778E+02</wgt>
<wgt id='12012'>0.35021E+02</wgt>
<wgt id='12013'>0.34721E+02</wgt>
<wgt id='12014'>0.35073E+02</wgt>
<wgt id='12015'>0.34908E+02</wgt>
<wgt id='12016'>0.34832E+02</wgt>
<wgt id='12017'>0.35052E+02</wgt>
<wgt id='12018'>0.34733E+02</wgt>
<wgt id='12019'>0.34734E+02</wgt>
<wgt id='12020'>0.35050E+02</wgt>
<wgt id='12021'>0.35063E+02</wgt>
<wgt id='12022'>0.34677E+02</wgt>
<wgt id='12023'>0.34700E+02</wgt>
<wgt id='12024'>0.34850E+02</wgt>
<wgt id='12025'>0.35016E+02</wgt>
<wgt id='12026'>0.34843E+02</wgt>
<wgt id='12027'>0.34925E+02</wgt>
<wgt id='12028'>0.34900E+02</wgt>
<wgt id='12050'>0.34896E+02</wgt>
<wgt id='12051'>0.34807E+02</wgt>
<wgt id='12052'>0.34972E+02</wgt>
<wgt id='12053'>0.34786E+02</wgt>
<wgt id='12054'>0.34950E+02</wgt>
<wgt id='12055'>0.35088E+02</wgt>
<wgt id='12056'>0.34543E+02</wgt>
<wgt id='12057'>0.34743E+02</wgt>
<wgt id='12058'>0.35041E+02</wgt>
<wgt id='12059'>0.34801E+02</wgt>
<wgt id='12060'>0.35002E+02</wgt>
<wgt id='12061'>0.34851E+02</wgt>
<wgt id='12062'>0.34992E+02</wgt>
<wgt id='12063'>0.34319E+02</wgt>
<wgt id='13000'>0.30977E+02</wgt>
<wgt id='13001'>0.30951E+02</wgt>
<wgt id='13002'>0.30997E+02</wgt>
<wgt id='13003'>0.31020E+02</wgt>
<wgt id='13004'>0.30929E+02</wgt>
<wgt id='13005'>0.31078E+02</wgt>
<wgt id='13006'>0.30870E+02</wgt>
<wgt id='13007'>0.31137E+02</wgt>
<wgt id='13008'>0.30815E+02</wgt>
<wgt id='13009'>0.30966E+02</wgt>
<wgt id='13010'>0.30983E+02</wgt>
<wgt id='13011'>0.31100E+02</wgt>
<wgt id='13012'>0.30848E+02</wgt>
<wgt id='13013'>0.30853E+02</wgt>
<wgt id='13014'>0.31095E+02</wgt>
<wgt id='13015'>0.30909E+02</wgt>
<wgt id='13016'>0.31008E+02</wgt>
<wgt id='13017'>0.30957E+02</wgt>
<wgt id='13018'>0.30983E+02</wgt>
<wgt id='13019'>0.30877E+02</wgt>
<wgt id='13020'>0.31069E+02</wgt>
<wgt id='13021'>0.30619E+02</wgt>
<wgt id='13022'>0.31266E+02</wgt>
<wgt id='13023'>0.31037E+02</wgt>
<wgt id='13024'>0.30906E+02</wgt>
<wgt id='13025'>0.30892E+02</wgt>
<wgt id='13026'>0.30954E+02</wgt>
<wgt id='13027'>0.31021E+02</wgt>
<wgt id='13028'>0.30971E+02</wgt>
<wgt id='13050'>0.30977E+02</wgt>
<wgt id='13051'>0.30949E+02</wgt>
<wgt id='13052'>0.30926E+02</wgt>
<wgt id='13053'>0.30916E+02</wgt>
<wgt id='13054'>0.30983E+02</wgt>
<wgt id='13055'>0.31045E+02</wgt>
<wgt id='13056'>0.30812E+02</wgt>
<wgt id='13057'>0.30845E+02</wgt>
<wgt id='13058'>0.31176E+02</wgt>
<wgt id='13059'>0.30854E+02</wgt>
<wgt id='13060'>0.31152E+02</wgt>
<wgt id='13061'>0.30858E+02</wgt>
<wgt id='13062'>0.31304E+02</wgt>
<wgt id='13063'>0.30665E+02</wgt>
<wgt id='14000'>0.31499E+02</wgt>
<wgt id='14001'>0.31494E+02</wgt>
<wgt id='14002'>0.31489E+02</wgt>
<wgt id='14003'>0.31483E+02</wgt>
<wgt id='14004'>0.31478E+02</wgt>
<wgt id='14005'>0.31472E+02</wgt>
<wgt id='14006'>0.31467E+02</wgt>
<wgt id='14007'>0.31461E+02</wgt>
<wgt id='14008'>0.31456E+02</wgt>
<wgt id='14009'>0.31451E+02</wgt>
<wgt id='14010'>0.31445E+02</wgt>
<wgt id='14011'>0.31440E+02</wgt>
<wgt id='14012'>0.31434E+02</wgt>
<wgt id='14013'>0.31429E+02</wgt>
<wgt id='14014'>0.31424E+02</wgt>
<wgt id='14015'>0.31418E+02</wgt>
<wgt id='14016'>0.31413E+02</wgt>
<wgt id='14017'>0.31407E+02</wgt>
<wgt id='14018'>0.31402E+02</wgt>
<wgt id='14019'>0.31396E+02</wgt>
<wgt id='14020'>0.31391E+02</wgt>
<wgt id='14021'>0.31386E+02</wgt>
<wgt id='14022'>0.31380E+02</wgt>
<wgt id='14023'>0.31375E+02</wgt>
<wgt id='14024'>0.31370E+02</wgt>
<wgt id='14025'>0.31364E+02</wgt>
<wgt id='14026'>0.31359E+02</wgt>
<wgt id='14027'>0.31353E+02</wgt>
<wgt id='14028'>0.31348E+02</wgt>
<wgt id='14029'>0.31342E+02</wgt>
<wgt id='14030'>0.31337E+02</wgt>
<wgt id='15000'>0.29987E+02</wgt>
<wgt id='15001'>0.29987E+02</wgt>
<wgt id='15002'>0.30180E+02</wgt>
<wgt id='15003'>0.29657E+02</wgt>
<wgt id='15004'>0.29891E+02</wgt>
<wgt id='15005'>0.30128E+02</wgt>
<wgt id='15006'>0.29889E+02</wgt>
<wgt id='15007'>0.29996E+02</wgt>
<wgt id='15008'>0.30062E+02</wgt>
<wgt id='15009'>0.29949E+02</wgt>
<wgt id='15010'>0.29870E+02</wgt>
<wgt id='15011'>0.30438E+02</wgt>
<wgt id='15012'>0.29592E+02</wgt>
<wgt id='15013'>0.29421E+02</wgt>
<wgt id='15014'>0.29587E+02</wgt>
<wgt id='15015'>0.29983E+02</wgt>
<wgt id='15016'>0.30299E+02</wgt>
<wgt id='15017'>0.29952E+02</wgt>
<wgt id='15018'>0.29920E+02</wgt>
<wgt id='15019'>0.29923E+02</wgt>
<wgt id='15020'>0.30238E+02</wgt>
<wgt id='15021'>0.30018E+02</wgt>
<wgt id='15022'>0.30029E+02</wgt>
<wgt id='15023'>0.29996E+02</wgt>
<wgt id='15024'>0.29937E+02</wgt>
<wgt id='15025'>0.30058E+02</wgt>
<wgt id='15026'>0.30014E+02</wgt>
<wgt id='15027'>0.29916E+02</wgt>
<wgt id='15028'>0.30024E+02</wgt>
<wgt id='15029'>0.30016E+02</wgt>
<wgt id='15030'>0.29971E+02</wgt>
<wgt id='15031'>0.29997E+02</wgt>
<wgt id='15032'>0.30012E+02</wgt>
<wgt id='15033'>0.30029E+02</wgt>
<wgt id='15034'>0.29959E+02</wgt>
<wgt id='15035'>0.30050E+02</wgt>
<wgt id='15036'>0.29979E+02</wgt>
<wgt id='15037'>0.30019E+02</wgt>
<wgt id='15038'>0.29978E+02</wgt>
<wgt id='15039'>0.29989E+02</wgt>
<wgt id='15040'>0.29947E+02</wgt>
<wgt id='15041'>0.29962E+02</wgt>
<wgt id='15042'>0.29967E+02</wgt>
<wgt id='15043'>0.29966E+02</wgt>
<wgt id='15044'>0.30004E+02</wgt>
<wgt id='15045'>0.29970E+02</wgt>
<wgt id='15046'>0.29941E+02</wgt>
<wgt id='15047'>0.29960E+02</wgt>
<wgt id='15048'>0.29991E+02</wgt>
<wgt id='15049'>0.29969E+02</wgt>
<wgt id='15050'>0.30004E+02</wgt>
<wgt id='15051'>0.29996E+02</wgt>
<wgt id='15052'>0.29982E+02</wgt>
<wgt id='15053'>0.29987E+02</wgt>
<wgt id='15054'>0.29976E+02</wgt>
<wgt id='15055'>0.29991E+02</wgt>
<wgt id='15056'>0.30020E+02</wgt>
<wgt id='15057'>0.29988E+02</wgt>
<wgt id='15058'>0.29973E+02</wgt>
<wgt id='15059'>0.29975E+02</wgt>
<wgt id='15060'>0.29976E+02</wgt>
<wgt id='15061'>0.29997E+02</wgt>
<wgt id='15062'>0.29990E+02</wgt>
<wgt id='15063'>0.30004E+02</wgt>
<wgt id='15064'>0.29974E+02</wgt>
<wgt id='15065'>0.29995E+02</wgt>
<wgt id='15066'>0.30000E+02</wgt>
<wgt id='15067'>0.29995E+02</wgt>
<wgt id='15068'>0.30005E+02</wgt>
<wgt id='15069'>0.29989E+02</wgt>
<wgt id='15070'>0.29986E+02</wgt>
<wgt id='15071'>0.30003E+02</wgt>
<wgt id='15072'>0.29999E+02</wgt>
<wgt id='15073'>0.29979E+02</wgt>
<wgt id='15074'>0.29994E+02</wgt>
<wgt id='15075'>0.29986E+02</wgt>
<wgt id='15076'>0.29983E+02</wgt>
<wgt id='15077'>0.29990E+02</wgt>
<wgt id='15078'>0.29982E+02</wgt>
<wgt id='15079'>0.29981E+02</wgt>
<wgt id='15080'>0.30005E+02</wgt>
<wgt id='15081'>0.29974E+02</wgt>
<wgt id='15082'>0.29992E+02</wgt>
<wgt id='15083'>0.29976E+02</wgt>
<wgt id='15084'>0.29985E+02</wgt>
<wgt id='15085'>0.29987E+02</wgt>
<wgt id='15086'>0.29992E+02</wgt>
<wgt id='15087'>0.29974E+02</wgt>
<wgt id='15088'>0.29990E+02</wgt>
<wgt id='15089'>0.29986E+02</wgt>
<wgt id='15090'>0.29993E+02</wgt>
<wgt id='15091'>0.29983E+02</wgt>
<wgt id='15092'>0.29987E+02</wgt>
<wgt id='15093'>0.29983E+02</wgt>
<wgt id='15094'>0.29986E+02</wgt>
<wgt id='15095'>0.29988E+02</wgt>
<wgt id='15096'>0.29986E+02</wgt>
<wgt id='15097'>0.29988E+02</wgt>
<wgt id='15098'>0.29990E+02</wgt>
<wgt id='15099'>0.29978E+02</wgt>
<wgt id='15100'>0.29989E+02</wgt>
<wgt id='15101'>0.29987E+02</wgt>
<wgt id='15102'>0.29985E+02</wgt>
<wgt id='15103'>0.29988E+02</wgt>
<wgt id='15104'>0.29988E+02</wgt>
<wgt id='15105'>0.29989E+02</wgt>
<wgt id='15106'>0.29988E+02</wgt>
<wgt id='15107'>0.29986E+02</wgt>
<wgt id='1500'>0.31837E+02</wgt>
<wgt id='1501'>0.28773E+02</wgt>
<wgt id='1502'>0.31885E+02</wgt>
<wgt id='1503'>0.32017E+02</wgt>
<wgt id='1504'>0.31335E+02</wgt>
<wgt id='1505'>0.27119E+02</wgt>
<wgt id='1506'>0.31982E+02</wgt>
<wgt id='1507'>0.32383E+02</wgt>
<wgt id='1508'>0.31982E+02</wgt>
<wgt id='1509'>0.31982E+02</wgt>
<wgt id='1510'>0.30920E+02</wgt>
<wgt id='1511'>0.30702E+02</wgt>
<wgt id='1512'>0.32433E+02</wgt>
<wgt id='1513'>0.32174E+02</wgt>
<wgt id='1514'>0.30690E+02</wgt>
<wgt id='1515'>0.31897E+02</wgt>
<wgt id='1516'>0.32505E+02</wgt>
<wgt id='1517'>0.31077E+02</wgt>
<wgt id='1518'>0.31610E+02</wgt>
<wgt id='1519'>0.32381E+02</wgt>
<wgt id='1520'>0.32717E+02</wgt>
<wgt id='1521'>0.31761E+02</wgt>
<wgt id='1522'>0.31859E+02</wgt>
<wgt id='1523'>0.34788E+02</wgt>
<wgt id='1524'>0.31911E+02</wgt>
<wgt id='1525'>0.32248E+02</wgt>
<wgt id='1526'>0.31290E+02</wgt>
<wgt id='1527'>0.31170E+02</wgt>
<wgt id='1528'>0.31335E+02</wgt>
<wgt id='1529'>0.31486E+02</wgt>
<wgt id='1530'>0.32805E+02</wgt>
<wgt id='1531'>0.31731E+02</wgt>
<wgt id='1532'>0.30724E+02</wgt>
<wgt id='1533'>0.32409E+02</wgt>
<wgt id='1534'>0.32165E+02</wgt>
<wgt id='1535'>0.32769E+02</wgt>
<wgt id='1536'>0.32976E+02</wgt>
<wgt id='1537'>0.32179E+02</wgt>
<wgt id='1538'>0.32180E+02</wgt>
<wgt id='1539'>0.30540E+02</wgt>
<wgt id='1540'>0.32514E+02</wgt>
<wgt id='1541'>0.31919E+02</wgt>
<wgt id='1542'>0.32021E+02</wgt>
<wgt id='1543'>0.32494E+02</wgt>
<wgt id='1544'>0.31891E+02</wgt>
<wgt id='1545'>0.32571E+02</wgt>
<wgt id='1546'>0.32515E+02</wgt>
<wgt id='1547'>0.31250E+02</wgt>
<wgt id='1548'>0.31203E+02</wgt>
<wgt id='1549'>0.31910E+02</wgt>
<wgt id='1550'>0.31896E+02</wgt>
<wgt id='1551'>0.31998E+02</wgt>
<wgt id='1552'>0.31787E+02</wgt>
<wgt id='1553'>0.32649E+02</wgt>
<wgt id='1554'>0.31463E+02</wgt>
<wgt id='1555'>0.31867E+02</wgt>
<wgt id='1556'>0.30841E+02</wgt>
<wgt id='1557'>0.33111E+02</wgt>
<wgt id='1558'>0.31513E+02</wgt>
<wgt id='1559'>0.32384E+02</wgt>
<wgt id='1560'>0.31836E+02</wgt>
<wgt id='1561'>0.32176E+02</wgt>
<wgt id='1562'>0.32189E+02</wgt>
<wgt id='1563'>0.32251E+02</wgt>
<wgt id='1564'>0.31146E+02</wgt>
<wgt id='1565'>0.32374E+02</wgt>
<wgt id='1566'>0.32093E+02</wgt>
<wgt id='1567'>0.33856E+02</wgt>
<wgt id='1568'>0.31142E+02</wgt>
<wgt id='1569'>0.30620E+02</wgt>
<wgt id='1570'>0.31779E+02</wgt>
<wgt id='1571'>0.32944E+02</wgt>
<wgt id='1572'>0.31750E+02</wgt>
<wgt id='1573'>0.28961E+02</wgt>
<wgt id='1574'>0.31892E+02</wgt>
<wgt id='1575'>0.31502E+02</wgt>
<wgt id='1576'>0.31147E+02</wgt>
<wgt id='1577'>0.32119E+02</wgt>
<wgt id='1578'>0.32710E+02</wgt>
<wgt id='1579'>0.31694E+02</wgt>
<wgt id='1580'>0.31932E+02</wgt>
<wgt id='1581'>0.32162E+02</wgt>
<wgt id='1582'>0.31412E+02</wgt>
<wgt id='1583'>0.32162E+02</wgt>
<wgt id='1584'>0.32000E+02</wgt>
<wgt id='1585'>0.30869E+02</wgt>
<wgt id='1586'>0.31539E+02</wgt>
<wgt id='1587'>0.31810E+02</wgt>
<wgt id='1588'>0.31772E+02</wgt>
<wgt id='1589'>0.32592E+02</wgt>
<wgt id='1590'>0.31606E+02</wgt>
<wgt id='1591'>0.31035E+02</wgt>
<wgt id='1592'>0.32791E+02</wgt>
<wgt id='1593'>0.31522E+02</wgt>
<wgt id='1594'>0.32614E+02</wgt>
<wgt id='1595'>0.30894E+02</wgt>
<wgt id='1596'>0.32468E+02</wgt>
<wgt id='1597'>0.32112E+02</wgt>
<wgt id='1598'>0.33665E+02</wgt>
<wgt id='1599'>0.32711E+02</wgt>
<wgt id='1600'>0.31743E+02</wgt>
<wgt id='1601'>0.31476E+02</wgt>
<wgt id='1602'>0.31961E+02</wgt>
<wgt id='1700'>0.30780E+02</wgt>
<wgt id='1800'>0.37365E+02</wgt>
<wgt id='1850'>0.43692E+02</wgt>
<wgt id='1900'>0.37146E+02</wgt>
<wgt id='1950'>0.41983E+02</wgt>
</rwgt>
</event>
<event>
      4   9999  3.15120E+01  1.99544E+01 -1.00000E+00  1.63552E-01
      -4    -1     0     0     0   501  0.000000000E+00  0.000000000E+00  1.697489672E+02  1.697489672E+02  0.000000000E+00  0.00000E+00  9.000E+00
      21    -1     0     0   501   502  0.000000000E+00  0.000000000E+00 -1.183960015E+02  1.183960015E+02  0.000000000E+00  0.00000E+00  9.000E+00
      25     1     1     2     0     0  1.353459366E+01 -1.466268982E+01 -8.624496099E+01  1.491076746E+02  1.199863561E+02  0.00000E+00  9.000E+00
      -4     1     1     2     0   502 -1.353459366E+01  1.466268982E+01  1.375979267E+02  1.390372940E+02  1.907348633E-06  0.00000E+00  9.000E+00
#rwgt            1           1   27.580714610206734                2        3652           0
<rwgt>
<wgt id='1001'>0.31512E+02</wgt>
<wgt id='1002'>0.35387E+02</wgt>
<wgt id='1003'>0.27459E+02</wgt>
<wgt id='1004'>0.26303E+02</wgt>
<wgt id='1005'>0.29350E+02</wgt>
<wgt id='1006'>0.23075E+02</wgt>
<wgt id='1007'>0.38489E+02</wgt>
<wgt id='1008'>0.43562E+02</wgt>
<wgt id='1009'>0.33257E+02</wgt>
<wgt id='2000'>0.31512E+02</wgt>
<wgt id='2001'>0.31471E+02</wgt>
<wgt id='2002'>0.31646E+02</wgt>
<wgt id='2003'>0.31628E+02</wgt>
<wgt id='2004'>0.31540E+02</wgt>
<wgt id='2005'>0.31441E+02</wgt>
<wgt id='2006'>0.31434E+02</wgt>
<wgt id='2007'>0.31396E+02</wgt>
<wgt id='2008'>0.31480E+02</wgt>
<wgt id='2009'>0.31533E+02</wgt>
<wgt id='2010'>0.31485E+02</wgt>
<wgt id='2011'>0.31666E+02</wgt>
<wgt id='2012'>0.31681E+02</wgt>
<wgt id='2013'>0.31777E+02</wgt>
<wgt id='2014'>0.31619E+02</wgt>
<wgt id='2015'>0.31578E+02</wgt>
<wgt id='2016'>0.31449E+02</wgt>
<wgt id='2017'>0.31509E+02</wgt>
<wgt id='2018'>0.31620E+02</wgt>
<wgt id='2019'>0.31497E+02</wgt>
<wgt id='2020'>0.31599E+02</wgt>
<wgt id='2021'>0.31467E+02</wgt>
<wgt id='2022'>0.31549E+02</wgt>
<wgt id='2023'>0.31543E+02</wgt>
<wgt id='2024'>0.31526E+02</wgt>
<wgt id='2025'>0.31537E+02</wgt>
<wgt id='2026'>0.31520E+02</wgt>
<wgt id='2027'>0.31496E+02</wgt>
<wgt id='2028'>0.31504E+02</wgt>
<wgt id='2029'>0.31536E+02</wgt>
<wgt id='2030'>0.31524E+02</wgt>
<wgt id='2031'>0.31512E+02</wgt>
<wgt id='2032'>0.31523E+02</wgt>
<wgt id='2033'>0.31521E+02</wgt>
<wgt id='2034'>0.31513E+02</wgt>
<wgt id='2035'>0.31507E+02</wgt>
<wgt id='2036'>0.31503E+02</wgt>
<wgt id='2037'>0.31522E+02</wgt>
<wgt id='2038'>0.31506E+02</wgt>
<wgt id='2039'>0.31500E+02</wgt>
<wgt id='2040'>0.31501E+02</wgt>
<wgt id='2041'>0.31500E+02</wgt>
<wgt id='2042'>0.31507E+02</wgt>
<wgt id='2043'>0.31503E+02</wgt>
<wgt id='2044'>0.31521E+02</wgt>
<wgt id='2045'>0.31508E+02</wgt>
<wgt id='2046'>0.31527E+02</wgt>
<wgt id='2047'>0.31517E+02</wgt>
<wgt id='2048'>0.31508E+02</wgt>
<wgt id='2049'>0.31510E+02</wgt>
<wgt id='2050'>0.31519E+02</wgt>
<wgt id='2051'>0.31523E+02</wgt>
<wgt id='2052'>0.31513E+02</wgt>
<wgt id='2053'>0.31518E+02</wgt>
<wgt id='2054'>0.31517E+02</wgt>
<wgt id='2055'>0.31509E+02</wgt>
<wgt id='2056'>0.31513E+02</wgt>
<wgt id='2057'>0.31519E+02</wgt>
<wgt id='2058'>0.31519E+02</wgt>
<wgt id='2059'>0.31508E+02</wgt>
<wgt id='2060'>0.31516E+02</wgt>
<wgt id='2061'>0.31504E+02</wgt>
<wgt id='2062'>0.31506E+02</wgt>
<wgt id='2063'>0.31519E+02</wgt>
<wgt id='2064'>0.31502E+02</wgt>
<wgt id='2065'>0.31506E+02</wgt>
<wgt id='2066'>0.31502E+02</wgt>
<wgt id='2067'>0.31514E+02</wgt>
<wgt id='2068'>0.31512E+02</wgt>
<wgt id='2069'>0.31510E+02</wgt>
<wgt id='2070'>0.31512E+02</wgt>
<wgt id='2071'>0.31500E+02</wgt>
<wgt id='2072'>0.31513E+02</wgt>
<wgt id='2073'>0.31509E+02</wgt>
<wgt id='2074'>0.31505E+02</wgt>
<wgt id='2075'>0.31512E+02</wgt>
<wgt id='2076'>0.31507E+02</wgt>
<wgt id='2077'>0.31510E+02</wgt>
<wgt id='2078'>0.31518E+02</wgt>
<wgt id='2079'>0.31513E+02</wgt>
<wgt id='2080'>0.31511E+02</wgt>
<wgt id='2081'>0.31515E+02</wgt>
<wgt id='2082'>0.31511E+02</wgt>
<wgt id='2083'>0.31510E+02</wgt>
<wgt id='2084'>0.31514E+02</wgt>
<wgt id='2085'>0.31516E+02</wgt>
<wgt id='2086'>0.31507E+02</wgt>
<wgt id='2087'>0.31510E+02</wgt>
<wgt id='2088'>0.31515E+02</wgt>
<wgt id='2089'>0.31510E+02</wgt>
<wgt id='2090'>0.31511E+02</wgt>
<wgt id='2091'>0.31511E+02</wgt>
<wgt id='2092'>0.31513E+02</wgt>
<wgt id='2093'>0.31510E+02</wgt>
<wgt id='2094'>0.31514E+02</wgt>
<wgt id='2095'>0.31513E+02</wgt>
<wgt id='2096'>0.31512E+02</wgt>
<wgt id='2097'>0.31514E+02</wgt>
<wgt id='2098'>0.31513E+02</wgt>
<wgt id='2099'>0.31512E+02</wgt>
<wgt id='2100'>0.31512E+02</wgt>
<wgt id='2101'>0.30686E+02</wgt>
<wgt id='2102'>0.32236E+02</wgt>
<wgt id='2104'>0.27709E+02</wgt>
<wgt id='2105'>0.28373E+02</wgt>
<wgt id='2106'>0.29138E+02</wgt>
<wgt id='2107'>0.29968E+02</wgt>
<wgt id='2108'>0.31181E+02</wgt>
<wgt id='2109'>0.31963E+02</wgt>
<wgt id='2110'>0.32968E+02</wgt>
<wgt id='2111'>0.33736E+02</wgt>
<wgt id='3000'>0.32908E+02</wgt>
<wgt id='3001'>0.33028E+02</wgt>
<wgt id='3002'>0.32771E+02</wgt>
<wgt id='3003'>0.33031E+02</wgt>
<wgt id='3004'>0.32977E+02</wgt>
<wgt id='3005'>0.33056E+02</wgt>
<wgt id='3006'>0.32956E+02</wgt>
<wgt id='3007'>0.32965E+02</wgt>
<wgt id='3008'>0.32812E+02</wgt>
<wgt id='3009'>0.32850E+02</wgt>
<wgt id='3010'>0.32788E+02</wgt>
<wgt id='3011'>0.32990E+02</wgt>
<wgt id='3012'>0.33142E+02</wgt>
<wgt id='3013'>0.32651E+02</wgt>
<wgt id='3014'>0.33030E+02</wgt>
<wgt id='3015'>0.33022E+02</wgt>
<wgt id='3016'>0.32925E+02</wgt>
<wgt id='3017'>0.33041E+02</wgt>
<wgt id='3018'>0.32949E+02</wgt>
<wgt id='3019'>0.32801E+02</wgt>
<wgt id='3020'>0.32880E+02</wgt>
<wgt id='3021'>0.32830E+02</wgt>
<wgt id='3022'>0.32903E+02</wgt>
<wgt id='3023'>0.32872E+02</wgt>
<wgt id='3024'>0.32900E+02</wgt>
<wgt id='3025'>0.32912E+02</wgt>
<wgt id='3026'>0.32919E+02</wgt>
<wgt id='3027'>0.32920E+02</wgt>
<wgt id='3028'>0.32884E+02</wgt>
<wgt id='3029'>0.32916E+02</wgt>
<wgt id='3030'>0.32933E+02</wgt>
<wgt id='3031'>0.32918E+02</wgt>
<wgt id='3032'>0.32906E+02</wgt>
<wgt id='3033'>0.32912E+02</wgt>
<wgt id='3034'>0.32913E+02</wgt>
<wgt id='3035'>0.32929E+02</wgt>
<wgt id='3036'>0.32916E+02</wgt>
<wgt id='3037'>0.32906E+02</wgt>
<wgt id='3038'>0.32909E+02</wgt>
<wgt id='3039'>0.32921E+02</wgt>
<wgt id='3040'>0.32896E+02</wgt>
<wgt id='3041'>0.32904E+02</wgt>
<wgt id='3042'>0.32900E+02</wgt>
<wgt id='3043'>0.32898E+02</wgt>
<wgt id='3044'>0.32918E+02</wgt>
<wgt id='3045'>0.32916E+02</wgt>
<wgt id='3046'>0.32915E+02</wgt>
<wgt id='3047'>0.32908E+02</wgt>
<wgt id='3048'>0.32908E+02</wgt>
<wgt id='3049'>0.32904E+02</wgt>
<wgt id='3050'>0.32903E+02</wgt>
<wgt id='3051'>0.32919E+02</wgt>
<wgt id='3052'>0.32903E+02</wgt>
<wgt id='3053'>0.32903E+02</wgt>
<wgt id='3054'>0.32907E+02</wgt>
<wgt id='3055'>0.32900E+02</wgt>
<wgt id='3056'>0.32912E+02</wgt>
<wgt id='3057'>0.32906E+02</wgt>
<wgt id='3058'>0.32899E+02</wgt>
<wgt id='3059'>0.32908E+02</wgt>
<wgt id='3060'>0.32911E+02</wgt>
<wgt id='3061'>0.32911E+02</wgt>
<wgt id='3062'>0.32915E+02</wgt>
<wgt id='3063'>0.32916E+02</wgt>
<wgt id='3064'>0.32905E+02</wgt>
<wgt id='3065'>0.32907E+02</wgt>
<wgt id='3066'>0.32911E+02</wgt>
<wgt id='3067'>0.32900E+02</wgt>
<wgt id='3068'>0.32910E+02</wgt>
<wgt id='3069'>0.32907E+02</wgt>
<wgt id='3070'>0.32911E+02</wgt>
<wgt id='3071'>0.32906E+02</wgt>
<wgt id='3072'>0.32909E+02</wgt>
<wgt id='3073'>0.32900E+02</wgt>
<wgt id='3074'>0.32914E+02</wgt>
<wgt id='3075'>0.32905E+02</wgt>
<wgt id='3076'>0.32909E+02</wgt>
<wgt id='3077'>0.32911E+02</wgt>
<wgt id='3078'>0.32908E+02</wgt>
<wgt id='3079'>0.32910E+02</wgt>
<wgt id='3080'>0.32903E+02</wgt>
<wgt id='3081'>0.32907E+02</wgt>
<wgt id='3082'>0.32905E+02</wgt>
<wgt id='3083'>0.32911E+02</wgt>
<wgt id='3084'>0.32909E+02</wgt>
<wgt id='3085'>0.32911E+02</wgt>
<wgt id='3086'>0.32911E+02</wgt>
<wgt id='3087'>0.32907E+02</wgt>
<wgt id='3088'>0.32908E+02</wgt>
<wgt id='3089'>0.32909E+02</wgt>
<wgt id='3090'>0.32910E+02</wgt>
<wgt id='3091'>0.32906E+02</wgt>
<wgt id='3092'>0.32906E+02</wgt>
<wgt id='3093'>0.32910E+02</wgt>
<wgt id='3094'>0.32911E+02</wgt>
<wgt id='3095'>0.32907E+02</wgt>
<wgt id='3096'>0.32902E+02</wgt>
<wgt id='3097'>0.32904E+02</wgt>
<wgt id='3098'>0.32904E+02</wgt>
<wgt id='3099'>0.32908E+02</wgt>
<wgt id='3100'>0.32909E+02</wgt>
<wgt id='3101'>0.32075E+02</wgt>
<wgt id='3102'>0.33865E+02</wgt>
<wgt id='5000'>0.30636E+02</wgt>
<wgt id='5001'>0.30510E+02</wgt>
<wgt id='5002'>0.30578E+02</wgt>
<wgt id='5003'>0.30433E+02</wgt>
<wgt id='5004'>0.30703E+02</wgt>
<wgt id='5005'>0.29974E+02</wgt>
<wgt id='5006'>0.31115E+02</wgt>
<wgt id='5007'>0.30803E+02</wgt>
<wgt id='5008'>0.30255E+02</wgt>
<wgt id='5009'>0.31011E+02</wgt>
<wgt id='5010'>0.30435E+02</wgt>
<wgt id='5011'>0.30578E+02</wgt>
<wgt id='5012'>0.30612E+02</wgt>
<wgt id='5013'>0.29989E+02</wgt>
<wgt id='5014'>0.30632E+02</wgt>
<wgt id='5015'>0.30869E+02</wgt>
<wgt id='5016'>0.29915E+02</wgt>
<wgt id='5017'>0.30720E+02</wgt>
<wgt id='5018'>0.30547E+02</wgt>
<wgt id='5019'>0.30499E+02</wgt>
<wgt id='5020'>0.30747E+02</wgt>
<wgt id='5021'>0.30745E+02</wgt>
<wgt id='5022'>0.30565E+02</wgt>
<wgt id='5023'>0.30562E+02</wgt>
<wgt id='5024'>0.30707E+02</wgt>
<wgt id='5025'>0.30589E+02</wgt>
<wgt id='5026'>0.30673E+02</wgt>
<wgt id='5027'>0.30961E+02</wgt>
<wgt id='5028'>0.30087E+02</wgt>
<wgt id='5029'>0.30046E+02</wgt>
<wgt id='5030'>0.30989E+02</wgt>
<wgt id='5031'>0.30285E+02</wgt>
<wgt id='5032'>0.31140E+02</wgt>
<wgt id='5033'>0.30395E+02</wgt>
<wgt id='5034'>0.30841E+02</wgt>
<wgt id='5035'>0.30146E+02</wgt>
<wgt id='5036'>0.31033E+02</wgt>
<wgt id='5037'>0.30619E+02</wgt>
<wgt id='5038'>0.30638E+02</wgt>
<wgt id='5039'>0.31141E+02</wgt>
<wgt id='5040'>0.30378E+02</wgt>
<wgt id='5041'>0.30286E+02</wgt>
<wgt id='5042'>0.30695E+02</wgt>
<wgt id='5043'>0.30950E+02</wgt>
<wgt id='5044'>0.29802E+02</wgt>
<wgt id='5045'>0.31542E+02</wgt>
<wgt id='5046'>0.30394E+02</wgt>
<wgt id='5047'>0.30839E+02</wgt>
<wgt id='5048'>0.30797E+02</wgt>
<wgt id='5049'>0.30661E+02</wgt>
<wgt id='5050'>0.30697E+02</wgt>
<wgt id='5051'>0.30728E+02</wgt>
<wgt id='5052'>0.30610E+02</wgt>
<wgt id='5053'>0.30383E+02</wgt>
<wgt id='5054'>0.31340E+02</wgt>
<wgt id='5055'>0.30443E+02</wgt>
<wgt id='5056'>0.30805E+02</wgt>
<wgt id='5060'>0.29895E+02</wgt>
<wgt id='5070'>0.31276E+02</wgt>
<wgt id='4000'>0.32376E+02</wgt>
<wgt id='4001'>0.32413E+02</wgt>
<wgt id='4002'>0.32481E+02</wgt>
<wgt id='4003'>0.33133E+02</wgt>
<wgt id='4004'>0.32054E+02</wgt>
<wgt id='4005'>0.32504E+02</wgt>
<wgt id='4006'>0.32275E+02</wgt>
<wgt id='4007'>0.32741E+02</wgt>
<wgt id='4008'>0.32231E+02</wgt>
<wgt id='4009'>0.31675E+02</wgt>
<wgt id='4010'>0.32913E+02</wgt>
<wgt id='4011'>0.32861E+02</wgt>
<wgt id='4012'>0.32104E+02</wgt>
<wgt id='4013'>0.31139E+02</wgt>
<wgt id='4014'>0.33086E+02</wgt>
<wgt id='4015'>0.32649E+02</wgt>
<wgt id='4016'>0.32198E+02</wgt>
<wgt id='4017'>0.32077E+02</wgt>
<wgt id='4018'>0.32733E+02</wgt>
<wgt id='4019'>0.32790E+02</wgt>
<wgt id='4020'>0.31911E+02</wgt>
<wgt id='4021'>0.32453E+02</wgt>
<wgt id='4022'>0.32208E+02</wgt>
<wgt id='4023'>0.32211E+02</wgt>
<wgt id='4024'>0.32522E+02</wgt>
<wgt id='4025'>0.31891E+02</wgt>
<wgt id='4026'>0.32821E+02</wgt>
<wgt id='4027'>0.32260E+02</wgt>
<wgt id='4028'>0.32532E+02</wgt>
<wgt id='4029'>0.32129E+02</wgt>
<wgt id='4030'>0.32461E+02</wgt>
<wgt id='4031'>0.32422E+02</wgt>
<wgt id='4032'>0.32316E+02</wgt>
<wgt id='4033'>0.32363E+02</wgt>
<wgt id='4034'>0.32397E+02</wgt>
<wgt id='4035'>0.32880E+02</wgt>
<wgt id='4036'>0.31891E+02</wgt>
<wgt id='4037'>0.32649E+02</wgt>
<wgt id='4038'>0.31917E+02</wgt>
<wgt id='4039'>0.32355E+02</wgt>
<wgt id='4040'>0.32328E+02</wgt>
<wgt id='4041'>0.32656E+02</wgt>
<wgt id='4042'>0.32116E+02</wgt>
<wgt id='4043'>0.32661E+02</wgt>
<wgt id='4044'>0.32045E+02</wgt>
<wgt id='4045'>0.31985E+02</wgt>
<wgt id='4046'>0.32218E+02</wgt>
<wgt id='4047'>0.31954E+02</wgt>
<wgt id='4048'>0.32722E+02</wgt>
<wgt id='4049'>0.32522E+02</wgt>
<wgt id='4050'>0.31750E+02</wgt>
<wgt id='4051'>0.32302E+02</wgt>
<wgt id='4052'>0.32289E+02</wgt>
<wgt id='4053'>0.31518E+02</wgt>
<wgt id='4054'>0.32577E+02</wgt>
<wgt id='4055'>0.32123E+02</wgt>
<wgt id='4056'>0.32610E+02</wgt>
<wgt id='4060'>0.31471E+02</wgt>
<wgt id='4070'>0.33209E+02</wgt>
<wgt id='4080'>0.32101E+02</wgt>
<wgt id='6000'>0.32803E+02</wgt>
<wgt id='6001'>0.32815E+02</wgt>
<wgt id='6002'>0.32790E+02</wgt>
<wgt id='6003'>0.32817E+02</wgt>
<wgt id='6004'>0.32795E+02</wgt>
<wgt id='6005'>0.32887E+02</wgt>
<wgt id='6006'>0.32724E+02</wgt>
<wgt id='6007'>0.32663E+02</wgt>
<wgt id='6008'>0.32962E+02</wgt>
<wgt id='6009'>0.32906E+02</wgt>
<wgt id='6010'>0.32704E+02</wgt>
<wgt id='6011'>0.32873E+02</wgt>
<wgt id='6012'>0.32652E+02</wgt>
<wgt id='6013'>0.32768E+02</wgt>
<wgt id='6014'>0.32866E+02</wgt>
<wgt id='6015'>0.32699E+02</wgt>
<wgt id='6016'>0.32863E+02</wgt>
<wgt id='6017'>0.32622E+02</wgt>
<wgt id='6018'>0.33018E+02</wgt>
<wgt id='6019'>0.32857E+02</wgt>
<wgt id='6020'>0.32756E+02</wgt>
<wgt id='6021'>0.32732E+02</wgt>
<wgt id='6022'>0.32900E+02</wgt>
<wgt id='6023'>0.32574E+02</wgt>
<wgt id='6024'>0.32963E+02</wgt>
<wgt id='6025'>0.32428E+02</wgt>
<wgt id='6026'>0.33125E+02</wgt>
<wgt id='6027'>0.32891E+02</wgt>
<wgt id='6028'>0.32804E+02</wgt>
<wgt id='6029'>0.33006E+02</wgt>
<wgt id='6030'>0.32569E+02</wgt>
<wgt id='6031'>0.32849E+02</wgt>
<wgt id='6032'>0.32741E+02</wgt>
<wgt id='6033'>0.32863E+02</wgt>
<wgt id='6034'>0.32739E+02</wgt>
<wgt id='6035'>0.32781E+02</wgt>
<wgt id='6036'>0.32915E+02</wgt>
<wgt id='6037'>0.32863E+02</wgt>
<wgt id='6038'>0.32796E+02</wgt>
<wgt id='6039'>0.32775E+02</wgt>
<wgt id='6040'>0.32833E+02</wgt>
<wgt id='6041'>0.32742E+02</wgt>
<wgt id='6042'>0.32879E+02</wgt>
<wgt id='6043'>0.33219E+02</wgt>
<wgt id='6044'>0.32597E+02</wgt>
<wgt id='6045'>0.32777E+02</wgt>
<wgt id='6046'>0.32871E+02</wgt>
<wgt id='6047'>0.32725E+02</wgt>
<wgt id='6048'>0.32619E+02</wgt>
<wgt id='6049'>0.32768E+02</wgt>
<wgt id='6050'>0.32801E+02</wgt>
<wgt id='7000'>0.30740E+02</wgt>
<wgt id='7001'>0.30728E+02</wgt>
<wgt id='7002'>0.30756E+02</wgt>
<wgt id='7003'>0.30835E+02</wgt>
<wgt id='7004'>0.30645E+02</wgt>
<wgt id='7005'>0.30797E+02</wgt>
<wgt id='7006'>0.30717E+02</wgt>
<wgt id='7007'>0.30613E+02</wgt>
<wgt id='7008'>0.30865E+02</wgt>
<wgt id='7009'>0.30790E+02</wgt>
<wgt id='7010'>0.30690E+02</wgt>
<wgt id='7011'>0.30447E+02</wgt>
<wgt id='7012'>0.30865E+02</wgt>
<wgt id='7013'>0.30741E+02</wgt>
<wgt id='7014'>0.30736E+02</wgt>
<wgt id='7015'>0.30651E+02</wgt>
<wgt id='7016'>0.30834E+02</wgt>
<wgt id='7017'>0.30663E+02</wgt>
<wgt id='7018'>0.30779E+02</wgt>
<wgt id='7019'>0.30697E+02</wgt>
<wgt id='7020'>0.30797E+02</wgt>
<wgt id='7021'>0.30733E+02</wgt>
<wgt id='7022'>0.30743E+02</wgt>
<wgt id='7023'>0.31075E+02</wgt>
<wgt id='7024'>0.30414E+02</wgt>
<wgt id='7025'>0.30872E+02</wgt>
<wgt id='7026'>0.30416E+02</wgt>
<wgt id='7027'>0.30874E+02</wgt>
<wgt id='7028'>0.30679E+02</wgt>
<wgt id='7029'>0.30599E+02</wgt>
<wgt id='7030'>0.31108E+02</wgt>
<wgt id='7031'>0.30738E+02</wgt>
<wgt id='7032'>0.30747E+02</wgt>
<wgt id='7033'>0.30697E+02</wgt>
<wgt id='7034'>0.30838E+02</wgt>
<wgt id='7035'>0.30821E+02</wgt>
<wgt id='7036'>0.30717E+02</wgt>
<wgt id='7037'>0.30753E+02</wgt>
<wgt id='7038'>0.30742E+02</wgt>
<wgt id='7039'>0.30712E+02</wgt>
<wgt id='7040'>0.30758E+02</wgt>
<wgt id='7041'>0.30680E+02</wgt>
<wgt id='7042'>0.30776E+02</wgt>
<wgt id='7043'>0.30766E+02</wgt>
<wgt id='7044'>0.30585E+02</wgt>
<wgt id='7045'>0.30496E+02</wgt>
<wgt id='7046'>0.30794E+02</wgt>
<wgt id='7047'>0.30751E+02</wgt>
<wgt id='7048'>0.30722E+02</wgt>
<wgt id='7049'>0.30715E+02</wgt>
<wgt id='7050'>0.30663E+02</wgt>
<wgt id='7060'>0.48114E+02</wgt>
<wgt id='8000'>0.31237E+02</wgt>
<wgt id='8001'>0.31228E+02</wgt>
<wgt id='8002'>0.31246E+02</wgt>
<wgt id='8003'>0.31240E+02</wgt>
<wgt id='8004'>0.31236E+02</wgt>
<wgt id='8005'>0.31162E+02</wgt>
<wgt id='8006'>0.31216E+02</wgt>
<wgt id='8007'>0.31194E+02</wgt>
<wgt id='8008'>0.31291E+02</wgt>
<wgt id='8009'>0.31350E+02</wgt>
<wgt id='8010'>0.31238E+02</wgt>
<wgt id='8011'>0.31219E+02</wgt>
<wgt id='8012'>0.31204E+02</wgt>
<wgt id='8013'>0.31231E+02</wgt>
<wgt id='8014'>0.31216E+02</wgt>
<wgt id='8015'>0.31213E+02</wgt>
<wgt id='8016'>0.31244E+02</wgt>
<wgt id='8017'>0.31237E+02</wgt>
<wgt id='8018'>0.31231E+02</wgt>
<wgt id='8019'>0.31291E+02</wgt>
<wgt id='8020'>0.31131E+02</wgt>
<wgt id='8021'>0.31241E+02</wgt>
<wgt id='8022'>0.31044E+02</wgt>
<wgt id='8023'>0.31275E+02</wgt>
<wgt id='8024'>0.31310E+02</wgt>
<wgt id='8025'>0.31349E+02</wgt>
<wgt id='8026'>0.31302E+02</wgt>
<wgt id='8027'>0.31180E+02</wgt>
<wgt id='8028'>0.31267E+02</wgt>
<wgt id='8029'>0.31018E+02</wgt>
<wgt id='8500'>0.32472E+02</wgt>
<wgt id='8501'>0.32395E+02</wgt>
<wgt id='8502'>0.32764E+02</wgt>
<wgt id='8503'>0.32686E+02</wgt>
<wgt id='8504'>0.32397E+02</wgt>
<wgt id='8505'>0.32339E+02</wgt>
<wgt id='8506'>0.32376E+02</wgt>
<wgt id='8507'>0.32677E+02</wgt>
<wgt id='8508'>0.32933E+02</wgt>
<wgt id='8509'>0.32276E+02</wgt>
<wgt id='8510'>0.32934E+02</wgt>
<wgt id='8511'>0.32490E+02</wgt>
<wgt id='8512'>0.32102E+02</wgt>
<wgt id='8513'>0.32526E+02</wgt>
<wgt id='8514'>0.32320E+02</wgt>
<wgt id='8515'>0.32484E+02</wgt>
<wgt id='8516'>0.32565E+02</wgt>
<wgt id='8517'>0.32405E+02</wgt>
<wgt id='8518'>0.32394E+02</wgt>
<wgt id='8519'>0.32389E+02</wgt>
<wgt id='8520'>0.32494E+02</wgt>
<wgt id='8521'>0.32331E+02</wgt>
<wgt id='8522'>0.32492E+02</wgt>
<wgt id='8523'>0.32415E+02</wgt>
<wgt id='8524'>0.32469E+02</wgt>
<wgt id='8525'>0.32447E+02</wgt>
<wgt id='8526'>0.32433E+02</wgt>
<wgt id='8527'>0.32475E+02</wgt>
<wgt id='8528'>0.32393E+02</wgt>
<wgt id='8529'>0.32456E+02</wgt>
<wgt id='8530'>0.32470E+02</wgt>
<wgt id='8531'>0.32460E+02</wgt>
<wgt id='8532'>0.32478E+02</wgt>
<wgt id='8533'>0.32409E+02</wgt>
<wgt id='8534'>0.32487E+02</wgt>
<wgt id='8535'>0.32542E+02</wgt>
<wgt id='8536'>0.32449E+02</wgt>
<wgt id='8537'>0.32484E+02</wgt>
<wgt id='8538'>0.32438E+02</wgt>
<wgt id='8539'>0.32478E+02</wgt>
<wgt id='8540'>0.32477E+02</wgt>
<wgt id='8541'>0.32485E+02</wgt>
<wgt id='8542'>0.32496E+02</wgt>
<wgt id='8543'>0.32444E+02</wgt>
<wgt id='8544'>0.32503E+02</wgt>
<wgt id='8545'>0.32498E+02</wgt>
<wgt id='8546'>0.32500E+02</wgt>
<wgt id='8547'>0.32449E+02</wgt>
<wgt id='8548'>0.32440E+02</wgt>
<wgt id='8549'>0.32474E+02</wgt>
<wgt id='8550'>0.32479E+02</wgt>
<wgt id='8551'>0.32440E+02</wgt>
<wgt id='8552'>0.32479E+02</wgt>
<wgt id='8553'>0.32460E+02</wgt>
<wgt id='8554'>0.32458E+02</wgt>
<wgt id='8555'>0.32475E+02</wgt>
<wgt id='8556'>0.32471E+02</wgt>
<wgt id='8557'>0.32464E+02</wgt>
<wgt id='8558'>0.32505E+02</wgt>
<wgt id='8559'>0.32456E+02</wgt>
<wgt id='8560'>0.32439E+02</wgt>
<wgt id='8561'>0.32467E+02</wgt>
<wgt id='8562'>0.32448E+02</wgt>
<wgt id='8563'>0.32473E+02</wgt>
<wgt id='8564'>0.32466E+02</wgt>
<wgt id='8565'>0.32470E+02</wgt>
<wgt id='8566'>0.32467E+02</wgt>
<wgt id='8567'>0.32470E+02</wgt>
<wgt id='8568'>0.32483E+02</wgt>
<wgt id='8569'>0.32480E+02</wgt>
<wgt id='8570'>0.32468E+02</wgt>
<wgt id='8571'>0.32461E+02</wgt>
<wgt id='8572'>0.32464E+02</wgt>
<wgt id='8573'>0.32458E+02</wgt>
<wgt id='8574'>0.32479E+02</wgt>
<wgt id='8575'>0.32469E+02</wgt>
<wgt id='8576'>0.32470E+02</wgt>
<wgt id='8577'>0.32469E+02</wgt>
<wgt id='8578'>0.32476E+02</wgt>
<wgt id='8579'>0.32491E+02</wgt>
<wgt id='8580'>0.32472E+02</wgt>
<wgt id='8581'>0.32476E+02</wgt>
<wgt id='8582'>0.32454E+02</wgt>
<wgt id='8583'>0.32485E+02</wgt>
<wgt id='8584'>0.32480E+02</wgt>
<wgt id='8585'>0.32477E+02</wgt>
<wgt id='8586'>0.32487E+02</wgt>
<wgt id='8587'>0.32468E+02</wgt>
<wgt id='8588'>0.32465E+02</wgt>
<wgt id='8589'>0.32474E+02</wgt>
<wgt id='8590'>0.32468E+02</wgt>
<wgt id='8591'>0.32467E+02</wgt>
<wgt id='8592'>0.32471E+02</wgt>
<wgt id='8593'>0.32460E+02</wgt>
<wgt id='8594'>0.32476E+02</wgt>
<wgt id='8595'>0.32475E+02</wgt>
<wgt id='8596'>0.32464E+02</wgt>
<wgt id='8597'>0.32477E+02</wgt>
<wgt id='8598'>0.32479E+02</wgt>
<wgt id='8599'>0.32477E+02</wgt>
<wgt id='8600'>0.32472E+02</wgt>
<wgt id='8601'>0.31819E+02</wgt>
<wgt id='8602'>0.33042E+02</wgt>
<wgt id='9000'>0.30793E+02</wgt>
<wgt id='9001'>0.30837E+02</wgt>
<wgt id='9002'>0.30942E+02</wgt>
<wgt id='9003'>0.30534E+02</wgt>
<wgt id='9004'>0.30736E+02</wgt>
<wgt id='9005'>0.30930E+02</wgt>
<wgt id='9006'>0.30723E+02</wgt>
<wgt id='9007'>0.30829E+02</wgt>
<wgt id='9008'>0.30864E+02</wgt>
<wgt id='9009'>0.30771E+02</wgt>
<wgt id='9010'>0.30742E+02</wgt>
<wgt id='9011'>0.31127E+02</wgt>
<wgt id='9012'>0.30417E+02</wgt>
<wgt id='9013'>0.30391E+02</wgt>
<wgt id='9014'>0.30448E+02</wgt>
<wgt id='9015'>0.30756E+02</wgt>
<wgt id='9016'>0.30945E+02</wgt>
<wgt id='9017'>0.30804E+02</wgt>
<wgt id='9018'>0.30771E+02</wgt>
<wgt id='9019'>0.30757E+02</wgt>
<wgt id='9020'>0.30927E+02</wgt>
<wgt id='9021'>0.30761E+02</wgt>
<wgt id='9022'>0.30830E+02</wgt>
<wgt id='9023'>0.30755E+02</wgt>
<wgt id='9024'>0.30750E+02</wgt>
<wgt id='9025'>0.30831E+02</wgt>
<wgt id='9026'>0.30799E+02</wgt>
<wgt id='9027'>0.30757E+02</wgt>
<wgt id='9028'>0.30822E+02</wgt>
<wgt id='9029'>0.30817E+02</wgt>
<wgt id='9030'>0.30805E+02</wgt>
<wgt id='9031'>0.30793E+02</wgt>
<wgt id='9032'>0.30812E+02</wgt>
<wgt id='9033'>0.30832E+02</wgt>
<wgt id='9034'>0.30773E+02</wgt>
<wgt id='9035'>0.30843E+02</wgt>
<wgt id='9036'>0.30791E+02</wgt>
<wgt id='9037'>0.30823E+02</wgt>
<wgt id='9038'>0.30792E+02</wgt>
<wgt id='9039'>0.30794E+02</wgt>
<wgt id='9040'>0.30757E+02</wgt>
<wgt id='9041'>0.30777E+02</wgt>
<wgt id='9042'>0.30785E+02</wgt>
<wgt id='9043'>0.30774E+02</wgt>
<wgt id='9044'>0.30803E+02</wgt>
<wgt id='9045'>0.30786E+02</wgt>
<wgt id='9046'>0.30752E+02</wgt>
<wgt id='9047'>0.30775E+02</wgt>
<wgt id='9048'>0.30805E+02</wgt>
<wgt id='9049'>0.30776E+02</wgt>
<wgt id='9050'>0.30802E+02</wgt>
<wgt id='9051'>0.30803E+02</wgt>
<wgt id='9052'>0.30799E+02</wgt>
<wgt id='9053'>0.30798E+02</wgt>
<wgt id='9054'>0.30778E+02</wgt>
<wgt id='9055'>0.30789E+02</wgt>
<wgt id='9056'>0.30820E+02</wgt>
<wgt id='9057'>0.30790E+02</wgt>
<wgt id='9058'>0.30774E+02</wgt>
<wgt id='9059'>0.30781E+02</wgt>
<wgt id='9060'>0.30784E+02</wgt>
<wgt id='9061'>0.30798E+02</wgt>
<wgt id='9062'>0.30797E+02</wgt>
<wgt id='9063'>0.30806E+02</wgt>
<wgt id='9064'>0.30787E+02</wgt>
<wgt id='9065'>0.30792E+02</wgt>
<wgt id='9066'>0.30796E+02</wgt>
<wgt id='9067'>0.30802E+02</wgt>
<wgt id='9068'>0.30804E+02</wgt>
<wgt id='9069'>0.30808E+02</wgt>
<wgt id='9070'>0.30790E+02</wgt>
<wgt id='9071'>0.30811E+02</wgt>
<wgt id='9072'>0.30811E+02</wgt>
<wgt id='9073'>0.30784E+02</wgt>
<wgt id='9074'>0.30798E+02</wgt>
<wgt id='9075'>0.30791E+02</wgt>
<wgt id='9076'>0.30792E+02</wgt>
<wgt id='9077'>0.30798E+02</wgt>
<wgt id='9078'>0.30797E+02</wgt>
<wgt id='9079'>0.30788E+02</wgt>
<wgt id='9080'>0.30812E+02</wgt>
<wgt id='9081'>0.30791E+02</wgt>
<wgt id='9082'>0.30801E+02</wgt>
<wgt id='9083'>0.30784E+02</wgt>
<wgt id='9084'>0.30784E+02</wgt>
<wgt id='9085'>0.30786E+02</wgt>
<wgt id='9086'>0.30798E+02</wgt>
<wgt id='9087'>0.30775E+02</wgt>
<wgt id='9088'>0.30786E+02</wgt>
<wgt id='9089'>0.30786E+02</wgt>
<wgt id='9090'>0.30797E+02</wgt>
<wgt id='9091'>0.30790E+02</wgt>
<wgt id='9092'>0.30792E+02</wgt>
<wgt id='9093'>0.30789E+02</wgt>
<wgt id='9094'>0.30790E+02</wgt>
<wgt id='9095'>0.30797E+02</wgt>
<wgt id='9096'>0.30788E+02</wgt>
<wgt id='9097'>0.30795E+02</wgt>
<wgt id='9098'>0.30793E+02</wgt>
<wgt id='9099'>0.30787E+02</wgt>
<wgt id='9100'>0.30793E+02</wgt>
<wgt id='9101'>0.30296E+02</wgt>
<wgt id='9102'>0.31201E+02</wgt>
<wgt id='10000'>0.32470E+02</wgt>
<wgt id='10001'>0.32608E+02</wgt>
<wgt id='10002'>0.32471E+02</wgt>
<wgt id='10003'>0.32478E+02</wgt>
<wgt id='10004'>0.32579E+02</wgt>
<wgt id='10005'>0.33365E+02</wgt>
<wgt id='10006'>0.32469E+02</wgt>
<wgt id='10007'>0.32462E+02</wgt>
<wgt id='10008'>0.32510E+02</wgt>
<wgt id='10009'>0.32416E+02</wgt>
<wgt id='10010'>0.32479E+02</wgt>
<wgt id='10011'>0.32443E+02</wgt>
<wgt id='10012'>0.32417E+02</wgt>
<wgt id='10013'>0.32461E+02</wgt>
<wgt id='10014'>0.32481E+02</wgt>
<wgt id='10015'>0.32509E+02</wgt>
<wgt id='10016'>0.32483E+02</wgt>
<wgt id='10017'>0.32256E+02</wgt>
<wgt id='10018'>0.32498E+02</wgt>
<wgt id='10019'>0.32416E+02</wgt>
<wgt id='10020'>0.32486E+02</wgt>
<wgt id='10021'>0.32474E+02</wgt>
<wgt id='10022'>0.32461E+02</wgt>
<wgt id='10023'>0.32484E+02</wgt>
<wgt id='10024'>0.32470E+02</wgt>
<wgt id='10025'>0.32453E+02</wgt>
<wgt id='10026'>0.32470E+02</wgt>
<wgt id='10027'>0.32469E+02</wgt>
<wgt id='10028'>0.32537E+02</wgt>
<wgt id='10029'>0.32505E+02</wgt>
<wgt id='10030'>0.32458E+02</wgt>
<wgt id='10031'>0.31819E+02</wgt>
<wgt id='10032'>0.33042E+02</wgt>
<wgt id='11000'>0.30791E+02</wgt>
<wgt id='11001'>0.30803E+02</wgt>
<wgt id='11002'>0.30895E+02</wgt>
<wgt id='11003'>0.30758E+02</wgt>
<wgt id='11004'>0.30890E+02</wgt>
<wgt id='11005'>0.30382E+02</wgt>
<wgt id='11006'>0.30785E+02</wgt>
<wgt id='11007'>0.30724E+02</wgt>
<wgt id='11008'>0.30722E+02</wgt>
<wgt id='11009'>0.30650E+02</wgt>
<wgt id='11010'>0.30901E+02</wgt>
<wgt id='11011'>0.30626E+02</wgt>
<wgt id='11012'>0.30819E+02</wgt>
<wgt id='11013'>0.30905E+02</wgt>
<wgt id='11014'>0.30700E+02</wgt>
<wgt id='11015'>0.30752E+02</wgt>
<wgt id='11016'>0.30759E+02</wgt>
<wgt id='11017'>0.31039E+02</wgt>
<wgt id='11018'>0.30793E+02</wgt>
<wgt id='11019'>0.30783E+02</wgt>
<wgt id='11020'>0.30828E+02</wgt>
<wgt id='11021'>0.30889E+02</wgt>
<wgt id='11022'>0.31383E+02</wgt>
<wgt id='11023'>0.30778E+02</wgt>
<wgt id='11024'>0.30768E+02</wgt>
<wgt id='11025'>0.30719E+02</wgt>
<wgt id='11026'>0.30791E+02</wgt>
<wgt id='11027'>0.30785E+02</wgt>
<wgt id='11028'>0.30779E+02</wgt>
<wgt id='11029'>0.30772E+02</wgt>
<wgt id='11030'>0.30795E+02</wgt>
<wgt id='11031'>0.30296E+02</wgt>
<wgt id='11032'>0.31201E+02</wgt>
<wgt id='12000'>0.34494E+02</wgt>
<wgt id='12001'>0.34448E+02</wgt>
<wgt id='12002'>0.34540E+02</wgt>
<wgt id='12003'>0.34581E+02</wgt>
<wgt id='12004'>0.34408E+02</wgt>
<wgt id='12005'>0.34551E+02</wgt>
<wgt id='12006'>0.34438E+02</wgt>
<wgt id='12007'>0.34582E+02</wgt>
<wgt id='12008'>0.34409E+02</wgt>
<wgt id='12009'>0.34551E+02</wgt>
<wgt id='12010'>0.34438E+02</wgt>
<wgt id='12011'>0.34438E+02</wgt>
<wgt id='12012'>0.34554E+02</wgt>
<wgt id='12013'>0.34360E+02</wgt>
<wgt id='12014'>0.34630E+02</wgt>
<wgt id='12015'>0.34499E+02</wgt>
<wgt id='12016'>0.34449E+02</wgt>
<wgt id='12017'>0.34596E+02</wgt>
<wgt id='12018'>0.34376E+02</wgt>
<wgt id='12019'>0.34372E+02</wgt>
<wgt id='12020'>0.34613E+02</wgt>
<wgt id='12021'>0.34628E+02</wgt>
<wgt id='12022'>0.34320E+02</wgt>
<wgt id='12023'>0.34365E+02</wgt>
<wgt id='12024'>0.34450E+02</wgt>
<wgt id='12025'>0.34594E+02</wgt>
<wgt id='12026'>0.34444E+02</wgt>
<wgt id='12027'>0.34448E+02</wgt>
<wgt id='12028'>0.34570E+02</wgt>
<wgt id='12050'>0.34494E+02</wgt>
<wgt id='12051'>0.34461E+02</wgt>
<wgt id='12052'>0.34517E+02</wgt>
<wgt id='12053'>0.34453E+02</wgt>
<wgt id='12054'>0.34510E+02</wgt>
<wgt id='12055'>0.34596E+02</wgt>
<wgt id='12056'>0.34234E+02</wgt>
<wgt id='12057'>0.34357E+02</wgt>
<wgt id='12058'>0.34620E+02</wgt>
<wgt id='12059'>0.34406E+02</wgt>
<wgt id='12060'>0.34591E+02</wgt>
<wgt id='12061'>0.34495E+02</wgt>
<wgt id='12062'>0.34563E+02</wgt>
<wgt id='12063'>0.34163E+02</wgt>
<wgt id='13000'>0.31117E+02</wgt>
<wgt id='13001'>0.31093E+02</wgt>
<wgt id='13002'>0.31136E+02</wgt>
<wgt id='13003'>0.31158E+02</wgt>
<wgt id='13004'>0.31071E+02</wgt>
<wgt id='13005'>0.31191E+02</wgt>
<wgt id='13006'>0.31039E+02</wgt>
<wgt id='13007'>0.31243E+02</wgt>
<wgt id='13008'>0.30989E+02</wgt>
<wgt id='13009'>0.31123E+02</wgt>
<wgt id='13010'>0.31107E+02</wgt>
<wgt id='13011'>0.31190E+02</wgt>
<wgt id='13012'>0.31039E+02</wgt>
<wgt id='13013'>0.31021E+02</wgt>
<wgt id='13014'>0.31208E+02</wgt>
<wgt id='13015'>0.31069E+02</wgt>
<wgt id='13016'>0.31141E+02</wgt>
<wgt id='13017'>0.31093E+02</wgt>
<wgt id='13018'>0.31129E+02</wgt>
<wgt id='13019'>0.31062E+02</wgt>
<wgt id='13020'>0.31164E+02</wgt>
<wgt id='13021'>0.30859E+02</wgt>
<wgt id='13022'>0.31326E+02</wgt>
<wgt id='13023'>0.31130E+02</wgt>
<wgt id='13024'>0.31096E+02</wgt>
<wgt id='13025'>0.31047E+02</wgt>
<wgt id='13026'>0.31106E+02</wgt>
<wgt id='13027'>0.31131E+02</wgt>
<wgt id='13028'>0.31132E+02</wgt>
<wgt id='13050'>0.31117E+02</wgt>
<wgt id='13051'>0.31120E+02</wgt>
<wgt id='13052'>0.31049E+02</wgt>
<wgt id='13053'>0.31108E+02</wgt>
<wgt id='13054'>0.31105E+02</wgt>
<wgt id='13055'>0.31076E+02</wgt>
<wgt id='13056'>0.31134E+02</wgt>
<wgt id='13057'>0.31006E+02</wgt>
<wgt id='13058'>0.31277E+02</wgt>
<wgt id='13059'>0.31024E+02</wgt>
<wgt id='13060'>0.31206E+02</wgt>
<wgt id='13061'>0.31037E+02</wgt>
<wgt id='13062'>0.31348E+02</wgt>
<wgt id='13063'>0.30918E+02</wgt>
<wgt id='14000'>0.32211E+02</wgt>
<wgt id='14001'>0.32206E+02</wgt>
<wgt id='14002'>0.32201E+02</wgt>
<wgt id='14003'>0.32196E+02</wgt>
<wgt id='14004'>0.32191E+02</wgt>
<wgt id='14005'>0.32185E+02</wgt>
<wgt id='14006'>0.32180E+02</wgt>
<wgt id='14007'>0.32175E+02</wgt>
<wgt id='14008'>0.32170E+02</wgt>
<wgt id='14009'>0.32164E+02</wgt>
<wgt id='14010'>0.32159E+02</wgt>
<wgt id='14011'>0.32154E+02</wgt>
<wgt id='14012'>0.32149E+02</wgt>
<wgt id='14013'>0.32143E+02</wgt>
<wgt id='14014'>0.32138E+02</wgt>
<wgt id='14015'>0.32133E+02</wgt>
<wgt id='14016'>0.32128E+02</wgt>
<wgt id='14017'>0.32123E+02</wgt>
<wgt id='14018'>0.32117E+02</wgt>
<wgt id='14019'>0.32112E+02</wgt>
<wgt id='14020'>0.32107E+02</wgt>
<wgt id='14021'>0.32102E+02</wgt>
<wgt id='14022'>0.32097E+02</wgt>
<wgt id='14023'>0.32091E+02</wgt>
<wgt id='14024'>0.32086E+02</wgt>
<wgt id='14025'>0.32081E+02</wgt>
<wgt id='14026'>0.32076E+02</wgt>
<wgt id='14027'>0.32071E+02</wgt>
<wgt id='14028'>0.32065E+02</wgt>
<wgt id='14029'>0.32060E+02</wgt>
<wgt id='14030'>0.32055E+02</wgt>
<wgt id='15000'>0.30431E+02</wgt>
<wgt id='15001'>0.30480E+02</wgt>
<wgt id='15002'>0.30580E+02</wgt>
<wgt id='15003'>0.30175E+02</wgt>
<wgt id='15004'>0.30376E+02</wgt>
<wgt id='15005'>0.30568E+02</wgt>
<wgt id='15006'>0.30359E+02</wgt>
<wgt id='15007'>0.30462E+02</wgt>
<wgt id='15008'>0.30500E+02</wgt>
<wgt id='15009'>0.30409E+02</wgt>
<wgt id='15010'>0.30382E+02</wgt>
<wgt id='15011'>0.30757E+02</wgt>
<wgt id='15012'>0.30057E+02</wgt>
<wgt id='15013'>0.30032E+02</wgt>
<wgt id='15014'>0.30090E+02</wgt>
<wgt id='15015'>0.30401E+02</wgt>
<wgt id='15016'>0.30575E+02</wgt>
<wgt id='15017'>0.30445E+02</wgt>
<wgt id='15018'>0.30413E+02</wgt>
<wgt id='15019'>0.30394E+02</wgt>
<wgt id='15020'>0.30560E+02</wgt>
<wgt id='15021'>0.30400E+02</wgt>
<wgt id='15022'>0.30470E+02</wgt>
<wgt id='15023'>0.30389E+02</wgt>
<wgt id='15024'>0.30389E+02</wgt>
<wgt id='15025'>0.30475E+02</wgt>
<wgt id='15026'>0.30441E+02</wgt>
<wgt id='15027'>0.30392E+02</wgt>
<wgt id='15028'>0.30459E+02</wgt>
<wgt id='15029'>0.30457E+02</wgt>
<wgt id='15030'>0.30446E+02</wgt>
<wgt id='15031'>0.30426E+02</wgt>
<wgt id='15032'>0.30451E+02</wgt>
<wgt id='15033'>0.30471E+02</wgt>
<wgt id='15034'>0.30412E+02</wgt>
<wgt id='15035'>0.30482E+02</wgt>
<wgt id='15036'>0.30429E+02</wgt>
<wgt id='15037'>0.30462E+02</wgt>
<wgt id='15038'>0.30431E+02</wgt>
<wgt id='15039'>0.30433E+02</wgt>
<wgt id='15040'>0.30395E+02</wgt>
<wgt id='15041'>0.30416E+02</wgt>
<wgt id='15042'>0.30424E+02</wgt>
<wgt id='15043'>0.30409E+02</wgt>
<wgt id='15044'>0.30441E+02</wgt>
<wgt id='15045'>0.30425E+02</wgt>
<wgt id='15046'>0.30389E+02</wgt>
<wgt id='15047'>0.30415E+02</wgt>
<wgt id='15048'>0.30442E+02</wgt>
<wgt id='15049'>0.30415E+02</wgt>
<wgt id='15050'>0.30440E+02</wgt>
<wgt id='15051'>0.30441E+02</wgt>
<wgt id='15052'>0.30438E+02</wgt>
<wgt id='15053'>0.30436E+02</wgt>
<wgt id='15054'>0.30416E+02</wgt>
<wgt id='15055'>0.30426E+02</wgt>
<wgt id='15056'>0.30459E+02</wgt>
<wgt id='15057'>0.30428E+02</wgt>
<wgt id='15058'>0.30411E+02</wgt>
<wgt id='15059'>0.30419E+02</wgt>
<wgt id='15060'>0.30422E+02</wgt>
<wgt id='15061'>0.30436E+02</wgt>
<wgt id='15062'>0.30436E+02</wgt>
<wgt id='15063'>0.30445E+02</wgt>
<wgt id='15064'>0.30424E+02</wgt>
<wgt id='15065'>0.30431E+02</wgt>
<wgt id='15066'>0.30434E+02</wgt>
<wgt id='15067'>0.30441E+02</wgt>
<wgt id='15068'>0.30442E+02</wgt>
<wgt id='15069'>0.30447E+02</wgt>
<wgt id='15070'>0.30428E+02</wgt>
<wgt id='15071'>0.30449E+02</wgt>
<wgt id='15072'>0.30449E+02</wgt>
<wgt id='15073'>0.30423E+02</wgt>
<wgt id='15074'>0.30436E+02</wgt>
<wgt id='15075'>0.30430E+02</wgt>
<wgt id='15076'>0.30429E+02</wgt>
<wgt id='15077'>0.30436E+02</wgt>
<wgt id='15078'>0.30434E+02</wgt>
<wgt id='15079'>0.30426E+02</wgt>
<wgt id='15080'>0.30451E+02</wgt>
<wgt id='15081'>0.30428E+02</wgt>
<wgt id='15082'>0.30438E+02</wgt>
<wgt id='15083'>0.30422E+02</wgt>
<wgt id='15084'>0.30423E+02</wgt>
<wgt id='15085'>0.30424E+02</wgt>
<wgt id='15086'>0.30435E+02</wgt>
<wgt id='15087'>0.30413E+02</wgt>
<wgt id='15088'>0.30425E+02</wgt>
<wgt id='15089'>0.30424E+02</wgt>
<wgt id='15090'>0.30436E+02</wgt>
<wgt id='15091'>0.30428E+02</wgt>
<wgt id='15092'>0.30430E+02</wgt>
<wgt id='15093'>0.30427E+02</wgt>
<wgt id='15094'>0.30429E+02</wgt>
<wgt id='15095'>0.30435E+02</wgt>
<wgt id='15096'>0.30426E+02</wgt>
<wgt id='15097'>0.30433E+02</wgt>
<wgt id='15098'>0.30431E+02</wgt>
<wgt id='15099'>0.30425E+02</wgt>
<wgt id='15100'>0.30431E+02</wgt>
<wgt id='15101'>0.30431E+02</wgt>
<wgt id='15102'>0.30429E+02</wgt>
<wgt id='15103'>0.30432E+02</wgt>
<wgt id='15104'>0.30432E+02</wgt>
<wgt id='15105'>0.30432E+02</wgt>
<wgt id='15106'>0.30432E+02</wgt>
<wgt id='15107'>0.30430E+02</wgt>
<wgt id='1500'>0.32199E+02</wgt>
<wgt id='1501'>0.29348E+02</wgt>
<wgt id='1502'>0.32335E+02</wgt>
<wgt id='1503'>0.32037E+02</wgt>
<wgt id='1504'>0.31810E+02</wgt>
<wgt id='1505'>0.28234E+02</wgt>
<wgt id='1506'>0.32316E+02</wgt>
<wgt id='1507'>0.32697E+02</wgt>
<wgt id='1508'>0.32101E+02</wgt>
<wgt id='1509'>0.32213E+02</wgt>
<wgt id='1510'>0.31284E+02</wgt>
<wgt id='1511'>0.31795E+02</wgt>
<wgt id='1512'>0.32760E+02</wgt>
<wgt id='1513'>0.32765E+02</wgt>
<wgt id='1514'>0.31413E+02</wgt>
<wgt id='1515'>0.32402E+02</wgt>
<wgt id='1516'>0.32723E+02</wgt>
<wgt id='1517'>0.31708E+02</wgt>
<wgt id='1518'>0.31871E+02</wgt>
<wgt id='1519'>0.32542E+02</wgt>
<wgt id='1520'>0.32600E+02</wgt>
<wgt id='1521'>0.32341E+02</wgt>
<wgt id='1522'>0.32019E+02</wgt>
<wgt id='1523'>0.34676E+02</wgt>
<wgt id='1524'>0.31942E+02</wgt>
<wgt id='1525'>0.32653E+02</wgt>
<wgt id='1526'>0.31606E+02</wgt>
<wgt id='1527'>0.31913E+02</wgt>
<wgt id='1528'>0.31986E+02</wgt>
<wgt id='1529'>0.31812E+02</wgt>
<wgt id='1530'>0.32827E+02</wgt>
<wgt id='1531'>0.32097E+02</wgt>
<wgt id='1532'>0.31370E+02</wgt>
<wgt id='1533'>0.32842E+02</wgt>
<wgt id='1534'>0.32434E+02</wgt>
<wgt id='1535'>0.33153E+02</wgt>
<wgt id='1536'>0.33086E+02</wgt>
<wgt id='1537'>0.32624E+02</wgt>
<wgt id='1538'>0.32063E+02</wgt>
<wgt id='1539'>0.30991E+02</wgt>
<wgt id='1540'>0.32710E+02</wgt>
<wgt id='1541'>0.32089E+02</wgt>
<wgt id='1542'>0.32656E+02</wgt>
<wgt id='1543'>0.32580E+02</wgt>
<wgt id='1544'>0.31960E+02</wgt>
<wgt id='1545'>0.32693E+02</wgt>
<wgt id='1546'>0.32443E+02</wgt>
<wgt id='1547'>0.31673E+02</wgt>
<wgt id='1548'>0.31611E+02</wgt>
<wgt id='1549'>0.32398E+02</wgt>
<wgt id='1550'>0.32302E+02</wgt>
<wgt id='1551'>0.32210E+02</wgt>
<wgt id='1552'>0.32088E+02</wgt>
<wgt id='1553'>0.32755E+02</wgt>
<wgt id='1554'>0.32244E+02</wgt>
<wgt id='1555'>0.32255E+02</wgt>
<wgt id='1556'>0.31340E+02</wgt>
<wgt id='1557'>0.33393E+02</wgt>
<wgt id='1558'>0.31936E+02</wgt>
<wgt id='1559'>0.32607E+02</wgt>
<wgt id='1560'>0.32094E+02</wgt>
<wgt id='1561'>0.32505E+02</wgt>
<wgt id='1562'>0.32249E+02</wgt>
<wgt id='1563'>0.32803E+02</wgt>
<wgt id='1564'>0.31741E+02</wgt>
<wgt id='1565'>0.32633E+02</wgt>
<wgt id='1566'>0.32393E+02</wgt>
<wgt id='1567'>0.33758E+02</wgt>
<wgt id='1568'>0.31750E+02</wgt>
<wgt id='1569'>0.31468E+02</wgt>
<wgt id='1570'>0.32290E+02</wgt>
<wgt id='1571'>0.32963E+02</wgt>
<wgt id='1572'>0.32021E+02</wgt>
<wgt id='1573'>0.29767E+02</wgt>
<wgt id='1574'>0.32512E+02</wgt>
<wgt id='1575'>0.31885E+02</wgt>
<wgt id='1576'>0.31432E+02</wgt>
<wgt id='1577'>0.32536E+02</wgt>
<wgt id='1578'>0.33447E+02</wgt>
<wgt id='1579'>0.32024E+02</wgt>
<wgt id='1580'>0.32440E+02</wgt>
<wgt id='1581'>0.32435E+02</wgt>
<wgt id='1582'>0.31883E+02</wgt>
<wgt id='1583'>0.32293E+02</wgt>
<wgt id='1584'>0.32307E+02</wgt>
<wgt id='1585'>0.31314E+02</wgt>
<wgt id='1586'>0.32108E+02</wgt>
<wgt id='1587'>0.32151E+02</wgt>
<wgt id='1588'>0.32244E+02</wgt>
<wgt id='1589'>0.32844E+02</wgt>
<wgt id='1590'>0.32059E+02</wgt>
<wgt id='1591'>0.31329E+02</wgt>
<wgt id='1592'>0.32956E+02</wgt>
<wgt id='1593'>0.31933E+02</wgt>
<wgt id='1594'>0.32999E+02</wgt>
<wgt id='1595'>0.31657E+02</wgt>
<wgt id='1596'>0.32702E+02</wgt>
<wgt id='1597'>0.32344E+02</wgt>
<wgt id='1598'>0.33532E+02</wgt>
<wgt id='1599'>0.33067E+02</wgt>
<wgt id='1600'>0.32120E+02</wgt>
<wgt id='1601'>0.31656E+02</wgt>
<wgt id='1602'>0.32473E+02</wgt>
<wgt id='1700'>0.30975E+02</wgt>
<wgt id='1800'>0.37960E+02</wgt>
<wgt id='1850'>0.45922E+02</wgt>
<wgt id='1900'>0.37409E+02</wgt>
<wgt id='1950'>0.44534E+02</wgt>
</rwgt>
</event>
<event>
      4   9999  3.15120E+01  9.96313E+01 -1.00000E+00  1.22312E-01
      21    -1     0     0   502   501  0.000000000E+00  0.000000000E+00  6.773985423E+02  6.773985423E+02  0.000000000E+00  0.00000E+00  9.000E+00
       3    -1     0     0   501     0  0.000000000E+00  0.000000000E+00 -2.677873144E+02  2.677873144E+02  0.000000000E+00  0.00000E+00  9.000E+00
      25     1     1     2     0     0  6.724324381E+01  7.351689936E+01  6.586983263E+02  6.769121701E+02  1.200008861E+02  0.00000E+00  9.000E+00
       3     1     1     2   502     0 -6.724324381E+01 -7.351689936E+01 -2.490870984E+02  2.682736866E+02  2.697398305E-06  0.00000E+00  9.000E+00
#rwgt            1           1   29.237089442400929                2        3819           0
<rwgt>
<wgt id='1001'>0.31512E+02</wgt>
<wgt id='1002'>0.27134E+02</wgt>
<wgt id='1003'>0.35907E+02</wgt>
<wgt id='1004'>0.27898E+02</wgt>
<wgt id='1005'>0.24728E+02</wgt>
<wgt id='1006'>0.31008E+02</wgt>
<wgt id='1007'>0.35588E+02</wgt>
<wgt id='1008'>0.29359E+02</wgt>
<wgt id='1009'>0.41973E+02</wgt>
<wgt id='2000'>0.31512E+02</wgt>
<wgt id='2001'>0.31493E+02</wgt>
<wgt id='2002'>0.31513E+02</wgt>
<wgt id='2003'>0.31465E+02</wgt>
<wgt id='2004'>0.31534E+02</wgt>
<wgt id='2005'>0.31565E+02</wgt>
<wgt id='2006'>0.31517E+02</wgt>
<wgt id='2007'>0.31641E+02</wgt>
<wgt id='2008'>0.31646E+02</wgt>
<wgt id='2009'>0.31449E+02</wgt>
<wgt id='2010'>0.31445E+02</wgt>
<wgt id='2011'>0.31538E+02</wgt>
<wgt id='2012'>0.31510E+02</wgt>
<wgt id='2013'>0.31441E+02</wgt>
<wgt id='2014'>0.31425E+02</wgt>
<wgt id='2015'>0.31486E+02</wgt>
<wgt id='2016'>0.31531E+02</wgt>
<wgt id='2017'>0.31490E+02</wgt>
<wgt id='2018'>0.31440E+02</wgt>
<wgt id='2019'>0.31524E+02</wgt>
<wgt id='2020'>0.31434E+02</wgt>
<wgt id='2021'>0.31558E+02</wgt>
<wgt id='2022'>0.31415E+02</wgt>
<wgt id='2023'>0.31521E+02</wgt>
<wgt id='2024'>0.31450E+02</wgt>
<wgt id='2025'>0.31445E+02</wgt>
<wgt id='2026'>0.31530E+02</wgt>
<wgt id='2027'>0.31464E+02</wgt>
<wgt id='2028'>0.31475E+02</wgt>
<wgt id='2029'>0.31696E+02</wgt>
<wgt id='2030'>0.31511E+02</wgt>
<wgt id='2031'>0.31546E+02</wgt>
<wgt id='2032'>0.31518E+02</wgt>
<wgt id='2033'>0.31496E+02</wgt>
<wgt id='2034'>0.31599E+02</wgt>
<wgt id='2035'>0.31486E+02</wgt>
<wgt id='2036'>0.31499E+02</wgt>
<wgt id='2037'>0.31566E+02</wgt>
<wgt id='2038'>0.31469E+02</wgt>
<wgt id='2039'>0.31437E+02</wgt>
<wgt id='2040'>0.31485E+02</wgt>
<wgt id='2041'>0.31484E+02</wgt>
<wgt id='2042'>0.31485E+02</wgt>
<wgt id='2043'>0.31501E+02</wgt>
<wgt id='2044'>0.31558E+02</wgt>
<wgt id='2045'>0.31481E+02</wgt>
<wgt id='2046'>0.31565E+02</wgt>
<wgt id='2047'>0.31563E+02</wgt>
<wgt id='2048'>0.31498E+02</wgt>
<wgt id='2049'>0.31512E+02</wgt>
<wgt id='2050'>0.31530E+02</wgt>
<wgt id='2051'>0.31549E+02</wgt>
<wgt id='2052'>0.31517E+02</wgt>
<wgt id='2053'>0.31525E+02</wgt>
<wgt id='2054'>0.31525E+02</wgt>
<wgt id='2055'>0.31507E+02</wgt>
<wgt id='2056'>0.31515E+02</wgt>
<wgt id='2057'>0.31533E+02</wgt>
<wgt id='2058'>0.31515E+02</wgt>
<wgt id='2059'>0.31504E+02</wgt>
<wgt id='2060'>0.31511E+02</wgt>
<wgt id='2061'>0.31511E+02</wgt>
<wgt id='2062'>0.31518E+02</wgt>
<wgt id='2063'>0.31505E+02</wgt>
<wgt id='2064'>0.31514E+02</wgt>
<wgt id='2065'>0.31521E+02</wgt>
<wgt id='2066'>0.31514E+02</wgt>
<wgt id='2067'>0.31515E+02</wgt>
<wgt id='2068'>0.31522E+02</wgt>
<wgt id='2069'>0.31510E+02</wgt>
<wgt id='2070'>0.31500E+02</wgt>
<wgt id='2071'>0.31494E+02</wgt>
<wgt id='2072'>0.31514E+02</wgt>
<wgt id='2073'>0.31506E+02</wgt>
<wgt id='2074'>0.31495E+02</wgt>
<wgt id='2075'>0.31511E+02</wgt>
<wgt id='2076'>0.31512E+02</wgt>
<wgt id='2077'>0.31498E+02</wgt>
<wgt id='2078'>0.31517E+02</wgt>
<wgt id='2079'>0.31517E+02</wgt>
<wgt id='2080'>0.31511E+02</wgt>
<wgt id='2081'>0.31517E+02</wgt>
<wgt id='2082'>0.31518E+02</wgt>
<wgt id='2083'>0.31510E+02</wgt>
<wgt id='2084'>0.31511E+02</wgt>
<wgt id='2085'>0.31507E+02</wgt>
<wgt id='2086'>0.31509E+02</wgt>
<wgt id='2087'>0.31509E+02</wgt>
<wgt id='2088'>0.31515E+02</wgt>
<wgt id='2089'>0.31509E+02</wgt>
<wgt id='2090'>0.31513E+02</wgt>
<wgt id='2091'>0.31507E+02</wgt>
<wgt id='2092'>0.31513E+02</wgt>
<wgt id='2093'>0.31503E+02</wgt>
<wgt id='2094'>0.31513E+02</wgt>
<wgt id='2095'>0.31510E+02</wgt>
<wgt id='2096'>0.31505E+02</wgt>
<wgt id='2097'>0.31514E+02</wgt>
<wgt id='2098'>0.31503E+02</wgt>
<wgt id='2099'>0.31514E+02</wgt>
<wgt id='2100'>0.31509E+02</wgt>
<wgt id='2101'>0.30702E+02</wgt>
<wgt id='2102'>0.32385E+02</wgt>
<wgt id='2104'>0.27383E+02</wgt>
<wgt id='2105'>0.28232E+02</wgt>
<wgt id='2106'>0.28906E+02</wgt>
<wgt id='2107'>0.29640E+02</wgt>
<wgt id='2108'>0.31056E+02</wgt>
<wgt id='2109'>0.31924E+02</wgt>
<wgt id='2110'>0.33259E+02</wgt>
<wgt id='2111'>0.34119E+02</wgt>
<wgt id='3000'>0.33113E+02</wgt>
<wgt id='3001'>0.33136E+02</wgt>
<wgt id='3002'>0.33075E+02</wgt>
<wgt id='3003'>0.33045E+02</wgt>
<wgt id='3004'>0.33145E+02</wgt>
<wgt id='3005'>0.33000E+02</wgt>
<wgt id='3006'>0.33075E+02</wgt>
<wgt id='3007'>0.32973E+02</wgt>
<wgt id='3008'>0.33128E+02</wgt>
<wgt id='3009'>0.32954E+02</wgt>
<wgt id='3010'>0.33101E+02</wgt>
<wgt id='3011'>0.33142E+02</wgt>
<wgt id='3012'>0.33108E+02</wgt>
<wgt id='3013'>0.33135E+02</wgt>
<wgt id='3014'>0.33036E+02</wgt>
<wgt id='3015'>0.33115E+02</wgt>
<wgt id='3016'>0.33106E+02</wgt>
<wgt id='3017'>0.33052E+02</wgt>
<wgt id='3018'>0.33097E+02</wgt>
<wgt id='3019'>0.33226E+02</wgt>
<wgt id='3020'>0.33204E+02</wgt>
<wgt id='3021'>0.33205E+02</wgt>
<wgt id='3022'>0.33115E+02</wgt>
<wgt id='3023'>0.33149E+02</wgt>
<wgt id='3024'>0.33166E+02</wgt>
<wgt id='3025'>0.33157E+02</wgt>
<wgt id='3026'>0.33050E+02</wgt>
<wgt id='3027'>0.33131E+02</wgt>
<wgt id='3028'>0.33114E+02</wgt>
<wgt id='3029'>0.33032E+02</wgt>
<wgt id='3030'>0.33300E+02</wgt>
<wgt id='3031'>0.33209E+02</wgt>
<wgt id='3032'>0.33105E+02</wgt>
<wgt id='3033'>0.33163E+02</wgt>
<wgt id='3034'>0.33109E+02</wgt>
<wgt id='3035'>0.33254E+02</wgt>
<wgt id='3036'>0.33164E+02</wgt>
<wgt id='3037'>0.33078E+02</wgt>
<wgt id='3038'>0.33141E+02</wgt>
<wgt id='3039'>0.33155E+02</wgt>
<wgt id='3040'>0.33079E+02</wgt>
<wgt id='3041'>0.33116E+02</wgt>
<wgt id='3042'>0.33070E+02</wgt>
<wgt id='3043'>0.33058E+02</wgt>
<wgt id='3044'>0.33129E+02</wgt>
<wgt id='3045'>0.33131E+02</wgt>
<wgt id='3046'>0.33141E+02</wgt>
<wgt id='3047'>0.33108E+02</wgt>
<wgt id='3048'>0.33111E+02</wgt>
<wgt id='3049'>0.33096E+02</wgt>
<wgt id='3050'>0.33085E+02</wgt>
<wgt id='3051'>0.33159E+02</wgt>
<wgt id='3052'>0.33102E+02</wgt>
<wgt id='3053'>0.33108E+02</wgt>
<wgt id='3054'>0.33114E+02</wgt>
<wgt id='3055'>0.33080E+02</wgt>
<wgt id='3056'>0.33114E+02</wgt>
<wgt id='3057'>0.33126E+02</wgt>
<wgt id='3058'>0.33071E+02</wgt>
<wgt id='3059'>0.33127E+02</wgt>
<wgt id='3060'>0.33106E+02</wgt>
<wgt id='3061'>0.33126E+02</wgt>
<wgt id='3062'>0.33130E+02</wgt>
<wgt id='3063'>0.33110E+02</wgt>
<wgt id='3064'>0.33115E+02</wgt>
<wgt id='3065'>0.33112E+02</wgt>
<wgt id='3066'>0.33115E+02</wgt>
<wgt id='3067'>0.33094E+02</wgt>
<wgt id='3068'>0.33114E+02</wgt>
<wgt id='3069'>0.33100E+02</wgt>
<wgt id='3070'>0.33101E+02</wgt>
<wgt id='3071'>0.33112E+02</wgt>
<wgt id='3072'>0.33119E+02</wgt>
<wgt id='3073'>0.33111E+02</wgt>
<wgt id='3074'>0.33124E+02</wgt>
<wgt id='3075'>0.33121E+02</wgt>
<wgt id='3076'>0.33113E+02</wgt>
<wgt id='3077'>0.33113E+02</wgt>
<wgt id='3078'>0.33128E+02</wgt>
<wgt id='3079'>0.33105E+02</wgt>
<wgt id='3080'>0.33107E+02</wgt>
<wgt id='3081'>0.33107E+02</wgt>
<wgt id='3082'>0.33104E+02</wgt>
<wgt id='3083'>0.33114E+02</wgt>
<wgt id='3084'>0.33106E+02</wgt>
<wgt id='3085'>0.33124E+02</wgt>
<wgt id='3086'>0.33107E+02</wgt>
<wgt id='3087'>0.33101E+02</wgt>
<wgt id='3088'>0.33110E+02</wgt>
<wgt id='3089'>0.33113E+02</wgt>
<wgt id='3090'>0.33113E+02</wgt>
<wgt id='3091'>0.33116E+02</wgt>
<wgt id='3092'>0.33105E+02</wgt>
<wgt id='3093'>0.33114E+02</wgt>
<wgt id='3094'>0.33117E+02</wgt>
<wgt id='3095'>0.33114E+02</wgt>
<wgt id='3096'>0.33109E+02</wgt>
<wgt id='3097'>0.33108E+02</wgt>
<wgt id='3098'>0.33107E+02</wgt>
<wgt id='3099'>0.33118E+02</wgt>
<wgt id='3100'>0.33114E+02</wgt>
<wgt id='3101'>0.32154E+02</wgt>
<wgt id='3102'>0.34049E+02</wgt>
<wgt id='5000'>0.31205E+02</wgt>
<wgt id='5001'>0.31214E+02</wgt>
<wgt id='5002'>0.31148E+02</wgt>
<wgt id='5003'>0.31238E+02</wgt>
<wgt id='5004'>0.31175E+02</wgt>
<wgt id='5005'>0.31443E+02</wgt>
<wgt id='5006'>0.30902E+02</wgt>
<wgt id='5007'>0.31020E+02</wgt>
<wgt id='5008'>0.31407E+02</wgt>
<wgt id='5009'>0.31136E+02</wgt>
<wgt id='5010'>0.31242E+02</wgt>
<wgt id='5011'>0.31345E+02</wgt>
<wgt id='5012'>0.31021E+02</wgt>
<wgt id='5013'>0.31278E+02</wgt>
<wgt id='5014'>0.31064E+02</wgt>
<wgt id='5015'>0.31203E+02</wgt>
<wgt id='5016'>0.31141E+02</wgt>
<wgt id='5017'>0.31135E+02</wgt>
<wgt id='5018'>0.31284E+02</wgt>
<wgt id='5019'>0.30935E+02</wgt>
<wgt id='5020'>0.31465E+02</wgt>
<wgt id='5021'>0.31189E+02</wgt>
<wgt id='5022'>0.31212E+02</wgt>
<wgt id='5023'>0.31011E+02</wgt>
<wgt id='5024'>0.31415E+02</wgt>
<wgt id='5025'>0.31186E+02</wgt>
<wgt id='5026'>0.31219E+02</wgt>
<wgt id='5027'>0.31350E+02</wgt>
<wgt id='5028'>0.30951E+02</wgt>
<wgt id='5029'>0.31010E+02</wgt>
<wgt id='5030'>0.31312E+02</wgt>
<wgt id='5031'>0.31071E+02</wgt>
<wgt id='5032'>0.31390E+02</wgt>
<wgt id='5033'>0.31029E+02</wgt>
<wgt id='5034'>0.31365E+02</wgt>
<wgt id='5035'>0.30871E+02</wgt>
<wgt id='5036'>0.31497E+02</wgt>
<wgt id='5037'>0.30975E+02</wgt>
<wgt id='5038'>0.31466E+02</wgt>
<wgt id='5039'>0.31651E+02</wgt>
<wgt id='5040'>0.30989E+02</wgt>
<wgt id='5041'>0.31214E+02</wgt>
<wgt id='5042'>0.31180E+02</wgt>
<wgt id='5043'>0.31326E+02</wgt>
<wgt id='5044'>0.30962E+02</wgt>
<wgt id='5045'>0.30832E+02</wgt>
<wgt id='5046'>0.31450E+02</wgt>
<wgt id='5047'>0.30705E+02</wgt>
<wgt id='5048'>0.31702E+02</wgt>
<wgt id='5049'>0.31153E+02</wgt>
<wgt id='5050'>0.31294E+02</wgt>
<wgt id='5051'>0.31233E+02</wgt>
<wgt id='5052'>0.31170E+02</wgt>
<wgt id='5053'>0.30125E+02</wgt>
<wgt id='5054'>0.30583E+02</wgt>
<wgt id='5055'>0.31048E+02</wgt>
<wgt id='5056'>0.31475E+02</wgt>
<wgt id='5060'>0.30245E+02</wgt>
<wgt id='5070'>0.32200E+02</wgt>
<wgt id='4000'>0.32871E+02</wgt>
<wgt id='4001'>0.32840E+02</wgt>
<wgt id='4002'>0.32921E+02</wgt>
<wgt id='4003'>0.32428E+02</wgt>
<wgt id='4004'>0.33165E+02</wgt>
<wgt id='4005'>0.33002E+02</wgt>
<wgt id='4006'>0.32772E+02</wgt>
<wgt id='4007'>0.32603E+02</wgt>
<wgt id='4008'>0.33144E+02</wgt>
<wgt id='4009'>0.32699E+02</wgt>
<wgt id='4010'>0.33031E+02</wgt>
<wgt id='4011'>0.33018E+02</wgt>
<wgt id='4012'>0.32775E+02</wgt>
<wgt id='4013'>0.32324E+02</wgt>
<wgt id='4014'>0.33210E+02</wgt>
<wgt id='4015'>0.33256E+02</wgt>
<wgt id='4016'>0.32638E+02</wgt>
<wgt id='4017'>0.32476E+02</wgt>
<wgt id='4018'>0.33342E+02</wgt>
<wgt id='4019'>0.32941E+02</wgt>
<wgt id='4020'>0.32772E+02</wgt>
<wgt id='4021'>0.32843E+02</wgt>
<wgt id='4022'>0.32906E+02</wgt>
<wgt id='4023'>0.32935E+02</wgt>
<wgt id='4024'>0.32788E+02</wgt>
<wgt id='4025'>0.32783E+02</wgt>
<wgt id='4026'>0.32949E+02</wgt>
<wgt id='4027'>0.32887E+02</wgt>
<wgt id='4028'>0.32841E+02</wgt>
<wgt id='4029'>0.32839E+02</wgt>
<wgt id='4030'>0.32881E+02</wgt>
<wgt id='4031'>0.32884E+02</wgt>
<wgt id='4032'>0.32854E+02</wgt>
<wgt id='4033'>0.32878E+02</wgt>
<wgt id='4034'>0.32859E+02</wgt>
<wgt id='4035'>0.32884E+02</wgt>
<wgt id='4036'>0.32850E+02</wgt>
<wgt id='4037'>0.32812E+02</wgt>
<wgt id='4038'>0.32910E+02</wgt>
<wgt id='4039'>0.32717E+02</wgt>
<wgt id='4040'>0.32976E+02</wgt>
<wgt id='4041'>0.32898E+02</wgt>
<wgt id='4042'>0.32832E+02</wgt>
<wgt id='4043'>0.32567E+02</wgt>
<wgt id='4044'>0.33135E+02</wgt>
<wgt id='4045'>0.32902E+02</wgt>
<wgt id='4046'>0.32847E+02</wgt>
<wgt id='4047'>0.32959E+02</wgt>
<wgt id='4048'>0.32699E+02</wgt>
<wgt id='4049'>0.32666E+02</wgt>
<wgt id='4050'>0.33110E+02</wgt>
<wgt id='4051'>0.32850E+02</wgt>
<wgt id='4052'>0.32862E+02</wgt>
<wgt id='4053'>0.31747E+02</wgt>
<wgt id='4054'>0.32668E+02</wgt>
<wgt id='4055'>0.32824E+02</wgt>
<wgt id='4056'>0.33019E+02</wgt>
<wgt id='4060'>0.31803E+02</wgt>
<wgt id='4070'>0.33972E+02</wgt>
<wgt id='4080'>0.37326E+02</wgt>
<wgt id='6000'>0.32948E+02</wgt>
<wgt id='6001'>0.33003E+02</wgt>
<wgt id='6002'>0.32889E+02</wgt>
<wgt id='6003'>0.32963E+02</wgt>
<wgt id='6004'>0.32938E+02</wgt>
<wgt id='6005'>0.32974E+02</wgt>
<wgt id='6006'>0.32925E+02</wgt>
<wgt id='6007'>0.32866E+02</wgt>
<wgt id='6008'>0.33041E+02</wgt>
<wgt id='6009'>0.33102E+02</wgt>
<wgt id='6010'>0.32798E+02</wgt>
<wgt id='6011'>0.33023E+02</wgt>
<wgt id='6012'>0.32787E+02</wgt>
<wgt id='6013'>0.32907E+02</wgt>
<wgt id='6014'>0.33022E+02</wgt>
<wgt id='6015'>0.32876E+02</wgt>
<wgt id='6016'>0.32988E+02</wgt>
<wgt id='6017'>0.32742E+02</wgt>
<wgt id='6018'>0.33193E+02</wgt>
<wgt id='6019'>0.32926E+02</wgt>
<wgt id='6020'>0.32967E+02</wgt>
<wgt id='6021'>0.32883E+02</wgt>
<wgt id='6022'>0.33038E+02</wgt>
<wgt id='6023'>0.32721E+02</wgt>
<wgt id='6024'>0.33109E+02</wgt>
<wgt id='6025'>0.33062E+02</wgt>
<wgt id='6026'>0.32703E+02</wgt>
<wgt id='6027'>0.33041E+02</wgt>
<wgt id='6028'>0.32942E+02</wgt>
<wgt id='6029'>0.32963E+02</wgt>
<wgt id='6030'>0.32929E+02</wgt>
<wgt id='6031'>0.32835E+02</wgt>
<wgt id='6032'>0.33059E+02</wgt>
<wgt id='6033'>0.33038E+02</wgt>
<wgt id='6034'>0.32856E+02</wgt>
<wgt id='6035'>0.32980E+02</wgt>
<wgt id='6036'>0.32935E+02</wgt>
<wgt id='6037'>0.32996E+02</wgt>
<wgt id='6038'>0.32958E+02</wgt>
<wgt id='6039'>0.32880E+02</wgt>
<wgt id='6040'>0.33024E+02</wgt>
<wgt id='6041'>0.32875E+02</wgt>
<wgt id='6042'>0.33040E+02</wgt>
<wgt id='6043'>0.33382E+02</wgt>
<wgt id='6044'>0.32822E+02</wgt>
<wgt id='6045'>0.32916E+02</wgt>
<wgt id='6046'>0.33037E+02</wgt>
<wgt id='6047'>0.33050E+02</wgt>
<wgt id='6048'>0.32858E+02</wgt>
<wgt id='6049'>0.32979E+02</wgt>
<wgt id='6050'>0.32935E+02</wgt>
<wgt id='7000'>0.30998E+02</wgt>
<wgt id='7001'>0.31041E+02</wgt>
<wgt id='7002'>0.30945E+02</wgt>
<wgt id='7003'>0.31077E+02</wgt>
<wgt id='7004'>0.30921E+02</wgt>
<wgt id='7005'>0.31037E+02</wgt>
<wgt id='7006'>0.30983E+02</wgt>
<wgt id='7007'>0.30896E+02</wgt>
<wgt id='7008'>0.31102E+02</wgt>
<wgt id='7009'>0.31071E+02</wgt>
<wgt id='7010'>0.30928E+02</wgt>
<wgt id='7011'>0.30673E+02</wgt>
<wgt id='7012'>0.31140E+02</wgt>
<wgt id='7013'>0.30992E+02</wgt>
<wgt id='7014'>0.31008E+02</wgt>
<wgt id='7015'>0.30902E+02</wgt>
<wgt id='7016'>0.31102E+02</wgt>
<wgt id='7017'>0.30712E+02</wgt>
<wgt id='7018'>0.31153E+02</wgt>
<wgt id='7019'>0.30978E+02</wgt>
<wgt id='7020'>0.31030E+02</wgt>
<wgt id='7021'>0.30998E+02</wgt>
<wgt id='7022'>0.30998E+02</wgt>
<wgt id='7023'>0.31073E+02</wgt>
<wgt id='7024'>0.30898E+02</wgt>
<wgt id='7025'>0.31059E+02</wgt>
<wgt id='7026'>0.30853E+02</wgt>
<wgt id='7027'>0.31096E+02</wgt>
<wgt id='7028'>0.30979E+02</wgt>
<wgt id='7029'>0.31009E+02</wgt>
<wgt id='7030'>0.30933E+02</wgt>
<wgt id='7031'>0.30943E+02</wgt>
<wgt id='7032'>0.31117E+02</wgt>
<wgt id='7033'>0.31010E+02</wgt>
<wgt id='7034'>0.31003E+02</wgt>
<wgt id='7035'>0.30946E+02</wgt>
<wgt id='7036'>0.31043E+02</wgt>
<wgt id='7037'>0.31002E+02</wgt>
<wgt id='7038'>0.31038E+02</wgt>
<wgt id='7039'>0.30918E+02</wgt>
<wgt id='7040'>0.31056E+02</wgt>
<wgt id='7041'>0.31006E+02</wgt>
<wgt id='7042'>0.30994E+02</wgt>
<wgt id='7043'>0.31017E+02</wgt>
<wgt id='7044'>0.30887E+02</wgt>
<wgt id='7045'>0.30842E+02</wgt>
<wgt id='7046'>0.31149E+02</wgt>
<wgt id='7047'>0.31087E+02</wgt>
<wgt id='7048'>0.30968E+02</wgt>
<wgt id='7049'>0.30997E+02</wgt>
<wgt id='7050'>0.31058E+02</wgt>
<wgt id='7060'>0.51776E+02</wgt>
<wgt id='8000'>0.31518E+02</wgt>
<wgt id='8001'>0.31510E+02</wgt>
<wgt id='8002'>0.31526E+02</wgt>
<wgt id='8003'>0.31519E+02</wgt>
<wgt id='8004'>0.31517E+02</wgt>
<wgt id='8005'>0.31445E+02</wgt>
<wgt id='8006'>0.31512E+02</wgt>
<wgt id='8007'>0.31493E+02</wgt>
<wgt id='8008'>0.31572E+02</wgt>
<wgt id='8009'>0.31631E+02</wgt>
<wgt id='8010'>0.31517E+02</wgt>
<wgt id='8011'>0.31509E+02</wgt>
<wgt id='8012'>0.31479E+02</wgt>
<wgt id='8013'>0.31500E+02</wgt>
<wgt id='8014'>0.31526E+02</wgt>
<wgt id='8015'>0.31492E+02</wgt>
<wgt id='8016'>0.31541E+02</wgt>
<wgt id='8017'>0.31538E+02</wgt>
<wgt id='8018'>0.31553E+02</wgt>
<wgt id='8019'>0.31514E+02</wgt>
<wgt id='8020'>0.31509E+02</wgt>
<wgt id='8021'>0.31504E+02</wgt>
<wgt id='8022'>0.31504E+02</wgt>
<wgt id='8023'>0.31490E+02</wgt>
<wgt id='8024'>0.31475E+02</wgt>
<wgt id='8025'>0.31512E+02</wgt>
<wgt id='8026'>0.31552E+02</wgt>
<wgt id='8027'>0.31507E+02</wgt>
<wgt id='8028'>0.31543E+02</wgt>
<wgt id='8029'>0.31532E+02</wgt>
<wgt id='8500'>0.32990E+02</wgt>
<wgt id='8501'>0.32797E+02</wgt>
<wgt id='8502'>0.32929E+02</wgt>
<wgt id='8503'>0.33041E+02</wgt>
<wgt id='8504'>0.32926E+02</wgt>
<wgt id='8505'>0.33101E+02</wgt>
<wgt id='8506'>0.32953E+02</wgt>
<wgt id='8507'>0.33126E+02</wgt>
<wgt id='8508'>0.32985E+02</wgt>
<wgt id='8509'>0.33039E+02</wgt>
<wgt id='8510'>0.33166E+02</wgt>
<wgt id='8511'>0.32973E+02</wgt>
<wgt id='8512'>0.33021E+02</wgt>
<wgt id='8513'>0.32969E+02</wgt>
<wgt id='8514'>0.32808E+02</wgt>
<wgt id='8515'>0.33127E+02</wgt>
<wgt id='8516'>0.32966E+02</wgt>
<wgt id='8517'>0.32937E+02</wgt>
<wgt id='8518'>0.32804E+02</wgt>
<wgt id='8519'>0.32746E+02</wgt>
<wgt id='8520'>0.32937E+02</wgt>
<wgt id='8521'>0.32871E+02</wgt>
<wgt id='8522'>0.33088E+02</wgt>
<wgt id='8523'>0.32867E+02</wgt>
<wgt id='8524'>0.33065E+02</wgt>
<wgt id='8525'>0.32990E+02</wgt>
<wgt id='8526'>0.32926E+02</wgt>
<wgt id='8527'>0.33002E+02</wgt>
<wgt id='8528'>0.32903E+02</wgt>
<wgt id='8529'>0.32961E+02</wgt>
<wgt id='8530'>0.32990E+02</wgt>
<wgt id='8531'>0.32983E+02</wgt>
<wgt id='8532'>0.32991E+02</wgt>
<wgt id='8533'>0.32908E+02</wgt>
<wgt id='8534'>0.32985E+02</wgt>
<wgt id='8535'>0.33067E+02</wgt>
<wgt id='8536'>0.32950E+02</wgt>
<wgt id='8537'>0.32990E+02</wgt>
<wgt id='8538'>0.32963E+02</wgt>
<wgt id='8539'>0.32995E+02</wgt>
<wgt id='8540'>0.32981E+02</wgt>
<wgt id='8541'>0.33010E+02</wgt>
<wgt id='8542'>0.33000E+02</wgt>
<wgt id='8543'>0.32963E+02</wgt>
<wgt id='8544'>0.33016E+02</wgt>
<wgt id='8545'>0.33010E+02</wgt>
<wgt id='8546'>0.33029E+02</wgt>
<wgt id='8547'>0.32961E+02</wgt>
<wgt id='8548'>0.32958E+02</wgt>
<wgt id='8549'>0.32997E+02</wgt>
<wgt id='8550'>0.32983E+02</wgt>
<wgt id='8551'>0.32969E+02</wgt>
<wgt id='8552'>0.32988E+02</wgt>
<wgt id='8553'>0.32962E+02</wgt>
<wgt id='8554'>0.32983E+02</wgt>
<wgt id='8555'>0.32989E+02</wgt>
<wgt id='8556'>0.32982E+02</wgt>
<wgt id='8557'>0.32989E+02</wgt>
<wgt id='8558'>0.33021E+02</wgt>
<wgt id='8559'>0.32973E+02</wgt>
<wgt id='8560'>0.32954E+02</wgt>
<wgt id='8561'>0.32991E+02</wgt>
<wgt id='8562'>0.32961E+02</wgt>
<wgt id='8563'>0.32995E+02</wgt>
<wgt id='8564'>0.32978E+02</wgt>
<wgt id='8565'>0.32991E+02</wgt>
<wgt id='8566'>0.32986E+02</wgt>
<wgt id='8567'>0.32987E+02</wgt>
<wgt id='8568'>0.33007E+02</wgt>
<wgt id='8569'>0.33004E+02</wgt>
<wgt id='8570'>0.32993E+02</wgt>
<wgt id='8571'>0.32970E+02</wgt>
<wgt id='8572'>0.32972E+02</wgt>
<wgt id='8573'>0.32968E+02</wgt>
<wgt id='8574'>0.32997E+02</wgt>
<wgt id='8575'>0.32986E+02</wgt>
<wgt id='8576'>0.32984E+02</wgt>
<wgt id='8577'>0.32986E+02</wgt>
<wgt id='8578'>0.32993E+02</wgt>
<wgt id='8579'>0.33012E+02</wgt>
<wgt id='8580'>0.32986E+02</wgt>
<wgt id='8581'>0.33004E+02</wgt>
<wgt id='8582'>0.32963E+02</wgt>
<wgt id='8583'>0.33007E+02</wgt>
<wgt id='8584'>0.33000E+02</wgt>
<wgt id='8585'>0.33002E+02</wgt>
<wgt id='8586'>0.33008E+02</wgt>
<wgt id='8587'>0.32987E+02</wgt>
<wgt id='8588'>0.32980E+02</wgt>
<wgt id='8589'>0.32992E+02</wgt>
<wgt id='8590'>0.32987E+02</wgt>
<wgt id='8591'>0.32985E+02</wgt>
<wgt id='8592'>0.32989E+02</wgt>
<wgt id='8593'>0.32976E+02</wgt>
<wgt id='8594'>0.32996E+02</wgt>
<wgt id='8595'>0.32994E+02</wgt>
<wgt id='8596'>0.32984E+02</wgt>
<wgt id='8597'>0.32995E+02</wgt>
<wgt id='8598'>0.33001E+02</wgt>
<wgt id='8599'>0.32992E+02</wgt>
<wgt id='8600'>0.32990E+02</wgt>
<wgt id='8601'>0.32284E+02</wgt>
<wgt id='8602'>0.33698E+02</wgt>
<wgt id='9000'>0.31205E+02</wgt>
<wgt id='9001'>0.31257E+02</wgt>
<wgt id='9002'>0.31195E+02</wgt>
<wgt id='9003'>0.31201E+02</wgt>
<wgt id='9004'>0.31247E+02</wgt>
<wgt id='9005'>0.31174E+02</wgt>
<wgt id='9006'>0.31360E+02</wgt>
<wgt id='9007'>0.31445E+02</wgt>
<wgt id='9008'>0.31307E+02</wgt>
<wgt id='9009'>0.31183E+02</wgt>
<wgt id='9010'>0.31190E+02</wgt>
<wgt id='9011'>0.31303E+02</wgt>
<wgt id='9012'>0.31087E+02</wgt>
<wgt id='9013'>0.31194E+02</wgt>
<wgt id='9014'>0.31195E+02</wgt>
<wgt id='9015'>0.31130E+02</wgt>
<wgt id='9016'>0.31305E+02</wgt>
<wgt id='9017'>0.31053E+02</wgt>
<wgt id='9018'>0.31251E+02</wgt>
<wgt id='9019'>0.31261E+02</wgt>
<wgt id='9020'>0.31438E+02</wgt>
<wgt id='9021'>0.31182E+02</wgt>
<wgt id='9022'>0.31259E+02</wgt>
<wgt id='9023'>0.31031E+02</wgt>
<wgt id='9024'>0.31095E+02</wgt>
<wgt id='9025'>0.31323E+02</wgt>
<wgt id='9026'>0.31194E+02</wgt>
<wgt id='9027'>0.31179E+02</wgt>
<wgt id='9028'>0.31249E+02</wgt>
<wgt id='9029'>0.31221E+02</wgt>
<wgt id='9030'>0.31213E+02</wgt>
<wgt id='9031'>0.31192E+02</wgt>
<wgt id='9032'>0.31235E+02</wgt>
<wgt id='9033'>0.31250E+02</wgt>
<wgt id='9034'>0.31210E+02</wgt>
<wgt id='9035'>0.31253E+02</wgt>
<wgt id='9036'>0.31225E+02</wgt>
<wgt id='9037'>0.31236E+02</wgt>
<wgt id='9038'>0.31225E+02</wgt>
<wgt id='9039'>0.31216E+02</wgt>
<wgt id='9040'>0.31170E+02</wgt>
<wgt id='9041'>0.31197E+02</wgt>
<wgt id='9042'>0.31213E+02</wgt>
<wgt id='9043'>0.31179E+02</wgt>
<wgt id='9044'>0.31207E+02</wgt>
<wgt id='9045'>0.31206E+02</wgt>
<wgt id='9046'>0.31168E+02</wgt>
<wgt id='9047'>0.31205E+02</wgt>
<wgt id='9048'>0.31224E+02</wgt>
<wgt id='9049'>0.31186E+02</wgt>
<wgt id='9050'>0.31209E+02</wgt>
<wgt id='9051'>0.31229E+02</wgt>
<wgt id='9052'>0.31233E+02</wgt>
<wgt id='9053'>0.31206E+02</wgt>
<wgt id='9054'>0.31194E+02</wgt>
<wgt id='9055'>0.31189E+02</wgt>
<wgt id='9056'>0.31222E+02</wgt>
<wgt id='9057'>0.31207E+02</wgt>
<wgt id='9058'>0.31181E+02</wgt>
<wgt id='9059'>0.31184E+02</wgt>
<wgt id='9060'>0.31193E+02</wgt>
<wgt id='9061'>0.31205E+02</wgt>
<wgt id='9062'>0.31212E+02</wgt>
<wgt id='9063'>0.31212E+02</wgt>
<wgt id='9064'>0.31202E+02</wgt>
<wgt id='9065'>0.31202E+02</wgt>
<wgt id='9066'>0.31204E+02</wgt>
<wgt id='9067'>0.31213E+02</wgt>
<wgt id='9068'>0.31210E+02</wgt>
<wgt id='9069'>0.31232E+02</wgt>
<wgt id='9070'>0.31197E+02</wgt>
<wgt id='9071'>0.31228E+02</wgt>
<wgt id='9072'>0.31227E+02</wgt>
<wgt id='9073'>0.31198E+02</wgt>
<wgt id='9074'>0.31206E+02</wgt>
<wgt id='9075'>0.31199E+02</wgt>
<wgt id='9076'>0.31207E+02</wgt>
<wgt id='9077'>0.31215E+02</wgt>
<wgt id='9078'>0.31212E+02</wgt>
<wgt id='9079'>0.31200E+02</wgt>
<wgt id='9080'>0.31233E+02</wgt>
<wgt id='9081'>0.31205E+02</wgt>
<wgt id='9082'>0.31215E+02</wgt>
<wgt id='9083'>0.31195E+02</wgt>
<wgt id='9084'>0.31198E+02</wgt>
<wgt id='9085'>0.31193E+02</wgt>
<wgt id='9086'>0.31207E+02</wgt>
<wgt id='9087'>0.31180E+02</wgt>
<wgt id='9088'>0.31200E+02</wgt>
<wgt id='9089'>0.31194E+02</wgt>
<wgt id='9090'>0.31211E+02</wgt>
<wgt id='9091'>0.31203E+02</wgt>
<wgt id='9092'>0.31202E+02</wgt>
<wgt id='9093'>0.31197E+02</wgt>
<wgt id='9094'>0.31203E+02</wgt>
<wgt id='9095'>0.31210E+02</wgt>
<wgt id='9096'>0.31197E+02</wgt>
<wgt id='9097'>0.31209E+02</wgt>
<wgt id='9098'>0.31205E+02</wgt>
<wgt id='9099'>0.31198E+02</wgt>
<wgt id='9100'>0.31207E+02</wgt>
<wgt id='9101'>0.30620E+02</wgt>
<wgt id='9102'>0.31835E+02</wgt>
<wgt id='10000'>0.32979E+02</wgt>
<wgt id='10001'>0.33020E+02</wgt>
<wgt id='10002'>0.32799E+02</wgt>
<wgt id='10003'>0.32969E+02</wgt>
<wgt id='10004'>0.32889E+02</wgt>
<wgt id='10005'>0.33075E+02</wgt>
<wgt id='10006'>0.32860E+02</wgt>
<wgt id='10007'>0.32975E+02</wgt>
<wgt id='10008'>0.32999E+02</wgt>
<wgt id='10009'>0.32894E+02</wgt>
<wgt id='10010'>0.33006E+02</wgt>
<wgt id='10011'>0.32917E+02</wgt>
<wgt id='10012'>0.32854E+02</wgt>
<wgt id='10013'>0.32985E+02</wgt>
<wgt id='10014'>0.32980E+02</wgt>
<wgt id='10015'>0.33042E+02</wgt>
<wgt id='10016'>0.32945E+02</wgt>
<wgt id='10017'>0.32716E+02</wgt>
<wgt id='10018'>0.33055E+02</wgt>
<wgt id='10019'>0.32824E+02</wgt>
<wgt id='10020'>0.32908E+02</wgt>
<wgt id='10021'>0.32946E+02</wgt>
<wgt id='10022'>0.32970E+02</wgt>
<wgt id='10023'>0.33000E+02</wgt>
<wgt id='10024'>0.32953E+02</wgt>
<wgt id='10025'>0.32958E+02</wgt>
<wgt id='10026'>0.33084E+02</wgt>
<wgt id='10027'>0.33038E+02</wgt>
<wgt id='10028'>0.33338E+02</wgt>
<wgt id='10029'>0.33015E+02</wgt>
<wgt id='10030'>0.32962E+02</wgt>
<wgt id='10031'>0.32284E+02</wgt>
<wgt id='10032'>0.33698E+02</wgt>
<wgt id='11000'>0.31194E+02</wgt>
<wgt id='11001'>0.30872E+02</wgt>
<wgt id='11002'>0.31158E+02</wgt>
<wgt id='11003'>0.31185E+02</wgt>
<wgt id='11004'>0.31111E+02</wgt>
<wgt id='11005'>0.31147E+02</wgt>
<wgt id='11006'>0.31194E+02</wgt>
<wgt id='11007'>0.31178E+02</wgt>
<wgt id='11008'>0.31142E+02</wgt>
<wgt id='11009'>0.31163E+02</wgt>
<wgt id='11010'>0.31580E+02</wgt>
<wgt id='11011'>0.31143E+02</wgt>
<wgt id='11012'>0.31187E+02</wgt>
<wgt id='11013'>0.31235E+02</wgt>
<wgt id='11014'>0.31174E+02</wgt>
<wgt id='11015'>0.31164E+02</wgt>
<wgt id='11016'>0.31201E+02</wgt>
<wgt id='11017'>0.31243E+02</wgt>
<wgt id='11018'>0.31198E+02</wgt>
<wgt id='11019'>0.31209E+02</wgt>
<wgt id='11020'>0.31188E+02</wgt>
<wgt id='11021'>0.31220E+02</wgt>
<wgt id='11022'>0.31292E+02</wgt>
<wgt id='11023'>0.31191E+02</wgt>
<wgt id='11024'>0.31175E+02</wgt>
<wgt id='11025'>0.31155E+02</wgt>
<wgt id='11026'>0.31196E+02</wgt>
<wgt id='11027'>0.31212E+02</wgt>
<wgt id='11028'>0.31186E+02</wgt>
<wgt id='11029'>0.31104E+02</wgt>
<wgt id='11030'>0.31193E+02</wgt>
<wgt id='11031'>0.30620E+02</wgt>
<wgt id='11032'>0.31835E+02</wgt>
<wgt id='12000'>0.32713E+02</wgt>
<wgt id='12001'>0.32675E+02</wgt>
<wgt id='12002'>0.32751E+02</wgt>
<wgt id='12003'>0.32793E+02</wgt>
<wgt id='12004'>0.32633E+02</wgt>
<wgt id='12005'>0.32738E+02</wgt>
<wgt id='12006'>0.32688E+02</wgt>
<wgt id='12007'>0.32774E+02</wgt>
<wgt id='12008'>0.32653E+02</wgt>
<wgt id='12009'>0.32727E+02</wgt>
<wgt id='12010'>0.32700E+02</wgt>
<wgt id='12011'>0.32572E+02</wgt>
<wgt id='12012'>0.32849E+02</wgt>
<wgt id='12013'>0.32640E+02</wgt>
<wgt id='12014'>0.32785E+02</wgt>
<wgt id='12015'>0.32812E+02</wgt>
<wgt id='12016'>0.32636E+02</wgt>
<wgt id='12017'>0.32798E+02</wgt>
<wgt id='12018'>0.32605E+02</wgt>
<wgt id='12019'>0.32781E+02</wgt>
<wgt id='12020'>0.32651E+02</wgt>
<wgt id='12021'>0.32785E+02</wgt>
<wgt id='12022'>0.32611E+02</wgt>
<wgt id='12023'>0.32454E+02</wgt>
<wgt id='12024'>0.32859E+02</wgt>
<wgt id='12025'>0.32589E+02</wgt>
<wgt id='12026'>0.32872E+02</wgt>
<wgt id='12027'>0.32960E+02</wgt>
<wgt id='12028'>0.32506E+02</wgt>
<wgt id='12050'>0.32713E+02</wgt>
<wgt id='12051'>0.32759E+02</wgt>
<wgt id='12052'>0.32627E+02</wgt>
<wgt id='12053'>0.32753E+02</wgt>
<wgt id='12054'>0.32657E+02</wgt>
<wgt id='12055'>0.32712E+02</wgt>
<wgt id='12056'>0.32924E+02</wgt>
<wgt id='12057'>0.32668E+02</wgt>
<wgt id='12058'>0.32771E+02</wgt>
<wgt id='12059'>0.32741E+02</wgt>
<wgt id='12060'>0.32701E+02</wgt>
<wgt id='12061'>0.32582E+02</wgt>
<wgt id='12062'>0.32804E+02</wgt>
<wgt id='12063'>0.32770E+02</wgt>
<wgt id='13000'>0.32101E+02</wgt>
<wgt id='13001'>0.32079E+02</wgt>
<wgt id='13002'>0.32119E+02</wgt>
<wgt id='13003'>0.32157E+02</wgt>
<wgt id='13004'>0.32041E+02</wgt>
<wgt id='13005'>0.32158E+02</wgt>
<wgt id='13006'>0.32040E+02</wgt>
<wgt id='13007'>0.32205E+02</wgt>
<wgt id='13008'>0.31994E+02</wgt>
<wgt id='13009'>0.32051E+02</wgt>
<wgt id='13010'>0.32148E+02</wgt>
<wgt id='13011'>0.32179E+02</wgt>
<wgt id='13012'>0.32020E+02</wgt>
<wgt id='13013'>0.32040E+02</wgt>
<wgt id='13014'>0.32159E+02</wgt>
<wgt id='13015'>0.32138E+02</wgt>
<wgt id='13016'>0.32092E+02</wgt>
<wgt id='13017'>0.32069E+02</wgt>
<wgt id='13018'>0.32125E+02</wgt>
<wgt id='13019'>0.32124E+02</wgt>
<wgt id='13020'>0.32072E+02</wgt>
<wgt id='13021'>0.32112E+02</wgt>
<wgt id='13022'>0.32051E+02</wgt>
<wgt id='13023'>0.31911E+02</wgt>
<wgt id='13024'>0.32281E+02</wgt>
<wgt id='13025'>0.31796E+02</wgt>
<wgt id='13026'>0.32332E+02</wgt>
<wgt id='13027'>0.31989E+02</wgt>
<wgt id='13028'>0.32245E+02</wgt>
<wgt id='13050'>0.32101E+02</wgt>
<wgt id='13051'>0.32123E+02</wgt>
<wgt id='13052'>0.31951E+02</wgt>
<wgt id='13053'>0.32109E+02</wgt>
<wgt id='13054'>0.32092E+02</wgt>
<wgt id='13055'>0.31560E+02</wgt>
<wgt id='13056'>0.32313E+02</wgt>
<wgt id='13057'>0.32040E+02</wgt>
<wgt id='13058'>0.32219E+02</wgt>
<wgt id='13059'>0.32076E+02</wgt>
<wgt id='13060'>0.31531E+02</wgt>
<wgt id='13061'>0.32056E+02</wgt>
<wgt id='13062'>0.32277E+02</wgt>
<wgt id='13063'>0.32275E+02</wgt>
<wgt id='14000'>0.32741E+02</wgt>
<wgt id='14001'>0.32737E+02</wgt>
<wgt id='14002'>0.32732E+02</wgt>
<wgt id='14003'>0.32727E+02</wgt>
<wgt id='14004'>0.32722E+02</wgt>
<wgt id='14005'>0.32717E+02</wgt>
<wgt id='14006'>0.32713E+02</wgt>
<wgt id='14007'>0.32708E+02</wgt>
<wgt id='14008'>0.32703E+02</wgt>
<wgt id='14009'>0.32698E+02</wgt>
<wgt id='14010'>0.32694E+02</wgt>
<wgt id='14011'>0.32689E+02</wgt>
<wgt id='14012'>0.32684E+02</wgt>
<wgt id='14013'>0.32679E+02</wgt>
<wgt id='14014'>0.32675E+02</wgt>
<wgt id='14015'>0.32670E+02</wgt>
<wgt id='14016'>0.32665E+02</wgt>
<wgt id='14017'>0.32661E+02</wgt>
<wgt id='14018'>0.32656E+02</wgt>
<wgt id='14019'>0.32651E+02</wgt>
<wgt id='14020'>0.32646E+02</wgt>
<wgt id='14021'>0.32642E+02</wgt>
<wgt id='14022'>0.32637E+02</wgt>
<wgt id='14023'>0.32632E+02</wgt>
<wgt id='14024'>0.32627E+02</wgt>
<wgt id='14025'>0.32623E+02</wgt>
<wgt id='14026'>0.32618E+02</wgt>
<wgt id='14027'>0.32613E+02</wgt>
<wgt id='14028'>0.32608E+02</wgt>
<wgt id='14029'>0.32604E+02</wgt>
<wgt id='14030'>0.32599E+02</wgt>
<wgt id='15000'>0.30782E+02</wgt>
<wgt id='15001'>0.30834E+02</wgt>
<wgt id='15002'>0.30770E+02</wgt>
<wgt id='15003'>0.30781E+02</wgt>
<wgt id='15004'>0.30824E+02</wgt>
<wgt id='15005'>0.30752E+02</wgt>
<wgt id='15006'>0.30936E+02</wgt>
<wgt id='15007'>0.31017E+02</wgt>
<wgt id='15008'>0.30882E+02</wgt>
<wgt id='15009'>0.30761E+02</wgt>
<wgt id='15010'>0.30769E+02</wgt>
<wgt id='15011'>0.30877E+02</wgt>
<wgt id='15012'>0.30666E+02</wgt>
<wgt id='15013'>0.30774E+02</wgt>
<wgt id='15014'>0.30772E+02</wgt>
<wgt id='15015'>0.30704E+02</wgt>
<wgt id='15016'>0.30880E+02</wgt>
<wgt id='15017'>0.30631E+02</wgt>
<wgt id='15018'>0.30827E+02</wgt>
<wgt id='15019'>0.30838E+02</wgt>
<wgt id='15020'>0.31012E+02</wgt>
<wgt id='15021'>0.30758E+02</wgt>
<wgt id='15022'>0.30836E+02</wgt>
<wgt id='15023'>0.30606E+02</wgt>
<wgt id='15024'>0.30671E+02</wgt>
<wgt id='15025'>0.30898E+02</wgt>
<wgt id='15026'>0.30770E+02</wgt>
<wgt id='15027'>0.30756E+02</wgt>
<wgt id='15028'>0.30826E+02</wgt>
<wgt id='15029'>0.30798E+02</wgt>
<wgt id='15030'>0.30790E+02</wgt>
<wgt id='15031'>0.30769E+02</wgt>
<wgt id='15032'>0.30811E+02</wgt>
<wgt id='15033'>0.30827E+02</wgt>
<wgt id='15034'>0.30787E+02</wgt>
<wgt id='15035'>0.30830E+02</wgt>
<wgt id='15036'>0.30801E+02</wgt>
<wgt id='15037'>0.30813E+02</wgt>
<wgt id='15038'>0.30801E+02</wgt>
<wgt id='15039'>0.30793E+02</wgt>
<wgt id='15040'>0.30747E+02</wgt>
<wgt id='15041'>0.30773E+02</wgt>
<wgt id='15042'>0.30789E+02</wgt>
<wgt id='15043'>0.30756E+02</wgt>
<wgt id='15044'>0.30784E+02</wgt>
<wgt id='15045'>0.30781E+02</wgt>
<wgt id='15046'>0.30745E+02</wgt>
<wgt id='15047'>0.30781E+02</wgt>
<wgt id='15048'>0.30800E+02</wgt>
<wgt id='15049'>0.30762E+02</wgt>
<wgt id='15050'>0.30786E+02</wgt>
<wgt id='15051'>0.30806E+02</wgt>
<wgt id='15052'>0.30809E+02</wgt>
<wgt id='15053'>0.30783E+02</wgt>
<wgt id='15054'>0.30770E+02</wgt>
<wgt id='15055'>0.30766E+02</wgt>
<wgt id='15056'>0.30798E+02</wgt>
<wgt id='15057'>0.30783E+02</wgt>
<wgt id='15058'>0.30758E+02</wgt>
<wgt id='15059'>0.30761E+02</wgt>
<wgt id='15060'>0.30770E+02</wgt>
<wgt id='15061'>0.30781E+02</wgt>
<wgt id='15062'>0.30788E+02</wgt>
<wgt id='15063'>0.30789E+02</wgt>
<wgt id='15064'>0.30778E+02</wgt>
<wgt id='15065'>0.30778E+02</wgt>
<wgt id='15066'>0.30781E+02</wgt>
<wgt id='15067'>0.30789E+02</wgt>
<wgt id='15068'>0.30787E+02</wgt>
<wgt id='15069'>0.30808E+02</wgt>
<wgt id='15070'>0.30774E+02</wgt>
<wgt id='15071'>0.30805E+02</wgt>
<wgt id='15072'>0.30804E+02</wgt>
<wgt id='15073'>0.30775E+02</wgt>
<wgt id='15074'>0.30782E+02</wgt>
<wgt id='15075'>0.30775E+02</wgt>
<wgt id='15076'>0.30784E+02</wgt>
<wgt id='15077'>0.30791E+02</wgt>
<wgt id='15078'>0.30789E+02</wgt>
<wgt id='15079'>0.30777E+02</wgt>
<wgt id='15080'>0.30809E+02</wgt>
<wgt id='15081'>0.30782E+02</wgt>
<wgt id='15082'>0.30791E+02</wgt>
<wgt id='15083'>0.30771E+02</wgt>
<wgt id='15084'>0.30774E+02</wgt>
<wgt id='15085'>0.30770E+02</wgt>
<wgt id='15086'>0.30784E+02</wgt>
<wgt id='15087'>0.30757E+02</wgt>
<wgt id='15088'>0.30776E+02</wgt>
<wgt id='15089'>0.30771E+02</wgt>
<wgt id='15090'>0.30787E+02</wgt>
<wgt id='15091'>0.30779E+02</wgt>
<wgt id='15092'>0.30779E+02</wgt>
<wgt id='15093'>0.30773E+02</wgt>
<wgt id='15094'>0.30780E+02</wgt>
<wgt id='15095'>0.30786E+02</wgt>
<wgt id='15096'>0.30773E+02</wgt>
<wgt id='15097'>0.30786E+02</wgt>
<wgt id='15098'>0.30782E+02</wgt>
<wgt id='15099'>0.30774E+02</wgt>
<wgt id='15100'>0.30784E+02</wgt>
<wgt id='15101'>0.30781E+02</wgt>
<wgt id='15102'>0.30779E+02</wgt>
<wgt id='15103'>0.30782E+02</wgt>
<wgt id='15104'>0.30782E+02</wgt>
<wgt id='15105'>0.30783E+02</wgt>
<wgt id='15106'>0.30782E+02</wgt>
<wgt id='15107'>0.30780E+02</wgt>
<wgt id='1500'>0.33085E+02</wgt>
<wgt id='1501'>0.31533E+02</wgt>
<wgt id='1502'>0.33249E+02</wgt>
<wgt id='1503'>0.33941E+02</wgt>
<wgt id='1504'>0.32095E+02</wgt>
<wgt id='1505'>0.31633E+02</wgt>
<wgt id='1506'>0.33277E+02</wgt>
<wgt id='1507'>0.33032E+02</wgt>
<wgt id='1508'>0.32866E+02</wgt>
<wgt id='1509'>0.33470E+02</wgt>
<wgt id='1510'>0.33575E+02</wgt>
<wgt id='1511'>0.33079E+02</wgt>
<wgt id='1512'>0.33147E+02</wgt>
<wgt id='1513'>0.32655E+02</wgt>
<wgt id='1514'>0.33913E+02</wgt>
<wgt id='1515'>0.33572E+02</wgt>
<wgt id='1516'>0.33273E+02</wgt>
<wgt id='1517'>0.33594E+02</wgt>
<wgt id='1518'>0.32972E+02</wgt>
<wgt id='1519'>0.32908E+02</wgt>
<wgt id='1520'>0.33639E+02</wgt>
<wgt id='1521'>0.33299E+02</wgt>
<wgt id='1522'>0.33063E+02</wgt>
<wgt id='1523'>0.34243E+02</wgt>
<wgt id='1524'>0.33185E+02</wgt>
<wgt id='1525'>0.32906E+02</wgt>
<wgt id='1526'>0.32675E+02</wgt>
<wgt id='1527'>0.33086E+02</wgt>
<wgt id='1528'>0.33246E+02</wgt>
<wgt id='1529'>0.33571E+02</wgt>
<wgt id='1530'>0.33643E+02</wgt>
<wgt id='1531'>0.32892E+02</wgt>
<wgt id='1532'>0.32769E+02</wgt>
<wgt id='1533'>0.32700E+02</wgt>
<wgt id='1534'>0.33072E+02</wgt>
<wgt id='1535'>0.34040E+02</wgt>
<wgt id='1536'>0.32517E+02</wgt>
<wgt id='1537'>0.33554E+02</wgt>
<wgt id='1538'>0.32342E+02</wgt>
<wgt id='1539'>0.32254E+02</wgt>
<wgt id='1540'>0.32851E+02</wgt>
<wgt id='1541'>0.32613E+02</wgt>
<wgt id='1542'>0.32961E+02</wgt>
<wgt id='1543'>0.32902E+02</wgt>
<wgt id='1544'>0.33459E+02</wgt>
<wgt id='1545'>0.33668E+02</wgt>
<wgt id='1546'>0.32909E+02</wgt>
<wgt id='1547'>0.32783E+02</wgt>
<wgt id='1548'>0.32785E+02</wgt>
<wgt id='1549'>0.33113E+02</wgt>
<wgt id='1550'>0.32800E+02</wgt>
<wgt id='1551'>0.33001E+02</wgt>
<wgt id='1552'>0.33022E+02</wgt>
<wgt id='1553'>0.33604E+02</wgt>
<wgt id='1554'>0.32522E+02</wgt>
<wgt id='1555'>0.32661E+02</wgt>
<wgt id='1556'>0.33220E+02</wgt>
<wgt id='1557'>0.32592E+02</wgt>
<wgt id='1558'>0.32927E+02</wgt>
<wgt id='1559'>0.33947E+02</wgt>
<wgt id='1560'>0.32727E+02</wgt>
<wgt id='1561'>0.32659E+02</wgt>
<wgt id='1562'>0.33583E+02</wgt>
<wgt id='1563'>0.32593E+02</wgt>
<wgt id='1564'>0.33343E+02</wgt>
<wgt id='1565'>0.32774E+02</wgt>
<wgt id='1566'>0.33275E+02</wgt>
<wgt id='1567'>0.34555E+02</wgt>
<wgt id='1568'>0.32951E+02</wgt>
<wgt id='1569'>0.32309E+02</wgt>
<wgt id='1570'>0.32684E+02</wgt>
<wgt id='1571'>0.32673E+02</wgt>
<wgt id='1572'>0.33239E+02</wgt>
<wgt id='1573'>0.31993E+02</wgt>
<wgt id='1574'>0.33855E+02</wgt>
<wgt id='1575'>0.32695E+02</wgt>
<wgt id='1576'>0.33064E+02</wgt>
<wgt id='1577'>0.33090E+02</wgt>
<wgt id='1578'>0.33298E+02</wgt>
<wgt id='1579'>0.32603E+02</wgt>
<wgt id='1580'>0.32793E+02</wgt>
<wgt id='1581'>0.33274E+02</wgt>
<wgt id='1582'>0.32473E+02</wgt>
<wgt id='1583'>0.33370E+02</wgt>
<wgt id='1584'>0.32784E+02</wgt>
<wgt id='1585'>0.33116E+02</wgt>
<wgt id='1586'>0.33111E+02</wgt>
<wgt id='1587'>0.33722E+02</wgt>
<wgt id='1588'>0.32950E+02</wgt>
<wgt id='1589'>0.33403E+02</wgt>
<wgt id='1590'>0.32979E+02</wgt>
<wgt id='1591'>0.32398E+02</wgt>
<wgt id='1592'>0.32561E+02</wgt>
<wgt id='1593'>0.32996E+02</wgt>
<wgt id='1594'>0.33904E+02</wgt>
<wgt id='1595'>0.33414E+02</wgt>
<wgt id='1596'>0.32945E+02</wgt>
<wgt id='1597'>0.32862E+02</wgt>
<wgt id='1598'>0.32898E+02</wgt>
<wgt id='1599'>0.32889E+02</wgt>
<wgt id='1600'>0.33269E+02</wgt>
<wgt id='1601'>0.32507E+02</wgt>
<wgt id='1602'>0.33392E+02</wgt>
<wgt id='1700'>0.31423E+02</wgt>
<wgt id='1800'>0.38535E+02</wgt>
<wgt id='1850'>0.46931E+02</wgt>
<wgt id='1900'>0.40986E+02</wgt>
<wgt id='1950'>0.47086E+02</wgt>
</rwgt>
</event>
<event>
      4   9999  3.15120E+01  1.10605E+02 -1.00000E+00  1.20354E-01
      21    -1     0     0   502   501  0.000000000E+00  0.000000000E+00  4.880847637E+01  4.880847637E+01  0.000000000E+00  0.00000E+00  9.000E+00
      21    -1     0     0   501   511  0.000000000E+00  0.000000000E+00 -3.840472327E+02  3.840472327E+02  0.000000000E+00  0.00000E+00  9.000E+00
      25     1     1     2     0     0 -1.336761782E+01  1.097939594E+02 -1.972466200E+02  2.560076488E+02  1.200011683E+02  0.00000E+00  9.000E+00
      21     1     1     2   502   511  1.336761782E+01 -1.097939594E+02 -1.379921364E+02  1.768480603E+02  1.907348633E-06  0.00000E+00  9.000E+00
#rwgt            2          11   3.9664992285436722                2        4061           0
<rwgt>
<wgt id='1001'>0.31512E+02</wgt>
<wgt id='1002'>0.30951E+02</wgt>
<wgt id='1003'>0.31747E+02</wgt>
<wgt id='1004'>0.23753E+02</wgt>
<wgt id='1005'>0.23330E+02</wgt>
<wgt id='1006'>0.23930E+02</wgt>
<wgt id='1007'>0.43127E+02</wgt>
<wgt id='1008'>0.42359E+02</wgt>
<wgt id='1009'>0.43448E+02</wgt>
<wgt id='2000'>0.31512E+02</wgt>
<wgt id='2001'>0.31480E+02</wgt>
<wgt id='2002'>0.31580E+02</wgt>
<wgt id='2003'>0.31569E+02</wgt>
<wgt id='2004'>0.31575E+02</wgt>
<wgt id='2005'>0.31467E+02</wgt>
<wgt id='2006'>0.31436E+02</wgt>
<wgt id='2007'>0.31436E+02</wgt>
<wgt id='2008'>0.31456E+02</wgt>
<wgt id='2009'>0.31542E+02</wgt>
<wgt id='2010'>0.31494E+02</wgt>
<wgt id='2011'>0.31532E+02</wgt>
<wgt id='2012'>0.31561E+02</wgt>
<wgt id='2013'>0.31575E+02</wgt>
<wgt id='2014'>0.31554E+02</wgt>
<wgt id='2015'>0.31536E+02</wgt>
<wgt id='2016'>0.31507E+02</wgt>
<wgt id='2017'>0.31503E+02</wgt>
<wgt id='2018'>0.31538E+02</wgt>
<wgt id='2019'>0.31517E+02</wgt>
<wgt id='2020'>0.31544E+02</wgt>
<wgt id='2021'>0.31502E+02</wgt>
<wgt id='2022'>0.31518E+02</wgt>
<wgt id='2023'>0.31545E+02</wgt>
<wgt id='2024'>0.31477E+02</wgt>
<wgt id='2025'>0.31559E+02</wgt>
<wgt id='2026'>0.31589E+02</wgt>
<wgt id='2027'>0.31471E+02</wgt>
<wgt id='2028'>0.31442E+02</wgt>
<wgt id='2029'>0.31621E+02</wgt>
<wgt id='2030'>0.31511E+02</wgt>
<wgt id='2031'>0.31556E+02</wgt>
<wgt id='2032'>0.31473E+02</wgt>
<wgt id='2033'>0.31513E+02</wgt>
<wgt id='2034'>0.31595E+02</wgt>
<wgt id='2035'>0.31501E+02</wgt>
<wgt id='2036'>0.31529E+02</wgt>
<wgt id='2037'>0.31560E+02</wgt>
<wgt id='2038'>0.31501E+02</wgt>
<wgt id='2039'>0.31455E+02</wgt>
<wgt id='2040'>0.31517E+02</wgt>
<wgt id='2041'>0.31519E+02</wgt>
<wgt id='2042'>0.31493E+02</wgt>
<wgt id='2043'>0.31506E+02</wgt>
<wgt id='2044'>0.31543E+02</wgt>
<wgt id='2045'>0.31496E+02</wgt>
<wgt id='2046'>0.31538E+02</wgt>
<wgt id='2047'>0.31545E+02</wgt>
<wgt id='2048'>0.31491E+02</wgt>
<wgt id='2049'>0.31503E+02</wgt>
<wgt id='2050'>0.31523E+02</wgt>
<wgt id='2051'>0.31552E+02</wgt>
<wgt id='2052'>0.31517E+02</wgt>
<wgt id='2053'>0.31525E+02</wgt>
<wgt id='2054'>0.31520E+02</wgt>
<wgt id='2055'>0.31508E+02</wgt>
<wgt id='2056'>0.31513E+02</wgt>
<wgt id='2057'>0.31532E+02</wgt>
<wgt id='2058'>0.31520E+02</wgt>
<wgt id='2059'>0.31505E+02</wgt>
<wgt id='2060'>0.31514E+02</wgt>
<wgt id='2061'>0.31496E+02</wgt>
<wgt id='2062'>0.31514E+02</wgt>
<wgt id='2063'>0.31514E+02</wgt>
<wgt id='2064'>0.31500E+02</wgt>
<wgt id='2065'>0.31528E+02</wgt>
<wgt id='2066'>0.31505E+02</wgt>
<wgt id='2067'>0.31513E+02</wgt>
<wgt id='2068'>0.31521E+02</wgt>
<wgt id='2069'>0.31513E+02</wgt>
<wgt id='2070'>0.31504E+02</wgt>
<wgt id='2071'>0.31501E+02</wgt>
<wgt id='2072'>0.31514E+02</wgt>
<wgt id='2073'>0.31515E+02</wgt>
<wgt id='2074'>0.31512E+02</wgt>
<wgt id='2075'>0.31509E+02</wgt>
<wgt id='2076'>0.31510E+02</wgt>
<wgt id='2077'>0.31509E+02</wgt>
<wgt id='2078'>0.31512E+02</wgt>
<wgt id='2079'>0.31513E+02</wgt>
<wgt id='2080'>0.31514E+02</wgt>
<wgt id='2081'>0.31516E+02</wgt>
<wgt id='2082'>0.31515E+02</wgt>
<wgt id='2083'>0.31514E+02</wgt>
<wgt id='2084'>0.31516E+02</wgt>
<wgt id='2085'>0.31516E+02</wgt>
<wgt id='2086'>0.31504E+02</wgt>
<wgt id='2087'>0.31508E+02</wgt>
<wgt id='2088'>0.31517E+02</wgt>
<wgt id='2089'>0.31506E+02</wgt>
<wgt id='2090'>0.31508E+02</wgt>
<wgt id='2091'>0.31513E+02</wgt>
<wgt id='2092'>0.31512E+02</wgt>
<wgt id='2093'>0.31510E+02</wgt>
<wgt id='2094'>0.31515E+02</wgt>
<wgt id='2095'>0.31517E+02</wgt>
<wgt id='2096'>0.31510E+02</wgt>
<wgt id='2097'>0.31515E+02</wgt>
<wgt id='2098'>0.31511E+02</wgt>
<wgt id='2099'>0.31510E+02</wgt>
<wgt id='2100'>0.31514E+02</wgt>
<wgt id='2101'>0.30350E+02</wgt>
<wgt id='2102'>0.32639E+02</wgt>
<wgt id='2104'>0.26187E+02</wgt>
<wgt id='2105'>0.27166E+02</wgt>
<wgt id='2106'>0.28233E+02</wgt>
<wgt id='2107'>0.29291E+02</wgt>
<wgt id='2108'>0.30984E+02</wgt>
<wgt id='2109'>0.32096E+02</wgt>
<wgt id='2110'>0.33691E+02</wgt>
<wgt id='2111'>0.34838E+02</wgt>
<wgt id='3000'>0.33090E+02</wgt>
<wgt id='3001'>0.33146E+02</wgt>
<wgt id='3002'>0.33028E+02</wgt>
<wgt id='3003'>0.33135E+02</wgt>
<wgt id='3004'>0.33164E+02</wgt>
<wgt id='3005'>0.33158E+02</wgt>
<wgt id='3006'>0.33095E+02</wgt>
<wgt id='3007'>0.33134E+02</wgt>
<wgt id='3008'>0.33049E+02</wgt>
<wgt id='3009'>0.33096E+02</wgt>
<wgt id='3010'>0.33030E+02</wgt>
<wgt id='3011'>0.33096E+02</wgt>
<wgt id='3012'>0.33182E+02</wgt>
<wgt id='3013'>0.33020E+02</wgt>
<wgt id='3014'>0.33132E+02</wgt>
<wgt id='3015'>0.33119E+02</wgt>
<wgt id='3016'>0.33092E+02</wgt>
<wgt id='3017'>0.33126E+02</wgt>
<wgt id='3018'>0.33124E+02</wgt>
<wgt id='3019'>0.33087E+02</wgt>
<wgt id='3020'>0.33090E+02</wgt>
<wgt id='3021'>0.33069E+02</wgt>
<wgt id='3022'>0.33091E+02</wgt>
<wgt id='3023'>0.33069E+02</wgt>
<wgt id='3024'>0.33057E+02</wgt>
<wgt id='3025'>0.33117E+02</wgt>
<wgt id='3026'>0.33110E+02</wgt>
<wgt id='3027'>0.33099E+02</wgt>
<wgt id='3028'>0.33011E+02</wgt>
<wgt id='3029'>0.33016E+02</wgt>
<wgt id='3030'>0.33208E+02</wgt>
<wgt id='3031'>0.33150E+02</wgt>
<wgt id='3032'>0.33130E+02</wgt>
<wgt id='3033'>0.33171E+02</wgt>
<wgt id='3034'>0.33107E+02</wgt>
<wgt id='3035'>0.33197E+02</wgt>
<wgt id='3036'>0.33116E+02</wgt>
<wgt id='3037'>0.33081E+02</wgt>
<wgt id='3038'>0.33098E+02</wgt>
<wgt id='3039'>0.33061E+02</wgt>
<wgt id='3040'>0.33075E+02</wgt>
<wgt id='3041'>0.33121E+02</wgt>
<wgt id='3042'>0.33060E+02</wgt>
<wgt id='3043'>0.33057E+02</wgt>
<wgt id='3044'>0.33091E+02</wgt>
<wgt id='3045'>0.33116E+02</wgt>
<wgt id='3046'>0.33123E+02</wgt>
<wgt id='3047'>0.33092E+02</wgt>
<wgt id='3048'>0.33102E+02</wgt>
<wgt id='3049'>0.33086E+02</wgt>
<wgt id='3050'>0.33079E+02</wgt>
<wgt id='3051'>0.33124E+02</wgt>
<wgt id='3052'>0.33072E+02</wgt>
<wgt id='3053'>0.33079E+02</wgt>
<wgt id='3054'>0.33090E+02</wgt>
<wgt id='3055'>0.33051E+02</wgt>
<wgt id='3056'>0.33095E+02</wgt>
<wgt id='3057'>0.33079E+02</wgt>
<wgt id='3058'>0.33070E+02</wgt>
<wgt id='3059'>0.33091E+02</wgt>
<wgt id='3060'>0.33098E+02</wgt>
<wgt id='3061'>0.33093E+02</wgt>
<wgt id='3062'>0.33097E+02</wgt>
<wgt id='3063'>0.33108E+02</wgt>
<wgt id='3064'>0.33080E+02</wgt>
<wgt id='3065'>0.33090E+02</wgt>
<wgt id='3066'>0.33096E+02</wgt>
<wgt id='3067'>0.33075E+02</wgt>
<wgt id='3068'>0.33098E+02</wgt>
<wgt id='3069'>0.33085E+02</wgt>
<wgt id='3070'>0.33096E+02</wgt>
<wgt id='3071'>0.33086E+02</wgt>
<wgt id='3072'>0.33089E+02</wgt>
<wgt id='3073'>0.33076E+02</wgt>
<wgt id='3074'>0.33101E+02</wgt>
<wgt id='3075'>0.33085E+02</wgt>
<wgt id='3076'>0.33092E+02</wgt>
<wgt id='3077'>0.33097E+02</wgt>
<wgt id='3078'>0.33094E+02</wgt>
<wgt id='3079'>0.33092E+02</wgt>
<wgt id='3080'>0.33086E+02</wgt>
<wgt id='3081'>0.33092E+02</wgt>
<wgt id='3082'>0.33086E+02</wgt>
<wgt id='3083'>0.33092E+02</wgt>
<wgt id='3084'>0.33090E+02</wgt>
<wgt id='3085'>0.33092E+02</wgt>
<wgt id='3086'>0.33084E+02</wgt>
<wgt id='3087'>0.33086E+02</wgt>
<wgt id='3088'>0.33091E+02</wgt>
<wgt id='3089'>0.33091E+02</wgt>
<wgt id='3090'>0.33092E+02</wgt>
<wgt id='3091'>0.33093E+02</wgt>
<wgt id='3092'>0.33093E+02</wgt>
<wgt id='3093'>0.33090E+02</wgt>
<wgt id='3094'>0.33095E+02</wgt>
<wgt id='3095'>0.33091E+02</wgt>
<wgt id='3096'>0.33090E+02</wgt>
<wgt id='3097'>0.33086E+02</wgt>
<wgt id='3098'>0.33091E+02</wgt>
<wgt id='3099'>0.33093E+02</wgt>
<wgt id='3100'>0.33091E+02</wgt>
<wgt id='3101'>0.31877E+02</wgt>
<wgt id='3102'>0.34320E+02</wgt>
<wgt id='5000'>0.30864E+02</wgt>
<wgt id='5001'>0.30843E+02</wgt>
<wgt id='5002'>0.30871E+02</wgt>
<wgt id='5003'>0.30801E+02</wgt>
<wgt id='5004'>0.30799E+02</wgt>
<wgt id='5005'>0.30378E+02</wgt>
<wgt id='5006'>0.30557E+02</wgt>
<wgt id='5007'>0.30695E+02</wgt>
<wgt id='5008'>0.30809E+02</wgt>
<wgt id='5009'>0.30891E+02</wgt>
<wgt id='5010'>0.30783E+02</wgt>
<wgt id='5011'>0.30913E+02</wgt>
<wgt id='5012'>0.30817E+02</wgt>
<wgt id='5013'>0.30825E+02</wgt>
<wgt id='5014'>0.31079E+02</wgt>
<wgt id='5015'>0.30954E+02</wgt>
<wgt id='5016'>0.30572E+02</wgt>
<wgt id='5017'>0.30599E+02</wgt>
<wgt id='5018'>0.31141E+02</wgt>
<wgt id='5019'>0.31019E+02</wgt>
<wgt id='5020'>0.30707E+02</wgt>
<wgt id='5021'>0.30871E+02</wgt>
<wgt id='5022'>0.30858E+02</wgt>
<wgt id='5023'>0.30734E+02</wgt>
<wgt id='5024'>0.31001E+02</wgt>
<wgt id='5025'>0.30946E+02</wgt>
<wgt id='5026'>0.30796E+02</wgt>
<wgt id='5027'>0.31065E+02</wgt>
<wgt id='5028'>0.30523E+02</wgt>
<wgt id='5029'>0.30537E+02</wgt>
<wgt id='5030'>0.31060E+02</wgt>
<wgt id='5031'>0.30629E+02</wgt>
<wgt id='5032'>0.31204E+02</wgt>
<wgt id='5033'>0.30752E+02</wgt>
<wgt id='5034'>0.30959E+02</wgt>
<wgt id='5035'>0.30817E+02</wgt>
<wgt id='5036'>0.30878E+02</wgt>
<wgt id='5037'>0.30388E+02</wgt>
<wgt id='5038'>0.31389E+02</wgt>
<wgt id='5039'>0.31502E+02</wgt>
<wgt id='5040'>0.30525E+02</wgt>
<wgt id='5041'>0.30768E+02</wgt>
<wgt id='5042'>0.30858E+02</wgt>
<wgt id='5043'>0.31092E+02</wgt>
<wgt id='5044'>0.30487E+02</wgt>
<wgt id='5045'>0.31348E+02</wgt>
<wgt id='5046'>0.30318E+02</wgt>
<wgt id='5047'>0.30964E+02</wgt>
<wgt id='5048'>0.30786E+02</wgt>
<wgt id='5049'>0.30892E+02</wgt>
<wgt id='5050'>0.30863E+02</wgt>
<wgt id='5051'>0.30895E+02</wgt>
<wgt id='5052'>0.30847E+02</wgt>
<wgt id='5053'>0.30192E+02</wgt>
<wgt id='5054'>0.30778E+02</wgt>
<wgt id='5055'>0.30616E+02</wgt>
<wgt id='5056'>0.31275E+02</wgt>
<wgt id='5060'>0.29701E+02</wgt>
<wgt id='5070'>0.32015E+02</wgt>
<wgt id='4000'>0.32045E+02</wgt>
<wgt id='4001'>0.32038E+02</wgt>
<wgt id='4002'>0.32103E+02</wgt>
<wgt id='4003'>0.31993E+02</wgt>
<wgt id='4004'>0.31748E+02</wgt>
<wgt id='4005'>0.32059E+02</wgt>
<wgt id='4006'>0.32054E+02</wgt>
<wgt id='4007'>0.32218E+02</wgt>
<wgt id='4008'>0.31797E+02</wgt>
<wgt id='4009'>0.31780E+02</wgt>
<wgt id='4010'>0.32180E+02</wgt>
<wgt id='4011'>0.32592E+02</wgt>
<wgt id='4012'>0.31667E+02</wgt>
<wgt id='4013'>0.31476E+02</wgt>
<wgt id='4014'>0.32395E+02</wgt>
<wgt id='4015'>0.32575E+02</wgt>
<wgt id='4016'>0.31686E+02</wgt>
<wgt id='4017'>0.31562E+02</wgt>
<wgt id='4018'>0.32617E+02</wgt>
<wgt id='4019'>0.32381E+02</wgt>
<wgt id='4020'>0.31678E+02</wgt>
<wgt id='4021'>0.32135E+02</wgt>
<wgt id='4022'>0.31859E+02</wgt>
<wgt id='4023'>0.31951E+02</wgt>
<wgt id='4024'>0.32131E+02</wgt>
<wgt id='4025'>0.32212E+02</wgt>
<wgt id='4026'>0.31866E+02</wgt>
<wgt id='4027'>0.32037E+02</wgt>
<wgt id='4028'>0.32055E+02</wgt>
<wgt id='4029'>0.31944E+02</wgt>
<wgt id='4030'>0.32081E+02</wgt>
<wgt id='4031'>0.32136E+02</wgt>
<wgt id='4032'>0.31926E+02</wgt>
<wgt id='4033'>0.31900E+02</wgt>
<wgt id='4034'>0.32360E+02</wgt>
<wgt id='4035'>0.31988E+02</wgt>
<wgt id='4036'>0.32106E+02</wgt>
<wgt id='4037'>0.32129E+02</wgt>
<wgt id='4038'>0.31898E+02</wgt>
<wgt id='4039'>0.32022E+02</wgt>
<wgt id='4040'>0.32068E+02</wgt>
<wgt id='4041'>0.32090E+02</wgt>
<wgt id='4042'>0.32024E+02</wgt>
<wgt id='4043'>0.32067E+02</wgt>
<wgt id='4044'>0.32173E+02</wgt>
<wgt id='4045'>0.31812E+02</wgt>
<wgt id='4046'>0.32071E+02</wgt>
<wgt id='4047'>0.31871E+02</wgt>
<wgt id='4048'>0.31754E+02</wgt>
<wgt id='4049'>0.31691E+02</wgt>
<wgt id='4050'>0.31774E+02</wgt>
<wgt id='4051'>0.32053E+02</wgt>
<wgt id='4052'>0.32034E+02</wgt>
<wgt id='4053'>0.31057E+02</wgt>
<wgt id='4054'>0.32364E+02</wgt>
<wgt id='4055'>0.31787E+02</wgt>
<wgt id='4056'>0.32437E+02</wgt>
<wgt id='4060'>0.30817E+02</wgt>
<wgt id='4070'>0.33281E+02</wgt>
<wgt id='4080'>0.30571E+02</wgt>
<wgt id='6000'>0.32707E+02</wgt>
<wgt id='6001'>0.32723E+02</wgt>
<wgt id='6002'>0.32690E+02</wgt>
<wgt id='6003'>0.32731E+02</wgt>
<wgt id='6004'>0.32691E+02</wgt>
<wgt id='6005'>0.32851E+02</wgt>
<wgt id='6006'>0.32574E+02</wgt>
<wgt id='6007'>0.32573E+02</wgt>
<wgt id='6008'>0.32856E+02</wgt>
<wgt id='6009'>0.32775E+02</wgt>
<wgt id='6010'>0.32641E+02</wgt>
<wgt id='6011'>0.32757E+02</wgt>
<wgt id='6012'>0.32599E+02</wgt>
<wgt id='6013'>0.32683E+02</wgt>
<wgt id='6014'>0.32747E+02</wgt>
<wgt id='6015'>0.32631E+02</wgt>
<wgt id='6016'>0.32750E+02</wgt>
<wgt id='6017'>0.32551E+02</wgt>
<wgt id='6018'>0.32891E+02</wgt>
<wgt id='6019'>0.32739E+02</wgt>
<wgt id='6020'>0.32679E+02</wgt>
<wgt id='6021'>0.32638E+02</wgt>
<wgt id='6022'>0.32799E+02</wgt>
<wgt id='6023'>0.32496E+02</wgt>
<wgt id='6024'>0.32851E+02</wgt>
<wgt id='6025'>0.32575E+02</wgt>
<wgt id='6026'>0.32815E+02</wgt>
<wgt id='6027'>0.32759E+02</wgt>
<wgt id='6028'>0.32699E+02</wgt>
<wgt id='6029'>0.32736E+02</wgt>
<wgt id='6030'>0.32675E+02</wgt>
<wgt id='6031'>0.32528E+02</wgt>
<wgt id='6032'>0.32901E+02</wgt>
<wgt id='6033'>0.32821E+02</wgt>
<wgt id='6034'>0.32593E+02</wgt>
<wgt id='6035'>0.32729E+02</wgt>
<wgt id='6036'>0.32678E+02</wgt>
<wgt id='6037'>0.32751E+02</wgt>
<wgt id='6038'>0.32698E+02</wgt>
<wgt id='6039'>0.32648E+02</wgt>
<wgt id='6040'>0.32774E+02</wgt>
<wgt id='6041'>0.32537E+02</wgt>
<wgt id='6042'>0.32902E+02</wgt>
<wgt id='6043'>0.33051E+02</wgt>
<wgt id='6044'>0.32531E+02</wgt>
<wgt id='6045'>0.32673E+02</wgt>
<wgt id='6046'>0.32792E+02</wgt>
<wgt id='6047'>0.32911E+02</wgt>
<wgt id='6048'>0.32301E+02</wgt>
<wgt id='6049'>0.32799E+02</wgt>
<wgt id='6050'>0.32651E+02</wgt>
<wgt id='7000'>0.30847E+02</wgt>
<wgt id='7001'>0.30835E+02</wgt>
<wgt id='7002'>0.30865E+02</wgt>
<wgt id='7003'>0.30949E+02</wgt>
<wgt id='7004'>0.30746E+02</wgt>
<wgt id='7005'>0.30924E+02</wgt>
<wgt id='7006'>0.30817E+02</wgt>
<wgt id='7007'>0.30774E+02</wgt>
<wgt id='7008'>0.30920E+02</wgt>
<wgt id='7009'>0.30884E+02</wgt>
<wgt id='7010'>0.30811E+02</wgt>
<wgt id='7011'>0.30661E+02</wgt>
<wgt id='7012'>0.30928E+02</wgt>
<wgt id='7013'>0.30847E+02</wgt>
<wgt id='7014'>0.30848E+02</wgt>
<wgt id='7015'>0.30800E+02</wgt>
<wgt id='7016'>0.30897E+02</wgt>
<wgt id='7017'>0.30825E+02</wgt>
<wgt id='7018'>0.30859E+02</wgt>
<wgt id='7019'>0.30831E+02</wgt>
<wgt id='7020'>0.30869E+02</wgt>
<wgt id='7021'>0.30813E+02</wgt>
<wgt id='7022'>0.30870E+02</wgt>
<wgt id='7023'>0.31149E+02</wgt>
<wgt id='7024'>0.30558E+02</wgt>
<wgt id='7025'>0.30956E+02</wgt>
<wgt id='7026'>0.30580E+02</wgt>
<wgt id='7027'>0.30920E+02</wgt>
<wgt id='7028'>0.30795E+02</wgt>
<wgt id='7029'>0.30833E+02</wgt>
<wgt id='7030'>0.30897E+02</wgt>
<wgt id='7031'>0.30767E+02</wgt>
<wgt id='7032'>0.31017E+02</wgt>
<wgt id='7033'>0.30852E+02</wgt>
<wgt id='7034'>0.30843E+02</wgt>
<wgt id='7035'>0.30774E+02</wgt>
<wgt id='7036'>0.30884E+02</wgt>
<wgt id='7037'>0.30847E+02</wgt>
<wgt id='7038'>0.30848E+02</wgt>
<wgt id='7039'>0.30771E+02</wgt>
<wgt id='7040'>0.30904E+02</wgt>
<wgt id='7041'>0.30838E+02</wgt>
<wgt id='7042'>0.30829E+02</wgt>
<wgt id='7043'>0.30875E+02</wgt>
<wgt id='7044'>0.30684E+02</wgt>
<wgt id='7045'>0.30479E+02</wgt>
<wgt id='7046'>0.31049E+02</wgt>
<wgt id='7047'>0.30963E+02</wgt>
<wgt id='7048'>0.30789E+02</wgt>
<wgt id='7049'>0.30711E+02</wgt>
<wgt id='7050'>0.30888E+02</wgt>
<wgt id='7060'>0.46077E+02</wgt>
<wgt id='8000'>0.30998E+02</wgt>
<wgt id='8001'>0.30991E+02</wgt>
<wgt id='8002'>0.31007E+02</wgt>
<wgt id='8003'>0.31000E+02</wgt>
<wgt id='8004'>0.30997E+02</wgt>
<wgt id='8005'>0.30933E+02</wgt>
<wgt id='8006'>0.31010E+02</wgt>
<wgt id='8007'>0.31019E+02</wgt>
<wgt id='8008'>0.31063E+02</wgt>
<wgt id='8009'>0.31125E+02</wgt>
<wgt id='8010'>0.30977E+02</wgt>
<wgt id='8011'>0.30995E+02</wgt>
<wgt id='8012'>0.30912E+02</wgt>
<wgt id='8013'>0.30953E+02</wgt>
<wgt id='8014'>0.31037E+02</wgt>
<wgt id='8015'>0.30977E+02</wgt>
<wgt id='8016'>0.31020E+02</wgt>
<wgt id='8017'>0.31001E+02</wgt>
<wgt id='8018'>0.31048E+02</wgt>
<wgt id='8019'>0.31030E+02</wgt>
<wgt id='8020'>0.30949E+02</wgt>
<wgt id='8021'>0.30982E+02</wgt>
<wgt id='8022'>0.30906E+02</wgt>
<wgt id='8023'>0.30991E+02</wgt>
<wgt id='8024'>0.30964E+02</wgt>
<wgt id='8025'>0.31030E+02</wgt>
<wgt id='8026'>0.31049E+02</wgt>
<wgt id='8027'>0.30989E+02</wgt>
<wgt id='8028'>0.31024E+02</wgt>
<wgt id='8029'>0.30893E+02</wgt>
<wgt id='8500'>0.32650E+02</wgt>
<wgt id='8501'>0.32483E+02</wgt>
<wgt id='8502'>0.32911E+02</wgt>
<wgt id='8503'>0.32792E+02</wgt>
<wgt id='8504'>0.32526E+02</wgt>
<wgt id='8505'>0.32563E+02</wgt>
<wgt id='8506'>0.32737E+02</wgt>
<wgt id='8507'>0.32524E+02</wgt>
<wgt id='8508'>0.32505E+02</wgt>
<wgt id='8509'>0.32712E+02</wgt>
<wgt id='8510'>0.33070E+02</wgt>
<wgt id='8511'>0.32636E+02</wgt>
<wgt id='8512'>0.32486E+02</wgt>
<wgt id='8513'>0.32670E+02</wgt>
<wgt id='8514'>0.32302E+02</wgt>
<wgt id='8515'>0.32808E+02</wgt>
<wgt id='8516'>0.32629E+02</wgt>
<wgt id='8517'>0.32529E+02</wgt>
<wgt id='8518'>0.32487E+02</wgt>
<wgt id='8519'>0.32460E+02</wgt>
<wgt id='8520'>0.32591E+02</wgt>
<wgt id='8521'>0.32543E+02</wgt>
<wgt id='8522'>0.32724E+02</wgt>
<wgt id='8523'>0.32537E+02</wgt>
<wgt id='8524'>0.32667E+02</wgt>
<wgt id='8525'>0.32658E+02</wgt>
<wgt id='8526'>0.32588E+02</wgt>
<wgt id='8527'>0.32626E+02</wgt>
<wgt id='8528'>0.32588E+02</wgt>
<wgt id='8529'>0.32615E+02</wgt>
<wgt id='8530'>0.32679E+02</wgt>
<wgt id='8531'>0.32639E+02</wgt>
<wgt id='8532'>0.32652E+02</wgt>
<wgt id='8533'>0.32580E+02</wgt>
<wgt id='8534'>0.32663E+02</wgt>
<wgt id='8535'>0.32726E+02</wgt>
<wgt id='8536'>0.32630E+02</wgt>
<wgt id='8537'>0.32657E+02</wgt>
<wgt id='8538'>0.32632E+02</wgt>
<wgt id='8539'>0.32664E+02</wgt>
<wgt id='8540'>0.32667E+02</wgt>
<wgt id='8541'>0.32674E+02</wgt>
<wgt id='8542'>0.32670E+02</wgt>
<wgt id='8543'>0.32618E+02</wgt>
<wgt id='8544'>0.32689E+02</wgt>
<wgt id='8545'>0.32673E+02</wgt>
<wgt id='8546'>0.32685E+02</wgt>
<wgt id='8547'>0.32621E+02</wgt>
<wgt id='8548'>0.32629E+02</wgt>
<wgt id='8549'>0.32655E+02</wgt>
<wgt id='8550'>0.32639E+02</wgt>
<wgt id='8551'>0.32628E+02</wgt>
<wgt id='8552'>0.32640E+02</wgt>
<wgt id='8553'>0.32621E+02</wgt>
<wgt id='8554'>0.32633E+02</wgt>
<wgt id='8555'>0.32653E+02</wgt>
<wgt id='8556'>0.32642E+02</wgt>
<wgt id='8557'>0.32652E+02</wgt>
<wgt id='8558'>0.32688E+02</wgt>
<wgt id='8559'>0.32639E+02</wgt>
<wgt id='8560'>0.32611E+02</wgt>
<wgt id='8561'>0.32658E+02</wgt>
<wgt id='8562'>0.32629E+02</wgt>
<wgt id='8563'>0.32651E+02</wgt>
<wgt id='8564'>0.32640E+02</wgt>
<wgt id='8565'>0.32655E+02</wgt>
<wgt id='8566'>0.32656E+02</wgt>
<wgt id='8567'>0.32648E+02</wgt>
<wgt id='8568'>0.32669E+02</wgt>
<wgt id='8569'>0.32663E+02</wgt>
<wgt id='8570'>0.32644E+02</wgt>
<wgt id='8571'>0.32629E+02</wgt>
<wgt id='8572'>0.32634E+02</wgt>
<wgt id='8573'>0.32637E+02</wgt>
<wgt id='8574'>0.32645E+02</wgt>
<wgt id='8575'>0.32645E+02</wgt>
<wgt id='8576'>0.32649E+02</wgt>
<wgt id='8577'>0.32640E+02</wgt>
<wgt id='8578'>0.32648E+02</wgt>
<wgt id='8579'>0.32672E+02</wgt>
<wgt id='8580'>0.32648E+02</wgt>
<wgt id='8581'>0.32662E+02</wgt>
<wgt id='8582'>0.32631E+02</wgt>
<wgt id='8583'>0.32661E+02</wgt>
<wgt id='8584'>0.32665E+02</wgt>
<wgt id='8585'>0.32659E+02</wgt>
<wgt id='8586'>0.32675E+02</wgt>
<wgt id='8587'>0.32651E+02</wgt>
<wgt id='8588'>0.32647E+02</wgt>
<wgt id='8589'>0.32650E+02</wgt>
<wgt id='8590'>0.32651E+02</wgt>
<wgt id='8591'>0.32640E+02</wgt>
<wgt id='8592'>0.32648E+02</wgt>
<wgt id='8593'>0.32640E+02</wgt>
<wgt id='8594'>0.32649E+02</wgt>
<wgt id='8595'>0.32650E+02</wgt>
<wgt id='8596'>0.32645E+02</wgt>
<wgt id='8597'>0.32655E+02</wgt>
<wgt id='8598'>0.32657E+02</wgt>
<wgt id='8599'>0.32653E+02</wgt>
<wgt id='8600'>0.32651E+02</wgt>
<wgt id='8601'>0.31831E+02</wgt>
<wgt id='8602'>0.33442E+02</wgt>
<wgt id='9000'>0.31001E+02</wgt>
<wgt id='9001'>0.31015E+02</wgt>
<wgt id='9002'>0.31115E+02</wgt>
<wgt id='9003'>0.30802E+02</wgt>
<wgt id='9004'>0.31008E+02</wgt>
<wgt id='9005'>0.31163E+02</wgt>
<wgt id='9006'>0.30967E+02</wgt>
<wgt id='9007'>0.30921E+02</wgt>
<wgt id='9008'>0.31004E+02</wgt>
<wgt id='9009'>0.31002E+02</wgt>
<wgt id='9010'>0.30878E+02</wgt>
<wgt id='9011'>0.31267E+02</wgt>
<wgt id='9012'>0.30953E+02</wgt>
<wgt id='9013'>0.30763E+02</wgt>
<wgt id='9014'>0.30911E+02</wgt>
<wgt id='9015'>0.30936E+02</wgt>
<wgt id='9016'>0.31243E+02</wgt>
<wgt id='9017'>0.30840E+02</wgt>
<wgt id='9018'>0.31001E+02</wgt>
<wgt id='9019'>0.31036E+02</wgt>
<wgt id='9020'>0.31219E+02</wgt>
<wgt id='9021'>0.31007E+02</wgt>
<wgt id='9022'>0.31064E+02</wgt>
<wgt id='9023'>0.30849E+02</wgt>
<wgt id='9024'>0.30923E+02</wgt>
<wgt id='9025'>0.31054E+02</wgt>
<wgt id='9026'>0.31005E+02</wgt>
<wgt id='9027'>0.30980E+02</wgt>
<wgt id='9028'>0.31029E+02</wgt>
<wgt id='9029'>0.31035E+02</wgt>
<wgt id='9030'>0.31030E+02</wgt>
<wgt id='9031'>0.30977E+02</wgt>
<wgt id='9032'>0.31021E+02</wgt>
<wgt id='9033'>0.31036E+02</wgt>
<wgt id='9034'>0.31001E+02</wgt>
<wgt id='9035'>0.31045E+02</wgt>
<wgt id='9036'>0.31008E+02</wgt>
<wgt id='9037'>0.31028E+02</wgt>
<wgt id='9038'>0.31014E+02</wgt>
<wgt id='9039'>0.31003E+02</wgt>
<wgt id='9040'>0.30970E+02</wgt>
<wgt id='9041'>0.30997E+02</wgt>
<wgt id='9042'>0.31004E+02</wgt>
<wgt id='9043'>0.30965E+02</wgt>
<wgt id='9044'>0.31009E+02</wgt>
<wgt id='9045'>0.31005E+02</wgt>
<wgt id='9046'>0.30958E+02</wgt>
<wgt id='9047'>0.31001E+02</wgt>
<wgt id='9048'>0.31015E+02</wgt>
<wgt id='9049'>0.30985E+02</wgt>
<wgt id='9050'>0.31005E+02</wgt>
<wgt id='9051'>0.31018E+02</wgt>
<wgt id='9052'>0.31018E+02</wgt>
<wgt id='9053'>0.31002E+02</wgt>
<wgt id='9054'>0.30985E+02</wgt>
<wgt id='9055'>0.30988E+02</wgt>
<wgt id='9056'>0.31028E+02</wgt>
<wgt id='9057'>0.31003E+02</wgt>
<wgt id='9058'>0.30970E+02</wgt>
<wgt id='9059'>0.30984E+02</wgt>
<wgt id='9060'>0.30988E+02</wgt>
<wgt id='9061'>0.31004E+02</wgt>
<wgt id='9062'>0.31007E+02</wgt>
<wgt id='9063'>0.31012E+02</wgt>
<wgt id='9064'>0.30998E+02</wgt>
<wgt id='9065'>0.30997E+02</wgt>
<wgt id='9066'>0.31002E+02</wgt>
<wgt id='9067'>0.31012E+02</wgt>
<wgt id='9068'>0.31008E+02</wgt>
<wgt id='9069'>0.31024E+02</wgt>
<wgt id='9070'>0.30995E+02</wgt>
<wgt id='9071'>0.31022E+02</wgt>
<wgt id='9072'>0.31023E+02</wgt>
<wgt id='9073'>0.30994E+02</wgt>
<wgt id='9074'>0.31005E+02</wgt>
<wgt id='9075'>0.30999E+02</wgt>
<wgt id='9076'>0.30998E+02</wgt>
<wgt id='9077'>0.31008E+02</wgt>
<wgt id='9078'>0.31002E+02</wgt>
<wgt id='9079'>0.30997E+02</wgt>
<wgt id='9080'>0.31029E+02</wgt>
<wgt id='9081'>0.30999E+02</wgt>
<wgt id='9082'>0.31010E+02</wgt>
<wgt id='9083'>0.30991E+02</wgt>
<wgt id='9084'>0.30989E+02</wgt>
<wgt id='9085'>0.30988E+02</wgt>
<wgt id='9086'>0.31008E+02</wgt>
<wgt id='9087'>0.30975E+02</wgt>
<wgt id='9088'>0.30991E+02</wgt>
<wgt id='9089'>0.30992E+02</wgt>
<wgt id='9090'>0.31007E+02</wgt>
<wgt id='9091'>0.30995E+02</wgt>
<wgt id='9092'>0.30999E+02</wgt>
<wgt id='9093'>0.30994E+02</wgt>
<wgt id='9094'>0.30996E+02</wgt>
<wgt id='9095'>0.31004E+02</wgt>
<wgt id='9096'>0.30995E+02</wgt>
<wgt id='9097'>0.31004E+02</wgt>
<wgt id='9098'>0.31000E+02</wgt>
<wgt id='9099'>0.30993E+02</wgt>
<wgt id='9100'>0.31001E+02</wgt>
<wgt id='9101'>0.30288E+02</wgt>
<wgt id='9102'>0.31706E+02</wgt>
<wgt id='10000'>0.32650E+02</wgt>
<wgt id='10001'>0.32818E+02</wgt>
<wgt id='10002'>0.32429E+02</wgt>
<wgt id='10003'>0.32637E+02</wgt>
<wgt id='10004'>0.32302E+02</wgt>
<wgt id='10005'>0.33113E+02</wgt>
<wgt id='10006'>0.32529E+02</wgt>
<wgt id='10007'>0.32643E+02</wgt>
<wgt id='10008'>0.32736E+02</wgt>
<wgt id='10009'>0.32513E+02</wgt>
<wgt id='10010'>0.32728E+02</wgt>
<wgt id='10011'>0.32497E+02</wgt>
<wgt id='10012'>0.32618E+02</wgt>
<wgt id='10013'>0.32676E+02</wgt>
<wgt id='10014'>0.32619E+02</wgt>
<wgt id='10015'>0.32661E+02</wgt>
<wgt id='10016'>0.32552E+02</wgt>
<wgt id='10017'>0.32737E+02</wgt>
<wgt id='10018'>0.32713E+02</wgt>
<wgt id='10019'>0.32555E+02</wgt>
<wgt id='10020'>0.32586E+02</wgt>
<wgt id='10021'>0.32626E+02</wgt>
<wgt id='10022'>0.32613E+02</wgt>
<wgt id='10023'>0.32672E+02</wgt>
<wgt id='10024'>0.32621E+02</wgt>
<wgt id='10025'>0.32619E+02</wgt>
<wgt id='10026'>0.32757E+02</wgt>
<wgt id='10027'>0.32713E+02</wgt>
<wgt id='10028'>0.33000E+02</wgt>
<wgt id='10029'>0.32681E+02</wgt>
<wgt id='10030'>0.32632E+02</wgt>
<wgt id='10031'>0.31831E+02</wgt>
<wgt id='10032'>0.33442E+02</wgt>
<wgt id='11000'>0.31001E+02</wgt>
<wgt id='11001'>0.30609E+02</wgt>
<wgt id='11002'>0.31083E+02</wgt>
<wgt id='11003'>0.30977E+02</wgt>
<wgt id='11004'>0.31092E+02</wgt>
<wgt id='11005'>0.30809E+02</wgt>
<wgt id='11006'>0.31007E+02</wgt>
<wgt id='11007'>0.30951E+02</wgt>
<wgt id='11008'>0.30970E+02</wgt>
<wgt id='11009'>0.30901E+02</wgt>
<wgt id='11010'>0.30966E+02</wgt>
<wgt id='11011'>0.30896E+02</wgt>
<wgt id='11012'>0.31010E+02</wgt>
<wgt id='11013'>0.31081E+02</wgt>
<wgt id='11014'>0.30940E+02</wgt>
<wgt id='11015'>0.30971E+02</wgt>
<wgt id='11016'>0.30989E+02</wgt>
<wgt id='11017'>0.31166E+02</wgt>
<wgt id='11018'>0.30994E+02</wgt>
<wgt id='11019'>0.30992E+02</wgt>
<wgt id='11020'>0.31054E+02</wgt>
<wgt id='11021'>0.31062E+02</wgt>
<wgt id='11022'>0.31378E+02</wgt>
<wgt id='11023'>0.31002E+02</wgt>
<wgt id='11024'>0.31008E+02</wgt>
<wgt id='11025'>0.30954E+02</wgt>
<wgt id='11026'>0.31000E+02</wgt>
<wgt id='11027'>0.31005E+02</wgt>
<wgt id='11028'>0.31013E+02</wgt>
<wgt id='11029'>0.30994E+02</wgt>
<wgt id='11030'>0.31002E+02</wgt>
<wgt id='11031'>0.30288E+02</wgt>
<wgt id='11032'>0.31706E+02</wgt>
<wgt id='12000'>0.32528E+02</wgt>
<wgt id='12001'>0.32483E+02</wgt>
<wgt id='12002'>0.32573E+02</wgt>
<wgt id='12003'>0.32576E+02</wgt>
<wgt id='12004'>0.32481E+02</wgt>
<wgt id='12005'>0.32580E+02</wgt>
<wgt id='12006'>0.32476E+02</wgt>
<wgt id='12007'>0.32666E+02</wgt>
<wgt id='12008'>0.32394E+02</wgt>
<wgt id='12009'>0.32529E+02</wgt>
<wgt id='12010'>0.32528E+02</wgt>
<wgt id='12011'>0.32370E+02</wgt>
<wgt id='12012'>0.32702E+02</wgt>
<wgt id='12013'>0.32414E+02</wgt>
<wgt id='12014'>0.32644E+02</wgt>
<wgt id='12015'>0.32580E+02</wgt>
<wgt id='12016'>0.32425E+02</wgt>
<wgt id='12017'>0.32664E+02</wgt>
<wgt id='12018'>0.32420E+02</wgt>
<wgt id='12019'>0.32500E+02</wgt>
<wgt id='12020'>0.32538E+02</wgt>
<wgt id='12021'>0.32610E+02</wgt>
<wgt id='12022'>0.32428E+02</wgt>
<wgt id='12023'>0.32298E+02</wgt>
<wgt id='12024'>0.32652E+02</wgt>
<wgt id='12025'>0.32486E+02</wgt>
<wgt id='12026'>0.32601E+02</wgt>
<wgt id='12027'>0.32773E+02</wgt>
<wgt id='12028'>0.32315E+02</wgt>
<wgt id='12050'>0.32528E+02</wgt>
<wgt id='12051'>0.32589E+02</wgt>
<wgt id='12052'>0.32418E+02</wgt>
<wgt id='12053'>0.32587E+02</wgt>
<wgt id='12054'>0.32455E+02</wgt>
<wgt id='12055'>0.32559E+02</wgt>
<wgt id='12056'>0.32548E+02</wgt>
<wgt id='12057'>0.32464E+02</wgt>
<wgt id='12058'>0.32601E+02</wgt>
<wgt id='12059'>0.32610E+02</wgt>
<wgt id='12060'>0.32457E+02</wgt>
<wgt id='12061'>0.32433E+02</wgt>
<wgt id='12062'>0.32510E+02</wgt>
<wgt id='12063'>0.32355E+02</wgt>
<wgt id='13000'>0.31029E+02</wgt>
<wgt id='13001'>0.30997E+02</wgt>
<wgt id='13002'>0.31055E+02</wgt>
<wgt id='13003'>0.31038E+02</wgt>
<wgt id='13004'>0.31014E+02</wgt>
<wgt id='13005'>0.31082E+02</wgt>
<wgt id='13006'>0.30970E+02</wgt>
<wgt id='13007'>0.31198E+02</wgt>
<wgt id='13008'>0.30859E+02</wgt>
<wgt id='13009'>0.30946E+02</wgt>
<wgt id='13010'>0.31110E+02</wgt>
<wgt id='13011'>0.31125E+02</wgt>
<wgt id='13012'>0.30928E+02</wgt>
<wgt id='13013'>0.30958E+02</wgt>
<wgt id='13014'>0.31092E+02</wgt>
<wgt id='13015'>0.30995E+02</wgt>
<wgt id='13016'>0.30997E+02</wgt>
<wgt id='13017'>0.31022E+02</wgt>
<wgt id='13018'>0.31029E+02</wgt>
<wgt id='13019'>0.30980E+02</wgt>
<wgt id='13020'>0.31074E+02</wgt>
<wgt id='13021'>0.30975E+02</wgt>
<wgt id='13022'>0.31055E+02</wgt>
<wgt id='13023'>0.30933E+02</wgt>
<wgt id='13024'>0.31121E+02</wgt>
<wgt id='13025'>0.30750E+02</wgt>
<wgt id='13026'>0.31253E+02</wgt>
<wgt id='13027'>0.30934E+02</wgt>
<wgt id='13028'>0.31146E+02</wgt>
<wgt id='13050'>0.31029E+02</wgt>
<wgt id='13051'>0.31094E+02</wgt>
<wgt id='13052'>0.30832E+02</wgt>
<wgt id='13053'>0.31078E+02</wgt>
<wgt id='13054'>0.30975E+02</wgt>
<wgt id='13055'>0.30711E+02</wgt>
<wgt id='13056'>0.30958E+02</wgt>
<wgt id='13057'>0.30961E+02</wgt>
<wgt id='13058'>0.31167E+02</wgt>
<wgt id='13059'>0.31066E+02</wgt>
<wgt id='13060'>0.30598E+02</wgt>
<wgt id='13061'>0.30970E+02</wgt>
<wgt id='13062'>0.31208E+02</wgt>
<wgt id='13063'>0.31042E+02</wgt>
<wgt id='14000'>0.31952E+02</wgt>
<wgt id='14001'>0.31948E+02</wgt>
<wgt id='14002'>0.31943E+02</wgt>
<wgt id='14003'>0.31939E+02</wgt>
<wgt id='14004'>0.31935E+02</wgt>
<wgt id='14005'>0.31931E+02</wgt>
<wgt id='14006'>0.31926E+02</wgt>
<wgt id='14007'>0.31922E+02</wgt>
<wgt id='14008'>0.31917E+02</wgt>
<wgt id='14009'>0.31913E+02</wgt>
<wgt id='14010'>0.31909E+02</wgt>
<wgt id='14011'>0.31905E+02</wgt>
<wgt id='14012'>0.31900E+02</wgt>
<wgt id='14013'>0.31896E+02</wgt>
<wgt id='14014'>0.31892E+02</wgt>
<wgt id='14015'>0.31887E+02</wgt>
<wgt id='14016'>0.31883E+02</wgt>
<wgt id='14017'>0.31879E+02</wgt>
<wgt id='14018'>0.31874E+02</wgt>
<wgt id='14019'>0.31870E+02</wgt>
<wgt id='14020'>0.31866E+02</wgt>
<wgt id='14021'>0.31861E+02</wgt>
<wgt id='14022'>0.31857E+02</wgt>
<wgt id='14023'>0.31853E+02</wgt>
<wgt id='14024'>0.31848E+02</wgt>
<wgt id='14025'>0.31844E+02</wgt>
<wgt id='14026'>0.31840E+02</wgt>
<wgt id='14027'>0.31835E+02</wgt>
<wgt id='14028'>0.31831E+02</wgt>
<wgt id='14029'>0.31827E+02</wgt>
<wgt id='14030'>0.31822E+02</wgt>
<wgt id='15000'>0.30635E+02</wgt>
<wgt id='15001'>0.30646E+02</wgt>
<wgt id='15002'>0.30745E+02</wgt>
<wgt id='15003'>0.30441E+02</wgt>
<wgt id='15004'>0.30642E+02</wgt>
<wgt id='15005'>0.30797E+02</wgt>
<wgt id='15006'>0.30606E+02</wgt>
<wgt id='15007'>0.30558E+02</wgt>
<wgt id='15008'>0.30638E+02</wgt>
<wgt id='15009'>0.30638E+02</wgt>
<wgt id='15010'>0.30515E+02</wgt>
<wgt id='15011'>0.30902E+02</wgt>
<wgt id='15012'>0.30589E+02</wgt>
<wgt id='15013'>0.30403E+02</wgt>
<wgt id='15014'>0.30542E+02</wgt>
<wgt id='15015'>0.30562E+02</wgt>
<wgt id='15016'>0.30878E+02</wgt>
<wgt id='15017'>0.30477E+02</wgt>
<wgt id='15018'>0.30635E+02</wgt>
<wgt id='15019'>0.30673E+02</wgt>
<wgt id='15020'>0.30855E+02</wgt>
<wgt id='15021'>0.30635E+02</wgt>
<wgt id='15022'>0.30698E+02</wgt>
<wgt id='15023'>0.30485E+02</wgt>
<wgt id='15024'>0.30555E+02</wgt>
<wgt id='15025'>0.30686E+02</wgt>
<wgt id='15026'>0.30636E+02</wgt>
<wgt id='15027'>0.30617E+02</wgt>
<wgt id='15028'>0.30665E+02</wgt>
<wgt id='15029'>0.30667E+02</wgt>
<wgt id='15030'>0.30661E+02</wgt>
<wgt id='15031'>0.30616E+02</wgt>
<wgt id='15032'>0.30655E+02</wgt>
<wgt id='15033'>0.30670E+02</wgt>
<wgt id='15034'>0.30634E+02</wgt>
<wgt id='15035'>0.30678E+02</wgt>
<wgt id='15036'>0.30641E+02</wgt>
<wgt id='15037'>0.30663E+02</wgt>
<wgt id='15038'>0.30648E+02</wgt>
<wgt id='15039'>0.30636E+02</wgt>
<wgt id='15040'>0.30604E+02</wgt>
<wgt id='15041'>0.30630E+02</wgt>
<wgt id='15042'>0.30638E+02</wgt>
<wgt id='15043'>0.30603E+02</wgt>
<wgt id='15044'>0.30643E+02</wgt>
<wgt id='15045'>0.30639E+02</wgt>
<wgt id='15046'>0.30593E+02</wgt>
<wgt id='15047'>0.30633E+02</wgt>
<wgt id='15048'>0.30650E+02</wgt>
<wgt id='15049'>0.30618E+02</wgt>
<wgt id='15050'>0.30639E+02</wgt>
<wgt id='15051'>0.30652E+02</wgt>
<wgt id='15052'>0.30652E+02</wgt>
<wgt id='15053'>0.30636E+02</wgt>
<wgt id='15054'>0.30620E+02</wgt>
<wgt id='15055'>0.30623E+02</wgt>
<wgt id='15056'>0.30660E+02</wgt>
<wgt id='15057'>0.30637E+02</wgt>
<wgt id='15058'>0.30606E+02</wgt>
<wgt id='15059'>0.30619E+02</wgt>
<wgt id='15060'>0.30623E+02</wgt>
<wgt id='15061'>0.30639E+02</wgt>
<wgt id='15062'>0.30640E+02</wgt>
<wgt id='15063'>0.30646E+02</wgt>
<wgt id='15064'>0.30633E+02</wgt>
<wgt id='15065'>0.30631E+02</wgt>
<wgt id='15066'>0.30636E+02</wgt>
<wgt id='15067'>0.30645E+02</wgt>
<wgt id='15068'>0.30642E+02</wgt>
<wgt id='15069'>0.30657E+02</wgt>
<wgt id='15070'>0.30629E+02</wgt>
<wgt id='15071'>0.30656E+02</wgt>
<wgt id='15072'>0.30657E+02</wgt>
<wgt id='15073'>0.30627E+02</wgt>
<wgt id='15074'>0.30640E+02</wgt>
<wgt id='15075'>0.30633E+02</wgt>
<wgt id='15076'>0.30633E+02</wgt>
<wgt id='15077'>0.30643E+02</wgt>
<wgt id='15078'>0.30637E+02</wgt>
<wgt id='15079'>0.30631E+02</wgt>
<wgt id='15080'>0.30662E+02</wgt>
<wgt id='15081'>0.30634E+02</wgt>
<wgt id='15082'>0.30644E+02</wgt>
<wgt id='15083'>0.30625E+02</wgt>
<wgt id='15084'>0.30623E+02</wgt>
<wgt id='15085'>0.30623E+02</wgt>
<wgt id='15086'>0.30642E+02</wgt>
<wgt id='15087'>0.30609E+02</wgt>
<wgt id='15088'>0.30625E+02</wgt>
<wgt id='15089'>0.30625E+02</wgt>
<wgt id='15090'>0.30640E+02</wgt>
<wgt id='15091'>0.30629E+02</wgt>
<wgt id='15092'>0.30633E+02</wgt>
<wgt id='15093'>0.30629E+02</wgt>
<wgt id='15094'>0.30630E+02</wgt>
<wgt id='15095'>0.30639E+02</wgt>
<wgt id='15096'>0.30629E+02</wgt>
<wgt id='15097'>0.30638E+02</wgt>
<wgt id='15098'>0.30634E+02</wgt>
<wgt id='15099'>0.30628E+02</wgt>
<wgt id='15100'>0.30635E+02</wgt>
<wgt id='15101'>0.30635E+02</wgt>
<wgt id='15102'>0.30633E+02</wgt>
<wgt id='15103'>0.30636E+02</wgt>
<wgt id='15104'>0.30636E+02</wgt>
<wgt id='15105'>0.30636E+02</wgt>
<wgt id='15106'>0.30636E+02</wgt>
<wgt id='15107'>0.30634E+02</wgt>
<wgt id='1500'>0.33201E+02</wgt>
<wgt id='1501'>0.32006E+02</wgt>
<wgt id='1502'>0.33423E+02</wgt>
<wgt id='1503'>0.33515E+02</wgt>
<wgt id='1504'>0.32580E+02</wgt>
<wgt id='1505'>0.31241E+02</wgt>
<wgt id='1506'>0.33689E+02</wgt>
<wgt id='1507'>0.33354E+02</wgt>
<wgt id='1508'>0.33166E+02</wgt>
<wgt id='1509'>0.33604E+02</wgt>
<wgt id='1510'>0.32436E+02</wgt>
<wgt id='1511'>0.31898E+02</wgt>
<wgt id='1512'>0.33735E+02</wgt>
<wgt id='1513'>0.33494E+02</wgt>
<wgt id='1514'>0.32720E+02</wgt>
<wgt id='1515'>0.33785E+02</wgt>
<wgt id='1516'>0.33766E+02</wgt>
<wgt id='1517'>0.33186E+02</wgt>
<wgt id='1518'>0.33357E+02</wgt>
<wgt id='1519'>0.33545E+02</wgt>
<wgt id='1520'>0.34350E+02</wgt>
<wgt id='1521'>0.33464E+02</wgt>
<wgt id='1522'>0.32761E+02</wgt>
<wgt id='1523'>0.35382E+02</wgt>
<wgt id='1524'>0.32997E+02</wgt>
<wgt id='1525'>0.33184E+02</wgt>
<wgt id='1526'>0.32961E+02</wgt>
<wgt id='1527'>0.33251E+02</wgt>
<wgt id='1528'>0.32829E+02</wgt>
<wgt id='1529'>0.33543E+02</wgt>
<wgt id='1530'>0.34129E+02</wgt>
<wgt id='1531'>0.32836E+02</wgt>
<wgt id='1532'>0.32281E+02</wgt>
<wgt id='1533'>0.33008E+02</wgt>
<wgt id='1534'>0.33177E+02</wgt>
<wgt id='1535'>0.34119E+02</wgt>
<wgt id='1536'>0.33398E+02</wgt>
<wgt id='1537'>0.33703E+02</wgt>
<wgt id='1538'>0.32989E+02</wgt>
<wgt id='1539'>0.32609E+02</wgt>
<wgt id='1540'>0.33021E+02</wgt>
<wgt id='1541'>0.33239E+02</wgt>
<wgt id='1542'>0.33287E+02</wgt>
<wgt id='1543'>0.33031E+02</wgt>
<wgt id='1544'>0.33102E+02</wgt>
<wgt id='1545'>0.33257E+02</wgt>
<wgt id='1546'>0.33616E+02</wgt>
<wgt id='1547'>0.32778E+02</wgt>
<wgt id='1548'>0.32920E+02</wgt>
<wgt id='1549'>0.33211E+02</wgt>
<wgt id='1550'>0.32932E+02</wgt>
<wgt id='1551'>0.32949E+02</wgt>
<wgt id='1552'>0.32871E+02</wgt>
<wgt id='1553'>0.33606E+02</wgt>
<wgt id='1554'>0.33104E+02</wgt>
<wgt id='1555'>0.32729E+02</wgt>
<wgt id='1556'>0.32798E+02</wgt>
<wgt id='1557'>0.33902E+02</wgt>
<wgt id='1558'>0.32647E+02</wgt>
<wgt id='1559'>0.34065E+02</wgt>
<wgt id='1560'>0.33006E+02</wgt>
<wgt id='1561'>0.33225E+02</wgt>
<wgt id='1562'>0.33525E+02</wgt>
<wgt id='1563'>0.32992E+02</wgt>
<wgt id='1564'>0.32958E+02</wgt>
<wgt id='1565'>0.33311E+02</wgt>
<wgt id='1566'>0.33050E+02</wgt>
<wgt id='1567'>0.35492E+02</wgt>
<wgt id='1568'>0.32892E+02</wgt>
<wgt id='1569'>0.32215E+02</wgt>
<wgt id='1570'>0.32587E+02</wgt>
<wgt id='1571'>0.33147E+02</wgt>
<wgt id='1572'>0.33286E+02</wgt>
<wgt id='1573'>0.31780E+02</wgt>
<wgt id='1574'>0.33578E+02</wgt>
<wgt id='1575'>0.32922E+02</wgt>
<wgt id='1576'>0.32226E+02</wgt>
<wgt id='1577'>0.33059E+02</wgt>
<wgt id='1578'>0.34005E+02</wgt>
<wgt id='1579'>0.32967E+02</wgt>
<wgt id='1580'>0.33098E+02</wgt>
<wgt id='1581'>0.33246E+02</wgt>
<wgt id='1582'>0.32440E+02</wgt>
<wgt id='1583'>0.34081E+02</wgt>
<wgt id='1584'>0.33021E+02</wgt>
<wgt id='1585'>0.32684E+02</wgt>
<wgt id='1586'>0.32924E+02</wgt>
<wgt id='1587'>0.33273E+02</wgt>
<wgt id='1588'>0.33173E+02</wgt>
<wgt id='1589'>0.34371E+02</wgt>
<wgt id='1590'>0.32875E+02</wgt>
<wgt id='1591'>0.32554E+02</wgt>
<wgt id='1592'>0.33331E+02</wgt>
<wgt id='1593'>0.33253E+02</wgt>
<wgt id='1594'>0.34013E+02</wgt>
<wgt id='1595'>0.32804E+02</wgt>
<wgt id='1596'>0.33588E+02</wgt>
<wgt id='1597'>0.33287E+02</wgt>
<wgt id='1598'>0.33812E+02</wgt>
<wgt id='1599'>0.33734E+02</wgt>
<wgt id='1600'>0.33873E+02</wgt>
<wgt id='1601'>0.32552E+02</wgt>
<wgt id='1602'>0.33589E+02</wgt>
<wgt id='1700'>0.31339E+02</wgt>
<wgt id='1800'>0.34407E+02</wgt>
<wgt id='1850'>0.43178E+02</wgt>
<wgt id='1900'>0.36184E+02</wgt>
<wgt id='1950'>0.42025E+02</wgt>
</rwgt>
</event>
<event>
      4   9999  3.15120E+01  1.13686E+01 -1.00000E+00  1.85748E-01
      21    -1     0     0   502   501  0.000000000E+00  0.000000000E+00  2.882663607E+01  2.882663607E+01  0.000000000E+00  0.00000E+00  9.000E+00
      21    -1     0     0   501   512  0.000000000E+00  0.000000000E+00 -1.856367595E+02  1.856367595E+02  0.000000000E+00  0.00000E+00  9.000E+00
      25     1     1     2     0     0 -2.881873039E+00 -1.099726834E+01 -1.002713990E+02  1.567930179E+02  1.200018829E+02  0.00000E+00  9.000E+00
      21     1     1     2   502   512  2.881873039E+00  1.099726834E+01 -5.653872440E+01  5.767037767E+01  6.743495762E-07  0.00000E+00  9.000E+00
#rwgt            1           1   27.412529917576727                2        4099           0
<rwgt>
<wgt id='1001'>0.31512E+02</wgt>
<wgt id='1002'>0.32008E+02</wgt>
<wgt id='1003'>0.30666E+02</wgt>
<wgt id='1004'>0.28159E+02</wgt>
<wgt id='1005'>0.28748E+02</wgt>
<wgt id='1006'>0.27224E+02</wgt>
<wgt id='1007'>0.35114E+02</wgt>
<wgt id='1008'>0.35403E+02</wgt>
<wgt id='1009'>0.34496E+02</wgt>
<wgt id='2000'>0.31512E+02</wgt>
<wgt id='2001'>0.31470E+02</wgt>
<wgt id='2002'>0.31648E+02</wgt>
<wgt id='2003'>0.31631E+02</wgt>
<wgt id='2004'>0.31539E+02</wgt>
<wgt id='2005'>0.31439E+02</wgt>
<wgt id='2006'>0.31431E+02</wgt>
<wgt id='2007'>0.31387E+02</wgt>
<wgt id='2008'>0.31471E+02</wgt>
<wgt id='2009'>0.31537E+02</wgt>
<wgt id='2010'>0.31489E+02</wgt>
<wgt id='2011'>0.31665E+02</wgt>
<wgt id='2012'>0.31685E+02</wgt>
<wgt id='2013'>0.31783E+02</wgt>
<wgt id='2014'>0.31630E+02</wgt>
<wgt id='2015'>0.31587E+02</wgt>
<wgt id='2016'>0.31451E+02</wgt>
<wgt id='2017'>0.31509E+02</wgt>
<wgt id='2018'>0.31631E+02</wgt>
<wgt id='2019'>0.31494E+02</wgt>
<wgt id='2020'>0.31620E+02</wgt>
<wgt id='2021'>0.31456E+02</wgt>
<wgt id='2022'>0.31570E+02</wgt>
<wgt id='2023'>0.31553E+02</wgt>
<wgt id='2024'>0.31533E+02</wgt>
<wgt id='2025'>0.31555E+02</wgt>
<wgt id='2026'>0.31529E+02</wgt>
<wgt id='2027'>0.31492E+02</wgt>
<wgt id='2028'>0.31502E+02</wgt>
<wgt id='2029'>0.31532E+02</wgt>
<wgt id='2030'>0.31530E+02</wgt>
<wgt id='2031'>0.31511E+02</wgt>
<wgt id='2032'>0.31532E+02</wgt>
<wgt id='2033'>0.31524E+02</wgt>
<wgt id='2034'>0.31501E+02</wgt>
<wgt id='2035'>0.31508E+02</wgt>
<wgt id='2036'>0.31495E+02</wgt>
<wgt id='2037'>0.31516E+02</wgt>
<wgt id='2038'>0.31509E+02</wgt>
<wgt id='2039'>0.31508E+02</wgt>
<wgt id='2040'>0.31489E+02</wgt>
<wgt id='2041'>0.31491E+02</wgt>
<wgt id='2042'>0.31503E+02</wgt>
<wgt id='2043'>0.31505E+02</wgt>
<wgt id='2044'>0.31519E+02</wgt>
<wgt id='2045'>0.31506E+02</wgt>
<wgt id='2046'>0.31533E+02</wgt>
<wgt id='2047'>0.31513E+02</wgt>
<wgt id='2048'>0.31506E+02</wgt>
<wgt id='2049'>0.31511E+02</wgt>
<wgt id='2050'>0.31525E+02</wgt>
<wgt id='2051'>0.31514E+02</wgt>
<wgt id='2052'>0.31509E+02</wgt>
<wgt id='2053'>0.31521E+02</wgt>
<wgt id='2054'>0.31523E+02</wgt>
<wgt id='2055'>0.31509E+02</wgt>
<wgt id='2056'>0.31515E+02</wgt>
<wgt id='2057'>0.31516E+02</wgt>
<wgt id='2058'>0.31512E+02</wgt>
<wgt id='2059'>0.31506E+02</wgt>
<wgt id='2060'>0.31510E+02</wgt>
<wgt id='2061'>0.31508E+02</wgt>
<wgt id='2062'>0.31516E+02</wgt>
<wgt id='2063'>0.31511E+02</wgt>
<wgt id='2064'>0.31509E+02</wgt>
<wgt id='2065'>0.31518E+02</wgt>
<wgt id='2066'>0.31511E+02</wgt>
<wgt id='2067'>0.31512E+02</wgt>
<wgt id='2068'>0.31516E+02</wgt>
<wgt id='2069'>0.31509E+02</wgt>
<wgt id='2070'>0.31508E+02</wgt>
<wgt id='2071'>0.31504E+02</wgt>
<wgt id='2072'>0.31513E+02</wgt>
<wgt id='2073'>0.31514E+02</wgt>
<wgt id='2074'>0.31508E+02</wgt>
<wgt id='2075'>0.31511E+02</wgt>
<wgt id='2076'>0.31511E+02</wgt>
<wgt id='2077'>0.31510E+02</wgt>
<wgt id='2078'>0.31511E+02</wgt>
<wgt id='2079'>0.31513E+02</wgt>
<wgt id='2080'>0.31512E+02</wgt>
<wgt id='2081'>0.31514E+02</wgt>
<wgt id='2082'>0.31513E+02</wgt>
<wgt id='2083'>0.31514E+02</wgt>
<wgt id='2084'>0.31513E+02</wgt>
<wgt id='2085'>0.31512E+02</wgt>
<wgt id='2086'>0.31509E+02</wgt>
<wgt id='2087'>0.31511E+02</wgt>
<wgt id='2088'>0.31513E+02</wgt>
<wgt id='2089'>0.31511E+02</wgt>
<wgt id='2090'>0.31512E+02</wgt>
<wgt id='2091'>0.31512E+02</wgt>
<wgt id='2092'>0.31513E+02</wgt>
<wgt id='2093'>0.31512E+02</wgt>
<wgt id='2094'>0.31514E+02</wgt>
<wgt id='2095'>0.31514E+02</wgt>
<wgt id='2096'>0.31512E+02</wgt>
<wgt id='2097'>0.31513E+02</wgt>
<wgt id='2098'>0.31512E+02</wgt>
<wgt id='2099'>0.31512E+02</wgt>
<wgt id='2100'>0.31513E+02</wgt>
<wgt id='2101'>0.30825E+02</wgt>
<wgt id='2102'>0.32084E+02</wgt>
<wgt id='2104'>0.28396E+02</wgt>
<wgt id='2105'>0.28937E+02</wgt>
<wgt id='2106'>0.29581E+02</wgt>
<wgt id='2107'>0.30275E+02</wgt>
<wgt id='2108'>0.31258E+02</wgt>
<wgt id='2109'>0.31890E+02</wgt>
<wgt id='2110'>0.32649E+02</wgt>
<wgt id='2111'>0.33258E+02</wgt>
<wgt id='3000'>0.32822E+02</wgt>
<wgt id='3001'>0.32946E+02</wgt>
<wgt id='3002'>0.32683E+02</wgt>
<wgt id='3003'>0.32949E+02</wgt>
<wgt id='3004'>0.32892E+02</wgt>
<wgt id='3005'>0.32978E+02</wgt>
<wgt id='3006'>0.32871E+02</wgt>
<wgt id='3007'>0.32888E+02</wgt>
<wgt id='3008'>0.32725E+02</wgt>
<wgt id='3009'>0.32773E+02</wgt>
<wgt id='3010'>0.32698E+02</wgt>
<wgt id='3011'>0.32900E+02</wgt>
<wgt id='3012'>0.33064E+02</wgt>
<wgt id='3013'>0.32561E+02</wgt>
<wgt id='3014'>0.32953E+02</wgt>
<wgt id='3015'>0.32930E+02</wgt>
<wgt id='3016'>0.32844E+02</wgt>
<wgt id='3017'>0.32966E+02</wgt>
<wgt id='3018'>0.32875E+02</wgt>
<wgt id='3019'>0.32692E+02</wgt>
<wgt id='3020'>0.32773E+02</wgt>
<wgt id='3021'>0.32723E+02</wgt>
<wgt id='3022'>0.32815E+02</wgt>
<wgt id='3023'>0.32773E+02</wgt>
<wgt id='3024'>0.32798E+02</wgt>
<wgt id='3025'>0.32822E+02</wgt>
<wgt id='3026'>0.32843E+02</wgt>
<wgt id='3027'>0.32834E+02</wgt>
<wgt id='3028'>0.32786E+02</wgt>
<wgt id='3029'>0.32837E+02</wgt>
<wgt id='3030'>0.32841E+02</wgt>
<wgt id='3031'>0.32828E+02</wgt>
<wgt id='3032'>0.32817E+02</wgt>
<wgt id='3033'>0.32815E+02</wgt>
<wgt id='3034'>0.32830E+02</wgt>
<wgt id='3035'>0.32831E+02</wgt>
<wgt id='3036'>0.32828E+02</wgt>
<wgt id='3037'>0.32820E+02</wgt>
<wgt id='3038'>0.32821E+02</wgt>
<wgt id='3039'>0.32852E+02</wgt>
<wgt id='3040'>0.32810E+02</wgt>
<wgt id='3041'>0.32808E+02</wgt>
<wgt id='3042'>0.32812E+02</wgt>
<wgt id='3043'>0.32808E+02</wgt>
<wgt id='3044'>0.32840E+02</wgt>
<wgt id='3045'>0.32831E+02</wgt>
<wgt id='3046'>0.32825E+02</wgt>
<wgt id='3047'>0.32820E+02</wgt>
<wgt id='3048'>0.32821E+02</wgt>
<wgt id='3049'>0.32814E+02</wgt>
<wgt id='3050'>0.32814E+02</wgt>
<wgt id='3051'>0.32835E+02</wgt>
<wgt id='3052'>0.32819E+02</wgt>
<wgt id='3053'>0.32820E+02</wgt>
<wgt id='3054'>0.32822E+02</wgt>
<wgt id='3055'>0.32825E+02</wgt>
<wgt id='3056'>0.32827E+02</wgt>
<wgt id='3057'>0.32826E+02</wgt>
<wgt id='3058'>0.32813E+02</wgt>
<wgt id='3059'>0.32826E+02</wgt>
<wgt id='3060'>0.32826E+02</wgt>
<wgt id='3061'>0.32832E+02</wgt>
<wgt id='3062'>0.32830E+02</wgt>
<wgt id='3063'>0.32825E+02</wgt>
<wgt id='3064'>0.32821E+02</wgt>
<wgt id='3065'>0.32819E+02</wgt>
<wgt id='3066'>0.32826E+02</wgt>
<wgt id='3067'>0.32812E+02</wgt>
<wgt id='3068'>0.32825E+02</wgt>
<wgt id='3069'>0.32820E+02</wgt>
<wgt id='3070'>0.32821E+02</wgt>
<wgt id='3071'>0.32819E+02</wgt>
<wgt id='3072'>0.32823E+02</wgt>
<wgt id='3073'>0.32815E+02</wgt>
<wgt id='3074'>0.32827E+02</wgt>
<wgt id='3075'>0.32820E+02</wgt>
<wgt id='3076'>0.32823E+02</wgt>
<wgt id='3077'>0.32825E+02</wgt>
<wgt id='3078'>0.32824E+02</wgt>
<wgt id='3079'>0.32824E+02</wgt>
<wgt id='3080'>0.32820E+02</wgt>
<wgt id='3081'>0.32823E+02</wgt>
<wgt id='3082'>0.32820E+02</wgt>
<wgt id='3083'>0.32822E+02</wgt>
<wgt id='3084'>0.32821E+02</wgt>
<wgt id='3085'>0.32821E+02</wgt>
<wgt id='3086'>0.32818E+02</wgt>
<wgt id='3087'>0.32820E+02</wgt>
<wgt id='3088'>0.32822E+02</wgt>
<wgt id='3089'>0.32823E+02</wgt>
<wgt id='3090'>0.32821E+02</wgt>
<wgt id='3091'>0.32822E+02</wgt>
<wgt id='3092'>0.32824E+02</wgt>
<wgt id='3093'>0.32823E+02</wgt>
<wgt id='3094'>0.32824E+02</wgt>
<wgt id='3095'>0.32821E+02</wgt>
<wgt id='3096'>0.32820E+02</wgt>
<wgt id='3097'>0.32820E+02</wgt>
<wgt id='3098'>0.32823E+02</wgt>
<wgt id='3099'>0.32823E+02</wgt>
<wgt id='3100'>0.32821E+02</wgt>
<wgt id='3101'>0.32148E+02</wgt>
<wgt id='3102'>0.33622E+02</wgt>
<wgt id='5000'>0.30541E+02</wgt>
<wgt id='5001'>0.30418E+02</wgt>
<wgt id='5002'>0.30491E+02</wgt>
<wgt id='5003'>0.30336E+02</wgt>
<wgt id='5004'>0.30618E+02</wgt>
<wgt id='5005'>0.29834E+02</wgt>
<wgt id='5006'>0.31049E+02</wgt>
<wgt id='5007'>0.30719E+02</wgt>
<wgt id='5008'>0.30145E+02</wgt>
<wgt id='5009'>0.30937E+02</wgt>
<wgt id='5010'>0.30328E+02</wgt>
<wgt id='5011'>0.30482E+02</wgt>
<wgt id='5012'>0.30524E+02</wgt>
<wgt id='5013'>0.29856E+02</wgt>
<wgt id='5014'>0.30559E+02</wgt>
<wgt id='5015'>0.30786E+02</wgt>
<wgt id='5016'>0.29795E+02</wgt>
<wgt id='5017'>0.30610E+02</wgt>
<wgt id='5018'>0.30467E+02</wgt>
<wgt id='5019'>0.30424E+02</wgt>
<wgt id='5020'>0.30635E+02</wgt>
<wgt id='5021'>0.30655E+02</wgt>
<wgt id='5022'>0.30467E+02</wgt>
<wgt id='5023'>0.30465E+02</wgt>
<wgt id='5024'>0.30616E+02</wgt>
<wgt id='5025'>0.30495E+02</wgt>
<wgt id='5026'>0.30578E+02</wgt>
<wgt id='5027'>0.30878E+02</wgt>
<wgt id='5028'>0.29975E+02</wgt>
<wgt id='5029'>0.29925E+02</wgt>
<wgt id='5030'>0.30912E+02</wgt>
<wgt id='5031'>0.30177E+02</wgt>
<wgt id='5032'>0.31067E+02</wgt>
<wgt id='5033'>0.30297E+02</wgt>
<wgt id='5034'>0.30749E+02</wgt>
<wgt id='5035'>0.30056E+02</wgt>
<wgt id='5036'>0.30934E+02</wgt>
<wgt id='5037'>0.30502E+02</wgt>
<wgt id='5038'>0.30567E+02</wgt>
<wgt id='5039'>0.31075E+02</wgt>
<wgt id='5040'>0.30268E+02</wgt>
<wgt id='5041'>0.30188E+02</wgt>
<wgt id='5042'>0.30597E+02</wgt>
<wgt id='5043'>0.30855E+02</wgt>
<wgt id='5044'>0.29688E+02</wgt>
<wgt id='5045'>0.31545E+02</wgt>
<wgt id='5046'>0.30253E+02</wgt>
<wgt id='5047'>0.30798E+02</wgt>
<wgt id='5048'>0.30671E+02</wgt>
<wgt id='5049'>0.30567E+02</wgt>
<wgt id='5050'>0.30594E+02</wgt>
<wgt id='5051'>0.30628E+02</wgt>
<wgt id='5052'>0.30513E+02</wgt>
<wgt id='5053'>0.30357E+02</wgt>
<wgt id='5054'>0.31304E+02</wgt>
<wgt id='5055'>0.30350E+02</wgt>
<wgt id='5056'>0.30726E+02</wgt>
<wgt id='5060'>0.29942E+02</wgt>
<wgt id='5070'>0.31031E+02</wgt>
<wgt id='4000'>0.32160E+02</wgt>
<wgt id='4001'>0.32194E+02</wgt>
<wgt id='4002'>0.32256E+02</wgt>
<wgt id='4003'>0.32966E+02</wgt>
<wgt id='4004'>0.31810E+02</wgt>
<wgt id='4005'>0.32273E+02</wgt>
<wgt id='4006'>0.32062E+02</wgt>
<wgt id='4007'>0.32572E+02</wgt>
<wgt id='4008'>0.31984E+02</wgt>
<wgt id='4009'>0.31449E+02</wgt>
<wgt id='4010'>0.32688E+02</wgt>
<wgt id='4011'>0.32684E+02</wgt>
<wgt id='4012'>0.31861E+02</wgt>
<wgt id='4013'>0.30898E+02</wgt>
<wgt id='4014'>0.32888E+02</wgt>
<wgt id='4015'>0.32454E+02</wgt>
<wgt id='4016'>0.31967E+02</wgt>
<wgt id='4017'>0.31842E+02</wgt>
<wgt id='4018'>0.32539E+02</wgt>
<wgt id='4019'>0.32593E+02</wgt>
<wgt id='4020'>0.31675E+02</wgt>
<wgt id='4021'>0.32247E+02</wgt>
<wgt id='4022'>0.31974E+02</wgt>
<wgt id='4023'>0.31985E+02</wgt>
<wgt id='4024'>0.32316E+02</wgt>
<wgt id='4025'>0.31683E+02</wgt>
<wgt id='4026'>0.32598E+02</wgt>
<wgt id='4027'>0.32040E+02</wgt>
<wgt id='4028'>0.32322E+02</wgt>
<wgt id='4029'>0.31903E+02</wgt>
<wgt id='4030'>0.32249E+02</wgt>
<wgt id='4031'>0.32209E+02</wgt>
<wgt id='4032'>0.32096E+02</wgt>
<wgt id='4033'>0.32139E+02</wgt>
<wgt id='4034'>0.32199E+02</wgt>
<wgt id='4035'>0.32674E+02</wgt>
<wgt id='4036'>0.31665E+02</wgt>
<wgt id='4037'>0.32445E+02</wgt>
<wgt id='4038'>0.31686E+02</wgt>
<wgt id='4039'>0.32145E+02</wgt>
<wgt id='4040'>0.32111E+02</wgt>
<wgt id='4041'>0.32450E+02</wgt>
<wgt id='4042'>0.31888E+02</wgt>
<wgt id='4043'>0.32486E+02</wgt>
<wgt id='4044'>0.31805E+02</wgt>
<wgt id='4045'>0.31742E+02</wgt>
<wgt id='4046'>0.32012E+02</wgt>
<wgt id='4047'>0.31725E+02</wgt>
<wgt id='4048'>0.32516E+02</wgt>
<wgt id='4049'>0.32305E+02</wgt>
<wgt id='4050'>0.31514E+02</wgt>
<wgt id='4051'>0.32092E+02</wgt>
<wgt id='4052'>0.32078E+02</wgt>
<wgt id='4053'>0.31330E+02</wgt>
<wgt id='4054'>0.32376E+02</wgt>
<wgt id='4055'>0.31901E+02</wgt>
<wgt id='4056'>0.32415E+02</wgt>
<wgt id='4060'>0.31409E+02</wgt>
<wgt id='4070'>0.32831E+02</wgt>
<wgt id='4080'>0.31643E+02</wgt>
<wgt id='6000'>0.32678E+02</wgt>
<wgt id='6001'>0.32693E+02</wgt>
<wgt id='6002'>0.32661E+02</wgt>
<wgt id='6003'>0.32693E+02</wgt>
<wgt id='6004'>0.32668E+02</wgt>
<wgt id='6005'>0.32767E+02</wgt>
<wgt id='6006'>0.32594E+02</wgt>
<wgt id='6007'>0.32536E+02</wgt>
<wgt id='6008'>0.32839E+02</wgt>
<wgt id='6009'>0.32784E+02</wgt>
<wgt id='6010'>0.32575E+02</wgt>
<wgt id='6011'>0.32749E+02</wgt>
<wgt id='6012'>0.32522E+02</wgt>
<wgt id='6013'>0.32641E+02</wgt>
<wgt id='6014'>0.32742E+02</wgt>
<wgt id='6015'>0.32574E+02</wgt>
<wgt id='6016'>0.32737E+02</wgt>
<wgt id='6017'>0.32489E+02</wgt>
<wgt id='6018'>0.32901E+02</wgt>
<wgt id='6019'>0.32726E+02</wgt>
<wgt id='6020'>0.32635E+02</wgt>
<wgt id='6021'>0.32603E+02</wgt>
<wgt id='6022'>0.32778E+02</wgt>
<wgt id='6023'>0.32444E+02</wgt>
<wgt id='6024'>0.32839E+02</wgt>
<wgt id='6025'>0.32290E+02</wgt>
<wgt id='6026'>0.33014E+02</wgt>
<wgt id='6027'>0.32766E+02</wgt>
<wgt id='6028'>0.32678E+02</wgt>
<wgt id='6029'>0.32883E+02</wgt>
<wgt id='6030'>0.32440E+02</wgt>
<wgt id='6031'>0.32719E+02</wgt>
<wgt id='6032'>0.32620E+02</wgt>
<wgt id='6033'>0.32739E+02</wgt>
<wgt id='6034'>0.32612E+02</wgt>
<wgt id='6035'>0.32656E+02</wgt>
<wgt id='6036'>0.32790E+02</wgt>
<wgt id='6037'>0.32737E+02</wgt>
<wgt id='6038'>0.32671E+02</wgt>
<wgt id='6039'>0.32648E+02</wgt>
<wgt id='6040'>0.32710E+02</wgt>
<wgt id='6041'>0.32614E+02</wgt>
<wgt id='6042'>0.32756E+02</wgt>
<wgt id='6043'>0.33105E+02</wgt>
<wgt id='6044'>0.32469E+02</wgt>
<wgt id='6045'>0.32650E+02</wgt>
<wgt id='6046'>0.32748E+02</wgt>
<wgt id='6047'>0.32611E+02</wgt>
<wgt id='6048'>0.32464E+02</wgt>
<wgt id='6049'>0.32651E+02</wgt>
<wgt id='6050'>0.32671E+02</wgt>
<wgt id='7000'>0.30714E+02</wgt>
<wgt id='7001'>0.30704E+02</wgt>
<wgt id='7002'>0.30727E+02</wgt>
<wgt id='7003'>0.30812E+02</wgt>
<wgt id='7004'>0.30615E+02</wgt>
<wgt id='7005'>0.30774E+02</wgt>
<wgt id='7006'>0.30690E+02</wgt>
<wgt id='7007'>0.30587E+02</wgt>
<wgt id='7008'>0.30839E+02</wgt>
<wgt id='7009'>0.30766E+02</wgt>
<wgt id='7010'>0.30662E+02</wgt>
<wgt id='7011'>0.30415E+02</wgt>
<wgt id='7012'>0.30843E+02</wgt>
<wgt id='7013'>0.30715E+02</wgt>
<wgt id='7014'>0.30711E+02</wgt>
<wgt id='7015'>0.30625E+02</wgt>
<wgt id='7016'>0.30809E+02</wgt>
<wgt id='7017'>0.30634E+02</wgt>
<wgt id='7018'>0.30755E+02</wgt>
<wgt id='7019'>0.30674E+02</wgt>
<wgt id='7020'>0.30767E+02</wgt>
<wgt id='7021'>0.30700E+02</wgt>
<wgt id='7022'>0.30721E+02</wgt>
<wgt id='7023'>0.31065E+02</wgt>
<wgt id='7024'>0.30372E+02</wgt>
<wgt id='7025'>0.30851E+02</wgt>
<wgt id='7026'>0.30378E+02</wgt>
<wgt id='7027'>0.30851E+02</wgt>
<wgt id='7028'>0.30651E+02</wgt>
<wgt id='7029'>0.30571E+02</wgt>
<wgt id='7030'>0.31088E+02</wgt>
<wgt id='7031'>0.30710E+02</wgt>
<wgt id='7032'>0.30724E+02</wgt>
<wgt id='7033'>0.30671E+02</wgt>
<wgt id='7034'>0.30812E+02</wgt>
<wgt id='7035'>0.30795E+02</wgt>
<wgt id='7036'>0.30691E+02</wgt>
<wgt id='7037'>0.30726E+02</wgt>
<wgt id='7038'>0.30717E+02</wgt>
<wgt id='7039'>0.30684E+02</wgt>
<wgt id='7040'>0.30734E+02</wgt>
<wgt id='7041'>0.30651E+02</wgt>
<wgt id='7042'>0.30753E+02</wgt>
<wgt id='7043'>0.30741E+02</wgt>
<wgt id='7044'>0.30556E+02</wgt>
<wgt id='7045'>0.30459E+02</wgt>
<wgt id='7046'>0.30773E+02</wgt>
<wgt id='7047'>0.30731E+02</wgt>
<wgt id='7048'>0.30694E+02</wgt>
<wgt id='7049'>0.30684E+02</wgt>
<wgt id='7050'>0.30639E+02</wgt>
<wgt id='7060'>0.46165E+02</wgt>
<wgt id='8000'>0.31145E+02</wgt>
<wgt id='8001'>0.31137E+02</wgt>
<wgt id='8002'>0.31154E+02</wgt>
<wgt id='8003'>0.31148E+02</wgt>
<wgt id='8004'>0.31144E+02</wgt>
<wgt id='8005'>0.31068E+02</wgt>
<wgt id='8006'>0.31125E+02</wgt>
<wgt id='8007'>0.31102E+02</wgt>
<wgt id='8008'>0.31201E+02</wgt>
<wgt id='8009'>0.31262E+02</wgt>
<wgt id='8010'>0.31146E+02</wgt>
<wgt id='8011'>0.31128E+02</wgt>
<wgt id='8012'>0.31110E+02</wgt>
<wgt id='8013'>0.31141E+02</wgt>
<wgt id='8014'>0.31127E+02</wgt>
<wgt id='8015'>0.31121E+02</wgt>
<wgt id='8016'>0.31153E+02</wgt>
<wgt id='8017'>0.31150E+02</wgt>
<wgt id='8018'>0.31139E+02</wgt>
<wgt id='8019'>0.31203E+02</wgt>
<wgt id='8020'>0.31035E+02</wgt>
<wgt id='8021'>0.31150E+02</wgt>
<wgt id='8022'>0.30945E+02</wgt>
<wgt id='8023'>0.31184E+02</wgt>
<wgt id='8024'>0.31220E+02</wgt>
<wgt id='8025'>0.31261E+02</wgt>
<wgt id='8026'>0.31212E+02</wgt>
<wgt id='8027'>0.31088E+02</wgt>
<wgt id='8028'>0.31177E+02</wgt>
<wgt id='8029'>0.30915E+02</wgt>
<wgt id='8500'>0.32356E+02</wgt>
<wgt id='8501'>0.32287E+02</wgt>
<wgt id='8502'>0.32665E+02</wgt>
<wgt id='8503'>0.32574E+02</wgt>
<wgt id='8504'>0.32282E+02</wgt>
<wgt id='8505'>0.32214E+02</wgt>
<wgt id='8506'>0.32265E+02</wgt>
<wgt id='8507'>0.32546E+02</wgt>
<wgt id='8508'>0.32812E+02</wgt>
<wgt id='8509'>0.32163E+02</wgt>
<wgt id='8510'>0.32844E+02</wgt>
<wgt id='8511'>0.32377E+02</wgt>
<wgt id='8512'>0.31963E+02</wgt>
<wgt id='8513'>0.32415E+02</wgt>
<wgt id='8514'>0.32183E+02</wgt>
<wgt id='8515'>0.32370E+02</wgt>
<wgt id='8516'>0.32450E+02</wgt>
<wgt id='8517'>0.32283E+02</wgt>
<wgt id='8518'>0.32281E+02</wgt>
<wgt id='8519'>0.32284E+02</wgt>
<wgt id='8520'>0.32376E+02</wgt>
<wgt id='8521'>0.32204E+02</wgt>
<wgt id='8522'>0.32378E+02</wgt>
<wgt id='8523'>0.32298E+02</wgt>
<wgt id='8524'>0.32346E+02</wgt>
<wgt id='8525'>0.32326E+02</wgt>
<wgt id='8526'>0.32323E+02</wgt>
<wgt id='8527'>0.32368E+02</wgt>
<wgt id='8528'>0.32275E+02</wgt>
<wgt id='8529'>0.32338E+02</wgt>
<wgt id='8530'>0.32343E+02</wgt>
<wgt id='8531'>0.32346E+02</wgt>
<wgt id='8532'>0.32360E+02</wgt>
<wgt id='8533'>0.32298E+02</wgt>
<wgt id='8534'>0.32371E+02</wgt>
<wgt id='8535'>0.32424E+02</wgt>
<wgt id='8536'>0.32331E+02</wgt>
<wgt id='8537'>0.32369E+02</wgt>
<wgt id='8538'>0.32324E+02</wgt>
<wgt id='8539'>0.32363E+02</wgt>
<wgt id='8540'>0.32360E+02</wgt>
<wgt id='8541'>0.32370E+02</wgt>
<wgt id='8542'>0.32379E+02</wgt>
<wgt id='8543'>0.32329E+02</wgt>
<wgt id='8544'>0.32386E+02</wgt>
<wgt id='8545'>0.32381E+02</wgt>
<wgt id='8546'>0.32386E+02</wgt>
<wgt id='8547'>0.32332E+02</wgt>
<wgt id='8548'>0.32325E+02</wgt>
<wgt id='8549'>0.32358E+02</wgt>
<wgt id='8550'>0.32361E+02</wgt>
<wgt id='8551'>0.32326E+02</wgt>
<wgt id='8552'>0.32363E+02</wgt>
<wgt id='8553'>0.32343E+02</wgt>
<wgt id='8554'>0.32343E+02</wgt>
<wgt id='8555'>0.32359E+02</wgt>
<wgt id='8556'>0.32355E+02</wgt>
<wgt id='8557'>0.32348E+02</wgt>
<wgt id='8558'>0.32389E+02</wgt>
<wgt id='8559'>0.32341E+02</wgt>
<wgt id='8560'>0.32323E+02</wgt>
<wgt id='8561'>0.32351E+02</wgt>
<wgt id='8562'>0.32332E+02</wgt>
<wgt id='8563'>0.32358E+02</wgt>
<wgt id='8564'>0.32349E+02</wgt>
<wgt id='8565'>0.32354E+02</wgt>
<wgt id='8566'>0.32351E+02</wgt>
<wgt id='8567'>0.32354E+02</wgt>
<wgt id='8568'>0.32367E+02</wgt>
<wgt id='8569'>0.32364E+02</wgt>
<wgt id='8570'>0.32353E+02</wgt>
<wgt id='8571'>0.32344E+02</wgt>
<wgt id='8572'>0.32347E+02</wgt>
<wgt id='8573'>0.32342E+02</wgt>
<wgt id='8574'>0.32363E+02</wgt>
<wgt id='8575'>0.32353E+02</wgt>
<wgt id='8576'>0.32353E+02</wgt>
<wgt id='8577'>0.32354E+02</wgt>
<wgt id='8578'>0.32360E+02</wgt>
<wgt id='8579'>0.32374E+02</wgt>
<wgt id='8580'>0.32356E+02</wgt>
<wgt id='8581'>0.32360E+02</wgt>
<wgt id='8582'>0.32337E+02</wgt>
<wgt id='8583'>0.32369E+02</wgt>
<wgt id='8584'>0.32363E+02</wgt>
<wgt id='8585'>0.32362E+02</wgt>
<wgt id='8586'>0.32371E+02</wgt>
<wgt id='8587'>0.32352E+02</wgt>
<wgt id='8588'>0.32349E+02</wgt>
<wgt id='8589'>0.32358E+02</wgt>
<wgt id='8590'>0.32353E+02</wgt>
<wgt id='8591'>0.32352E+02</wgt>
<wgt id='8592'>0.32355E+02</wgt>
<wgt id='8593'>0.32344E+02</wgt>
<wgt id='8594'>0.32360E+02</wgt>
<wgt id='8595'>0.32359E+02</wgt>
<wgt id='8596'>0.32348E+02</wgt>
<wgt id='8597'>0.32360E+02</wgt>
<wgt id='8598'>0.32363E+02</wgt>
<wgt id='8599'>0.32361E+02</wgt>
<wgt id='8600'>0.32356E+02</wgt>
<wgt id='8601'>0.31821E+02</wgt>
<wgt id='8602'>0.32803E+02</wgt>
<wgt id='9000'>0.30784E+02</wgt>
<wgt id='9001'>0.30824E+02</wgt>
<wgt id='9002'>0.30945E+02</wgt>
<wgt id='9003'>0.30512E+02</wgt>
<wgt id='9004'>0.30719E+02</wgt>
<wgt id='9005'>0.30926E+02</wgt>
<wgt id='9006'>0.30701E+02</wgt>
<wgt id='9007'>0.30806E+02</wgt>
<wgt id='9008'>0.30848E+02</wgt>
<wgt id='9009'>0.30760E+02</wgt>
<wgt id='9010'>0.30721E+02</wgt>
<wgt id='9011'>0.31139E+02</wgt>
<wgt id='9012'>0.30410E+02</wgt>
<wgt id='9013'>0.30347E+02</wgt>
<wgt id='9014'>0.30427E+02</wgt>
<wgt id='9015'>0.30756E+02</wgt>
<wgt id='9016'>0.30965E+02</wgt>
<wgt id='9017'>0.30799E+02</wgt>
<wgt id='9018'>0.30754E+02</wgt>
<wgt id='9019'>0.30740E+02</wgt>
<wgt id='9020'>0.30914E+02</wgt>
<wgt id='9021'>0.30734E+02</wgt>
<wgt id='9022'>0.30820E+02</wgt>
<wgt id='9023'>0.30744E+02</wgt>
<wgt id='9024'>0.30746E+02</wgt>
<wgt id='9025'>0.30824E+02</wgt>
<wgt id='9026'>0.30787E+02</wgt>
<wgt id='9027'>0.30738E+02</wgt>
<wgt id='9028'>0.30812E+02</wgt>
<wgt id='9029'>0.30813E+02</wgt>
<wgt id='9030'>0.30784E+02</wgt>
<wgt id='9031'>0.30781E+02</wgt>
<wgt id='9032'>0.30809E+02</wgt>
<wgt id='9033'>0.30823E+02</wgt>
<wgt id='9034'>0.30765E+02</wgt>
<wgt id='9035'>0.30833E+02</wgt>
<wgt id='9036'>0.30782E+02</wgt>
<wgt id='9037'>0.30813E+02</wgt>
<wgt id='9038'>0.30785E+02</wgt>
<wgt id='9039'>0.30787E+02</wgt>
<wgt id='9040'>0.30748E+02</wgt>
<wgt id='9041'>0.30769E+02</wgt>
<wgt id='9042'>0.30778E+02</wgt>
<wgt id='9043'>0.30764E+02</wgt>
<wgt id='9044'>0.30794E+02</wgt>
<wgt id='9045'>0.30779E+02</wgt>
<wgt id='9046'>0.30743E+02</wgt>
<wgt id='9047'>0.30768E+02</wgt>
<wgt id='9048'>0.30795E+02</wgt>
<wgt id='9049'>0.30767E+02</wgt>
<wgt id='9050'>0.30792E+02</wgt>
<wgt id='9051'>0.30794E+02</wgt>
<wgt id='9052'>0.30791E+02</wgt>
<wgt id='9053'>0.30789E+02</wgt>
<wgt id='9054'>0.30769E+02</wgt>
<wgt id='9055'>0.30779E+02</wgt>
<wgt id='9056'>0.30810E+02</wgt>
<wgt id='9057'>0.30781E+02</wgt>
<wgt id='9058'>0.30765E+02</wgt>
<wgt id='9059'>0.30771E+02</wgt>
<wgt id='9060'>0.30775E+02</wgt>
<wgt id='9061'>0.30788E+02</wgt>
<wgt id='9062'>0.30788E+02</wgt>
<wgt id='9063'>0.30797E+02</wgt>
<wgt id='9064'>0.30777E+02</wgt>
<wgt id='9065'>0.30783E+02</wgt>
<wgt id='9066'>0.30786E+02</wgt>
<wgt id='9067'>0.30793E+02</wgt>
<wgt id='9068'>0.30793E+02</wgt>
<wgt id='9069'>0.30800E+02</wgt>
<wgt id='9070'>0.30780E+02</wgt>
<wgt id='9071'>0.30802E+02</wgt>
<wgt id='9072'>0.30801E+02</wgt>
<wgt id='9073'>0.30775E+02</wgt>
<wgt id='9074'>0.30788E+02</wgt>
<wgt id='9075'>0.30782E+02</wgt>
<wgt id='9076'>0.30782E+02</wgt>
<wgt id='9077'>0.30789E+02</wgt>
<wgt id='9078'>0.30787E+02</wgt>
<wgt id='9079'>0.30779E+02</wgt>
<wgt id='9080'>0.30803E+02</wgt>
<wgt id='9081'>0.30782E+02</wgt>
<wgt id='9082'>0.30791E+02</wgt>
<wgt id='9083'>0.30775E+02</wgt>
<wgt id='9084'>0.30776E+02</wgt>
<wgt id='9085'>0.30777E+02</wgt>
<wgt id='9086'>0.30788E+02</wgt>
<wgt id='9087'>0.30766E+02</wgt>
<wgt id='9088'>0.30777E+02</wgt>
<wgt id='9089'>0.30777E+02</wgt>
<wgt id='9090'>0.30788E+02</wgt>
<wgt id='9091'>0.30781E+02</wgt>
<wgt id='9092'>0.30783E+02</wgt>
<wgt id='9093'>0.30779E+02</wgt>
<wgt id='9094'>0.30782E+02</wgt>
<wgt id='9095'>0.30787E+02</wgt>
<wgt id='9096'>0.30778E+02</wgt>
<wgt id='9097'>0.30786E+02</wgt>
<wgt id='9098'>0.30784E+02</wgt>
<wgt id='9099'>0.30777E+02</wgt>
<wgt id='9100'>0.30783E+02</wgt>
<wgt id='9101'>0.30397E+02</wgt>
<wgt id='9102'>0.31076E+02</wgt>
<wgt id='10000'>0.32355E+02</wgt>
<wgt id='10001'>0.32499E+02</wgt>
<wgt id='10002'>0.32353E+02</wgt>
<wgt id='10003'>0.32359E+02</wgt>
<wgt id='10004'>0.32455E+02</wgt>
<wgt id='10005'>0.33288E+02</wgt>
<wgt id='10006'>0.32350E+02</wgt>
<wgt id='10007'>0.32348E+02</wgt>
<wgt id='10008'>0.32366E+02</wgt>
<wgt id='10009'>0.32304E+02</wgt>
<wgt id='10010'>0.32358E+02</wgt>
<wgt id='10011'>0.32331E+02</wgt>
<wgt id='10012'>0.32302E+02</wgt>
<wgt id='10013'>0.32345E+02</wgt>
<wgt id='10014'>0.32366E+02</wgt>
<wgt id='10015'>0.32392E+02</wgt>
<wgt id='10016'>0.32369E+02</wgt>
<wgt id='10017'>0.32156E+02</wgt>
<wgt id='10018'>0.32381E+02</wgt>
<wgt id='10019'>0.32303E+02</wgt>
<wgt id='10020'>0.32368E+02</wgt>
<wgt id='10021'>0.32357E+02</wgt>
<wgt id='10022'>0.32347E+02</wgt>
<wgt id='10023'>0.32361E+02</wgt>
<wgt id='10024'>0.32353E+02</wgt>
<wgt id='10025'>0.32342E+02</wgt>
<wgt id='10026'>0.32356E+02</wgt>
<wgt id='10027'>0.32357E+02</wgt>
<wgt id='10028'>0.32421E+02</wgt>
<wgt id='10029'>0.32389E+02</wgt>
<wgt id='10030'>0.32345E+02</wgt>
<wgt id='10031'>0.31821E+02</wgt>
<wgt id='10032'>0.32803E+02</wgt>
<wgt id='11000'>0.30782E+02</wgt>
<wgt id='11001'>0.30790E+02</wgt>
<wgt id='11002'>0.30899E+02</wgt>
<wgt id='11003'>0.30749E+02</wgt>
<wgt id='11004'>0.30903E+02</wgt>
<wgt id='11005'>0.30359E+02</wgt>
<wgt id='11006'>0.30779E+02</wgt>
<wgt id='11007'>0.30712E+02</wgt>
<wgt id='11008'>0.30709E+02</wgt>
<wgt id='11009'>0.30634E+02</wgt>
<wgt id='11010'>0.30878E+02</wgt>
<wgt id='11011'>0.30611E+02</wgt>
<wgt id='11012'>0.30815E+02</wgt>
<wgt id='11013'>0.30898E+02</wgt>
<wgt id='11014'>0.30688E+02</wgt>
<wgt id='11015'>0.30744E+02</wgt>
<wgt id='11016'>0.30744E+02</wgt>
<wgt id='11017'>0.31045E+02</wgt>
<wgt id='11018'>0.30781E+02</wgt>
<wgt id='11019'>0.30772E+02</wgt>
<wgt id='11020'>0.30830E+02</wgt>
<wgt id='11021'>0.30884E+02</wgt>
<wgt id='11022'>0.31418E+02</wgt>
<wgt id='11023'>0.30773E+02</wgt>
<wgt id='11024'>0.30762E+02</wgt>
<wgt id='11025'>0.30717E+02</wgt>
<wgt id='11026'>0.30785E+02</wgt>
<wgt id='11027'>0.30776E+02</wgt>
<wgt id='11028'>0.30774E+02</wgt>
<wgt id='11029'>0.30762E+02</wgt>
<wgt id='11030'>0.30786E+02</wgt>
<wgt id='11031'>0.30397E+02</wgt>
<wgt id='11032'>0.31076E+02</wgt>
<wgt id='12000'>0.34447E+02</wgt>
<wgt id='12001'>0.34399E+02</wgt>
<wgt id='12002'>0.34494E+02</wgt>
<wgt id='12003'>0.34536E+02</wgt>
<wgt id='12004'>0.34358E+02</wgt>
<wgt id='12005'>0.34504E+02</wgt>
<wgt id='12006'>0.34389E+02</wgt>
<wgt id='12007'>0.34542E+02</wgt>
<wgt id='12008'>0.34354E+02</wgt>
<wgt id='12009'>0.34502E+02</wgt>
<wgt id='12010'>0.34393E+02</wgt>
<wgt id='12011'>0.34387E+02</wgt>
<wgt id='12012'>0.34511E+02</wgt>
<wgt id='12013'>0.34308E+02</wgt>
<wgt id='12014'>0.34587E+02</wgt>
<wgt id='12015'>0.34445E+02</wgt>
<wgt id='12016'>0.34406E+02</wgt>
<wgt id='12017'>0.34553E+02</wgt>
<wgt id='12018'>0.34327E+02</wgt>
<wgt id='12019'>0.34319E+02</wgt>
<wgt id='12020'>0.34571E+02</wgt>
<wgt id='12021'>0.34588E+02</wgt>
<wgt id='12022'>0.34265E+02</wgt>
<wgt id='12023'>0.34314E+02</wgt>
<wgt id='12024'>0.34403E+02</wgt>
<wgt id='12025'>0.34552E+02</wgt>
<wgt id='12026'>0.34392E+02</wgt>
<wgt id='12027'>0.34400E+02</wgt>
<wgt id='12028'>0.34525E+02</wgt>
<wgt id='12050'>0.34447E+02</wgt>
<wgt id='12051'>0.34417E+02</wgt>
<wgt id='12052'>0.34466E+02</wgt>
<wgt id='12053'>0.34409E+02</wgt>
<wgt id='12054'>0.34461E+02</wgt>
<wgt id='12055'>0.34558E+02</wgt>
<wgt id='12056'>0.34172E+02</wgt>
<wgt id='12057'>0.34305E+02</wgt>
<wgt id='12058'>0.34578E+02</wgt>
<wgt id='12059'>0.34358E+02</wgt>
<wgt id='12060'>0.34544E+02</wgt>
<wgt id='12061'>0.34456E+02</wgt>
<wgt id='12062'>0.34508E+02</wgt>
<wgt id='12063'>0.34096E+02</wgt>
<wgt id='13000'>0.31064E+02</wgt>
<wgt id='13001'>0.31040E+02</wgt>
<wgt id='13002'>0.31084E+02</wgt>
<wgt id='13003'>0.31107E+02</wgt>
<wgt id='13004'>0.31018E+02</wgt>
<wgt id='13005'>0.31139E+02</wgt>
<wgt id='13006'>0.30985E+02</wgt>
<wgt id='13007'>0.31198E+02</wgt>
<wgt id='13008'>0.30929E+02</wgt>
<wgt id='13009'>0.31069E+02</wgt>
<wgt id='13010'>0.31058E+02</wgt>
<wgt id='13011'>0.31139E+02</wgt>
<wgt id='13012'>0.30985E+02</wgt>
<wgt id='13013'>0.30969E+02</wgt>
<wgt id='13014'>0.31156E+02</wgt>
<wgt id='13015'>0.31012E+02</wgt>
<wgt id='13016'>0.31090E+02</wgt>
<wgt id='13017'>0.31044E+02</wgt>
<wgt id='13018'>0.31074E+02</wgt>
<wgt id='13019'>0.31008E+02</wgt>
<wgt id='13020'>0.31114E+02</wgt>
<wgt id='13021'>0.30796E+02</wgt>
<wgt id='13022'>0.31284E+02</wgt>
<wgt id='13023'>0.31077E+02</wgt>
<wgt id='13024'>0.31043E+02</wgt>
<wgt id='13025'>0.30985E+02</wgt>
<wgt id='13026'>0.31061E+02</wgt>
<wgt id='13027'>0.31074E+02</wgt>
<wgt id='13028'>0.31086E+02</wgt>
<wgt id='13050'>0.31064E+02</wgt>
<wgt id='13051'>0.31069E+02</wgt>
<wgt id='13052'>0.30998E+02</wgt>
<wgt id='13053'>0.31057E+02</wgt>
<wgt id='13054'>0.31052E+02</wgt>
<wgt id='13055'>0.31022E+02</wgt>
<wgt id='13056'>0.31068E+02</wgt>
<wgt id='13057'>0.30950E+02</wgt>
<wgt id='13058'>0.31232E+02</wgt>
<wgt id='13059'>0.30965E+02</wgt>
<wgt id='13060'>0.31151E+02</wgt>
<wgt id='13061'>0.30973E+02</wgt>
<wgt id='13062'>0.31312E+02</wgt>
<wgt id='13063'>0.30858E+02</wgt>
<wgt id='14000'>0.32078E+02</wgt>
<wgt id='14001'>0.32073E+02</wgt>
<wgt id='14002'>0.32068E+02</wgt>
<wgt id='14003'>0.32063E+02</wgt>
<wgt id='14004'>0.32058E+02</wgt>
<wgt id='14005'>0.32053E+02</wgt>
<wgt id='14006'>0.32048E+02</wgt>
<wgt id='14007'>0.32042E+02</wgt>
<wgt id='14008'>0.32037E+02</wgt>
<wgt id='14009'>0.32032E+02</wgt>
<wgt id='14010'>0.32027E+02</wgt>
<wgt id='14011'>0.32022E+02</wgt>
<wgt id='14012'>0.32017E+02</wgt>
<wgt id='14013'>0.32012E+02</wgt>
<wgt id='14014'>0.32007E+02</wgt>
<wgt id='14015'>0.32002E+02</wgt>
<wgt id='14016'>0.31997E+02</wgt>
<wgt id='14017'>0.31992E+02</wgt>
<wgt id='14018'>0.31987E+02</wgt>
<wgt id='14019'>0.31982E+02</wgt>
<wgt id='14020'>0.31977E+02</wgt>
<wgt id='14021'>0.31972E+02</wgt>
<wgt id='14022'>0.31967E+02</wgt>
<wgt id='14023'>0.31962E+02</wgt>
<wgt id='14024'>0.31957E+02</wgt>
<wgt id='14025'>0.31952E+02</wgt>
<wgt id='14026'>0.31947E+02</wgt>
<wgt id='14027'>0.31941E+02</wgt>
<wgt id='14028'>0.31936E+02</wgt>
<wgt id='14029'>0.31931E+02</wgt>
<wgt id='14030'>0.31926E+02</wgt>
<wgt id='15000'>0.30411E+02</wgt>
<wgt id='15001'>0.30453E+02</wgt>
<wgt id='15002'>0.30571E+02</wgt>
<wgt id='15003'>0.30143E+02</wgt>
<wgt id='15004'>0.30348E+02</wgt>
<wgt id='15005'>0.30552E+02</wgt>
<wgt id='15006'>0.30327E+02</wgt>
<wgt id='15007'>0.30431E+02</wgt>
<wgt id='15008'>0.30473E+02</wgt>
<wgt id='15009'>0.30388E+02</wgt>
<wgt id='15010'>0.30349E+02</wgt>
<wgt id='15011'>0.30761E+02</wgt>
<wgt id='15012'>0.30042E+02</wgt>
<wgt id='15013'>0.29978E+02</wgt>
<wgt id='15014'>0.30059E+02</wgt>
<wgt id='15015'>0.30387E+02</wgt>
<wgt id='15016'>0.30590E+02</wgt>
<wgt id='15017'>0.30427E+02</wgt>
<wgt id='15018'>0.30383E+02</wgt>
<wgt id='15019'>0.30367E+02</wgt>
<wgt id='15020'>0.30537E+02</wgt>
<wgt id='15021'>0.30360E+02</wgt>
<wgt id='15022'>0.30448E+02</wgt>
<wgt id='15023'>0.30369E+02</wgt>
<wgt id='15024'>0.30374E+02</wgt>
<wgt id='15025'>0.30454E+02</wgt>
<wgt id='15026'>0.30416E+02</wgt>
<wgt id='15027'>0.30363E+02</wgt>
<wgt id='15028'>0.30439E+02</wgt>
<wgt id='15029'>0.30442E+02</wgt>
<wgt id='15030'>0.30411E+02</wgt>
<wgt id='15031'>0.30406E+02</wgt>
<wgt id='15032'>0.30437E+02</wgt>
<wgt id='15033'>0.30451E+02</wgt>
<wgt id='15034'>0.30393E+02</wgt>
<wgt id='15035'>0.30461E+02</wgt>
<wgt id='15036'>0.30409E+02</wgt>
<wgt id='15037'>0.30441E+02</wgt>
<wgt id='15038'>0.30413E+02</wgt>
<wgt id='15039'>0.30416E+02</wgt>
<wgt id='15040'>0.30376E+02</wgt>
<wgt id='15041'>0.30397E+02</wgt>
<wgt id='15042'>0.30406E+02</wgt>
<wgt id='15043'>0.30390E+02</wgt>
<wgt id='15044'>0.30422E+02</wgt>
<wgt id='15045'>0.30407E+02</wgt>
<wgt id='15046'>0.30370E+02</wgt>
<wgt id='15047'>0.30396E+02</wgt>
<wgt id='15048'>0.30422E+02</wgt>
<wgt id='15049'>0.30395E+02</wgt>
<wgt id='15050'>0.30419E+02</wgt>
<wgt id='15051'>0.30422E+02</wgt>
<wgt id='15052'>0.30418E+02</wgt>
<wgt id='15053'>0.30416E+02</wgt>
<wgt id='15054'>0.30396E+02</wgt>
<wgt id='15055'>0.30406E+02</wgt>
<wgt id='15056'>0.30438E+02</wgt>
<wgt id='15057'>0.30408E+02</wgt>
<wgt id='15058'>0.30391E+02</wgt>
<wgt id='15059'>0.30399E+02</wgt>
<wgt id='15060'>0.30402E+02</wgt>
<wgt id='15061'>0.30416E+02</wgt>
<wgt id='15062'>0.30416E+02</wgt>
<wgt id='15063'>0.30425E+02</wgt>
<wgt id='15064'>0.30405E+02</wgt>
<wgt id='15065'>0.30411E+02</wgt>
<wgt id='15066'>0.30414E+02</wgt>
<wgt id='15067'>0.30421E+02</wgt>
<wgt id='15068'>0.30420E+02</wgt>
<wgt id='15069'>0.30427E+02</wgt>
<wgt id='15070'>0.30408E+02</wgt>
<wgt id='15071'>0.30429E+02</wgt>
<wgt id='15072'>0.30429E+02</wgt>
<wgt id='15073'>0.30403E+02</wgt>
<wgt id='15074'>0.30416E+02</wgt>
<wgt id='15075'>0.30409E+02</wgt>
<wgt id='15076'>0.30409E+02</wgt>
<wgt id='15077'>0.30416E+02</wgt>
<wgt id='15078'>0.30414E+02</wgt>
<wgt id='15079'>0.30407E+02</wgt>
<wgt id='15080'>0.30430E+02</wgt>
<wgt id='15081'>0.30409E+02</wgt>
<wgt id='15082'>0.30418E+02</wgt>
<wgt id='15083'>0.30402E+02</wgt>
<wgt id='15084'>0.30403E+02</wgt>
<wgt id='15085'>0.30404E+02</wgt>
<wgt id='15086'>0.30415E+02</wgt>
<wgt id='15087'>0.30393E+02</wgt>
<wgt id='15088'>0.30405E+02</wgt>
<wgt id='15089'>0.30404E+02</wgt>
<wgt id='15090'>0.30416E+02</wgt>
<wgt id='15091'>0.30409E+02</wgt>
<wgt id='15092'>0.30411E+02</wgt>
<wgt id='15093'>0.30407E+02</wgt>
<wgt id='15094'>0.30409E+02</wgt>
<wgt id='15095'>0.30415E+02</wgt>
<wgt id='15096'>0.30406E+02</wgt>
<wgt id='15097'>0.30413E+02</wgt>
<wgt id='15098'>0.30411E+02</wgt>
<wgt id='15099'>0.30405E+02</wgt>
<wgt id='15100'>0.30411E+02</wgt>
<wgt id='15101'>0.30411E+02</wgt>
<wgt id='15102'>0.30409E+02</wgt>
<wgt id='15103'>0.30412E+02</wgt>
<wgt id='15104'>0.30412E+02</wgt>
<wgt id='15105'>0.30413E+02</wgt>
<wgt id='15106'>0.30412E+02</wgt>
<wgt id='15107'>0.30410E+02</wgt>
<wgt id='1500'>0.32111E+02</wgt>
<wgt id='1501'>0.29132E+02</wgt>
<wgt id='1502'>0.32189E+02</wgt>
<wgt id='1503'>0.31891E+02</wgt>
<wgt id='1504'>0.31746E+02</wgt>
<wgt id='1505'>0.27884E+02</wgt>
<wgt id='1506'>0.32267E+02</wgt>
<wgt id='1507'>0.32598E+02</wgt>
<wgt id='1508'>0.32174E+02</wgt>
<wgt id='1509'>0.32114E+02</wgt>
<wgt id='1510'>0.31083E+02</wgt>
<wgt id='1511'>0.31603E+02</wgt>
<wgt id='1512'>0.32704E+02</wgt>
<wgt id='1513'>0.32712E+02</wgt>
<wgt id='1514'>0.31249E+02</wgt>
<wgt id='1515'>0.32328E+02</wgt>
<wgt id='1516'>0.32626E+02</wgt>
<wgt id='1517'>0.31608E+02</wgt>
<wgt id='1518'>0.31793E+02</wgt>
<wgt id='1519'>0.32516E+02</wgt>
<wgt id='1520'>0.32522E+02</wgt>
<wgt id='1521'>0.32235E+02</wgt>
<wgt id='1522'>0.31900E+02</wgt>
<wgt id='1523'>0.34621E+02</wgt>
<wgt id='1524'>0.31836E+02</wgt>
<wgt id='1525'>0.32579E+02</wgt>
<wgt id='1526'>0.31535E+02</wgt>
<wgt id='1527'>0.31812E+02</wgt>
<wgt id='1528'>0.31879E+02</wgt>
<wgt id='1529'>0.31701E+02</wgt>
<wgt id='1530'>0.32734E+02</wgt>
<wgt id='1531'>0.31992E+02</wgt>
<wgt id='1532'>0.31249E+02</wgt>
<wgt id='1533'>0.32709E+02</wgt>
<wgt id='1534'>0.32330E+02</wgt>
<wgt id='1535'>0.33089E+02</wgt>
<wgt id='1536'>0.33067E+02</wgt>
<wgt id='1537'>0.32562E+02</wgt>
<wgt id='1538'>0.32223E+02</wgt>
<wgt id='1539'>0.30942E+02</wgt>
<wgt id='1540'>0.32671E+02</wgt>
<wgt id='1541'>0.32049E+02</wgt>
<wgt id='1542'>0.32519E+02</wgt>
<wgt id='1543'>0.32504E+02</wgt>
<wgt id='1544'>0.31833E+02</wgt>
<wgt id='1545'>0.32496E+02</wgt>
<wgt id='1546'>0.32418E+02</wgt>
<wgt id='1547'>0.31604E+02</wgt>
<wgt id='1548'>0.31545E+02</wgt>
<wgt id='1549'>0.32251E+02</wgt>
<wgt id='1550'>0.32207E+02</wgt>
<wgt id='1551'>0.32129E+02</wgt>
<wgt id='1552'>0.31955E+02</wgt>
<wgt id='1553'>0.32650E+02</wgt>
<wgt id='1554'>0.32183E+02</wgt>
<wgt id='1555'>0.32157E+02</wgt>
<wgt id='1556'>0.31232E+02</wgt>
<wgt id='1557'>0.33366E+02</wgt>
<wgt id='1558'>0.31826E+02</wgt>
<wgt id='1559'>0.32468E+02</wgt>
<wgt id='1560'>0.32028E+02</wgt>
<wgt id='1561'>0.32426E+02</wgt>
<wgt id='1562'>0.32118E+02</wgt>
<wgt id='1563'>0.32775E+02</wgt>
<wgt id='1564'>0.31587E+02</wgt>
<wgt id='1565'>0.32591E+02</wgt>
<wgt id='1566'>0.32294E+02</wgt>
<wgt id='1567'>0.33758E+02</wgt>
<wgt id='1568'>0.31610E+02</wgt>
<wgt id='1569'>0.31377E+02</wgt>
<wgt id='1570'>0.32215E+02</wgt>
<wgt id='1571'>0.32890E+02</wgt>
<wgt id='1572'>0.31964E+02</wgt>
<wgt id='1573'>0.29744E+02</wgt>
<wgt id='1574'>0.32390E+02</wgt>
<wgt id='1575'>0.31815E+02</wgt>
<wgt id='1576'>0.31311E+02</wgt>
<wgt id='1577'>0.32442E+02</wgt>
<wgt id='1578'>0.33396E+02</wgt>
<wgt id='1579'>0.31953E+02</wgt>
<wgt id='1580'>0.32345E+02</wgt>
<wgt id='1581'>0.32345E+02</wgt>
<wgt id='1582'>0.31826E+02</wgt>
<wgt id='1583'>0.32255E+02</wgt>
<wgt id='1584'>0.32236E+02</wgt>
<wgt id='1585'>0.31175E+02</wgt>
<wgt id='1586'>0.32013E+02</wgt>
<wgt id='1587'>0.32011E+02</wgt>
<wgt id='1588'>0.32166E+02</wgt>
<wgt id='1589'>0.32816E+02</wgt>
<wgt id='1590'>0.31949E+02</wgt>
<wgt id='1591'>0.31325E+02</wgt>
<wgt id='1592'>0.32895E+02</wgt>
<wgt id='1593'>0.31859E+02</wgt>
<wgt id='1594'>0.32874E+02</wgt>
<wgt id='1595'>0.31535E+02</wgt>
<wgt id='1596'>0.32668E+02</wgt>
<wgt id='1597'>0.32247E+02</wgt>
<wgt id='1598'>0.33513E+02</wgt>
<wgt id='1599'>0.33040E+02</wgt>
<wgt id='1600'>0.32001E+02</wgt>
<wgt id='1601'>0.31651E+02</wgt>
<wgt id='1602'>0.32313E+02</wgt>
<wgt id='1700'>0.30995E+02</wgt>
<wgt id='1800'>0.37713E+02</wgt>
<wgt id='1850'>0.44473E+02</wgt>
<wgt id='1900'>0.37254E+02</wgt>
<wgt id='1950'>0.43100E+02</wgt>
</rwgt>
</event>
<event>
      4   9999  3.15120E+01  4.89638E+01 -1.00000E+00  1.37572E-01
       1    -1     0     0   502     0  0.000000000E+00  0.000000000E+00  6.569220512E+02  6.569220512E+02  0.000000000E+00  0.00000E+00  9.000E+00
      21    -1     0     0   501   502  0.000000000E+00  0.000000000E+00 -4.120833099E+01  4.120833099E+01  0.000000000E+00  0.00000E+00  9.000E+00
      25     1     1     2     0     0  4.880634837E+01  3.922978644E+00  6.453995014E+01  1.447860281E+02  1.200005807E+02  0.00000E+00  9.000E+00
       1     1     1     2   501     0 -4.880634837E+01 -3.922978644E+00  5.511737701E+02  5.533443541E+02  0.000000000E+00  0.00000E+00  9.000E+00
#rwgt            1           1   26.941170129952265                2        4307           0
<rwgt>
<wgt id='1001'>0.31512E+02</wgt>
<wgt id='1002'>0.35337E+02</wgt>
<wgt id='1003'>0.27508E+02</wgt>
<wgt id='1004'>0.26363E+02</wgt>
<wgt id='1005'>0.29377E+02</wgt>
<wgt id='1006'>0.23164E+02</wgt>
<wgt id='1007'>0.38381E+02</wgt>
<wgt id='1008'>0.43376E+02</wgt>
<wgt id='1009'>0.33228E+02</wgt>
<wgt id='2000'>0.31512E+02</wgt>
<wgt id='2001'>0.31475E+02</wgt>
<wgt id='2002'>0.31651E+02</wgt>
<wgt id='2003'>0.31637E+02</wgt>
<wgt id='2004'>0.31545E+02</wgt>
<wgt id='2005'>0.31434E+02</wgt>
<wgt id='2006'>0.31426E+02</wgt>
<wgt id='2007'>0.31387E+02</wgt>
<wgt id='2008'>0.31469E+02</wgt>
<wgt id='2009'>0.31538E+02</wgt>
<wgt id='2010'>0.31483E+02</wgt>
<wgt id='2011'>0.31676E+02</wgt>
<wgt id='2012'>0.31691E+02</wgt>
<wgt id='2013'>0.31801E+02</wgt>
<wgt id='2014'>0.31622E+02</wgt>
<wgt id='2015'>0.31577E+02</wgt>
<wgt id='2016'>0.31436E+02</wgt>
<wgt id='2017'>0.31509E+02</wgt>
<wgt id='2018'>0.31626E+02</wgt>
<wgt id='2019'>0.31497E+02</wgt>
<wgt id='2020'>0.31589E+02</wgt>
<wgt id='2021'>0.31472E+02</wgt>
<wgt id='2022'>0.31530E+02</wgt>
<wgt id='2023'>0.31535E+02</wgt>
<wgt id='2024'>0.31529E+02</wgt>
<wgt id='2025'>0.31520E+02</wgt>
<wgt id='2026'>0.31513E+02</wgt>
<wgt id='2027'>0.31499E+02</wgt>
<wgt id='2028'>0.31504E+02</wgt>
<wgt id='2029'>0.31537E+02</wgt>
<wgt id='2030'>0.31521E+02</wgt>
<wgt id='2031'>0.31519E+02</wgt>
<wgt id='2032'>0.31513E+02</wgt>
<wgt id='2033'>0.31518E+02</wgt>
<wgt id='2034'>0.31522E+02</wgt>
<wgt id='2035'>0.31507E+02</wgt>
<wgt id='2036'>0.31512E+02</wgt>
<wgt id='2037'>0.31522E+02</wgt>
<wgt id='2038'>0.31508E+02</wgt>
<wgt id='2039'>0.31501E+02</wgt>
<wgt id='2040'>0.31509E+02</wgt>
<wgt id='2041'>0.31508E+02</wgt>
<wgt id='2042'>0.31505E+02</wgt>
<wgt id='2043'>0.31509E+02</wgt>
<wgt id='2044'>0.31521E+02</wgt>
<wgt id='2045'>0.31510E+02</wgt>
<wgt id='2046'>0.31523E+02</wgt>
<wgt id='2047'>0.31520E+02</wgt>
<wgt id='2048'>0.31509E+02</wgt>
<wgt id='2049'>0.31512E+02</wgt>
<wgt id='2050'>0.31519E+02</wgt>
<wgt id='2051'>0.31521E+02</wgt>
<wgt id='2052'>0.31511E+02</wgt>
<wgt id='2053'>0.31516E+02</wgt>
<wgt id='2054'>0.31514E+02</wgt>
<wgt id='2055'>0.31511E+02</wgt>
<wgt id='2056'>0.31513E+02</wgt>
<wgt id='2057'>0.31517E+02</wgt>
<wgt id='2058'>0.31518E+02</wgt>
<wgt id='2059'>0.31508E+02</wgt>
<wgt id='2060'>0.31514E+02</wgt>
<wgt id='2061'>0.31506E+02</wgt>
<wgt id='2062'>0.31509E+02</wgt>
<wgt id='2063'>0.31515E+02</wgt>
<wgt id='2064'>0.31504E+02</wgt>
<wgt id='2065'>0.31512E+02</wgt>
<wgt id='2066'>0.31504E+02</wgt>
<wgt id='2067'>0.31513E+02</wgt>
<wgt id='2068'>0.31513E+02</wgt>
<wgt id='2069'>0.31510E+02</wgt>
<wgt id='2070'>0.31511E+02</wgt>
<wgt id='2071'>0.31504E+02</wgt>
<wgt id='2072'>0.31514E+02</wgt>
<wgt id='2073'>0.31512E+02</wgt>
<wgt id='2074'>0.31508E+02</wgt>
<wgt id='2075'>0.31511E+02</wgt>
<wgt id='2076'>0.31511E+02</wgt>
<wgt id='2077'>0.31509E+02</wgt>
<wgt id='2078'>0.31513E+02</wgt>
<wgt id='2079'>0.31514E+02</wgt>
<wgt id='2080'>0.31513E+02</wgt>
<wgt id='2081'>0.31516E+02</wgt>
<wgt id='2082'>0.31512E+02</wgt>
<wgt id='2083'>0.31511E+02</wgt>
<wgt id='2084'>0.31512E+02</wgt>
<wgt id='2085'>0.31511E+02</wgt>
<wgt id='2086'>0.31509E+02</wgt>
<wgt id='2087'>0.31511E+02</wgt>
<wgt id='2088'>0.31513E+02</wgt>
<wgt id='2089'>0.31512E+02</wgt>
<wgt id='2090'>0.31514E+02</wgt>
<wgt id='2091'>0.31511E+02</wgt>
<wgt id='2092'>0.31515E+02</wgt>
<wgt id='2093'>0.31511E+02</wgt>
<wgt id='2094'>0.31516E+02</wgt>
<wgt id='2095'>0.31510E+02</wgt>
<wgt id='2096'>0.31510E+02</wgt>
<wgt id='2097'>0.31513E+02</wgt>
<wgt id='2098'>0.31512E+02</wgt>
<wgt id='2099'>0.31512E+02</wgt>
<wgt id='2100'>0.31511E+02</wgt>
<wgt id='2101'>0.30698E+02</wgt>
<wgt id='2102'>0.32219E+02</wgt>
<wgt id='2104'>0.27775E+02</wgt>
<wgt id='2105'>0.28413E+02</wgt>
<wgt id='2106'>0.29165E+02</wgt>
<wgt id='2107'>0.29991E+02</wgt>
<wgt id='2108'>0.31190E+02</wgt>
<wgt id='2109'>0.31956E+02</wgt>
<wgt id='2110'>0.32939E+02</wgt>
<wgt id='2111'>0.33701E+02</wgt>
<wgt id='3000'>0.32890E+02</wgt>
<wgt id='3001'>0.33013E+02</wgt>
<wgt id='3002'>0.32749E+02</wgt>
<wgt id='3003'>0.33020E+02</wgt>
<wgt id='3004'>0.32962E+02</wgt>
<wgt id='3005'>0.33048E+02</wgt>
<wgt id='3006'>0.32941E+02</wgt>
<wgt id='3007'>0.32955E+02</wgt>
<wgt id='3008'>0.32788E+02</wgt>
<wgt id='3009'>0.32837E+02</wgt>
<wgt id='3010'>0.32763E+02</wgt>
<wgt id='3011'>0.32976E+02</wgt>
<wgt id='3012'>0.33136E+02</wgt>
<wgt id='3013'>0.32614E+02</wgt>
<wgt id='3014'>0.33021E+02</wgt>
<wgt id='3015'>0.33019E+02</wgt>
<wgt id='3016'>0.32905E+02</wgt>
<wgt id='3017'>0.33031E+02</wgt>
<wgt id='3018'>0.32925E+02</wgt>
<wgt id='3019'>0.32786E+02</wgt>
<wgt id='3020'>0.32878E+02</wgt>
<wgt id='3021'>0.32823E+02</wgt>
<wgt id='3022'>0.32885E+02</wgt>
<wgt id='3023'>0.32863E+02</wgt>
<wgt id='3024'>0.32898E+02</wgt>
<wgt id='3025'>0.32896E+02</wgt>
<wgt id='3026'>0.32892E+02</wgt>
<wgt id='3027'>0.32903E+02</wgt>
<wgt id='3028'>0.32877E+02</wgt>
<wgt id='3029'>0.32896E+02</wgt>
<wgt id='3030'>0.32916E+02</wgt>
<wgt id='3031'>0.32901E+02</wgt>
<wgt id='3032'>0.32888E+02</wgt>
<wgt id='3033'>0.32898E+02</wgt>
<wgt id='3034'>0.32894E+02</wgt>
<wgt id='3035'>0.32913E+02</wgt>
<wgt id='3036'>0.32899E+02</wgt>
<wgt id='3037'>0.32889E+02</wgt>
<wgt id='3038'>0.32892E+02</wgt>
<wgt id='3039'>0.32891E+02</wgt>
<wgt id='3040'>0.32883E+02</wgt>
<wgt id='3041'>0.32892E+02</wgt>
<wgt id='3042'>0.32882E+02</wgt>
<wgt id='3043'>0.32882E+02</wgt>
<wgt id='3044'>0.32896E+02</wgt>
<wgt id='3045'>0.32900E+02</wgt>
<wgt id='3046'>0.32897E+02</wgt>
<wgt id='3047'>0.32889E+02</wgt>
<wgt id='3048'>0.32893E+02</wgt>
<wgt id='3049'>0.32887E+02</wgt>
<wgt id='3050'>0.32887E+02</wgt>
<wgt id='3051'>0.32902E+02</wgt>
<wgt id='3052'>0.32885E+02</wgt>
<wgt id='3053'>0.32887E+02</wgt>
<wgt id='3054'>0.32888E+02</wgt>
<wgt id='3055'>0.32884E+02</wgt>
<wgt id='3056'>0.32894E+02</wgt>
<wgt id='3057'>0.32885E+02</wgt>
<wgt id='3058'>0.32883E+02</wgt>
<wgt id='3059'>0.32891E+02</wgt>
<wgt id='3060'>0.32892E+02</wgt>
<wgt id='3061'>0.32892E+02</wgt>
<wgt id='3062'>0.32897E+02</wgt>
<wgt id='3063'>0.32898E+02</wgt>
<wgt id='3064'>0.32888E+02</wgt>
<wgt id='3065'>0.32892E+02</wgt>
<wgt id='3066'>0.32893E+02</wgt>
<wgt id='3067'>0.32884E+02</wgt>
<wgt id='3068'>0.32889E+02</wgt>
<wgt id='3069'>0.32887E+02</wgt>
<wgt id='3070'>0.32892E+02</wgt>
<wgt id='3071'>0.32890E+02</wgt>
<wgt id='3072'>0.32894E+02</wgt>
<wgt id='3073'>0.32884E+02</wgt>
<wgt id='3074'>0.32899E+02</wgt>
<wgt id='3075'>0.32894E+02</wgt>
<wgt id='3076'>0.32883E+02</wgt>
<wgt id='3077'>0.32888E+02</wgt>
<wgt id='3078'>0.32894E+02</wgt>
<wgt id='3079'>0.32886E+02</wgt>
<wgt id='3080'>0.32894E+02</wgt>
<wgt id='3081'>0.32889E+02</wgt>
<wgt id='3082'>0.32889E+02</wgt>
<wgt id='3083'>0.32889E+02</wgt>
<wgt id='3084'>0.32888E+02</wgt>
<wgt id='3085'>0.32888E+02</wgt>
<wgt id='3086'>0.32889E+02</wgt>
<wgt id='3087'>0.32891E+02</wgt>
<wgt id='3088'>0.32891E+02</wgt>
<wgt id='3089'>0.32890E+02</wgt>
<wgt id='3090'>0.32891E+02</wgt>
<wgt id='3091'>0.32889E+02</wgt>
<wgt id='3092'>0.32890E+02</wgt>
<wgt id='3093'>0.32892E+02</wgt>
<wgt id='3094'>0.32893E+02</wgt>
<wgt id='3095'>0.32890E+02</wgt>
<wgt id='3096'>0.32886E+02</wgt>
<wgt id='3097'>0.32888E+02</wgt>
<wgt id='3098'>0.32888E+02</wgt>
<wgt id='3099'>0.32890E+02</wgt>
<wgt id='3100'>0.32891E+02</wgt>
<wgt id='3101'>0.32074E+02</wgt>
<wgt id='3102'>0.33830E+02</wgt>
<wgt id='5000'>0.30643E+02</wgt>
<wgt id='5001'>0.30512E+02</wgt>
<wgt id='5002'>0.30586E+02</wgt>
<wgt id='5003'>0.30432E+02</wgt>
<wgt id='5004'>0.30718E+02</wgt>
<wgt id='5005'>0.29958E+02</wgt>
<wgt id='5006'>0.31160E+02</wgt>
<wgt id='5007'>0.30828E+02</wgt>
<wgt id='5008'>0.30242E+02</wgt>
<wgt id='5009'>0.31032E+02</wgt>
<wgt id='5010'>0.30436E+02</wgt>
<wgt id='5011'>0.30582E+02</wgt>
<wgt id='5012'>0.30619E+02</wgt>
<wgt id='5013'>0.29985E+02</wgt>
<wgt id='5014'>0.30623E+02</wgt>
<wgt id='5015'>0.30881E+02</wgt>
<wgt id='5016'>0.29909E+02</wgt>
<wgt id='5017'>0.30739E+02</wgt>
<wgt id='5018'>0.30540E+02</wgt>
<wgt id='5019'>0.30494E+02</wgt>
<wgt id='5020'>0.30763E+02</wgt>
<wgt id='5021'>0.30754E+02</wgt>
<wgt id='5022'>0.30571E+02</wgt>
<wgt id='5023'>0.30573E+02</wgt>
<wgt id='5024'>0.30710E+02</wgt>
<wgt id='5025'>0.30593E+02</wgt>
<wgt id='5026'>0.30683E+02</wgt>
<wgt id='5027'>0.30973E+02</wgt>
<wgt id='5028'>0.30087E+02</wgt>
<wgt id='5029'>0.30050E+02</wgt>
<wgt id='5030'>0.30998E+02</wgt>
<wgt id='5031'>0.30288E+02</wgt>
<wgt id='5032'>0.31153E+02</wgt>
<wgt id='5033'>0.30393E+02</wgt>
<wgt id='5034'>0.30856E+02</wgt>
<wgt id='5035'>0.30136E+02</wgt>
<wgt id='5036'>0.31054E+02</wgt>
<wgt id='5037'>0.30645E+02</wgt>
<wgt id='5038'>0.30624E+02</wgt>
<wgt id='5039'>0.31148E+02</wgt>
<wgt id='5040'>0.30385E+02</wgt>
<wgt id='5041'>0.30276E+02</wgt>
<wgt id='5042'>0.30709E+02</wgt>
<wgt id='5043'>0.30971E+02</wgt>
<wgt id='5044'>0.29790E+02</wgt>
<wgt id='5045'>0.31559E+02</wgt>
<wgt id='5046'>0.30403E+02</wgt>
<wgt id='5047'>0.30844E+02</wgt>
<wgt id='5048'>0.30808E+02</wgt>
<wgt id='5049'>0.30668E+02</wgt>
<wgt id='5050'>0.30705E+02</wgt>
<wgt id='5051'>0.30739E+02</wgt>
<wgt id='5052'>0.30614E+02</wgt>
<wgt id='5053'>0.30382E+02</wgt>
<wgt id='5054'>0.31393E+02</wgt>
<wgt id='5055'>0.30447E+02</wgt>
<wgt id='5056'>0.30805E+02</wgt>
<wgt id='5060'>0.29930E+02</wgt>
<wgt id='5070'>0.31250E+02</wgt>
<wgt id='4000'>0.32398E+02</wgt>
<wgt id='4001'>0.32436E+02</wgt>
<wgt id='4002'>0.32507E+02</wgt>
<wgt id='4003'>0.33199E+02</wgt>
<wgt id='4004'>0.32058E+02</wgt>
<wgt id='4005'>0.32531E+02</wgt>
<wgt id='4006'>0.32291E+02</wgt>
<wgt id='4007'>0.32772E+02</wgt>
<wgt id='4008'>0.32249E+02</wgt>
<wgt id='4009'>0.31675E+02</wgt>
<wgt id='4010'>0.32967E+02</wgt>
<wgt id='4011'>0.32885E+02</wgt>
<wgt id='4012'>0.32125E+02</wgt>
<wgt id='4013'>0.31134E+02</wgt>
<wgt id='4014'>0.33125E+02</wgt>
<wgt id='4015'>0.32662E+02</wgt>
<wgt id='4016'>0.32224E+02</wgt>
<wgt id='4017'>0.32105E+02</wgt>
<wgt id='4018'>0.32746E+02</wgt>
<wgt id='4019'>0.32815E+02</wgt>
<wgt id='4020'>0.31927E+02</wgt>
<wgt id='4021'>0.32475E+02</wgt>
<wgt id='4022'>0.32227E+02</wgt>
<wgt id='4023'>0.32229E+02</wgt>
<wgt id='4024'>0.32547E+02</wgt>
<wgt id='4025'>0.31886E+02</wgt>
<wgt id='4026'>0.32868E+02</wgt>
<wgt id='4027'>0.32279E+02</wgt>
<wgt id='4028'>0.32557E+02</wgt>
<wgt id='4029'>0.32148E+02</wgt>
<wgt id='4030'>0.32484E+02</wgt>
<wgt id='4031'>0.32443E+02</wgt>
<wgt id='4032'>0.32338E+02</wgt>
<wgt id='4033'>0.32390E+02</wgt>
<wgt id='4034'>0.32407E+02</wgt>
<wgt id='4035'>0.32917E+02</wgt>
<wgt id='4036'>0.31898E+02</wgt>
<wgt id='4037'>0.32679E+02</wgt>
<wgt id='4038'>0.31925E+02</wgt>
<wgt id='4039'>0.32377E+02</wgt>
<wgt id='4040'>0.32347E+02</wgt>
<wgt id='4041'>0.32685E+02</wgt>
<wgt id='4042'>0.32130E+02</wgt>
<wgt id='4043'>0.32689E+02</wgt>
<wgt id='4044'>0.32050E+02</wgt>
<wgt id='4045'>0.32015E+02</wgt>
<wgt id='4046'>0.32226E+02</wgt>
<wgt id='4047'>0.31954E+02</wgt>
<wgt id='4048'>0.32783E+02</wgt>
<wgt id='4049'>0.32577E+02</wgt>
<wgt id='4050'>0.31736E+02</wgt>
<wgt id='4051'>0.32323E+02</wgt>
<wgt id='4052'>0.32306E+02</wgt>
<wgt id='4053'>0.31532E+02</wgt>
<wgt id='4054'>0.32613E+02</wgt>
<wgt id='4055'>0.32138E+02</wgt>
<wgt id='4056'>0.32629E+02</wgt>
<wgt id='4060'>0.31517E+02</wgt>
<wgt id='4070'>0.33202E+02</wgt>
<wgt id='4080'>0.32059E+02</wgt>
<wgt id='6000'>0.32938E+02</wgt>
<wgt id='6001'>0.32949E+02</wgt>
<wgt id='6002'>0.32926E+02</wgt>
<wgt id='6003'>0.32952E+02</wgt>
<wgt id='6004'>0.32929E+02</wgt>
<wgt id='6005'>0.33025E+02</wgt>
<wgt id='6006'>0.32857E+02</wgt>
<wgt id='6007'>0.32796E+02</wgt>
<wgt id='6008'>0.33098E+02</wgt>
<wgt id='6009'>0.33038E+02</wgt>
<wgt id='6010'>0.32840E+02</wgt>
<wgt id='6011'>0.33008E+02</wgt>
<wgt id='6012'>0.32784E+02</wgt>
<wgt id='6013'>0.32903E+02</wgt>
<wgt id='6014'>0.32999E+02</wgt>
<wgt id='6015'>0.32832E+02</wgt>
<wgt id='6016'>0.32999E+02</wgt>
<wgt id='6017'>0.32757E+02</wgt>
<wgt id='6018'>0.33153E+02</wgt>
<wgt id='6019'>0.32994E+02</wgt>
<wgt id='6020'>0.32889E+02</wgt>
<wgt id='6021'>0.32864E+02</wgt>
<wgt id='6022'>0.33037E+02</wgt>
<wgt id='6023'>0.32707E+02</wgt>
<wgt id='6024'>0.33097E+02</wgt>
<wgt id='6025'>0.32540E+02</wgt>
<wgt id='6026'>0.33288E+02</wgt>
<wgt id='6027'>0.33025E+02</wgt>
<wgt id='6028'>0.32940E+02</wgt>
<wgt id='6029'>0.33150E+02</wgt>
<wgt id='6030'>0.32691E+02</wgt>
<wgt id='6031'>0.32990E+02</wgt>
<wgt id='6032'>0.32870E+02</wgt>
<wgt id='6033'>0.32997E+02</wgt>
<wgt id='6034'>0.32874E+02</wgt>
<wgt id='6035'>0.32914E+02</wgt>
<wgt id='6036'>0.33057E+02</wgt>
<wgt id='6037'>0.32998E+02</wgt>
<wgt id='6038'>0.32931E+02</wgt>
<wgt id='6039'>0.32911E+02</wgt>
<wgt id='6040'>0.32967E+02</wgt>
<wgt id='6041'>0.32877E+02</wgt>
<wgt id='6042'>0.33013E+02</wgt>
<wgt id='6043'>0.33356E+02</wgt>
<wgt id='6044'>0.32727E+02</wgt>
<wgt id='6045'>0.32911E+02</wgt>
<wgt id='6046'>0.33008E+02</wgt>
<wgt id='6047'>0.32834E+02</wgt>
<wgt id='6048'>0.32776E+02</wgt>
<wgt id='6049'>0.32892E+02</wgt>
<wgt id='6050'>0.32941E+02</wgt>
<wgt id='7000'>0.30851E+02</wgt>
<wgt id='7001'>0.30837E+02</wgt>
<wgt id='7002'>0.30870E+02</wgt>
<wgt id='7003'>0.30946E+02</wgt>
<wgt id='7004'>0.30756E+02</wgt>
<wgt id='7005'>0.30909E+02</wgt>
<wgt id='7006'>0.30829E+02</wgt>
<wgt id='7007'>0.30723E+02</wgt>
<wgt id='7008'>0.30979E+02</wgt>
<wgt id='7009'>0.30902E+02</wgt>
<wgt id='7010'>0.30802E+02</wgt>
<wgt id='7011'>0.30559E+02</wgt>
<wgt id='7012'>0.30979E+02</wgt>
<wgt id='7013'>0.30855E+02</wgt>
<wgt id='7014'>0.30848E+02</wgt>
<wgt id='7015'>0.30764E+02</wgt>
<wgt id='7016'>0.30947E+02</wgt>
<wgt id='7017'>0.30783E+02</wgt>
<wgt id='7018'>0.30888E+02</wgt>
<wgt id='7019'>0.30807E+02</wgt>
<wgt id='7020'>0.30911E+02</wgt>
<wgt id='7021'>0.30845E+02</wgt>
<wgt id='7022'>0.30854E+02</wgt>
<wgt id='7023'>0.31198E+02</wgt>
<wgt id='7024'>0.30516E+02</wgt>
<wgt id='7025'>0.30988E+02</wgt>
<wgt id='7026'>0.30519E+02</wgt>
<wgt id='7027'>0.30988E+02</wgt>
<wgt id='7028'>0.30790E+02</wgt>
<wgt id='7029'>0.30706E+02</wgt>
<wgt id='7030'>0.31237E+02</wgt>
<wgt id='7031'>0.30851E+02</wgt>
<wgt id='7032'>0.30856E+02</wgt>
<wgt id='7033'>0.30806E+02</wgt>
<wgt id='7034'>0.30955E+02</wgt>
<wgt id='7035'>0.30939E+02</wgt>
<wgt id='7036'>0.30826E+02</wgt>
<wgt id='7037'>0.30865E+02</wgt>
<wgt id='7038'>0.30853E+02</wgt>
<wgt id='7039'>0.30826E+02</wgt>
<wgt id='7040'>0.30869E+02</wgt>
<wgt id='7041'>0.30791E+02</wgt>
<wgt id='7042'>0.30887E+02</wgt>
<wgt id='7043'>0.30880E+02</wgt>
<wgt id='7044'>0.30695E+02</wgt>
<wgt id='7045'>0.30611E+02</wgt>
<wgt id='7046'>0.30898E+02</wgt>
<wgt id='7047'>0.30859E+02</wgt>
<wgt id='7048'>0.30835E+02</wgt>
<wgt id='7049'>0.30831E+02</wgt>
<wgt id='7050'>0.30765E+02</wgt>
<wgt id='7060'>0.48135E+02</wgt>
<wgt id='8000'>0.31258E+02</wgt>
<wgt id='8001'>0.31249E+02</wgt>
<wgt id='8002'>0.31266E+02</wgt>
<wgt id='8003'>0.31261E+02</wgt>
<wgt id='8004'>0.31257E+02</wgt>
<wgt id='8005'>0.31183E+02</wgt>
<wgt id='8006'>0.31236E+02</wgt>
<wgt id='8007'>0.31213E+02</wgt>
<wgt id='8008'>0.31312E+02</wgt>
<wgt id='8009'>0.31370E+02</wgt>
<wgt id='8010'>0.31259E+02</wgt>
<wgt id='8011'>0.31240E+02</wgt>
<wgt id='8012'>0.31226E+02</wgt>
<wgt id='8013'>0.31253E+02</wgt>
<wgt id='8014'>0.31235E+02</wgt>
<wgt id='8015'>0.31234E+02</wgt>
<wgt id='8016'>0.31264E+02</wgt>
<wgt id='8017'>0.31257E+02</wgt>
<wgt id='8018'>0.31250E+02</wgt>
<wgt id='8019'>0.31313E+02</wgt>
<wgt id='8020'>0.31150E+02</wgt>
<wgt id='8021'>0.31262E+02</wgt>
<wgt id='8022'>0.31060E+02</wgt>
<wgt id='8023'>0.31297E+02</wgt>
<wgt id='8024'>0.31334E+02</wgt>
<wgt id='8025'>0.31373E+02</wgt>
<wgt id='8026'>0.31323E+02</wgt>
<wgt id='8027'>0.31200E+02</wgt>
<wgt id='8028'>0.31287E+02</wgt>
<wgt id='8029'>0.31041E+02</wgt>
<wgt id='8500'>0.32492E+02</wgt>
<wgt id='8501'>0.32426E+02</wgt>
<wgt id='8502'>0.32804E+02</wgt>
<wgt id='8503'>0.32717E+02</wgt>
<wgt id='8504'>0.32415E+02</wgt>
<wgt id='8505'>0.32343E+02</wgt>
<wgt id='8506'>0.32394E+02</wgt>
<wgt id='8507'>0.32706E+02</wgt>
<wgt id='8508'>0.32991E+02</wgt>
<wgt id='8509'>0.32278E+02</wgt>
<wgt id='8510'>0.32966E+02</wgt>
<wgt id='8511'>0.32515E+02</wgt>
<wgt id='8512'>0.32117E+02</wgt>
<wgt id='8513'>0.32536E+02</wgt>
<wgt id='8514'>0.32364E+02</wgt>
<wgt id='8515'>0.32499E+02</wgt>
<wgt id='8516'>0.32595E+02</wgt>
<wgt id='8517'>0.32441E+02</wgt>
<wgt id='8518'>0.32405E+02</wgt>
<wgt id='8519'>0.32404E+02</wgt>
<wgt id='8520'>0.32522E+02</wgt>
<wgt id='8521'>0.32355E+02</wgt>
<wgt id='8522'>0.32507E+02</wgt>
<wgt id='8523'>0.32439E+02</wgt>
<wgt id='8524'>0.32489E+02</wgt>
<wgt id='8525'>0.32457E+02</wgt>
<wgt id='8526'>0.32444E+02</wgt>
<wgt id='8527'>0.32492E+02</wgt>
<wgt id='8528'>0.32409E+02</wgt>
<wgt id='8529'>0.32473E+02</wgt>
<wgt id='8530'>0.32493E+02</wgt>
<wgt id='8531'>0.32480E+02</wgt>
<wgt id='8532'>0.32498E+02</wgt>
<wgt id='8533'>0.32426E+02</wgt>
<wgt id='8534'>0.32506E+02</wgt>
<wgt id='8535'>0.32565E+02</wgt>
<wgt id='8536'>0.32470E+02</wgt>
<wgt id='8537'>0.32505E+02</wgt>
<wgt id='8538'>0.32459E+02</wgt>
<wgt id='8539'>0.32498E+02</wgt>
<wgt id='8540'>0.32498E+02</wgt>
<wgt id='8541'>0.32507E+02</wgt>
<wgt id='8542'>0.32517E+02</wgt>
<wgt id='8543'>0.32464E+02</wgt>
<wgt id='8544'>0.32525E+02</wgt>
<wgt id='8545'>0.32519E+02</wgt>
<wgt id='8546'>0.32522E+02</wgt>
<wgt id='8547'>0.32465E+02</wgt>
<wgt id='8548'>0.32460E+02</wgt>
<wgt id='8549'>0.32494E+02</wgt>
<wgt id='8550'>0.32499E+02</wgt>
<wgt id='8551'>0.32461E+02</wgt>
<wgt id='8552'>0.32500E+02</wgt>
<wgt id='8553'>0.32480E+02</wgt>
<wgt id='8554'>0.32478E+02</wgt>
<wgt id='8555'>0.32496E+02</wgt>
<wgt id='8556'>0.32491E+02</wgt>
<wgt id='8557'>0.32485E+02</wgt>
<wgt id='8558'>0.32526E+02</wgt>
<wgt id='8559'>0.32476E+02</wgt>
<wgt id='8560'>0.32458E+02</wgt>
<wgt id='8561'>0.32488E+02</wgt>
<wgt id='8562'>0.32468E+02</wgt>
<wgt id='8563'>0.32494E+02</wgt>
<wgt id='8564'>0.32487E+02</wgt>
<wgt id='8565'>0.32490E+02</wgt>
<wgt id='8566'>0.32486E+02</wgt>
<wgt id='8567'>0.32490E+02</wgt>
<wgt id='8568'>0.32504E+02</wgt>
<wgt id='8569'>0.32501E+02</wgt>
<wgt id='8570'>0.32489E+02</wgt>
<wgt id='8571'>0.32480E+02</wgt>
<wgt id='8572'>0.32483E+02</wgt>
<wgt id='8573'>0.32479E+02</wgt>
<wgt id='8574'>0.32499E+02</wgt>
<wgt id='8575'>0.32489E+02</wgt>
<wgt id='8576'>0.32489E+02</wgt>
<wgt id='8577'>0.32491E+02</wgt>
<wgt id='8578'>0.32496E+02</wgt>
<wgt id='8579'>0.32511E+02</wgt>
<wgt id='8580'>0.32492E+02</wgt>
<wgt id='8581'>0.32497E+02</wgt>
<wgt id='8582'>0.32473E+02</wgt>
<wgt id='8583'>0.32505E+02</wgt>
<wgt id='8584'>0.32499E+02</wgt>
<wgt id='8585'>0.32498E+02</wgt>
<wgt id='8586'>0.32506E+02</wgt>
<wgt id='8587'>0.32488E+02</wgt>
<wgt id='8588'>0.32485E+02</wgt>
<wgt id='8589'>0.32494E+02</wgt>
<wgt id='8590'>0.32489E+02</wgt>
<wgt id='8591'>0.32488E+02</wgt>
<wgt id='8592'>0.32491E+02</wgt>
<wgt id='8593'>0.32481E+02</wgt>
<wgt id='8594'>0.32497E+02</wgt>
<wgt id='8595'>0.32496E+02</wgt>
<wgt id='8596'>0.32485E+02</wgt>
<wgt id='8597'>0.32496E+02</wgt>
<wgt id='8598'>0.32499E+02</wgt>
<wgt id='8599'>0.32496E+02</wgt>
<wgt id='8600'>0.32492E+02</wgt>
<wgt id='8601'>0.31852E+02</wgt>
<wgt id='8602'>0.33047E+02</wgt>
<wgt id='9000'>0.30808E+02</wgt>
<wgt id='9001'>0.30863E+02</wgt>
<wgt id='9002'>0.30964E+02</wgt>
<wgt id='9003'>0.30537E+02</wgt>
<wgt id='9004'>0.30750E+02</wgt>
<wgt id='9005'>0.30956E+02</wgt>
<wgt id='9006'>0.30728E+02</wgt>
<wgt id='9007'>0.30835E+02</wgt>
<wgt id='9008'>0.30880E+02</wgt>
<wgt id='9009'>0.30787E+02</wgt>
<wgt id='9010'>0.30763E+02</wgt>
<wgt id='9011'>0.31137E+02</wgt>
<wgt id='9012'>0.30404E+02</wgt>
<wgt id='9013'>0.30400E+02</wgt>
<wgt id='9014'>0.30450E+02</wgt>
<wgt id='9015'>0.30775E+02</wgt>
<wgt id='9016'>0.30927E+02</wgt>
<wgt id='9017'>0.30827E+02</wgt>
<wgt id='9018'>0.30799E+02</wgt>
<wgt id='9019'>0.30775E+02</wgt>
<wgt id='9020'>0.30935E+02</wgt>
<wgt id='9021'>0.30793E+02</wgt>
<wgt id='9022'>0.30845E+02</wgt>
<wgt id='9023'>0.30768E+02</wgt>
<wgt id='9024'>0.30765E+02</wgt>
<wgt id='9025'>0.30850E+02</wgt>
<wgt id='9026'>0.30822E+02</wgt>
<wgt id='9027'>0.30773E+02</wgt>
<wgt id='9028'>0.30833E+02</wgt>
<wgt id='9029'>0.30836E+02</wgt>
<wgt id='9030'>0.30825E+02</wgt>
<wgt id='9031'>0.30802E+02</wgt>
<wgt id='9032'>0.30827E+02</wgt>
<wgt id='9033'>0.30848E+02</wgt>
<wgt id='9034'>0.30788E+02</wgt>
<wgt id='9035'>0.30860E+02</wgt>
<wgt id='9036'>0.30804E+02</wgt>
<wgt id='9037'>0.30838E+02</wgt>
<wgt id='9038'>0.30807E+02</wgt>
<wgt id='9039'>0.30809E+02</wgt>
<wgt id='9040'>0.30771E+02</wgt>
<wgt id='9041'>0.30793E+02</wgt>
<wgt id='9042'>0.30801E+02</wgt>
<wgt id='9043'>0.30785E+02</wgt>
<wgt id='9044'>0.30817E+02</wgt>
<wgt id='9045'>0.30801E+02</wgt>
<wgt id='9046'>0.30765E+02</wgt>
<wgt id='9047'>0.30791E+02</wgt>
<wgt id='9048'>0.30819E+02</wgt>
<wgt id='9049'>0.30792E+02</wgt>
<wgt id='9050'>0.30816E+02</wgt>
<wgt id='9051'>0.30818E+02</wgt>
<wgt id='9052'>0.30814E+02</wgt>
<wgt id='9053'>0.30812E+02</wgt>
<wgt id='9054'>0.30792E+02</wgt>
<wgt id='9055'>0.30803E+02</wgt>
<wgt id='9056'>0.30837E+02</wgt>
<wgt id='9057'>0.30805E+02</wgt>
<wgt id='9058'>0.30787E+02</wgt>
<wgt id='9059'>0.30795E+02</wgt>
<wgt id='9060'>0.30798E+02</wgt>
<wgt id='9061'>0.30813E+02</wgt>
<wgt id='9062'>0.30813E+02</wgt>
<wgt id='9063'>0.30821E+02</wgt>
<wgt id='9064'>0.30801E+02</wgt>
<wgt id='9065'>0.30807E+02</wgt>
<wgt id='9066'>0.30810E+02</wgt>
<wgt id='9067'>0.30818E+02</wgt>
<wgt id='9068'>0.30818E+02</wgt>
<wgt id='9069'>0.30824E+02</wgt>
<wgt id='9070'>0.30804E+02</wgt>
<wgt id='9071'>0.30825E+02</wgt>
<wgt id='9072'>0.30825E+02</wgt>
<wgt id='9073'>0.30800E+02</wgt>
<wgt id='9074'>0.30812E+02</wgt>
<wgt id='9075'>0.30806E+02</wgt>
<wgt id='9076'>0.30805E+02</wgt>
<wgt id='9077'>0.30812E+02</wgt>
<wgt id='9078'>0.30810E+02</wgt>
<wgt id='9079'>0.30802E+02</wgt>
<wgt id='9080'>0.30827E+02</wgt>
<wgt id='9081'>0.30805E+02</wgt>
<wgt id='9082'>0.30815E+02</wgt>
<wgt id='9083'>0.30799E+02</wgt>
<wgt id='9084'>0.30800E+02</wgt>
<wgt id='9085'>0.30800E+02</wgt>
<wgt id='9086'>0.30812E+02</wgt>
<wgt id='9087'>0.30790E+02</wgt>
<wgt id='9088'>0.30801E+02</wgt>
<wgt id='9089'>0.30801E+02</wgt>
<wgt id='9090'>0.30812E+02</wgt>
<wgt id='9091'>0.30805E+02</wgt>
<wgt id='9092'>0.30807E+02</wgt>
<wgt id='9093'>0.30803E+02</wgt>
<wgt id='9094'>0.30806E+02</wgt>
<wgt id='9095'>0.30811E+02</wgt>
<wgt id='9096'>0.30802E+02</wgt>
<wgt id='9097'>0.30810E+02</wgt>
<wgt id='9098'>0.30808E+02</wgt>
<wgt id='9099'>0.30801E+02</wgt>
<wgt id='9100'>0.30807E+02</wgt>
<wgt id='9101'>0.30325E+02</wgt>
<wgt id='9102'>0.31196E+02</wgt>
<wgt id='10000'>0.32488E+02</wgt>
<wgt id='10001'>0.32628E+02</wgt>
<wgt id='10002'>0.32502E+02</wgt>
<wgt id='10003'>0.32497E+02</wgt>
<wgt id='10004'>0.32621E+02</wgt>
<wgt id='10005'>0.33409E+02</wgt>
<wgt id='10006'>0.32494E+02</wgt>
<wgt id='10007'>0.32482E+02</wgt>
<wgt id='10008'>0.32527E+02</wgt>
<wgt id='10009'>0.32435E+02</wgt>
<wgt id='10010'>0.32494E+02</wgt>
<wgt id='10011'>0.32460E+02</wgt>
<wgt id='10012'>0.32435E+02</wgt>
<wgt id='10013'>0.32478E+02</wgt>
<wgt id='10014'>0.32504E+02</wgt>
<wgt id='10015'>0.32529E+02</wgt>
<wgt id='10016'>0.32506E+02</wgt>
<wgt id='10017'>0.32269E+02</wgt>
<wgt id='10018'>0.32517E+02</wgt>
<wgt id='10019'>0.32431E+02</wgt>
<wgt id='10020'>0.32509E+02</wgt>
<wgt id='10021'>0.32494E+02</wgt>
<wgt id='10022'>0.32480E+02</wgt>
<wgt id='10023'>0.32504E+02</wgt>
<wgt id='10024'>0.32493E+02</wgt>
<wgt id='10025'>0.32470E+02</wgt>
<wgt id='10026'>0.32482E+02</wgt>
<wgt id='10027'>0.32481E+02</wgt>
<wgt id='10028'>0.32539E+02</wgt>
<wgt id='10029'>0.32523E+02</wgt>
<wgt id='10030'>0.32475E+02</wgt>
<wgt id='10031'>0.31852E+02</wgt>
<wgt id='10032'>0.33047E+02</wgt>
<wgt id='11000'>0.30804E+02</wgt>
<wgt id='11001'>0.30835E+02</wgt>
<wgt id='11002'>0.30905E+02</wgt>
<wgt id='11003'>0.30771E+02</wgt>
<wgt id='11004'>0.30899E+02</wgt>
<wgt id='11005'>0.30387E+02</wgt>
<wgt id='11006'>0.30795E+02</wgt>
<wgt id='11007'>0.30740E+02</wgt>
<wgt id='11008'>0.30738E+02</wgt>
<wgt id='11009'>0.30659E+02</wgt>
<wgt id='11010'>0.30909E+02</wgt>
<wgt id='11011'>0.30633E+02</wgt>
<wgt id='11012'>0.30831E+02</wgt>
<wgt id='11013'>0.30924E+02</wgt>
<wgt id='11014'>0.30710E+02</wgt>
<wgt id='11015'>0.30765E+02</wgt>
<wgt id='11016'>0.30774E+02</wgt>
<wgt id='11017'>0.31056E+02</wgt>
<wgt id='11018'>0.30810E+02</wgt>
<wgt id='11019'>0.30798E+02</wgt>
<wgt id='11020'>0.30833E+02</wgt>
<wgt id='11021'>0.30906E+02</wgt>
<wgt id='11022'>0.31402E+02</wgt>
<wgt id='11023'>0.30788E+02</wgt>
<wgt id='11024'>0.30776E+02</wgt>
<wgt id='11025'>0.30723E+02</wgt>
<wgt id='11026'>0.30802E+02</wgt>
<wgt id='11027'>0.30798E+02</wgt>
<wgt id='11028'>0.30787E+02</wgt>
<wgt id='11029'>0.30783E+02</wgt>
<wgt id='11030'>0.30809E+02</wgt>
<wgt id='11031'>0.30325E+02</wgt>
<wgt id='11032'>0.31196E+02</wgt>
<wgt id='12000'>0.34533E+02</wgt>
<wgt id='12001'>0.34487E+02</wgt>
<wgt id='12002'>0.34579E+02</wgt>
<wgt id='12003'>0.34620E+02</wgt>
<wgt id='12004'>0.34446E+02</wgt>
<wgt id='12005'>0.34590E+02</wgt>
<wgt id='12006'>0.34476E+02</wgt>
<wgt id='12007'>0.34622E+02</wgt>
<wgt id='12008'>0.34448E+02</wgt>
<wgt id='12009'>0.34592E+02</wgt>
<wgt id='12010'>0.34476E+02</wgt>
<wgt id='12011'>0.34483E+02</wgt>
<wgt id='12012'>0.34588E+02</wgt>
<wgt id='12013'>0.34397E+02</wgt>
<wgt id='12014'>0.34671E+02</wgt>
<wgt id='12015'>0.34539E+02</wgt>
<wgt id='12016'>0.34484E+02</wgt>
<wgt id='12017'>0.34633E+02</wgt>
<wgt id='12018'>0.34417E+02</wgt>
<wgt id='12019'>0.34408E+02</wgt>
<wgt id='12020'>0.34656E+02</wgt>
<wgt id='12021'>0.34670E+02</wgt>
<wgt id='12022'>0.34355E+02</wgt>
<wgt id='12023'>0.34409E+02</wgt>
<wgt id='12024'>0.34482E+02</wgt>
<wgt id='12025'>0.34640E+02</wgt>
<wgt id='12026'>0.34477E+02</wgt>
<wgt id='12027'>0.34474E+02</wgt>
<wgt id='12028'>0.34622E+02</wgt>
<wgt id='12050'>0.34533E+02</wgt>
<wgt id='12051'>0.34497E+02</wgt>
<wgt id='12052'>0.34560E+02</wgt>
<wgt id='12053'>0.34489E+02</wgt>
<wgt id='12054'>0.34552E+02</wgt>
<wgt id='12055'>0.34632E+02</wgt>
<wgt id='12056'>0.34258E+02</wgt>
<wgt id='12057'>0.34394E+02</wgt>
<wgt id='12058'>0.34661E+02</wgt>
<wgt id='12059'>0.34441E+02</wgt>
<wgt id='12060'>0.34633E+02</wgt>
<wgt id='12061'>0.34536E+02</wgt>
<wgt id='12062'>0.34605E+02</wgt>
<wgt id='12063'>0.34201E+02</wgt>
<wgt id='13000'>0.31107E+02</wgt>
<wgt id='13001'>0.31083E+02</wgt>
<wgt id='13002'>0.31125E+02</wgt>
<wgt id='13003'>0.31148E+02</wgt>
<wgt id='13004'>0.31061E+02</wgt>
<wgt id='13005'>0.31181E+02</wgt>
<wgt id='13006'>0.31028E+02</wgt>
<wgt id='13007'>0.31234E+02</wgt>
<wgt id='13008'>0.30979E+02</wgt>
<wgt id='13009'>0.31116E+02</wgt>
<wgt id='13010'>0.31094E+02</wgt>
<wgt id='13011'>0.31179E+02</wgt>
<wgt id='13012'>0.31030E+02</wgt>
<wgt id='13013'>0.31010E+02</wgt>
<wgt id='13014'>0.31199E+02</wgt>
<wgt id='13015'>0.31057E+02</wgt>
<wgt id='13016'>0.31131E+02</wgt>
<wgt id='13017'>0.31083E+02</wgt>
<wgt id='13018'>0.31119E+02</wgt>
<wgt id='13019'>0.31052E+02</wgt>
<wgt id='13020'>0.31154E+02</wgt>
<wgt id='13021'>0.30842E+02</wgt>
<wgt id='13022'>0.31323E+02</wgt>
<wgt id='13023'>0.31124E+02</wgt>
<wgt id='13024'>0.31081E+02</wgt>
<wgt id='13025'>0.31045E+02</wgt>
<wgt id='13026'>0.31087E+02</wgt>
<wgt id='13027'>0.31126E+02</wgt>
<wgt id='13028'>0.31117E+02</wgt>
<wgt id='13050'>0.31107E+02</wgt>
<wgt id='13051'>0.31108E+02</wgt>
<wgt id='13052'>0.31041E+02</wgt>
<wgt id='13053'>0.31096E+02</wgt>
<wgt id='13054'>0.31096E+02</wgt>
<wgt id='13055'>0.31075E+02</wgt>
<wgt id='13056'>0.31125E+02</wgt>
<wgt id='13057'>0.30994E+02</wgt>
<wgt id='13058'>0.31267E+02</wgt>
<wgt id='13059'>0.31015E+02</wgt>
<wgt id='13060'>0.31213E+02</wgt>
<wgt id='13061'>0.31029E+02</wgt>
<wgt id='13062'>0.31336E+02</wgt>
<wgt id='13063'>0.30899E+02</wgt>
<wgt id='14000'>0.32236E+02</wgt>
<wgt id='14001'>0.32230E+02</wgt>
<wgt id='14002'>0.32225E+02</wgt>
<wgt id='14003'>0.32220E+02</wgt>
<wgt id='14004'>0.32214E+02</wgt>
<wgt id='14005'>0.32209E+02</wgt>
<wgt id='14006'>0.32204E+02</wgt>
<wgt id='14007'>0.32199E+02</wgt>
<wgt id='14008'>0.32194E+02</wgt>
<wgt id='14009'>0.32188E+02</wgt>
<wgt id='14010'>0.32183E+02</wgt>
<wgt id='14011'>0.32178E+02</wgt>
<wgt id='14012'>0.32172E+02</wgt>
<wgt id='14013'>0.32167E+02</wgt>
<wgt id='14014'>0.32162E+02</wgt>
<wgt id='14015'>0.32157E+02</wgt>
<wgt id='14016'>0.32152E+02</wgt>
<wgt id='14017'>0.32146E+02</wgt>
<wgt id='14018'>0.32141E+02</wgt>
<wgt id='14019'>0.32136E+02</wgt>
<wgt id='14020'>0.32131E+02</wgt>
<wgt id='14021'>0.32125E+02</wgt>
<wgt id='14022'>0.32120E+02</wgt>
<wgt id='14023'>0.32115E+02</wgt>
<wgt id='14024'>0.32110E+02</wgt>
<wgt id='14025'>0.32104E+02</wgt>
<wgt id='14026'>0.32099E+02</wgt>
<wgt id='14027'>0.32094E+02</wgt>
<wgt id='14028'>0.32089E+02</wgt>
<wgt id='14029'>0.32083E+02</wgt>
<wgt id='14030'>0.32078E+02</wgt>
<wgt id='15000'>0.30440E+02</wgt>
<wgt id='15001'>0.30495E+02</wgt>
<wgt id='15002'>0.30594E+02</wgt>
<wgt id='15003'>0.30174E+02</wgt>
<wgt id='15004'>0.30384E+02</wgt>
<wgt id='15005'>0.30588E+02</wgt>
<wgt id='15006'>0.30362E+02</wgt>
<wgt id='15007'>0.30466E+02</wgt>
<wgt id='15008'>0.30511E+02</wgt>
<wgt id='15009'>0.30420E+02</wgt>
<wgt id='15010'>0.30397E+02</wgt>
<wgt id='15011'>0.30766E+02</wgt>
<wgt id='15012'>0.30042E+02</wgt>
<wgt id='15013'>0.30040E+02</wgt>
<wgt id='15014'>0.30085E+02</wgt>
<wgt id='15015'>0.30405E+02</wgt>
<wgt id='15016'>0.30559E+02</wgt>
<wgt id='15017'>0.30459E+02</wgt>
<wgt id='15018'>0.30432E+02</wgt>
<wgt id='15019'>0.30408E+02</wgt>
<wgt id='15020'>0.30567E+02</wgt>
<wgt id='15021'>0.30423E+02</wgt>
<wgt id='15022'>0.30478E+02</wgt>
<wgt id='15023'>0.30399E+02</wgt>
<wgt id='15024'>0.30397E+02</wgt>
<wgt id='15025'>0.30482E+02</wgt>
<wgt id='15026'>0.30453E+02</wgt>
<wgt id='15027'>0.30406E+02</wgt>
<wgt id='15028'>0.30466E+02</wgt>
<wgt id='15029'>0.30469E+02</wgt>
<wgt id='15030'>0.30456E+02</wgt>
<wgt id='15031'>0.30435E+02</wgt>
<wgt id='15032'>0.30460E+02</wgt>
<wgt id='15033'>0.30480E+02</wgt>
<wgt id='15034'>0.30420E+02</wgt>
<wgt id='15035'>0.30492E+02</wgt>
<wgt id='15036'>0.30437E+02</wgt>
<wgt id='15037'>0.30471E+02</wgt>
<wgt id='15038'>0.30440E+02</wgt>
<wgt id='15039'>0.30442E+02</wgt>
<wgt id='15040'>0.30403E+02</wgt>
<wgt id='15041'>0.30425E+02</wgt>
<wgt id='15042'>0.30433E+02</wgt>
<wgt id='15043'>0.30418E+02</wgt>
<wgt id='15044'>0.30450E+02</wgt>
<wgt id='15045'>0.30433E+02</wgt>
<wgt id='15046'>0.30398E+02</wgt>
<wgt id='15047'>0.30423E+02</wgt>
<wgt id='15048'>0.30451E+02</wgt>
<wgt id='15049'>0.30424E+02</wgt>
<wgt id='15050'>0.30448E+02</wgt>
<wgt id='15051'>0.30450E+02</wgt>
<wgt id='15052'>0.30446E+02</wgt>
<wgt id='15053'>0.30445E+02</wgt>
<wgt id='15054'>0.30424E+02</wgt>
<wgt id='15055'>0.30435E+02</wgt>
<wgt id='15056'>0.30469E+02</wgt>
<wgt id='15057'>0.30437E+02</wgt>
<wgt id='15058'>0.30420E+02</wgt>
<wgt id='15059'>0.30427E+02</wgt>
<wgt id='15060'>0.30431E+02</wgt>
<wgt id='15061'>0.30445E+02</wgt>
<wgt id='15062'>0.30445E+02</wgt>
<wgt id='15063'>0.30454E+02</wgt>
<wgt id='15064'>0.30434E+02</wgt>
<wgt id='15065'>0.30439E+02</wgt>
<wgt id='15066'>0.30443E+02</wgt>
<wgt id='15067'>0.30450E+02</wgt>
<wgt id='15068'>0.30450E+02</wgt>
<wgt id='15069'>0.30456E+02</wgt>
<wgt id='15070'>0.30437E+02</wgt>
<wgt id='15071'>0.30458E+02</wgt>
<wgt id='15072'>0.30458E+02</wgt>
<wgt id='15073'>0.30432E+02</wgt>
<wgt id='15074'>0.30445E+02</wgt>
<wgt id='15075'>0.30439E+02</wgt>
<wgt id='15076'>0.30438E+02</wgt>
<wgt id='15077'>0.30444E+02</wgt>
<wgt id='15078'>0.30443E+02</wgt>
<wgt id='15079'>0.30435E+02</wgt>
<wgt id='15080'>0.30460E+02</wgt>
<wgt id='15081'>0.30437E+02</wgt>
<wgt id='15082'>0.30447E+02</wgt>
<wgt id='15083'>0.30431E+02</wgt>
<wgt id='15084'>0.30432E+02</wgt>
<wgt id='15085'>0.30433E+02</wgt>
<wgt id='15086'>0.30444E+02</wgt>
<wgt id='15087'>0.30422E+02</wgt>
<wgt id='15088'>0.30434E+02</wgt>
<wgt id='15089'>0.30433E+02</wgt>
<wgt id='15090'>0.30445E+02</wgt>
<wgt id='15091'>0.30437E+02</wgt>
<wgt id='15092'>0.30439E+02</wgt>
<wgt id='15093'>0.30436E+02</wgt>
<wgt id='15094'>0.30438E+02</wgt>
<wgt id='15095'>0.30444E+02</wgt>
<wgt id='15096'>0.30434E+02</wgt>
<wgt id='15097'>0.30442E+02</wgt>
<wgt id='15098'>0.30440E+02</wgt>
<wgt id='15099'>0.30434E+02</wgt>
<wgt id='15100'>0.30440E+02</wgt>
<wgt id='15101'>0.30440E+02</wgt>
<wgt id='15102'>0.30438E+02</wgt>
<wgt id='15103'>0.30441E+02</wgt>
<wgt id='15104'>0.30441E+02</wgt>
<wgt id='15105'>0.30441E+02</wgt>
<wgt id='15106'>0.30440E+02</wgt>
<wgt id='15107'>0.30439E+02</wgt>
<wgt id='1500'>0.32161E+02</wgt>
<wgt id='1501'>0.29314E+02</wgt>
<wgt id='1502'>0.32371E+02</wgt>
<wgt id='1503'>0.31973E+02</wgt>
<wgt id='1504'>0.31768E+02</wgt>
<wgt id='1505'>0.28209E+02</wgt>
<wgt id='1506'>0.32215E+02</wgt>
<wgt id='1507'>0.32692E+02</wgt>
<wgt id='1508'>0.31964E+02</wgt>
<wgt id='1509'>0.32144E+02</wgt>
<wgt id='1510'>0.31291E+02</wgt>
<wgt id='1511'>0.31812E+02</wgt>
<wgt id='1512'>0.32719E+02</wgt>
<wgt id='1513'>0.32713E+02</wgt>
<wgt id='1514'>0.31344E+02</wgt>
<wgt id='1515'>0.32249E+02</wgt>
<wgt id='1516'>0.32730E+02</wgt>
<wgt id='1517'>0.31633E+02</wgt>
<wgt id='1518'>0.31820E+02</wgt>
<wgt id='1519'>0.32468E+02</wgt>
<wgt id='1520'>0.32536E+02</wgt>
<wgt id='1521'>0.32319E+02</wgt>
<wgt id='1522'>0.31999E+02</wgt>
<wgt id='1523'>0.34667E+02</wgt>
<wgt id='1524'>0.31872E+02</wgt>
<wgt id='1525'>0.32649E+02</wgt>
<wgt id='1526'>0.31515E+02</wgt>
<wgt id='1527'>0.31874E+02</wgt>
<wgt id='1528'>0.31959E+02</wgt>
<wgt id='1529'>0.31731E+02</wgt>
<wgt id='1530'>0.32777E+02</wgt>
<wgt id='1531'>0.32047E+02</wgt>
<wgt id='1532'>0.31316E+02</wgt>
<wgt id='1533'>0.32942E+02</wgt>
<wgt id='1534'>0.32413E+02</wgt>
<wgt id='1535'>0.33158E+02</wgt>
<wgt id='1536'>0.33107E+02</wgt>
<wgt id='1537'>0.32525E+02</wgt>
<wgt id='1538'>0.31841E+02</wgt>
<wgt id='1539'>0.30910E+02</wgt>
<wgt id='1540'>0.32670E+02</wgt>
<wgt id='1541'>0.32007E+02</wgt>
<wgt id='1542'>0.32717E+02</wgt>
<wgt id='1543'>0.32558E+02</wgt>
<wgt id='1544'>0.31917E+02</wgt>
<wgt id='1545'>0.32785E+02</wgt>
<wgt id='1546'>0.32357E+02</wgt>
<wgt id='1547'>0.31613E+02</wgt>
<wgt id='1548'>0.31526E+02</wgt>
<wgt id='1549'>0.32473E+02</wgt>
<wgt id='1550'>0.32291E+02</wgt>
<wgt id='1551'>0.32181E+02</wgt>
<wgt id='1552'>0.32097E+02</wgt>
<wgt id='1553'>0.32745E+02</wgt>
<wgt id='1554'>0.32173E+02</wgt>
<wgt id='1555'>0.32255E+02</wgt>
<wgt id='1556'>0.31264E+02</wgt>
<wgt id='1557'>0.33456E+02</wgt>
<wgt id='1558'>0.31916E+02</wgt>
<wgt id='1559'>0.32578E+02</wgt>
<wgt id='1560'>0.32049E+02</wgt>
<wgt id='1561'>0.32514E+02</wgt>
<wgt id='1562'>0.32225E+02</wgt>
<wgt id='1563'>0.32780E+02</wgt>
<wgt id='1564'>0.31763E+02</wgt>
<wgt id='1565'>0.32613E+02</wgt>
<wgt id='1566'>0.32323E+02</wgt>
<wgt id='1567'>0.33684E+02</wgt>
<wgt id='1568'>0.31722E+02</wgt>
<wgt id='1569'>0.31429E+02</wgt>
<wgt id='1570'>0.32282E+02</wgt>
<wgt id='1571'>0.32995E+02</wgt>
<wgt id='1572'>0.31913E+02</wgt>
<wgt id='1573'>0.29689E+02</wgt>
<wgt id='1574'>0.32478E+02</wgt>
<wgt id='1575'>0.31831E+02</wgt>
<wgt id='1576'>0.31351E+02</wgt>
<wgt id='1577'>0.32476E+02</wgt>
<wgt id='1578'>0.33440E+02</wgt>
<wgt id='1579'>0.31998E+02</wgt>
<wgt id='1580'>0.32431E+02</wgt>
<wgt id='1581'>0.32388E+02</wgt>
<wgt id='1582'>0.31820E+02</wgt>
<wgt id='1583'>0.32190E+02</wgt>
<wgt id='1584'>0.32286E+02</wgt>
<wgt id='1585'>0.31252E+02</wgt>
<wgt id='1586'>0.32078E+02</wgt>
<wgt id='1587'>0.32110E+02</wgt>
<wgt id='1588'>0.32219E+02</wgt>
<wgt id='1589'>0.32759E+02</wgt>
<wgt id='1590'>0.32041E+02</wgt>
<wgt id='1591'>0.31184E+02</wgt>
<wgt id='1592'>0.32999E+02</wgt>
<wgt id='1593'>0.31874E+02</wgt>
<wgt id='1594'>0.32990E+02</wgt>
<wgt id='1595'>0.31628E+02</wgt>
<wgt id='1596'>0.32652E+02</wgt>
<wgt id='1597'>0.32332E+02</wgt>
<wgt id='1598'>0.33559E+02</wgt>
<wgt id='1599'>0.33043E+02</wgt>
<wgt id='1600'>0.32004E+02</wgt>
<wgt id='1601'>0.31618E+02</wgt>
<wgt id='1602'>0.32414E+02</wgt>
<wgt id='1700'>0.30948E+02</wgt>
<wgt id='1800'>0.38035E+02</wgt>
<wgt id='1850'>0.45864E+02</wgt>
<wgt id='1900'>0.37267E+02</wgt>
<wgt id='1950'>0.44369E+02</wgt>
</rwgt>
</event>
<event>
      4   9999  3.15120E+01  4.48030E+01 -1.00000E+00  1.39760E-01
      21    -1     0     0   502   501  0.000000000E+00  0.000000000E+00  1.152220717E+01  1.152220717E+01  0.000000000E+00  0.00000E+00  9.000E+00
      -4    -1     0     0     0   502  0.000000000E+00  0.000000000E+00 -6.508549161E+02  6.508549161E+02  0.000000000E+00  0.00000E+00  9.000E+00
      25     1     1     2     0     0  3.418785557E+01  2.895682247E+01 -4.902820670E+02  5.067384362E+02  1.200001271E+02  0.00000E+00  9.000E+00
      -4     1     1     2     0   501 -3.418785557E+01 -2.895682247E+01 -1.490506419E+02  1.556386870E+02  2.697398305E-06  0.00000E+00  9.000E+00
#rwgt            1           1   23.582909668321591                2        4385           0
<rwgt>
<wgt id='1001'>0.31512E+02</wgt>
<wgt id='1002'>0.31566E+02</wgt>
<wgt id='1003'>0.31118E+02</wgt>
<wgt id='1004'>0.28832E+02</wgt>
<wgt id='1005'>0.29039E+02</wgt>
<wgt id='1006'>0.28280E+02</wgt>
<wgt id='1007'>0.33889E+02</wgt>
<wgt id='1008'>0.33661E+02</wgt>
<wgt id='1009'>0.33814E+02</wgt>
<wgt id='2000'>0.31512E+02</wgt>
<wgt id='2001'>0.31486E+02</wgt>
<wgt id='2002'>0.31518E+02</wgt>
<wgt id='2003'>0.31457E+02</wgt>
<wgt id='2004'>0.31545E+02</wgt>
<wgt id='2005'>0.31573E+02</wgt>
<wgt id='2006'>0.31530E+02</wgt>
<wgt id='2007'>0.31651E+02</wgt>
<wgt id='2008'>0.31646E+02</wgt>
<wgt id='2009'>0.31453E+02</wgt>
<wgt id='2010'>0.31448E+02</wgt>
<wgt id='2011'>0.31492E+02</wgt>
<wgt id='2012'>0.31489E+02</wgt>
<wgt id='2013'>0.31393E+02</wgt>
<wgt id='2014'>0.31446E+02</wgt>
<wgt id='2015'>0.31496E+02</wgt>
<wgt id='2016'>0.31553E+02</wgt>
<wgt id='2017'>0.31485E+02</wgt>
<wgt id='2018'>0.31444E+02</wgt>
<wgt id='2019'>0.31523E+02</wgt>
<wgt id='2020'>0.31456E+02</wgt>
<wgt id='2021'>0.31545E+02</wgt>
<wgt id='2022'>0.31441E+02</wgt>
<wgt id='2023'>0.31530E+02</wgt>
<wgt id='2024'>0.31444E+02</wgt>
<wgt id='2025'>0.31464E+02</wgt>
<wgt id='2026'>0.31553E+02</wgt>
<wgt id='2027'>0.31464E+02</wgt>
<wgt id='2028'>0.31464E+02</wgt>
<wgt id='2029'>0.31706E+02</wgt>
<wgt id='2030'>0.31511E+02</wgt>
<wgt id='2031'>0.31542E+02</wgt>
<wgt id='2032'>0.31496E+02</wgt>
<wgt id='2033'>0.31524E+02</wgt>
<wgt id='2034'>0.31623E+02</wgt>
<wgt id='2035'>0.31483E+02</wgt>
<wgt id='2036'>0.31492E+02</wgt>
<wgt id='2037'>0.31607E+02</wgt>
<wgt id='2038'>0.31488E+02</wgt>
<wgt id='2039'>0.31413E+02</wgt>
<wgt id='2040'>0.31454E+02</wgt>
<wgt id='2041'>0.31461E+02</wgt>
<wgt id='2042'>0.31498E+02</wgt>
<wgt id='2043'>0.31524E+02</wgt>
<wgt id='2044'>0.31568E+02</wgt>
<wgt id='2045'>0.31487E+02</wgt>
<wgt id='2046'>0.31574E+02</wgt>
<wgt id='2047'>0.31552E+02</wgt>
<wgt id='2048'>0.31502E+02</wgt>
<wgt id='2049'>0.31508E+02</wgt>
<wgt id='2050'>0.31551E+02</wgt>
<wgt id='2051'>0.31542E+02</wgt>
<wgt id='2052'>0.31491E+02</wgt>
<wgt id='2053'>0.31511E+02</wgt>
<wgt id='2054'>0.31529E+02</wgt>
<wgt id='2055'>0.31517E+02</wgt>
<wgt id='2056'>0.31518E+02</wgt>
<wgt id='2057'>0.31510E+02</wgt>
<wgt id='2058'>0.31522E+02</wgt>
<wgt id='2059'>0.31507E+02</wgt>
<wgt id='2060'>0.31520E+02</wgt>
<wgt id='2061'>0.31510E+02</wgt>
<wgt id='2062'>0.31524E+02</wgt>
<wgt id='2063'>0.31499E+02</wgt>
<wgt id='2064'>0.31499E+02</wgt>
<wgt id='2065'>0.31516E+02</wgt>
<wgt id='2066'>0.31498E+02</wgt>
<wgt id='2067'>0.31515E+02</wgt>
<wgt id='2068'>0.31523E+02</wgt>
<wgt id='2069'>0.31512E+02</wgt>
<wgt id='2070'>0.31511E+02</wgt>
<wgt id='2071'>0.31490E+02</wgt>
<wgt id='2072'>0.31513E+02</wgt>
<wgt id='2073'>0.31519E+02</wgt>
<wgt id='2074'>0.31506E+02</wgt>
<wgt id='2075'>0.31508E+02</wgt>
<wgt id='2076'>0.31510E+02</wgt>
<wgt id='2077'>0.31509E+02</wgt>
<wgt id='2078'>0.31512E+02</wgt>
<wgt id='2079'>0.31515E+02</wgt>
<wgt id='2080'>0.31516E+02</wgt>
<wgt id='2081'>0.31517E+02</wgt>
<wgt id='2082'>0.31516E+02</wgt>
<wgt id='2083'>0.31514E+02</wgt>
<wgt id='2084'>0.31514E+02</wgt>
<wgt id='2085'>0.31511E+02</wgt>
<wgt id='2086'>0.31507E+02</wgt>
<wgt id='2087'>0.31509E+02</wgt>
<wgt id='2088'>0.31513E+02</wgt>
<wgt id='2089'>0.31512E+02</wgt>
<wgt id='2090'>0.31508E+02</wgt>
<wgt id='2091'>0.31509E+02</wgt>
<wgt id='2092'>0.31513E+02</wgt>
<wgt id='2093'>0.31511E+02</wgt>
<wgt id='2094'>0.31516E+02</wgt>
<wgt id='2095'>0.31513E+02</wgt>
<wgt id='2096'>0.31507E+02</wgt>
<wgt id='2097'>0.31514E+02</wgt>
<wgt id='2098'>0.31511E+02</wgt>
<wgt id='2099'>0.31508E+02</wgt>
<wgt id='2100'>0.31515E+02</wgt>
<wgt id='2101'>0.30788E+02</wgt>
<wgt id='2102'>0.32320E+02</wgt>
<wgt id='2104'>0.27795E+02</wgt>
<wgt id='2105'>0.28566E+02</wgt>
<wgt id='2106'>0.29148E+02</wgt>
<wgt id='2107'>0.29828E+02</wgt>
<wgt id='2108'>0.31118E+02</wgt>
<wgt id='2109'>0.31883E+02</wgt>
<wgt id='2110'>0.33070E+02</wgt>
<wgt id='2111'>0.33779E+02</wgt>
<wgt id='3000'>0.33059E+02</wgt>
<wgt id='3001'>0.33078E+02</wgt>
<wgt id='3002'>0.33030E+02</wgt>
<wgt id='3003'>0.32980E+02</wgt>
<wgt id='3004'>0.33097E+02</wgt>
<wgt id='3005'>0.32937E+02</wgt>
<wgt id='3006'>0.33008E+02</wgt>
<wgt id='3007'>0.32911E+02</wgt>
<wgt id='3008'>0.33082E+02</wgt>
<wgt id='3009'>0.32911E+02</wgt>
<wgt id='3010'>0.33050E+02</wgt>
<wgt id='3011'>0.33066E+02</wgt>
<wgt id='3012'>0.33030E+02</wgt>
<wgt id='3013'>0.33113E+02</wgt>
<wgt id='3014'>0.32981E+02</wgt>
<wgt id='3015'>0.33014E+02</wgt>
<wgt id='3016'>0.33060E+02</wgt>
<wgt id='3017'>0.32985E+02</wgt>
<wgt id='3018'>0.33055E+02</wgt>
<wgt id='3019'>0.33161E+02</wgt>
<wgt id='3020'>0.33121E+02</wgt>
<wgt id='3021'>0.33128E+02</wgt>
<wgt id='3022'>0.33065E+02</wgt>
<wgt id='3023'>0.33084E+02</wgt>
<wgt id='3024'>0.33086E+02</wgt>
<wgt id='3025'>0.33103E+02</wgt>
<wgt id='3026'>0.33004E+02</wgt>
<wgt id='3027'>0.33079E+02</wgt>
<wgt id='3028'>0.33054E+02</wgt>
<wgt id='3029'>0.32951E+02</wgt>
<wgt id='3030'>0.33256E+02</wgt>
<wgt id='3031'>0.33162E+02</wgt>
<wgt id='3032'>0.33049E+02</wgt>
<wgt id='3033'>0.33115E+02</wgt>
<wgt id='3034'>0.33047E+02</wgt>
<wgt id='3035'>0.33240E+02</wgt>
<wgt id='3036'>0.33112E+02</wgt>
<wgt id='3037'>0.33030E+02</wgt>
<wgt id='3038'>0.33072E+02</wgt>
<wgt id='3039'>0.33115E+02</wgt>
<wgt id='3040'>0.32997E+02</wgt>
<wgt id='3041'>0.33048E+02</wgt>
<wgt id='3042'>0.33007E+02</wgt>
<wgt id='3043'>0.32994E+02</wgt>
<wgt id='3044'>0.33106E+02</wgt>
<wgt id='3045'>0.33113E+02</wgt>
<wgt id='3046'>0.33081E+02</wgt>
<wgt id='3047'>0.33049E+02</wgt>
<wgt id='3048'>0.33080E+02</wgt>
<wgt id='3049'>0.33037E+02</wgt>
<wgt id='3050'>0.33045E+02</wgt>
<wgt id='3051'>0.33125E+02</wgt>
<wgt id='3052'>0.33053E+02</wgt>
<wgt id='3053'>0.33038E+02</wgt>
<wgt id='3054'>0.33051E+02</wgt>
<wgt id='3055'>0.33062E+02</wgt>
<wgt id='3056'>0.33071E+02</wgt>
<wgt id='3057'>0.33049E+02</wgt>
<wgt id='3058'>0.33046E+02</wgt>
<wgt id='3059'>0.33065E+02</wgt>
<wgt id='3060'>0.33058E+02</wgt>
<wgt id='3061'>0.33068E+02</wgt>
<wgt id='3062'>0.33059E+02</wgt>
<wgt id='3063'>0.33085E+02</wgt>
<wgt id='3064'>0.33052E+02</wgt>
<wgt id='3065'>0.33070E+02</wgt>
<wgt id='3066'>0.33068E+02</wgt>
<wgt id='3067'>0.33055E+02</wgt>
<wgt id='3068'>0.33061E+02</wgt>
<wgt id='3069'>0.33051E+02</wgt>
<wgt id='3070'>0.33059E+02</wgt>
<wgt id='3071'>0.33063E+02</wgt>
<wgt id='3072'>0.33057E+02</wgt>
<wgt id='3073'>0.33044E+02</wgt>
<wgt id='3074'>0.33078E+02</wgt>
<wgt id='3075'>0.33053E+02</wgt>
<wgt id='3076'>0.33059E+02</wgt>
<wgt id='3077'>0.33064E+02</wgt>
<wgt id='3078'>0.33064E+02</wgt>
<wgt id='3079'>0.33060E+02</wgt>
<wgt id='3080'>0.33054E+02</wgt>
<wgt id='3081'>0.33061E+02</wgt>
<wgt id='3082'>0.33050E+02</wgt>
<wgt id='3083'>0.33069E+02</wgt>
<wgt id='3084'>0.33062E+02</wgt>
<wgt id='3085'>0.33056E+02</wgt>
<wgt id='3086'>0.33054E+02</wgt>
<wgt id='3087'>0.33060E+02</wgt>
<wgt id='3088'>0.33060E+02</wgt>
<wgt id='3089'>0.33060E+02</wgt>
<wgt id='3090'>0.33054E+02</wgt>
<wgt id='3091'>0.33059E+02</wgt>
<wgt id='3092'>0.33063E+02</wgt>
<wgt id='3093'>0.33058E+02</wgt>
<wgt id='3094'>0.33063E+02</wgt>
<wgt id='3095'>0.33059E+02</wgt>
<wgt id='3096'>0.33056E+02</wgt>
<wgt id='3097'>0.33053E+02</wgt>
<wgt id='3098'>0.33062E+02</wgt>
<wgt id='3099'>0.33064E+02</wgt>
<wgt id='3100'>0.33057E+02</wgt>
<wgt id='3101'>0.32185E+02</wgt>
<wgt id='3102'>0.33902E+02</wgt>
<wgt id='5000'>0.30961E+02</wgt>
<wgt id='5001'>0.30957E+02</wgt>
<wgt id='5002'>0.30873E+02</wgt>
<wgt id='5003'>0.30988E+02</wgt>
<wgt id='5004'>0.30834E+02</wgt>
<wgt id='5005'>0.31074E+02</wgt>
<wgt id='5006'>0.30366E+02</wgt>
<wgt id='5007'>0.30639E+02</wgt>
<wgt id='5008'>0.31165E+02</wgt>
<wgt id='5009'>0.30835E+02</wgt>
<wgt id='5010'>0.31001E+02</wgt>
<wgt id='5011'>0.31059E+02</wgt>
<wgt id='5012'>0.30808E+02</wgt>
<wgt id='5013'>0.31067E+02</wgt>
<wgt id='5014'>0.30990E+02</wgt>
<wgt id='5015'>0.31005E+02</wgt>
<wgt id='5016'>0.30754E+02</wgt>
<wgt id='5017'>0.30811E+02</wgt>
<wgt id='5018'>0.31127E+02</wgt>
<wgt id='5019'>0.30842E+02</wgt>
<wgt id='5020'>0.31089E+02</wgt>
<wgt id='5021'>0.30954E+02</wgt>
<wgt id='5022'>0.30963E+02</wgt>
<wgt id='5023'>0.30780E+02</wgt>
<wgt id='5024'>0.31154E+02</wgt>
<wgt id='5025'>0.30972E+02</wgt>
<wgt id='5026'>0.30952E+02</wgt>
<wgt id='5027'>0.31146E+02</wgt>
<wgt id='5028'>0.30639E+02</wgt>
<wgt id='5029'>0.30672E+02</wgt>
<wgt id='5030'>0.31126E+02</wgt>
<wgt id='5031'>0.30764E+02</wgt>
<wgt id='5032'>0.31236E+02</wgt>
<wgt id='5033'>0.30825E+02</wgt>
<wgt id='5034'>0.31081E+02</wgt>
<wgt id='5035'>0.30714E+02</wgt>
<wgt id='5036'>0.31176E+02</wgt>
<wgt id='5037'>0.30623E+02</wgt>
<wgt id='5038'>0.31344E+02</wgt>
<wgt id='5039'>0.31493E+02</wgt>
<wgt id='5040'>0.30697E+02</wgt>
<wgt id='5041'>0.30943E+02</wgt>
<wgt id='5042'>0.30943E+02</wgt>
<wgt id='5043'>0.31160E+02</wgt>
<wgt id='5044'>0.30620E+02</wgt>
<wgt id='5045'>0.30660E+02</wgt>
<wgt id='5046'>0.31019E+02</wgt>
<wgt id='5047'>0.30522E+02</wgt>
<wgt id='5048'>0.31405E+02</wgt>
<wgt id='5049'>0.30926E+02</wgt>
<wgt id='5050'>0.31063E+02</wgt>
<wgt id='5051'>0.31003E+02</wgt>
<wgt id='5052'>0.30948E+02</wgt>
<wgt id='5053'>0.29876E+02</wgt>
<wgt id='5054'>0.30189E+02</wgt>
<wgt id='5055'>0.30747E+02</wgt>
<wgt id='5056'>0.31323E+02</wgt>
<wgt id='5060'>0.30061E+02</wgt>
<wgt id='5070'>0.31890E+02</wgt>
<wgt id='4000'>0.32489E+02</wgt>
<wgt id='4001'>0.32480E+02</wgt>
<wgt id='4002'>0.32573E+02</wgt>
<wgt id='4003'>0.31872E+02</wgt>
<wgt id='4004'>0.32701E+02</wgt>
<wgt id='4005'>0.32645E+02</wgt>
<wgt id='4006'>0.32405E+02</wgt>
<wgt id='4007'>0.32226E+02</wgt>
<wgt id='4008'>0.32697E+02</wgt>
<wgt id='4009'>0.32259E+02</wgt>
<wgt id='4010'>0.32629E+02</wgt>
<wgt id='4011'>0.32719E+02</wgt>
<wgt id='4012'>0.32338E+02</wgt>
<wgt id='4013'>0.31836E+02</wgt>
<wgt id='4014'>0.32879E+02</wgt>
<wgt id='4015'>0.32941E+02</wgt>
<wgt id='4016'>0.32207E+02</wgt>
<wgt id='4017'>0.32030E+02</wgt>
<wgt id='4018'>0.33034E+02</wgt>
<wgt id='4019'>0.32674E+02</wgt>
<wgt id='4020'>0.32269E+02</wgt>
<wgt id='4021'>0.32493E+02</wgt>
<wgt id='4022'>0.32461E+02</wgt>
<wgt id='4023'>0.32494E+02</wgt>
<wgt id='4024'>0.32464E+02</wgt>
<wgt id='4025'>0.32526E+02</wgt>
<wgt id='4026'>0.32444E+02</wgt>
<wgt id='4027'>0.32495E+02</wgt>
<wgt id='4028'>0.32473E+02</wgt>
<wgt id='4029'>0.32419E+02</wgt>
<wgt id='4030'>0.32513E+02</wgt>
<wgt id='4031'>0.32542E+02</wgt>
<wgt id='4032'>0.32420E+02</wgt>
<wgt id='4033'>0.32428E+02</wgt>
<wgt id='4034'>0.32627E+02</wgt>
<wgt id='4035'>0.32470E+02</wgt>
<wgt id='4036'>0.32513E+02</wgt>
<wgt id='4037'>0.32481E+02</wgt>
<wgt id='4038'>0.32439E+02</wgt>
<wgt id='4039'>0.32362E+02</wgt>
<wgt id='4040'>0.32557E+02</wgt>
<wgt id='4041'>0.32478E+02</wgt>
<wgt id='4042'>0.32519E+02</wgt>
<wgt id='4043'>0.32177E+02</wgt>
<wgt id='4044'>0.32858E+02</wgt>
<wgt id='4045'>0.32352E+02</wgt>
<wgt id='4046'>0.32507E+02</wgt>
<wgt id='4047'>0.32584E+02</wgt>
<wgt id='4048'>0.32013E+02</wgt>
<wgt id='4049'>0.32004E+02</wgt>
<wgt id='4050'>0.32692E+02</wgt>
<wgt id='4051'>0.32440E+02</wgt>
<wgt id='4052'>0.32471E+02</wgt>
<wgt id='4053'>0.31399E+02</wgt>
<wgt id='4054'>0.32309E+02</wgt>
<wgt id='4055'>0.32392E+02</wgt>
<wgt id='4056'>0.32723E+02</wgt>
<wgt id='4060'>0.31493E+02</wgt>
<wgt id='4070'>0.33509E+02</wgt>
<wgt id='4080'>0.35858E+02</wgt>
<wgt id='6000'>0.32812E+02</wgt>
<wgt id='6001'>0.32863E+02</wgt>
<wgt id='6002'>0.32757E+02</wgt>
<wgt id='6003'>0.32833E+02</wgt>
<wgt id='6004'>0.32798E+02</wgt>
<wgt id='6005'>0.32838E+02</wgt>
<wgt id='6006'>0.32789E+02</wgt>
<wgt id='6007'>0.32716E+02</wgt>
<wgt id='6008'>0.32919E+02</wgt>
<wgt id='6009'>0.32968E+02</wgt>
<wgt id='6010'>0.32660E+02</wgt>
<wgt id='6011'>0.32893E+02</wgt>
<wgt id='6012'>0.32639E+02</wgt>
<wgt id='6013'>0.32769E+02</wgt>
<wgt id='6014'>0.32888E+02</wgt>
<wgt id='6015'>0.32726E+02</wgt>
<wgt id='6016'>0.32860E+02</wgt>
<wgt id='6017'>0.32599E+02</wgt>
<wgt id='6018'>0.33066E+02</wgt>
<wgt id='6019'>0.32814E+02</wgt>
<wgt id='6020'>0.32810E+02</wgt>
<wgt id='6021'>0.32739E+02</wgt>
<wgt id='6022'>0.32913E+02</wgt>
<wgt id='6023'>0.32567E+02</wgt>
<wgt id='6024'>0.32986E+02</wgt>
<wgt id='6025'>0.32931E+02</wgt>
<wgt id='6026'>0.32561E+02</wgt>
<wgt id='6027'>0.32908E+02</wgt>
<wgt id='6028'>0.32815E+02</wgt>
<wgt id='6029'>0.32828E+02</wgt>
<wgt id='6030'>0.32790E+02</wgt>
<wgt id='6031'>0.32682E+02</wgt>
<wgt id='6032'>0.32938E+02</wgt>
<wgt id='6033'>0.32913E+02</wgt>
<wgt id='6034'>0.32710E+02</wgt>
<wgt id='6035'>0.32846E+02</wgt>
<wgt id='6036'>0.32799E+02</wgt>
<wgt id='6037'>0.32868E+02</wgt>
<wgt id='6038'>0.32814E+02</wgt>
<wgt id='6039'>0.32739E+02</wgt>
<wgt id='6040'>0.32892E+02</wgt>
<wgt id='6041'>0.32713E+02</wgt>
<wgt id='6042'>0.32932E+02</wgt>
<wgt id='6043'>0.33271E+02</wgt>
<wgt id='6044'>0.32661E+02</wgt>
<wgt id='6045'>0.32782E+02</wgt>
<wgt id='6046'>0.32894E+02</wgt>
<wgt id='6047'>0.33071E+02</wgt>
<wgt id='6048'>0.32517E+02</wgt>
<wgt id='6049'>0.32919E+02</wgt>
<wgt id='6050'>0.32760E+02</wgt>
<wgt id='7000'>0.30761E+02</wgt>
<wgt id='7001'>0.30801E+02</wgt>
<wgt id='7002'>0.30713E+02</wgt>
<wgt id='7003'>0.30834E+02</wgt>
<wgt id='7004'>0.30691E+02</wgt>
<wgt id='7005'>0.30808E+02</wgt>
<wgt id='7006'>0.30744E+02</wgt>
<wgt id='7007'>0.30649E+02</wgt>
<wgt id='7008'>0.30877E+02</wgt>
<wgt id='7009'>0.30833E+02</wgt>
<wgt id='7010'>0.30693E+02</wgt>
<wgt id='7011'>0.30424E+02</wgt>
<wgt id='7012'>0.30909E+02</wgt>
<wgt id='7013'>0.30759E+02</wgt>
<wgt id='7014'>0.30768E+02</wgt>
<wgt id='7015'>0.30661E+02</wgt>
<wgt id='7016'>0.30870E+02</wgt>
<wgt id='7017'>0.30501E+02</wgt>
<wgt id='7018'>0.30902E+02</wgt>
<wgt id='7019'>0.30727E+02</wgt>
<wgt id='7020'>0.30812E+02</wgt>
<wgt id='7021'>0.30774E+02</wgt>
<wgt id='7022'>0.30752E+02</wgt>
<wgt id='7023'>0.30869E+02</wgt>
<wgt id='7024'>0.30629E+02</wgt>
<wgt id='7025'>0.30832E+02</wgt>
<wgt id='7026'>0.30593E+02</wgt>
<wgt id='7027'>0.30860E+02</wgt>
<wgt id='7028'>0.30754E+02</wgt>
<wgt id='7029'>0.30766E+02</wgt>
<wgt id='7030'>0.30709E+02</wgt>
<wgt id='7031'>0.30702E+02</wgt>
<wgt id='7032'>0.30895E+02</wgt>
<wgt id='7033'>0.30773E+02</wgt>
<wgt id='7034'>0.30770E+02</wgt>
<wgt id='7035'>0.30709E+02</wgt>
<wgt id='7036'>0.30809E+02</wgt>
<wgt id='7037'>0.30766E+02</wgt>
<wgt id='7038'>0.30798E+02</wgt>
<wgt id='7039'>0.30675E+02</wgt>
<wgt id='7040'>0.30824E+02</wgt>
<wgt id='7041'>0.30748E+02</wgt>
<wgt id='7042'>0.30792E+02</wgt>
<wgt id='7043'>0.30785E+02</wgt>
<wgt id='7044'>0.30627E+02</wgt>
<wgt id='7045'>0.30502E+02</wgt>
<wgt id='7046'>0.31002E+02</wgt>
<wgt id='7047'>0.30896E+02</wgt>
<wgt id='7048'>0.30713E+02</wgt>
<wgt id='7049'>0.30686E+02</wgt>
<wgt id='7050'>0.30883E+02</wgt>
<wgt id='7060'>0.50016E+02</wgt>
<wgt id='8000'>0.31328E+02</wgt>
<wgt id='8001'>0.31320E+02</wgt>
<wgt id='8002'>0.31337E+02</wgt>
<wgt id='8003'>0.31329E+02</wgt>
<wgt id='8004'>0.31327E+02</wgt>
<wgt id='8005'>0.31251E+02</wgt>
<wgt id='8006'>0.31324E+02</wgt>
<wgt id='8007'>0.31313E+02</wgt>
<wgt id='8008'>0.31392E+02</wgt>
<wgt id='8009'>0.31458E+02</wgt>
<wgt id='8010'>0.31320E+02</wgt>
<wgt id='8011'>0.31319E+02</wgt>
<wgt id='8012'>0.31269E+02</wgt>
<wgt id='8013'>0.31305E+02</wgt>
<wgt id='8014'>0.31344E+02</wgt>
<wgt id='8015'>0.31301E+02</wgt>
<wgt id='8016'>0.31354E+02</wgt>
<wgt id='8017'>0.31353E+02</wgt>
<wgt id='8018'>0.31368E+02</wgt>
<wgt id='8019'>0.31339E+02</wgt>
<wgt id='8020'>0.31301E+02</wgt>
<wgt id='8021'>0.31312E+02</wgt>
<wgt id='8022'>0.31281E+02</wgt>
<wgt id='8023'>0.31307E+02</wgt>
<wgt id='8024'>0.31287E+02</wgt>
<wgt id='8025'>0.31338E+02</wgt>
<wgt id='8026'>0.31370E+02</wgt>
<wgt id='8027'>0.31312E+02</wgt>
<wgt id='8028'>0.31359E+02</wgt>
<wgt id='8029'>0.31225E+02</wgt>
<wgt id='8500'>0.32851E+02</wgt>
<wgt id='8501'>0.32674E+02</wgt>
<wgt id='8502'>0.32810E+02</wgt>
<wgt id='8503'>0.32921E+02</wgt>
<wgt id='8504'>0.32779E+02</wgt>
<wgt id='8505'>0.32950E+02</wgt>
<wgt id='8506'>0.32865E+02</wgt>
<wgt id='8507'>0.32910E+02</wgt>
<wgt id='8508'>0.32735E+02</wgt>
<wgt id='8509'>0.32953E+02</wgt>
<wgt id='8510'>0.33109E+02</wgt>
<wgt id='8511'>0.32843E+02</wgt>
<wgt id='8512'>0.32852E+02</wgt>
<wgt id='8513'>0.32801E+02</wgt>
<wgt id='8514'>0.32546E+02</wgt>
<wgt id='8515'>0.33024E+02</wgt>
<wgt id='8516'>0.32833E+02</wgt>
<wgt id='8517'>0.32734E+02</wgt>
<wgt id='8518'>0.32612E+02</wgt>
<wgt id='8519'>0.32577E+02</wgt>
<wgt id='8520'>0.32854E+02</wgt>
<wgt id='8521'>0.32717E+02</wgt>
<wgt id='8522'>0.32913E+02</wgt>
<wgt id='8523'>0.32731E+02</wgt>
<wgt id='8524'>0.32921E+02</wgt>
<wgt id='8525'>0.32827E+02</wgt>
<wgt id='8526'>0.32762E+02</wgt>
<wgt id='8527'>0.32868E+02</wgt>
<wgt id='8528'>0.32752E+02</wgt>
<wgt id='8529'>0.32847E+02</wgt>
<wgt id='8530'>0.32838E+02</wgt>
<wgt id='8531'>0.32839E+02</wgt>
<wgt id='8532'>0.32852E+02</wgt>
<wgt id='8533'>0.32774E+02</wgt>
<wgt id='8534'>0.32848E+02</wgt>
<wgt id='8535'>0.32927E+02</wgt>
<wgt id='8536'>0.32809E+02</wgt>
<wgt id='8537'>0.32855E+02</wgt>
<wgt id='8538'>0.32825E+02</wgt>
<wgt id='8539'>0.32855E+02</wgt>
<wgt id='8540'>0.32847E+02</wgt>
<wgt id='8541'>0.32872E+02</wgt>
<wgt id='8542'>0.32868E+02</wgt>
<wgt id='8543'>0.32827E+02</wgt>
<wgt id='8544'>0.32879E+02</wgt>
<wgt id='8545'>0.32876E+02</wgt>
<wgt id='8546'>0.32893E+02</wgt>
<wgt id='8547'>0.32817E+02</wgt>
<wgt id='8548'>0.32817E+02</wgt>
<wgt id='8549'>0.32857E+02</wgt>
<wgt id='8550'>0.32849E+02</wgt>
<wgt id='8551'>0.32828E+02</wgt>
<wgt id='8552'>0.32851E+02</wgt>
<wgt id='8553'>0.32828E+02</wgt>
<wgt id='8554'>0.32838E+02</wgt>
<wgt id='8555'>0.32852E+02</wgt>
<wgt id='8556'>0.32844E+02</wgt>
<wgt id='8557'>0.32847E+02</wgt>
<wgt id='8558'>0.32888E+02</wgt>
<wgt id='8559'>0.32834E+02</wgt>
<wgt id='8560'>0.32811E+02</wgt>
<wgt id='8561'>0.32849E+02</wgt>
<wgt id='8562'>0.32826E+02</wgt>
<wgt id='8563'>0.32854E+02</wgt>
<wgt id='8564'>0.32840E+02</wgt>
<wgt id='8565'>0.32854E+02</wgt>
<wgt id='8566'>0.32847E+02</wgt>
<wgt id='8567'>0.32846E+02</wgt>
<wgt id='8568'>0.32865E+02</wgt>
<wgt id='8569'>0.32861E+02</wgt>
<wgt id='8570'>0.32853E+02</wgt>
<wgt id='8571'>0.32831E+02</wgt>
<wgt id='8572'>0.32836E+02</wgt>
<wgt id='8573'>0.32836E+02</wgt>
<wgt id='8574'>0.32858E+02</wgt>
<wgt id='8575'>0.32845E+02</wgt>
<wgt id='8576'>0.32847E+02</wgt>
<wgt id='8577'>0.32850E+02</wgt>
<wgt id='8578'>0.32853E+02</wgt>
<wgt id='8579'>0.32873E+02</wgt>
<wgt id='8580'>0.32851E+02</wgt>
<wgt id='8581'>0.32861E+02</wgt>
<wgt id='8582'>0.32827E+02</wgt>
<wgt id='8583'>0.32865E+02</wgt>
<wgt id='8584'>0.32860E+02</wgt>
<wgt id='8585'>0.32860E+02</wgt>
<wgt id='8586'>0.32869E+02</wgt>
<wgt id='8587'>0.32844E+02</wgt>
<wgt id='8588'>0.32841E+02</wgt>
<wgt id='8589'>0.32852E+02</wgt>
<wgt id='8590'>0.32849E+02</wgt>
<wgt id='8591'>0.32847E+02</wgt>
<wgt id='8592'>0.32850E+02</wgt>
<wgt id='8593'>0.32838E+02</wgt>
<wgt id='8594'>0.32856E+02</wgt>
<wgt id='8595'>0.32855E+02</wgt>
<wgt id='8596'>0.32844E+02</wgt>
<wgt id='8597'>0.32854E+02</wgt>
<wgt id='8598'>0.32858E+02</wgt>
<wgt id='8599'>0.32854E+02</wgt>
<wgt id='8600'>0.32851E+02</wgt>
<wgt id='8601'>0.32227E+02</wgt>
<wgt id='8602'>0.33469E+02</wgt>
<wgt id='9000'>0.31050E+02</wgt>
<wgt id='9001'>0.31076E+02</wgt>
<wgt id='9002'>0.31052E+02</wgt>
<wgt id='9003'>0.31026E+02</wgt>
<wgt id='9004'>0.31096E+02</wgt>
<wgt id='9005'>0.31025E+02</wgt>
<wgt id='9006'>0.31197E+02</wgt>
<wgt id='9007'>0.31257E+02</wgt>
<wgt id='9008'>0.31141E+02</wgt>
<wgt id='9009'>0.31018E+02</wgt>
<wgt id='9010'>0.30979E+02</wgt>
<wgt id='9011'>0.31206E+02</wgt>
<wgt id='9012'>0.30989E+02</wgt>
<wgt id='9013'>0.30962E+02</wgt>
<wgt id='9014'>0.31060E+02</wgt>
<wgt id='9015'>0.31004E+02</wgt>
<wgt id='9016'>0.31267E+02</wgt>
<wgt id='9017'>0.30847E+02</wgt>
<wgt id='9018'>0.31064E+02</wgt>
<wgt id='9019'>0.31090E+02</wgt>
<wgt id='9020'>0.31336E+02</wgt>
<wgt id='9021'>0.31080E+02</wgt>
<wgt id='9022'>0.31114E+02</wgt>
<wgt id='9023'>0.30885E+02</wgt>
<wgt id='9024'>0.30941E+02</wgt>
<wgt id='9025'>0.31176E+02</wgt>
<wgt id='9026'>0.31059E+02</wgt>
<wgt id='9027'>0.31012E+02</wgt>
<wgt id='9028'>0.31098E+02</wgt>
<wgt id='9029'>0.31066E+02</wgt>
<wgt id='9030'>0.31064E+02</wgt>
<wgt id='9031'>0.31034E+02</wgt>
<wgt id='9032'>0.31083E+02</wgt>
<wgt id='9033'>0.31099E+02</wgt>
<wgt id='9034'>0.31040E+02</wgt>
<wgt id='9035'>0.31099E+02</wgt>
<wgt id='9036'>0.31056E+02</wgt>
<wgt id='9037'>0.31085E+02</wgt>
<wgt id='9038'>0.31067E+02</wgt>
<wgt id='9039'>0.31070E+02</wgt>
<wgt id='9040'>0.31011E+02</wgt>
<wgt id='9041'>0.31043E+02</wgt>
<wgt id='9042'>0.31066E+02</wgt>
<wgt id='9043'>0.31018E+02</wgt>
<wgt id='9044'>0.31063E+02</wgt>
<wgt id='9045'>0.31060E+02</wgt>
<wgt id='9046'>0.31008E+02</wgt>
<wgt id='9047'>0.31045E+02</wgt>
<wgt id='9048'>0.31063E+02</wgt>
<wgt id='9049'>0.31032E+02</wgt>
<wgt id='9050'>0.31053E+02</wgt>
<wgt id='9051'>0.31070E+02</wgt>
<wgt id='9052'>0.31067E+02</wgt>
<wgt id='9053'>0.31052E+02</wgt>
<wgt id='9054'>0.31030E+02</wgt>
<wgt id='9055'>0.31035E+02</wgt>
<wgt id='9056'>0.31074E+02</wgt>
<wgt id='9057'>0.31047E+02</wgt>
<wgt id='9058'>0.31024E+02</wgt>
<wgt id='9059'>0.31034E+02</wgt>
<wgt id='9060'>0.31037E+02</wgt>
<wgt id='9061'>0.31052E+02</wgt>
<wgt id='9062'>0.31055E+02</wgt>
<wgt id='9063'>0.31064E+02</wgt>
<wgt id='9064'>0.31045E+02</wgt>
<wgt id='9065'>0.31048E+02</wgt>
<wgt id='9066'>0.31051E+02</wgt>
<wgt id='9067'>0.31059E+02</wgt>
<wgt id='9068'>0.31058E+02</wgt>
<wgt id='9069'>0.31070E+02</wgt>
<wgt id='9070'>0.31045E+02</wgt>
<wgt id='9071'>0.31068E+02</wgt>
<wgt id='9072'>0.31070E+02</wgt>
<wgt id='9073'>0.31042E+02</wgt>
<wgt id='9074'>0.31053E+02</wgt>
<wgt id='9075'>0.31047E+02</wgt>
<wgt id='9076'>0.31045E+02</wgt>
<wgt id='9077'>0.31057E+02</wgt>
<wgt id='9078'>0.31052E+02</wgt>
<wgt id='9079'>0.31044E+02</wgt>
<wgt id='9080'>0.31076E+02</wgt>
<wgt id='9081'>0.31044E+02</wgt>
<wgt id='9082'>0.31056E+02</wgt>
<wgt id='9083'>0.31040E+02</wgt>
<wgt id='9084'>0.31039E+02</wgt>
<wgt id='9085'>0.31040E+02</wgt>
<wgt id='9086'>0.31053E+02</wgt>
<wgt id='9087'>0.31029E+02</wgt>
<wgt id='9088'>0.31043E+02</wgt>
<wgt id='9089'>0.31043E+02</wgt>
<wgt id='9090'>0.31056E+02</wgt>
<wgt id='9091'>0.31046E+02</wgt>
<wgt id='9092'>0.31049E+02</wgt>
<wgt id='9093'>0.31044E+02</wgt>
<wgt id='9094'>0.31047E+02</wgt>
<wgt id='9095'>0.31052E+02</wgt>
<wgt id='9096'>0.31042E+02</wgt>
<wgt id='9097'>0.31052E+02</wgt>
<wgt id='9098'>0.31049E+02</wgt>
<wgt id='9099'>0.31043E+02</wgt>
<wgt id='9100'>0.31049E+02</wgt>
<wgt id='9101'>0.30558E+02</wgt>
<wgt id='9102'>0.31598E+02</wgt>
<wgt id='10000'>0.32847E+02</wgt>
<wgt id='10001'>0.32937E+02</wgt>
<wgt id='10002'>0.32630E+02</wgt>
<wgt id='10003'>0.32836E+02</wgt>
<wgt id='10004'>0.32634E+02</wgt>
<wgt id='10005'>0.32981E+02</wgt>
<wgt id='10006'>0.32721E+02</wgt>
<wgt id='10007'>0.32841E+02</wgt>
<wgt id='10008'>0.32915E+02</wgt>
<wgt id='10009'>0.32764E+02</wgt>
<wgt id='10010'>0.32907E+02</wgt>
<wgt id='10011'>0.32761E+02</wgt>
<wgt id='10012'>0.32736E+02</wgt>
<wgt id='10013'>0.32851E+02</wgt>
<wgt id='10014'>0.32831E+02</wgt>
<wgt id='10015'>0.32898E+02</wgt>
<wgt id='10016'>0.32777E+02</wgt>
<wgt id='10017'>0.32639E+02</wgt>
<wgt id='10018'>0.32921E+02</wgt>
<wgt id='10019'>0.32757E+02</wgt>
<wgt id='10020'>0.32745E+02</wgt>
<wgt id='10021'>0.32803E+02</wgt>
<wgt id='10022'>0.32767E+02</wgt>
<wgt id='10023'>0.32872E+02</wgt>
<wgt id='10024'>0.32819E+02</wgt>
<wgt id='10025'>0.32823E+02</wgt>
<wgt id='10026'>0.32997E+02</wgt>
<wgt id='10027'>0.32927E+02</wgt>
<wgt id='10028'>0.33330E+02</wgt>
<wgt id='10029'>0.32872E+02</wgt>
<wgt id='10030'>0.32837E+02</wgt>
<wgt id='10031'>0.32227E+02</wgt>
<wgt id='10032'>0.33469E+02</wgt>
<wgt id='11000'>0.31047E+02</wgt>
<wgt id='11001'>0.30594E+02</wgt>
<wgt id='11002'>0.31048E+02</wgt>
<wgt id='11003'>0.31021E+02</wgt>
<wgt id='11004'>0.30997E+02</wgt>
<wgt id='11005'>0.30928E+02</wgt>
<wgt id='11006'>0.31053E+02</wgt>
<wgt id='11007'>0.31016E+02</wgt>
<wgt id='11008'>0.30985E+02</wgt>
<wgt id='11009'>0.31008E+02</wgt>
<wgt id='11010'>0.31405E+02</wgt>
<wgt id='11011'>0.31000E+02</wgt>
<wgt id='11012'>0.31045E+02</wgt>
<wgt id='11013'>0.31082E+02</wgt>
<wgt id='11014'>0.31025E+02</wgt>
<wgt id='11015'>0.31031E+02</wgt>
<wgt id='11016'>0.31047E+02</wgt>
<wgt id='11017'>0.31113E+02</wgt>
<wgt id='11018'>0.31044E+02</wgt>
<wgt id='11019'>0.31049E+02</wgt>
<wgt id='11020'>0.31065E+02</wgt>
<wgt id='11021'>0.31067E+02</wgt>
<wgt id='11022'>0.31191E+02</wgt>
<wgt id='11023'>0.31049E+02</wgt>
<wgt id='11024'>0.31052E+02</wgt>
<wgt id='11025'>0.31034E+02</wgt>
<wgt id='11026'>0.31049E+02</wgt>
<wgt id='11027'>0.31046E+02</wgt>
<wgt id='11028'>0.31054E+02</wgt>
<wgt id='11029'>0.31039E+02</wgt>
<wgt id='11030'>0.31044E+02</wgt>
<wgt id='11031'>0.30558E+02</wgt>
<wgt id='11032'>0.31598E+02</wgt>
<wgt id='12000'>0.32758E+02</wgt>
<wgt id='12001'>0.32716E+02</wgt>
<wgt id='12002'>0.32800E+02</wgt>
<wgt id='12003'>0.32841E+02</wgt>
<wgt id='12004'>0.32675E+02</wgt>
<wgt id='12005'>0.32796E+02</wgt>
<wgt id='12006'>0.32720E+02</wgt>
<wgt id='12007'>0.32837E+02</wgt>
<wgt id='12008'>0.32681E+02</wgt>
<wgt id='12009'>0.32776E+02</wgt>
<wgt id='12010'>0.32741E+02</wgt>
<wgt id='12011'>0.32569E+02</wgt>
<wgt id='12012'>0.32944E+02</wgt>
<wgt id='12013'>0.32670E+02</wgt>
<wgt id='12014'>0.32846E+02</wgt>
<wgt id='12015'>0.32860E+02</wgt>
<wgt id='12016'>0.32676E+02</wgt>
<wgt id='12017'>0.32877E+02</wgt>
<wgt id='12018'>0.32628E+02</wgt>
<wgt id='12019'>0.32814E+02</wgt>
<wgt id='12020'>0.32704E+02</wgt>
<wgt id='12021'>0.32837E+02</wgt>
<wgt id='12022'>0.32647E+02</wgt>
<wgt id='12023'>0.32461E+02</wgt>
<wgt id='12024'>0.32918E+02</wgt>
<wgt id='12025'>0.32629E+02</wgt>
<wgt id='12026'>0.32929E+02</wgt>
<wgt id='12027'>0.33079E+02</wgt>
<wgt id='12028'>0.32478E+02</wgt>
<wgt id='12050'>0.32758E+02</wgt>
<wgt id='12051'>0.32798E+02</wgt>
<wgt id='12052'>0.32668E+02</wgt>
<wgt id='12053'>0.32790E+02</wgt>
<wgt id='12054'>0.32700E+02</wgt>
<wgt id='12055'>0.32812E+02</wgt>
<wgt id='12056'>0.32945E+02</wgt>
<wgt id='12057'>0.32709E+02</wgt>
<wgt id='12058'>0.32823E+02</wgt>
<wgt id='12059'>0.32802E+02</wgt>
<wgt id='12060'>0.32733E+02</wgt>
<wgt id='12061'>0.32592E+02</wgt>
<wgt id='12062'>0.32852E+02</wgt>
<wgt id='12063'>0.32717E+02</wgt>
<wgt id='13000'>0.31934E+02</wgt>
<wgt id='13001'>0.31908E+02</wgt>
<wgt id='13002'>0.31954E+02</wgt>
<wgt id='13003'>0.31986E+02</wgt>
<wgt id='13004'>0.31875E+02</wgt>
<wgt id='13005'>0.32000E+02</wgt>
<wgt id='13006'>0.31861E+02</wgt>
<wgt id='13007'>0.32057E+02</wgt>
<wgt id='13008'>0.31807E+02</wgt>
<wgt id='13009'>0.31860E+02</wgt>
<wgt id='13010'>0.32002E+02</wgt>
<wgt id='13011'>0.32039E+02</wgt>
<wgt id='13012'>0.31823E+02</wgt>
<wgt id='13013'>0.31864E+02</wgt>
<wgt id='13014'>0.31999E+02</wgt>
<wgt id='13015'>0.31962E+02</wgt>
<wgt id='13016'>0.31923E+02</wgt>
<wgt id='13017'>0.31906E+02</wgt>
<wgt id='13018'>0.31951E+02</wgt>
<wgt id='13019'>0.31930E+02</wgt>
<wgt id='13020'>0.31931E+02</wgt>
<wgt id='13021'>0.31918E+02</wgt>
<wgt id='13022'>0.31903E+02</wgt>
<wgt id='13023'>0.31762E+02</wgt>
<wgt id='13024'>0.32095E+02</wgt>
<wgt id='13025'>0.31606E+02</wgt>
<wgt id='13026'>0.32178E+02</wgt>
<wgt id='13027'>0.31828E+02</wgt>
<wgt id='13028'>0.32072E+02</wgt>
<wgt id='13050'>0.31934E+02</wgt>
<wgt id='13051'>0.31964E+02</wgt>
<wgt id='13052'>0.31757E+02</wgt>
<wgt id='13053'>0.31942E+02</wgt>
<wgt id='13054'>0.31912E+02</wgt>
<wgt id='13055'>0.31441E+02</wgt>
<wgt id='13056'>0.32029E+02</wgt>
<wgt id='13057'>0.31863E+02</wgt>
<wgt id='13058'>0.32069E+02</wgt>
<wgt id='13059'>0.31903E+02</wgt>
<wgt id='13060'>0.31367E+02</wgt>
<wgt id='13061'>0.31867E+02</wgt>
<wgt id='13062'>0.32153E+02</wgt>
<wgt id='13063'>0.32076E+02</wgt>
<wgt id='14000'>0.32376E+02</wgt>
<wgt id='14001'>0.32371E+02</wgt>
<wgt id='14002'>0.32366E+02</wgt>
<wgt id='14003'>0.32361E+02</wgt>
<wgt id='14004'>0.32357E+02</wgt>
<wgt id='14005'>0.32352E+02</wgt>
<wgt id='14006'>0.32347E+02</wgt>
<wgt id='14007'>0.32343E+02</wgt>
<wgt id='14008'>0.32338E+02</wgt>
<wgt id='14009'>0.32333E+02</wgt>
<wgt id='14010'>0.32328E+02</wgt>
<wgt id='14011'>0.32324E+02</wgt>
<wgt id='14012'>0.32319E+02</wgt>
<wgt id='14013'>0.32314E+02</wgt>
<wgt id='14014'>0.32310E+02</wgt>
<wgt id='14015'>0.32305E+02</wgt>
<wgt id='14016'>0.32300E+02</wgt>
<wgt id='14017'>0.32296E+02</wgt>
<wgt id='14018'>0.32291E+02</wgt>
<wgt id='14019'>0.32286E+02</wgt>
<wgt id='14020'>0.32281E+02</wgt>
<wgt id='14021'>0.32277E+02</wgt>
<wgt id='14022'>0.32272E+02</wgt>
<wgt id='14023'>0.32267E+02</wgt>
<wgt id='14024'>0.32263E+02</wgt>
<wgt id='14025'>0.32258E+02</wgt>
<wgt id='14026'>0.32253E+02</wgt>
<wgt id='14027'>0.32248E+02</wgt>
<wgt id='14028'>0.32244E+02</wgt>
<wgt id='14029'>0.32239E+02</wgt>
<wgt id='14030'>0.32234E+02</wgt>
<wgt id='15000'>0.30595E+02</wgt>
<wgt id='15001'>0.30614E+02</wgt>
<wgt id='15002'>0.30590E+02</wgt>
<wgt id='15003'>0.30577E+02</wgt>
<wgt id='15004'>0.30640E+02</wgt>
<wgt id='15005'>0.30573E+02</wgt>
<wgt id='15006'>0.30748E+02</wgt>
<wgt id='15007'>0.30802E+02</wgt>
<wgt id='15008'>0.30684E+02</wgt>
<wgt id='15009'>0.30566E+02</wgt>
<wgt id='15010'>0.30527E+02</wgt>
<wgt id='15011'>0.30754E+02</wgt>
<wgt id='15012'>0.30539E+02</wgt>
<wgt id='15013'>0.30519E+02</wgt>
<wgt id='15014'>0.30600E+02</wgt>
<wgt id='15015'>0.30531E+02</wgt>
<wgt id='15016'>0.30815E+02</wgt>
<wgt id='15017'>0.30391E+02</wgt>
<wgt id='15018'>0.30607E+02</wgt>
<wgt id='15019'>0.30641E+02</wgt>
<wgt id='15020'>0.30886E+02</wgt>
<wgt id='15021'>0.30618E+02</wgt>
<wgt id='15022'>0.30659E+02</wgt>
<wgt id='15023'>0.30433E+02</wgt>
<wgt id='15024'>0.30482E+02</wgt>
<wgt id='15025'>0.30714E+02</wgt>
<wgt id='15026'>0.30597E+02</wgt>
<wgt id='15027'>0.30564E+02</wgt>
<wgt id='15028'>0.30646E+02</wgt>
<wgt id='15029'>0.30607E+02</wgt>
<wgt id='15030'>0.30605E+02</wgt>
<wgt id='15031'>0.30588E+02</wgt>
<wgt id='15032'>0.30626E+02</wgt>
<wgt id='15033'>0.30642E+02</wgt>
<wgt id='15034'>0.30583E+02</wgt>
<wgt id='15035'>0.30642E+02</wgt>
<wgt id='15036'>0.30600E+02</wgt>
<wgt id='15037'>0.30631E+02</wgt>
<wgt id='15038'>0.30611E+02</wgt>
<wgt id='15039'>0.30612E+02</wgt>
<wgt id='15040'>0.30556E+02</wgt>
<wgt id='15041'>0.30585E+02</wgt>
<wgt id='15042'>0.30608E+02</wgt>
<wgt id='15043'>0.30568E+02</wgt>
<wgt id='15044'>0.30607E+02</wgt>
<wgt id='15045'>0.30603E+02</wgt>
<wgt id='15046'>0.30556E+02</wgt>
<wgt id='15047'>0.30587E+02</wgt>
<wgt id='15048'>0.30609E+02</wgt>
<wgt id='15049'>0.30575E+02</wgt>
<wgt id='15050'>0.30599E+02</wgt>
<wgt id='15051'>0.30615E+02</wgt>
<wgt id='15052'>0.30611E+02</wgt>
<wgt id='15053'>0.30598E+02</wgt>
<wgt id='15054'>0.30576E+02</wgt>
<wgt id='15055'>0.30581E+02</wgt>
<wgt id='15056'>0.30616E+02</wgt>
<wgt id='15057'>0.30591E+02</wgt>
<wgt id='15058'>0.30572E+02</wgt>
<wgt id='15059'>0.30581E+02</wgt>
<wgt id='15060'>0.30583E+02</wgt>
<wgt id='15061'>0.30597E+02</wgt>
<wgt id='15062'>0.30599E+02</wgt>
<wgt id='15063'>0.30609E+02</wgt>
<wgt id='15064'>0.30590E+02</wgt>
<wgt id='15065'>0.30593E+02</wgt>
<wgt id='15066'>0.30596E+02</wgt>
<wgt id='15067'>0.30603E+02</wgt>
<wgt id='15068'>0.30603E+02</wgt>
<wgt id='15069'>0.30614E+02</wgt>
<wgt id='15070'>0.30590E+02</wgt>
<wgt id='15071'>0.30614E+02</wgt>
<wgt id='15072'>0.30615E+02</wgt>
<wgt id='15073'>0.30586E+02</wgt>
<wgt id='15074'>0.30598E+02</wgt>
<wgt id='15075'>0.30591E+02</wgt>
<wgt id='15076'>0.30592E+02</wgt>
<wgt id='15077'>0.30602E+02</wgt>
<wgt id='15078'>0.30598E+02</wgt>
<wgt id='15079'>0.30588E+02</wgt>
<wgt id='15080'>0.30618E+02</wgt>
<wgt id='15081'>0.30590E+02</wgt>
<wgt id='15082'>0.30601E+02</wgt>
<wgt id='15083'>0.30584E+02</wgt>
<wgt id='15084'>0.30583E+02</wgt>
<wgt id='15085'>0.30586E+02</wgt>
<wgt id='15086'>0.30599E+02</wgt>
<wgt id='15087'>0.30573E+02</wgt>
<wgt id='15088'>0.30587E+02</wgt>
<wgt id='15089'>0.30587E+02</wgt>
<wgt id='15090'>0.30601E+02</wgt>
<wgt id='15091'>0.30590E+02</wgt>
<wgt id='15092'>0.30593E+02</wgt>
<wgt id='15093'>0.30589E+02</wgt>
<wgt id='15094'>0.30591E+02</wgt>
<wgt id='15095'>0.30597E+02</wgt>
<wgt id='15096'>0.30587E+02</wgt>
<wgt id='15097'>0.30597E+02</wgt>
<wgt id='15098'>0.30594E+02</wgt>
<wgt id='15099'>0.30588E+02</wgt>
<wgt id='15100'>0.30594E+02</wgt>
<wgt id='15101'>0.30594E+02</wgt>
<wgt id='15102'>0.30592E+02</wgt>
<wgt id='15103'>0.30595E+02</wgt>
<wgt id='15104'>0.30595E+02</wgt>
<wgt id='15105'>0.30596E+02</wgt>
<wgt id='15106'>0.30595E+02</wgt>
<wgt id='15107'>0.30593E+02</wgt>
<wgt id='1500'>0.33142E+02</wgt>
<wgt id='1501'>0.31821E+02</wgt>
<wgt id='1502'>0.33165E+02</wgt>
<wgt id='1503'>0.34216E+02</wgt>
<wgt id='1504'>0.32193E+02</wgt>
<wgt id='1505'>0.31766E+02</wgt>
<wgt id='1506'>0.33579E+02</wgt>
<wgt id='1507'>0.33101E+02</wgt>
<wgt id='1508'>0.33073E+02</wgt>
<wgt id='1509'>0.33814E+02</wgt>
<wgt id='1510'>0.33291E+02</wgt>
<wgt id='1511'>0.32445E+02</wgt>
<wgt id='1512'>0.33397E+02</wgt>
<wgt id='1513'>0.32553E+02</wgt>
<wgt id='1514'>0.33653E+02</wgt>
<wgt id='1515'>0.33738E+02</wgt>
<wgt id='1516'>0.33375E+02</wgt>
<wgt id='1517'>0.33450E+02</wgt>
<wgt id='1518'>0.33132E+02</wgt>
<wgt id='1519'>0.33230E+02</wgt>
<wgt id='1520'>0.34239E+02</wgt>
<wgt id='1521'>0.33446E+02</wgt>
<wgt id='1522'>0.33148E+02</wgt>
<wgt id='1523'>0.34408E+02</wgt>
<wgt id='1524'>0.33534E+02</wgt>
<wgt id='1525'>0.32873E+02</wgt>
<wgt id='1526'>0.33024E+02</wgt>
<wgt id='1527'>0.32889E+02</wgt>
<wgt id='1528'>0.33212E+02</wgt>
<wgt id='1529'>0.33899E+02</wgt>
<wgt id='1530'>0.34122E+02</wgt>
<wgt id='1531'>0.33065E+02</wgt>
<wgt id='1532'>0.32644E+02</wgt>
<wgt id='1533'>0.32463E+02</wgt>
<wgt id='1534'>0.33487E+02</wgt>
<wgt id='1535'>0.33928E+02</wgt>
<wgt id='1536'>0.32600E+02</wgt>
<wgt id='1537'>0.33683E+02</wgt>
<wgt id='1538'>0.32633E+02</wgt>
<wgt id='1539'>0.32447E+02</wgt>
<wgt id='1540'>0.32868E+02</wgt>
<wgt id='1541'>0.32917E+02</wgt>
<wgt id='1542'>0.32958E+02</wgt>
<wgt id='1543'>0.33016E+02</wgt>
<wgt id='1544'>0.33642E+02</wgt>
<wgt id='1545'>0.33627E+02</wgt>
<wgt id='1546'>0.33485E+02</wgt>
<wgt id='1547'>0.32765E+02</wgt>
<wgt id='1548'>0.32969E+02</wgt>
<wgt id='1549'>0.32924E+02</wgt>
<wgt id='1550'>0.32844E+02</wgt>
<wgt id='1551'>0.33096E+02</wgt>
<wgt id='1552'>0.32971E+02</wgt>
<wgt id='1553'>0.33992E+02</wgt>
<wgt id='1554'>0.32419E+02</wgt>
<wgt id='1555'>0.32618E+02</wgt>
<wgt id='1556'>0.33251E+02</wgt>
<wgt id='1557'>0.32639E+02</wgt>
<wgt id='1558'>0.32919E+02</wgt>
<wgt id='1559'>0.34241E+02</wgt>
<wgt id='1560'>0.32861E+02</wgt>
<wgt id='1561'>0.32848E+02</wgt>
<wgt id='1562'>0.33887E+02</wgt>
<wgt id='1563'>0.32652E+02</wgt>
<wgt id='1564'>0.33086E+02</wgt>
<wgt id='1565'>0.32888E+02</wgt>
<wgt id='1566'>0.33441E+02</wgt>
<wgt id='1567'>0.34827E+02</wgt>
<wgt id='1568'>0.33033E+02</wgt>
<wgt id='1569'>0.32098E+02</wgt>
<wgt id='1570'>0.32558E+02</wgt>
<wgt id='1571'>0.32678E+02</wgt>
<wgt id='1572'>0.33474E+02</wgt>
<wgt id='1573'>0.31669E+02</wgt>
<wgt id='1574'>0.34170E+02</wgt>
<wgt id='1575'>0.32727E+02</wgt>
<wgt id='1576'>0.33112E+02</wgt>
<wgt id='1577'>0.33111E+02</wgt>
<wgt id='1578'>0.33248E+02</wgt>
<wgt id='1579'>0.32630E+02</wgt>
<wgt id='1580'>0.32750E+02</wgt>
<wgt id='1581'>0.33416E+02</wgt>
<wgt id='1582'>0.32362E+02</wgt>
<wgt id='1583'>0.34079E+02</wgt>
<wgt id='1584'>0.32929E+02</wgt>
<wgt id='1585'>0.33167E+02</wgt>
<wgt id='1586'>0.32985E+02</wgt>
<wgt id='1587'>0.33765E+02</wgt>
<wgt id='1588'>0.32920E+02</wgt>
<wgt id='1589'>0.33764E+02</wgt>
<wgt id='1590'>0.32972E+02</wgt>
<wgt id='1591'>0.32609E+02</wgt>
<wgt id='1592'>0.32585E+02</wgt>
<wgt id='1593'>0.33117E+02</wgt>
<wgt id='1594'>0.34229E+02</wgt>
<wgt id='1595'>0.33181E+02</wgt>
<wgt id='1596'>0.33174E+02</wgt>
<wgt id='1597'>0.32879E+02</wgt>
<wgt id='1598'>0.33050E+02</wgt>
<wgt id='1599'>0.32991E+02</wgt>
<wgt id='1600'>0.33245E+02</wgt>
<wgt id='1601'>0.32647E+02</wgt>
<wgt id='1602'>0.33396E+02</wgt>
<wgt id='1700'>0.31412E+02</wgt>
<wgt id='1800'>0.38375E+02</wgt>
<wgt id='1850'>0.46195E+02</wgt>
<wgt id='1900'>0.41440E+02</wgt>
<wgt id='1950'>0.46394E+02</wgt>
</rwgt>
</event>
<event>
      4   9999  3.15120E+01  8.80128E+00 -1.00000E+00  1.98065E-01
      21    -1     0     0   502   501  0.000000000E+00  0.000000000E+00  4.031171594E+01  4.031171594E+01  0.000000000E+00  0.00000E+00  9.000E+00
      21    -1     0     0   511   502  0.000000000E+00  0.000000000E+00 -1.458907982E+02  1.458907982E+02  0.000000000E+00  0.00000E+00  9.000E+00
      25     1     1     2     0     0  3.139923657E+00  8.222124998E+00 -5.060596305E+01  1.305293043E+02  1.199978055E+02  0.00000E+00  9.000E+00
      21     1     1     2   511   501 -3.139923657E+00 -8.222124998E+00 -5.497311917E+01  5.567320981E+01  6.743495762E-07  0.00000E+00  9.000E+00
#rwgt            1           1   26.726113828153220                2        4461           0
<rwgt>
<wgt id='1001'>0.31512E+02</wgt>
<wgt id='1002'>0.34725E+02</wgt>
<wgt id='1003'>0.28087E+02</wgt>
<wgt id='1004'>0.26859E+02</wgt>
<wgt id='1005'>0.29438E+02</wgt>
<wgt id='1006'>0.24061E+02</wgt>
<wgt id='1007'>0.37478E+02</wgt>
<wgt id='1008'>0.41589E+02</wgt>
<wgt id='1009'>0.33182E+02</wgt>
<wgt id='2000'>0.31512E+02</wgt>
<wgt id='2001'>0.31477E+02</wgt>
<wgt id='2002'>0.31652E+02</wgt>
<wgt id='2003'>0.31640E+02</wgt>
<wgt id='2004'>0.31547E+02</wgt>
<wgt id='2005'>0.31430E+02</wgt>
<wgt id='2006'>0.31422E+02</wgt>
<wgt id='2007'>0.31381E+02</wgt>
<wgt id='2008'>0.31462E+02</wgt>
<wgt id='2009'>0.31542E+02</wgt>
<wgt id='2010'>0.31485E+02</wgt>
<wgt id='2011'>0.31677E+02</wgt>
<wgt id='2012'>0.31695E+02</wgt>
<wgt id='2013'>0.31810E+02</wgt>
<wgt id='2014'>0.31625E+02</wgt>
<wgt id='2015'>0.31577E+02</wgt>
<wgt id='2016'>0.31432E+02</wgt>
<wgt id='2017'>0.31509E+02</wgt>
<wgt id='2018'>0.31631E+02</wgt>
<wgt id='2019'>0.31496E+02</wgt>
<wgt id='2020'>0.31589E+02</wgt>
<wgt id='2021'>0.31472E+02</wgt>
<wgt id='2022'>0.31524E+02</wgt>
<wgt id='2023'>0.31533E+02</wgt>
<wgt id='2024'>0.31531E+02</wgt>
<wgt id='2025'>0.31513E+02</wgt>
<wgt id='2026'>0.31510E+02</wgt>
<wgt id='2027'>0.31500E+02</wgt>
<wgt id='2028'>0.31505E+02</wgt>
<wgt id='2029'>0.31538E+02</wgt>
<wgt id='2030'>0.31521E+02</wgt>
<wgt id='2031'>0.31521E+02</wgt>
<wgt id='2032'>0.31511E+02</wgt>
<wgt id='2033'>0.31517E+02</wgt>
<wgt id='2034'>0.31526E+02</wgt>
<wgt id='2035'>0.31507E+02</wgt>
<wgt id='2036'>0.31515E+02</wgt>
<wgt id='2037'>0.31522E+02</wgt>
<wgt id='2038'>0.31509E+02</wgt>
<wgt id='2039'>0.31501E+02</wgt>
<wgt id='2040'>0.31512E+02</wgt>
<wgt id='2041'>0.31511E+02</wgt>
<wgt id='2042'>0.31504E+02</wgt>
<wgt id='2043'>0.31511E+02</wgt>
<wgt id='2044'>0.31521E+02</wgt>
<wgt id='2045'>0.31511E+02</wgt>
<wgt id='2046'>0.31522E+02</wgt>
<wgt id='2047'>0.31521E+02</wgt>
<wgt id='2048'>0.31509E+02</wgt>
<wgt id='2049'>0.31512E+02</wgt>
<wgt id='2050'>0.31519E+02</wgt>
<wgt id='2051'>0.31521E+02</wgt>
<wgt id='2052'>0.31510E+02</wgt>
<wgt id='2053'>0.31514E+02</wgt>
<wgt id='2054'>0.31513E+02</wgt>
<wgt id='2055'>0.31512E+02</wgt>
<wgt id='2056'>0.31512E+02</wgt>
<wgt id='2057'>0.31516E+02</wgt>
<wgt id='2058'>0.31518E+02</wgt>
<wgt id='2059'>0.31508E+02</wgt>
<wgt id='2060'>0.31514E+02</wgt>
<wgt id='2061'>0.31506E+02</wgt>
<wgt id='2062'>0.31510E+02</wgt>
<wgt id='2063'>0.31514E+02</wgt>
<wgt id='2064'>0.31504E+02</wgt>
<wgt id='2065'>0.31513E+02</wgt>
<wgt id='2066'>0.31505E+02</wgt>
<wgt id='2067'>0.31513E+02</wgt>
<wgt id='2068'>0.31514E+02</wgt>
<wgt id='2069'>0.31510E+02</wgt>
<wgt id='2070'>0.31511E+02</wgt>
<wgt id='2071'>0.31504E+02</wgt>
<wgt id='2072'>0.31514E+02</wgt>
<wgt id='2073'>0.31512E+02</wgt>
<wgt id='2074'>0.31508E+02</wgt>
<wgt id='2075'>0.31511E+02</wgt>
<wgt id='2076'>0.31510E+02</wgt>
<wgt id='2077'>0.31509E+02</wgt>
<wgt id='2078'>0.31514E+02</wgt>
<wgt id='2079'>0.31514E+02</wgt>
<wgt id='2080'>0.31512E+02</wgt>
<wgt id='2081'>0.31515E+02</wgt>
<wgt id='2082'>0.31512E+02</wgt>
<wgt id='2083'>0.31511E+02</wgt>
<wgt id='2084'>0.31512E+02</wgt>
<wgt id='2085'>0.31512E+02</wgt>
<wgt id='2086'>0.31509E+02</wgt>
<wgt id='2087'>0.31510E+02</wgt>
<wgt id='2088'>0.31513E+02</wgt>
<wgt id='2089'>0.31511E+02</wgt>
<wgt id='2090'>0.31513E+02</wgt>
<wgt id='2091'>0.31510E+02</wgt>
<wgt id='2092'>0.31514E+02</wgt>
<wgt id='2093'>0.31511E+02</wgt>
<wgt id='2094'>0.31515E+02</wgt>
<wgt id='2095'>0.31511E+02</wgt>
<wgt id='2096'>0.31511E+02</wgt>
<wgt id='2097'>0.31513E+02</wgt>
<wgt id='2098'>0.31512E+02</wgt>
<wgt id='2099'>0.31513E+02</wgt>
<wgt id='2100'>0.31512E+02</wgt>
<wgt id='2101'>0.30734E+02</wgt>
<wgt id='2102'>0.32180E+02</wgt>
<wgt id='2104'>0.27949E+02</wgt>
<wgt id='2105'>0.28550E+02</wgt>
<wgt id='2106'>0.29268E+02</wgt>
<wgt id='2107'>0.30065E+02</wgt>
<wgt id='2108'>0.31212E+02</wgt>
<wgt id='2109'>0.31938E+02</wgt>
<wgt id='2110'>0.32863E+02</wgt>
<wgt id='2111'>0.33586E+02</wgt>
<wgt id='3000'>0.32855E+02</wgt>
<wgt id='3001'>0.32979E+02</wgt>
<wgt id='3002'>0.32714E+02</wgt>
<wgt id='3003'>0.32987E+02</wgt>
<wgt id='3004'>0.32928E+02</wgt>
<wgt id='3005'>0.33018E+02</wgt>
<wgt id='3006'>0.32907E+02</wgt>
<wgt id='3007'>0.32925E+02</wgt>
<wgt id='3008'>0.32752E+02</wgt>
<wgt id='3009'>0.32808E+02</wgt>
<wgt id='3010'>0.32726E+02</wgt>
<wgt id='3011'>0.32940E+02</wgt>
<wgt id='3012'>0.33105E+02</wgt>
<wgt id='3013'>0.32573E+02</wgt>
<wgt id='3014'>0.32991E+02</wgt>
<wgt id='3015'>0.32989E+02</wgt>
<wgt id='3016'>0.32869E+02</wgt>
<wgt id='3017'>0.33001E+02</wgt>
<wgt id='3018'>0.32889E+02</wgt>
<wgt id='3019'>0.32750E+02</wgt>
<wgt id='3020'>0.32847E+02</wgt>
<wgt id='3021'>0.32789E+02</wgt>
<wgt id='3022'>0.32850E+02</wgt>
<wgt id='3023'>0.32831E+02</wgt>
<wgt id='3024'>0.32868E+02</wgt>
<wgt id='3025'>0.32862E+02</wgt>
<wgt id='3026'>0.32853E+02</wgt>
<wgt id='3027'>0.32868E+02</wgt>
<wgt id='3028'>0.32846E+02</wgt>
<wgt id='3029'>0.32861E+02</wgt>
<wgt id='3030'>0.32882E+02</wgt>
<wgt id='3031'>0.32866E+02</wgt>
<wgt id='3032'>0.32852E+02</wgt>
<wgt id='3033'>0.32864E+02</wgt>
<wgt id='3034'>0.32858E+02</wgt>
<wgt id='3035'>0.32880E+02</wgt>
<wgt id='3036'>0.32864E+02</wgt>
<wgt id='3037'>0.32855E+02</wgt>
<wgt id='3038'>0.32857E+02</wgt>
<wgt id='3039'>0.32852E+02</wgt>
<wgt id='3040'>0.32849E+02</wgt>
<wgt id='3041'>0.32859E+02</wgt>
<wgt id='3042'>0.32847E+02</wgt>
<wgt id='3043'>0.32848E+02</wgt>
<wgt id='3044'>0.32859E+02</wgt>
<wgt id='3045'>0.32865E+02</wgt>
<wgt id='3046'>0.32863E+02</wgt>
<wgt id='3047'>0.32853E+02</wgt>
<wgt id='3048'>0.32859E+02</wgt>
<wgt id='3049'>0.32852E+02</wgt>
<wgt id='3050'>0.32853E+02</wgt>
<wgt id='3051'>0.32867E+02</wgt>
<wgt id='3052'>0.32850E+02</wgt>
<wgt id='3053'>0.32852E+02</wgt>
<wgt id='3054'>0.32852E+02</wgt>
<wgt id='3055'>0.32848E+02</wgt>
<wgt id='3056'>0.32859E+02</wgt>
<wgt id='3057'>0.32849E+02</wgt>
<wgt id='3058'>0.32849E+02</wgt>
<wgt id='3059'>0.32856E+02</wgt>
<wgt id='3060'>0.32857E+02</wgt>
<wgt id='3061'>0.32857E+02</wgt>
<wgt id='3062'>0.32862E+02</wgt>
<wgt id='3063'>0.32863E+02</wgt>
<wgt id='3064'>0.32853E+02</wgt>
<wgt id='3065'>0.32858E+02</wgt>
<wgt id='3066'>0.32858E+02</wgt>
<wgt id='3067'>0.32849E+02</wgt>
<wgt id='3068'>0.32854E+02</wgt>
<wgt id='3069'>0.32852E+02</wgt>
<wgt id='3070'>0.32856E+02</wgt>
<wgt id='3071'>0.32855E+02</wgt>
<wgt id='3072'>0.32859E+02</wgt>
<wgt id='3073'>0.32850E+02</wgt>
<wgt id='3074'>0.32863E+02</wgt>
<wgt id='3075'>0.32860E+02</wgt>
<wgt id='3076'>0.32849E+02</wgt>
<wgt id='3077'>0.32853E+02</wgt>
<wgt id='3078'>0.32859E+02</wgt>
<wgt id='3079'>0.32852E+02</wgt>
<wgt id='3080'>0.32858E+02</wgt>
<wgt id='3081'>0.32854E+02</wgt>
<wgt id='3082'>0.32854E+02</wgt>
<wgt id='3083'>0.32854E+02</wgt>
<wgt id='3084'>0.32853E+02</wgt>
<wgt id='3085'>0.32853E+02</wgt>
<wgt id='3086'>0.32854E+02</wgt>
<wgt id='3087'>0.32855E+02</wgt>
<wgt id='3088'>0.32856E+02</wgt>
<wgt id='3089'>0.32855E+02</wgt>
<wgt id='3090'>0.32857E+02</wgt>
<wgt id='3091'>0.32855E+02</wgt>
<wgt id='3092'>0.32856E+02</wgt>
<wgt id='3093'>0.32856E+02</wgt>
<wgt id='3094'>0.32858E+02</wgt>
<wgt id='3095'>0.32855E+02</wgt>
<wgt id='3096'>0.32852E+02</wgt>
<wgt id='3097'>0.32853E+02</wgt>
<wgt id='3098'>0.32854E+02</wgt>
<wgt id='3099'>0.32856E+02</wgt>
<wgt id='3100'>0.32856E+02</wgt>
<wgt id='3101'>0.32081E+02</wgt>
<wgt id='3102'>0.33752E+02</wgt>
<wgt id='5000'>0.30646E+02</wgt>
<wgt id='5001'>0.30514E+02</wgt>
<wgt id='5002'>0.30591E+02</wgt>
<wgt id='5003'>0.30431E+02</wgt>
<wgt id='5004'>0.30724E+02</wgt>
<wgt id='5005'>0.29945E+02</wgt>
<wgt id='5006'>0.31175E+02</wgt>
<wgt id='5007'>0.30837E+02</wgt>
<wgt id='5008'>0.30237E+02</wgt>
<wgt id='5009'>0.31040E+02</wgt>
<wgt id='5010'>0.30436E+02</wgt>
<wgt id='5011'>0.30585E+02</wgt>
<wgt id='5012'>0.30624E+02</wgt>
<wgt id='5013'>0.29985E+02</wgt>
<wgt id='5014'>0.30626E+02</wgt>
<wgt id='5015'>0.30886E+02</wgt>
<wgt id='5016'>0.29907E+02</wgt>
<wgt id='5017'>0.30741E+02</wgt>
<wgt id='5018'>0.30544E+02</wgt>
<wgt id='5019'>0.30501E+02</wgt>
<wgt id='5020'>0.30762E+02</wgt>
<wgt id='5021'>0.30758E+02</wgt>
<wgt id='5022'>0.30574E+02</wgt>
<wgt id='5023'>0.30578E+02</wgt>
<wgt id='5024'>0.30712E+02</wgt>
<wgt id='5025'>0.30597E+02</wgt>
<wgt id='5026'>0.30685E+02</wgt>
<wgt id='5027'>0.30977E+02</wgt>
<wgt id='5028'>0.30089E+02</wgt>
<wgt id='5029'>0.30051E+02</wgt>
<wgt id='5030'>0.31003E+02</wgt>
<wgt id='5031'>0.30290E+02</wgt>
<wgt id='5032'>0.31159E+02</wgt>
<wgt id='5033'>0.30395E+02</wgt>
<wgt id='5034'>0.30860E+02</wgt>
<wgt id='5035'>0.30140E+02</wgt>
<wgt id='5036'>0.31055E+02</wgt>
<wgt id='5037'>0.30647E+02</wgt>
<wgt id='5038'>0.30628E+02</wgt>
<wgt id='5039'>0.31154E+02</wgt>
<wgt id='5040'>0.30387E+02</wgt>
<wgt id='5041'>0.30275E+02</wgt>
<wgt id='5042'>0.30714E+02</wgt>
<wgt id='5043'>0.30981E+02</wgt>
<wgt id='5044'>0.29788E+02</wgt>
<wgt id='5045'>0.31578E+02</wgt>
<wgt id='5046'>0.30394E+02</wgt>
<wgt id='5047'>0.30856E+02</wgt>
<wgt id='5048'>0.30803E+02</wgt>
<wgt id='5049'>0.30672E+02</wgt>
<wgt id='5050'>0.30707E+02</wgt>
<wgt id='5051'>0.30743E+02</wgt>
<wgt id='5052'>0.30617E+02</wgt>
<wgt id='5053'>0.30393E+02</wgt>
<wgt id='5054'>0.31420E+02</wgt>
<wgt id='5055'>0.30450E+02</wgt>
<wgt id='5056'>0.30807E+02</wgt>
<wgt id='5060'>0.29974E+02</wgt>
<wgt id='5070'>0.31209E+02</wgt>
<wgt id='4000'>0.32363E+02</wgt>
<wgt id='4001'>0.32401E+02</wgt>
<wgt id='4002'>0.32473E+02</wgt>
<wgt id='4003'>0.33183E+02</wgt>
<wgt id='4004'>0.32011E+02</wgt>
<wgt id='4005'>0.32496E+02</wgt>
<wgt id='4006'>0.32257E+02</wgt>
<wgt id='4007'>0.32748E+02</wgt>
<wgt id='4008'>0.32205E+02</wgt>
<wgt id='4009'>0.31635E+02</wgt>
<wgt id='4010'>0.32942E+02</wgt>
<wgt id='4011'>0.32857E+02</wgt>
<wgt id='4012'>0.32086E+02</wgt>
<wgt id='4013'>0.31096E+02</wgt>
<wgt id='4014'>0.33094E+02</wgt>
<wgt id='4015'>0.32628E+02</wgt>
<wgt id='4016'>0.32189E+02</wgt>
<wgt id='4017'>0.32071E+02</wgt>
<wgt id='4018'>0.32712E+02</wgt>
<wgt id='4019'>0.32784E+02</wgt>
<wgt id='4020'>0.31889E+02</wgt>
<wgt id='4021'>0.32443E+02</wgt>
<wgt id='4022'>0.32188E+02</wgt>
<wgt id='4023'>0.32192E+02</wgt>
<wgt id='4024'>0.32515E+02</wgt>
<wgt id='4025'>0.31852E+02</wgt>
<wgt id='4026'>0.32833E+02</wgt>
<wgt id='4027'>0.32244E+02</wgt>
<wgt id='4028'>0.32523E+02</wgt>
<wgt id='4029'>0.32112E+02</wgt>
<wgt id='4030'>0.32450E+02</wgt>
<wgt id='4031'>0.32410E+02</wgt>
<wgt id='4032'>0.32303E+02</wgt>
<wgt id='4033'>0.32354E+02</wgt>
<wgt id='4034'>0.32375E+02</wgt>
<wgt id='4035'>0.32883E+02</wgt>
<wgt id='4036'>0.31863E+02</wgt>
<wgt id='4037'>0.32648E+02</wgt>
<wgt id='4038'>0.31886E+02</wgt>
<wgt id='4039'>0.32344E+02</wgt>
<wgt id='4040'>0.32311E+02</wgt>
<wgt id='4041'>0.32652E+02</wgt>
<wgt id='4042'>0.32094E+02</wgt>
<wgt id='4043'>0.32661E+02</wgt>
<wgt id='4044'>0.32010E+02</wgt>
<wgt id='4045'>0.31983E+02</wgt>
<wgt id='4046'>0.32189E+02</wgt>
<wgt id='4047'>0.31910E+02</wgt>
<wgt id='4048'>0.32759E+02</wgt>
<wgt id='4049'>0.32552E+02</wgt>
<wgt id='4050'>0.31686E+02</wgt>
<wgt id='4051'>0.32289E+02</wgt>
<wgt id='4052'>0.32270E+02</wgt>
<wgt id='4053'>0.31501E+02</wgt>
<wgt id='4054'>0.32588E+02</wgt>
<wgt id='4055'>0.32101E+02</wgt>
<wgt id='4056'>0.32597E+02</wgt>
<wgt id='4060'>0.31526E+02</wgt>
<wgt id='4070'>0.33121E+02</wgt>
<wgt id='4080'>0.31907E+02</wgt>
<wgt id='6000'>0.32886E+02</wgt>
<wgt id='6001'>0.32896E+02</wgt>
<wgt id='6002'>0.32875E+02</wgt>
<wgt id='6003'>0.32900E+02</wgt>
<wgt id='6004'>0.32876E+02</wgt>
<wgt id='6005'>0.32976E+02</wgt>
<wgt id='6006'>0.32803E+02</wgt>
<wgt id='6007'>0.32743E+02</wgt>
<wgt id='6008'>0.33047E+02</wgt>
<wgt id='6009'>0.32984E+02</wgt>
<wgt id='6010'>0.32790E+02</wgt>
<wgt id='6011'>0.32955E+02</wgt>
<wgt id='6012'>0.32733E+02</wgt>
<wgt id='6013'>0.32852E+02</wgt>
<wgt id='6014'>0.32946E+02</wgt>
<wgt id='6015'>0.32781E+02</wgt>
<wgt id='6016'>0.32947E+02</wgt>
<wgt id='6017'>0.32706E+02</wgt>
<wgt id='6018'>0.33100E+02</wgt>
<wgt id='6019'>0.32943E+02</wgt>
<wgt id='6020'>0.32837E+02</wgt>
<wgt id='6021'>0.32812E+02</wgt>
<wgt id='6022'>0.32985E+02</wgt>
<wgt id='6023'>0.32656E+02</wgt>
<wgt id='6024'>0.33044E+02</wgt>
<wgt id='6025'>0.32479E+02</wgt>
<wgt id='6026'>0.33250E+02</wgt>
<wgt id='6027'>0.32972E+02</wgt>
<wgt id='6028'>0.32888E+02</wgt>
<wgt id='6029'>0.33099E+02</wgt>
<wgt id='6030'>0.32638E+02</wgt>
<wgt id='6031'>0.32937E+02</wgt>
<wgt id='6032'>0.32820E+02</wgt>
<wgt id='6033'>0.32946E+02</wgt>
<wgt id='6034'>0.32822E+02</wgt>
<wgt id='6035'>0.32862E+02</wgt>
<wgt id='6036'>0.33006E+02</wgt>
<wgt id='6037'>0.32946E+02</wgt>
<wgt id='6038'>0.32879E+02</wgt>
<wgt id='6039'>0.32860E+02</wgt>
<wgt id='6040'>0.32915E+02</wgt>
<wgt id='6041'>0.32824E+02</wgt>
<wgt id='6042'>0.32962E+02</wgt>
<wgt id='6043'>0.33300E+02</wgt>
<wgt id='6044'>0.32674E+02</wgt>
<wgt id='6045'>0.32859E+02</wgt>
<wgt id='6046'>0.32957E+02</wgt>
<wgt id='6047'>0.32776E+02</wgt>
<wgt id='6048'>0.32727E+02</wgt>
<wgt id='6049'>0.32837E+02</wgt>
<wgt id='6050'>0.32890E+02</wgt>
<wgt id='7000'>0.30833E+02</wgt>
<wgt id='7001'>0.30818E+02</wgt>
<wgt id='7002'>0.30854E+02</wgt>
<wgt id='7003'>0.30929E+02</wgt>
<wgt id='7004'>0.30738E+02</wgt>
<wgt id='7005'>0.30892E+02</wgt>
<wgt id='7006'>0.30811E+02</wgt>
<wgt id='7007'>0.30707E+02</wgt>
<wgt id='7008'>0.30961E+02</wgt>
<wgt id='7009'>0.30883E+02</wgt>
<wgt id='7010'>0.30785E+02</wgt>
<wgt id='7011'>0.30546E+02</wgt>
<wgt id='7012'>0.30961E+02</wgt>
<wgt id='7013'>0.30838E+02</wgt>
<wgt id='7014'>0.30830E+02</wgt>
<wgt id='7015'>0.30749E+02</wgt>
<wgt id='7016'>0.30928E+02</wgt>
<wgt id='7017'>0.30772E+02</wgt>
<wgt id='7018'>0.30868E+02</wgt>
<wgt id='7019'>0.30790E+02</wgt>
<wgt id='7020'>0.30893E+02</wgt>
<wgt id='7021'>0.30826E+02</wgt>
<wgt id='7022'>0.30837E+02</wgt>
<wgt id='7023'>0.31187E+02</wgt>
<wgt id='7024'>0.30493E+02</wgt>
<wgt id='7025'>0.30972E+02</wgt>
<wgt id='7026'>0.30497E+02</wgt>
<wgt id='7027'>0.30970E+02</wgt>
<wgt id='7028'>0.30772E+02</wgt>
<wgt id='7029'>0.30688E+02</wgt>
<wgt id='7030'>0.31225E+02</wgt>
<wgt id='7031'>0.30833E+02</wgt>
<wgt id='7032'>0.30840E+02</wgt>
<wgt id='7033'>0.30789E+02</wgt>
<wgt id='7034'>0.30938E+02</wgt>
<wgt id='7035'>0.30923E+02</wgt>
<wgt id='7036'>0.30809E+02</wgt>
<wgt id='7037'>0.30848E+02</wgt>
<wgt id='7038'>0.30835E+02</wgt>
<wgt id='7039'>0.30809E+02</wgt>
<wgt id='7040'>0.30851E+02</wgt>
<wgt id='7041'>0.30773E+02</wgt>
<wgt id='7042'>0.30870E+02</wgt>
<wgt id='7043'>0.30863E+02</wgt>
<wgt id='7044'>0.30677E+02</wgt>
<wgt id='7045'>0.30592E+02</wgt>
<wgt id='7046'>0.30878E+02</wgt>
<wgt id='7047'>0.30841E+02</wgt>
<wgt id='7048'>0.30818E+02</wgt>
<wgt id='7049'>0.30813E+02</wgt>
<wgt id='7050'>0.30745E+02</wgt>
<wgt id='7060'>0.47388E+02</wgt>
<wgt id='8000'>0.31243E+02</wgt>
<wgt id='8001'>0.31234E+02</wgt>
<wgt id='8002'>0.31252E+02</wgt>
<wgt id='8003'>0.31246E+02</wgt>
<wgt id='8004'>0.31242E+02</wgt>
<wgt id='8005'>0.31169E+02</wgt>
<wgt id='8006'>0.31221E+02</wgt>
<wgt id='8007'>0.31199E+02</wgt>
<wgt id='8008'>0.31297E+02</wgt>
<wgt id='8009'>0.31356E+02</wgt>
<wgt id='8010'>0.31244E+02</wgt>
<wgt id='8011'>0.31225E+02</wgt>
<wgt id='8012'>0.31210E+02</wgt>
<wgt id='8013'>0.31239E+02</wgt>
<wgt id='8014'>0.31221E+02</wgt>
<wgt id='8015'>0.31219E+02</wgt>
<wgt id='8016'>0.31250E+02</wgt>
<wgt id='8017'>0.31243E+02</wgt>
<wgt id='8018'>0.31236E+02</wgt>
<wgt id='8019'>0.31300E+02</wgt>
<wgt id='8020'>0.31134E+02</wgt>
<wgt id='8021'>0.31248E+02</wgt>
<wgt id='8022'>0.31044E+02</wgt>
<wgt id='8023'>0.31283E+02</wgt>
<wgt id='8024'>0.31320E+02</wgt>
<wgt id='8025'>0.31359E+02</wgt>
<wgt id='8026'>0.31309E+02</wgt>
<wgt id='8027'>0.31185E+02</wgt>
<wgt id='8028'>0.31273E+02</wgt>
<wgt id='8029'>0.31026E+02</wgt>
<wgt id='8500'>0.32462E+02</wgt>
<wgt id='8501'>0.32400E+02</wgt>
<wgt id='8502'>0.32784E+02</wgt>
<wgt id='8503'>0.32690E+02</wgt>
<wgt id='8504'>0.32384E+02</wgt>
<wgt id='8505'>0.32305E+02</wgt>
<wgt id='8506'>0.32365E+02</wgt>
<wgt id='8507'>0.32672E+02</wgt>
<wgt id='8508'>0.32967E+02</wgt>
<wgt id='8509'>0.32244E+02</wgt>
<wgt id='8510'>0.32941E+02</wgt>
<wgt id='8511'>0.32486E+02</wgt>
<wgt id='8512'>0.32082E+02</wgt>
<wgt id='8513'>0.32504E+02</wgt>
<wgt id='8514'>0.32339E+02</wgt>
<wgt id='8515'>0.32467E+02</wgt>
<wgt id='8516'>0.32566E+02</wgt>
<wgt id='8517'>0.32415E+02</wgt>
<wgt id='8518'>0.32372E+02</wgt>
<wgt id='8519'>0.32372E+02</wgt>
<wgt id='8520'>0.32492E+02</wgt>
<wgt id='8521'>0.32327E+02</wgt>
<wgt id='8522'>0.32475E+02</wgt>
<wgt id='8523'>0.32409E+02</wgt>
<wgt id='8524'>0.32459E+02</wgt>
<wgt id='8525'>0.32425E+02</wgt>
<wgt id='8526'>0.32411E+02</wgt>
<wgt id='8527'>0.32461E+02</wgt>
<wgt id='8528'>0.32378E+02</wgt>
<wgt id='8529'>0.32442E+02</wgt>
<wgt id='8530'>0.32463E+02</wgt>
<wgt id='8531'>0.32450E+02</wgt>
<wgt id='8532'>0.32467E+02</wgt>
<wgt id='8533'>0.32396E+02</wgt>
<wgt id='8534'>0.32476E+02</wgt>
<wgt id='8535'>0.32534E+02</wgt>
<wgt id='8536'>0.32439E+02</wgt>
<wgt id='8537'>0.32474E+02</wgt>
<wgt id='8538'>0.32430E+02</wgt>
<wgt id='8539'>0.32468E+02</wgt>
<wgt id='8540'>0.32468E+02</wgt>
<wgt id='8541'>0.32478E+02</wgt>
<wgt id='8542'>0.32486E+02</wgt>
<wgt id='8543'>0.32434E+02</wgt>
<wgt id='8544'>0.32496E+02</wgt>
<wgt id='8545'>0.32489E+02</wgt>
<wgt id='8546'>0.32492E+02</wgt>
<wgt id='8547'>0.32434E+02</wgt>
<wgt id='8548'>0.32430E+02</wgt>
<wgt id='8549'>0.32464E+02</wgt>
<wgt id='8550'>0.32469E+02</wgt>
<wgt id='8551'>0.32431E+02</wgt>
<wgt id='8552'>0.32469E+02</wgt>
<wgt id='8553'>0.32449E+02</wgt>
<wgt id='8554'>0.32447E+02</wgt>
<wgt id='8555'>0.32466E+02</wgt>
<wgt id='8556'>0.32460E+02</wgt>
<wgt id='8557'>0.32455E+02</wgt>
<wgt id='8558'>0.32496E+02</wgt>
<wgt id='8559'>0.32446E+02</wgt>
<wgt id='8560'>0.32427E+02</wgt>
<wgt id='8561'>0.32458E+02</wgt>
<wgt id='8562'>0.32438E+02</wgt>
<wgt id='8563'>0.32463E+02</wgt>
<wgt id='8564'>0.32456E+02</wgt>
<wgt id='8565'>0.32460E+02</wgt>
<wgt id='8566'>0.32455E+02</wgt>
<wgt id='8567'>0.32460E+02</wgt>
<wgt id='8568'>0.32474E+02</wgt>
<wgt id='8569'>0.32470E+02</wgt>
<wgt id='8570'>0.32459E+02</wgt>
<wgt id='8571'>0.32449E+02</wgt>
<wgt id='8572'>0.32453E+02</wgt>
<wgt id='8573'>0.32449E+02</wgt>
<wgt id='8574'>0.32469E+02</wgt>
<wgt id='8575'>0.32458E+02</wgt>
<wgt id='8576'>0.32459E+02</wgt>
<wgt id='8577'>0.32461E+02</wgt>
<wgt id='8578'>0.32465E+02</wgt>
<wgt id='8579'>0.32480E+02</wgt>
<wgt id='8580'>0.32462E+02</wgt>
<wgt id='8581'>0.32467E+02</wgt>
<wgt id='8582'>0.32442E+02</wgt>
<wgt id='8583'>0.32475E+02</wgt>
<wgt id='8584'>0.32469E+02</wgt>
<wgt id='8585'>0.32467E+02</wgt>
<wgt id='8586'>0.32475E+02</wgt>
<wgt id='8587'>0.32457E+02</wgt>
<wgt id='8588'>0.32455E+02</wgt>
<wgt id='8589'>0.32463E+02</wgt>
<wgt id='8590'>0.32459E+02</wgt>
<wgt id='8591'>0.32458E+02</wgt>
<wgt id='8592'>0.32461E+02</wgt>
<wgt id='8593'>0.32451E+02</wgt>
<wgt id='8594'>0.32466E+02</wgt>
<wgt id='8595'>0.32465E+02</wgt>
<wgt id='8596'>0.32455E+02</wgt>
<wgt id='8597'>0.32466E+02</wgt>
<wgt id='8598'>0.32469E+02</wgt>
<wgt id='8599'>0.32466E+02</wgt>
<wgt id='8600'>0.32462E+02</wgt>
<wgt id='8601'>0.31854E+02</wgt>
<wgt id='8602'>0.32983E+02</wgt>
<wgt id='9000'>0.30811E+02</wgt>
<wgt id='9001'>0.30870E+02</wgt>
<wgt id='9002'>0.30971E+02</wgt>
<wgt id='9003'>0.30534E+02</wgt>
<wgt id='9004'>0.30753E+02</wgt>
<wgt id='9005'>0.30966E+02</wgt>
<wgt id='9006'>0.30725E+02</wgt>
<wgt id='9007'>0.30829E+02</wgt>
<wgt id='9008'>0.30882E+02</wgt>
<wgt id='9009'>0.30791E+02</wgt>
<wgt id='9010'>0.30767E+02</wgt>
<wgt id='9011'>0.31141E+02</wgt>
<wgt id='9012'>0.30402E+02</wgt>
<wgt id='9013'>0.30399E+02</wgt>
<wgt id='9014'>0.30448E+02</wgt>
<wgt id='9015'>0.30778E+02</wgt>
<wgt id='9016'>0.30922E+02</wgt>
<wgt id='9017'>0.30833E+02</wgt>
<wgt id='9018'>0.30807E+02</wgt>
<wgt id='9019'>0.30780E+02</wgt>
<wgt id='9020'>0.30938E+02</wgt>
<wgt id='9021'>0.30801E+02</wgt>
<wgt id='9022'>0.30848E+02</wgt>
<wgt id='9023'>0.30770E+02</wgt>
<wgt id='9024'>0.30768E+02</wgt>
<wgt id='9025'>0.30854E+02</wgt>
<wgt id='9026'>0.30827E+02</wgt>
<wgt id='9027'>0.30777E+02</wgt>
<wgt id='9028'>0.30836E+02</wgt>
<wgt id='9029'>0.30841E+02</wgt>
<wgt id='9030'>0.30828E+02</wgt>
<wgt id='9031'>0.30804E+02</wgt>
<wgt id='9032'>0.30831E+02</wgt>
<wgt id='9033'>0.30851E+02</wgt>
<wgt id='9034'>0.30791E+02</wgt>
<wgt id='9035'>0.30864E+02</wgt>
<wgt id='9036'>0.30808E+02</wgt>
<wgt id='9037'>0.30841E+02</wgt>
<wgt id='9038'>0.30810E+02</wgt>
<wgt id='9039'>0.30813E+02</wgt>
<wgt id='9040'>0.30774E+02</wgt>
<wgt id='9041'>0.30797E+02</wgt>
<wgt id='9042'>0.30804E+02</wgt>
<wgt id='9043'>0.30787E+02</wgt>
<wgt id='9044'>0.30821E+02</wgt>
<wgt id='9045'>0.30805E+02</wgt>
<wgt id='9046'>0.30768E+02</wgt>
<wgt id='9047'>0.30794E+02</wgt>
<wgt id='9048'>0.30822E+02</wgt>
<wgt id='9049'>0.30796E+02</wgt>
<wgt id='9050'>0.30819E+02</wgt>
<wgt id='9051'>0.30821E+02</wgt>
<wgt id='9052'>0.30817E+02</wgt>
<wgt id='9053'>0.30815E+02</wgt>
<wgt id='9054'>0.30795E+02</wgt>
<wgt id='9055'>0.30806E+02</wgt>
<wgt id='9056'>0.30841E+02</wgt>
<wgt id='9057'>0.30809E+02</wgt>
<wgt id='9058'>0.30790E+02</wgt>
<wgt id='9059'>0.30798E+02</wgt>
<wgt id='9060'>0.30802E+02</wgt>
<wgt id='9061'>0.30816E+02</wgt>
<wgt id='9062'>0.30816E+02</wgt>
<wgt id='9063'>0.30825E+02</wgt>
<wgt id='9064'>0.30805E+02</wgt>
<wgt id='9065'>0.30810E+02</wgt>
<wgt id='9066'>0.30814E+02</wgt>
<wgt id='9067'>0.30821E+02</wgt>
<wgt id='9068'>0.30821E+02</wgt>
<wgt id='9069'>0.30827E+02</wgt>
<wgt id='9070'>0.30808E+02</wgt>
<wgt id='9071'>0.30828E+02</wgt>
<wgt id='9072'>0.30828E+02</wgt>
<wgt id='9073'>0.30803E+02</wgt>
<wgt id='9074'>0.30816E+02</wgt>
<wgt id='9075'>0.30810E+02</wgt>
<wgt id='9076'>0.30808E+02</wgt>
<wgt id='9077'>0.30815E+02</wgt>
<wgt id='9078'>0.30813E+02</wgt>
<wgt id='9079'>0.30806E+02</wgt>
<wgt id='9080'>0.30831E+02</wgt>
<wgt id='9081'>0.30808E+02</wgt>
<wgt id='9082'>0.30818E+02</wgt>
<wgt id='9083'>0.30802E+02</wgt>
<wgt id='9084'>0.30803E+02</wgt>
<wgt id='9085'>0.30803E+02</wgt>
<wgt id='9086'>0.30815E+02</wgt>
<wgt id='9087'>0.30793E+02</wgt>
<wgt id='9088'>0.30805E+02</wgt>
<wgt id='9089'>0.30804E+02</wgt>
<wgt id='9090'>0.30815E+02</wgt>
<wgt id='9091'>0.30808E+02</wgt>
<wgt id='9092'>0.30810E+02</wgt>
<wgt id='9093'>0.30806E+02</wgt>
<wgt id='9094'>0.30809E+02</wgt>
<wgt id='9095'>0.30814E+02</wgt>
<wgt id='9096'>0.30805E+02</wgt>
<wgt id='9097'>0.30813E+02</wgt>
<wgt id='9098'>0.30811E+02</wgt>
<wgt id='9099'>0.30804E+02</wgt>
<wgt id='9100'>0.30811E+02</wgt>
<wgt id='9101'>0.30358E+02</wgt>
<wgt id='9102'>0.31167E+02</wgt>
<wgt id='10000'>0.32461E+02</wgt>
<wgt id='10001'>0.32603E+02</wgt>
<wgt id='10002'>0.32479E+02</wgt>
<wgt id='10003'>0.32471E+02</wgt>
<wgt id='10004'>0.32596E+02</wgt>
<wgt id='10005'>0.33393E+02</wgt>
<wgt id='10006'>0.32468E+02</wgt>
<wgt id='10007'>0.32455E+02</wgt>
<wgt id='10008'>0.32500E+02</wgt>
<wgt id='10009'>0.32408E+02</wgt>
<wgt id='10010'>0.32467E+02</wgt>
<wgt id='10011'>0.32432E+02</wgt>
<wgt id='10012'>0.32409E+02</wgt>
<wgt id='10013'>0.32451E+02</wgt>
<wgt id='10014'>0.32479E+02</wgt>
<wgt id='10015'>0.32502E+02</wgt>
<wgt id='10016'>0.32480E+02</wgt>
<wgt id='10017'>0.32247E+02</wgt>
<wgt id='10018'>0.32490E+02</wgt>
<wgt id='10019'>0.32403E+02</wgt>
<wgt id='10020'>0.32483E+02</wgt>
<wgt id='10021'>0.32467E+02</wgt>
<wgt id='10022'>0.32453E+02</wgt>
<wgt id='10023'>0.32478E+02</wgt>
<wgt id='10024'>0.32467E+02</wgt>
<wgt id='10025'>0.32443E+02</wgt>
<wgt id='10026'>0.32453E+02</wgt>
<wgt id='10027'>0.32452E+02</wgt>
<wgt id='10028'>0.32508E+02</wgt>
<wgt id='10029'>0.32495E+02</wgt>
<wgt id='10030'>0.32448E+02</wgt>
<wgt id='10031'>0.31854E+02</wgt>
<wgt id='10032'>0.32983E+02</wgt>
<wgt id='11000'>0.30810E+02</wgt>
<wgt id='11001'>0.30845E+02</wgt>
<wgt id='11002'>0.30912E+02</wgt>
<wgt id='11003'>0.30778E+02</wgt>
<wgt id='11004'>0.30906E+02</wgt>
<wgt id='11005'>0.30391E+02</wgt>
<wgt id='11006'>0.30801E+02</wgt>
<wgt id='11007'>0.30746E+02</wgt>
<wgt id='11008'>0.30746E+02</wgt>
<wgt id='11009'>0.30664E+02</wgt>
<wgt id='11010'>0.30906E+02</wgt>
<wgt id='11011'>0.30636E+02</wgt>
<wgt id='11012'>0.30837E+02</wgt>
<wgt id='11013'>0.30932E+02</wgt>
<wgt id='11014'>0.30715E+02</wgt>
<wgt id='11015'>0.30771E+02</wgt>
<wgt id='11016'>0.30780E+02</wgt>
<wgt id='11017'>0.31065E+02</wgt>
<wgt id='11018'>0.30817E+02</wgt>
<wgt id='11019'>0.30805E+02</wgt>
<wgt id='11020'>0.30838E+02</wgt>
<wgt id='11021'>0.30914E+02</wgt>
<wgt id='11022'>0.31414E+02</wgt>
<wgt id='11023'>0.30794E+02</wgt>
<wgt id='11024'>0.30780E+02</wgt>
<wgt id='11025'>0.30727E+02</wgt>
<wgt id='11026'>0.30807E+02</wgt>
<wgt id='11027'>0.30805E+02</wgt>
<wgt id='11028'>0.30792E+02</wgt>
<wgt id='11029'>0.30789E+02</wgt>
<wgt id='11030'>0.30816E+02</wgt>
<wgt id='11031'>0.30358E+02</wgt>
<wgt id='11032'>0.31167E+02</wgt>
<wgt id='12000'>0.34504E+02</wgt>
<wgt id='12001'>0.34458E+02</wgt>
<wgt id='12002'>0.34549E+02</wgt>
<wgt id='12003'>0.34590E+02</wgt>
<wgt id='12004'>0.34417E+02</wgt>
<wgt id='12005'>0.34561E+02</wgt>
<wgt id='12006'>0.34446E+02</wgt>
<wgt id='12007'>0.34593E+02</wgt>
<wgt id='12008'>0.34416E+02</wgt>
<wgt id='12009'>0.34562E+02</wgt>
<wgt id='12010'>0.34446E+02</wgt>
<wgt id='12011'>0.34454E+02</wgt>
<wgt id='12012'>0.34558E+02</wgt>
<wgt id='12013'>0.34366E+02</wgt>
<wgt id='12014'>0.34642E+02</wgt>
<wgt id='12015'>0.34509E+02</wgt>
<wgt id='12016'>0.34452E+02</wgt>
<wgt id='12017'>0.34603E+02</wgt>
<wgt id='12018'>0.34388E+02</wgt>
<wgt id='12019'>0.34376E+02</wgt>
<wgt id='12020'>0.34627E+02</wgt>
<wgt id='12021'>0.34641E+02</wgt>
<wgt id='12022'>0.34325E+02</wgt>
<wgt id='12023'>0.34380E+02</wgt>
<wgt id='12024'>0.34451E+02</wgt>
<wgt id='12025'>0.34612E+02</wgt>
<wgt id='12026'>0.34445E+02</wgt>
<wgt id='12027'>0.34442E+02</wgt>
<wgt id='12028'>0.34595E+02</wgt>
<wgt id='12050'>0.34504E+02</wgt>
<wgt id='12051'>0.34467E+02</wgt>
<wgt id='12052'>0.34531E+02</wgt>
<wgt id='12053'>0.34458E+02</wgt>
<wgt id='12054'>0.34523E+02</wgt>
<wgt id='12055'>0.34601E+02</wgt>
<wgt id='12056'>0.34223E+02</wgt>
<wgt id='12057'>0.34364E+02</wgt>
<wgt id='12058'>0.34632E+02</wgt>
<wgt id='12059'>0.34411E+02</wgt>
<wgt id='12060'>0.34603E+02</wgt>
<wgt id='12061'>0.34507E+02</wgt>
<wgt id='12062'>0.34574E+02</wgt>
<wgt id='12063'>0.34169E+02</wgt>
<wgt id='13000'>0.31095E+02</wgt>
<wgt id='13001'>0.31072E+02</wgt>
<wgt id='13002'>0.31114E+02</wgt>
<wgt id='13003'>0.31136E+02</wgt>
<wgt id='13004'>0.31051E+02</wgt>
<wgt id='13005'>0.31170E+02</wgt>
<wgt id='13006'>0.31017E+02</wgt>
<wgt id='13007'>0.31224E+02</wgt>
<wgt id='13008'>0.30966E+02</wgt>
<wgt id='13009'>0.31105E+02</wgt>
<wgt id='13010'>0.31083E+02</wgt>
<wgt id='13011'>0.31168E+02</wgt>
<wgt id='13012'>0.31019E+02</wgt>
<wgt id='13013'>0.30998E+02</wgt>
<wgt id='13014'>0.31188E+02</wgt>
<wgt id='13015'>0.31044E+02</wgt>
<wgt id='13016'>0.31119E+02</wgt>
<wgt id='13017'>0.31072E+02</wgt>
<wgt id='13018'>0.31108E+02</wgt>
<wgt id='13019'>0.31040E+02</wgt>
<wgt id='13020'>0.31144E+02</wgt>
<wgt id='13021'>0.30829E+02</wgt>
<wgt id='13022'>0.31314E+02</wgt>
<wgt id='13023'>0.31115E+02</wgt>
<wgt id='13024'>0.31068E+02</wgt>
<wgt id='13025'>0.31035E+02</wgt>
<wgt id='13026'>0.31075E+02</wgt>
<wgt id='13027'>0.31115E+02</wgt>
<wgt id='13028'>0.31106E+02</wgt>
<wgt id='13050'>0.31096E+02</wgt>
<wgt id='13051'>0.31097E+02</wgt>
<wgt id='13052'>0.31031E+02</wgt>
<wgt id='13053'>0.31085E+02</wgt>
<wgt id='13054'>0.31085E+02</wgt>
<wgt id='13055'>0.31067E+02</wgt>
<wgt id='13056'>0.31109E+02</wgt>
<wgt id='13057'>0.30983E+02</wgt>
<wgt id='13058'>0.31257E+02</wgt>
<wgt id='13059'>0.31005E+02</wgt>
<wgt id='13060'>0.31206E+02</wgt>
<wgt id='13061'>0.31018E+02</wgt>
<wgt id='13062'>0.31325E+02</wgt>
<wgt id='13063'>0.30884E+02</wgt>
<wgt id='14000'>0.32213E+02</wgt>
<wgt id='14001'>0.32208E+02</wgt>
<wgt id='14002'>0.32202E+02</wgt>
<wgt id='14003'>0.32197E+02</wgt>
<wgt id='14004'>0.32192E+02</wgt>
<wgt id='14005'>0.32187E+02</wgt>
<wgt id='14006'>0.32181E+02</wgt>
<wgt id='14007'>0.32176E+02</wgt>
<wgt id='14008'>0.32171E+02</wgt>
<wgt id='14009'>0.32166E+02</wgt>
<wgt id='14010'>0.32160E+02</wgt>
<wgt id='14011'>0.32155E+02</wgt>
<wgt id='14012'>0.32150E+02</wgt>
<wgt id='14013'>0.32145E+02</wgt>
<wgt id='14014'>0.32139E+02</wgt>
<wgt id='14015'>0.32134E+02</wgt>
<wgt id='14016'>0.32129E+02</wgt>
<wgt id='14017'>0.32124E+02</wgt>
<wgt id='14018'>0.32119E+02</wgt>
<wgt id='14019'>0.32113E+02</wgt>
<wgt id='14020'>0.32108E+02</wgt>
<wgt id='14021'>0.32103E+02</wgt>
<wgt id='14022'>0.32098E+02</wgt>
<wgt id='14023'>0.32092E+02</wgt>
<wgt id='14024'>0.32087E+02</wgt>
<wgt id='14025'>0.32082E+02</wgt>
<wgt id='14026'>0.32077E+02</wgt>
<wgt id='14027'>0.32071E+02</wgt>
<wgt id='14028'>0.32066E+02</wgt>
<wgt id='14029'>0.32061E+02</wgt>
<wgt id='14030'>0.32056E+02</wgt>
<wgt id='15000'>0.30447E+02</wgt>
<wgt id='15001'>0.30503E+02</wgt>
<wgt id='15002'>0.30603E+02</wgt>
<wgt id='15003'>0.30176E+02</wgt>
<wgt id='15004'>0.30390E+02</wgt>
<wgt id='15005'>0.30601E+02</wgt>
<wgt id='15006'>0.30364E+02</wgt>
<wgt id='15007'>0.30465E+02</wgt>
<wgt id='15008'>0.30516E+02</wgt>
<wgt id='15009'>0.30428E+02</wgt>
<wgt id='15010'>0.30404E+02</wgt>
<wgt id='15011'>0.30775E+02</wgt>
<wgt id='15012'>0.30044E+02</wgt>
<wgt id='15013'>0.30043E+02</wgt>
<wgt id='15014'>0.30086E+02</wgt>
<wgt id='15015'>0.30409E+02</wgt>
<wgt id='15016'>0.30559E+02</wgt>
<wgt id='15017'>0.30467E+02</wgt>
<wgt id='15018'>0.30442E+02</wgt>
<wgt id='15019'>0.30417E+02</wgt>
<wgt id='15020'>0.30574E+02</wgt>
<wgt id='15021'>0.30433E+02</wgt>
<wgt id='15022'>0.30484E+02</wgt>
<wgt id='15023'>0.30405E+02</wgt>
<wgt id='15024'>0.30402E+02</wgt>
<wgt id='15025'>0.30488E+02</wgt>
<wgt id='15026'>0.30460E+02</wgt>
<wgt id='15027'>0.30415E+02</wgt>
<wgt id='15028'>0.30472E+02</wgt>
<wgt id='15029'>0.30476E+02</wgt>
<wgt id='15030'>0.30462E+02</wgt>
<wgt id='15031'>0.30442E+02</wgt>
<wgt id='15032'>0.30467E+02</wgt>
<wgt id='15033'>0.30486E+02</wgt>
<wgt id='15034'>0.30427E+02</wgt>
<wgt id='15035'>0.30499E+02</wgt>
<wgt id='15036'>0.30443E+02</wgt>
<wgt id='15037'>0.30477E+02</wgt>
<wgt id='15038'>0.30446E+02</wgt>
<wgt id='15039'>0.30448E+02</wgt>
<wgt id='15040'>0.30410E+02</wgt>
<wgt id='15041'>0.30431E+02</wgt>
<wgt id='15042'>0.30439E+02</wgt>
<wgt id='15043'>0.30424E+02</wgt>
<wgt id='15044'>0.30457E+02</wgt>
<wgt id='15045'>0.30440E+02</wgt>
<wgt id='15046'>0.30404E+02</wgt>
<wgt id='15047'>0.30429E+02</wgt>
<wgt id='15048'>0.30458E+02</wgt>
<wgt id='15049'>0.30431E+02</wgt>
<wgt id='15050'>0.30455E+02</wgt>
<wgt id='15051'>0.30457E+02</wgt>
<wgt id='15052'>0.30453E+02</wgt>
<wgt id='15053'>0.30452E+02</wgt>
<wgt id='15054'>0.30431E+02</wgt>
<wgt id='15055'>0.30442E+02</wgt>
<wgt id='15056'>0.30476E+02</wgt>
<wgt id='15057'>0.30444E+02</wgt>
<wgt id='15058'>0.30427E+02</wgt>
<wgt id='15059'>0.30434E+02</wgt>
<wgt id='15060'>0.30438E+02</wgt>
<wgt id='15061'>0.30452E+02</wgt>
<wgt id='15062'>0.30452E+02</wgt>
<wgt id='15063'>0.30460E+02</wgt>
<wgt id='15064'>0.30440E+02</wgt>
<wgt id='15065'>0.30446E+02</wgt>
<wgt id='15066'>0.30449E+02</wgt>
<wgt id='15067'>0.30457E+02</wgt>
<wgt id='15068'>0.30457E+02</wgt>
<wgt id='15069'>0.30463E+02</wgt>
<wgt id='15070'>0.30444E+02</wgt>
<wgt id='15071'>0.30464E+02</wgt>
<wgt id='15072'>0.30464E+02</wgt>
<wgt id='15073'>0.30439E+02</wgt>
<wgt id='15074'>0.30451E+02</wgt>
<wgt id='15075'>0.30445E+02</wgt>
<wgt id='15076'>0.30445E+02</wgt>
<wgt id='15077'>0.30451E+02</wgt>
<wgt id='15078'>0.30450E+02</wgt>
<wgt id='15079'>0.30442E+02</wgt>
<wgt id='15080'>0.30466E+02</wgt>
<wgt id='15081'>0.30444E+02</wgt>
<wgt id='15082'>0.30454E+02</wgt>
<wgt id='15083'>0.30438E+02</wgt>
<wgt id='15084'>0.30439E+02</wgt>
<wgt id='15085'>0.30439E+02</wgt>
<wgt id='15086'>0.30451E+02</wgt>
<wgt id='15087'>0.30429E+02</wgt>
<wgt id='15088'>0.30440E+02</wgt>
<wgt id='15089'>0.30440E+02</wgt>
<wgt id='15090'>0.30451E+02</wgt>
<wgt id='15091'>0.30444E+02</wgt>
<wgt id='15092'>0.30446E+02</wgt>
<wgt id='15093'>0.30442E+02</wgt>
<wgt id='15094'>0.30445E+02</wgt>
<wgt id='15095'>0.30450E+02</wgt>
<wgt id='15096'>0.30441E+02</wgt>
<wgt id='15097'>0.30449E+02</wgt>
<wgt id='15098'>0.30447E+02</wgt>
<wgt id='15099'>0.30440E+02</wgt>
<wgt id='15100'>0.30446E+02</wgt>
<wgt id='15101'>0.30447E+02</wgt>
<wgt id='15102'>0.30444E+02</wgt>
<wgt id='15103'>0.30447E+02</wgt>
<wgt id='15104'>0.30447E+02</wgt>
<wgt id='15105'>0.30448E+02</wgt>
<wgt id='15106'>0.30447E+02</wgt>
<wgt id='15107'>0.30445E+02</wgt>
<wgt id='1500'>0.32123E+02</wgt>
<wgt id='1501'>0.29286E+02</wgt>
<wgt id='1502'>0.32355E+02</wgt>
<wgt id='1503'>0.31919E+02</wgt>
<wgt id='1504'>0.31733E+02</wgt>
<wgt id='1505'>0.28166E+02</wgt>
<wgt id='1506'>0.32158E+02</wgt>
<wgt id='1507'>0.32663E+02</wgt>
<wgt id='1508'>0.31905E+02</wgt>
<wgt id='1509'>0.32096E+02</wgt>
<wgt id='1510'>0.31260E+02</wgt>
<wgt id='1511'>0.31771E+02</wgt>
<wgt id='1512'>0.32682E+02</wgt>
<wgt id='1513'>0.32670E+02</wgt>
<wgt id='1514'>0.31285E+02</wgt>
<wgt id='1515'>0.32166E+02</wgt>
<wgt id='1516'>0.32712E+02</wgt>
<wgt id='1517'>0.31584E+02</wgt>
<wgt id='1518'>0.31784E+02</wgt>
<wgt id='1519'>0.32425E+02</wgt>
<wgt id='1520'>0.32497E+02</wgt>
<wgt id='1521'>0.32287E+02</wgt>
<wgt id='1522'>0.31959E+02</wgt>
<wgt id='1523'>0.34639E+02</wgt>
<wgt id='1524'>0.31819E+02</wgt>
<wgt id='1525'>0.32622E+02</wgt>
<wgt id='1526'>0.31464E+02</wgt>
<wgt id='1527'>0.31840E+02</wgt>
<wgt id='1528'>0.31923E+02</wgt>
<wgt id='1529'>0.31677E+02</wgt>
<wgt id='1530'>0.32735E+02</wgt>
<wgt id='1531'>0.31997E+02</wgt>
<wgt id='1532'>0.31271E+02</wgt>
<wgt id='1533'>0.32953E+02</wgt>
<wgt id='1534'>0.32376E+02</wgt>
<wgt id='1535'>0.33139E+02</wgt>
<wgt id='1536'>0.33100E+02</wgt>
<wgt id='1537'>0.32464E+02</wgt>
<wgt id='1538'>0.31761E+02</wgt>
<wgt id='1539'>0.30865E+02</wgt>
<wgt id='1540'>0.32630E+02</wgt>
<wgt id='1541'>0.31961E+02</wgt>
<wgt id='1542'>0.32712E+02</wgt>
<wgt id='1543'>0.32523E+02</wgt>
<wgt id='1544'>0.31873E+02</wgt>
<wgt id='1545'>0.32785E+02</wgt>
<wgt id='1546'>0.32308E+02</wgt>
<wgt id='1547'>0.31572E+02</wgt>
<wgt id='1548'>0.31476E+02</wgt>
<wgt id='1549'>0.32475E+02</wgt>
<wgt id='1550'>0.32260E+02</wgt>
<wgt id='1551'>0.32146E+02</wgt>
<wgt id='1552'>0.32070E+02</wgt>
<wgt id='1553'>0.32717E+02</wgt>
<wgt id='1554'>0.32124E+02</wgt>
<wgt id='1555'>0.32232E+02</wgt>
<wgt id='1556'>0.31212E+02</wgt>
<wgt id='1557'>0.33461E+02</wgt>
<wgt id='1558'>0.31879E+02</wgt>
<wgt id='1559'>0.32539E+02</wgt>
<wgt id='1560'>0.32013E+02</wgt>
<wgt id='1561'>0.32499E+02</wgt>
<wgt id='1562'>0.32189E+02</wgt>
<wgt id='1563'>0.32751E+02</wgt>
<wgt id='1564'>0.31746E+02</wgt>
<wgt id='1565'>0.32589E+02</wgt>
<wgt id='1566'>0.32264E+02</wgt>
<wgt id='1567'>0.33649E+02</wgt>
<wgt id='1568'>0.31685E+02</wgt>
<wgt id='1569'>0.31391E+02</wgt>
<wgt id='1570'>0.32252E+02</wgt>
<wgt id='1571'>0.32985E+02</wgt>
<wgt id='1572'>0.31854E+02</wgt>
<wgt id='1573'>0.29655E+02</wgt>
<wgt id='1574'>0.32438E+02</wgt>
<wgt id='1575'>0.31791E+02</wgt>
<wgt id='1576'>0.31290E+02</wgt>
<wgt id='1577'>0.32422E+02</wgt>
<wgt id='1578'>0.33415E+02</wgt>
<wgt id='1579'>0.31971E+02</wgt>
<wgt id='1580'>0.32401E+02</wgt>
<wgt id='1581'>0.32344E+02</wgt>
<wgt id='1582'>0.31772E+02</wgt>
<wgt id='1583'>0.32140E+02</wgt>
<wgt id='1584'>0.32256E+02</wgt>
<wgt id='1585'>0.31203E+02</wgt>
<wgt id='1586'>0.32041E+02</wgt>
<wgt id='1587'>0.32065E+02</wgt>
<wgt id='1588'>0.32189E+02</wgt>
<wgt id='1589'>0.32717E+02</wgt>
<wgt id='1590'>0.32005E+02</wgt>
<wgt id='1591'>0.31117E+02</wgt>
<wgt id='1592'>0.32996E+02</wgt>
<wgt id='1593'>0.31833E+02</wgt>
<wgt id='1594'>0.32955E+02</wgt>
<wgt id='1595'>0.31587E+02</wgt>
<wgt id='1596'>0.32618E+02</wgt>
<wgt id='1597'>0.32308E+02</wgt>
<wgt id='1598'>0.33551E+02</wgt>
<wgt id='1599'>0.33019E+02</wgt>
<wgt id='1600'>0.31931E+02</wgt>
<wgt id='1601'>0.31600E+02</wgt>
<wgt id='1602'>0.32352E+02</wgt>
<wgt id='1700'>0.30939E+02</wgt>
<wgt id='1800'>0.37920E+02</wgt>
<wgt id='1850'>0.45386E+02</wgt>
<wgt id='1900'>0.37087E+02</wgt>
<wgt id='1950'>0.43838E+02</wgt>
</rwgt>
</event>
<event>
      4   9999  3.15120E+01  1.41360E+01 -1.00000E+00  1.76450E-01
      21    -1     0     0   502   501  0.000000000E+00  0.000000000E+00  1.655446467E+02  1.655446467E+02  0.000000000E+00  0.00000E+00  9.000E+00
      21    -1     0     0   501   512  0.000000000E+00  0.000000000E+00 -2.801689427E+01  2.801689427E+01  0.000000000E+00  0.00000E+00  9.000E+00
      25     1     1     2     0     0  1.159529626E+01 -8.085481796E+00  1.302302704E+02  1.776530792E+02  1.200036137E+02  0.00000E+00  9.000E+00
      21     1     1     2   502   512 -1.159529626E+01  8.085481796E+00  7.297481966E+00  1.590846172E+01  2.795705652E-07  0.00000E+00  9.000E+00
#rwgt            1           1   25.196519861752325                2        4753           0
<rwgt>
<wgt id='1001'>0.31512E+02</wgt>
<wgt id='1002'>0.35557E+02</wgt>
<wgt id='1003'>0.27285E+02</wgt>
<wgt id='1004'>0.25985E+02</wgt>
<wgt id='1005'>0.29139E+02</wgt>
<wgt id='1006'>0.22652E+02</wgt>
<wgt id='1007'>0.39068E+02</wgt>
<wgt id='1008'>0.44412E+02</wgt>
<wgt id='1009'>0.33550E+02</wgt>
<wgt id='2000'>0.31512E+02</wgt>
<wgt id='2001'>0.31467E+02</wgt>
<wgt id='2002'>0.31634E+02</wgt>
<wgt id='2003'>0.31611E+02</wgt>
<wgt id='2004'>0.31533E+02</wgt>
<wgt id='2005'>0.31456E+02</wgt>
<wgt id='2006'>0.31448E+02</wgt>
<wgt id='2007'>0.31418E+02</wgt>
<wgt id='2008'>0.31501E+02</wgt>
<wgt id='2009'>0.31519E+02</wgt>
<wgt id='2010'>0.31482E+02</wgt>
<wgt id='2011'>0.31648E+02</wgt>
<wgt id='2012'>0.31660E+02</wgt>
<wgt id='2013'>0.31727E+02</wgt>
<wgt id='2014'>0.31611E+02</wgt>
<wgt id='2015'>0.31580E+02</wgt>
<wgt id='2016'>0.31475E+02</wgt>
<wgt id='2017'>0.31508E+02</wgt>
<wgt id='2018'>0.31608E+02</wgt>
<wgt id='2019'>0.31497E+02</wgt>
<wgt id='2020'>0.31618E+02</wgt>
<wgt id='2021'>0.31459E+02</wgt>
<wgt id='2022'>0.31581E+02</wgt>
<wgt id='2023'>0.31557E+02</wgt>
<wgt id='2024'>0.31527E+02</wgt>
<wgt id='2025'>0.31565E+02</wgt>
<wgt id='2026'>0.31537E+02</wgt>
<wgt id='2027'>0.31492E+02</wgt>
<wgt id='2028'>0.31500E+02</wgt>
<wgt id='2029'>0.31538E+02</wgt>
<wgt id='2030'>0.31530E+02</wgt>
<wgt id='2031'>0.31510E+02</wgt>
<wgt id='2032'>0.31531E+02</wgt>
<wgt id='2033'>0.31525E+02</wgt>
<wgt id='2034'>0.31508E+02</wgt>
<wgt id='2035'>0.31508E+02</wgt>
<wgt id='2036'>0.31495E+02</wgt>
<wgt id='2037'>0.31519E+02</wgt>
<wgt id='2038'>0.31506E+02</wgt>
<wgt id='2039'>0.31500E+02</wgt>
<wgt id='2040'>0.31494E+02</wgt>
<wgt id='2041'>0.31495E+02</wgt>
<wgt id='2042'>0.31503E+02</wgt>
<wgt id='2043'>0.31504E+02</wgt>
<wgt id='2044'>0.31523E+02</wgt>
<wgt id='2045'>0.31507E+02</wgt>
<wgt id='2046'>0.31530E+02</wgt>
<wgt id='2047'>0.31519E+02</wgt>
<wgt id='2048'>0.31507E+02</wgt>
<wgt id='2049'>0.31511E+02</wgt>
<wgt id='2050'>0.31522E+02</wgt>
<wgt id='2051'>0.31523E+02</wgt>
<wgt id='2052'>0.31510E+02</wgt>
<wgt id='2053'>0.31518E+02</wgt>
<wgt id='2054'>0.31516E+02</wgt>
<wgt id='2055'>0.31512E+02</wgt>
<wgt id='2056'>0.31513E+02</wgt>
<wgt id='2057'>0.31517E+02</wgt>
<wgt id='2058'>0.31514E+02</wgt>
<wgt id='2059'>0.31508E+02</wgt>
<wgt id='2060'>0.31513E+02</wgt>
<wgt id='2061'>0.31506E+02</wgt>
<wgt id='2062'>0.31514E+02</wgt>
<wgt id='2063'>0.31510E+02</wgt>
<wgt id='2064'>0.31508E+02</wgt>
<wgt id='2065'>0.31522E+02</wgt>
<wgt id='2066'>0.31511E+02</wgt>
<wgt id='2067'>0.31513E+02</wgt>
<wgt id='2068'>0.31519E+02</wgt>
<wgt id='2069'>0.31513E+02</wgt>
<wgt id='2070'>0.31512E+02</wgt>
<wgt id='2071'>0.31506E+02</wgt>
<wgt id='2072'>0.31515E+02</wgt>
<wgt id='2073'>0.31515E+02</wgt>
<wgt id='2074'>0.31514E+02</wgt>
<wgt id='2075'>0.31508E+02</wgt>
<wgt id='2076'>0.31514E+02</wgt>
<wgt id='2077'>0.31510E+02</wgt>
<wgt id='2078'>0.31511E+02</wgt>
<wgt id='2079'>0.31514E+02</wgt>
<wgt id='2080'>0.31511E+02</wgt>
<wgt id='2081'>0.31512E+02</wgt>
<wgt id='2082'>0.31514E+02</wgt>
<wgt id='2083'>0.31512E+02</wgt>
<wgt id='2084'>0.31513E+02</wgt>
<wgt id='2085'>0.31512E+02</wgt>
<wgt id='2086'>0.31509E+02</wgt>
<wgt id='2087'>0.31510E+02</wgt>
<wgt id='2088'>0.31513E+02</wgt>
<wgt id='2089'>0.31512E+02</wgt>
<wgt id='2090'>0.31511E+02</wgt>
<wgt id='2091'>0.31510E+02</wgt>
<wgt id='2092'>0.31509E+02</wgt>
<wgt id='2093'>0.31513E+02</wgt>
<wgt id='2094'>0.31511E+02</wgt>
<wgt id='2095'>0.31515E+02</wgt>
<wgt id='2096'>0.31513E+02</wgt>
<wgt id='2097'>0.31512E+02</wgt>
<wgt id='2098'>0.31510E+02</wgt>
<wgt id='2099'>0.31513E+02</wgt>
<wgt id='2100'>0.31513E+02</wgt>
<wgt id='2101'>0.30647E+02</wgt>
<wgt id='2102'>0.32289E+02</wgt>
<wgt id='2104'>0.27522E+02</wgt>
<wgt id='2105'>0.28239E+02</wgt>
<wgt id='2106'>0.29039E+02</wgt>
<wgt id='2107'>0.29894E+02</wgt>
<wgt id='2108'>0.31153E+02</wgt>
<wgt id='2109'>0.31982E+02</wgt>
<wgt id='2110'>0.33055E+02</wgt>
<wgt id='2111'>0.33861E+02</wgt>
<wgt id='3000'>0.32960E+02</wgt>
<wgt id='3001'>0.33071E+02</wgt>
<wgt id='3002'>0.32835E+02</wgt>
<wgt id='3003'>0.33067E+02</wgt>
<wgt id='3004'>0.33022E+02</wgt>
<wgt id='3005'>0.33086E+02</wgt>
<wgt id='3006'>0.33000E+02</wgt>
<wgt id='3007'>0.32999E+02</wgt>
<wgt id='3008'>0.32878E+02</wgt>
<wgt id='3009'>0.32890E+02</wgt>
<wgt id='3010'>0.32854E+02</wgt>
<wgt id='3011'>0.33034E+02</wgt>
<wgt id='3012'>0.33167E+02</wgt>
<wgt id='3013'>0.32743E+02</wgt>
<wgt id='3014'>0.33064E+02</wgt>
<wgt id='3015'>0.33043E+02</wgt>
<wgt id='3016'>0.32981E+02</wgt>
<wgt id='3017'>0.33075E+02</wgt>
<wgt id='3018'>0.33013E+02</wgt>
<wgt id='3019'>0.32852E+02</wgt>
<wgt id='3020'>0.32904E+02</wgt>
<wgt id='3021'>0.32865E+02</wgt>
<wgt id='3022'>0.32954E+02</wgt>
<wgt id='3023'>0.32908E+02</wgt>
<wgt id='3024'>0.32923E+02</wgt>
<wgt id='3025'>0.32960E+02</wgt>
<wgt id='3026'>0.32989E+02</wgt>
<wgt id='3027'>0.32971E+02</wgt>
<wgt id='3028'>0.32915E+02</wgt>
<wgt id='3029'>0.32967E+02</wgt>
<wgt id='3030'>0.32985E+02</wgt>
<wgt id='3031'>0.32970E+02</wgt>
<wgt id='3032'>0.32960E+02</wgt>
<wgt id='3033'>0.32960E+02</wgt>
<wgt id='3034'>0.32969E+02</wgt>
<wgt id='3035'>0.32978E+02</wgt>
<wgt id='3036'>0.32967E+02</wgt>
<wgt id='3037'>0.32956E+02</wgt>
<wgt id='3038'>0.32959E+02</wgt>
<wgt id='3039'>0.32987E+02</wgt>
<wgt id='3040'>0.32945E+02</wgt>
<wgt id='3041'>0.32951E+02</wgt>
<wgt id='3042'>0.32950E+02</wgt>
<wgt id='3043'>0.32947E+02</wgt>
<wgt id='3044'>0.32976E+02</wgt>
<wgt id='3045'>0.32970E+02</wgt>
<wgt id='3046'>0.32966E+02</wgt>
<wgt id='3047'>0.32961E+02</wgt>
<wgt id='3048'>0.32959E+02</wgt>
<wgt id='3049'>0.32954E+02</wgt>
<wgt id='3050'>0.32951E+02</wgt>
<wgt id='3051'>0.32974E+02</wgt>
<wgt id='3052'>0.32955E+02</wgt>
<wgt id='3053'>0.32957E+02</wgt>
<wgt id='3054'>0.32960E+02</wgt>
<wgt id='3055'>0.32955E+02</wgt>
<wgt id='3056'>0.32965E+02</wgt>
<wgt id='3057'>0.32962E+02</wgt>
<wgt id='3058'>0.32951E+02</wgt>
<wgt id='3059'>0.32963E+02</wgt>
<wgt id='3060'>0.32965E+02</wgt>
<wgt id='3061'>0.32968E+02</wgt>
<wgt id='3062'>0.32968E+02</wgt>
<wgt id='3063'>0.32967E+02</wgt>
<wgt id='3064'>0.32957E+02</wgt>
<wgt id='3065'>0.32958E+02</wgt>
<wgt id='3066'>0.32964E+02</wgt>
<wgt id='3067'>0.32950E+02</wgt>
<wgt id='3068'>0.32964E+02</wgt>
<wgt id='3069'>0.32959E+02</wgt>
<wgt id='3070'>0.32961E+02</wgt>
<wgt id='3071'>0.32957E+02</wgt>
<wgt id='3072'>0.32961E+02</wgt>
<wgt id='3073'>0.32953E+02</wgt>
<wgt id='3074'>0.32966E+02</wgt>
<wgt id='3075'>0.32957E+02</wgt>
<wgt id='3076'>0.32963E+02</wgt>
<wgt id='3077'>0.32964E+02</wgt>
<wgt id='3078'>0.32962E+02</wgt>
<wgt id='3079'>0.32964E+02</wgt>
<wgt id='3080'>0.32956E+02</wgt>
<wgt id='3081'>0.32961E+02</wgt>
<wgt id='3082'>0.32958E+02</wgt>
<wgt id='3083'>0.32962E+02</wgt>
<wgt id='3084'>0.32960E+02</wgt>
<wgt id='3085'>0.32962E+02</wgt>
<wgt id='3086'>0.32959E+02</wgt>
<wgt id='3087'>0.32958E+02</wgt>
<wgt id='3088'>0.32960E+02</wgt>
<wgt id='3089'>0.32961E+02</wgt>
<wgt id='3090'>0.32962E+02</wgt>
<wgt id='3091'>0.32962E+02</wgt>
<wgt id='3092'>0.32963E+02</wgt>
<wgt id='3093'>0.32959E+02</wgt>
<wgt id='3094'>0.32964E+02</wgt>
<wgt id='3095'>0.32960E+02</wgt>
<wgt id='3096'>0.32960E+02</wgt>
<wgt id='3097'>0.32957E+02</wgt>
<wgt id='3098'>0.32961E+02</wgt>
<wgt id='3099'>0.32962E+02</wgt>
<wgt id='3100'>0.32961E+02</wgt>
<wgt id='3101'>0.32077E+02</wgt>
<wgt id='3102'>0.33964E+02</wgt>
<wgt id='5000'>0.30591E+02</wgt>
<wgt id='5001'>0.30478E+02</wgt>
<wgt id='5002'>0.30531E+02</wgt>
<wgt id='5003'>0.30408E+02</wgt>
<wgt id='5004'>0.30643E+02</wgt>
<wgt id='5005'>0.29986E+02</wgt>
<wgt id='5006'>0.30987E+02</wgt>
<wgt id='5007'>0.30720E+02</wgt>
<wgt id='5008'>0.30257E+02</wgt>
<wgt id='5009'>0.30936E+02</wgt>
<wgt id='5010'>0.30404E+02</wgt>
<wgt id='5011'>0.30541E+02</wgt>
<wgt id='5012'>0.30564E+02</wgt>
<wgt id='5013'>0.29974E+02</wgt>
<wgt id='5014'>0.30615E+02</wgt>
<wgt id='5015'>0.30814E+02</wgt>
<wgt id='5016'>0.29902E+02</wgt>
<wgt id='5017'>0.30652E+02</wgt>
<wgt id='5018'>0.30527E+02</wgt>
<wgt id='5019'>0.30474E+02</wgt>
<wgt id='5020'>0.30690E+02</wgt>
<wgt id='5021'>0.30696E+02</wgt>
<wgt id='5022'>0.30523E+02</wgt>
<wgt id='5023'>0.30510E+02</wgt>
<wgt id='5024'>0.30671E+02</wgt>
<wgt id='5025'>0.30549E+02</wgt>
<wgt id='5026'>0.30625E+02</wgt>
<wgt id='5027'>0.30907E+02</wgt>
<wgt id='5028'>0.30059E+02</wgt>
<wgt id='5029'>0.30012E+02</wgt>
<wgt id='5030'>0.30938E+02</wgt>
<wgt id='5031'>0.30250E+02</wgt>
<wgt id='5032'>0.31082E+02</wgt>
<wgt id='5033'>0.30367E+02</wgt>
<wgt id='5034'>0.30781E+02</wgt>
<wgt id='5035'>0.30133E+02</wgt>
<wgt id='5036'>0.30965E+02</wgt>
<wgt id='5037'>0.30540E+02</wgt>
<wgt id='5038'>0.30632E+02</wgt>
<wgt id='5039'>0.31096E+02</wgt>
<wgt id='5040'>0.30334E+02</wgt>
<wgt id='5041'>0.30277E+02</wgt>
<wgt id='5042'>0.30637E+02</wgt>
<wgt id='5043'>0.30876E+02</wgt>
<wgt id='5044'>0.29802E+02</wgt>
<wgt id='5045'>0.31458E+02</wgt>
<wgt id='5046'>0.30357E+02</wgt>
<wgt id='5047'>0.30788E+02</wgt>
<wgt id='5048'>0.30753E+02</wgt>
<wgt id='5049'>0.30614E+02</wgt>
<wgt id='5050'>0.30652E+02</wgt>
<wgt id='5051'>0.30674E+02</wgt>
<wgt id='5052'>0.30571E+02</wgt>
<wgt id='5053'>0.30337E+02</wgt>
<wgt id='5054'>0.31185E+02</wgt>
<wgt id='5055'>0.30403E+02</wgt>
<wgt id='5056'>0.30775E+02</wgt>
<wgt id='5060'>0.29783E+02</wgt>
<wgt id='5070'>0.31311E+02</wgt>
<wgt id='4000'>0.32323E+02</wgt>
<wgt id='4001'>0.32358E+02</wgt>
<wgt id='4002'>0.32421E+02</wgt>
<wgt id='4003'>0.32978E+02</wgt>
<wgt id='4004'>0.32043E+02</wgt>
<wgt id='4005'>0.32441E+02</wgt>
<wgt id='4006'>0.32230E+02</wgt>
<wgt id='4007'>0.32661E+02</wgt>
<wgt id='4008'>0.32193E+02</wgt>
<wgt id='4009'>0.31668E+02</wgt>
<wgt id='4010'>0.32793E+02</wgt>
<wgt id='4011'>0.32797E+02</wgt>
<wgt id='4012'>0.32055E+02</wgt>
<wgt id='4013'>0.31140E+02</wgt>
<wgt id='4014'>0.32999E+02</wgt>
<wgt id='4015'>0.32612E+02</wgt>
<wgt id='4016'>0.32135E+02</wgt>
<wgt id='4017'>0.32011E+02</wgt>
<wgt id='4018'>0.32695E+02</wgt>
<wgt id='4019'>0.32725E+02</wgt>
<wgt id='4020'>0.31872E+02</wgt>
<wgt id='4021'>0.32395E+02</wgt>
<wgt id='4022'>0.32164E+02</wgt>
<wgt id='4023'>0.32167E+02</wgt>
<wgt id='4024'>0.32461E+02</wgt>
<wgt id='4025'>0.31890E+02</wgt>
<wgt id='4026'>0.32720E+02</wgt>
<wgt id='4027'>0.32212E+02</wgt>
<wgt id='4028'>0.32472E+02</wgt>
<wgt id='4029'>0.32085E+02</wgt>
<wgt id='4030'>0.32406E+02</wgt>
<wgt id='4031'>0.32370E+02</wgt>
<wgt id='4032'>0.32262E+02</wgt>
<wgt id='4033'>0.32302E+02</wgt>
<wgt id='4034'>0.32364E+02</wgt>
<wgt id='4035'>0.32796E+02</wgt>
<wgt id='4036'>0.31869E+02</wgt>
<wgt id='4037'>0.32577E+02</wgt>
<wgt id='4038'>0.31894E+02</wgt>
<wgt id='4039'>0.32298E+02</wgt>
<wgt id='4040'>0.32282E+02</wgt>
<wgt id='4041'>0.32587E+02</wgt>
<wgt id='4042'>0.32080E+02</wgt>
<wgt id='4043'>0.32589E+02</wgt>
<wgt id='4044'>0.32032E+02</wgt>
<wgt id='4045'>0.31919E+02</wgt>
<wgt id='4046'>0.32194E+02</wgt>
<wgt id='4047'>0.31950E+02</wgt>
<wgt id='4048'>0.32588E+02</wgt>
<wgt id='4049'>0.32399E+02</wgt>
<wgt id='4050'>0.31776E+02</wgt>
<wgt id='4051'>0.32250E+02</wgt>
<wgt id='4052'>0.32246E+02</wgt>
<wgt id='4053'>0.31475E+02</wgt>
<wgt id='4054'>0.32489E+02</wgt>
<wgt id='4055'>0.32085E+02</wgt>
<wgt id='4056'>0.32560E+02</wgt>
<wgt id='4060'>0.31355E+02</wgt>
<wgt id='4070'>0.33229E+02</wgt>
<wgt id='4080'>0.32257E+02</wgt>
<wgt id='6000'>0.32955E+02</wgt>
<wgt id='6001'>0.32973E+02</wgt>
<wgt id='6002'>0.32936E+02</wgt>
<wgt id='6003'>0.32970E+02</wgt>
<wgt id='6004'>0.32946E+02</wgt>
<wgt id='6005'>0.33031E+02</wgt>
<wgt id='6006'>0.32884E+02</wgt>
<wgt id='6007'>0.32820E+02</wgt>
<wgt id='6008'>0.33108E+02</wgt>
<wgt id='6009'>0.33065E+02</wgt>
<wgt id='6010'>0.32848E+02</wgt>
<wgt id='6011'>0.33026E+02</wgt>
<wgt id='6012'>0.32800E+02</wgt>
<wgt id='6013'>0.32919E+02</wgt>
<wgt id='6014'>0.33020E+02</wgt>
<wgt id='6015'>0.32852E+02</wgt>
<wgt id='6016'>0.33013E+02</wgt>
<wgt id='6017'>0.32770E+02</wgt>
<wgt id='6018'>0.33175E+02</wgt>
<wgt id='6019'>0.33001E+02</wgt>
<wgt id='6020'>0.32914E+02</wgt>
<wgt id='6021'>0.32884E+02</wgt>
<wgt id='6022'>0.33051E+02</wgt>
<wgt id='6023'>0.32726E+02</wgt>
<wgt id='6024'>0.33116E+02</wgt>
<wgt id='6025'>0.32630E+02</wgt>
<wgt id='6026'>0.33213E+02</wgt>
<wgt id='6027'>0.33045E+02</wgt>
<wgt id='6028'>0.32956E+02</wgt>
<wgt id='6029'>0.33143E+02</wgt>
<wgt id='6030'>0.32738E+02</wgt>
<wgt id='6031'>0.32992E+02</wgt>
<wgt id='6032'>0.32902E+02</wgt>
<wgt id='6033'>0.33016E+02</wgt>
<wgt id='6034'>0.32891E+02</wgt>
<wgt id='6035'>0.32938E+02</wgt>
<wgt id='6036'>0.33057E+02</wgt>
<wgt id='6037'>0.33015E+02</wgt>
<wgt id='6038'>0.32950E+02</wgt>
<wgt id='6039'>0.32923E+02</wgt>
<wgt id='6040'>0.32989E+02</wgt>
<wgt id='6041'>0.32896E+02</wgt>
<wgt id='6042'>0.33029E+02</wgt>
<wgt id='6043'>0.33377E+02</wgt>
<wgt id='6044'>0.32756E+02</wgt>
<wgt id='6045'>0.32930E+02</wgt>
<wgt id='6046'>0.33021E+02</wgt>
<wgt id='6047'>0.32926E+02</wgt>
<wgt id='6048'>0.32731E+02</wgt>
<wgt id='6049'>0.32945E+02</wgt>
<wgt id='6050'>0.32943E+02</wgt>
<wgt id='7000'>0.30877E+02</wgt>
<wgt id='7001'>0.30872E+02</wgt>
<wgt id='7002'>0.30883E+02</wgt>
<wgt id='7003'>0.30969E+02</wgt>
<wgt id='7004'>0.30784E+02</wgt>
<wgt id='7005'>0.30933E+02</wgt>
<wgt id='7006'>0.30854E+02</wgt>
<wgt id='7007'>0.30750E+02</wgt>
<wgt id='7008'>0.31002E+02</wgt>
<wgt id='7009'>0.30930E+02</wgt>
<wgt id='7010'>0.30824E+02</wgt>
<wgt id='7011'>0.30576E+02</wgt>
<wgt id='7012'>0.31006E+02</wgt>
<wgt id='7013'>0.30877E+02</wgt>
<wgt id='7014'>0.30874E+02</wgt>
<wgt id='7015'>0.30785E+02</wgt>
<wgt id='7016'>0.30974E+02</wgt>
<wgt id='7017'>0.30777E+02</wgt>
<wgt id='7018'>0.30928E+02</wgt>
<wgt id='7019'>0.30835E+02</wgt>
<wgt id='7020'>0.30932E+02</wgt>
<wgt id='7021'>0.30871E+02</wgt>
<wgt id='7022'>0.30879E+02</wgt>
<wgt id='7023'>0.31185E+02</wgt>
<wgt id='7024'>0.30572E+02</wgt>
<wgt id='7025'>0.31002E+02</wgt>
<wgt id='7026'>0.30570E+02</wgt>
<wgt id='7027'>0.31009E+02</wgt>
<wgt id='7028'>0.30821E+02</wgt>
<wgt id='7029'>0.30747E+02</wgt>
<wgt id='7030'>0.31209E+02</wgt>
<wgt id='7031'>0.30873E+02</wgt>
<wgt id='7032'>0.30889E+02</wgt>
<wgt id='7033'>0.30838E+02</wgt>
<wgt id='7034'>0.30967E+02</wgt>
<wgt id='7035'>0.30949E+02</wgt>
<wgt id='7036'>0.30859E+02</wgt>
<wgt id='7037'>0.30889E+02</wgt>
<wgt id='7038'>0.30882E+02</wgt>
<wgt id='7039'>0.30845E+02</wgt>
<wgt id='7040'>0.30898E+02</wgt>
<wgt id='7041'>0.30817E+02</wgt>
<wgt id='7042'>0.30919E+02</wgt>
<wgt id='7043'>0.30902E+02</wgt>
<wgt id='7044'>0.30726E+02</wgt>
<wgt id='7045'>0.30632E+02</wgt>
<wgt id='7046'>0.30950E+02</wgt>
<wgt id='7047'>0.30901E+02</wgt>
<wgt id='7048'>0.30855E+02</wgt>
<wgt id='7049'>0.30844E+02</wgt>
<wgt id='7050'>0.30824E+02</wgt>
<wgt id='7060'>0.49216E+02</wgt>
<wgt id='8000'>0.31119E+02</wgt>
<wgt id='8001'>0.31110E+02</wgt>
<wgt id='8002'>0.31127E+02</wgt>
<wgt id='8003'>0.31121E+02</wgt>
<wgt id='8004'>0.31118E+02</wgt>
<wgt id='8005'>0.31044E+02</wgt>
<wgt id='8006'>0.31099E+02</wgt>
<wgt id='8007'>0.31078E+02</wgt>
<wgt id='8008'>0.31173E+02</wgt>
<wgt id='8009'>0.31232E+02</wgt>
<wgt id='8010'>0.31119E+02</wgt>
<wgt id='8011'>0.31102E+02</wgt>
<wgt id='8012'>0.31084E+02</wgt>
<wgt id='8013'>0.31111E+02</wgt>
<wgt id='8014'>0.31101E+02</wgt>
<wgt id='8015'>0.31094E+02</wgt>
<wgt id='8016'>0.31127E+02</wgt>
<wgt id='8017'>0.31119E+02</wgt>
<wgt id='8018'>0.31116E+02</wgt>
<wgt id='8019'>0.31170E+02</wgt>
<wgt id='8020'>0.31019E+02</wgt>
<wgt id='8021'>0.31122E+02</wgt>
<wgt id='8022'>0.30936E+02</wgt>
<wgt id='8023'>0.31152E+02</wgt>
<wgt id='8024'>0.31183E+02</wgt>
<wgt id='8025'>0.31223E+02</wgt>
<wgt id='8026'>0.31181E+02</wgt>
<wgt id='8027'>0.31066E+02</wgt>
<wgt id='8028'>0.31149E+02</wgt>
<wgt id='8029'>0.30901E+02</wgt>
<wgt id='8500'>0.32491E+02</wgt>
<wgt id='8501'>0.32416E+02</wgt>
<wgt id='8502'>0.32757E+02</wgt>
<wgt id='8503'>0.32691E+02</wgt>
<wgt id='8504'>0.32423E+02</wgt>
<wgt id='8505'>0.32373E+02</wgt>
<wgt id='8506'>0.32412E+02</wgt>
<wgt id='8507'>0.32671E+02</wgt>
<wgt id='8508'>0.32896E+02</wgt>
<wgt id='8509'>0.32331E+02</wgt>
<wgt id='8510'>0.32948E+02</wgt>
<wgt id='8511'>0.32514E+02</wgt>
<wgt id='8512'>0.32143E+02</wgt>
<wgt id='8513'>0.32530E+02</wgt>
<wgt id='8514'>0.32309E+02</wgt>
<wgt id='8515'>0.32517E+02</wgt>
<wgt id='8516'>0.32584E+02</wgt>
<wgt id='8517'>0.32411E+02</wgt>
<wgt id='8518'>0.32405E+02</wgt>
<wgt id='8519'>0.32418E+02</wgt>
<wgt id='8520'>0.32519E+02</wgt>
<wgt id='8521'>0.32329E+02</wgt>
<wgt id='8522'>0.32514E+02</wgt>
<wgt id='8523'>0.32435E+02</wgt>
<wgt id='8524'>0.32480E+02</wgt>
<wgt id='8525'>0.32448E+02</wgt>
<wgt id='8526'>0.32452E+02</wgt>
<wgt id='8527'>0.32504E+02</wgt>
<wgt id='8528'>0.32405E+02</wgt>
<wgt id='8529'>0.32473E+02</wgt>
<wgt id='8530'>0.32483E+02</wgt>
<wgt id='8531'>0.32480E+02</wgt>
<wgt id='8532'>0.32495E+02</wgt>
<wgt id='8533'>0.32425E+02</wgt>
<wgt id='8534'>0.32501E+02</wgt>
<wgt id='8535'>0.32565E+02</wgt>
<wgt id='8536'>0.32467E+02</wgt>
<wgt id='8537'>0.32503E+02</wgt>
<wgt id='8538'>0.32461E+02</wgt>
<wgt id='8539'>0.32497E+02</wgt>
<wgt id='8540'>0.32493E+02</wgt>
<wgt id='8541'>0.32506E+02</wgt>
<wgt id='8542'>0.32516E+02</wgt>
<wgt id='8543'>0.32462E+02</wgt>
<wgt id='8544'>0.32521E+02</wgt>
<wgt id='8545'>0.32517E+02</wgt>
<wgt id='8546'>0.32524E+02</wgt>
<wgt id='8547'>0.32463E+02</wgt>
<wgt id='8548'>0.32459E+02</wgt>
<wgt id='8549'>0.32493E+02</wgt>
<wgt id='8550'>0.32496E+02</wgt>
<wgt id='8551'>0.32459E+02</wgt>
<wgt id='8552'>0.32497E+02</wgt>
<wgt id='8553'>0.32477E+02</wgt>
<wgt id='8554'>0.32477E+02</wgt>
<wgt id='8555'>0.32495E+02</wgt>
<wgt id='8556'>0.32488E+02</wgt>
<wgt id='8557'>0.32483E+02</wgt>
<wgt id='8558'>0.32527E+02</wgt>
<wgt id='8559'>0.32474E+02</wgt>
<wgt id='8560'>0.32455E+02</wgt>
<wgt id='8561'>0.32486E+02</wgt>
<wgt id='8562'>0.32466E+02</wgt>
<wgt id='8563'>0.32493E+02</wgt>
<wgt id='8564'>0.32484E+02</wgt>
<wgt id='8565'>0.32490E+02</wgt>
<wgt id='8566'>0.32483E+02</wgt>
<wgt id='8567'>0.32487E+02</wgt>
<wgt id='8568'>0.32503E+02</wgt>
<wgt id='8569'>0.32499E+02</wgt>
<wgt id='8570'>0.32489E+02</wgt>
<wgt id='8571'>0.32477E+02</wgt>
<wgt id='8572'>0.32482E+02</wgt>
<wgt id='8573'>0.32478E+02</wgt>
<wgt id='8574'>0.32499E+02</wgt>
<wgt id='8575'>0.32487E+02</wgt>
<wgt id='8576'>0.32487E+02</wgt>
<wgt id='8577'>0.32491E+02</wgt>
<wgt id='8578'>0.32494E+02</wgt>
<wgt id='8579'>0.32510E+02</wgt>
<wgt id='8580'>0.32492E+02</wgt>
<wgt id='8581'>0.32497E+02</wgt>
<wgt id='8582'>0.32469E+02</wgt>
<wgt id='8583'>0.32504E+02</wgt>
<wgt id='8584'>0.32498E+02</wgt>
<wgt id='8585'>0.32497E+02</wgt>
<wgt id='8586'>0.32505E+02</wgt>
<wgt id='8587'>0.32486E+02</wgt>
<wgt id='8588'>0.32483E+02</wgt>
<wgt id='8589'>0.32492E+02</wgt>
<wgt id='8590'>0.32487E+02</wgt>
<wgt id='8591'>0.32488E+02</wgt>
<wgt id='8592'>0.32490E+02</wgt>
<wgt id='8593'>0.32479E+02</wgt>
<wgt id='8594'>0.32496E+02</wgt>
<wgt id='8595'>0.32495E+02</wgt>
<wgt id='8596'>0.32484E+02</wgt>
<wgt id='8597'>0.32495E+02</wgt>
<wgt id='8598'>0.32498E+02</wgt>
<wgt id='8599'>0.32495E+02</wgt>
<wgt id='8600'>0.32490E+02</wgt>
<wgt id='8601'>0.31800E+02</wgt>
<wgt id='8602'>0.33105E+02</wgt>
<wgt id='9000'>0.30795E+02</wgt>
<wgt id='9001'>0.30840E+02</wgt>
<wgt id='9002'>0.30937E+02</wgt>
<wgt id='9003'>0.30557E+02</wgt>
<wgt id='9004'>0.30743E+02</wgt>
<wgt id='9005'>0.30910E+02</wgt>
<wgt id='9006'>0.30731E+02</wgt>
<wgt id='9007'>0.30837E+02</wgt>
<wgt id='9008'>0.30862E+02</wgt>
<wgt id='9009'>0.30769E+02</wgt>
<wgt id='9010'>0.30734E+02</wgt>
<wgt id='9011'>0.31114E+02</wgt>
<wgt id='9012'>0.30459E+02</wgt>
<wgt id='9013'>0.30394E+02</wgt>
<wgt id='9014'>0.30483E+02</wgt>
<wgt id='9015'>0.30785E+02</wgt>
<wgt id='9016'>0.30978E+02</wgt>
<wgt id='9017'>0.30797E+02</wgt>
<wgt id='9018'>0.30760E+02</wgt>
<wgt id='9019'>0.30744E+02</wgt>
<wgt id='9020'>0.30923E+02</wgt>
<wgt id='9021'>0.30750E+02</wgt>
<wgt id='9022'>0.30835E+02</wgt>
<wgt id='9023'>0.30748E+02</wgt>
<wgt id='9024'>0.30759E+02</wgt>
<wgt id='9025'>0.30843E+02</wgt>
<wgt id='9026'>0.30804E+02</wgt>
<wgt id='9027'>0.30743E+02</wgt>
<wgt id='9028'>0.30822E+02</wgt>
<wgt id='9029'>0.30824E+02</wgt>
<wgt id='9030'>0.30806E+02</wgt>
<wgt id='9031'>0.30784E+02</wgt>
<wgt id='9032'>0.30820E+02</wgt>
<wgt id='9033'>0.30837E+02</wgt>
<wgt id='9034'>0.30777E+02</wgt>
<wgt id='9035'>0.30846E+02</wgt>
<wgt id='9036'>0.30794E+02</wgt>
<wgt id='9037'>0.30825E+02</wgt>
<wgt id='9038'>0.30798E+02</wgt>
<wgt id='9039'>0.30801E+02</wgt>
<wgt id='9040'>0.30761E+02</wgt>
<wgt id='9041'>0.30782E+02</wgt>
<wgt id='9042'>0.30790E+02</wgt>
<wgt id='9043'>0.30771E+02</wgt>
<wgt id='9044'>0.30806E+02</wgt>
<wgt id='9045'>0.30791E+02</wgt>
<wgt id='9046'>0.30753E+02</wgt>
<wgt id='9047'>0.30781E+02</wgt>
<wgt id='9048'>0.30805E+02</wgt>
<wgt id='9049'>0.30778E+02</wgt>
<wgt id='9050'>0.30802E+02</wgt>
<wgt id='9051'>0.30807E+02</wgt>
<wgt id='9052'>0.30803E+02</wgt>
<wgt id='9053'>0.30799E+02</wgt>
<wgt id='9054'>0.30779E+02</wgt>
<wgt id='9055'>0.30788E+02</wgt>
<wgt id='9056'>0.30824E+02</wgt>
<wgt id='9057'>0.30792E+02</wgt>
<wgt id='9058'>0.30772E+02</wgt>
<wgt id='9059'>0.30781E+02</wgt>
<wgt id='9060'>0.30784E+02</wgt>
<wgt id='9061'>0.30800E+02</wgt>
<wgt id='9062'>0.30800E+02</wgt>
<wgt id='9063'>0.30810E+02</wgt>
<wgt id='9064'>0.30787E+02</wgt>
<wgt id='9065'>0.30795E+02</wgt>
<wgt id='9066'>0.30798E+02</wgt>
<wgt id='9067'>0.30806E+02</wgt>
<wgt id='9068'>0.30805E+02</wgt>
<wgt id='9069'>0.30812E+02</wgt>
<wgt id='9070'>0.30792E+02</wgt>
<wgt id='9071'>0.30813E+02</wgt>
<wgt id='9072'>0.30814E+02</wgt>
<wgt id='9073'>0.30787E+02</wgt>
<wgt id='9074'>0.30800E+02</wgt>
<wgt id='9075'>0.30793E+02</wgt>
<wgt id='9076'>0.30791E+02</wgt>
<wgt id='9077'>0.30799E+02</wgt>
<wgt id='9078'>0.30797E+02</wgt>
<wgt id='9079'>0.30790E+02</wgt>
<wgt id='9080'>0.30816E+02</wgt>
<wgt id='9081'>0.30791E+02</wgt>
<wgt id='9082'>0.30802E+02</wgt>
<wgt id='9083'>0.30785E+02</wgt>
<wgt id='9084'>0.30787E+02</wgt>
<wgt id='9085'>0.30787E+02</wgt>
<wgt id='9086'>0.30798E+02</wgt>
<wgt id='9087'>0.30777E+02</wgt>
<wgt id='9088'>0.30789E+02</wgt>
<wgt id='9089'>0.30789E+02</wgt>
<wgt id='9090'>0.30800E+02</wgt>
<wgt id='9091'>0.30793E+02</wgt>
<wgt id='9092'>0.30795E+02</wgt>
<wgt id='9093'>0.30790E+02</wgt>
<wgt id='9094'>0.30794E+02</wgt>
<wgt id='9095'>0.30799E+02</wgt>
<wgt id='9096'>0.30789E+02</wgt>
<wgt id='9097'>0.30797E+02</wgt>
<wgt id='9098'>0.30795E+02</wgt>
<wgt id='9099'>0.30788E+02</wgt>
<wgt id='9100'>0.30794E+02</wgt>
<wgt id='9101'>0.30261E+02</wgt>
<wgt id='9102'>0.31253E+02</wgt>
<wgt id='10000'>0.32498E+02</wgt>
<wgt id='10001'>0.32631E+02</wgt>
<wgt id='10002'>0.32475E+02</wgt>
<wgt id='10003'>0.32502E+02</wgt>
<wgt id='10004'>0.32566E+02</wgt>
<wgt id='10005'>0.33335E+02</wgt>
<wgt id='10006'>0.32484E+02</wgt>
<wgt id='10007'>0.32488E+02</wgt>
<wgt id='10008'>0.32531E+02</wgt>
<wgt id='10009'>0.32443E+02</wgt>
<wgt id='10010'>0.32512E+02</wgt>
<wgt id='10011'>0.32472E+02</wgt>
<wgt id='10012'>0.32445E+02</wgt>
<wgt id='10013'>0.32490E+02</wgt>
<wgt id='10014'>0.32501E+02</wgt>
<wgt id='10015'>0.32535E+02</wgt>
<wgt id='10016'>0.32502E+02</wgt>
<wgt id='10017'>0.32290E+02</wgt>
<wgt id='10018'>0.32526E+02</wgt>
<wgt id='10019'>0.32450E+02</wgt>
<wgt id='10020'>0.32503E+02</wgt>
<wgt id='10021'>0.32497E+02</wgt>
<wgt id='10022'>0.32487E+02</wgt>
<wgt id='10023'>0.32507E+02</wgt>
<wgt id='10024'>0.32490E+02</wgt>
<wgt id='10025'>0.32482E+02</wgt>
<wgt id='10026'>0.32510E+02</wgt>
<wgt id='10027'>0.32509E+02</wgt>
<wgt id='10028'>0.32599E+02</wgt>
<wgt id='10029'>0.32534E+02</wgt>
<wgt id='10030'>0.32487E+02</wgt>
<wgt id='10031'>0.31800E+02</wgt>
<wgt id='10032'>0.33105E+02</wgt>
<wgt id='11000'>0.30800E+02</wgt>
<wgt id='11001'>0.30776E+02</wgt>
<wgt id='11002'>0.30907E+02</wgt>
<wgt id='11003'>0.30768E+02</wgt>
<wgt id='11004'>0.30903E+02</wgt>
<wgt id='11005'>0.30410E+02</wgt>
<wgt id='11006'>0.30800E+02</wgt>
<wgt id='11007'>0.30732E+02</wgt>
<wgt id='11008'>0.30727E+02</wgt>
<wgt id='11009'>0.30667E+02</wgt>
<wgt id='11010'>0.30926E+02</wgt>
<wgt id='11011'>0.30648E+02</wgt>
<wgt id='11012'>0.30829E+02</wgt>
<wgt id='11013'>0.30906E+02</wgt>
<wgt id='11014'>0.30717E+02</wgt>
<wgt id='11015'>0.30765E+02</wgt>
<wgt id='11016'>0.30767E+02</wgt>
<wgt id='11017'>0.31038E+02</wgt>
<wgt id='11018'>0.30798E+02</wgt>
<wgt id='11019'>0.30790E+02</wgt>
<wgt id='11020'>0.30849E+02</wgt>
<wgt id='11021'>0.30889E+02</wgt>
<wgt id='11022'>0.31373E+02</wgt>
<wgt id='11023'>0.30794E+02</wgt>
<wgt id='11024'>0.30788E+02</wgt>
<wgt id='11025'>0.30746E+02</wgt>
<wgt id='11026'>0.30804E+02</wgt>
<wgt id='11027'>0.30794E+02</wgt>
<wgt id='11028'>0.30797E+02</wgt>
<wgt id='11029'>0.30789E+02</wgt>
<wgt id='11030'>0.30803E+02</wgt>
<wgt id='11031'>0.30261E+02</wgt>
<wgt id='11032'>0.31253E+02</wgt>
<wgt id='12000'>0.34418E+02</wgt>
<wgt id='12001'>0.34372E+02</wgt>
<wgt id='12002'>0.34463E+02</wgt>
<wgt id='12003'>0.34504E+02</wgt>
<wgt id='12004'>0.34331E+02</wgt>
<wgt id='12005'>0.34472E+02</wgt>
<wgt id='12006'>0.34363E+02</wgt>
<wgt id='12007'>0.34504E+02</wgt>
<wgt id='12008'>0.34334E+02</wgt>
<wgt id='12009'>0.34470E+02</wgt>
<wgt id='12010'>0.34366E+02</wgt>
<wgt id='12011'>0.34351E+02</wgt>
<wgt id='12012'>0.34487E+02</wgt>
<wgt id='12013'>0.34287E+02</wgt>
<wgt id='12014'>0.34550E+02</wgt>
<wgt id='12015'>0.34423E+02</wgt>
<wgt id='12016'>0.34379E+02</wgt>
<wgt id='12017'>0.34523E+02</wgt>
<wgt id='12018'>0.34297E+02</wgt>
<wgt id='12019'>0.34304E+02</wgt>
<wgt id='12020'>0.34528E+02</wgt>
<wgt id='12021'>0.34546E+02</wgt>
<wgt id='12022'>0.34250E+02</wgt>
<wgt id='12023'>0.34277E+02</wgt>
<wgt id='12024'>0.34387E+02</wgt>
<wgt id='12025'>0.34503E+02</wgt>
<wgt id='12026'>0.34381E+02</wgt>
<wgt id='12027'>0.34398E+02</wgt>
<wgt id='12028'>0.34467E+02</wgt>
<wgt id='12050'>0.34418E+02</wgt>
<wgt id='12051'>0.34391E+02</wgt>
<wgt id='12052'>0.34431E+02</wgt>
<wgt id='12053'>0.34383E+02</wgt>
<wgt id='12054'>0.34428E+02</wgt>
<wgt id='12055'>0.34527E+02</wgt>
<wgt id='12056'>0.34190E+02</wgt>
<wgt id='12057'>0.34287E+02</wgt>
<wgt id='12058'>0.34540E+02</wgt>
<wgt id='12059'>0.34337E+02</wgt>
<wgt id='12060'>0.34507E+02</wgt>
<wgt id='12061'>0.34414E+02</wgt>
<wgt id='12062'>0.34482E+02</wgt>
<wgt id='12063'>0.34092E+02</wgt>
<wgt id='13000'>0.31140E+02</wgt>
<wgt id='13001'>0.31117E+02</wgt>
<wgt id='13002'>0.31159E+02</wgt>
<wgt id='13003'>0.31183E+02</wgt>
<wgt id='13004'>0.31093E+02</wgt>
<wgt id='13005'>0.31213E+02</wgt>
<wgt id='13006'>0.31063E+02</wgt>
<wgt id='13007'>0.31265E+02</wgt>
<wgt id='13008'>0.31014E+02</wgt>
<wgt id='13009'>0.31141E+02</wgt>
<wgt id='13010'>0.31137E+02</wgt>
<wgt id='13011'>0.31215E+02</wgt>
<wgt id='13012'>0.31061E+02</wgt>
<wgt id='13013'>0.31048E+02</wgt>
<wgt id='13014'>0.31229E+02</wgt>
<wgt id='13015'>0.31097E+02</wgt>
<wgt id='13016'>0.31165E+02</wgt>
<wgt id='13017'>0.31117E+02</wgt>
<wgt id='13018'>0.31153E+02</wgt>
<wgt id='13019'>0.31088E+02</wgt>
<wgt id='13020'>0.31186E+02</wgt>
<wgt id='13021'>0.30898E+02</wgt>
<wgt id='13022'>0.31335E+02</wgt>
<wgt id='13023'>0.31142E+02</wgt>
<wgt id='13024'>0.31131E+02</wgt>
<wgt id='13025'>0.31052E+02</wgt>
<wgt id='13026'>0.31148E+02</wgt>
<wgt id='13027'>0.31146E+02</wgt>
<wgt id='13028'>0.31165E+02</wgt>
<wgt id='13050'>0.31140E+02</wgt>
<wgt id='13051'>0.31147E+02</wgt>
<wgt id='13052'>0.31067E+02</wgt>
<wgt id='13053'>0.31135E+02</wgt>
<wgt id='13054'>0.31127E+02</wgt>
<wgt id='13055'>0.31078E+02</wgt>
<wgt id='13056'>0.31159E+02</wgt>
<wgt id='13057'>0.31033E+02</wgt>
<wgt id='13058'>0.31298E+02</wgt>
<wgt id='13059'>0.31047E+02</wgt>
<wgt id='13060'>0.31192E+02</wgt>
<wgt id='13061'>0.31055E+02</wgt>
<wgt id='13062'>0.31375E+02</wgt>
<wgt id='13063'>0.30962E+02</wgt>
<wgt id='14000'>0.32214E+02</wgt>
<wgt id='14001'>0.32209E+02</wgt>
<wgt id='14002'>0.32204E+02</wgt>
<wgt id='14003'>0.32199E+02</wgt>
<wgt id='14004'>0.32193E+02</wgt>
<wgt id='14005'>0.32188E+02</wgt>
<wgt id='14006'>0.32183E+02</wgt>
<wgt id='14007'>0.32178E+02</wgt>
<wgt id='14008'>0.32173E+02</wgt>
<wgt id='14009'>0.32167E+02</wgt>
<wgt id='14010'>0.32162E+02</wgt>
<wgt id='14011'>0.32157E+02</wgt>
<wgt id='14012'>0.32152E+02</wgt>
<wgt id='14013'>0.32147E+02</wgt>
<wgt id='14014'>0.32142E+02</wgt>
<wgt id='14015'>0.32136E+02</wgt>
<wgt id='14016'>0.32131E+02</wgt>
<wgt id='14017'>0.32126E+02</wgt>
<wgt id='14018'>0.32121E+02</wgt>
<wgt id='14019'>0.32116E+02</wgt>
<wgt id='14020'>0.32111E+02</wgt>
<wgt id='14021'>0.32106E+02</wgt>
<wgt id='14022'>0.32100E+02</wgt>
<wgt id='14023'>0.32095E+02</wgt>
<wgt id='14024'>0.32090E+02</wgt>
<wgt id='14025'>0.32085E+02</wgt>
<wgt id='14026'>0.32079E+02</wgt>
<wgt id='14027'>0.32074E+02</wgt>
<wgt id='14028'>0.32069E+02</wgt>
<wgt id='14029'>0.32064E+02</wgt>
<wgt id='14030'>0.32059E+02</wgt>
<wgt id='15000'>0.30409E+02</wgt>
<wgt id='15001'>0.30447E+02</wgt>
<wgt id='15002'>0.30548E+02</wgt>
<wgt id='15003'>0.30175E+02</wgt>
<wgt id='15004'>0.30357E+02</wgt>
<wgt id='15005'>0.30523E+02</wgt>
<wgt id='15006'>0.30350E+02</wgt>
<wgt id='15007'>0.30453E+02</wgt>
<wgt id='15008'>0.30475E+02</wgt>
<wgt id='15009'>0.30384E+02</wgt>
<wgt id='15010'>0.30347E+02</wgt>
<wgt id='15011'>0.30730E+02</wgt>
<wgt id='15012'>0.30080E+02</wgt>
<wgt id='15013'>0.30015E+02</wgt>
<wgt id='15014'>0.30100E+02</wgt>
<wgt id='15015'>0.30391E+02</wgt>
<wgt id='15016'>0.30597E+02</wgt>
<wgt id='15017'>0.30408E+02</wgt>
<wgt id='15018'>0.30372E+02</wgt>
<wgt id='15019'>0.30363E+02</wgt>
<wgt id='15020'>0.30540E+02</wgt>
<wgt id='15021'>0.30359E+02</wgt>
<wgt id='15022'>0.30449E+02</wgt>
<wgt id='15023'>0.30363E+02</wgt>
<wgt id='15024'>0.30370E+02</wgt>
<wgt id='15025'>0.30452E+02</wgt>
<wgt id='15026'>0.30413E+02</wgt>
<wgt id='15027'>0.30360E+02</wgt>
<wgt id='15028'>0.30438E+02</wgt>
<wgt id='15029'>0.30437E+02</wgt>
<wgt id='15030'>0.30416E+02</wgt>
<wgt id='15031'>0.30402E+02</wgt>
<wgt id='15032'>0.30432E+02</wgt>
<wgt id='15033'>0.30448E+02</wgt>
<wgt id='15034'>0.30391E+02</wgt>
<wgt id='15035'>0.30458E+02</wgt>
<wgt id='15036'>0.30408E+02</wgt>
<wgt id='15037'>0.30439E+02</wgt>
<wgt id='15038'>0.30411E+02</wgt>
<wgt id='15039'>0.30413E+02</wgt>
<wgt id='15040'>0.30375E+02</wgt>
<wgt id='15041'>0.30395E+02</wgt>
<wgt id='15042'>0.30403E+02</wgt>
<wgt id='15043'>0.30387E+02</wgt>
<wgt id='15044'>0.30419E+02</wgt>
<wgt id='15045'>0.30405E+02</wgt>
<wgt id='15046'>0.30368E+02</wgt>
<wgt id='15047'>0.30394E+02</wgt>
<wgt id='15048'>0.30419E+02</wgt>
<wgt id='15049'>0.30392E+02</wgt>
<wgt id='15050'>0.30417E+02</wgt>
<wgt id='15051'>0.30420E+02</wgt>
<wgt id='15052'>0.30416E+02</wgt>
<wgt id='15053'>0.30413E+02</wgt>
<wgt id='15054'>0.30394E+02</wgt>
<wgt id='15055'>0.30403E+02</wgt>
<wgt id='15056'>0.30436E+02</wgt>
<wgt id='15057'>0.30406E+02</wgt>
<wgt id='15058'>0.30388E+02</wgt>
<wgt id='15059'>0.30396E+02</wgt>
<wgt id='15060'>0.30399E+02</wgt>
<wgt id='15061'>0.30413E+02</wgt>
<wgt id='15062'>0.30413E+02</wgt>
<wgt id='15063'>0.30423E+02</wgt>
<wgt id='15064'>0.30402E+02</wgt>
<wgt id='15065'>0.30408E+02</wgt>
<wgt id='15066'>0.30412E+02</wgt>
<wgt id='15067'>0.30419E+02</wgt>
<wgt id='15068'>0.30419E+02</wgt>
<wgt id='15069'>0.30425E+02</wgt>
<wgt id='15070'>0.30405E+02</wgt>
<wgt id='15071'>0.30427E+02</wgt>
<wgt id='15072'>0.30427E+02</wgt>
<wgt id='15073'>0.30400E+02</wgt>
<wgt id='15074'>0.30413E+02</wgt>
<wgt id='15075'>0.30407E+02</wgt>
<wgt id='15076'>0.30406E+02</wgt>
<wgt id='15077'>0.30413E+02</wgt>
<wgt id='15078'>0.30412E+02</wgt>
<wgt id='15079'>0.30403E+02</wgt>
<wgt id='15080'>0.30429E+02</wgt>
<wgt id='15081'>0.30406E+02</wgt>
<wgt id='15082'>0.30416E+02</wgt>
<wgt id='15083'>0.30399E+02</wgt>
<wgt id='15084'>0.30400E+02</wgt>
<wgt id='15085'>0.30401E+02</wgt>
<wgt id='15086'>0.30413E+02</wgt>
<wgt id='15087'>0.30390E+02</wgt>
<wgt id='15088'>0.30402E+02</wgt>
<wgt id='15089'>0.30402E+02</wgt>
<wgt id='15090'>0.30414E+02</wgt>
<wgt id='15091'>0.30406E+02</wgt>
<wgt id='15092'>0.30408E+02</wgt>
<wgt id='15093'>0.30404E+02</wgt>
<wgt id='15094'>0.30407E+02</wgt>
<wgt id='15095'>0.30412E+02</wgt>
<wgt id='15096'>0.30403E+02</wgt>
<wgt id='15097'>0.30411E+02</wgt>
<wgt id='15098'>0.30409E+02</wgt>
<wgt id='15099'>0.30402E+02</wgt>
<wgt id='15100'>0.30408E+02</wgt>
<wgt id='15101'>0.30408E+02</wgt>
<wgt id='15102'>0.30406E+02</wgt>
<wgt id='15103'>0.30409E+02</wgt>
<wgt id='15104'>0.30409E+02</wgt>
<wgt id='15105'>0.30410E+02</wgt>
<wgt id='15106'>0.30409E+02</wgt>
<wgt id='15107'>0.30407E+02</wgt>
<wgt id='1500'>0.32267E+02</wgt>
<wgt id='1501'>0.29459E+02</wgt>
<wgt id='1502'>0.32279E+02</wgt>
<wgt id='1503'>0.32168E+02</wgt>
<wgt id='1504'>0.31880E+02</wgt>
<wgt id='1505'>0.28363E+02</wgt>
<wgt id='1506'>0.32507E+02</wgt>
<wgt id='1507'>0.32693E+02</wgt>
<wgt id='1508'>0.32335E+02</wgt>
<wgt id='1509'>0.32343E+02</wgt>
<wgt id='1510'>0.31308E+02</wgt>
<wgt id='1511'>0.31759E+02</wgt>
<wgt id='1512'>0.32830E+02</wgt>
<wgt id='1513'>0.32851E+02</wgt>
<wgt id='1514'>0.31554E+02</wgt>
<wgt id='1515'>0.32615E+02</wgt>
<wgt id='1516'>0.32706E+02</wgt>
<wgt id='1517'>0.31847E+02</wgt>
<wgt id='1518'>0.31962E+02</wgt>
<wgt id='1519'>0.32667E+02</wgt>
<wgt id='1520'>0.32719E+02</wgt>
<wgt id='1521'>0.32423E+02</wgt>
<wgt id='1522'>0.32060E+02</wgt>
<wgt id='1523'>0.34697E+02</wgt>
<wgt id='1524'>0.32076E+02</wgt>
<wgt id='1525'>0.32652E+02</wgt>
<wgt id='1526'>0.31774E+02</wgt>
<wgt id='1527'>0.31956E+02</wgt>
<wgt id='1528'>0.32042E+02</wgt>
<wgt id='1529'>0.31965E+02</wgt>
<wgt id='1530'>0.32919E+02</wgt>
<wgt id='1531'>0.32189E+02</wgt>
<wgt id='1532'>0.31470E+02</wgt>
<wgt id='1533'>0.32668E+02</wgt>
<wgt id='1534'>0.32482E+02</wgt>
<wgt id='1535'>0.33159E+02</wgt>
<wgt id='1536'>0.33028E+02</wgt>
<wgt id='1537'>0.32767E+02</wgt>
<wgt id='1538'>0.32385E+02</wgt>
<wgt id='1539'>0.31154E+02</wgt>
<wgt id='1540'>0.32752E+02</wgt>
<wgt id='1541'>0.32232E+02</wgt>
<wgt id='1542'>0.32561E+02</wgt>
<wgt id='1543'>0.32613E+02</wgt>
<wgt id='1544'>0.32049E+02</wgt>
<wgt id='1545'>0.32563E+02</wgt>
<wgt id='1546'>0.32595E+02</wgt>
<wgt id='1547'>0.31781E+02</wgt>
<wgt id='1548'>0.31765E+02</wgt>
<wgt id='1549'>0.32284E+02</wgt>
<wgt id='1550'>0.32317E+02</wgt>
<wgt id='1551'>0.32265E+02</wgt>
<wgt id='1552'>0.32074E+02</wgt>
<wgt id='1553'>0.32778E+02</wgt>
<wgt id='1554'>0.32368E+02</wgt>
<wgt id='1555'>0.32247E+02</wgt>
<wgt id='1556'>0.31489E+02</wgt>
<wgt id='1557'>0.33287E+02</wgt>
<wgt id='1558'>0.31980E+02</wgt>
<wgt id='1559'>0.32666E+02</wgt>
<wgt id='1560'>0.32169E+02</wgt>
<wgt id='1561'>0.32486E+02</wgt>
<wgt id='1562'>0.32304E+02</wgt>
<wgt id='1563'>0.32826E+02</wgt>
<wgt id='1564'>0.31719E+02</wgt>
<wgt id='1565'>0.32661E+02</wgt>
<wgt id='1566'>0.32499E+02</wgt>
<wgt id='1567'>0.33917E+02</wgt>
<wgt id='1568'>0.31815E+02</wgt>
<wgt id='1569'>0.31524E+02</wgt>
<wgt id='1570'>0.32297E+02</wgt>
<wgt id='1571'>0.32885E+02</wgt>
<wgt id='1572'>0.32219E+02</wgt>
<wgt id='1573'>0.29953E+02</wgt>
<wgt id='1574'>0.32591E+02</wgt>
<wgt id='1575'>0.31975E+02</wgt>
<wgt id='1576'>0.31588E+02</wgt>
<wgt id='1577'>0.32629E+02</wgt>
<wgt id='1578'>0.33447E+02</wgt>
<wgt id='1579'>0.32065E+02</wgt>
<wgt id='1580'>0.32453E+02</wgt>
<wgt id='1581'>0.32516E+02</wgt>
<wgt id='1582'>0.31962E+02</wgt>
<wgt id='1583'>0.32484E+02</wgt>
<wgt id='1584'>0.32336E+02</wgt>
<wgt id='1585'>0.31434E+02</wgt>
<wgt id='1586'>0.32161E+02</wgt>
<wgt id='1587'>0.32232E+02</wgt>
<wgt id='1588'>0.32284E+02</wgt>
<wgt id='1589'>0.32996E+02</wgt>
<wgt id='1590'>0.32106E+02</wgt>
<wgt id='1591'>0.31579E+02</wgt>
<wgt id='1592'>0.32865E+02</wgt>
<wgt id='1593'>0.32038E+02</wgt>
<wgt id='1594'>0.33019E+02</wgt>
<wgt id='1595'>0.31721E+02</wgt>
<wgt id='1596'>0.32778E+02</wgt>
<wgt id='1597'>0.32347E+02</wgt>
<wgt id='1598'>0.33479E+02</wgt>
<wgt id='1599'>0.33084E+02</wgt>
<wgt id='1600'>0.32282E+02</wgt>
<wgt id='1601'>0.31715E+02</wgt>
<wgt id='1602'>0.32584E+02</wgt>
<wgt id='1700'>0.30999E+02</wgt>
<wgt id='1800'>0.37883E+02</wgt>
<wgt id='1850'>0.46261E+02</wgt>
<wgt id='1900'>0.37746E+02</wgt>
<wgt id='1950'>0.45055E+02</wgt>
</rwgt>
</event>
<event>
      4   9999  3.15120E+01  2.01666E+02 -1.00000E+00  1.10235E-01
      21    -1     0     0   502   511  0.000000000E+00  0.000000000E+00  7.934976926E+02  7.934976926E+02  0.000000000E+00  0.00000E+00  9.000E+00
      21    -1     0     0   501   502  0.000000000E+00  0.000000000E+00 -7.047604631E+01  7.047604631E+01  0.000000000E+00  0.00000E+00  9.000E+00
      25     1     1     2     0     0 -1.169894674E+02 -1.642633263E+02  2.185064014E+02  3.206463899E+02  1.200003503E+02  0.00000E+00  9.000E+00
      21     1     1     2   501   511  1.169894674E+02  1.642633263E+02  5.045152449E+02  5.433273490E+02  0.000000000E+00  0.00000E+00  9.000E+00
#rwgt            2          11   2.4653847994305695                2        4983           0
<rwgt>
<wgt id='1001'>0.31512E+02</wgt>
<wgt id='1002'>0.29618E+02</wgt>
<wgt id='1003'>0.33421E+02</wgt>
<wgt id='1004'>0.23753E+02</wgt>
<wgt id='1005'>0.22326E+02</wgt>
<wgt id='1006'>0.25192E+02</wgt>
<wgt id='1007'>0.43127E+02</wgt>
<wgt id='1008'>0.40535E+02</wgt>
<wgt id='1009'>0.45739E+02</wgt>
<wgt id='2000'>0.31512E+02</wgt>
<wgt id='2001'>0.31494E+02</wgt>
<wgt id='2002'>0.31564E+02</wgt>
<wgt id='2003'>0.31527E+02</wgt>
<wgt id='2004'>0.31596E+02</wgt>
<wgt id='2005'>0.31494E+02</wgt>
<wgt id='2006'>0.31420E+02</wgt>
<wgt id='2007'>0.31501E+02</wgt>
<wgt id='2008'>0.31486E+02</wgt>
<wgt id='2009'>0.31548E+02</wgt>
<wgt id='2010'>0.31473E+02</wgt>
<wgt id='2011'>0.31486E+02</wgt>
<wgt id='2012'>0.31537E+02</wgt>
<wgt id='2013'>0.31512E+02</wgt>
<wgt id='2014'>0.31478E+02</wgt>
<wgt id='2015'>0.31493E+02</wgt>
<wgt id='2016'>0.31504E+02</wgt>
<wgt id='2017'>0.31483E+02</wgt>
<wgt id='2018'>0.31474E+02</wgt>
<wgt id='2019'>0.31523E+02</wgt>
<wgt id='2020'>0.31436E+02</wgt>
<wgt id='2021'>0.31560E+02</wgt>
<wgt id='2022'>0.31378E+02</wgt>
<wgt id='2023'>0.31525E+02</wgt>
<wgt id='2024'>0.31454E+02</wgt>
<wgt id='2025'>0.31376E+02</wgt>
<wgt id='2026'>0.31483E+02</wgt>
<wgt id='2027'>0.31452E+02</wgt>
<wgt id='2028'>0.31508E+02</wgt>
<wgt id='2029'>0.31788E+02</wgt>
<wgt id='2030'>0.31563E+02</wgt>
<wgt id='2031'>0.31507E+02</wgt>
<wgt id='2032'>0.31620E+02</wgt>
<wgt id='2033'>0.31570E+02</wgt>
<wgt id='2034'>0.31469E+02</wgt>
<wgt id='2035'>0.31461E+02</wgt>
<wgt id='2036'>0.31451E+02</wgt>
<wgt id='2037'>0.31517E+02</wgt>
<wgt id='2038'>0.31514E+02</wgt>
<wgt id='2039'>0.31579E+02</wgt>
<wgt id='2040'>0.31532E+02</wgt>
<wgt id='2041'>0.31460E+02</wgt>
<wgt id='2042'>0.31344E+02</wgt>
<wgt id='2043'>0.31585E+02</wgt>
<wgt id='2044'>0.31555E+02</wgt>
<wgt id='2045'>0.31492E+02</wgt>
<wgt id='2046'>0.31577E+02</wgt>
<wgt id='2047'>0.31579E+02</wgt>
<wgt id='2048'>0.31475E+02</wgt>
<wgt id='2049'>0.31507E+02</wgt>
<wgt id='2050'>0.31558E+02</wgt>
<wgt id='2051'>0.31551E+02</wgt>
<wgt id='2052'>0.31478E+02</wgt>
<wgt id='2053'>0.31505E+02</wgt>
<wgt id='2054'>0.31524E+02</wgt>
<wgt id='2055'>0.31538E+02</wgt>
<wgt id='2056'>0.31513E+02</wgt>
<wgt id='2057'>0.31481E+02</wgt>
<wgt id='2058'>0.31518E+02</wgt>
<wgt id='2059'>0.31508E+02</wgt>
<wgt id='2060'>0.31534E+02</wgt>
<wgt id='2061'>0.31492E+02</wgt>
<wgt id='2062'>0.31493E+02</wgt>
<wgt id='2063'>0.31512E+02</wgt>
<wgt id='2064'>0.31485E+02</wgt>
<wgt id='2065'>0.31518E+02</wgt>
<wgt id='2066'>0.31499E+02</wgt>
<wgt id='2067'>0.31512E+02</wgt>
<wgt id='2068'>0.31526E+02</wgt>
<wgt id='2069'>0.31525E+02</wgt>
<wgt id='2070'>0.31505E+02</wgt>
<wgt id='2071'>0.31488E+02</wgt>
<wgt id='2072'>0.31515E+02</wgt>
<wgt id='2073'>0.31510E+02</wgt>
<wgt id='2074'>0.31514E+02</wgt>
<wgt id='2075'>0.31498E+02</wgt>
<wgt id='2076'>0.31523E+02</wgt>
<wgt id='2077'>0.31493E+02</wgt>
<wgt id='2078'>0.31508E+02</wgt>
<wgt id='2079'>0.31518E+02</wgt>
<wgt id='2080'>0.31523E+02</wgt>
<wgt id='2081'>0.31525E+02</wgt>
<wgt id='2082'>0.31525E+02</wgt>
<wgt id='2083'>0.31514E+02</wgt>
<wgt id='2084'>0.31514E+02</wgt>
<wgt id='2085'>0.31513E+02</wgt>
<wgt id='2086'>0.31506E+02</wgt>
<wgt id='2087'>0.31503E+02</wgt>
<wgt id='2088'>0.31514E+02</wgt>
<wgt id='2089'>0.31501E+02</wgt>
<wgt id='2090'>0.31508E+02</wgt>
<wgt id='2091'>0.31515E+02</wgt>
<wgt id='2092'>0.31512E+02</wgt>
<wgt id='2093'>0.31513E+02</wgt>
<wgt id='2094'>0.31518E+02</wgt>
<wgt id='2095'>0.31521E+02</wgt>
<wgt id='2096'>0.31505E+02</wgt>
<wgt id='2097'>0.31522E+02</wgt>
<wgt id='2098'>0.31511E+02</wgt>
<wgt id='2099'>0.31505E+02</wgt>
<wgt id='2100'>0.31515E+02</wgt>
<wgt id='2101'>0.30441E+02</wgt>
<wgt id='2102'>0.32759E+02</wgt>
<wgt id='2104'>0.25815E+02</wgt>
<wgt id='2105'>0.26930E+02</wgt>
<wgt id='2106'>0.28041E+02</wgt>
<wgt id='2107'>0.29073E+02</wgt>
<wgt id='2108'>0.30934E+02</wgt>
<wgt id='2109'>0.32222E+02</wgt>
<wgt id='2110'>0.34002E+02</wgt>
<wgt id='2111'>0.35322E+02</wgt>
<wgt id='3000'>0.33622E+02</wgt>
<wgt id='3001'>0.33684E+02</wgt>
<wgt id='3002'>0.33575E+02</wgt>
<wgt id='3003'>0.33614E+02</wgt>
<wgt id='3004'>0.33724E+02</wgt>
<wgt id='3005'>0.33647E+02</wgt>
<wgt id='3006'>0.33615E+02</wgt>
<wgt id='3007'>0.33630E+02</wgt>
<wgt id='3008'>0.33584E+02</wgt>
<wgt id='3009'>0.33622E+02</wgt>
<wgt id='3010'>0.33526E+02</wgt>
<wgt id='3011'>0.33606E+02</wgt>
<wgt id='3012'>0.33691E+02</wgt>
<wgt id='3013'>0.33588E+02</wgt>
<wgt id='3014'>0.33620E+02</wgt>
<wgt id='3015'>0.33611E+02</wgt>
<wgt id='3016'>0.33651E+02</wgt>
<wgt id='3017'>0.33629E+02</wgt>
<wgt id='3018'>0.33622E+02</wgt>
<wgt id='3019'>0.33641E+02</wgt>
<wgt id='3020'>0.33707E+02</wgt>
<wgt id='3021'>0.33692E+02</wgt>
<wgt id='3022'>0.33607E+02</wgt>
<wgt id='3023'>0.33620E+02</wgt>
<wgt id='3024'>0.33670E+02</wgt>
<wgt id='3025'>0.33646E+02</wgt>
<wgt id='3026'>0.33527E+02</wgt>
<wgt id='3027'>0.33659E+02</wgt>
<wgt id='3028'>0.33664E+02</wgt>
<wgt id='3029'>0.33569E+02</wgt>
<wgt id='3030'>0.33811E+02</wgt>
<wgt id='3031'>0.33713E+02</wgt>
<wgt id='3032'>0.33514E+02</wgt>
<wgt id='3033'>0.33533E+02</wgt>
<wgt id='3034'>0.33591E+02</wgt>
<wgt id='3035'>0.33531E+02</wgt>
<wgt id='3036'>0.33666E+02</wgt>
<wgt id='3037'>0.33715E+02</wgt>
<wgt id='3038'>0.33635E+02</wgt>
<wgt id='3039'>0.33715E+02</wgt>
<wgt id='3040'>0.33704E+02</wgt>
<wgt id='3041'>0.33634E+02</wgt>
<wgt id='3042'>0.33498E+02</wgt>
<wgt id='3043'>0.33499E+02</wgt>
<wgt id='3044'>0.33692E+02</wgt>
<wgt id='3045'>0.33683E+02</wgt>
<wgt id='3046'>0.33706E+02</wgt>
<wgt id='3047'>0.33588E+02</wgt>
<wgt id='3048'>0.33701E+02</wgt>
<wgt id='3049'>0.33601E+02</wgt>
<wgt id='3050'>0.33571E+02</wgt>
<wgt id='3051'>0.33727E+02</wgt>
<wgt id='3052'>0.33590E+02</wgt>
<wgt id='3053'>0.33584E+02</wgt>
<wgt id='3054'>0.33614E+02</wgt>
<wgt id='3055'>0.33629E+02</wgt>
<wgt id='3056'>0.33620E+02</wgt>
<wgt id='3057'>0.33588E+02</wgt>
<wgt id='3058'>0.33618E+02</wgt>
<wgt id='3059'>0.33595E+02</wgt>
<wgt id='3060'>0.33631E+02</wgt>
<wgt id='3061'>0.33593E+02</wgt>
<wgt id='3062'>0.33622E+02</wgt>
<wgt id='3063'>0.33634E+02</wgt>
<wgt id='3064'>0.33612E+02</wgt>
<wgt id='3065'>0.33614E+02</wgt>
<wgt id='3066'>0.33627E+02</wgt>
<wgt id='3067'>0.33605E+02</wgt>
<wgt id='3068'>0.33624E+02</wgt>
<wgt id='3069'>0.33606E+02</wgt>
<wgt id='3070'>0.33621E+02</wgt>
<wgt id='3071'>0.33623E+02</wgt>
<wgt id='3072'>0.33618E+02</wgt>
<wgt id='3073'>0.33604E+02</wgt>
<wgt id='3074'>0.33667E+02</wgt>
<wgt id='3075'>0.33620E+02</wgt>
<wgt id='3076'>0.33626E+02</wgt>
<wgt id='3077'>0.33631E+02</wgt>
<wgt id='3078'>0.33633E+02</wgt>
<wgt id='3079'>0.33605E+02</wgt>
<wgt id='3080'>0.33607E+02</wgt>
<wgt id='3081'>0.33618E+02</wgt>
<wgt id='3082'>0.33611E+02</wgt>
<wgt id='3083'>0.33622E+02</wgt>
<wgt id='3084'>0.33618E+02</wgt>
<wgt id='3085'>0.33630E+02</wgt>
<wgt id='3086'>0.33604E+02</wgt>
<wgt id='3087'>0.33612E+02</wgt>
<wgt id='3088'>0.33617E+02</wgt>
<wgt id='3089'>0.33621E+02</wgt>
<wgt id='3090'>0.33621E+02</wgt>
<wgt id='3091'>0.33623E+02</wgt>
<wgt id='3092'>0.33625E+02</wgt>
<wgt id='3093'>0.33628E+02</wgt>
<wgt id='3094'>0.33634E+02</wgt>
<wgt id='3095'>0.33621E+02</wgt>
<wgt id='3096'>0.33619E+02</wgt>
<wgt id='3097'>0.33616E+02</wgt>
<wgt id='3098'>0.33621E+02</wgt>
<wgt id='3099'>0.33628E+02</wgt>
<wgt id='3100'>0.33629E+02</wgt>
<wgt id='3101'>0.32396E+02</wgt>
<wgt id='3102'>0.34977E+02</wgt>
<wgt id='5000'>0.32473E+02</wgt>
<wgt id='5001'>0.32515E+02</wgt>
<wgt id='5002'>0.32595E+02</wgt>
<wgt id='5003'>0.32459E+02</wgt>
<wgt id='5004'>0.32547E+02</wgt>
<wgt id='5005'>0.32384E+02</wgt>
<wgt id='5006'>0.32105E+02</wgt>
<wgt id='5007'>0.32308E+02</wgt>
<wgt id='5008'>0.32658E+02</wgt>
<wgt id='5009'>0.32255E+02</wgt>
<wgt id='5010'>0.32511E+02</wgt>
<wgt id='5011'>0.32791E+02</wgt>
<wgt id='5012'>0.32206E+02</wgt>
<wgt id='5013'>0.33348E+02</wgt>
<wgt id='5014'>0.32197E+02</wgt>
<wgt id='5015'>0.32266E+02</wgt>
<wgt id='5016'>0.33020E+02</wgt>
<wgt id='5017'>0.32022E+02</wgt>
<wgt id='5018'>0.32944E+02</wgt>
<wgt id='5019'>0.32490E+02</wgt>
<wgt id='5020'>0.32413E+02</wgt>
<wgt id='5021'>0.32293E+02</wgt>
<wgt id='5022'>0.32585E+02</wgt>
<wgt id='5023'>0.32268E+02</wgt>
<wgt id='5024'>0.32703E+02</wgt>
<wgt id='5025'>0.32633E+02</wgt>
<wgt id='5026'>0.32341E+02</wgt>
<wgt id='5027'>0.32443E+02</wgt>
<wgt id='5028'>0.32517E+02</wgt>
<wgt id='5029'>0.32727E+02</wgt>
<wgt id='5030'>0.32309E+02</wgt>
<wgt id='5031'>0.32478E+02</wgt>
<wgt id='5032'>0.32460E+02</wgt>
<wgt id='5033'>0.32297E+02</wgt>
<wgt id='5034'>0.32649E+02</wgt>
<wgt id='5035'>0.32571E+02</wgt>
<wgt id='5036'>0.32366E+02</wgt>
<wgt id='5037'>0.31761E+02</wgt>
<wgt id='5038'>0.33290E+02</wgt>
<wgt id='5039'>0.33207E+02</wgt>
<wgt id='5040'>0.32087E+02</wgt>
<wgt id='5041'>0.32550E+02</wgt>
<wgt id='5042'>0.32489E+02</wgt>
<wgt id='5043'>0.32793E+02</wgt>
<wgt id='5044'>0.32589E+02</wgt>
<wgt id='5045'>0.32119E+02</wgt>
<wgt id='5046'>0.32087E+02</wgt>
<wgt id='5047'>0.31966E+02</wgt>
<wgt id='5048'>0.32453E+02</wgt>
<wgt id='5049'>0.32451E+02</wgt>
<wgt id='5050'>0.32443E+02</wgt>
<wgt id='5051'>0.32486E+02</wgt>
<wgt id='5052'>0.32391E+02</wgt>
<wgt id='5053'>0.31445E+02</wgt>
<wgt id='5054'>0.32254E+02</wgt>
<wgt id='5055'>0.32235E+02</wgt>
<wgt id='5056'>0.32883E+02</wgt>
<wgt id='5060'>0.31181E+02</wgt>
<wgt id='5070'>0.33836E+02</wgt>
<wgt id='4000'>0.33486E+02</wgt>
<wgt id='4001'>0.33401E+02</wgt>
<wgt id='4002'>0.33524E+02</wgt>
<wgt id='4003'>0.33001E+02</wgt>
<wgt id='4004'>0.33384E+02</wgt>
<wgt id='4005'>0.33477E+02</wgt>
<wgt id='4006'>0.33501E+02</wgt>
<wgt id='4007'>0.33281E+02</wgt>
<wgt id='4008'>0.33374E+02</wgt>
<wgt id='4009'>0.33633E+02</wgt>
<wgt id='4010'>0.33653E+02</wgt>
<wgt id='4011'>0.33893E+02</wgt>
<wgt id='4012'>0.33149E+02</wgt>
<wgt id='4013'>0.33648E+02</wgt>
<wgt id='4014'>0.33482E+02</wgt>
<wgt id='4015'>0.34211E+02</wgt>
<wgt id='4016'>0.33004E+02</wgt>
<wgt id='4017'>0.32873E+02</wgt>
<wgt id='4018'>0.34216E+02</wgt>
<wgt id='4019'>0.33443E+02</wgt>
<wgt id='4020'>0.33519E+02</wgt>
<wgt id='4021'>0.33518E+02</wgt>
<wgt id='4022'>0.33426E+02</wgt>
<wgt id='4023'>0.33640E+02</wgt>
<wgt id='4024'>0.33328E+02</wgt>
<wgt id='4025'>0.33968E+02</wgt>
<wgt id='4026'>0.33017E+02</wgt>
<wgt id='4027'>0.33675E+02</wgt>
<wgt id='4028'>0.33226E+02</wgt>
<wgt id='4029'>0.33650E+02</wgt>
<wgt id='4030'>0.33430E+02</wgt>
<wgt id='4031'>0.33553E+02</wgt>
<wgt id='4032'>0.33400E+02</wgt>
<wgt id='4033'>0.33367E+02</wgt>
<wgt id='4034'>0.33749E+02</wgt>
<wgt id='4035'>0.32821E+02</wgt>
<wgt id='4036'>0.34126E+02</wgt>
<wgt id='4037'>0.33206E+02</wgt>
<wgt id='4038'>0.33899E+02</wgt>
<wgt id='4039'>0.33315E+02</wgt>
<wgt id='4040'>0.33687E+02</wgt>
<wgt id='4041'>0.33326E+02</wgt>
<wgt id='4042'>0.33615E+02</wgt>
<wgt id='4043'>0.32915E+02</wgt>
<wgt id='4044'>0.34035E+02</wgt>
<wgt id='4045'>0.34117E+02</wgt>
<wgt id='4046'>0.33391E+02</wgt>
<wgt id='4047'>0.33435E+02</wgt>
<wgt id='4048'>0.33388E+02</wgt>
<wgt id='4049'>0.33415E+02</wgt>
<wgt id='4050'>0.33493E+02</wgt>
<wgt id='4051'>0.33615E+02</wgt>
<wgt id='4052'>0.33499E+02</wgt>
<wgt id='4053'>0.32231E+02</wgt>
<wgt id='4054'>0.33834E+02</wgt>
<wgt id='4055'>0.33295E+02</wgt>
<wgt id='4056'>0.33806E+02</wgt>
<wgt id='4060'>0.32206E+02</wgt>
<wgt id='4070'>0.34855E+02</wgt>
<wgt id='4080'>0.34977E+02</wgt>
<wgt id='6000'>0.33770E+02</wgt>
<wgt id='6001'>0.33792E+02</wgt>
<wgt id='6002'>0.33747E+02</wgt>
<wgt id='6003'>0.33797E+02</wgt>
<wgt id='6004'>0.33752E+02</wgt>
<wgt id='6005'>0.33951E+02</wgt>
<wgt id='6006'>0.33603E+02</wgt>
<wgt id='6007'>0.33653E+02</wgt>
<wgt id='6008'>0.33902E+02</wgt>
<wgt id='6009'>0.33828E+02</wgt>
<wgt id='6010'>0.33713E+02</wgt>
<wgt id='6011'>0.33808E+02</wgt>
<wgt id='6012'>0.33688E+02</wgt>
<wgt id='6013'>0.33754E+02</wgt>
<wgt id='6014'>0.33799E+02</wgt>
<wgt id='6015'>0.33724E+02</wgt>
<wgt id='6016'>0.33796E+02</wgt>
<wgt id='6017'>0.33615E+02</wgt>
<wgt id='6018'>0.33953E+02</wgt>
<wgt id='6019'>0.33778E+02</wgt>
<wgt id='6020'>0.33764E+02</wgt>
<wgt id='6021'>0.33692E+02</wgt>
<wgt id='6022'>0.33873E+02</wgt>
<wgt id='6023'>0.33543E+02</wgt>
<wgt id='6024'>0.33922E+02</wgt>
<wgt id='6025'>0.33917E+02</wgt>
<wgt id='6026'>0.33612E+02</wgt>
<wgt id='6027'>0.33792E+02</wgt>
<wgt id='6028'>0.33763E+02</wgt>
<wgt id='6029'>0.33611E+02</wgt>
<wgt id='6030'>0.33965E+02</wgt>
<wgt id='6031'>0.33332E+02</wgt>
<wgt id='6032'>0.34268E+02</wgt>
<wgt id='6033'>0.33963E+02</wgt>
<wgt id='6034'>0.33583E+02</wgt>
<wgt id='6035'>0.33844E+02</wgt>
<wgt id='6036'>0.33601E+02</wgt>
<wgt id='6037'>0.33806E+02</wgt>
<wgt id='6038'>0.33755E+02</wgt>
<wgt id='6039'>0.33661E+02</wgt>
<wgt id='6040'>0.33894E+02</wgt>
<wgt id='6041'>0.33470E+02</wgt>
<wgt id='6042'>0.34114E+02</wgt>
<wgt id='6043'>0.34084E+02</wgt>
<wgt id='6044'>0.33631E+02</wgt>
<wgt id='6045'>0.33711E+02</wgt>
<wgt id='6046'>0.33919E+02</wgt>
<wgt id='6047'>0.33860E+02</wgt>
<wgt id='6048'>0.33681E+02</wgt>
<wgt id='6049'>0.33774E+02</wgt>
<wgt id='6050'>0.33771E+02</wgt>
<wgt id='7000'>0.31916E+02</wgt>
<wgt id='7001'>0.31906E+02</wgt>
<wgt id='7002'>0.31929E+02</wgt>
<wgt id='7003'>0.32028E+02</wgt>
<wgt id='7004'>0.31805E+02</wgt>
<wgt id='7005'>0.32000E+02</wgt>
<wgt id='7006'>0.31883E+02</wgt>
<wgt id='7007'>0.31887E+02</wgt>
<wgt id='7008'>0.31945E+02</wgt>
<wgt id='7009'>0.31953E+02</wgt>
<wgt id='7010'>0.31881E+02</wgt>
<wgt id='7011'>0.31782E+02</wgt>
<wgt id='7012'>0.31974E+02</wgt>
<wgt id='7013'>0.31909E+02</wgt>
<wgt id='7014'>0.31925E+02</wgt>
<wgt id='7015'>0.31894E+02</wgt>
<wgt id='7016'>0.31940E+02</wgt>
<wgt id='7017'>0.31853E+02</wgt>
<wgt id='7018'>0.31951E+02</wgt>
<wgt id='7019'>0.31914E+02</wgt>
<wgt id='7020'>0.31919E+02</wgt>
<wgt id='7021'>0.31883E+02</wgt>
<wgt id='7022'>0.31939E+02</wgt>
<wgt id='7023'>0.32134E+02</wgt>
<wgt id='7024'>0.31707E+02</wgt>
<wgt id='7025'>0.31996E+02</wgt>
<wgt id='7026'>0.31716E+02</wgt>
<wgt id='7027'>0.31924E+02</wgt>
<wgt id='7028'>0.31891E+02</wgt>
<wgt id='7029'>0.32062E+02</wgt>
<wgt id='7030'>0.31558E+02</wgt>
<wgt id='7031'>0.31732E+02</wgt>
<wgt id='7032'>0.32302E+02</wgt>
<wgt id='7033'>0.31977E+02</wgt>
<wgt id='7034'>0.31799E+02</wgt>
<wgt id='7035'>0.31658E+02</wgt>
<wgt id='7036'>0.32033E+02</wgt>
<wgt id='7037'>0.31907E+02</wgt>
<wgt id='7038'>0.31928E+02</wgt>
<wgt id='7039'>0.31774E+02</wgt>
<wgt id='7040'>0.32024E+02</wgt>
<wgt id='7041'>0.32060E+02</wgt>
<wgt id='7042'>0.31688E+02</wgt>
<wgt id='7043'>0.31949E+02</wgt>
<wgt id='7044'>0.31731E+02</wgt>
<wgt id='7045'>0.31640E+02</wgt>
<wgt id='7046'>0.32094E+02</wgt>
<wgt id='7047'>0.32035E+02</wgt>
<wgt id='7048'>0.31861E+02</wgt>
<wgt id='7049'>0.31886E+02</wgt>
<wgt id='7050'>0.31914E+02</wgt>
<wgt id='7060'>0.47986E+02</wgt>
<wgt id='8000'>0.31455E+02</wgt>
<wgt id='8001'>0.31449E+02</wgt>
<wgt id='8002'>0.31464E+02</wgt>
<wgt id='8003'>0.31455E+02</wgt>
<wgt id='8004'>0.31454E+02</wgt>
<wgt id='8005'>0.31394E+02</wgt>
<wgt id='8006'>0.31490E+02</wgt>
<wgt id='8007'>0.31518E+02</wgt>
<wgt id='8008'>0.31525E+02</wgt>
<wgt id='8009'>0.31590E+02</wgt>
<wgt id='8010'>0.31419E+02</wgt>
<wgt id='8011'>0.31464E+02</wgt>
<wgt id='8012'>0.31340E+02</wgt>
<wgt id='8013'>0.31385E+02</wgt>
<wgt id='8014'>0.31533E+02</wgt>
<wgt id='8015'>0.31433E+02</wgt>
<wgt id='8016'>0.31496E+02</wgt>
<wgt id='8017'>0.31480E+02</wgt>
<wgt id='8018'>0.31560E+02</wgt>
<wgt id='8019'>0.31426E+02</wgt>
<wgt id='8020'>0.31516E+02</wgt>
<wgt id='8021'>0.31406E+02</wgt>
<wgt id='8022'>0.31564E+02</wgt>
<wgt id='8023'>0.31370E+02</wgt>
<wgt id='8024'>0.31278E+02</wgt>
<wgt id='8025'>0.31349E+02</wgt>
<wgt id='8026'>0.31473E+02</wgt>
<wgt id='8027'>0.31499E+02</wgt>
<wgt id='8028'>0.31470E+02</wgt>
<wgt id='8029'>0.31790E+02</wgt>
<wgt id='8500'>0.33802E+02</wgt>
<wgt id='8501'>0.33519E+02</wgt>
<wgt id='8502'>0.33938E+02</wgt>
<wgt id='8503'>0.33927E+02</wgt>
<wgt id='8504'>0.33636E+02</wgt>
<wgt id='8505'>0.33784E+02</wgt>
<wgt id='8506'>0.33861E+02</wgt>
<wgt id='8507'>0.33618E+02</wgt>
<wgt id='8508'>0.33506E+02</wgt>
<wgt id='8509'>0.33893E+02</wgt>
<wgt id='8510'>0.33894E+02</wgt>
<wgt id='8511'>0.33681E+02</wgt>
<wgt id='8512'>0.33948E+02</wgt>
<wgt id='8513'>0.33841E+02</wgt>
<wgt id='8514'>0.33737E+02</wgt>
<wgt id='8515'>0.33976E+02</wgt>
<wgt id='8516'>0.33730E+02</wgt>
<wgt id='8517'>0.33937E+02</wgt>
<wgt id='8518'>0.33504E+02</wgt>
<wgt id='8519'>0.33428E+02</wgt>
<wgt id='8520'>0.33620E+02</wgt>
<wgt id='8521'>0.33584E+02</wgt>
<wgt id='8522'>0.34044E+02</wgt>
<wgt id='8523'>0.33622E+02</wgt>
<wgt id='8524'>0.33889E+02</wgt>
<wgt id='8525'>0.33858E+02</wgt>
<wgt id='8526'>0.33816E+02</wgt>
<wgt id='8527'>0.33832E+02</wgt>
<wgt id='8528'>0.33749E+02</wgt>
<wgt id='8529'>0.33763E+02</wgt>
<wgt id='8530'>0.33783E+02</wgt>
<wgt id='8531'>0.33800E+02</wgt>
<wgt id='8532'>0.33790E+02</wgt>
<wgt id='8533'>0.33745E+02</wgt>
<wgt id='8534'>0.33821E+02</wgt>
<wgt id='8535'>0.33889E+02</wgt>
<wgt id='8536'>0.33763E+02</wgt>
<wgt id='8537'>0.33808E+02</wgt>
<wgt id='8538'>0.33793E+02</wgt>
<wgt id='8539'>0.33821E+02</wgt>
<wgt id='8540'>0.33834E+02</wgt>
<wgt id='8541'>0.33834E+02</wgt>
<wgt id='8542'>0.33812E+02</wgt>
<wgt id='8543'>0.33752E+02</wgt>
<wgt id='8544'>0.33859E+02</wgt>
<wgt id='8545'>0.33816E+02</wgt>
<wgt id='8546'>0.33851E+02</wgt>
<wgt id='8547'>0.33770E+02</wgt>
<wgt id='8548'>0.33778E+02</wgt>
<wgt id='8549'>0.33809E+02</wgt>
<wgt id='8550'>0.33779E+02</wgt>
<wgt id='8551'>0.33797E+02</wgt>
<wgt id='8552'>0.33777E+02</wgt>
<wgt id='8553'>0.33758E+02</wgt>
<wgt id='8554'>0.33785E+02</wgt>
<wgt id='8555'>0.33802E+02</wgt>
<wgt id='8556'>0.33791E+02</wgt>
<wgt id='8557'>0.33814E+02</wgt>
<wgt id='8558'>0.33840E+02</wgt>
<wgt id='8559'>0.33795E+02</wgt>
<wgt id='8560'>0.33768E+02</wgt>
<wgt id='8561'>0.33820E+02</wgt>
<wgt id='8562'>0.33784E+02</wgt>
<wgt id='8563'>0.33803E+02</wgt>
<wgt id='8564'>0.33794E+02</wgt>
<wgt id='8565'>0.33816E+02</wgt>
<wgt id='8566'>0.33822E+02</wgt>
<wgt id='8567'>0.33808E+02</wgt>
<wgt id='8568'>0.33826E+02</wgt>
<wgt id='8569'>0.33820E+02</wgt>
<wgt id='8570'>0.33792E+02</wgt>
<wgt id='8571'>0.33772E+02</wgt>
<wgt id='8572'>0.33776E+02</wgt>
<wgt id='8573'>0.33784E+02</wgt>
<wgt id='8574'>0.33792E+02</wgt>
<wgt id='8575'>0.33794E+02</wgt>
<wgt id='8576'>0.33803E+02</wgt>
<wgt id='8577'>0.33778E+02</wgt>
<wgt id='8578'>0.33801E+02</wgt>
<wgt id='8579'>0.33827E+02</wgt>
<wgt id='8580'>0.33789E+02</wgt>
<wgt id='8581'>0.33820E+02</wgt>
<wgt id='8582'>0.33782E+02</wgt>
<wgt id='8583'>0.33815E+02</wgt>
<wgt id='8584'>0.33826E+02</wgt>
<wgt id='8585'>0.33815E+02</wgt>
<wgt id='8586'>0.33838E+02</wgt>
<wgt id='8587'>0.33810E+02</wgt>
<wgt id='8588'>0.33802E+02</wgt>
<wgt id='8589'>0.33799E+02</wgt>
<wgt id='8590'>0.33803E+02</wgt>
<wgt id='8591'>0.33783E+02</wgt>
<wgt id='8592'>0.33797E+02</wgt>
<wgt id='8593'>0.33791E+02</wgt>
<wgt id='8594'>0.33797E+02</wgt>
<wgt id='8595'>0.33800E+02</wgt>
<wgt id='8596'>0.33796E+02</wgt>
<wgt id='8597'>0.33811E+02</wgt>
<wgt id='8598'>0.33812E+02</wgt>
<wgt id='8599'>0.33806E+02</wgt>
<wgt id='8600'>0.33802E+02</wgt>
<wgt id='8601'>0.32936E+02</wgt>
<wgt id='8602'>0.34711E+02</wgt>
<wgt id='9000'>0.32132E+02</wgt>
<wgt id='9001'>0.32218E+02</wgt>
<wgt id='9002'>0.32141E+02</wgt>
<wgt id='9003'>0.32108E+02</wgt>
<wgt id='9004'>0.32251E+02</wgt>
<wgt id='9005'>0.32344E+02</wgt>
<wgt id='9006'>0.32215E+02</wgt>
<wgt id='9007'>0.32022E+02</wgt>
<wgt id='9008'>0.32091E+02</wgt>
<wgt id='9009'>0.32193E+02</wgt>
<wgt id='9010'>0.32125E+02</wgt>
<wgt id='9011'>0.32259E+02</wgt>
<wgt id='9012'>0.32217E+02</wgt>
<wgt id='9013'>0.32343E+02</wgt>
<wgt id='9014'>0.32111E+02</wgt>
<wgt id='9015'>0.31847E+02</wgt>
<wgt id='9016'>0.32120E+02</wgt>
<wgt id='9017'>0.32016E+02</wgt>
<wgt id='9018'>0.32352E+02</wgt>
<wgt id='9019'>0.32307E+02</wgt>
<wgt id='9020'>0.32466E+02</wgt>
<wgt id='9021'>0.31863E+02</wgt>
<wgt id='9022'>0.32179E+02</wgt>
<wgt id='9023'>0.31890E+02</wgt>
<wgt id='9024'>0.31990E+02</wgt>
<wgt id='9025'>0.32326E+02</wgt>
<wgt id='9026'>0.32121E+02</wgt>
<wgt id='9027'>0.32066E+02</wgt>
<wgt id='9028'>0.32169E+02</wgt>
<wgt id='9029'>0.32151E+02</wgt>
<wgt id='9030'>0.32090E+02</wgt>
<wgt id='9031'>0.32092E+02</wgt>
<wgt id='9032'>0.32172E+02</wgt>
<wgt id='9033'>0.32172E+02</wgt>
<wgt id='9034'>0.32153E+02</wgt>
<wgt id='9035'>0.32170E+02</wgt>
<wgt id='9036'>0.32147E+02</wgt>
<wgt id='9037'>0.32153E+02</wgt>
<wgt id='9038'>0.32160E+02</wgt>
<wgt id='9039'>0.32134E+02</wgt>
<wgt id='9040'>0.32099E+02</wgt>
<wgt id='9041'>0.32135E+02</wgt>
<wgt id='9042'>0.32150E+02</wgt>
<wgt id='9043'>0.32081E+02</wgt>
<wgt id='9044'>0.32150E+02</wgt>
<wgt id='9045'>0.32145E+02</wgt>
<wgt id='9046'>0.32085E+02</wgt>
<wgt id='9047'>0.32145E+02</wgt>
<wgt id='9048'>0.32151E+02</wgt>
<wgt id='9049'>0.32119E+02</wgt>
<wgt id='9050'>0.32133E+02</wgt>
<wgt id='9051'>0.32155E+02</wgt>
<wgt id='9052'>0.32163E+02</wgt>
<wgt id='9053'>0.32138E+02</wgt>
<wgt id='9054'>0.32117E+02</wgt>
<wgt id='9055'>0.32116E+02</wgt>
<wgt id='9056'>0.32153E+02</wgt>
<wgt id='9057'>0.32134E+02</wgt>
<wgt id='9058'>0.32092E+02</wgt>
<wgt id='9059'>0.32112E+02</wgt>
<wgt id='9060'>0.32125E+02</wgt>
<wgt id='9061'>0.32130E+02</wgt>
<wgt id='9062'>0.32141E+02</wgt>
<wgt id='9063'>0.32138E+02</wgt>
<wgt id='9064'>0.32139E+02</wgt>
<wgt id='9065'>0.32120E+02</wgt>
<wgt id='9066'>0.32123E+02</wgt>
<wgt id='9067'>0.32137E+02</wgt>
<wgt id='9068'>0.32134E+02</wgt>
<wgt id='9069'>0.32166E+02</wgt>
<wgt id='9070'>0.32124E+02</wgt>
<wgt id='9071'>0.32152E+02</wgt>
<wgt id='9072'>0.32158E+02</wgt>
<wgt id='9073'>0.32128E+02</wgt>
<wgt id='9074'>0.32140E+02</wgt>
<wgt id='9075'>0.32132E+02</wgt>
<wgt id='9076'>0.32130E+02</wgt>
<wgt id='9077'>0.32143E+02</wgt>
<wgt id='9078'>0.32140E+02</wgt>
<wgt id='9079'>0.32128E+02</wgt>
<wgt id='9080'>0.32165E+02</wgt>
<wgt id='9081'>0.32136E+02</wgt>
<wgt id='9082'>0.32142E+02</wgt>
<wgt id='9083'>0.32124E+02</wgt>
<wgt id='9084'>0.32114E+02</wgt>
<wgt id='9085'>0.32109E+02</wgt>
<wgt id='9086'>0.32142E+02</wgt>
<wgt id='9087'>0.32098E+02</wgt>
<wgt id='9088'>0.32115E+02</wgt>
<wgt id='9089'>0.32118E+02</wgt>
<wgt id='9090'>0.32137E+02</wgt>
<wgt id='9091'>0.32126E+02</wgt>
<wgt id='9092'>0.32128E+02</wgt>
<wgt id='9093'>0.32124E+02</wgt>
<wgt id='9094'>0.32125E+02</wgt>
<wgt id='9095'>0.32137E+02</wgt>
<wgt id='9096'>0.32124E+02</wgt>
<wgt id='9097'>0.32136E+02</wgt>
<wgt id='9098'>0.32129E+02</wgt>
<wgt id='9099'>0.32122E+02</wgt>
<wgt id='9100'>0.32134E+02</wgt>
<wgt id='9101'>0.31283E+02</wgt>
<wgt id='9102'>0.32988E+02</wgt>
<wgt id='10000'>0.33801E+02</wgt>
<wgt id='10001'>0.33857E+02</wgt>
<wgt id='10002'>0.33527E+02</wgt>
<wgt id='10003'>0.33802E+02</wgt>
<wgt id='10004'>0.33536E+02</wgt>
<wgt id='10005'>0.33774E+02</wgt>
<wgt id='10006'>0.33549E+02</wgt>
<wgt id='10007'>0.33788E+02</wgt>
<wgt id='10008'>0.33824E+02</wgt>
<wgt id='10009'>0.33615E+02</wgt>
<wgt id='10010'>0.33834E+02</wgt>
<wgt id='10011'>0.33535E+02</wgt>
<wgt id='10012'>0.33657E+02</wgt>
<wgt id='10013'>0.33837E+02</wgt>
<wgt id='10014'>0.33806E+02</wgt>
<wgt id='10015'>0.33880E+02</wgt>
<wgt id='10016'>0.33740E+02</wgt>
<wgt id='10017'>0.33954E+02</wgt>
<wgt id='10018'>0.33899E+02</wgt>
<wgt id='10019'>0.33307E+02</wgt>
<wgt id='10020'>0.33723E+02</wgt>
<wgt id='10021'>0.33770E+02</wgt>
<wgt id='10022'>0.33832E+02</wgt>
<wgt id='10023'>0.33855E+02</wgt>
<wgt id='10024'>0.33798E+02</wgt>
<wgt id='10025'>0.33767E+02</wgt>
<wgt id='10026'>0.33923E+02</wgt>
<wgt id='10027'>0.33839E+02</wgt>
<wgt id='10028'>0.34170E+02</wgt>
<wgt id='10029'>0.33821E+02</wgt>
<wgt id='10030'>0.33784E+02</wgt>
<wgt id='10031'>0.32936E+02</wgt>
<wgt id='10032'>0.34711E+02</wgt>
<wgt id='11000'>0.32131E+02</wgt>
<wgt id='11001'>0.31594E+02</wgt>
<wgt id='11002'>0.32047E+02</wgt>
<wgt id='11003'>0.32142E+02</wgt>
<wgt id='11004'>0.31910E+02</wgt>
<wgt id='11005'>0.32266E+02</wgt>
<wgt id='11006'>0.32138E+02</wgt>
<wgt id='11007'>0.32165E+02</wgt>
<wgt id='11008'>0.32153E+02</wgt>
<wgt id='11009'>0.32134E+02</wgt>
<wgt id='11010'>0.32055E+02</wgt>
<wgt id='11011'>0.32061E+02</wgt>
<wgt id='11012'>0.32092E+02</wgt>
<wgt id='11013'>0.32175E+02</wgt>
<wgt id='11014'>0.32088E+02</wgt>
<wgt id='11015'>0.32005E+02</wgt>
<wgt id='11016'>0.32191E+02</wgt>
<wgt id='11017'>0.32225E+02</wgt>
<wgt id='11018'>0.32157E+02</wgt>
<wgt id='11019'>0.32180E+02</wgt>
<wgt id='11020'>0.32135E+02</wgt>
<wgt id='11021'>0.32216E+02</wgt>
<wgt id='11022'>0.32222E+02</wgt>
<wgt id='11023'>0.32133E+02</wgt>
<wgt id='11024'>0.31990E+02</wgt>
<wgt id='11025'>0.32065E+02</wgt>
<wgt id='11026'>0.32127E+02</wgt>
<wgt id='11027'>0.32218E+02</wgt>
<wgt id='11028'>0.32084E+02</wgt>
<wgt id='11029'>0.31698E+02</wgt>
<wgt id='11030'>0.32142E+02</wgt>
<wgt id='11031'>0.31283E+02</wgt>
<wgt id='11032'>0.32988E+02</wgt>
<wgt id='12000'>0.29590E+02</wgt>
<wgt id='12001'>0.29551E+02</wgt>
<wgt id='12002'>0.29628E+02</wgt>
<wgt id='12003'>0.29613E+02</wgt>
<wgt id='12004'>0.29566E+02</wgt>
<wgt id='12005'>0.29620E+02</wgt>
<wgt id='12006'>0.29560E+02</wgt>
<wgt id='12007'>0.29730E+02</wgt>
<wgt id='12008'>0.29453E+02</wgt>
<wgt id='12009'>0.29552E+02</wgt>
<wgt id='12010'>0.29629E+02</wgt>
<wgt id='12011'>0.29394E+02</wgt>
<wgt id='12012'>0.29804E+02</wgt>
<wgt id='12013'>0.29526E+02</wgt>
<wgt id='12014'>0.29655E+02</wgt>
<wgt id='12015'>0.29742E+02</wgt>
<wgt id='12016'>0.29398E+02</wgt>
<wgt id='12017'>0.29713E+02</wgt>
<wgt id='12018'>0.29503E+02</wgt>
<wgt id='12019'>0.29753E+02</wgt>
<wgt id='12020'>0.29414E+02</wgt>
<wgt id='12021'>0.29624E+02</wgt>
<wgt id='12022'>0.29553E+02</wgt>
<wgt id='12023'>0.29266E+02</wgt>
<wgt id='12024'>0.29883E+02</wgt>
<wgt id='12025'>0.29352E+02</wgt>
<wgt id='12026'>0.29842E+02</wgt>
<wgt id='12027'>0.30069E+02</wgt>
<wgt id='12028'>0.29161E+02</wgt>
<wgt id='12050'>0.29590E+02</wgt>
<wgt id='12051'>0.29733E+02</wgt>
<wgt id='12052'>0.29368E+02</wgt>
<wgt id='12053'>0.29737E+02</wgt>
<wgt id='12054'>0.29442E+02</wgt>
<wgt id='12055'>0.29356E+02</wgt>
<wgt id='12056'>0.30133E+02</wgt>
<wgt id='12057'>0.29607E+02</wgt>
<wgt id='12058'>0.29600E+02</wgt>
<wgt id='12059'>0.29813E+02</wgt>
<wgt id='12060'>0.29383E+02</wgt>
<wgt id='12061'>0.29389E+02</wgt>
<wgt id='12062'>0.29562E+02</wgt>
<wgt id='12063'>0.29879E+02</wgt>
<wgt id='13000'>0.31252E+02</wgt>
<wgt id='13001'>0.31214E+02</wgt>
<wgt id='13002'>0.31280E+02</wgt>
<wgt id='13003'>0.31244E+02</wgt>
<wgt id='13004'>0.31250E+02</wgt>
<wgt id='13005'>0.31283E+02</wgt>
<wgt id='13006'>0.31212E+02</wgt>
<wgt id='13007'>0.31435E+02</wgt>
<wgt id='13008'>0.31065E+02</wgt>
<wgt id='13009'>0.31107E+02</wgt>
<wgt id='13010'>0.31392E+02</wgt>
<wgt id='13011'>0.31357E+02</wgt>
<wgt id='13012'>0.31140E+02</wgt>
<wgt id='13013'>0.31209E+02</wgt>
<wgt id='13014'>0.31283E+02</wgt>
<wgt id='13015'>0.31278E+02</wgt>
<wgt id='13016'>0.31146E+02</wgt>
<wgt id='13017'>0.31217E+02</wgt>
<wgt id='13018'>0.31279E+02</wgt>
<wgt id='13019'>0.31302E+02</wgt>
<wgt id='13020'>0.31198E+02</wgt>
<wgt id='13021'>0.31531E+02</wgt>
<wgt id='13022'>0.30965E+02</wgt>
<wgt id='13023'>0.30931E+02</wgt>
<wgt id='13024'>0.31567E+02</wgt>
<wgt id='13025'>0.30723E+02</wgt>
<wgt id='13026'>0.31743E+02</wgt>
<wgt id='13027'>0.31025E+02</wgt>
<wgt id='13028'>0.31497E+02</wgt>
<wgt id='13050'>0.31252E+02</wgt>
<wgt id='13051'>0.31364E+02</wgt>
<wgt id='13052'>0.30919E+02</wgt>
<wgt id='13053'>0.31352E+02</wgt>
<wgt id='13054'>0.31175E+02</wgt>
<wgt id='13055'>0.30318E+02</wgt>
<wgt id='13056'>0.31487E+02</wgt>
<wgt id='13057'>0.31238E+02</wgt>
<wgt id='13058'>0.31334E+02</wgt>
<wgt id='13059'>0.31471E+02</wgt>
<wgt id='13060'>0.30044E+02</wgt>
<wgt id='13061'>0.31309E+02</wgt>
<wgt id='13062'>0.31251E+02</wgt>
<wgt id='13063'>0.31696E+02</wgt>
<wgt id='14000'>0.33469E+02</wgt>
<wgt id='14001'>0.33465E+02</wgt>
<wgt id='14002'>0.33461E+02</wgt>
<wgt id='14003'>0.33457E+02</wgt>
<wgt id='14004'>0.33454E+02</wgt>
<wgt id='14005'>0.33450E+02</wgt>
<wgt id='14006'>0.33446E+02</wgt>
<wgt id='14007'>0.33442E+02</wgt>
<wgt id='14008'>0.33439E+02</wgt>
<wgt id='14009'>0.33435E+02</wgt>
<wgt id='14010'>0.33431E+02</wgt>
<wgt id='14011'>0.33427E+02</wgt>
<wgt id='14012'>0.33423E+02</wgt>
<wgt id='14013'>0.33420E+02</wgt>
<wgt id='14014'>0.33416E+02</wgt>
<wgt id='14015'>0.33412E+02</wgt>
<wgt id='14016'>0.33408E+02</wgt>
<wgt id='14017'>0.33405E+02</wgt>
<wgt id='14018'>0.33401E+02</wgt>
<wgt id='14019'>0.33397E+02</wgt>
<wgt id='14020'>0.33393E+02</wgt>
<wgt id='14021'>0.33390E+02</wgt>
<wgt id='14022'>0.33386E+02</wgt>
<wgt id='14023'>0.33382E+02</wgt>
<wgt id='14024'>0.33378E+02</wgt>
<wgt id='14025'>0.33375E+02</wgt>
<wgt id='14026'>0.33371E+02</wgt>
<wgt id='14027'>0.33367E+02</wgt>
<wgt id='14028'>0.33363E+02</wgt>
<wgt id='14029'>0.33359E+02</wgt>
<wgt id='14030'>0.33356E+02</wgt>
<wgt id='15000'>0.31765E+02</wgt>
<wgt id='15001'>0.31848E+02</wgt>
<wgt id='15002'>0.31768E+02</wgt>
<wgt id='15003'>0.31746E+02</wgt>
<wgt id='15004'>0.31884E+02</wgt>
<wgt id='15005'>0.31976E+02</wgt>
<wgt id='15006'>0.31850E+02</wgt>
<wgt id='15007'>0.31654E+02</wgt>
<wgt id='15008'>0.31722E+02</wgt>
<wgt id='15009'>0.31827E+02</wgt>
<wgt id='15010'>0.31761E+02</wgt>
<wgt id='15011'>0.31891E+02</wgt>
<wgt id='15012'>0.31849E+02</wgt>
<wgt id='15013'>0.31978E+02</wgt>
<wgt id='15014'>0.31738E+02</wgt>
<wgt id='15015'>0.31472E+02</wgt>
<wgt id='15016'>0.31755E+02</wgt>
<wgt id='15017'>0.31650E+02</wgt>
<wgt id='15018'>0.31980E+02</wgt>
<wgt id='15019'>0.31939E+02</wgt>
<wgt id='15020'>0.32098E+02</wgt>
<wgt id='15021'>0.31493E+02</wgt>
<wgt id='15022'>0.31813E+02</wgt>
<wgt id='15023'>0.31523E+02</wgt>
<wgt id='15024'>0.31622E+02</wgt>
<wgt id='15025'>0.31952E+02</wgt>
<wgt id='15026'>0.31751E+02</wgt>
<wgt id='15027'>0.31702E+02</wgt>
<wgt id='15028'>0.31803E+02</wgt>
<wgt id='15029'>0.31783E+02</wgt>
<wgt id='15030'>0.31723E+02</wgt>
<wgt id='15031'>0.31728E+02</wgt>
<wgt id='15032'>0.31804E+02</wgt>
<wgt id='15033'>0.31804E+02</wgt>
<wgt id='15034'>0.31785E+02</wgt>
<wgt id='15035'>0.31803E+02</wgt>
<wgt id='15036'>0.31779E+02</wgt>
<wgt id='15037'>0.31786E+02</wgt>
<wgt id='15038'>0.31791E+02</wgt>
<wgt id='15039'>0.31765E+02</wgt>
<wgt id='15040'>0.31731E+02</wgt>
<wgt id='15041'>0.31764E+02</wgt>
<wgt id='15042'>0.31780E+02</wgt>
<wgt id='15043'>0.31717E+02</wgt>
<wgt id='15044'>0.31782E+02</wgt>
<wgt id='15045'>0.31775E+02</wgt>
<wgt id='15046'>0.31718E+02</wgt>
<wgt id='15047'>0.31775E+02</wgt>
<wgt id='15048'>0.31783E+02</wgt>
<wgt id='15049'>0.31749E+02</wgt>
<wgt id='15050'>0.31766E+02</wgt>
<wgt id='15051'>0.31788E+02</wgt>
<wgt id='15052'>0.31794E+02</wgt>
<wgt id='15053'>0.31772E+02</wgt>
<wgt id='15054'>0.31750E+02</wgt>
<wgt id='15055'>0.31748E+02</wgt>
<wgt id='15056'>0.31784E+02</wgt>
<wgt id='15057'>0.31766E+02</wgt>
<wgt id='15058'>0.31727E+02</wgt>
<wgt id='15059'>0.31745E+02</wgt>
<wgt id='15060'>0.31758E+02</wgt>
<wgt id='15061'>0.31762E+02</wgt>
<wgt id='15062'>0.31773E+02</wgt>
<wgt id='15063'>0.31771E+02</wgt>
<wgt id='15064'>0.31770E+02</wgt>
<wgt id='15065'>0.31753E+02</wgt>
<wgt id='15066'>0.31756E+02</wgt>
<wgt id='15067'>0.31769E+02</wgt>
<wgt id='15068'>0.31767E+02</wgt>
<wgt id='15069'>0.31798E+02</wgt>
<wgt id='15070'>0.31756E+02</wgt>
<wgt id='15071'>0.31785E+02</wgt>
<wgt id='15072'>0.31790E+02</wgt>
<wgt id='15073'>0.31759E+02</wgt>
<wgt id='15074'>0.31772E+02</wgt>
<wgt id='15075'>0.31764E+02</wgt>
<wgt id='15076'>0.31763E+02</wgt>
<wgt id='15077'>0.31775E+02</wgt>
<wgt id='15078'>0.31773E+02</wgt>
<wgt id='15079'>0.31760E+02</wgt>
<wgt id='15080'>0.31795E+02</wgt>
<wgt id='15081'>0.31769E+02</wgt>
<wgt id='15082'>0.31775E+02</wgt>
<wgt id='15083'>0.31756E+02</wgt>
<wgt id='15084'>0.31747E+02</wgt>
<wgt id='15085'>0.31742E+02</wgt>
<wgt id='15086'>0.31775E+02</wgt>
<wgt id='15087'>0.31730E+02</wgt>
<wgt id='15088'>0.31747E+02</wgt>
<wgt id='15089'>0.31750E+02</wgt>
<wgt id='15090'>0.31769E+02</wgt>
<wgt id='15091'>0.31758E+02</wgt>
<wgt id='15092'>0.31760E+02</wgt>
<wgt id='15093'>0.31757E+02</wgt>
<wgt id='15094'>0.31757E+02</wgt>
<wgt id='15095'>0.31770E+02</wgt>
<wgt id='15096'>0.31756E+02</wgt>
<wgt id='15097'>0.31768E+02</wgt>
<wgt id='15098'>0.31762E+02</wgt>
<wgt id='15099'>0.31754E+02</wgt>
<wgt id='15100'>0.31766E+02</wgt>
<wgt id='15101'>0.31764E+02</wgt>
<wgt id='15102'>0.31762E+02</wgt>
<wgt id='15103'>0.31765E+02</wgt>
<wgt id='15104'>0.31765E+02</wgt>
<wgt id='15105'>0.31766E+02</wgt>
<wgt id='15106'>0.31765E+02</wgt>
<wgt id='15107'>0.31763E+02</wgt>
<wgt id='1500'>0.34159E+02</wgt>
<wgt id='1501'>0.33062E+02</wgt>
<wgt id='1502'>0.34861E+02</wgt>
<wgt id='1503'>0.34844E+02</wgt>
<wgt id='1504'>0.32715E+02</wgt>
<wgt id='1505'>0.32431E+02</wgt>
<wgt id='1506'>0.33567E+02</wgt>
<wgt id='1507'>0.34407E+02</wgt>
<wgt id='1508'>0.34340E+02</wgt>
<wgt id='1509'>0.34132E+02</wgt>
<wgt id='1510'>0.34710E+02</wgt>
<wgt id='1511'>0.33791E+02</wgt>
<wgt id='1512'>0.33985E+02</wgt>
<wgt id='1513'>0.33807E+02</wgt>
<wgt id='1514'>0.35114E+02</wgt>
<wgt id='1515'>0.34269E+02</wgt>
<wgt id='1516'>0.34942E+02</wgt>
<wgt id='1517'>0.35123E+02</wgt>
<wgt id='1518'>0.34813E+02</wgt>
<wgt id='1519'>0.33728E+02</wgt>
<wgt id='1520'>0.34724E+02</wgt>
<wgt id='1521'>0.33248E+02</wgt>
<wgt id='1522'>0.33992E+02</wgt>
<wgt id='1523'>0.34662E+02</wgt>
<wgt id='1524'>0.33484E+02</wgt>
<wgt id='1525'>0.34131E+02</wgt>
<wgt id='1526'>0.33034E+02</wgt>
<wgt id='1527'>0.35520E+02</wgt>
<wgt id='1528'>0.34434E+02</wgt>
<wgt id='1529'>0.34639E+02</wgt>
<wgt id='1530'>0.34119E+02</wgt>
<wgt id='1531'>0.33441E+02</wgt>
<wgt id='1532'>0.33714E+02</wgt>
<wgt id='1533'>0.34164E+02</wgt>
<wgt id='1534'>0.33186E+02</wgt>
<wgt id='1535'>0.35809E+02</wgt>
<wgt id='1536'>0.34488E+02</wgt>
<wgt id='1537'>0.34469E+02</wgt>
<wgt id='1538'>0.34146E+02</wgt>
<wgt id='1539'>0.33174E+02</wgt>
<wgt id='1540'>0.33873E+02</wgt>
<wgt id='1541'>0.33625E+02</wgt>
<wgt id='1542'>0.33675E+02</wgt>
<wgt id='1543'>0.33405E+02</wgt>
<wgt id='1544'>0.34012E+02</wgt>
<wgt id='1545'>0.35148E+02</wgt>
<wgt id='1546'>0.33794E+02</wgt>
<wgt id='1547'>0.34083E+02</wgt>
<wgt id='1548'>0.33972E+02</wgt>
<wgt id='1549'>0.35111E+02</wgt>
<wgt id='1550'>0.34227E+02</wgt>
<wgt id='1551'>0.33853E+02</wgt>
<wgt id='1552'>0.34409E+02</wgt>
<wgt id='1553'>0.34077E+02</wgt>
<wgt id='1554'>0.33304E+02</wgt>
<wgt id='1555'>0.34110E+02</wgt>
<wgt id='1556'>0.34535E+02</wgt>
<wgt id='1557'>0.34388E+02</wgt>
<wgt id='1558'>0.34082E+02</wgt>
<wgt id='1559'>0.34753E+02</wgt>
<wgt id='1560'>0.34044E+02</wgt>
<wgt id='1561'>0.34468E+02</wgt>
<wgt id='1562'>0.34678E+02</wgt>
<wgt id='1563'>0.33653E+02</wgt>
<wgt id='1564'>0.35122E+02</wgt>
<wgt id='1565'>0.34016E+02</wgt>
<wgt id='1566'>0.34056E+02</wgt>
<wgt id='1567'>0.35232E+02</wgt>
<wgt id='1568'>0.34154E+02</wgt>
<wgt id='1569'>0.33739E+02</wgt>
<wgt id='1570'>0.33923E+02</wgt>
<wgt id='1571'>0.34169E+02</wgt>
<wgt id='1572'>0.33562E+02</wgt>
<wgt id='1573'>0.33652E+02</wgt>
<wgt id='1574'>0.33991E+02</wgt>
<wgt id='1575'>0.34389E+02</wgt>
<wgt id='1576'>0.32865E+02</wgt>
<wgt id='1577'>0.33266E+02</wgt>
<wgt id='1578'>0.33898E+02</wgt>
<wgt id='1579'>0.34151E+02</wgt>
<wgt id='1580'>0.33854E+02</wgt>
<wgt id='1581'>0.34185E+02</wgt>
<wgt id='1582'>0.33879E+02</wgt>
<wgt id='1583'>0.34019E+02</wgt>
<wgt id='1584'>0.34616E+02</wgt>
<wgt id='1585'>0.34399E+02</wgt>
<wgt id='1586'>0.34331E+02</wgt>
<wgt id='1587'>0.34911E+02</wgt>
<wgt id='1588'>0.34506E+02</wgt>
<wgt id='1589'>0.33962E+02</wgt>
<wgt id='1590'>0.33731E+02</wgt>
<wgt id='1591'>0.33460E+02</wgt>
<wgt id='1592'>0.34184E+02</wgt>
<wgt id='1593'>0.34581E+02</wgt>
<wgt id='1594'>0.34943E+02</wgt>
<wgt id='1595'>0.35279E+02</wgt>
<wgt id='1596'>0.34049E+02</wgt>
<wgt id='1597'>0.34359E+02</wgt>
<wgt id='1598'>0.34318E+02</wgt>
<wgt id='1599'>0.34524E+02</wgt>
<wgt id='1600'>0.34800E+02</wgt>
<wgt id='1601'>0.33491E+02</wgt>
<wgt id='1602'>0.34580E+02</wgt>
<wgt id='1700'>0.31968E+02</wgt>
<wgt id='1800'>0.34435E+02</wgt>
<wgt id='1850'>0.42486E+02</wgt>
<wgt id='1900'>0.36748E+02</wgt>
<wgt id='1950'>0.40984E+02</wgt>
</rwgt>
</event>
</LesHouchesEvents>
