<LesHouchesEvents version="3.0">
<!--
file generated with POWHEG-BOX-V2
SVN status Begin
/afs/cern.ch/work/y/yanchu/mccontact/CMSSW_9_3_0/src/TT_hdamp_NNPDF31_13TeV_powheg/TT_hdamp_NNPDF31_13TeV_powheg/POWHEG-BOX
URL: svn://powhegbox.mib.infn.it/trunk/POWHEG-BOX-V2
Rev.3453
Warning: not a clean version:
M       include/pwhg_lhrwgt.h
M       include/pwhg_rwl.h
M       lhefwrite.f
/afs/cern.ch/work/y/yanchu/mccontact/CMSSW_9_3_0/src/TT_hdamp_NNPDF31_13TeV_powheg/TT_hdamp_NNPDF31_13TeV_powheg/POWHEG-BOX/hvq
URL: svn://powhegbox.mib.infn.it/trunk/User-Processes-V2/hvq
Rev.3453
Warning: not a clean version:
M       Makefile
M       pwhg_analysis-dummy.f
SVN status End
Process: hvq
Input file powheg.input contained:
! TTbar production parameters
!randomseed 352345 ! uncomment to set the random seed to a value of your choice.
                   ! It generates the call RM48IN(352345,0,0) (see the RM48 manual).
                   ! THIS MAY ONLY AFFECTS THE GENERATION OF POWHEG EVENTS!
                   ! If POWHEG is interfaced to a shower MC, refer to the shower MC
                   ! documentation to set its seed.

!Heavy flavour production parameters

numevts 10
iseed 1
ih1   1        ! hadron 1
ih2   1        ! hadron 2
! To be set only if using LHA pdfs
lhans1 306000
lhans2 306000
! To be set only if using different pdf sets for the two incoming hadrons
! QCDLambda5  0.25 ! for not equal pdf sets
ebeam1 6500    ! energy of beam 1
ebeam2 6500    ! energy of beam 2
qmass  172.5     ! mass of heavy quark in GeV
facscfact 1    ! factorization scale factor: mufact=muref*facscfact
renscfact 1    ! renormalization scale factor: muren=muref*renscfact
hdamp 237.8775

topdecaymode 22222   ! an integer of 5 digits that are either 0, or 2, representing in
                     ! the order the maximum number of the following particles(antiparticles)
                     ! in the final state: e  mu tau up charm
                     ! For example
                     ! 22222    All decays (up to 2 units of everything)
                     ! 20000    both top go into b l nu (with the appropriate signs)
                     ! 10011    one top goes into electron (or positron), the other into (any) hadro
                     !          or one top goes into charm, the other into up
                     ! 00022    Fully hadronic
                     ! 00002    Fully hadronic with two charms
                     ! 00011    Fully hadronic with a single charm
                     ! 00012    Fully hadronic with at least one charm

!semileptonic 1      ! uncomment if you want to filter out only semileptonic events. For example,
                     ! with topdecaymode 10011 and semileptonic 1 you get only events with one top g
                     ! to an electron or positron, and the other into any hadron.

! Parameters for the generation of spin correlations in t tbar decays
tdec/wmass 80.4  ! W mass for top decay
tdec/wwidth 2.141
tdec/bmass 4.8
tdec/twidth  1.31 ! 1.33 using PDG LO formula
tdec/elbranching 0.108
tdec/emass 0.00051
tdec/mumass 0.1057
tdec/taumass 1.777
tdec/dmass   0.100
tdec/umass   0.100
tdec/smass   0.200
tdec/cmass   1.5
tdec/sin2cabibbo 0.051
! Parameters to allow-disallow use of stored data
use-old-grid 1    ! if 1 use old grid if file pwggrids.dat is present (# 1: regenerate)
use-old-ubound 1  ! if 1 use norm of upper bounding function stored in pwgubound.dat, if present; #

ncall1 10000   ! number of calls for initializing the integration grid
itmx1 5        ! number of iterations for initializing the integration grid
ncall2 100000  ! number of calls for computing the integral and finding upper bound
itmx2 5        ! number of iterations for computing the integral and finding upper bound
foldcsi   1      ! number of folds on x integration
foldy   1      ! number of folds on y integration
foldphi 1      ! number of folds on phi integration
nubound 100000  ! number of bbarra calls to setup norm of upper bounding function
iymax 1        ! <= 10, normalization of upper bounding function in iunorm X iunorm square in y, log
ixmax 1        ! <= 10, normalization of upper bounding function in iunorm X iunorm square in y, log
xupbound 2      ! increase upper bound for radiation generation

#pdfreweight 0
dampreweight 1      ! h_damp reweighting (0.9959*mt, 1.581*mt, mt*2.239)
#storeinfo_rwgt 0
#withnegweights 1 0    ! default 0


#manyseeds 1

#parallelstage 4

#xgriditeration 1 1
rwl_group_events 2000
lhapdf6maxsets 50
rwl_file 'pwg-rwl.dat'
rwl_format_rwgt 1
End of powheg.input content
PDF package: lha
 Random number generator initialized with:            1             0             0
-->
<header>
<initrwgt>
<weightgroup name='scale_variation' combine='envelope' >
<weight id='1001' > lhapdf=306000 renscfact=1d0 facscfact=1d0 </weight>
<weight id='1002' > lhapdf=306000 renscfact=1d0 facscfact=2d0 </weight>
<weight id='1003' > lhapdf=306000 renscfact=1d0 facscfact=0.5d0 </weight>
<weight id='1004' > lhapdf=306000 renscfact=2d0 facscfact=1d0 </weight>
<weight id='1005' > lhapdf=306000 renscfact=2d0 facscfact=2d0 </weight>
<weight id='1006' > lhapdf=306000 renscfact=2d0 facscfact=0.5d0 </weight>
<weight id='1007' > lhapdf=306000 renscfact=0.5d0 facscfact=1d0 </weight>
<weight id='1008' > lhapdf=306000 renscfact=0.5d0 facscfact=2d0 </weight>
<weight id='1009' > lhapdf=306000 renscfact=0.5d0 facscfact=0.5d0 </weight>
</weightgroup>
<weightgroup name='PDF_variation1' combine='hessian' >
<weight id='2000' > lhapdf=306000 </weight>
<weight id='2001' > lhapdf=306001 </weight>
<weight id='2002' > lhapdf=306002 </weight>
<weight id='2003' > lhapdf=306003 </weight>
<weight id='2004' > lhapdf=306004 </weight>
<weight id='2005' > lhapdf=306005 </weight>
<weight id='2006' > lhapdf=306006 </weight>
<weight id='2007' > lhapdf=306007 </weight>
<weight id='2008' > lhapdf=306008 </weight>
<weight id='2009' > lhapdf=306009 </weight>
<weight id='2010' > lhapdf=306010 </weight>
<weight id='2011' > lhapdf=306011 </weight>
<weight id='2012' > lhapdf=306012 </weight>
<weight id='2013' > lhapdf=306013 </weight>
<weight id='2014' > lhapdf=306014 </weight>
<weight id='2015' > lhapdf=306015 </weight>
<weight id='2016' > lhapdf=306016 </weight>
<weight id='2017' > lhapdf=306017 </weight>
<weight id='2018' > lhapdf=306018 </weight>
<weight id='2019' > lhapdf=306019 </weight>
<weight id='2020' > lhapdf=306020 </weight>
<weight id='2021' > lhapdf=306021 </weight>
<weight id='2022' > lhapdf=306022 </weight>
<weight id='2023' > lhapdf=306023 </weight>
<weight id='2024' > lhapdf=306024 </weight>
<weight id='2025' > lhapdf=306025 </weight>
<weight id='2026' > lhapdf=306026 </weight>
<weight id='2027' > lhapdf=306027 </weight>
<weight id='2028' > lhapdf=306028 </weight>
<weight id='2029' > lhapdf=306029 </weight>
<weight id='2030' > lhapdf=306030 </weight>
<weight id='2031' > lhapdf=306031 </weight>
<weight id='2032' > lhapdf=306032 </weight>
<weight id='2033' > lhapdf=306033 </weight>
<weight id='2034' > lhapdf=306034 </weight>
<weight id='2035' > lhapdf=306035 </weight>
<weight id='2036' > lhapdf=306036 </weight>
<weight id='2037' > lhapdf=306037 </weight>
<weight id='2038' > lhapdf=306038 </weight>
<weight id='2039' > lhapdf=306039 </weight>
<weight id='2040' > lhapdf=306040 </weight>
<weight id='2041' > lhapdf=306041 </weight>
<weight id='2042' > lhapdf=306042 </weight>
<weight id='2043' > lhapdf=306043 </weight>
<weight id='2044' > lhapdf=306044 </weight>
<weight id='2045' > lhapdf=306045 </weight>
<weight id='2046' > lhapdf=306046 </weight>
<weight id='2047' > lhapdf=306047 </weight>
<weight id='2048' > lhapdf=306048 </weight>
<weight id='2049' > lhapdf=306049 </weight>
<weight id='2050' > lhapdf=306050 </weight>
<weight id='2051' > lhapdf=306051 </weight>
<weight id='2052' > lhapdf=306052 </weight>
<weight id='2053' > lhapdf=306053 </weight>
<weight id='2054' > lhapdf=306054 </weight>
<weight id='2055' > lhapdf=306055 </weight>
<weight id='2056' > lhapdf=306056 </weight>
<weight id='2057' > lhapdf=306057 </weight>
<weight id='2058' > lhapdf=306058 </weight>
<weight id='2059' > lhapdf=306059 </weight>
<weight id='2060' > lhapdf=306060 </weight>
<weight id='2061' > lhapdf=306061 </weight>
<weight id='2062' > lhapdf=306062 </weight>
<weight id='2063' > lhapdf=306063 </weight>
<weight id='2064' > lhapdf=306064 </weight>
<weight id='2065' > lhapdf=306065 </weight>
<weight id='2066' > lhapdf=306066 </weight>
<weight id='2067' > lhapdf=306067 </weight>
<weight id='2068' > lhapdf=306068 </weight>
<weight id='2069' > lhapdf=306069 </weight>
<weight id='2070' > lhapdf=306070 </weight>
<weight id='2071' > lhapdf=306071 </weight>
<weight id='2072' > lhapdf=306072 </weight>
<weight id='2073' > lhapdf=306073 </weight>
<weight id='2074' > lhapdf=306074 </weight>
<weight id='2075' > lhapdf=306075 </weight>
<weight id='2076' > lhapdf=306076 </weight>
<weight id='2077' > lhapdf=306077 </weight>
<weight id='2078' > lhapdf=306078 </weight>
<weight id='2079' > lhapdf=306079 </weight>
<weight id='2080' > lhapdf=306080 </weight>
<weight id='2081' > lhapdf=306081 </weight>
<weight id='2082' > lhapdf=306082 </weight>
<weight id='2083' > lhapdf=306083 </weight>
<weight id='2084' > lhapdf=306084 </weight>
<weight id='2085' > lhapdf=306085 </weight>
<weight id='2086' > lhapdf=306086 </weight>
<weight id='2087' > lhapdf=306087 </weight>
<weight id='2088' > lhapdf=306088 </weight>
<weight id='2089' > lhapdf=306089 </weight>
<weight id='2090' > lhapdf=306090 </weight>
<weight id='2091' > lhapdf=306091 </weight>
<weight id='2092' > lhapdf=306092 </weight>
<weight id='2093' > lhapdf=306093 </weight>
<weight id='2094' > lhapdf=306094 </weight>
<weight id='2095' > lhapdf=306095 </weight>
<weight id='2096' > lhapdf=306096 </weight>
<weight id='2097' > lhapdf=306097 </weight>
<weight id='2098' > lhapdf=306098 </weight>
<weight id='2099' > lhapdf=306099 </weight>
<weight id='2100' > lhapdf=306100 </weight>
<weight id='2101' > lhapdf=306101 </weight>
<weight id='2102' > lhapdf=306102 </weight>
<weight id='2104' > lhapdf=322500 </weight>
<weight id='2105' > lhapdf=322700 </weight>
<weight id='2106' > lhapdf=322900 </weight>
<weight id='2107' > lhapdf=323100 </weight>
<weight id='2108' > lhapdf=323300 </weight>
<weight id='2109' > lhapdf=323500 </weight>
<weight id='2110' > lhapdf=323700 </weight>
<weight id='2111' > lhapdf=323900 </weight>
<weight id='3000' > lhapdf=305800 </weight>
<weight id='3001' > lhapdf=305801 </weight>
<weight id='3002' > lhapdf=305802 </weight>
<weight id='3003' > lhapdf=305803 </weight>
<weight id='3004' > lhapdf=305804 </weight>
<weight id='3005' > lhapdf=305805 </weight>
<weight id='3006' > lhapdf=305806 </weight>
<weight id='3007' > lhapdf=305807 </weight>
<weight id='3008' > lhapdf=305808 </weight>
<weight id='3009' > lhapdf=305809 </weight>
<weight id='3010' > lhapdf=305810 </weight>
<weight id='3011' > lhapdf=305811 </weight>
<weight id='3012' > lhapdf=305812 </weight>
<weight id='3013' > lhapdf=305813 </weight>
<weight id='3014' > lhapdf=305814 </weight>
<weight id='3015' > lhapdf=305815 </weight>
<weight id='3016' > lhapdf=305816 </weight>
<weight id='3017' > lhapdf=305817 </weight>
<weight id='3018' > lhapdf=305818 </weight>
<weight id='3019' > lhapdf=305819 </weight>
<weight id='3020' > lhapdf=305820 </weight>
<weight id='3021' > lhapdf=305821 </weight>
<weight id='3022' > lhapdf=305822 </weight>
<weight id='3023' > lhapdf=305823 </weight>
<weight id='3024' > lhapdf=305824 </weight>
<weight id='3025' > lhapdf=305825 </weight>
<weight id='3026' > lhapdf=305826 </weight>
<weight id='3027' > lhapdf=305827 </weight>
<weight id='3028' > lhapdf=305828 </weight>
<weight id='3029' > lhapdf=305829 </weight>
<weight id='3030' > lhapdf=305830 </weight>
<weight id='3031' > lhapdf=305831 </weight>
<weight id='3032' > lhapdf=305832 </weight>
<weight id='3033' > lhapdf=305833 </weight>
<weight id='3034' > lhapdf=305834 </weight>
<weight id='3035' > lhapdf=305835 </weight>
<weight id='3036' > lhapdf=305836 </weight>
<weight id='3037' > lhapdf=305837 </weight>
<weight id='3038' > lhapdf=305838 </weight>
<weight id='3039' > lhapdf=305839 </weight>
<weight id='3040' > lhapdf=305840 </weight>
<weight id='3041' > lhapdf=305841 </weight>
<weight id='3042' > lhapdf=305842 </weight>
<weight id='3043' > lhapdf=305843 </weight>
<weight id='3044' > lhapdf=305844 </weight>
<weight id='3045' > lhapdf=305845 </weight>
<weight id='3046' > lhapdf=305846 </weight>
<weight id='3047' > lhapdf=305847 </weight>
<weight id='3048' > lhapdf=305848 </weight>
<weight id='3049' > lhapdf=305849 </weight>
<weight id='3050' > lhapdf=305850 </weight>
<weight id='3051' > lhapdf=305851 </weight>
<weight id='3052' > lhapdf=305852 </weight>
<weight id='3053' > lhapdf=305853 </weight>
<weight id='3054' > lhapdf=305854 </weight>
<weight id='3055' > lhapdf=305855 </weight>
<weight id='3056' > lhapdf=305856 </weight>
<weight id='3057' > lhapdf=305857 </weight>
<weight id='3058' > lhapdf=305858 </weight>
<weight id='3059' > lhapdf=305859 </weight>
<weight id='3060' > lhapdf=305860 </weight>
<weight id='3061' > lhapdf=305861 </weight>
<weight id='3062' > lhapdf=305862 </weight>
<weight id='3063' > lhapdf=305863 </weight>
<weight id='3064' > lhapdf=305864 </weight>
<weight id='3065' > lhapdf=305865 </weight>
<weight id='3066' > lhapdf=305866 </weight>
<weight id='3067' > lhapdf=305867 </weight>
<weight id='3068' > lhapdf=305868 </weight>
<weight id='3069' > lhapdf=305869 </weight>
<weight id='3070' > lhapdf=305870 </weight>
<weight id='3071' > lhapdf=305871 </weight>
<weight id='3072' > lhapdf=305872 </weight>
<weight id='3073' > lhapdf=305873 </weight>
<weight id='3074' > lhapdf=305874 </weight>
<weight id='3075' > lhapdf=305875 </weight>
<weight id='3076' > lhapdf=305876 </weight>
<weight id='3077' > lhapdf=305877 </weight>
<weight id='3078' > lhapdf=305878 </weight>
<weight id='3079' > lhapdf=305879 </weight>
<weight id='3080' > lhapdf=305880 </weight>
<weight id='3081' > lhapdf=305881 </weight>
<weight id='3082' > lhapdf=305882 </weight>
<weight id='3083' > lhapdf=305883 </weight>
<weight id='3084' > lhapdf=305884 </weight>
<weight id='3085' > lhapdf=305885 </weight>
<weight id='3086' > lhapdf=305886 </weight>
<weight id='3087' > lhapdf=305887 </weight>
<weight id='3088' > lhapdf=305888 </weight>
<weight id='3089' > lhapdf=305889 </weight>
<weight id='3090' > lhapdf=305890 </weight>
<weight id='3091' > lhapdf=305891 </weight>
<weight id='3092' > lhapdf=305892 </weight>
<weight id='3093' > lhapdf=305893 </weight>
<weight id='3094' > lhapdf=305894 </weight>
<weight id='3095' > lhapdf=305895 </weight>
<weight id='3096' > lhapdf=305896 </weight>
<weight id='3097' > lhapdf=305897 </weight>
<weight id='3098' > lhapdf=305898 </weight>
<weight id='3099' > lhapdf=305899 </weight>
<weight id='3100' > lhapdf=305900 </weight>
<weight id='3101' > lhapdf=305901 </weight>
<weight id='3102' > lhapdf=305902 </weight>
<weight id='5000' > lhapdf=13000 </weight>
<weight id='5001' > lhapdf=13001 </weight>
<weight id='5002' > lhapdf=13002 </weight>
<weight id='5003' > lhapdf=13003 </weight>
<weight id='5004' > lhapdf=13004 </weight>
<weight id='5005' > lhapdf=13005 </weight>
<weight id='5006' > lhapdf=13006 </weight>
<weight id='5007' > lhapdf=13007 </weight>
<weight id='5008' > lhapdf=13008 </weight>
<weight id='5009' > lhapdf=13009 </weight>
<weight id='5010' > lhapdf=13010 </weight>
<weight id='5011' > lhapdf=13011 </weight>
<weight id='5012' > lhapdf=13012 </weight>
<weight id='5013' > lhapdf=13013 </weight>
<weight id='5014' > lhapdf=13014 </weight>
<weight id='5015' > lhapdf=13015 </weight>
<weight id='5016' > lhapdf=13016 </weight>
<weight id='5017' > lhapdf=13017 </weight>
<weight id='5018' > lhapdf=13018 </weight>
<weight id='5019' > lhapdf=13019 </weight>
<weight id='5020' > lhapdf=13020 </weight>
<weight id='5021' > lhapdf=13021 </weight>
<weight id='5022' > lhapdf=13022 </weight>
<weight id='5023' > lhapdf=13023 </weight>
<weight id='5024' > lhapdf=13024 </weight>
<weight id='5025' > lhapdf=13025 </weight>
<weight id='5026' > lhapdf=13026 </weight>
<weight id='5027' > lhapdf=13027 </weight>
<weight id='5028' > lhapdf=13028 </weight>
<weight id='5029' > lhapdf=13029 </weight>
<weight id='5030' > lhapdf=13030 </weight>
<weight id='5031' > lhapdf=13031 </weight>
<weight id='5032' > lhapdf=13032 </weight>
<weight id='5033' > lhapdf=13033 </weight>
<weight id='5034' > lhapdf=13034 </weight>
<weight id='5035' > lhapdf=13035 </weight>
<weight id='5036' > lhapdf=13036 </weight>
<weight id='5037' > lhapdf=13037 </weight>
<weight id='5038' > lhapdf=13038 </weight>
<weight id='5039' > lhapdf=13039 </weight>
<weight id='5040' > lhapdf=13040 </weight>
<weight id='5041' > lhapdf=13041 </weight>
<weight id='5042' > lhapdf=13042 </weight>
<weight id='5043' > lhapdf=13043 </weight>
<weight id='5044' > lhapdf=13044 </weight>
<weight id='5045' > lhapdf=13045 </weight>
<weight id='5046' > lhapdf=13046 </weight>
<weight id='5047' > lhapdf=13047 </weight>
<weight id='5048' > lhapdf=13048 </weight>
<weight id='5049' > lhapdf=13049 </weight>
<weight id='5050' > lhapdf=13050 </weight>
<weight id='5051' > lhapdf=13051 </weight>
<weight id='5052' > lhapdf=13052 </weight>
<weight id='5053' > lhapdf=13053 </weight>
<weight id='5054' > lhapdf=13054 </weight>
<weight id='5055' > lhapdf=13055 </weight>
<weight id='5056' > lhapdf=13056 </weight>
<weight id='5060' > lhapdf=13065 </weight>
<weight id='5070' > lhapdf=13069 </weight>
<weight id='4000' > lhapdf=13100 </weight>
<weight id='4001' > lhapdf=13101 </weight>
<weight id='4002' > lhapdf=13102 </weight>
<weight id='4003' > lhapdf=13103 </weight>
<weight id='4004' > lhapdf=13104 </weight>
<weight id='4005' > lhapdf=13105 </weight>
<weight id='4006' > lhapdf=13106 </weight>
<weight id='4007' > lhapdf=13107 </weight>
<weight id='4008' > lhapdf=13108 </weight>
<weight id='4009' > lhapdf=13109 </weight>
<weight id='4010' > lhapdf=13110 </weight>
<weight id='4011' > lhapdf=13111 </weight>
<weight id='4012' > lhapdf=13112 </weight>
<weight id='4013' > lhapdf=13113 </weight>
<weight id='4014' > lhapdf=13114 </weight>
<weight id='4015' > lhapdf=13115 </weight>
<weight id='4016' > lhapdf=13116 </weight>
<weight id='4017' > lhapdf=13117 </weight>
<weight id='4018' > lhapdf=13118 </weight>
<weight id='4019' > lhapdf=13119 </weight>
<weight id='4020' > lhapdf=13120 </weight>
<weight id='4021' > lhapdf=13121 </weight>
<weight id='4022' > lhapdf=13122 </weight>
<weight id='4023' > lhapdf=13123 </weight>
<weight id='4024' > lhapdf=13124 </weight>
<weight id='4025' > lhapdf=13125 </weight>
<weight id='4026' > lhapdf=13126 </weight>
<weight id='4027' > lhapdf=13127 </weight>
<weight id='4028' > lhapdf=13128 </weight>
<weight id='4029' > lhapdf=13129 </weight>
<weight id='4030' > lhapdf=13130 </weight>
<weight id='4031' > lhapdf=13131 </weight>
<weight id='4032' > lhapdf=13132 </weight>
<weight id='4033' > lhapdf=13133 </weight>
<weight id='4034' > lhapdf=13134 </weight>
<weight id='4035' > lhapdf=13135 </weight>
<weight id='4036' > lhapdf=13136 </weight>
<weight id='4037' > lhapdf=13137 </weight>
<weight id='4038' > lhapdf=13138 </weight>
<weight id='4039' > lhapdf=13139 </weight>
<weight id='4040' > lhapdf=13140 </weight>
<weight id='4041' > lhapdf=13141 </weight>
<weight id='4042' > lhapdf=13142 </weight>
<weight id='4043' > lhapdf=13143 </weight>
<weight id='4044' > lhapdf=13144 </weight>
<weight id='4045' > lhapdf=13145 </weight>
<weight id='4046' > lhapdf=13146 </weight>
<weight id='4047' > lhapdf=13147 </weight>
<weight id='4048' > lhapdf=13148 </weight>
<weight id='4049' > lhapdf=13149 </weight>
<weight id='4050' > lhapdf=13150 </weight>
<weight id='4051' > lhapdf=13151 </weight>
<weight id='4052' > lhapdf=13152 </weight>
<weight id='4053' > lhapdf=13153 </weight>
<weight id='4054' > lhapdf=13154 </weight>
<weight id='4055' > lhapdf=13155 </weight>
<weight id='4056' > lhapdf=13156 </weight>
<weight id='4060' > lhapdf=13163 </weight>
<weight id='4070' > lhapdf=13167 </weight>
<weight id='4080' > lhapdf=13200 </weight>
<weight id='6000' > lhapdf=25200 </weight>
<weight id='6001' > lhapdf=25201 </weight>
<weight id='6002' > lhapdf=25202 </weight>
<weight id='6003' > lhapdf=25203 </weight>
<weight id='6004' > lhapdf=25204 </weight>
<weight id='6005' > lhapdf=25205 </weight>
<weight id='6006' > lhapdf=25206 </weight>
<weight id='6007' > lhapdf=25207 </weight>
<weight id='6008' > lhapdf=25208 </weight>
<weight id='6009' > lhapdf=25209 </weight>
<weight id='6010' > lhapdf=25210 </weight>
<weight id='6011' > lhapdf=25211 </weight>
<weight id='6012' > lhapdf=25212 </weight>
<weight id='6013' > lhapdf=25213 </weight>
<weight id='6014' > lhapdf=25214 </weight>
<weight id='6015' > lhapdf=25215 </weight>
<weight id='6016' > lhapdf=25216 </weight>
<weight id='6017' > lhapdf=25217 </weight>
<weight id='6018' > lhapdf=25218 </weight>
<weight id='6019' > lhapdf=25219 </weight>
<weight id='6020' > lhapdf=25220 </weight>
<weight id='6021' > lhapdf=25221 </weight>
<weight id='6022' > lhapdf=25222 </weight>
<weight id='6023' > lhapdf=25223 </weight>
<weight id='6024' > lhapdf=25224 </weight>
<weight id='6025' > lhapdf=25225 </weight>
<weight id='6026' > lhapdf=25226 </weight>
<weight id='6027' > lhapdf=25227 </weight>
<weight id='6028' > lhapdf=25228 </weight>
<weight id='6029' > lhapdf=25229 </weight>
<weight id='6030' > lhapdf=25230 </weight>
<weight id='6031' > lhapdf=25231 </weight>
<weight id='6032' > lhapdf=25232 </weight>
<weight id='6033' > lhapdf=25233 </weight>
<weight id='6034' > lhapdf=25234 </weight>
<weight id='6035' > lhapdf=25235 </weight>
<weight id='6036' > lhapdf=25236 </weight>
<weight id='6037' > lhapdf=25237 </weight>
<weight id='6038' > lhapdf=25238 </weight>
<weight id='6039' > lhapdf=25239 </weight>
<weight id='6040' > lhapdf=25240 </weight>
<weight id='6041' > lhapdf=25241 </weight>
<weight id='6042' > lhapdf=25242 </weight>
<weight id='6043' > lhapdf=25243 </weight>
<weight id='6044' > lhapdf=25244 </weight>
<weight id='6045' > lhapdf=25245 </weight>
<weight id='6046' > lhapdf=25246 </weight>
<weight id='6047' > lhapdf=25247 </weight>
<weight id='6048' > lhapdf=25248 </weight>
<weight id='6049' > lhapdf=25249 </weight>
<weight id='6050' > lhapdf=25250 </weight>
<weight id='7000' > lhapdf=25300 </weight>
<weight id='7001' > lhapdf=25301 </weight>
<weight id='7002' > lhapdf=25302 </weight>
<weight id='7003' > lhapdf=25303 </weight>
<weight id='7004' > lhapdf=25304 </weight>
<weight id='7005' > lhapdf=25305 </weight>
<weight id='7006' > lhapdf=25306 </weight>
<weight id='7007' > lhapdf=25307 </weight>
<weight id='7008' > lhapdf=25308 </weight>
<weight id='7009' > lhapdf=25309 </weight>
<weight id='7010' > lhapdf=25310 </weight>
<weight id='7011' > lhapdf=25311 </weight>
<weight id='7012' > lhapdf=25312 </weight>
<weight id='7013' > lhapdf=25313 </weight>
<weight id='7014' > lhapdf=25314 </weight>
<weight id='7015' > lhapdf=25315 </weight>
<weight id='7016' > lhapdf=25316 </weight>
<weight id='7017' > lhapdf=25317 </weight>
<weight id='7018' > lhapdf=25318 </weight>
<weight id='7019' > lhapdf=25319 </weight>
<weight id='7020' > lhapdf=25320 </weight>
<weight id='7021' > lhapdf=25321 </weight>
<weight id='7022' > lhapdf=25322 </weight>
<weight id='7023' > lhapdf=25323 </weight>
<weight id='7024' > lhapdf=25324 </weight>
<weight id='7025' > lhapdf=25325 </weight>
<weight id='7026' > lhapdf=25326 </weight>
<weight id='7027' > lhapdf=25327 </weight>
<weight id='7028' > lhapdf=25328 </weight>
<weight id='7029' > lhapdf=25329 </weight>
<weight id='7030' > lhapdf=25330 </weight>
<weight id='7031' > lhapdf=25331 </weight>
<weight id='7032' > lhapdf=25332 </weight>
<weight id='7033' > lhapdf=25333 </weight>
<weight id='7034' > lhapdf=25334 </weight>
<weight id='7035' > lhapdf=25335 </weight>
<weight id='7036' > lhapdf=25336 </weight>
<weight id='7037' > lhapdf=25337 </weight>
<weight id='7038' > lhapdf=25338 </weight>
<weight id='7039' > lhapdf=25339 </weight>
<weight id='7040' > lhapdf=25340 </weight>
<weight id='7041' > lhapdf=25341 </weight>
<weight id='7042' > lhapdf=25342 </weight>
<weight id='7043' > lhapdf=25343 </weight>
<weight id='7044' > lhapdf=25344 </weight>
<weight id='7045' > lhapdf=25345 </weight>
<weight id='7046' > lhapdf=25346 </weight>
<weight id='7047' > lhapdf=25347 </weight>
<weight id='7048' > lhapdf=25348 </weight>
<weight id='7049' > lhapdf=25349 </weight>
<weight id='7050' > lhapdf=25350 </weight>
<weight id='7060' > lhapdf=25000 </weight>
<weight id='8000' > lhapdf=42780 </weight>
<weight id='8001' > lhapdf=42781 </weight>
<weight id='8002' > lhapdf=42782 </weight>
<weight id='8003' > lhapdf=42783 </weight>
<weight id='8004' > lhapdf=42784 </weight>
<weight id='8005' > lhapdf=42785 </weight>
<weight id='8006' > lhapdf=42786 </weight>
<weight id='8007' > lhapdf=42787 </weight>
<weight id='8008' > lhapdf=42788 </weight>
<weight id='8009' > lhapdf=42789 </weight>
<weight id='8010' > lhapdf=42790 </weight>
<weight id='8011' > lhapdf=42791 </weight>
<weight id='8012' > lhapdf=42792 </weight>
<weight id='8013' > lhapdf=42793 </weight>
<weight id='8014' > lhapdf=42794 </weight>
<weight id='8015' > lhapdf=42795 </weight>
<weight id='8016' > lhapdf=42796 </weight>
<weight id='8017' > lhapdf=42797 </weight>
<weight id='8018' > lhapdf=42798 </weight>
<weight id='8019' > lhapdf=42799 </weight>
<weight id='8020' > lhapdf=42800 </weight>
<weight id='8021' > lhapdf=42801 </weight>
<weight id='8022' > lhapdf=42802 </weight>
<weight id='8023' > lhapdf=42803 </weight>
<weight id='8024' > lhapdf=42804 </weight>
<weight id='8025' > lhapdf=42805 </weight>
<weight id='8026' > lhapdf=42806 </weight>
<weight id='8027' > lhapdf=42807 </weight>
<weight id='8028' > lhapdf=42808 </weight>
<weight id='8029' > lhapdf=42809 </weight>
<weight id='8500' > lhapdf=90200 </weight>
<weight id='8501' > lhapdf=90201 </weight>
<weight id='8502' > lhapdf=90202 </weight>
<weight id='8503' > lhapdf=90203 </weight>
<weight id='8504' > lhapdf=90204 </weight>
<weight id='8505' > lhapdf=90205 </weight>
<weight id='8506' > lhapdf=90206 </weight>
<weight id='8507' > lhapdf=90207 </weight>
<weight id='8508' > lhapdf=90208 </weight>
<weight id='8509' > lhapdf=90209 </weight>
<weight id='8510' > lhapdf=90210 </weight>
<weight id='8511' > lhapdf=90211 </weight>
<weight id='8512' > lhapdf=90212 </weight>
<weight id='8513' > lhapdf=90213 </weight>
<weight id='8514' > lhapdf=90214 </weight>
<weight id='8515' > lhapdf=90215 </weight>
<weight id='8516' > lhapdf=90216 </weight>
<weight id='8517' > lhapdf=90217 </weight>
<weight id='8518' > lhapdf=90218 </weight>
<weight id='8519' > lhapdf=90219 </weight>
<weight id='8520' > lhapdf=90220 </weight>
<weight id='8521' > lhapdf=90221 </weight>
<weight id='8522' > lhapdf=90222 </weight>
<weight id='8523' > lhapdf=90223 </weight>
<weight id='8524' > lhapdf=90224 </weight>
<weight id='8525' > lhapdf=90225 </weight>
<weight id='8526' > lhapdf=90226 </weight>
<weight id='8527' > lhapdf=90227 </weight>
<weight id='8528' > lhapdf=90228 </weight>
<weight id='8529' > lhapdf=90229 </weight>
<weight id='8530' > lhapdf=90230 </weight>
<weight id='8531' > lhapdf=90231 </weight>
<weight id='8532' > lhapdf=90232 </weight>
<weight id='8533' > lhapdf=90233 </weight>
<weight id='8534' > lhapdf=90234 </weight>
<weight id='8535' > lhapdf=90235 </weight>
<weight id='8536' > lhapdf=90236 </weight>
<weight id='8537' > lhapdf=90237 </weight>
<weight id='8538' > lhapdf=90238 </weight>
<weight id='8539' > lhapdf=90239 </weight>
<weight id='8540' > lhapdf=90240 </weight>
<weight id='8541' > lhapdf=90241 </weight>
<weight id='8542' > lhapdf=90242 </weight>
<weight id='8543' > lhapdf=90243 </weight>
<weight id='8544' > lhapdf=90244 </weight>
<weight id='8545' > lhapdf=90245 </weight>
<weight id='8546' > lhapdf=90246 </weight>
<weight id='8547' > lhapdf=90247 </weight>
<weight id='8548' > lhapdf=90248 </weight>
<weight id='8549' > lhapdf=90249 </weight>
<weight id='8550' > lhapdf=90250 </weight>
<weight id='8551' > lhapdf=90251 </weight>
<weight id='8552' > lhapdf=90252 </weight>
<weight id='8553' > lhapdf=90253 </weight>
<weight id='8554' > lhapdf=90254 </weight>
<weight id='8555' > lhapdf=90255 </weight>
<weight id='8556' > lhapdf=90256 </weight>
<weight id='8557' > lhapdf=90257 </weight>
<weight id='8558' > lhapdf=90258 </weight>
<weight id='8559' > lhapdf=90259 </weight>
<weight id='8560' > lhapdf=90260 </weight>
<weight id='8561' > lhapdf=90261 </weight>
<weight id='8562' > lhapdf=90262 </weight>
<weight id='8563' > lhapdf=90263 </weight>
<weight id='8564' > lhapdf=90264 </weight>
<weight id='8565' > lhapdf=90265 </weight>
<weight id='8566' > lhapdf=90266 </weight>
<weight id='8567' > lhapdf=90267 </weight>
<weight id='8568' > lhapdf=90268 </weight>
<weight id='8569' > lhapdf=90269 </weight>
<weight id='8570' > lhapdf=90270 </weight>
<weight id='8571' > lhapdf=90271 </weight>
<weight id='8572' > lhapdf=90272 </weight>
<weight id='8573' > lhapdf=90273 </weight>
<weight id='8574' > lhapdf=90274 </weight>
<weight id='8575' > lhapdf=90275 </weight>
<weight id='8576' > lhapdf=90276 </weight>
<weight id='8577' > lhapdf=90277 </weight>
<weight id='8578' > lhapdf=90278 </weight>
<weight id='8579' > lhapdf=90279 </weight>
<weight id='8580' > lhapdf=90280 </weight>
<weight id='8581' > lhapdf=90281 </weight>
<weight id='8582' > lhapdf=90282 </weight>
<weight id='8583' > lhapdf=90283 </weight>
<weight id='8584' > lhapdf=90284 </weight>
<weight id='8585' > lhapdf=90285 </weight>
<weight id='8586' > lhapdf=90286 </weight>
<weight id='8587' > lhapdf=90287 </weight>
<weight id='8588' > lhapdf=90288 </weight>
<weight id='8589' > lhapdf=90289 </weight>
<weight id='8590' > lhapdf=90290 </weight>
<weight id='8591' > lhapdf=90291 </weight>
<weight id='8592' > lhapdf=90292 </weight>
<weight id='8593' > lhapdf=90293 </weight>
<weight id='8594' > lhapdf=90294 </weight>
<weight id='8595' > lhapdf=90295 </weight>
<weight id='8596' > lhapdf=90296 </weight>
<weight id='8597' > lhapdf=90297 </weight>
<weight id='8598' > lhapdf=90298 </weight>
<weight id='8599' > lhapdf=90299 </weight>
<weight id='8600' > lhapdf=90300 </weight>
<weight id='8601' > lhapdf=90301 </weight>
<weight id='8602' > lhapdf=90302 </weight>
<weight id='9000' > lhapdf=91200 </weight>
<weight id='9001' > lhapdf=91201 </weight>
<weight id='9002' > lhapdf=91202 </weight>
<weight id='9003' > lhapdf=91203 </weight>
<weight id='9004' > lhapdf=91204 </weight>
<weight id='9005' > lhapdf=91205 </weight>
<weight id='9006' > lhapdf=91206 </weight>
<weight id='9007' > lhapdf=91207 </weight>
<weight id='9008' > lhapdf=91208 </weight>
<weight id='9009' > lhapdf=91209 </weight>
<weight id='9010' > lhapdf=91210 </weight>
<weight id='9011' > lhapdf=91211 </weight>
<weight id='9012' > lhapdf=91212 </weight>
<weight id='9013' > lhapdf=91213 </weight>
<weight id='9014' > lhapdf=91214 </weight>
<weight id='9015' > lhapdf=91215 </weight>
<weight id='9016' > lhapdf=91216 </weight>
<weight id='9017' > lhapdf=91217 </weight>
<weight id='9018' > lhapdf=91218 </weight>
<weight id='9019' > lhapdf=91219 </weight>
<weight id='9020' > lhapdf=91220 </weight>
<weight id='9021' > lhapdf=91221 </weight>
<weight id='9022' > lhapdf=91222 </weight>
<weight id='9023' > lhapdf=91223 </weight>
<weight id='9024' > lhapdf=91224 </weight>
<weight id='9025' > lhapdf=91225 </weight>
<weight id='9026' > lhapdf=91226 </weight>
<weight id='9027' > lhapdf=91227 </weight>
<weight id='9028' > lhapdf=91228 </weight>
<weight id='9029' > lhapdf=91229 </weight>
<weight id='9030' > lhapdf=91230 </weight>
<weight id='9031' > lhapdf=91231 </weight>
<weight id='9032' > lhapdf=91232 </weight>
<weight id='9033' > lhapdf=91233 </weight>
<weight id='9034' > lhapdf=91234 </weight>
<weight id='9035' > lhapdf=91235 </weight>
<weight id='9036' > lhapdf=91236 </weight>
<weight id='9037' > lhapdf=91237 </weight>
<weight id='9038' > lhapdf=91238 </weight>
<weight id='9039' > lhapdf=91239 </weight>
<weight id='9040' > lhapdf=91240 </weight>
<weight id='9041' > lhapdf=91241 </weight>
<weight id='9042' > lhapdf=91242 </weight>
<weight id='9043' > lhapdf=91243 </weight>
<weight id='9044' > lhapdf=91244 </weight>
<weight id='9045' > lhapdf=91245 </weight>
<weight id='9046' > lhapdf=91246 </weight>
<weight id='9047' > lhapdf=91247 </weight>
<weight id='9048' > lhapdf=91248 </weight>
<weight id='9049' > lhapdf=91249 </weight>
<weight id='9050' > lhapdf=91250 </weight>
<weight id='9051' > lhapdf=91251 </weight>
<weight id='9052' > lhapdf=91252 </weight>
<weight id='9053' > lhapdf=91253 </weight>
<weight id='9054' > lhapdf=91254 </weight>
<weight id='9055' > lhapdf=91255 </weight>
<weight id='9056' > lhapdf=91256 </weight>
<weight id='9057' > lhapdf=91257 </weight>
<weight id='9058' > lhapdf=91258 </weight>
<weight id='9059' > lhapdf=91259 </weight>
<weight id='9060' > lhapdf=91260 </weight>
<weight id='9061' > lhapdf=91261 </weight>
<weight id='9062' > lhapdf=91262 </weight>
<weight id='9063' > lhapdf=91263 </weight>
<weight id='9064' > lhapdf=91264 </weight>
<weight id='9065' > lhapdf=91265 </weight>
<weight id='9066' > lhapdf=91266 </weight>
<weight id='9067' > lhapdf=91267 </weight>
<weight id='9068' > lhapdf=91268 </weight>
<weight id='9069' > lhapdf=91269 </weight>
<weight id='9070' > lhapdf=91270 </weight>
<weight id='9071' > lhapdf=91271 </weight>
<weight id='9072' > lhapdf=91272 </weight>
<weight id='9073' > lhapdf=91273 </weight>
<weight id='9074' > lhapdf=91274 </weight>
<weight id='9075' > lhapdf=91275 </weight>
<weight id='9076' > lhapdf=91276 </weight>
<weight id='9077' > lhapdf=91277 </weight>
<weight id='9078' > lhapdf=91278 </weight>
<weight id='9079' > lhapdf=91279 </weight>
<weight id='9080' > lhapdf=91280 </weight>
<weight id='9081' > lhapdf=91281 </weight>
<weight id='9082' > lhapdf=91282 </weight>
<weight id='9083' > lhapdf=91283 </weight>
<weight id='9084' > lhapdf=91284 </weight>
<weight id='9085' > lhapdf=91285 </weight>
<weight id='9086' > lhapdf=91286 </weight>
<weight id='9087' > lhapdf=91287 </weight>
<weight id='9088' > lhapdf=91288 </weight>
<weight id='9089' > lhapdf=91289 </weight>
<weight id='9090' > lhapdf=91290 </weight>
<weight id='9091' > lhapdf=91291 </weight>
<weight id='9092' > lhapdf=91292 </weight>
<weight id='9093' > lhapdf=91293 </weight>
<weight id='9094' > lhapdf=91294 </weight>
<weight id='9095' > lhapdf=91295 </weight>
<weight id='9096' > lhapdf=91296 </weight>
<weight id='9097' > lhapdf=91297 </weight>
<weight id='9098' > lhapdf=91298 </weight>
<weight id='9099' > lhapdf=91299 </weight>
<weight id='9100' > lhapdf=91300 </weight>
<weight id='9101' > lhapdf=91301 </weight>
<weight id='9102' > lhapdf=91302 </weight>
<weight id='10000' > lhapdf=90400 </weight>
<weight id='10001' > lhapdf=90401 </weight>
<weight id='10002' > lhapdf=90402 </weight>
<weight id='10003' > lhapdf=90403 </weight>
<weight id='10004' > lhapdf=90404 </weight>
<weight id='10005' > lhapdf=90405 </weight>
<weight id='10006' > lhapdf=90406 </weight>
<weight id='10007' > lhapdf=90407 </weight>
<weight id='10008' > lhapdf=90408 </weight>
<weight id='10009' > lhapdf=90409 </weight>
<weight id='10010' > lhapdf=90410 </weight>
<weight id='10011' > lhapdf=90411 </weight>
<weight id='10012' > lhapdf=90412 </weight>
<weight id='10013' > lhapdf=90413 </weight>
<weight id='10014' > lhapdf=90414 </weight>
<weight id='10015' > lhapdf=90415 </weight>
<weight id='10016' > lhapdf=90416 </weight>
<weight id='10017' > lhapdf=90417 </weight>
<weight id='10018' > lhapdf=90418 </weight>
<weight id='10019' > lhapdf=90419 </weight>
<weight id='10020' > lhapdf=90420 </weight>
<weight id='10021' > lhapdf=90421 </weight>
<weight id='10022' > lhapdf=90422 </weight>
<weight id='10023' > lhapdf=90423 </weight>
<weight id='10024' > lhapdf=90424 </weight>
<weight id='10025' > lhapdf=90425 </weight>
<weight id='10026' > lhapdf=90426 </weight>
<weight id='10027' > lhapdf=90427 </weight>
<weight id='10028' > lhapdf=90428 </weight>
<weight id='10029' > lhapdf=90429 </weight>
<weight id='10030' > lhapdf=90430 </weight>
<weight id='10031' > lhapdf=90431 </weight>
<weight id='10032' > lhapdf=90432 </weight>
<weight id='11000' > lhapdf=91400 </weight>
<weight id='11001' > lhapdf=91401 </weight>
<weight id='11002' > lhapdf=91402 </weight>
<weight id='11003' > lhapdf=91403 </weight>
<weight id='11004' > lhapdf=91404 </weight>
<weight id='11005' > lhapdf=91405 </weight>
<weight id='11006' > lhapdf=91406 </weight>
<weight id='11007' > lhapdf=91407 </weight>
<weight id='11008' > lhapdf=91408 </weight>
<weight id='11009' > lhapdf=91409 </weight>
<weight id='11010' > lhapdf=91410 </weight>
<weight id='11011' > lhapdf=91411 </weight>
<weight id='11012' > lhapdf=91412 </weight>
<weight id='11013' > lhapdf=91413 </weight>
<weight id='11014' > lhapdf=91414 </weight>
<weight id='11015' > lhapdf=91415 </weight>
<weight id='11016' > lhapdf=91416 </weight>
<weight id='11017' > lhapdf=91417 </weight>
<weight id='11018' > lhapdf=91418 </weight>
<weight id='11019' > lhapdf=91419 </weight>
<weight id='11020' > lhapdf=91420 </weight>
<weight id='11021' > lhapdf=91421 </weight>
<weight id='11022' > lhapdf=91422 </weight>
<weight id='11023' > lhapdf=91423 </weight>
<weight id='11024' > lhapdf=91424 </weight>
<weight id='11025' > lhapdf=91425 </weight>
<weight id='11026' > lhapdf=91426 </weight>
<weight id='11027' > lhapdf=91427 </weight>
<weight id='11028' > lhapdf=91428 </weight>
<weight id='11029' > lhapdf=91429 </weight>
<weight id='11030' > lhapdf=91430 </weight>
<weight id='11031' > lhapdf=91431 </weight>
<weight id='11032' > lhapdf=91432 </weight>
<weight id='12000' > lhapdf=61100 </weight>
<weight id='12001' > lhapdf=61101 </weight>
<weight id='12002' > lhapdf=61102 </weight>
<weight id='12003' > lhapdf=61103 </weight>
<weight id='12004' > lhapdf=61104 </weight>
<weight id='12005' > lhapdf=61105 </weight>
<weight id='12006' > lhapdf=61106 </weight>
<weight id='12007' > lhapdf=61107 </weight>
<weight id='12008' > lhapdf=61108 </weight>
<weight id='12009' > lhapdf=61109 </weight>
<weight id='12010' > lhapdf=61110 </weight>
<weight id='12011' > lhapdf=61111 </weight>
<weight id='12012' > lhapdf=61112 </weight>
<weight id='12013' > lhapdf=61113 </weight>
<weight id='12014' > lhapdf=61114 </weight>
<weight id='12015' > lhapdf=61115 </weight>
<weight id='12016' > lhapdf=61116 </weight>
<weight id='12017' > lhapdf=61117 </weight>
<weight id='12018' > lhapdf=61118 </weight>
<weight id='12019' > lhapdf=61119 </weight>
<weight id='12020' > lhapdf=61120 </weight>
<weight id='12021' > lhapdf=61121 </weight>
<weight id='12022' > lhapdf=61122 </weight>
<weight id='12023' > lhapdf=61123 </weight>
<weight id='12024' > lhapdf=61124 </weight>
<weight id='12025' > lhapdf=61125 </weight>
<weight id='12026' > lhapdf=61126 </weight>
<weight id='12027' > lhapdf=61127 </weight>
<weight id='12028' > lhapdf=61128 </weight>
<weight id='12050' > lhapdf=61130 </weight>
<weight id='12051' > lhapdf=61131 </weight>
<weight id='12052' > lhapdf=61132 </weight>
<weight id='12053' > lhapdf=61133 </weight>
<weight id='12054' > lhapdf=61134 </weight>
<weight id='12055' > lhapdf=61135 </weight>
<weight id='12056' > lhapdf=61136 </weight>
<weight id='12057' > lhapdf=61137 </weight>
<weight id='12058' > lhapdf=61138 </weight>
<weight id='12059' > lhapdf=61139 </weight>
<weight id='12060' > lhapdf=61140 </weight>
<weight id='12061' > lhapdf=61141 </weight>
<weight id='12062' > lhapdf=61142 </weight>
<weight id='12063' > lhapdf=61143 </weight>
<weight id='13000' > lhapdf=61200 </weight>
<weight id='13001' > lhapdf=61201 </weight>
<weight id='13002' > lhapdf=61202 </weight>
<weight id='13003' > lhapdf=61203 </weight>
<weight id='13004' > lhapdf=61204 </weight>
<weight id='13005' > lhapdf=61205 </weight>
<weight id='13006' > lhapdf=61206 </weight>
<weight id='13007' > lhapdf=61207 </weight>
<weight id='13008' > lhapdf=61208 </weight>
<weight id='13009' > lhapdf=61209 </weight>
<weight id='13010' > lhapdf=61210 </weight>
<weight id='13011' > lhapdf=61211 </weight>
<weight id='13012' > lhapdf=61212 </weight>
<weight id='13013' > lhapdf=61213 </weight>
<weight id='13014' > lhapdf=61214 </weight>
<weight id='13015' > lhapdf=61215 </weight>
<weight id='13016' > lhapdf=61216 </weight>
<weight id='13017' > lhapdf=61217 </weight>
<weight id='13018' > lhapdf=61218 </weight>
<weight id='13019' > lhapdf=61219 </weight>
<weight id='13020' > lhapdf=61220 </weight>
<weight id='13021' > lhapdf=61221 </weight>
<weight id='13022' > lhapdf=61222 </weight>
<weight id='13023' > lhapdf=61223 </weight>
<weight id='13024' > lhapdf=61224 </weight>
<weight id='13025' > lhapdf=61225 </weight>
<weight id='13026' > lhapdf=61226 </weight>
<weight id='13027' > lhapdf=61227 </weight>
<weight id='13028' > lhapdf=61228 </weight>
<weight id='13050' > lhapdf=61230 </weight>
<weight id='13051' > lhapdf=61231 </weight>
<weight id='13052' > lhapdf=61232 </weight>
<weight id='13053' > lhapdf=61233 </weight>
<weight id='13054' > lhapdf=61234 </weight>
<weight id='13055' > lhapdf=61235 </weight>
<weight id='13056' > lhapdf=61236 </weight>
<weight id='13057' > lhapdf=61237 </weight>
<weight id='13058' > lhapdf=61238 </weight>
<weight id='13059' > lhapdf=61239 </weight>
<weight id='13060' > lhapdf=61240 </weight>
<weight id='13061' > lhapdf=61241 </weight>
<weight id='13062' > lhapdf=61242 </weight>
<weight id='13063' > lhapdf=61243 </weight>
<weight id='14000' > lhapdf=13400 </weight>
<weight id='14001' > lhapdf=13401 </weight>
<weight id='14002' > lhapdf=13402 </weight>
<weight id='14003' > lhapdf=13403 </weight>
<weight id='14004' > lhapdf=13404 </weight>
<weight id='14005' > lhapdf=13405 </weight>
<weight id='14006' > lhapdf=13406 </weight>
<weight id='14007' > lhapdf=13407 </weight>
<weight id='14008' > lhapdf=13408 </weight>
<weight id='14009' > lhapdf=13409 </weight>
<weight id='14010' > lhapdf=13410 </weight>
<weight id='14011' > lhapdf=13411 </weight>
<weight id='14012' > lhapdf=13412 </weight>
<weight id='14013' > lhapdf=13413 </weight>
<weight id='14014' > lhapdf=13414 </weight>
<weight id='14015' > lhapdf=13415 </weight>
<weight id='14016' > lhapdf=13416 </weight>
<weight id='14017' > lhapdf=13417 </weight>
<weight id='14018' > lhapdf=13418 </weight>
<weight id='14019' > lhapdf=13419 </weight>
<weight id='14020' > lhapdf=13420 </weight>
<weight id='14021' > lhapdf=13421 </weight>
<weight id='14022' > lhapdf=13422 </weight>
<weight id='14023' > lhapdf=13423 </weight>
<weight id='14024' > lhapdf=13424 </weight>
<weight id='14025' > lhapdf=13425 </weight>
<weight id='14026' > lhapdf=13426 </weight>
<weight id='14027' > lhapdf=13427 </weight>
<weight id='14028' > lhapdf=13428 </weight>
<weight id='14029' > lhapdf=13429 </weight>
<weight id='14030' > lhapdf=13430 </weight>
<weight id='15000' > lhapdf=82200 </weight>
<weight id='15001' > lhapdf=82201 </weight>
<weight id='15002' > lhapdf=82202 </weight>
<weight id='15003' > lhapdf=82203 </weight>
<weight id='15004' > lhapdf=82204 </weight>
<weight id='15005' > lhapdf=82205 </weight>
<weight id='15006' > lhapdf=82206 </weight>
<weight id='15007' > lhapdf=82207 </weight>
<weight id='15008' > lhapdf=82208 </weight>
<weight id='15009' > lhapdf=82209 </weight>
<weight id='15010' > lhapdf=82210 </weight>
<weight id='15011' > lhapdf=82211 </weight>
<weight id='15012' > lhapdf=82212 </weight>
<weight id='15013' > lhapdf=82213 </weight>
<weight id='15014' > lhapdf=82214 </weight>
<weight id='15015' > lhapdf=82215 </weight>
<weight id='15016' > lhapdf=82216 </weight>
<weight id='15017' > lhapdf=82217 </weight>
<weight id='15018' > lhapdf=82218 </weight>
<weight id='15019' > lhapdf=82219 </weight>
<weight id='15020' > lhapdf=82220 </weight>
<weight id='15021' > lhapdf=82221 </weight>
<weight id='15022' > lhapdf=82222 </weight>
<weight id='15023' > lhapdf=82223 </weight>
<weight id='15024' > lhapdf=82224 </weight>
<weight id='15025' > lhapdf=82225 </weight>
<weight id='15026' > lhapdf=82226 </weight>
<weight id='15027' > lhapdf=82227 </weight>
<weight id='15028' > lhapdf=82228 </weight>
<weight id='15029' > lhapdf=82229 </weight>
<weight id='15030' > lhapdf=82230 </weight>
<weight id='15031' > lhapdf=82231 </weight>
<weight id='15032' > lhapdf=82232 </weight>
<weight id='15033' > lhapdf=82233 </weight>
<weight id='15034' > lhapdf=82234 </weight>
<weight id='15035' > lhapdf=82235 </weight>
<weight id='15036' > lhapdf=82236 </weight>
<weight id='15037' > lhapdf=82237 </weight>
<weight id='15038' > lhapdf=82238 </weight>
<weight id='15039' > lhapdf=82239 </weight>
<weight id='15040' > lhapdf=82240 </weight>
<weight id='15041' > lhapdf=82241 </weight>
<weight id='15042' > lhapdf=82242 </weight>
<weight id='15043' > lhapdf=82243 </weight>
<weight id='15044' > lhapdf=82244 </weight>
<weight id='15045' > lhapdf=82245 </weight>
<weight id='15046' > lhapdf=82246 </weight>
<weight id='15047' > lhapdf=82247 </weight>
<weight id='15048' > lhapdf=82248 </weight>
<weight id='15049' > lhapdf=82249 </weight>
<weight id='15050' > lhapdf=82250 </weight>
<weight id='15051' > lhapdf=82251 </weight>
<weight id='15052' > lhapdf=82252 </weight>
<weight id='15053' > lhapdf=82253 </weight>
<weight id='15054' > lhapdf=82254 </weight>
<weight id='15055' > lhapdf=82255 </weight>
<weight id='15056' > lhapdf=82256 </weight>
<weight id='15057' > lhapdf=82257 </weight>
<weight id='15058' > lhapdf=82258 </weight>
<weight id='15059' > lhapdf=82259 </weight>
<weight id='15060' > lhapdf=82260 </weight>
<weight id='15061' > lhapdf=82261 </weight>
<weight id='15062' > lhapdf=82262 </weight>
<weight id='15063' > lhapdf=82263 </weight>
<weight id='15064' > lhapdf=82264 </weight>
<weight id='15065' > lhapdf=82265 </weight>
<weight id='15066' > lhapdf=82266 </weight>
<weight id='15067' > lhapdf=82267 </weight>
<weight id='15068' > lhapdf=82268 </weight>
<weight id='15069' > lhapdf=82269 </weight>
<weight id='15070' > lhapdf=82270 </weight>
<weight id='15071' > lhapdf=82271 </weight>
<weight id='15072' > lhapdf=82272 </weight>
<weight id='15073' > lhapdf=82273 </weight>
<weight id='15074' > lhapdf=82274 </weight>
<weight id='15075' > lhapdf=82275 </weight>
<weight id='15076' > lhapdf=82276 </weight>
<weight id='15077' > lhapdf=82277 </weight>
<weight id='15078' > lhapdf=82278 </weight>
<weight id='15079' > lhapdf=82279 </weight>
<weight id='15080' > lhapdf=82280 </weight>
<weight id='15081' > lhapdf=82281 </weight>
<weight id='15082' > lhapdf=82282 </weight>
<weight id='15083' > lhapdf=82283 </weight>
<weight id='15084' > lhapdf=82284 </weight>
<weight id='15085' > lhapdf=82285 </weight>
<weight id='15086' > lhapdf=82286 </weight>
<weight id='15087' > lhapdf=82287 </weight>
<weight id='15088' > lhapdf=82288 </weight>
<weight id='15089' > lhapdf=82289 </weight>
<weight id='15090' > lhapdf=82290 </weight>
<weight id='15091' > lhapdf=82291 </weight>
<weight id='15092' > lhapdf=82292 </weight>
<weight id='15093' > lhapdf=82293 </weight>
<weight id='15094' > lhapdf=82294 </weight>
<weight id='15095' > lhapdf=82295 </weight>
<weight id='15096' > lhapdf=82296 </weight>
<weight id='15097' > lhapdf=82297 </weight>
<weight id='15098' > lhapdf=82298 </weight>
<weight id='15099' > lhapdf=82299 </weight>
<weight id='15100' > lhapdf=82300 </weight>
<weight id='15101' > lhapdf=82301 </weight>
<weight id='15102' > lhapdf=82302 </weight>
<weight id='15103' > lhapdf=82303 </weight>
<weight id='15104' > lhapdf=82304 </weight>
<weight id='15105' > lhapdf=82305 </weight>
<weight id='15106' > lhapdf=82306 </weight>
<weight id='15107' > lhapdf=82307 </weight>
</weightgroup>
<weightgroup name='PDF_variation2' combine='replica' >
<weight id='1500' > lhapdf=292200 </weight>
<weight id='1501' > lhapdf=292201 </weight>
<weight id='1502' > lhapdf=292202 </weight>
<weight id='1503' > lhapdf=292203 </weight>
<weight id='1504' > lhapdf=292204 </weight>
<weight id='1505' > lhapdf=292205 </weight>
<weight id='1506' > lhapdf=292206 </weight>
<weight id='1507' > lhapdf=292207 </weight>
<weight id='1508' > lhapdf=292208 </weight>
<weight id='1509' > lhapdf=292209 </weight>
<weight id='1510' > lhapdf=292210 </weight>
<weight id='1511' > lhapdf=292211 </weight>
<weight id='1512' > lhapdf=292212 </weight>
<weight id='1513' > lhapdf=292213 </weight>
<weight id='1514' > lhapdf=292214 </weight>
<weight id='1515' > lhapdf=292215 </weight>
<weight id='1516' > lhapdf=292216 </weight>
<weight id='1517' > lhapdf=292217 </weight>
<weight id='1518' > lhapdf=292218 </weight>
<weight id='1519' > lhapdf=292219 </weight>
<weight id='1520' > lhapdf=292220 </weight>
<weight id='1521' > lhapdf=292221 </weight>
<weight id='1522' > lhapdf=292222 </weight>
<weight id='1523' > lhapdf=292223 </weight>
<weight id='1524' > lhapdf=292224 </weight>
<weight id='1525' > lhapdf=292225 </weight>
<weight id='1526' > lhapdf=292226 </weight>
<weight id='1527' > lhapdf=292227 </weight>
<weight id='1528' > lhapdf=292228 </weight>
<weight id='1529' > lhapdf=292229 </weight>
<weight id='1530' > lhapdf=292230 </weight>
<weight id='1531' > lhapdf=292231 </weight>
<weight id='1532' > lhapdf=292232 </weight>
<weight id='1533' > lhapdf=292233 </weight>
<weight id='1534' > lhapdf=292234 </weight>
<weight id='1535' > lhapdf=292235 </weight>
<weight id='1536' > lhapdf=292236 </weight>
<weight id='1537' > lhapdf=292237 </weight>
<weight id='1538' > lhapdf=292238 </weight>
<weight id='1539' > lhapdf=292239 </weight>
<weight id='1540' > lhapdf=292240 </weight>
<weight id='1541' > lhapdf=292241 </weight>
<weight id='1542' > lhapdf=292242 </weight>
<weight id='1543' > lhapdf=292243 </weight>
<weight id='1544' > lhapdf=292244 </weight>
<weight id='1545' > lhapdf=292245 </weight>
<weight id='1546' > lhapdf=292246 </weight>
<weight id='1547' > lhapdf=292247 </weight>
<weight id='1548' > lhapdf=292248 </weight>
<weight id='1549' > lhapdf=292249 </weight>
<weight id='1550' > lhapdf=292250 </weight>
<weight id='1551' > lhapdf=292251 </weight>
<weight id='1552' > lhapdf=292252 </weight>
<weight id='1553' > lhapdf=292253 </weight>
<weight id='1554' > lhapdf=292254 </weight>
<weight id='1555' > lhapdf=292255 </weight>
<weight id='1556' > lhapdf=292256 </weight>
<weight id='1557' > lhapdf=292257 </weight>
<weight id='1558' > lhapdf=292258 </weight>
<weight id='1559' > lhapdf=292259 </weight>
<weight id='1560' > lhapdf=292260 </weight>
<weight id='1561' > lhapdf=292261 </weight>
<weight id='1562' > lhapdf=292262 </weight>
<weight id='1563' > lhapdf=292263 </weight>
<weight id='1564' > lhapdf=292264 </weight>
<weight id='1565' > lhapdf=292265 </weight>
<weight id='1566' > lhapdf=292266 </weight>
<weight id='1567' > lhapdf=292267 </weight>
<weight id='1568' > lhapdf=292268 </weight>
<weight id='1569' > lhapdf=292269 </weight>
<weight id='1570' > lhapdf=292270 </weight>
<weight id='1571' > lhapdf=292271 </weight>
<weight id='1572' > lhapdf=292272 </weight>
<weight id='1573' > lhapdf=292273 </weight>
<weight id='1574' > lhapdf=292274 </weight>
<weight id='1575' > lhapdf=292275 </weight>
<weight id='1576' > lhapdf=292276 </weight>
<weight id='1577' > lhapdf=292277 </weight>
<weight id='1578' > lhapdf=292278 </weight>
<weight id='1579' > lhapdf=292279 </weight>
<weight id='1580' > lhapdf=292280 </weight>
<weight id='1581' > lhapdf=292281 </weight>
<weight id='1582' > lhapdf=292282 </weight>
<weight id='1583' > lhapdf=292283 </weight>
<weight id='1584' > lhapdf=292284 </weight>
<weight id='1585' > lhapdf=292285 </weight>
<weight id='1586' > lhapdf=292286 </weight>
<weight id='1587' > lhapdf=292287 </weight>
<weight id='1588' > lhapdf=292288 </weight>
<weight id='1589' > lhapdf=292289 </weight>
<weight id='1590' > lhapdf=292290 </weight>
<weight id='1591' > lhapdf=292291 </weight>
<weight id='1592' > lhapdf=292292 </weight>
<weight id='1593' > lhapdf=292293 </weight>
<weight id='1594' > lhapdf=292294 </weight>
<weight id='1595' > lhapdf=292295 </weight>
<weight id='1596' > lhapdf=292296 </weight>
<weight id='1597' > lhapdf=292297 </weight>
<weight id='1598' > lhapdf=292298 </weight>
<weight id='1599' > lhapdf=292299 </weight>
<weight id='1600' > lhapdf=292300 </weight>
<weight id='1601' > lhapdf=292301 </weight>
<weight id='1602' > lhapdf=292302 </weight>
<weight id='1700' > lhapdf=292600 </weight>
<weight id='1800' > lhapdf=315000 </weight>
<weight id='1850' > lhapdf=315200 </weight>
<weight id='1900' > lhapdf=262000 </weight>
<weight id='1950' > lhapdf=263000 </weight>
</weightgroup>
</initrwgt>
</header>
<init>
     2212     2212  6.50000E+03  6.50000E+03      0      0 306000 306000     -4      1
  687.06981272803660   0.51740887199157992  1.00000000000E-00 322222
</init>
<event>
     13 322222  6.87070E+02  5.72461E+01 -1.00000E+00  1.33889E-01
      21    -1     0     0   502   503  0.000000000E+00  0.000000000E+00  2.453144337E+02  2.453144337E+02  0.000000000E+00  0.00000E+00  9.000E+00
      21    -1     0     0   504   505  0.000000000E+00  0.000000000E+00 -4.140276878E+02  4.140276878E+02  0.000000000E+00  0.00000E+00  9.000E+00
       6     2     1     2   502     0  1.202172906E+02 -1.986665213E+01  1.411459587E+02  2.539650445E+02  1.724215222E+02  0.00000E+00  9.000E+00
      -6     2     1     2     0   505 -6.404126301E+01  3.088319310E+01 -1.622120973E+02  2.470205773E+02  1.721956623E+02  0.00000E+00  9.000E+00
      21     1     1     2   504   503 -5.617602759E+01 -1.101654097E+01 -1.476471156E+02  1.583564997E+02  0.000000000E+00  0.00000E+00  9.000E+00
      24     2     3     3     0     0  8.177047572E+00 -4.579488880E+01  4.130304564E+01  1.015939947E+02  8.032037244E+01  0.00000E+00  9.000E+00
       5     1     3     3   502     0  1.120402430E+02  2.592823667E+01  9.984291310E+01  1.523710498E+02  4.800000000E+00  0.00000E+00 -1.000E+00
     -24     2     4     4     0     0 -2.332277649E+01 -4.751075983E+01 -9.321497979E+01  1.348276665E+02  8.178167890E+01  0.00000E+00  9.000E+00
      -5     1     4     4     0   505 -4.071848652E+01  7.839395292E+01 -6.899711747E+01  1.121929107E+02  4.800000000E+00  0.00000E+00  1.000E+00
      -1     1     6     6     0   506  1.327863133E+01 -4.712761879E+01  6.270227005E+01  7.955450441E+01  1.000000000E-01  0.00000E+00  1.000E+00
       2     1     6     6   506     0 -5.101583755E+00  1.332729988E+00 -2.139922441E+01  2.203949027E+01  1.000000000E-01  0.00000E+00 -1.000E+00
      13     1     8     8     0     0 -5.392692296E+01 -2.947379485E+01 -5.283147804E+01  8.104316039E+01  1.057000000E-01  0.00000E+00 -1.000E+00
     -14     1     8     8     0     0  3.060414647E+01 -1.803696498E+01 -4.038350175E+01  5.378450614E+01  0.000000000E+00  0.00000E+00  1.000E+00
#rwgt            1           1   804.99837014640070                1          14           0
<rwgt>
<wgt id='1001'>0.68707E+03</wgt>
<wgt id='1002'>0.75008E+03</wgt>
<wgt id='1003'>0.61630E+03</wgt>
<wgt id='1004'>0.58071E+03</wgt>
<wgt id='1005'>0.62586E+03</wgt>
<wgt id='1006'>0.52972E+03</wgt>
<wgt id='1007'>0.82643E+03</wgt>
<wgt id='1008'>0.91635E+03</wgt>
<wgt id='1009'>0.72589E+03</wgt>
<wgt id='2000'>0.68707E+03</wgt>
<wgt id='2001'>0.68614E+03</wgt>
<wgt id='2002'>0.68781E+03</wgt>
<wgt id='2003'>0.68789E+03</wgt>
<wgt id='2004'>0.68849E+03</wgt>
<wgt id='2005'>0.68596E+03</wgt>
<wgt id='2006'>0.68499E+03</wgt>
<wgt id='2007'>0.68375E+03</wgt>
<wgt id='2008'>0.68348E+03</wgt>
<wgt id='2009'>0.68856E+03</wgt>
<wgt id='2010'>0.68752E+03</wgt>
<wgt id='2011'>0.68563E+03</wgt>
<wgt id='2012'>0.68782E+03</wgt>
<wgt id='2013'>0.68775E+03</wgt>
<wgt id='2014'>0.69029E+03</wgt>
<wgt id='2015'>0.68894E+03</wgt>
<wgt id='2016'>0.68788E+03</wgt>
<wgt id='2017'>0.68705E+03</wgt>
<wgt id='2018'>0.68933E+03</wgt>
<wgt id='2019'>0.68708E+03</wgt>
<wgt id='2020'>0.69128E+03</wgt>
<wgt id='2021'>0.68498E+03</wgt>
<wgt id='2022'>0.69060E+03</wgt>
<wgt id='2023'>0.68923E+03</wgt>
<wgt id='2024'>0.68678E+03</wgt>
<wgt id='2025'>0.69158E+03</wgt>
<wgt id='2026'>0.69031E+03</wgt>
<wgt id='2027'>0.68574E+03</wgt>
<wgt id='2028'>0.68469E+03</wgt>
<wgt id='2029'>0.68818E+03</wgt>
<wgt id='2030'>0.68727E+03</wgt>
<wgt id='2031'>0.68838E+03</wgt>
<wgt id='2032'>0.68637E+03</wgt>
<wgt id='2033'>0.68716E+03</wgt>
<wgt id='2034'>0.68784E+03</wgt>
<wgt id='2035'>0.68690E+03</wgt>
<wgt id='2036'>0.68759E+03</wgt>
<wgt id='2037'>0.68740E+03</wgt>
<wgt id='2038'>0.68737E+03</wgt>
<wgt id='2039'>0.68722E+03</wgt>
<wgt id='2040'>0.68752E+03</wgt>
<wgt id='2041'>0.68702E+03</wgt>
<wgt id='2042'>0.68587E+03</wgt>
<wgt id='2043'>0.68795E+03</wgt>
<wgt id='2044'>0.68767E+03</wgt>
<wgt id='2045'>0.68708E+03</wgt>
<wgt id='2046'>0.68748E+03</wgt>
<wgt id='2047'>0.68773E+03</wgt>
<wgt id='2048'>0.68711E+03</wgt>
<wgt id='2049'>0.68713E+03</wgt>
<wgt id='2050'>0.68743E+03</wgt>
<wgt id='2051'>0.68741E+03</wgt>
<wgt id='2052'>0.68656E+03</wgt>
<wgt id='2053'>0.68674E+03</wgt>
<wgt id='2054'>0.68700E+03</wgt>
<wgt id='2055'>0.68728E+03</wgt>
<wgt id='2056'>0.68710E+03</wgt>
<wgt id='2057'>0.68685E+03</wgt>
<wgt id='2058'>0.68737E+03</wgt>
<wgt id='2059'>0.68704E+03</wgt>
<wgt id='2060'>0.68732E+03</wgt>
<wgt id='2061'>0.68692E+03</wgt>
<wgt id='2062'>0.68699E+03</wgt>
<wgt id='2063'>0.68707E+03</wgt>
<wgt id='2064'>0.68681E+03</wgt>
<wgt id='2065'>0.68702E+03</wgt>
<wgt id='2066'>0.68682E+03</wgt>
<wgt id='2067'>0.68705E+03</wgt>
<wgt id='2068'>0.68721E+03</wgt>
<wgt id='2069'>0.68719E+03</wgt>
<wgt id='2070'>0.68704E+03</wgt>
<wgt id='2071'>0.68673E+03</wgt>
<wgt id='2072'>0.68714E+03</wgt>
<wgt id='2073'>0.68701E+03</wgt>
<wgt id='2074'>0.68684E+03</wgt>
<wgt id='2075'>0.68703E+03</wgt>
<wgt id='2076'>0.68704E+03</wgt>
<wgt id='2077'>0.68685E+03</wgt>
<wgt id='2078'>0.68715E+03</wgt>
<wgt id='2079'>0.68722E+03</wgt>
<wgt id='2080'>0.68705E+03</wgt>
<wgt id='2081'>0.68718E+03</wgt>
<wgt id='2082'>0.68721E+03</wgt>
<wgt id='2083'>0.68697E+03</wgt>
<wgt id='2084'>0.68705E+03</wgt>
<wgt id='2085'>0.68691E+03</wgt>
<wgt id='2086'>0.68713E+03</wgt>
<wgt id='2087'>0.68705E+03</wgt>
<wgt id='2088'>0.68712E+03</wgt>
<wgt id='2089'>0.68717E+03</wgt>
<wgt id='2090'>0.68715E+03</wgt>
<wgt id='2091'>0.68699E+03</wgt>
<wgt id='2092'>0.68707E+03</wgt>
<wgt id='2093'>0.68706E+03</wgt>
<wgt id='2094'>0.68704E+03</wgt>
<wgt id='2095'>0.68702E+03</wgt>
<wgt id='2096'>0.68703E+03</wgt>
<wgt id='2097'>0.68722E+03</wgt>
<wgt id='2098'>0.68694E+03</wgt>
<wgt id='2099'>0.68717E+03</wgt>
<wgt id='2100'>0.68703E+03</wgt>
<wgt id='2101'>0.66614E+03</wgt>
<wgt id='2102'>0.70595E+03</wgt>
<wgt id='2104'>0.59636E+03</wgt>
<wgt id='2105'>0.61310E+03</wgt>
<wgt id='2106'>0.63425E+03</wgt>
<wgt id='2107'>0.65343E+03</wgt>
<wgt id='2108'>0.67878E+03</wgt>
<wgt id='2109'>0.69822E+03</wgt>
<wgt id='2110'>0.72087E+03</wgt>
<wgt id='2111'>0.73991E+03</wgt>
<wgt id='3000'>0.71724E+03</wgt>
<wgt id='3001'>0.71818E+03</wgt>
<wgt id='3002'>0.71693E+03</wgt>
<wgt id='3003'>0.71825E+03</wgt>
<wgt id='3004'>0.71862E+03</wgt>
<wgt id='3005'>0.71965E+03</wgt>
<wgt id='3006'>0.71723E+03</wgt>
<wgt id='3007'>0.71995E+03</wgt>
<wgt id='3008'>0.71658E+03</wgt>
<wgt id='3009'>0.71976E+03</wgt>
<wgt id='3010'>0.71568E+03</wgt>
<wgt id='3011'>0.71601E+03</wgt>
<wgt id='3012'>0.71927E+03</wgt>
<wgt id='3013'>0.71686E+03</wgt>
<wgt id='3014'>0.71932E+03</wgt>
<wgt id='3015'>0.71593E+03</wgt>
<wgt id='3016'>0.71788E+03</wgt>
<wgt id='3017'>0.71928E+03</wgt>
<wgt id='3018'>0.71978E+03</wgt>
<wgt id='3019'>0.71403E+03</wgt>
<wgt id='3020'>0.71395E+03</wgt>
<wgt id='3021'>0.71318E+03</wgt>
<wgt id='3022'>0.71697E+03</wgt>
<wgt id='3023'>0.71476E+03</wgt>
<wgt id='3024'>0.71358E+03</wgt>
<wgt id='3025'>0.71723E+03</wgt>
<wgt id='3026'>0.71972E+03</wgt>
<wgt id='3027'>0.71747E+03</wgt>
<wgt id='3028'>0.71332E+03</wgt>
<wgt id='3029'>0.71614E+03</wgt>
<wgt id='3030'>0.71860E+03</wgt>
<wgt id='3031'>0.71785E+03</wgt>
<wgt id='3032'>0.71855E+03</wgt>
<wgt id='3033'>0.71848E+03</wgt>
<wgt id='3034'>0.71796E+03</wgt>
<wgt id='3035'>0.71787E+03</wgt>
<wgt id='3036'>0.71746E+03</wgt>
<wgt id='3037'>0.71747E+03</wgt>
<wgt id='3038'>0.71729E+03</wgt>
<wgt id='3039'>0.71677E+03</wgt>
<wgt id='3040'>0.71776E+03</wgt>
<wgt id='3041'>0.71753E+03</wgt>
<wgt id='3042'>0.71616E+03</wgt>
<wgt id='3043'>0.71632E+03</wgt>
<wgt id='3044'>0.71755E+03</wgt>
<wgt id='3045'>0.71792E+03</wgt>
<wgt id='3046'>0.71762E+03</wgt>
<wgt id='3047'>0.71687E+03</wgt>
<wgt id='3048'>0.71797E+03</wgt>
<wgt id='3049'>0.71704E+03</wgt>
<wgt id='3050'>0.71735E+03</wgt>
<wgt id='3051'>0.71831E+03</wgt>
<wgt id='3052'>0.71713E+03</wgt>
<wgt id='3053'>0.71707E+03</wgt>
<wgt id='3054'>0.71701E+03</wgt>
<wgt id='3055'>0.71758E+03</wgt>
<wgt id='3056'>0.71740E+03</wgt>
<wgt id='3057'>0.71683E+03</wgt>
<wgt id='3058'>0.71710E+03</wgt>
<wgt id='3059'>0.71722E+03</wgt>
<wgt id='3060'>0.71733E+03</wgt>
<wgt id='3061'>0.71751E+03</wgt>
<wgt id='3062'>0.71720E+03</wgt>
<wgt id='3063'>0.71737E+03</wgt>
<wgt id='3064'>0.71725E+03</wgt>
<wgt id='3065'>0.71745E+03</wgt>
<wgt id='3066'>0.71735E+03</wgt>
<wgt id='3067'>0.71704E+03</wgt>
<wgt id='3068'>0.71711E+03</wgt>
<wgt id='3069'>0.71683E+03</wgt>
<wgt id='3070'>0.71692E+03</wgt>
<wgt id='3071'>0.71734E+03</wgt>
<wgt id='3072'>0.71753E+03</wgt>
<wgt id='3073'>0.71739E+03</wgt>
<wgt id='3074'>0.71746E+03</wgt>
<wgt id='3075'>0.71749E+03</wgt>
<wgt id='3076'>0.71727E+03</wgt>
<wgt id='3077'>0.71711E+03</wgt>
<wgt id='3078'>0.71748E+03</wgt>
<wgt id='3079'>0.71705E+03</wgt>
<wgt id='3080'>0.71707E+03</wgt>
<wgt id='3081'>0.71713E+03</wgt>
<wgt id='3082'>0.71713E+03</wgt>
<wgt id='3083'>0.71724E+03</wgt>
<wgt id='3084'>0.71714E+03</wgt>
<wgt id='3085'>0.71740E+03</wgt>
<wgt id='3086'>0.71742E+03</wgt>
<wgt id='3087'>0.71721E+03</wgt>
<wgt id='3088'>0.71709E+03</wgt>
<wgt id='3089'>0.71728E+03</wgt>
<wgt id='3090'>0.71729E+03</wgt>
<wgt id='3091'>0.71718E+03</wgt>
<wgt id='3092'>0.71709E+03</wgt>
<wgt id='3093'>0.71728E+03</wgt>
<wgt id='3094'>0.71736E+03</wgt>
<wgt id='3095'>0.71727E+03</wgt>
<wgt id='3096'>0.71708E+03</wgt>
<wgt id='3097'>0.71711E+03</wgt>
<wgt id='3098'>0.71710E+03</wgt>
<wgt id='3099'>0.71732E+03</wgt>
<wgt id='3100'>0.71733E+03</wgt>
<wgt id='3101'>0.69720E+03</wgt>
<wgt id='3102'>0.73836E+03</wgt>
<wgt id='5000'>0.66970E+03</wgt>
<wgt id='5001'>0.66976E+03</wgt>
<wgt id='5002'>0.67104E+03</wgt>
<wgt id='5003'>0.66809E+03</wgt>
<wgt id='5004'>0.66790E+03</wgt>
<wgt id='5005'>0.65297E+03</wgt>
<wgt id='5006'>0.66125E+03</wgt>
<wgt id='5007'>0.66530E+03</wgt>
<wgt id='5008'>0.66755E+03</wgt>
<wgt id='5009'>0.67086E+03</wgt>
<wgt id='5010'>0.66684E+03</wgt>
<wgt id='5011'>0.67013E+03</wgt>
<wgt id='5012'>0.67041E+03</wgt>
<wgt id='5013'>0.66749E+03</wgt>
<wgt id='5014'>0.68066E+03</wgt>
<wgt id='5015'>0.67216E+03</wgt>
<wgt id='5016'>0.66281E+03</wgt>
<wgt id='5017'>0.66027E+03</wgt>
<wgt id='5018'>0.67960E+03</wgt>
<wgt id='5019'>0.67979E+03</wgt>
<wgt id='5020'>0.66028E+03</wgt>
<wgt id='5021'>0.66997E+03</wgt>
<wgt id='5022'>0.66952E+03</wgt>
<wgt id='5023'>0.66728E+03</wgt>
<wgt id='5024'>0.67225E+03</wgt>
<wgt id='5025'>0.67289E+03</wgt>
<wgt id='5026'>0.66706E+03</wgt>
<wgt id='5027'>0.67400E+03</wgt>
<wgt id='5028'>0.66245E+03</wgt>
<wgt id='5029'>0.66134E+03</wgt>
<wgt id='5030'>0.67490E+03</wgt>
<wgt id='5031'>0.66393E+03</wgt>
<wgt id='5032'>0.67826E+03</wgt>
<wgt id='5033'>0.66891E+03</wgt>
<wgt id='5034'>0.67018E+03</wgt>
<wgt id='5035'>0.67401E+03</wgt>
<wgt id='5036'>0.66532E+03</wgt>
<wgt id='5037'>0.65429E+03</wgt>
<wgt id='5038'>0.68677E+03</wgt>
<wgt id='5039'>0.68599E+03</wgt>
<wgt id='5040'>0.66078E+03</wgt>
<wgt id='5041'>0.66873E+03</wgt>
<wgt id='5042'>0.66878E+03</wgt>
<wgt id='5043'>0.67344E+03</wgt>
<wgt id='5044'>0.66302E+03</wgt>
<wgt id='5045'>0.69238E+03</wgt>
<wgt id='5046'>0.64793E+03</wgt>
<wgt id='5047'>0.68134E+03</wgt>
<wgt id='5048'>0.65957E+03</wgt>
<wgt id='5049'>0.67120E+03</wgt>
<wgt id='5050'>0.66813E+03</wgt>
<wgt id='5051'>0.66961E+03</wgt>
<wgt id='5052'>0.66980E+03</wgt>
<wgt id='5053'>0.66559E+03</wgt>
<wgt id='5054'>0.67209E+03</wgt>
<wgt id='5055'>0.66420E+03</wgt>
<wgt id='5056'>0.68095E+03</wgt>
<wgt id='5060'>0.64854E+03</wgt>
<wgt id='5070'>0.69016E+03</wgt>
<wgt id='4000'>0.68078E+03</wgt>
<wgt id='4001'>0.68066E+03</wgt>
<wgt id='4002'>0.68124E+03</wgt>
<wgt id='4003'>0.68185E+03</wgt>
<wgt id='4004'>0.66926E+03</wgt>
<wgt id='4005'>0.67834E+03</wgt>
<wgt id='4006'>0.68301E+03</wgt>
<wgt id='4007'>0.69019E+03</wgt>
<wgt id='4008'>0.66903E+03</wgt>
<wgt id='4009'>0.67701E+03</wgt>
<wgt id='4010'>0.67915E+03</wgt>
<wgt id='4011'>0.69765E+03</wgt>
<wgt id='4012'>0.66903E+03</wgt>
<wgt id='4013'>0.67212E+03</wgt>
<wgt id='4014'>0.68623E+03</wgt>
<wgt id='4015'>0.69499E+03</wgt>
<wgt id='4016'>0.67092E+03</wgt>
<wgt id='4017'>0.66861E+03</wgt>
<wgt id='4018'>0.69515E+03</wgt>
<wgt id='4019'>0.69052E+03</wgt>
<wgt id='4020'>0.67062E+03</wgt>
<wgt id='4021'>0.68404E+03</wgt>
<wgt id='4022'>0.67444E+03</wgt>
<wgt id='4023'>0.67730E+03</wgt>
<wgt id='4024'>0.68432E+03</wgt>
<wgt id='4025'>0.69007E+03</wgt>
<wgt id='4026'>0.67160E+03</wgt>
<wgt id='4027'>0.68063E+03</wgt>
<wgt id='4028'>0.68109E+03</wgt>
<wgt id='4029'>0.67798E+03</wgt>
<wgt id='4030'>0.68180E+03</wgt>
<wgt id='4031'>0.68359E+03</wgt>
<wgt id='4032'>0.67714E+03</wgt>
<wgt id='4033'>0.67539E+03</wgt>
<wgt id='4034'>0.69260E+03</wgt>
<wgt id='4035'>0.67758E+03</wgt>
<wgt id='4036'>0.68414E+03</wgt>
<wgt id='4037'>0.68324E+03</wgt>
<wgt id='4038'>0.67736E+03</wgt>
<wgt id='4039'>0.68195E+03</wgt>
<wgt id='4040'>0.68072E+03</wgt>
<wgt id='4041'>0.68171E+03</wgt>
<wgt id='4042'>0.68062E+03</wgt>
<wgt id='4043'>0.68597E+03</wgt>
<wgt id='4044'>0.68229E+03</wgt>
<wgt id='4045'>0.67188E+03</wgt>
<wgt id='4046'>0.68372E+03</wgt>
<wgt id='4047'>0.67623E+03</wgt>
<wgt id='4048'>0.67080E+03</wgt>
<wgt id='4049'>0.66918E+03</wgt>
<wgt id='4050'>0.67319E+03</wgt>
<wgt id='4051'>0.68177E+03</wgt>
<wgt id='4052'>0.68133E+03</wgt>
<wgt id='4053'>0.66480E+03</wgt>
<wgt id='4054'>0.69069E+03</wgt>
<wgt id='4055'>0.67378E+03</wgt>
<wgt id='4056'>0.69237E+03</wgt>
<wgt id='4060'>0.65988E+03</wgt>
<wgt id='4070'>0.70164E+03</wgt>
<wgt id='4080'>0.59599E+03</wgt>
<wgt id='6000'>0.69801E+03</wgt>
<wgt id='6001'>0.69831E+03</wgt>
<wgt id='6002'>0.69771E+03</wgt>
<wgt id='6003'>0.69877E+03</wgt>
<wgt id='6004'>0.69750E+03</wgt>
<wgt id='6005'>0.70193E+03</wgt>
<wgt id='6006'>0.69440E+03</wgt>
<wgt id='6007'>0.69508E+03</wgt>
<wgt id='6008'>0.70133E+03</wgt>
<wgt id='6009'>0.69884E+03</wgt>
<wgt id='6010'>0.69722E+03</wgt>
<wgt id='6011'>0.69882E+03</wgt>
<wgt id='6012'>0.69626E+03</wgt>
<wgt id='6013'>0.69774E+03</wgt>
<wgt id='6014'>0.69857E+03</wgt>
<wgt id='6015'>0.69662E+03</wgt>
<wgt id='6016'>0.69881E+03</wgt>
<wgt id='6017'>0.69514E+03</wgt>
<wgt id='6018'>0.70143E+03</wgt>
<wgt id='6019'>0.69873E+03</wgt>
<wgt id='6020'>0.69742E+03</wgt>
<wgt id='6021'>0.69660E+03</wgt>
<wgt id='6022'>0.69991E+03</wgt>
<wgt id='6023'>0.69391E+03</wgt>
<wgt id='6024'>0.70081E+03</wgt>
<wgt id='6025'>0.69502E+03</wgt>
<wgt id='6026'>0.70120E+03</wgt>
<wgt id='6027'>0.69871E+03</wgt>
<wgt id='6028'>0.69777E+03</wgt>
<wgt id='6029'>0.69777E+03</wgt>
<wgt id='6030'>0.69842E+03</wgt>
<wgt id='6031'>0.69280E+03</wgt>
<wgt id='6032'>0.70387E+03</wgt>
<wgt id='6033'>0.70077E+03</wgt>
<wgt id='6034'>0.69535E+03</wgt>
<wgt id='6035'>0.69870E+03</wgt>
<wgt id='6036'>0.69649E+03</wgt>
<wgt id='6037'>0.69874E+03</wgt>
<wgt id='6038'>0.69780E+03</wgt>
<wgt id='6039'>0.69670E+03</wgt>
<wgt id='6040'>0.69955E+03</wgt>
<wgt id='6041'>0.69332E+03</wgt>
<wgt id='6042'>0.70332E+03</wgt>
<wgt id='6043'>0.70429E+03</wgt>
<wgt id='6044'>0.69445E+03</wgt>
<wgt id='6045'>0.69733E+03</wgt>
<wgt id='6046'>0.69974E+03</wgt>
<wgt id='6047'>0.70645E+03</wgt>
<wgt id='6048'>0.68338E+03</wgt>
<wgt id='6049'>0.70208E+03</wgt>
<wgt id='6050'>0.69575E+03</wgt>
<wgt id='7000'>0.66804E+03</wgt>
<wgt id='7001'>0.66766E+03</wgt>
<wgt id='7002'>0.66854E+03</wgt>
<wgt id='7003'>0.67026E+03</wgt>
<wgt id='7004'>0.66583E+03</wgt>
<wgt id='7005'>0.67019E+03</wgt>
<wgt id='7006'>0.66719E+03</wgt>
<wgt id='7007'>0.66702E+03</wgt>
<wgt id='7008'>0.66908E+03</wgt>
<wgt id='7009'>0.66859E+03</wgt>
<wgt id='7010'>0.66753E+03</wgt>
<wgt id='7011'>0.66549E+03</wgt>
<wgt id='7012'>0.66915E+03</wgt>
<wgt id='7013'>0.66802E+03</wgt>
<wgt id='7014'>0.66808E+03</wgt>
<wgt id='7015'>0.66761E+03</wgt>
<wgt id='7016'>0.66851E+03</wgt>
<wgt id='7017'>0.66934E+03</wgt>
<wgt id='7018'>0.66734E+03</wgt>
<wgt id='7019'>0.66797E+03</wgt>
<wgt id='7020'>0.66815E+03</wgt>
<wgt id='7021'>0.66674E+03</wgt>
<wgt id='7022'>0.66893E+03</wgt>
<wgt id='7023'>0.67575E+03</wgt>
<wgt id='7024'>0.66084E+03</wgt>
<wgt id='7025'>0.67052E+03</wgt>
<wgt id='7026'>0.66189E+03</wgt>
<wgt id='7027'>0.66919E+03</wgt>
<wgt id='7028'>0.66673E+03</wgt>
<wgt id='7029'>0.66825E+03</wgt>
<wgt id='7030'>0.66809E+03</wgt>
<wgt id='7031'>0.66577E+03</wgt>
<wgt id='7032'>0.67268E+03</wgt>
<wgt id='7033'>0.66839E+03</wgt>
<wgt id='7034'>0.66733E+03</wgt>
<wgt id='7035'>0.66562E+03</wgt>
<wgt id='7036'>0.66905E+03</wgt>
<wgt id='7037'>0.66792E+03</wgt>
<wgt id='7038'>0.66785E+03</wgt>
<wgt id='7039'>0.66621E+03</wgt>
<wgt id='7040'>0.66943E+03</wgt>
<wgt id='7041'>0.66786E+03</wgt>
<wgt id='7042'>0.66755E+03</wgt>
<wgt id='7043'>0.66871E+03</wgt>
<wgt id='7044'>0.66422E+03</wgt>
<wgt id='7045'>0.65786E+03</wgt>
<wgt id='7046'>0.67409E+03</wgt>
<wgt id='7047'>0.67171E+03</wgt>
<wgt id='7048'>0.66630E+03</wgt>
<wgt id='7049'>0.66329E+03</wgt>
<wgt id='7050'>0.67010E+03</wgt>
<wgt id='7060'>0.84466E+03</wgt>
<wgt id='8000'>0.66648E+03</wgt>
<wgt id='8001'>0.66639E+03</wgt>
<wgt id='8002'>0.66670E+03</wgt>
<wgt id='8003'>0.66651E+03</wgt>
<wgt id='8004'>0.66647E+03</wgt>
<wgt id='8005'>0.66516E+03</wgt>
<wgt id='8006'>0.66705E+03</wgt>
<wgt id='8007'>0.66760E+03</wgt>
<wgt id='8008'>0.66802E+03</wgt>
<wgt id='8009'>0.66938E+03</wgt>
<wgt id='8010'>0.66580E+03</wgt>
<wgt id='8011'>0.66654E+03</wgt>
<wgt id='8012'>0.66407E+03</wgt>
<wgt id='8013'>0.66525E+03</wgt>
<wgt id='8014'>0.66789E+03</wgt>
<wgt id='8015'>0.66610E+03</wgt>
<wgt id='8016'>0.66702E+03</wgt>
<wgt id='8017'>0.66673E+03</wgt>
<wgt id='8018'>0.66784E+03</wgt>
<wgt id='8019'>0.66744E+03</wgt>
<wgt id='8020'>0.66525E+03</wgt>
<wgt id='8021'>0.66615E+03</wgt>
<wgt id='8022'>0.66417E+03</wgt>
<wgt id='8023'>0.66636E+03</wgt>
<wgt id='8024'>0.66547E+03</wgt>
<wgt id='8025'>0.66724E+03</wgt>
<wgt id='8026'>0.66766E+03</wgt>
<wgt id='8027'>0.66651E+03</wgt>
<wgt id='8028'>0.66705E+03</wgt>
<wgt id='8029'>0.66293E+03</wgt>
<wgt id='8500'>0.70204E+03</wgt>
<wgt id='8501'>0.69882E+03</wgt>
<wgt id='8502'>0.70930E+03</wgt>
<wgt id='8503'>0.70512E+03</wgt>
<wgt id='8504'>0.69924E+03</wgt>
<wgt id='8505'>0.69929E+03</wgt>
<wgt id='8506'>0.70600E+03</wgt>
<wgt id='8507'>0.69454E+03</wgt>
<wgt id='8508'>0.69355E+03</wgt>
<wgt id='8509'>0.70544E+03</wgt>
<wgt id='8510'>0.71342E+03</wgt>
<wgt id='8511'>0.70146E+03</wgt>
<wgt id='8512'>0.69602E+03</wgt>
<wgt id='8513'>0.70380E+03</wgt>
<wgt id='8514'>0.69051E+03</wgt>
<wgt id='8515'>0.70576E+03</wgt>
<wgt id='8516'>0.70135E+03</wgt>
<wgt id='8517'>0.69817E+03</wgt>
<wgt id='8518'>0.69961E+03</wgt>
<wgt id='8519'>0.69956E+03</wgt>
<wgt id='8520'>0.69999E+03</wgt>
<wgt id='8521'>0.69908E+03</wgt>
<wgt id='8522'>0.70415E+03</wgt>
<wgt id='8523'>0.69961E+03</wgt>
<wgt id='8524'>0.70182E+03</wgt>
<wgt id='8525'>0.70255E+03</wgt>
<wgt id='8526'>0.70170E+03</wgt>
<wgt id='8527'>0.70174E+03</wgt>
<wgt id='8528'>0.70116E+03</wgt>
<wgt id='8529'>0.70113E+03</wgt>
<wgt id='8530'>0.70228E+03</wgt>
<wgt id='8531'>0.70188E+03</wgt>
<wgt id='8532'>0.70197E+03</wgt>
<wgt id='8533'>0.70106E+03</wgt>
<wgt id='8534'>0.70241E+03</wgt>
<wgt id='8535'>0.70345E+03</wgt>
<wgt id='8536'>0.70169E+03</wgt>
<wgt id='8537'>0.70215E+03</wgt>
<wgt id='8538'>0.70189E+03</wgt>
<wgt id='8539'>0.70240E+03</wgt>
<wgt id='8540'>0.70255E+03</wgt>
<wgt id='8541'>0.70259E+03</wgt>
<wgt id='8542'>0.70255E+03</wgt>
<wgt id='8543'>0.70131E+03</wgt>
<wgt id='8544'>0.70296E+03</wgt>
<wgt id='8545'>0.70241E+03</wgt>
<wgt id='8546'>0.70272E+03</wgt>
<wgt id='8547'>0.70160E+03</wgt>
<wgt id='8548'>0.70168E+03</wgt>
<wgt id='8549'>0.70213E+03</wgt>
<wgt id='8550'>0.70159E+03</wgt>
<wgt id='8551'>0.70147E+03</wgt>
<wgt id='8552'>0.70171E+03</wgt>
<wgt id='8553'>0.70125E+03</wgt>
<wgt id='8554'>0.70160E+03</wgt>
<wgt id='8555'>0.70207E+03</wgt>
<wgt id='8556'>0.70190E+03</wgt>
<wgt id='8557'>0.70212E+03</wgt>
<wgt id='8558'>0.70286E+03</wgt>
<wgt id='8559'>0.70182E+03</wgt>
<wgt id='8560'>0.70119E+03</wgt>
<wgt id='8561'>0.70226E+03</wgt>
<wgt id='8562'>0.70161E+03</wgt>
<wgt id='8563'>0.70204E+03</wgt>
<wgt id='8564'>0.70178E+03</wgt>
<wgt id='8565'>0.70218E+03</wgt>
<wgt id='8566'>0.70235E+03</wgt>
<wgt id='8567'>0.70203E+03</wgt>
<wgt id='8568'>0.70248E+03</wgt>
<wgt id='8569'>0.70233E+03</wgt>
<wgt id='8570'>0.70179E+03</wgt>
<wgt id='8571'>0.70160E+03</wgt>
<wgt id='8572'>0.70170E+03</wgt>
<wgt id='8573'>0.70172E+03</wgt>
<wgt id='8574'>0.70177E+03</wgt>
<wgt id='8575'>0.70194E+03</wgt>
<wgt id='8576'>0.70210E+03</wgt>
<wgt id='8577'>0.70170E+03</wgt>
<wgt id='8578'>0.70197E+03</wgt>
<wgt id='8579'>0.70257E+03</wgt>
<wgt id='8580'>0.70201E+03</wgt>
<wgt id='8581'>0.70231E+03</wgt>
<wgt id='8582'>0.70170E+03</wgt>
<wgt id='8583'>0.70223E+03</wgt>
<wgt id='8584'>0.70245E+03</wgt>
<wgt id='8585'>0.70219E+03</wgt>
<wgt id='8586'>0.70272E+03</wgt>
<wgt id='8587'>0.70212E+03</wgt>
<wgt id='8588'>0.70203E+03</wgt>
<wgt id='8589'>0.70206E+03</wgt>
<wgt id='8590'>0.70206E+03</wgt>
<wgt id='8591'>0.70172E+03</wgt>
<wgt id='8592'>0.70198E+03</wgt>
<wgt id='8593'>0.70186E+03</wgt>
<wgt id='8594'>0.70194E+03</wgt>
<wgt id='8595'>0.70197E+03</wgt>
<wgt id='8596'>0.70194E+03</wgt>
<wgt id='8597'>0.70220E+03</wgt>
<wgt id='8598'>0.70218E+03</wgt>
<wgt id='8599'>0.70212E+03</wgt>
<wgt id='8600'>0.70205E+03</wgt>
<wgt id='8601'>0.68941E+03</wgt>
<wgt id='8602'>0.71382E+03</wgt>
<wgt id='9000'>0.67538E+03</wgt>
<wgt id='9001'>0.67468E+03</wgt>
<wgt id='9002'>0.67854E+03</wgt>
<wgt id='9003'>0.67037E+03</wgt>
<wgt id='9004'>0.67500E+03</wgt>
<wgt id='9005'>0.67988E+03</wgt>
<wgt id='9006'>0.67292E+03</wgt>
<wgt id='9007'>0.66978E+03</wgt>
<wgt id='9008'>0.67354E+03</wgt>
<wgt id='9009'>0.67562E+03</wgt>
<wgt id='9010'>0.67061E+03</wgt>
<wgt id='9011'>0.68352E+03</wgt>
<wgt id='9012'>0.67838E+03</wgt>
<wgt id='9013'>0.66706E+03</wgt>
<wgt id='9014'>0.67329E+03</wgt>
<wgt id='9015'>0.67451E+03</wgt>
<wgt id='9016'>0.68541E+03</wgt>
<wgt id='9017'>0.67198E+03</wgt>
<wgt id='9018'>0.67404E+03</wgt>
<wgt id='9019'>0.67543E+03</wgt>
<wgt id='9020'>0.67950E+03</wgt>
<wgt id='9021'>0.67368E+03</wgt>
<wgt id='9022'>0.67683E+03</wgt>
<wgt id='9023'>0.67212E+03</wgt>
<wgt id='9024'>0.67422E+03</wgt>
<wgt id='9025'>0.67606E+03</wgt>
<wgt id='9026'>0.67514E+03</wgt>
<wgt id='9027'>0.67457E+03</wgt>
<wgt id='9028'>0.67587E+03</wgt>
<wgt id='9029'>0.67633E+03</wgt>
<wgt id='9030'>0.67537E+03</wgt>
<wgt id='9031'>0.67483E+03</wgt>
<wgt id='9032'>0.67598E+03</wgt>
<wgt id='9033'>0.67600E+03</wgt>
<wgt id='9034'>0.67544E+03</wgt>
<wgt id='9035'>0.67603E+03</wgt>
<wgt id='9036'>0.67558E+03</wgt>
<wgt id='9037'>0.67591E+03</wgt>
<wgt id='9038'>0.67576E+03</wgt>
<wgt id='9039'>0.67534E+03</wgt>
<wgt id='9040'>0.67497E+03</wgt>
<wgt id='9041'>0.67534E+03</wgt>
<wgt id='9042'>0.67545E+03</wgt>
<wgt id='9043'>0.67476E+03</wgt>
<wgt id='9044'>0.67560E+03</wgt>
<wgt id='9045'>0.67558E+03</wgt>
<wgt id='9046'>0.67457E+03</wgt>
<wgt id='9047'>0.67544E+03</wgt>
<wgt id='9048'>0.67570E+03</wgt>
<wgt id='9049'>0.67496E+03</wgt>
<wgt id='9050'>0.67549E+03</wgt>
<wgt id='9051'>0.67580E+03</wgt>
<wgt id='9052'>0.67574E+03</wgt>
<wgt id='9053'>0.67536E+03</wgt>
<wgt id='9054'>0.67510E+03</wgt>
<wgt id='9055'>0.67513E+03</wgt>
<wgt id='9056'>0.67592E+03</wgt>
<wgt id='9057'>0.67548E+03</wgt>
<wgt id='9058'>0.67466E+03</wgt>
<wgt id='9059'>0.67503E+03</wgt>
<wgt id='9060'>0.67508E+03</wgt>
<wgt id='9061'>0.67546E+03</wgt>
<wgt id='9062'>0.67548E+03</wgt>
<wgt id='9063'>0.67563E+03</wgt>
<wgt id='9064'>0.67530E+03</wgt>
<wgt id='9065'>0.67527E+03</wgt>
<wgt id='9066'>0.67543E+03</wgt>
<wgt id='9067'>0.67561E+03</wgt>
<wgt id='9068'>0.67560E+03</wgt>
<wgt id='9069'>0.67586E+03</wgt>
<wgt id='9070'>0.67523E+03</wgt>
<wgt id='9071'>0.67589E+03</wgt>
<wgt id='9072'>0.67588E+03</wgt>
<wgt id='9073'>0.67519E+03</wgt>
<wgt id='9074'>0.67549E+03</wgt>
<wgt id='9075'>0.67536E+03</wgt>
<wgt id='9076'>0.67532E+03</wgt>
<wgt id='9077'>0.67555E+03</wgt>
<wgt id='9078'>0.67541E+03</wgt>
<wgt id='9079'>0.67526E+03</wgt>
<wgt id='9080'>0.67603E+03</wgt>
<wgt id='9081'>0.67535E+03</wgt>
<wgt id='9082'>0.67562E+03</wgt>
<wgt id='9083'>0.67512E+03</wgt>
<wgt id='9084'>0.67507E+03</wgt>
<wgt id='9085'>0.67507E+03</wgt>
<wgt id='9086'>0.67559E+03</wgt>
<wgt id='9087'>0.67474E+03</wgt>
<wgt id='9088'>0.67512E+03</wgt>
<wgt id='9089'>0.67512E+03</wgt>
<wgt id='9090'>0.67549E+03</wgt>
<wgt id='9091'>0.67521E+03</wgt>
<wgt id='9092'>0.67530E+03</wgt>
<wgt id='9093'>0.67524E+03</wgt>
<wgt id='9094'>0.67523E+03</wgt>
<wgt id='9095'>0.67546E+03</wgt>
<wgt id='9096'>0.67525E+03</wgt>
<wgt id='9097'>0.67545E+03</wgt>
<wgt id='9098'>0.67532E+03</wgt>
<wgt id='9099'>0.67521E+03</wgt>
<wgt id='9100'>0.67539E+03</wgt>
<wgt id='9101'>0.66419E+03</wgt>
<wgt id='9102'>0.68615E+03</wgt>
<wgt id='10000'>0.70193E+03</wgt>
<wgt id='10001'>0.70679E+03</wgt>
<wgt id='10002'>0.69553E+03</wgt>
<wgt id='10003'>0.70139E+03</wgt>
<wgt id='10004'>0.68929E+03</wgt>
<wgt id='10005'>0.71387E+03</wgt>
<wgt id='10006'>0.69863E+03</wgt>
<wgt id='10007'>0.70159E+03</wgt>
<wgt id='10008'>0.70369E+03</wgt>
<wgt id='10009'>0.69895E+03</wgt>
<wgt id='10010'>0.70420E+03</wgt>
<wgt id='10011'>0.69811E+03</wgt>
<wgt id='10012'>0.70248E+03</wgt>
<wgt id='10013'>0.70290E+03</wgt>
<wgt id='10014'>0.70041E+03</wgt>
<wgt id='10015'>0.70125E+03</wgt>
<wgt id='10016'>0.69878E+03</wgt>
<wgt id='10017'>0.70895E+03</wgt>
<wgt id='10018'>0.70288E+03</wgt>
<wgt id='10019'>0.70065E+03</wgt>
<wgt id='10020'>0.70004E+03</wgt>
<wgt id='10021'>0.70125E+03</wgt>
<wgt id='10022'>0.70156E+03</wgt>
<wgt id='10023'>0.70208E+03</wgt>
<wgt id='10024'>0.70083E+03</wgt>
<wgt id='10025'>0.70128E+03</wgt>
<wgt id='10026'>0.70477E+03</wgt>
<wgt id='10027'>0.70390E+03</wgt>
<wgt id='10028'>0.71037E+03</wgt>
<wgt id='10029'>0.70237E+03</wgt>
<wgt id='10030'>0.70167E+03</wgt>
<wgt id='10031'>0.68941E+03</wgt>
<wgt id='10032'>0.71382E+03</wgt>
<wgt id='11000'>0.67527E+03</wgt>
<wgt id='11001'>0.66484E+03</wgt>
<wgt id='11002'>0.67894E+03</wgt>
<wgt id='11003'>0.67481E+03</wgt>
<wgt id='11004'>0.67960E+03</wgt>
<wgt id='11005'>0.67085E+03</wgt>
<wgt id='11006'>0.67580E+03</wgt>
<wgt id='11007'>0.67367E+03</wgt>
<wgt id='11008'>0.67480E+03</wgt>
<wgt id='11009'>0.67265E+03</wgt>
<wgt id='11010'>0.66940E+03</wgt>
<wgt id='11011'>0.67268E+03</wgt>
<wgt id='11012'>0.67586E+03</wgt>
<wgt id='11013'>0.67683E+03</wgt>
<wgt id='11014'>0.67363E+03</wgt>
<wgt id='11015'>0.67471E+03</wgt>
<wgt id='11016'>0.67466E+03</wgt>
<wgt id='11017'>0.68006E+03</wgt>
<wgt id='11018'>0.67458E+03</wgt>
<wgt id='11019'>0.67462E+03</wgt>
<wgt id='11020'>0.67802E+03</wgt>
<wgt id='11021'>0.67652E+03</wgt>
<wgt id='11022'>0.68700E+03</wgt>
<wgt id='11023'>0.67586E+03</wgt>
<wgt id='11024'>0.67612E+03</wgt>
<wgt id='11025'>0.67591E+03</wgt>
<wgt id='11026'>0.67537E+03</wgt>
<wgt id='11027'>0.67515E+03</wgt>
<wgt id='11028'>0.67608E+03</wgt>
<wgt id='11029'>0.67595E+03</wgt>
<wgt id='11030'>0.67518E+03</wgt>
<wgt id='11031'>0.66419E+03</wgt>
<wgt id='11032'>0.68615E+03</wgt>
<wgt id='12000'>0.69658E+03</wgt>
<wgt id='12001'>0.69555E+03</wgt>
<wgt id='12002'>0.69760E+03</wgt>
<wgt id='12003'>0.69720E+03</wgt>
<wgt id='12004'>0.69595E+03</wgt>
<wgt id='12005'>0.69782E+03</wgt>
<wgt id='12006'>0.69534E+03</wgt>
<wgt id='12007'>0.70039E+03</wgt>
<wgt id='12008'>0.69285E+03</wgt>
<wgt id='12009'>0.69613E+03</wgt>
<wgt id='12010'>0.69704E+03</wgt>
<wgt id='12011'>0.69253E+03</wgt>
<wgt id='12012'>0.70114E+03</wgt>
<wgt id='12013'>0.69393E+03</wgt>
<wgt id='12014'>0.69928E+03</wgt>
<wgt id='12015'>0.69686E+03</wgt>
<wgt id='12016'>0.69483E+03</wgt>
<wgt id='12017'>0.70016E+03</wgt>
<wgt id='12018'>0.69427E+03</wgt>
<wgt id='12019'>0.69515E+03</wgt>
<wgt id='12020'>0.69737E+03</wgt>
<wgt id='12021'>0.69820E+03</wgt>
<wgt id='12022'>0.69481E+03</wgt>
<wgt id='12023'>0.69174E+03</wgt>
<wgt id='12024'>0.69956E+03</wgt>
<wgt id='12025'>0.69615E+03</wgt>
<wgt id='12026'>0.69750E+03</wgt>
<wgt id='12027'>0.70270E+03</wgt>
<wgt id='12028'>0.69109E+03</wgt>
<wgt id='12050'>0.69658E+03</wgt>
<wgt id='12051'>0.69634E+03</wgt>
<wgt id='12052'>0.69102E+03</wgt>
<wgt id='12053'>0.69640E+03</wgt>
<wgt id='12054'>0.69209E+03</wgt>
<wgt id='12055'>0.69601E+03</wgt>
<wgt id='12056'>0.69368E+03</wgt>
<wgt id='12057'>0.69290E+03</wgt>
<wgt id='12058'>0.69592E+03</wgt>
<wgt id='12059'>0.69702E+03</wgt>
<wgt id='12060'>0.69183E+03</wgt>
<wgt id='12061'>0.69293E+03</wgt>
<wgt id='12062'>0.69211E+03</wgt>
<wgt id='12063'>0.68776E+03</wgt>
<wgt id='13000'>0.66370E+03</wgt>
<wgt id='13001'>0.65981E+03</wgt>
<wgt id='13002'>0.66127E+03</wgt>
<wgt id='13003'>0.66040E+03</wgt>
<wgt id='13004'>0.66068E+03</wgt>
<wgt id='13005'>0.66156E+03</wgt>
<wgt id='13006'>0.65952E+03</wgt>
<wgt id='13007'>0.66486E+03</wgt>
<wgt id='13008'>0.65635E+03</wgt>
<wgt id='13009'>0.65806E+03</wgt>
<wgt id='13010'>0.66312E+03</wgt>
<wgt id='13011'>0.66284E+03</wgt>
<wgt id='13012'>0.65826E+03</wgt>
<wgt id='13013'>0.65928E+03</wgt>
<wgt id='13014'>0.66173E+03</wgt>
<wgt id='13015'>0.65930E+03</wgt>
<wgt id='13016'>0.65981E+03</wgt>
<wgt id='13017'>0.66090E+03</wgt>
<wgt id='13018'>0.66020E+03</wgt>
<wgt id='13019'>0.65883E+03</wgt>
<wgt id='13020'>0.66232E+03</wgt>
<wgt id='13021'>0.65953E+03</wgt>
<wgt id='13022'>0.66132E+03</wgt>
<wgt id='13023'>0.65902E+03</wgt>
<wgt id='13024'>0.66216E+03</wgt>
<wgt id='13025'>0.65397E+03</wgt>
<wgt id='13026'>0.66637E+03</wgt>
<wgt id='13027'>0.65812E+03</wgt>
<wgt id='13028'>0.66342E+03</wgt>
<wgt id='13050'>0.66370E+03</wgt>
<wgt id='13051'>0.66285E+03</wgt>
<wgt id='13052'>0.65556E+03</wgt>
<wgt id='13053'>0.66263E+03</wgt>
<wgt id='13054'>0.65868E+03</wgt>
<wgt id='13055'>0.65542E+03</wgt>
<wgt id='13056'>0.65576E+03</wgt>
<wgt id='13057'>0.65925E+03</wgt>
<wgt id='13058'>0.66369E+03</wgt>
<wgt id='13059'>0.66170E+03</wgt>
<wgt id='13060'>0.65119E+03</wgt>
<wgt id='13061'>0.65856E+03</wgt>
<wgt id='13062'>0.66495E+03</wgt>
<wgt id='13063'>0.66006E+03</wgt>
<wgt id='14000'>0.67943E+03</wgt>
<wgt id='14001'>0.67934E+03</wgt>
<wgt id='14002'>0.67926E+03</wgt>
<wgt id='14003'>0.67918E+03</wgt>
<wgt id='14004'>0.67910E+03</wgt>
<wgt id='14005'>0.67901E+03</wgt>
<wgt id='14006'>0.67893E+03</wgt>
<wgt id='14007'>0.67885E+03</wgt>
<wgt id='14008'>0.67877E+03</wgt>
<wgt id='14009'>0.67868E+03</wgt>
<wgt id='14010'>0.67860E+03</wgt>
<wgt id='14011'>0.67852E+03</wgt>
<wgt id='14012'>0.67844E+03</wgt>
<wgt id='14013'>0.67836E+03</wgt>
<wgt id='14014'>0.67827E+03</wgt>
<wgt id='14015'>0.67819E+03</wgt>
<wgt id='14016'>0.67811E+03</wgt>
<wgt id='14017'>0.67803E+03</wgt>
<wgt id='14018'>0.67794E+03</wgt>
<wgt id='14019'>0.67786E+03</wgt>
<wgt id='14020'>0.67778E+03</wgt>
<wgt id='14021'>0.67770E+03</wgt>
<wgt id='14022'>0.67762E+03</wgt>
<wgt id='14023'>0.67753E+03</wgt>
<wgt id='14024'>0.67745E+03</wgt>
<wgt id='14025'>0.67737E+03</wgt>
<wgt id='14026'>0.67728E+03</wgt>
<wgt id='14027'>0.67720E+03</wgt>
<wgt id='14028'>0.67712E+03</wgt>
<wgt id='14029'>0.67704E+03</wgt>
<wgt id='14030'>0.67695E+03</wgt>
<wgt id='15000'>0.66727E+03</wgt>
<wgt id='15001'>0.66665E+03</wgt>
<wgt id='15002'>0.67042E+03</wgt>
<wgt id='15003'>0.66231E+03</wgt>
<wgt id='15004'>0.66690E+03</wgt>
<wgt id='15005'>0.67174E+03</wgt>
<wgt id='15006'>0.66476E+03</wgt>
<wgt id='15007'>0.66165E+03</wgt>
<wgt id='15008'>0.66542E+03</wgt>
<wgt id='15009'>0.66750E+03</wgt>
<wgt id='15010'>0.66256E+03</wgt>
<wgt id='15011'>0.67528E+03</wgt>
<wgt id='15012'>0.67018E+03</wgt>
<wgt id='15013'>0.65898E+03</wgt>
<wgt id='15014'>0.66516E+03</wgt>
<wgt id='15015'>0.66652E+03</wgt>
<wgt id='15016'>0.67714E+03</wgt>
<wgt id='15017'>0.66398E+03</wgt>
<wgt id='15018'>0.66597E+03</wgt>
<wgt id='15019'>0.66726E+03</wgt>
<wgt id='15020'>0.67127E+03</wgt>
<wgt id='15021'>0.66549E+03</wgt>
<wgt id='15022'>0.66872E+03</wgt>
<wgt id='15023'>0.66401E+03</wgt>
<wgt id='15024'>0.66615E+03</wgt>
<wgt id='15025'>0.66807E+03</wgt>
<wgt id='15026'>0.66708E+03</wgt>
<wgt id='15027'>0.66633E+03</wgt>
<wgt id='15028'>0.66774E+03</wgt>
<wgt id='15029'>0.66825E+03</wgt>
<wgt id='15030'>0.66719E+03</wgt>
<wgt id='15031'>0.66666E+03</wgt>
<wgt id='15032'>0.66791E+03</wgt>
<wgt id='15033'>0.66791E+03</wgt>
<wgt id='15034'>0.66732E+03</wgt>
<wgt id='15035'>0.66793E+03</wgt>
<wgt id='15036'>0.66745E+03</wgt>
<wgt id='15037'>0.66780E+03</wgt>
<wgt id='15038'>0.66765E+03</wgt>
<wgt id='15039'>0.66727E+03</wgt>
<wgt id='15040'>0.66685E+03</wgt>
<wgt id='15041'>0.66725E+03</wgt>
<wgt id='15042'>0.66737E+03</wgt>
<wgt id='15043'>0.66662E+03</wgt>
<wgt id='15044'>0.66750E+03</wgt>
<wgt id='15045'>0.66749E+03</wgt>
<wgt id='15046'>0.66645E+03</wgt>
<wgt id='15047'>0.66734E+03</wgt>
<wgt id='15048'>0.66758E+03</wgt>
<wgt id='15049'>0.66685E+03</wgt>
<wgt id='15050'>0.66737E+03</wgt>
<wgt id='15051'>0.66768E+03</wgt>
<wgt id='15052'>0.66763E+03</wgt>
<wgt id='15053'>0.66725E+03</wgt>
<wgt id='15054'>0.66696E+03</wgt>
<wgt id='15055'>0.66701E+03</wgt>
<wgt id='15056'>0.66782E+03</wgt>
<wgt id='15057'>0.66736E+03</wgt>
<wgt id='15058'>0.66653E+03</wgt>
<wgt id='15059'>0.66690E+03</wgt>
<wgt id='15060'>0.66696E+03</wgt>
<wgt id='15061'>0.66734E+03</wgt>
<wgt id='15062'>0.66737E+03</wgt>
<wgt id='15063'>0.66753E+03</wgt>
<wgt id='15064'>0.66719E+03</wgt>
<wgt id='15065'>0.66716E+03</wgt>
<wgt id='15066'>0.66731E+03</wgt>
<wgt id='15067'>0.66750E+03</wgt>
<wgt id='15068'>0.66749E+03</wgt>
<wgt id='15069'>0.66775E+03</wgt>
<wgt id='15070'>0.66713E+03</wgt>
<wgt id='15071'>0.66777E+03</wgt>
<wgt id='15072'>0.66777E+03</wgt>
<wgt id='15073'>0.66708E+03</wgt>
<wgt id='15074'>0.66738E+03</wgt>
<wgt id='15075'>0.66724E+03</wgt>
<wgt id='15076'>0.66719E+03</wgt>
<wgt id='15077'>0.66743E+03</wgt>
<wgt id='15078'>0.66729E+03</wgt>
<wgt id='15079'>0.66714E+03</wgt>
<wgt id='15080'>0.66793E+03</wgt>
<wgt id='15081'>0.66722E+03</wgt>
<wgt id='15082'>0.66750E+03</wgt>
<wgt id='15083'>0.66701E+03</wgt>
<wgt id='15084'>0.66697E+03</wgt>
<wgt id='15085'>0.66696E+03</wgt>
<wgt id='15086'>0.66746E+03</wgt>
<wgt id='15087'>0.66663E+03</wgt>
<wgt id='15088'>0.66702E+03</wgt>
<wgt id='15089'>0.66702E+03</wgt>
<wgt id='15090'>0.66738E+03</wgt>
<wgt id='15091'>0.66710E+03</wgt>
<wgt id='15092'>0.66720E+03</wgt>
<wgt id='15093'>0.66712E+03</wgt>
<wgt id='15094'>0.66713E+03</wgt>
<wgt id='15095'>0.66734E+03</wgt>
<wgt id='15096'>0.66713E+03</wgt>
<wgt id='15097'>0.66733E+03</wgt>
<wgt id='15098'>0.66722E+03</wgt>
<wgt id='15099'>0.66710E+03</wgt>
<wgt id='15100'>0.66727E+03</wgt>
<wgt id='15101'>0.66726E+03</wgt>
<wgt id='15102'>0.66722E+03</wgt>
<wgt id='15103'>0.66728E+03</wgt>
<wgt id='15104'>0.66728E+03</wgt>
<wgt id='15105'>0.66729E+03</wgt>
<wgt id='15106'>0.66727E+03</wgt>
<wgt id='15107'>0.66723E+03</wgt>
<wgt id='1500'>0.72437E+03</wgt>
<wgt id='1501'>0.69846E+03</wgt>
<wgt id='1502'>0.71732E+03</wgt>
<wgt id='1503'>0.72594E+03</wgt>
<wgt id='1504'>0.71782E+03</wgt>
<wgt id='1505'>0.66405E+03</wgt>
<wgt id='1506'>0.74487E+03</wgt>
<wgt id='1507'>0.72325E+03</wgt>
<wgt id='1508'>0.74005E+03</wgt>
<wgt id='1509'>0.73472E+03</wgt>
<wgt id='1510'>0.68812E+03</wgt>
<wgt id='1511'>0.67132E+03</wgt>
<wgt id='1512'>0.73979E+03</wgt>
<wgt id='1513'>0.74028E+03</wgt>
<wgt id='1514'>0.70229E+03</wgt>
<wgt id='1515'>0.74046E+03</wgt>
<wgt id='1516'>0.73394E+03</wgt>
<wgt id='1517'>0.72434E+03</wgt>
<wgt id='1518'>0.73279E+03</wgt>
<wgt id='1519'>0.74350E+03</wgt>
<wgt id='1520'>0.75548E+03</wgt>
<wgt id='1521'>0.73034E+03</wgt>
<wgt id='1522'>0.70413E+03</wgt>
<wgt id='1523'>0.77617E+03</wgt>
<wgt id='1524'>0.71978E+03</wgt>
<wgt id='1525'>0.72331E+03</wgt>
<wgt id='1526'>0.72711E+03</wgt>
<wgt id='1527'>0.72584E+03</wgt>
<wgt id='1528'>0.71361E+03</wgt>
<wgt id='1529'>0.73125E+03</wgt>
<wgt id='1530'>0.74502E+03</wgt>
<wgt id='1531'>0.71481E+03</wgt>
<wgt id='1532'>0.69922E+03</wgt>
<wgt id='1533'>0.71064E+03</wgt>
<wgt id='1534'>0.71925E+03</wgt>
<wgt id='1535'>0.74111E+03</wgt>
<wgt id='1536'>0.73752E+03</wgt>
<wgt id='1537'>0.73880E+03</wgt>
<wgt id='1538'>0.74714E+03</wgt>
<wgt id='1539'>0.71827E+03</wgt>
<wgt id='1540'>0.72254E+03</wgt>
<wgt id='1541'>0.73714E+03</wgt>
<wgt id='1542'>0.71729E+03</wgt>
<wgt id='1543'>0.71943E+03</wgt>
<wgt id='1544'>0.71653E+03</wgt>
<wgt id='1545'>0.70706E+03</wgt>
<wgt id='1546'>0.74292E+03</wgt>
<wgt id='1547'>0.71946E+03</wgt>
<wgt id='1548'>0.72528E+03</wgt>
<wgt id='1549'>0.71478E+03</wgt>
<wgt id='1550'>0.71663E+03</wgt>
<wgt id='1551'>0.71812E+03</wgt>
<wgt id='1552'>0.70775E+03</wgt>
<wgt id='1553'>0.72719E+03</wgt>
<wgt id='1554'>0.73124E+03</wgt>
<wgt id='1555'>0.71358E+03</wgt>
<wgt id='1556'>0.71467E+03</wgt>
<wgt id='1557'>0.74671E+03</wgt>
<wgt id='1558'>0.70769E+03</wgt>
<wgt id='1559'>0.73591E+03</wgt>
<wgt id='1560'>0.72398E+03</wgt>
<wgt id='1561'>0.72722E+03</wgt>
<wgt id='1562'>0.72517E+03</wgt>
<wgt id='1563'>0.72662E+03</wgt>
<wgt id='1564'>0.70660E+03</wgt>
<wgt id='1565'>0.73495E+03</wgt>
<wgt id='1566'>0.71687E+03</wgt>
<wgt id='1567'>0.78376E+03</wgt>
<wgt id='1568'>0.71515E+03</wgt>
<wgt id='1569'>0.70139E+03</wgt>
<wgt id='1570'>0.70918E+03</wgt>
<wgt id='1571'>0.72149E+03</wgt>
<wgt id='1572'>0.73171E+03</wgt>
<wgt id='1573'>0.69453E+03</wgt>
<wgt id='1574'>0.72782E+03</wgt>
<wgt id='1575'>0.72241E+03</wgt>
<wgt id='1576'>0.69629E+03</wgt>
<wgt id='1577'>0.71761E+03</wgt>
<wgt id='1578'>0.74440E+03</wgt>
<wgt id='1579'>0.72238E+03</wgt>
<wgt id='1580'>0.71947E+03</wgt>
<wgt id='1581'>0.72334E+03</wgt>
<wgt id='1582'>0.70862E+03</wgt>
<wgt id='1583'>0.75620E+03</wgt>
<wgt id='1584'>0.72149E+03</wgt>
<wgt id='1585'>0.70915E+03</wgt>
<wgt id='1586'>0.71514E+03</wgt>
<wgt id='1587'>0.71820E+03</wgt>
<wgt id='1588'>0.72528E+03</wgt>
<wgt id='1589'>0.76434E+03</wgt>
<wgt id='1590'>0.71179E+03</wgt>
<wgt id='1591'>0.72722E+03</wgt>
<wgt id='1592'>0.72775E+03</wgt>
<wgt id='1593'>0.72990E+03</wgt>
<wgt id='1594'>0.73247E+03</wgt>
<wgt id='1595'>0.70733E+03</wgt>
<wgt id='1596'>0.74075E+03</wgt>
<wgt id='1597'>0.72701E+03</wgt>
<wgt id='1598'>0.74271E+03</wgt>
<wgt id='1599'>0.74584E+03</wgt>
<wgt id='1600'>0.74054E+03</wgt>
<wgt id='1601'>0.71554E+03</wgt>
<wgt id='1602'>0.73102E+03</wgt>
<wgt id='1700'>0.68661E+03</wgt>
<wgt id='1800'>0.68783E+03</wgt>
<wgt id='1850'>0.82013E+03</wgt>
<wgt id='1900'>0.74284E+03</wgt>
<wgt id='1950'>0.79514E+03</wgt>
</rwgt>
</event>
<event>
     13 322222  6.87070E+02  7.74171E+01 -1.00000E+00  1.27318E-01
      21    -1     0     0   503   504  0.000000000E+00  0.000000000E+00  5.369500412E+02  5.369500412E+02  0.000000000E+00  0.00000E+00  9.000E+00
      21    -1     0     0   504   505  0.000000000E+00  0.000000000E+00 -1.178141823E+02  1.178141823E+02  0.000000000E+00  0.00000E+00  9.000E+00
       6     2     1     2   502     0 -4.145029771E+01  5.717754579E+01  9.962552788E+01  2.115184941E+02  1.727061916E+02  0.00000E+00  9.000E+00
      -6     2     1     2     0   505  1.155814100E+02 -7.949311323E+01  1.907038293E+02  2.929642559E+02  1.725742951E+02  0.00000E+00  9.000E+00
      21     1     1     2   503   502 -7.413111229E+01  2.231556743E+01  1.288065018E+02  1.502814734E+02  3.303624740E-06  0.00000E+00  9.000E+00
      24     2     3     3     0     0  1.856496940E+01  3.128972754E+01 -2.926624113E+00  8.981395314E+01  8.206263407E+01  0.00000E+00  9.000E+00
       5     1     3     3   502     0 -6.001526711E+01  2.588781825E+01  1.025521520E+02  1.217045410E+02  4.800000000E+00  0.00000E+00 -1.000E+00
     -24     2     4     4     0     0  4.367993333E+01 -1.441278514E+01  1.697908690E+02  1.936382102E+02  8.093918871E+01  0.00000E+00  9.000E+00
      -5     1     4     4     0   505  7.190147667E+01 -6.508032808E+01  2.091296021E+01  9.932604570E+01  4.800000000E+00  0.00000E+00  1.000E+00
      -3     1     6     6     0   507  7.861185898E+00 -2.601624211E+01  1.185761998E+01  2.965276123E+01  2.000000000E-01  0.00000E+00  1.000E+00
       4     1     6     6   507     0  1.070378350E+01  5.730596964E+01 -1.478424410E+01  6.016119191E+01  1.500000000E+00  0.00000E+00 -1.000E+00
       1     1     8     8   508     0  1.045048588E+01  8.733403929E+00 -4.778227033E+00  1.443351838E+01  1.000000000E-01  0.00000E+00 -1.000E+00
      -2     1     8     8     0   508  3.322944745E+01 -2.314618907E+01  1.745690961E+02  1.792046918E+02  1.000000000E-01  0.00000E+00  1.000E+00
#rwgt            1           1   641.57304083227052                1         175           0
<rwgt>
<wgt id='1001'>0.68707E+03</wgt>
<wgt id='1002'>0.83249E+03</wgt>
<wgt id='1003'>0.53155E+03</wgt>
<wgt id='1004'>0.60614E+03</wgt>
<wgt id='1005'>0.71416E+03</wgt>
<wgt id='1006'>0.49025E+03</wgt>
<wgt id='1007'>0.78214E+03</wgt>
<wgt id='1008'>0.98297E+03</wgt>
<wgt id='1009'>0.56799E+03</wgt>
<wgt id='2000'>0.68707E+03</wgt>
<wgt id='2001'>0.68637E+03</wgt>
<wgt id='2002'>0.68821E+03</wgt>
<wgt id='2003'>0.68816E+03</wgt>
<wgt id='2004'>0.68869E+03</wgt>
<wgt id='2005'>0.68601E+03</wgt>
<wgt id='2006'>0.68515E+03</wgt>
<wgt id='2007'>0.68469E+03</wgt>
<wgt id='2008'>0.68466E+03</wgt>
<wgt id='2009'>0.68824E+03</wgt>
<wgt id='2010'>0.68706E+03</wgt>
<wgt id='2011'>0.68634E+03</wgt>
<wgt id='2012'>0.68792E+03</wgt>
<wgt id='2013'>0.68809E+03</wgt>
<wgt id='2014'>0.68888E+03</wgt>
<wgt id='2015'>0.68810E+03</wgt>
<wgt id='2016'>0.68730E+03</wgt>
<wgt id='2017'>0.68680E+03</wgt>
<wgt id='2018'>0.68828E+03</wgt>
<wgt id='2019'>0.68717E+03</wgt>
<wgt id='2020'>0.68897E+03</wgt>
<wgt id='2021'>0.68617E+03</wgt>
<wgt id='2022'>0.68797E+03</wgt>
<wgt id='2023'>0.68817E+03</wgt>
<wgt id='2024'>0.68630E+03</wgt>
<wgt id='2025'>0.68825E+03</wgt>
<wgt id='2026'>0.68876E+03</wgt>
<wgt id='2027'>0.68622E+03</wgt>
<wgt id='2028'>0.68579E+03</wgt>
<wgt id='2029'>0.68957E+03</wgt>
<wgt id='2030'>0.68720E+03</wgt>
<wgt id='2031'>0.68778E+03</wgt>
<wgt id='2032'>0.68649E+03</wgt>
<wgt id='2033'>0.68720E+03</wgt>
<wgt id='2034'>0.68890E+03</wgt>
<wgt id='2035'>0.68689E+03</wgt>
<wgt id='2036'>0.68719E+03</wgt>
<wgt id='2037'>0.68820E+03</wgt>
<wgt id='2038'>0.68666E+03</wgt>
<wgt id='2039'>0.68544E+03</wgt>
<wgt id='2040'>0.68700E+03</wgt>
<wgt id='2041'>0.68717E+03</wgt>
<wgt id='2042'>0.68689E+03</wgt>
<wgt id='2043'>0.68652E+03</wgt>
<wgt id='2044'>0.68773E+03</wgt>
<wgt id='2045'>0.68662E+03</wgt>
<wgt id='2046'>0.68763E+03</wgt>
<wgt id='2047'>0.68777E+03</wgt>
<wgt id='2048'>0.68643E+03</wgt>
<wgt id='2049'>0.68675E+03</wgt>
<wgt id='2050'>0.68718E+03</wgt>
<wgt id='2051'>0.68817E+03</wgt>
<wgt id='2052'>0.68743E+03</wgt>
<wgt id='2053'>0.68754E+03</wgt>
<wgt id='2054'>0.68728E+03</wgt>
<wgt id='2055'>0.68685E+03</wgt>
<wgt id='2056'>0.68710E+03</wgt>
<wgt id='2057'>0.68775E+03</wgt>
<wgt id='2058'>0.68728E+03</wgt>
<wgt id='2059'>0.68688E+03</wgt>
<wgt id='2060'>0.68713E+03</wgt>
<wgt id='2061'>0.68663E+03</wgt>
<wgt id='2062'>0.68700E+03</wgt>
<wgt id='2063'>0.68726E+03</wgt>
<wgt id='2064'>0.68678E+03</wgt>
<wgt id='2065'>0.68734E+03</wgt>
<wgt id='2066'>0.68686E+03</wgt>
<wgt id='2067'>0.68711E+03</wgt>
<wgt id='2068'>0.68718E+03</wgt>
<wgt id='2069'>0.68710E+03</wgt>
<wgt id='2070'>0.68687E+03</wgt>
<wgt id='2071'>0.68679E+03</wgt>
<wgt id='2072'>0.68711E+03</wgt>
<wgt id='2073'>0.68705E+03</wgt>
<wgt id='2074'>0.68703E+03</wgt>
<wgt id='2075'>0.68704E+03</wgt>
<wgt id='2076'>0.68697E+03</wgt>
<wgt id='2077'>0.68703E+03</wgt>
<wgt id='2078'>0.68711E+03</wgt>
<wgt id='2079'>0.68709E+03</wgt>
<wgt id='2080'>0.68714E+03</wgt>
<wgt id='2081'>0.68717E+03</wgt>
<wgt id='2082'>0.68712E+03</wgt>
<wgt id='2083'>0.68713E+03</wgt>
<wgt id='2084'>0.68718E+03</wgt>
<wgt id='2085'>0.68725E+03</wgt>
<wgt id='2086'>0.68685E+03</wgt>
<wgt id='2087'>0.68695E+03</wgt>
<wgt id='2088'>0.68722E+03</wgt>
<wgt id='2089'>0.68688E+03</wgt>
<wgt id='2090'>0.68699E+03</wgt>
<wgt id='2091'>0.68712E+03</wgt>
<wgt id='2092'>0.68711E+03</wgt>
<wgt id='2093'>0.68700E+03</wgt>
<wgt id='2094'>0.68718E+03</wgt>
<wgt id='2095'>0.68719E+03</wgt>
<wgt id='2096'>0.68699E+03</wgt>
<wgt id='2097'>0.68718E+03</wgt>
<wgt id='2098'>0.68706E+03</wgt>
<wgt id='2099'>0.68699E+03</wgt>
<wgt id='2100'>0.68710E+03</wgt>
<wgt id='2101'>0.66886E+03</wgt>
<wgt id='2102'>0.70383E+03</wgt>
<wgt id='2104'>0.60625E+03</wgt>
<wgt id='2105'>0.62110E+03</wgt>
<wgt id='2106'>0.63851E+03</wgt>
<wgt id='2107'>0.65489E+03</wgt>
<wgt id='2108'>0.67986E+03</wgt>
<wgt id='2109'>0.69631E+03</wgt>
<wgt id='2110'>0.71789E+03</wgt>
<wgt id='2111'>0.73420E+03</wgt>
<wgt id='3000'>0.71576E+03</wgt>
<wgt id='3001'>0.71679E+03</wgt>
<wgt id='3002'>0.71487E+03</wgt>
<wgt id='3003'>0.71664E+03</wgt>
<wgt id='3004'>0.71750E+03</wgt>
<wgt id='3005'>0.71754E+03</wgt>
<wgt id='3006'>0.71567E+03</wgt>
<wgt id='3007'>0.71747E+03</wgt>
<wgt id='3008'>0.71493E+03</wgt>
<wgt id='3009'>0.71723E+03</wgt>
<wgt id='3010'>0.71437E+03</wgt>
<wgt id='3011'>0.71519E+03</wgt>
<wgt id='3012'>0.71762E+03</wgt>
<wgt id='3013'>0.71474E+03</wgt>
<wgt id='3014'>0.71712E+03</wgt>
<wgt id='3015'>0.71578E+03</wgt>
<wgt id='3016'>0.71595E+03</wgt>
<wgt id='3017'>0.71701E+03</wgt>
<wgt id='3018'>0.71705E+03</wgt>
<wgt id='3019'>0.71468E+03</wgt>
<wgt id='3020'>0.71498E+03</wgt>
<wgt id='3021'>0.71441E+03</wgt>
<wgt id='3022'>0.71572E+03</wgt>
<wgt id='3023'>0.71490E+03</wgt>
<wgt id='3024'>0.71466E+03</wgt>
<wgt id='3025'>0.71634E+03</wgt>
<wgt id='3026'>0.71633E+03</wgt>
<wgt id='3027'>0.71595E+03</wgt>
<wgt id='3028'>0.71388E+03</wgt>
<wgt id='3029'>0.71423E+03</wgt>
<wgt id='3030'>0.71851E+03</wgt>
<wgt id='3031'>0.71710E+03</wgt>
<wgt id='3032'>0.71653E+03</wgt>
<wgt id='3033'>0.71750E+03</wgt>
<wgt id='3034'>0.71606E+03</wgt>
<wgt id='3035'>0.71841E+03</wgt>
<wgt id='3036'>0.71638E+03</wgt>
<wgt id='3037'>0.71539E+03</wgt>
<wgt id='3038'>0.71587E+03</wgt>
<wgt id='3039'>0.71532E+03</wgt>
<wgt id='3040'>0.71507E+03</wgt>
<wgt id='3041'>0.71639E+03</wgt>
<wgt id='3042'>0.71523E+03</wgt>
<wgt id='3043'>0.71512E+03</wgt>
<wgt id='3044'>0.71575E+03</wgt>
<wgt id='3045'>0.71621E+03</wgt>
<wgt id='3046'>0.71653E+03</wgt>
<wgt id='3047'>0.71594E+03</wgt>
<wgt id='3048'>0.71582E+03</wgt>
<wgt id='3049'>0.71572E+03</wgt>
<wgt id='3050'>0.71540E+03</wgt>
<wgt id='3051'>0.71630E+03</wgt>
<wgt id='3052'>0.71520E+03</wgt>
<wgt id='3053'>0.71553E+03</wgt>
<wgt id='3054'>0.71588E+03</wgt>
<wgt id='3055'>0.71453E+03</wgt>
<wgt id='3056'>0.71583E+03</wgt>
<wgt id='3057'>0.71559E+03</wgt>
<wgt id='3058'>0.71521E+03</wgt>
<wgt id='3059'>0.71578E+03</wgt>
<wgt id='3060'>0.71601E+03</wgt>
<wgt id='3061'>0.71572E+03</wgt>
<wgt id='3062'>0.71601E+03</wgt>
<wgt id='3063'>0.71618E+03</wgt>
<wgt id='3064'>0.71547E+03</wgt>
<wgt id='3065'>0.71565E+03</wgt>
<wgt id='3066'>0.71591E+03</wgt>
<wgt id='3067'>0.71537E+03</wgt>
<wgt id='3068'>0.71601E+03</wgt>
<wgt id='3069'>0.71574E+03</wgt>
<wgt id='3070'>0.71607E+03</wgt>
<wgt id='3071'>0.71560E+03</wgt>
<wgt id='3072'>0.71563E+03</wgt>
<wgt id='3073'>0.71533E+03</wgt>
<wgt id='3074'>0.71606E+03</wgt>
<wgt id='3075'>0.71560E+03</wgt>
<wgt id='3076'>0.71572E+03</wgt>
<wgt id='3077'>0.71596E+03</wgt>
<wgt id='3078'>0.71581E+03</wgt>
<wgt id='3079'>0.71575E+03</wgt>
<wgt id='3080'>0.71570E+03</wgt>
<wgt id='3081'>0.71580E+03</wgt>
<wgt id='3082'>0.71567E+03</wgt>
<wgt id='3083'>0.71581E+03</wgt>
<wgt id='3084'>0.71574E+03</wgt>
<wgt id='3085'>0.71582E+03</wgt>
<wgt id='3086'>0.71559E+03</wgt>
<wgt id='3087'>0.71566E+03</wgt>
<wgt id='3088'>0.71577E+03</wgt>
<wgt id='3089'>0.71575E+03</wgt>
<wgt id='3090'>0.71583E+03</wgt>
<wgt id='3091'>0.71579E+03</wgt>
<wgt id='3092'>0.71577E+03</wgt>
<wgt id='3093'>0.71581E+03</wgt>
<wgt id='3094'>0.71591E+03</wgt>
<wgt id='3095'>0.71575E+03</wgt>
<wgt id='3096'>0.71569E+03</wgt>
<wgt id='3097'>0.71564E+03</wgt>
<wgt id='3098'>0.71571E+03</wgt>
<wgt id='3099'>0.71582E+03</wgt>
<wgt id='3100'>0.71579E+03</wgt>
<wgt id='3101'>0.69763E+03</wgt>
<wgt id='3102'>0.73341E+03</wgt>
<wgt id='5000'>0.67481E+03</wgt>
<wgt id='5001'>0.67489E+03</wgt>
<wgt id='5002'>0.67584E+03</wgt>
<wgt id='5003'>0.67356E+03</wgt>
<wgt id='5004'>0.67320E+03</wgt>
<wgt id='5005'>0.66158E+03</wgt>
<wgt id='5006'>0.66631E+03</wgt>
<wgt id='5007'>0.67043E+03</wgt>
<wgt id='5008'>0.67375E+03</wgt>
<wgt id='5009'>0.67496E+03</wgt>
<wgt id='5010'>0.67281E+03</wgt>
<wgt id='5011'>0.67599E+03</wgt>
<wgt id='5012'>0.67444E+03</wgt>
<wgt id='5013'>0.67497E+03</wgt>
<wgt id='5014'>0.68230E+03</wgt>
<wgt id='5015'>0.67662E+03</wgt>
<wgt id='5016'>0.66940E+03</wgt>
<wgt id='5017'>0.66664E+03</wgt>
<wgt id='5018'>0.68336E+03</wgt>
<wgt id='5019'>0.68152E+03</wgt>
<wgt id='5020'>0.66831E+03</wgt>
<wgt id='5021'>0.67466E+03</wgt>
<wgt id='5022'>0.67487E+03</wgt>
<wgt id='5023'>0.67204E+03</wgt>
<wgt id='5024'>0.67775E+03</wgt>
<wgt id='5025'>0.67751E+03</wgt>
<wgt id='5026'>0.67256E+03</wgt>
<wgt id='5027'>0.67883E+03</wgt>
<wgt id='5028'>0.66799E+03</wgt>
<wgt id='5029'>0.66792E+03</wgt>
<wgt id='5030'>0.67901E+03</wgt>
<wgt id='5031'>0.66965E+03</wgt>
<wgt id='5032'>0.68238E+03</wgt>
<wgt id='5033'>0.67309E+03</wgt>
<wgt id='5034'>0.67621E+03</wgt>
<wgt id='5035'>0.67684E+03</wgt>
<wgt id='5036'>0.67241E+03</wgt>
<wgt id='5037'>0.66120E+03</wgt>
<wgt id='5038'>0.68990E+03</wgt>
<wgt id='5039'>0.69039E+03</wgt>
<wgt id='5040'>0.66638E+03</wgt>
<wgt id='5041'>0.67358E+03</wgt>
<wgt id='5042'>0.67430E+03</wgt>
<wgt id='5043'>0.67935E+03</wgt>
<wgt id='5044'>0.66828E+03</wgt>
<wgt id='5045'>0.68961E+03</wgt>
<wgt id='5046'>0.65779E+03</wgt>
<wgt id='5047'>0.68062E+03</wgt>
<wgt id='5048'>0.66882E+03</wgt>
<wgt id='5049'>0.67577E+03</wgt>
<wgt id='5050'>0.67388E+03</wgt>
<wgt id='5051'>0.67501E+03</wgt>
<wgt id='5052'>0.67451E+03</wgt>
<wgt id='5053'>0.66343E+03</wgt>
<wgt id='5054'>0.67391E+03</wgt>
<wgt id='5055'>0.66915E+03</wgt>
<wgt id='5056'>0.68542E+03</wgt>
<wgt id='5060'>0.65647E+03</wgt>
<wgt id='5070'>0.69257E+03</wgt>
<wgt id='4000'>0.68891E+03</wgt>
<wgt id='4001'>0.68856E+03</wgt>
<wgt id='4002'>0.68970E+03</wgt>
<wgt id='4003'>0.68772E+03</wgt>
<wgt id='4004'>0.67999E+03</wgt>
<wgt id='4005'>0.68772E+03</wgt>
<wgt id='4006'>0.69017E+03</wgt>
<wgt id='4007'>0.69483E+03</wgt>
<wgt id='4008'>0.68039E+03</wgt>
<wgt id='4009'>0.68489E+03</wgt>
<wgt id='4010'>0.68956E+03</wgt>
<wgt id='4011'>0.70333E+03</wgt>
<wgt id='4012'>0.67874E+03</wgt>
<wgt id='4013'>0.67959E+03</wgt>
<wgt id='4014'>0.69503E+03</wgt>
<wgt id='4015'>0.70234E+03</wgt>
<wgt id='4016'>0.67969E+03</wgt>
<wgt id='4017'>0.67718E+03</wgt>
<wgt id='4018'>0.70279E+03</wgt>
<wgt id='4019'>0.69702E+03</wgt>
<wgt id='4020'>0.68030E+03</wgt>
<wgt id='4021'>0.69153E+03</wgt>
<wgt id='4022'>0.68372E+03</wgt>
<wgt id='4023'>0.68641E+03</wgt>
<wgt id='4024'>0.69137E+03</wgt>
<wgt id='4025'>0.69618E+03</wgt>
<wgt id='4026'>0.68161E+03</wgt>
<wgt id='4027'>0.68909E+03</wgt>
<wgt id='4028'>0.68872E+03</wgt>
<wgt id='4029'>0.68680E+03</wgt>
<wgt id='4030'>0.68968E+03</wgt>
<wgt id='4031'>0.69135E+03</wgt>
<wgt id='4032'>0.68575E+03</wgt>
<wgt id='4033'>0.68454E+03</wgt>
<wgt id='4034'>0.69847E+03</wgt>
<wgt id='4035'>0.68549E+03</wgt>
<wgt id='4036'>0.69240E+03</wgt>
<wgt id='4037'>0.69063E+03</wgt>
<wgt id='4038'>0.68636E+03</wgt>
<wgt id='4039'>0.68918E+03</wgt>
<wgt id='4040'>0.68941E+03</wgt>
<wgt id='4041'>0.68938E+03</wgt>
<wgt id='4042'>0.68899E+03</wgt>
<wgt id='4043'>0.69089E+03</wgt>
<wgt id='4044'>0.69194E+03</wgt>
<wgt id='4045'>0.68321E+03</wgt>
<wgt id='4046'>0.69065E+03</wgt>
<wgt id='4047'>0.68505E+03</wgt>
<wgt id='4048'>0.68053E+03</wgt>
<wgt id='4049'>0.67928E+03</wgt>
<wgt id='4050'>0.68258E+03</wgt>
<wgt id='4051'>0.68981E+03</wgt>
<wgt id='4052'>0.68926E+03</wgt>
<wgt id='4053'>0.66950E+03</wgt>
<wgt id='4054'>0.69766E+03</wgt>
<wgt id='4055'>0.68260E+03</wgt>
<wgt id='4056'>0.69921E+03</wgt>
<wgt id='4060'>0.67046E+03</wgt>
<wgt id='4070'>0.70733E+03</wgt>
<wgt id='4080'>0.63200E+03</wgt>
<wgt id='6000'>0.70479E+03</wgt>
<wgt id='6001'>0.70510E+03</wgt>
<wgt id='6002'>0.70440E+03</wgt>
<wgt id='6003'>0.70548E+03</wgt>
<wgt id='6004'>0.70431E+03</wgt>
<wgt id='6005'>0.70850E+03</wgt>
<wgt id='6006'>0.70132E+03</wgt>
<wgt id='6007'>0.70186E+03</wgt>
<wgt id='6008'>0.70808E+03</wgt>
<wgt id='6009'>0.70584E+03</wgt>
<wgt id='6010'>0.70372E+03</wgt>
<wgt id='6011'>0.70568E+03</wgt>
<wgt id='6012'>0.70285E+03</wgt>
<wgt id='6013'>0.70442E+03</wgt>
<wgt id='6014'>0.70542E+03</wgt>
<wgt id='6015'>0.70337E+03</wgt>
<wgt id='6016'>0.70559E+03</wgt>
<wgt id='6017'>0.70169E+03</wgt>
<wgt id='6018'>0.70843E+03</wgt>
<wgt id='6019'>0.70546E+03</wgt>
<wgt id='6020'>0.70421E+03</wgt>
<wgt id='6021'>0.70328E+03</wgt>
<wgt id='6022'>0.70673E+03</wgt>
<wgt id='6023'>0.70042E+03</wgt>
<wgt id='6024'>0.70772E+03</wgt>
<wgt id='6025'>0.70208E+03</wgt>
<wgt id='6026'>0.70742E+03</wgt>
<wgt id='6027'>0.70560E+03</wgt>
<wgt id='6028'>0.70457E+03</wgt>
<wgt id='6029'>0.70467E+03</wgt>
<wgt id='6030'>0.70499E+03</wgt>
<wgt id='6031'>0.69967E+03</wgt>
<wgt id='6032'>0.71043E+03</wgt>
<wgt id='6033'>0.70756E+03</wgt>
<wgt id='6034'>0.70205E+03</wgt>
<wgt id='6035'>0.70542E+03</wgt>
<wgt id='6036'>0.70345E+03</wgt>
<wgt id='6037'>0.70561E+03</wgt>
<wgt id='6038'>0.70454E+03</wgt>
<wgt id='6039'>0.70337E+03</wgt>
<wgt id='6040'>0.70635E+03</wgt>
<wgt id='6041'>0.70022E+03</wgt>
<wgt id='6042'>0.70993E+03</wgt>
<wgt id='6043'>0.71156E+03</wgt>
<wgt id='6044'>0.70109E+03</wgt>
<wgt id='6045'>0.70398E+03</wgt>
<wgt id='6046'>0.70676E+03</wgt>
<wgt id='6047'>0.71099E+03</wgt>
<wgt id='6048'>0.69362E+03</wgt>
<wgt id='6049'>0.70763E+03</wgt>
<wgt id='6050'>0.70310E+03</wgt>
<wgt id='7000'>0.67309E+03</wgt>
<wgt id='7001'>0.67280E+03</wgt>
<wgt id='7002'>0.67353E+03</wgt>
<wgt id='7003'>0.67538E+03</wgt>
<wgt id='7004'>0.67088E+03</wgt>
<wgt id='7005'>0.67507E+03</wgt>
<wgt id='7006'>0.67231E+03</wgt>
<wgt id='7007'>0.67194E+03</wgt>
<wgt id='7008'>0.67428E+03</wgt>
<wgt id='7009'>0.67379E+03</wgt>
<wgt id='7010'>0.67246E+03</wgt>
<wgt id='7011'>0.67003E+03</wgt>
<wgt id='7012'>0.67443E+03</wgt>
<wgt id='7013'>0.67309E+03</wgt>
<wgt id='7014'>0.67316E+03</wgt>
<wgt id='7015'>0.67244E+03</wgt>
<wgt id='7016'>0.67378E+03</wgt>
<wgt id='7017'>0.67357E+03</wgt>
<wgt id='7018'>0.67279E+03</wgt>
<wgt id='7019'>0.67296E+03</wgt>
<wgt id='7020'>0.67331E+03</wgt>
<wgt id='7021'>0.67203E+03</wgt>
<wgt id='7022'>0.67384E+03</wgt>
<wgt id='7023'>0.68035E+03</wgt>
<wgt id='7024'>0.66628E+03</wgt>
<wgt id='7025'>0.67552E+03</wgt>
<wgt id='7026'>0.66710E+03</wgt>
<wgt id='7027'>0.67430E+03</wgt>
<wgt id='7028'>0.67185E+03</wgt>
<wgt id='7029'>0.67330E+03</wgt>
<wgt id='7030'>0.67305E+03</wgt>
<wgt id='7031'>0.67085E+03</wgt>
<wgt id='7032'>0.67776E+03</wgt>
<wgt id='7033'>0.67338E+03</wgt>
<wgt id='7034'>0.67247E+03</wgt>
<wgt id='7035'>0.67073E+03</wgt>
<wgt id='7036'>0.67414E+03</wgt>
<wgt id='7037'>0.67305E+03</wgt>
<wgt id='7038'>0.67303E+03</wgt>
<wgt id='7039'>0.67123E+03</wgt>
<wgt id='7040'>0.67451E+03</wgt>
<wgt id='7041'>0.67318E+03</wgt>
<wgt id='7042'>0.67227E+03</wgt>
<wgt id='7043'>0.67376E+03</wgt>
<wgt id='7044'>0.66933E+03</wgt>
<wgt id='7045'>0.66386E+03</wgt>
<wgt id='7046'>0.67840E+03</wgt>
<wgt id='7047'>0.67628E+03</wgt>
<wgt id='7048'>0.67153E+03</wgt>
<wgt id='7049'>0.66933E+03</wgt>
<wgt id='7050'>0.67449E+03</wgt>
<wgt id='7060'>0.86208E+03</wgt>
<wgt id='8000'>0.67280E+03</wgt>
<wgt id='8001'>0.67270E+03</wgt>
<wgt id='8002'>0.67301E+03</wgt>
<wgt id='8003'>0.67283E+03</wgt>
<wgt id='8004'>0.67278E+03</wgt>
<wgt id='8005'>0.67142E+03</wgt>
<wgt id='8006'>0.67328E+03</wgt>
<wgt id='8007'>0.67371E+03</wgt>
<wgt id='8008'>0.67431E+03</wgt>
<wgt id='8009'>0.67568E+03</wgt>
<wgt id='8010'>0.67219E+03</wgt>
<wgt id='8011'>0.67282E+03</wgt>
<wgt id='8012'>0.67056E+03</wgt>
<wgt id='8013'>0.67169E+03</wgt>
<wgt id='8014'>0.67405E+03</wgt>
<wgt id='8015'>0.67239E+03</wgt>
<wgt id='8016'>0.67335E+03</wgt>
<wgt id='8017'>0.67316E+03</wgt>
<wgt id='8018'>0.67410E+03</wgt>
<wgt id='8019'>0.67359E+03</wgt>
<wgt id='8020'>0.67178E+03</wgt>
<wgt id='8021'>0.67242E+03</wgt>
<wgt id='8022'>0.67090E+03</wgt>
<wgt id='8023'>0.67254E+03</wgt>
<wgt id='8024'>0.67170E+03</wgt>
<wgt id='8025'>0.67334E+03</wgt>
<wgt id='8026'>0.67390E+03</wgt>
<wgt id='8027'>0.67281E+03</wgt>
<wgt id='8028'>0.67334E+03</wgt>
<wgt id='8029'>0.67042E+03</wgt>
<wgt id='8500'>0.70675E+03</wgt>
<wgt id='8501'>0.70333E+03</wgt>
<wgt id='8502'>0.71345E+03</wgt>
<wgt id='8503'>0.70995E+03</wgt>
<wgt id='8504'>0.70381E+03</wgt>
<wgt id='8505'>0.70428E+03</wgt>
<wgt id='8506'>0.71010E+03</wgt>
<wgt id='8507'>0.70115E+03</wgt>
<wgt id='8508'>0.70041E+03</wgt>
<wgt id='8509'>0.70925E+03</wgt>
<wgt id='8510'>0.71705E+03</wgt>
<wgt id='8511'>0.70621E+03</wgt>
<wgt id='8512'>0.70240E+03</wgt>
<wgt id='8513'>0.70755E+03</wgt>
<wgt id='8514'>0.69749E+03</wgt>
<wgt id='8515'>0.71040E+03</wgt>
<wgt id='8516'>0.70625E+03</wgt>
<wgt id='8517'>0.70415E+03</wgt>
<wgt id='8518'>0.70319E+03</wgt>
<wgt id='8519'>0.70274E+03</wgt>
<wgt id='8520'>0.70502E+03</wgt>
<wgt id='8521'>0.70424E+03</wgt>
<wgt id='8522'>0.70890E+03</wgt>
<wgt id='8523'>0.70440E+03</wgt>
<wgt id='8524'>0.70737E+03</wgt>
<wgt id='8525'>0.70704E+03</wgt>
<wgt id='8526'>0.70557E+03</wgt>
<wgt id='8527'>0.70611E+03</wgt>
<wgt id='8528'>0.70573E+03</wgt>
<wgt id='8529'>0.70606E+03</wgt>
<wgt id='8530'>0.70767E+03</wgt>
<wgt id='8531'>0.70651E+03</wgt>
<wgt id='8532'>0.70679E+03</wgt>
<wgt id='8533'>0.70512E+03</wgt>
<wgt id='8534'>0.70692E+03</wgt>
<wgt id='8535'>0.70840E+03</wgt>
<wgt id='8536'>0.70643E+03</wgt>
<wgt id='8537'>0.70683E+03</wgt>
<wgt id='8538'>0.70649E+03</wgt>
<wgt id='8539'>0.70708E+03</wgt>
<wgt id='8540'>0.70720E+03</wgt>
<wgt id='8541'>0.70730E+03</wgt>
<wgt id='8542'>0.70719E+03</wgt>
<wgt id='8543'>0.70598E+03</wgt>
<wgt id='8544'>0.70767E+03</wgt>
<wgt id='8545'>0.70718E+03</wgt>
<wgt id='8546'>0.70751E+03</wgt>
<wgt id='8547'>0.70607E+03</wgt>
<wgt id='8548'>0.70637E+03</wgt>
<wgt id='8549'>0.70690E+03</wgt>
<wgt id='8550'>0.70641E+03</wgt>
<wgt id='8551'>0.70631E+03</wgt>
<wgt id='8552'>0.70640E+03</wgt>
<wgt id='8553'>0.70598E+03</wgt>
<wgt id='8554'>0.70635E+03</wgt>
<wgt id='8555'>0.70681E+03</wgt>
<wgt id='8556'>0.70653E+03</wgt>
<wgt id='8557'>0.70686E+03</wgt>
<wgt id='8558'>0.70760E+03</wgt>
<wgt id='8559'>0.70653E+03</wgt>
<wgt id='8560'>0.70586E+03</wgt>
<wgt id='8561'>0.70701E+03</wgt>
<wgt id='8562'>0.70633E+03</wgt>
<wgt id='8563'>0.70676E+03</wgt>
<wgt id='8564'>0.70651E+03</wgt>
<wgt id='8565'>0.70692E+03</wgt>
<wgt id='8566'>0.70694E+03</wgt>
<wgt id='8567'>0.70671E+03</wgt>
<wgt id='8568'>0.70720E+03</wgt>
<wgt id='8569'>0.70705E+03</wgt>
<wgt id='8570'>0.70656E+03</wgt>
<wgt id='8571'>0.70623E+03</wgt>
<wgt id='8572'>0.70637E+03</wgt>
<wgt id='8573'>0.70647E+03</wgt>
<wgt id='8574'>0.70653E+03</wgt>
<wgt id='8575'>0.70661E+03</wgt>
<wgt id='8576'>0.70675E+03</wgt>
<wgt id='8577'>0.70646E+03</wgt>
<wgt id='8578'>0.70666E+03</wgt>
<wgt id='8579'>0.70724E+03</wgt>
<wgt id='8580'>0.70669E+03</wgt>
<wgt id='8581'>0.70707E+03</wgt>
<wgt id='8582'>0.70634E+03</wgt>
<wgt id='8583'>0.70697E+03</wgt>
<wgt id='8584'>0.70713E+03</wgt>
<wgt id='8585'>0.70695E+03</wgt>
<wgt id='8586'>0.70735E+03</wgt>
<wgt id='8587'>0.70681E+03</wgt>
<wgt id='8588'>0.70671E+03</wgt>
<wgt id='8589'>0.70673E+03</wgt>
<wgt id='8590'>0.70677E+03</wgt>
<wgt id='8591'>0.70648E+03</wgt>
<wgt id='8592'>0.70669E+03</wgt>
<wgt id='8593'>0.70655E+03</wgt>
<wgt id='8594'>0.70670E+03</wgt>
<wgt id='8595'>0.70673E+03</wgt>
<wgt id='8596'>0.70666E+03</wgt>
<wgt id='8597'>0.70687E+03</wgt>
<wgt id='8598'>0.70690E+03</wgt>
<wgt id='8599'>0.70680E+03</wgt>
<wgt id='8600'>0.70676E+03</wgt>
<wgt id='8601'>0.69572E+03</wgt>
<wgt id='8602'>0.71699E+03</wgt>
<wgt id='9000'>0.67875E+03</wgt>
<wgt id='9001'>0.67880E+03</wgt>
<wgt id='9002'>0.68159E+03</wgt>
<wgt id='9003'>0.67400E+03</wgt>
<wgt id='9004'>0.67888E+03</wgt>
<wgt id='9005'>0.68301E+03</wgt>
<wgt id='9006'>0.67712E+03</wgt>
<wgt id='9007'>0.67477E+03</wgt>
<wgt id='9008'>0.67779E+03</wgt>
<wgt id='9009'>0.67888E+03</wgt>
<wgt id='9010'>0.67513E+03</wgt>
<wgt id='9011'>0.68536E+03</wgt>
<wgt id='9012'>0.67985E+03</wgt>
<wgt id='9013'>0.67259E+03</wgt>
<wgt id='9014'>0.67695E+03</wgt>
<wgt id='9015'>0.67744E+03</wgt>
<wgt id='9016'>0.68553E+03</wgt>
<wgt id='9017'>0.67515E+03</wgt>
<wgt id='9018'>0.67881E+03</wgt>
<wgt id='9019'>0.67951E+03</wgt>
<wgt id='9020'>0.68330E+03</wgt>
<wgt id='9021'>0.67837E+03</wgt>
<wgt id='9022'>0.68027E+03</wgt>
<wgt id='9023'>0.67500E+03</wgt>
<wgt id='9024'>0.67704E+03</wgt>
<wgt id='9025'>0.68024E+03</wgt>
<wgt id='9026'>0.67898E+03</wgt>
<wgt id='9027'>0.67834E+03</wgt>
<wgt id='9028'>0.67928E+03</wgt>
<wgt id='9029'>0.67938E+03</wgt>
<wgt id='9030'>0.67969E+03</wgt>
<wgt id='9031'>0.67802E+03</wgt>
<wgt id='9032'>0.67906E+03</wgt>
<wgt id='9033'>0.67949E+03</wgt>
<wgt id='9034'>0.67890E+03</wgt>
<wgt id='9035'>0.67956E+03</wgt>
<wgt id='9036'>0.67892E+03</wgt>
<wgt id='9037'>0.67930E+03</wgt>
<wgt id='9038'>0.67910E+03</wgt>
<wgt id='9039'>0.67877E+03</wgt>
<wgt id='9040'>0.67821E+03</wgt>
<wgt id='9041'>0.67876E+03</wgt>
<wgt id='9042'>0.67887E+03</wgt>
<wgt id='9043'>0.67790E+03</wgt>
<wgt id='9044'>0.67893E+03</wgt>
<wgt id='9045'>0.67891E+03</wgt>
<wgt id='9046'>0.67781E+03</wgt>
<wgt id='9047'>0.67885E+03</wgt>
<wgt id='9048'>0.67908E+03</wgt>
<wgt id='9049'>0.67840E+03</wgt>
<wgt id='9050'>0.67881E+03</wgt>
<wgt id='9051'>0.67916E+03</wgt>
<wgt id='9052'>0.67917E+03</wgt>
<wgt id='9053'>0.67874E+03</wgt>
<wgt id='9054'>0.67840E+03</wgt>
<wgt id='9055'>0.67843E+03</wgt>
<wgt id='9056'>0.67934E+03</wgt>
<wgt id='9057'>0.67882E+03</wgt>
<wgt id='9058'>0.67798E+03</wgt>
<wgt id='9059'>0.67835E+03</wgt>
<wgt id='9060'>0.67845E+03</wgt>
<wgt id='9061'>0.67881E+03</wgt>
<wgt id='9062'>0.67889E+03</wgt>
<wgt id='9063'>0.67900E+03</wgt>
<wgt id='9064'>0.67871E+03</wgt>
<wgt id='9065'>0.67863E+03</wgt>
<wgt id='9066'>0.67875E+03</wgt>
<wgt id='9067'>0.67900E+03</wgt>
<wgt id='9068'>0.67891E+03</wgt>
<wgt id='9069'>0.67929E+03</wgt>
<wgt id='9070'>0.67861E+03</wgt>
<wgt id='9071'>0.67921E+03</wgt>
<wgt id='9072'>0.67925E+03</wgt>
<wgt id='9073'>0.67860E+03</wgt>
<wgt id='9074'>0.67886E+03</wgt>
<wgt id='9075'>0.67871E+03</wgt>
<wgt id='9076'>0.67866E+03</wgt>
<wgt id='9077'>0.67892E+03</wgt>
<wgt id='9078'>0.67876E+03</wgt>
<wgt id='9079'>0.67866E+03</wgt>
<wgt id='9080'>0.67943E+03</wgt>
<wgt id='9081'>0.67871E+03</wgt>
<wgt id='9082'>0.67896E+03</wgt>
<wgt id='9083'>0.67853E+03</wgt>
<wgt id='9084'>0.67847E+03</wgt>
<wgt id='9085'>0.67842E+03</wgt>
<wgt id='9086'>0.67889E+03</wgt>
<wgt id='9087'>0.67813E+03</wgt>
<wgt id='9088'>0.67851E+03</wgt>
<wgt id='9089'>0.67852E+03</wgt>
<wgt id='9090'>0.67887E+03</wgt>
<wgt id='9091'>0.67862E+03</wgt>
<wgt id='9092'>0.67870E+03</wgt>
<wgt id='9093'>0.67859E+03</wgt>
<wgt id='9094'>0.67864E+03</wgt>
<wgt id='9095'>0.67882E+03</wgt>
<wgt id='9096'>0.67861E+03</wgt>
<wgt id='9097'>0.67882E+03</wgt>
<wgt id='9098'>0.67871E+03</wgt>
<wgt id='9099'>0.67857E+03</wgt>
<wgt id='9100'>0.67876E+03</wgt>
<wgt id='9101'>0.66917E+03</wgt>
<wgt id='9102'>0.68807E+03</wgt>
<wgt id='10000'>0.70688E+03</wgt>
<wgt id='10001'>0.71129E+03</wgt>
<wgt id='10002'>0.70078E+03</wgt>
<wgt id='10003'>0.70663E+03</wgt>
<wgt id='10004'>0.69604E+03</wgt>
<wgt id='10005'>0.71725E+03</wgt>
<wgt id='10006'>0.70367E+03</wgt>
<wgt id='10007'>0.70669E+03</wgt>
<wgt id='10008'>0.70959E+03</wgt>
<wgt id='10009'>0.70369E+03</wgt>
<wgt id='10010'>0.70911E+03</wgt>
<wgt id='10011'>0.70304E+03</wgt>
<wgt id='10012'>0.70685E+03</wgt>
<wgt id='10013'>0.70784E+03</wgt>
<wgt id='10014'>0.70576E+03</wgt>
<wgt id='10015'>0.70664E+03</wgt>
<wgt id='10016'>0.70401E+03</wgt>
<wgt id='10017'>0.71175E+03</wgt>
<wgt id='10018'>0.70823E+03</wgt>
<wgt id='10019'>0.70485E+03</wgt>
<wgt id='10020'>0.70520E+03</wgt>
<wgt id='10021'>0.70629E+03</wgt>
<wgt id='10022'>0.70647E+03</wgt>
<wgt id='10023'>0.70750E+03</wgt>
<wgt id='10024'>0.70597E+03</wgt>
<wgt id='10025'>0.70619E+03</wgt>
<wgt id='10026'>0.70964E+03</wgt>
<wgt id='10027'>0.70859E+03</wgt>
<wgt id='10028'>0.71535E+03</wgt>
<wgt id='10029'>0.70732E+03</wgt>
<wgt id='10030'>0.70643E+03</wgt>
<wgt id='10031'>0.69572E+03</wgt>
<wgt id='10032'>0.71699E+03</wgt>
<wgt id='11000'>0.67888E+03</wgt>
<wgt id='11001'>0.66866E+03</wgt>
<wgt id='11002'>0.68134E+03</wgt>
<wgt id='11003'>0.67848E+03</wgt>
<wgt id='11004'>0.68180E+03</wgt>
<wgt id='11005'>0.67514E+03</wgt>
<wgt id='11006'>0.67914E+03</wgt>
<wgt id='11007'>0.67762E+03</wgt>
<wgt id='11008'>0.67843E+03</wgt>
<wgt id='11009'>0.67651E+03</wgt>
<wgt id='11010'>0.67538E+03</wgt>
<wgt id='11011'>0.67649E+03</wgt>
<wgt id='11012'>0.67915E+03</wgt>
<wgt id='11013'>0.68047E+03</wgt>
<wgt id='11014'>0.67739E+03</wgt>
<wgt id='11015'>0.67816E+03</wgt>
<wgt id='11016'>0.67857E+03</wgt>
<wgt id='11017'>0.68286E+03</wgt>
<wgt id='11018'>0.67856E+03</wgt>
<wgt id='11019'>0.67848E+03</wgt>
<wgt id='11020'>0.68064E+03</wgt>
<wgt id='11021'>0.68027E+03</wgt>
<wgt id='11022'>0.68832E+03</wgt>
<wgt id='11023'>0.67907E+03</wgt>
<wgt id='11024'>0.67936E+03</wgt>
<wgt id='11025'>0.67857E+03</wgt>
<wgt id='11026'>0.67885E+03</wgt>
<wgt id='11027'>0.67903E+03</wgt>
<wgt id='11028'>0.67930E+03</wgt>
<wgt id='11029'>0.67878E+03</wgt>
<wgt id='11030'>0.67884E+03</wgt>
<wgt id='11031'>0.66917E+03</wgt>
<wgt id='11032'>0.68807E+03</wgt>
<wgt id='12000'>0.69493E+03</wgt>
<wgt id='12001'>0.69392E+03</wgt>
<wgt id='12002'>0.69593E+03</wgt>
<wgt id='12003'>0.69570E+03</wgt>
<wgt id='12004'>0.69415E+03</wgt>
<wgt id='12005'>0.69608E+03</wgt>
<wgt id='12006'>0.69378E+03</wgt>
<wgt id='12007'>0.69844E+03</wgt>
<wgt id='12008'>0.69150E+03</wgt>
<wgt id='12009'>0.69460E+03</wgt>
<wgt id='12010'>0.69528E+03</wgt>
<wgt id='12011'>0.69106E+03</wgt>
<wgt id='12012'>0.69925E+03</wgt>
<wgt id='12013'>0.69243E+03</wgt>
<wgt id='12014'>0.69746E+03</wgt>
<wgt id='12015'>0.69585E+03</wgt>
<wgt id='12016'>0.69268E+03</wgt>
<wgt id='12017'>0.69815E+03</wgt>
<wgt id='12018'>0.69270E+03</wgt>
<wgt id='12019'>0.69424E+03</wgt>
<wgt id='12020'>0.69509E+03</wgt>
<wgt id='12021'>0.69661E+03</wgt>
<wgt id='12022'>0.69302E+03</wgt>
<wgt id='12023'>0.68982E+03</wgt>
<wgt id='12024'>0.69812E+03</wgt>
<wgt id='12025'>0.69392E+03</wgt>
<wgt id='12026'>0.69645E+03</wgt>
<wgt id='12027'>0.70109E+03</wgt>
<wgt id='12028'>0.68945E+03</wgt>
<wgt id='12050'>0.69493E+03</wgt>
<wgt id='12051'>0.69420E+03</wgt>
<wgt id='12052'>0.68911E+03</wgt>
<wgt id='12053'>0.69423E+03</wgt>
<wgt id='12054'>0.69015E+03</wgt>
<wgt id='12055'>0.69307E+03</wgt>
<wgt id='12056'>0.69278E+03</wgt>
<wgt id='12057'>0.69100E+03</wgt>
<wgt id='12058'>0.69378E+03</wgt>
<wgt id='12059'>0.69485E+03</wgt>
<wgt id='12060'>0.68995E+03</wgt>
<wgt id='12061'>0.69026E+03</wgt>
<wgt id='12062'>0.69095E+03</wgt>
<wgt id='12063'>0.68794E+03</wgt>
<wgt id='13000'>0.67088E+03</wgt>
<wgt id='13001'>0.66671E+03</wgt>
<wgt id='13002'>0.66812E+03</wgt>
<wgt id='13003'>0.66743E+03</wgt>
<wgt id='13004'>0.66740E+03</wgt>
<wgt id='13005'>0.66849E+03</wgt>
<wgt id='13006'>0.66635E+03</wgt>
<wgt id='13007'>0.67156E+03</wgt>
<wgt id='13008'>0.66338E+03</wgt>
<wgt id='13009'>0.66515E+03</wgt>
<wgt id='13010'>0.66977E+03</wgt>
<wgt id='13011'>0.66967E+03</wgt>
<wgt id='13012'>0.66519E+03</wgt>
<wgt id='13013'>0.66612E+03</wgt>
<wgt id='13014'>0.66866E+03</wgt>
<wgt id='13015'>0.66653E+03</wgt>
<wgt id='13016'>0.66658E+03</wgt>
<wgt id='13017'>0.66758E+03</wgt>
<wgt id='13018'>0.66725E+03</wgt>
<wgt id='13019'>0.66618E+03</wgt>
<wgt id='13020'>0.66871E+03</wgt>
<wgt id='13021'>0.66683E+03</wgt>
<wgt id='13022'>0.66769E+03</wgt>
<wgt id='13023'>0.66530E+03</wgt>
<wgt id='13024'>0.66959E+03</wgt>
<wgt id='13025'>0.66062E+03</wgt>
<wgt id='13026'>0.67334E+03</wgt>
<wgt id='13027'>0.66492E+03</wgt>
<wgt id='13028'>0.67043E+03</wgt>
<wgt id='13050'>0.67088E+03</wgt>
<wgt id='13051'>0.66947E+03</wgt>
<wgt id='13052'>0.66250E+03</wgt>
<wgt id='13053'>0.66919E+03</wgt>
<wgt id='13054'>0.66582E+03</wgt>
<wgt id='13055'>0.66041E+03</wgt>
<wgt id='13056'>0.66442E+03</wgt>
<wgt id='13057'>0.66614E+03</wgt>
<wgt id='13058'>0.67051E+03</wgt>
<wgt id='13059'>0.66873E+03</wgt>
<wgt id='13060'>0.65668E+03</wgt>
<wgt id='13061'>0.66588E+03</wgt>
<wgt id='13062'>0.67148E+03</wgt>
<wgt id='13063'>0.66797E+03</wgt>
<wgt id='14000'>0.68726E+03</wgt>
<wgt id='14001'>0.68718E+03</wgt>
<wgt id='14002'>0.68709E+03</wgt>
<wgt id='14003'>0.68701E+03</wgt>
<wgt id='14004'>0.68692E+03</wgt>
<wgt id='14005'>0.68684E+03</wgt>
<wgt id='14006'>0.68675E+03</wgt>
<wgt id='14007'>0.68667E+03</wgt>
<wgt id='14008'>0.68658E+03</wgt>
<wgt id='14009'>0.68650E+03</wgt>
<wgt id='14010'>0.68642E+03</wgt>
<wgt id='14011'>0.68633E+03</wgt>
<wgt id='14012'>0.68624E+03</wgt>
<wgt id='14013'>0.68616E+03</wgt>
<wgt id='14014'>0.68607E+03</wgt>
<wgt id='14015'>0.68599E+03</wgt>
<wgt id='14016'>0.68590E+03</wgt>
<wgt id='14017'>0.68582E+03</wgt>
<wgt id='14018'>0.68573E+03</wgt>
<wgt id='14019'>0.68565E+03</wgt>
<wgt id='14020'>0.68556E+03</wgt>
<wgt id='14021'>0.68548E+03</wgt>
<wgt id='14022'>0.68539E+03</wgt>
<wgt id='14023'>0.68531E+03</wgt>
<wgt id='14024'>0.68522E+03</wgt>
<wgt id='14025'>0.68514E+03</wgt>
<wgt id='14026'>0.68505E+03</wgt>
<wgt id='14027'>0.68497E+03</wgt>
<wgt id='14028'>0.68488E+03</wgt>
<wgt id='14029'>0.68480E+03</wgt>
<wgt id='14030'>0.68471E+03</wgt>
<wgt id='15000'>0.67070E+03</wgt>
<wgt id='15001'>0.67065E+03</wgt>
<wgt id='15002'>0.67339E+03</wgt>
<wgt id='15003'>0.66613E+03</wgt>
<wgt id='15004'>0.67083E+03</wgt>
<wgt id='15005'>0.67495E+03</wgt>
<wgt id='15006'>0.66924E+03</wgt>
<wgt id='15007'>0.66683E+03</wgt>
<wgt id='15008'>0.66975E+03</wgt>
<wgt id='15009'>0.67087E+03</wgt>
<wgt id='15010'>0.66719E+03</wgt>
<wgt id='15011'>0.67736E+03</wgt>
<wgt id='15012'>0.67180E+03</wgt>
<wgt id='15013'>0.66477E+03</wgt>
<wgt id='15014'>0.66876E+03</wgt>
<wgt id='15015'>0.66907E+03</wgt>
<wgt id='15016'>0.67749E+03</wgt>
<wgt id='15017'>0.66716E+03</wgt>
<wgt id='15018'>0.67077E+03</wgt>
<wgt id='15019'>0.67156E+03</wgt>
<wgt id='15020'>0.67537E+03</wgt>
<wgt id='15021'>0.67015E+03</wgt>
<wgt id='15022'>0.67220E+03</wgt>
<wgt id='15023'>0.66703E+03</wgt>
<wgt id='15024'>0.66892E+03</wgt>
<wgt id='15025'>0.67214E+03</wgt>
<wgt id='15026'>0.67080E+03</wgt>
<wgt id='15027'>0.67038E+03</wgt>
<wgt id='15028'>0.67130E+03</wgt>
<wgt id='15029'>0.67125E+03</wgt>
<wgt id='15030'>0.67152E+03</wgt>
<wgt id='15031'>0.67014E+03</wgt>
<wgt id='15032'>0.67100E+03</wgt>
<wgt id='15033'>0.67143E+03</wgt>
<wgt id='15034'>0.67079E+03</wgt>
<wgt id='15035'>0.67147E+03</wgt>
<wgt id='15036'>0.67087E+03</wgt>
<wgt id='15037'>0.67128E+03</wgt>
<wgt id='15038'>0.67104E+03</wgt>
<wgt id='15039'>0.67068E+03</wgt>
<wgt id='15040'>0.67015E+03</wgt>
<wgt id='15041'>0.67065E+03</wgt>
<wgt id='15042'>0.67080E+03</wgt>
<wgt id='15043'>0.66996E+03</wgt>
<wgt id='15044'>0.67087E+03</wgt>
<wgt id='15045'>0.67085E+03</wgt>
<wgt id='15046'>0.66981E+03</wgt>
<wgt id='15047'>0.67074E+03</wgt>
<wgt id='15048'>0.67105E+03</wgt>
<wgt id='15049'>0.67032E+03</wgt>
<wgt id='15050'>0.67078E+03</wgt>
<wgt id='15051'>0.67110E+03</wgt>
<wgt id='15052'>0.67111E+03</wgt>
<wgt id='15053'>0.67071E+03</wgt>
<wgt id='15054'>0.67037E+03</wgt>
<wgt id='15055'>0.67039E+03</wgt>
<wgt id='15056'>0.67124E+03</wgt>
<wgt id='15057'>0.67076E+03</wgt>
<wgt id='15058'>0.67000E+03</wgt>
<wgt id='15059'>0.67033E+03</wgt>
<wgt id='15060'>0.67042E+03</wgt>
<wgt id='15061'>0.67076E+03</wgt>
<wgt id='15062'>0.67082E+03</wgt>
<wgt id='15063'>0.67094E+03</wgt>
<wgt id='15064'>0.67067E+03</wgt>
<wgt id='15065'>0.67058E+03</wgt>
<wgt id='15066'>0.67069E+03</wgt>
<wgt id='15067'>0.67093E+03</wgt>
<wgt id='15068'>0.67086E+03</wgt>
<wgt id='15069'>0.67122E+03</wgt>
<wgt id='15070'>0.67055E+03</wgt>
<wgt id='15071'>0.67117E+03</wgt>
<wgt id='15072'>0.67119E+03</wgt>
<wgt id='15073'>0.67053E+03</wgt>
<wgt id='15074'>0.67081E+03</wgt>
<wgt id='15075'>0.67065E+03</wgt>
<wgt id='15076'>0.67064E+03</wgt>
<wgt id='15077'>0.67087E+03</wgt>
<wgt id='15078'>0.67075E+03</wgt>
<wgt id='15079'>0.67060E+03</wgt>
<wgt id='15080'>0.67134E+03</wgt>
<wgt id='15081'>0.67068E+03</wgt>
<wgt id='15082'>0.67092E+03</wgt>
<wgt id='15083'>0.67047E+03</wgt>
<wgt id='15084'>0.67042E+03</wgt>
<wgt id='15085'>0.67039E+03</wgt>
<wgt id='15086'>0.67087E+03</wgt>
<wgt id='15087'>0.67008E+03</wgt>
<wgt id='15088'>0.67044E+03</wgt>
<wgt id='15089'>0.67046E+03</wgt>
<wgt id='15090'>0.67081E+03</wgt>
<wgt id='15091'>0.67056E+03</wgt>
<wgt id='15092'>0.67064E+03</wgt>
<wgt id='15093'>0.67055E+03</wgt>
<wgt id='15094'>0.67057E+03</wgt>
<wgt id='15095'>0.67077E+03</wgt>
<wgt id='15096'>0.67057E+03</wgt>
<wgt id='15097'>0.67077E+03</wgt>
<wgt id='15098'>0.67066E+03</wgt>
<wgt id='15099'>0.67053E+03</wgt>
<wgt id='15100'>0.67071E+03</wgt>
<wgt id='15101'>0.67069E+03</wgt>
<wgt id='15102'>0.67065E+03</wgt>
<wgt id='15103'>0.67071E+03</wgt>
<wgt id='15104'>0.67071E+03</wgt>
<wgt id='15105'>0.67073E+03</wgt>
<wgt id='15106'>0.67071E+03</wgt>
<wgt id='15107'>0.67067E+03</wgt>
<wgt id='1500'>0.72393E+03</wgt>
<wgt id='1501'>0.70265E+03</wgt>
<wgt id='1502'>0.72408E+03</wgt>
<wgt id='1503'>0.72938E+03</wgt>
<wgt id='1504'>0.71315E+03</wgt>
<wgt id='1505'>0.67774E+03</wgt>
<wgt id='1506'>0.73847E+03</wgt>
<wgt id='1507'>0.72472E+03</wgt>
<wgt id='1508'>0.72372E+03</wgt>
<wgt id='1509'>0.73400E+03</wgt>
<wgt id='1510'>0.69945E+03</wgt>
<wgt id='1511'>0.68364E+03</wgt>
<wgt id='1512'>0.73727E+03</wgt>
<wgt id='1513'>0.73266E+03</wgt>
<wgt id='1514'>0.70910E+03</wgt>
<wgt id='1515'>0.73648E+03</wgt>
<wgt id='1516'>0.73636E+03</wgt>
<wgt id='1517'>0.72515E+03</wgt>
<wgt id='1518'>0.73117E+03</wgt>
<wgt id='1519'>0.73612E+03</wgt>
<wgt id='1520'>0.75305E+03</wgt>
<wgt id='1521'>0.72923E+03</wgt>
<wgt id='1522'>0.70922E+03</wgt>
<wgt id='1523'>0.77139E+03</wgt>
<wgt id='1524'>0.71907E+03</wgt>
<wgt id='1525'>0.72322E+03</wgt>
<wgt id='1526'>0.72192E+03</wgt>
<wgt id='1527'>0.72757E+03</wgt>
<wgt id='1528'>0.71671E+03</wgt>
<wgt id='1529'>0.73144E+03</wgt>
<wgt id='1530'>0.74462E+03</wgt>
<wgt id='1531'>0.71439E+03</wgt>
<wgt id='1532'>0.70113E+03</wgt>
<wgt id='1533'>0.71784E+03</wgt>
<wgt id='1534'>0.72130E+03</wgt>
<wgt id='1535'>0.73965E+03</wgt>
<wgt id='1536'>0.73336E+03</wgt>
<wgt id='1537'>0.73631E+03</wgt>
<wgt id='1538'>0.72037E+03</wgt>
<wgt id='1539'>0.71320E+03</wgt>
<wgt id='1540'>0.71909E+03</wgt>
<wgt id='1541'>0.72978E+03</wgt>
<wgt id='1542'>0.72337E+03</wgt>
<wgt id='1543'>0.71850E+03</wgt>
<wgt id='1544'>0.71971E+03</wgt>
<wgt id='1545'>0.72060E+03</wgt>
<wgt id='1546'>0.73495E+03</wgt>
<wgt id='1547'>0.71693E+03</wgt>
<wgt id='1548'>0.72113E+03</wgt>
<wgt id='1549'>0.72294E+03</wgt>
<wgt id='1550'>0.71742E+03</wgt>
<wgt id='1551'>0.71827E+03</wgt>
<wgt id='1552'>0.71334E+03</wgt>
<wgt id='1553'>0.73078E+03</wgt>
<wgt id='1554'>0.72429E+03</wgt>
<wgt id='1555'>0.71506E+03</wgt>
<wgt id='1556'>0.71591E+03</wgt>
<wgt id='1557'>0.74403E+03</wgt>
<wgt id='1558'>0.71039E+03</wgt>
<wgt id='1559'>0.74095E+03</wgt>
<wgt id='1560'>0.72132E+03</wgt>
<wgt id='1561'>0.72729E+03</wgt>
<wgt id='1562'>0.72952E+03</wgt>
<wgt id='1563'>0.72204E+03</wgt>
<wgt id='1564'>0.71518E+03</wgt>
<wgt id='1565'>0.73106E+03</wgt>
<wgt id='1566'>0.71764E+03</wgt>
<wgt id='1567'>0.77242E+03</wgt>
<wgt id='1568'>0.71882E+03</wgt>
<wgt id='1569'>0.70127E+03</wgt>
<wgt id='1570'>0.70986E+03</wgt>
<wgt id='1571'>0.72292E+03</wgt>
<wgt id='1572'>0.72710E+03</wgt>
<wgt id='1573'>0.68525E+03</wgt>
<wgt id='1574'>0.73006E+03</wgt>
<wgt id='1575'>0.71976E+03</wgt>
<wgt id='1576'>0.69811E+03</wgt>
<wgt id='1577'>0.71780E+03</wgt>
<wgt id='1578'>0.74202E+03</wgt>
<wgt id='1579'>0.72068E+03</wgt>
<wgt id='1580'>0.71984E+03</wgt>
<wgt id='1581'>0.72330E+03</wgt>
<wgt id='1582'>0.70576E+03</wgt>
<wgt id='1583'>0.74975E+03</wgt>
<wgt id='1584'>0.72124E+03</wgt>
<wgt id='1585'>0.71191E+03</wgt>
<wgt id='1586'>0.71675E+03</wgt>
<wgt id='1587'>0.72270E+03</wgt>
<wgt id='1588'>0.72464E+03</wgt>
<wgt id='1589'>0.75647E+03</wgt>
<wgt id='1590'>0.71305E+03</wgt>
<wgt id='1591'>0.71519E+03</wgt>
<wgt id='1592'>0.72767E+03</wgt>
<wgt id='1593'>0.72779E+03</wgt>
<wgt id='1594'>0.73836E+03</wgt>
<wgt id='1595'>0.71317E+03</wgt>
<wgt id='1596'>0.73539E+03</wgt>
<wgt id='1597'>0.72806E+03</wgt>
<wgt id='1598'>0.73719E+03</wgt>
<wgt id='1599'>0.74090E+03</wgt>
<wgt id='1600'>0.73908E+03</wgt>
<wgt id='1601'>0.71510E+03</wgt>
<wgt id='1602'>0.72848E+03</wgt>
<wgt id='1700'>0.68693E+03</wgt>
<wgt id='1800'>0.71565E+03</wgt>
<wgt id='1850'>0.83622E+03</wgt>
<wgt id='1900'>0.76233E+03</wgt>
<wgt id='1950'>0.81001E+03</wgt>
</rwgt>
</event>
<event>
     13 322222  6.87070E+02  4.41597E+01 -1.00000E+00  1.40122E-01
      21    -1     0     0   504   505  0.000000000E+00  0.000000000E+00  3.956042680E+02  3.956042680E+02  0.000000000E+00  0.00000E+00  9.000E+00
      21    -1     0     0   502   503  0.000000000E+00  0.000000000E+00 -2.668750300E+02  2.668750300E+02  0.000000000E+00  0.00000E+00  9.000E+00
       6     2     1     2   502     0  4.678131559E+01  7.930612654E+01 -1.855744973E+02  2.710453295E+02  1.747847917E+02  0.00000E+00  9.000E+00
      -6     2     1     2     0   505 -2.808252909E+00 -8.336212552E+01  2.700595029E+02  3.289229017E+02  1.682290401E+02  0.00000E+00  9.000E+00
      21     1     1     2   504   503 -4.397306268E+01  4.055998984E+00  4.424423245E+01  6.251106681E+01  1.168007728E-06  0.00000E+00  9.000E+00
      24     2     3     3     0     0 -1.479005197E+00  4.927149119E+01 -2.366765917E+01  9.938286384E+01  8.298751855E+01  0.00000E+00  9.000E+00
       5     1     3     3   502     0  4.826032079E+01  3.003463535E+01 -1.619068382E+02  1.716624657E+02  4.800000000E+00  0.00000E+00 -1.000E+00
     -24     2     4     4     0     0 -4.884105561E+01 -6.319669743E+01  9.699202721E+01  1.486424132E+02  7.942192634E+01  0.00000E+00  9.000E+00
      -5     1     4     4     0   505  4.603280270E+01 -2.016542809E+01  1.730674757E+02  1.802804885E+02  4.800000000E+00  0.00000E+00  1.000E+00
      -1     1     6     6     0   508  2.415824229E+01  6.074384782E+01 -2.771784105E+01  7.100510144E+01  1.000000000E-01  0.00000E+00  1.000E+00
       2     1     6     6   508     0 -2.563724749E+01 -1.147235663E+01  4.050181886E+00  2.837776240E+01  1.000000000E-01  0.00000E+00 -1.000E+00
       1     1     8     8   509     0 -1.223876701E+00  1.701778508E+01  5.364496585E+00  1.788548872E+01  1.000000000E-01  0.00000E+00 -1.000E+00
      -2     1     8     8     0   509 -4.761717890E+01 -8.021448251E+01  9.162753063E+01  1.307569245E+02  1.000000000E-01  0.00000E+00  1.000E+00
#rwgt            1           1   905.45303782049825                1         439           0
<rwgt>
<wgt id='1001'>0.68707E+03</wgt>
<wgt id='1002'>0.74235E+03</wgt>
<wgt id='1003'>0.62292E+03</wgt>
<wgt id='1004'>0.58020E+03</wgt>
<wgt id='1005'>0.61869E+03</wgt>
<wgt id='1006'>0.53527E+03</wgt>
<wgt id='1007'>0.82731E+03</wgt>
<wgt id='1008'>0.90818E+03</wgt>
<wgt id='1009'>0.73392E+03</wgt>
<wgt id='2000'>0.68707E+03</wgt>
<wgt id='2001'>0.68612E+03</wgt>
<wgt id='2002'>0.68738E+03</wgt>
<wgt id='2003'>0.68744E+03</wgt>
<wgt id='2004'>0.68867E+03</wgt>
<wgt id='2005'>0.68621E+03</wgt>
<wgt id='2006'>0.68521E+03</wgt>
<wgt id='2007'>0.68441E+03</wgt>
<wgt id='2008'>0.68393E+03</wgt>
<wgt id='2009'>0.68834E+03</wgt>
<wgt id='2010'>0.68742E+03</wgt>
<wgt id='2011'>0.68496E+03</wgt>
<wgt id='2012'>0.68691E+03</wgt>
<wgt id='2013'>0.68617E+03</wgt>
<wgt id='2014'>0.68940E+03</wgt>
<wgt id='2015'>0.68840E+03</wgt>
<wgt id='2016'>0.68828E+03</wgt>
<wgt id='2017'>0.68701E+03</wgt>
<wgt id='2018'>0.68837E+03</wgt>
<wgt id='2019'>0.68731E+03</wgt>
<wgt id='2020'>0.69045E+03</wgt>
<wgt id='2021'>0.68551E+03</wgt>
<wgt id='2022'>0.69016E+03</wgt>
<wgt id='2023'>0.68904E+03</wgt>
<wgt id='2024'>0.68630E+03</wgt>
<wgt id='2025'>0.69170E+03</wgt>
<wgt id='2026'>0.69085E+03</wgt>
<wgt id='2027'>0.68567E+03</wgt>
<wgt id='2028'>0.68419E+03</wgt>
<wgt id='2029'>0.68876E+03</wgt>
<wgt id='2030'>0.68705E+03</wgt>
<wgt id='2031'>0.68871E+03</wgt>
<wgt id='2032'>0.68579E+03</wgt>
<wgt id='2033'>0.68705E+03</wgt>
<wgt id='2034'>0.68865E+03</wgt>
<wgt id='2035'>0.68693E+03</wgt>
<wgt id='2036'>0.68788E+03</wgt>
<wgt id='2037'>0.68778E+03</wgt>
<wgt id='2038'>0.68720E+03</wgt>
<wgt id='2039'>0.68662E+03</wgt>
<wgt id='2040'>0.68782E+03</wgt>
<wgt id='2041'>0.68743E+03</wgt>
<wgt id='2042'>0.68602E+03</wgt>
<wgt id='2043'>0.68761E+03</wgt>
<wgt id='2044'>0.68780E+03</wgt>
<wgt id='2045'>0.68690E+03</wgt>
<wgt id='2046'>0.68741E+03</wgt>
<wgt id='2047'>0.68787E+03</wgt>
<wgt id='2048'>0.68686E+03</wgt>
<wgt id='2049'>0.68707E+03</wgt>
<wgt id='2050'>0.68720E+03</wgt>
<wgt id='2051'>0.68794E+03</wgt>
<wgt id='2052'>0.68695E+03</wgt>
<wgt id='2053'>0.68701E+03</wgt>
<wgt id='2054'>0.68698E+03</wgt>
<wgt id='2055'>0.68712E+03</wgt>
<wgt id='2056'>0.68711E+03</wgt>
<wgt id='2057'>0.68731E+03</wgt>
<wgt id='2058'>0.68745E+03</wgt>
<wgt id='2059'>0.68705E+03</wgt>
<wgt id='2060'>0.68736E+03</wgt>
<wgt id='2061'>0.68662E+03</wgt>
<wgt id='2062'>0.68677E+03</wgt>
<wgt id='2063'>0.68726E+03</wgt>
<wgt id='2064'>0.68661E+03</wgt>
<wgt id='2065'>0.68712E+03</wgt>
<wgt id='2066'>0.68670E+03</wgt>
<wgt id='2067'>0.68706E+03</wgt>
<wgt id='2068'>0.68728E+03</wgt>
<wgt id='2069'>0.68733E+03</wgt>
<wgt id='2070'>0.68708E+03</wgt>
<wgt id='2071'>0.68691E+03</wgt>
<wgt id='2072'>0.68716E+03</wgt>
<wgt id='2073'>0.68710E+03</wgt>
<wgt id='2074'>0.68730E+03</wgt>
<wgt id='2075'>0.68685E+03</wgt>
<wgt id='2076'>0.68723E+03</wgt>
<wgt id='2077'>0.68684E+03</wgt>
<wgt id='2078'>0.68702E+03</wgt>
<wgt id='2079'>0.68717E+03</wgt>
<wgt id='2080'>0.68715E+03</wgt>
<wgt id='2081'>0.68723E+03</wgt>
<wgt id='2082'>0.68724E+03</wgt>
<wgt id='2083'>0.68696E+03</wgt>
<wgt id='2084'>0.68709E+03</wgt>
<wgt id='2085'>0.68701E+03</wgt>
<wgt id='2086'>0.68701E+03</wgt>
<wgt id='2087'>0.68697E+03</wgt>
<wgt id='2088'>0.68712E+03</wgt>
<wgt id='2089'>0.68705E+03</wgt>
<wgt id='2090'>0.68701E+03</wgt>
<wgt id='2091'>0.68705E+03</wgt>
<wgt id='2092'>0.68701E+03</wgt>
<wgt id='2093'>0.68704E+03</wgt>
<wgt id='2094'>0.68703E+03</wgt>
<wgt id='2095'>0.68712E+03</wgt>
<wgt id='2096'>0.68702E+03</wgt>
<wgt id='2097'>0.68719E+03</wgt>
<wgt id='2098'>0.68703E+03</wgt>
<wgt id='2099'>0.68705E+03</wgt>
<wgt id='2100'>0.68710E+03</wgt>
<wgt id='2101'>0.66556E+03</wgt>
<wgt id='2102'>0.70720E+03</wgt>
<wgt id='2104'>0.59290E+03</wgt>
<wgt id='2105'>0.61025E+03</wgt>
<wgt id='2106'>0.63207E+03</wgt>
<wgt id='2107'>0.65116E+03</wgt>
<wgt id='2108'>0.67810E+03</wgt>
<wgt id='2109'>0.69805E+03</wgt>
<wgt id='2110'>0.72285E+03</wgt>
<wgt id='2111'>0.74264E+03</wgt>
<wgt id='3000'>0.71753E+03</wgt>
<wgt id='3001'>0.71788E+03</wgt>
<wgt id='3002'>0.71774E+03</wgt>
<wgt id='3003'>0.71793E+03</wgt>
<wgt id='3004'>0.71884E+03</wgt>
<wgt id='3005'>0.71911E+03</wgt>
<wgt id='3006'>0.71721E+03</wgt>
<wgt id='3007'>0.71969E+03</wgt>
<wgt id='3008'>0.71726E+03</wgt>
<wgt id='3009'>0.71983E+03</wgt>
<wgt id='3010'>0.71662E+03</wgt>
<wgt id='3011'>0.71603E+03</wgt>
<wgt id='3012'>0.71835E+03</wgt>
<wgt id='3013'>0.71860E+03</wgt>
<wgt id='3014'>0.71865E+03</wgt>
<wgt id='3015'>0.71584E+03</wgt>
<wgt id='3016'>0.71791E+03</wgt>
<wgt id='3017'>0.71849E+03</wgt>
<wgt id='3018'>0.71982E+03</wgt>
<wgt id='3019'>0.71571E+03</wgt>
<wgt id='3020'>0.71475E+03</wgt>
<wgt id='3021'>0.71422E+03</wgt>
<wgt id='3022'>0.71737E+03</wgt>
<wgt id='3023'>0.71528E+03</wgt>
<wgt id='3024'>0.71375E+03</wgt>
<wgt id='3025'>0.71773E+03</wgt>
<wgt id='3026'>0.72019E+03</wgt>
<wgt id='3027'>0.71766E+03</wgt>
<wgt id='3028'>0.71307E+03</wgt>
<wgt id='3029'>0.71560E+03</wgt>
<wgt id='3030'>0.71948E+03</wgt>
<wgt id='3031'>0.71851E+03</wgt>
<wgt id='3032'>0.71946E+03</wgt>
<wgt id='3033'>0.71978E+03</wgt>
<wgt id='3034'>0.71847E+03</wgt>
<wgt id='3035'>0.71899E+03</wgt>
<wgt id='3036'>0.71783E+03</wgt>
<wgt id='3037'>0.71770E+03</wgt>
<wgt id='3038'>0.71765E+03</wgt>
<wgt id='3039'>0.71613E+03</wgt>
<wgt id='3040'>0.71812E+03</wgt>
<wgt id='3041'>0.71841E+03</wgt>
<wgt id='3042'>0.71637E+03</wgt>
<wgt id='3043'>0.71664E+03</wgt>
<wgt id='3044'>0.71741E+03</wgt>
<wgt id='3045'>0.71822E+03</wgt>
<wgt id='3046'>0.71814E+03</wgt>
<wgt id='3047'>0.71736E+03</wgt>
<wgt id='3048'>0.71834E+03</wgt>
<wgt id='3049'>0.71746E+03</wgt>
<wgt id='3050'>0.71773E+03</wgt>
<wgt id='3051'>0.71850E+03</wgt>
<wgt id='3052'>0.71717E+03</wgt>
<wgt id='3053'>0.71712E+03</wgt>
<wgt id='3054'>0.71732E+03</wgt>
<wgt id='3055'>0.71705E+03</wgt>
<wgt id='3056'>0.71760E+03</wgt>
<wgt id='3057'>0.71692E+03</wgt>
<wgt id='3058'>0.71724E+03</wgt>
<wgt id='3059'>0.71737E+03</wgt>
<wgt id='3060'>0.71764E+03</wgt>
<wgt id='3061'>0.71739E+03</wgt>
<wgt id='3062'>0.71752E+03</wgt>
<wgt id='3063'>0.71790E+03</wgt>
<wgt id='3064'>0.71735E+03</wgt>
<wgt id='3065'>0.71763E+03</wgt>
<wgt id='3066'>0.71760E+03</wgt>
<wgt id='3067'>0.71739E+03</wgt>
<wgt id='3068'>0.71753E+03</wgt>
<wgt id='3069'>0.71732E+03</wgt>
<wgt id='3070'>0.71761E+03</wgt>
<wgt id='3071'>0.71757E+03</wgt>
<wgt id='3072'>0.71754E+03</wgt>
<wgt id='3073'>0.71734E+03</wgt>
<wgt id='3074'>0.71793E+03</wgt>
<wgt id='3075'>0.71755E+03</wgt>
<wgt id='3076'>0.71754E+03</wgt>
<wgt id='3077'>0.71762E+03</wgt>
<wgt id='3078'>0.71767E+03</wgt>
<wgt id='3079'>0.71736E+03</wgt>
<wgt id='3080'>0.71741E+03</wgt>
<wgt id='3081'>0.71746E+03</wgt>
<wgt id='3082'>0.71734E+03</wgt>
<wgt id='3083'>0.71765E+03</wgt>
<wgt id='3084'>0.71753E+03</wgt>
<wgt id='3085'>0.71763E+03</wgt>
<wgt id='3086'>0.71753E+03</wgt>
<wgt id='3087'>0.71750E+03</wgt>
<wgt id='3088'>0.71749E+03</wgt>
<wgt id='3089'>0.71754E+03</wgt>
<wgt id='3090'>0.71758E+03</wgt>
<wgt id='3091'>0.71749E+03</wgt>
<wgt id='3092'>0.71751E+03</wgt>
<wgt id='3093'>0.71758E+03</wgt>
<wgt id='3094'>0.71765E+03</wgt>
<wgt id='3095'>0.71755E+03</wgt>
<wgt id='3096'>0.71740E+03</wgt>
<wgt id='3097'>0.71740E+03</wgt>
<wgt id='3098'>0.71743E+03</wgt>
<wgt id='3099'>0.71761E+03</wgt>
<wgt id='3100'>0.71758E+03</wgt>
<wgt id='3101'>0.69615E+03</wgt>
<wgt id='3102'>0.73885E+03</wgt>
<wgt id='5000'>0.67010E+03</wgt>
<wgt id='5001'>0.67090E+03</wgt>
<wgt id='5002'>0.67156E+03</wgt>
<wgt id='5003'>0.66969E+03</wgt>
<wgt id='5004'>0.66717E+03</wgt>
<wgt id='5005'>0.65605E+03</wgt>
<wgt id='5006'>0.65603E+03</wgt>
<wgt id='5007'>0.66318E+03</wgt>
<wgt id='5008'>0.67072E+03</wgt>
<wgt id='5009'>0.66867E+03</wgt>
<wgt id='5010'>0.66834E+03</wgt>
<wgt id='5011'>0.67128E+03</wgt>
<wgt id='5012'>0.67045E+03</wgt>
<wgt id='5013'>0.67176E+03</wgt>
<wgt id='5014'>0.68206E+03</wgt>
<wgt id='5015'>0.67159E+03</wgt>
<wgt id='5016'>0.66600E+03</wgt>
<wgt id='5017'>0.65898E+03</wgt>
<wgt id='5018'>0.68183E+03</wgt>
<wgt id='5019'>0.68109E+03</wgt>
<wgt id='5020'>0.65992E+03</wgt>
<wgt id='5021'>0.66972E+03</wgt>
<wgt id='5022'>0.67032E+03</wgt>
<wgt id='5023'>0.66718E+03</wgt>
<wgt id='5024'>0.67322E+03</wgt>
<wgt id='5025'>0.67387E+03</wgt>
<wgt id='5026'>0.66697E+03</wgt>
<wgt id='5027'>0.67363E+03</wgt>
<wgt id='5028'>0.66411E+03</wgt>
<wgt id='5029'>0.66350E+03</wgt>
<wgt id='5030'>0.67422E+03</wgt>
<wgt id='5031'>0.66518E+03</wgt>
<wgt id='5032'>0.67741E+03</wgt>
<wgt id='5033'>0.67000E+03</wgt>
<wgt id='5034'>0.67000E+03</wgt>
<wgt id='5035'>0.67653E+03</wgt>
<wgt id='5036'>0.66399E+03</wgt>
<wgt id='5037'>0.65242E+03</wgt>
<wgt id='5038'>0.68989E+03</wgt>
<wgt id='5039'>0.68680E+03</wgt>
<wgt id='5040'>0.66093E+03</wgt>
<wgt id='5041'>0.67093E+03</wgt>
<wgt id='5042'>0.66869E+03</wgt>
<wgt id='5043'>0.67290E+03</wgt>
<wgt id='5044'>0.66645E+03</wgt>
<wgt id='5045'>0.68774E+03</wgt>
<wgt id='5046'>0.64823E+03</wgt>
<wgt id='5047'>0.67963E+03</wgt>
<wgt id='5048'>0.65991E+03</wgt>
<wgt id='5049'>0.67145E+03</wgt>
<wgt id='5050'>0.66835E+03</wgt>
<wgt id='5051'>0.66963E+03</wgt>
<wgt id='5052'>0.67023E+03</wgt>
<wgt id='5053'>0.66077E+03</wgt>
<wgt id='5054'>0.66497E+03</wgt>
<wgt id='5055'>0.66419E+03</wgt>
<wgt id='5056'>0.68284E+03</wgt>
<wgt id='5060'>0.64746E+03</wgt>
<wgt id='5070'>0.69269E+03</wgt>
<wgt id='4000'>0.67850E+03</wgt>
<wgt id='4001'>0.67808E+03</wgt>
<wgt id='4002'>0.67873E+03</wgt>
<wgt id='4003'>0.67336E+03</wgt>
<wgt id='4004'>0.66845E+03</wgt>
<wgt id='4005'>0.67570E+03</wgt>
<wgt id='4006'>0.68115E+03</wgt>
<wgt id='4007'>0.68557E+03</wgt>
<wgt id='4008'>0.66742E+03</wgt>
<wgt id='4009'>0.67745E+03</wgt>
<wgt id='4010'>0.67435E+03</wgt>
<wgt id='4011'>0.69476E+03</wgt>
<wgt id='4012'>0.66681E+03</wgt>
<wgt id='4013'>0.67365E+03</wgt>
<wgt id='4014'>0.68194E+03</wgt>
<wgt id='4015'>0.69395E+03</wgt>
<wgt id='4016'>0.66784E+03</wgt>
<wgt id='4017'>0.66543E+03</wgt>
<wgt id='4018'>0.69396E+03</wgt>
<wgt id='4019'>0.68734E+03</wgt>
<wgt id='4020'>0.66936E+03</wgt>
<wgt id='4021'>0.68159E+03</wgt>
<wgt id='4022'>0.67253E+03</wgt>
<wgt id='4023'>0.67569E+03</wgt>
<wgt id='4024'>0.68141E+03</wgt>
<wgt id='4025'>0.69116E+03</wgt>
<wgt id='4026'>0.66627E+03</wgt>
<wgt id='4027'>0.67898E+03</wgt>
<wgt id='4028'>0.67797E+03</wgt>
<wgt id='4029'>0.67667E+03</wgt>
<wgt id='4030'>0.67920E+03</wgt>
<wgt id='4031'>0.68146E+03</wgt>
<wgt id='4032'>0.67468E+03</wgt>
<wgt id='4033'>0.67265E+03</wgt>
<wgt id='4034'>0.69142E+03</wgt>
<wgt id='4035'>0.67228E+03</wgt>
<wgt id='4036'>0.68490E+03</wgt>
<wgt id='4037'>0.67971E+03</wgt>
<wgt id='4038'>0.67709E+03</wgt>
<wgt id='4039'>0.67943E+03</wgt>
<wgt id='4040'>0.67899E+03</wgt>
<wgt id='4041'>0.67794E+03</wgt>
<wgt id='4042'>0.67986E+03</wgt>
<wgt id='4043'>0.68146E+03</wgt>
<wgt id='4044'>0.68321E+03</wgt>
<wgt id='4045'>0.67056E+03</wgt>
<wgt id='4046'>0.68259E+03</wgt>
<wgt id='4047'>0.67616E+03</wgt>
<wgt id='4048'>0.66434E+03</wgt>
<wgt id='4049'>0.66367E+03</wgt>
<wgt id='4050'>0.67420E+03</wgt>
<wgt id='4051'>0.67984E+03</wgt>
<wgt id='4052'>0.67953E+03</wgt>
<wgt id='4053'>0.66067E+03</wgt>
<wgt id='4054'>0.68837E+03</wgt>
<wgt id='4055'>0.67179E+03</wgt>
<wgt id='4056'>0.69070E+03</wgt>
<wgt id='4060'>0.65670E+03</wgt>
<wgt id='4070'>0.70077E+03</wgt>
<wgt id='4080'>0.59699E+03</wgt>
<wgt id='6000'>0.70089E+03</wgt>
<wgt id='6001'>0.70122E+03</wgt>
<wgt id='6002'>0.70047E+03</wgt>
<wgt id='6003'>0.70169E+03</wgt>
<wgt id='6004'>0.70032E+03</wgt>
<wgt id='6005'>0.70500E+03</wgt>
<wgt id='6006'>0.69707E+03</wgt>
<wgt id='6007'>0.69800E+03</wgt>
<wgt id='6008'>0.70413E+03</wgt>
<wgt id='6009'>0.70164E+03</wgt>
<wgt id='6010'>0.70013E+03</wgt>
<wgt id='6011'>0.70165E+03</wgt>
<wgt id='6012'>0.69927E+03</wgt>
<wgt id='6013'>0.70064E+03</wgt>
<wgt id='6014'>0.70136E+03</wgt>
<wgt id='6015'>0.69964E+03</wgt>
<wgt id='6016'>0.70160E+03</wgt>
<wgt id='6017'>0.69803E+03</wgt>
<wgt id='6018'>0.70427E+03</wgt>
<wgt id='6019'>0.70144E+03</wgt>
<wgt id='6020'>0.70044E+03</wgt>
<wgt id='6021'>0.69946E+03</wgt>
<wgt id='6022'>0.70277E+03</wgt>
<wgt id='6023'>0.69677E+03</wgt>
<wgt id='6024'>0.70366E+03</wgt>
<wgt id='6025'>0.69964E+03</wgt>
<wgt id='6026'>0.70231E+03</wgt>
<wgt id='6027'>0.70146E+03</wgt>
<wgt id='6028'>0.70060E+03</wgt>
<wgt id='6029'>0.69968E+03</wgt>
<wgt id='6030'>0.70240E+03</wgt>
<wgt id='6031'>0.69454E+03</wgt>
<wgt id='6032'>0.70802E+03</wgt>
<wgt id='6033'>0.70392E+03</wgt>
<wgt id='6034'>0.69796E+03</wgt>
<wgt id='6035'>0.70181E+03</wgt>
<wgt id='6036'>0.69861E+03</wgt>
<wgt id='6037'>0.70156E+03</wgt>
<wgt id='6038'>0.70067E+03</wgt>
<wgt id='6039'>0.69936E+03</wgt>
<wgt id='6040'>0.70262E+03</wgt>
<wgt id='6041'>0.69568E+03</wgt>
<wgt id='6042'>0.70672E+03</wgt>
<wgt id='6043'>0.70704E+03</wgt>
<wgt id='6044'>0.69742E+03</wgt>
<wgt id='6045'>0.70014E+03</wgt>
<wgt id='6046'>0.70272E+03</wgt>
<wgt id='6047'>0.71083E+03</wgt>
<wgt id='6048'>0.68547E+03</wgt>
<wgt id='6049'>0.70560E+03</wgt>
<wgt id='6050'>0.69835E+03</wgt>
<wgt id='7000'>0.67204E+03</wgt>
<wgt id='7001'>0.67174E+03</wgt>
<wgt id='7002'>0.67248E+03</wgt>
<wgt id='7003'>0.67434E+03</wgt>
<wgt id='7004'>0.66981E+03</wgt>
<wgt id='7005'>0.67426E+03</wgt>
<wgt id='7006'>0.67116E+03</wgt>
<wgt id='7007'>0.67127E+03</wgt>
<wgt id='7008'>0.67287E+03</wgt>
<wgt id='7009'>0.67258E+03</wgt>
<wgt id='7010'>0.67156E+03</wgt>
<wgt id='7011'>0.66983E+03</wgt>
<wgt id='7012'>0.67301E+03</wgt>
<wgt id='7013'>0.67202E+03</wgt>
<wgt id='7014'>0.67213E+03</wgt>
<wgt id='7015'>0.67175E+03</wgt>
<wgt id='7016'>0.67237E+03</wgt>
<wgt id='7017'>0.67320E+03</wgt>
<wgt id='7018'>0.67141E+03</wgt>
<wgt id='7019'>0.67210E+03</wgt>
<wgt id='7020'>0.67200E+03</wgt>
<wgt id='7021'>0.67067E+03</wgt>
<wgt id='7022'>0.67298E+03</wgt>
<wgt id='7023'>0.67927E+03</wgt>
<wgt id='7024'>0.66533E+03</wgt>
<wgt id='7025'>0.67435E+03</wgt>
<wgt id='7026'>0.66634E+03</wgt>
<wgt id='7027'>0.67287E+03</wgt>
<wgt id='7028'>0.67082E+03</wgt>
<wgt id='7029'>0.67299E+03</wgt>
<wgt id='7030'>0.67018E+03</wgt>
<wgt id='7031'>0.66936E+03</wgt>
<wgt id='7032'>0.67754E+03</wgt>
<wgt id='7033'>0.67266E+03</wgt>
<wgt id='7034'>0.67076E+03</wgt>
<wgt id='7035'>0.66876E+03</wgt>
<wgt id='7036'>0.67341E+03</wgt>
<wgt id='7037'>0.67186E+03</wgt>
<wgt id='7038'>0.67192E+03</wgt>
<wgt id='7039'>0.66992E+03</wgt>
<wgt id='7040'>0.67366E+03</wgt>
<wgt id='7041'>0.67214E+03</wgt>
<wgt id='7042'>0.67131E+03</wgt>
<wgt id='7043'>0.67273E+03</wgt>
<wgt id='7044'>0.66823E+03</wgt>
<wgt id='7045'>0.66130E+03</wgt>
<wgt id='7046'>0.67891E+03</wgt>
<wgt id='7047'>0.67626E+03</wgt>
<wgt id='7048'>0.67010E+03</wgt>
<wgt id='7049'>0.66680E+03</wgt>
<wgt id='7050'>0.67477E+03</wgt>
<wgt id='7060'>0.84209E+03</wgt>
<wgt id='8000'>0.66737E+03</wgt>
<wgt id='8001'>0.66728E+03</wgt>
<wgt id='8002'>0.66758E+03</wgt>
<wgt id='8003'>0.66738E+03</wgt>
<wgt id='8004'>0.66735E+03</wgt>
<wgt id='8005'>0.66607E+03</wgt>
<wgt id='8006'>0.66808E+03</wgt>
<wgt id='8007'>0.66876E+03</wgt>
<wgt id='8008'>0.66896E+03</wgt>
<wgt id='8009'>0.67033E+03</wgt>
<wgt id='8010'>0.66659E+03</wgt>
<wgt id='8011'>0.66749E+03</wgt>
<wgt id='8012'>0.66472E+03</wgt>
<wgt id='8013'>0.66596E+03</wgt>
<wgt id='8014'>0.66905E+03</wgt>
<wgt id='8015'>0.66699E+03</wgt>
<wgt id='8016'>0.66799E+03</wgt>
<wgt id='8017'>0.66768E+03</wgt>
<wgt id='8018'>0.66900E+03</wgt>
<wgt id='8019'>0.66814E+03</wgt>
<wgt id='8020'>0.66652E+03</wgt>
<wgt id='8021'>0.66691E+03</wgt>
<wgt id='8022'>0.66575E+03</wgt>
<wgt id='8023'>0.66693E+03</wgt>
<wgt id='8024'>0.66573E+03</wgt>
<wgt id='8025'>0.66760E+03</wgt>
<wgt id='8026'>0.66845E+03</wgt>
<wgt id='8027'>0.66764E+03</wgt>
<wgt id='8028'>0.66793E+03</wgt>
<wgt id='8029'>0.66461E+03</wgt>
<wgt id='8500'>0.70120E+03</wgt>
<wgt id='8501'>0.69726E+03</wgt>
<wgt id='8502'>0.70777E+03</wgt>
<wgt id='8503'>0.70369E+03</wgt>
<wgt id='8504'>0.69814E+03</wgt>
<wgt id='8505'>0.69908E+03</wgt>
<wgt id='8506'>0.70618E+03</wgt>
<wgt id='8507'>0.69231E+03</wgt>
<wgt id='8508'>0.68924E+03</wgt>
<wgt id='8509'>0.70627E+03</wgt>
<wgt id='8510'>0.71204E+03</wgt>
<wgt id='8511'>0.70052E+03</wgt>
<wgt id='8512'>0.69709E+03</wgt>
<wgt id='8513'>0.70243E+03</wgt>
<wgt id='8514'>0.68861E+03</wgt>
<wgt id='8515'>0.70601E+03</wgt>
<wgt id='8516'>0.69970E+03</wgt>
<wgt id='8517'>0.69684E+03</wgt>
<wgt id='8518'>0.69812E+03</wgt>
<wgt id='8519'>0.69790E+03</wgt>
<wgt id='8520'>0.69870E+03</wgt>
<wgt id='8521'>0.69866E+03</wgt>
<wgt id='8522'>0.70353E+03</wgt>
<wgt id='8523'>0.69839E+03</wgt>
<wgt id='8524'>0.70112E+03</wgt>
<wgt id='8525'>0.70182E+03</wgt>
<wgt id='8526'>0.70040E+03</wgt>
<wgt id='8527'>0.70051E+03</wgt>
<wgt id='8528'>0.70038E+03</wgt>
<wgt id='8529'>0.70011E+03</wgt>
<wgt id='8530'>0.70200E+03</wgt>
<wgt id='8531'>0.70099E+03</wgt>
<wgt id='8532'>0.70115E+03</wgt>
<wgt id='8533'>0.69992E+03</wgt>
<wgt id='8534'>0.70147E+03</wgt>
<wgt id='8535'>0.70278E+03</wgt>
<wgt id='8536'>0.70094E+03</wgt>
<wgt id='8537'>0.70128E+03</wgt>
<wgt id='8538'>0.70112E+03</wgt>
<wgt id='8539'>0.70159E+03</wgt>
<wgt id='8540'>0.70176E+03</wgt>
<wgt id='8541'>0.70179E+03</wgt>
<wgt id='8542'>0.70166E+03</wgt>
<wgt id='8543'>0.70039E+03</wgt>
<wgt id='8544'>0.70212E+03</wgt>
<wgt id='8545'>0.70157E+03</wgt>
<wgt id='8546'>0.70195E+03</wgt>
<wgt id='8547'>0.70069E+03</wgt>
<wgt id='8548'>0.70093E+03</wgt>
<wgt id='8549'>0.70129E+03</wgt>
<wgt id='8550'>0.70071E+03</wgt>
<wgt id='8551'>0.70073E+03</wgt>
<wgt id='8552'>0.70077E+03</wgt>
<wgt id='8553'>0.70033E+03</wgt>
<wgt id='8554'>0.70077E+03</wgt>
<wgt id='8555'>0.70125E+03</wgt>
<wgt id='8556'>0.70100E+03</wgt>
<wgt id='8557'>0.70134E+03</wgt>
<wgt id='8558'>0.70205E+03</wgt>
<wgt id='8559'>0.70100E+03</wgt>
<wgt id='8560'>0.70030E+03</wgt>
<wgt id='8561'>0.70150E+03</wgt>
<wgt id='8562'>0.70079E+03</wgt>
<wgt id='8563'>0.70121E+03</wgt>
<wgt id='8564'>0.70092E+03</wgt>
<wgt id='8565'>0.70139E+03</wgt>
<wgt id='8566'>0.70153E+03</wgt>
<wgt id='8567'>0.70117E+03</wgt>
<wgt id='8568'>0.70168E+03</wgt>
<wgt id='8569'>0.70152E+03</wgt>
<wgt id='8570'>0.70097E+03</wgt>
<wgt id='8571'>0.70069E+03</wgt>
<wgt id='8572'>0.70080E+03</wgt>
<wgt id='8573'>0.70090E+03</wgt>
<wgt id='8574'>0.70088E+03</wgt>
<wgt id='8575'>0.70108E+03</wgt>
<wgt id='8576'>0.70125E+03</wgt>
<wgt id='8577'>0.70083E+03</wgt>
<wgt id='8578'>0.70109E+03</wgt>
<wgt id='8579'>0.70173E+03</wgt>
<wgt id='8580'>0.70117E+03</wgt>
<wgt id='8581'>0.70153E+03</wgt>
<wgt id='8582'>0.70084E+03</wgt>
<wgt id='8583'>0.70139E+03</wgt>
<wgt id='8584'>0.70164E+03</wgt>
<wgt id='8585'>0.70139E+03</wgt>
<wgt id='8586'>0.70191E+03</wgt>
<wgt id='8587'>0.70129E+03</wgt>
<wgt id='8588'>0.70120E+03</wgt>
<wgt id='8589'>0.70120E+03</wgt>
<wgt id='8590'>0.70124E+03</wgt>
<wgt id='8591'>0.70086E+03</wgt>
<wgt id='8592'>0.70114E+03</wgt>
<wgt id='8593'>0.70103E+03</wgt>
<wgt id='8594'>0.70110E+03</wgt>
<wgt id='8595'>0.70114E+03</wgt>
<wgt id='8596'>0.70113E+03</wgt>
<wgt id='8597'>0.70135E+03</wgt>
<wgt id='8598'>0.70134E+03</wgt>
<wgt id='8599'>0.70127E+03</wgt>
<wgt id='8600'>0.70122E+03</wgt>
<wgt id='8601'>0.68841E+03</wgt>
<wgt id='8602'>0.71348E+03</wgt>
<wgt id='9000'>0.67469E+03</wgt>
<wgt id='9001'>0.67385E+03</wgt>
<wgt id='9002'>0.67748E+03</wgt>
<wgt id='9003'>0.67022E+03</wgt>
<wgt id='9004'>0.67484E+03</wgt>
<wgt id='9005'>0.67896E+03</wgt>
<wgt id='9006'>0.67284E+03</wgt>
<wgt id='9007'>0.66925E+03</wgt>
<wgt id='9008'>0.67282E+03</wgt>
<wgt id='9009'>0.67499E+03</wgt>
<wgt id='9010'>0.66965E+03</wgt>
<wgt id='9011'>0.68188E+03</wgt>
<wgt id='9012'>0.67943E+03</wgt>
<wgt id='9013'>0.66792E+03</wgt>
<wgt id='9014'>0.67475E+03</wgt>
<wgt id='9015'>0.67379E+03</wgt>
<wgt id='9016'>0.68478E+03</wgt>
<wgt id='9017'>0.66980E+03</wgt>
<wgt id='9018'>0.67348E+03</wgt>
<wgt id='9019'>0.67524E+03</wgt>
<wgt id='9020'>0.67934E+03</wgt>
<wgt id='9021'>0.67389E+03</wgt>
<wgt id='9022'>0.67640E+03</wgt>
<wgt id='9023'>0.67052E+03</wgt>
<wgt id='9024'>0.67320E+03</wgt>
<wgt id='9025'>0.67533E+03</wgt>
<wgt id='9026'>0.67451E+03</wgt>
<wgt id='9027'>0.67417E+03</wgt>
<wgt id='9028'>0.67517E+03</wgt>
<wgt id='9029'>0.67569E+03</wgt>
<wgt id='9030'>0.67524E+03</wgt>
<wgt id='9031'>0.67388E+03</wgt>
<wgt id='9032'>0.67515E+03</wgt>
<wgt id='9033'>0.67526E+03</wgt>
<wgt id='9034'>0.67496E+03</wgt>
<wgt id='9035'>0.67538E+03</wgt>
<wgt id='9036'>0.67496E+03</wgt>
<wgt id='9037'>0.67518E+03</wgt>
<wgt id='9038'>0.67513E+03</wgt>
<wgt id='9039'>0.67464E+03</wgt>
<wgt id='9040'>0.67430E+03</wgt>
<wgt id='9041'>0.67472E+03</wgt>
<wgt id='9042'>0.67477E+03</wgt>
<wgt id='9043'>0.67388E+03</wgt>
<wgt id='9044'>0.67487E+03</wgt>
<wgt id='9045'>0.67489E+03</wgt>
<wgt id='9046'>0.67384E+03</wgt>
<wgt id='9047'>0.67488E+03</wgt>
<wgt id='9048'>0.67500E+03</wgt>
<wgt id='9049'>0.67429E+03</wgt>
<wgt id='9050'>0.67474E+03</wgt>
<wgt id='9051'>0.67515E+03</wgt>
<wgt id='9052'>0.67514E+03</wgt>
<wgt id='9053'>0.67465E+03</wgt>
<wgt id='9054'>0.67441E+03</wgt>
<wgt id='9055'>0.67438E+03</wgt>
<wgt id='9056'>0.67523E+03</wgt>
<wgt id='9057'>0.67482E+03</wgt>
<wgt id='9058'>0.67386E+03</wgt>
<wgt id='9059'>0.67430E+03</wgt>
<wgt id='9060'>0.67438E+03</wgt>
<wgt id='9061'>0.67475E+03</wgt>
<wgt id='9062'>0.67481E+03</wgt>
<wgt id='9063'>0.67493E+03</wgt>
<wgt id='9064'>0.67463E+03</wgt>
<wgt id='9065'>0.67456E+03</wgt>
<wgt id='9066'>0.67472E+03</wgt>
<wgt id='9067'>0.67492E+03</wgt>
<wgt id='9068'>0.67487E+03</wgt>
<wgt id='9069'>0.67523E+03</wgt>
<wgt id='9070'>0.67452E+03</wgt>
<wgt id='9071'>0.67520E+03</wgt>
<wgt id='9072'>0.67523E+03</wgt>
<wgt id='9073'>0.67452E+03</wgt>
<wgt id='9074'>0.67480E+03</wgt>
<wgt id='9075'>0.67467E+03</wgt>
<wgt id='9076'>0.67460E+03</wgt>
<wgt id='9077'>0.67488E+03</wgt>
<wgt id='9078'>0.67470E+03</wgt>
<wgt id='9079'>0.67459E+03</wgt>
<wgt id='9080'>0.67540E+03</wgt>
<wgt id='9081'>0.67465E+03</wgt>
<wgt id='9082'>0.67492E+03</wgt>
<wgt id='9083'>0.67443E+03</wgt>
<wgt id='9084'>0.67437E+03</wgt>
<wgt id='9085'>0.67434E+03</wgt>
<wgt id='9086'>0.67489E+03</wgt>
<wgt id='9087'>0.67402E+03</wgt>
<wgt id='9088'>0.67442E+03</wgt>
<wgt id='9089'>0.67443E+03</wgt>
<wgt id='9090'>0.67481E+03</wgt>
<wgt id='9091'>0.67451E+03</wgt>
<wgt id='9092'>0.67461E+03</wgt>
<wgt id='9093'>0.67453E+03</wgt>
<wgt id='9094'>0.67454E+03</wgt>
<wgt id='9095'>0.67476E+03</wgt>
<wgt id='9096'>0.67455E+03</wgt>
<wgt id='9097'>0.67476E+03</wgt>
<wgt id='9098'>0.67463E+03</wgt>
<wgt id='9099'>0.67450E+03</wgt>
<wgt id='9100'>0.67470E+03</wgt>
<wgt id='9101'>0.66309E+03</wgt>
<wgt id='9102'>0.68661E+03</wgt>
<wgt id='10000'>0.70122E+03</wgt>
<wgt id='10001'>0.70614E+03</wgt>
<wgt id='10002'>0.69311E+03</wgt>
<wgt id='10003'>0.70061E+03</wgt>
<wgt id='10004'>0.68563E+03</wgt>
<wgt id='10005'>0.70967E+03</wgt>
<wgt id='10006'>0.69722E+03</wgt>
<wgt id='10007'>0.70081E+03</wgt>
<wgt id='10008'>0.70419E+03</wgt>
<wgt id='10009'>0.69762E+03</wgt>
<wgt id='10010'>0.70416E+03</wgt>
<wgt id='10011'>0.69670E+03</wgt>
<wgt id='10012'>0.70194E+03</wgt>
<wgt id='10013'>0.70247E+03</wgt>
<wgt id='10014'>0.69943E+03</wgt>
<wgt id='10015'>0.70043E+03</wgt>
<wgt id='10016'>0.69727E+03</wgt>
<wgt id='10017'>0.70928E+03</wgt>
<wgt id='10018'>0.70251E+03</wgt>
<wgt id='10019'>0.69996E+03</wgt>
<wgt id='10020'>0.69883E+03</wgt>
<wgt id='10021'>0.70040E+03</wgt>
<wgt id='10022'>0.70066E+03</wgt>
<wgt id='10023'>0.70156E+03</wgt>
<wgt id='10024'>0.69987E+03</wgt>
<wgt id='10025'>0.70033E+03</wgt>
<wgt id='10026'>0.70484E+03</wgt>
<wgt id='10027'>0.70371E+03</wgt>
<wgt id='10028'>0.71157E+03</wgt>
<wgt id='10029'>0.70174E+03</wgt>
<wgt id='10030'>0.70087E+03</wgt>
<wgt id='10031'>0.68841E+03</wgt>
<wgt id='10032'>0.71348E+03</wgt>
<wgt id='11000'>0.67471E+03</wgt>
<wgt id='11001'>0.66167E+03</wgt>
<wgt id='11002'>0.67797E+03</wgt>
<wgt id='11003'>0.67424E+03</wgt>
<wgt id='11004'>0.67892E+03</wgt>
<wgt id='11005'>0.67187E+03</wgt>
<wgt id='11006'>0.67529E+03</wgt>
<wgt id='11007'>0.67318E+03</wgt>
<wgt id='11008'>0.67437E+03</wgt>
<wgt id='11009'>0.67238E+03</wgt>
<wgt id='11010'>0.66901E+03</wgt>
<wgt id='11011'>0.67276E+03</wgt>
<wgt id='11012'>0.67508E+03</wgt>
<wgt id='11013'>0.67607E+03</wgt>
<wgt id='11014'>0.67340E+03</wgt>
<wgt id='11015'>0.67424E+03</wgt>
<wgt id='11016'>0.67432E+03</wgt>
<wgt id='11017'>0.67862E+03</wgt>
<wgt id='11018'>0.67401E+03</wgt>
<wgt id='11019'>0.67403E+03</wgt>
<wgt id='11020'>0.67749E+03</wgt>
<wgt id='11021'>0.67567E+03</wgt>
<wgt id='11022'>0.68408E+03</wgt>
<wgt id='11023'>0.67532E+03</wgt>
<wgt id='11024'>0.67597E+03</wgt>
<wgt id='11025'>0.67526E+03</wgt>
<wgt id='11026'>0.67479E+03</wgt>
<wgt id='11027'>0.67470E+03</wgt>
<wgt id='11028'>0.67583E+03</wgt>
<wgt id='11029'>0.67587E+03</wgt>
<wgt id='11030'>0.67458E+03</wgt>
<wgt id='11031'>0.66309E+03</wgt>
<wgt id='11032'>0.68661E+03</wgt>
<wgt id='12000'>0.68462E+03</wgt>
<wgt id='12001'>0.68361E+03</wgt>
<wgt id='12002'>0.68563E+03</wgt>
<wgt id='12003'>0.68511E+03</wgt>
<wgt id='12004'>0.68414E+03</wgt>
<wgt id='12005'>0.68580E+03</wgt>
<wgt id='12006'>0.68345E+03</wgt>
<wgt id='12007'>0.68857E+03</wgt>
<wgt id='12008'>0.68077E+03</wgt>
<wgt id='12009'>0.68392E+03</wgt>
<wgt id='12010'>0.68535E+03</wgt>
<wgt id='12011'>0.68004E+03</wgt>
<wgt id='12012'>0.68976E+03</wgt>
<wgt id='12013'>0.68215E+03</wgt>
<wgt id='12014'>0.68714E+03</wgt>
<wgt id='12015'>0.68528E+03</wgt>
<wgt id='12016'>0.68256E+03</wgt>
<wgt id='12017'>0.68830E+03</wgt>
<wgt id='12018'>0.68235E+03</wgt>
<wgt id='12019'>0.68391E+03</wgt>
<wgt id='12020'>0.68467E+03</wgt>
<wgt id='12021'>0.68598E+03</wgt>
<wgt id='12022'>0.68322E+03</wgt>
<wgt id='12023'>0.67916E+03</wgt>
<wgt id='12024'>0.68856E+03</wgt>
<wgt id='12025'>0.68324E+03</wgt>
<wgt id='12026'>0.68641E+03</wgt>
<wgt id='12027'>0.69238E+03</wgt>
<wgt id='12028'>0.67756E+03</wgt>
<wgt id='12050'>0.68462E+03</wgt>
<wgt id='12051'>0.68532E+03</wgt>
<wgt id='12052'>0.67888E+03</wgt>
<wgt id='12053'>0.68541E+03</wgt>
<wgt id='12054'>0.68017E+03</wgt>
<wgt id='12055'>0.68411E+03</wgt>
<wgt id='12056'>0.68398E+03</wgt>
<wgt id='12057'>0.68184E+03</wgt>
<wgt id='12058'>0.68413E+03</wgt>
<wgt id='12059'>0.68637E+03</wgt>
<wgt id='12060'>0.67957E+03</wgt>
<wgt id='12061'>0.68075E+03</wgt>
<wgt id='12062'>0.68044E+03</wgt>
<wgt id='12063'>0.67763E+03</wgt>
<wgt id='13000'>0.66419E+03</wgt>
<wgt id='13001'>0.66058E+03</wgt>
<wgt id='13002'>0.66210E+03</wgt>
<wgt id='13003'>0.66110E+03</wgt>
<wgt id='13004'>0.66158E+03</wgt>
<wgt id='13005'>0.66226E+03</wgt>
<wgt id='13006'>0.66042E+03</wgt>
<wgt id='13007'>0.66582E+03</wgt>
<wgt id='13008'>0.65698E+03</wgt>
<wgt id='13009'>0.65841E+03</wgt>
<wgt id='13010'>0.66438E+03</wgt>
<wgt id='13011'>0.66376E+03</wgt>
<wgt id='13012'>0.65895E+03</wgt>
<wgt id='13013'>0.66023E+03</wgt>
<wgt id='13014'>0.66238E+03</wgt>
<wgt id='13015'>0.66030E+03</wgt>
<wgt id='13016'>0.66031E+03</wgt>
<wgt id='13017'>0.66175E+03</wgt>
<wgt id='13018'>0.66096E+03</wgt>
<wgt id='13019'>0.65978E+03</wgt>
<wgt id='13020'>0.66299E+03</wgt>
<wgt id='13021'>0.66156E+03</wgt>
<wgt id='13022'>0.66098E+03</wgt>
<wgt id='13023'>0.65904E+03</wgt>
<wgt id='13024'>0.66375E+03</wgt>
<wgt id='13025'>0.65353E+03</wgt>
<wgt id='13026'>0.66854E+03</wgt>
<wgt id='13027'>0.65828E+03</wgt>
<wgt id='13028'>0.66484E+03</wgt>
<wgt id='13050'>0.66419E+03</wgt>
<wgt id='13051'>0.66393E+03</wgt>
<wgt id='13052'>0.65570E+03</wgt>
<wgt id='13053'>0.66367E+03</wgt>
<wgt id='13054'>0.65933E+03</wgt>
<wgt id='13055'>0.65421E+03</wgt>
<wgt id='13056'>0.65650E+03</wgt>
<wgt id='13057'>0.66029E+03</wgt>
<wgt id='13058'>0.66437E+03</wgt>
<wgt id='13059'>0.66317E+03</wgt>
<wgt id='13060'>0.64876E+03</wgt>
<wgt id='13061'>0.65952E+03</wgt>
<wgt id='13062'>0.66548E+03</wgt>
<wgt id='13063'>0.66238E+03</wgt>
<wgt id='14000'>0.67697E+03</wgt>
<wgt id='14001'>0.67689E+03</wgt>
<wgt id='14002'>0.67681E+03</wgt>
<wgt id='14003'>0.67673E+03</wgt>
<wgt id='14004'>0.67666E+03</wgt>
<wgt id='14005'>0.67658E+03</wgt>
<wgt id='14006'>0.67650E+03</wgt>
<wgt id='14007'>0.67642E+03</wgt>
<wgt id='14008'>0.67635E+03</wgt>
<wgt id='14009'>0.67627E+03</wgt>
<wgt id='14010'>0.67619E+03</wgt>
<wgt id='14011'>0.67611E+03</wgt>
<wgt id='14012'>0.67603E+03</wgt>
<wgt id='14013'>0.67596E+03</wgt>
<wgt id='14014'>0.67588E+03</wgt>
<wgt id='14015'>0.67580E+03</wgt>
<wgt id='14016'>0.67572E+03</wgt>
<wgt id='14017'>0.67565E+03</wgt>
<wgt id='14018'>0.67557E+03</wgt>
<wgt id='14019'>0.67549E+03</wgt>
<wgt id='14020'>0.67541E+03</wgt>
<wgt id='14021'>0.67534E+03</wgt>
<wgt id='14022'>0.67526E+03</wgt>
<wgt id='14023'>0.67518E+03</wgt>
<wgt id='14024'>0.67510E+03</wgt>
<wgt id='14025'>0.67502E+03</wgt>
<wgt id='14026'>0.67494E+03</wgt>
<wgt id='14027'>0.67487E+03</wgt>
<wgt id='14028'>0.67479E+03</wgt>
<wgt id='14029'>0.67471E+03</wgt>
<wgt id='14030'>0.67463E+03</wgt>
<wgt id='15000'>0.66719E+03</wgt>
<wgt id='15001'>0.66635E+03</wgt>
<wgt id='15002'>0.66992E+03</wgt>
<wgt id='15003'>0.66281E+03</wgt>
<wgt id='15004'>0.66735E+03</wgt>
<wgt id='15005'>0.67145E+03</wgt>
<wgt id='15006'>0.66537E+03</wgt>
<wgt id='15007'>0.66177E+03</wgt>
<wgt id='15008'>0.66532E+03</wgt>
<wgt id='15009'>0.66751E+03</wgt>
<wgt id='15010'>0.66221E+03</wgt>
<wgt id='15011'>0.67433E+03</wgt>
<wgt id='15012'>0.67189E+03</wgt>
<wgt id='15013'>0.66049E+03</wgt>
<wgt id='15014'>0.66719E+03</wgt>
<wgt id='15015'>0.66622E+03</wgt>
<wgt id='15016'>0.67722E+03</wgt>
<wgt id='15017'>0.66237E+03</wgt>
<wgt id='15018'>0.66597E+03</wgt>
<wgt id='15019'>0.66774E+03</wgt>
<wgt id='15020'>0.67179E+03</wgt>
<wgt id='15021'>0.66630E+03</wgt>
<wgt id='15022'>0.66890E+03</wgt>
<wgt id='15023'>0.66303E+03</wgt>
<wgt id='15024'>0.66570E+03</wgt>
<wgt id='15025'>0.66780E+03</wgt>
<wgt id='15026'>0.66699E+03</wgt>
<wgt id='15027'>0.66667E+03</wgt>
<wgt id='15028'>0.66767E+03</wgt>
<wgt id='15029'>0.66819E+03</wgt>
<wgt id='15030'>0.66772E+03</wgt>
<wgt id='15031'>0.66640E+03</wgt>
<wgt id='15032'>0.66765E+03</wgt>
<wgt id='15033'>0.66777E+03</wgt>
<wgt id='15034'>0.66745E+03</wgt>
<wgt id='15035'>0.66788E+03</wgt>
<wgt id='15036'>0.66745E+03</wgt>
<wgt id='15037'>0.66768E+03</wgt>
<wgt id='15038'>0.66762E+03</wgt>
<wgt id='15039'>0.66713E+03</wgt>
<wgt id='15040'>0.66680E+03</wgt>
<wgt id='15041'>0.66720E+03</wgt>
<wgt id='15042'>0.66725E+03</wgt>
<wgt id='15043'>0.66640E+03</wgt>
<wgt id='15044'>0.66737E+03</wgt>
<wgt id='15045'>0.66738E+03</wgt>
<wgt id='15046'>0.66634E+03</wgt>
<wgt id='15047'>0.66736E+03</wgt>
<wgt id='15048'>0.66749E+03</wgt>
<wgt id='15049'>0.66679E+03</wgt>
<wgt id='15050'>0.66724E+03</wgt>
<wgt id='15051'>0.66765E+03</wgt>
<wgt id='15052'>0.66763E+03</wgt>
<wgt id='15053'>0.66716E+03</wgt>
<wgt id='15054'>0.66692E+03</wgt>
<wgt id='15055'>0.66689E+03</wgt>
<wgt id='15056'>0.66772E+03</wgt>
<wgt id='15057'>0.66732E+03</wgt>
<wgt id='15058'>0.66638E+03</wgt>
<wgt id='15059'>0.66681E+03</wgt>
<wgt id='15060'>0.66688E+03</wgt>
<wgt id='15061'>0.66725E+03</wgt>
<wgt id='15062'>0.66731E+03</wgt>
<wgt id='15063'>0.66743E+03</wgt>
<wgt id='15064'>0.66712E+03</wgt>
<wgt id='15065'>0.66706E+03</wgt>
<wgt id='15066'>0.66722E+03</wgt>
<wgt id='15067'>0.66741E+03</wgt>
<wgt id='15068'>0.66737E+03</wgt>
<wgt id='15069'>0.66772E+03</wgt>
<wgt id='15070'>0.66702E+03</wgt>
<wgt id='15071'>0.66770E+03</wgt>
<wgt id='15072'>0.66773E+03</wgt>
<wgt id='15073'>0.66701E+03</wgt>
<wgt id='15074'>0.66730E+03</wgt>
<wgt id='15075'>0.66717E+03</wgt>
<wgt id='15076'>0.66711E+03</wgt>
<wgt id='15077'>0.66738E+03</wgt>
<wgt id='15078'>0.66721E+03</wgt>
<wgt id='15079'>0.66708E+03</wgt>
<wgt id='15080'>0.66789E+03</wgt>
<wgt id='15081'>0.66715E+03</wgt>
<wgt id='15082'>0.66742E+03</wgt>
<wgt id='15083'>0.66693E+03</wgt>
<wgt id='15084'>0.66687E+03</wgt>
<wgt id='15085'>0.66685E+03</wgt>
<wgt id='15086'>0.66739E+03</wgt>
<wgt id='15087'>0.66652E+03</wgt>
<wgt id='15088'>0.66692E+03</wgt>
<wgt id='15089'>0.66693E+03</wgt>
<wgt id='15090'>0.66731E+03</wgt>
<wgt id='15091'>0.66701E+03</wgt>
<wgt id='15092'>0.66711E+03</wgt>
<wgt id='15093'>0.66703E+03</wgt>
<wgt id='15094'>0.66704E+03</wgt>
<wgt id='15095'>0.66726E+03</wgt>
<wgt id='15096'>0.66705E+03</wgt>
<wgt id='15097'>0.66726E+03</wgt>
<wgt id='15098'>0.66713E+03</wgt>
<wgt id='15099'>0.66700E+03</wgt>
<wgt id='15100'>0.66720E+03</wgt>
<wgt id='15101'>0.66718E+03</wgt>
<wgt id='15102'>0.66714E+03</wgt>
<wgt id='15103'>0.66720E+03</wgt>
<wgt id='15104'>0.66720E+03</wgt>
<wgt id='15105'>0.66721E+03</wgt>
<wgt id='15106'>0.66719E+03</wgt>
<wgt id='15107'>0.66716E+03</wgt>
<wgt id='1500'>0.72814E+03</wgt>
<wgt id='1501'>0.71700E+03</wgt>
<wgt id='1502'>0.72304E+03</wgt>
<wgt id='1503'>0.73423E+03</wgt>
<wgt id='1504'>0.71927E+03</wgt>
<wgt id='1505'>0.69022E+03</wgt>
<wgt id='1506'>0.75222E+03</wgt>
<wgt id='1507'>0.72468E+03</wgt>
<wgt id='1508'>0.74011E+03</wgt>
<wgt id='1509'>0.74195E+03</wgt>
<wgt id='1510'>0.69521E+03</wgt>
<wgt id='1511'>0.67260E+03</wgt>
<wgt id='1512'>0.74331E+03</wgt>
<wgt id='1513'>0.74277E+03</wgt>
<wgt id='1514'>0.71001E+03</wgt>
<wgt id='1515'>0.74850E+03</wgt>
<wgt id='1516'>0.73769E+03</wgt>
<wgt id='1517'>0.73142E+03</wgt>
<wgt id='1518'>0.73886E+03</wgt>
<wgt id='1519'>0.74593E+03</wgt>
<wgt id='1520'>0.76449E+03</wgt>
<wgt id='1521'>0.73627E+03</wgt>
<wgt id='1522'>0.70755E+03</wgt>
<wgt id='1523'>0.77970E+03</wgt>
<wgt id='1524'>0.72459E+03</wgt>
<wgt id='1525'>0.72322E+03</wgt>
<wgt id='1526'>0.73328E+03</wgt>
<wgt id='1527'>0.73102E+03</wgt>
<wgt id='1528'>0.71587E+03</wgt>
<wgt id='1529'>0.74119E+03</wgt>
<wgt id='1530'>0.75210E+03</wgt>
<wgt id='1531'>0.71755E+03</wgt>
<wgt id='1532'>0.70299E+03</wgt>
<wgt id='1533'>0.70845E+03</wgt>
<wgt id='1534'>0.72247E+03</wgt>
<wgt id='1535'>0.74317E+03</wgt>
<wgt id='1536'>0.73276E+03</wgt>
<wgt id='1537'>0.74339E+03</wgt>
<wgt id='1538'>0.74339E+03</wgt>
<wgt id='1539'>0.72649E+03</wgt>
<wgt id='1540'>0.72020E+03</wgt>
<wgt id='1541'>0.74045E+03</wgt>
<wgt id='1542'>0.71963E+03</wgt>
<wgt id='1543'>0.71943E+03</wgt>
<wgt id='1544'>0.72244E+03</wgt>
<wgt id='1545'>0.70903E+03</wgt>
<wgt id='1546'>0.74691E+03</wgt>
<wgt id='1547'>0.72292E+03</wgt>
<wgt id='1548'>0.73044E+03</wgt>
<wgt id='1549'>0.71711E+03</wgt>
<wgt id='1550'>0.71715E+03</wgt>
<wgt id='1551'>0.71975E+03</wgt>
<wgt id='1552'>0.71059E+03</wgt>
<wgt id='1553'>0.73053E+03</wgt>
<wgt id='1554'>0.73487E+03</wgt>
<wgt id='1555'>0.71235E+03</wgt>
<wgt id='1556'>0.72199E+03</wgt>
<wgt id='1557'>0.74500E+03</wgt>
<wgt id='1558'>0.70951E+03</wgt>
<wgt id='1559'>0.74503E+03</wgt>
<wgt id='1560'>0.72596E+03</wgt>
<wgt id='1561'>0.72732E+03</wgt>
<wgt id='1562'>0.73178E+03</wgt>
<wgt id='1563'>0.72254E+03</wgt>
<wgt id='1564'>0.71291E+03</wgt>
<wgt id='1565'>0.73417E+03</wgt>
<wgt id='1566'>0.71911E+03</wgt>
<wgt id='1567'>0.79293E+03</wgt>
<wgt id='1568'>0.72081E+03</wgt>
<wgt id='1569'>0.70293E+03</wgt>
<wgt id='1570'>0.70726E+03</wgt>
<wgt id='1571'>0.71796E+03</wgt>
<wgt id='1572'>0.73790E+03</wgt>
<wgt id='1573'>0.70407E+03</wgt>
<wgt id='1574'>0.73316E+03</wgt>
<wgt id='1575'>0.72514E+03</wgt>
<wgt id='1576'>0.70071E+03</wgt>
<wgt id='1577'>0.71998E+03</wgt>
<wgt id='1578'>0.74501E+03</wgt>
<wgt id='1579'>0.72438E+03</wgt>
<wgt id='1580'>0.72150E+03</wgt>
<wgt id='1581'>0.72596E+03</wgt>
<wgt id='1582'>0.70809E+03</wgt>
<wgt id='1583'>0.76502E+03</wgt>
<wgt id='1584'>0.72156E+03</wgt>
<wgt id='1585'>0.71613E+03</wgt>
<wgt id='1586'>0.71765E+03</wgt>
<wgt id='1587'>0.72380E+03</wgt>
<wgt id='1588'>0.72753E+03</wgt>
<wgt id='1589'>0.77142E+03</wgt>
<wgt id='1590'>0.71529E+03</wgt>
<wgt id='1591'>0.73011E+03</wgt>
<wgt id='1592'>0.72544E+03</wgt>
<wgt id='1593'>0.73513E+03</wgt>
<wgt id='1594'>0.73777E+03</wgt>
<wgt id='1595'>0.71278E+03</wgt>
<wgt id='1596'>0.74230E+03</wgt>
<wgt id='1597'>0.72978E+03</wgt>
<wgt id='1598'>0.73869E+03</wgt>
<wgt id='1599'>0.74442E+03</wgt>
<wgt id='1600'>0.75409E+03</wgt>
<wgt id='1601'>0.71900E+03</wgt>
<wgt id='1602'>0.73466E+03</wgt>
<wgt id='1700'>0.68707E+03</wgt>
<wgt id='1800'>0.67632E+03</wgt>
<wgt id='1850'>0.80843E+03</wgt>
<wgt id='1900'>0.74378E+03</wgt>
<wgt id='1950'>0.78638E+03</wgt>
</rwgt>
</event>
<event>
     13 322222  6.87070E+02  2.29644E+01 -1.00000E+00  1.58837E-01
      21    -1     0     0   502   503  0.000000000E+00  0.000000000E+00  2.943018771E+02  2.943018771E+02  0.000000000E+00  0.00000E+00  9.000E+00
       3    -1     0     0   503     0  0.000000000E+00  0.000000000E+00 -4.696941989E+02  4.696941989E+02  0.000000000E+00  0.00000E+00  9.000E+00
       6     2     1     2   502     0 -2.821327456E+01  4.982322626E+01  1.381615529E+01  1.812588306E+02  1.714220954E+02  0.00000E+00  9.000E+00
      -6     2     1     2     0   512  2.789591877E+01 -2.686098767E+01  1.562110314E+02  2.365551517E+02  1.733688511E+02  0.00000E+00  9.000E+00
       3     1     1     2   512     0  3.173557901E-01 -2.296223859E+01 -3.454195085E+02  3.461820937E+02  2.000000000E-01  0.00000E+00  9.000E+00
      24     2     3     3     0     0  3.290204958E+01  7.440428331E+01 -8.727318593E-01  1.135970643E+02  7.927792328E+01  0.00000E+00  9.000E+00
       5     1     3     3   502     0 -6.111532414E+01 -2.458105705E+01  1.468888715E+01  6.766176628E+01  4.800000000E+00  0.00000E+00 -1.000E+00
     -24     2     4     4     0     0 -2.765721549E+01  2.395262076E+01  3.929369733E+01  9.741178493E+01  8.127983503E+01  0.00000E+00  9.000E+00
      -5     1     4     4     0   512  5.555313426E+01 -5.081360843E+01  1.169173341E+02  1.391433668E+02  4.800000000E+00  0.00000E+00  1.000E+00
      -3     1     6     6     0   513 -1.040222955E+01  3.591903934E+01 -3.073218406E+01  4.840341831E+01  2.000000000E-01  0.00000E+00  1.000E+00
       4     1     6     6   513     0  4.330427913E+01  3.848524397E+01  2.985945220E+01  6.519364601E+01  1.500000000E+00  0.00000E+00 -1.000E+00
       1     1     8     8   514     0 -1.190608407E+01 -1.952566054E+01 -1.402933979E+01  2.682980866E+01  1.000000000E-01  0.00000E+00 -1.000E+00
      -2     1     8     8     0   514 -1.575113142E+01  4.347828130E+01  5.332303713E+01  7.058197627E+01  1.000000000E-01  0.00000E+00  1.000E+00
#rwgt            1           1   411.49870796084502                1         898           0
<rwgt>
<wgt id='1001'>0.68707E+03</wgt>
<wgt id='1002'>0.74796E+03</wgt>
<wgt id='1003'>0.62031E+03</wgt>
<wgt id='1004'>0.57746E+03</wgt>
<wgt id='1005'>0.62190E+03</wgt>
<wgt id='1006'>0.52834E+03</wgt>
<wgt id='1007'>0.83212E+03</wgt>
<wgt id='1008'>0.91770E+03</wgt>
<wgt id='1009'>0.73897E+03</wgt>
<wgt id='2000'>0.68707E+03</wgt>
<wgt id='2001'>0.68620E+03</wgt>
<wgt id='2002'>0.68837E+03</wgt>
<wgt id='2003'>0.68836E+03</wgt>
<wgt id='2004'>0.68848E+03</wgt>
<wgt id='2005'>0.68576E+03</wgt>
<wgt id='2006'>0.68492E+03</wgt>
<wgt id='2007'>0.68377E+03</wgt>
<wgt id='2008'>0.68387E+03</wgt>
<wgt id='2009'>0.68850E+03</wgt>
<wgt id='2010'>0.68732E+03</wgt>
<wgt id='2011'>0.68657E+03</wgt>
<wgt id='2012'>0.68859E+03</wgt>
<wgt id='2013'>0.68924E+03</wgt>
<wgt id='2014'>0.69019E+03</wgt>
<wgt id='2015'>0.68885E+03</wgt>
<wgt id='2016'>0.68718E+03</wgt>
<wgt id='2017'>0.68695E+03</wgt>
<wgt id='2018'>0.68948E+03</wgt>
<wgt id='2019'>0.68702E+03</wgt>
<wgt id='2020'>0.69064E+03</wgt>
<wgt id='2021'>0.68529E+03</wgt>
<wgt id='2022'>0.68946E+03</wgt>
<wgt id='2023'>0.68869E+03</wgt>
<wgt id='2024'>0.68688E+03</wgt>
<wgt id='2025'>0.68966E+03</wgt>
<wgt id='2026'>0.68901E+03</wgt>
<wgt id='2027'>0.68617E+03</wgt>
<wgt id='2028'>0.68567E+03</wgt>
<wgt id='2029'>0.68843E+03</wgt>
<wgt id='2030'>0.68728E+03</wgt>
<wgt id='2031'>0.68781E+03</wgt>
<wgt id='2032'>0.68684E+03</wgt>
<wgt id='2033'>0.68727E+03</wgt>
<wgt id='2034'>0.68781E+03</wgt>
<wgt id='2035'>0.68691E+03</wgt>
<wgt id='2036'>0.68721E+03</wgt>
<wgt id='2037'>0.68755E+03</wgt>
<wgt id='2038'>0.68703E+03</wgt>
<wgt id='2039'>0.68671E+03</wgt>
<wgt id='2040'>0.68723E+03</wgt>
<wgt id='2041'>0.68695E+03</wgt>
<wgt id='2042'>0.68636E+03</wgt>
<wgt id='2043'>0.68732E+03</wgt>
<wgt id='2044'>0.68760E+03</wgt>
<wgt id='2045'>0.68695E+03</wgt>
<wgt id='2046'>0.68750E+03</wgt>
<wgt id='2047'>0.68761E+03</wgt>
<wgt id='2048'>0.68694E+03</wgt>
<wgt id='2049'>0.68707E+03</wgt>
<wgt id='2050'>0.68730E+03</wgt>
<wgt id='2051'>0.68763E+03</wgt>
<wgt id='2052'>0.68692E+03</wgt>
<wgt id='2053'>0.68706E+03</wgt>
<wgt id='2054'>0.68707E+03</wgt>
<wgt id='2055'>0.68715E+03</wgt>
<wgt id='2056'>0.68710E+03</wgt>
<wgt id='2057'>0.68719E+03</wgt>
<wgt id='2058'>0.68733E+03</wgt>
<wgt id='2059'>0.68702E+03</wgt>
<wgt id='2060'>0.68733E+03</wgt>
<wgt id='2061'>0.68678E+03</wgt>
<wgt id='2062'>0.68685E+03</wgt>
<wgt id='2063'>0.68721E+03</wgt>
<wgt id='2064'>0.68671E+03</wgt>
<wgt id='2065'>0.68702E+03</wgt>
<wgt id='2066'>0.68674E+03</wgt>
<wgt id='2067'>0.68710E+03</wgt>
<wgt id='2068'>0.68724E+03</wgt>
<wgt id='2069'>0.68726E+03</wgt>
<wgt id='2070'>0.68715E+03</wgt>
<wgt id='2071'>0.68687E+03</wgt>
<wgt id='2072'>0.68717E+03</wgt>
<wgt id='2073'>0.68706E+03</wgt>
<wgt id='2074'>0.68720E+03</wgt>
<wgt id='2075'>0.68691E+03</wgt>
<wgt id='2076'>0.68720E+03</wgt>
<wgt id='2077'>0.68687E+03</wgt>
<wgt id='2078'>0.68711E+03</wgt>
<wgt id='2079'>0.68721E+03</wgt>
<wgt id='2080'>0.68703E+03</wgt>
<wgt id='2081'>0.68718E+03</wgt>
<wgt id='2082'>0.68717E+03</wgt>
<wgt id='2083'>0.68692E+03</wgt>
<wgt id='2084'>0.68705E+03</wgt>
<wgt id='2085'>0.68698E+03</wgt>
<wgt id='2086'>0.68704E+03</wgt>
<wgt id='2087'>0.68702E+03</wgt>
<wgt id='2088'>0.68712E+03</wgt>
<wgt id='2089'>0.68715E+03</wgt>
<wgt id='2090'>0.68709E+03</wgt>
<wgt id='2091'>0.68696E+03</wgt>
<wgt id='2092'>0.68698E+03</wgt>
<wgt id='2093'>0.68706E+03</wgt>
<wgt id='2094'>0.68698E+03</wgt>
<wgt id='2095'>0.68705E+03</wgt>
<wgt id='2096'>0.68706E+03</wgt>
<wgt id='2097'>0.68720E+03</wgt>
<wgt id='2098'>0.68697E+03</wgt>
<wgt id='2099'>0.68715E+03</wgt>
<wgt id='2100'>0.68704E+03</wgt>
<wgt id='2101'>0.66656E+03</wgt>
<wgt id='2102'>0.70560E+03</wgt>
<wgt id='2104'>0.59679E+03</wgt>
<wgt id='2105'>0.61314E+03</wgt>
<wgt id='2106'>0.63333E+03</wgt>
<wgt id='2107'>0.65249E+03</wgt>
<wgt id='2108'>0.67910E+03</wgt>
<wgt id='2109'>0.69809E+03</wgt>
<wgt id='2110'>0.72128E+03</wgt>
<wgt id='2111'>0.73996E+03</wgt>
<wgt id='3000'>0.71725E+03</wgt>
<wgt id='3001'>0.71859E+03</wgt>
<wgt id='3002'>0.71630E+03</wgt>
<wgt id='3003'>0.71866E+03</wgt>
<wgt id='3004'>0.71883E+03</wgt>
<wgt id='3005'>0.71995E+03</wgt>
<wgt id='3006'>0.71745E+03</wgt>
<wgt id='3007'>0.71977E+03</wgt>
<wgt id='3008'>0.71613E+03</wgt>
<wgt id='3009'>0.71923E+03</wgt>
<wgt id='3010'>0.71532E+03</wgt>
<wgt id='3011'>0.71665E+03</wgt>
<wgt id='3012'>0.72013E+03</wgt>
<wgt id='3013'>0.71541E+03</wgt>
<wgt id='3014'>0.71963E+03</wgt>
<wgt id='3015'>0.71706E+03</wgt>
<wgt id='3016'>0.71779E+03</wgt>
<wgt id='3017'>0.71966E+03</wgt>
<wgt id='3018'>0.71927E+03</wgt>
<wgt id='3019'>0.71428E+03</wgt>
<wgt id='3020'>0.71504E+03</wgt>
<wgt id='3021'>0.71405E+03</wgt>
<wgt id='3022'>0.71703E+03</wgt>
<wgt id='3023'>0.71549E+03</wgt>
<wgt id='3024'>0.71504E+03</wgt>
<wgt id='3025'>0.71740E+03</wgt>
<wgt id='3026'>0.71864E+03</wgt>
<wgt id='3027'>0.71754E+03</wgt>
<wgt id='3028'>0.71480E+03</wgt>
<wgt id='3029'>0.71642E+03</wgt>
<wgt id='3030'>0.71872E+03</wgt>
<wgt id='3031'>0.71795E+03</wgt>
<wgt id='3032'>0.71794E+03</wgt>
<wgt id='3033'>0.71822E+03</wgt>
<wgt id='3034'>0.71762E+03</wgt>
<wgt id='3035'>0.71829E+03</wgt>
<wgt id='3036'>0.71757E+03</wgt>
<wgt id='3037'>0.71729E+03</wgt>
<wgt id='3038'>0.71728E+03</wgt>
<wgt id='3039'>0.71702E+03</wgt>
<wgt id='3040'>0.71729E+03</wgt>
<wgt id='3041'>0.71753E+03</wgt>
<wgt id='3042'>0.71653E+03</wgt>
<wgt id='3043'>0.71659E+03</wgt>
<wgt id='3044'>0.71743E+03</wgt>
<wgt id='3045'>0.71772E+03</wgt>
<wgt id='3046'>0.71767E+03</wgt>
<wgt id='3047'>0.71712E+03</wgt>
<wgt id='3048'>0.71762E+03</wgt>
<wgt id='3049'>0.71713E+03</wgt>
<wgt id='3050'>0.71721E+03</wgt>
<wgt id='3051'>0.71800E+03</wgt>
<wgt id='3052'>0.71704E+03</wgt>
<wgt id='3053'>0.71704E+03</wgt>
<wgt id='3054'>0.71714E+03</wgt>
<wgt id='3055'>0.71705E+03</wgt>
<wgt id='3056'>0.71735E+03</wgt>
<wgt id='3057'>0.71694E+03</wgt>
<wgt id='3058'>0.71701E+03</wgt>
<wgt id='3059'>0.71719E+03</wgt>
<wgt id='3060'>0.71736E+03</wgt>
<wgt id='3061'>0.71730E+03</wgt>
<wgt id='3062'>0.71732E+03</wgt>
<wgt id='3063'>0.71749E+03</wgt>
<wgt id='3064'>0.71715E+03</wgt>
<wgt id='3065'>0.71731E+03</wgt>
<wgt id='3066'>0.71734E+03</wgt>
<wgt id='3067'>0.71706E+03</wgt>
<wgt id='3068'>0.71723E+03</wgt>
<wgt id='3069'>0.71703E+03</wgt>
<wgt id='3070'>0.71723E+03</wgt>
<wgt id='3071'>0.71726E+03</wgt>
<wgt id='3072'>0.71736E+03</wgt>
<wgt id='3073'>0.71714E+03</wgt>
<wgt id='3074'>0.71753E+03</wgt>
<wgt id='3075'>0.71732E+03</wgt>
<wgt id='3076'>0.71727E+03</wgt>
<wgt id='3077'>0.71727E+03</wgt>
<wgt id='3078'>0.71737E+03</wgt>
<wgt id='3079'>0.71714E+03</wgt>
<wgt id='3080'>0.71710E+03</wgt>
<wgt id='3081'>0.71716E+03</wgt>
<wgt id='3082'>0.71712E+03</wgt>
<wgt id='3083'>0.71734E+03</wgt>
<wgt id='3084'>0.71722E+03</wgt>
<wgt id='3085'>0.71739E+03</wgt>
<wgt id='3086'>0.71738E+03</wgt>
<wgt id='3087'>0.71722E+03</wgt>
<wgt id='3088'>0.71716E+03</wgt>
<wgt id='3089'>0.71729E+03</wgt>
<wgt id='3090'>0.71732E+03</wgt>
<wgt id='3091'>0.71718E+03</wgt>
<wgt id='3092'>0.71716E+03</wgt>
<wgt id='3093'>0.71730E+03</wgt>
<wgt id='3094'>0.71737E+03</wgt>
<wgt id='3095'>0.71724E+03</wgt>
<wgt id='3096'>0.71706E+03</wgt>
<wgt id='3097'>0.71712E+03</wgt>
<wgt id='3098'>0.71710E+03</wgt>
<wgt id='3099'>0.71730E+03</wgt>
<wgt id='3100'>0.71731E+03</wgt>
<wgt id='3101'>0.69736E+03</wgt>
<wgt id='3102'>0.73833E+03</wgt>
<wgt id='5000'>0.67075E+03</wgt>
<wgt id='5001'>0.67009E+03</wgt>
<wgt id='5002'>0.67164E+03</wgt>
<wgt id='5003'>0.66835E+03</wgt>
<wgt id='5004'>0.66980E+03</wgt>
<wgt id='5005'>0.65399E+03</wgt>
<wgt id='5006'>0.66663E+03</wgt>
<wgt id='5007'>0.66825E+03</wgt>
<wgt id='5008'>0.66700E+03</wgt>
<wgt id='5009'>0.67341E+03</wgt>
<wgt id='5010'>0.66749E+03</wgt>
<wgt id='5011'>0.67085E+03</wgt>
<wgt id='5012'>0.67115E+03</wgt>
<wgt id='5013'>0.66662E+03</wgt>
<wgt id='5014'>0.67894E+03</wgt>
<wgt id='5015'>0.67368E+03</wgt>
<wgt id='5016'>0.66219E+03</wgt>
<wgt id='5017'>0.66367E+03</wgt>
<wgt id='5018'>0.67811E+03</wgt>
<wgt id='5019'>0.67810E+03</wgt>
<wgt id='5020'>0.66368E+03</wgt>
<wgt id='5021'>0.67135E+03</wgt>
<wgt id='5022'>0.67034E+03</wgt>
<wgt id='5023'>0.66862E+03</wgt>
<wgt id='5024'>0.67296E+03</wgt>
<wgt id='5025'>0.67314E+03</wgt>
<wgt id='5026'>0.66875E+03</wgt>
<wgt id='5027'>0.67551E+03</wgt>
<wgt id='5028'>0.66270E+03</wgt>
<wgt id='5029'>0.66175E+03</wgt>
<wgt id='5030'>0.67627E+03</wgt>
<wgt id='5031'>0.66463E+03</wgt>
<wgt id='5032'>0.67973E+03</wgt>
<wgt id='5033'>0.66893E+03</wgt>
<wgt id='5034'>0.67215E+03</wgt>
<wgt id='5035'>0.67193E+03</wgt>
<wgt id='5036'>0.66899E+03</wgt>
<wgt id='5037'>0.65854E+03</wgt>
<wgt id='5038'>0.68413E+03</wgt>
<wgt id='5039'>0.68595E+03</wgt>
<wgt id='5040'>0.66249E+03</wgt>
<wgt id='5041'>0.66808E+03</wgt>
<wgt id='5042'>0.67048E+03</wgt>
<wgt id='5043'>0.67569E+03</wgt>
<wgt id='5044'>0.66155E+03</wgt>
<wgt id='5045'>0.69254E+03</wgt>
<wgt id='5046'>0.65211E+03</wgt>
<wgt id='5047'>0.68065E+03</wgt>
<wgt id='5048'>0.66323E+03</wgt>
<wgt id='5049'>0.67207E+03</wgt>
<wgt id='5050'>0.66977E+03</wgt>
<wgt id='5051'>0.67118E+03</wgt>
<wgt id='5052'>0.67065E+03</wgt>
<wgt id='5053'>0.66626E+03</wgt>
<wgt id='5054'>0.67686E+03</wgt>
<wgt id='5055'>0.66548E+03</wgt>
<wgt id='5056'>0.68023E+03</wgt>
<wgt id='5060'>0.65071E+03</wgt>
<wgt id='5070'>0.68970E+03</wgt>
<wgt id='4000'>0.68716E+03</wgt>
<wgt id='4001'>0.68723E+03</wgt>
<wgt id='4002'>0.68810E+03</wgt>
<wgt id='4003'>0.69184E+03</wgt>
<wgt id='4004'>0.67606E+03</wgt>
<wgt id='4005'>0.68589E+03</wgt>
<wgt id='4006'>0.68845E+03</wgt>
<wgt id='4007'>0.69633E+03</wgt>
<wgt id='4008'>0.67689E+03</wgt>
<wgt id='4009'>0.68090E+03</wgt>
<wgt id='4010'>0.68894E+03</wgt>
<wgt id='4011'>0.70276E+03</wgt>
<wgt id='4012'>0.67657E+03</wgt>
<wgt id='4013'>0.67486E+03</wgt>
<wgt id='4014'>0.69464E+03</wgt>
<wgt id='4015'>0.69963E+03</wgt>
<wgt id='4016'>0.67852E+03</wgt>
<wgt id='4017'>0.67621E+03</wgt>
<wgt id='4018'>0.70009E+03</wgt>
<wgt id='4019'>0.69673E+03</wgt>
<wgt id='4020'>0.67703E+03</wgt>
<wgt id='4021'>0.69014E+03</wgt>
<wgt id='4022'>0.68129E+03</wgt>
<wgt id='4023'>0.68364E+03</wgt>
<wgt id='4024'>0.69064E+03</wgt>
<wgt id='4025'>0.69235E+03</wgt>
<wgt id='4026'>0.68177E+03</wgt>
<wgt id='4027'>0.68663E+03</wgt>
<wgt id='4028'>0.68795E+03</wgt>
<wgt id='4029'>0.68392E+03</wgt>
<wgt id='4030'>0.68831E+03</wgt>
<wgt id='4031'>0.68963E+03</wgt>
<wgt id='4032'>0.68395E+03</wgt>
<wgt id='4033'>0.68278E+03</wgt>
<wgt id='4034'>0.69669E+03</wgt>
<wgt id='4035'>0.68654E+03</wgt>
<wgt id='4036'>0.68793E+03</wgt>
<wgt id='4037'>0.69031E+03</wgt>
<wgt id='4038'>0.68242E+03</wgt>
<wgt id='4039'>0.68801E+03</wgt>
<wgt id='4040'>0.68688E+03</wgt>
<wgt id='4041'>0.68903E+03</wgt>
<wgt id='4042'>0.68599E+03</wgt>
<wgt id='4043'>0.69229E+03</wgt>
<wgt id='4044'>0.68695E+03</wgt>
<wgt id='4045'>0.67905E+03</wgt>
<wgt id='4046'>0.68845E+03</wgt>
<wgt id='4047'>0.68119E+03</wgt>
<wgt id='4048'>0.68133E+03</wgt>
<wgt id='4049'>0.67915E+03</wgt>
<wgt id='4050'>0.67764E+03</wgt>
<wgt id='4051'>0.68769E+03</wgt>
<wgt id='4052'>0.68708E+03</wgt>
<wgt id='4053'>0.67063E+03</wgt>
<wgt id='4054'>0.69631E+03</wgt>
<wgt id='4055'>0.68036E+03</wgt>
<wgt id='4056'>0.69735E+03</wgt>
<wgt id='4060'>0.66657E+03</wgt>
<wgt id='4070'>0.70738E+03</wgt>
<wgt id='4080'>0.61544E+03</wgt>
<wgt id='6000'>0.70740E+03</wgt>
<wgt id='6001'>0.70762E+03</wgt>
<wgt id='6002'>0.70715E+03</wgt>
<wgt id='6003'>0.70806E+03</wgt>
<wgt id='6004'>0.70694E+03</wgt>
<wgt id='6005'>0.71099E+03</wgt>
<wgt id='6006'>0.70409E+03</wgt>
<wgt id='6007'>0.70439E+03</wgt>
<wgt id='6008'>0.71079E+03</wgt>
<wgt id='6009'>0.70840E+03</wgt>
<wgt id='6010'>0.70642E+03</wgt>
<wgt id='6011'>0.70833E+03</wgt>
<wgt id='6012'>0.70540E+03</wgt>
<wgt id='6013'>0.70706E+03</wgt>
<wgt id='6014'>0.70806E+03</wgt>
<wgt id='6015'>0.70582E+03</wgt>
<wgt id='6016'>0.70831E+03</wgt>
<wgt id='6017'>0.70438E+03</wgt>
<wgt id='6018'>0.71098E+03</wgt>
<wgt id='6019'>0.70831E+03</wgt>
<wgt id='6020'>0.70663E+03</wgt>
<wgt id='6021'>0.70595E+03</wgt>
<wgt id='6022'>0.70934E+03</wgt>
<wgt id='6023'>0.70312E+03</wgt>
<wgt id='6024'>0.71032E+03</wgt>
<wgt id='6025'>0.70294E+03</wgt>
<wgt id='6026'>0.71190E+03</wgt>
<wgt id='6027'>0.70831E+03</wgt>
<wgt id='6028'>0.70722E+03</wgt>
<wgt id='6029'>0.70813E+03</wgt>
<wgt id='6030'>0.70665E+03</wgt>
<wgt id='6031'>0.70337E+03</wgt>
<wgt id='6032'>0.71188E+03</wgt>
<wgt id='6033'>0.70991E+03</wgt>
<wgt id='6034'>0.70494E+03</wgt>
<wgt id='6035'>0.70784E+03</wgt>
<wgt id='6036'>0.70666E+03</wgt>
<wgt id='6037'>0.70826E+03</wgt>
<wgt id='6038'>0.70719E+03</wgt>
<wgt id='6039'>0.70624E+03</wgt>
<wgt id='6040'>0.70874E+03</wgt>
<wgt id='6041'>0.70325E+03</wgt>
<wgt id='6042'>0.71210E+03</wgt>
<wgt id='6043'>0.71410E+03</wgt>
<wgt id='6044'>0.70360E+03</wgt>
<wgt id='6045'>0.70672E+03</wgt>
<wgt id='6046'>0.70909E+03</wgt>
<wgt id='6047'>0.71322E+03</wgt>
<wgt id='6048'>0.69541E+03</wgt>
<wgt id='6049'>0.71021E+03</wgt>
<wgt id='6050'>0.70570E+03</wgt>
<wgt id='7000'>0.67369E+03</wgt>
<wgt id='7001'>0.67327E+03</wgt>
<wgt id='7002'>0.67427E+03</wgt>
<wgt id='7003'>0.67590E+03</wgt>
<wgt id='7004'>0.67152E+03</wgt>
<wgt id='7005'>0.67567E+03</wgt>
<wgt id='7006'>0.67291E+03</wgt>
<wgt id='7007'>0.67233E+03</wgt>
<wgt id='7008'>0.67507E+03</wgt>
<wgt id='7009'>0.67430E+03</wgt>
<wgt id='7010'>0.67311E+03</wgt>
<wgt id='7011'>0.67051E+03</wgt>
<wgt id='7012'>0.67507E+03</wgt>
<wgt id='7013'>0.67371E+03</wgt>
<wgt id='7014'>0.67369E+03</wgt>
<wgt id='7015'>0.67300E+03</wgt>
<wgt id='7016'>0.67444E+03</wgt>
<wgt id='7017'>0.67469E+03</wgt>
<wgt id='7018'>0.67315E+03</wgt>
<wgt id='7019'>0.67343E+03</wgt>
<wgt id='7020'>0.67408E+03</wgt>
<wgt id='7021'>0.67266E+03</wgt>
<wgt id='7022'>0.67442E+03</wgt>
<wgt id='7023'>0.68156E+03</wgt>
<wgt id='7024'>0.66634E+03</wgt>
<wgt id='7025'>0.67633E+03</wgt>
<wgt id='7026'>0.66718E+03</wgt>
<wgt id='7027'>0.67519E+03</wgt>
<wgt id='7028'>0.67234E+03</wgt>
<wgt id='7029'>0.67319E+03</wgt>
<wgt id='7030'>0.67554E+03</wgt>
<wgt id='7031'>0.67186E+03</wgt>
<wgt id='7032'>0.67748E+03</wgt>
<wgt id='7033'>0.67376E+03</wgt>
<wgt id='7034'>0.67357E+03</wgt>
<wgt id='7035'>0.67210E+03</wgt>
<wgt id='7036'>0.67440E+03</wgt>
<wgt id='7037'>0.67367E+03</wgt>
<wgt id='7038'>0.67352E+03</wgt>
<wgt id='7039'>0.67214E+03</wgt>
<wgt id='7040'>0.67487E+03</wgt>
<wgt id='7041'>0.67335E+03</wgt>
<wgt id='7042'>0.67334E+03</wgt>
<wgt id='7043'>0.67437E+03</wgt>
<wgt id='7044'>0.66992E+03</wgt>
<wgt id='7045'>0.66452E+03</wgt>
<wgt id='7046'>0.67860E+03</wgt>
<wgt id='7047'>0.67654E+03</wgt>
<wgt id='7048'>0.67228E+03</wgt>
<wgt id='7049'>0.66988E+03</wgt>
<wgt id='7050'>0.67478E+03</wgt>
<wgt id='7060'>0.88668E+03</wgt>
<wgt id='8000'>0.67246E+03</wgt>
<wgt id='8001'>0.67234E+03</wgt>
<wgt id='8002'>0.67267E+03</wgt>
<wgt id='8003'>0.67249E+03</wgt>
<wgt id='8004'>0.67244E+03</wgt>
<wgt id='8005'>0.67110E+03</wgt>
<wgt id='8006'>0.67282E+03</wgt>
<wgt id='8007'>0.67319E+03</wgt>
<wgt id='8008'>0.67392E+03</wgt>
<wgt id='8009'>0.67525E+03</wgt>
<wgt id='8010'>0.67190E+03</wgt>
<wgt id='8011'>0.67243E+03</wgt>
<wgt id='8012'>0.67037E+03</wgt>
<wgt id='8013'>0.67144E+03</wgt>
<wgt id='8014'>0.67349E+03</wgt>
<wgt id='8015'>0.67205E+03</wgt>
<wgt id='8016'>0.67291E+03</wgt>
<wgt id='8017'>0.67263E+03</wgt>
<wgt id='8018'>0.67352E+03</wgt>
<wgt id='8019'>0.67345E+03</wgt>
<wgt id='8020'>0.67103E+03</wgt>
<wgt id='8021'>0.67219E+03</wgt>
<wgt id='8022'>0.66978E+03</wgt>
<wgt id='8023'>0.67252E+03</wgt>
<wgt id='8024'>0.67196E+03</wgt>
<wgt id='8025'>0.67353E+03</wgt>
<wgt id='8026'>0.67369E+03</wgt>
<wgt id='8027'>0.67222E+03</wgt>
<wgt id='8028'>0.67304E+03</wgt>
<wgt id='8029'>0.66889E+03</wgt>
<wgt id='8500'>0.70468E+03</wgt>
<wgt id='8501'>0.70192E+03</wgt>
<wgt id='8502'>0.71208E+03</wgt>
<wgt id='8503'>0.70827E+03</wgt>
<wgt id='8504'>0.70203E+03</wgt>
<wgt id='8505'>0.70163E+03</wgt>
<wgt id='8506'>0.70742E+03</wgt>
<wgt id='8507'>0.69957E+03</wgt>
<wgt id='8508'>0.70041E+03</wgt>
<wgt id='8509'>0.70614E+03</wgt>
<wgt id='8510'>0.71583E+03</wgt>
<wgt id='8511'>0.70421E+03</wgt>
<wgt id='8512'>0.69810E+03</wgt>
<wgt id='8513'>0.70627E+03</wgt>
<wgt id='8514'>0.69538E+03</wgt>
<wgt id='8515'>0.70744E+03</wgt>
<wgt id='8516'>0.70478E+03</wgt>
<wgt id='8517'>0.70187E+03</wgt>
<wgt id='8518'>0.70216E+03</wgt>
<wgt id='8519'>0.70193E+03</wgt>
<wgt id='8520'>0.70325E+03</wgt>
<wgt id='8521'>0.70180E+03</wgt>
<wgt id='8522'>0.70655E+03</wgt>
<wgt id='8523'>0.70265E+03</wgt>
<wgt id='8524'>0.70484E+03</wgt>
<wgt id='8525'>0.70503E+03</wgt>
<wgt id='8526'>0.70412E+03</wgt>
<wgt id='8527'>0.70434E+03</wgt>
<wgt id='8528'>0.70371E+03</wgt>
<wgt id='8529'>0.70406E+03</wgt>
<wgt id='8530'>0.70510E+03</wgt>
<wgt id='8531'>0.70447E+03</wgt>
<wgt id='8532'>0.70470E+03</wgt>
<wgt id='8533'>0.70352E+03</wgt>
<wgt id='8534'>0.70502E+03</wgt>
<wgt id='8535'>0.70614E+03</wgt>
<wgt id='8536'>0.70432E+03</wgt>
<wgt id='8537'>0.70481E+03</wgt>
<wgt id='8538'>0.70438E+03</wgt>
<wgt id='8539'>0.70498E+03</wgt>
<wgt id='8540'>0.70513E+03</wgt>
<wgt id='8541'>0.70518E+03</wgt>
<wgt id='8542'>0.70520E+03</wgt>
<wgt id='8543'>0.70395E+03</wgt>
<wgt id='8544'>0.70560E+03</wgt>
<wgt id='8545'>0.70510E+03</wgt>
<wgt id='8546'>0.70532E+03</wgt>
<wgt id='8547'>0.70418E+03</wgt>
<wgt id='8548'>0.70423E+03</wgt>
<wgt id='8549'>0.70479E+03</wgt>
<wgt id='8550'>0.70435E+03</wgt>
<wgt id='8551'>0.70408E+03</wgt>
<wgt id='8552'>0.70444E+03</wgt>
<wgt id='8553'>0.70398E+03</wgt>
<wgt id='8554'>0.70425E+03</wgt>
<wgt id='8555'>0.70473E+03</wgt>
<wgt id='8556'>0.70456E+03</wgt>
<wgt id='8557'>0.70471E+03</wgt>
<wgt id='8558'>0.70549E+03</wgt>
<wgt id='8559'>0.70443E+03</wgt>
<wgt id='8560'>0.70384E+03</wgt>
<wgt id='8561'>0.70484E+03</wgt>
<wgt id='8562'>0.70424E+03</wgt>
<wgt id='8563'>0.70468E+03</wgt>
<wgt id='8564'>0.70445E+03</wgt>
<wgt id='8565'>0.70478E+03</wgt>
<wgt id='8566'>0.70490E+03</wgt>
<wgt id='8567'>0.70467E+03</wgt>
<wgt id='8568'>0.70508E+03</wgt>
<wgt id='8569'>0.70495E+03</wgt>
<wgt id='8570'>0.70444E+03</wgt>
<wgt id='8571'>0.70426E+03</wgt>
<wgt id='8572'>0.70438E+03</wgt>
<wgt id='8573'>0.70437E+03</wgt>
<wgt id='8574'>0.70447E+03</wgt>
<wgt id='8575'>0.70457E+03</wgt>
<wgt id='8576'>0.70472E+03</wgt>
<wgt id='8577'>0.70438E+03</wgt>
<wgt id='8578'>0.70464E+03</wgt>
<wgt id='8579'>0.70518E+03</wgt>
<wgt id='8580'>0.70465E+03</wgt>
<wgt id='8581'>0.70491E+03</wgt>
<wgt id='8582'>0.70433E+03</wgt>
<wgt id='8583'>0.70488E+03</wgt>
<wgt id='8584'>0.70504E+03</wgt>
<wgt id='8585'>0.70482E+03</wgt>
<wgt id='8586'>0.70528E+03</wgt>
<wgt id='8587'>0.70474E+03</wgt>
<wgt id='8588'>0.70465E+03</wgt>
<wgt id='8589'>0.70469E+03</wgt>
<wgt id='8590'>0.70468E+03</wgt>
<wgt id='8591'>0.70439E+03</wgt>
<wgt id='8592'>0.70463E+03</wgt>
<wgt id='8593'>0.70449E+03</wgt>
<wgt id='8594'>0.70461E+03</wgt>
<wgt id='8595'>0.70463E+03</wgt>
<wgt id='8596'>0.70457E+03</wgt>
<wgt id='8597'>0.70483E+03</wgt>
<wgt id='8598'>0.70482E+03</wgt>
<wgt id='8599'>0.70476E+03</wgt>
<wgt id='8600'>0.70469E+03</wgt>
<wgt id='8601'>0.69168E+03</wgt>
<wgt id='8602'>0.71659E+03</wgt>
<wgt id='9000'>0.67580E+03</wgt>
<wgt id='9001'>0.67562E+03</wgt>
<wgt id='9002'>0.67901E+03</wgt>
<wgt id='9003'>0.67053E+03</wgt>
<wgt id='9004'>0.67529E+03</wgt>
<wgt id='9005'>0.68028E+03</wgt>
<wgt id='9006'>0.67339E+03</wgt>
<wgt id='9007'>0.67115E+03</wgt>
<wgt id='9008'>0.67459E+03</wgt>
<wgt id='9009'>0.67594E+03</wgt>
<wgt id='9010'>0.67197E+03</wgt>
<wgt id='9011'>0.68375E+03</wgt>
<wgt id='9012'>0.67618E+03</wgt>
<wgt id='9013'>0.66758E+03</wgt>
<wgt id='9014'>0.67216E+03</wgt>
<wgt id='9015'>0.67467E+03</wgt>
<wgt id='9016'>0.68371E+03</wgt>
<wgt id='9017'>0.67344E+03</wgt>
<wgt id='9018'>0.67514E+03</wgt>
<wgt id='9019'>0.67588E+03</wgt>
<wgt id='9020'>0.67977E+03</wgt>
<wgt id='9021'>0.67447E+03</wgt>
<wgt id='9022'>0.67709E+03</wgt>
<wgt id='9023'>0.67309E+03</wgt>
<wgt id='9024'>0.67455E+03</wgt>
<wgt id='9025'>0.67683E+03</wgt>
<wgt id='9026'>0.67582E+03</wgt>
<wgt id='9027'>0.67516E+03</wgt>
<wgt id='9028'>0.67632E+03</wgt>
<wgt id='9029'>0.67648E+03</wgt>
<wgt id='9030'>0.67609E+03</wgt>
<wgt id='9031'>0.67538E+03</wgt>
<wgt id='9032'>0.67622E+03</wgt>
<wgt id='9033'>0.67645E+03</wgt>
<wgt id='9034'>0.67572E+03</wgt>
<wgt id='9035'>0.67653E+03</wgt>
<wgt id='9036'>0.67593E+03</wgt>
<wgt id='9037'>0.67639E+03</wgt>
<wgt id='9038'>0.67607E+03</wgt>
<wgt id='9039'>0.67575E+03</wgt>
<wgt id='9040'>0.67528E+03</wgt>
<wgt id='9041'>0.67570E+03</wgt>
<wgt id='9042'>0.67582E+03</wgt>
<wgt id='9043'>0.67521E+03</wgt>
<wgt id='9044'>0.67602E+03</wgt>
<wgt id='9045'>0.67592E+03</wgt>
<wgt id='9046'>0.67495E+03</wgt>
<wgt id='9047'>0.67574E+03</wgt>
<wgt id='9048'>0.67614E+03</wgt>
<wgt id='9049'>0.67540E+03</wgt>
<wgt id='9050'>0.67594E+03</wgt>
<wgt id='9051'>0.67616E+03</wgt>
<wgt id='9052'>0.67611E+03</wgt>
<wgt id='9053'>0.67580E+03</wgt>
<wgt id='9054'>0.67548E+03</wgt>
<wgt id='9055'>0.67560E+03</wgt>
<wgt id='9056'>0.67636E+03</wgt>
<wgt id='9057'>0.67585E+03</wgt>
<wgt id='9058'>0.67514E+03</wgt>
<wgt id='9059'>0.67546E+03</wgt>
<wgt id='9060'>0.67553E+03</wgt>
<wgt id='9061'>0.67590E+03</wgt>
<wgt id='9062'>0.67591E+03</wgt>
<wgt id='9063'>0.67606E+03</wgt>
<wgt id='9064'>0.67572E+03</wgt>
<wgt id='9065'>0.67571E+03</wgt>
<wgt id='9066'>0.67584E+03</wgt>
<wgt id='9067'>0.67603E+03</wgt>
<wgt id='9068'>0.67604E+03</wgt>
<wgt id='9069'>0.67625E+03</wgt>
<wgt id='9070'>0.67567E+03</wgt>
<wgt id='9071'>0.67629E+03</wgt>
<wgt id='9072'>0.67627E+03</wgt>
<wgt id='9073'>0.67561E+03</wgt>
<wgt id='9074'>0.67592E+03</wgt>
<wgt id='9075'>0.67578E+03</wgt>
<wgt id='9076'>0.67574E+03</wgt>
<wgt id='9077'>0.67595E+03</wgt>
<wgt id='9078'>0.67584E+03</wgt>
<wgt id='9079'>0.67568E+03</wgt>
<wgt id='9080'>0.67641E+03</wgt>
<wgt id='9081'>0.67577E+03</wgt>
<wgt id='9082'>0.67602E+03</wgt>
<wgt id='9083'>0.67556E+03</wgt>
<wgt id='9084'>0.67552E+03</wgt>
<wgt id='9085'>0.67552E+03</wgt>
<wgt id='9086'>0.67599E+03</wgt>
<wgt id='9087'>0.67521E+03</wgt>
<wgt id='9088'>0.67556E+03</wgt>
<wgt id='9089'>0.67556E+03</wgt>
<wgt id='9090'>0.67591E+03</wgt>
<wgt id='9091'>0.67565E+03</wgt>
<wgt id='9092'>0.67573E+03</wgt>
<wgt id='9093'>0.67567E+03</wgt>
<wgt id='9094'>0.67567E+03</wgt>
<wgt id='9095'>0.67588E+03</wgt>
<wgt id='9096'>0.67568E+03</wgt>
<wgt id='9097'>0.67587E+03</wgt>
<wgt id='9098'>0.67575E+03</wgt>
<wgt id='9099'>0.67564E+03</wgt>
<wgt id='9100'>0.67581E+03</wgt>
<wgt id='9101'>0.66460E+03</wgt>
<wgt id='9102'>0.68612E+03</wgt>
<wgt id='10000'>0.70480E+03</wgt>
<wgt id='10001'>0.70942E+03</wgt>
<wgt id='10002'>0.69983E+03</wgt>
<wgt id='10003'>0.70456E+03</wgt>
<wgt id='10004'>0.69533E+03</wgt>
<wgt id='10005'>0.71862E+03</wgt>
<wgt id='10006'>0.70223E+03</wgt>
<wgt id='10007'>0.70452E+03</wgt>
<wgt id='10008'>0.70701E+03</wgt>
<wgt id='10009'>0.70218E+03</wgt>
<wgt id='10010'>0.70672E+03</wgt>
<wgt id='10011'>0.70158E+03</wgt>
<wgt id='10012'>0.70504E+03</wgt>
<wgt id='10013'>0.70563E+03</wgt>
<wgt id='10014'>0.70365E+03</wgt>
<wgt id='10015'>0.70443E+03</wgt>
<wgt id='10016'>0.70235E+03</wgt>
<wgt id='10017'>0.70952E+03</wgt>
<wgt id='10018'>0.70573E+03</wgt>
<wgt id='10019'>0.70329E+03</wgt>
<wgt id='10020'>0.70352E+03</wgt>
<wgt id='10021'>0.70433E+03</wgt>
<wgt id='10022'>0.70456E+03</wgt>
<wgt id='10023'>0.70521E+03</wgt>
<wgt id='10024'>0.70398E+03</wgt>
<wgt id='10025'>0.70417E+03</wgt>
<wgt id='10026'>0.70697E+03</wgt>
<wgt id='10027'>0.70622E+03</wgt>
<wgt id='10028'>0.71164E+03</wgt>
<wgt id='10029'>0.70519E+03</wgt>
<wgt id='10030'>0.70447E+03</wgt>
<wgt id='10031'>0.69168E+03</wgt>
<wgt id='10032'>0.71659E+03</wgt>
<wgt id='11000'>0.67591E+03</wgt>
<wgt id='11001'>0.66784E+03</wgt>
<wgt id='11002'>0.67918E+03</wgt>
<wgt id='11003'>0.67546E+03</wgt>
<wgt id='11004'>0.67958E+03</wgt>
<wgt id='11005'>0.67053E+03</wgt>
<wgt id='11006'>0.67625E+03</wgt>
<wgt id='11007'>0.67439E+03</wgt>
<wgt id='11008'>0.67533E+03</wgt>
<wgt id='11009'>0.67320E+03</wgt>
<wgt id='11010'>0.67140E+03</wgt>
<wgt id='11011'>0.67303E+03</wgt>
<wgt id='11012'>0.67645E+03</wgt>
<wgt id='11013'>0.67769E+03</wgt>
<wgt id='11014'>0.67415E+03</wgt>
<wgt id='11015'>0.67520E+03</wgt>
<wgt id='11016'>0.67535E+03</wgt>
<wgt id='11017'>0.68087E+03</wgt>
<wgt id='11018'>0.67548E+03</wgt>
<wgt id='11019'>0.67540E+03</wgt>
<wgt id='11020'>0.67810E+03</wgt>
<wgt id='11021'>0.67747E+03</wgt>
<wgt id='11022'>0.68789E+03</wgt>
<wgt id='11023'>0.67623E+03</wgt>
<wgt id='11024'>0.67633E+03</wgt>
<wgt id='11025'>0.67602E+03</wgt>
<wgt id='11026'>0.67591E+03</wgt>
<wgt id='11027'>0.67586E+03</wgt>
<wgt id='11028'>0.67633E+03</wgt>
<wgt id='11029'>0.67607E+03</wgt>
<wgt id='11030'>0.67588E+03</wgt>
<wgt id='11031'>0.66460E+03</wgt>
<wgt id='11032'>0.68612E+03</wgt>
<wgt id='12000'>0.70692E+03</wgt>
<wgt id='12001'>0.70591E+03</wgt>
<wgt id='12002'>0.70792E+03</wgt>
<wgt id='12003'>0.70774E+03</wgt>
<wgt id='12004'>0.70609E+03</wgt>
<wgt id='12005'>0.70817E+03</wgt>
<wgt id='12006'>0.70567E+03</wgt>
<wgt id='12007'>0.71037E+03</wgt>
<wgt id='12008'>0.70354E+03</wgt>
<wgt id='12009'>0.70680E+03</wgt>
<wgt id='12010'>0.70705E+03</wgt>
<wgt id='12011'>0.70347E+03</wgt>
<wgt id='12012'>0.71082E+03</wgt>
<wgt id='12013'>0.70421E+03</wgt>
<wgt id='12014'>0.70967E+03</wgt>
<wgt id='12015'>0.70726E+03</wgt>
<wgt id='12016'>0.70515E+03</wgt>
<wgt id='12017'>0.71020E+03</wgt>
<wgt id='12018'>0.70462E+03</wgt>
<wgt id='12019'>0.70527E+03</wgt>
<wgt id='12020'>0.70802E+03</wgt>
<wgt id='12021'>0.70877E+03</wgt>
<wgt id='12022'>0.70478E+03</wgt>
<wgt id='12023'>0.70252E+03</wgt>
<wgt id='12024'>0.70911E+03</wgt>
<wgt id='12025'>0.70700E+03</wgt>
<wgt id='12026'>0.70744E+03</wgt>
<wgt id='12027'>0.71160E+03</wgt>
<wgt id='12028'>0.70285E+03</wgt>
<wgt id='12050'>0.70692E+03</wgt>
<wgt id='12051'>0.70779E+03</wgt>
<wgt id='12052'>0.70376E+03</wgt>
<wgt id='12053'>0.70780E+03</wgt>
<wgt id='12054'>0.70460E+03</wgt>
<wgt id='12055'>0.70791E+03</wgt>
<wgt id='12056'>0.70471E+03</wgt>
<wgt id='12057'>0.70463E+03</wgt>
<wgt id='12058'>0.70811E+03</wgt>
<wgt id='12059'>0.70818E+03</wgt>
<wgt id='12060'>0.70465E+03</wgt>
<wgt id='12061'>0.70511E+03</wgt>
<wgt id='12062'>0.70486E+03</wgt>
<wgt id='12063'>0.69988E+03</wgt>
<wgt id='13000'>0.66686E+03</wgt>
<wgt id='13001'>0.66481E+03</wgt>
<wgt id='13002'>0.66616E+03</wgt>
<wgt id='13003'>0.66552E+03</wgt>
<wgt id='13004'>0.66545E+03</wgt>
<wgt id='13005'>0.66663E+03</wgt>
<wgt id='13006'>0.66435E+03</wgt>
<wgt id='13007'>0.66951E+03</wgt>
<wgt id='13008'>0.66157E+03</wgt>
<wgt id='13009'>0.66354E+03</wgt>
<wgt id='13010'>0.66751E+03</wgt>
<wgt id='13011'>0.66766E+03</wgt>
<wgt id='13012'>0.66333E+03</wgt>
<wgt id='13013'>0.66406E+03</wgt>
<wgt id='13014'>0.66685E+03</wgt>
<wgt id='13015'>0.66427E+03</wgt>
<wgt id='13016'>0.66496E+03</wgt>
<wgt id='13017'>0.66567E+03</wgt>
<wgt id='13018'>0.66528E+03</wgt>
<wgt id='13019'>0.66389E+03</wgt>
<wgt id='13020'>0.66713E+03</wgt>
<wgt id='13021'>0.66362E+03</wgt>
<wgt id='13022'>0.66698E+03</wgt>
<wgt id='13023'>0.66437E+03</wgt>
<wgt id='13024'>0.66667E+03</wgt>
<wgt id='13025'>0.66001E+03</wgt>
<wgt id='13026'>0.67005E+03</wgt>
<wgt id='13027'>0.66367E+03</wgt>
<wgt id='13028'>0.66780E+03</wgt>
<wgt id='13050'>0.66686E+03</wgt>
<wgt id='13051'>0.66737E+03</wgt>
<wgt id='13052'>0.66116E+03</wgt>
<wgt id='13053'>0.66713E+03</wgt>
<wgt id='13054'>0.66394E+03</wgt>
<wgt id='13055'>0.66122E+03</wgt>
<wgt id='13056'>0.66174E+03</wgt>
<wgt id='13057'>0.66400E+03</wgt>
<wgt id='13058'>0.66867E+03</wgt>
<wgt id='13059'>0.66617E+03</wgt>
<wgt id='13060'>0.65838E+03</wgt>
<wgt id='13061'>0.66368E+03</wgt>
<wgt id='13062'>0.66985E+03</wgt>
<wgt id='13063'>0.66426E+03</wgt>
<wgt id='14000'>0.68655E+03</wgt>
<wgt id='14001'>0.68645E+03</wgt>
<wgt id='14002'>0.68637E+03</wgt>
<wgt id='14003'>0.68627E+03</wgt>
<wgt id='14004'>0.68618E+03</wgt>
<wgt id='14005'>0.68610E+03</wgt>
<wgt id='14006'>0.68601E+03</wgt>
<wgt id='14007'>0.68592E+03</wgt>
<wgt id='14008'>0.68582E+03</wgt>
<wgt id='14009'>0.68573E+03</wgt>
<wgt id='14010'>0.68564E+03</wgt>
<wgt id='14011'>0.68556E+03</wgt>
<wgt id='14012'>0.68547E+03</wgt>
<wgt id='14013'>0.68538E+03</wgt>
<wgt id='14014'>0.68529E+03</wgt>
<wgt id='14015'>0.68520E+03</wgt>
<wgt id='14016'>0.68510E+03</wgt>
<wgt id='14017'>0.68501E+03</wgt>
<wgt id='14018'>0.68493E+03</wgt>
<wgt id='14019'>0.68484E+03</wgt>
<wgt id='14020'>0.68474E+03</wgt>
<wgt id='14021'>0.68466E+03</wgt>
<wgt id='14022'>0.68456E+03</wgt>
<wgt id='14023'>0.68447E+03</wgt>
<wgt id='14024'>0.68438E+03</wgt>
<wgt id='14025'>0.68430E+03</wgt>
<wgt id='14026'>0.68421E+03</wgt>
<wgt id='14027'>0.68412E+03</wgt>
<wgt id='14028'>0.68402E+03</wgt>
<wgt id='14029'>0.68394E+03</wgt>
<wgt id='14030'>0.68385E+03</wgt>
<wgt id='15000'>0.66829E+03</wgt>
<wgt id='15001'>0.66822E+03</wgt>
<wgt id='15002'>0.67147E+03</wgt>
<wgt id='15003'>0.66309E+03</wgt>
<wgt id='15004'>0.66783E+03</wgt>
<wgt id='15005'>0.67275E+03</wgt>
<wgt id='15006'>0.66586E+03</wgt>
<wgt id='15007'>0.66362E+03</wgt>
<wgt id='15008'>0.66709E+03</wgt>
<wgt id='15009'>0.66842E+03</wgt>
<wgt id='15010'>0.66455E+03</wgt>
<wgt id='15011'>0.67602E+03</wgt>
<wgt id='15012'>0.66858E+03</wgt>
<wgt id='15013'>0.66018E+03</wgt>
<wgt id='15014'>0.66468E+03</wgt>
<wgt id='15015'>0.66726E+03</wgt>
<wgt id='15016'>0.67594E+03</wgt>
<wgt id='15017'>0.66598E+03</wgt>
<wgt id='15018'>0.66770E+03</wgt>
<wgt id='15019'>0.66834E+03</wgt>
<wgt id='15020'>0.67215E+03</wgt>
<wgt id='15021'>0.66702E+03</wgt>
<wgt id='15022'>0.66961E+03</wgt>
<wgt id='15023'>0.66551E+03</wgt>
<wgt id='15024'>0.66704E+03</wgt>
<wgt id='15025'>0.66941E+03</wgt>
<wgt id='15026'>0.66839E+03</wgt>
<wgt id='15027'>0.66760E+03</wgt>
<wgt id='15028'>0.66878E+03</wgt>
<wgt id='15029'>0.66899E+03</wgt>
<wgt id='15030'>0.66866E+03</wgt>
<wgt id='15031'>0.66777E+03</wgt>
<wgt id='15032'>0.66871E+03</wgt>
<wgt id='15033'>0.66897E+03</wgt>
<wgt id='15034'>0.66822E+03</wgt>
<wgt id='15035'>0.66905E+03</wgt>
<wgt id='15036'>0.66841E+03</wgt>
<wgt id='15037'>0.66887E+03</wgt>
<wgt id='15038'>0.66857E+03</wgt>
<wgt id='15039'>0.66827E+03</wgt>
<wgt id='15040'>0.66777E+03</wgt>
<wgt id='15041'>0.66819E+03</wgt>
<wgt id='15042'>0.66831E+03</wgt>
<wgt id='15043'>0.66765E+03</wgt>
<wgt id='15044'>0.66852E+03</wgt>
<wgt id='15045'>0.66841E+03</wgt>
<wgt id='15046'>0.66742E+03</wgt>
<wgt id='15047'>0.66824E+03</wgt>
<wgt id='15048'>0.66860E+03</wgt>
<wgt id='15049'>0.66789E+03</wgt>
<wgt id='15050'>0.66842E+03</wgt>
<wgt id='15051'>0.66865E+03</wgt>
<wgt id='15052'>0.66860E+03</wgt>
<wgt id='15053'>0.66829E+03</wgt>
<wgt id='15054'>0.66796E+03</wgt>
<wgt id='15055'>0.66807E+03</wgt>
<wgt id='15056'>0.66888E+03</wgt>
<wgt id='15057'>0.66834E+03</wgt>
<wgt id='15058'>0.66760E+03</wgt>
<wgt id='15059'>0.66793E+03</wgt>
<wgt id='15060'>0.66800E+03</wgt>
<wgt id='15061'>0.66838E+03</wgt>
<wgt id='15062'>0.66840E+03</wgt>
<wgt id='15063'>0.66856E+03</wgt>
<wgt id='15064'>0.66820E+03</wgt>
<wgt id='15065'>0.66820E+03</wgt>
<wgt id='15066'>0.66833E+03</wgt>
<wgt id='15067'>0.66852E+03</wgt>
<wgt id='15068'>0.66852E+03</wgt>
<wgt id='15069'>0.66875E+03</wgt>
<wgt id='15070'>0.66816E+03</wgt>
<wgt id='15071'>0.66876E+03</wgt>
<wgt id='15072'>0.66876E+03</wgt>
<wgt id='15073'>0.66810E+03</wgt>
<wgt id='15074'>0.66840E+03</wgt>
<wgt id='15075'>0.66826E+03</wgt>
<wgt id='15076'>0.66821E+03</wgt>
<wgt id='15077'>0.66843E+03</wgt>
<wgt id='15078'>0.66831E+03</wgt>
<wgt id='15079'>0.66816E+03</wgt>
<wgt id='15080'>0.66890E+03</wgt>
<wgt id='15081'>0.66824E+03</wgt>
<wgt id='15082'>0.66850E+03</wgt>
<wgt id='15083'>0.66805E+03</wgt>
<wgt id='15084'>0.66801E+03</wgt>
<wgt id='15085'>0.66801E+03</wgt>
<wgt id='15086'>0.66846E+03</wgt>
<wgt id='15087'>0.66770E+03</wgt>
<wgt id='15088'>0.66806E+03</wgt>
<wgt id='15089'>0.66806E+03</wgt>
<wgt id='15090'>0.66840E+03</wgt>
<wgt id='15091'>0.66815E+03</wgt>
<wgt id='15092'>0.66823E+03</wgt>
<wgt id='15093'>0.66815E+03</wgt>
<wgt id='15094'>0.66817E+03</wgt>
<wgt id='15095'>0.66836E+03</wgt>
<wgt id='15096'>0.66816E+03</wgt>
<wgt id='15097'>0.66835E+03</wgt>
<wgt id='15098'>0.66825E+03</wgt>
<wgt id='15099'>0.66812E+03</wgt>
<wgt id='15100'>0.66829E+03</wgt>
<wgt id='15101'>0.66828E+03</wgt>
<wgt id='15102'>0.66824E+03</wgt>
<wgt id='15103'>0.66830E+03</wgt>
<wgt id='15104'>0.66830E+03</wgt>
<wgt id='15105'>0.66831E+03</wgt>
<wgt id='15106'>0.66829E+03</wgt>
<wgt id='15107'>0.66826E+03</wgt>
<wgt id='1500'>0.72012E+03</wgt>
<wgt id='1501'>0.68664E+03</wgt>
<wgt id='1502'>0.71589E+03</wgt>
<wgt id='1503'>0.72061E+03</wgt>
<wgt id='1504'>0.71308E+03</wgt>
<wgt id='1505'>0.65335E+03</wgt>
<wgt id='1506'>0.73459E+03</wgt>
<wgt id='1507'>0.72212E+03</wgt>
<wgt id='1508'>0.72730E+03</wgt>
<wgt id='1509'>0.72785E+03</wgt>
<wgt id='1510'>0.68849E+03</wgt>
<wgt id='1511'>0.67673E+03</wgt>
<wgt id='1512'>0.73453E+03</wgt>
<wgt id='1513'>0.73347E+03</wgt>
<wgt id='1514'>0.69902E+03</wgt>
<wgt id='1515'>0.73061E+03</wgt>
<wgt id='1516'>0.73154E+03</wgt>
<wgt id='1517'>0.71765E+03</wgt>
<wgt id='1518'>0.72581E+03</wgt>
<wgt id='1519'>0.73602E+03</wgt>
<wgt id='1520'>0.74627E+03</wgt>
<wgt id='1521'>0.72459E+03</wgt>
<wgt id='1522'>0.70366E+03</wgt>
<wgt id='1523'>0.77077E+03</wgt>
<wgt id='1524'>0.71497E+03</wgt>
<wgt id='1525'>0.72230E+03</wgt>
<wgt id='1526'>0.71842E+03</wgt>
<wgt id='1527'>0.72123E+03</wgt>
<wgt id='1528'>0.71239E+03</wgt>
<wgt id='1529'>0.72244E+03</wgt>
<wgt id='1530'>0.73875E+03</wgt>
<wgt id='1531'>0.71187E+03</wgt>
<wgt id='1532'>0.69647E+03</wgt>
<wgt id='1533'>0.71627E+03</wgt>
<wgt id='1534'>0.71747E+03</wgt>
<wgt id='1535'>0.73684E+03</wgt>
<wgt id='1536'>0.73747E+03</wgt>
<wgt id='1537'>0.73251E+03</wgt>
<wgt id='1538'>0.72998E+03</wgt>
<wgt id='1539'>0.70744E+03</wgt>
<wgt id='1540'>0.72102E+03</wgt>
<wgt id='1541'>0.72886E+03</wgt>
<wgt id='1542'>0.71863E+03</wgt>
<wgt id='1543'>0.71818E+03</wgt>
<wgt id='1544'>0.71305E+03</wgt>
<wgt id='1545'>0.71333E+03</wgt>
<wgt id='1546'>0.73375E+03</wgt>
<wgt id='1547'>0.71386E+03</wgt>
<wgt id='1548'>0.71744E+03</wgt>
<wgt id='1549'>0.71716E+03</wgt>
<wgt id='1550'>0.71563E+03</wgt>
<wgt id='1551'>0.71579E+03</wgt>
<wgt id='1552'>0.70795E+03</wgt>
<wgt id='1553'>0.72610E+03</wgt>
<wgt id='1554'>0.72374E+03</wgt>
<wgt id='1555'>0.71450E+03</wgt>
<wgt id='1556'>0.70824E+03</wgt>
<wgt id='1557'>0.74573E+03</wgt>
<wgt id='1558'>0.70676E+03</wgt>
<wgt id='1559'>0.73119E+03</wgt>
<wgt id='1560'>0.71971E+03</wgt>
<wgt id='1561'>0.72622E+03</wgt>
<wgt id='1562'>0.72175E+03</wgt>
<wgt id='1563'>0.72569E+03</wgt>
<wgt id='1564'>0.70561E+03</wgt>
<wgt id='1565'>0.73197E+03</wgt>
<wgt id='1566'>0.71471E+03</wgt>
<wgt id='1567'>0.76858E+03</wgt>
<wgt id='1568'>0.71236E+03</wgt>
<wgt id='1569'>0.69869E+03</wgt>
<wgt id='1570'>0.70996E+03</wgt>
<wgt id='1571'>0.72424E+03</wgt>
<wgt id='1572'>0.72310E+03</wgt>
<wgt id='1573'>0.67840E+03</wgt>
<wgt id='1574'>0.72415E+03</wgt>
<wgt id='1575'>0.71714E+03</wgt>
<wgt id='1576'>0.69327E+03</wgt>
<wgt id='1577'>0.71538E+03</wgt>
<wgt id='1578'>0.74150E+03</wgt>
<wgt id='1579'>0.71856E+03</wgt>
<wgt id='1580'>0.71754E+03</wgt>
<wgt id='1581'>0.72025E+03</wgt>
<wgt id='1582'>0.70570E+03</wgt>
<wgt id='1583'>0.74427E+03</wgt>
<wgt id='1584'>0.71988E+03</wgt>
<wgt id='1585'>0.70419E+03</wgt>
<wgt id='1586'>0.71286E+03</wgt>
<wgt id='1587'>0.71537E+03</wgt>
<wgt id='1588'>0.72173E+03</wgt>
<wgt id='1589'>0.75320E+03</wgt>
<wgt id='1590'>0.70894E+03</wgt>
<wgt id='1591'>0.71596E+03</wgt>
<wgt id='1592'>0.72873E+03</wgt>
<wgt id='1593'>0.72328E+03</wgt>
<wgt id='1594'>0.73079E+03</wgt>
<wgt id='1595'>0.70502E+03</wgt>
<wgt id='1596'>0.73513E+03</wgt>
<wgt id='1597'>0.72461E+03</wgt>
<wgt id='1598'>0.74148E+03</wgt>
<wgt id='1599'>0.74256E+03</wgt>
<wgt id='1600'>0.72905E+03</wgt>
<wgt id='1601'>0.71054E+03</wgt>
<wgt id='1602'>0.72657E+03</wgt>
<wgt id='1700'>0.68434E+03</wgt>
<wgt id='1800'>0.71533E+03</wgt>
<wgt id='1850'>0.85450E+03</wgt>
<wgt id='1900'>0.75262E+03</wgt>
<wgt id='1950'>0.82444E+03</wgt>
</rwgt>
</event>
<event>
     13 322222  6.87070E+02  1.10595E+01 -1.00000E+00  1.86998E-01
       1    -1     0     0   502     0  0.000000000E+00  0.000000000E+00  1.152942865E+03  1.152942865E+03  0.000000000E+00  0.00000E+00  9.000E+00
      -1    -1     0     0     0   512  0.000000000E+00  0.000000000E+00 -4.626052643E+01  4.626052643E+01  0.000000000E+00  0.00000E+00  9.000E+00
       6     2     1     2   502     0 -8.373716918E+01 -3.036117644E+01  3.040369967E+02  3.609399827E+02  1.729319554E+02  0.00000E+00  9.000E+00
      -6     2     1     2     0   513  7.653910749E+01  3.875763400E+01  8.042190633E+02  8.270925009E+02  1.730702576E+02  0.00000E+00  9.000E+00
      21     1     1     2   513   512  7.198061689E+00 -8.396457559E+00 -1.573721109E+00  1.117090819E+01  3.857069941E-07  0.00000E+00  9.000E+00
      24     2     3     3     0     0 -8.128232739E+01 -2.501012538E+01  3.212974468E+02  3.420820101E+02  8.096745753E+01  0.00000E+00  9.000E+00
       5     1     3     3   502     0 -2.454841793E+00 -5.351051059E+00 -1.726045006E+01  1.885797264E+01  4.800000000E+00  0.00000E+00 -1.000E+00
     -24     2     4     4     0     0  7.978512354E+01 -2.911364199E+01  3.811223347E+02  3.985473708E+02  7.982795699E+01  0.00000E+00  9.000E+00
      -5     1     4     4     0   513 -3.246016051E+00  6.787127598E+01  4.230967286E+02  4.285451300E+02  4.800000000E+00  0.00000E+00  1.000E+00
      -3     1     6     6     0   514  1.634247137E+01 -6.391485794E+00  3.807480177E+01  4.192443191E+01  2.000000000E-01  0.00000E+00  1.000E+00
       4     1     6     6   514     0 -9.762479876E+01 -1.861863959E+01  2.832226450E+02  3.001575781E+02  1.500000000E+00  0.00000E+00 -1.000E+00
       3     1     8     8   515     0  3.540164579E+01 -4.223593413E+01  1.051500042E+02  1.187169492E+02  2.000000000E-01  0.00000E+00 -1.000E+00
      -4     1     8     8     0   515  4.438347775E+01  1.312229215E+01  2.759723305E+02  2.798304216E+02  1.500000000E+00  0.00000E+00  1.000E+00
#rwgt            1           7   34.278468757838851                1        1059           0
<rwgt>
<wgt id='1001'>0.68707E+03</wgt>
<wgt id='1002'>0.72956E+03</wgt>
<wgt id='1003'>0.64837E+03</wgt>
<wgt id='1004'>0.66562E+03</wgt>
<wgt id='1005'>0.69795E+03</wgt>
<wgt id='1006'>0.63544E+03</wgt>
<wgt id='1007'>0.67809E+03</wgt>
<wgt id='1008'>0.73547E+03</wgt>
<wgt id='1009'>0.62712E+03</wgt>
<wgt id='2000'>0.68707E+03</wgt>
<wgt id='2001'>0.68571E+03</wgt>
<wgt id='2002'>0.68785E+03</wgt>
<wgt id='2003'>0.68801E+03</wgt>
<wgt id='2004'>0.68823E+03</wgt>
<wgt id='2005'>0.68615E+03</wgt>
<wgt id='2006'>0.68687E+03</wgt>
<wgt id='2007'>0.68573E+03</wgt>
<wgt id='2008'>0.68567E+03</wgt>
<wgt id='2009'>0.68693E+03</wgt>
<wgt id='2010'>0.68574E+03</wgt>
<wgt id='2011'>0.68306E+03</wgt>
<wgt id='2012'>0.68735E+03</wgt>
<wgt id='2013'>0.68554E+03</wgt>
<wgt id='2014'>0.68758E+03</wgt>
<wgt id='2015'>0.69042E+03</wgt>
<wgt id='2016'>0.69035E+03</wgt>
<wgt id='2017'>0.68472E+03</wgt>
<wgt id='2018'>0.68633E+03</wgt>
<wgt id='2019'>0.68310E+03</wgt>
<wgt id='2020'>0.68535E+03</wgt>
<wgt id='2021'>0.68764E+03</wgt>
<wgt id='2022'>0.68857E+03</wgt>
<wgt id='2023'>0.68217E+03</wgt>
<wgt id='2024'>0.69415E+03</wgt>
<wgt id='2025'>0.68669E+03</wgt>
<wgt id='2026'>0.68712E+03</wgt>
<wgt id='2027'>0.69295E+03</wgt>
<wgt id='2028'>0.69034E+03</wgt>
<wgt id='2029'>0.67558E+03</wgt>
<wgt id='2030'>0.68053E+03</wgt>
<wgt id='2031'>0.68519E+03</wgt>
<wgt id='2032'>0.68301E+03</wgt>
<wgt id='2033'>0.69051E+03</wgt>
<wgt id='2034'>0.68723E+03</wgt>
<wgt id='2035'>0.68766E+03</wgt>
<wgt id='2036'>0.68769E+03</wgt>
<wgt id='2037'>0.68922E+03</wgt>
<wgt id='2038'>0.68663E+03</wgt>
<wgt id='2039'>0.68631E+03</wgt>
<wgt id='2040'>0.68764E+03</wgt>
<wgt id='2041'>0.68652E+03</wgt>
<wgt id='2042'>0.68551E+03</wgt>
<wgt id='2043'>0.68649E+03</wgt>
<wgt id='2044'>0.68937E+03</wgt>
<wgt id='2045'>0.68664E+03</wgt>
<wgt id='2046'>0.68670E+03</wgt>
<wgt id='2047'>0.68656E+03</wgt>
<wgt id='2048'>0.68549E+03</wgt>
<wgt id='2049'>0.68881E+03</wgt>
<wgt id='2050'>0.69103E+03</wgt>
<wgt id='2051'>0.69028E+03</wgt>
<wgt id='2052'>0.68594E+03</wgt>
<wgt id='2053'>0.68776E+03</wgt>
<wgt id='2054'>0.68776E+03</wgt>
<wgt id='2055'>0.68780E+03</wgt>
<wgt id='2056'>0.68717E+03</wgt>
<wgt id='2057'>0.68644E+03</wgt>
<wgt id='2058'>0.68720E+03</wgt>
<wgt id='2059'>0.68669E+03</wgt>
<wgt id='2060'>0.68562E+03</wgt>
<wgt id='2061'>0.68589E+03</wgt>
<wgt id='2062'>0.68541E+03</wgt>
<wgt id='2063'>0.68707E+03</wgt>
<wgt id='2064'>0.68893E+03</wgt>
<wgt id='2065'>0.68684E+03</wgt>
<wgt id='2066'>0.68704E+03</wgt>
<wgt id='2067'>0.68581E+03</wgt>
<wgt id='2068'>0.68568E+03</wgt>
<wgt id='2069'>0.68801E+03</wgt>
<wgt id='2070'>0.68671E+03</wgt>
<wgt id='2071'>0.68674E+03</wgt>
<wgt id='2072'>0.68621E+03</wgt>
<wgt id='2073'>0.68841E+03</wgt>
<wgt id='2074'>0.68692E+03</wgt>
<wgt id='2075'>0.68735E+03</wgt>
<wgt id='2076'>0.68735E+03</wgt>
<wgt id='2077'>0.68638E+03</wgt>
<wgt id='2078'>0.68676E+03</wgt>
<wgt id='2079'>0.68835E+03</wgt>
<wgt id='2080'>0.68612E+03</wgt>
<wgt id='2081'>0.68704E+03</wgt>
<wgt id='2082'>0.68662E+03</wgt>
<wgt id='2083'>0.68644E+03</wgt>
<wgt id='2084'>0.68676E+03</wgt>
<wgt id='2085'>0.68706E+03</wgt>
<wgt id='2086'>0.68737E+03</wgt>
<wgt id='2087'>0.68741E+03</wgt>
<wgt id='2088'>0.68789E+03</wgt>
<wgt id='2089'>0.68687E+03</wgt>
<wgt id='2090'>0.68665E+03</wgt>
<wgt id='2091'>0.68743E+03</wgt>
<wgt id='2092'>0.68793E+03</wgt>
<wgt id='2093'>0.68660E+03</wgt>
<wgt id='2094'>0.68764E+03</wgt>
<wgt id='2095'>0.68684E+03</wgt>
<wgt id='2096'>0.68737E+03</wgt>
<wgt id='2097'>0.68709E+03</wgt>
<wgt id='2098'>0.68637E+03</wgt>
<wgt id='2099'>0.68690E+03</wgt>
<wgt id='2100'>0.68685E+03</wgt>
<wgt id='2101'>0.66747E+03</wgt>
<wgt id='2102'>0.70670E+03</wgt>
<wgt id='2104'>0.58753E+03</wgt>
<wgt id='2105'>0.60209E+03</wgt>
<wgt id='2106'>0.62649E+03</wgt>
<wgt id='2107'>0.64914E+03</wgt>
<wgt id='2108'>0.67779E+03</wgt>
<wgt id='2109'>0.69720E+03</wgt>
<wgt id='2110'>0.72937E+03</wgt>
<wgt id='2111'>0.74301E+03</wgt>
<wgt id='3000'>0.68657E+03</wgt>
<wgt id='3001'>0.68779E+03</wgt>
<wgt id='3002'>0.68510E+03</wgt>
<wgt id='3003'>0.68772E+03</wgt>
<wgt id='3004'>0.68720E+03</wgt>
<wgt id='3005'>0.68843E+03</wgt>
<wgt id='3006'>0.68615E+03</wgt>
<wgt id='3007'>0.69030E+03</wgt>
<wgt id='3008'>0.68933E+03</wgt>
<wgt id='3009'>0.68946E+03</wgt>
<wgt id='3010'>0.68516E+03</wgt>
<wgt id='3011'>0.68463E+03</wgt>
<wgt id='3012'>0.68576E+03</wgt>
<wgt id='3013'>0.68953E+03</wgt>
<wgt id='3014'>0.68730E+03</wgt>
<wgt id='3015'>0.68448E+03</wgt>
<wgt id='3016'>0.69261E+03</wgt>
<wgt id='3017'>0.68391E+03</wgt>
<wgt id='3018'>0.68716E+03</wgt>
<wgt id='3019'>0.68513E+03</wgt>
<wgt id='3020'>0.68450E+03</wgt>
<wgt id='3021'>0.68978E+03</wgt>
<wgt id='3022'>0.68605E+03</wgt>
<wgt id='3023'>0.68455E+03</wgt>
<wgt id='3024'>0.68999E+03</wgt>
<wgt id='3025'>0.68479E+03</wgt>
<wgt id='3026'>0.68704E+03</wgt>
<wgt id='3027'>0.68398E+03</wgt>
<wgt id='3028'>0.68983E+03</wgt>
<wgt id='3029'>0.68913E+03</wgt>
<wgt id='3030'>0.67160E+03</wgt>
<wgt id='3031'>0.68654E+03</wgt>
<wgt id='3032'>0.68823E+03</wgt>
<wgt id='3033'>0.68861E+03</wgt>
<wgt id='3034'>0.68533E+03</wgt>
<wgt id='3035'>0.69012E+03</wgt>
<wgt id='3036'>0.68585E+03</wgt>
<wgt id='3037'>0.68652E+03</wgt>
<wgt id='3038'>0.68502E+03</wgt>
<wgt id='3039'>0.68713E+03</wgt>
<wgt id='3040'>0.68495E+03</wgt>
<wgt id='3041'>0.68809E+03</wgt>
<wgt id='3042'>0.68507E+03</wgt>
<wgt id='3043'>0.68758E+03</wgt>
<wgt id='3044'>0.68687E+03</wgt>
<wgt id='3045'>0.68824E+03</wgt>
<wgt id='3046'>0.68637E+03</wgt>
<wgt id='3047'>0.68651E+03</wgt>
<wgt id='3048'>0.68858E+03</wgt>
<wgt id='3049'>0.68349E+03</wgt>
<wgt id='3050'>0.68637E+03</wgt>
<wgt id='3051'>0.69081E+03</wgt>
<wgt id='3052'>0.68592E+03</wgt>
<wgt id='3053'>0.68960E+03</wgt>
<wgt id='3054'>0.68796E+03</wgt>
<wgt id='3055'>0.68541E+03</wgt>
<wgt id='3056'>0.68767E+03</wgt>
<wgt id='3057'>0.68545E+03</wgt>
<wgt id='3058'>0.68647E+03</wgt>
<wgt id='3059'>0.68544E+03</wgt>
<wgt id='3060'>0.68786E+03</wgt>
<wgt id='3061'>0.68720E+03</wgt>
<wgt id='3062'>0.68903E+03</wgt>
<wgt id='3063'>0.68620E+03</wgt>
<wgt id='3064'>0.68750E+03</wgt>
<wgt id='3065'>0.68559E+03</wgt>
<wgt id='3066'>0.68677E+03</wgt>
<wgt id='3067'>0.68748E+03</wgt>
<wgt id='3068'>0.68605E+03</wgt>
<wgt id='3069'>0.68582E+03</wgt>
<wgt id='3070'>0.68807E+03</wgt>
<wgt id='3071'>0.68751E+03</wgt>
<wgt id='3072'>0.68732E+03</wgt>
<wgt id='3073'>0.68744E+03</wgt>
<wgt id='3074'>0.68633E+03</wgt>
<wgt id='3075'>0.68639E+03</wgt>
<wgt id='3076'>0.68582E+03</wgt>
<wgt id='3077'>0.68738E+03</wgt>
<wgt id='3078'>0.68604E+03</wgt>
<wgt id='3079'>0.68660E+03</wgt>
<wgt id='3080'>0.68611E+03</wgt>
<wgt id='3081'>0.68661E+03</wgt>
<wgt id='3082'>0.68743E+03</wgt>
<wgt id='3083'>0.68680E+03</wgt>
<wgt id='3084'>0.68676E+03</wgt>
<wgt id='3085'>0.68705E+03</wgt>
<wgt id='3086'>0.68649E+03</wgt>
<wgt id='3087'>0.68636E+03</wgt>
<wgt id='3088'>0.68711E+03</wgt>
<wgt id='3089'>0.68743E+03</wgt>
<wgt id='3090'>0.68648E+03</wgt>
<wgt id='3091'>0.68644E+03</wgt>
<wgt id='3092'>0.68648E+03</wgt>
<wgt id='3093'>0.68657E+03</wgt>
<wgt id='3094'>0.68691E+03</wgt>
<wgt id='3095'>0.68771E+03</wgt>
<wgt id='3096'>0.68675E+03</wgt>
<wgt id='3097'>0.68702E+03</wgt>
<wgt id='3098'>0.68622E+03</wgt>
<wgt id='3099'>0.68733E+03</wgt>
<wgt id='3100'>0.68615E+03</wgt>
<wgt id='3101'>0.66626E+03</wgt>
<wgt id='3102'>0.70814E+03</wgt>
<wgt id='5000'>0.64520E+03</wgt>
<wgt id='5001'>0.63992E+03</wgt>
<wgt id='5002'>0.64776E+03</wgt>
<wgt id='5003'>0.64559E+03</wgt>
<wgt id='5004'>0.64891E+03</wgt>
<wgt id='5005'>0.64396E+03</wgt>
<wgt id='5006'>0.64726E+03</wgt>
<wgt id='5007'>0.64347E+03</wgt>
<wgt id='5008'>0.65631E+03</wgt>
<wgt id='5009'>0.65107E+03</wgt>
<wgt id='5010'>0.63896E+03</wgt>
<wgt id='5011'>0.64949E+03</wgt>
<wgt id='5012'>0.63545E+03</wgt>
<wgt id='5013'>0.64356E+03</wgt>
<wgt id='5014'>0.64066E+03</wgt>
<wgt id='5015'>0.64870E+03</wgt>
<wgt id='5016'>0.63452E+03</wgt>
<wgt id='5017'>0.64859E+03</wgt>
<wgt id='5018'>0.64134E+03</wgt>
<wgt id='5019'>0.64800E+03</wgt>
<wgt id='5020'>0.64280E+03</wgt>
<wgt id='5021'>0.65555E+03</wgt>
<wgt id='5022'>0.63910E+03</wgt>
<wgt id='5023'>0.64830E+03</wgt>
<wgt id='5024'>0.64165E+03</wgt>
<wgt id='5025'>0.64861E+03</wgt>
<wgt id='5026'>0.64235E+03</wgt>
<wgt id='5027'>0.64449E+03</wgt>
<wgt id='5028'>0.64615E+03</wgt>
<wgt id='5029'>0.64481E+03</wgt>
<wgt id='5030'>0.64529E+03</wgt>
<wgt id='5031'>0.64690E+03</wgt>
<wgt id='5032'>0.64251E+03</wgt>
<wgt id='5033'>0.66365E+03</wgt>
<wgt id='5034'>0.62793E+03</wgt>
<wgt id='5035'>0.64848E+03</wgt>
<wgt id='5036'>0.64266E+03</wgt>
<wgt id='5037'>0.65846E+03</wgt>
<wgt id='5038'>0.63037E+03</wgt>
<wgt id='5039'>0.65018E+03</wgt>
<wgt id='5040'>0.63504E+03</wgt>
<wgt id='5041'>0.64596E+03</wgt>
<wgt id='5042'>0.64607E+03</wgt>
<wgt id='5043'>0.65397E+03</wgt>
<wgt id='5044'>0.63500E+03</wgt>
<wgt id='5045'>0.63849E+03</wgt>
<wgt id='5046'>0.65332E+03</wgt>
<wgt id='5047'>0.66537E+03</wgt>
<wgt id='5048'>0.63346E+03</wgt>
<wgt id='5049'>0.64310E+03</wgt>
<wgt id='5050'>0.65404E+03</wgt>
<wgt id='5051'>0.63262E+03</wgt>
<wgt id='5052'>0.64791E+03</wgt>
<wgt id='5053'>0.66761E+03</wgt>
<wgt id='5054'>0.67071E+03</wgt>
<wgt id='5055'>0.64398E+03</wgt>
<wgt id='5056'>0.65019E+03</wgt>
<wgt id='5060'>0.62637E+03</wgt>
<wgt id='5070'>0.66351E+03</wgt>
<wgt id='4000'>0.66185E+03</wgt>
<wgt id='4001'>0.66067E+03</wgt>
<wgt id='4002'>0.64556E+03</wgt>
<wgt id='4003'>0.66526E+03</wgt>
<wgt id='4004'>0.66320E+03</wgt>
<wgt id='4005'>0.66886E+03</wgt>
<wgt id='4006'>0.65897E+03</wgt>
<wgt id='4007'>0.67358E+03</wgt>
<wgt id='4008'>0.65788E+03</wgt>
<wgt id='4009'>0.66713E+03</wgt>
<wgt id='4010'>0.65439E+03</wgt>
<wgt id='4011'>0.64387E+03</wgt>
<wgt id='4012'>0.67442E+03</wgt>
<wgt id='4013'>0.64389E+03</wgt>
<wgt id='4014'>0.67819E+03</wgt>
<wgt id='4015'>0.66546E+03</wgt>
<wgt id='4016'>0.65163E+03</wgt>
<wgt id='4017'>0.67968E+03</wgt>
<wgt id='4018'>0.64159E+03</wgt>
<wgt id='4019'>0.66847E+03</wgt>
<wgt id='4020'>0.65501E+03</wgt>
<wgt id='4021'>0.66529E+03</wgt>
<wgt id='4022'>0.65681E+03</wgt>
<wgt id='4023'>0.66444E+03</wgt>
<wgt id='4024'>0.65888E+03</wgt>
<wgt id='4025'>0.66331E+03</wgt>
<wgt id='4026'>0.66090E+03</wgt>
<wgt id='4027'>0.65325E+03</wgt>
<wgt id='4028'>0.67321E+03</wgt>
<wgt id='4029'>0.66480E+03</wgt>
<wgt id='4030'>0.66077E+03</wgt>
<wgt id='4031'>0.66065E+03</wgt>
<wgt id='4032'>0.66336E+03</wgt>
<wgt id='4033'>0.65824E+03</wgt>
<wgt id='4034'>0.66979E+03</wgt>
<wgt id='4035'>0.67197E+03</wgt>
<wgt id='4036'>0.65199E+03</wgt>
<wgt id='4037'>0.65873E+03</wgt>
<wgt id='4038'>0.66364E+03</wgt>
<wgt id='4039'>0.65185E+03</wgt>
<wgt id='4040'>0.66636E+03</wgt>
<wgt id='4041'>0.65172E+03</wgt>
<wgt id='4042'>0.67117E+03</wgt>
<wgt id='4043'>0.66486E+03</wgt>
<wgt id='4044'>0.65980E+03</wgt>
<wgt id='4045'>0.66197E+03</wgt>
<wgt id='4046'>0.66129E+03</wgt>
<wgt id='4047'>0.65851E+03</wgt>
<wgt id='4048'>0.67219E+03</wgt>
<wgt id='4049'>0.65927E+03</wgt>
<wgt id='4050'>0.67009E+03</wgt>
<wgt id='4051'>0.66253E+03</wgt>
<wgt id='4052'>0.65390E+03</wgt>
<wgt id='4053'>0.65242E+03</wgt>
<wgt id='4054'>0.65888E+03</wgt>
<wgt id='4055'>0.66122E+03</wgt>
<wgt id='4056'>0.66543E+03</wgt>
<wgt id='4060'>0.64182E+03</wgt>
<wgt id='4070'>0.68061E+03</wgt>
<wgt id='4080'>0.61096E+03</wgt>
<wgt id='6000'>0.66725E+03</wgt>
<wgt id='6001'>0.66688E+03</wgt>
<wgt id='6002'>0.66761E+03</wgt>
<wgt id='6003'>0.66525E+03</wgt>
<wgt id='6004'>0.66857E+03</wgt>
<wgt id='6005'>0.66709E+03</wgt>
<wgt id='6006'>0.66740E+03</wgt>
<wgt id='6007'>0.66605E+03</wgt>
<wgt id='6008'>0.66856E+03</wgt>
<wgt id='6009'>0.66811E+03</wgt>
<wgt id='6010'>0.66639E+03</wgt>
<wgt id='6011'>0.66577E+03</wgt>
<wgt id='6012'>0.67046E+03</wgt>
<wgt id='6013'>0.67085E+03</wgt>
<wgt id='6014'>0.66079E+03</wgt>
<wgt id='6015'>0.67220E+03</wgt>
<wgt id='6016'>0.66441E+03</wgt>
<wgt id='6017'>0.67091E+03</wgt>
<wgt id='6018'>0.66305E+03</wgt>
<wgt id='6019'>0.66516E+03</wgt>
<wgt id='6020'>0.66903E+03</wgt>
<wgt id='6021'>0.66960E+03</wgt>
<wgt id='6022'>0.66410E+03</wgt>
<wgt id='6023'>0.67456E+03</wgt>
<wgt id='6024'>0.66246E+03</wgt>
<wgt id='6025'>0.66628E+03</wgt>
<wgt id='6026'>0.66748E+03</wgt>
<wgt id='6027'>0.66296E+03</wgt>
<wgt id='6028'>0.66535E+03</wgt>
<wgt id='6029'>0.67035E+03</wgt>
<wgt id='6030'>0.66327E+03</wgt>
<wgt id='6031'>0.67692E+03</wgt>
<wgt id='6032'>0.65645E+03</wgt>
<wgt id='6033'>0.66382E+03</wgt>
<wgt id='6034'>0.67062E+03</wgt>
<wgt id='6035'>0.66708E+03</wgt>
<wgt id='6036'>0.66805E+03</wgt>
<wgt id='6037'>0.66692E+03</wgt>
<wgt id='6038'>0.66735E+03</wgt>
<wgt id='6039'>0.66542E+03</wgt>
<wgt id='6040'>0.66883E+03</wgt>
<wgt id='6041'>0.65289E+03</wgt>
<wgt id='6042'>0.67992E+03</wgt>
<wgt id='6043'>0.67038E+03</wgt>
<wgt id='6044'>0.66255E+03</wgt>
<wgt id='6045'>0.66211E+03</wgt>
<wgt id='6046'>0.67992E+03</wgt>
<wgt id='6047'>0.66468E+03</wgt>
<wgt id='6048'>0.66491E+03</wgt>
<wgt id='6049'>0.66869E+03</wgt>
<wgt id='6050'>0.66293E+03</wgt>
<wgt id='7000'>0.67989E+03</wgt>
<wgt id='7001'>0.67925E+03</wgt>
<wgt id='7002'>0.68070E+03</wgt>
<wgt id='7003'>0.68100E+03</wgt>
<wgt id='7004'>0.67879E+03</wgt>
<wgt id='7005'>0.67736E+03</wgt>
<wgt id='7006'>0.68092E+03</wgt>
<wgt id='7007'>0.67868E+03</wgt>
<wgt id='7008'>0.68109E+03</wgt>
<wgt id='7009'>0.68141E+03</wgt>
<wgt id='7010'>0.67843E+03</wgt>
<wgt id='7011'>0.68359E+03</wgt>
<wgt id='7012'>0.67829E+03</wgt>
<wgt id='7013'>0.67980E+03</wgt>
<wgt id='7014'>0.68001E+03</wgt>
<wgt id='7015'>0.68603E+03</wgt>
<wgt id='7016'>0.67325E+03</wgt>
<wgt id='7017'>0.68102E+03</wgt>
<wgt id='7018'>0.67924E+03</wgt>
<wgt id='7019'>0.68035E+03</wgt>
<wgt id='7020'>0.67926E+03</wgt>
<wgt id='7021'>0.67627E+03</wgt>
<wgt id='7022'>0.68236E+03</wgt>
<wgt id='7023'>0.67370E+03</wgt>
<wgt id='7024'>0.68572E+03</wgt>
<wgt id='7025'>0.67715E+03</wgt>
<wgt id='7026'>0.68681E+03</wgt>
<wgt id='7027'>0.67731E+03</wgt>
<wgt id='7028'>0.67579E+03</wgt>
<wgt id='7029'>0.67603E+03</wgt>
<wgt id='7030'>0.69008E+03</wgt>
<wgt id='7031'>0.68480E+03</wgt>
<wgt id='7032'>0.66901E+03</wgt>
<wgt id='7033'>0.67903E+03</wgt>
<wgt id='7034'>0.68132E+03</wgt>
<wgt id='7035'>0.68242E+03</wgt>
<wgt id='7036'>0.67828E+03</wgt>
<wgt id='7037'>0.67938E+03</wgt>
<wgt id='7038'>0.67654E+03</wgt>
<wgt id='7039'>0.67807E+03</wgt>
<wgt id='7040'>0.68074E+03</wgt>
<wgt id='7041'>0.68942E+03</wgt>
<wgt id='7042'>0.65980E+03</wgt>
<wgt id='7043'>0.67860E+03</wgt>
<wgt id='7044'>0.67822E+03</wgt>
<wgt id='7045'>0.67315E+03</wgt>
<wgt id='7046'>0.68395E+03</wgt>
<wgt id='7047'>0.68918E+03</wgt>
<wgt id='7048'>0.67574E+03</wgt>
<wgt id='7049'>0.67956E+03</wgt>
<wgt id='7050'>0.67859E+03</wgt>
<wgt id='7060'>0.79982E+03</wgt>
<wgt id='8000'>0.63504E+03</wgt>
<wgt id='8001'>0.63494E+03</wgt>
<wgt id='8002'>0.63515E+03</wgt>
<wgt id='8003'>0.63441E+03</wgt>
<wgt id='8004'>0.63505E+03</wgt>
<wgt id='8005'>0.63589E+03</wgt>
<wgt id='8006'>0.63267E+03</wgt>
<wgt id='8007'>0.63624E+03</wgt>
<wgt id='8008'>0.63584E+03</wgt>
<wgt id='8009'>0.63013E+03</wgt>
<wgt id='8010'>0.63643E+03</wgt>
<wgt id='8011'>0.63648E+03</wgt>
<wgt id='8012'>0.63741E+03</wgt>
<wgt id='8013'>0.63490E+03</wgt>
<wgt id='8014'>0.63516E+03</wgt>
<wgt id='8015'>0.63558E+03</wgt>
<wgt id='8016'>0.63266E+03</wgt>
<wgt id='8017'>0.63376E+03</wgt>
<wgt id='8018'>0.63451E+03</wgt>
<wgt id='8019'>0.63700E+03</wgt>
<wgt id='8020'>0.63475E+03</wgt>
<wgt id='8021'>0.63305E+03</wgt>
<wgt id='8022'>0.63477E+03</wgt>
<wgt id='8023'>0.63830E+03</wgt>
<wgt id='8024'>0.63751E+03</wgt>
<wgt id='8025'>0.63513E+03</wgt>
<wgt id='8026'>0.63811E+03</wgt>
<wgt id='8027'>0.63988E+03</wgt>
<wgt id='8028'>0.62930E+03</wgt>
<wgt id='8029'>0.62915E+03</wgt>
<wgt id='8500'>0.66607E+03</wgt>
<wgt id='8501'>0.66623E+03</wgt>
<wgt id='8502'>0.66489E+03</wgt>
<wgt id='8503'>0.66929E+03</wgt>
<wgt id='8504'>0.66512E+03</wgt>
<wgt id='8505'>0.66525E+03</wgt>
<wgt id='8506'>0.66302E+03</wgt>
<wgt id='8507'>0.66604E+03</wgt>
<wgt id='8508'>0.66905E+03</wgt>
<wgt id='8509'>0.66858E+03</wgt>
<wgt id='8510'>0.67079E+03</wgt>
<wgt id='8511'>0.66071E+03</wgt>
<wgt id='8512'>0.66417E+03</wgt>
<wgt id='8513'>0.65977E+03</wgt>
<wgt id='8514'>0.66431E+03</wgt>
<wgt id='8515'>0.66427E+03</wgt>
<wgt id='8516'>0.66180E+03</wgt>
<wgt id='8517'>0.66662E+03</wgt>
<wgt id='8518'>0.67537E+03</wgt>
<wgt id='8519'>0.66358E+03</wgt>
<wgt id='8520'>0.67145E+03</wgt>
<wgt id='8521'>0.66985E+03</wgt>
<wgt id='8522'>0.66589E+03</wgt>
<wgt id='8523'>0.67518E+03</wgt>
<wgt id='8524'>0.66149E+03</wgt>
<wgt id='8525'>0.66590E+03</wgt>
<wgt id='8526'>0.66547E+03</wgt>
<wgt id='8527'>0.66751E+03</wgt>
<wgt id='8528'>0.66334E+03</wgt>
<wgt id='8529'>0.66468E+03</wgt>
<wgt id='8530'>0.66660E+03</wgt>
<wgt id='8531'>0.66275E+03</wgt>
<wgt id='8532'>0.67150E+03</wgt>
<wgt id='8533'>0.66706E+03</wgt>
<wgt id='8534'>0.66357E+03</wgt>
<wgt id='8535'>0.67083E+03</wgt>
<wgt id='8536'>0.66518E+03</wgt>
<wgt id='8537'>0.66626E+03</wgt>
<wgt id='8538'>0.66189E+03</wgt>
<wgt id='8539'>0.66442E+03</wgt>
<wgt id='8540'>0.66341E+03</wgt>
<wgt id='8541'>0.66852E+03</wgt>
<wgt id='8542'>0.66359E+03</wgt>
<wgt id='8543'>0.66519E+03</wgt>
<wgt id='8544'>0.66718E+03</wgt>
<wgt id='8545'>0.66390E+03</wgt>
<wgt id='8546'>0.66883E+03</wgt>
<wgt id='8547'>0.66482E+03</wgt>
<wgt id='8548'>0.66669E+03</wgt>
<wgt id='8549'>0.66515E+03</wgt>
<wgt id='8550'>0.66380E+03</wgt>
<wgt id='8551'>0.66536E+03</wgt>
<wgt id='8552'>0.66531E+03</wgt>
<wgt id='8553'>0.66563E+03</wgt>
<wgt id='8554'>0.66744E+03</wgt>
<wgt id='8555'>0.66642E+03</wgt>
<wgt id='8556'>0.66576E+03</wgt>
<wgt id='8557'>0.66631E+03</wgt>
<wgt id='8558'>0.66809E+03</wgt>
<wgt id='8559'>0.66681E+03</wgt>
<wgt id='8560'>0.66535E+03</wgt>
<wgt id='8561'>0.66696E+03</wgt>
<wgt id='8562'>0.66576E+03</wgt>
<wgt id='8563'>0.66659E+03</wgt>
<wgt id='8564'>0.66633E+03</wgt>
<wgt id='8565'>0.66596E+03</wgt>
<wgt id='8566'>0.66731E+03</wgt>
<wgt id='8567'>0.66566E+03</wgt>
<wgt id='8568'>0.66676E+03</wgt>
<wgt id='8569'>0.66545E+03</wgt>
<wgt id='8570'>0.66568E+03</wgt>
<wgt id='8571'>0.66589E+03</wgt>
<wgt id='8572'>0.66565E+03</wgt>
<wgt id='8573'>0.66655E+03</wgt>
<wgt id='8574'>0.66579E+03</wgt>
<wgt id='8575'>0.66581E+03</wgt>
<wgt id='8576'>0.66611E+03</wgt>
<wgt id='8577'>0.66592E+03</wgt>
<wgt id='8578'>0.66581E+03</wgt>
<wgt id='8579'>0.66646E+03</wgt>
<wgt id='8580'>0.66599E+03</wgt>
<wgt id='8581'>0.66656E+03</wgt>
<wgt id='8582'>0.66591E+03</wgt>
<wgt id='8583'>0.66643E+03</wgt>
<wgt id='8584'>0.66650E+03</wgt>
<wgt id='8585'>0.66654E+03</wgt>
<wgt id='8586'>0.66675E+03</wgt>
<wgt id='8587'>0.66651E+03</wgt>
<wgt id='8588'>0.66584E+03</wgt>
<wgt id='8589'>0.66611E+03</wgt>
<wgt id='8590'>0.66614E+03</wgt>
<wgt id='8591'>0.66604E+03</wgt>
<wgt id='8592'>0.66643E+03</wgt>
<wgt id='8593'>0.66614E+03</wgt>
<wgt id='8594'>0.66631E+03</wgt>
<wgt id='8595'>0.66641E+03</wgt>
<wgt id='8596'>0.66596E+03</wgt>
<wgt id='8597'>0.66614E+03</wgt>
<wgt id='8598'>0.66632E+03</wgt>
<wgt id='8599'>0.66640E+03</wgt>
<wgt id='8600'>0.66588E+03</wgt>
<wgt id='8601'>0.65009E+03</wgt>
<wgt id='8602'>0.67946E+03</wgt>
<wgt id='9000'>0.66434E+03</wgt>
<wgt id='9001'>0.66678E+03</wgt>
<wgt id='9002'>0.66616E+03</wgt>
<wgt id='9003'>0.66017E+03</wgt>
<wgt id='9004'>0.66579E+03</wgt>
<wgt id='9005'>0.66718E+03</wgt>
<wgt id='9006'>0.66356E+03</wgt>
<wgt id='9007'>0.66520E+03</wgt>
<wgt id='9008'>0.66391E+03</wgt>
<wgt id='9009'>0.66124E+03</wgt>
<wgt id='9010'>0.66134E+03</wgt>
<wgt id='9011'>0.66935E+03</wgt>
<wgt id='9012'>0.66541E+03</wgt>
<wgt id='9013'>0.66176E+03</wgt>
<wgt id='9014'>0.66412E+03</wgt>
<wgt id='9015'>0.67863E+03</wgt>
<wgt id='9016'>0.66051E+03</wgt>
<wgt id='9017'>0.66513E+03</wgt>
<wgt id='9018'>0.66673E+03</wgt>
<wgt id='9019'>0.65704E+03</wgt>
<wgt id='9020'>0.66242E+03</wgt>
<wgt id='9021'>0.66918E+03</wgt>
<wgt id='9022'>0.65392E+03</wgt>
<wgt id='9023'>0.66801E+03</wgt>
<wgt id='9024'>0.66769E+03</wgt>
<wgt id='9025'>0.66424E+03</wgt>
<wgt id='9026'>0.66369E+03</wgt>
<wgt id='9027'>0.66371E+03</wgt>
<wgt id='9028'>0.66283E+03</wgt>
<wgt id='9029'>0.66038E+03</wgt>
<wgt id='9030'>0.66375E+03</wgt>
<wgt id='9031'>0.66061E+03</wgt>
<wgt id='9032'>0.66585E+03</wgt>
<wgt id='9033'>0.66292E+03</wgt>
<wgt id='9034'>0.66113E+03</wgt>
<wgt id='9035'>0.66679E+03</wgt>
<wgt id='9036'>0.66498E+03</wgt>
<wgt id='9037'>0.66838E+03</wgt>
<wgt id='9038'>0.66887E+03</wgt>
<wgt id='9039'>0.66578E+03</wgt>
<wgt id='9040'>0.66692E+03</wgt>
<wgt id='9041'>0.66235E+03</wgt>
<wgt id='9042'>0.66459E+03</wgt>
<wgt id='9043'>0.66300E+03</wgt>
<wgt id='9044'>0.66178E+03</wgt>
<wgt id='9045'>0.66477E+03</wgt>
<wgt id='9046'>0.66033E+03</wgt>
<wgt id='9047'>0.66781E+03</wgt>
<wgt id='9048'>0.66587E+03</wgt>
<wgt id='9049'>0.66287E+03</wgt>
<wgt id='9050'>0.66315E+03</wgt>
<wgt id='9051'>0.66417E+03</wgt>
<wgt id='9052'>0.66389E+03</wgt>
<wgt id='9053'>0.66592E+03</wgt>
<wgt id='9054'>0.66408E+03</wgt>
<wgt id='9055'>0.66332E+03</wgt>
<wgt id='9056'>0.66434E+03</wgt>
<wgt id='9057'>0.66574E+03</wgt>
<wgt id='9058'>0.66360E+03</wgt>
<wgt id='9059'>0.66280E+03</wgt>
<wgt id='9060'>0.66401E+03</wgt>
<wgt id='9061'>0.66447E+03</wgt>
<wgt id='9062'>0.66454E+03</wgt>
<wgt id='9063'>0.66490E+03</wgt>
<wgt id='9064'>0.66537E+03</wgt>
<wgt id='9065'>0.66453E+03</wgt>
<wgt id='9066'>0.66439E+03</wgt>
<wgt id='9067'>0.66407E+03</wgt>
<wgt id='9068'>0.66401E+03</wgt>
<wgt id='9069'>0.66437E+03</wgt>
<wgt id='9070'>0.66429E+03</wgt>
<wgt id='9071'>0.66539E+03</wgt>
<wgt id='9072'>0.66458E+03</wgt>
<wgt id='9073'>0.66437E+03</wgt>
<wgt id='9074'>0.66477E+03</wgt>
<wgt id='9075'>0.66469E+03</wgt>
<wgt id='9076'>0.66430E+03</wgt>
<wgt id='9077'>0.66422E+03</wgt>
<wgt id='9078'>0.66444E+03</wgt>
<wgt id='9079'>0.66480E+03</wgt>
<wgt id='9080'>0.66498E+03</wgt>
<wgt id='9081'>0.66465E+03</wgt>
<wgt id='9082'>0.66454E+03</wgt>
<wgt id='9083'>0.66415E+03</wgt>
<wgt id='9084'>0.66463E+03</wgt>
<wgt id='9085'>0.66373E+03</wgt>
<wgt id='9086'>0.66458E+03</wgt>
<wgt id='9087'>0.66386E+03</wgt>
<wgt id='9088'>0.66392E+03</wgt>
<wgt id='9089'>0.66438E+03</wgt>
<wgt id='9090'>0.66446E+03</wgt>
<wgt id='9091'>0.66414E+03</wgt>
<wgt id='9092'>0.66444E+03</wgt>
<wgt id='9093'>0.66437E+03</wgt>
<wgt id='9094'>0.66406E+03</wgt>
<wgt id='9095'>0.66460E+03</wgt>
<wgt id='9096'>0.66388E+03</wgt>
<wgt id='9097'>0.66432E+03</wgt>
<wgt id='9098'>0.66451E+03</wgt>
<wgt id='9099'>0.66427E+03</wgt>
<wgt id='9100'>0.66429E+03</wgt>
<wgt id='9101'>0.64798E+03</wgt>
<wgt id='9102'>0.67730E+03</wgt>
<wgt id='10000'>0.66605E+03</wgt>
<wgt id='10001'>0.66906E+03</wgt>
<wgt id='10002'>0.65886E+03</wgt>
<wgt id='10003'>0.66513E+03</wgt>
<wgt id='10004'>0.66794E+03</wgt>
<wgt id='10005'>0.66880E+03</wgt>
<wgt id='10006'>0.68413E+03</wgt>
<wgt id='10007'>0.66551E+03</wgt>
<wgt id='10008'>0.66723E+03</wgt>
<wgt id='10009'>0.66756E+03</wgt>
<wgt id='10010'>0.66733E+03</wgt>
<wgt id='10011'>0.66342E+03</wgt>
<wgt id='10012'>0.66605E+03</wgt>
<wgt id='10013'>0.66615E+03</wgt>
<wgt id='10014'>0.65720E+03</wgt>
<wgt id='10015'>0.66620E+03</wgt>
<wgt id='10016'>0.66645E+03</wgt>
<wgt id='10017'>0.66403E+03</wgt>
<wgt id='10018'>0.66280E+03</wgt>
<wgt id='10019'>0.66747E+03</wgt>
<wgt id='10020'>0.67027E+03</wgt>
<wgt id='10021'>0.66560E+03</wgt>
<wgt id='10022'>0.66582E+03</wgt>
<wgt id='10023'>0.66620E+03</wgt>
<wgt id='10024'>0.66460E+03</wgt>
<wgt id='10025'>0.66685E+03</wgt>
<wgt id='10026'>0.66313E+03</wgt>
<wgt id='10027'>0.66651E+03</wgt>
<wgt id='10028'>0.66659E+03</wgt>
<wgt id='10029'>0.66562E+03</wgt>
<wgt id='10030'>0.66639E+03</wgt>
<wgt id='10031'>0.65009E+03</wgt>
<wgt id='10032'>0.67946E+03</wgt>
<wgt id='11000'>0.66433E+03</wgt>
<wgt id='11001'>0.66913E+03</wgt>
<wgt id='11002'>0.68040E+03</wgt>
<wgt id='11003'>0.66262E+03</wgt>
<wgt id='11004'>0.66695E+03</wgt>
<wgt id='11005'>0.65963E+03</wgt>
<wgt id='11006'>0.66407E+03</wgt>
<wgt id='11007'>0.66255E+03</wgt>
<wgt id='11008'>0.66961E+03</wgt>
<wgt id='11009'>0.65615E+03</wgt>
<wgt id='11010'>0.66401E+03</wgt>
<wgt id='11011'>0.67079E+03</wgt>
<wgt id='11012'>0.66554E+03</wgt>
<wgt id='11013'>0.66665E+03</wgt>
<wgt id='11014'>0.66485E+03</wgt>
<wgt id='11015'>0.66585E+03</wgt>
<wgt id='11016'>0.66468E+03</wgt>
<wgt id='11017'>0.66003E+03</wgt>
<wgt id='11018'>0.66418E+03</wgt>
<wgt id='11019'>0.66601E+03</wgt>
<wgt id='11020'>0.66249E+03</wgt>
<wgt id='11021'>0.65597E+03</wgt>
<wgt id='11022'>0.66603E+03</wgt>
<wgt id='11023'>0.66368E+03</wgt>
<wgt id='11024'>0.66543E+03</wgt>
<wgt id='11025'>0.66421E+03</wgt>
<wgt id='11026'>0.66240E+03</wgt>
<wgt id='11027'>0.66594E+03</wgt>
<wgt id='11028'>0.66213E+03</wgt>
<wgt id='11029'>0.66679E+03</wgt>
<wgt id='11030'>0.66478E+03</wgt>
<wgt id='11031'>0.64798E+03</wgt>
<wgt id='11032'>0.67730E+03</wgt>
<wgt id='12000'>0.67700E+03</wgt>
<wgt id='12001'>0.67777E+03</wgt>
<wgt id='12002'>0.67624E+03</wgt>
<wgt id='12003'>0.67642E+03</wgt>
<wgt id='12004'>0.67758E+03</wgt>
<wgt id='12005'>0.67745E+03</wgt>
<wgt id='12006'>0.67655E+03</wgt>
<wgt id='12007'>0.67544E+03</wgt>
<wgt id='12008'>0.67852E+03</wgt>
<wgt id='12009'>0.66376E+03</wgt>
<wgt id='12010'>0.69011E+03</wgt>
<wgt id='12011'>0.68412E+03</wgt>
<wgt id='12012'>0.66989E+03</wgt>
<wgt id='12013'>0.67838E+03</wgt>
<wgt id='12014'>0.67561E+03</wgt>
<wgt id='12015'>0.67587E+03</wgt>
<wgt id='12016'>0.67778E+03</wgt>
<wgt id='12017'>0.67222E+03</wgt>
<wgt id='12018'>0.68157E+03</wgt>
<wgt id='12019'>0.66867E+03</wgt>
<wgt id='12020'>0.68475E+03</wgt>
<wgt id='12021'>0.66658E+03</wgt>
<wgt id='12022'>0.68703E+03</wgt>
<wgt id='12023'>0.66262E+03</wgt>
<wgt id='12024'>0.69185E+03</wgt>
<wgt id='12025'>0.68858E+03</wgt>
<wgt id='12026'>0.66571E+03</wgt>
<wgt id='12027'>0.67196E+03</wgt>
<wgt id='12028'>0.68254E+03</wgt>
<wgt id='12050'>0.67700E+03</wgt>
<wgt id='12051'>0.69762E+03</wgt>
<wgt id='12052'>0.65632E+03</wgt>
<wgt id='12053'>0.74244E+03</wgt>
<wgt id='12054'>0.71847E+03</wgt>
<wgt id='12055'>0.68456E+03</wgt>
<wgt id='12056'>0.67472E+03</wgt>
<wgt id='12057'>0.67660E+03</wgt>
<wgt id='12058'>0.67736E+03</wgt>
<wgt id='12059'>0.67385E+03</wgt>
<wgt id='12060'>0.67999E+03</wgt>
<wgt id='12061'>0.67268E+03</wgt>
<wgt id='12062'>0.68257E+03</wgt>
<wgt id='12063'>0.71000E+03</wgt>
<wgt id='13000'>0.71820E+03</wgt>
<wgt id='13001'>0.71873E+03</wgt>
<wgt id='13002'>0.71716E+03</wgt>
<wgt id='13003'>0.71721E+03</wgt>
<wgt id='13004'>0.71868E+03</wgt>
<wgt id='13005'>0.71807E+03</wgt>
<wgt id='13006'>0.71781E+03</wgt>
<wgt id='13007'>0.71631E+03</wgt>
<wgt id='13008'>0.71951E+03</wgt>
<wgt id='13009'>0.71621E+03</wgt>
<wgt id='13010'>0.71965E+03</wgt>
<wgt id='13011'>0.70318E+03</wgt>
<wgt id='13012'>0.73259E+03</wgt>
<wgt id='13013'>0.72098E+03</wgt>
<wgt id='13014'>0.71489E+03</wgt>
<wgt id='13015'>0.71673E+03</wgt>
<wgt id='13016'>0.71898E+03</wgt>
<wgt id='13017'>0.71916E+03</wgt>
<wgt id='13018'>0.71664E+03</wgt>
<wgt id='13019'>0.70720E+03</wgt>
<wgt id='13020'>0.72810E+03</wgt>
<wgt id='13021'>0.71910E+03</wgt>
<wgt id='13022'>0.71639E+03</wgt>
<wgt id='13023'>0.72855E+03</wgt>
<wgt id='13024'>0.70799E+03</wgt>
<wgt id='13025'>0.71770E+03</wgt>
<wgt id='13026'>0.72018E+03</wgt>
<wgt id='13027'>0.71146E+03</wgt>
<wgt id='13028'>0.72575E+03</wgt>
<wgt id='13050'>0.71820E+03</wgt>
<wgt id='13051'>0.73732E+03</wgt>
<wgt id='13052'>0.69954E+03</wgt>
<wgt id='13053'>0.76338E+03</wgt>
<wgt id='13054'>0.73156E+03</wgt>
<wgt id='13055'>0.74851E+03</wgt>
<wgt id='13056'>0.69314E+03</wgt>
<wgt id='13057'>0.71745E+03</wgt>
<wgt id='13058'>0.72015E+03</wgt>
<wgt id='13059'>0.69516E+03</wgt>
<wgt id='13060'>0.74148E+03</wgt>
<wgt id='13061'>0.69279E+03</wgt>
<wgt id='13062'>0.72991E+03</wgt>
<wgt id='13063'>0.69256E+03</wgt>
<wgt id='14000'>0.65637E+03</wgt>
<wgt id='14001'>0.65618E+03</wgt>
<wgt id='14002'>0.65599E+03</wgt>
<wgt id='14003'>0.65579E+03</wgt>
<wgt id='14004'>0.65561E+03</wgt>
<wgt id='14005'>0.65542E+03</wgt>
<wgt id='14006'>0.65522E+03</wgt>
<wgt id='14007'>0.65503E+03</wgt>
<wgt id='14008'>0.65484E+03</wgt>
<wgt id='14009'>0.65466E+03</wgt>
<wgt id='14010'>0.65446E+03</wgt>
<wgt id='14011'>0.65427E+03</wgt>
<wgt id='14012'>0.65409E+03</wgt>
<wgt id='14013'>0.65389E+03</wgt>
<wgt id='14014'>0.65370E+03</wgt>
<wgt id='14015'>0.65351E+03</wgt>
<wgt id='14016'>0.65333E+03</wgt>
<wgt id='14017'>0.65314E+03</wgt>
<wgt id='14018'>0.65294E+03</wgt>
<wgt id='14019'>0.65275E+03</wgt>
<wgt id='14020'>0.65256E+03</wgt>
<wgt id='14021'>0.65238E+03</wgt>
<wgt id='14022'>0.65218E+03</wgt>
<wgt id='14023'>0.65199E+03</wgt>
<wgt id='14024'>0.65181E+03</wgt>
<wgt id='14025'>0.65162E+03</wgt>
<wgt id='14026'>0.65143E+03</wgt>
<wgt id='14027'>0.65124E+03</wgt>
<wgt id='14028'>0.65105E+03</wgt>
<wgt id='14029'>0.65086E+03</wgt>
<wgt id='14030'>0.65066E+03</wgt>
<wgt id='15000'>0.66129E+03</wgt>
<wgt id='15001'>0.66362E+03</wgt>
<wgt id='15002'>0.66307E+03</wgt>
<wgt id='15003'>0.65715E+03</wgt>
<wgt id='15004'>0.66272E+03</wgt>
<wgt id='15005'>0.66411E+03</wgt>
<wgt id='15006'>0.66060E+03</wgt>
<wgt id='15007'>0.66223E+03</wgt>
<wgt id='15008'>0.66086E+03</wgt>
<wgt id='15009'>0.65821E+03</wgt>
<wgt id='15010'>0.65828E+03</wgt>
<wgt id='15011'>0.66639E+03</wgt>
<wgt id='15012'>0.66241E+03</wgt>
<wgt id='15013'>0.65877E+03</wgt>
<wgt id='15014'>0.66106E+03</wgt>
<wgt id='15015'>0.67539E+03</wgt>
<wgt id='15016'>0.65758E+03</wgt>
<wgt id='15017'>0.66204E+03</wgt>
<wgt id='15018'>0.66364E+03</wgt>
<wgt id='15019'>0.65408E+03</wgt>
<wgt id='15020'>0.65946E+03</wgt>
<wgt id='15021'>0.66608E+03</wgt>
<wgt id='15022'>0.65089E+03</wgt>
<wgt id='15023'>0.66499E+03</wgt>
<wgt id='15024'>0.66458E+03</wgt>
<wgt id='15025'>0.66111E+03</wgt>
<wgt id='15026'>0.66057E+03</wgt>
<wgt id='15027'>0.66075E+03</wgt>
<wgt id='15028'>0.65982E+03</wgt>
<wgt id='15029'>0.65730E+03</wgt>
<wgt id='15030'>0.66066E+03</wgt>
<wgt id='15031'>0.65766E+03</wgt>
<wgt id='15032'>0.66276E+03</wgt>
<wgt id='15033'>0.65984E+03</wgt>
<wgt id='15034'>0.65808E+03</wgt>
<wgt id='15035'>0.66371E+03</wgt>
<wgt id='15036'>0.66193E+03</wgt>
<wgt id='15037'>0.66532E+03</wgt>
<wgt id='15038'>0.66579E+03</wgt>
<wgt id='15039'>0.66269E+03</wgt>
<wgt id='15040'>0.66386E+03</wgt>
<wgt id='15041'>0.65929E+03</wgt>
<wgt id='15042'>0.66153E+03</wgt>
<wgt id='15043'>0.66000E+03</wgt>
<wgt id='15044'>0.65874E+03</wgt>
<wgt id='15045'>0.66170E+03</wgt>
<wgt id='15046'>0.65733E+03</wgt>
<wgt id='15047'>0.66473E+03</wgt>
<wgt id='15048'>0.66283E+03</wgt>
<wgt id='15049'>0.65982E+03</wgt>
<wgt id='15050'>0.66011E+03</wgt>
<wgt id='15051'>0.66111E+03</wgt>
<wgt id='15052'>0.66084E+03</wgt>
<wgt id='15053'>0.66287E+03</wgt>
<wgt id='15054'>0.66103E+03</wgt>
<wgt id='15055'>0.66028E+03</wgt>
<wgt id='15056'>0.66126E+03</wgt>
<wgt id='15057'>0.66269E+03</wgt>
<wgt id='15058'>0.66058E+03</wgt>
<wgt id='15059'>0.65977E+03</wgt>
<wgt id='15060'>0.66099E+03</wgt>
<wgt id='15061'>0.66142E+03</wgt>
<wgt id='15062'>0.66148E+03</wgt>
<wgt id='15063'>0.66183E+03</wgt>
<wgt id='15064'>0.66232E+03</wgt>
<wgt id='15065'>0.66147E+03</wgt>
<wgt id='15066'>0.66134E+03</wgt>
<wgt id='15067'>0.66101E+03</wgt>
<wgt id='15068'>0.66097E+03</wgt>
<wgt id='15069'>0.66131E+03</wgt>
<wgt id='15070'>0.66124E+03</wgt>
<wgt id='15071'>0.66235E+03</wgt>
<wgt id='15072'>0.66152E+03</wgt>
<wgt id='15073'>0.66131E+03</wgt>
<wgt id='15074'>0.66171E+03</wgt>
<wgt id='15075'>0.66164E+03</wgt>
<wgt id='15076'>0.66127E+03</wgt>
<wgt id='15077'>0.66118E+03</wgt>
<wgt id='15078'>0.66141E+03</wgt>
<wgt id='15079'>0.66175E+03</wgt>
<wgt id='15080'>0.66191E+03</wgt>
<wgt id='15081'>0.66161E+03</wgt>
<wgt id='15082'>0.66149E+03</wgt>
<wgt id='15083'>0.66110E+03</wgt>
<wgt id='15084'>0.66158E+03</wgt>
<wgt id='15085'>0.66069E+03</wgt>
<wgt id='15086'>0.66155E+03</wgt>
<wgt id='15087'>0.66081E+03</wgt>
<wgt id='15088'>0.66087E+03</wgt>
<wgt id='15089'>0.66133E+03</wgt>
<wgt id='15090'>0.66141E+03</wgt>
<wgt id='15091'>0.66108E+03</wgt>
<wgt id='15092'>0.66138E+03</wgt>
<wgt id='15093'>0.66133E+03</wgt>
<wgt id='15094'>0.66100E+03</wgt>
<wgt id='15095'>0.66155E+03</wgt>
<wgt id='15096'>0.66084E+03</wgt>
<wgt id='15097'>0.66127E+03</wgt>
<wgt id='15098'>0.66146E+03</wgt>
<wgt id='15099'>0.66123E+03</wgt>
<wgt id='15100'>0.66124E+03</wgt>
<wgt id='15101'>0.66129E+03</wgt>
<wgt id='15102'>0.66128E+03</wgt>
<wgt id='15103'>0.66129E+03</wgt>
<wgt id='15104'>0.66129E+03</wgt>
<wgt id='15105'>0.66130E+03</wgt>
<wgt id='15106'>0.66129E+03</wgt>
<wgt id='15107'>0.66128E+03</wgt>
<wgt id='1500'>0.66746E+03</wgt>
<wgt id='1501'>0.63983E+03</wgt>
<wgt id='1502'>0.67599E+03</wgt>
<wgt id='1503'>0.69504E+03</wgt>
<wgt id='1504'>0.69579E+03</wgt>
<wgt id='1505'>0.63558E+03</wgt>
<wgt id='1506'>0.64397E+03</wgt>
<wgt id='1507'>0.67921E+03</wgt>
<wgt id='1508'>0.69810E+03</wgt>
<wgt id='1509'>0.67255E+03</wgt>
<wgt id='1510'>0.67714E+03</wgt>
<wgt id='1511'>0.65453E+03</wgt>
<wgt id='1512'>0.66981E+03</wgt>
<wgt id='1513'>0.65290E+03</wgt>
<wgt id='1514'>0.65453E+03</wgt>
<wgt id='1515'>0.66399E+03</wgt>
<wgt id='1516'>0.68040E+03</wgt>
<wgt id='1517'>0.63283E+03</wgt>
<wgt id='1518'>0.60758E+03</wgt>
<wgt id='1519'>0.66503E+03</wgt>
<wgt id='1520'>0.68937E+03</wgt>
<wgt id='1521'>0.70518E+03</wgt>
<wgt id='1522'>0.69412E+03</wgt>
<wgt id='1523'>0.70228E+03</wgt>
<wgt id='1524'>0.66453E+03</wgt>
<wgt id='1525'>0.65998E+03</wgt>
<wgt id='1526'>0.65961E+03</wgt>
<wgt id='1527'>0.64917E+03</wgt>
<wgt id='1528'>0.63737E+03</wgt>
<wgt id='1529'>0.66253E+03</wgt>
<wgt id='1530'>0.68775E+03</wgt>
<wgt id='1531'>0.68858E+03</wgt>
<wgt id='1532'>0.66631E+03</wgt>
<wgt id='1533'>0.67875E+03</wgt>
<wgt id='1534'>0.66900E+03</wgt>
<wgt id='1535'>0.71349E+03</wgt>
<wgt id='1536'>0.67073E+03</wgt>
<wgt id='1537'>0.64960E+03</wgt>
<wgt id='1538'>0.65061E+03</wgt>
<wgt id='1539'>0.67556E+03</wgt>
<wgt id='1540'>0.67647E+03</wgt>
<wgt id='1541'>0.67242E+03</wgt>
<wgt id='1542'>0.66203E+03</wgt>
<wgt id='1543'>0.67010E+03</wgt>
<wgt id='1544'>0.66817E+03</wgt>
<wgt id='1545'>0.68473E+03</wgt>
<wgt id='1546'>0.64092E+03</wgt>
<wgt id='1547'>0.66741E+03</wgt>
<wgt id='1548'>0.66330E+03</wgt>
<wgt id='1549'>0.67974E+03</wgt>
<wgt id='1550'>0.67479E+03</wgt>
<wgt id='1551'>0.68355E+03</wgt>
<wgt id='1552'>0.67245E+03</wgt>
<wgt id='1553'>0.65315E+03</wgt>
<wgt id='1554'>0.67279E+03</wgt>
<wgt id='1555'>0.66853E+03</wgt>
<wgt id='1556'>0.62560E+03</wgt>
<wgt id='1557'>0.65117E+03</wgt>
<wgt id='1558'>0.66438E+03</wgt>
<wgt id='1559'>0.67340E+03</wgt>
<wgt id='1560'>0.70100E+03</wgt>
<wgt id='1561'>0.63997E+03</wgt>
<wgt id='1562'>0.65829E+03</wgt>
<wgt id='1563'>0.65176E+03</wgt>
<wgt id='1564'>0.61275E+03</wgt>
<wgt id='1565'>0.67990E+03</wgt>
<wgt id='1566'>0.65489E+03</wgt>
<wgt id='1567'>0.72172E+03</wgt>
<wgt id='1568'>0.65907E+03</wgt>
<wgt id='1569'>0.67755E+03</wgt>
<wgt id='1570'>0.65255E+03</wgt>
<wgt id='1571'>0.66768E+03</wgt>
<wgt id='1572'>0.65375E+03</wgt>
<wgt id='1573'>0.65511E+03</wgt>
<wgt id='1574'>0.68082E+03</wgt>
<wgt id='1575'>0.65475E+03</wgt>
<wgt id='1576'>0.68181E+03</wgt>
<wgt id='1577'>0.67113E+03</wgt>
<wgt id='1578'>0.70105E+03</wgt>
<wgt id='1579'>0.65500E+03</wgt>
<wgt id='1580'>0.67818E+03</wgt>
<wgt id='1581'>0.68646E+03</wgt>
<wgt id='1582'>0.70483E+03</wgt>
<wgt id='1583'>0.65390E+03</wgt>
<wgt id='1584'>0.67279E+03</wgt>
<wgt id='1585'>0.64583E+03</wgt>
<wgt id='1586'>0.67693E+03</wgt>
<wgt id='1587'>0.65395E+03</wgt>
<wgt id='1588'>0.67006E+03</wgt>
<wgt id='1589'>0.64047E+03</wgt>
<wgt id='1590'>0.68324E+03</wgt>
<wgt id='1591'>0.70590E+03</wgt>
<wgt id='1592'>0.69676E+03</wgt>
<wgt id='1593'>0.65669E+03</wgt>
<wgt id='1594'>0.67949E+03</wgt>
<wgt id='1595'>0.62596E+03</wgt>
<wgt id='1596'>0.67705E+03</wgt>
<wgt id='1597'>0.65858E+03</wgt>
<wgt id='1598'>0.66980E+03</wgt>
<wgt id='1599'>0.67010E+03</wgt>
<wgt id='1600'>0.61817E+03</wgt>
<wgt id='1601'>0.65844E+03</wgt>
<wgt id='1602'>0.67682E+03</wgt>
<wgt id='1700'>0.66501E+03</wgt>
<wgt id='1800'>0.72303E+03</wgt>
<wgt id='1850'>0.83989E+03</wgt>
<wgt id='1900'>0.64481E+03</wgt>
<wgt id='1950'>0.80789E+03</wgt>
</rwgt>
</event>
<event>
     13 322222  6.87070E+02  9.46369E+01 -1.00000E+00  1.23300E-01
      21    -1     0     0   504   505  0.000000000E+00  0.000000000E+00  6.640696874E+02  6.640696874E+02  0.000000000E+00  0.00000E+00  9.000E+00
      21    -1     0     0   502   503  0.000000000E+00  0.000000000E+00 -1.364687098E+02  1.364687098E+02  0.000000000E+00  0.00000E+00  9.000E+00
       6     2     1     2   502     0  5.824740216E+01 -3.430680397E+01  9.898012579E+00  1.821226303E+02  1.688222887E+02  0.00000E+00  9.000E+00
      -6     2     1     2     0   505 -1.501451712E+02  5.691067867E+01  3.065914028E+02  3.870627318E+02  1.733114891E+02  0.00000E+00  9.000E+00
      21     1     1     2   504   503  9.189776909E+01 -2.260387470E+01  2.111115622E+02  2.313530350E+02  2.697398305E-06  0.00000E+00  9.000E+00
      24     2     3     3     0     0  9.048193137E+01 -6.385158047E+01  1.008257147E+01  1.381336231E+02  8.194653965E+01  0.00000E+00  9.000E+00
       5     1     3     3   502     0 -3.223452921E+01  2.954477650E+01 -1.845588916E-01  4.398900720E+01  4.800000000E+00  0.00000E+00 -1.000E+00
     -24     2     4     4     0     0 -1.262525125E+02  5.952514991E+01  3.211878686E+02  3.585357022E+02  7.683269152E+01  0.00000E+00  9.000E+00
      -5     1     4     4     0   505 -2.389265874E+01 -2.614471236E+00 -1.459646576E+01  2.852702953E+01  4.800000000E+00  0.00000E+00  1.000E+00
     -13     1     6     6     0     0  3.266851481E+01  1.166576944E+01 -1.784697495E+01  3.901086674E+01  1.057000000E-01  0.00000E+00  1.000E+00
      14     1     6     6     0     0  5.781341656E+01 -7.551734991E+01  2.792954642E+01  9.912275640E+01  0.000000000E+00  0.00000E+00 -1.000E+00
       1     1     8     8   516     0  5.998075927E+00  4.255287913E+00  6.131733816E+01  6.175686480E+01  1.000000000E-01  0.00000E+00 -1.000E+00
      -2     1     8     8     0   516 -1.322505884E+02  5.526986200E+01  2.598705304E+02  2.967788374E+02  1.000000000E-01  0.00000E+00  1.000E+00
#rwgt            1           1   493.21073443421739                1        1474           0
<rwgt>
<wgt id='1001'>0.68707E+03</wgt>
<wgt id='1002'>0.62250E+03</wgt>
<wgt id='1003'>0.76137E+03</wgt>
<wgt id='1004'>0.73521E+03</wgt>
<wgt id='1005'>0.67371E+03</wgt>
<wgt id='1006'>0.80451E+03</wgt>
<wgt id='1007'>0.55780E+03</wgt>
<wgt id='1008'>0.49219E+03</wgt>
<wgt id='1009'>0.63586E+03</wgt>
<wgt id='2000'>0.68707E+03</wgt>
<wgt id='2001'>0.68615E+03</wgt>
<wgt id='2002'>0.68921E+03</wgt>
<wgt id='2003'>0.68908E+03</wgt>
<wgt id='2004'>0.68882E+03</wgt>
<wgt id='2005'>0.68562E+03</wgt>
<wgt id='2006'>0.68496E+03</wgt>
<wgt id='2007'>0.68375E+03</wgt>
<wgt id='2008'>0.68384E+03</wgt>
<wgt id='2009'>0.68883E+03</wgt>
<wgt id='2010'>0.68740E+03</wgt>
<wgt id='2011'>0.68636E+03</wgt>
<wgt id='2012'>0.68836E+03</wgt>
<wgt id='2013'>0.68901E+03</wgt>
<wgt id='2014'>0.69021E+03</wgt>
<wgt id='2015'>0.68886E+03</wgt>
<wgt id='2016'>0.68719E+03</wgt>
<wgt id='2017'>0.68675E+03</wgt>
<wgt id='2018'>0.68941E+03</wgt>
<wgt id='2019'>0.68685E+03</wgt>
<wgt id='2020'>0.69014E+03</wgt>
<wgt id='2021'>0.68523E+03</wgt>
<wgt id='2022'>0.68904E+03</wgt>
<wgt id='2023'>0.68866E+03</wgt>
<wgt id='2024'>0.68651E+03</wgt>
<wgt id='2025'>0.68893E+03</wgt>
<wgt id='2026'>0.68963E+03</wgt>
<wgt id='2027'>0.68640E+03</wgt>
<wgt id='2028'>0.68550E+03</wgt>
<wgt id='2029'>0.68939E+03</wgt>
<wgt id='2030'>0.68735E+03</wgt>
<wgt id='2031'>0.68746E+03</wgt>
<wgt id='2032'>0.68572E+03</wgt>
<wgt id='2033'>0.68851E+03</wgt>
<wgt id='2034'>0.68989E+03</wgt>
<wgt id='2035'>0.68730E+03</wgt>
<wgt id='2036'>0.68698E+03</wgt>
<wgt id='2037'>0.69011E+03</wgt>
<wgt id='2038'>0.68785E+03</wgt>
<wgt id='2039'>0.68411E+03</wgt>
<wgt id='2040'>0.68536E+03</wgt>
<wgt id='2041'>0.68647E+03</wgt>
<wgt id='2042'>0.68832E+03</wgt>
<wgt id='2043'>0.68677E+03</wgt>
<wgt id='2044'>0.68808E+03</wgt>
<wgt id='2045'>0.68688E+03</wgt>
<wgt id='2046'>0.68746E+03</wgt>
<wgt id='2047'>0.68684E+03</wgt>
<wgt id='2048'>0.68627E+03</wgt>
<wgt id='2049'>0.68635E+03</wgt>
<wgt id='2050'>0.68722E+03</wgt>
<wgt id='2051'>0.68791E+03</wgt>
<wgt id='2052'>0.68702E+03</wgt>
<wgt id='2053'>0.68736E+03</wgt>
<wgt id='2054'>0.68743E+03</wgt>
<wgt id='2055'>0.68702E+03</wgt>
<wgt id='2056'>0.68736E+03</wgt>
<wgt id='2057'>0.68751E+03</wgt>
<wgt id='2058'>0.68727E+03</wgt>
<wgt id='2059'>0.68662E+03</wgt>
<wgt id='2060'>0.68672E+03</wgt>
<wgt id='2061'>0.68704E+03</wgt>
<wgt id='2062'>0.68781E+03</wgt>
<wgt id='2063'>0.68697E+03</wgt>
<wgt id='2064'>0.68691E+03</wgt>
<wgt id='2065'>0.68745E+03</wgt>
<wgt id='2066'>0.68698E+03</wgt>
<wgt id='2067'>0.68714E+03</wgt>
<wgt id='2068'>0.68718E+03</wgt>
<wgt id='2069'>0.68721E+03</wgt>
<wgt id='2070'>0.68661E+03</wgt>
<wgt id='2071'>0.68671E+03</wgt>
<wgt id='2072'>0.68725E+03</wgt>
<wgt id='2073'>0.68696E+03</wgt>
<wgt id='2074'>0.68679E+03</wgt>
<wgt id='2075'>0.68683E+03</wgt>
<wgt id='2076'>0.68727E+03</wgt>
<wgt id='2077'>0.68675E+03</wgt>
<wgt id='2078'>0.68726E+03</wgt>
<wgt id='2079'>0.68728E+03</wgt>
<wgt id='2080'>0.68723E+03</wgt>
<wgt id='2081'>0.68689E+03</wgt>
<wgt id='2082'>0.68719E+03</wgt>
<wgt id='2083'>0.68722E+03</wgt>
<wgt id='2084'>0.68704E+03</wgt>
<wgt id='2085'>0.68720E+03</wgt>
<wgt id='2086'>0.68720E+03</wgt>
<wgt id='2087'>0.68698E+03</wgt>
<wgt id='2088'>0.68710E+03</wgt>
<wgt id='2089'>0.68736E+03</wgt>
<wgt id='2090'>0.68716E+03</wgt>
<wgt id='2091'>0.68691E+03</wgt>
<wgt id='2092'>0.68689E+03</wgt>
<wgt id='2093'>0.68734E+03</wgt>
<wgt id='2094'>0.68705E+03</wgt>
<wgt id='2095'>0.68718E+03</wgt>
<wgt id='2096'>0.68712E+03</wgt>
<wgt id='2097'>0.68738E+03</wgt>
<wgt id='2098'>0.68694E+03</wgt>
<wgt id='2099'>0.68720E+03</wgt>
<wgt id='2100'>0.68717E+03</wgt>
<wgt id='2101'>0.67844E+03</wgt>
<wgt id='2102'>0.69261E+03</wgt>
<wgt id='2104'>0.65818E+03</wgt>
<wgt id='2105'>0.66366E+03</wgt>
<wgt id='2106'>0.66961E+03</wgt>
<wgt id='2107'>0.67718E+03</wgt>
<wgt id='2108'>0.68634E+03</wgt>
<wgt id='2109'>0.69038E+03</wgt>
<wgt id='2110'>0.69381E+03</wgt>
<wgt id='2111'>0.69580E+03</wgt>
<wgt id='3000'>0.70618E+03</wgt>
<wgt id='3001'>0.70784E+03</wgt>
<wgt id='3002'>0.70430E+03</wgt>
<wgt id='3003'>0.70770E+03</wgt>
<wgt id='3004'>0.70815E+03</wgt>
<wgt id='3005'>0.70884E+03</wgt>
<wgt id='3006'>0.70619E+03</wgt>
<wgt id='3007'>0.70873E+03</wgt>
<wgt id='3008'>0.70520E+03</wgt>
<wgt id='3009'>0.70849E+03</wgt>
<wgt id='3010'>0.70459E+03</wgt>
<wgt id='3011'>0.70557E+03</wgt>
<wgt id='3012'>0.70893E+03</wgt>
<wgt id='3013'>0.70409E+03</wgt>
<wgt id='3014'>0.70852E+03</wgt>
<wgt id='3015'>0.70638E+03</wgt>
<wgt id='3016'>0.70641E+03</wgt>
<wgt id='3017'>0.70831E+03</wgt>
<wgt id='3018'>0.70787E+03</wgt>
<wgt id='3019'>0.70419E+03</wgt>
<wgt id='3020'>0.70476E+03</wgt>
<wgt id='3021'>0.70377E+03</wgt>
<wgt id='3022'>0.70611E+03</wgt>
<wgt id='3023'>0.70517E+03</wgt>
<wgt id='3024'>0.70480E+03</wgt>
<wgt id='3025'>0.70707E+03</wgt>
<wgt id='3026'>0.70701E+03</wgt>
<wgt id='3027'>0.70646E+03</wgt>
<wgt id='3028'>0.70422E+03</wgt>
<wgt id='3029'>0.70390E+03</wgt>
<wgt id='3030'>0.70935E+03</wgt>
<wgt id='3031'>0.70777E+03</wgt>
<wgt id='3032'>0.70711E+03</wgt>
<wgt id='3033'>0.70848E+03</wgt>
<wgt id='3034'>0.70632E+03</wgt>
<wgt id='3035'>0.71110E+03</wgt>
<wgt id='3036'>0.70696E+03</wgt>
<wgt id='3037'>0.70503E+03</wgt>
<wgt id='3038'>0.70608E+03</wgt>
<wgt id='3039'>0.70649E+03</wgt>
<wgt id='3040'>0.70369E+03</wgt>
<wgt id='3041'>0.70635E+03</wgt>
<wgt id='3042'>0.70642E+03</wgt>
<wgt id='3043'>0.70554E+03</wgt>
<wgt id='3044'>0.70721E+03</wgt>
<wgt id='3045'>0.70730E+03</wgt>
<wgt id='3046'>0.70653E+03</wgt>
<wgt id='3047'>0.70657E+03</wgt>
<wgt id='3048'>0.70603E+03</wgt>
<wgt id='3049'>0.70593E+03</wgt>
<wgt id='3050'>0.70659E+03</wgt>
<wgt id='3051'>0.70606E+03</wgt>
<wgt id='3052'>0.70584E+03</wgt>
<wgt id='3053'>0.70645E+03</wgt>
<wgt id='3054'>0.70671E+03</wgt>
<wgt id='3055'>0.70557E+03</wgt>
<wgt id='3056'>0.70656E+03</wgt>
<wgt id='3057'>0.70644E+03</wgt>
<wgt id='3058'>0.70640E+03</wgt>
<wgt id='3059'>0.70643E+03</wgt>
<wgt id='3060'>0.70734E+03</wgt>
<wgt id='3061'>0.70737E+03</wgt>
<wgt id='3062'>0.70614E+03</wgt>
<wgt id='3063'>0.70682E+03</wgt>
<wgt id='3064'>0.70617E+03</wgt>
<wgt id='3065'>0.70635E+03</wgt>
<wgt id='3066'>0.70706E+03</wgt>
<wgt id='3067'>0.70638E+03</wgt>
<wgt id='3068'>0.70629E+03</wgt>
<wgt id='3069'>0.70604E+03</wgt>
<wgt id='3070'>0.70641E+03</wgt>
<wgt id='3071'>0.70603E+03</wgt>
<wgt id='3072'>0.70647E+03</wgt>
<wgt id='3073'>0.70590E+03</wgt>
<wgt id='3074'>0.70670E+03</wgt>
<wgt id='3075'>0.70626E+03</wgt>
<wgt id='3076'>0.70663E+03</wgt>
<wgt id='3077'>0.70639E+03</wgt>
<wgt id='3078'>0.70612E+03</wgt>
<wgt id='3079'>0.70580E+03</wgt>
<wgt id='3080'>0.70597E+03</wgt>
<wgt id='3081'>0.70613E+03</wgt>
<wgt id='3082'>0.70594E+03</wgt>
<wgt id='3083'>0.70634E+03</wgt>
<wgt id='3084'>0.70605E+03</wgt>
<wgt id='3085'>0.70622E+03</wgt>
<wgt id='3086'>0.70615E+03</wgt>
<wgt id='3087'>0.70619E+03</wgt>
<wgt id='3088'>0.70610E+03</wgt>
<wgt id='3089'>0.70606E+03</wgt>
<wgt id='3090'>0.70624E+03</wgt>
<wgt id='3091'>0.70602E+03</wgt>
<wgt id='3092'>0.70636E+03</wgt>
<wgt id='3093'>0.70620E+03</wgt>
<wgt id='3094'>0.70620E+03</wgt>
<wgt id='3095'>0.70633E+03</wgt>
<wgt id='3096'>0.70620E+03</wgt>
<wgt id='3097'>0.70605E+03</wgt>
<wgt id='3098'>0.70625E+03</wgt>
<wgt id='3099'>0.70611E+03</wgt>
<wgt id='3100'>0.70624E+03</wgt>
<wgt id='3101'>0.69936E+03</wgt>
<wgt id='3102'>0.71162E+03</wgt>
<wgt id='5000'>0.65870E+03</wgt>
<wgt id='5001'>0.65881E+03</wgt>
<wgt id='5002'>0.65854E+03</wgt>
<wgt id='5003'>0.65624E+03</wgt>
<wgt id='5004'>0.65505E+03</wgt>
<wgt id='5005'>0.63953E+03</wgt>
<wgt id='5006'>0.64977E+03</wgt>
<wgt id='5007'>0.65312E+03</wgt>
<wgt id='5008'>0.65455E+03</wgt>
<wgt id='5009'>0.66144E+03</wgt>
<wgt id='5010'>0.65563E+03</wgt>
<wgt id='5011'>0.65810E+03</wgt>
<wgt id='5012'>0.65937E+03</wgt>
<wgt id='5013'>0.64654E+03</wgt>
<wgt id='5014'>0.67518E+03</wgt>
<wgt id='5015'>0.66339E+03</wgt>
<wgt id='5016'>0.64527E+03</wgt>
<wgt id='5017'>0.64988E+03</wgt>
<wgt id='5018'>0.66765E+03</wgt>
<wgt id='5019'>0.66766E+03</wgt>
<wgt id='5020'>0.65032E+03</wgt>
<wgt id='5021'>0.65924E+03</wgt>
<wgt id='5022'>0.65829E+03</wgt>
<wgt id='5023'>0.65703E+03</wgt>
<wgt id='5024'>0.66035E+03</wgt>
<wgt id='5025'>0.66013E+03</wgt>
<wgt id='5026'>0.65748E+03</wgt>
<wgt id='5027'>0.66502E+03</wgt>
<wgt id='5028'>0.64801E+03</wgt>
<wgt id='5029'>0.64588E+03</wgt>
<wgt id='5030'>0.66651E+03</wgt>
<wgt id='5031'>0.65036E+03</wgt>
<wgt id='5032'>0.67097E+03</wgt>
<wgt id='5033'>0.65651E+03</wgt>
<wgt id='5034'>0.66019E+03</wgt>
<wgt id='5035'>0.65800E+03</wgt>
<wgt id='5036'>0.65831E+03</wgt>
<wgt id='5037'>0.64472E+03</wgt>
<wgt id='5038'>0.67396E+03</wgt>
<wgt id='5039'>0.67727E+03</wgt>
<wgt id='5040'>0.64905E+03</wgt>
<wgt id='5041'>0.65747E+03</wgt>
<wgt id='5042'>0.65786E+03</wgt>
<wgt id='5043'>0.66246E+03</wgt>
<wgt id='5044'>0.64702E+03</wgt>
<wgt id='5045'>0.68617E+03</wgt>
<wgt id='5046'>0.63674E+03</wgt>
<wgt id='5047'>0.67275E+03</wgt>
<wgt id='5048'>0.65024E+03</wgt>
<wgt id='5049'>0.65941E+03</wgt>
<wgt id='5050'>0.65694E+03</wgt>
<wgt id='5051'>0.65842E+03</wgt>
<wgt id='5052'>0.65862E+03</wgt>
<wgt id='5053'>0.64874E+03</wgt>
<wgt id='5054'>0.65888E+03</wgt>
<wgt id='5055'>0.65220E+03</wgt>
<wgt id='5056'>0.67151E+03</wgt>
<wgt id='5060'>0.65155E+03</wgt>
<wgt id='5070'>0.66407E+03</wgt>
<wgt id='4000'>0.66725E+03</wgt>
<wgt id='4001'>0.66690E+03</wgt>
<wgt id='4002'>0.66762E+03</wgt>
<wgt id='4003'>0.67139E+03</wgt>
<wgt id='4004'>0.65470E+03</wgt>
<wgt id='4005'>0.66501E+03</wgt>
<wgt id='4006'>0.66834E+03</wgt>
<wgt id='4007'>0.67904E+03</wgt>
<wgt id='4008'>0.65606E+03</wgt>
<wgt id='4009'>0.65918E+03</wgt>
<wgt id='4010'>0.66680E+03</wgt>
<wgt id='4011'>0.68596E+03</wgt>
<wgt id='4012'>0.65455E+03</wgt>
<wgt id='4013'>0.64979E+03</wgt>
<wgt id='4014'>0.67829E+03</wgt>
<wgt id='4015'>0.68221E+03</wgt>
<wgt id='4016'>0.65734E+03</wgt>
<wgt id='4017'>0.65420E+03</wgt>
<wgt id='4018'>0.68280E+03</wgt>
<wgt id='4019'>0.67812E+03</wgt>
<wgt id='4020'>0.65572E+03</wgt>
<wgt id='4021'>0.67151E+03</wgt>
<wgt id='4022'>0.65906E+03</wgt>
<wgt id='4023'>0.66279E+03</wgt>
<wgt id='4024'>0.67137E+03</wgt>
<wgt id='4025'>0.67149E+03</wgt>
<wgt id='4026'>0.66244E+03</wgt>
<wgt id='4027'>0.66641E+03</wgt>
<wgt id='4028'>0.66834E+03</wgt>
<wgt id='4029'>0.66157E+03</wgt>
<wgt id='4030'>0.66925E+03</wgt>
<wgt id='4031'>0.67078E+03</wgt>
<wgt id='4032'>0.66266E+03</wgt>
<wgt id='4033'>0.66167E+03</wgt>
<wgt id='4034'>0.67943E+03</wgt>
<wgt id='4035'>0.66845E+03</wgt>
<wgt id='4036'>0.66604E+03</wgt>
<wgt id='4037'>0.67221E+03</wgt>
<wgt id='4038'>0.65986E+03</wgt>
<wgt id='4039'>0.66841E+03</wgt>
<wgt id='4040'>0.66646E+03</wgt>
<wgt id='4041'>0.67007E+03</wgt>
<wgt id='4042'>0.66501E+03</wgt>
<wgt id='4043'>0.67871E+03</wgt>
<wgt id='4044'>0.66374E+03</wgt>
<wgt id='4045'>0.65064E+03</wgt>
<wgt id='4046'>0.66974E+03</wgt>
<wgt id='4047'>0.66224E+03</wgt>
<wgt id='4048'>0.65581E+03</wgt>
<wgt id='4049'>0.65317E+03</wgt>
<wgt id='4050'>0.65772E+03</wgt>
<wgt id='4051'>0.66713E+03</wgt>
<wgt id='4052'>0.66792E+03</wgt>
<wgt id='4053'>0.64910E+03</wgt>
<wgt id='4054'>0.67729E+03</wgt>
<wgt id='4055'>0.65945E+03</wgt>
<wgt id='4056'>0.68011E+03</wgt>
<wgt id='4060'>0.65995E+03</wgt>
<wgt id='4070'>0.67355E+03</wgt>
<wgt id='4080'>0.58115E+03</wgt>
<wgt id='6000'>0.69064E+03</wgt>
<wgt id='6001'>0.69099E+03</wgt>
<wgt id='6002'>0.69027E+03</wgt>
<wgt id='6003'>0.69116E+03</wgt>
<wgt id='6004'>0.69030E+03</wgt>
<wgt id='6005'>0.69454E+03</wgt>
<wgt id='6006'>0.68704E+03</wgt>
<wgt id='6007'>0.68742E+03</wgt>
<wgt id='6008'>0.69428E+03</wgt>
<wgt id='6009'>0.69235E+03</wgt>
<wgt id='6010'>0.68898E+03</wgt>
<wgt id='6011'>0.69185E+03</wgt>
<wgt id='6012'>0.68804E+03</wgt>
<wgt id='6013'>0.69011E+03</wgt>
<wgt id='6014'>0.69162E+03</wgt>
<wgt id='6015'>0.68893E+03</wgt>
<wgt id='6016'>0.69163E+03</wgt>
<wgt id='6017'>0.68614E+03</wgt>
<wgt id='6018'>0.69599E+03</wgt>
<wgt id='6019'>0.69153E+03</wgt>
<wgt id='6020'>0.68989E+03</wgt>
<wgt id='6021'>0.68809E+03</wgt>
<wgt id='6022'>0.69401E+03</wgt>
<wgt id='6023'>0.68459E+03</wgt>
<wgt id='6024'>0.69475E+03</wgt>
<wgt id='6025'>0.68420E+03</wgt>
<wgt id='6026'>0.69697E+03</wgt>
<wgt id='6027'>0.69159E+03</wgt>
<wgt id='6028'>0.69087E+03</wgt>
<wgt id='6029'>0.69229E+03</wgt>
<wgt id='6030'>0.68873E+03</wgt>
<wgt id='6031'>0.68613E+03</wgt>
<wgt id='6032'>0.69559E+03</wgt>
<wgt id='6033'>0.69371E+03</wgt>
<wgt id='6034'>0.68763E+03</wgt>
<wgt id='6035'>0.69097E+03</wgt>
<wgt id='6036'>0.69093E+03</wgt>
<wgt id='6037'>0.69151E+03</wgt>
<wgt id='6038'>0.69011E+03</wgt>
<wgt id='6039'>0.68891E+03</wgt>
<wgt id='6040'>0.69259E+03</wgt>
<wgt id='6041'>0.68584E+03</wgt>
<wgt id='6042'>0.69612E+03</wgt>
<wgt id='6043'>0.69953E+03</wgt>
<wgt id='6044'>0.68636E+03</wgt>
<wgt id='6045'>0.68987E+03</wgt>
<wgt id='6046'>0.69298E+03</wgt>
<wgt id='6047'>0.69840E+03</wgt>
<wgt id='6048'>0.67513E+03</wgt>
<wgt id='6049'>0.69430E+03</wgt>
<wgt id='6050'>0.68841E+03</wgt>
<wgt id='7000'>0.66524E+03</wgt>
<wgt id='7001'>0.66486E+03</wgt>
<wgt id='7002'>0.66577E+03</wgt>
<wgt id='7003'>0.66781E+03</wgt>
<wgt id='7004'>0.66272E+03</wgt>
<wgt id='7005'>0.66709E+03</wgt>
<wgt id='7006'>0.66453E+03</wgt>
<wgt id='7007'>0.66378E+03</wgt>
<wgt id='7008'>0.66671E+03</wgt>
<wgt id='7009'>0.66623E+03</wgt>
<wgt id='7010'>0.66430E+03</wgt>
<wgt id='7011'>0.66082E+03</wgt>
<wgt id='7012'>0.66715E+03</wgt>
<wgt id='7013'>0.66515E+03</wgt>
<wgt id='7014'>0.66538E+03</wgt>
<wgt id='7015'>0.66423E+03</wgt>
<wgt id='7016'>0.66632E+03</wgt>
<wgt id='7017'>0.66468E+03</wgt>
<wgt id='7018'>0.66556E+03</wgt>
<wgt id='7019'>0.66489E+03</wgt>
<wgt id='7020'>0.66576E+03</wgt>
<wgt id='7021'>0.66438E+03</wgt>
<wgt id='7022'>0.66587E+03</wgt>
<wgt id='7023'>0.67593E+03</wgt>
<wgt id='7024'>0.65519E+03</wgt>
<wgt id='7025'>0.66879E+03</wgt>
<wgt id='7026'>0.65646E+03</wgt>
<wgt id='7027'>0.66683E+03</wgt>
<wgt id='7028'>0.66431E+03</wgt>
<wgt id='7029'>0.66448E+03</wgt>
<wgt id='7030'>0.66781E+03</wgt>
<wgt id='7031'>0.66276E+03</wgt>
<wgt id='7032'>0.67066E+03</wgt>
<wgt id='7033'>0.66527E+03</wgt>
<wgt id='7034'>0.66543E+03</wgt>
<wgt id='7035'>0.66375E+03</wgt>
<wgt id='7036'>0.66620E+03</wgt>
<wgt id='7037'>0.66523E+03</wgt>
<wgt id='7038'>0.66567E+03</wgt>
<wgt id='7039'>0.66273E+03</wgt>
<wgt id='7040'>0.66713E+03</wgt>
<wgt id='7041'>0.66507E+03</wgt>
<wgt id='7042'>0.66460E+03</wgt>
<wgt id='7043'>0.66612E+03</wgt>
<wgt id='7044'>0.66042E+03</wgt>
<wgt id='7045'>0.65417E+03</wgt>
<wgt id='7046'>0.67115E+03</wgt>
<wgt id='7047'>0.66895E+03</wgt>
<wgt id='7048'>0.66355E+03</wgt>
<wgt id='7049'>0.66102E+03</wgt>
<wgt id='7050'>0.66649E+03</wgt>
<wgt id='7060'>0.74837E+03</wgt>
<wgt id='8000'>0.66369E+03</wgt>
<wgt id='8001'>0.66363E+03</wgt>
<wgt id='8002'>0.66394E+03</wgt>
<wgt id='8003'>0.66373E+03</wgt>
<wgt id='8004'>0.66366E+03</wgt>
<wgt id='8005'>0.66185E+03</wgt>
<wgt id='8006'>0.66410E+03</wgt>
<wgt id='8007'>0.66430E+03</wgt>
<wgt id='8008'>0.66547E+03</wgt>
<wgt id='8009'>0.66735E+03</wgt>
<wgt id='8010'>0.66302E+03</wgt>
<wgt id='8011'>0.66385E+03</wgt>
<wgt id='8012'>0.66136E+03</wgt>
<wgt id='8013'>0.66285E+03</wgt>
<wgt id='8014'>0.66492E+03</wgt>
<wgt id='8015'>0.66351E+03</wgt>
<wgt id='8016'>0.66430E+03</wgt>
<wgt id='8017'>0.66447E+03</wgt>
<wgt id='8018'>0.66481E+03</wgt>
<wgt id='8019'>0.66517E+03</wgt>
<wgt id='8020'>0.66158E+03</wgt>
<wgt id='8021'>0.66362E+03</wgt>
<wgt id='8022'>0.65968E+03</wgt>
<wgt id='8023'>0.66415E+03</wgt>
<wgt id='8024'>0.66361E+03</wgt>
<wgt id='8025'>0.66564E+03</wgt>
<wgt id='8026'>0.66516E+03</wgt>
<wgt id='8027'>0.66306E+03</wgt>
<wgt id='8028'>0.66459E+03</wgt>
<wgt id='8029'>0.65753E+03</wgt>
<wgt id='8500'>0.69203E+03</wgt>
<wgt id='8501'>0.68930E+03</wgt>
<wgt id='8502'>0.70118E+03</wgt>
<wgt id='8503'>0.69620E+03</wgt>
<wgt id='8504'>0.68897E+03</wgt>
<wgt id='8505'>0.68857E+03</wgt>
<wgt id='8506'>0.69600E+03</wgt>
<wgt id='8507'>0.68608E+03</wgt>
<wgt id='8508'>0.68576E+03</wgt>
<wgt id='8509'>0.69430E+03</wgt>
<wgt id='8510'>0.70735E+03</wgt>
<wgt id='8511'>0.69192E+03</wgt>
<wgt id='8512'>0.68368E+03</wgt>
<wgt id='8513'>0.69386E+03</wgt>
<wgt id='8514'>0.67862E+03</wgt>
<wgt id='8515'>0.69600E+03</wgt>
<wgt id='8516'>0.69177E+03</wgt>
<wgt id='8517'>0.68770E+03</wgt>
<wgt id='8518'>0.68928E+03</wgt>
<wgt id='8519'>0.68933E+03</wgt>
<wgt id='8520'>0.69032E+03</wgt>
<wgt id='8521'>0.69024E+03</wgt>
<wgt id='8522'>0.69359E+03</wgt>
<wgt id='8523'>0.68907E+03</wgt>
<wgt id='8524'>0.69392E+03</wgt>
<wgt id='8525'>0.69173E+03</wgt>
<wgt id='8526'>0.69066E+03</wgt>
<wgt id='8527'>0.69191E+03</wgt>
<wgt id='8528'>0.69041E+03</wgt>
<wgt id='8529'>0.69161E+03</wgt>
<wgt id='8530'>0.69268E+03</wgt>
<wgt id='8531'>0.69192E+03</wgt>
<wgt id='8532'>0.69206E+03</wgt>
<wgt id='8533'>0.69058E+03</wgt>
<wgt id='8534'>0.69235E+03</wgt>
<wgt id='8535'>0.69339E+03</wgt>
<wgt id='8536'>0.69126E+03</wgt>
<wgt id='8537'>0.69213E+03</wgt>
<wgt id='8538'>0.69145E+03</wgt>
<wgt id='8539'>0.69218E+03</wgt>
<wgt id='8540'>0.69259E+03</wgt>
<wgt id='8541'>0.69218E+03</wgt>
<wgt id='8542'>0.69214E+03</wgt>
<wgt id='8543'>0.69170E+03</wgt>
<wgt id='8544'>0.69281E+03</wgt>
<wgt id='8545'>0.69258E+03</wgt>
<wgt id='8546'>0.69289E+03</wgt>
<wgt id='8547'>0.69146E+03</wgt>
<wgt id='8548'>0.69129E+03</wgt>
<wgt id='8549'>0.69254E+03</wgt>
<wgt id='8550'>0.69198E+03</wgt>
<wgt id='8551'>0.69214E+03</wgt>
<wgt id='8552'>0.69194E+03</wgt>
<wgt id='8553'>0.69140E+03</wgt>
<wgt id='8554'>0.69180E+03</wgt>
<wgt id='8555'>0.69220E+03</wgt>
<wgt id='8556'>0.69180E+03</wgt>
<wgt id='8557'>0.69198E+03</wgt>
<wgt id='8558'>0.69235E+03</wgt>
<wgt id='8559'>0.69186E+03</wgt>
<wgt id='8560'>0.69160E+03</wgt>
<wgt id='8561'>0.69225E+03</wgt>
<wgt id='8562'>0.69214E+03</wgt>
<wgt id='8563'>0.69206E+03</wgt>
<wgt id='8564'>0.69203E+03</wgt>
<wgt id='8565'>0.69238E+03</wgt>
<wgt id='8566'>0.69255E+03</wgt>
<wgt id='8567'>0.69227E+03</wgt>
<wgt id='8568'>0.69223E+03</wgt>
<wgt id='8569'>0.69210E+03</wgt>
<wgt id='8570'>0.69176E+03</wgt>
<wgt id='8571'>0.69149E+03</wgt>
<wgt id='8572'>0.69203E+03</wgt>
<wgt id='8573'>0.69163E+03</wgt>
<wgt id='8574'>0.69208E+03</wgt>
<wgt id='8575'>0.69163E+03</wgt>
<wgt id='8576'>0.69223E+03</wgt>
<wgt id='8577'>0.69168E+03</wgt>
<wgt id='8578'>0.69218E+03</wgt>
<wgt id='8579'>0.69269E+03</wgt>
<wgt id='8580'>0.69178E+03</wgt>
<wgt id='8581'>0.69210E+03</wgt>
<wgt id='8582'>0.69185E+03</wgt>
<wgt id='8583'>0.69220E+03</wgt>
<wgt id='8584'>0.69248E+03</wgt>
<wgt id='8585'>0.69212E+03</wgt>
<wgt id='8586'>0.69276E+03</wgt>
<wgt id='8587'>0.69200E+03</wgt>
<wgt id='8588'>0.69198E+03</wgt>
<wgt id='8589'>0.69208E+03</wgt>
<wgt id='8590'>0.69189E+03</wgt>
<wgt id='8591'>0.69178E+03</wgt>
<wgt id='8592'>0.69202E+03</wgt>
<wgt id='8593'>0.69175E+03</wgt>
<wgt id='8594'>0.69204E+03</wgt>
<wgt id='8595'>0.69196E+03</wgt>
<wgt id='8596'>0.69184E+03</wgt>
<wgt id='8597'>0.69216E+03</wgt>
<wgt id='8598'>0.69221E+03</wgt>
<wgt id='8599'>0.69218E+03</wgt>
<wgt id='8600'>0.69203E+03</wgt>
<wgt id='8601'>0.68996E+03</wgt>
<wgt id='8602'>0.69250E+03</wgt>
<wgt id='9000'>0.66990E+03</wgt>
<wgt id='9001'>0.66904E+03</wgt>
<wgt id='9002'>0.67449E+03</wgt>
<wgt id='9003'>0.66264E+03</wgt>
<wgt id='9004'>0.66874E+03</wgt>
<wgt id='9005'>0.67465E+03</wgt>
<wgt id='9006'>0.66661E+03</wgt>
<wgt id='9007'>0.66534E+03</wgt>
<wgt id='9008'>0.66855E+03</wgt>
<wgt id='9009'>0.66934E+03</wgt>
<wgt id='9010'>0.66441E+03</wgt>
<wgt id='9011'>0.67961E+03</wgt>
<wgt id='9012'>0.67003E+03</wgt>
<wgt id='9013'>0.65819E+03</wgt>
<wgt id='9014'>0.66662E+03</wgt>
<wgt id='9015'>0.67017E+03</wgt>
<wgt id='9016'>0.68059E+03</wgt>
<wgt id='9017'>0.66568E+03</wgt>
<wgt id='9018'>0.66841E+03</wgt>
<wgt id='9019'>0.66991E+03</wgt>
<wgt id='9020'>0.67282E+03</wgt>
<wgt id='9021'>0.67076E+03</wgt>
<wgt id='9022'>0.67223E+03</wgt>
<wgt id='9023'>0.66501E+03</wgt>
<wgt id='9024'>0.66786E+03</wgt>
<wgt id='9025'>0.67183E+03</wgt>
<wgt id='9026'>0.66985E+03</wgt>
<wgt id='9027'>0.66948E+03</wgt>
<wgt id='9028'>0.67092E+03</wgt>
<wgt id='9029'>0.67041E+03</wgt>
<wgt id='9030'>0.67059E+03</wgt>
<wgt id='9031'>0.66907E+03</wgt>
<wgt id='9032'>0.67018E+03</wgt>
<wgt id='9033'>0.67078E+03</wgt>
<wgt id='9034'>0.67008E+03</wgt>
<wgt id='9035'>0.67108E+03</wgt>
<wgt id='9036'>0.66971E+03</wgt>
<wgt id='9037'>0.67060E+03</wgt>
<wgt id='9038'>0.66999E+03</wgt>
<wgt id='9039'>0.67008E+03</wgt>
<wgt id='9040'>0.66926E+03</wgt>
<wgt id='9041'>0.66967E+03</wgt>
<wgt id='9042'>0.67040E+03</wgt>
<wgt id='9043'>0.66908E+03</wgt>
<wgt id='9044'>0.67053E+03</wgt>
<wgt id='9045'>0.67019E+03</wgt>
<wgt id='9046'>0.66904E+03</wgt>
<wgt id='9047'>0.66973E+03</wgt>
<wgt id='9048'>0.67015E+03</wgt>
<wgt id='9049'>0.66947E+03</wgt>
<wgt id='9050'>0.66984E+03</wgt>
<wgt id='9051'>0.67030E+03</wgt>
<wgt id='9052'>0.67022E+03</wgt>
<wgt id='9053'>0.67017E+03</wgt>
<wgt id='9054'>0.66902E+03</wgt>
<wgt id='9055'>0.66954E+03</wgt>
<wgt id='9056'>0.67028E+03</wgt>
<wgt id='9057'>0.66944E+03</wgt>
<wgt id='9058'>0.66959E+03</wgt>
<wgt id='9059'>0.66992E+03</wgt>
<wgt id='9060'>0.66983E+03</wgt>
<wgt id='9061'>0.66982E+03</wgt>
<wgt id='9062'>0.67003E+03</wgt>
<wgt id='9063'>0.67039E+03</wgt>
<wgt id='9064'>0.67032E+03</wgt>
<wgt id='9065'>0.66979E+03</wgt>
<wgt id='9066'>0.66971E+03</wgt>
<wgt id='9067'>0.66976E+03</wgt>
<wgt id='9068'>0.67023E+03</wgt>
<wgt id='9069'>0.67024E+03</wgt>
<wgt id='9070'>0.67002E+03</wgt>
<wgt id='9071'>0.66985E+03</wgt>
<wgt id='9072'>0.67005E+03</wgt>
<wgt id='9073'>0.66982E+03</wgt>
<wgt id='9074'>0.67026E+03</wgt>
<wgt id='9075'>0.66983E+03</wgt>
<wgt id='9076'>0.66980E+03</wgt>
<wgt id='9077'>0.67001E+03</wgt>
<wgt id='9078'>0.67009E+03</wgt>
<wgt id='9079'>0.66945E+03</wgt>
<wgt id='9080'>0.67030E+03</wgt>
<wgt id='9081'>0.66970E+03</wgt>
<wgt id='9082'>0.66981E+03</wgt>
<wgt id='9083'>0.66978E+03</wgt>
<wgt id='9084'>0.66942E+03</wgt>
<wgt id='9085'>0.66954E+03</wgt>
<wgt id='9086'>0.67006E+03</wgt>
<wgt id='9087'>0.66926E+03</wgt>
<wgt id='9088'>0.66960E+03</wgt>
<wgt id='9089'>0.66984E+03</wgt>
<wgt id='9090'>0.67015E+03</wgt>
<wgt id='9091'>0.66978E+03</wgt>
<wgt id='9092'>0.66986E+03</wgt>
<wgt id='9093'>0.66981E+03</wgt>
<wgt id='9094'>0.66975E+03</wgt>
<wgt id='9095'>0.66990E+03</wgt>
<wgt id='9096'>0.66978E+03</wgt>
<wgt id='9097'>0.66988E+03</wgt>
<wgt id='9098'>0.66989E+03</wgt>
<wgt id='9099'>0.66978E+03</wgt>
<wgt id='9100'>0.66975E+03</wgt>
<wgt id='9101'>0.66957E+03</wgt>
<wgt id='9102'>0.66990E+03</wgt>
<wgt id='10000'>0.69204E+03</wgt>
<wgt id='10001'>0.69804E+03</wgt>
<wgt id='10002'>0.68500E+03</wgt>
<wgt id='10003'>0.69110E+03</wgt>
<wgt id='10004'>0.67874E+03</wgt>
<wgt id='10005'>0.70931E+03</wgt>
<wgt id='10006'>0.68821E+03</wgt>
<wgt id='10007'>0.69202E+03</wgt>
<wgt id='10008'>0.69423E+03</wgt>
<wgt id='10009'>0.68911E+03</wgt>
<wgt id='10010'>0.69439E+03</wgt>
<wgt id='10011'>0.68870E+03</wgt>
<wgt id='10012'>0.69240E+03</wgt>
<wgt id='10013'>0.69279E+03</wgt>
<wgt id='10014'>0.69057E+03</wgt>
<wgt id='10015'>0.69147E+03</wgt>
<wgt id='10016'>0.68870E+03</wgt>
<wgt id='10017'>0.69751E+03</wgt>
<wgt id='10018'>0.69298E+03</wgt>
<wgt id='10019'>0.69357E+03</wgt>
<wgt id='10020'>0.69035E+03</wgt>
<wgt id='10021'>0.69074E+03</wgt>
<wgt id='10022'>0.69246E+03</wgt>
<wgt id='10023'>0.69243E+03</wgt>
<wgt id='10024'>0.69084E+03</wgt>
<wgt id='10025'>0.69160E+03</wgt>
<wgt id='10026'>0.69563E+03</wgt>
<wgt id='10027'>0.69401E+03</wgt>
<wgt id='10028'>0.70153E+03</wgt>
<wgt id='10029'>0.69242E+03</wgt>
<wgt id='10030'>0.69202E+03</wgt>
<wgt id='10031'>0.68996E+03</wgt>
<wgt id='10032'>0.69250E+03</wgt>
<wgt id='11000'>0.66991E+03</wgt>
<wgt id='11001'>0.65922E+03</wgt>
<wgt id='11002'>0.67459E+03</wgt>
<wgt id='11003'>0.66876E+03</wgt>
<wgt id='11004'>0.67677E+03</wgt>
<wgt id='11005'>0.66452E+03</wgt>
<wgt id='11006'>0.67023E+03</wgt>
<wgt id='11007'>0.66786E+03</wgt>
<wgt id='11008'>0.66905E+03</wgt>
<wgt id='11009'>0.66576E+03</wgt>
<wgt id='11010'>0.66624E+03</wgt>
<wgt id='11011'>0.66676E+03</wgt>
<wgt id='11012'>0.67078E+03</wgt>
<wgt id='11013'>0.67208E+03</wgt>
<wgt id='11014'>0.66750E+03</wgt>
<wgt id='11015'>0.66961E+03</wgt>
<wgt id='11016'>0.66922E+03</wgt>
<wgt id='11017'>0.67579E+03</wgt>
<wgt id='11018'>0.66917E+03</wgt>
<wgt id='11019'>0.66904E+03</wgt>
<wgt id='11020'>0.67299E+03</wgt>
<wgt id='11021'>0.67212E+03</wgt>
<wgt id='11022'>0.68555E+03</wgt>
<wgt id='11023'>0.67002E+03</wgt>
<wgt id='11024'>0.67207E+03</wgt>
<wgt id='11025'>0.67021E+03</wgt>
<wgt id='11026'>0.66990E+03</wgt>
<wgt id='11027'>0.66954E+03</wgt>
<wgt id='11028'>0.67113E+03</wgt>
<wgt id='11029'>0.67328E+03</wgt>
<wgt id='11030'>0.66966E+03</wgt>
<wgt id='11031'>0.66957E+03</wgt>
<wgt id='11032'>0.66990E+03</wgt>
<wgt id='12000'>0.71167E+03</wgt>
<wgt id='12001'>0.71034E+03</wgt>
<wgt id='12002'>0.71299E+03</wgt>
<wgt id='12003'>0.71293E+03</wgt>
<wgt id='12004'>0.71040E+03</wgt>
<wgt id='12005'>0.71318E+03</wgt>
<wgt id='12006'>0.71016E+03</wgt>
<wgt id='12007'>0.71637E+03</wgt>
<wgt id='12008'>0.70707E+03</wgt>
<wgt id='12009'>0.71178E+03</wgt>
<wgt id='12010'>0.71160E+03</wgt>
<wgt id='12011'>0.70698E+03</wgt>
<wgt id='12012'>0.71687E+03</wgt>
<wgt id='12013'>0.70901E+03</wgt>
<wgt id='12014'>0.71439E+03</wgt>
<wgt id='12015'>0.71133E+03</wgt>
<wgt id='12016'>0.71038E+03</wgt>
<wgt id='12017'>0.71502E+03</wgt>
<wgt id='12018'>0.70954E+03</wgt>
<wgt id='12019'>0.71116E+03</wgt>
<wgt id='12020'>0.71165E+03</wgt>
<wgt id='12021'>0.71570E+03</wgt>
<wgt id='12022'>0.70724E+03</wgt>
<wgt id='12023'>0.70613E+03</wgt>
<wgt id='12024'>0.71435E+03</wgt>
<wgt id='12025'>0.71132E+03</wgt>
<wgt id='12026'>0.71247E+03</wgt>
<wgt id='12027'>0.71755E+03</wgt>
<wgt id='12028'>0.70681E+03</wgt>
<wgt id='12050'>0.71167E+03</wgt>
<wgt id='12051'>0.70880E+03</wgt>
<wgt id='12052'>0.70665E+03</wgt>
<wgt id='12053'>0.70864E+03</wgt>
<wgt id='12054'>0.70719E+03</wgt>
<wgt id='12055'>0.71108E+03</wgt>
<wgt id='12056'>0.70490E+03</wgt>
<wgt id='12057'>0.70606E+03</wgt>
<wgt id='12058'>0.71047E+03</wgt>
<wgt id='12059'>0.70996E+03</wgt>
<wgt id='12060'>0.70667E+03</wgt>
<wgt id='12061'>0.70641E+03</wgt>
<wgt id='12062'>0.70708E+03</wgt>
<wgt id='12063'>0.69830E+03</wgt>
<wgt id='13000'>0.66454E+03</wgt>
<wgt id='13001'>0.65953E+03</wgt>
<wgt id='13002'>0.66113E+03</wgt>
<wgt id='13003'>0.66056E+03</wgt>
<wgt id='13004'>0.66010E+03</wgt>
<wgt id='13005'>0.66178E+03</wgt>
<wgt id='13006'>0.65889E+03</wgt>
<wgt id='13007'>0.66540E+03</wgt>
<wgt id='13008'>0.65540E+03</wgt>
<wgt id='13009'>0.65829E+03</wgt>
<wgt id='13010'>0.66246E+03</wgt>
<wgt id='13011'>0.66345E+03</wgt>
<wgt id='13012'>0.65727E+03</wgt>
<wgt id='13013'>0.65928E+03</wgt>
<wgt id='13014'>0.66133E+03</wgt>
<wgt id='13015'>0.65887E+03</wgt>
<wgt id='13016'>0.65985E+03</wgt>
<wgt id='13017'>0.66144E+03</wgt>
<wgt id='13018'>0.65923E+03</wgt>
<wgt id='13019'>0.65982E+03</wgt>
<wgt id='13020'>0.66100E+03</wgt>
<wgt id='13021'>0.65616E+03</wgt>
<wgt id='13022'>0.66379E+03</wgt>
<wgt id='13023'>0.65895E+03</wgt>
<wgt id='13024'>0.66131E+03</wgt>
<wgt id='13025'>0.65350E+03</wgt>
<wgt id='13026'>0.66510E+03</wgt>
<wgt id='13027'>0.65847E+03</wgt>
<wgt id='13028'>0.66316E+03</wgt>
<wgt id='13050'>0.66454E+03</wgt>
<wgt id='13051'>0.66100E+03</wgt>
<wgt id='13052'>0.65904E+03</wgt>
<wgt id='13053'>0.66044E+03</wgt>
<wgt id='13054'>0.65973E+03</wgt>
<wgt id='13055'>0.65405E+03</wgt>
<wgt id='13056'>0.65534E+03</wgt>
<wgt id='13057'>0.65824E+03</wgt>
<wgt id='13058'>0.66470E+03</wgt>
<wgt id='13059'>0.66033E+03</wgt>
<wgt id='13060'>0.65181E+03</wgt>
<wgt id='13061'>0.65774E+03</wgt>
<wgt id='13062'>0.66729E+03</wgt>
<wgt id='13063'>0.65912E+03</wgt>
<wgt id='14000'>0.66671E+03</wgt>
<wgt id='14001'>0.66663E+03</wgt>
<wgt id='14002'>0.66656E+03</wgt>
<wgt id='14003'>0.66648E+03</wgt>
<wgt id='14004'>0.66640E+03</wgt>
<wgt id='14005'>0.66633E+03</wgt>
<wgt id='14006'>0.66625E+03</wgt>
<wgt id='14007'>0.66618E+03</wgt>
<wgt id='14008'>0.66610E+03</wgt>
<wgt id='14009'>0.66602E+03</wgt>
<wgt id='14010'>0.66595E+03</wgt>
<wgt id='14011'>0.66587E+03</wgt>
<wgt id='14012'>0.66579E+03</wgt>
<wgt id='14013'>0.66572E+03</wgt>
<wgt id='14014'>0.66564E+03</wgt>
<wgt id='14015'>0.66556E+03</wgt>
<wgt id='14016'>0.66548E+03</wgt>
<wgt id='14017'>0.66541E+03</wgt>
<wgt id='14018'>0.66534E+03</wgt>
<wgt id='14019'>0.66526E+03</wgt>
<wgt id='14020'>0.66518E+03</wgt>
<wgt id='14021'>0.66511E+03</wgt>
<wgt id='14022'>0.66503E+03</wgt>
<wgt id='14023'>0.66495E+03</wgt>
<wgt id='14024'>0.66487E+03</wgt>
<wgt id='14025'>0.66480E+03</wgt>
<wgt id='14026'>0.66473E+03</wgt>
<wgt id='14027'>0.66465E+03</wgt>
<wgt id='14028'>0.66457E+03</wgt>
<wgt id='14029'>0.66449E+03</wgt>
<wgt id='14030'>0.66442E+03</wgt>
<wgt id='15000'>0.66018E+03</wgt>
<wgt id='15001'>0.65930E+03</wgt>
<wgt id='15002'>0.66463E+03</wgt>
<wgt id='15003'>0.65312E+03</wgt>
<wgt id='15004'>0.65906E+03</wgt>
<wgt id='15005'>0.66490E+03</wgt>
<wgt id='15006'>0.65703E+03</wgt>
<wgt id='15007'>0.65571E+03</wgt>
<wgt id='15008'>0.65884E+03</wgt>
<wgt id='15009'>0.65966E+03</wgt>
<wgt id='15010'>0.65483E+03</wgt>
<wgt id='15011'>0.66981E+03</wgt>
<wgt id='15012'>0.66031E+03</wgt>
<wgt id='15013'>0.64876E+03</wgt>
<wgt id='15014'>0.65685E+03</wgt>
<wgt id='15015'>0.66024E+03</wgt>
<wgt id='15016'>0.67075E+03</wgt>
<wgt id='15017'>0.65602E+03</wgt>
<wgt id='15018'>0.65874E+03</wgt>
<wgt id='15019'>0.66026E+03</wgt>
<wgt id='15020'>0.66317E+03</wgt>
<wgt id='15021'>0.66092E+03</wgt>
<wgt id='15022'>0.66249E+03</wgt>
<wgt id='15023'>0.65534E+03</wgt>
<wgt id='15024'>0.65810E+03</wgt>
<wgt id='15025'>0.66209E+03</wgt>
<wgt id='15026'>0.66007E+03</wgt>
<wgt id='15027'>0.65981E+03</wgt>
<wgt id='15028'>0.66123E+03</wgt>
<wgt id='15029'>0.66065E+03</wgt>
<wgt id='15030'>0.66082E+03</wgt>
<wgt id='15031'>0.65944E+03</wgt>
<wgt id='15032'>0.66046E+03</wgt>
<wgt id='15033'>0.66106E+03</wgt>
<wgt id='15034'>0.66033E+03</wgt>
<wgt id='15035'>0.66135E+03</wgt>
<wgt id='15036'>0.66000E+03</wgt>
<wgt id='15037'>0.66090E+03</wgt>
<wgt id='15038'>0.66027E+03</wgt>
<wgt id='15039'>0.66035E+03</wgt>
<wgt id='15040'>0.65954E+03</wgt>
<wgt id='15041'>0.65992E+03</wgt>
<wgt id='15042'>0.66066E+03</wgt>
<wgt id='15043'>0.65943E+03</wgt>
<wgt id='15044'>0.66080E+03</wgt>
<wgt id='15045'>0.66045E+03</wgt>
<wgt id='15046'>0.65934E+03</wgt>
<wgt id='15047'>0.65998E+03</wgt>
<wgt id='15048'>0.66044E+03</wgt>
<wgt id='15049'>0.65974E+03</wgt>
<wgt id='15050'>0.66014E+03</wgt>
<wgt id='15051'>0.66057E+03</wgt>
<wgt id='15052'>0.66049E+03</wgt>
<wgt id='15053'>0.66047E+03</wgt>
<wgt id='15054'>0.65932E+03</wgt>
<wgt id='15055'>0.65983E+03</wgt>
<wgt id='15056'>0.66053E+03</wgt>
<wgt id='15057'>0.65971E+03</wgt>
<wgt id='15058'>0.65991E+03</wgt>
<wgt id='15059'>0.66022E+03</wgt>
<wgt id='15060'>0.66012E+03</wgt>
<wgt id='15061'>0.66011E+03</wgt>
<wgt id='15062'>0.66029E+03</wgt>
<wgt id='15063'>0.66066E+03</wgt>
<wgt id='15064'>0.66059E+03</wgt>
<wgt id='15065'>0.66008E+03</wgt>
<wgt id='15066'>0.65999E+03</wgt>
<wgt id='15067'>0.66004E+03</wgt>
<wgt id='15068'>0.66051E+03</wgt>
<wgt id='15069'>0.66051E+03</wgt>
<wgt id='15070'>0.66029E+03</wgt>
<wgt id='15071'>0.66015E+03</wgt>
<wgt id='15072'>0.66033E+03</wgt>
<wgt id='15073'>0.66009E+03</wgt>
<wgt id='15074'>0.66054E+03</wgt>
<wgt id='15075'>0.66011E+03</wgt>
<wgt id='15076'>0.66010E+03</wgt>
<wgt id='15077'>0.66029E+03</wgt>
<wgt id='15078'>0.66039E+03</wgt>
<wgt id='15079'>0.65974E+03</wgt>
<wgt id='15080'>0.66056E+03</wgt>
<wgt id='15081'>0.65999E+03</wgt>
<wgt id='15082'>0.66010E+03</wgt>
<wgt id='15083'>0.66006E+03</wgt>
<wgt id='15084'>0.65970E+03</wgt>
<wgt id='15085'>0.65984E+03</wgt>
<wgt id='15086'>0.66035E+03</wgt>
<wgt id='15087'>0.65954E+03</wgt>
<wgt id='15088'>0.65988E+03</wgt>
<wgt id='15089'>0.66011E+03</wgt>
<wgt id='15090'>0.66043E+03</wgt>
<wgt id='15091'>0.66005E+03</wgt>
<wgt id='15092'>0.66014E+03</wgt>
<wgt id='15093'>0.66010E+03</wgt>
<wgt id='15094'>0.66002E+03</wgt>
<wgt id='15095'>0.66019E+03</wgt>
<wgt id='15096'>0.66007E+03</wgt>
<wgt id='15097'>0.66016E+03</wgt>
<wgt id='15098'>0.66017E+03</wgt>
<wgt id='15099'>0.66006E+03</wgt>
<wgt id='15100'>0.66004E+03</wgt>
<wgt id='15101'>0.66017E+03</wgt>
<wgt id='15102'>0.66012E+03</wgt>
<wgt id='15103'>0.66019E+03</wgt>
<wgt id='15104'>0.66019E+03</wgt>
<wgt id='15105'>0.66021E+03</wgt>
<wgt id='15106'>0.66018E+03</wgt>
<wgt id='15107'>0.66014E+03</wgt>
<wgt id='1500'>0.71437E+03</wgt>
<wgt id='1501'>0.67926E+03</wgt>
<wgt id='1502'>0.71192E+03</wgt>
<wgt id='1503'>0.72076E+03</wgt>
<wgt id='1504'>0.71102E+03</wgt>
<wgt id='1505'>0.63903E+03</wgt>
<wgt id='1506'>0.73974E+03</wgt>
<wgt id='1507'>0.71451E+03</wgt>
<wgt id='1508'>0.72108E+03</wgt>
<wgt id='1509'>0.73471E+03</wgt>
<wgt id='1510'>0.67049E+03</wgt>
<wgt id='1511'>0.65967E+03</wgt>
<wgt id='1512'>0.74239E+03</wgt>
<wgt id='1513'>0.72560E+03</wgt>
<wgt id='1514'>0.68013E+03</wgt>
<wgt id='1515'>0.73155E+03</wgt>
<wgt id='1516'>0.72930E+03</wgt>
<wgt id='1517'>0.71924E+03</wgt>
<wgt id='1518'>0.72283E+03</wgt>
<wgt id='1519'>0.73553E+03</wgt>
<wgt id='1520'>0.75406E+03</wgt>
<wgt id='1521'>0.72424E+03</wgt>
<wgt id='1522'>0.69438E+03</wgt>
<wgt id='1523'>0.76927E+03</wgt>
<wgt id='1524'>0.71246E+03</wgt>
<wgt id='1525'>0.71794E+03</wgt>
<wgt id='1526'>0.71801E+03</wgt>
<wgt id='1527'>0.71688E+03</wgt>
<wgt id='1528'>0.70752E+03</wgt>
<wgt id='1529'>0.72794E+03</wgt>
<wgt id='1530'>0.74715E+03</wgt>
<wgt id='1531'>0.70437E+03</wgt>
<wgt id='1532'>0.68346E+03</wgt>
<wgt id='1533'>0.70459E+03</wgt>
<wgt id='1534'>0.71958E+03</wgt>
<wgt id='1535'>0.72764E+03</wgt>
<wgt id='1536'>0.72984E+03</wgt>
<wgt id='1537'>0.73630E+03</wgt>
<wgt id='1538'>0.71697E+03</wgt>
<wgt id='1539'>0.70510E+03</wgt>
<wgt id='1540'>0.71231E+03</wgt>
<wgt id='1541'>0.72184E+03</wgt>
<wgt id='1542'>0.72041E+03</wgt>
<wgt id='1543'>0.71683E+03</wgt>
<wgt id='1544'>0.71529E+03</wgt>
<wgt id='1545'>0.70392E+03</wgt>
<wgt id='1546'>0.73294E+03</wgt>
<wgt id='1547'>0.70898E+03</wgt>
<wgt id='1548'>0.71518E+03</wgt>
<wgt id='1549'>0.70709E+03</wgt>
<wgt id='1550'>0.70969E+03</wgt>
<wgt id='1551'>0.71350E+03</wgt>
<wgt id='1552'>0.70074E+03</wgt>
<wgt id='1553'>0.72656E+03</wgt>
<wgt id='1554'>0.72129E+03</wgt>
<wgt id='1555'>0.70690E+03</wgt>
<wgt id='1556'>0.70433E+03</wgt>
<wgt id='1557'>0.74199E+03</wgt>
<wgt id='1558'>0.70135E+03</wgt>
<wgt id='1559'>0.73660E+03</wgt>
<wgt id='1560'>0.71419E+03</wgt>
<wgt id='1561'>0.72377E+03</wgt>
<wgt id='1562'>0.72341E+03</wgt>
<wgt id='1563'>0.72254E+03</wgt>
<wgt id='1564'>0.69864E+03</wgt>
<wgt id='1565'>0.73209E+03</wgt>
<wgt id='1566'>0.70910E+03</wgt>
<wgt id='1567'>0.76591E+03</wgt>
<wgt id='1568'>0.70510E+03</wgt>
<wgt id='1569'>0.68950E+03</wgt>
<wgt id='1570'>0.70681E+03</wgt>
<wgt id='1571'>0.71604E+03</wgt>
<wgt id='1572'>0.72339E+03</wgt>
<wgt id='1573'>0.65625E+03</wgt>
<wgt id='1574'>0.73024E+03</wgt>
<wgt id='1575'>0.70907E+03</wgt>
<wgt id='1576'>0.68504E+03</wgt>
<wgt id='1577'>0.70874E+03</wgt>
<wgt id='1578'>0.74614E+03</wgt>
<wgt id='1579'>0.71261E+03</wgt>
<wgt id='1580'>0.70810E+03</wgt>
<wgt id='1581'>0.71082E+03</wgt>
<wgt id='1582'>0.69091E+03</wgt>
<wgt id='1583'>0.76135E+03</wgt>
<wgt id='1584'>0.71433E+03</wgt>
<wgt id='1585'>0.69872E+03</wgt>
<wgt id='1586'>0.70600E+03</wgt>
<wgt id='1587'>0.71195E+03</wgt>
<wgt id='1588'>0.71540E+03</wgt>
<wgt id='1589'>0.76563E+03</wgt>
<wgt id='1590'>0.70353E+03</wgt>
<wgt id='1591'>0.70554E+03</wgt>
<wgt id='1592'>0.72438E+03</wgt>
<wgt id='1593'>0.71901E+03</wgt>
<wgt id='1594'>0.73358E+03</wgt>
<wgt id='1595'>0.69327E+03</wgt>
<wgt id='1596'>0.73523E+03</wgt>
<wgt id='1597'>0.72096E+03</wgt>
<wgt id='1598'>0.73273E+03</wgt>
<wgt id='1599'>0.74376E+03</wgt>
<wgt id='1600'>0.72728E+03</wgt>
<wgt id='1601'>0.71175E+03</wgt>
<wgt id='1602'>0.71386E+03</wgt>
<wgt id='1700'>0.68443E+03</wgt>
<wgt id='1800'>0.71057E+03</wgt>
<wgt id='1850'>0.76435E+03</wgt>
<wgt id='1900'>0.76715E+03</wgt>
<wgt id='1950'>0.74087E+03</wgt>
</rwgt>
</event>
<event>
     13 322222  6.87070E+02  2.70040E+01 -1.00000E+00  1.53735E-01
      21    -1     0     0   502   503  0.000000000E+00  0.000000000E+00  2.997226986E+01  2.997226986E+01  0.000000000E+00  0.00000E+00  9.000E+00
      21    -1     0     0   504   505  0.000000000E+00  0.000000000E+00 -1.457423849E+03  1.457423849E+03  0.000000000E+00  0.00000E+00  9.000E+00
       6     2     1     2   502     0 -7.640080603E+01 -5.663983952E+01 -5.550667117E+02  5.889574082E+02  1.724140936E+02  0.00000E+00  9.000E+00
      -6     2     1     2     0   505  5.148826421E+01  4.621956363E+01 -7.286912055E+02  7.522296638E+02  1.734107977E+02  0.00000E+00  9.000E+00
      21     1     1     2   504   503  2.491254182E+01  1.042027589E+01 -1.436936615E+02  1.462090464E+02  2.697398305E-06  0.00000E+00  9.000E+00
      24     2     3     3     0     0  1.886470701E+01 -4.465833460E+01 -3.418495058E+02  3.550692056E+02  8.284209149E+01  0.00000E+00  9.000E+00
       5     1     3     3   502     0 -9.526551304E+01 -1.198150492E+01 -2.132172059E+02  2.338882026E+02  4.800000000E+00  0.00000E+00 -1.000E+00
     -24     2     4     4     0     0  6.736516914E+00 -6.882400266E+00 -1.605864413E+02  1.798761013E+02  8.046526324E+01  0.00000E+00  9.000E+00
      -5     1     4     4     0   505  4.475174730E+01  5.310196390E+01 -5.681047642E+02  5.723535626E+02  4.800000000E+00  0.00000E+00  1.000E+00
     -15     1     6     6     0     0 -1.115687104E+01 -2.093517693E+01 -2.881590437E+02  2.891393255E+02  1.777000000E+00  0.00000E+00  1.000E+00
      16     1     6     6     0     0  3.002157805E+01 -2.372315767E+01 -5.369046217E+01  6.592988007E+01  0.000000000E+00  0.00000E+00 -1.000E+00
      15     1     8     8     0     0  1.683789811E+01  3.428423033E+01 -8.527497548E+01  9.345534995E+01  1.777000000E+00  0.00000E+00 -1.000E+00
     -16     1     8     8     0     0 -1.010138120E+01 -4.116663059E+01 -7.531146580E+01  8.642075131E+01  0.000000000E+00  0.00000E+00  1.000E+00
#rwgt            1           1   584.56119811471092                1        1665           0
<rwgt>
<wgt id='1001'>0.68707E+03</wgt>
<wgt id='1002'>0.74671E+03</wgt>
<wgt id='1003'>0.61786E+03</wgt>
<wgt id='1004'>0.58139E+03</wgt>
<wgt id='1005'>0.62409E+03</wgt>
<wgt id='1006'>0.53137E+03</wgt>
<wgt id='1007'>0.82523E+03</wgt>
<wgt id='1008'>0.91045E+03</wgt>
<wgt id='1009'>0.72715E+03</wgt>
<wgt id='2000'>0.68707E+03</wgt>
<wgt id='2001'>0.68600E+03</wgt>
<wgt id='2002'>0.68752E+03</wgt>
<wgt id='2003'>0.68636E+03</wgt>
<wgt id='2004'>0.68902E+03</wgt>
<wgt id='2005'>0.68709E+03</wgt>
<wgt id='2006'>0.68511E+03</wgt>
<wgt id='2007'>0.68690E+03</wgt>
<wgt id='2008'>0.68740E+03</wgt>
<wgt id='2009'>0.68761E+03</wgt>
<wgt id='2010'>0.68465E+03</wgt>
<wgt id='2011'>0.68782E+03</wgt>
<wgt id='2012'>0.68856E+03</wgt>
<wgt id='2013'>0.68670E+03</wgt>
<wgt id='2014'>0.68571E+03</wgt>
<wgt id='2015'>0.68647E+03</wgt>
<wgt id='2016'>0.68861E+03</wgt>
<wgt id='2017'>0.68711E+03</wgt>
<wgt id='2018'>0.68553E+03</wgt>
<wgt id='2019'>0.68765E+03</wgt>
<wgt id='2020'>0.68695E+03</wgt>
<wgt id='2021'>0.68777E+03</wgt>
<wgt id='2022'>0.68646E+03</wgt>
<wgt id='2023'>0.68858E+03</wgt>
<wgt id='2024'>0.68634E+03</wgt>
<wgt id='2025'>0.68745E+03</wgt>
<wgt id='2026'>0.68803E+03</wgt>
<wgt id='2027'>0.68544E+03</wgt>
<wgt id='2028'>0.68563E+03</wgt>
<wgt id='2029'>0.69174E+03</wgt>
<wgt id='2030'>0.68902E+03</wgt>
<wgt id='2031'>0.68726E+03</wgt>
<wgt id='2032'>0.68924E+03</wgt>
<wgt id='2033'>0.68807E+03</wgt>
<wgt id='2034'>0.68413E+03</wgt>
<wgt id='2035'>0.68742E+03</wgt>
<wgt id='2036'>0.68812E+03</wgt>
<wgt id='2037'>0.68362E+03</wgt>
<wgt id='2038'>0.68687E+03</wgt>
<wgt id='2039'>0.69095E+03</wgt>
<wgt id='2040'>0.69218E+03</wgt>
<wgt id='2041'>0.69023E+03</wgt>
<wgt id='2042'>0.68338E+03</wgt>
<wgt id='2043'>0.68325E+03</wgt>
<wgt id='2044'>0.68584E+03</wgt>
<wgt id='2045'>0.68687E+03</wgt>
<wgt id='2046'>0.68855E+03</wgt>
<wgt id='2047'>0.68952E+03</wgt>
<wgt id='2048'>0.68280E+03</wgt>
<wgt id='2049'>0.68519E+03</wgt>
<wgt id='2050'>0.68727E+03</wgt>
<wgt id='2051'>0.68851E+03</wgt>
<wgt id='2052'>0.68814E+03</wgt>
<wgt id='2053'>0.68879E+03</wgt>
<wgt id='2054'>0.68797E+03</wgt>
<wgt id='2055'>0.68726E+03</wgt>
<wgt id='2056'>0.68655E+03</wgt>
<wgt id='2057'>0.68812E+03</wgt>
<wgt id='2058'>0.68637E+03</wgt>
<wgt id='2059'>0.68653E+03</wgt>
<wgt id='2060'>0.68640E+03</wgt>
<wgt id='2061'>0.68660E+03</wgt>
<wgt id='2062'>0.68710E+03</wgt>
<wgt id='2063'>0.68733E+03</wgt>
<wgt id='2064'>0.68712E+03</wgt>
<wgt id='2065'>0.68763E+03</wgt>
<wgt id='2066'>0.68819E+03</wgt>
<wgt id='2067'>0.68707E+03</wgt>
<wgt id='2068'>0.68758E+03</wgt>
<wgt id='2069'>0.68724E+03</wgt>
<wgt id='2070'>0.68535E+03</wgt>
<wgt id='2071'>0.68596E+03</wgt>
<wgt id='2072'>0.68713E+03</wgt>
<wgt id='2073'>0.68577E+03</wgt>
<wgt id='2074'>0.68562E+03</wgt>
<wgt id='2075'>0.68672E+03</wgt>
<wgt id='2076'>0.68715E+03</wgt>
<wgt id='2077'>0.68548E+03</wgt>
<wgt id='2078'>0.68764E+03</wgt>
<wgt id='2079'>0.68749E+03</wgt>
<wgt id='2080'>0.68699E+03</wgt>
<wgt id='2081'>0.68719E+03</wgt>
<wgt id='2082'>0.68767E+03</wgt>
<wgt id='2083'>0.68660E+03</wgt>
<wgt id='2084'>0.68682E+03</wgt>
<wgt id='2085'>0.68671E+03</wgt>
<wgt id='2086'>0.68717E+03</wgt>
<wgt id='2087'>0.68699E+03</wgt>
<wgt id='2088'>0.68723E+03</wgt>
<wgt id='2089'>0.68772E+03</wgt>
<wgt id='2090'>0.68724E+03</wgt>
<wgt id='2091'>0.68649E+03</wgt>
<wgt id='2092'>0.68660E+03</wgt>
<wgt id='2093'>0.68761E+03</wgt>
<wgt id='2094'>0.68652E+03</wgt>
<wgt id='2095'>0.68702E+03</wgt>
<wgt id='2096'>0.68686E+03</wgt>
<wgt id='2097'>0.68770E+03</wgt>
<wgt id='2098'>0.68688E+03</wgt>
<wgt id='2099'>0.68742E+03</wgt>
<wgt id='2100'>0.68687E+03</wgt>
<wgt id='2101'>0.66915E+03</wgt>
<wgt id='2102'>0.70801E+03</wgt>
<wgt id='2104'>0.59210E+03</wgt>
<wgt id='2105'>0.61108E+03</wgt>
<wgt id='2106'>0.63234E+03</wgt>
<wgt id='2107'>0.64588E+03</wgt>
<wgt id='2108'>0.67559E+03</wgt>
<wgt id='2109'>0.70033E+03</wgt>
<wgt id='2110'>0.72718E+03</wgt>
<wgt id='2111'>0.75454E+03</wgt>
<wgt id='3000'>0.74483E+03</wgt>
<wgt id='3001'>0.74534E+03</wgt>
<wgt id='3002'>0.74448E+03</wgt>
<wgt id='3003'>0.74440E+03</wgt>
<wgt id='3004'>0.74753E+03</wgt>
<wgt id='3005'>0.74449E+03</wgt>
<wgt id='3006'>0.74441E+03</wgt>
<wgt id='3007'>0.74407E+03</wgt>
<wgt id='3008'>0.74339E+03</wgt>
<wgt id='3009'>0.74282E+03</wgt>
<wgt id='3010'>0.74279E+03</wgt>
<wgt id='3011'>0.74553E+03</wgt>
<wgt id='3012'>0.74643E+03</wgt>
<wgt id='3013'>0.74549E+03</wgt>
<wgt id='3014'>0.74435E+03</wgt>
<wgt id='3015'>0.74447E+03</wgt>
<wgt id='3016'>0.74561E+03</wgt>
<wgt id='3017'>0.74418E+03</wgt>
<wgt id='3018'>0.74590E+03</wgt>
<wgt id='3019'>0.74536E+03</wgt>
<wgt id='3020'>0.74491E+03</wgt>
<wgt id='3021'>0.74483E+03</wgt>
<wgt id='3022'>0.74398E+03</wgt>
<wgt id='3023'>0.74314E+03</wgt>
<wgt id='3024'>0.74341E+03</wgt>
<wgt id='3025'>0.74547E+03</wgt>
<wgt id='3026'>0.74510E+03</wgt>
<wgt id='3027'>0.74522E+03</wgt>
<wgt id='3028'>0.74245E+03</wgt>
<wgt id='3029'>0.74464E+03</wgt>
<wgt id='3030'>0.74829E+03</wgt>
<wgt id='3031'>0.74554E+03</wgt>
<wgt id='3032'>0.74425E+03</wgt>
<wgt id='3033'>0.74437E+03</wgt>
<wgt id='3034'>0.74519E+03</wgt>
<wgt id='3035'>0.73893E+03</wgt>
<wgt id='3036'>0.74423E+03</wgt>
<wgt id='3037'>0.74814E+03</wgt>
<wgt id='3038'>0.74421E+03</wgt>
<wgt id='3039'>0.74212E+03</wgt>
<wgt id='3040'>0.74816E+03</wgt>
<wgt id='3041'>0.74752E+03</wgt>
<wgt id='3042'>0.74489E+03</wgt>
<wgt id='3043'>0.74469E+03</wgt>
<wgt id='3044'>0.74382E+03</wgt>
<wgt id='3045'>0.74290E+03</wgt>
<wgt id='3046'>0.75023E+03</wgt>
<wgt id='3047'>0.74626E+03</wgt>
<wgt id='3048'>0.74329E+03</wgt>
<wgt id='3049'>0.74532E+03</wgt>
<wgt id='3050'>0.74004E+03</wgt>
<wgt id='3051'>0.74663E+03</wgt>
<wgt id='3052'>0.74261E+03</wgt>
<wgt id='3053'>0.74557E+03</wgt>
<wgt id='3054'>0.74643E+03</wgt>
<wgt id='3055'>0.74334E+03</wgt>
<wgt id='3056'>0.74396E+03</wgt>
<wgt id='3057'>0.74657E+03</wgt>
<wgt id='3058'>0.74329E+03</wgt>
<wgt id='3059'>0.74428E+03</wgt>
<wgt id='3060'>0.74650E+03</wgt>
<wgt id='3061'>0.74559E+03</wgt>
<wgt id='3062'>0.74571E+03</wgt>
<wgt id='3063'>0.74358E+03</wgt>
<wgt id='3064'>0.74574E+03</wgt>
<wgt id='3065'>0.74367E+03</wgt>
<wgt id='3066'>0.74516E+03</wgt>
<wgt id='3067'>0.74346E+03</wgt>
<wgt id='3068'>0.74469E+03</wgt>
<wgt id='3069'>0.74390E+03</wgt>
<wgt id='3070'>0.74400E+03</wgt>
<wgt id='3071'>0.74453E+03</wgt>
<wgt id='3072'>0.74587E+03</wgt>
<wgt id='3073'>0.74481E+03</wgt>
<wgt id='3074'>0.74704E+03</wgt>
<wgt id='3075'>0.74560E+03</wgt>
<wgt id='3076'>0.74557E+03</wgt>
<wgt id='3077'>0.74487E+03</wgt>
<wgt id='3078'>0.74561E+03</wgt>
<wgt id='3079'>0.74345E+03</wgt>
<wgt id='3080'>0.74366E+03</wgt>
<wgt id='3081'>0.74449E+03</wgt>
<wgt id='3082'>0.74368E+03</wgt>
<wgt id='3083'>0.74558E+03</wgt>
<wgt id='3084'>0.74508E+03</wgt>
<wgt id='3085'>0.74471E+03</wgt>
<wgt id='3086'>0.74514E+03</wgt>
<wgt id='3087'>0.74433E+03</wgt>
<wgt id='3088'>0.74436E+03</wgt>
<wgt id='3089'>0.74470E+03</wgt>
<wgt id='3090'>0.74380E+03</wgt>
<wgt id='3091'>0.74378E+03</wgt>
<wgt id='3092'>0.74512E+03</wgt>
<wgt id='3093'>0.74541E+03</wgt>
<wgt id='3094'>0.74483E+03</wgt>
<wgt id='3095'>0.74499E+03</wgt>
<wgt id='3096'>0.74456E+03</wgt>
<wgt id='3097'>0.74463E+03</wgt>
<wgt id='3098'>0.74530E+03</wgt>
<wgt id='3099'>0.74530E+03</wgt>
<wgt id='3100'>0.74492E+03</wgt>
<wgt id='3101'>0.72765E+03</wgt>
<wgt id='3102'>0.76704E+03</wgt>
<wgt id='5000'>0.75266E+03</wgt>
<wgt id='5001'>0.75393E+03</wgt>
<wgt id='5002'>0.75659E+03</wgt>
<wgt id='5003'>0.75138E+03</wgt>
<wgt id='5004'>0.76082E+03</wgt>
<wgt id='5005'>0.76335E+03</wgt>
<wgt id='5006'>0.76390E+03</wgt>
<wgt id='5007'>0.75836E+03</wgt>
<wgt id='5008'>0.75710E+03</wgt>
<wgt id='5009'>0.75152E+03</wgt>
<wgt id='5010'>0.75329E+03</wgt>
<wgt id='5011'>0.76687E+03</wgt>
<wgt id='5012'>0.73907E+03</wgt>
<wgt id='5013'>0.77627E+03</wgt>
<wgt id='5014'>0.73226E+03</wgt>
<wgt id='5015'>0.73967E+03</wgt>
<wgt id='5016'>0.78835E+03</wgt>
<wgt id='5017'>0.74468E+03</wgt>
<wgt id='5018'>0.76084E+03</wgt>
<wgt id='5019'>0.74239E+03</wgt>
<wgt id='5020'>0.76071E+03</wgt>
<wgt id='5021'>0.74449E+03</wgt>
<wgt id='5022'>0.75784E+03</wgt>
<wgt id='5023'>0.74628E+03</wgt>
<wgt id='5024'>0.76011E+03</wgt>
<wgt id='5025'>0.75531E+03</wgt>
<wgt id='5026'>0.75052E+03</wgt>
<wgt id='5027'>0.74577E+03</wgt>
<wgt id='5028'>0.76428E+03</wgt>
<wgt id='5029'>0.77388E+03</wgt>
<wgt id='5030'>0.73950E+03</wgt>
<wgt id='5031'>0.76035E+03</wgt>
<wgt id='5032'>0.74142E+03</wgt>
<wgt id='5033'>0.74456E+03</wgt>
<wgt id='5034'>0.76087E+03</wgt>
<wgt id='5035'>0.74912E+03</wgt>
<wgt id='5036'>0.75539E+03</wgt>
<wgt id='5037'>0.73797E+03</wgt>
<wgt id='5038'>0.76994E+03</wgt>
<wgt id='5039'>0.76680E+03</wgt>
<wgt id='5040'>0.74561E+03</wgt>
<wgt id='5041'>0.76103E+03</wgt>
<wgt id='5042'>0.75180E+03</wgt>
<wgt id='5043'>0.75062E+03</wgt>
<wgt id='5044'>0.76901E+03</wgt>
<wgt id='5045'>0.73911E+03</wgt>
<wgt id='5046'>0.75629E+03</wgt>
<wgt id='5047'>0.73579E+03</wgt>
<wgt id='5048'>0.75378E+03</wgt>
<wgt id='5049'>0.75188E+03</wgt>
<wgt id='5050'>0.74992E+03</wgt>
<wgt id='5051'>0.75228E+03</wgt>
<wgt id='5052'>0.75037E+03</wgt>
<wgt id='5053'>0.72897E+03</wgt>
<wgt id='5054'>0.75019E+03</wgt>
<wgt id='5055'>0.74975E+03</wgt>
<wgt id='5056'>0.75690E+03</wgt>
<wgt id='5060'>0.72676E+03</wgt>
<wgt id='5070'>0.78155E+03</wgt>
<wgt id='4000'>0.77553E+03</wgt>
<wgt id='4001'>0.77304E+03</wgt>
<wgt id='4002'>0.77499E+03</wgt>
<wgt id='4003'>0.77166E+03</wgt>
<wgt id='4004'>0.78093E+03</wgt>
<wgt id='4005'>0.77145E+03</wgt>
<wgt id='4006'>0.77721E+03</wgt>
<wgt id='4007'>0.76749E+03</wgt>
<wgt id='4008'>0.77813E+03</wgt>
<wgt id='4009'>0.78925E+03</wgt>
<wgt id='4010'>0.77392E+03</wgt>
<wgt id='4011'>0.77876E+03</wgt>
<wgt id='4012'>0.77209E+03</wgt>
<wgt id='4013'>0.79865E+03</wgt>
<wgt id='4014'>0.76310E+03</wgt>
<wgt id='4015'>0.79350E+03</wgt>
<wgt id='4016'>0.76408E+03</wgt>
<wgt id='4017'>0.76188E+03</wgt>
<wgt id='4018'>0.79191E+03</wgt>
<wgt id='4019'>0.75964E+03</wgt>
<wgt id='4020'>0.79209E+03</wgt>
<wgt id='4021'>0.77275E+03</wgt>
<wgt id='4022'>0.78125E+03</wgt>
<wgt id='4023'>0.78844E+03</wgt>
<wgt id='4024'>0.76258E+03</wgt>
<wgt id='4025'>0.78083E+03</wgt>
<wgt id='4026'>0.77037E+03</wgt>
<wgt id='4027'>0.78383E+03</wgt>
<wgt id='4028'>0.76392E+03</wgt>
<wgt id='4029'>0.78468E+03</wgt>
<wgt id='4030'>0.77234E+03</wgt>
<wgt id='4031'>0.77468E+03</wgt>
<wgt id='4032'>0.77665E+03</wgt>
<wgt id='4033'>0.77724E+03</wgt>
<wgt id='4034'>0.77181E+03</wgt>
<wgt id='4035'>0.75494E+03</wgt>
<wgt id='4036'>0.79440E+03</wgt>
<wgt id='4037'>0.75856E+03</wgt>
<wgt id='4038'>0.80080E+03</wgt>
<wgt id='4039'>0.76565E+03</wgt>
<wgt id='4040'>0.78509E+03</wgt>
<wgt id='4041'>0.77483E+03</wgt>
<wgt id='4042'>0.77338E+03</wgt>
<wgt id='4043'>0.75906E+03</wgt>
<wgt id='4044'>0.78255E+03</wgt>
<wgt id='4045'>0.80572E+03</wgt>
<wgt id='4046'>0.76858E+03</wgt>
<wgt id='4047'>0.77541E+03</wgt>
<wgt id='4048'>0.79321E+03</wgt>
<wgt id='4049'>0.79264E+03</wgt>
<wgt id='4050'>0.78231E+03</wgt>
<wgt id='4051'>0.77944E+03</wgt>
<wgt id='4052'>0.77565E+03</wgt>
<wgt id='4053'>0.74282E+03</wgt>
<wgt id='4054'>0.78140E+03</wgt>
<wgt id='4055'>0.77312E+03</wgt>
<wgt id='4056'>0.77806E+03</wgt>
<wgt id='4060'>0.75154E+03</wgt>
<wgt id='4070'>0.80308E+03</wgt>
<wgt id='4080'>0.95420E+03</wgt>
<wgt id='6000'>0.74965E+03</wgt>
<wgt id='6001'>0.75033E+03</wgt>
<wgt id='6002'>0.74891E+03</wgt>
<wgt id='6003'>0.75003E+03</wgt>
<wgt id='6004'>0.74941E+03</wgt>
<wgt id='6005'>0.75313E+03</wgt>
<wgt id='6006'>0.74645E+03</wgt>
<wgt id='6007'>0.74769E+03</wgt>
<wgt id='6008'>0.75180E+03</wgt>
<wgt id='6009'>0.75157E+03</wgt>
<wgt id='6010'>0.74776E+03</wgt>
<wgt id='6011'>0.75061E+03</wgt>
<wgt id='6012'>0.74763E+03</wgt>
<wgt id='6013'>0.74923E+03</wgt>
<wgt id='6014'>0.75043E+03</wgt>
<wgt id='6015'>0.74898E+03</wgt>
<wgt id='6016'>0.75006E+03</wgt>
<wgt id='6017'>0.74554E+03</wgt>
<wgt id='6018'>0.75457E+03</wgt>
<wgt id='6019'>0.74940E+03</wgt>
<wgt id='6020'>0.74990E+03</wgt>
<wgt id='6021'>0.74735E+03</wgt>
<wgt id='6022'>0.75271E+03</wgt>
<wgt id='6023'>0.74361E+03</wgt>
<wgt id='6024'>0.75370E+03</wgt>
<wgt id='6025'>0.75860E+03</wgt>
<wgt id='6026'>0.73978E+03</wgt>
<wgt id='6027'>0.74997E+03</wgt>
<wgt id='6028'>0.74973E+03</wgt>
<wgt id='6029'>0.74275E+03</wgt>
<wgt id='6030'>0.75807E+03</wgt>
<wgt id='6031'>0.73545E+03</wgt>
<wgt id='6032'>0.76610E+03</wgt>
<wgt id='6033'>0.75552E+03</wgt>
<wgt id='6034'>0.74400E+03</wgt>
<wgt id='6035'>0.75234E+03</wgt>
<wgt id='6036'>0.74390E+03</wgt>
<wgt id='6037'>0.75016E+03</wgt>
<wgt id='6038'>0.74928E+03</wgt>
<wgt id='6039'>0.74609E+03</wgt>
<wgt id='6040'>0.75378E+03</wgt>
<wgt id='6041'>0.74112E+03</wgt>
<wgt id='6042'>0.75951E+03</wgt>
<wgt id='6043'>0.75673E+03</wgt>
<wgt id='6044'>0.74772E+03</wgt>
<wgt id='6045'>0.74774E+03</wgt>
<wgt id='6046'>0.75442E+03</wgt>
<wgt id='6047'>0.74345E+03</wgt>
<wgt id='6048'>0.76160E+03</wgt>
<wgt id='6049'>0.74484E+03</wgt>
<wgt id='6050'>0.75234E+03</wgt>
<wgt id='7000'>0.72176E+03</wgt>
<wgt id='7001'>0.72181E+03</wgt>
<wgt id='7002'>0.72170E+03</wgt>
<wgt id='7003'>0.72437E+03</wgt>
<wgt id='7004'>0.71913E+03</wgt>
<wgt id='7005'>0.72327E+03</wgt>
<wgt id='7006'>0.72122E+03</wgt>
<wgt id='7007'>0.72127E+03</wgt>
<wgt id='7008'>0.72229E+03</wgt>
<wgt id='7009'>0.72287E+03</wgt>
<wgt id='7010'>0.72069E+03</wgt>
<wgt id='7011'>0.71786E+03</wgt>
<wgt id='7012'>0.72349E+03</wgt>
<wgt id='7013'>0.72147E+03</wgt>
<wgt id='7014'>0.72214E+03</wgt>
<wgt id='7015'>0.72102E+03</wgt>
<wgt id='7016'>0.72257E+03</wgt>
<wgt id='7017'>0.71672E+03</wgt>
<wgt id='7018'>0.72456E+03</wgt>
<wgt id='7019'>0.72151E+03</wgt>
<wgt id='7020'>0.72208E+03</wgt>
<wgt id='7021'>0.72205E+03</wgt>
<wgt id='7022'>0.72154E+03</wgt>
<wgt id='7023'>0.72404E+03</wgt>
<wgt id='7024'>0.71943E+03</wgt>
<wgt id='7025'>0.72289E+03</wgt>
<wgt id='7026'>0.71874E+03</wgt>
<wgt id='7027'>0.72103E+03</wgt>
<wgt id='7028'>0.72236E+03</wgt>
<wgt id='7029'>0.72864E+03</wgt>
<wgt id='7030'>0.70443E+03</wgt>
<wgt id='7031'>0.71537E+03</wgt>
<wgt id='7032'>0.73540E+03</wgt>
<wgt id='7033'>0.72437E+03</wgt>
<wgt id='7034'>0.71713E+03</wgt>
<wgt id='7035'>0.71233E+03</wgt>
<wgt id='7036'>0.72640E+03</wgt>
<wgt id='7037'>0.72142E+03</wgt>
<wgt id='7038'>0.72289E+03</wgt>
<wgt id='7039'>0.71699E+03</wgt>
<wgt id='7040'>0.72540E+03</wgt>
<wgt id='7041'>0.72999E+03</wgt>
<wgt id='7042'>0.70980E+03</wgt>
<wgt id='7043'>0.72269E+03</wgt>
<wgt id='7044'>0.71690E+03</wgt>
<wgt id='7045'>0.72294E+03</wgt>
<wgt id='7046'>0.72087E+03</wgt>
<wgt id='7047'>0.72195E+03</wgt>
<wgt id='7048'>0.72165E+03</wgt>
<wgt id='7049'>0.72802E+03</wgt>
<wgt id='7050'>0.71738E+03</wgt>
<wgt id='7060'>0.11199E+04</wgt>
<wgt id='8000'>0.69161E+03</wgt>
<wgt id='8001'>0.69151E+03</wgt>
<wgt id='8002'>0.69181E+03</wgt>
<wgt id='8003'>0.69160E+03</wgt>
<wgt id='8004'>0.69158E+03</wgt>
<wgt id='8005'>0.69022E+03</wgt>
<wgt id='8006'>0.69239E+03</wgt>
<wgt id='8007'>0.69285E+03</wgt>
<wgt id='8008'>0.69302E+03</wgt>
<wgt id='8009'>0.69448E+03</wgt>
<wgt id='8010'>0.69085E+03</wgt>
<wgt id='8011'>0.69196E+03</wgt>
<wgt id='8012'>0.68934E+03</wgt>
<wgt id='8013'>0.69024E+03</wgt>
<wgt id='8014'>0.69328E+03</wgt>
<wgt id='8015'>0.69108E+03</wgt>
<wgt id='8016'>0.69291E+03</wgt>
<wgt id='8017'>0.69299E+03</wgt>
<wgt id='8018'>0.69466E+03</wgt>
<wgt id='8019'>0.68905E+03</wgt>
<wgt id='8020'>0.69600E+03</wgt>
<wgt id='8021'>0.68980E+03</wgt>
<wgt id='8022'>0.69947E+03</wgt>
<wgt id='8023'>0.68793E+03</wgt>
<wgt id='8024'>0.68492E+03</wgt>
<wgt id='8025'>0.68582E+03</wgt>
<wgt id='8026'>0.69101E+03</wgt>
<wgt id='8027'>0.69338E+03</wgt>
<wgt id='8028'>0.69170E+03</wgt>
<wgt id='8029'>0.71407E+03</wgt>
<wgt id='8500'>0.75971E+03</wgt>
<wgt id='8501'>0.75001E+03</wgt>
<wgt id='8502'>0.75843E+03</wgt>
<wgt id='8503'>0.76236E+03</wgt>
<wgt id='8504'>0.75665E+03</wgt>
<wgt id='8505'>0.76155E+03</wgt>
<wgt id='8506'>0.75686E+03</wgt>
<wgt id='8507'>0.75950E+03</wgt>
<wgt id='8508'>0.75545E+03</wgt>
<wgt id='8509'>0.75995E+03</wgt>
<wgt id='8510'>0.75205E+03</wgt>
<wgt id='8511'>0.75437E+03</wgt>
<wgt id='8512'>0.76878E+03</wgt>
<wgt id='8513'>0.76485E+03</wgt>
<wgt id='8514'>0.76646E+03</wgt>
<wgt id='8515'>0.76216E+03</wgt>
<wgt id='8516'>0.75774E+03</wgt>
<wgt id='8517'>0.76767E+03</wgt>
<wgt id='8518'>0.75730E+03</wgt>
<wgt id='8519'>0.75669E+03</wgt>
<wgt id='8520'>0.74601E+03</wgt>
<wgt id='8521'>0.75028E+03</wgt>
<wgt id='8522'>0.77162E+03</wgt>
<wgt id='8523'>0.75218E+03</wgt>
<wgt id='8524'>0.75859E+03</wgt>
<wgt id='8525'>0.76213E+03</wgt>
<wgt id='8526'>0.76053E+03</wgt>
<wgt id='8527'>0.75976E+03</wgt>
<wgt id='8528'>0.75823E+03</wgt>
<wgt id='8529'>0.75638E+03</wgt>
<wgt id='8530'>0.76092E+03</wgt>
<wgt id='8531'>0.76035E+03</wgt>
<wgt id='8532'>0.75948E+03</wgt>
<wgt id='8533'>0.75742E+03</wgt>
<wgt id='8534'>0.76020E+03</wgt>
<wgt id='8535'>0.76200E+03</wgt>
<wgt id='8536'>0.75854E+03</wgt>
<wgt id='8537'>0.75970E+03</wgt>
<wgt id='8538'>0.75898E+03</wgt>
<wgt id='8539'>0.75994E+03</wgt>
<wgt id='8540'>0.76049E+03</wgt>
<wgt id='8541'>0.75998E+03</wgt>
<wgt id='8542'>0.75926E+03</wgt>
<wgt id='8543'>0.75928E+03</wgt>
<wgt id='8544'>0.76083E+03</wgt>
<wgt id='8545'>0.76024E+03</wgt>
<wgt id='8546'>0.76103E+03</wgt>
<wgt id='8547'>0.75869E+03</wgt>
<wgt id='8548'>0.75871E+03</wgt>
<wgt id='8549'>0.76086E+03</wgt>
<wgt id='8550'>0.75880E+03</wgt>
<wgt id='8551'>0.75986E+03</wgt>
<wgt id='8552'>0.75927E+03</wgt>
<wgt id='8553'>0.75845E+03</wgt>
<wgt id='8554'>0.75957E+03</wgt>
<wgt id='8555'>0.75961E+03</wgt>
<wgt id='8556'>0.75926E+03</wgt>
<wgt id='8557'>0.76005E+03</wgt>
<wgt id='8558'>0.76019E+03</wgt>
<wgt id='8559'>0.75963E+03</wgt>
<wgt id='8560'>0.75902E+03</wgt>
<wgt id='8561'>0.76034E+03</wgt>
<wgt id='8562'>0.75954E+03</wgt>
<wgt id='8563'>0.75968E+03</wgt>
<wgt id='8564'>0.75954E+03</wgt>
<wgt id='8565'>0.76013E+03</wgt>
<wgt id='8566'>0.76048E+03</wgt>
<wgt id='8567'>0.75998E+03</wgt>
<wgt id='8568'>0.76020E+03</wgt>
<wgt id='8569'>0.76010E+03</wgt>
<wgt id='8570'>0.75946E+03</wgt>
<wgt id='8571'>0.75885E+03</wgt>
<wgt id='8572'>0.75921E+03</wgt>
<wgt id='8573'>0.75900E+03</wgt>
<wgt id='8574'>0.75966E+03</wgt>
<wgt id='8575'>0.75945E+03</wgt>
<wgt id='8576'>0.75981E+03</wgt>
<wgt id='8577'>0.75904E+03</wgt>
<wgt id='8578'>0.75994E+03</wgt>
<wgt id='8579'>0.76046E+03</wgt>
<wgt id='8580'>0.75915E+03</wgt>
<wgt id='8581'>0.76008E+03</wgt>
<wgt id='8582'>0.75923E+03</wgt>
<wgt id='8583'>0.76005E+03</wgt>
<wgt id='8584'>0.76042E+03</wgt>
<wgt id='8585'>0.76004E+03</wgt>
<wgt id='8586'>0.76079E+03</wgt>
<wgt id='8587'>0.75988E+03</wgt>
<wgt id='8588'>0.75964E+03</wgt>
<wgt id='8589'>0.75970E+03</wgt>
<wgt id='8590'>0.75961E+03</wgt>
<wgt id='8591'>0.75915E+03</wgt>
<wgt id='8592'>0.75957E+03</wgt>
<wgt id='8593'>0.75933E+03</wgt>
<wgt id='8594'>0.75959E+03</wgt>
<wgt id='8595'>0.75965E+03</wgt>
<wgt id='8596'>0.75947E+03</wgt>
<wgt id='8597'>0.76003E+03</wgt>
<wgt id='8598'>0.76003E+03</wgt>
<wgt id='8599'>0.75987E+03</wgt>
<wgt id='8600'>0.75971E+03</wgt>
<wgt id='8601'>0.74355E+03</wgt>
<wgt id='8602'>0.77823E+03</wgt>
<wgt id='9000'>0.72869E+03</wgt>
<wgt id='9001'>0.73287E+03</wgt>
<wgt id='9002'>0.72542E+03</wgt>
<wgt id='9003'>0.73396E+03</wgt>
<wgt id='9004'>0.73386E+03</wgt>
<wgt id='9005'>0.73387E+03</wgt>
<wgt id='9006'>0.73302E+03</wgt>
<wgt id='9007'>0.72722E+03</wgt>
<wgt id='9008'>0.72693E+03</wgt>
<wgt id='9009'>0.73251E+03</wgt>
<wgt id='9010'>0.73281E+03</wgt>
<wgt id='9011'>0.72702E+03</wgt>
<wgt id='9012'>0.73153E+03</wgt>
<wgt id='9013'>0.74310E+03</wgt>
<wgt id='9014'>0.72876E+03</wgt>
<wgt id='9015'>0.71724E+03</wgt>
<wgt id='9016'>0.72120E+03</wgt>
<wgt id='9017'>0.72969E+03</wgt>
<wgt id='9018'>0.73562E+03</wgt>
<wgt id='9019'>0.73439E+03</wgt>
<wgt id='9020'>0.73133E+03</wgt>
<wgt id='9021'>0.71168E+03</wgt>
<wgt id='9022'>0.73041E+03</wgt>
<wgt id='9023'>0.71839E+03</wgt>
<wgt id='9024'>0.72435E+03</wgt>
<wgt id='9025'>0.72917E+03</wgt>
<wgt id='9026'>0.72623E+03</wgt>
<wgt id='9027'>0.72838E+03</wgt>
<wgt id='9028'>0.72946E+03</wgt>
<wgt id='9029'>0.73136E+03</wgt>
<wgt id='9030'>0.72877E+03</wgt>
<wgt id='9031'>0.72626E+03</wgt>
<wgt id='9032'>0.72902E+03</wgt>
<wgt id='9033'>0.72949E+03</wgt>
<wgt id='9034'>0.73082E+03</wgt>
<wgt id='9035'>0.73061E+03</wgt>
<wgt id='9036'>0.72958E+03</wgt>
<wgt id='9037'>0.72923E+03</wgt>
<wgt id='9038'>0.72949E+03</wgt>
<wgt id='9039'>0.72807E+03</wgt>
<wgt id='9040'>0.72777E+03</wgt>
<wgt id='9041'>0.72876E+03</wgt>
<wgt id='9042'>0.72911E+03</wgt>
<wgt id='9043'>0.72715E+03</wgt>
<wgt id='9044'>0.72902E+03</wgt>
<wgt id='9045'>0.72870E+03</wgt>
<wgt id='9046'>0.72756E+03</wgt>
<wgt id='9047'>0.72921E+03</wgt>
<wgt id='9048'>0.72937E+03</wgt>
<wgt id='9049'>0.72811E+03</wgt>
<wgt id='9050'>0.72850E+03</wgt>
<wgt id='9051'>0.72945E+03</wgt>
<wgt id='9052'>0.72976E+03</wgt>
<wgt id='9053'>0.72885E+03</wgt>
<wgt id='9054'>0.72785E+03</wgt>
<wgt id='9055'>0.72783E+03</wgt>
<wgt id='9056'>0.72885E+03</wgt>
<wgt id='9057'>0.72831E+03</wgt>
<wgt id='9058'>0.72798E+03</wgt>
<wgt id='9059'>0.72823E+03</wgt>
<wgt id='9060'>0.72847E+03</wgt>
<wgt id='9061'>0.72843E+03</wgt>
<wgt id='9062'>0.72889E+03</wgt>
<wgt id='9063'>0.72882E+03</wgt>
<wgt id='9064'>0.72946E+03</wgt>
<wgt id='9065'>0.72829E+03</wgt>
<wgt id='9066'>0.72817E+03</wgt>
<wgt id='9067'>0.72873E+03</wgt>
<wgt id='9068'>0.72884E+03</wgt>
<wgt id='9069'>0.72956E+03</wgt>
<wgt id='9070'>0.72864E+03</wgt>
<wgt id='9071'>0.72905E+03</wgt>
<wgt id='9072'>0.72911E+03</wgt>
<wgt id='9073'>0.72852E+03</wgt>
<wgt id='9074'>0.72885E+03</wgt>
<wgt id='9075'>0.72831E+03</wgt>
<wgt id='9076'>0.72877E+03</wgt>
<wgt id='9077'>0.72897E+03</wgt>
<wgt id='9078'>0.72903E+03</wgt>
<wgt id='9079'>0.72829E+03</wgt>
<wgt id='9080'>0.72939E+03</wgt>
<wgt id='9081'>0.72881E+03</wgt>
<wgt id='9082'>0.72878E+03</wgt>
<wgt id='9083'>0.72853E+03</wgt>
<wgt id='9084'>0.72811E+03</wgt>
<wgt id='9085'>0.72815E+03</wgt>
<wgt id='9086'>0.72899E+03</wgt>
<wgt id='9087'>0.72763E+03</wgt>
<wgt id='9088'>0.72823E+03</wgt>
<wgt id='9089'>0.72833E+03</wgt>
<wgt id='9090'>0.72887E+03</wgt>
<wgt id='9091'>0.72848E+03</wgt>
<wgt id='9092'>0.72853E+03</wgt>
<wgt id='9093'>0.72849E+03</wgt>
<wgt id='9094'>0.72847E+03</wgt>
<wgt id='9095'>0.72878E+03</wgt>
<wgt id='9096'>0.72843E+03</wgt>
<wgt id='9097'>0.72879E+03</wgt>
<wgt id='9098'>0.72863E+03</wgt>
<wgt id='9099'>0.72843E+03</wgt>
<wgt id='9100'>0.72871E+03</wgt>
<wgt id='9101'>0.71054E+03</wgt>
<wgt id='9102'>0.74800E+03</wgt>
<wgt id='10000'>0.75968E+03</wgt>
<wgt id='10001'>0.75452E+03</wgt>
<wgt id='10002'>0.75267E+03</wgt>
<wgt id='10003'>0.75834E+03</wgt>
<wgt id='10004'>0.76127E+03</wgt>
<wgt id='10005'>0.75025E+03</wgt>
<wgt id='10006'>0.74929E+03</wgt>
<wgt id='10007'>0.75857E+03</wgt>
<wgt id='10008'>0.75372E+03</wgt>
<wgt id='10009'>0.75537E+03</wgt>
<wgt id='10010'>0.75681E+03</wgt>
<wgt id='10011'>0.75297E+03</wgt>
<wgt id='10012'>0.75357E+03</wgt>
<wgt id='10013'>0.76062E+03</wgt>
<wgt id='10014'>0.76095E+03</wgt>
<wgt id='10015'>0.76367E+03</wgt>
<wgt id='10016'>0.76146E+03</wgt>
<wgt id='10017'>0.76013E+03</wgt>
<wgt id='10018'>0.76219E+03</wgt>
<wgt id='10019'>0.73792E+03</wgt>
<wgt id='10020'>0.76046E+03</wgt>
<wgt id='10021'>0.75915E+03</wgt>
<wgt id='10022'>0.76739E+03</wgt>
<wgt id='10023'>0.75993E+03</wgt>
<wgt id='10024'>0.75921E+03</wgt>
<wgt id='10025'>0.75942E+03</wgt>
<wgt id='10026'>0.75931E+03</wgt>
<wgt id='10027'>0.75936E+03</wgt>
<wgt id='10028'>0.75934E+03</wgt>
<wgt id='10029'>0.76062E+03</wgt>
<wgt id='10030'>0.75946E+03</wgt>
<wgt id='10031'>0.74355E+03</wgt>
<wgt id='10032'>0.77823E+03</wgt>
<wgt id='11000'>0.72866E+03</wgt>
<wgt id='11001'>0.72278E+03</wgt>
<wgt id='11002'>0.72192E+03</wgt>
<wgt id='11003'>0.72973E+03</wgt>
<wgt id='11004'>0.71556E+03</wgt>
<wgt id='11005'>0.74303E+03</wgt>
<wgt id='11006'>0.72940E+03</wgt>
<wgt id='11007'>0.73153E+03</wgt>
<wgt id='11008'>0.72949E+03</wgt>
<wgt id='11009'>0.73089E+03</wgt>
<wgt id='11010'>0.72707E+03</wgt>
<wgt id='11011'>0.72742E+03</wgt>
<wgt id='11012'>0.72570E+03</wgt>
<wgt id='11013'>0.72878E+03</wgt>
<wgt id='11014'>0.72711E+03</wgt>
<wgt id='11015'>0.72183E+03</wgt>
<wgt id='11016'>0.73161E+03</wgt>
<wgt id='11017'>0.73181E+03</wgt>
<wgt id='11018'>0.72930E+03</wgt>
<wgt id='11019'>0.73216E+03</wgt>
<wgt id='11020'>0.72961E+03</wgt>
<wgt id='11021'>0.73192E+03</wgt>
<wgt id='11022'>0.72427E+03</wgt>
<wgt id='11023'>0.72928E+03</wgt>
<wgt id='11024'>0.72262E+03</wgt>
<wgt id='11025'>0.72532E+03</wgt>
<wgt id='11026'>0.72873E+03</wgt>
<wgt id='11027'>0.73390E+03</wgt>
<wgt id='11028'>0.72741E+03</wgt>
<wgt id='11029'>0.70813E+03</wgt>
<wgt id='11030'>0.72872E+03</wgt>
<wgt id='11031'>0.71054E+03</wgt>
<wgt id='11032'>0.74800E+03</wgt>
<wgt id='12000'>0.58272E+03</wgt>
<wgt id='12001'>0.58207E+03</wgt>
<wgt id='12002'>0.58338E+03</wgt>
<wgt id='12003'>0.58326E+03</wgt>
<wgt id='12004'>0.58219E+03</wgt>
<wgt id='12005'>0.58275E+03</wgt>
<wgt id='12006'>0.58270E+03</wgt>
<wgt id='12007'>0.58485E+03</wgt>
<wgt id='12008'>0.58064E+03</wgt>
<wgt id='12009'>0.58191E+03</wgt>
<wgt id='12010'>0.58359E+03</wgt>
<wgt id='12011'>0.57950E+03</wgt>
<wgt id='12012'>0.58618E+03</wgt>
<wgt id='12013'>0.58285E+03</wgt>
<wgt id='12014'>0.58261E+03</wgt>
<wgt id='12015'>0.58673E+03</wgt>
<wgt id='12016'>0.57857E+03</wgt>
<wgt id='12017'>0.58457E+03</wgt>
<wgt id='12018'>0.58120E+03</wgt>
<wgt id='12019'>0.59019E+03</wgt>
<wgt id='12020'>0.57550E+03</wgt>
<wgt id='12021'>0.58345E+03</wgt>
<wgt id='12022'>0.58203E+03</wgt>
<wgt id='12023'>0.57582E+03</wgt>
<wgt id='12024'>0.59015E+03</wgt>
<wgt id='12025'>0.57485E+03</wgt>
<wgt id='12026'>0.59074E+03</wgt>
<wgt id='12027'>0.59407E+03</wgt>
<wgt id='12028'>0.57307E+03</wgt>
<wgt id='12050'>0.58272E+03</wgt>
<wgt id='12051'>0.58468E+03</wgt>
<wgt id='12052'>0.57623E+03</wgt>
<wgt id='12053'>0.58480E+03</wgt>
<wgt id='12054'>0.57790E+03</wgt>
<wgt id='12055'>0.57031E+03</wgt>
<wgt id='12056'>0.60372E+03</wgt>
<wgt id='12057'>0.58250E+03</wgt>
<wgt id='12058'>0.58071E+03</wgt>
<wgt id='12059'>0.58659E+03</wgt>
<wgt id='12060'>0.57630E+03</wgt>
<wgt id='12061'>0.57762E+03</wgt>
<wgt id='12062'>0.58050E+03</wgt>
<wgt id='12063'>0.59437E+03</wgt>
<wgt id='13000'>0.67716E+03</wgt>
<wgt id='13001'>0.67378E+03</wgt>
<wgt id='13002'>0.67505E+03</wgt>
<wgt id='13003'>0.67460E+03</wgt>
<wgt id='13004'>0.67423E+03</wgt>
<wgt id='13005'>0.67492E+03</wgt>
<wgt id='13006'>0.67391E+03</wgt>
<wgt id='13007'>0.67783E+03</wgt>
<wgt id='13008'>0.67108E+03</wgt>
<wgt id='13009'>0.67148E+03</wgt>
<wgt id='13010'>0.67745E+03</wgt>
<wgt id='13011'>0.67675E+03</wgt>
<wgt id='13012'>0.67216E+03</wgt>
<wgt id='13013'>0.67434E+03</wgt>
<wgt id='13014'>0.67447E+03</wgt>
<wgt id='13015'>0.67679E+03</wgt>
<wgt id='13016'>0.67127E+03</wgt>
<wgt id='13017'>0.67224E+03</wgt>
<wgt id='13018'>0.67669E+03</wgt>
<wgt id='13019'>0.67978E+03</wgt>
<wgt id='13020'>0.66925E+03</wgt>
<wgt id='13021'>0.68814E+03</wgt>
<wgt id='13022'>0.66138E+03</wgt>
<wgt id='13023'>0.66207E+03</wgt>
<wgt id='13024'>0.68687E+03</wgt>
<wgt id='13025'>0.65930E+03</wgt>
<wgt id='13026'>0.68897E+03</wgt>
<wgt id='13027'>0.66784E+03</wgt>
<wgt id='13028'>0.68181E+03</wgt>
<wgt id='13050'>0.67716E+03</wgt>
<wgt id='13051'>0.67696E+03</wgt>
<wgt id='13052'>0.66663E+03</wgt>
<wgt id='13053'>0.67717E+03</wgt>
<wgt id='13054'>0.67328E+03</wgt>
<wgt id='13055'>0.63893E+03</wgt>
<wgt id='13056'>0.69534E+03</wgt>
<wgt id='13057'>0.67525E+03</wgt>
<wgt id='13058'>0.67455E+03</wgt>
<wgt id='13059'>0.68334E+03</wgt>
<wgt id='13060'>0.63347E+03</wgt>
<wgt id='13061'>0.68050E+03</wgt>
<wgt id='13062'>0.66808E+03</wgt>
<wgt id='13063'>0.69529E+03</wgt>
<wgt id='14000'>0.77238E+03</wgt>
<wgt id='14001'>0.77229E+03</wgt>
<wgt id='14002'>0.77221E+03</wgt>
<wgt id='14003'>0.77212E+03</wgt>
<wgt id='14004'>0.77204E+03</wgt>
<wgt id='14005'>0.77195E+03</wgt>
<wgt id='14006'>0.77187E+03</wgt>
<wgt id='14007'>0.77179E+03</wgt>
<wgt id='14008'>0.77170E+03</wgt>
<wgt id='14009'>0.77162E+03</wgt>
<wgt id='14010'>0.77153E+03</wgt>
<wgt id='14011'>0.77144E+03</wgt>
<wgt id='14012'>0.77136E+03</wgt>
<wgt id='14013'>0.77127E+03</wgt>
<wgt id='14014'>0.77119E+03</wgt>
<wgt id='14015'>0.77110E+03</wgt>
<wgt id='14016'>0.77102E+03</wgt>
<wgt id='14017'>0.77093E+03</wgt>
<wgt id='14018'>0.77085E+03</wgt>
<wgt id='14019'>0.77076E+03</wgt>
<wgt id='14020'>0.77068E+03</wgt>
<wgt id='14021'>0.77059E+03</wgt>
<wgt id='14022'>0.77051E+03</wgt>
<wgt id='14023'>0.77043E+03</wgt>
<wgt id='14024'>0.77034E+03</wgt>
<wgt id='14025'>0.77025E+03</wgt>
<wgt id='14026'>0.77017E+03</wgt>
<wgt id='14027'>0.77009E+03</wgt>
<wgt id='14028'>0.77000E+03</wgt>
<wgt id='14029'>0.76991E+03</wgt>
<wgt id='14030'>0.76984E+03</wgt>
<wgt id='15000'>0.72023E+03</wgt>
<wgt id='15001'>0.72444E+03</wgt>
<wgt id='15002'>0.71700E+03</wgt>
<wgt id='15003'>0.72545E+03</wgt>
<wgt id='15004'>0.72536E+03</wgt>
<wgt id='15005'>0.72536E+03</wgt>
<wgt id='15006'>0.72446E+03</wgt>
<wgt id='15007'>0.71871E+03</wgt>
<wgt id='15008'>0.71847E+03</wgt>
<wgt id='15009'>0.72400E+03</wgt>
<wgt id='15010'>0.72432E+03</wgt>
<wgt id='15011'>0.71851E+03</wgt>
<wgt id='15012'>0.72299E+03</wgt>
<wgt id='15013'>0.73443E+03</wgt>
<wgt id='15014'>0.72028E+03</wgt>
<wgt id='15015'>0.70897E+03</wgt>
<wgt id='15016'>0.71275E+03</wgt>
<wgt id='15017'>0.72125E+03</wgt>
<wgt id='15018'>0.72711E+03</wgt>
<wgt id='15019'>0.72583E+03</wgt>
<wgt id='15020'>0.72278E+03</wgt>
<wgt id='15021'>0.70340E+03</wgt>
<wgt id='15022'>0.72196E+03</wgt>
<wgt id='15023'>0.70996E+03</wgt>
<wgt id='15024'>0.71593E+03</wgt>
<wgt id='15025'>0.72077E+03</wgt>
<wgt id='15026'>0.71784E+03</wgt>
<wgt id='15027'>0.71985E+03</wgt>
<wgt id='15028'>0.72097E+03</wgt>
<wgt id='15029'>0.72291E+03</wgt>
<wgt id='15030'>0.72032E+03</wgt>
<wgt id='15031'>0.71775E+03</wgt>
<wgt id='15032'>0.72058E+03</wgt>
<wgt id='15033'>0.72104E+03</wgt>
<wgt id='15034'>0.72234E+03</wgt>
<wgt id='15035'>0.72215E+03</wgt>
<wgt id='15036'>0.72109E+03</wgt>
<wgt id='15037'>0.72077E+03</wgt>
<wgt id='15038'>0.72103E+03</wgt>
<wgt id='15039'>0.71964E+03</wgt>
<wgt id='15040'>0.71931E+03</wgt>
<wgt id='15041'>0.72030E+03</wgt>
<wgt id='15042'>0.72064E+03</wgt>
<wgt id='15043'>0.71867E+03</wgt>
<wgt id='15044'>0.72057E+03</wgt>
<wgt id='15045'>0.72023E+03</wgt>
<wgt id='15046'>0.71908E+03</wgt>
<wgt id='15047'>0.72074E+03</wgt>
<wgt id='15048'>0.72088E+03</wgt>
<wgt id='15049'>0.71965E+03</wgt>
<wgt id='15050'>0.72003E+03</wgt>
<wgt id='15051'>0.72098E+03</wgt>
<wgt id='15052'>0.72128E+03</wgt>
<wgt id='15053'>0.72038E+03</wgt>
<wgt id='15054'>0.71938E+03</wgt>
<wgt id='15055'>0.71936E+03</wgt>
<wgt id='15056'>0.72040E+03</wgt>
<wgt id='15057'>0.71984E+03</wgt>
<wgt id='15058'>0.71950E+03</wgt>
<wgt id='15059'>0.71976E+03</wgt>
<wgt id='15060'>0.72000E+03</wgt>
<wgt id='15061'>0.71997E+03</wgt>
<wgt id='15062'>0.72043E+03</wgt>
<wgt id='15063'>0.72037E+03</wgt>
<wgt id='15064'>0.72097E+03</wgt>
<wgt id='15065'>0.71983E+03</wgt>
<wgt id='15066'>0.71972E+03</wgt>
<wgt id='15067'>0.72028E+03</wgt>
<wgt id='15068'>0.72037E+03</wgt>
<wgt id='15069'>0.72110E+03</wgt>
<wgt id='15070'>0.72018E+03</wgt>
<wgt id='15071'>0.72058E+03</wgt>
<wgt id='15072'>0.72065E+03</wgt>
<wgt id='15073'>0.72006E+03</wgt>
<wgt id='15074'>0.72038E+03</wgt>
<wgt id='15075'>0.71985E+03</wgt>
<wgt id='15076'>0.72030E+03</wgt>
<wgt id='15077'>0.72050E+03</wgt>
<wgt id='15078'>0.72056E+03</wgt>
<wgt id='15079'>0.71982E+03</wgt>
<wgt id='15080'>0.72092E+03</wgt>
<wgt id='15081'>0.72033E+03</wgt>
<wgt id='15082'>0.72030E+03</wgt>
<wgt id='15083'>0.72006E+03</wgt>
<wgt id='15084'>0.71966E+03</wgt>
<wgt id='15085'>0.71968E+03</wgt>
<wgt id='15086'>0.72051E+03</wgt>
<wgt id='15087'>0.71917E+03</wgt>
<wgt id='15088'>0.71977E+03</wgt>
<wgt id='15089'>0.71987E+03</wgt>
<wgt id='15090'>0.72041E+03</wgt>
<wgt id='15091'>0.72002E+03</wgt>
<wgt id='15092'>0.72007E+03</wgt>
<wgt id='15093'>0.72002E+03</wgt>
<wgt id='15094'>0.72001E+03</wgt>
<wgt id='15095'>0.72031E+03</wgt>
<wgt id='15096'>0.71996E+03</wgt>
<wgt id='15097'>0.72033E+03</wgt>
<wgt id='15098'>0.72016E+03</wgt>
<wgt id='15099'>0.71995E+03</wgt>
<wgt id='15100'>0.72023E+03</wgt>
<wgt id='15101'>0.72022E+03</wgt>
<wgt id='15102'>0.72017E+03</wgt>
<wgt id='15103'>0.72023E+03</wgt>
<wgt id='15104'>0.72024E+03</wgt>
<wgt id='15105'>0.72025E+03</wgt>
<wgt id='15106'>0.72023E+03</wgt>
<wgt id='15107'>0.72019E+03</wgt>
<wgt id='1500'>0.75420E+03</wgt>
<wgt id='1501'>0.72160E+03</wgt>
<wgt id='1502'>0.77262E+03</wgt>
<wgt id='1503'>0.73842E+03</wgt>
<wgt id='1504'>0.71702E+03</wgt>
<wgt id='1505'>0.72376E+03</wgt>
<wgt id='1506'>0.75473E+03</wgt>
<wgt id='1507'>0.76046E+03</wgt>
<wgt id='1508'>0.76919E+03</wgt>
<wgt id='1509'>0.73215E+03</wgt>
<wgt id='1510'>0.76186E+03</wgt>
<wgt id='1511'>0.78440E+03</wgt>
<wgt id='1512'>0.75958E+03</wgt>
<wgt id='1513'>0.79247E+03</wgt>
<wgt id='1514'>0.80255E+03</wgt>
<wgt id='1515'>0.78594E+03</wgt>
<wgt id='1516'>0.75798E+03</wgt>
<wgt id='1517'>0.80011E+03</wgt>
<wgt id='1518'>0.76657E+03</wgt>
<wgt id='1519'>0.73911E+03</wgt>
<wgt id='1520'>0.72937E+03</wgt>
<wgt id='1521'>0.74877E+03</wgt>
<wgt id='1522'>0.73944E+03</wgt>
<wgt id='1523'>0.75300E+03</wgt>
<wgt id='1524'>0.69872E+03</wgt>
<wgt id='1525'>0.75717E+03</wgt>
<wgt id='1526'>0.71404E+03</wgt>
<wgt id='1527'>0.81210E+03</wgt>
<wgt id='1528'>0.77097E+03</wgt>
<wgt id='1529'>0.75268E+03</wgt>
<wgt id='1530'>0.72510E+03</wgt>
<wgt id='1531'>0.73555E+03</wgt>
<wgt id='1532'>0.75631E+03</wgt>
<wgt id='1533'>0.75240E+03</wgt>
<wgt id='1534'>0.70085E+03</wgt>
<wgt id='1535'>0.79858E+03</wgt>
<wgt id='1536'>0.75770E+03</wgt>
<wgt id='1537'>0.78992E+03</wgt>
<wgt id='1538'>0.75847E+03</wgt>
<wgt id='1539'>0.73302E+03</wgt>
<wgt id='1540'>0.73939E+03</wgt>
<wgt id='1541'>0.73942E+03</wgt>
<wgt id='1542'>0.74066E+03</wgt>
<wgt id='1543'>0.71784E+03</wgt>
<wgt id='1544'>0.72006E+03</wgt>
<wgt id='1545'>0.75577E+03</wgt>
<wgt id='1546'>0.72143E+03</wgt>
<wgt id='1547'>0.76286E+03</wgt>
<wgt id='1548'>0.75545E+03</wgt>
<wgt id='1549'>0.78228E+03</wgt>
<wgt id='1550'>0.76060E+03</wgt>
<wgt id='1551'>0.73867E+03</wgt>
<wgt id='1552'>0.75067E+03</wgt>
<wgt id='1553'>0.68936E+03</wgt>
<wgt id='1554'>0.76849E+03</wgt>
<wgt id='1555'>0.75240E+03</wgt>
<wgt id='1556'>0.77465E+03</wgt>
<wgt id='1557'>0.76993E+03</wgt>
<wgt id='1558'>0.75980E+03</wgt>
<wgt id='1559'>0.75247E+03</wgt>
<wgt id='1560'>0.74986E+03</wgt>
<wgt id='1561'>0.76450E+03</wgt>
<wgt id='1562'>0.73699E+03</wgt>
<wgt id='1563'>0.74280E+03</wgt>
<wgt id='1564'>0.79071E+03</wgt>
<wgt id='1565'>0.73070E+03</wgt>
<wgt id='1566'>0.74876E+03</wgt>
<wgt id='1567'>0.76102E+03</wgt>
<wgt id='1568'>0.76050E+03</wgt>
<wgt id='1569'>0.76372E+03</wgt>
<wgt id='1570'>0.76787E+03</wgt>
<wgt id='1571'>0.73436E+03</wgt>
<wgt id='1572'>0.74374E+03</wgt>
<wgt id='1573'>0.76621E+03</wgt>
<wgt id='1574'>0.72874E+03</wgt>
<wgt id='1575'>0.76770E+03</wgt>
<wgt id='1576'>0.71280E+03</wgt>
<wgt id='1577'>0.74292E+03</wgt>
<wgt id='1578'>0.77667E+03</wgt>
<wgt id='1579'>0.75306E+03</wgt>
<wgt id='1580'>0.76240E+03</wgt>
<wgt id='1581'>0.74827E+03</wgt>
<wgt id='1582'>0.75721E+03</wgt>
<wgt id='1583'>0.72851E+03</wgt>
<wgt id='1584'>0.76688E+03</wgt>
<wgt id='1585'>0.76166E+03</wgt>
<wgt id='1586'>0.76891E+03</wgt>
<wgt id='1587'>0.77288E+03</wgt>
<wgt id='1588'>0.77134E+03</wgt>
<wgt id='1589'>0.76210E+03</wgt>
<wgt id='1590'>0.74864E+03</wgt>
<wgt id='1591'>0.74820E+03</wgt>
<wgt id='1592'>0.73861E+03</wgt>
<wgt id='1593'>0.77317E+03</wgt>
<wgt id='1594'>0.74566E+03</wgt>
<wgt id='1595'>0.81770E+03</wgt>
<wgt id='1596'>0.74354E+03</wgt>
<wgt id='1597'>0.74946E+03</wgt>
<wgt id='1598'>0.74753E+03</wgt>
<wgt id='1599'>0.77869E+03</wgt>
<wgt id='1600'>0.80014E+03</wgt>
<wgt id='1601'>0.73996E+03</wgt>
<wgt id='1602'>0.76428E+03</wgt>
<wgt id='1700'>0.70966E+03</wgt>
<wgt id='1800'>0.77350E+03</wgt>
<wgt id='1850'>0.90238E+03</wgt>
<wgt id='1900'>0.82730E+03</wgt>
<wgt id='1950'>0.87874E+03</wgt>
</rwgt>
</event>
<event>
     13 322222  6.87070E+02  1.00823E+01 -1.00000E+00  1.91322E-01
      21    -1     0     0   502   503  0.000000000E+00  0.000000000E+00  2.239625700E+02  2.239625700E+02  0.000000000E+00  0.00000E+00  9.000E+00
      21    -1     0     0   503   504  0.000000000E+00  0.000000000E+00 -1.860949580E+02  1.860949580E+02  0.000000000E+00  0.00000E+00  9.000E+00
       6     2     1     2   502     0 -8.342767892E+01 -2.298948260E+01 -8.194738326E+00  1.951807093E+02  1.747560059E+02  0.00000E+00  9.000E+00
      -6     2     1     2     0   505  8.043643915E+01  1.336117536E+01  5.193811114E+01  2.032073552E+02  1.787375731E+02  0.00000E+00  9.000E+00
      21     1     1     2   505   504  2.991239770E+00  9.628307241E+00 -5.875760751E+00  1.166946357E+01  1.884864366E-07  0.00000E+00  9.000E+00
      24     2     3     3     0     0  2.224825260E+01 -2.619842922E+01  5.034196063E+00  8.852357379E+01  8.142320031E+01  0.00000E+00  9.000E+00
       5     1     3     3   502     0 -1.056759315E+02  3.208946619E+00 -1.322893439E+01  1.066571355E+02  4.800000000E+00  0.00000E+00 -1.000E+00
     -24     2     4     4     0     0  8.326946034E+01  4.740248558E+01  8.824115461E+01  1.531295380E+02  8.050686534E+01  0.00000E+00  9.000E+00
      -5     1     4     4     0   505 -2.833021195E+00 -3.404131022E+01 -3.630304346E+01  5.007781720E+01  4.800000000E+00  0.00000E+00  1.000E+00
      -3     1     6     6     0   506  3.188648049E+01  1.529837037E+01  2.308183706E+01  4.223267664E+01  2.000000000E-01  0.00000E+00  1.000E+00
       4     1     6     6   506     0 -9.638227889E+00 -4.149679959E+01 -1.804764100E+01  4.629089715E+01  1.500000000E+00  0.00000E+00 -1.000E+00
       1     1     8     8   507     0 -8.100183146E+00  1.365403092E+01 -6.587716010E+00  1.718876173E+01  1.000000000E-01  0.00000E+00 -1.000E+00
      -2     1     8     8     0   507  9.136964349E+01  3.374845465E+01  9.482887062E+01  1.359407762E+02  1.000000000E-01  0.00000E+00  1.000E+00
#rwgt            1           1   630.54174845664886                1        1972           0
<rwgt>
<wgt id='1001'>0.68707E+03</wgt>
<wgt id='1002'>0.81667E+03</wgt>
<wgt id='1003'>0.55013E+03</wgt>
<wgt id='1004'>0.59740E+03</wgt>
<wgt id='1005'>0.69384E+03</wgt>
<wgt id='1006'>0.49512E+03</wgt>
<wgt id='1007'>0.79724E+03</wgt>
<wgt id='1008'>0.97602E+03</wgt>
<wgt id='1009'>0.60902E+03</wgt>
<wgt id='2000'>0.68707E+03</wgt>
<wgt id='2001'>0.68620E+03</wgt>
<wgt id='2002'>0.68847E+03</wgt>
<wgt id='2003'>0.68855E+03</wgt>
<wgt id='2004'>0.68838E+03</wgt>
<wgt id='2005'>0.68563E+03</wgt>
<wgt id='2006'>0.68475E+03</wgt>
<wgt id='2007'>0.68313E+03</wgt>
<wgt id='2008'>0.68321E+03</wgt>
<wgt id='2009'>0.68882E+03</wgt>
<wgt id='2010'>0.68754E+03</wgt>
<wgt id='2011'>0.68655E+03</wgt>
<wgt id='2012'>0.68899E+03</wgt>
<wgt id='2013'>0.68980E+03</wgt>
<wgt id='2014'>0.69107E+03</wgt>
<wgt id='2015'>0.68945E+03</wgt>
<wgt id='2016'>0.68727E+03</wgt>
<wgt id='2017'>0.68699E+03</wgt>
<wgt id='2018'>0.69030E+03</wgt>
<wgt id='2019'>0.68683E+03</wgt>
<wgt id='2020'>0.69187E+03</wgt>
<wgt id='2021'>0.68459E+03</wgt>
<wgt id='2022'>0.69055E+03</wgt>
<wgt id='2023'>0.68922E+03</wgt>
<wgt id='2024'>0.68726E+03</wgt>
<wgt id='2025'>0.69056E+03</wgt>
<wgt id='2026'>0.68928E+03</wgt>
<wgt id='2027'>0.68603E+03</wgt>
<wgt id='2028'>0.68568E+03</wgt>
<wgt id='2029'>0.68791E+03</wgt>
<wgt id='2030'>0.68763E+03</wgt>
<wgt id='2031'>0.68770E+03</wgt>
<wgt id='2032'>0.68718E+03</wgt>
<wgt id='2033'>0.68734E+03</wgt>
<wgt id='2034'>0.68718E+03</wgt>
<wgt id='2035'>0.68696E+03</wgt>
<wgt id='2036'>0.68694E+03</wgt>
<wgt id='2037'>0.68718E+03</wgt>
<wgt id='2038'>0.68728E+03</wgt>
<wgt id='2039'>0.68719E+03</wgt>
<wgt id='2040'>0.68684E+03</wgt>
<wgt id='2041'>0.68657E+03</wgt>
<wgt id='2042'>0.68618E+03</wgt>
<wgt id='2043'>0.68755E+03</wgt>
<wgt id='2044'>0.68749E+03</wgt>
<wgt id='2045'>0.68702E+03</wgt>
<wgt id='2046'>0.68767E+03</wgt>
<wgt id='2047'>0.68742E+03</wgt>
<wgt id='2048'>0.68702E+03</wgt>
<wgt id='2049'>0.68704E+03</wgt>
<wgt id='2050'>0.68759E+03</wgt>
<wgt id='2051'>0.68712E+03</wgt>
<wgt id='2052'>0.68658E+03</wgt>
<wgt id='2053'>0.68694E+03</wgt>
<wgt id='2054'>0.68724E+03</wgt>
<wgt id='2055'>0.68715E+03</wgt>
<wgt id='2056'>0.68711E+03</wgt>
<wgt id='2057'>0.68683E+03</wgt>
<wgt id='2058'>0.68713E+03</wgt>
<wgt id='2059'>0.68694E+03</wgt>
<wgt id='2060'>0.68707E+03</wgt>
<wgt id='2061'>0.68709E+03</wgt>
<wgt id='2062'>0.68733E+03</wgt>
<wgt id='2063'>0.68686E+03</wgt>
<wgt id='2064'>0.68709E+03</wgt>
<wgt id='2065'>0.68733E+03</wgt>
<wgt id='2066'>0.68716E+03</wgt>
<wgt id='2067'>0.68704E+03</wgt>
<wgt id='2068'>0.68719E+03</wgt>
<wgt id='2069'>0.68695E+03</wgt>
<wgt id='2070'>0.68681E+03</wgt>
<wgt id='2071'>0.68671E+03</wgt>
<wgt id='2072'>0.68706E+03</wgt>
<wgt id='2073'>0.68707E+03</wgt>
<wgt id='2074'>0.68662E+03</wgt>
<wgt id='2075'>0.68715E+03</wgt>
<wgt id='2076'>0.68691E+03</wgt>
<wgt id='2077'>0.68698E+03</wgt>
<wgt id='2078'>0.68713E+03</wgt>
<wgt id='2079'>0.68714E+03</wgt>
<wgt id='2080'>0.68709E+03</wgt>
<wgt id='2081'>0.68712E+03</wgt>
<wgt id='2082'>0.68714E+03</wgt>
<wgt id='2083'>0.68714E+03</wgt>
<wgt id='2084'>0.68711E+03</wgt>
<wgt id='2085'>0.68704E+03</wgt>
<wgt id='2086'>0.68708E+03</wgt>
<wgt id='2087'>0.68706E+03</wgt>
<wgt id='2088'>0.68712E+03</wgt>
<wgt id='2089'>0.68705E+03</wgt>
<wgt id='2090'>0.68710E+03</wgt>
<wgt id='2091'>0.68711E+03</wgt>
<wgt id='2092'>0.68716E+03</wgt>
<wgt id='2093'>0.68704E+03</wgt>
<wgt id='2094'>0.68717E+03</wgt>
<wgt id='2095'>0.68710E+03</wgt>
<wgt id='2096'>0.68700E+03</wgt>
<wgt id='2097'>0.68715E+03</wgt>
<wgt id='2098'>0.68700E+03</wgt>
<wgt id='2099'>0.68709E+03</wgt>
<wgt id='2100'>0.68707E+03</wgt>
<wgt id='2101'>0.66821E+03</wgt>
<wgt id='2102'>0.70327E+03</wgt>
<wgt id='2104'>0.60646E+03</wgt>
<wgt id='2105'>0.62125E+03</wgt>
<wgt id='2106'>0.64004E+03</wgt>
<wgt id='2107'>0.65801E+03</wgt>
<wgt id='2108'>0.68041E+03</wgt>
<wgt id='2109'>0.69736E+03</wgt>
<wgt id='2110'>0.71621E+03</wgt>
<wgt id='2111'>0.73265E+03</wgt>
<wgt id='3000'>0.71633E+03</wgt>
<wgt id='3001'>0.71795E+03</wgt>
<wgt id='3002'>0.71528E+03</wgt>
<wgt id='3003'>0.71804E+03</wgt>
<wgt id='3004'>0.71790E+03</wgt>
<wgt id='3005'>0.71961E+03</wgt>
<wgt id='3006'>0.71662E+03</wgt>
<wgt id='3007'>0.71945E+03</wgt>
<wgt id='3008'>0.71513E+03</wgt>
<wgt id='3009'>0.71890E+03</wgt>
<wgt id='3010'>0.71411E+03</wgt>
<wgt id='3011'>0.71558E+03</wgt>
<wgt id='3012'>0.71980E+03</wgt>
<wgt id='3013'>0.71407E+03</wgt>
<wgt id='3014'>0.71938E+03</wgt>
<wgt id='3015'>0.71587E+03</wgt>
<wgt id='3016'>0.71712E+03</wgt>
<wgt id='3017'>0.71955E+03</wgt>
<wgt id='3018'>0.71895E+03</wgt>
<wgt id='3019'>0.71189E+03</wgt>
<wgt id='3020'>0.71295E+03</wgt>
<wgt id='3021'>0.71193E+03</wgt>
<wgt id='3022'>0.71598E+03</wgt>
<wgt id='3023'>0.71389E+03</wgt>
<wgt id='3024'>0.71339E+03</wgt>
<wgt id='3025'>0.71619E+03</wgt>
<wgt id='3026'>0.71820E+03</wgt>
<wgt id='3027'>0.71658E+03</wgt>
<wgt id='3028'>0.71346E+03</wgt>
<wgt id='3029'>0.71605E+03</wgt>
<wgt id='3030'>0.71733E+03</wgt>
<wgt id='3031'>0.71665E+03</wgt>
<wgt id='3032'>0.71683E+03</wgt>
<wgt id='3033'>0.71662E+03</wgt>
<wgt id='3034'>0.71679E+03</wgt>
<wgt id='3035'>0.71663E+03</wgt>
<wgt id='3036'>0.71652E+03</wgt>
<wgt id='3037'>0.71638E+03</wgt>
<wgt id='3038'>0.71627E+03</wgt>
<wgt id='3039'>0.71696E+03</wgt>
<wgt id='3040'>0.71632E+03</wgt>
<wgt id='3041'>0.71605E+03</wgt>
<wgt id='3042'>0.71558E+03</wgt>
<wgt id='3043'>0.71554E+03</wgt>
<wgt id='3044'>0.71690E+03</wgt>
<wgt id='3045'>0.71687E+03</wgt>
<wgt id='3046'>0.71653E+03</wgt>
<wgt id='3047'>0.71607E+03</wgt>
<wgt id='3048'>0.71668E+03</wgt>
<wgt id='3049'>0.71604E+03</wgt>
<wgt id='3050'>0.71614E+03</wgt>
<wgt id='3051'>0.71712E+03</wgt>
<wgt id='3052'>0.71624E+03</wgt>
<wgt id='3053'>0.71628E+03</wgt>
<wgt id='3054'>0.71621E+03</wgt>
<wgt id='3055'>0.71671E+03</wgt>
<wgt id='3056'>0.71652E+03</wgt>
<wgt id='3057'>0.71630E+03</wgt>
<wgt id='3058'>0.71615E+03</wgt>
<wgt id='3059'>0.71646E+03</wgt>
<wgt id='3060'>0.71646E+03</wgt>
<wgt id='3061'>0.71683E+03</wgt>
<wgt id='3062'>0.71641E+03</wgt>
<wgt id='3063'>0.71631E+03</wgt>
<wgt id='3064'>0.71634E+03</wgt>
<wgt id='3065'>0.71638E+03</wgt>
<wgt id='3066'>0.71647E+03</wgt>
<wgt id='3067'>0.71599E+03</wgt>
<wgt id='3068'>0.71633E+03</wgt>
<wgt id='3069'>0.71604E+03</wgt>
<wgt id='3070'>0.71596E+03</wgt>
<wgt id='3071'>0.71630E+03</wgt>
<wgt id='3072'>0.71655E+03</wgt>
<wgt id='3073'>0.71640E+03</wgt>
<wgt id='3074'>0.71644E+03</wgt>
<wgt id='3075'>0.71646E+03</wgt>
<wgt id='3076'>0.71637E+03</wgt>
<wgt id='3077'>0.71628E+03</wgt>
<wgt id='3078'>0.71653E+03</wgt>
<wgt id='3079'>0.71627E+03</wgt>
<wgt id='3080'>0.71623E+03</wgt>
<wgt id='3081'>0.71631E+03</wgt>
<wgt id='3082'>0.71627E+03</wgt>
<wgt id='3083'>0.71623E+03</wgt>
<wgt id='3084'>0.71619E+03</wgt>
<wgt id='3085'>0.71635E+03</wgt>
<wgt id='3086'>0.71626E+03</wgt>
<wgt id='3087'>0.71624E+03</wgt>
<wgt id='3088'>0.71627E+03</wgt>
<wgt id='3089'>0.71633E+03</wgt>
<wgt id='3090'>0.71634E+03</wgt>
<wgt id='3091'>0.71637E+03</wgt>
<wgt id='3092'>0.71631E+03</wgt>
<wgt id='3093'>0.71630E+03</wgt>
<wgt id='3094'>0.71642E+03</wgt>
<wgt id='3095'>0.71637E+03</wgt>
<wgt id='3096'>0.71636E+03</wgt>
<wgt id='3097'>0.71625E+03</wgt>
<wgt id='3098'>0.71636E+03</wgt>
<wgt id='3099'>0.71641E+03</wgt>
<wgt id='3100'>0.71637E+03</wgt>
<wgt id='3101'>0.69890E+03</wgt>
<wgt id='3102'>0.73544E+03</wgt>
<wgt id='5000'>0.67033E+03</wgt>
<wgt id='5001'>0.66953E+03</wgt>
<wgt id='5002'>0.67146E+03</wgt>
<wgt id='5003'>0.66739E+03</wgt>
<wgt id='5004'>0.66989E+03</wgt>
<wgt id='5005'>0.65074E+03</wgt>
<wgt id='5006'>0.66862E+03</wgt>
<wgt id='5007'>0.66889E+03</wgt>
<wgt id='5008'>0.66502E+03</wgt>
<wgt id='5009'>0.67450E+03</wgt>
<wgt id='5010'>0.66626E+03</wgt>
<wgt id='5011'>0.66999E+03</wgt>
<wgt id='5012'>0.67129E+03</wgt>
<wgt id='5013'>0.66356E+03</wgt>
<wgt id='5014'>0.67961E+03</wgt>
<wgt id='5015'>0.67398E+03</wgt>
<wgt id='5016'>0.65994E+03</wgt>
<wgt id='5017'>0.66308E+03</wgt>
<wgt id='5018'>0.67787E+03</wgt>
<wgt id='5019'>0.67870E+03</wgt>
<wgt id='5020'>0.66237E+03</wgt>
<wgt id='5021'>0.67134E+03</wgt>
<wgt id='5022'>0.66968E+03</wgt>
<wgt id='5023'>0.66836E+03</wgt>
<wgt id='5024'>0.67237E+03</wgt>
<wgt id='5025'>0.67269E+03</wgt>
<wgt id='5026'>0.66836E+03</wgt>
<wgt id='5027'>0.67569E+03</wgt>
<wgt id='5028'>0.66132E+03</wgt>
<wgt id='5029'>0.65980E+03</wgt>
<wgt id='5030'>0.67684E+03</wgt>
<wgt id='5031'>0.66347E+03</wgt>
<wgt id='5032'>0.68048E+03</wgt>
<wgt id='5033'>0.66841E+03</wgt>
<wgt id='5034'>0.67177E+03</wgt>
<wgt id='5035'>0.67149E+03</wgt>
<wgt id='5036'>0.66854E+03</wgt>
<wgt id='5037'>0.65782E+03</wgt>
<wgt id='5038'>0.68397E+03</wgt>
<wgt id='5039'>0.68635E+03</wgt>
<wgt id='5040'>0.66162E+03</wgt>
<wgt id='5041'>0.66705E+03</wgt>
<wgt id='5042'>0.67005E+03</wgt>
<wgt id='5043'>0.67541E+03</wgt>
<wgt id='5044'>0.65969E+03</wgt>
<wgt id='5045'>0.69801E+03</wgt>
<wgt id='5046'>0.64937E+03</wgt>
<wgt id='5047'>0.68352E+03</wgt>
<wgt id='5048'>0.66109E+03</wgt>
<wgt id='5049'>0.67186E+03</wgt>
<wgt id='5050'>0.66908E+03</wgt>
<wgt id='5051'>0.67072E+03</wgt>
<wgt id='5052'>0.67026E+03</wgt>
<wgt id='5053'>0.67078E+03</wgt>
<wgt id='5054'>0.68109E+03</wgt>
<wgt id='5055'>0.66518E+03</wgt>
<wgt id='5056'>0.67998E+03</wgt>
<wgt id='5060'>0.65232E+03</wgt>
<wgt id='5070'>0.68683E+03</wgt>
<wgt id='4000'>0.68504E+03</wgt>
<wgt id='4001'>0.68518E+03</wgt>
<wgt id='4002'>0.68582E+03</wgt>
<wgt id='4003'>0.69345E+03</wgt>
<wgt id='4004'>0.67212E+03</wgt>
<wgt id='4005'>0.68327E+03</wgt>
<wgt id='4006'>0.68652E+03</wgt>
<wgt id='4007'>0.69686E+03</wgt>
<wgt id='4008'>0.67306E+03</wgt>
<wgt id='4009'>0.67768E+03</wgt>
<wgt id='4010'>0.68698E+03</wgt>
<wgt id='4011'>0.70250E+03</wgt>
<wgt id='4012'>0.67332E+03</wgt>
<wgt id='4013'>0.67105E+03</wgt>
<wgt id='4014'>0.69348E+03</wgt>
<wgt id='4015'>0.69785E+03</wgt>
<wgt id='4016'>0.67613E+03</wgt>
<wgt id='4017'>0.67379E+03</wgt>
<wgt id='4018'>0.69831E+03</wgt>
<wgt id='4019'>0.69579E+03</wgt>
<wgt id='4020'>0.67370E+03</wgt>
<wgt id='4021'>0.68849E+03</wgt>
<wgt id='4022'>0.67832E+03</wgt>
<wgt id='4023'>0.68085E+03</wgt>
<wgt id='4024'>0.68920E+03</wgt>
<wgt id='4025'>0.68981E+03</wgt>
<wgt id='4026'>0.68003E+03</wgt>
<wgt id='4027'>0.68413E+03</wgt>
<wgt id='4028'>0.68636E+03</wgt>
<wgt id='4029'>0.68107E+03</wgt>
<wgt id='4030'>0.68645E+03</wgt>
<wgt id='4031'>0.68764E+03</wgt>
<wgt id='4032'>0.68166E+03</wgt>
<wgt id='4033'>0.68036E+03</wgt>
<wgt id='4034'>0.69520E+03</wgt>
<wgt id='4035'>0.68565E+03</wgt>
<wgt id='4036'>0.68459E+03</wgt>
<wgt id='4037'>0.68907E+03</wgt>
<wgt id='4038'>0.67909E+03</wgt>
<wgt id='4039'>0.68635E+03</wgt>
<wgt id='4040'>0.68444E+03</wgt>
<wgt id='4041'>0.68776E+03</wgt>
<wgt id='4042'>0.68302E+03</wgt>
<wgt id='4043'>0.69258E+03</wgt>
<wgt id='4044'>0.68288E+03</wgt>
<wgt id='4045'>0.67525E+03</wgt>
<wgt id='4046'>0.68644E+03</wgt>
<wgt id='4047'>0.67789E+03</wgt>
<wgt id='4048'>0.68038E+03</wgt>
<wgt id='4049'>0.67761E+03</wgt>
<wgt id='4050'>0.67357E+03</wgt>
<wgt id='4051'>0.68561E+03</wgt>
<wgt id='4052'>0.68502E+03</wgt>
<wgt id='4053'>0.67050E+03</wgt>
<wgt id='4054'>0.69488E+03</wgt>
<wgt id='4055'>0.67773E+03</wgt>
<wgt id='4056'>0.69592E+03</wgt>
<wgt id='4060'>0.66653E+03</wgt>
<wgt id='4070'>0.70286E+03</wgt>
<wgt id='4080'>0.60077E+03</wgt>
<wgt id='6000'>0.70446E+03</wgt>
<wgt id='6001'>0.70471E+03</wgt>
<wgt id='6002'>0.70418E+03</wgt>
<wgt id='6003'>0.70518E+03</wgt>
<wgt id='6004'>0.70396E+03</wgt>
<wgt id='6005'>0.70818E+03</wgt>
<wgt id='6006'>0.70096E+03</wgt>
<wgt id='6007'>0.70133E+03</wgt>
<wgt id='6008'>0.70796E+03</wgt>
<wgt id='6009'>0.70546E+03</wgt>
<wgt id='6010'>0.70343E+03</wgt>
<wgt id='6011'>0.70535E+03</wgt>
<wgt id='6012'>0.70239E+03</wgt>
<wgt id='6013'>0.70405E+03</wgt>
<wgt id='6014'>0.70513E+03</wgt>
<wgt id='6015'>0.70281E+03</wgt>
<wgt id='6016'>0.70535E+03</wgt>
<wgt id='6017'>0.70133E+03</wgt>
<wgt id='6018'>0.70811E+03</wgt>
<wgt id='6019'>0.70533E+03</wgt>
<wgt id='6020'>0.70366E+03</wgt>
<wgt id='6021'>0.70294E+03</wgt>
<wgt id='6022'>0.70643E+03</wgt>
<wgt id='6023'>0.70011E+03</wgt>
<wgt id='6024'>0.70740E+03</wgt>
<wgt id='6025'>0.69901E+03</wgt>
<wgt id='6026'>0.71001E+03</wgt>
<wgt id='6027'>0.70534E+03</wgt>
<wgt id='6028'>0.70423E+03</wgt>
<wgt id='6029'>0.70551E+03</wgt>
<wgt id='6030'>0.70328E+03</wgt>
<wgt id='6031'>0.70055E+03</wgt>
<wgt id='6032'>0.70869E+03</wgt>
<wgt id='6033'>0.70691E+03</wgt>
<wgt id='6034'>0.70199E+03</wgt>
<wgt id='6035'>0.70478E+03</wgt>
<wgt id='6036'>0.70395E+03</wgt>
<wgt id='6037'>0.70527E+03</wgt>
<wgt id='6038'>0.70421E+03</wgt>
<wgt id='6039'>0.70329E+03</wgt>
<wgt id='6040'>0.70575E+03</wgt>
<wgt id='6041'>0.70030E+03</wgt>
<wgt id='6042'>0.70914E+03</wgt>
<wgt id='6043'>0.71127E+03</wgt>
<wgt id='6044'>0.70059E+03</wgt>
<wgt id='6045'>0.70375E+03</wgt>
<wgt id='6046'>0.70617E+03</wgt>
<wgt id='6047'>0.71052E+03</wgt>
<wgt id='6048'>0.69125E+03</wgt>
<wgt id='6049'>0.70742E+03</wgt>
<wgt id='6050'>0.70258E+03</wgt>
<wgt id='7000'>0.67206E+03</wgt>
<wgt id='7001'>0.67163E+03</wgt>
<wgt id='7002'>0.67258E+03</wgt>
<wgt id='7003'>0.67427E+03</wgt>
<wgt id='7004'>0.66984E+03</wgt>
<wgt id='7005'>0.67410E+03</wgt>
<wgt id='7006'>0.67124E+03</wgt>
<wgt id='7007'>0.67066E+03</wgt>
<wgt id='7008'>0.67345E+03</wgt>
<wgt id='7009'>0.67271E+03</wgt>
<wgt id='7010'>0.67145E+03</wgt>
<wgt id='7011'>0.66881E+03</wgt>
<wgt id='7012'>0.67345E+03</wgt>
<wgt id='7013'>0.67204E+03</wgt>
<wgt id='7014'>0.67208E+03</wgt>
<wgt id='7015'>0.67135E+03</wgt>
<wgt id='7016'>0.67279E+03</wgt>
<wgt id='7017'>0.67326E+03</wgt>
<wgt id='7018'>0.67137E+03</wgt>
<wgt id='7019'>0.67182E+03</wgt>
<wgt id='7020'>0.67233E+03</wgt>
<wgt id='7021'>0.67083E+03</wgt>
<wgt id='7022'>0.67289E+03</wgt>
<wgt id='7023'>0.68061E+03</wgt>
<wgt id='7024'>0.66402E+03</wgt>
<wgt id='7025'>0.67488E+03</wgt>
<wgt id='7026'>0.66509E+03</wgt>
<wgt id='7027'>0.67368E+03</wgt>
<wgt id='7028'>0.67057E+03</wgt>
<wgt id='7029'>0.67126E+03</wgt>
<wgt id='7030'>0.67466E+03</wgt>
<wgt id='7031'>0.67028E+03</wgt>
<wgt id='7032'>0.67575E+03</wgt>
<wgt id='7033'>0.67204E+03</wgt>
<wgt id='7034'>0.67209E+03</wgt>
<wgt id='7035'>0.67073E+03</wgt>
<wgt id='7036'>0.67262E+03</wgt>
<wgt id='7037'>0.67205E+03</wgt>
<wgt id='7038'>0.67184E+03</wgt>
<wgt id='7039'>0.67054E+03</wgt>
<wgt id='7040'>0.67321E+03</wgt>
<wgt id='7041'>0.67156E+03</wgt>
<wgt id='7042'>0.67183E+03</wgt>
<wgt id='7043'>0.67271E+03</wgt>
<wgt id='7044'>0.66813E+03</wgt>
<wgt id='7045'>0.66249E+03</wgt>
<wgt id='7046'>0.67700E+03</wgt>
<wgt id='7047'>0.67496E+03</wgt>
<wgt id='7048'>0.67054E+03</wgt>
<wgt id='7049'>0.66807E+03</wgt>
<wgt id='7050'>0.67310E+03</wgt>
<wgt id='7060'>0.85733E+03</wgt>
<wgt id='8000'>0.67100E+03</wgt>
<wgt id='8001'>0.67090E+03</wgt>
<wgt id='8002'>0.67122E+03</wgt>
<wgt id='8003'>0.67104E+03</wgt>
<wgt id='8004'>0.67099E+03</wgt>
<wgt id='8005'>0.66957E+03</wgt>
<wgt id='8006'>0.67136E+03</wgt>
<wgt id='8007'>0.67171E+03</wgt>
<wgt id='8008'>0.67251E+03</wgt>
<wgt id='8009'>0.67389E+03</wgt>
<wgt id='8010'>0.67046E+03</wgt>
<wgt id='8011'>0.67096E+03</wgt>
<wgt id='8012'>0.66888E+03</wgt>
<wgt id='8013'>0.67002E+03</wgt>
<wgt id='8014'>0.67204E+03</wgt>
<wgt id='8015'>0.67060E+03</wgt>
<wgt id='8016'>0.67145E+03</wgt>
<wgt id='8017'>0.67123E+03</wgt>
<wgt id='8018'>0.67200E+03</wgt>
<wgt id='8019'>0.67217E+03</wgt>
<wgt id='8020'>0.66930E+03</wgt>
<wgt id='8021'>0.67081E+03</wgt>
<wgt id='8022'>0.66785E+03</wgt>
<wgt id='8023'>0.67122E+03</wgt>
<wgt id='8024'>0.67075E+03</wgt>
<wgt id='8025'>0.67239E+03</wgt>
<wgt id='8026'>0.67232E+03</wgt>
<wgt id='8027'>0.67069E+03</wgt>
<wgt id='8028'>0.67160E+03</wgt>
<wgt id='8029'>0.66663E+03</wgt>
<wgt id='8500'>0.70362E+03</wgt>
<wgt id='8501'>0.70159E+03</wgt>
<wgt id='8502'>0.71204E+03</wgt>
<wgt id='8503'>0.70767E+03</wgt>
<wgt id='8504'>0.70114E+03</wgt>
<wgt id='8505'>0.69979E+03</wgt>
<wgt id='8506'>0.70648E+03</wgt>
<wgt id='8507'>0.69807E+03</wgt>
<wgt id='8508'>0.70008E+03</wgt>
<wgt id='8509'>0.70480E+03</wgt>
<wgt id='8510'>0.71602E+03</wgt>
<wgt id='8511'>0.70340E+03</wgt>
<wgt id='8512'>0.69558E+03</wgt>
<wgt id='8513'>0.70534E+03</wgt>
<wgt id='8514'>0.69388E+03</wgt>
<wgt id='8515'>0.70612E+03</wgt>
<wgt id='8516'>0.70421E+03</wgt>
<wgt id='8517'>0.70075E+03</wgt>
<wgt id='8518'>0.70133E+03</wgt>
<wgt id='8519'>0.70181E+03</wgt>
<wgt id='8520'>0.70250E+03</wgt>
<wgt id='8521'>0.69998E+03</wgt>
<wgt id='8522'>0.70538E+03</wgt>
<wgt id='8523'>0.70178E+03</wgt>
<wgt id='8524'>0.70334E+03</wgt>
<wgt id='8525'>0.70341E+03</wgt>
<wgt id='8526'>0.70341E+03</wgt>
<wgt id='8527'>0.70379E+03</wgt>
<wgt id='8528'>0.70244E+03</wgt>
<wgt id='8529'>0.70291E+03</wgt>
<wgt id='8530'>0.70341E+03</wgt>
<wgt id='8531'>0.70349E+03</wgt>
<wgt id='8532'>0.70352E+03</wgt>
<wgt id='8533'>0.70265E+03</wgt>
<wgt id='8534'>0.70395E+03</wgt>
<wgt id='8535'>0.70500E+03</wgt>
<wgt id='8536'>0.70317E+03</wgt>
<wgt id='8537'>0.70378E+03</wgt>
<wgt id='8538'>0.70342E+03</wgt>
<wgt id='8539'>0.70393E+03</wgt>
<wgt id='8540'>0.70399E+03</wgt>
<wgt id='8541'>0.70421E+03</wgt>
<wgt id='8542'>0.70421E+03</wgt>
<wgt id='8543'>0.70298E+03</wgt>
<wgt id='8544'>0.70455E+03</wgt>
<wgt id='8545'>0.70403E+03</wgt>
<wgt id='8546'>0.70434E+03</wgt>
<wgt id='8547'>0.70302E+03</wgt>
<wgt id='8548'>0.70314E+03</wgt>
<wgt id='8549'>0.70373E+03</wgt>
<wgt id='8550'>0.70324E+03</wgt>
<wgt id='8551'>0.70301E+03</wgt>
<wgt id='8552'>0.70340E+03</wgt>
<wgt id='8553'>0.70292E+03</wgt>
<wgt id='8554'>0.70317E+03</wgt>
<wgt id='8555'>0.70367E+03</wgt>
<wgt id='8556'>0.70348E+03</wgt>
<wgt id='8557'>0.70365E+03</wgt>
<wgt id='8558'>0.70449E+03</wgt>
<wgt id='8559'>0.70337E+03</wgt>
<wgt id='8560'>0.70275E+03</wgt>
<wgt id='8561'>0.70378E+03</wgt>
<wgt id='8562'>0.70318E+03</wgt>
<wgt id='8563'>0.70362E+03</wgt>
<wgt id='8564'>0.70340E+03</wgt>
<wgt id='8565'>0.70374E+03</wgt>
<wgt id='8566'>0.70376E+03</wgt>
<wgt id='8567'>0.70356E+03</wgt>
<wgt id='8568'>0.70403E+03</wgt>
<wgt id='8569'>0.70389E+03</wgt>
<wgt id='8570'>0.70341E+03</wgt>
<wgt id='8571'>0.70316E+03</wgt>
<wgt id='8572'>0.70333E+03</wgt>
<wgt id='8573'>0.70334E+03</wgt>
<wgt id='8574'>0.70344E+03</wgt>
<wgt id='8575'>0.70350E+03</wgt>
<wgt id='8576'>0.70363E+03</wgt>
<wgt id='8577'>0.70339E+03</wgt>
<wgt id='8578'>0.70356E+03</wgt>
<wgt id='8579'>0.70411E+03</wgt>
<wgt id='8580'>0.70361E+03</wgt>
<wgt id='8581'>0.70390E+03</wgt>
<wgt id='8582'>0.70322E+03</wgt>
<wgt id='8583'>0.70383E+03</wgt>
<wgt id='8584'>0.70397E+03</wgt>
<wgt id='8585'>0.70377E+03</wgt>
<wgt id='8586'>0.70418E+03</wgt>
<wgt id='8587'>0.70364E+03</wgt>
<wgt id='8588'>0.70356E+03</wgt>
<wgt id='8589'>0.70361E+03</wgt>
<wgt id='8590'>0.70363E+03</wgt>
<wgt id='8591'>0.70339E+03</wgt>
<wgt id='8592'>0.70358E+03</wgt>
<wgt id='8593'>0.70343E+03</wgt>
<wgt id='8594'>0.70359E+03</wgt>
<wgt id='8595'>0.70361E+03</wgt>
<wgt id='8596'>0.70354E+03</wgt>
<wgt id='8597'>0.70374E+03</wgt>
<wgt id='8598'>0.70377E+03</wgt>
<wgt id='8599'>0.70368E+03</wgt>
<wgt id='8600'>0.70362E+03</wgt>
<wgt id='8601'>0.69220E+03</wgt>
<wgt id='8602'>0.71373E+03</wgt>
<wgt id='9000'>0.67652E+03</wgt>
<wgt id='9001'>0.67640E+03</wgt>
<wgt id='9002'>0.68029E+03</wgt>
<wgt id='9003'>0.67065E+03</wgt>
<wgt id='9004'>0.67560E+03</wgt>
<wgt id='9005'>0.68130E+03</wgt>
<wgt id='9006'>0.67317E+03</wgt>
<wgt id='9007'>0.67084E+03</wgt>
<wgt id='9008'>0.67490E+03</wgt>
<wgt id='9009'>0.67657E+03</wgt>
<wgt id='9010'>0.67224E+03</wgt>
<wgt id='9011'>0.68535E+03</wgt>
<wgt id='9012'>0.67676E+03</wgt>
<wgt id='9013'>0.66634E+03</wgt>
<wgt id='9014'>0.67190E+03</wgt>
<wgt id='9015'>0.67611E+03</wgt>
<wgt id='9016'>0.68560E+03</wgt>
<wgt id='9017'>0.67488E+03</wgt>
<wgt id='9018'>0.67540E+03</wgt>
<wgt id='9019'>0.67591E+03</wgt>
<wgt id='9020'>0.67989E+03</wgt>
<wgt id='9021'>0.67425E+03</wgt>
<wgt id='9022'>0.67775E+03</wgt>
<wgt id='9023'>0.67405E+03</wgt>
<wgt id='9024'>0.67572E+03</wgt>
<wgt id='9025'>0.67772E+03</wgt>
<wgt id='9026'>0.67657E+03</wgt>
<wgt id='9027'>0.67519E+03</wgt>
<wgt id='9028'>0.67692E+03</wgt>
<wgt id='9029'>0.67746E+03</wgt>
<wgt id='9030'>0.67621E+03</wgt>
<wgt id='9031'>0.67592E+03</wgt>
<wgt id='9032'>0.67729E+03</wgt>
<wgt id='9033'>0.67728E+03</wgt>
<wgt id='9034'>0.67639E+03</wgt>
<wgt id='9035'>0.67724E+03</wgt>
<wgt id='9036'>0.67658E+03</wgt>
<wgt id='9037'>0.67708E+03</wgt>
<wgt id='9038'>0.67684E+03</wgt>
<wgt id='9039'>0.67663E+03</wgt>
<wgt id='9040'>0.67603E+03</wgt>
<wgt id='9041'>0.67649E+03</wgt>
<wgt id='9042'>0.67663E+03</wgt>
<wgt id='9043'>0.67588E+03</wgt>
<wgt id='9044'>0.67679E+03</wgt>
<wgt id='9045'>0.67674E+03</wgt>
<wgt id='9046'>0.67564E+03</wgt>
<wgt id='9047'>0.67650E+03</wgt>
<wgt id='9048'>0.67681E+03</wgt>
<wgt id='9049'>0.67613E+03</wgt>
<wgt id='9050'>0.67665E+03</wgt>
<wgt id='9051'>0.67689E+03</wgt>
<wgt id='9052'>0.67681E+03</wgt>
<wgt id='9053'>0.67651E+03</wgt>
<wgt id='9054'>0.67616E+03</wgt>
<wgt id='9055'>0.67628E+03</wgt>
<wgt id='9056'>0.67715E+03</wgt>
<wgt id='9057'>0.67656E+03</wgt>
<wgt id='9058'>0.67581E+03</wgt>
<wgt id='9059'>0.67613E+03</wgt>
<wgt id='9060'>0.67619E+03</wgt>
<wgt id='9061'>0.67659E+03</wgt>
<wgt id='9062'>0.67663E+03</wgt>
<wgt id='9063'>0.67681E+03</wgt>
<wgt id='9064'>0.67640E+03</wgt>
<wgt id='9065'>0.67644E+03</wgt>
<wgt id='9066'>0.67657E+03</wgt>
<wgt id='9067'>0.67678E+03</wgt>
<wgt id='9068'>0.67674E+03</wgt>
<wgt id='9069'>0.67698E+03</wgt>
<wgt id='9070'>0.67640E+03</wgt>
<wgt id='9071'>0.67697E+03</wgt>
<wgt id='9072'>0.67700E+03</wgt>
<wgt id='9073'>0.67635E+03</wgt>
<wgt id='9074'>0.67662E+03</wgt>
<wgt id='9075'>0.67648E+03</wgt>
<wgt id='9076'>0.67641E+03</wgt>
<wgt id='9077'>0.67664E+03</wgt>
<wgt id='9078'>0.67653E+03</wgt>
<wgt id='9079'>0.67639E+03</wgt>
<wgt id='9080'>0.67715E+03</wgt>
<wgt id='9081'>0.67643E+03</wgt>
<wgt id='9082'>0.67672E+03</wgt>
<wgt id='9083'>0.67627E+03</wgt>
<wgt id='9084'>0.67626E+03</wgt>
<wgt id='9085'>0.67623E+03</wgt>
<wgt id='9086'>0.67665E+03</wgt>
<wgt id='9087'>0.67594E+03</wgt>
<wgt id='9088'>0.67630E+03</wgt>
<wgt id='9089'>0.67630E+03</wgt>
<wgt id='9090'>0.67662E+03</wgt>
<wgt id='9091'>0.67640E+03</wgt>
<wgt id='9092'>0.67647E+03</wgt>
<wgt id='9093'>0.67638E+03</wgt>
<wgt id='9094'>0.67642E+03</wgt>
<wgt id='9095'>0.67659E+03</wgt>
<wgt id='9096'>0.67637E+03</wgt>
<wgt id='9097'>0.67657E+03</wgt>
<wgt id='9098'>0.67648E+03</wgt>
<wgt id='9099'>0.67635E+03</wgt>
<wgt id='9100'>0.67651E+03</wgt>
<wgt id='9101'>0.66686E+03</wgt>
<wgt id='9102'>0.68489E+03</wgt>
<wgt id='10000'>0.70353E+03</wgt>
<wgt id='10001'>0.70839E+03</wgt>
<wgt id='10002'>0.69902E+03</wgt>
<wgt id='10003'>0.70317E+03</wgt>
<wgt id='10004'>0.69444E+03</wgt>
<wgt id='10005'>0.71981E+03</wgt>
<wgt id='10006'>0.70106E+03</wgt>
<wgt id='10007'>0.70331E+03</wgt>
<wgt id='10008'>0.70434E+03</wgt>
<wgt id='10009'>0.70125E+03</wgt>
<wgt id='10010'>0.70509E+03</wgt>
<wgt id='10011'>0.70058E+03</wgt>
<wgt id='10012'>0.70384E+03</wgt>
<wgt id='10013'>0.70424E+03</wgt>
<wgt id='10014'>0.70239E+03</wgt>
<wgt id='10015'>0.70304E+03</wgt>
<wgt id='10016'>0.70130E+03</wgt>
<wgt id='10017'>0.70890E+03</wgt>
<wgt id='10018'>0.70421E+03</wgt>
<wgt id='10019'>0.70221E+03</wgt>
<wgt id='10020'>0.70228E+03</wgt>
<wgt id='10021'>0.70305E+03</wgt>
<wgt id='10022'>0.70339E+03</wgt>
<wgt id='10023'>0.70359E+03</wgt>
<wgt id='10024'>0.70272E+03</wgt>
<wgt id='10025'>0.70316E+03</wgt>
<wgt id='10026'>0.70550E+03</wgt>
<wgt id='10027'>0.70492E+03</wgt>
<wgt id='10028'>0.70982E+03</wgt>
<wgt id='10029'>0.70386E+03</wgt>
<wgt id='10030'>0.70332E+03</wgt>
<wgt id='10031'>0.69220E+03</wgt>
<wgt id='10032'>0.71373E+03</wgt>
<wgt id='11000'>0.67642E+03</wgt>
<wgt id='11001'>0.66895E+03</wgt>
<wgt id='11002'>0.68040E+03</wgt>
<wgt id='11003'>0.67597E+03</wgt>
<wgt id='11004'>0.68088E+03</wgt>
<wgt id='11005'>0.67003E+03</wgt>
<wgt id='11006'>0.67684E+03</wgt>
<wgt id='11007'>0.67472E+03</wgt>
<wgt id='11008'>0.67572E+03</wgt>
<wgt id='11009'>0.67338E+03</wgt>
<wgt id='11010'>0.67087E+03</wgt>
<wgt id='11011'>0.67309E+03</wgt>
<wgt id='11012'>0.67721E+03</wgt>
<wgt id='11013'>0.67825E+03</wgt>
<wgt id='11014'>0.67439E+03</wgt>
<wgt id='11015'>0.67572E+03</wgt>
<wgt id='11016'>0.67556E+03</wgt>
<wgt id='11017'>0.68222E+03</wgt>
<wgt id='11018'>0.67581E+03</wgt>
<wgt id='11019'>0.67580E+03</wgt>
<wgt id='11020'>0.67902E+03</wgt>
<wgt id='11021'>0.67813E+03</wgt>
<wgt id='11022'>0.69077E+03</wgt>
<wgt id='11023'>0.67688E+03</wgt>
<wgt id='11024'>0.67684E+03</wgt>
<wgt id='11025'>0.67693E+03</wgt>
<wgt id='11026'>0.67651E+03</wgt>
<wgt id='11027'>0.67626E+03</wgt>
<wgt id='11028'>0.67686E+03</wgt>
<wgt id='11029'>0.67653E+03</wgt>
<wgt id='11030'>0.67637E+03</wgt>
<wgt id='11031'>0.66686E+03</wgt>
<wgt id='11032'>0.68489E+03</wgt>
<wgt id='12000'>0.71136E+03</wgt>
<wgt id='12001'>0.71029E+03</wgt>
<wgt id='12002'>0.71243E+03</wgt>
<wgt id='12003'>0.71223E+03</wgt>
<wgt id='12004'>0.71048E+03</wgt>
<wgt id='12005'>0.71268E+03</wgt>
<wgt id='12006'>0.71004E+03</wgt>
<wgt id='12007'>0.71504E+03</wgt>
<wgt id='12008'>0.70776E+03</wgt>
<wgt id='12009'>0.71126E+03</wgt>
<wgt id='12010'>0.71147E+03</wgt>
<wgt id='12011'>0.70795E+03</wgt>
<wgt id='12012'>0.71524E+03</wgt>
<wgt id='12013'>0.70846E+03</wgt>
<wgt id='12014'>0.71430E+03</wgt>
<wgt id='12015'>0.71129E+03</wgt>
<wgt id='12016'>0.70990E+03</wgt>
<wgt id='12017'>0.71479E+03</wgt>
<wgt id='12018'>0.70898E+03</wgt>
<wgt id='12019'>0.70918E+03</wgt>
<wgt id='12020'>0.71296E+03</wgt>
<wgt id='12021'>0.71345E+03</wgt>
<wgt id='12022'>0.70897E+03</wgt>
<wgt id='12023'>0.70714E+03</wgt>
<wgt id='12024'>0.71323E+03</wgt>
<wgt id='12025'>0.71201E+03</wgt>
<wgt id='12026'>0.71133E+03</wgt>
<wgt id='12027'>0.71552E+03</wgt>
<wgt id='12028'>0.70783E+03</wgt>
<wgt id='12050'>0.71136E+03</wgt>
<wgt id='12051'>0.71090E+03</wgt>
<wgt id='12052'>0.70697E+03</wgt>
<wgt id='12053'>0.71093E+03</wgt>
<wgt id='12054'>0.70778E+03</wgt>
<wgt id='12055'>0.71159E+03</wgt>
<wgt id='12056'>0.70665E+03</wgt>
<wgt id='12057'>0.70748E+03</wgt>
<wgt id='12058'>0.71148E+03</wgt>
<wgt id='12059'>0.71110E+03</wgt>
<wgt id='12060'>0.70799E+03</wgt>
<wgt id='12061'>0.70878E+03</wgt>
<wgt id='12062'>0.70766E+03</wgt>
<wgt id='12063'>0.70149E+03</wgt>
<wgt id='13000'>0.66429E+03</wgt>
<wgt id='13001'>0.66097E+03</wgt>
<wgt id='13002'>0.66237E+03</wgt>
<wgt id='13003'>0.66171E+03</wgt>
<wgt id='13004'>0.66163E+03</wgt>
<wgt id='13005'>0.66285E+03</wgt>
<wgt id='13006'>0.66049E+03</wgt>
<wgt id='13007'>0.66586E+03</wgt>
<wgt id='13008'>0.65760E+03</wgt>
<wgt id='13009'>0.65975E+03</wgt>
<wgt id='13010'>0.66368E+03</wgt>
<wgt id='13011'>0.66386E+03</wgt>
<wgt id='13012'>0.65949E+03</wgt>
<wgt id='13013'>0.66021E+03</wgt>
<wgt id='13014'>0.66307E+03</wgt>
<wgt id='13015'>0.66022E+03</wgt>
<wgt id='13016'>0.66129E+03</wgt>
<wgt id='13017'>0.66196E+03</wgt>
<wgt id='13018'>0.66136E+03</wgt>
<wgt id='13019'>0.65986E+03</wgt>
<wgt id='13020'>0.66352E+03</wgt>
<wgt id='13021'>0.65910E+03</wgt>
<wgt id='13022'>0.66385E+03</wgt>
<wgt id='13023'>0.66093E+03</wgt>
<wgt id='13024'>0.66246E+03</wgt>
<wgt id='13025'>0.65640E+03</wgt>
<wgt id='13026'>0.66598E+03</wgt>
<wgt id='13027'>0.65996E+03</wgt>
<wgt id='13028'>0.66390E+03</wgt>
<wgt id='13050'>0.66429E+03</wgt>
<wgt id='13051'>0.66359E+03</wgt>
<wgt id='13052'>0.65752E+03</wgt>
<wgt id='13053'>0.66338E+03</wgt>
<wgt id='13054'>0.66007E+03</wgt>
<wgt id='13055'>0.65845E+03</wgt>
<wgt id='13056'>0.65718E+03</wgt>
<wgt id='13057'>0.66003E+03</wgt>
<wgt id='13058'>0.66508E+03</wgt>
<wgt id='13059'>0.66198E+03</wgt>
<wgt id='13060'>0.65579E+03</wgt>
<wgt id='13061'>0.65946E+03</wgt>
<wgt id='13062'>0.66658E+03</wgt>
<wgt id='13063'>0.65953E+03</wgt>
<wgt id='14000'>0.68322E+03</wgt>
<wgt id='14001'>0.68313E+03</wgt>
<wgt id='14002'>0.68305E+03</wgt>
<wgt id='14003'>0.68296E+03</wgt>
<wgt id='14004'>0.68287E+03</wgt>
<wgt id='14005'>0.68278E+03</wgt>
<wgt id='14006'>0.68270E+03</wgt>
<wgt id='14007'>0.68261E+03</wgt>
<wgt id='14008'>0.68252E+03</wgt>
<wgt id='14009'>0.68244E+03</wgt>
<wgt id='14010'>0.68235E+03</wgt>
<wgt id='14011'>0.68226E+03</wgt>
<wgt id='14012'>0.68218E+03</wgt>
<wgt id='14013'>0.68209E+03</wgt>
<wgt id='14014'>0.68200E+03</wgt>
<wgt id='14015'>0.68191E+03</wgt>
<wgt id='14016'>0.68183E+03</wgt>
<wgt id='14017'>0.68174E+03</wgt>
<wgt id='14018'>0.68165E+03</wgt>
<wgt id='14019'>0.68157E+03</wgt>
<wgt id='14020'>0.68148E+03</wgt>
<wgt id='14021'>0.68140E+03</wgt>
<wgt id='14022'>0.68131E+03</wgt>
<wgt id='14023'>0.68122E+03</wgt>
<wgt id='14024'>0.68113E+03</wgt>
<wgt id='14025'>0.68105E+03</wgt>
<wgt id='14026'>0.68096E+03</wgt>
<wgt id='14027'>0.68087E+03</wgt>
<wgt id='14028'>0.68079E+03</wgt>
<wgt id='14029'>0.68070E+03</wgt>
<wgt id='14030'>0.68062E+03</wgt>
<wgt id='15000'>0.66789E+03</wgt>
<wgt id='15001'>0.66762E+03</wgt>
<wgt id='15002'>0.67157E+03</wgt>
<wgt id='15003'>0.66212E+03</wgt>
<wgt id='15004'>0.66696E+03</wgt>
<wgt id='15005'>0.67263E+03</wgt>
<wgt id='15006'>0.66471E+03</wgt>
<wgt id='15007'>0.66240E+03</wgt>
<wgt id='15008'>0.66630E+03</wgt>
<wgt id='15009'>0.66797E+03</wgt>
<wgt id='15010'>0.66365E+03</wgt>
<wgt id='15011'>0.67679E+03</wgt>
<wgt id='15012'>0.66820E+03</wgt>
<wgt id='15013'>0.65792E+03</wgt>
<wgt id='15014'>0.66329E+03</wgt>
<wgt id='15015'>0.66724E+03</wgt>
<wgt id='15016'>0.67702E+03</wgt>
<wgt id='15017'>0.66621E+03</wgt>
<wgt id='15018'>0.66677E+03</wgt>
<wgt id='15019'>0.66741E+03</wgt>
<wgt id='15020'>0.67136E+03</wgt>
<wgt id='15021'>0.66556E+03</wgt>
<wgt id='15022'>0.66910E+03</wgt>
<wgt id='15023'>0.66547E+03</wgt>
<wgt id='15024'>0.66702E+03</wgt>
<wgt id='15025'>0.66898E+03</wgt>
<wgt id='15026'>0.66783E+03</wgt>
<wgt id='15027'>0.66670E+03</wgt>
<wgt id='15028'>0.66835E+03</wgt>
<wgt id='15029'>0.66877E+03</wgt>
<wgt id='15030'>0.66754E+03</wgt>
<wgt id='15031'>0.66744E+03</wgt>
<wgt id='15032'>0.66861E+03</wgt>
<wgt id='15033'>0.66861E+03</wgt>
<wgt id='15034'>0.66776E+03</wgt>
<wgt id='15035'>0.66858E+03</wgt>
<wgt id='15036'>0.66797E+03</wgt>
<wgt id='15037'>0.66845E+03</wgt>
<wgt id='15038'>0.66820E+03</wgt>
<wgt id='15039'>0.66795E+03</wgt>
<wgt id='15040'>0.66740E+03</wgt>
<wgt id='15041'>0.66783E+03</wgt>
<wgt id='15042'>0.66798E+03</wgt>
<wgt id='15043'>0.66734E+03</wgt>
<wgt id='15044'>0.66815E+03</wgt>
<wgt id='15045'>0.66809E+03</wgt>
<wgt id='15046'>0.66706E+03</wgt>
<wgt id='15047'>0.66785E+03</wgt>
<wgt id='15048'>0.66820E+03</wgt>
<wgt id='15049'>0.66749E+03</wgt>
<wgt id='15050'>0.66804E+03</wgt>
<wgt id='15051'>0.66825E+03</wgt>
<wgt id='15052'>0.66817E+03</wgt>
<wgt id='15053'>0.66789E+03</wgt>
<wgt id='15054'>0.66755E+03</wgt>
<wgt id='15055'>0.66768E+03</wgt>
<wgt id='15056'>0.66847E+03</wgt>
<wgt id='15057'>0.66793E+03</wgt>
<wgt id='15058'>0.66723E+03</wgt>
<wgt id='15059'>0.66753E+03</wgt>
<wgt id='15060'>0.66759E+03</wgt>
<wgt id='15061'>0.66797E+03</wgt>
<wgt id='15062'>0.66799E+03</wgt>
<wgt id='15063'>0.66817E+03</wgt>
<wgt id='15064'>0.66780E+03</wgt>
<wgt id='15065'>0.66781E+03</wgt>
<wgt id='15066'>0.66794E+03</wgt>
<wgt id='15067'>0.66813E+03</wgt>
<wgt id='15068'>0.66812E+03</wgt>
<wgt id='15069'>0.66833E+03</wgt>
<wgt id='15070'>0.66777E+03</wgt>
<wgt id='15071'>0.66836E+03</wgt>
<wgt id='15072'>0.66835E+03</wgt>
<wgt id='15073'>0.66771E+03</wgt>
<wgt id='15074'>0.66800E+03</wgt>
<wgt id='15075'>0.66785E+03</wgt>
<wgt id='15076'>0.66782E+03</wgt>
<wgt id='15077'>0.66802E+03</wgt>
<wgt id='15078'>0.66792E+03</wgt>
<wgt id='15079'>0.66776E+03</wgt>
<wgt id='15080'>0.66849E+03</wgt>
<wgt id='15081'>0.66784E+03</wgt>
<wgt id='15082'>0.66810E+03</wgt>
<wgt id='15083'>0.66765E+03</wgt>
<wgt id='15084'>0.66763E+03</wgt>
<wgt id='15085'>0.66762E+03</wgt>
<wgt id='15086'>0.66805E+03</wgt>
<wgt id='15087'>0.66731E+03</wgt>
<wgt id='15088'>0.66766E+03</wgt>
<wgt id='15089'>0.66766E+03</wgt>
<wgt id='15090'>0.66799E+03</wgt>
<wgt id='15091'>0.66776E+03</wgt>
<wgt id='15092'>0.66783E+03</wgt>
<wgt id='15093'>0.66776E+03</wgt>
<wgt id='15094'>0.66777E+03</wgt>
<wgt id='15095'>0.66796E+03</wgt>
<wgt id='15096'>0.66776E+03</wgt>
<wgt id='15097'>0.66795E+03</wgt>
<wgt id='15098'>0.66785E+03</wgt>
<wgt id='15099'>0.66773E+03</wgt>
<wgt id='15100'>0.66789E+03</wgt>
<wgt id='15101'>0.66788E+03</wgt>
<wgt id='15102'>0.66784E+03</wgt>
<wgt id='15103'>0.66790E+03</wgt>
<wgt id='15104'>0.66790E+03</wgt>
<wgt id='15105'>0.66792E+03</wgt>
<wgt id='15106'>0.66789E+03</wgt>
<wgt id='15107'>0.66786E+03</wgt>
<wgt id='1500'>0.71864E+03</wgt>
<wgt id='1501'>0.67652E+03</wgt>
<wgt id='1502'>0.71077E+03</wgt>
<wgt id='1503'>0.71558E+03</wgt>
<wgt id='1504'>0.71399E+03</wgt>
<wgt id='1505'>0.63498E+03</wgt>
<wgt id='1506'>0.73433E+03</wgt>
<wgt id='1507'>0.72055E+03</wgt>
<wgt id='1508'>0.73448E+03</wgt>
<wgt id='1509'>0.72515E+03</wgt>
<wgt id='1510'>0.68019E+03</wgt>
<wgt id='1511'>0.67032E+03</wgt>
<wgt id='1512'>0.73450E+03</wgt>
<wgt id='1513'>0.73466E+03</wgt>
<wgt id='1514'>0.69266E+03</wgt>
<wgt id='1515'>0.72907E+03</wgt>
<wgt id='1516'>0.72915E+03</wgt>
<wgt id='1517'>0.71461E+03</wgt>
<wgt id='1518'>0.72423E+03</wgt>
<wgt id='1519'>0.73837E+03</wgt>
<wgt id='1520'>0.74389E+03</wgt>
<wgt id='1521'>0.72221E+03</wgt>
<wgt id='1522'>0.69988E+03</wgt>
<wgt id='1523'>0.77087E+03</wgt>
<wgt id='1524'>0.71281E+03</wgt>
<wgt id='1525'>0.72231E+03</wgt>
<wgt id='1526'>0.71778E+03</wgt>
<wgt id='1527'>0.71861E+03</wgt>
<wgt id='1528'>0.71029E+03</wgt>
<wgt id='1529'>0.71847E+03</wgt>
<wgt id='1530'>0.73617E+03</wgt>
<wgt id='1531'>0.71025E+03</wgt>
<wgt id='1532'>0.69327E+03</wgt>
<wgt id='1533'>0.71379E+03</wgt>
<wgt id='1534'>0.71524E+03</wgt>
<wgt id='1535'>0.73647E+03</wgt>
<wgt id='1536'>0.74156E+03</wgt>
<wgt id='1537'>0.73196E+03</wgt>
<wgt id='1538'>0.74313E+03</wgt>
<wgt id='1539'>0.70636E+03</wgt>
<wgt id='1540'>0.72331E+03</wgt>
<wgt id='1541'>0.73069E+03</wgt>
<wgt id='1542'>0.71505E+03</wgt>
<wgt id='1543'>0.71817E+03</wgt>
<wgt id='1544'>0.70908E+03</wgt>
<wgt id='1545'>0.70652E+03</wgt>
<wgt id='1546'>0.73563E+03</wgt>
<wgt id='1547'>0.71343E+03</wgt>
<wgt id='1548'>0.71707E+03</wgt>
<wgt id='1549'>0.71260E+03</wgt>
<wgt id='1550'>0.71485E+03</wgt>
<wgt id='1551'>0.71512E+03</wgt>
<wgt id='1552'>0.70418E+03</wgt>
<wgt id='1553'>0.72331E+03</wgt>
<wgt id='1554'>0.72432E+03</wgt>
<wgt id='1555'>0.71405E+03</wgt>
<wgt id='1556'>0.70489E+03</wgt>
<wgt id='1557'>0.74788E+03</wgt>
<wgt id='1558'>0.70469E+03</wgt>
<wgt id='1559'>0.72561E+03</wgt>
<wgt id='1560'>0.71984E+03</wgt>
<wgt id='1561'>0.72610E+03</wgt>
<wgt id='1562'>0.71731E+03</wgt>
<wgt id='1563'>0.72939E+03</wgt>
<wgt id='1564'>0.69954E+03</wgt>
<wgt id='1565'>0.73411E+03</wgt>
<wgt id='1566'>0.71305E+03</wgt>
<wgt id='1567'>0.76965E+03</wgt>
<wgt id='1568'>0.70814E+03</wgt>
<wgt id='1569'>0.69766E+03</wgt>
<wgt id='1570'>0.71027E+03</wgt>
<wgt id='1571'>0.72509E+03</wgt>
<wgt id='1572'>0.72247E+03</wgt>
<wgt id='1573'>0.67815E+03</wgt>
<wgt id='1574'>0.72085E+03</wgt>
<wgt id='1575'>0.71717E+03</wgt>
<wgt id='1576'>0.68990E+03</wgt>
<wgt id='1577'>0.71386E+03</wgt>
<wgt id='1578'>0.74251E+03</wgt>
<wgt id='1579'>0.71834E+03</wgt>
<wgt id='1580'>0.71603E+03</wgt>
<wgt id='1581'>0.71896E+03</wgt>
<wgt id='1582'>0.70685E+03</wgt>
<wgt id='1583'>0.74416E+03</wgt>
<wgt id='1584'>0.72007E+03</wgt>
<wgt id='1585'>0.69979E+03</wgt>
<wgt id='1586'>0.71110E+03</wgt>
<wgt id='1587'>0.71096E+03</wgt>
<wgt id='1588'>0.72113E+03</wgt>
<wgt id='1589'>0.75414E+03</wgt>
<wgt id='1590'>0.70650E+03</wgt>
<wgt id='1591'>0.71964E+03</wgt>
<wgt id='1592'>0.72970E+03</wgt>
<wgt id='1593'>0.72213E+03</wgt>
<wgt id='1594'>0.72665E+03</wgt>
<wgt id='1595'>0.70056E+03</wgt>
<wgt id='1596'>0.73684E+03</wgt>
<wgt id='1597'>0.72297E+03</wgt>
<wgt id='1598'>0.74529E+03</wgt>
<wgt id='1599'>0.74571E+03</wgt>
<wgt id='1600'>0.72366E+03</wgt>
<wgt id='1601'>0.71058E+03</wgt>
<wgt id='1602'>0.72451E+03</wgt>
<wgt id='1700'>0.68523E+03</wgt>
<wgt id='1800'>0.70860E+03</wgt>
<wgt id='1850'>0.83441E+03</wgt>
<wgt id='1900'>0.74595E+03</wgt>
<wgt id='1950'>0.80367E+03</wgt>
</rwgt>
</event>
<event>
     13 322222  6.87070E+02  1.26782E+01 -1.00000E+00  1.80971E-01
      21    -1     0     0   504   505  0.000000000E+00  0.000000000E+00  2.943568790E+02  2.943568790E+02  0.000000000E+00  0.00000E+00  9.000E+00
      21    -1     0     0   502   503  0.000000000E+00  0.000000000E+00 -3.489854479E+02  3.489854479E+02  0.000000000E+00  0.00000E+00  9.000E+00
       6     2     1     2   502     0  2.139458457E+01 -2.612444235E+02 -5.149199993E+01  3.189401438E+02  1.742555944E+02  0.00000E+00  9.000E+00
      -6     2     1     2     0   505 -8.873766107E+00  2.592531822E+02 -2.595680534E+00  3.117124827E+02  1.728206531E+02  0.00000E+00  9.000E+00
      21     1     1     2   504   503 -1.252081847E+01  1.991241346E+00 -5.408884317E-01  1.268970045E+01  1.955688707E-07  0.00000E+00  9.000E+00
      24     2     3     3     0     0  1.861024267E+01 -1.052017081E+02  3.541154097E+01  1.402439014E+02  8.366979231E+01  0.00000E+00  9.000E+00
       5     1     3     3   502     0  2.784341898E+00 -1.560427154E+02 -8.690354090E+01  1.786962423E+02  4.800000000E+00  0.00000E+00 -1.000E+00
     -24     2     4     4     0     0  3.300431726E+01  2.508570839E+02 -1.764196234E+01  2.661745982E+02  8.074104524E+01  0.00000E+00  9.000E+00
      -5     1     4     4     0   505 -4.187808336E+01  8.396098244E+00  1.504628180E+01  4.553788454E+01  4.800000000E+00  0.00000E+00  1.000E+00
     -13     1     6     6     0     0 -1.504280818E+01 -2.982495981E+01 -2.172824870E+01  3.984899333E+01  1.057000000E-01  0.00000E+00  1.000E+00
      14     1     6     6     0     0  3.365305086E+01 -7.537674826E+01  5.713978967E+01  1.003949081E+02  0.000000000E+00  0.00000E+00 -1.000E+00
       3     1     8     8   508     0  5.497811473E+01  1.901391848E+02  4.257208690E+00  1.979739036E+02  2.000000000E-01  0.00000E+00 -1.000E+00
      -4     1     8     8     0   508 -2.197379747E+01  6.071789914E+01 -2.189917103E+01  6.820069460E+01  1.500000000E+00  0.00000E+00  1.000E+00
#rwgt            1           1   403.39279195498290                1        2665           0
<rwgt>
<wgt id='1001'>0.68707E+03</wgt>
<wgt id='1002'>0.54933E+03</wgt>
<wgt id='1003'>0.84576E+03</wgt>
<wgt id='1004'>0.65386E+03</wgt>
<wgt id='1005'>0.53739E+03</wgt>
<wgt id='1006'>0.78770E+03</wgt>
<wgt id='1007'>0.70301E+03</wgt>
<wgt id='1008'>0.53742E+03</wgt>
<wgt id='1009'>0.89436E+03</wgt>
<wgt id='2000'>0.68707E+03</wgt>
<wgt id='2001'>0.68633E+03</wgt>
<wgt id='2002'>0.68704E+03</wgt>
<wgt id='2003'>0.68689E+03</wgt>
<wgt id='2004'>0.68883E+03</wgt>
<wgt id='2005'>0.68672E+03</wgt>
<wgt id='2006'>0.68561E+03</wgt>
<wgt id='2007'>0.68582E+03</wgt>
<wgt id='2008'>0.68500E+03</wgt>
<wgt id='2009'>0.68801E+03</wgt>
<wgt id='2010'>0.68713E+03</wgt>
<wgt id='2011'>0.68439E+03</wgt>
<wgt id='2012'>0.68584E+03</wgt>
<wgt id='2013'>0.68433E+03</wgt>
<wgt id='2014'>0.68760E+03</wgt>
<wgt id='2015'>0.68736E+03</wgt>
<wgt id='2016'>0.68851E+03</wgt>
<wgt id='2017'>0.68683E+03</wgt>
<wgt id='2018'>0.68666E+03</wgt>
<wgt id='2019'>0.68748E+03</wgt>
<wgt id='2020'>0.68817E+03</wgt>
<wgt id='2021'>0.68671E+03</wgt>
<wgt id='2022'>0.68820E+03</wgt>
<wgt id='2023'>0.68833E+03</wgt>
<wgt id='2024'>0.68563E+03</wgt>
<wgt id='2025'>0.68971E+03</wgt>
<wgt id='2026'>0.69018E+03</wgt>
<wgt id='2027'>0.68571E+03</wgt>
<wgt id='2028'>0.68454E+03</wgt>
<wgt id='2029'>0.69023E+03</wgt>
<wgt id='2030'>0.68699E+03</wgt>
<wgt id='2031'>0.68848E+03</wgt>
<wgt id='2032'>0.68601E+03</wgt>
<wgt id='2033'>0.68715E+03</wgt>
<wgt id='2034'>0.68922E+03</wgt>
<wgt id='2035'>0.68678E+03</wgt>
<wgt id='2036'>0.68754E+03</wgt>
<wgt id='2037'>0.68829E+03</wgt>
<wgt id='2038'>0.68687E+03</wgt>
<wgt id='2039'>0.68587E+03</wgt>
<wgt id='2040'>0.68744E+03</wgt>
<wgt id='2041'>0.68721E+03</wgt>
<wgt id='2042'>0.68616E+03</wgt>
<wgt id='2043'>0.68717E+03</wgt>
<wgt id='2044'>0.68797E+03</wgt>
<wgt id='2045'>0.68666E+03</wgt>
<wgt id='2046'>0.68779E+03</wgt>
<wgt id='2047'>0.68811E+03</wgt>
<wgt id='2048'>0.68650E+03</wgt>
<wgt id='2049'>0.68687E+03</wgt>
<wgt id='2050'>0.68734E+03</wgt>
<wgt id='2051'>0.68822E+03</wgt>
<wgt id='2052'>0.68708E+03</wgt>
<wgt id='2053'>0.68729E+03</wgt>
<wgt id='2054'>0.68721E+03</wgt>
<wgt id='2055'>0.68706E+03</wgt>
<wgt id='2056'>0.68709E+03</wgt>
<wgt id='2057'>0.68750E+03</wgt>
<wgt id='2058'>0.68736E+03</wgt>
<wgt id='2059'>0.68695E+03</wgt>
<wgt id='2060'>0.68728E+03</wgt>
<wgt id='2061'>0.68660E+03</wgt>
<wgt id='2062'>0.68694E+03</wgt>
<wgt id='2063'>0.68719E+03</wgt>
<wgt id='2064'>0.68667E+03</wgt>
<wgt id='2065'>0.68734E+03</wgt>
<wgt id='2066'>0.68679E+03</wgt>
<wgt id='2067'>0.68710E+03</wgt>
<wgt id='2068'>0.68733E+03</wgt>
<wgt id='2069'>0.68728E+03</wgt>
<wgt id='2070'>0.68693E+03</wgt>
<wgt id='2071'>0.68682E+03</wgt>
<wgt id='2072'>0.68715E+03</wgt>
<wgt id='2073'>0.68711E+03</wgt>
<wgt id='2074'>0.68719E+03</wgt>
<wgt id='2075'>0.68689E+03</wgt>
<wgt id='2076'>0.68716E+03</wgt>
<wgt id='2077'>0.68685E+03</wgt>
<wgt id='2078'>0.68702E+03</wgt>
<wgt id='2079'>0.68719E+03</wgt>
<wgt id='2080'>0.68718E+03</wgt>
<wgt id='2081'>0.68723E+03</wgt>
<wgt id='2082'>0.68725E+03</wgt>
<wgt id='2083'>0.68704E+03</wgt>
<wgt id='2084'>0.68711E+03</wgt>
<wgt id='2085'>0.68705E+03</wgt>
<wgt id='2086'>0.68699E+03</wgt>
<wgt id='2087'>0.68696E+03</wgt>
<wgt id='2088'>0.68716E+03</wgt>
<wgt id='2089'>0.68701E+03</wgt>
<wgt id='2090'>0.68702E+03</wgt>
<wgt id='2091'>0.68707E+03</wgt>
<wgt id='2092'>0.68706E+03</wgt>
<wgt id='2093'>0.68704E+03</wgt>
<wgt id='2094'>0.68708E+03</wgt>
<wgt id='2095'>0.68715E+03</wgt>
<wgt id='2096'>0.68698E+03</wgt>
<wgt id='2097'>0.68725E+03</wgt>
<wgt id='2098'>0.68699E+03</wgt>
<wgt id='2099'>0.68705E+03</wgt>
<wgt id='2100'>0.68710E+03</wgt>
<wgt id='2101'>0.67147E+03</wgt>
<wgt id='2102'>0.70250E+03</wgt>
<wgt id='2104'>0.61658E+03</wgt>
<wgt id='2105'>0.63047E+03</wgt>
<wgt id='2106'>0.64638E+03</wgt>
<wgt id='2107'>0.65903E+03</wgt>
<wgt id='2108'>0.68013E+03</wgt>
<wgt id='2109'>0.69476E+03</wgt>
<wgt id='2110'>0.71376E+03</wgt>
<wgt id='2111'>0.72795E+03</wgt>
<wgt id='3000'>0.71287E+03</wgt>
<wgt id='3001'>0.71286E+03</wgt>
<wgt id='3002'>0.71322E+03</wgt>
<wgt id='3003'>0.71240E+03</wgt>
<wgt id='3004'>0.71431E+03</wgt>
<wgt id='3005'>0.71305E+03</wgt>
<wgt id='3006'>0.71219E+03</wgt>
<wgt id='3007'>0.71396E+03</wgt>
<wgt id='3008'>0.71308E+03</wgt>
<wgt id='3009'>0.71471E+03</wgt>
<wgt id='3010'>0.71261E+03</wgt>
<wgt id='3011'>0.71121E+03</wgt>
<wgt id='3012'>0.71219E+03</wgt>
<wgt id='3013'>0.71530E+03</wgt>
<wgt id='3014'>0.71263E+03</wgt>
<wgt id='3015'>0.71101E+03</wgt>
<wgt id='3016'>0.71299E+03</wgt>
<wgt id='3017'>0.71226E+03</wgt>
<wgt id='3018'>0.71417E+03</wgt>
<wgt id='3019'>0.71330E+03</wgt>
<wgt id='3020'>0.71189E+03</wgt>
<wgt id='3021'>0.71201E+03</wgt>
<wgt id='3022'>0.71287E+03</wgt>
<wgt id='3023'>0.71183E+03</wgt>
<wgt id='3024'>0.71059E+03</wgt>
<wgt id='3025'>0.71346E+03</wgt>
<wgt id='3026'>0.71418E+03</wgt>
<wgt id='3027'>0.71302E+03</wgt>
<wgt id='3028'>0.70963E+03</wgt>
<wgt id='3029'>0.71038E+03</wgt>
<wgt id='3030'>0.71619E+03</wgt>
<wgt id='3031'>0.71458E+03</wgt>
<wgt id='3032'>0.71427E+03</wgt>
<wgt id='3033'>0.71522E+03</wgt>
<wgt id='3034'>0.71345E+03</wgt>
<wgt id='3035'>0.71540E+03</wgt>
<wgt id='3036'>0.71353E+03</wgt>
<wgt id='3037'>0.71279E+03</wgt>
<wgt id='3038'>0.71306E+03</wgt>
<wgt id='3039'>0.71202E+03</wgt>
<wgt id='3040'>0.71283E+03</wgt>
<wgt id='3041'>0.71377E+03</wgt>
<wgt id='3042'>0.71174E+03</wgt>
<wgt id='3043'>0.71175E+03</wgt>
<wgt id='3044'>0.71295E+03</wgt>
<wgt id='3045'>0.71361E+03</wgt>
<wgt id='3046'>0.71383E+03</wgt>
<wgt id='3047'>0.71284E+03</wgt>
<wgt id='3048'>0.71342E+03</wgt>
<wgt id='3049'>0.71275E+03</wgt>
<wgt id='3050'>0.71263E+03</wgt>
<wgt id='3051'>0.71399E+03</wgt>
<wgt id='3052'>0.71235E+03</wgt>
<wgt id='3053'>0.71253E+03</wgt>
<wgt id='3054'>0.71285E+03</wgt>
<wgt id='3055'>0.71202E+03</wgt>
<wgt id='3056'>0.71297E+03</wgt>
<wgt id='3057'>0.71246E+03</wgt>
<wgt id='3058'>0.71238E+03</wgt>
<wgt id='3059'>0.71282E+03</wgt>
<wgt id='3060'>0.71311E+03</wgt>
<wgt id='3061'>0.71286E+03</wgt>
<wgt id='3062'>0.71298E+03</wgt>
<wgt id='3063'>0.71325E+03</wgt>
<wgt id='3064'>0.71261E+03</wgt>
<wgt id='3065'>0.71286E+03</wgt>
<wgt id='3066'>0.71301E+03</wgt>
<wgt id='3067'>0.71252E+03</wgt>
<wgt id='3068'>0.71301E+03</wgt>
<wgt id='3069'>0.71265E+03</wgt>
<wgt id='3070'>0.71300E+03</wgt>
<wgt id='3071'>0.71280E+03</wgt>
<wgt id='3072'>0.71286E+03</wgt>
<wgt id='3073'>0.71257E+03</wgt>
<wgt id='3074'>0.71332E+03</wgt>
<wgt id='3075'>0.71286E+03</wgt>
<wgt id='3076'>0.71289E+03</wgt>
<wgt id='3077'>0.71300E+03</wgt>
<wgt id='3078'>0.71305E+03</wgt>
<wgt id='3079'>0.71270E+03</wgt>
<wgt id='3080'>0.71276E+03</wgt>
<wgt id='3081'>0.71283E+03</wgt>
<wgt id='3082'>0.71268E+03</wgt>
<wgt id='3083'>0.71296E+03</wgt>
<wgt id='3084'>0.71283E+03</wgt>
<wgt id='3085'>0.71298E+03</wgt>
<wgt id='3086'>0.71276E+03</wgt>
<wgt id='3087'>0.71278E+03</wgt>
<wgt id='3088'>0.71282E+03</wgt>
<wgt id='3089'>0.71288E+03</wgt>
<wgt id='3090'>0.71293E+03</wgt>
<wgt id='3091'>0.71287E+03</wgt>
<wgt id='3092'>0.71287E+03</wgt>
<wgt id='3093'>0.71291E+03</wgt>
<wgt id='3094'>0.71304E+03</wgt>
<wgt id='3095'>0.71291E+03</wgt>
<wgt id='3096'>0.71276E+03</wgt>
<wgt id='3097'>0.71272E+03</wgt>
<wgt id='3098'>0.71279E+03</wgt>
<wgt id='3099'>0.71299E+03</wgt>
<wgt id='3100'>0.71292E+03</wgt>
<wgt id='3101'>0.69706E+03</wgt>
<wgt id='3102'>0.72725E+03</wgt>
<wgt id='5000'>0.67946E+03</wgt>
<wgt id='5001'>0.68124E+03</wgt>
<wgt id='5002'>0.68134E+03</wgt>
<wgt id='5003'>0.68058E+03</wgt>
<wgt id='5004'>0.67597E+03</wgt>
<wgt id='5005'>0.67185E+03</wgt>
<wgt id='5006'>0.65990E+03</wgt>
<wgt id='5007'>0.67044E+03</wgt>
<wgt id='5008'>0.68427E+03</wgt>
<wgt id='5009'>0.67401E+03</wgt>
<wgt id='5010'>0.67972E+03</wgt>
<wgt id='5011'>0.68240E+03</wgt>
<wgt id='5012'>0.67856E+03</wgt>
<wgt id='5013'>0.68983E+03</wgt>
<wgt id='5014'>0.68912E+03</wgt>
<wgt id='5015'>0.67840E+03</wgt>
<wgt id='5016'>0.68265E+03</wgt>
<wgt id='5017'>0.66712E+03</wgt>
<wgt id='5018'>0.69256E+03</wgt>
<wgt id='5019'>0.68959E+03</wgt>
<wgt id='5020'>0.66998E+03</wgt>
<wgt id='5021'>0.67770E+03</wgt>
<wgt id='5022'>0.68056E+03</wgt>
<wgt id='5023'>0.67608E+03</wgt>
<wgt id='5024'>0.68316E+03</wgt>
<wgt id='5025'>0.68390E+03</wgt>
<wgt id='5026'>0.67579E+03</wgt>
<wgt id='5027'>0.68076E+03</wgt>
<wgt id='5028'>0.67722E+03</wgt>
<wgt id='5029'>0.67809E+03</wgt>
<wgt id='5030'>0.68038E+03</wgt>
<wgt id='5031'>0.67708E+03</wgt>
<wgt id='5032'>0.68303E+03</wgt>
<wgt id='5033'>0.67997E+03</wgt>
<wgt id='5034'>0.67901E+03</wgt>
<wgt id='5035'>0.68830E+03</wgt>
<wgt id='5036'>0.67148E+03</wgt>
<wgt id='5037'>0.66039E+03</wgt>
<wgt id='5038'>0.70111E+03</wgt>
<wgt id='5039'>0.69493E+03</wgt>
<wgt id='5040'>0.67089E+03</wgt>
<wgt id='5041'>0.68290E+03</wgt>
<wgt id='5042'>0.67777E+03</wgt>
<wgt id='5043'>0.68148E+03</wgt>
<wgt id='5044'>0.68195E+03</wgt>
<wgt id='5045'>0.68498E+03</wgt>
<wgt id='5046'>0.66063E+03</wgt>
<wgt id='5047'>0.68256E+03</wgt>
<wgt id='5048'>0.67073E+03</wgt>
<wgt id='5049'>0.68047E+03</wgt>
<wgt id='5050'>0.67769E+03</wgt>
<wgt id='5051'>0.67870E+03</wgt>
<wgt id='5052'>0.67945E+03</wgt>
<wgt id='5053'>0.66216E+03</wgt>
<wgt id='5054'>0.66570E+03</wgt>
<wgt id='5055'>0.67354E+03</wgt>
<wgt id='5056'>0.69240E+03</wgt>
<wgt id='5060'>0.66141E+03</wgt>
<wgt id='5070'>0.69825E+03</wgt>
<wgt id='4000'>0.68043E+03</wgt>
<wgt id='4001'>0.67955E+03</wgt>
<wgt id='4002'>0.68052E+03</wgt>
<wgt id='4003'>0.66677E+03</wgt>
<wgt id='4004'>0.67389E+03</wgt>
<wgt id='4005'>0.67762E+03</wgt>
<wgt id='4006'>0.68337E+03</wgt>
<wgt id='4007'>0.68202E+03</wgt>
<wgt id='4008'>0.67183E+03</wgt>
<wgt id='4009'>0.68424E+03</wgt>
<wgt id='4010'>0.67447E+03</wgt>
<wgt id='4011'>0.69335E+03</wgt>
<wgt id='4012'>0.67042E+03</wgt>
<wgt id='4013'>0.68370E+03</wgt>
<wgt id='4014'>0.67962E+03</wgt>
<wgt id='4015'>0.69606E+03</wgt>
<wgt id='4016'>0.66963E+03</wgt>
<wgt id='4017'>0.66754E+03</wgt>
<wgt id='4018'>0.69566E+03</wgt>
<wgt id='4019'>0.68581E+03</wgt>
<wgt id='4020'>0.67499E+03</wgt>
<wgt id='4021'>0.68261E+03</wgt>
<wgt id='4022'>0.67623E+03</wgt>
<wgt id='4023'>0.67955E+03</wgt>
<wgt id='4024'>0.68150E+03</wgt>
<wgt id='4025'>0.69669E+03</wgt>
<wgt id='4026'>0.66497E+03</wgt>
<wgt id='4027'>0.68229E+03</wgt>
<wgt id='4028'>0.67801E+03</wgt>
<wgt id='4029'>0.68107E+03</wgt>
<wgt id='4030'>0.68027E+03</wgt>
<wgt id='4031'>0.68308E+03</wgt>
<wgt id='4032'>0.67700E+03</wgt>
<wgt id='4033'>0.67484E+03</wgt>
<wgt id='4034'>0.69281E+03</wgt>
<wgt id='4035'>0.66913E+03</wgt>
<wgt id='4036'>0.69186E+03</wgt>
<wgt id='4037'>0.67857E+03</wgt>
<wgt id='4038'>0.68374E+03</wgt>
<wgt id='4039'>0.68047E+03</wgt>
<wgt id='4040'>0.68209E+03</wgt>
<wgt id='4041'>0.67740E+03</wgt>
<wgt id='4042'>0.68409E+03</wgt>
<wgt id='4043'>0.67765E+03</wgt>
<wgt id='4044'>0.69027E+03</wgt>
<wgt id='4045'>0.67832E+03</wgt>
<wgt id='4046'>0.68474E+03</wgt>
<wgt id='4047'>0.68132E+03</wgt>
<wgt id='4048'>0.66380E+03</wgt>
<wgt id='4049'>0.66479E+03</wgt>
<wgt id='4050'>0.68132E+03</wgt>
<wgt id='4051'>0.68244E+03</wgt>
<wgt id='4052'>0.68190E+03</wgt>
<wgt id='4053'>0.65959E+03</wgt>
<wgt id='4054'>0.68944E+03</wgt>
<wgt id='4055'>0.67484E+03</wgt>
<wgt id='4056'>0.69150E+03</wgt>
<wgt id='4060'>0.66427E+03</wgt>
<wgt id='4070'>0.69758E+03</wgt>
<wgt id='4080'>0.62293E+03</wgt>
<wgt id='6000'>0.69985E+03</wgt>
<wgt id='6001'>0.70021E+03</wgt>
<wgt id='6002'>0.69950E+03</wgt>
<wgt id='6003'>0.70068E+03</wgt>
<wgt id='6004'>0.69929E+03</wgt>
<wgt id='6005'>0.70395E+03</wgt>
<wgt id='6006'>0.69607E+03</wgt>
<wgt id='6007'>0.69740E+03</wgt>
<wgt id='6008'>0.70261E+03</wgt>
<wgt id='6009'>0.70025E+03</wgt>
<wgt id='6010'>0.69945E+03</wgt>
<wgt id='6011'>0.70035E+03</wgt>
<wgt id='6012'>0.69877E+03</wgt>
<wgt id='6013'>0.69975E+03</wgt>
<wgt id='6014'>0.70008E+03</wgt>
<wgt id='6015'>0.69901E+03</wgt>
<wgt id='6016'>0.70032E+03</wgt>
<wgt id='6017'>0.69757E+03</wgt>
<wgt id='6018'>0.70255E+03</wgt>
<wgt id='6019'>0.70020E+03</wgt>
<wgt id='6020'>0.69956E+03</wgt>
<wgt id='6021'>0.69866E+03</wgt>
<wgt id='6022'>0.70145E+03</wgt>
<wgt id='6023'>0.69631E+03</wgt>
<wgt id='6024'>0.70224E+03</wgt>
<wgt id='6025'>0.70202E+03</wgt>
<wgt id='6026'>0.69789E+03</wgt>
<wgt id='6027'>0.70007E+03</wgt>
<wgt id='6028'>0.69949E+03</wgt>
<wgt id='6029'>0.69702E+03</wgt>
<wgt id='6030'>0.70332E+03</wgt>
<wgt id='6031'>0.69208E+03</wgt>
<wgt id='6032'>0.70871E+03</wgt>
<wgt id='6033'>0.70308E+03</wgt>
<wgt id='6034'>0.69676E+03</wgt>
<wgt id='6035'>0.70114E+03</wgt>
<wgt id='6036'>0.69642E+03</wgt>
<wgt id='6037'>0.70028E+03</wgt>
<wgt id='6038'>0.69965E+03</wgt>
<wgt id='6039'>0.69816E+03</wgt>
<wgt id='6040'>0.70182E+03</wgt>
<wgt id='6041'>0.69421E+03</wgt>
<wgt id='6042'>0.70623E+03</wgt>
<wgt id='6043'>0.70476E+03</wgt>
<wgt id='6044'>0.69704E+03</wgt>
<wgt id='6045'>0.69906E+03</wgt>
<wgt id='6046'>0.70183E+03</wgt>
<wgt id='6047'>0.70972E+03</wgt>
<wgt id='6048'>0.68690E+03</wgt>
<wgt id='6049'>0.70431E+03</wgt>
<wgt id='6050'>0.69764E+03</wgt>
<wgt id='7000'>0.67899E+03</wgt>
<wgt id='7001'>0.67866E+03</wgt>
<wgt id='7002'>0.67937E+03</wgt>
<wgt id='7003'>0.68108E+03</wgt>
<wgt id='7004'>0.67682E+03</wgt>
<wgt id='7005'>0.68113E+03</wgt>
<wgt id='7006'>0.67808E+03</wgt>
<wgt id='7007'>0.67868E+03</wgt>
<wgt id='7008'>0.67926E+03</wgt>
<wgt id='7009'>0.67935E+03</wgt>
<wgt id='7010'>0.67859E+03</wgt>
<wgt id='7011'>0.67777E+03</wgt>
<wgt id='7012'>0.67946E+03</wgt>
<wgt id='7013'>0.67888E+03</wgt>
<wgt id='7014'>0.67905E+03</wgt>
<wgt id='7015'>0.67900E+03</wgt>
<wgt id='7016'>0.67893E+03</wgt>
<wgt id='7017'>0.67999E+03</wgt>
<wgt id='7018'>0.67838E+03</wgt>
<wgt id='7019'>0.67910E+03</wgt>
<wgt id='7020'>0.67873E+03</wgt>
<wgt id='7021'>0.67776E+03</wgt>
<wgt id='7022'>0.67980E+03</wgt>
<wgt id='7023'>0.68424E+03</wgt>
<wgt id='7024'>0.67401E+03</wgt>
<wgt id='7025'>0.68059E+03</wgt>
<wgt id='7026'>0.67485E+03</wgt>
<wgt id='7027'>0.67905E+03</wgt>
<wgt id='7028'>0.67806E+03</wgt>
<wgt id='7029'>0.68125E+03</wgt>
<wgt id='7030'>0.67355E+03</wgt>
<wgt id='7031'>0.67572E+03</wgt>
<wgt id='7032'>0.68563E+03</wgt>
<wgt id='7033'>0.68001E+03</wgt>
<wgt id='7034'>0.67666E+03</wgt>
<wgt id='7035'>0.67428E+03</wgt>
<wgt id='7036'>0.68085E+03</wgt>
<wgt id='7037'>0.67868E+03</wgt>
<wgt id='7038'>0.67882E+03</wgt>
<wgt id='7039'>0.67656E+03</wgt>
<wgt id='7040'>0.68080E+03</wgt>
<wgt id='7041'>0.68002E+03</wgt>
<wgt id='7042'>0.67707E+03</wgt>
<wgt id='7043'>0.67959E+03</wgt>
<wgt id='7044'>0.67543E+03</wgt>
<wgt id='7045'>0.66911E+03</wgt>
<wgt id='7046'>0.68587E+03</wgt>
<wgt id='7047'>0.68331E+03</wgt>
<wgt id='7048'>0.67702E+03</wgt>
<wgt id='7049'>0.67409E+03</wgt>
<wgt id='7050'>0.68198E+03</wgt>
<wgt id='7060'>0.77277E+03</wgt>
<wgt id='8000'>0.67248E+03</wgt>
<wgt id='8001'>0.67245E+03</wgt>
<wgt id='8002'>0.67267E+03</wgt>
<wgt id='8003'>0.67248E+03</wgt>
<wgt id='8004'>0.67246E+03</wgt>
<wgt id='8005'>0.67141E+03</wgt>
<wgt id='8006'>0.67338E+03</wgt>
<wgt id='8007'>0.67424E+03</wgt>
<wgt id='8008'>0.67396E+03</wgt>
<wgt id='8009'>0.67518E+03</wgt>
<wgt id='8010'>0.67161E+03</wgt>
<wgt id='8011'>0.67269E+03</wgt>
<wgt id='8012'>0.66971E+03</wgt>
<wgt id='8013'>0.67100E+03</wgt>
<wgt id='8014'>0.67443E+03</wgt>
<wgt id='8015'>0.67213E+03</wgt>
<wgt id='8016'>0.67319E+03</wgt>
<wgt id='8017'>0.67305E+03</wgt>
<wgt id='8018'>0.67442E+03</wgt>
<wgt id='8019'>0.67277E+03</wgt>
<wgt id='8020'>0.67256E+03</wgt>
<wgt id='8021'>0.67179E+03</wgt>
<wgt id='8022'>0.67258E+03</wgt>
<wgt id='8023'>0.67148E+03</wgt>
<wgt id='8024'>0.66982E+03</wgt>
<wgt id='8025'>0.67157E+03</wgt>
<wgt id='8026'>0.67320E+03</wgt>
<wgt id='8027'>0.67322E+03</wgt>
<wgt id='8028'>0.67289E+03</wgt>
<wgt id='8029'>0.67261E+03</wgt>
<wgt id='8500'>0.70278E+03</wgt>
<wgt id='8501'>0.69769E+03</wgt>
<wgt id='8502'>0.70741E+03</wgt>
<wgt id='8503'>0.70425E+03</wgt>
<wgt id='8504'>0.69943E+03</wgt>
<wgt id='8505'>0.70187E+03</wgt>
<wgt id='8506'>0.70817E+03</wgt>
<wgt id='8507'>0.69320E+03</wgt>
<wgt id='8508'>0.68783E+03</wgt>
<wgt id='8509'>0.70924E+03</wgt>
<wgt id='8510'>0.71042E+03</wgt>
<wgt id='8511'>0.70165E+03</wgt>
<wgt id='8512'>0.70268E+03</wgt>
<wgt id='8513'>0.70327E+03</wgt>
<wgt id='8514'>0.69173E+03</wgt>
<wgt id='8515'>0.70832E+03</wgt>
<wgt id='8516'>0.70042E+03</wgt>
<wgt id='8517'>0.69949E+03</wgt>
<wgt id='8518'>0.69878E+03</wgt>
<wgt id='8519'>0.69804E+03</wgt>
<wgt id='8520'>0.69972E+03</wgt>
<wgt id='8521'>0.70072E+03</wgt>
<wgt id='8522'>0.70574E+03</wgt>
<wgt id='8523'>0.69967E+03</wgt>
<wgt id='8524'>0.70343E+03</wgt>
<wgt id='8525'>0.70370E+03</wgt>
<wgt id='8526'>0.70183E+03</wgt>
<wgt id='8527'>0.70202E+03</wgt>
<wgt id='8528'>0.70211E+03</wgt>
<wgt id='8529'>0.70183E+03</wgt>
<wgt id='8530'>0.70378E+03</wgt>
<wgt id='8531'>0.70262E+03</wgt>
<wgt id='8532'>0.70270E+03</wgt>
<wgt id='8533'>0.70137E+03</wgt>
<wgt id='8534'>0.70299E+03</wgt>
<wgt id='8535'>0.70440E+03</wgt>
<wgt id='8536'>0.70244E+03</wgt>
<wgt id='8537'>0.70279E+03</wgt>
<wgt id='8538'>0.70279E+03</wgt>
<wgt id='8539'>0.70323E+03</wgt>
<wgt id='8540'>0.70340E+03</wgt>
<wgt id='8541'>0.70345E+03</wgt>
<wgt id='8542'>0.70320E+03</wgt>
<wgt id='8543'>0.70197E+03</wgt>
<wgt id='8544'>0.70379E+03</wgt>
<wgt id='8545'>0.70313E+03</wgt>
<wgt id='8546'>0.70362E+03</wgt>
<wgt id='8547'>0.70216E+03</wgt>
<wgt id='8548'>0.70254E+03</wgt>
<wgt id='8549'>0.70297E+03</wgt>
<wgt id='8550'>0.70213E+03</wgt>
<wgt id='8551'>0.70240E+03</wgt>
<wgt id='8552'>0.70221E+03</wgt>
<wgt id='8553'>0.70174E+03</wgt>
<wgt id='8554'>0.70233E+03</wgt>
<wgt id='8555'>0.70282E+03</wgt>
<wgt id='8556'>0.70252E+03</wgt>
<wgt id='8557'>0.70302E+03</wgt>
<wgt id='8558'>0.70369E+03</wgt>
<wgt id='8559'>0.70261E+03</wgt>
<wgt id='8560'>0.70180E+03</wgt>
<wgt id='8561'>0.70321E+03</wgt>
<wgt id='8562'>0.70238E+03</wgt>
<wgt id='8563'>0.70278E+03</wgt>
<wgt id='8564'>0.70245E+03</wgt>
<wgt id='8565'>0.70304E+03</wgt>
<wgt id='8566'>0.70321E+03</wgt>
<wgt id='8567'>0.70276E+03</wgt>
<wgt id='8568'>0.70335E+03</wgt>
<wgt id='8569'>0.70315E+03</wgt>
<wgt id='8570'>0.70252E+03</wgt>
<wgt id='8571'>0.70214E+03</wgt>
<wgt id='8572'>0.70229E+03</wgt>
<wgt id='8573'>0.70245E+03</wgt>
<wgt id='8574'>0.70237E+03</wgt>
<wgt id='8575'>0.70263E+03</wgt>
<wgt id='8576'>0.70284E+03</wgt>
<wgt id='8577'>0.70233E+03</wgt>
<wgt id='8578'>0.70262E+03</wgt>
<wgt id='8579'>0.70337E+03</wgt>
<wgt id='8580'>0.70271E+03</wgt>
<wgt id='8581'>0.70319E+03</wgt>
<wgt id='8582'>0.70239E+03</wgt>
<wgt id='8583'>0.70299E+03</wgt>
<wgt id='8584'>0.70330E+03</wgt>
<wgt id='8585'>0.70301E+03</wgt>
<wgt id='8586'>0.70361E+03</wgt>
<wgt id='8587'>0.70292E+03</wgt>
<wgt id='8588'>0.70280E+03</wgt>
<wgt id='8589'>0.70277E+03</wgt>
<wgt id='8590'>0.70285E+03</wgt>
<wgt id='8591'>0.70238E+03</wgt>
<wgt id='8592'>0.70271E+03</wgt>
<wgt id='8593'>0.70260E+03</wgt>
<wgt id='8594'>0.70264E+03</wgt>
<wgt id='8595'>0.70270E+03</wgt>
<wgt id='8596'>0.70272E+03</wgt>
<wgt id='8597'>0.70295E+03</wgt>
<wgt id='8598'>0.70294E+03</wgt>
<wgt id='8599'>0.70284E+03</wgt>
<wgt id='8600'>0.70280E+03</wgt>
<wgt id='8601'>0.69452E+03</wgt>
<wgt id='8602'>0.71120E+03</wgt>
<wgt id='9000'>0.68221E+03</wgt>
<wgt id='9001'>0.68185E+03</wgt>
<wgt id='9002'>0.68388E+03</wgt>
<wgt id='9003'>0.67948E+03</wgt>
<wgt id='9004'>0.68348E+03</wgt>
<wgt id='9005'>0.68610E+03</wgt>
<wgt id='9006'>0.68177E+03</wgt>
<wgt id='9007'>0.67743E+03</wgt>
<wgt id='9008'>0.68036E+03</wgt>
<wgt id='9009'>0.68273E+03</wgt>
<wgt id='9010'>0.67801E+03</wgt>
<wgt id='9011'>0.68689E+03</wgt>
<wgt id='9012'>0.68878E+03</wgt>
<wgt id='9013'>0.67994E+03</wgt>
<wgt id='9014'>0.68489E+03</wgt>
<wgt id='9015'>0.68050E+03</wgt>
<wgt id='9016'>0.69003E+03</wgt>
<wgt id='9017'>0.67652E+03</wgt>
<wgt id='9018'>0.68225E+03</wgt>
<wgt id='9019'>0.68384E+03</wgt>
<wgt id='9020'>0.68747E+03</wgt>
<wgt id='9021'>0.68142E+03</wgt>
<wgt id='9022'>0.68393E+03</wgt>
<wgt id='9023'>0.67723E+03</wgt>
<wgt id='9024'>0.68026E+03</wgt>
<wgt id='9025'>0.68369E+03</wgt>
<wgt id='9026'>0.68210E+03</wgt>
<wgt id='9027'>0.68173E+03</wgt>
<wgt id='9028'>0.68276E+03</wgt>
<wgt id='9029'>0.68294E+03</wgt>
<wgt id='9030'>0.68279E+03</wgt>
<wgt id='9031'>0.68131E+03</wgt>
<wgt id='9032'>0.68263E+03</wgt>
<wgt id='9033'>0.68282E+03</wgt>
<wgt id='9034'>0.68260E+03</wgt>
<wgt id='9035'>0.68279E+03</wgt>
<wgt id='9036'>0.68255E+03</wgt>
<wgt id='9037'>0.68269E+03</wgt>
<wgt id='9038'>0.68278E+03</wgt>
<wgt id='9039'>0.68223E+03</wgt>
<wgt id='9040'>0.68181E+03</wgt>
<wgt id='9041'>0.68237E+03</wgt>
<wgt id='9042'>0.68251E+03</wgt>
<wgt id='9043'>0.68129E+03</wgt>
<wgt id='9044'>0.68240E+03</wgt>
<wgt id='9045'>0.68259E+03</wgt>
<wgt id='9046'>0.68131E+03</wgt>
<wgt id='9047'>0.68254E+03</wgt>
<wgt id='9048'>0.68258E+03</wgt>
<wgt id='9049'>0.68181E+03</wgt>
<wgt id='9050'>0.68221E+03</wgt>
<wgt id='9051'>0.68272E+03</wgt>
<wgt id='9052'>0.68279E+03</wgt>
<wgt id='9053'>0.68212E+03</wgt>
<wgt id='9054'>0.68188E+03</wgt>
<wgt id='9055'>0.68178E+03</wgt>
<wgt id='9056'>0.68272E+03</wgt>
<wgt id='9057'>0.68236E+03</wgt>
<wgt id='9058'>0.68128E+03</wgt>
<wgt id='9059'>0.68175E+03</wgt>
<wgt id='9060'>0.68185E+03</wgt>
<wgt id='9061'>0.68224E+03</wgt>
<wgt id='9062'>0.68234E+03</wgt>
<wgt id='9063'>0.68242E+03</wgt>
<wgt id='9064'>0.68222E+03</wgt>
<wgt id='9065'>0.68204E+03</wgt>
<wgt id='9066'>0.68218E+03</wgt>
<wgt id='9067'>0.68246E+03</wgt>
<wgt id='9068'>0.68236E+03</wgt>
<wgt id='9069'>0.68284E+03</wgt>
<wgt id='9070'>0.68201E+03</wgt>
<wgt id='9071'>0.68275E+03</wgt>
<wgt id='9072'>0.68279E+03</wgt>
<wgt id='9073'>0.68205E+03</wgt>
<wgt id='9074'>0.68232E+03</wgt>
<wgt id='9075'>0.68216E+03</wgt>
<wgt id='9076'>0.68211E+03</wgt>
<wgt id='9077'>0.68244E+03</wgt>
<wgt id='9078'>0.68221E+03</wgt>
<wgt id='9079'>0.68210E+03</wgt>
<wgt id='9080'>0.68304E+03</wgt>
<wgt id='9081'>0.68217E+03</wgt>
<wgt id='9082'>0.68246E+03</wgt>
<wgt id='9083'>0.68194E+03</wgt>
<wgt id='9084'>0.68184E+03</wgt>
<wgt id='9085'>0.68179E+03</wgt>
<wgt id='9086'>0.68243E+03</wgt>
<wgt id='9087'>0.68143E+03</wgt>
<wgt id='9088'>0.68189E+03</wgt>
<wgt id='9089'>0.68191E+03</wgt>
<wgt id='9090'>0.68234E+03</wgt>
<wgt id='9091'>0.68200E+03</wgt>
<wgt id='9092'>0.68211E+03</wgt>
<wgt id='9093'>0.68202E+03</wgt>
<wgt id='9094'>0.68202E+03</wgt>
<wgt id='9095'>0.68227E+03</wgt>
<wgt id='9096'>0.68205E+03</wgt>
<wgt id='9097'>0.68229E+03</wgt>
<wgt id='9098'>0.68213E+03</wgt>
<wgt id='9099'>0.68201E+03</wgt>
<wgt id='9100'>0.68222E+03</wgt>
<wgt id='9101'>0.67405E+03</wgt>
<wgt id='9102'>0.69135E+03</wgt>
<wgt id='10000'>0.70281E+03</wgt>
<wgt id='10001'>0.70685E+03</wgt>
<wgt id='10002'>0.69407E+03</wgt>
<wgt id='10003'>0.70212E+03</wgt>
<wgt id='10004'>0.68670E+03</wgt>
<wgt id='10005'>0.70444E+03</wgt>
<wgt id='10006'>0.69806E+03</wgt>
<wgt id='10007'>0.70252E+03</wgt>
<wgt id='10008'>0.70551E+03</wgt>
<wgt id='10009'>0.69853E+03</wgt>
<wgt id='10010'>0.70577E+03</wgt>
<wgt id='10011'>0.69739E+03</wgt>
<wgt id='10012'>0.70295E+03</wgt>
<wgt id='10013'>0.70417E+03</wgt>
<wgt id='10014'>0.70110E+03</wgt>
<wgt id='10015'>0.70221E+03</wgt>
<wgt id='10016'>0.69869E+03</wgt>
<wgt id='10017'>0.71130E+03</wgt>
<wgt id='10018'>0.70449E+03</wgt>
<wgt id='10019'>0.69994E+03</wgt>
<wgt id='10020'>0.70018E+03</wgt>
<wgt id='10021'>0.70188E+03</wgt>
<wgt id='10022'>0.70238E+03</wgt>
<wgt id='10023'>0.70336E+03</wgt>
<wgt id='10024'>0.70146E+03</wgt>
<wgt id='10025'>0.70197E+03</wgt>
<wgt id='10026'>0.70678E+03</wgt>
<wgt id='10027'>0.70531E+03</wgt>
<wgt id='10028'>0.71468E+03</wgt>
<wgt id='10029'>0.70333E+03</wgt>
<wgt id='10030'>0.70230E+03</wgt>
<wgt id='10031'>0.69452E+03</wgt>
<wgt id='10032'>0.71120E+03</wgt>
<wgt id='11000'>0.68223E+03</wgt>
<wgt id='11001'>0.66718E+03</wgt>
<wgt id='11002'>0.68406E+03</wgt>
<wgt id='11003'>0.68201E+03</wgt>
<wgt id='11004'>0.68428E+03</wgt>
<wgt id='11005'>0.68294E+03</wgt>
<wgt id='11006'>0.68277E+03</wgt>
<wgt id='11007'>0.68138E+03</wgt>
<wgt id='11008'>0.68246E+03</wgt>
<wgt id='11009'>0.68095E+03</wgt>
<wgt id='11010'>0.67733E+03</wgt>
<wgt id='11011'>0.68122E+03</wgt>
<wgt id='11012'>0.68217E+03</wgt>
<wgt id='11013'>0.68312E+03</wgt>
<wgt id='11014'>0.68151E+03</wgt>
<wgt id='11015'>0.68171E+03</wgt>
<wgt id='11016'>0.68238E+03</wgt>
<wgt id='11017'>0.68427E+03</wgt>
<wgt id='11018'>0.68179E+03</wgt>
<wgt id='11019'>0.68187E+03</wgt>
<wgt id='11020'>0.68417E+03</wgt>
<wgt id='11021'>0.68274E+03</wgt>
<wgt id='11022'>0.68691E+03</wgt>
<wgt id='11023'>0.68274E+03</wgt>
<wgt id='11024'>0.68305E+03</wgt>
<wgt id='11025'>0.68243E+03</wgt>
<wgt id='11026'>0.68226E+03</wgt>
<wgt id='11027'>0.68248E+03</wgt>
<wgt id='11028'>0.68302E+03</wgt>
<wgt id='11029'>0.68185E+03</wgt>
<wgt id='11030'>0.68219E+03</wgt>
<wgt id='11031'>0.67405E+03</wgt>
<wgt id='11032'>0.69135E+03</wgt>
<wgt id='12000'>0.66007E+03</wgt>
<wgt id='12001'>0.65923E+03</wgt>
<wgt id='12002'>0.66091E+03</wgt>
<wgt id='12003'>0.66021E+03</wgt>
<wgt id='12004'>0.65993E+03</wgt>
<wgt id='12005'>0.66098E+03</wgt>
<wgt id='12006'>0.65916E+03</wgt>
<wgt id='12007'>0.66362E+03</wgt>
<wgt id='12008'>0.65659E+03</wgt>
<wgt id='12009'>0.65902E+03</wgt>
<wgt id='12010'>0.66113E+03</wgt>
<wgt id='12011'>0.65538E+03</wgt>
<wgt id='12012'>0.66530E+03</wgt>
<wgt id='12013'>0.65821E+03</wgt>
<wgt id='12014'>0.66196E+03</wgt>
<wgt id='12015'>0.66158E+03</wgt>
<wgt id='12016'>0.65737E+03</wgt>
<wgt id='12017'>0.66342E+03</wgt>
<wgt id='12018'>0.65814E+03</wgt>
<wgt id='12019'>0.66078E+03</wgt>
<wgt id='12020'>0.65873E+03</wgt>
<wgt id='12021'>0.66060E+03</wgt>
<wgt id='12022'>0.65965E+03</wgt>
<wgt id='12023'>0.65428E+03</wgt>
<wgt id='12024'>0.66515E+03</wgt>
<wgt id='12025'>0.65719E+03</wgt>
<wgt id='12026'>0.66317E+03</wgt>
<wgt id='12027'>0.66946E+03</wgt>
<wgt id='12028'>0.65135E+03</wgt>
<wgt id='12050'>0.66007E+03</wgt>
<wgt id='12051'>0.65429E+03</wgt>
<wgt id='12052'>0.64651E+03</wgt>
<wgt id='12053'>0.65443E+03</wgt>
<wgt id='12054'>0.64806E+03</wgt>
<wgt id='12055'>0.65076E+03</wgt>
<wgt id='12056'>0.65613E+03</wgt>
<wgt id='12057'>0.65111E+03</wgt>
<wgt id='12058'>0.65179E+03</wgt>
<wgt id='12059'>0.65574E+03</wgt>
<wgt id='12060'>0.64698E+03</wgt>
<wgt id='12061'>0.64822E+03</wgt>
<wgt id='12062'>0.64891E+03</wgt>
<wgt id='12063'>0.65004E+03</wgt>
<wgt id='13000'>0.67113E+03</wgt>
<wgt id='13001'>0.66013E+03</wgt>
<wgt id='13002'>0.66158E+03</wgt>
<wgt id='13003'>0.66042E+03</wgt>
<wgt id='13004'>0.66129E+03</wgt>
<wgt id='13005'>0.66148E+03</wgt>
<wgt id='13006'>0.66023E+03</wgt>
<wgt id='13007'>0.66501E+03</wgt>
<wgt id='13008'>0.65682E+03</wgt>
<wgt id='13009'>0.65756E+03</wgt>
<wgt id='13010'>0.66426E+03</wgt>
<wgt id='13011'>0.66312E+03</wgt>
<wgt id='13012'>0.65863E+03</wgt>
<wgt id='13013'>0.66008E+03</wgt>
<wgt id='13014'>0.66157E+03</wgt>
<wgt id='13015'>0.66040E+03</wgt>
<wgt id='13016'>0.65928E+03</wgt>
<wgt id='13017'>0.66107E+03</wgt>
<wgt id='13018'>0.66071E+03</wgt>
<wgt id='13019'>0.65989E+03</wgt>
<wgt id='13020'>0.66193E+03</wgt>
<wgt id='13021'>0.66384E+03</wgt>
<wgt id='13022'>0.65798E+03</wgt>
<wgt id='13023'>0.65726E+03</wgt>
<wgt id='13024'>0.66463E+03</wgt>
<wgt id='13025'>0.65188E+03</wgt>
<wgt id='13026'>0.66961E+03</wgt>
<wgt id='13027'>0.65704E+03</wgt>
<wgt id='13028'>0.66500E+03</wgt>
<wgt id='13050'>0.67113E+03</wgt>
<wgt id='13051'>0.66385E+03</wgt>
<wgt id='13052'>0.65420E+03</wgt>
<wgt id='13053'>0.66361E+03</wgt>
<wgt id='13054'>0.65863E+03</wgt>
<wgt id='13055'>0.65038E+03</wgt>
<wgt id='13056'>0.65780E+03</wgt>
<wgt id='13057'>0.66042E+03</wgt>
<wgt id='13058'>0.66312E+03</wgt>
<wgt id='13059'>0.66414E+03</wgt>
<wgt id='13060'>0.64358E+03</wgt>
<wgt id='13061'>0.66010E+03</wgt>
<wgt id='13062'>0.66316E+03</wgt>
<wgt id='13063'>0.66490E+03</wgt>
<wgt id='14000'>0.67966E+03</wgt>
<wgt id='14001'>0.67958E+03</wgt>
<wgt id='14002'>0.67950E+03</wgt>
<wgt id='14003'>0.67943E+03</wgt>
<wgt id='14004'>0.67935E+03</wgt>
<wgt id='14005'>0.67927E+03</wgt>
<wgt id='14006'>0.67919E+03</wgt>
<wgt id='14007'>0.67911E+03</wgt>
<wgt id='14008'>0.67904E+03</wgt>
<wgt id='14009'>0.67896E+03</wgt>
<wgt id='14010'>0.67888E+03</wgt>
<wgt id='14011'>0.67880E+03</wgt>
<wgt id='14012'>0.67873E+03</wgt>
<wgt id='14013'>0.67865E+03</wgt>
<wgt id='14014'>0.67857E+03</wgt>
<wgt id='14015'>0.67849E+03</wgt>
<wgt id='14016'>0.67841E+03</wgt>
<wgt id='14017'>0.67834E+03</wgt>
<wgt id='14018'>0.67826E+03</wgt>
<wgt id='14019'>0.67818E+03</wgt>
<wgt id='14020'>0.67810E+03</wgt>
<wgt id='14021'>0.67802E+03</wgt>
<wgt id='14022'>0.67795E+03</wgt>
<wgt id='14023'>0.67787E+03</wgt>
<wgt id='14024'>0.67779E+03</wgt>
<wgt id='14025'>0.67771E+03</wgt>
<wgt id='14026'>0.67764E+03</wgt>
<wgt id='14027'>0.67756E+03</wgt>
<wgt id='14028'>0.67748E+03</wgt>
<wgt id='14029'>0.67740E+03</wgt>
<wgt id='14030'>0.67732E+03</wgt>
<wgt id='15000'>0.67447E+03</wgt>
<wgt id='15001'>0.67406E+03</wgt>
<wgt id='15002'>0.67601E+03</wgt>
<wgt id='15003'>0.67188E+03</wgt>
<wgt id='15004'>0.67574E+03</wgt>
<wgt id='15005'>0.67835E+03</wgt>
<wgt id='15006'>0.67414E+03</wgt>
<wgt id='15007'>0.66975E+03</wgt>
<wgt id='15008'>0.67263E+03</wgt>
<wgt id='15009'>0.67503E+03</wgt>
<wgt id='15010'>0.67037E+03</wgt>
<wgt id='15011'>0.67915E+03</wgt>
<wgt id='15012'>0.68099E+03</wgt>
<wgt id='15013'>0.67234E+03</wgt>
<wgt id='15014'>0.67702E+03</wgt>
<wgt id='15015'>0.67254E+03</wgt>
<wgt id='15016'>0.68226E+03</wgt>
<wgt id='15017'>0.66882E+03</wgt>
<wgt id='15018'>0.67449E+03</wgt>
<wgt id='15019'>0.67614E+03</wgt>
<wgt id='15020'>0.67978E+03</wgt>
<wgt id='15021'>0.67359E+03</wgt>
<wgt id='15022'>0.67619E+03</wgt>
<wgt id='15023'>0.66953E+03</wgt>
<wgt id='15024'>0.67247E+03</wgt>
<wgt id='15025'>0.67585E+03</wgt>
<wgt id='15026'>0.67427E+03</wgt>
<wgt id='15027'>0.67408E+03</wgt>
<wgt id='15028'>0.67506E+03</wgt>
<wgt id='15029'>0.67517E+03</wgt>
<wgt id='15030'>0.67503E+03</wgt>
<wgt id='15031'>0.67367E+03</wgt>
<wgt id='15032'>0.67486E+03</wgt>
<wgt id='15033'>0.67507E+03</wgt>
<wgt id='15034'>0.67482E+03</wgt>
<wgt id='15035'>0.67504E+03</wgt>
<wgt id='15036'>0.67481E+03</wgt>
<wgt id='15037'>0.67496E+03</wgt>
<wgt id='15038'>0.67501E+03</wgt>
<wgt id='15039'>0.67445E+03</wgt>
<wgt id='15040'>0.67406E+03</wgt>
<wgt id='15041'>0.67458E+03</wgt>
<wgt id='15042'>0.67472E+03</wgt>
<wgt id='15043'>0.67362E+03</wgt>
<wgt id='15044'>0.67465E+03</wgt>
<wgt id='15045'>0.67481E+03</wgt>
<wgt id='15046'>0.67360E+03</wgt>
<wgt id='15047'>0.67475E+03</wgt>
<wgt id='15048'>0.67485E+03</wgt>
<wgt id='15049'>0.67404E+03</wgt>
<wgt id='15050'>0.67449E+03</wgt>
<wgt id='15051'>0.67498E+03</wgt>
<wgt id='15052'>0.67503E+03</wgt>
<wgt id='15053'>0.67440E+03</wgt>
<wgt id='15054'>0.67415E+03</wgt>
<wgt id='15055'>0.67405E+03</wgt>
<wgt id='15056'>0.67494E+03</wgt>
<wgt id='15057'>0.67461E+03</wgt>
<wgt id='15058'>0.67359E+03</wgt>
<wgt id='15059'>0.67403E+03</wgt>
<wgt id='15060'>0.67412E+03</wgt>
<wgt id='15061'>0.67450E+03</wgt>
<wgt id='15062'>0.67458E+03</wgt>
<wgt id='15063'>0.67468E+03</wgt>
<wgt id='15064'>0.67447E+03</wgt>
<wgt id='15065'>0.67430E+03</wgt>
<wgt id='15066'>0.67445E+03</wgt>
<wgt id='15067'>0.67469E+03</wgt>
<wgt id='15068'>0.67462E+03</wgt>
<wgt id='15069'>0.67507E+03</wgt>
<wgt id='15070'>0.67426E+03</wgt>
<wgt id='15071'>0.67502E+03</wgt>
<wgt id='15072'>0.67504E+03</wgt>
<wgt id='15073'>0.67428E+03</wgt>
<wgt id='15074'>0.67458E+03</wgt>
<wgt id='15075'>0.67442E+03</wgt>
<wgt id='15076'>0.67439E+03</wgt>
<wgt id='15077'>0.67469E+03</wgt>
<wgt id='15078'>0.67450E+03</wgt>
<wgt id='15079'>0.67436E+03</wgt>
<wgt id='15080'>0.67526E+03</wgt>
<wgt id='15081'>0.67445E+03</wgt>
<wgt id='15082'>0.67472E+03</wgt>
<wgt id='15083'>0.67419E+03</wgt>
<wgt id='15084'>0.67409E+03</wgt>
<wgt id='15085'>0.67406E+03</wgt>
<wgt id='15086'>0.67471E+03</wgt>
<wgt id='15087'>0.67369E+03</wgt>
<wgt id='15088'>0.67414E+03</wgt>
<wgt id='15089'>0.67416E+03</wgt>
<wgt id='15090'>0.67460E+03</wgt>
<wgt id='15091'>0.67425E+03</wgt>
<wgt id='15092'>0.67436E+03</wgt>
<wgt id='15093'>0.67428E+03</wgt>
<wgt id='15094'>0.67427E+03</wgt>
<wgt id='15095'>0.67453E+03</wgt>
<wgt id='15096'>0.67431E+03</wgt>
<wgt id='15097'>0.67455E+03</wgt>
<wgt id='15098'>0.67439E+03</wgt>
<wgt id='15099'>0.67427E+03</wgt>
<wgt id='15100'>0.67448E+03</wgt>
<wgt id='15101'>0.67446E+03</wgt>
<wgt id='15102'>0.67442E+03</wgt>
<wgt id='15103'>0.67447E+03</wgt>
<wgt id='15104'>0.67447E+03</wgt>
<wgt id='15105'>0.67449E+03</wgt>
<wgt id='15106'>0.67447E+03</wgt>
<wgt id='15107'>0.67443E+03</wgt>
<wgt id='1500'>0.73100E+03</wgt>
<wgt id='1501'>0.73485E+03</wgt>
<wgt id='1502'>0.73123E+03</wgt>
<wgt id='1503'>0.74459E+03</wgt>
<wgt id='1504'>0.71702E+03</wgt>
<wgt id='1505'>0.71990E+03</wgt>
<wgt id='1506'>0.74964E+03</wgt>
<wgt id='1507'>0.72629E+03</wgt>
<wgt id='1508'>0.73818E+03</wgt>
<wgt id='1509'>0.74610E+03</wgt>
<wgt id='1510'>0.71210E+03</wgt>
<wgt id='1511'>0.68378E+03</wgt>
<wgt id='1512'>0.74129E+03</wgt>
<wgt id='1513'>0.73610E+03</wgt>
<wgt id='1514'>0.72614E+03</wgt>
<wgt id='1515'>0.75234E+03</wgt>
<wgt id='1516'>0.74055E+03</wgt>
<wgt id='1517'>0.74249E+03</wgt>
<wgt id='1518'>0.74473E+03</wgt>
<wgt id='1519'>0.74093E+03</wgt>
<wgt id='1520'>0.76705E+03</wgt>
<wgt id='1521'>0.73662E+03</wgt>
<wgt id='1522'>0.71286E+03</wgt>
<wgt id='1523'>0.76803E+03</wgt>
<wgt id='1524'>0.72729E+03</wgt>
<wgt id='1525'>0.72217E+03</wgt>
<wgt id='1526'>0.73446E+03</wgt>
<wgt id='1527'>0.74118E+03</wgt>
<wgt id='1528'>0.72186E+03</wgt>
<wgt id='1529'>0.75020E+03</wgt>
<wgt id='1530'>0.75222E+03</wgt>
<wgt id='1531'>0.71875E+03</wgt>
<wgt id='1532'>0.71120E+03</wgt>
<wgt id='1533'>0.70868E+03</wgt>
<wgt id='1534'>0.72198E+03</wgt>
<wgt id='1535'>0.74840E+03</wgt>
<wgt id='1536'>0.72592E+03</wgt>
<wgt id='1537'>0.74480E+03</wgt>
<wgt id='1538'>0.73705E+03</wgt>
<wgt id='1539'>0.73078E+03</wgt>
<wgt id='1540'>0.71680E+03</wgt>
<wgt id='1541'>0.73828E+03</wgt>
<wgt id='1542'>0.72099E+03</wgt>
<wgt id='1543'>0.71674E+03</wgt>
<wgt id='1544'>0.72859E+03</wgt>
<wgt id='1545'>0.71691E+03</wgt>
<wgt id='1546'>0.74347E+03</wgt>
<wgt id='1547'>0.72701E+03</wgt>
<wgt id='1548'>0.73413E+03</wgt>
<wgt id='1549'>0.72390E+03</wgt>
<wgt id='1550'>0.71896E+03</wgt>
<wgt id='1551'>0.72088E+03</wgt>
<wgt id='1552'>0.71730E+03</wgt>
<wgt id='1553'>0.73234E+03</wgt>
<wgt id='1554'>0.73112E+03</wgt>
<wgt id='1555'>0.71372E+03</wgt>
<wgt id='1556'>0.73225E+03</wgt>
<wgt id='1557'>0.73645E+03</wgt>
<wgt id='1558'>0.71422E+03</wgt>
<wgt id='1559'>0.75184E+03</wgt>
<wgt id='1560'>0.72684E+03</wgt>
<wgt id='1561'>0.72712E+03</wgt>
<wgt id='1562'>0.73871E+03</wgt>
<wgt id='1563'>0.71734E+03</wgt>
<wgt id='1564'>0.72558E+03</wgt>
<wgt id='1565'>0.73175E+03</wgt>
<wgt id='1566'>0.72161E+03</wgt>
<wgt id='1567'>0.78966E+03</wgt>
<wgt id='1568'>0.72721E+03</wgt>
<wgt id='1569'>0.70903E+03</wgt>
<wgt id='1570'>0.70759E+03</wgt>
<wgt id='1571'>0.71454E+03</wgt>
<wgt id='1572'>0.73883E+03</wgt>
<wgt id='1573'>0.72004E+03</wgt>
<wgt id='1574'>0.73811E+03</wgt>
<wgt id='1575'>0.72853E+03</wgt>
<wgt id='1576'>0.70598E+03</wgt>
<wgt id='1577'>0.71856E+03</wgt>
<wgt id='1578'>0.74022E+03</wgt>
<wgt id='1579'>0.72650E+03</wgt>
<wgt id='1580'>0.72148E+03</wgt>
<wgt id='1581'>0.72800E+03</wgt>
<wgt id='1582'>0.71049E+03</wgt>
<wgt id='1583'>0.76523E+03</wgt>
<wgt id='1584'>0.72372E+03</wgt>
<wgt id='1585'>0.72741E+03</wgt>
<wgt id='1586'>0.72246E+03</wgt>
<wgt id='1587'>0.73333E+03</wgt>
<wgt id='1588'>0.73080E+03</wgt>
<wgt id='1589'>0.76694E+03</wgt>
<wgt id='1590'>0.71878E+03</wgt>
<wgt id='1591'>0.73015E+03</wgt>
<wgt id='1592'>0.72144E+03</wgt>
<wgt id='1593'>0.73957E+03</wgt>
<wgt id='1594'>0.74318E+03</wgt>
<wgt id='1595'>0.72500E+03</wgt>
<wgt id='1596'>0.73925E+03</wgt>
<wgt id='1597'>0.73216E+03</wgt>
<wgt id='1598'>0.73039E+03</wgt>
<wgt id='1599'>0.74018E+03</wgt>
<wgt id='1600'>0.75820E+03</wgt>
<wgt id='1601'>0.72458E+03</wgt>
<wgt id='1602'>0.73400E+03</wgt>
<wgt id='1700'>0.69199E+03</wgt>
<wgt id='1800'>0.66585E+03</wgt>
<wgt id='1850'>0.74940E+03</wgt>
<wgt id='1900'>0.74132E+03</wgt>
<wgt id='1950'>0.73260E+03</wgt>
</rwgt>
</event>
<event>
     13 322222  6.87070E+02  2.00795E+01 -1.00000E+00  1.63337E-01
      21    -1     0     0   504   505  0.000000000E+00  0.000000000E+00  5.377447175E+02  5.377447175E+02  0.000000000E+00  0.00000E+00  9.000E+00
      21    -1     0     0   502   503  0.000000000E+00  0.000000000E+00 -2.301842832E+02  2.301842832E+02  0.000000000E+00  0.00000E+00  9.000E+00
       6     2     1     2   502     0  2.428719335E+02  1.471841481E+02  1.589876031E+02  3.673281416E+02  1.703025429E+02  0.00000E+00  9.000E+00
      -6     2     1     2     0   505 -2.629151554E+02 -1.459774753E+02  1.537964129E+02  3.798530252E+02  1.737848725E+02  0.00000E+00  9.000E+00
      21     1     1     2   504   503  2.004322191E+01 -1.206672847E+00 -5.223581786E+00  2.074783388E+01  4.420398764E-07  0.00000E+00  9.000E+00
      24     2     3     3     0     0  1.577839155E+02  1.661804390E+02  1.076913818E+02  2.660603175E+02  8.172488318E+01  0.00000E+00  9.000E+00
       5     1     3     3   502     0  8.508801801E+01 -1.899629090E+01  5.129622130E+01  1.012678241E+02  4.800000000E+00  0.00000E+00 -1.000E+00
     -24     2     4     4     0     0 -1.141613431E+02 -1.362486205E+02  1.022505206E+02  2.220481891E+02  8.516883513E+01  0.00000E+00  9.000E+00
      -5     1     4     4     0   505 -1.487538123E+02 -9.728854828E+00  5.154589226E+01  1.578048361E+02  4.800000000E+00  0.00000E+00  1.000E+00
      -1     1     6     6     0   506  1.026438097E+02  1.228220383E+02  3.269212570E+01  1.633701009E+02  1.000000000E-01  0.00000E+00  1.000E+00
       2     1     6     6   506     0  5.514010576E+01  4.335840071E+01  7.499925613E+01  1.026902167E+02  1.000000000E-01  0.00000E+00 -1.000E+00
       3     1     8     8   509     0 -8.209138326E+01 -1.008777815E+02  2.686854284E+01  1.328054239E+02  2.000000000E-01  0.00000E+00 -1.000E+00
      -4     1     8     8     0   509 -3.206995986E+01 -3.537083892E+01  7.538197780E+01  8.924276525E+01  1.500000000E+00  0.00000E+00  1.000E+00
#rwgt            1           1   383.17443979827789                1        3040           0
<rwgt>
<wgt id='1001'>0.68707E+03</wgt>
<wgt id='1002'>0.74135E+03</wgt>
<wgt id='1003'>0.62279E+03</wgt>
<wgt id='1004'>0.59359E+03</wgt>
<wgt id='1005'>0.63142E+03</wgt>
<wgt id='1006'>0.54853E+03</wgt>
<wgt id='1007'>0.80471E+03</wgt>
<wgt id='1008'>0.88349E+03</wgt>
<wgt id='1009'>0.71185E+03</wgt>
<wgt id='2000'>0.68707E+03</wgt>
<wgt id='2001'>0.68651E+03</wgt>
<wgt id='2002'>0.68734E+03</wgt>
<wgt id='2003'>0.68705E+03</wgt>
<wgt id='2004'>0.68892E+03</wgt>
<wgt id='2005'>0.68679E+03</wgt>
<wgt id='2006'>0.68552E+03</wgt>
<wgt id='2007'>0.68615E+03</wgt>
<wgt id='2008'>0.68528E+03</wgt>
<wgt id='2009'>0.68806E+03</wgt>
<wgt id='2010'>0.68697E+03</wgt>
<wgt id='2011'>0.68465E+03</wgt>
<wgt id='2012'>0.68607E+03</wgt>
<wgt id='2013'>0.68464E+03</wgt>
<wgt id='2014'>0.68716E+03</wgt>
<wgt id='2015'>0.68717E+03</wgt>
<wgt id='2016'>0.68824E+03</wgt>
<wgt id='2017'>0.68665E+03</wgt>
<wgt id='2018'>0.68638E+03</wgt>
<wgt id='2019'>0.68738E+03</wgt>
<wgt id='2020'>0.68730E+03</wgt>
<wgt id='2021'>0.68707E+03</wgt>
<wgt id='2022'>0.68705E+03</wgt>
<wgt id='2023'>0.68815E+03</wgt>
<wgt id='2024'>0.68547E+03</wgt>
<wgt id='2025'>0.68792E+03</wgt>
<wgt id='2026'>0.68922E+03</wgt>
<wgt id='2027'>0.68567E+03</wgt>
<wgt id='2028'>0.68530E+03</wgt>
<wgt id='2029'>0.69134E+03</wgt>
<wgt id='2030'>0.68723E+03</wgt>
<wgt id='2031'>0.68795E+03</wgt>
<wgt id='2032'>0.68685E+03</wgt>
<wgt id='2033'>0.68740E+03</wgt>
<wgt id='2034'>0.68903E+03</wgt>
<wgt id='2035'>0.68665E+03</wgt>
<wgt id='2036'>0.68690E+03</wgt>
<wgt id='2037'>0.68853E+03</wgt>
<wgt id='2038'>0.68676E+03</wgt>
<wgt id='2039'>0.68557E+03</wgt>
<wgt id='2040'>0.68661E+03</wgt>
<wgt id='2041'>0.68650E+03</wgt>
<wgt id='2042'>0.68616E+03</wgt>
<wgt id='2043'>0.68702E+03</wgt>
<wgt id='2044'>0.68808E+03</wgt>
<wgt id='2045'>0.68652E+03</wgt>
<wgt id='2046'>0.68830E+03</wgt>
<wgt id='2047'>0.68819E+03</wgt>
<wgt id='2048'>0.68635E+03</wgt>
<wgt id='2049'>0.68673E+03</wgt>
<wgt id='2050'>0.68778E+03</wgt>
<wgt id='2051'>0.68795E+03</wgt>
<wgt id='2052'>0.68682E+03</wgt>
<wgt id='2053'>0.68731E+03</wgt>
<wgt id='2054'>0.68753E+03</wgt>
<wgt id='2055'>0.68716E+03</wgt>
<wgt id='2056'>0.68707E+03</wgt>
<wgt id='2057'>0.68721E+03</wgt>
<wgt id='2058'>0.68719E+03</wgt>
<wgt id='2059'>0.68682E+03</wgt>
<wgt id='2060'>0.68703E+03</wgt>
<wgt id='2061'>0.68694E+03</wgt>
<wgt id='2062'>0.68741E+03</wgt>
<wgt id='2063'>0.68685E+03</wgt>
<wgt id='2064'>0.68697E+03</wgt>
<wgt id='2065'>0.68749E+03</wgt>
<wgt id='2066'>0.68703E+03</wgt>
<wgt id='2067'>0.68714E+03</wgt>
<wgt id='2068'>0.68728E+03</wgt>
<wgt id='2069'>0.68703E+03</wgt>
<wgt id='2070'>0.68667E+03</wgt>
<wgt id='2071'>0.68653E+03</wgt>
<wgt id='2072'>0.68710E+03</wgt>
<wgt id='2073'>0.68700E+03</wgt>
<wgt id='2074'>0.68650E+03</wgt>
<wgt id='2075'>0.68717E+03</wgt>
<wgt id='2076'>0.68689E+03</wgt>
<wgt id='2077'>0.68689E+03</wgt>
<wgt id='2078'>0.68716E+03</wgt>
<wgt id='2079'>0.68725E+03</wgt>
<wgt id='2080'>0.68706E+03</wgt>
<wgt id='2081'>0.68717E+03</wgt>
<wgt id='2082'>0.68720E+03</wgt>
<wgt id='2083'>0.68716E+03</wgt>
<wgt id='2084'>0.68706E+03</wgt>
<wgt id='2085'>0.68697E+03</wgt>
<wgt id='2086'>0.68709E+03</wgt>
<wgt id='2087'>0.68704E+03</wgt>
<wgt id='2088'>0.68720E+03</wgt>
<wgt id='2089'>0.68709E+03</wgt>
<wgt id='2090'>0.68718E+03</wgt>
<wgt id='2091'>0.68704E+03</wgt>
<wgt id='2092'>0.68717E+03</wgt>
<wgt id='2093'>0.68705E+03</wgt>
<wgt id='2094'>0.68712E+03</wgt>
<wgt id='2095'>0.68709E+03</wgt>
<wgt id='2096'>0.68695E+03</wgt>
<wgt id='2097'>0.68734E+03</wgt>
<wgt id='2098'>0.68688E+03</wgt>
<wgt id='2099'>0.68718E+03</wgt>
<wgt id='2100'>0.68702E+03</wgt>
<wgt id='2101'>0.66808E+03</wgt>
<wgt id='2102'>0.70622E+03</wgt>
<wgt id='2104'>0.59904E+03</wgt>
<wgt id='2105'>0.61716E+03</wgt>
<wgt id='2106'>0.63486E+03</wgt>
<wgt id='2107'>0.65055E+03</wgt>
<wgt id='2108'>0.67817E+03</wgt>
<wgt id='2109'>0.69675E+03</wgt>
<wgt id='2110'>0.72198E+03</wgt>
<wgt id='2111'>0.74013E+03</wgt>
<wgt id='3000'>0.71736E+03</wgt>
<wgt id='3001'>0.71778E+03</wgt>
<wgt id='3002'>0.71712E+03</wgt>
<wgt id='3003'>0.71688E+03</wgt>
<wgt id='3004'>0.71921E+03</wgt>
<wgt id='3005'>0.71739E+03</wgt>
<wgt id='3006'>0.71670E+03</wgt>
<wgt id='3007'>0.71826E+03</wgt>
<wgt id='3008'>0.71744E+03</wgt>
<wgt id='3009'>0.71913E+03</wgt>
<wgt id='3010'>0.71678E+03</wgt>
<wgt id='3011'>0.71582E+03</wgt>
<wgt id='3012'>0.71698E+03</wgt>
<wgt id='3013'>0.71916E+03</wgt>
<wgt id='3014'>0.71712E+03</wgt>
<wgt id='3015'>0.71580E+03</wgt>
<wgt id='3016'>0.71753E+03</wgt>
<wgt id='3017'>0.71672E+03</wgt>
<wgt id='3018'>0.71821E+03</wgt>
<wgt id='3019'>0.71811E+03</wgt>
<wgt id='3020'>0.71733E+03</wgt>
<wgt id='3021'>0.71761E+03</wgt>
<wgt id='3022'>0.71734E+03</wgt>
<wgt id='3023'>0.71701E+03</wgt>
<wgt id='3024'>0.71639E+03</wgt>
<wgt id='3025'>0.71818E+03</wgt>
<wgt id='3026'>0.71733E+03</wgt>
<wgt id='3027'>0.71771E+03</wgt>
<wgt id='3028'>0.71552E+03</wgt>
<wgt id='3029'>0.71500E+03</wgt>
<wgt id='3030'>0.72172E+03</wgt>
<wgt id='3031'>0.71957E+03</wgt>
<wgt id='3032'>0.71762E+03</wgt>
<wgt id='3033'>0.71891E+03</wgt>
<wgt id='3034'>0.71744E+03</wgt>
<wgt id='3035'>0.72044E+03</wgt>
<wgt id='3036'>0.71831E+03</wgt>
<wgt id='3037'>0.71700E+03</wgt>
<wgt id='3038'>0.71756E+03</wgt>
<wgt id='3039'>0.71811E+03</wgt>
<wgt id='3040'>0.71641E+03</wgt>
<wgt id='3041'>0.71760E+03</wgt>
<wgt id='3042'>0.71632E+03</wgt>
<wgt id='3043'>0.71592E+03</wgt>
<wgt id='3044'>0.71810E+03</wgt>
<wgt id='3045'>0.71814E+03</wgt>
<wgt id='3046'>0.71843E+03</wgt>
<wgt id='3047'>0.71731E+03</wgt>
<wgt id='3048'>0.71747E+03</wgt>
<wgt id='3049'>0.71698E+03</wgt>
<wgt id='3050'>0.71657E+03</wgt>
<wgt id='3051'>0.71875E+03</wgt>
<wgt id='3052'>0.71692E+03</wgt>
<wgt id='3053'>0.71736E+03</wgt>
<wgt id='3054'>0.71754E+03</wgt>
<wgt id='3055'>0.71698E+03</wgt>
<wgt id='3056'>0.71759E+03</wgt>
<wgt id='3057'>0.71742E+03</wgt>
<wgt id='3058'>0.71677E+03</wgt>
<wgt id='3059'>0.71760E+03</wgt>
<wgt id='3060'>0.71776E+03</wgt>
<wgt id='3061'>0.71805E+03</wgt>
<wgt id='3062'>0.71759E+03</wgt>
<wgt id='3063'>0.71746E+03</wgt>
<wgt id='3064'>0.71722E+03</wgt>
<wgt id='3065'>0.71732E+03</wgt>
<wgt id='3066'>0.71763E+03</wgt>
<wgt id='3067'>0.71673E+03</wgt>
<wgt id='3068'>0.71752E+03</wgt>
<wgt id='3069'>0.71688E+03</wgt>
<wgt id='3070'>0.71702E+03</wgt>
<wgt id='3071'>0.71724E+03</wgt>
<wgt id='3072'>0.71766E+03</wgt>
<wgt id='3073'>0.71730E+03</wgt>
<wgt id='3074'>0.71760E+03</wgt>
<wgt id='3075'>0.71758E+03</wgt>
<wgt id='3076'>0.71738E+03</wgt>
<wgt id='3077'>0.71729E+03</wgt>
<wgt id='3078'>0.71770E+03</wgt>
<wgt id='3079'>0.71716E+03</wgt>
<wgt id='3080'>0.71718E+03</wgt>
<wgt id='3081'>0.71727E+03</wgt>
<wgt id='3082'>0.71726E+03</wgt>
<wgt id='3083'>0.71727E+03</wgt>
<wgt id='3084'>0.71711E+03</wgt>
<wgt id='3085'>0.71754E+03</wgt>
<wgt id='3086'>0.71733E+03</wgt>
<wgt id='3087'>0.71723E+03</wgt>
<wgt id='3088'>0.71719E+03</wgt>
<wgt id='3089'>0.71737E+03</wgt>
<wgt id='3090'>0.71743E+03</wgt>
<wgt id='3091'>0.71734E+03</wgt>
<wgt id='3092'>0.71725E+03</wgt>
<wgt id='3093'>0.71741E+03</wgt>
<wgt id='3094'>0.71751E+03</wgt>
<wgt id='3095'>0.71741E+03</wgt>
<wgt id='3096'>0.71724E+03</wgt>
<wgt id='3097'>0.71719E+03</wgt>
<wgt id='3098'>0.71723E+03</wgt>
<wgt id='3099'>0.71748E+03</wgt>
<wgt id='3100'>0.71744E+03</wgt>
<wgt id='3101'>0.69800E+03</wgt>
<wgt id='3102'>0.73552E+03</wgt>
<wgt id='5000'>0.68225E+03</wgt>
<wgt id='5001'>0.68417E+03</wgt>
<wgt id='5002'>0.68454E+03</wgt>
<wgt id='5003'>0.68341E+03</wgt>
<wgt id='5004'>0.67957E+03</wgt>
<wgt id='5005'>0.67573E+03</wgt>
<wgt id='5006'>0.66374E+03</wgt>
<wgt id='5007'>0.67366E+03</wgt>
<wgt id='5008'>0.68758E+03</wgt>
<wgt id='5009'>0.67641E+03</wgt>
<wgt id='5010'>0.68282E+03</wgt>
<wgt id='5011'>0.68610E+03</wgt>
<wgt id='5012'>0.68055E+03</wgt>
<wgt id='5013'>0.69481E+03</wgt>
<wgt id='5014'>0.68958E+03</wgt>
<wgt id='5015'>0.68052E+03</wgt>
<wgt id='5016'>0.68733E+03</wgt>
<wgt id='5017'>0.66983E+03</wgt>
<wgt id='5018'>0.69541E+03</wgt>
<wgt id='5019'>0.69101E+03</wgt>
<wgt id='5020'>0.67388E+03</wgt>
<wgt id='5021'>0.67997E+03</wgt>
<wgt id='5022'>0.68368E+03</wgt>
<wgt id='5023'>0.67858E+03</wgt>
<wgt id='5024'>0.68630E+03</wgt>
<wgt id='5025'>0.68668E+03</wgt>
<wgt id='5026'>0.67860E+03</wgt>
<wgt id='5027'>0.68314E+03</wgt>
<wgt id='5028'>0.68070E+03</wgt>
<wgt id='5029'>0.68227E+03</wgt>
<wgt id='5030'>0.68228E+03</wgt>
<wgt id='5031'>0.68035E+03</wgt>
<wgt id='5032'>0.68512E+03</wgt>
<wgt id='5033'>0.68197E+03</wgt>
<wgt id='5034'>0.68259E+03</wgt>
<wgt id='5035'>0.69039E+03</wgt>
<wgt id='5036'>0.67486E+03</wgt>
<wgt id='5037'>0.66301E+03</wgt>
<wgt id='5038'>0.70416E+03</wgt>
<wgt id='5039'>0.69839E+03</wgt>
<wgt id='5040'>0.67339E+03</wgt>
<wgt id='5041'>0.68570E+03</wgt>
<wgt id='5042'>0.68082E+03</wgt>
<wgt id='5043'>0.68514E+03</wgt>
<wgt id='5044'>0.68528E+03</wgt>
<wgt id='5045'>0.68489E+03</wgt>
<wgt id='5046'>0.66479E+03</wgt>
<wgt id='5047'>0.68279E+03</wgt>
<wgt id='5048'>0.67458E+03</wgt>
<wgt id='5049'>0.68288E+03</wgt>
<wgt id='5050'>0.68046E+03</wgt>
<wgt id='5051'>0.68147E+03</wgt>
<wgt id='5052'>0.68178E+03</wgt>
<wgt id='5053'>0.66310E+03</wgt>
<wgt id='5054'>0.66913E+03</wgt>
<wgt id='5055'>0.67632E+03</wgt>
<wgt id='5056'>0.69514E+03</wgt>
<wgt id='5060'>0.66115E+03</wgt>
<wgt id='5070'>0.70436E+03</wgt>
<wgt id='4000'>0.68754E+03</wgt>
<wgt id='4001'>0.68623E+03</wgt>
<wgt id='4002'>0.68754E+03</wgt>
<wgt id='4003'>0.67356E+03</wgt>
<wgt id='4004'>0.68170E+03</wgt>
<wgt id='4005'>0.68493E+03</wgt>
<wgt id='4006'>0.69006E+03</wgt>
<wgt id='4007'>0.68806E+03</wgt>
<wgt id='4008'>0.67976E+03</wgt>
<wgt id='4009'>0.69175E+03</wgt>
<wgt id='4010'>0.68283E+03</wgt>
<wgt id='4011'>0.70002E+03</wgt>
<wgt id='4012'>0.67768E+03</wgt>
<wgt id='4013'>0.69137E+03</wgt>
<wgt id='4014'>0.68684E+03</wgt>
<wgt id='4015'>0.70388E+03</wgt>
<wgt id='4016'>0.67634E+03</wgt>
<wgt id='4017'>0.67407E+03</wgt>
<wgt id='4018'>0.70350E+03</wgt>
<wgt id='4019'>0.69184E+03</wgt>
<wgt id='4020'>0.68318E+03</wgt>
<wgt id='4021'>0.68959E+03</wgt>
<wgt id='4022'>0.68363E+03</wgt>
<wgt id='4023'>0.68731E+03</wgt>
<wgt id='4024'>0.68792E+03</wgt>
<wgt id='4025'>0.70361E+03</wgt>
<wgt id='4026'>0.67226E+03</wgt>
<wgt id='4027'>0.68994E+03</wgt>
<wgt id='4028'>0.68437E+03</wgt>
<wgt id='4029'>0.68879E+03</wgt>
<wgt id='4030'>0.68717E+03</wgt>
<wgt id='4031'>0.69007E+03</wgt>
<wgt id='4032'>0.68428E+03</wgt>
<wgt id='4033'>0.68226E+03</wgt>
<wgt id='4034'>0.69925E+03</wgt>
<wgt id='4035'>0.67504E+03</wgt>
<wgt id='4036'>0.70005E+03</wgt>
<wgt id='4037'>0.68491E+03</wgt>
<wgt id='4038'>0.69205E+03</wgt>
<wgt id='4039'>0.68704E+03</wgt>
<wgt id='4040'>0.68982E+03</wgt>
<wgt id='4041'>0.68405E+03</wgt>
<wgt id='4042'>0.69136E+03</wgt>
<wgt id='4043'>0.68306E+03</wgt>
<wgt id='4044'>0.69823E+03</wgt>
<wgt id='4045'>0.68832E+03</wgt>
<wgt id='4046'>0.69109E+03</wgt>
<wgt id='4047'>0.68841E+03</wgt>
<wgt id='4048'>0.67274E+03</wgt>
<wgt id='4049'>0.67372E+03</wgt>
<wgt id='4050'>0.68881E+03</wgt>
<wgt id='4051'>0.69000E+03</wgt>
<wgt id='4052'>0.68903E+03</wgt>
<wgt id='4053'>0.66531E+03</wgt>
<wgt id='4054'>0.69658E+03</wgt>
<wgt id='4055'>0.68217E+03</wgt>
<wgt id='4056'>0.69837E+03</wgt>
<wgt id='4060'>0.66813E+03</wgt>
<wgt id='4070'>0.70822E+03</wgt>
<wgt id='4080'>0.64418E+03</wgt>
<wgt id='6000'>0.70140E+03</wgt>
<wgt id='6001'>0.70175E+03</wgt>
<wgt id='6002'>0.70092E+03</wgt>
<wgt id='6003'>0.70215E+03</wgt>
<wgt id='6004'>0.70082E+03</wgt>
<wgt id='6005'>0.70556E+03</wgt>
<wgt id='6006'>0.69751E+03</wgt>
<wgt id='6007'>0.69891E+03</wgt>
<wgt id='6008'>0.70410E+03</wgt>
<wgt id='6009'>0.70192E+03</wgt>
<wgt id='6010'>0.70081E+03</wgt>
<wgt id='6011'>0.70187E+03</wgt>
<wgt id='6012'>0.70023E+03</wgt>
<wgt id='6013'>0.70124E+03</wgt>
<wgt id='6014'>0.70166E+03</wgt>
<wgt id='6015'>0.70059E+03</wgt>
<wgt id='6016'>0.70181E+03</wgt>
<wgt id='6017'>0.69884E+03</wgt>
<wgt id='6018'>0.70433E+03</wgt>
<wgt id='6019'>0.70152E+03</wgt>
<wgt id='6020'>0.70125E+03</wgt>
<wgt id='6021'>0.70005E+03</wgt>
<wgt id='6022'>0.70309E+03</wgt>
<wgt id='6023'>0.69748E+03</wgt>
<wgt id='6024'>0.70390E+03</wgt>
<wgt id='6025'>0.70388E+03</wgt>
<wgt id='6026'>0.69900E+03</wgt>
<wgt id='6027'>0.70159E+03</wgt>
<wgt id='6028'>0.70110E+03</wgt>
<wgt id='6029'>0.69821E+03</wgt>
<wgt id='6030'>0.70520E+03</wgt>
<wgt id='6031'>0.69297E+03</wgt>
<wgt id='6032'>0.71092E+03</wgt>
<wgt id='6033'>0.70484E+03</wgt>
<wgt id='6034'>0.69804E+03</wgt>
<wgt id='6035'>0.70273E+03</wgt>
<wgt id='6036'>0.69768E+03</wgt>
<wgt id='6037'>0.70181E+03</wgt>
<wgt id='6038'>0.70107E+03</wgt>
<wgt id='6039'>0.69950E+03</wgt>
<wgt id='6040'>0.70348E+03</wgt>
<wgt id='6041'>0.69535E+03</wgt>
<wgt id='6042'>0.70816E+03</wgt>
<wgt id='6043'>0.70672E+03</wgt>
<wgt id='6044'>0.69846E+03</wgt>
<wgt id='6045'>0.70044E+03</wgt>
<wgt id='6046'>0.70369E+03</wgt>
<wgt id='6047'>0.71014E+03</wgt>
<wgt id='6048'>0.69005E+03</wgt>
<wgt id='6049'>0.70517E+03</wgt>
<wgt id='6050'>0.69946E+03</wgt>
<wgt id='7000'>0.67582E+03</wgt>
<wgt id='7001'>0.67562E+03</wgt>
<wgt id='7002'>0.67624E+03</wgt>
<wgt id='7003'>0.67815E+03</wgt>
<wgt id='7004'>0.67363E+03</wgt>
<wgt id='7005'>0.67802E+03</wgt>
<wgt id='7006'>0.67499E+03</wgt>
<wgt id='7007'>0.67563E+03</wgt>
<wgt id='7008'>0.67611E+03</wgt>
<wgt id='7009'>0.67634E+03</wgt>
<wgt id='7010'>0.67540E+03</wgt>
<wgt id='7011'>0.67449E+03</wgt>
<wgt id='7012'>0.67651E+03</wgt>
<wgt id='7013'>0.67579E+03</wgt>
<wgt id='7014'>0.67605E+03</wgt>
<wgt id='7015'>0.67592E+03</wgt>
<wgt id='7016'>0.67584E+03</wgt>
<wgt id='7017'>0.67642E+03</wgt>
<wgt id='7018'>0.67557E+03</wgt>
<wgt id='7019'>0.67608E+03</wgt>
<wgt id='7020'>0.67554E+03</wgt>
<wgt id='7021'>0.67463E+03</wgt>
<wgt id='7022'>0.67673E+03</wgt>
<wgt id='7023'>0.68113E+03</wgt>
<wgt id='7024'>0.67094E+03</wgt>
<wgt id='7025'>0.67755E+03</wgt>
<wgt id='7026'>0.67170E+03</wgt>
<wgt id='7027'>0.67589E+03</wgt>
<wgt id='7028'>0.67499E+03</wgt>
<wgt id='7029'>0.67846E+03</wgt>
<wgt id='7030'>0.66966E+03</wgt>
<wgt id='7031'>0.67239E+03</wgt>
<wgt id='7032'>0.68308E+03</wgt>
<wgt id='7033'>0.67703E+03</wgt>
<wgt id='7034'>0.67331E+03</wgt>
<wgt id='7035'>0.67075E+03</wgt>
<wgt id='7036'>0.67797E+03</wgt>
<wgt id='7037'>0.67553E+03</wgt>
<wgt id='7038'>0.67587E+03</wgt>
<wgt id='7039'>0.67328E+03</wgt>
<wgt id='7040'>0.67791E+03</wgt>
<wgt id='7041'>0.67741E+03</wgt>
<wgt id='7042'>0.67326E+03</wgt>
<wgt id='7043'>0.67646E+03</wgt>
<wgt id='7044'>0.67224E+03</wgt>
<wgt id='7045'>0.66651E+03</wgt>
<wgt id='7046'>0.68246E+03</wgt>
<wgt id='7047'>0.68016E+03</wgt>
<wgt id='7048'>0.67396E+03</wgt>
<wgt id='7049'>0.67160E+03</wgt>
<wgt id='7050'>0.67846E+03</wgt>
<wgt id='7060'>0.81997E+03</wgt>
<wgt id='8000'>0.67483E+03</wgt>
<wgt id='8001'>0.67478E+03</wgt>
<wgt id='8002'>0.67504E+03</wgt>
<wgt id='8003'>0.67483E+03</wgt>
<wgt id='8004'>0.67482E+03</wgt>
<wgt id='8005'>0.67367E+03</wgt>
<wgt id='8006'>0.67576E+03</wgt>
<wgt id='8007'>0.67661E+03</wgt>
<wgt id='8008'>0.67636E+03</wgt>
<wgt id='8009'>0.67766E+03</wgt>
<wgt id='8010'>0.67395E+03</wgt>
<wgt id='8011'>0.67507E+03</wgt>
<wgt id='8012'>0.67203E+03</wgt>
<wgt id='8013'>0.67327E+03</wgt>
<wgt id='8014'>0.67683E+03</wgt>
<wgt id='8015'>0.67447E+03</wgt>
<wgt id='8016'>0.67559E+03</wgt>
<wgt id='8017'>0.67539E+03</wgt>
<wgt id='8018'>0.67691E+03</wgt>
<wgt id='8019'>0.67497E+03</wgt>
<wgt id='8020'>0.67517E+03</wgt>
<wgt id='8021'>0.67407E+03</wgt>
<wgt id='8022'>0.67536E+03</wgt>
<wgt id='8023'>0.67362E+03</wgt>
<wgt id='8024'>0.67184E+03</wgt>
<wgt id='8025'>0.67364E+03</wgt>
<wgt id='8026'>0.67553E+03</wgt>
<wgt id='8027'>0.67564E+03</wgt>
<wgt id='8028'>0.67529E+03</wgt>
<wgt id='8029'>0.67624E+03</wgt>
<wgt id='8500'>0.71077E+03</wgt>
<wgt id='8501'>0.70539E+03</wgt>
<wgt id='8502'>0.71528E+03</wgt>
<wgt id='8503'>0.71242E+03</wgt>
<wgt id='8504'>0.70721E+03</wgt>
<wgt id='8505'>0.70999E+03</wgt>
<wgt id='8506'>0.71574E+03</wgt>
<wgt id='8507'>0.70166E+03</wgt>
<wgt id='8508'>0.69643E+03</wgt>
<wgt id='8509'>0.71681E+03</wgt>
<wgt id='8510'>0.71779E+03</wgt>
<wgt id='8511'>0.70932E+03</wgt>
<wgt id='8512'>0.71130E+03</wgt>
<wgt id='8513'>0.71130E+03</wgt>
<wgt id='8514'>0.70093E+03</wgt>
<wgt id='8515'>0.71623E+03</wgt>
<wgt id='8516'>0.70836E+03</wgt>
<wgt id='8517'>0.70865E+03</wgt>
<wgt id='8518'>0.70614E+03</wgt>
<wgt id='8519'>0.70513E+03</wgt>
<wgt id='8520'>0.70750E+03</wgt>
<wgt id='8521'>0.70840E+03</wgt>
<wgt id='8522'>0.71427E+03</wgt>
<wgt id='8523'>0.70748E+03</wgt>
<wgt id='8524'>0.71210E+03</wgt>
<wgt id='8525'>0.71181E+03</wgt>
<wgt id='8526'>0.71009E+03</wgt>
<wgt id='8527'>0.71054E+03</wgt>
<wgt id='8528'>0.71003E+03</wgt>
<wgt id='8529'>0.71019E+03</wgt>
<wgt id='8530'>0.71127E+03</wgt>
<wgt id='8531'>0.71068E+03</wgt>
<wgt id='8532'>0.71064E+03</wgt>
<wgt id='8533'>0.70960E+03</wgt>
<wgt id='8534'>0.71103E+03</wgt>
<wgt id='8535'>0.71222E+03</wgt>
<wgt id='8536'>0.71014E+03</wgt>
<wgt id='8537'>0.71079E+03</wgt>
<wgt id='8538'>0.71070E+03</wgt>
<wgt id='8539'>0.71124E+03</wgt>
<wgt id='8540'>0.71131E+03</wgt>
<wgt id='8541'>0.71147E+03</wgt>
<wgt id='8542'>0.71115E+03</wgt>
<wgt id='8543'>0.71012E+03</wgt>
<wgt id='8544'>0.71187E+03</wgt>
<wgt id='8545'>0.71111E+03</wgt>
<wgt id='8546'>0.71166E+03</wgt>
<wgt id='8547'>0.71008E+03</wgt>
<wgt id='8548'>0.71042E+03</wgt>
<wgt id='8549'>0.71111E+03</wgt>
<wgt id='8550'>0.71001E+03</wgt>
<wgt id='8551'>0.71049E+03</wgt>
<wgt id='8552'>0.71020E+03</wgt>
<wgt id='8553'>0.70967E+03</wgt>
<wgt id='8554'>0.71034E+03</wgt>
<wgt id='8555'>0.71078E+03</wgt>
<wgt id='8556'>0.71051E+03</wgt>
<wgt id='8557'>0.71106E+03</wgt>
<wgt id='8558'>0.71164E+03</wgt>
<wgt id='8559'>0.71064E+03</wgt>
<wgt id='8560'>0.70985E+03</wgt>
<wgt id='8561'>0.71125E+03</wgt>
<wgt id='8562'>0.71040E+03</wgt>
<wgt id='8563'>0.71076E+03</wgt>
<wgt id='8564'>0.71045E+03</wgt>
<wgt id='8565'>0.71104E+03</wgt>
<wgt id='8566'>0.71123E+03</wgt>
<wgt id='8567'>0.71078E+03</wgt>
<wgt id='8568'>0.71134E+03</wgt>
<wgt id='8569'>0.71114E+03</wgt>
<wgt id='8570'>0.71049E+03</wgt>
<wgt id='8571'>0.71009E+03</wgt>
<wgt id='8572'>0.71027E+03</wgt>
<wgt id='8573'>0.71040E+03</wgt>
<wgt id='8574'>0.71035E+03</wgt>
<wgt id='8575'>0.71060E+03</wgt>
<wgt id='8576'>0.71080E+03</wgt>
<wgt id='8577'>0.71027E+03</wgt>
<wgt id='8578'>0.71064E+03</wgt>
<wgt id='8579'>0.71135E+03</wgt>
<wgt id='8580'>0.71063E+03</wgt>
<wgt id='8581'>0.71118E+03</wgt>
<wgt id='8582'>0.71038E+03</wgt>
<wgt id='8583'>0.71100E+03</wgt>
<wgt id='8584'>0.71132E+03</wgt>
<wgt id='8585'>0.71105E+03</wgt>
<wgt id='8586'>0.71163E+03</wgt>
<wgt id='8587'>0.71097E+03</wgt>
<wgt id='8588'>0.71081E+03</wgt>
<wgt id='8589'>0.71072E+03</wgt>
<wgt id='8590'>0.71083E+03</wgt>
<wgt id='8591'>0.71036E+03</wgt>
<wgt id='8592'>0.71068E+03</wgt>
<wgt id='8593'>0.71058E+03</wgt>
<wgt id='8594'>0.71061E+03</wgt>
<wgt id='8595'>0.71068E+03</wgt>
<wgt id='8596'>0.71068E+03</wgt>
<wgt id='8597'>0.71095E+03</wgt>
<wgt id='8598'>0.71095E+03</wgt>
<wgt id='8599'>0.71084E+03</wgt>
<wgt id='8600'>0.71078E+03</wgt>
<wgt id='8601'>0.69971E+03</wgt>
<wgt id='8602'>0.72213E+03</wgt>
<wgt id='9000'>0.68586E+03</wgt>
<wgt id='9001'>0.68573E+03</wgt>
<wgt id='9002'>0.68741E+03</wgt>
<wgt id='9003'>0.68337E+03</wgt>
<wgt id='9004'>0.68732E+03</wgt>
<wgt id='9005'>0.68995E+03</wgt>
<wgt id='9006'>0.68585E+03</wgt>
<wgt id='9007'>0.68146E+03</wgt>
<wgt id='9008'>0.68405E+03</wgt>
<wgt id='9009'>0.68641E+03</wgt>
<wgt id='9010'>0.68215E+03</wgt>
<wgt id='9011'>0.69048E+03</wgt>
<wgt id='9012'>0.69197E+03</wgt>
<wgt id='9013'>0.68471E+03</wgt>
<wgt id='9014'>0.68815E+03</wgt>
<wgt id='9015'>0.68329E+03</wgt>
<wgt id='9016'>0.69271E+03</wgt>
<wgt id='9017'>0.68056E+03</wgt>
<wgt id='9018'>0.68690E+03</wgt>
<wgt id='9019'>0.68805E+03</wgt>
<wgt id='9020'>0.69166E+03</wgt>
<wgt id='9021'>0.68399E+03</wgt>
<wgt id='9022'>0.68743E+03</wgt>
<wgt id='9023'>0.68069E+03</wgt>
<wgt id='9024'>0.68361E+03</wgt>
<wgt id='9025'>0.68837E+03</wgt>
<wgt id='9026'>0.68566E+03</wgt>
<wgt id='9027'>0.68507E+03</wgt>
<wgt id='9028'>0.68659E+03</wgt>
<wgt id='9029'>0.68629E+03</wgt>
<wgt id='9030'>0.68579E+03</wgt>
<wgt id='9031'>0.68511E+03</wgt>
<wgt id='9032'>0.68646E+03</wgt>
<wgt id='9033'>0.68651E+03</wgt>
<wgt id='9034'>0.68613E+03</wgt>
<wgt id='9035'>0.68636E+03</wgt>
<wgt id='9036'>0.68620E+03</wgt>
<wgt id='9037'>0.68639E+03</wgt>
<wgt id='9038'>0.68649E+03</wgt>
<wgt id='9039'>0.68603E+03</wgt>
<wgt id='9040'>0.68533E+03</wgt>
<wgt id='9041'>0.68607E+03</wgt>
<wgt id='9042'>0.68639E+03</wgt>
<wgt id='9043'>0.68502E+03</wgt>
<wgt id='9044'>0.68609E+03</wgt>
<wgt id='9045'>0.68641E+03</wgt>
<wgt id='9046'>0.68497E+03</wgt>
<wgt id='9047'>0.68618E+03</wgt>
<wgt id='9048'>0.68634E+03</wgt>
<wgt id='9049'>0.68548E+03</wgt>
<wgt id='9050'>0.68587E+03</wgt>
<wgt id='9051'>0.68637E+03</wgt>
<wgt id='9052'>0.68650E+03</wgt>
<wgt id='9053'>0.68579E+03</wgt>
<wgt id='9054'>0.68544E+03</wgt>
<wgt id='9055'>0.68539E+03</wgt>
<wgt id='9056'>0.68627E+03</wgt>
<wgt id='9057'>0.68594E+03</wgt>
<wgt id='9058'>0.68499E+03</wgt>
<wgt id='9059'>0.68539E+03</wgt>
<wgt id='9060'>0.68550E+03</wgt>
<wgt id='9061'>0.68585E+03</wgt>
<wgt id='9062'>0.68598E+03</wgt>
<wgt id='9063'>0.68604E+03</wgt>
<wgt id='9064'>0.68598E+03</wgt>
<wgt id='9065'>0.68566E+03</wgt>
<wgt id='9066'>0.68575E+03</wgt>
<wgt id='9067'>0.68611E+03</wgt>
<wgt id='9068'>0.68596E+03</wgt>
<wgt id='9069'>0.68652E+03</wgt>
<wgt id='9070'>0.68567E+03</wgt>
<wgt id='9071'>0.68638E+03</wgt>
<wgt id='9072'>0.68643E+03</wgt>
<wgt id='9073'>0.68571E+03</wgt>
<wgt id='9074'>0.68597E+03</wgt>
<wgt id='9075'>0.68577E+03</wgt>
<wgt id='9076'>0.68580E+03</wgt>
<wgt id='9077'>0.68609E+03</wgt>
<wgt id='9078'>0.68590E+03</wgt>
<wgt id='9079'>0.68576E+03</wgt>
<wgt id='9080'>0.68666E+03</wgt>
<wgt id='9081'>0.68589E+03</wgt>
<wgt id='9082'>0.68611E+03</wgt>
<wgt id='9083'>0.68564E+03</wgt>
<wgt id='9084'>0.68551E+03</wgt>
<wgt id='9085'>0.68544E+03</wgt>
<wgt id='9086'>0.68609E+03</wgt>
<wgt id='9087'>0.68504E+03</wgt>
<wgt id='9088'>0.68551E+03</wgt>
<wgt id='9089'>0.68554E+03</wgt>
<wgt id='9090'>0.68598E+03</wgt>
<wgt id='9091'>0.68566E+03</wgt>
<wgt id='9092'>0.68576E+03</wgt>
<wgt id='9093'>0.68566E+03</wgt>
<wgt id='9094'>0.68566E+03</wgt>
<wgt id='9095'>0.68592E+03</wgt>
<wgt id='9096'>0.68572E+03</wgt>
<wgt id='9097'>0.68595E+03</wgt>
<wgt id='9098'>0.68579E+03</wgt>
<wgt id='9099'>0.68566E+03</wgt>
<wgt id='9100'>0.68588E+03</wgt>
<wgt id='9101'>0.67495E+03</wgt>
<wgt id='9102'>0.69769E+03</wgt>
<wgt id='10000'>0.71062E+03</wgt>
<wgt id='10001'>0.71438E+03</wgt>
<wgt id='10002'>0.70231E+03</wgt>
<wgt id='10003'>0.70995E+03</wgt>
<wgt id='10004'>0.69597E+03</wgt>
<wgt id='10005'>0.71171E+03</wgt>
<wgt id='10006'>0.70556E+03</wgt>
<wgt id='10007'>0.71056E+03</wgt>
<wgt id='10008'>0.71176E+03</wgt>
<wgt id='10009'>0.70631E+03</wgt>
<wgt id='10010'>0.71300E+03</wgt>
<wgt id='10011'>0.70496E+03</wgt>
<wgt id='10012'>0.70992E+03</wgt>
<wgt id='10013'>0.71179E+03</wgt>
<wgt id='10014'>0.70929E+03</wgt>
<wgt id='10015'>0.71035E+03</wgt>
<wgt id='10016'>0.70695E+03</wgt>
<wgt id='10017'>0.71873E+03</wgt>
<wgt id='10018'>0.71242E+03</wgt>
<wgt id='10019'>0.70636E+03</wgt>
<wgt id='10020'>0.70803E+03</wgt>
<wgt id='10021'>0.70962E+03</wgt>
<wgt id='10022'>0.71033E+03</wgt>
<wgt id='10023'>0.71110E+03</wgt>
<wgt id='10024'>0.70953E+03</wgt>
<wgt id='10025'>0.71003E+03</wgt>
<wgt id='10026'>0.71456E+03</wgt>
<wgt id='10027'>0.71277E+03</wgt>
<wgt id='10028'>0.72258E+03</wgt>
<wgt id='10029'>0.71104E+03</wgt>
<wgt id='10030'>0.71014E+03</wgt>
<wgt id='10031'>0.69971E+03</wgt>
<wgt id='10032'>0.72213E+03</wgt>
<wgt id='11000'>0.68571E+03</wgt>
<wgt id='11001'>0.67049E+03</wgt>
<wgt id='11002'>0.68699E+03</wgt>
<wgt id='11003'>0.68566E+03</wgt>
<wgt id='11004'>0.68669E+03</wgt>
<wgt id='11005'>0.68709E+03</wgt>
<wgt id='11006'>0.68614E+03</wgt>
<wgt id='11007'>0.68518E+03</wgt>
<wgt id='11008'>0.68602E+03</wgt>
<wgt id='11009'>0.68462E+03</wgt>
<wgt id='11010'>0.68134E+03</wgt>
<wgt id='11011'>0.68462E+03</wgt>
<wgt id='11012'>0.68562E+03</wgt>
<wgt id='11013'>0.68654E+03</wgt>
<wgt id='11014'>0.68492E+03</wgt>
<wgt id='11015'>0.68495E+03</wgt>
<wgt id='11016'>0.68596E+03</wgt>
<wgt id='11017'>0.68770E+03</wgt>
<wgt id='11018'>0.68541E+03</wgt>
<wgt id='11019'>0.68556E+03</wgt>
<wgt id='11020'>0.68728E+03</wgt>
<wgt id='11021'>0.68642E+03</wgt>
<wgt id='11022'>0.69024E+03</wgt>
<wgt id='11023'>0.68612E+03</wgt>
<wgt id='11024'>0.68584E+03</wgt>
<wgt id='11025'>0.68569E+03</wgt>
<wgt id='11026'>0.68567E+03</wgt>
<wgt id='11027'>0.68619E+03</wgt>
<wgt id='11028'>0.68602E+03</wgt>
<wgt id='11029'>0.68359E+03</wgt>
<wgt id='11030'>0.68574E+03</wgt>
<wgt id='11031'>0.67495E+03</wgt>
<wgt id='11032'>0.69769E+03</wgt>
<wgt id='12000'>0.65611E+03</wgt>
<wgt id='12001'>0.65523E+03</wgt>
<wgt id='12002'>0.65698E+03</wgt>
<wgt id='12003'>0.65631E+03</wgt>
<wgt id='12004'>0.65591E+03</wgt>
<wgt id='12005'>0.65696E+03</wgt>
<wgt id='12006'>0.65526E+03</wgt>
<wgt id='12007'>0.65974E+03</wgt>
<wgt id='12008'>0.65256E+03</wgt>
<wgt id='12009'>0.65500E+03</wgt>
<wgt id='12010'>0.65724E+03</wgt>
<wgt id='12011'>0.65135E+03</wgt>
<wgt id='12012'>0.66140E+03</wgt>
<wgt id='12013'>0.65435E+03</wgt>
<wgt id='12014'>0.65791E+03</wgt>
<wgt id='12015'>0.65798E+03</wgt>
<wgt id='12016'>0.65309E+03</wgt>
<wgt id='12017'>0.65935E+03</wgt>
<wgt id='12018'>0.65424E+03</wgt>
<wgt id='12019'>0.65749E+03</wgt>
<wgt id='12020'>0.65415E+03</wgt>
<wgt id='12021'>0.65678E+03</wgt>
<wgt id='12022'>0.65555E+03</wgt>
<wgt id='12023'>0.64997E+03</wgt>
<wgt id='12024'>0.66164E+03</wgt>
<wgt id='12025'>0.65263E+03</wgt>
<wgt id='12026'>0.65980E+03</wgt>
<wgt id='12027'>0.66597E+03</wgt>
<wgt id='12028'>0.64703E+03</wgt>
<wgt id='12050'>0.65611E+03</wgt>
<wgt id='12051'>0.64908E+03</wgt>
<wgt id='12052'>0.64082E+03</wgt>
<wgt id='12053'>0.64923E+03</wgt>
<wgt id='12054'>0.64245E+03</wgt>
<wgt id='12055'>0.64447E+03</wgt>
<wgt id='12056'>0.65201E+03</wgt>
<wgt id='12057'>0.64578E+03</wgt>
<wgt id='12058'>0.64631E+03</wgt>
<wgt id='12059'>0.65055E+03</wgt>
<wgt id='12060'>0.64134E+03</wgt>
<wgt id='12061'>0.64251E+03</wgt>
<wgt id='12062'>0.64366E+03</wgt>
<wgt id='12063'>0.64634E+03</wgt>
<wgt id='13000'>0.67153E+03</wgt>
<wgt id='13001'>0.65892E+03</wgt>
<wgt id='13002'>0.66042E+03</wgt>
<wgt id='13003'>0.65929E+03</wgt>
<wgt id='13004'>0.66005E+03</wgt>
<wgt id='13005'>0.66029E+03</wgt>
<wgt id='13006'>0.65905E+03</wgt>
<wgt id='13007'>0.66395E+03</wgt>
<wgt id='13008'>0.65552E+03</wgt>
<wgt id='13009'>0.65631E+03</wgt>
<wgt id='13010'>0.66315E+03</wgt>
<wgt id='13011'>0.66196E+03</wgt>
<wgt id='13012'>0.65743E+03</wgt>
<wgt id='13013'>0.65895E+03</wgt>
<wgt id='13014'>0.66032E+03</wgt>
<wgt id='13015'>0.65942E+03</wgt>
<wgt id='13016'>0.65794E+03</wgt>
<wgt id='13017'>0.65983E+03</wgt>
<wgt id='13018'>0.65959E+03</wgt>
<wgt id='13019'>0.65914E+03</wgt>
<wgt id='13020'>0.66032E+03</wgt>
<wgt id='13021'>0.66330E+03</wgt>
<wgt id='13022'>0.65617E+03</wgt>
<wgt id='13023'>0.65532E+03</wgt>
<wgt id='13024'>0.66417E+03</wgt>
<wgt id='13025'>0.64993E+03</wgt>
<wgt id='13026'>0.66912E+03</wgt>
<wgt id='13027'>0.65547E+03</wgt>
<wgt id='13028'>0.66426E+03</wgt>
<wgt id='13050'>0.67153E+03</wgt>
<wgt id='13051'>0.66269E+03</wgt>
<wgt id='13052'>0.65284E+03</wgt>
<wgt id='13053'>0.66246E+03</wgt>
<wgt id='13054'>0.65749E+03</wgt>
<wgt id='13055'>0.64698E+03</wgt>
<wgt id='13056'>0.65790E+03</wgt>
<wgt id='13057'>0.65928E+03</wgt>
<wgt id='13058'>0.66195E+03</wgt>
<wgt id='13059'>0.66334E+03</wgt>
<wgt id='13060'>0.64012E+03</wgt>
<wgt id='13061'>0.65923E+03</wgt>
<wgt id='13062'>0.66174E+03</wgt>
<wgt id='13063'>0.66509E+03</wgt>
<wgt id='14000'>0.68709E+03</wgt>
<wgt id='14001'>0.68702E+03</wgt>
<wgt id='14002'>0.68694E+03</wgt>
<wgt id='14003'>0.68687E+03</wgt>
<wgt id='14004'>0.68679E+03</wgt>
<wgt id='14005'>0.68672E+03</wgt>
<wgt id='14006'>0.68664E+03</wgt>
<wgt id='14007'>0.68657E+03</wgt>
<wgt id='14008'>0.68649E+03</wgt>
<wgt id='14009'>0.68642E+03</wgt>
<wgt id='14010'>0.68635E+03</wgt>
<wgt id='14011'>0.68627E+03</wgt>
<wgt id='14012'>0.68620E+03</wgt>
<wgt id='14013'>0.68612E+03</wgt>
<wgt id='14014'>0.68605E+03</wgt>
<wgt id='14015'>0.68597E+03</wgt>
<wgt id='14016'>0.68589E+03</wgt>
<wgt id='14017'>0.68582E+03</wgt>
<wgt id='14018'>0.68575E+03</wgt>
<wgt id='14019'>0.68567E+03</wgt>
<wgt id='14020'>0.68560E+03</wgt>
<wgt id='14021'>0.68552E+03</wgt>
<wgt id='14022'>0.68545E+03</wgt>
<wgt id='14023'>0.68537E+03</wgt>
<wgt id='14024'>0.68530E+03</wgt>
<wgt id='14025'>0.68522E+03</wgt>
<wgt id='14026'>0.68515E+03</wgt>
<wgt id='14027'>0.68507E+03</wgt>
<wgt id='14028'>0.68500E+03</wgt>
<wgt id='14029'>0.68492E+03</wgt>
<wgt id='14030'>0.68485E+03</wgt>
<wgt id='15000'>0.67546E+03</wgt>
<wgt id='15001'>0.67532E+03</wgt>
<wgt id='15002'>0.67686E+03</wgt>
<wgt id='15003'>0.67315E+03</wgt>
<wgt id='15004'>0.67695E+03</wgt>
<wgt id='15005'>0.67952E+03</wgt>
<wgt id='15006'>0.67555E+03</wgt>
<wgt id='15007'>0.67111E+03</wgt>
<wgt id='15008'>0.67367E+03</wgt>
<wgt id='15009'>0.67605E+03</wgt>
<wgt id='15010'>0.67186E+03</wgt>
<wgt id='15011'>0.67998E+03</wgt>
<wgt id='15012'>0.68154E+03</wgt>
<wgt id='15013'>0.67449E+03</wgt>
<wgt id='15014'>0.67769E+03</wgt>
<wgt id='15015'>0.67274E+03</wgt>
<wgt id='15016'>0.68221E+03</wgt>
<wgt id='15017'>0.67017E+03</wgt>
<wgt id='15018'>0.67647E+03</wgt>
<wgt id='15019'>0.67766E+03</wgt>
<wgt id='15020'>0.68126E+03</wgt>
<wgt id='15021'>0.67359E+03</wgt>
<wgt id='15022'>0.67705E+03</wgt>
<wgt id='15023'>0.67030E+03</wgt>
<wgt id='15024'>0.67318E+03</wgt>
<wgt id='15025'>0.67787E+03</wgt>
<wgt id='15026'>0.67521E+03</wgt>
<wgt id='15027'>0.67474E+03</wgt>
<wgt id='15028'>0.67621E+03</wgt>
<wgt id='15029'>0.67588E+03</wgt>
<wgt id='15030'>0.67542E+03</wgt>
<wgt id='15031'>0.67477E+03</wgt>
<wgt id='15032'>0.67603E+03</wgt>
<wgt id='15033'>0.67612E+03</wgt>
<wgt id='15034'>0.67571E+03</wgt>
<wgt id='15035'>0.67596E+03</wgt>
<wgt id='15036'>0.67579E+03</wgt>
<wgt id='15037'>0.67600E+03</wgt>
<wgt id='15038'>0.67607E+03</wgt>
<wgt id='15039'>0.67561E+03</wgt>
<wgt id='15040'>0.67493E+03</wgt>
<wgt id='15041'>0.67562E+03</wgt>
<wgt id='15042'>0.67594E+03</wgt>
<wgt id='15043'>0.67467E+03</wgt>
<wgt id='15044'>0.67568E+03</wgt>
<wgt id='15045'>0.67597E+03</wgt>
<wgt id='15046'>0.67459E+03</wgt>
<wgt id='15047'>0.67573E+03</wgt>
<wgt id='15048'>0.67592E+03</wgt>
<wgt id='15049'>0.67506E+03</wgt>
<wgt id='15050'>0.67547E+03</wgt>
<wgt id='15051'>0.67596E+03</wgt>
<wgt id='15052'>0.67608E+03</wgt>
<wgt id='15053'>0.67541E+03</wgt>
<wgt id='15054'>0.67505E+03</wgt>
<wgt id='15055'>0.67500E+03</wgt>
<wgt id='15056'>0.67585E+03</wgt>
<wgt id='15057'>0.67552E+03</wgt>
<wgt id='15058'>0.67464E+03</wgt>
<wgt id='15059'>0.67500E+03</wgt>
<wgt id='15060'>0.67511E+03</wgt>
<wgt id='15061'>0.67545E+03</wgt>
<wgt id='15062'>0.67556E+03</wgt>
<wgt id='15063'>0.67564E+03</wgt>
<wgt id='15064'>0.67556E+03</wgt>
<wgt id='15065'>0.67526E+03</wgt>
<wgt id='15066'>0.67536E+03</wgt>
<wgt id='15067'>0.67569E+03</wgt>
<wgt id='15068'>0.67556E+03</wgt>
<wgt id='15069'>0.67610E+03</wgt>
<wgt id='15070'>0.67527E+03</wgt>
<wgt id='15071'>0.67598E+03</wgt>
<wgt id='15072'>0.67603E+03</wgt>
<wgt id='15073'>0.67529E+03</wgt>
<wgt id='15074'>0.67557E+03</wgt>
<wgt id='15075'>0.67536E+03</wgt>
<wgt id='15076'>0.67541E+03</wgt>
<wgt id='15077'>0.67569E+03</wgt>
<wgt id='15078'>0.67552E+03</wgt>
<wgt id='15079'>0.67536E+03</wgt>
<wgt id='15080'>0.67623E+03</wgt>
<wgt id='15081'>0.67550E+03</wgt>
<wgt id='15082'>0.67571E+03</wgt>
<wgt id='15083'>0.67523E+03</wgt>
<wgt id='15084'>0.67510E+03</wgt>
<wgt id='15085'>0.67505E+03</wgt>
<wgt id='15086'>0.67570E+03</wgt>
<wgt id='15087'>0.67464E+03</wgt>
<wgt id='15088'>0.67510E+03</wgt>
<wgt id='15089'>0.67513E+03</wgt>
<wgt id='15090'>0.67557E+03</wgt>
<wgt id='15091'>0.67526E+03</wgt>
<wgt id='15092'>0.67536E+03</wgt>
<wgt id='15093'>0.67525E+03</wgt>
<wgt id='15094'>0.67525E+03</wgt>
<wgt id='15095'>0.67552E+03</wgt>
<wgt id='15096'>0.67532E+03</wgt>
<wgt id='15097'>0.67554E+03</wgt>
<wgt id='15098'>0.67539E+03</wgt>
<wgt id='15099'>0.67526E+03</wgt>
<wgt id='15100'>0.67548E+03</wgt>
<wgt id='15101'>0.67545E+03</wgt>
<wgt id='15102'>0.67541E+03</wgt>
<wgt id='15103'>0.67546E+03</wgt>
<wgt id='15104'>0.67547E+03</wgt>
<wgt id='15105'>0.67548E+03</wgt>
<wgt id='15106'>0.67546E+03</wgt>
<wgt id='15107'>0.67542E+03</wgt>
<wgt id='1500'>0.73714E+03</wgt>
<wgt id='1501'>0.73385E+03</wgt>
<wgt id='1502'>0.73984E+03</wgt>
<wgt id='1503'>0.75197E+03</wgt>
<wgt id='1504'>0.71982E+03</wgt>
<wgt id='1505'>0.71659E+03</wgt>
<wgt id='1506'>0.74911E+03</wgt>
<wgt id='1507'>0.73361E+03</wgt>
<wgt id='1508'>0.74526E+03</wgt>
<wgt id='1509'>0.75081E+03</wgt>
<wgt id='1510'>0.72311E+03</wgt>
<wgt id='1511'>0.69454E+03</wgt>
<wgt id='1512'>0.74585E+03</wgt>
<wgt id='1513'>0.73398E+03</wgt>
<wgt id='1514'>0.73671E+03</wgt>
<wgt id='1515'>0.75599E+03</wgt>
<wgt id='1516'>0.74888E+03</wgt>
<wgt id='1517'>0.75146E+03</wgt>
<wgt id='1518'>0.75260E+03</wgt>
<wgt id='1519'>0.74375E+03</wgt>
<wgt id='1520'>0.77132E+03</wgt>
<wgt id='1521'>0.73796E+03</wgt>
<wgt id='1522'>0.72092E+03</wgt>
<wgt id='1523'>0.76440E+03</wgt>
<wgt id='1524'>0.73223E+03</wgt>
<wgt id='1525'>0.72955E+03</wgt>
<wgt id='1526'>0.73664E+03</wgt>
<wgt id='1527'>0.75231E+03</wgt>
<wgt id='1528'>0.73174E+03</wgt>
<wgt id='1529'>0.75633E+03</wgt>
<wgt id='1530'>0.75558E+03</wgt>
<wgt id='1531'>0.72382E+03</wgt>
<wgt id='1532'>0.71843E+03</wgt>
<wgt id='1533'>0.71790E+03</wgt>
<wgt id='1534'>0.72700E+03</wgt>
<wgt id='1535'>0.75857E+03</wgt>
<wgt id='1536'>0.73494E+03</wgt>
<wgt id='1537'>0.75115E+03</wgt>
<wgt id='1538'>0.74441E+03</wgt>
<wgt id='1539'>0.73316E+03</wgt>
<wgt id='1540'>0.72429E+03</wgt>
<wgt id='1541'>0.74062E+03</wgt>
<wgt id='1542'>0.72746E+03</wgt>
<wgt id='1543'>0.72210E+03</wgt>
<wgt id='1544'>0.73534E+03</wgt>
<wgt id='1545'>0.72871E+03</wgt>
<wgt id='1546'>0.74575E+03</wgt>
<wgt id='1547'>0.73389E+03</wgt>
<wgt id='1548'>0.73955E+03</wgt>
<wgt id='1549'>0.73497E+03</wgt>
<wgt id='1550'>0.72724E+03</wgt>
<wgt id='1551'>0.72764E+03</wgt>
<wgt id='1552'>0.72695E+03</wgt>
<wgt id='1553'>0.73980E+03</wgt>
<wgt id='1554'>0.72963E+03</wgt>
<wgt id='1555'>0.72289E+03</wgt>
<wgt id='1556'>0.74038E+03</wgt>
<wgt id='1557'>0.74082E+03</wgt>
<wgt id='1558'>0.72274E+03</wgt>
<wgt id='1559'>0.75801E+03</wgt>
<wgt id='1560'>0.73330E+03</wgt>
<wgt id='1561'>0.73531E+03</wgt>
<wgt id='1562'>0.74652E+03</wgt>
<wgt id='1563'>0.72465E+03</wgt>
<wgt id='1564'>0.73662E+03</wgt>
<wgt id='1565'>0.73867E+03</wgt>
<wgt id='1566'>0.72908E+03</wgt>
<wgt id='1567'>0.78695E+03</wgt>
<wgt id='1568'>0.73327E+03</wgt>
<wgt id='1569'>0.71747E+03</wgt>
<wgt id='1570'>0.71702E+03</wgt>
<wgt id='1571'>0.72369E+03</wgt>
<wgt id='1572'>0.74148E+03</wgt>
<wgt id='1573'>0.72597E+03</wgt>
<wgt id='1574'>0.74426E+03</wgt>
<wgt id='1575'>0.73566E+03</wgt>
<wgt id='1576'>0.71074E+03</wgt>
<wgt id='1577'>0.72207E+03</wgt>
<wgt id='1578'>0.74457E+03</wgt>
<wgt id='1579'>0.73347E+03</wgt>
<wgt id='1580'>0.72668E+03</wgt>
<wgt id='1581'>0.73444E+03</wgt>
<wgt id='1582'>0.71931E+03</wgt>
<wgt id='1583'>0.76771E+03</wgt>
<wgt id='1584'>0.73336E+03</wgt>
<wgt id='1585'>0.73548E+03</wgt>
<wgt id='1586'>0.73081E+03</wgt>
<wgt id='1587'>0.74188E+03</wgt>
<wgt id='1588'>0.73835E+03</wgt>
<wgt id='1589'>0.76705E+03</wgt>
<wgt id='1590'>0.72449E+03</wgt>
<wgt id='1591'>0.73391E+03</wgt>
<wgt id='1592'>0.72991E+03</wgt>
<wgt id='1593'>0.74642E+03</wgt>
<wgt id='1594'>0.75159E+03</wgt>
<wgt id='1595'>0.73700E+03</wgt>
<wgt id='1596'>0.74390E+03</wgt>
<wgt id='1597'>0.73910E+03</wgt>
<wgt id='1598'>0.73671E+03</wgt>
<wgt id='1599'>0.74804E+03</wgt>
<wgt id='1600'>0.75545E+03</wgt>
<wgt id='1601'>0.72843E+03</wgt>
<wgt id='1602'>0.74190E+03</wgt>
<wgt id='1700'>0.69410E+03</wgt>
<wgt id='1800'>0.68146E+03</wgt>
<wgt id='1850'>0.78789E+03</wgt>
<wgt id='1900'>0.75461E+03</wgt>
<wgt id='1950'>0.76641E+03</wgt>
</rwgt>
</event>
<event>
     13 322222  6.87070E+02  1.27183E+02 -1.00000E+00  1.17835E-01
      21    -1     0     0   504   505  0.000000000E+00  0.000000000E+00  1.166059002E+03  1.166059002E+03  0.000000000E+00  0.00000E+00  9.000E+00
      21    -1     0     0   502   503  0.000000000E+00  0.000000000E+00 -8.953656429E+01  8.953656429E+01  0.000000000E+00  0.00000E+00  9.000E+00
       6     2     1     2   502     0 -8.792254610E+00 -1.507481422E+02  2.452733909E+02  3.360085879E+02  1.730330280E+02  0.00000E+00  9.000E+00
      -6     2     1     2     0   505 -1.171796730E+02  1.332389592E+02  6.690086894E+02  7.134379265E+02  1.730241384E+02  0.00000E+00  9.000E+00
      21     1     1     2   504   503  1.259719276E+02  1.750918298E+01  1.622403577E+02  2.061490521E+02  1.907348633E-06  0.00000E+00  9.000E+00
      24     2     3     3     0     0  5.099362615E+01 -1.381072172E+02  1.633292646E+02  2.336756785E+02  7.908173413E+01  0.00000E+00  9.000E+00
       5     1     3     3   502     0 -5.978588076E+01 -1.264092492E+01  8.194412631E+01  1.023329095E+02  4.800000000E+00  0.00000E+00 -1.000E+00
     -24     2     4     4     0     0 -6.561704681E+01  3.427987539E+01  4.928230361E+02  5.048329671E+02  8.062923175E+01  0.00000E+00  9.000E+00
      -5     1     4     4     0   505 -5.156262619E+01  9.895908380E+01  1.761856533E+02  2.086049595E+02  4.800000000E+00  0.00000E+00  1.000E+00
      -3     1     6     6     0   506  2.956574529E+01 -7.067098459E+01  2.913153557E+01  8.195857320E+01  2.000000000E-01  0.00000E+00  1.000E+00
       4     1     6     6   506     0  2.142788086E+01 -6.743623266E+01  1.341977291E+02  1.517171053E+02  1.500000000E+00  0.00000E+00 -1.000E+00
       3     1     8     8   507     0 -3.746269209E+01  5.997851243E+01  3.444264188E+02  3.516112530E+02  2.000000000E-01  0.00000E+00 -1.000E+00
      -4     1     8     8     0   507 -2.815435472E+01 -2.569863704E+01  1.483966173E+02  1.532217141E+02  1.500000000E+00  0.00000E+00  1.000E+00
#rwgt            1           1   558.98458656233879                2         144           0
<rwgt>
<wgt id='1001'>0.68707E+03</wgt>
<wgt id='1002'>0.72622E+03</wgt>
<wgt id='1003'>0.64058E+03</wgt>
<wgt id='1004'>0.58285E+03</wgt>
<wgt id='1005'>0.60962E+03</wgt>
<wgt id='1006'>0.55062E+03</wgt>
<wgt id='1007'>0.82275E+03</wgt>
<wgt id='1008'>0.88072E+03</wgt>
<wgt id='1009'>0.75466E+03</wgt>
<wgt id='2000'>0.68707E+03</wgt>
<wgt id='2001'>0.68663E+03</wgt>
<wgt id='2002'>0.68794E+03</wgt>
<wgt id='2003'>0.68713E+03</wgt>
<wgt id='2004'>0.68888E+03</wgt>
<wgt id='2005'>0.68673E+03</wgt>
<wgt id='2006'>0.68487E+03</wgt>
<wgt id='2007'>0.68698E+03</wgt>
<wgt id='2008'>0.68682E+03</wgt>
<wgt id='2009'>0.68784E+03</wgt>
<wgt id='2010'>0.68591E+03</wgt>
<wgt id='2011'>0.68674E+03</wgt>
<wgt id='2012'>0.68779E+03</wgt>
<wgt id='2013'>0.68691E+03</wgt>
<wgt id='2014'>0.68622E+03</wgt>
<wgt id='2015'>0.68649E+03</wgt>
<wgt id='2016'>0.68719E+03</wgt>
<wgt id='2017'>0.68646E+03</wgt>
<wgt id='2018'>0.68602E+03</wgt>
<wgt id='2019'>0.68746E+03</wgt>
<wgt id='2020'>0.68547E+03</wgt>
<wgt id='2021'>0.68830E+03</wgt>
<wgt id='2022'>0.68411E+03</wgt>
<wgt id='2023'>0.68745E+03</wgt>
<wgt id='2024'>0.68584E+03</wgt>
<wgt id='2025'>0.68415E+03</wgt>
<wgt id='2026'>0.68645E+03</wgt>
<wgt id='2027'>0.68560E+03</wgt>
<wgt id='2028'>0.68689E+03</wgt>
<wgt id='2029'>0.69340E+03</wgt>
<wgt id='2030'>0.68864E+03</wgt>
<wgt id='2031'>0.68693E+03</wgt>
<wgt id='2032'>0.69000E+03</wgt>
<wgt id='2033'>0.68864E+03</wgt>
<wgt id='2034'>0.68488E+03</wgt>
<wgt id='2035'>0.68592E+03</wgt>
<wgt id='2036'>0.68580E+03</wgt>
<wgt id='2037'>0.68621E+03</wgt>
<wgt id='2038'>0.68748E+03</wgt>
<wgt id='2039'>0.68999E+03</wgt>
<wgt id='2040'>0.68874E+03</wgt>
<wgt id='2041'>0.68638E+03</wgt>
<wgt id='2042'>0.68207E+03</wgt>
<wgt id='2043'>0.68903E+03</wgt>
<wgt id='2044'>0.68773E+03</wgt>
<wgt id='2045'>0.68665E+03</wgt>
<wgt id='2046'>0.68797E+03</wgt>
<wgt id='2047'>0.68851E+03</wgt>
<wgt id='2048'>0.68587E+03</wgt>
<wgt id='2049'>0.68684E+03</wgt>
<wgt id='2050'>0.68762E+03</wgt>
<wgt id='2051'>0.68832E+03</wgt>
<wgt id='2052'>0.68679E+03</wgt>
<wgt id='2053'>0.68725E+03</wgt>
<wgt id='2054'>0.68734E+03</wgt>
<wgt id='2055'>0.68743E+03</wgt>
<wgt id='2056'>0.68709E+03</wgt>
<wgt id='2057'>0.68677E+03</wgt>
<wgt id='2058'>0.68711E+03</wgt>
<wgt id='2059'>0.68673E+03</wgt>
<wgt id='2060'>0.68743E+03</wgt>
<wgt id='2061'>0.68608E+03</wgt>
<wgt id='2062'>0.68643E+03</wgt>
<wgt id='2063'>0.68752E+03</wgt>
<wgt id='2064'>0.68645E+03</wgt>
<wgt id='2065'>0.68775E+03</wgt>
<wgt id='2066'>0.68697E+03</wgt>
<wgt id='2067'>0.68692E+03</wgt>
<wgt id='2068'>0.68726E+03</wgt>
<wgt id='2069'>0.68741E+03</wgt>
<wgt id='2070'>0.68663E+03</wgt>
<wgt id='2071'>0.68673E+03</wgt>
<wgt id='2072'>0.68718E+03</wgt>
<wgt id='2073'>0.68696E+03</wgt>
<wgt id='2074'>0.68716E+03</wgt>
<wgt id='2075'>0.68684E+03</wgt>
<wgt id='2076'>0.68730E+03</wgt>
<wgt id='2077'>0.68672E+03</wgt>
<wgt id='2078'>0.68694E+03</wgt>
<wgt id='2079'>0.68713E+03</wgt>
<wgt id='2080'>0.68757E+03</wgt>
<wgt id='2081'>0.68737E+03</wgt>
<wgt id='2082'>0.68733E+03</wgt>
<wgt id='2083'>0.68740E+03</wgt>
<wgt id='2084'>0.68718E+03</wgt>
<wgt id='2085'>0.68749E+03</wgt>
<wgt id='2086'>0.68687E+03</wgt>
<wgt id='2087'>0.68673E+03</wgt>
<wgt id='2088'>0.68720E+03</wgt>
<wgt id='2089'>0.68636E+03</wgt>
<wgt id='2090'>0.68723E+03</wgt>
<wgt id='2091'>0.68743E+03</wgt>
<wgt id='2092'>0.68723E+03</wgt>
<wgt id='2093'>0.68702E+03</wgt>
<wgt id='2094'>0.68735E+03</wgt>
<wgt id='2095'>0.68740E+03</wgt>
<wgt id='2096'>0.68681E+03</wgt>
<wgt id='2097'>0.68756E+03</wgt>
<wgt id='2098'>0.68686E+03</wgt>
<wgt id='2099'>0.68697E+03</wgt>
<wgt id='2100'>0.68722E+03</wgt>
<wgt id='2101'>0.67204E+03</wgt>
<wgt id='2102'>0.70680E+03</wgt>
<wgt id='2104'>0.59534E+03</wgt>
<wgt id='2105'>0.61382E+03</wgt>
<wgt id='2106'>0.63282E+03</wgt>
<wgt id='2107'>0.64805E+03</wgt>
<wgt id='2108'>0.67772E+03</wgt>
<wgt id='2109'>0.69896E+03</wgt>
<wgt id='2110'>0.72629E+03</wgt>
<wgt id='2111'>0.74808E+03</wgt>
<wgt id='3000'>0.73216E+03</wgt>
<wgt id='3001'>0.73332E+03</wgt>
<wgt id='3002'>0.73157E+03</wgt>
<wgt id='3003'>0.73178E+03</wgt>
<wgt id='3004'>0.73452E+03</wgt>
<wgt id='3005'>0.73267E+03</wgt>
<wgt id='3006'>0.73199E+03</wgt>
<wgt id='3007'>0.73220E+03</wgt>
<wgt id='3008'>0.73119E+03</wgt>
<wgt id='3009'>0.73167E+03</wgt>
<wgt id='3010'>0.72972E+03</wgt>
<wgt id='3011'>0.73205E+03</wgt>
<wgt id='3012'>0.73367E+03</wgt>
<wgt id='3013'>0.73168E+03</wgt>
<wgt id='3014'>0.73196E+03</wgt>
<wgt id='3015'>0.73183E+03</wgt>
<wgt id='3016'>0.73305E+03</wgt>
<wgt id='3017'>0.73225E+03</wgt>
<wgt id='3018'>0.73245E+03</wgt>
<wgt id='3019'>0.73221E+03</wgt>
<wgt id='3020'>0.73369E+03</wgt>
<wgt id='3021'>0.73361E+03</wgt>
<wgt id='3022'>0.73154E+03</wgt>
<wgt id='3023'>0.73159E+03</wgt>
<wgt id='3024'>0.73282E+03</wgt>
<wgt id='3025'>0.73241E+03</wgt>
<wgt id='3026'>0.73039E+03</wgt>
<wgt id='3027'>0.73297E+03</wgt>
<wgt id='3028'>0.73261E+03</wgt>
<wgt id='3029'>0.73153E+03</wgt>
<wgt id='3030'>0.73596E+03</wgt>
<wgt id='3031'>0.73405E+03</wgt>
<wgt id='3032'>0.72964E+03</wgt>
<wgt id='3033'>0.72972E+03</wgt>
<wgt id='3034'>0.73176E+03</wgt>
<wgt id='3035'>0.72771E+03</wgt>
<wgt id='3036'>0.73282E+03</wgt>
<wgt id='3037'>0.73524E+03</wgt>
<wgt id='3038'>0.73257E+03</wgt>
<wgt id='3039'>0.73338E+03</wgt>
<wgt id='3040'>0.73551E+03</wgt>
<wgt id='3041'>0.73352E+03</wgt>
<wgt id='3042'>0.72894E+03</wgt>
<wgt id='3043'>0.72916E+03</wgt>
<wgt id='3044'>0.73327E+03</wgt>
<wgt id='3045'>0.73318E+03</wgt>
<wgt id='3046'>0.73468E+03</wgt>
<wgt id='3047'>0.73126E+03</wgt>
<wgt id='3048'>0.73407E+03</wgt>
<wgt id='3049'>0.73183E+03</wgt>
<wgt id='3050'>0.73090E+03</wgt>
<wgt id='3051'>0.73383E+03</wgt>
<wgt id='3052'>0.73096E+03</wgt>
<wgt id='3053'>0.73168E+03</wgt>
<wgt id='3054'>0.73226E+03</wgt>
<wgt id='3055'>0.73088E+03</wgt>
<wgt id='3056'>0.73187E+03</wgt>
<wgt id='3057'>0.73128E+03</wgt>
<wgt id='3058'>0.73182E+03</wgt>
<wgt id='3059'>0.73147E+03</wgt>
<wgt id='3060'>0.73288E+03</wgt>
<wgt id='3061'>0.73143E+03</wgt>
<wgt id='3062'>0.73255E+03</wgt>
<wgt id='3063'>0.73187E+03</wgt>
<wgt id='3064'>0.73157E+03</wgt>
<wgt id='3065'>0.73149E+03</wgt>
<wgt id='3066'>0.73242E+03</wgt>
<wgt id='3067'>0.73087E+03</wgt>
<wgt id='3068'>0.73260E+03</wgt>
<wgt id='3069'>0.73179E+03</wgt>
<wgt id='3070'>0.73224E+03</wgt>
<wgt id='3071'>0.73171E+03</wgt>
<wgt id='3072'>0.73195E+03</wgt>
<wgt id='3073'>0.73181E+03</wgt>
<wgt id='3074'>0.73254E+03</wgt>
<wgt id='3075'>0.73217E+03</wgt>
<wgt id='3076'>0.73227E+03</wgt>
<wgt id='3077'>0.73245E+03</wgt>
<wgt id='3078'>0.73238E+03</wgt>
<wgt id='3079'>0.73189E+03</wgt>
<wgt id='3080'>0.73206E+03</wgt>
<wgt id='3081'>0.73198E+03</wgt>
<wgt id='3082'>0.73224E+03</wgt>
<wgt id='3083'>0.73139E+03</wgt>
<wgt id='3084'>0.73136E+03</wgt>
<wgt id='3085'>0.73298E+03</wgt>
<wgt id='3086'>0.73138E+03</wgt>
<wgt id='3087'>0.73158E+03</wgt>
<wgt id='3088'>0.73178E+03</wgt>
<wgt id='3089'>0.73203E+03</wgt>
<wgt id='3090'>0.73283E+03</wgt>
<wgt id='3091'>0.73253E+03</wgt>
<wgt id='3092'>0.73201E+03</wgt>
<wgt id='3093'>0.73215E+03</wgt>
<wgt id='3094'>0.73267E+03</wgt>
<wgt id='3095'>0.73206E+03</wgt>
<wgt id='3096'>0.73209E+03</wgt>
<wgt id='3097'>0.73198E+03</wgt>
<wgt id='3098'>0.73172E+03</wgt>
<wgt id='3099'>0.73209E+03</wgt>
<wgt id='3100'>0.73247E+03</wgt>
<wgt id='3101'>0.71335E+03</wgt>
<wgt id='3102'>0.75410E+03</wgt>
<wgt id='5000'>0.71973E+03</wgt>
<wgt id='5001'>0.72092E+03</wgt>
<wgt id='5002'>0.72293E+03</wgt>
<wgt id='5003'>0.71941E+03</wgt>
<wgt id='5004'>0.72251E+03</wgt>
<wgt id='5005'>0.72068E+03</wgt>
<wgt id='5006'>0.71336E+03</wgt>
<wgt id='5007'>0.71697E+03</wgt>
<wgt id='5008'>0.72470E+03</wgt>
<wgt id='5009'>0.71418E+03</wgt>
<wgt id='5010'>0.72120E+03</wgt>
<wgt id='5011'>0.72839E+03</wgt>
<wgt id='5012'>0.71231E+03</wgt>
<wgt id='5013'>0.74294E+03</wgt>
<wgt id='5014'>0.71026E+03</wgt>
<wgt id='5015'>0.71334E+03</wgt>
<wgt id='5016'>0.73695E+03</wgt>
<wgt id='5017'>0.70950E+03</wgt>
<wgt id='5018'>0.73039E+03</wgt>
<wgt id='5019'>0.71826E+03</wgt>
<wgt id='5020'>0.71994E+03</wgt>
<wgt id='5021'>0.71468E+03</wgt>
<wgt id='5022'>0.72288E+03</wgt>
<wgt id='5023'>0.71494E+03</wgt>
<wgt id='5024'>0.72515E+03</wgt>
<wgt id='5025'>0.72328E+03</wgt>
<wgt id='5026'>0.71681E+03</wgt>
<wgt id='5027'>0.71761E+03</wgt>
<wgt id='5028'>0.72316E+03</wgt>
<wgt id='5029'>0.72896E+03</wgt>
<wgt id='5030'>0.71387E+03</wgt>
<wgt id='5031'>0.72143E+03</wgt>
<wgt id='5032'>0.71714E+03</wgt>
<wgt id='5033'>0.71508E+03</wgt>
<wgt id='5034'>0.72446E+03</wgt>
<wgt id='5035'>0.72157E+03</wgt>
<wgt id='5036'>0.71768E+03</wgt>
<wgt id='5037'>0.70361E+03</wgt>
<wgt id='5038'>0.73834E+03</wgt>
<wgt id='5039'>0.73596E+03</wgt>
<wgt id='5040'>0.71125E+03</wgt>
<wgt id='5041'>0.72259E+03</wgt>
<wgt id='5042'>0.72017E+03</wgt>
<wgt id='5043'>0.72668E+03</wgt>
<wgt id='5044'>0.72521E+03</wgt>
<wgt id='5045'>0.70781E+03</wgt>
<wgt id='5046'>0.71346E+03</wgt>
<wgt id='5047'>0.70526E+03</wgt>
<wgt id='5048'>0.72011E+03</wgt>
<wgt id='5049'>0.71884E+03</wgt>
<wgt id='5050'>0.71885E+03</wgt>
<wgt id='5051'>0.71998E+03</wgt>
<wgt id='5052'>0.71747E+03</wgt>
<wgt id='5053'>0.69584E+03</wgt>
<wgt id='5054'>0.71514E+03</wgt>
<wgt id='5055'>0.71475E+03</wgt>
<wgt id='5056'>0.72810E+03</wgt>
<wgt id='5060'>0.69836E+03</wgt>
<wgt id='5070'>0.74272E+03</wgt>
<wgt id='4000'>0.73695E+03</wgt>
<wgt id='4001'>0.73463E+03</wgt>
<wgt id='4002'>0.73768E+03</wgt>
<wgt id='4003'>0.72539E+03</wgt>
<wgt id='4004'>0.73638E+03</wgt>
<wgt id='4005'>0.73658E+03</wgt>
<wgt id='4006'>0.73716E+03</wgt>
<wgt id='4007'>0.73047E+03</wgt>
<wgt id='4008'>0.73577E+03</wgt>
<wgt id='4009'>0.74239E+03</wgt>
<wgt id='4010'>0.74079E+03</wgt>
<wgt id='4011'>0.74452E+03</wgt>
<wgt id='4012'>0.73029E+03</wgt>
<wgt id='4013'>0.74468E+03</wgt>
<wgt id='4014'>0.73473E+03</wgt>
<wgt id='4015'>0.75351E+03</wgt>
<wgt id='4016'>0.72600E+03</wgt>
<wgt id='4017'>0.72319E+03</wgt>
<wgt id='4018'>0.75335E+03</wgt>
<wgt id='4019'>0.73304E+03</wgt>
<wgt id='4020'>0.74079E+03</wgt>
<wgt id='4021'>0.73716E+03</wgt>
<wgt id='4022'>0.73665E+03</wgt>
<wgt id='4023'>0.74206E+03</wgt>
<wgt id='4024'>0.73172E+03</wgt>
<wgt id='4025'>0.74778E+03</wgt>
<wgt id='4026'>0.72646E+03</wgt>
<wgt id='4027'>0.74218E+03</wgt>
<wgt id='4028'>0.72971E+03</wgt>
<wgt id='4029'>0.74196E+03</wgt>
<wgt id='4030'>0.73522E+03</wgt>
<wgt id='4031'>0.73809E+03</wgt>
<wgt id='4032'>0.73548E+03</wgt>
<wgt id='4033'>0.73491E+03</wgt>
<wgt id='4034'>0.74143E+03</wgt>
<wgt id='4035'>0.71979E+03</wgt>
<wgt id='4036'>0.75335E+03</wgt>
<wgt id='4037'>0.72859E+03</wgt>
<wgt id='4038'>0.74943E+03</wgt>
<wgt id='4039'>0.73212E+03</wgt>
<wgt id='4040'>0.74245E+03</wgt>
<wgt id='4041'>0.73283E+03</wgt>
<wgt id='4042'>0.73993E+03</wgt>
<wgt id='4043'>0.72180E+03</wgt>
<wgt id='4044'>0.75005E+03</wgt>
<wgt id='4045'>0.75569E+03</wgt>
<wgt id='4046'>0.73370E+03</wgt>
<wgt id='4047'>0.73649E+03</wgt>
<wgt id='4048'>0.73750E+03</wgt>
<wgt id='4049'>0.73840E+03</wgt>
<wgt id='4050'>0.73874E+03</wgt>
<wgt id='4051'>0.74028E+03</wgt>
<wgt id='4052'>0.73728E+03</wgt>
<wgt id='4053'>0.70798E+03</wgt>
<wgt id='4054'>0.74432E+03</wgt>
<wgt id='4055'>0.73324E+03</wgt>
<wgt id='4056'>0.74301E+03</wgt>
<wgt id='4060'>0.71668E+03</wgt>
<wgt id='4070'>0.75921E+03</wgt>
<wgt id='4080'>0.79881E+03</wgt>
<wgt id='6000'>0.73683E+03</wgt>
<wgt id='6001'>0.73734E+03</wgt>
<wgt id='6002'>0.73628E+03</wgt>
<wgt id='6003'>0.73736E+03</wgt>
<wgt id='6004'>0.73646E+03</wgt>
<wgt id='6005'>0.74077E+03</wgt>
<wgt id='6006'>0.73316E+03</wgt>
<wgt id='6007'>0.73445E+03</wgt>
<wgt id='6008'>0.73951E+03</wgt>
<wgt id='6009'>0.73812E+03</wgt>
<wgt id='6010'>0.73553E+03</wgt>
<wgt id='6011'>0.73763E+03</wgt>
<wgt id='6012'>0.73508E+03</wgt>
<wgt id='6013'>0.73649E+03</wgt>
<wgt id='6014'>0.73740E+03</wgt>
<wgt id='6015'>0.73596E+03</wgt>
<wgt id='6016'>0.73731E+03</wgt>
<wgt id='6017'>0.73330E+03</wgt>
<wgt id='6018'>0.74096E+03</wgt>
<wgt id='6019'>0.73687E+03</wgt>
<wgt id='6020'>0.73678E+03</wgt>
<wgt id='6021'>0.73496E+03</wgt>
<wgt id='6022'>0.73928E+03</wgt>
<wgt id='6023'>0.73156E+03</wgt>
<wgt id='6024'>0.74032E+03</wgt>
<wgt id='6025'>0.74154E+03</wgt>
<wgt id='6026'>0.73182E+03</wgt>
<wgt id='6027'>0.73715E+03</wgt>
<wgt id='6028'>0.73672E+03</wgt>
<wgt id='6029'>0.73241E+03</wgt>
<wgt id='6030'>0.74220E+03</wgt>
<wgt id='6031'>0.72602E+03</wgt>
<wgt id='6032'>0.74922E+03</wgt>
<wgt id='6033'>0.74142E+03</wgt>
<wgt id='6034'>0.73237E+03</wgt>
<wgt id='6035'>0.73869E+03</wgt>
<wgt id='6036'>0.73255E+03</wgt>
<wgt id='6037'>0.73751E+03</wgt>
<wgt id='6038'>0.73645E+03</wgt>
<wgt id='6039'>0.73416E+03</wgt>
<wgt id='6040'>0.73987E+03</wgt>
<wgt id='6041'>0.72966E+03</wgt>
<wgt id='6042'>0.74505E+03</wgt>
<wgt id='6043'>0.74368E+03</wgt>
<wgt id='6044'>0.73402E+03</wgt>
<wgt id='6045'>0.73536E+03</wgt>
<wgt id='6046'>0.74051E+03</wgt>
<wgt id='6047'>0.73747E+03</wgt>
<wgt id='6048'>0.73745E+03</wgt>
<wgt id='6049'>0.73606E+03</wgt>
<wgt id='6050'>0.73733E+03</wgt>
<wgt id='7000'>0.70216E+03</wgt>
<wgt id='7001'>0.70198E+03</wgt>
<wgt id='7002'>0.70241E+03</wgt>
<wgt id='7003'>0.70467E+03</wgt>
<wgt id='7004'>0.69969E+03</wgt>
<wgt id='7005'>0.70395E+03</wgt>
<wgt id='7006'>0.70146E+03</wgt>
<wgt id='7007'>0.70171E+03</wgt>
<wgt id='7008'>0.70261E+03</wgt>
<wgt id='7009'>0.70301E+03</wgt>
<wgt id='7010'>0.70137E+03</wgt>
<wgt id='7011'>0.69927E+03</wgt>
<wgt id='7012'>0.70344E+03</wgt>
<wgt id='7013'>0.70197E+03</wgt>
<wgt id='7014'>0.70242E+03</wgt>
<wgt id='7015'>0.70177E+03</wgt>
<wgt id='7016'>0.70263E+03</wgt>
<wgt id='7017'>0.70009E+03</wgt>
<wgt id='7018'>0.70333E+03</wgt>
<wgt id='7019'>0.70213E+03</wgt>
<wgt id='7020'>0.70221E+03</wgt>
<wgt id='7021'>0.70166E+03</wgt>
<wgt id='7022'>0.70254E+03</wgt>
<wgt id='7023'>0.70642E+03</wgt>
<wgt id='7024'>0.69810E+03</wgt>
<wgt id='7025'>0.70380E+03</wgt>
<wgt id='7026'>0.69810E+03</wgt>
<wgt id='7027'>0.70202E+03</wgt>
<wgt id='7028'>0.70189E+03</wgt>
<wgt id='7029'>0.70627E+03</wgt>
<wgt id='7030'>0.69197E+03</wgt>
<wgt id='7031'>0.69755E+03</wgt>
<wgt id='7032'>0.71192E+03</wgt>
<wgt id='7033'>0.70382E+03</wgt>
<wgt id='7034'>0.69906E+03</wgt>
<wgt id='7035'>0.69559E+03</wgt>
<wgt id='7036'>0.70522E+03</wgt>
<wgt id='7037'>0.70193E+03</wgt>
<wgt id='7038'>0.70262E+03</wgt>
<wgt id='7039'>0.69863E+03</wgt>
<wgt id='7040'>0.70489E+03</wgt>
<wgt id='7041'>0.70644E+03</wgt>
<wgt id='7042'>0.69564E+03</wgt>
<wgt id='7043'>0.70291E+03</wgt>
<wgt id='7044'>0.69795E+03</wgt>
<wgt id='7045'>0.69726E+03</wgt>
<wgt id='7046'>0.70545E+03</wgt>
<wgt id='7047'>0.70456E+03</wgt>
<wgt id='7048'>0.70112E+03</wgt>
<wgt id='7049'>0.70268E+03</wgt>
<wgt id='7050'>0.70148E+03</wgt>
<wgt id='7060'>0.97834E+03</wgt>
<wgt id='8000'>0.69790E+03</wgt>
<wgt id='8001'>0.69781E+03</wgt>
<wgt id='8002'>0.69811E+03</wgt>
<wgt id='8003'>0.69790E+03</wgt>
<wgt id='8004'>0.69788E+03</wgt>
<wgt id='8005'>0.69653E+03</wgt>
<wgt id='8006'>0.69873E+03</wgt>
<wgt id='8007'>0.69935E+03</wgt>
<wgt id='8008'>0.69945E+03</wgt>
<wgt id='8009'>0.70092E+03</wgt>
<wgt id='8010'>0.69707E+03</wgt>
<wgt id='8011'>0.69816E+03</wgt>
<wgt id='8012'>0.69531E+03</wgt>
<wgt id='8013'>0.69642E+03</wgt>
<wgt id='8014'>0.69972E+03</wgt>
<wgt id='8015'>0.69745E+03</wgt>
<wgt id='8016'>0.69890E+03</wgt>
<wgt id='8017'>0.69882E+03</wgt>
<wgt id='8018'>0.70040E+03</wgt>
<wgt id='8019'>0.69691E+03</wgt>
<wgt id='8020'>0.69989E+03</wgt>
<wgt id='8021'>0.69667E+03</wgt>
<wgt id='8022'>0.70142E+03</wgt>
<wgt id='8023'>0.69562E+03</wgt>
<wgt id='8024'>0.69335E+03</wgt>
<wgt id='8025'>0.69483E+03</wgt>
<wgt id='8026'>0.69810E+03</wgt>
<wgt id='8027'>0.69904E+03</wgt>
<wgt id='8028'>0.69820E+03</wgt>
<wgt id='8029'>0.70814E+03</wgt>
<wgt id='8500'>0.73795E+03</wgt>
<wgt id='8501'>0.73082E+03</wgt>
<wgt id='8502'>0.73971E+03</wgt>
<wgt id='8503'>0.74067E+03</wgt>
<wgt id='8504'>0.73432E+03</wgt>
<wgt id='8505'>0.73821E+03</wgt>
<wgt id='8506'>0.73836E+03</wgt>
<wgt id='8507'>0.73447E+03</wgt>
<wgt id='8508'>0.73162E+03</wgt>
<wgt id='8509'>0.73961E+03</wgt>
<wgt id='8510'>0.73744E+03</wgt>
<wgt id='8511'>0.73452E+03</wgt>
<wgt id='8512'>0.74287E+03</wgt>
<wgt id='8513'>0.73961E+03</wgt>
<wgt id='8514'>0.73859E+03</wgt>
<wgt id='8515'>0.74163E+03</wgt>
<wgt id='8516'>0.73600E+03</wgt>
<wgt id='8517'>0.74224E+03</wgt>
<wgt id='8518'>0.73144E+03</wgt>
<wgt id='8519'>0.72960E+03</wgt>
<wgt id='8520'>0.73261E+03</wgt>
<wgt id='8521'>0.73222E+03</wgt>
<wgt id='8522'>0.74434E+03</wgt>
<wgt id='8523'>0.73327E+03</wgt>
<wgt id='8524'>0.73947E+03</wgt>
<wgt id='8525'>0.73959E+03</wgt>
<wgt id='8526'>0.73912E+03</wgt>
<wgt id='8527'>0.73855E+03</wgt>
<wgt id='8528'>0.73685E+03</wgt>
<wgt id='8529'>0.73618E+03</wgt>
<wgt id='8530'>0.73761E+03</wgt>
<wgt id='8531'>0.73789E+03</wgt>
<wgt id='8532'>0.73763E+03</wgt>
<wgt id='8533'>0.73668E+03</wgt>
<wgt id='8534'>0.73852E+03</wgt>
<wgt id='8535'>0.74029E+03</wgt>
<wgt id='8536'>0.73735E+03</wgt>
<wgt id='8537'>0.73814E+03</wgt>
<wgt id='8538'>0.73792E+03</wgt>
<wgt id='8539'>0.73832E+03</wgt>
<wgt id='8540'>0.73901E+03</wgt>
<wgt id='8541'>0.73854E+03</wgt>
<wgt id='8542'>0.73796E+03</wgt>
<wgt id='8543'>0.73632E+03</wgt>
<wgt id='8544'>0.73917E+03</wgt>
<wgt id='8545'>0.73819E+03</wgt>
<wgt id='8546'>0.73910E+03</wgt>
<wgt id='8547'>0.73755E+03</wgt>
<wgt id='8548'>0.73750E+03</wgt>
<wgt id='8549'>0.73783E+03</wgt>
<wgt id='8550'>0.73764E+03</wgt>
<wgt id='8551'>0.73800E+03</wgt>
<wgt id='8552'>0.73735E+03</wgt>
<wgt id='8553'>0.73702E+03</wgt>
<wgt id='8554'>0.73762E+03</wgt>
<wgt id='8555'>0.73792E+03</wgt>
<wgt id='8556'>0.73772E+03</wgt>
<wgt id='8557'>0.73821E+03</wgt>
<wgt id='8558'>0.73867E+03</wgt>
<wgt id='8559'>0.73775E+03</wgt>
<wgt id='8560'>0.73734E+03</wgt>
<wgt id='8561'>0.73833E+03</wgt>
<wgt id='8562'>0.73763E+03</wgt>
<wgt id='8563'>0.73798E+03</wgt>
<wgt id='8564'>0.73781E+03</wgt>
<wgt id='8565'>0.73832E+03</wgt>
<wgt id='8566'>0.73857E+03</wgt>
<wgt id='8567'>0.73822E+03</wgt>
<wgt id='8568'>0.73850E+03</wgt>
<wgt id='8569'>0.73838E+03</wgt>
<wgt id='8570'>0.73771E+03</wgt>
<wgt id='8571'>0.73731E+03</wgt>
<wgt id='8572'>0.73734E+03</wgt>
<wgt id='8573'>0.73748E+03</wgt>
<wgt id='8574'>0.73780E+03</wgt>
<wgt id='8575'>0.73776E+03</wgt>
<wgt id='8576'>0.73806E+03</wgt>
<wgt id='8577'>0.73730E+03</wgt>
<wgt id='8578'>0.73801E+03</wgt>
<wgt id='8579'>0.73856E+03</wgt>
<wgt id='8580'>0.73758E+03</wgt>
<wgt id='8581'>0.73830E+03</wgt>
<wgt id='8582'>0.73757E+03</wgt>
<wgt id='8583'>0.73825E+03</wgt>
<wgt id='8584'>0.73856E+03</wgt>
<wgt id='8585'>0.73824E+03</wgt>
<wgt id='8586'>0.73886E+03</wgt>
<wgt id='8587'>0.73815E+03</wgt>
<wgt id='8588'>0.73796E+03</wgt>
<wgt id='8589'>0.73792E+03</wgt>
<wgt id='8590'>0.73792E+03</wgt>
<wgt id='8591'>0.73749E+03</wgt>
<wgt id='8592'>0.73783E+03</wgt>
<wgt id='8593'>0.73770E+03</wgt>
<wgt id='8594'>0.73783E+03</wgt>
<wgt id='8595'>0.73789E+03</wgt>
<wgt id='8596'>0.73776E+03</wgt>
<wgt id='8597'>0.73820E+03</wgt>
<wgt id='8598'>0.73820E+03</wgt>
<wgt id='8599'>0.73806E+03</wgt>
<wgt id='8600'>0.73795E+03</wgt>
<wgt id='8601'>0.72477E+03</wgt>
<wgt id='8602'>0.75229E+03</wgt>
<wgt id='9000'>0.70686E+03</wgt>
<wgt id='9001'>0.70911E+03</wgt>
<wgt id='9002'>0.70619E+03</wgt>
<wgt id='9003'>0.70771E+03</wgt>
<wgt id='9004'>0.71014E+03</wgt>
<wgt id='9005'>0.71168E+03</wgt>
<wgt id='9006'>0.70958E+03</wgt>
<wgt id='9007'>0.70470E+03</wgt>
<wgt id='9008'>0.70580E+03</wgt>
<wgt id='9009'>0.70882E+03</wgt>
<wgt id='9010'>0.70757E+03</wgt>
<wgt id='9011'>0.70886E+03</wgt>
<wgt id='9012'>0.70920E+03</wgt>
<wgt id='9013'>0.71443E+03</wgt>
<wgt id='9014'>0.70659E+03</wgt>
<wgt id='9015'>0.69890E+03</wgt>
<wgt id='9016'>0.70493E+03</wgt>
<wgt id='9017'>0.70477E+03</wgt>
<wgt id='9018'>0.71261E+03</wgt>
<wgt id='9019'>0.71144E+03</wgt>
<wgt id='9020'>0.71436E+03</wgt>
<wgt id='9021'>0.69876E+03</wgt>
<wgt id='9022'>0.70789E+03</wgt>
<wgt id='9023'>0.70090E+03</wgt>
<wgt id='9024'>0.70343E+03</wgt>
<wgt id='9025'>0.71090E+03</wgt>
<wgt id='9026'>0.70622E+03</wgt>
<wgt id='9027'>0.70539E+03</wgt>
<wgt id='9028'>0.70759E+03</wgt>
<wgt id='9029'>0.70762E+03</wgt>
<wgt id='9030'>0.70559E+03</wgt>
<wgt id='9031'>0.70572E+03</wgt>
<wgt id='9032'>0.70771E+03</wgt>
<wgt id='9033'>0.70754E+03</wgt>
<wgt id='9034'>0.70776E+03</wgt>
<wgt id='9035'>0.70784E+03</wgt>
<wgt id='9036'>0.70730E+03</wgt>
<wgt id='9037'>0.70711E+03</wgt>
<wgt id='9038'>0.70740E+03</wgt>
<wgt id='9039'>0.70660E+03</wgt>
<wgt id='9040'>0.70628E+03</wgt>
<wgt id='9041'>0.70673E+03</wgt>
<wgt id='9042'>0.70690E+03</wgt>
<wgt id='9043'>0.70559E+03</wgt>
<wgt id='9044'>0.70735E+03</wgt>
<wgt id='9045'>0.70682E+03</wgt>
<wgt id='9046'>0.70581E+03</wgt>
<wgt id='9047'>0.70720E+03</wgt>
<wgt id='9048'>0.70713E+03</wgt>
<wgt id='9049'>0.70654E+03</wgt>
<wgt id='9050'>0.70685E+03</wgt>
<wgt id='9051'>0.70741E+03</wgt>
<wgt id='9052'>0.70757E+03</wgt>
<wgt id='9053'>0.70715E+03</wgt>
<wgt id='9054'>0.70673E+03</wgt>
<wgt id='9055'>0.70662E+03</wgt>
<wgt id='9056'>0.70725E+03</wgt>
<wgt id='9057'>0.70697E+03</wgt>
<wgt id='9058'>0.70597E+03</wgt>
<wgt id='9059'>0.70652E+03</wgt>
<wgt id='9060'>0.70689E+03</wgt>
<wgt id='9061'>0.70676E+03</wgt>
<wgt id='9062'>0.70711E+03</wgt>
<wgt id='9063'>0.70693E+03</wgt>
<wgt id='9064'>0.70703E+03</wgt>
<wgt id='9065'>0.70651E+03</wgt>
<wgt id='9066'>0.70661E+03</wgt>
<wgt id='9067'>0.70680E+03</wgt>
<wgt id='9068'>0.70690E+03</wgt>
<wgt id='9069'>0.70764E+03</wgt>
<wgt id='9070'>0.70666E+03</wgt>
<wgt id='9071'>0.70724E+03</wgt>
<wgt id='9072'>0.70743E+03</wgt>
<wgt id='9073'>0.70677E+03</wgt>
<wgt id='9074'>0.70709E+03</wgt>
<wgt id='9075'>0.70691E+03</wgt>
<wgt id='9076'>0.70685E+03</wgt>
<wgt id='9077'>0.70713E+03</wgt>
<wgt id='9078'>0.70714E+03</wgt>
<wgt id='9079'>0.70670E+03</wgt>
<wgt id='9080'>0.70753E+03</wgt>
<wgt id='9081'>0.70697E+03</wgt>
<wgt id='9082'>0.70706E+03</wgt>
<wgt id='9083'>0.70668E+03</wgt>
<wgt id='9084'>0.70636E+03</wgt>
<wgt id='9085'>0.70628E+03</wgt>
<wgt id='9086'>0.70713E+03</wgt>
<wgt id='9087'>0.70603E+03</wgt>
<wgt id='9088'>0.70643E+03</wgt>
<wgt id='9089'>0.70651E+03</wgt>
<wgt id='9090'>0.70698E+03</wgt>
<wgt id='9091'>0.70668E+03</wgt>
<wgt id='9092'>0.70673E+03</wgt>
<wgt id='9093'>0.70668E+03</wgt>
<wgt id='9094'>0.70667E+03</wgt>
<wgt id='9095'>0.70697E+03</wgt>
<wgt id='9096'>0.70665E+03</wgt>
<wgt id='9097'>0.70693E+03</wgt>
<wgt id='9098'>0.70679E+03</wgt>
<wgt id='9099'>0.70664E+03</wgt>
<wgt id='9100'>0.70691E+03</wgt>
<wgt id='9101'>0.69306E+03</wgt>
<wgt id='9102'>0.72082E+03</wgt>
<wgt id='10000'>0.73785E+03</wgt>
<wgt id='10001'>0.73811E+03</wgt>
<wgt id='10002'>0.73162E+03</wgt>
<wgt id='10003'>0.73789E+03</wgt>
<wgt id='10004'>0.73330E+03</wgt>
<wgt id='10005'>0.73464E+03</wgt>
<wgt id='10006'>0.73154E+03</wgt>
<wgt id='10007'>0.73735E+03</wgt>
<wgt id='10008'>0.73805E+03</wgt>
<wgt id='10009'>0.73363E+03</wgt>
<wgt id='10010'>0.73810E+03</wgt>
<wgt id='10011'>0.73160E+03</wgt>
<wgt id='10012'>0.73405E+03</wgt>
<wgt id='10013'>0.73869E+03</wgt>
<wgt id='10014'>0.73821E+03</wgt>
<wgt id='10015'>0.74011E+03</wgt>
<wgt id='10016'>0.73699E+03</wgt>
<wgt id='10017'>0.74081E+03</wgt>
<wgt id='10018'>0.74011E+03</wgt>
<wgt id='10019'>0.72442E+03</wgt>
<wgt id='10020'>0.73637E+03</wgt>
<wgt id='10021'>0.73726E+03</wgt>
<wgt id='10022'>0.73950E+03</wgt>
<wgt id='10023'>0.73916E+03</wgt>
<wgt id='10024'>0.73785E+03</wgt>
<wgt id='10025'>0.73704E+03</wgt>
<wgt id='10026'>0.74037E+03</wgt>
<wgt id='10027'>0.73850E+03</wgt>
<wgt id='10028'>0.74491E+03</wgt>
<wgt id='10029'>0.73833E+03</wgt>
<wgt id='10030'>0.73753E+03</wgt>
<wgt id='10031'>0.72477E+03</wgt>
<wgt id='10032'>0.75229E+03</wgt>
<wgt id='11000'>0.70676E+03</wgt>
<wgt id='11001'>0.69525E+03</wgt>
<wgt id='11002'>0.70378E+03</wgt>
<wgt id='11003'>0.70712E+03</wgt>
<wgt id='11004'>0.69992E+03</wgt>
<wgt id='11005'>0.71191E+03</wgt>
<wgt id='11006'>0.70700E+03</wgt>
<wgt id='11007'>0.70799E+03</wgt>
<wgt id='11008'>0.70745E+03</wgt>
<wgt id='11009'>0.70738E+03</wgt>
<wgt id='11010'>0.70517E+03</wgt>
<wgt id='11011'>0.70545E+03</wgt>
<wgt id='11012'>0.70551E+03</wgt>
<wgt id='11013'>0.70762E+03</wgt>
<wgt id='11014'>0.70590E+03</wgt>
<wgt id='11015'>0.70320E+03</wgt>
<wgt id='11016'>0.70863E+03</wgt>
<wgt id='11017'>0.70861E+03</wgt>
<wgt id='11018'>0.70747E+03</wgt>
<wgt id='11019'>0.70824E+03</wgt>
<wgt id='11020'>0.70681E+03</wgt>
<wgt id='11021'>0.70894E+03</wgt>
<wgt id='11022'>0.70691E+03</wgt>
<wgt id='11023'>0.70681E+03</wgt>
<wgt id='11024'>0.70277E+03</wgt>
<wgt id='11025'>0.70503E+03</wgt>
<wgt id='11026'>0.70663E+03</wgt>
<wgt id='11027'>0.70935E+03</wgt>
<wgt id='11028'>0.70561E+03</wgt>
<wgt id='11029'>0.69455E+03</wgt>
<wgt id='11030'>0.70704E+03</wgt>
<wgt id='11031'>0.69306E+03</wgt>
<wgt id='11032'>0.72082E+03</wgt>
<wgt id='12000'>0.62747E+03</wgt>
<wgt id='12001'>0.62666E+03</wgt>
<wgt id='12002'>0.62828E+03</wgt>
<wgt id='12003'>0.62795E+03</wgt>
<wgt id='12004'>0.62700E+03</wgt>
<wgt id='12005'>0.62798E+03</wgt>
<wgt id='12006'>0.62697E+03</wgt>
<wgt id='12007'>0.63043E+03</wgt>
<wgt id='12008'>0.62458E+03</wgt>
<wgt id='12009'>0.62656E+03</wgt>
<wgt id='12010'>0.62842E+03</wgt>
<wgt id='12011'>0.62321E+03</wgt>
<wgt id='12012'>0.63213E+03</wgt>
<wgt id='12013'>0.62649E+03</wgt>
<wgt id='12014'>0.62848E+03</wgt>
<wgt id='12015'>0.63119E+03</wgt>
<wgt id='12016'>0.62304E+03</wgt>
<wgt id='12017'>0.62997E+03</wgt>
<wgt id='12018'>0.62573E+03</wgt>
<wgt id='12019'>0.63230E+03</wgt>
<wgt id='12020'>0.62246E+03</wgt>
<wgt id='12021'>0.62824E+03</wgt>
<wgt id='12022'>0.62670E+03</wgt>
<wgt id='12023'>0.62025E+03</wgt>
<wgt id='12024'>0.63443E+03</wgt>
<wgt id='12025'>0.62122E+03</wgt>
<wgt id='12026'>0.63395E+03</wgt>
<wgt id='12027'>0.63874E+03</wgt>
<wgt id='12028'>0.61746E+03</wgt>
<wgt id='12050'>0.62747E+03</wgt>
<wgt id='12051'>0.62633E+03</wgt>
<wgt id='12052'>0.61783E+03</wgt>
<wgt id='12053'>0.62643E+03</wgt>
<wgt id='12054'>0.61953E+03</wgt>
<wgt id='12055'>0.61625E+03</wgt>
<wgt id='12056'>0.63763E+03</wgt>
<wgt id='12057'>0.62367E+03</wgt>
<wgt id='12058'>0.62290E+03</wgt>
<wgt id='12059'>0.62824E+03</wgt>
<wgt id='12060'>0.61804E+03</wgt>
<wgt id='12061'>0.61838E+03</wgt>
<wgt id='12062'>0.62235E+03</wgt>
<wgt id='12063'>0.63122E+03</wgt>
<wgt id='13000'>0.68450E+03</wgt>
<wgt id='13001'>0.67773E+03</wgt>
<wgt id='13002'>0.67916E+03</wgt>
<wgt id='13003'>0.67838E+03</wgt>
<wgt id='13004'>0.67851E+03</wgt>
<wgt id='13005'>0.67912E+03</wgt>
<wgt id='13006'>0.67777E+03</wgt>
<wgt id='13007'>0.68249E+03</wgt>
<wgt id='13008'>0.67451E+03</wgt>
<wgt id='13009'>0.67526E+03</wgt>
<wgt id='13010'>0.68174E+03</wgt>
<wgt id='13011'>0.68089E+03</wgt>
<wgt id='13012'>0.67606E+03</wgt>
<wgt id='13013'>0.67786E+03</wgt>
<wgt id='13014'>0.67899E+03</wgt>
<wgt id='13015'>0.67955E+03</wgt>
<wgt id='13016'>0.67588E+03</wgt>
<wgt id='13017'>0.67758E+03</wgt>
<wgt id='13018'>0.67936E+03</wgt>
<wgt id='13019'>0.68062E+03</wgt>
<wgt id='13020'>0.67640E+03</wgt>
<wgt id='13021'>0.68648E+03</wgt>
<wgt id='13022'>0.67059E+03</wgt>
<wgt id='13023'>0.67015E+03</wgt>
<wgt id='13024'>0.68679E+03</wgt>
<wgt id='13025'>0.66590E+03</wgt>
<wgt id='13026'>0.69040E+03</wgt>
<wgt id='13027'>0.67306E+03</wgt>
<wgt id='13028'>0.68446E+03</wgt>
<wgt id='13050'>0.68450E+03</wgt>
<wgt id='13051'>0.68108E+03</wgt>
<wgt id='13052'>0.67098E+03</wgt>
<wgt id='13053'>0.68087E+03</wgt>
<wgt id='13054'>0.67689E+03</wgt>
<wgt id='13055'>0.65419E+03</wgt>
<wgt id='13056'>0.68668E+03</wgt>
<wgt id='13057'>0.67852E+03</wgt>
<wgt id='13058'>0.67996E+03</wgt>
<wgt id='13059'>0.68456E+03</wgt>
<wgt id='13060'>0.64796E+03</wgt>
<wgt id='13061'>0.68098E+03</wgt>
<wgt id='13062'>0.67711E+03</wgt>
<wgt id='13063'>0.69106E+03</wgt>
<wgt id='14000'>0.73470E+03</wgt>
<wgt id='14001'>0.73462E+03</wgt>
<wgt id='14002'>0.73454E+03</wgt>
<wgt id='14003'>0.73446E+03</wgt>
<wgt id='14004'>0.73438E+03</wgt>
<wgt id='14005'>0.73430E+03</wgt>
<wgt id='14006'>0.73422E+03</wgt>
<wgt id='14007'>0.73414E+03</wgt>
<wgt id='14008'>0.73406E+03</wgt>
<wgt id='14009'>0.73398E+03</wgt>
<wgt id='14010'>0.73390E+03</wgt>
<wgt id='14011'>0.73382E+03</wgt>
<wgt id='14012'>0.73374E+03</wgt>
<wgt id='14013'>0.73366E+03</wgt>
<wgt id='14014'>0.73358E+03</wgt>
<wgt id='14015'>0.73350E+03</wgt>
<wgt id='14016'>0.73342E+03</wgt>
<wgt id='14017'>0.73334E+03</wgt>
<wgt id='14018'>0.73326E+03</wgt>
<wgt id='14019'>0.73318E+03</wgt>
<wgt id='14020'>0.73310E+03</wgt>
<wgt id='14021'>0.73302E+03</wgt>
<wgt id='14022'>0.73294E+03</wgt>
<wgt id='14023'>0.73286E+03</wgt>
<wgt id='14024'>0.73278E+03</wgt>
<wgt id='14025'>0.73270E+03</wgt>
<wgt id='14026'>0.73262E+03</wgt>
<wgt id='14027'>0.73254E+03</wgt>
<wgt id='14028'>0.73246E+03</wgt>
<wgt id='14029'>0.73238E+03</wgt>
<wgt id='14030'>0.73230E+03</wgt>
<wgt id='15000'>0.69852E+03</wgt>
<wgt id='15001'>0.70086E+03</wgt>
<wgt id='15002'>0.69790E+03</wgt>
<wgt id='15003'>0.69935E+03</wgt>
<wgt id='15004'>0.70179E+03</wgt>
<wgt id='15005'>0.70329E+03</wgt>
<wgt id='15006'>0.70113E+03</wgt>
<wgt id='15007'>0.69632E+03</wgt>
<wgt id='15008'>0.69746E+03</wgt>
<wgt id='15009'>0.70044E+03</wgt>
<wgt id='15010'>0.69924E+03</wgt>
<wgt id='15011'>0.70040E+03</wgt>
<wgt id='15012'>0.70078E+03</wgt>
<wgt id='15013'>0.70595E+03</wgt>
<wgt id='15014'>0.69827E+03</wgt>
<wgt id='15015'>0.69081E+03</wgt>
<wgt id='15016'>0.69651E+03</wgt>
<wgt id='15017'>0.69651E+03</wgt>
<wgt id='15018'>0.70425E+03</wgt>
<wgt id='15019'>0.70299E+03</wgt>
<wgt id='15020'>0.70585E+03</wgt>
<wgt id='15021'>0.69052E+03</wgt>
<wgt id='15022'>0.69959E+03</wgt>
<wgt id='15023'>0.69255E+03</wgt>
<wgt id='15024'>0.69515E+03</wgt>
<wgt id='15025'>0.70266E+03</wgt>
<wgt id='15026'>0.69798E+03</wgt>
<wgt id='15027'>0.69695E+03</wgt>
<wgt id='15028'>0.69921E+03</wgt>
<wgt id='15029'>0.69932E+03</wgt>
<wgt id='15030'>0.69732E+03</wgt>
<wgt id='15031'>0.69727E+03</wgt>
<wgt id='15032'>0.69940E+03</wgt>
<wgt id='15033'>0.69923E+03</wgt>
<wgt id='15034'>0.69942E+03</wgt>
<wgt id='15035'>0.69952E+03</wgt>
<wgt id='15036'>0.69895E+03</wgt>
<wgt id='15037'>0.69877E+03</wgt>
<wgt id='15038'>0.69907E+03</wgt>
<wgt id='15039'>0.69830E+03</wgt>
<wgt id='15040'>0.69795E+03</wgt>
<wgt id='15041'>0.69842E+03</wgt>
<wgt id='15042'>0.69858E+03</wgt>
<wgt id='15043'>0.69720E+03</wgt>
<wgt id='15044'>0.69903E+03</wgt>
<wgt id='15045'>0.69849E+03</wgt>
<wgt id='15046'>0.69745E+03</wgt>
<wgt id='15047'>0.69888E+03</wgt>
<wgt id='15048'>0.69877E+03</wgt>
<wgt id='15049'>0.69822E+03</wgt>
<wgt id='15050'>0.69850E+03</wgt>
<wgt id='15051'>0.69908E+03</wgt>
<wgt id='15052'>0.69923E+03</wgt>
<wgt id='15053'>0.69881E+03</wgt>
<wgt id='15054'>0.69838E+03</wgt>
<wgt id='15055'>0.69827E+03</wgt>
<wgt id='15056'>0.69895E+03</wgt>
<wgt id='15057'>0.69863E+03</wgt>
<wgt id='15058'>0.69760E+03</wgt>
<wgt id='15059'>0.69816E+03</wgt>
<wgt id='15060'>0.69854E+03</wgt>
<wgt id='15061'>0.69842E+03</wgt>
<wgt id='15062'>0.69878E+03</wgt>
<wgt id='15063'>0.69861E+03</wgt>
<wgt id='15064'>0.69867E+03</wgt>
<wgt id='15065'>0.69818E+03</wgt>
<wgt id='15066'>0.69828E+03</wgt>
<wgt id='15067'>0.69848E+03</wgt>
<wgt id='15068'>0.69856E+03</wgt>
<wgt id='15069'>0.69932E+03</wgt>
<wgt id='15070'>0.69833E+03</wgt>
<wgt id='15071'>0.69889E+03</wgt>
<wgt id='15072'>0.69910E+03</wgt>
<wgt id='15073'>0.69844E+03</wgt>
<wgt id='15074'>0.69875E+03</wgt>
<wgt id='15075'>0.69858E+03</wgt>
<wgt id='15076'>0.69849E+03</wgt>
<wgt id='15077'>0.69879E+03</wgt>
<wgt id='15078'>0.69879E+03</wgt>
<wgt id='15079'>0.69836E+03</wgt>
<wgt id='15080'>0.69920E+03</wgt>
<wgt id='15081'>0.69862E+03</wgt>
<wgt id='15082'>0.69872E+03</wgt>
<wgt id='15083'>0.69835E+03</wgt>
<wgt id='15084'>0.69803E+03</wgt>
<wgt id='15085'>0.69794E+03</wgt>
<wgt id='15086'>0.69877E+03</wgt>
<wgt id='15087'>0.69771E+03</wgt>
<wgt id='15088'>0.69810E+03</wgt>
<wgt id='15089'>0.69819E+03</wgt>
<wgt id='15090'>0.69864E+03</wgt>
<wgt id='15091'>0.69836E+03</wgt>
<wgt id='15092'>0.69841E+03</wgt>
<wgt id='15093'>0.69834E+03</wgt>
<wgt id='15094'>0.69835E+03</wgt>
<wgt id='15095'>0.69863E+03</wgt>
<wgt id='15096'>0.69830E+03</wgt>
<wgt id='15097'>0.69859E+03</wgt>
<wgt id='15098'>0.69846E+03</wgt>
<wgt id='15099'>0.69829E+03</wgt>
<wgt id='15100'>0.69856E+03</wgt>
<wgt id='15101'>0.69852E+03</wgt>
<wgt id='15102'>0.69847E+03</wgt>
<wgt id='15103'>0.69853E+03</wgt>
<wgt id='15104'>0.69853E+03</wgt>
<wgt id='15105'>0.69855E+03</wgt>
<wgt id='15106'>0.69853E+03</wgt>
<wgt id='15107'>0.69849E+03</wgt>
<wgt id='1500'>0.74289E+03</wgt>
<wgt id='1501'>0.72020E+03</wgt>
<wgt id='1502'>0.76124E+03</wgt>
<wgt id='1503'>0.75795E+03</wgt>
<wgt id='1504'>0.70654E+03</wgt>
<wgt id='1505'>0.71035E+03</wgt>
<wgt id='1506'>0.72642E+03</wgt>
<wgt id='1507'>0.74942E+03</wgt>
<wgt id='1508'>0.75027E+03</wgt>
<wgt id='1509'>0.73728E+03</wgt>
<wgt id='1510'>0.76232E+03</wgt>
<wgt id='1511'>0.74335E+03</wgt>
<wgt id='1512'>0.73363E+03</wgt>
<wgt id='1513'>0.74546E+03</wgt>
<wgt id='1514'>0.77245E+03</wgt>
<wgt id='1515'>0.74182E+03</wgt>
<wgt id='1516'>0.75933E+03</wgt>
<wgt id='1517'>0.77075E+03</wgt>
<wgt id='1518'>0.75870E+03</wgt>
<wgt id='1519'>0.72859E+03</wgt>
<wgt id='1520'>0.74679E+03</wgt>
<wgt id='1521'>0.71465E+03</wgt>
<wgt id='1522'>0.74016E+03</wgt>
<wgt id='1523'>0.75425E+03</wgt>
<wgt id='1524'>0.72336E+03</wgt>
<wgt id='1525'>0.74272E+03</wgt>
<wgt id='1526'>0.70970E+03</wgt>
<wgt id='1527'>0.78061E+03</wgt>
<wgt id='1528'>0.75012E+03</wgt>
<wgt id='1529'>0.75212E+03</wgt>
<wgt id='1530'>0.73279E+03</wgt>
<wgt id='1531'>0.72555E+03</wgt>
<wgt id='1532'>0.73639E+03</wgt>
<wgt id='1533'>0.74324E+03</wgt>
<wgt id='1534'>0.71095E+03</wgt>
<wgt id='1535'>0.78475E+03</wgt>
<wgt id='1536'>0.74999E+03</wgt>
<wgt id='1537'>0.74717E+03</wgt>
<wgt id='1538'>0.74593E+03</wgt>
<wgt id='1539'>0.71868E+03</wgt>
<wgt id='1540'>0.73665E+03</wgt>
<wgt id='1541'>0.72737E+03</wgt>
<wgt id='1542'>0.72518E+03</wgt>
<wgt id='1543'>0.72320E+03</wgt>
<wgt id='1544'>0.73733E+03</wgt>
<wgt id='1545'>0.76750E+03</wgt>
<wgt id='1546'>0.73008E+03</wgt>
<wgt id='1547'>0.74355E+03</wgt>
<wgt id='1548'>0.73962E+03</wgt>
<wgt id='1549'>0.76814E+03</wgt>
<wgt id='1550'>0.74666E+03</wgt>
<wgt id='1551'>0.73531E+03</wgt>
<wgt id='1552'>0.75138E+03</wgt>
<wgt id='1553'>0.73223E+03</wgt>
<wgt id='1554'>0.73045E+03</wgt>
<wgt id='1555'>0.74331E+03</wgt>
<wgt id='1556'>0.75545E+03</wgt>
<wgt id='1557'>0.74731E+03</wgt>
<wgt id='1558'>0.74407E+03</wgt>
<wgt id='1559'>0.75011E+03</wgt>
<wgt id='1560'>0.74030E+03</wgt>
<wgt id='1561'>0.75038E+03</wgt>
<wgt id='1562'>0.75249E+03</wgt>
<wgt id='1563'>0.73015E+03</wgt>
<wgt id='1564'>0.77100E+03</wgt>
<wgt id='1565'>0.73715E+03</wgt>
<wgt id='1566'>0.74115E+03</wgt>
<wgt id='1567'>0.76555E+03</wgt>
<wgt id='1568'>0.74471E+03</wgt>
<wgt id='1569'>0.73849E+03</wgt>
<wgt id='1570'>0.74147E+03</wgt>
<wgt id='1571'>0.74157E+03</wgt>
<wgt id='1572'>0.72501E+03</wgt>
<wgt id='1573'>0.74133E+03</wgt>
<wgt id='1574'>0.72965E+03</wgt>
<wgt id='1575'>0.75203E+03</wgt>
<wgt id='1576'>0.71252E+03</wgt>
<wgt id='1577'>0.72063E+03</wgt>
<wgt id='1578'>0.72987E+03</wgt>
<wgt id='1579'>0.74346E+03</wgt>
<wgt id='1580'>0.73752E+03</wgt>
<wgt id='1581'>0.74272E+03</wgt>
<wgt id='1582'>0.74032E+03</wgt>
<wgt id='1583'>0.72749E+03</wgt>
<wgt id='1584'>0.75544E+03</wgt>
<wgt id='1585'>0.75231E+03</wgt>
<wgt id='1586'>0.74994E+03</wgt>
<wgt id='1587'>0.76331E+03</wgt>
<wgt id='1588'>0.75299E+03</wgt>
<wgt id='1589'>0.72921E+03</wgt>
<wgt id='1590'>0.73488E+03</wgt>
<wgt id='1591'>0.72882E+03</wgt>
<wgt id='1592'>0.74166E+03</wgt>
<wgt id='1593'>0.75407E+03</wgt>
<wgt id='1594'>0.75436E+03</wgt>
<wgt id='1595'>0.77752E+03</wgt>
<wgt id='1596'>0.73762E+03</wgt>
<wgt id='1597'>0.74730E+03</wgt>
<wgt id='1598'>0.74391E+03</wgt>
<wgt id='1599'>0.74726E+03</wgt>
<wgt id='1600'>0.77292E+03</wgt>
<wgt id='1601'>0.73274E+03</wgt>
<wgt id='1602'>0.74860E+03</wgt>
<wgt id='1700'>0.70005E+03</wgt>
<wgt id='1800'>0.75251E+03</wgt>
<wgt id='1850'>0.86856E+03</wgt>
<wgt id='1900'>0.80518E+03</wgt>
<wgt id='1950'>0.83738E+03</wgt>
</rwgt>
</event>
<event>
     13 322222  6.87070E+02  5.07604E+01 -1.00000E+00  1.36705E-01
      21    -1     0     0   504   505  0.000000000E+00  0.000000000E+00  2.013069338E+02  2.013069338E+02  0.000000000E+00  0.00000E+00  9.000E+00
      21    -1     0     0   502   503  0.000000000E+00  0.000000000E+00 -4.625308018E+02  4.625308018E+02  0.000000000E+00  0.00000E+00  9.000E+00
       6     2     1     2   502     0  1.350761890E+02 -1.400202445E+02 -1.426716966E+02  2.970778481E+02  1.733458655E+02  0.00000E+00  9.000E+00
      -6     2     1     2     0   505 -1.858244965E+02  1.389137008E+02 -7.223243944E+01  2.980421116E+02  1.725798807E+02  0.00000E+00  9.000E+00
      21     1     1     2   504   503  5.074830753E+01  1.106543763E+00 -4.631973198E+01  6.871777591E+01  6.743495762E-07  0.00000E+00  9.000E+00
      24     2     3     3     0     0  8.602385440E+01 -1.641135063E+02 -9.090533387E+01  2.216496498E+02  8.081733124E+01  0.00000E+00  9.000E+00
       5     1     3     3   502     0  4.905233457E+01  2.409326179E+01 -5.176636271E+01  7.542819830E+01  4.800000000E+00  0.00000E+00 -1.000E+00
     -24     2     4     4     0     0 -1.992675045E+02  1.568511505E+02 -6.826954969E+01  2.747781682E+02  8.082381183E+01  0.00000E+00  9.000E+00
      -5     1     4     4     0   505  1.344300803E+01 -1.793744968E+01 -3.962889754E+00  2.326394337E+01  4.800000000E+00  0.00000E+00  1.000E+00
      -3     1     6     6     0   507  1.450414542E+01 -7.793151071E+01 -3.098258840E+00  7.933050992E+01  2.000000000E-01  0.00000E+00  1.000E+00
       4     1     6     6   507     0  7.151970898E+01 -8.618199562E+01 -8.780707503E+01  1.423191398E+02  1.500000000E+00  0.00000E+00 -1.000E+00
       3     1     8     8   508     0 -9.365289045E+01  2.502402470E+01 -3.119362045E+01  1.018339219E+02  2.000000000E-01  0.00000E+00 -1.000E+00
      -4     1     8     8     0   508 -1.056146141E+02  1.318271258E+02 -3.707592924E+01  1.729442463E+02  1.500000000E+00  0.00000E+00  1.000E+00
#rwgt            2           1   60.652023227583364                2         418           0
<rwgt>
<wgt id='1001'>0.68707E+03</wgt>
<wgt id='1002'>0.63540E+03</wgt>
<wgt id='1003'>0.74427E+03</wgt>
<wgt id='1004'>0.53347E+03</wgt>
<wgt id='1005'>0.49336E+03</wgt>
<wgt id='1006'>0.57789E+03</wgt>
<wgt id='1007'>0.90681E+03</wgt>
<wgt id='1008'>0.83861E+03</wgt>
<wgt id='1009'>0.98230E+03</wgt>
<wgt id='2000'>0.68707E+03</wgt>
<wgt id='2001'>0.68648E+03</wgt>
<wgt id='2002'>0.68732E+03</wgt>
<wgt id='2003'>0.68706E+03</wgt>
<wgt id='2004'>0.68887E+03</wgt>
<wgt id='2005'>0.68675E+03</wgt>
<wgt id='2006'>0.68554E+03</wgt>
<wgt id='2007'>0.68604E+03</wgt>
<wgt id='2008'>0.68522E+03</wgt>
<wgt id='2009'>0.68805E+03</wgt>
<wgt id='2010'>0.68701E+03</wgt>
<wgt id='2011'>0.68469E+03</wgt>
<wgt id='2012'>0.68613E+03</wgt>
<wgt id='2013'>0.68478E+03</wgt>
<wgt id='2014'>0.68732E+03</wgt>
<wgt id='2015'>0.68725E+03</wgt>
<wgt id='2016'>0.68823E+03</wgt>
<wgt id='2017'>0.68669E+03</wgt>
<wgt id='2018'>0.68654E+03</wgt>
<wgt id='2019'>0.68737E+03</wgt>
<wgt id='2020'>0.68753E+03</wgt>
<wgt id='2021'>0.68697E+03</wgt>
<wgt id='2022'>0.68728E+03</wgt>
<wgt id='2023'>0.68815E+03</wgt>
<wgt id='2024'>0.68559E+03</wgt>
<wgt id='2025'>0.68819E+03</wgt>
<wgt id='2026'>0.68927E+03</wgt>
<wgt id='2027'>0.68574E+03</wgt>
<wgt id='2028'>0.68526E+03</wgt>
<wgt id='2029'>0.69098E+03</wgt>
<wgt id='2030'>0.68724E+03</wgt>
<wgt id='2031'>0.68798E+03</wgt>
<wgt id='2032'>0.68676E+03</wgt>
<wgt id='2033'>0.68737E+03</wgt>
<wgt id='2034'>0.68893E+03</wgt>
<wgt id='2035'>0.68665E+03</wgt>
<wgt id='2036'>0.68695E+03</wgt>
<wgt id='2037'>0.68840E+03</wgt>
<wgt id='2038'>0.68676E+03</wgt>
<wgt id='2039'>0.68573E+03</wgt>
<wgt id='2040'>0.68677E+03</wgt>
<wgt id='2041'>0.68662E+03</wgt>
<wgt id='2042'>0.68614E+03</wgt>
<wgt id='2043'>0.68707E+03</wgt>
<wgt id='2044'>0.68801E+03</wgt>
<wgt id='2045'>0.68657E+03</wgt>
<wgt id='2046'>0.68819E+03</wgt>
<wgt id='2047'>0.68814E+03</wgt>
<wgt id='2048'>0.68639E+03</wgt>
<wgt id='2049'>0.68676E+03</wgt>
<wgt id='2050'>0.68768E+03</wgt>
<wgt id='2051'>0.68799E+03</wgt>
<wgt id='2052'>0.68689E+03</wgt>
<wgt id='2053'>0.68733E+03</wgt>
<wgt id='2054'>0.68746E+03</wgt>
<wgt id='2055'>0.68712E+03</wgt>
<wgt id='2056'>0.68708E+03</wgt>
<wgt id='2057'>0.68728E+03</wgt>
<wgt id='2058'>0.68720E+03</wgt>
<wgt id='2059'>0.68684E+03</wgt>
<wgt id='2060'>0.68710E+03</wgt>
<wgt id='2061'>0.68685E+03</wgt>
<wgt id='2062'>0.68731E+03</wgt>
<wgt id='2063'>0.68693E+03</wgt>
<wgt id='2064'>0.68690E+03</wgt>
<wgt id='2065'>0.68750E+03</wgt>
<wgt id='2066'>0.68700E+03</wgt>
<wgt id='2067'>0.68712E+03</wgt>
<wgt id='2068'>0.68730E+03</wgt>
<wgt id='2069'>0.68707E+03</wgt>
<wgt id='2070'>0.68673E+03</wgt>
<wgt id='2071'>0.68660E+03</wgt>
<wgt id='2072'>0.68711E+03</wgt>
<wgt id='2073'>0.68706E+03</wgt>
<wgt id='2074'>0.68669E+03</wgt>
<wgt id='2075'>0.68709E+03</wgt>
<wgt id='2076'>0.68695E+03</wgt>
<wgt id='2077'>0.68690E+03</wgt>
<wgt id='2078'>0.68711E+03</wgt>
<wgt id='2079'>0.68722E+03</wgt>
<wgt id='2080'>0.68712E+03</wgt>
<wgt id='2081'>0.68718E+03</wgt>
<wgt id='2082'>0.68721E+03</wgt>
<wgt id='2083'>0.68715E+03</wgt>
<wgt id='2084'>0.68709E+03</wgt>
<wgt id='2085'>0.68702E+03</wgt>
<wgt id='2086'>0.68703E+03</wgt>
<wgt id='2087'>0.68701E+03</wgt>
<wgt id='2088'>0.68719E+03</wgt>
<wgt id='2089'>0.68703E+03</wgt>
<wgt id='2090'>0.68711E+03</wgt>
<wgt id='2091'>0.68707E+03</wgt>
<wgt id='2092'>0.68715E+03</wgt>
<wgt id='2093'>0.68704E+03</wgt>
<wgt id='2094'>0.68715E+03</wgt>
<wgt id='2095'>0.68712E+03</wgt>
<wgt id='2096'>0.68695E+03</wgt>
<wgt id='2097'>0.68728E+03</wgt>
<wgt id='2098'>0.68693E+03</wgt>
<wgt id='2099'>0.68711E+03</wgt>
<wgt id='2100'>0.68705E+03</wgt>
<wgt id='2101'>0.66299E+03</wgt>
<wgt id='2102'>0.71153E+03</wgt>
<wgt id='2104'>0.57534E+03</wgt>
<wgt id='2105'>0.59749E+03</wgt>
<wgt id='2106'>0.62018E+03</wgt>
<wgt id='2107'>0.64088E+03</wgt>
<wgt id='2108'>0.67569E+03</wgt>
<wgt id='2109'>0.69943E+03</wgt>
<wgt id='2110'>0.73283E+03</wgt>
<wgt id='2111'>0.75674E+03</wgt>
<wgt id='3000'>0.72067E+03</wgt>
<wgt id='3001'>0.72104E+03</wgt>
<wgt id='3002'>0.72055E+03</wgt>
<wgt id='3003'>0.72024E+03</wgt>
<wgt id='3004'>0.72242E+03</wgt>
<wgt id='3005'>0.72081E+03</wgt>
<wgt id='3006'>0.72003E+03</wgt>
<wgt id='3007'>0.72163E+03</wgt>
<wgt id='3008'>0.72074E+03</wgt>
<wgt id='3009'>0.72244E+03</wgt>
<wgt id='3010'>0.72011E+03</wgt>
<wgt id='3011'>0.71916E+03</wgt>
<wgt id='3012'>0.72034E+03</wgt>
<wgt id='3013'>0.72245E+03</wgt>
<wgt id='3014'>0.72051E+03</wgt>
<wgt id='3015'>0.71912E+03</wgt>
<wgt id='3016'>0.72086E+03</wgt>
<wgt id='3017'>0.72016E+03</wgt>
<wgt id='3018'>0.72162E+03</wgt>
<wgt id='3019'>0.72120E+03</wgt>
<wgt id='3020'>0.72040E+03</wgt>
<wgt id='3021'>0.72064E+03</wgt>
<wgt id='3022'>0.72065E+03</wgt>
<wgt id='3023'>0.72014E+03</wgt>
<wgt id='3024'>0.71947E+03</wgt>
<wgt id='3025'>0.72139E+03</wgt>
<wgt id='3026'>0.72089E+03</wgt>
<wgt id='3027'>0.72095E+03</wgt>
<wgt id='3028'>0.71864E+03</wgt>
<wgt id='3029'>0.71843E+03</wgt>
<wgt id='3030'>0.72465E+03</wgt>
<wgt id='3031'>0.72266E+03</wgt>
<wgt id='3032'>0.72111E+03</wgt>
<wgt id='3033'>0.72222E+03</wgt>
<wgt id='3034'>0.72084E+03</wgt>
<wgt id='3035'>0.72340E+03</wgt>
<wgt id='3036'>0.72154E+03</wgt>
<wgt id='3037'>0.72043E+03</wgt>
<wgt id='3038'>0.72085E+03</wgt>
<wgt id='3039'>0.72115E+03</wgt>
<wgt id='3040'>0.72000E+03</wgt>
<wgt id='3041'>0.72103E+03</wgt>
<wgt id='3042'>0.71959E+03</wgt>
<wgt id='3043'>0.71929E+03</wgt>
<wgt id='3044'>0.72130E+03</wgt>
<wgt id='3045'>0.72148E+03</wgt>
<wgt id='3046'>0.72170E+03</wgt>
<wgt id='3047'>0.72059E+03</wgt>
<wgt id='3048'>0.72095E+03</wgt>
<wgt id='3049'>0.72035E+03</wgt>
<wgt id='3050'>0.71998E+03</wgt>
<wgt id='3051'>0.72198E+03</wgt>
<wgt id='3052'>0.72021E+03</wgt>
<wgt id='3053'>0.72053E+03</wgt>
<wgt id='3054'>0.72078E+03</wgt>
<wgt id='3055'>0.72016E+03</wgt>
<wgt id='3056'>0.72086E+03</wgt>
<wgt id='3057'>0.72061E+03</wgt>
<wgt id='3058'>0.72012E+03</wgt>
<wgt id='3059'>0.72082E+03</wgt>
<wgt id='3060'>0.72101E+03</wgt>
<wgt id='3061'>0.72112E+03</wgt>
<wgt id='3062'>0.72087E+03</wgt>
<wgt id='3063'>0.72088E+03</wgt>
<wgt id='3064'>0.72048E+03</wgt>
<wgt id='3065'>0.72063E+03</wgt>
<wgt id='3066'>0.72090E+03</wgt>
<wgt id='3067'>0.72010E+03</wgt>
<wgt id='3068'>0.72085E+03</wgt>
<wgt id='3069'>0.72031E+03</wgt>
<wgt id='3070'>0.72050E+03</wgt>
<wgt id='3071'>0.72055E+03</wgt>
<wgt id='3072'>0.72084E+03</wgt>
<wgt id='3073'>0.72050E+03</wgt>
<wgt id='3074'>0.72099E+03</wgt>
<wgt id='3075'>0.72077E+03</wgt>
<wgt id='3076'>0.72068E+03</wgt>
<wgt id='3077'>0.72069E+03</wgt>
<wgt id='3078'>0.72094E+03</wgt>
<wgt id='3079'>0.72052E+03</wgt>
<wgt id='3080'>0.72053E+03</wgt>
<wgt id='3081'>0.72064E+03</wgt>
<wgt id='3082'>0.72055E+03</wgt>
<wgt id='3083'>0.72063E+03</wgt>
<wgt id='3084'>0.72050E+03</wgt>
<wgt id='3085'>0.72079E+03</wgt>
<wgt id='3086'>0.72056E+03</wgt>
<wgt id='3087'>0.72053E+03</wgt>
<wgt id='3088'>0.72056E+03</wgt>
<wgt id='3089'>0.72068E+03</wgt>
<wgt id='3090'>0.72072E+03</wgt>
<wgt id='3091'>0.72068E+03</wgt>
<wgt id='3092'>0.72062E+03</wgt>
<wgt id='3093'>0.72070E+03</wgt>
<wgt id='3094'>0.72084E+03</wgt>
<wgt id='3095'>0.72071E+03</wgt>
<wgt id='3096'>0.72059E+03</wgt>
<wgt id='3097'>0.72051E+03</wgt>
<wgt id='3098'>0.72061E+03</wgt>
<wgt id='3099'>0.72080E+03</wgt>
<wgt id='3100'>0.72073E+03</wgt>
<wgt id='3101'>0.69573E+03</wgt>
<wgt id='3102'>0.74470E+03</wgt>
<wgt id='5000'>0.68439E+03</wgt>
<wgt id='5001'>0.68604E+03</wgt>
<wgt id='5002'>0.68644E+03</wgt>
<wgt id='5003'>0.68530E+03</wgt>
<wgt id='5004'>0.68164E+03</wgt>
<wgt id='5005'>0.67730E+03</wgt>
<wgt id='5006'>0.66640E+03</wgt>
<wgt id='5007'>0.67611E+03</wgt>
<wgt id='5008'>0.68903E+03</wgt>
<wgt id='5009'>0.67901E+03</wgt>
<wgt id='5010'>0.68472E+03</wgt>
<wgt id='5011'>0.68785E+03</wgt>
<wgt id='5012'>0.68287E+03</wgt>
<wgt id='5013'>0.69615E+03</wgt>
<wgt id='5014'>0.69188E+03</wgt>
<wgt id='5015'>0.68291E+03</wgt>
<wgt id='5016'>0.68866E+03</wgt>
<wgt id='5017'>0.67233E+03</wgt>
<wgt id='5018'>0.69717E+03</wgt>
<wgt id='5019'>0.69329E+03</wgt>
<wgt id='5020'>0.67591E+03</wgt>
<wgt id='5021'>0.68231E+03</wgt>
<wgt id='5022'>0.68570E+03</wgt>
<wgt id='5023'>0.68090E+03</wgt>
<wgt id='5024'>0.68824E+03</wgt>
<wgt id='5025'>0.68875E+03</wgt>
<wgt id='5026'>0.68080E+03</wgt>
<wgt id='5027'>0.68543E+03</wgt>
<wgt id='5028'>0.68257E+03</wgt>
<wgt id='5029'>0.68395E+03</wgt>
<wgt id='5030'>0.68470E+03</wgt>
<wgt id='5031'>0.68231E+03</wgt>
<wgt id='5032'>0.68751E+03</wgt>
<wgt id='5033'>0.68431E+03</wgt>
<wgt id='5034'>0.68453E+03</wgt>
<wgt id='5035'>0.69239E+03</wgt>
<wgt id='5036'>0.67710E+03</wgt>
<wgt id='5037'>0.66577E+03</wgt>
<wgt id='5038'>0.70556E+03</wgt>
<wgt id='5039'>0.70002E+03</wgt>
<wgt id='5040'>0.67579E+03</wgt>
<wgt id='5041'>0.68745E+03</wgt>
<wgt id='5042'>0.68307E+03</wgt>
<wgt id='5043'>0.68740E+03</wgt>
<wgt id='5044'>0.68678E+03</wgt>
<wgt id='5045'>0.68805E+03</wgt>
<wgt id='5046'>0.66675E+03</wgt>
<wgt id='5047'>0.68549E+03</wgt>
<wgt id='5048'>0.67669E+03</wgt>
<wgt id='5049'>0.68519E+03</wgt>
<wgt id='5050'>0.68277E+03</wgt>
<wgt id='5051'>0.68379E+03</wgt>
<wgt id='5052'>0.68410E+03</wgt>
<wgt id='5053'>0.66650E+03</wgt>
<wgt id='5054'>0.67234E+03</wgt>
<wgt id='5055'>0.67855E+03</wgt>
<wgt id='5056'>0.69683E+03</wgt>
<wgt id='5060'>0.65810E+03</wgt>
<wgt id='5070'>0.71184E+03</wgt>
<wgt id='4000'>0.69337E+03</wgt>
<wgt id='4001'>0.69233E+03</wgt>
<wgt id='4002'>0.69357E+03</wgt>
<wgt id='4003'>0.68014E+03</wgt>
<wgt id='4004'>0.68714E+03</wgt>
<wgt id='4005'>0.69093E+03</wgt>
<wgt id='4006'>0.69595E+03</wgt>
<wgt id='4007'>0.69422E+03</wgt>
<wgt id='4008'>0.68541E+03</wgt>
<wgt id='4009'>0.69703E+03</wgt>
<wgt id='4010'>0.68895E+03</wgt>
<wgt id='4011'>0.70594E+03</wgt>
<wgt id='4012'>0.68356E+03</wgt>
<wgt id='4013'>0.69659E+03</wgt>
<wgt id='4014'>0.69280E+03</wgt>
<wgt id='4015'>0.70916E+03</wgt>
<wgt id='4016'>0.68251E+03</wgt>
<wgt id='4017'>0.68030E+03</wgt>
<wgt id='4018'>0.70884E+03</wgt>
<wgt id='4019'>0.69805E+03</wgt>
<wgt id='4020'>0.68860E+03</wgt>
<wgt id='4021'>0.69542E+03</wgt>
<wgt id='4022'>0.68942E+03</wgt>
<wgt id='4023'>0.69299E+03</wgt>
<wgt id='4024'>0.69391E+03</wgt>
<wgt id='4025'>0.70906E+03</wgt>
<wgt id='4026'>0.67841E+03</wgt>
<wgt id='4027'>0.69557E+03</wgt>
<wgt id='4028'>0.69047E+03</wgt>
<wgt id='4029'>0.69439E+03</wgt>
<wgt id='4030'>0.69307E+03</wgt>
<wgt id='4031'>0.69591E+03</wgt>
<wgt id='4032'>0.69008E+03</wgt>
<wgt id='4033'>0.68809E+03</wgt>
<wgt id='4034'>0.70507E+03</wgt>
<wgt id='4035'>0.68145E+03</wgt>
<wgt id='4036'>0.70533E+03</wgt>
<wgt id='4037'>0.69102E+03</wgt>
<wgt id='4038'>0.69734E+03</wgt>
<wgt id='4039'>0.69297E+03</wgt>
<wgt id='4040'>0.69538E+03</wgt>
<wgt id='4041'>0.69018E+03</wgt>
<wgt id='4042'>0.69702E+03</wgt>
<wgt id='4043'>0.68923E+03</wgt>
<wgt id='4044'>0.70364E+03</wgt>
<wgt id='4045'>0.69353E+03</wgt>
<wgt id='4046'>0.69679E+03</wgt>
<wgt id='4047'>0.69386E+03</wgt>
<wgt id='4048'>0.67863E+03</wgt>
<wgt id='4049'>0.67957E+03</wgt>
<wgt id='4050'>0.69393E+03</wgt>
<wgt id='4051'>0.69555E+03</wgt>
<wgt id='4052'>0.69468E+03</wgt>
<wgt id='4053'>0.67160E+03</wgt>
<wgt id='4054'>0.70237E+03</wgt>
<wgt id='4055'>0.68790E+03</wgt>
<wgt id='4056'>0.70402E+03</wgt>
<wgt id='4060'>0.66845E+03</wgt>
<wgt id='4070'>0.71968E+03</wgt>
<wgt id='4080'>0.64544E+03</wgt>
<wgt id='6000'>0.70821E+03</wgt>
<wgt id='6001'>0.70857E+03</wgt>
<wgt id='6002'>0.70783E+03</wgt>
<wgt id='6003'>0.70900E+03</wgt>
<wgt id='6004'>0.70768E+03</wgt>
<wgt id='6005'>0.71232E+03</wgt>
<wgt id='6006'>0.70440E+03</wgt>
<wgt id='6007'>0.70573E+03</wgt>
<wgt id='6008'>0.71099E+03</wgt>
<wgt id='6009'>0.70871E+03</wgt>
<wgt id='6010'>0.70772E+03</wgt>
<wgt id='6011'>0.70874E+03</wgt>
<wgt id='6012'>0.70708E+03</wgt>
<wgt id='6013'>0.70807E+03</wgt>
<wgt id='6014'>0.70848E+03</wgt>
<wgt id='6015'>0.70738E+03</wgt>
<wgt id='6016'>0.70868E+03</wgt>
<wgt id='6017'>0.70582E+03</wgt>
<wgt id='6018'>0.71103E+03</wgt>
<wgt id='6019'>0.70854E+03</wgt>
<wgt id='6020'>0.70794E+03</wgt>
<wgt id='6021'>0.70694E+03</wgt>
<wgt id='6022'>0.70988E+03</wgt>
<wgt id='6023'>0.70446E+03</wgt>
<wgt id='6024'>0.71071E+03</wgt>
<wgt id='6025'>0.71047E+03</wgt>
<wgt id='6026'>0.70611E+03</wgt>
<wgt id='6027'>0.70845E+03</wgt>
<wgt id='6028'>0.70792E+03</wgt>
<wgt id='6029'>0.70525E+03</wgt>
<wgt id='6030'>0.71183E+03</wgt>
<wgt id='6031'>0.70012E+03</wgt>
<wgt id='6032'>0.71742E+03</wgt>
<wgt id='6033'>0.71160E+03</wgt>
<wgt id='6034'>0.70495E+03</wgt>
<wgt id='6035'>0.70955E+03</wgt>
<wgt id='6036'>0.70470E+03</wgt>
<wgt id='6037'>0.70871E+03</wgt>
<wgt id='6038'>0.70795E+03</wgt>
<wgt id='6039'>0.70644E+03</wgt>
<wgt id='6040'>0.71027E+03</wgt>
<wgt id='6041'>0.70239E+03</wgt>
<wgt id='6042'>0.71481E+03</wgt>
<wgt id='6043'>0.71334E+03</wgt>
<wgt id='6044'>0.70533E+03</wgt>
<wgt id='6045'>0.70735E+03</wgt>
<wgt id='6046'>0.71041E+03</wgt>
<wgt id='6047'>0.71701E+03</wgt>
<wgt id='6048'>0.69670E+03</wgt>
<wgt id='6049'>0.71206E+03</wgt>
<wgt id='6050'>0.70628E+03</wgt>
<wgt id='7000'>0.67921E+03</wgt>
<wgt id='7001'>0.67891E+03</wgt>
<wgt id='7002'>0.67965E+03</wgt>
<wgt id='7003'>0.68140E+03</wgt>
<wgt id='7004'>0.67706E+03</wgt>
<wgt id='7005'>0.68133E+03</wgt>
<wgt id='7006'>0.67837E+03</wgt>
<wgt id='7007'>0.67891E+03</wgt>
<wgt id='7008'>0.67952E+03</wgt>
<wgt id='7009'>0.67965E+03</wgt>
<wgt id='7010'>0.67878E+03</wgt>
<wgt id='7011'>0.67787E+03</wgt>
<wgt id='7012'>0.67981E+03</wgt>
<wgt id='7013'>0.67914E+03</wgt>
<wgt id='7014'>0.67932E+03</wgt>
<wgt id='7015'>0.67923E+03</wgt>
<wgt id='7016'>0.67924E+03</wgt>
<wgt id='7017'>0.67998E+03</wgt>
<wgt id='7018'>0.67879E+03</wgt>
<wgt id='7019'>0.67934E+03</wgt>
<wgt id='7020'>0.67901E+03</wgt>
<wgt id='7021'>0.67809E+03</wgt>
<wgt id='7022'>0.68001E+03</wgt>
<wgt id='7023'>0.68446E+03</wgt>
<wgt id='7024'>0.67430E+03</wgt>
<wgt id='7025'>0.68086E+03</wgt>
<wgt id='7026'>0.67508E+03</wgt>
<wgt id='7027'>0.67928E+03</wgt>
<wgt id='7028'>0.67834E+03</wgt>
<wgt id='7029'>0.68165E+03</wgt>
<wgt id='7030'>0.67348E+03</wgt>
<wgt id='7031'>0.67586E+03</wgt>
<wgt id='7032'>0.68612E+03</wgt>
<wgt id='7033'>0.68030E+03</wgt>
<wgt id='7034'>0.67690E+03</wgt>
<wgt id='7035'>0.67442E+03</wgt>
<wgt id='7036'>0.68120E+03</wgt>
<wgt id='7037'>0.67895E+03</wgt>
<wgt id='7038'>0.67913E+03</wgt>
<wgt id='7039'>0.67674E+03</wgt>
<wgt id='7040'>0.68112E+03</wgt>
<wgt id='7041'>0.68054E+03</wgt>
<wgt id='7042'>0.67691E+03</wgt>
<wgt id='7043'>0.67983E+03</wgt>
<wgt id='7044'>0.67565E+03</wgt>
<wgt id='7045'>0.66987E+03</wgt>
<wgt id='7046'>0.68571E+03</wgt>
<wgt id='7047'>0.68338E+03</wgt>
<wgt id='7048'>0.67737E+03</wgt>
<wgt id='7049'>0.67488E+03</wgt>
<wgt id='7050'>0.68182E+03</wgt>
<wgt id='7060'>0.87614E+03</wgt>
<wgt id='8000'>0.67564E+03</wgt>
<wgt id='8001'>0.67556E+03</wgt>
<wgt id='8002'>0.67584E+03</wgt>
<wgt id='8003'>0.67565E+03</wgt>
<wgt id='8004'>0.67563E+03</wgt>
<wgt id='8005'>0.67454E+03</wgt>
<wgt id='8006'>0.67653E+03</wgt>
<wgt id='8007'>0.67737E+03</wgt>
<wgt id='8008'>0.67714E+03</wgt>
<wgt id='8009'>0.67838E+03</wgt>
<wgt id='8010'>0.67477E+03</wgt>
<wgt id='8011'>0.67586E+03</wgt>
<wgt id='8012'>0.67290E+03</wgt>
<wgt id='8013'>0.67404E+03</wgt>
<wgt id='8014'>0.67756E+03</wgt>
<wgt id='8015'>0.67527E+03</wgt>
<wgt id='8016'>0.67638E+03</wgt>
<wgt id='8017'>0.67598E+03</wgt>
<wgt id='8018'>0.67768E+03</wgt>
<wgt id='8019'>0.67578E+03</wgt>
<wgt id='8020'>0.67589E+03</wgt>
<wgt id='8021'>0.67489E+03</wgt>
<wgt id='8022'>0.67602E+03</wgt>
<wgt id='8023'>0.67454E+03</wgt>
<wgt id='8024'>0.67279E+03</wgt>
<wgt id='8025'>0.67456E+03</wgt>
<wgt id='8026'>0.67633E+03</wgt>
<wgt id='8027'>0.67643E+03</wgt>
<wgt id='8028'>0.67604E+03</wgt>
<wgt id='8029'>0.67669E+03</wgt>
<wgt id='8500'>0.71574E+03</wgt>
<wgt id='8501'>0.71058E+03</wgt>
<wgt id='8502'>0.72036E+03</wgt>
<wgt id='8503'>0.71745E+03</wgt>
<wgt id='8504'>0.71228E+03</wgt>
<wgt id='8505'>0.71476E+03</wgt>
<wgt id='8506'>0.72066E+03</wgt>
<wgt id='8507'>0.70674E+03</wgt>
<wgt id='8508'>0.70192E+03</wgt>
<wgt id='8509'>0.72158E+03</wgt>
<wgt id='8510'>0.72284E+03</wgt>
<wgt id='8511'>0.71441E+03</wgt>
<wgt id='8512'>0.71595E+03</wgt>
<wgt id='8513'>0.71619E+03</wgt>
<wgt id='8514'>0.70599E+03</wgt>
<wgt id='8515'>0.72102E+03</wgt>
<wgt id='8516'>0.71358E+03</wgt>
<wgt id='8517'>0.71347E+03</wgt>
<wgt id='8518'>0.71122E+03</wgt>
<wgt id='8519'>0.71039E+03</wgt>
<wgt id='8520'>0.71274E+03</wgt>
<wgt id='8521'>0.71325E+03</wgt>
<wgt id='8522'>0.71901E+03</wgt>
<wgt id='8523'>0.71258E+03</wgt>
<wgt id='8524'>0.71680E+03</wgt>
<wgt id='8525'>0.71662E+03</wgt>
<wgt id='8526'>0.71501E+03</wgt>
<wgt id='8527'>0.71541E+03</wgt>
<wgt id='8528'>0.71495E+03</wgt>
<wgt id='8529'>0.71505E+03</wgt>
<wgt id='8530'>0.71629E+03</wgt>
<wgt id='8531'>0.71563E+03</wgt>
<wgt id='8532'>0.71561E+03</wgt>
<wgt id='8533'>0.71445E+03</wgt>
<wgt id='8534'>0.71599E+03</wgt>
<wgt id='8535'>0.71727E+03</wgt>
<wgt id='8536'>0.71519E+03</wgt>
<wgt id='8537'>0.71576E+03</wgt>
<wgt id='8538'>0.71568E+03</wgt>
<wgt id='8539'>0.71619E+03</wgt>
<wgt id='8540'>0.71630E+03</wgt>
<wgt id='8541'>0.71645E+03</wgt>
<wgt id='8542'>0.71616E+03</wgt>
<wgt id='8543'>0.71501E+03</wgt>
<wgt id='8544'>0.71684E+03</wgt>
<wgt id='8545'>0.71609E+03</wgt>
<wgt id='8546'>0.71662E+03</wgt>
<wgt id='8547'>0.71502E+03</wgt>
<wgt id='8548'>0.71539E+03</wgt>
<wgt id='8549'>0.71601E+03</wgt>
<wgt id='8550'>0.71503E+03</wgt>
<wgt id='8551'>0.71538E+03</wgt>
<wgt id='8552'>0.71517E+03</wgt>
<wgt id='8553'>0.71466E+03</wgt>
<wgt id='8554'>0.71527E+03</wgt>
<wgt id='8555'>0.71576E+03</wgt>
<wgt id='8556'>0.71547E+03</wgt>
<wgt id='8557'>0.71599E+03</wgt>
<wgt id='8558'>0.71666E+03</wgt>
<wgt id='8559'>0.71559E+03</wgt>
<wgt id='8560'>0.71477E+03</wgt>
<wgt id='8561'>0.71618E+03</wgt>
<wgt id='8562'>0.71535E+03</wgt>
<wgt id='8563'>0.71573E+03</wgt>
<wgt id='8564'>0.71542E+03</wgt>
<wgt id='8565'>0.71600E+03</wgt>
<wgt id='8566'>0.71615E+03</wgt>
<wgt id='8567'>0.71572E+03</wgt>
<wgt id='8568'>0.71631E+03</wgt>
<wgt id='8569'>0.71611E+03</wgt>
<wgt id='8570'>0.71546E+03</wgt>
<wgt id='8571'>0.71506E+03</wgt>
<wgt id='8572'>0.71525E+03</wgt>
<wgt id='8573'>0.71539E+03</wgt>
<wgt id='8574'>0.71532E+03</wgt>
<wgt id='8575'>0.71556E+03</wgt>
<wgt id='8576'>0.71577E+03</wgt>
<wgt id='8577'>0.71527E+03</wgt>
<wgt id='8578'>0.71559E+03</wgt>
<wgt id='8579'>0.71632E+03</wgt>
<wgt id='8580'>0.71563E+03</wgt>
<wgt id='8581'>0.71615E+03</wgt>
<wgt id='8582'>0.71532E+03</wgt>
<wgt id='8583'>0.71596E+03</wgt>
<wgt id='8584'>0.71627E+03</wgt>
<wgt id='8585'>0.71599E+03</wgt>
<wgt id='8586'>0.71657E+03</wgt>
<wgt id='8587'>0.71590E+03</wgt>
<wgt id='8588'>0.71576E+03</wgt>
<wgt id='8589'>0.71570E+03</wgt>
<wgt id='8590'>0.71580E+03</wgt>
<wgt id='8591'>0.71534E+03</wgt>
<wgt id='8592'>0.71565E+03</wgt>
<wgt id='8593'>0.71554E+03</wgt>
<wgt id='8594'>0.71559E+03</wgt>
<wgt id='8595'>0.71566E+03</wgt>
<wgt id='8596'>0.71566E+03</wgt>
<wgt id='8597'>0.71591E+03</wgt>
<wgt id='8598'>0.71591E+03</wgt>
<wgt id='8599'>0.71580E+03</wgt>
<wgt id='8600'>0.71575E+03</wgt>
<wgt id='8601'>0.70036E+03</wgt>
<wgt id='8602'>0.73146E+03</wgt>
<wgt id='9000'>0.68750E+03</wgt>
<wgt id='9001'>0.68750E+03</wgt>
<wgt id='9002'>0.68906E+03</wgt>
<wgt id='9003'>0.68498E+03</wgt>
<wgt id='9004'>0.68890E+03</wgt>
<wgt id='9005'>0.69157E+03</wgt>
<wgt id='9006'>0.68727E+03</wgt>
<wgt id='9007'>0.68291E+03</wgt>
<wgt id='9008'>0.68570E+03</wgt>
<wgt id='9009'>0.68806E+03</wgt>
<wgt id='9010'>0.68384E+03</wgt>
<wgt id='9011'>0.69205E+03</wgt>
<wgt id='9012'>0.69337E+03</wgt>
<wgt id='9013'>0.68599E+03</wgt>
<wgt id='9014'>0.68954E+03</wgt>
<wgt id='9015'>0.68523E+03</wgt>
<wgt id='9016'>0.69427E+03</wgt>
<wgt id='9017'>0.68244E+03</wgt>
<wgt id='9018'>0.68832E+03</wgt>
<wgt id='9019'>0.68940E+03</wgt>
<wgt id='9020'>0.69309E+03</wgt>
<wgt id='9021'>0.68583E+03</wgt>
<wgt id='9022'>0.68907E+03</wgt>
<wgt id='9023'>0.68259E+03</wgt>
<wgt id='9024'>0.68542E+03</wgt>
<wgt id='9025'>0.68978E+03</wgt>
<wgt id='9026'>0.68741E+03</wgt>
<wgt id='9027'>0.68666E+03</wgt>
<wgt id='9028'>0.68815E+03</wgt>
<wgt id='9029'>0.68806E+03</wgt>
<wgt id='9030'>0.68759E+03</wgt>
<wgt id='9031'>0.68669E+03</wgt>
<wgt id='9032'>0.68809E+03</wgt>
<wgt id='9033'>0.68821E+03</wgt>
<wgt id='9034'>0.68777E+03</wgt>
<wgt id='9035'>0.68806E+03</wgt>
<wgt id='9036'>0.68780E+03</wgt>
<wgt id='9037'>0.68802E+03</wgt>
<wgt id='9038'>0.68810E+03</wgt>
<wgt id='9039'>0.68763E+03</wgt>
<wgt id='9040'>0.68700E+03</wgt>
<wgt id='9041'>0.68769E+03</wgt>
<wgt id='9042'>0.68795E+03</wgt>
<wgt id='9043'>0.68661E+03</wgt>
<wgt id='9044'>0.68774E+03</wgt>
<wgt id='9045'>0.68798E+03</wgt>
<wgt id='9046'>0.68658E+03</wgt>
<wgt id='9047'>0.68780E+03</wgt>
<wgt id='9048'>0.68793E+03</wgt>
<wgt id='9049'>0.68711E+03</wgt>
<wgt id='9050'>0.68752E+03</wgt>
<wgt id='9051'>0.68801E+03</wgt>
<wgt id='9052'>0.68809E+03</wgt>
<wgt id='9053'>0.68742E+03</wgt>
<wgt id='9054'>0.68709E+03</wgt>
<wgt id='9055'>0.68705E+03</wgt>
<wgt id='9056'>0.68799E+03</wgt>
<wgt id='9057'>0.68760E+03</wgt>
<wgt id='9058'>0.68660E+03</wgt>
<wgt id='9059'>0.68702E+03</wgt>
<wgt id='9060'>0.68713E+03</wgt>
<wgt id='9061'>0.68752E+03</wgt>
<wgt id='9062'>0.68762E+03</wgt>
<wgt id='9063'>0.68771E+03</wgt>
<wgt id='9064'>0.68756E+03</wgt>
<wgt id='9065'>0.68732E+03</wgt>
<wgt id='9066'>0.68743E+03</wgt>
<wgt id='9067'>0.68775E+03</wgt>
<wgt id='9068'>0.68763E+03</wgt>
<wgt id='9069'>0.68814E+03</wgt>
<wgt id='9070'>0.68731E+03</wgt>
<wgt id='9071'>0.68802E+03</wgt>
<wgt id='9072'>0.68807E+03</wgt>
<wgt id='9073'>0.68735E+03</wgt>
<wgt id='9074'>0.68761E+03</wgt>
<wgt id='9075'>0.68743E+03</wgt>
<wgt id='9076'>0.68741E+03</wgt>
<wgt id='9077'>0.68771E+03</wgt>
<wgt id='9078'>0.68752E+03</wgt>
<wgt id='9079'>0.68740E+03</wgt>
<wgt id='9080'>0.68832E+03</wgt>
<wgt id='9081'>0.68749E+03</wgt>
<wgt id='9082'>0.68775E+03</wgt>
<wgt id='9083'>0.68726E+03</wgt>
<wgt id='9084'>0.68715E+03</wgt>
<wgt id='9085'>0.68708E+03</wgt>
<wgt id='9086'>0.68771E+03</wgt>
<wgt id='9087'>0.68671E+03</wgt>
<wgt id='9088'>0.68717E+03</wgt>
<wgt id='9089'>0.68719E+03</wgt>
<wgt id='9090'>0.68762E+03</wgt>
<wgt id='9091'>0.68731E+03</wgt>
<wgt id='9092'>0.68740E+03</wgt>
<wgt id='9093'>0.68730E+03</wgt>
<wgt id='9094'>0.68731E+03</wgt>
<wgt id='9095'>0.68756E+03</wgt>
<wgt id='9096'>0.68735E+03</wgt>
<wgt id='9097'>0.68758E+03</wgt>
<wgt id='9098'>0.68742E+03</wgt>
<wgt id='9099'>0.68730E+03</wgt>
<wgt id='9100'>0.68752E+03</wgt>
<wgt id='9101'>0.67256E+03</wgt>
<wgt id='9102'>0.70329E+03</wgt>
<wgt id='10000'>0.71566E+03</wgt>
<wgt id='10001'>0.71940E+03</wgt>
<wgt id='10002'>0.70760E+03</wgt>
<wgt id='10003'>0.71503E+03</wgt>
<wgt id='10004'>0.70126E+03</wgt>
<wgt id='10005'>0.71722E+03</wgt>
<wgt id='10006'>0.71079E+03</wgt>
<wgt id='10007'>0.71553E+03</wgt>
<wgt id='10008'>0.71714E+03</wgt>
<wgt id='10009'>0.71143E+03</wgt>
<wgt id='10010'>0.71810E+03</wgt>
<wgt id='10011'>0.71015E+03</wgt>
<wgt id='10012'>0.71514E+03</wgt>
<wgt id='10013'>0.71684E+03</wgt>
<wgt id='10014'>0.71427E+03</wgt>
<wgt id='10015'>0.71536E+03</wgt>
<wgt id='10016'>0.71201E+03</wgt>
<wgt id='10017'>0.72365E+03</wgt>
<wgt id='10018'>0.71739E+03</wgt>
<wgt id='10019'>0.71163E+03</wgt>
<wgt id='10020'>0.71314E+03</wgt>
<wgt id='10021'>0.71471E+03</wgt>
<wgt id='10022'>0.71528E+03</wgt>
<wgt id='10023'>0.71617E+03</wgt>
<wgt id='10024'>0.71454E+03</wgt>
<wgt id='10025'>0.71503E+03</wgt>
<wgt id='10026'>0.71945E+03</wgt>
<wgt id='10027'>0.71783E+03</wgt>
<wgt id='10028'>0.72733E+03</wgt>
<wgt id='10029'>0.71609E+03</wgt>
<wgt id='10030'>0.71518E+03</wgt>
<wgt id='10031'>0.70036E+03</wgt>
<wgt id='10032'>0.73146E+03</wgt>
<wgt id='11000'>0.68742E+03</wgt>
<wgt id='11001'>0.67276E+03</wgt>
<wgt id='11002'>0.68881E+03</wgt>
<wgt id='11003'>0.68733E+03</wgt>
<wgt id='11004'>0.68846E+03</wgt>
<wgt id='11005'>0.68836E+03</wgt>
<wgt id='11006'>0.68787E+03</wgt>
<wgt id='11007'>0.68683E+03</wgt>
<wgt id='11008'>0.68771E+03</wgt>
<wgt id='11009'>0.68633E+03</wgt>
<wgt id='11010'>0.68291E+03</wgt>
<wgt id='11011'>0.68624E+03</wgt>
<wgt id='11012'>0.68733E+03</wgt>
<wgt id='11013'>0.68826E+03</wgt>
<wgt id='11014'>0.68663E+03</wgt>
<wgt id='11015'>0.68667E+03</wgt>
<wgt id='11016'>0.68762E+03</wgt>
<wgt id='11017'>0.68950E+03</wgt>
<wgt id='11018'>0.68712E+03</wgt>
<wgt id='11019'>0.68727E+03</wgt>
<wgt id='11020'>0.68896E+03</wgt>
<wgt id='11021'>0.68811E+03</wgt>
<wgt id='11022'>0.69210E+03</wgt>
<wgt id='11023'>0.68784E+03</wgt>
<wgt id='11024'>0.68757E+03</wgt>
<wgt id='11025'>0.68745E+03</wgt>
<wgt id='11026'>0.68742E+03</wgt>
<wgt id='11027'>0.68781E+03</wgt>
<wgt id='11028'>0.68776E+03</wgt>
<wgt id='11029'>0.68558E+03</wgt>
<wgt id='11030'>0.68743E+03</wgt>
<wgt id='11031'>0.67256E+03</wgt>
<wgt id='11032'>0.70329E+03</wgt>
<wgt id='12000'>0.66463E+03</wgt>
<wgt id='12001'>0.66378E+03</wgt>
<wgt id='12002'>0.66548E+03</wgt>
<wgt id='12003'>0.66481E+03</wgt>
<wgt id='12004'>0.66445E+03</wgt>
<wgt id='12005'>0.66552E+03</wgt>
<wgt id='12006'>0.66375E+03</wgt>
<wgt id='12007'>0.66817E+03</wgt>
<wgt id='12008'>0.66117E+03</wgt>
<wgt id='12009'>0.66360E+03</wgt>
<wgt id='12010'>0.66568E+03</wgt>
<wgt id='12011'>0.65997E+03</wgt>
<wgt id='12012'>0.66983E+03</wgt>
<wgt id='12013'>0.66281E+03</wgt>
<wgt id='12014'>0.66648E+03</wgt>
<wgt id='12015'>0.66643E+03</wgt>
<wgt id='12016'>0.66167E+03</wgt>
<wgt id='12017'>0.66790E+03</wgt>
<wgt id='12018'>0.66272E+03</wgt>
<wgt id='12019'>0.66574E+03</wgt>
<wgt id='12020'>0.66294E+03</wgt>
<wgt id='12021'>0.66521E+03</wgt>
<wgt id='12022'>0.66415E+03</wgt>
<wgt id='12023'>0.65863E+03</wgt>
<wgt id='12024'>0.66994E+03</wgt>
<wgt id='12025'>0.66142E+03</wgt>
<wgt id='12026'>0.66808E+03</wgt>
<wgt id='12027'>0.67423E+03</wgt>
<wgt id='12028'>0.65576E+03</wgt>
<wgt id='12050'>0.66463E+03</wgt>
<wgt id='12051'>0.66076E+03</wgt>
<wgt id='12052'>0.65287E+03</wgt>
<wgt id='12053'>0.66090E+03</wgt>
<wgt id='12054'>0.65444E+03</wgt>
<wgt id='12055'>0.65654E+03</wgt>
<wgt id='12056'>0.66349E+03</wgt>
<wgt id='12057'>0.65760E+03</wgt>
<wgt id='12058'>0.65817E+03</wgt>
<wgt id='12059'>0.66227E+03</wgt>
<wgt id='12060'>0.65331E+03</wgt>
<wgt id='12061'>0.65443E+03</wgt>
<wgt id='12062'>0.65554E+03</wgt>
<wgt id='12063'>0.65751E+03</wgt>
<wgt id='13000'>0.67390E+03</wgt>
<wgt id='13001'>0.66483E+03</wgt>
<wgt id='13002'>0.66629E+03</wgt>
<wgt id='13003'>0.66516E+03</wgt>
<wgt id='13004'>0.66596E+03</wgt>
<wgt id='13005'>0.66620E+03</wgt>
<wgt id='13006'>0.66492E+03</wgt>
<wgt id='13007'>0.66973E+03</wgt>
<wgt id='13008'>0.66151E+03</wgt>
<wgt id='13009'>0.66228E+03</wgt>
<wgt id='13010'>0.66894E+03</wgt>
<wgt id='13011'>0.66784E+03</wgt>
<wgt id='13012'>0.66331E+03</wgt>
<wgt id='13013'>0.66477E+03</wgt>
<wgt id='13014'>0.66627E+03</wgt>
<wgt id='13015'>0.66524E+03</wgt>
<wgt id='13016'>0.66389E+03</wgt>
<wgt id='13017'>0.66567E+03</wgt>
<wgt id='13018'>0.66551E+03</wgt>
<wgt id='13019'>0.66486E+03</wgt>
<wgt id='13020'>0.66636E+03</wgt>
<wgt id='13021'>0.66894E+03</wgt>
<wgt id='13022'>0.66227E+03</wgt>
<wgt id='13023'>0.66154E+03</wgt>
<wgt id='13024'>0.66974E+03</wgt>
<wgt id='13025'>0.65624E+03</wgt>
<wgt id='13026'>0.67460E+03</wgt>
<wgt id='13027'>0.66160E+03</wgt>
<wgt id='13028'>0.66988E+03</wgt>
<wgt id='13050'>0.67390E+03</wgt>
<wgt id='13051'>0.66849E+03</wgt>
<wgt id='13052'>0.65882E+03</wgt>
<wgt id='13053'>0.66825E+03</wgt>
<wgt id='13054'>0.66341E+03</wgt>
<wgt id='13055'>0.65381E+03</wgt>
<wgt id='13056'>0.66348E+03</wgt>
<wgt id='13057'>0.66515E+03</wgt>
<wgt id='13058'>0.66778E+03</wgt>
<wgt id='13059'>0.66908E+03</wgt>
<wgt id='13060'>0.64708E+03</wgt>
<wgt id='13061'>0.66508E+03</wgt>
<wgt id='13062'>0.66759E+03</wgt>
<wgt id='13063'>0.67033E+03</wgt>
<wgt id='14000'>0.69224E+03</wgt>
<wgt id='14001'>0.69216E+03</wgt>
<wgt id='14002'>0.69208E+03</wgt>
<wgt id='14003'>0.69200E+03</wgt>
<wgt id='14004'>0.69192E+03</wgt>
<wgt id='14005'>0.69184E+03</wgt>
<wgt id='14006'>0.69176E+03</wgt>
<wgt id='14007'>0.69169E+03</wgt>
<wgt id='14008'>0.69161E+03</wgt>
<wgt id='14009'>0.69153E+03</wgt>
<wgt id='14010'>0.69145E+03</wgt>
<wgt id='14011'>0.69137E+03</wgt>
<wgt id='14012'>0.69129E+03</wgt>
<wgt id='14013'>0.69121E+03</wgt>
<wgt id='14014'>0.69113E+03</wgt>
<wgt id='14015'>0.69105E+03</wgt>
<wgt id='14016'>0.69098E+03</wgt>
<wgt id='14017'>0.69089E+03</wgt>
<wgt id='14018'>0.69082E+03</wgt>
<wgt id='14019'>0.69074E+03</wgt>
<wgt id='14020'>0.69066E+03</wgt>
<wgt id='14021'>0.69058E+03</wgt>
<wgt id='14022'>0.69050E+03</wgt>
<wgt id='14023'>0.69042E+03</wgt>
<wgt id='14024'>0.69034E+03</wgt>
<wgt id='14025'>0.69026E+03</wgt>
<wgt id='14026'>0.69018E+03</wgt>
<wgt id='14027'>0.69011E+03</wgt>
<wgt id='14028'>0.69003E+03</wgt>
<wgt id='14029'>0.68995E+03</wgt>
<wgt id='14030'>0.68987E+03</wgt>
<wgt id='15000'>0.67779E+03</wgt>
<wgt id='15001'>0.67769E+03</wgt>
<wgt id='15002'>0.67919E+03</wgt>
<wgt id='15003'>0.67544E+03</wgt>
<wgt id='15004'>0.67919E+03</wgt>
<wgt id='15005'>0.68183E+03</wgt>
<wgt id='15006'>0.67772E+03</wgt>
<wgt id='15007'>0.67331E+03</wgt>
<wgt id='15008'>0.67601E+03</wgt>
<wgt id='15009'>0.67839E+03</wgt>
<wgt id='15010'>0.67425E+03</wgt>
<wgt id='15011'>0.68234E+03</wgt>
<wgt id='15012'>0.68363E+03</wgt>
<wgt id='15013'>0.67650E+03</wgt>
<wgt id='15014'>0.67971E+03</wgt>
<wgt id='15015'>0.67524E+03</wgt>
<wgt id='15016'>0.68455E+03</wgt>
<wgt id='15017'>0.67275E+03</wgt>
<wgt id='15018'>0.67858E+03</wgt>
<wgt id='15019'>0.67976E+03</wgt>
<wgt id='15020'>0.68346E+03</wgt>
<wgt id='15021'>0.67603E+03</wgt>
<wgt id='15022'>0.67935E+03</wgt>
<wgt id='15023'>0.67295E+03</wgt>
<wgt id='15024'>0.67564E+03</wgt>
<wgt id='15025'>0.67997E+03</wgt>
<wgt id='15026'>0.67759E+03</wgt>
<wgt id='15027'>0.67707E+03</wgt>
<wgt id='15028'>0.67850E+03</wgt>
<wgt id='15029'>0.67829E+03</wgt>
<wgt id='15030'>0.67783E+03</wgt>
<wgt id='15031'>0.67713E+03</wgt>
<wgt id='15032'>0.67834E+03</wgt>
<wgt id='15033'>0.67848E+03</wgt>
<wgt id='15034'>0.67802E+03</wgt>
<wgt id='15035'>0.67832E+03</wgt>
<wgt id='15036'>0.67809E+03</wgt>
<wgt id='15037'>0.67833E+03</wgt>
<wgt id='15038'>0.67836E+03</wgt>
<wgt id='15039'>0.67788E+03</wgt>
<wgt id='15040'>0.67728E+03</wgt>
<wgt id='15041'>0.67792E+03</wgt>
<wgt id='15042'>0.67819E+03</wgt>
<wgt id='15043'>0.67700E+03</wgt>
<wgt id='15044'>0.67801E+03</wgt>
<wgt id='15045'>0.67824E+03</wgt>
<wgt id='15046'>0.67691E+03</wgt>
<wgt id='15047'>0.67803E+03</wgt>
<wgt id='15048'>0.67823E+03</wgt>
<wgt id='15049'>0.67737E+03</wgt>
<wgt id='15050'>0.67783E+03</wgt>
<wgt id='15051'>0.67828E+03</wgt>
<wgt id='15052'>0.67836E+03</wgt>
<wgt id='15053'>0.67773E+03</wgt>
<wgt id='15054'>0.67740E+03</wgt>
<wgt id='15055'>0.67736E+03</wgt>
<wgt id='15056'>0.67823E+03</wgt>
<wgt id='15057'>0.67787E+03</wgt>
<wgt id='15058'>0.67696E+03</wgt>
<wgt id='15059'>0.67734E+03</wgt>
<wgt id='15060'>0.67744E+03</wgt>
<wgt id='15061'>0.67781E+03</wgt>
<wgt id='15062'>0.67789E+03</wgt>
<wgt id='15063'>0.67799E+03</wgt>
<wgt id='15064'>0.67785E+03</wgt>
<wgt id='15065'>0.67760E+03</wgt>
<wgt id='15066'>0.67772E+03</wgt>
<wgt id='15067'>0.67802E+03</wgt>
<wgt id='15068'>0.67792E+03</wgt>
<wgt id='15069'>0.67840E+03</wgt>
<wgt id='15070'>0.67759E+03</wgt>
<wgt id='15071'>0.67832E+03</wgt>
<wgt id='15072'>0.67834E+03</wgt>
<wgt id='15073'>0.67761E+03</wgt>
<wgt id='15074'>0.67790E+03</wgt>
<wgt id='15075'>0.67771E+03</wgt>
<wgt id='15076'>0.67773E+03</wgt>
<wgt id='15077'>0.67800E+03</wgt>
<wgt id='15078'>0.67784E+03</wgt>
<wgt id='15079'>0.67768E+03</wgt>
<wgt id='15080'>0.67856E+03</wgt>
<wgt id='15081'>0.67780E+03</wgt>
<wgt id='15082'>0.67804E+03</wgt>
<wgt id='15083'>0.67754E+03</wgt>
<wgt id='15084'>0.67743E+03</wgt>
<wgt id='15085'>0.67739E+03</wgt>
<wgt id='15086'>0.67803E+03</wgt>
<wgt id='15087'>0.67699E+03</wgt>
<wgt id='15088'>0.67744E+03</wgt>
<wgt id='15089'>0.67747E+03</wgt>
<wgt id='15090'>0.67790E+03</wgt>
<wgt id='15091'>0.67758E+03</wgt>
<wgt id='15092'>0.67768E+03</wgt>
<wgt id='15093'>0.67759E+03</wgt>
<wgt id='15094'>0.67758E+03</wgt>
<wgt id='15095'>0.67785E+03</wgt>
<wgt id='15096'>0.67764E+03</wgt>
<wgt id='15097'>0.67786E+03</wgt>
<wgt id='15098'>0.67771E+03</wgt>
<wgt id='15099'>0.67759E+03</wgt>
<wgt id='15100'>0.67781E+03</wgt>
<wgt id='15101'>0.67778E+03</wgt>
<wgt id='15102'>0.67774E+03</wgt>
<wgt id='15103'>0.67779E+03</wgt>
<wgt id='15104'>0.67779E+03</wgt>
<wgt id='15105'>0.67781E+03</wgt>
<wgt id='15106'>0.67779E+03</wgt>
<wgt id='15107'>0.67775E+03</wgt>
<wgt id='1500'>0.74123E+03</wgt>
<wgt id='1501'>0.73806E+03</wgt>
<wgt id='1502'>0.74329E+03</wgt>
<wgt id='1503'>0.75546E+03</wgt>
<wgt id='1504'>0.72483E+03</wgt>
<wgt id='1505'>0.72036E+03</wgt>
<wgt id='1506'>0.75395E+03</wgt>
<wgt id='1507'>0.73798E+03</wgt>
<wgt id='1508'>0.74917E+03</wgt>
<wgt id='1509'>0.75448E+03</wgt>
<wgt id='1510'>0.72622E+03</wgt>
<wgt id='1511'>0.69843E+03</wgt>
<wgt id='1512'>0.74989E+03</wgt>
<wgt id='1513'>0.74071E+03</wgt>
<wgt id='1514'>0.73956E+03</wgt>
<wgt id='1515'>0.75977E+03</wgt>
<wgt id='1516'>0.75237E+03</wgt>
<wgt id='1517'>0.75422E+03</wgt>
<wgt id='1518'>0.75572E+03</wgt>
<wgt id='1519'>0.74863E+03</wgt>
<wgt id='1520'>0.77463E+03</wgt>
<wgt id='1521'>0.74272E+03</wgt>
<wgt id='1522'>0.72490E+03</wgt>
<wgt id='1523'>0.77135E+03</wgt>
<wgt id='1524'>0.73638E+03</wgt>
<wgt id='1525'>0.73382E+03</wgt>
<wgt id='1526'>0.74106E+03</wgt>
<wgt id='1527'>0.75482E+03</wgt>
<wgt id='1528'>0.73509E+03</wgt>
<wgt id='1529'>0.75933E+03</wgt>
<wgt id='1530'>0.75956E+03</wgt>
<wgt id='1531'>0.72838E+03</wgt>
<wgt id='1532'>0.72255E+03</wgt>
<wgt id='1533'>0.72236E+03</wgt>
<wgt id='1534'>0.73121E+03</wgt>
<wgt id='1535'>0.76196E+03</wgt>
<wgt id='1536'>0.73949E+03</wgt>
<wgt id='1537'>0.75457E+03</wgt>
<wgt id='1538'>0.74878E+03</wgt>
<wgt id='1539'>0.73703E+03</wgt>
<wgt id='1540'>0.72888E+03</wgt>
<wgt id='1541'>0.74591E+03</wgt>
<wgt id='1542'>0.73160E+03</wgt>
<wgt id='1543'>0.72688E+03</wgt>
<wgt id='1544'>0.73905E+03</wgt>
<wgt id='1545'>0.73245E+03</wgt>
<wgt id='1546'>0.75076E+03</wgt>
<wgt id='1547'>0.73779E+03</wgt>
<wgt id='1548'>0.74347E+03</wgt>
<wgt id='1549'>0.73826E+03</wgt>
<wgt id='1550'>0.73153E+03</wgt>
<wgt id='1551'>0.73196E+03</wgt>
<wgt id='1552'>0.73050E+03</wgt>
<wgt id='1553'>0.74347E+03</wgt>
<wgt id='1554'>0.73573E+03</wgt>
<wgt id='1555'>0.72715E+03</wgt>
<wgt id='1556'>0.74350E+03</wgt>
<wgt id='1557'>0.74613E+03</wgt>
<wgt id='1558'>0.72677E+03</wgt>
<wgt id='1559'>0.76117E+03</wgt>
<wgt id='1560'>0.73764E+03</wgt>
<wgt id='1561'>0.73950E+03</wgt>
<wgt id='1562'>0.74994E+03</wgt>
<wgt id='1563'>0.72920E+03</wgt>
<wgt id='1564'>0.73938E+03</wgt>
<wgt id='1565'>0.74286E+03</wgt>
<wgt id='1566'>0.73308E+03</wgt>
<wgt id='1567'>0.79263E+03</wgt>
<wgt id='1568'>0.73736E+03</wgt>
<wgt id='1569'>0.72120E+03</wgt>
<wgt id='1570'>0.72097E+03</wgt>
<wgt id='1571'>0.72831E+03</wgt>
<wgt id='1572'>0.74579E+03</wgt>
<wgt id='1573'>0.72916E+03</wgt>
<wgt id='1574'>0.74785E+03</wgt>
<wgt id='1575'>0.73992E+03</wgt>
<wgt id='1576'>0.71522E+03</wgt>
<wgt id='1577'>0.72699E+03</wgt>
<wgt id='1578'>0.74890E+03</wgt>
<wgt id='1579'>0.73770E+03</wgt>
<wgt id='1580'>0.73134E+03</wgt>
<wgt id='1581'>0.73887E+03</wgt>
<wgt id='1582'>0.72339E+03</wgt>
<wgt id='1583'>0.77120E+03</wgt>
<wgt id='1584'>0.73731E+03</wgt>
<wgt id='1585'>0.73886E+03</wgt>
<wgt id='1586'>0.73454E+03</wgt>
<wgt id='1587'>0.74556E+03</wgt>
<wgt id='1588'>0.74242E+03</wgt>
<wgt id='1589'>0.77142E+03</wgt>
<wgt id='1590'>0.72882E+03</wgt>
<wgt id='1591'>0.73855E+03</wgt>
<wgt id='1592'>0.73414E+03</wgt>
<wgt id='1593'>0.75005E+03</wgt>
<wgt id='1594'>0.75489E+03</wgt>
<wgt id='1595'>0.73934E+03</wgt>
<wgt id='1596'>0.74841E+03</wgt>
<wgt id='1597'>0.74318E+03</wgt>
<wgt id='1598'>0.74203E+03</wgt>
<wgt id='1599'>0.75209E+03</wgt>
<wgt id='1600'>0.76076E+03</wgt>
<wgt id='1601'>0.72970E+03</wgt>
<wgt id='1602'>0.74906E+03</wgt>
<wgt id='1700'>0.69526E+03</wgt>
<wgt id='1800'>0.68301E+03</wgt>
<wgt id='1850'>0.82547E+03</wgt>
<wgt id='1900'>0.75625E+03</wgt>
<wgt id='1950'>0.80589E+03</wgt>
</rwgt>
</event>
<event>
     13 322222  6.87070E+02  3.94328E+01 -1.00000E+00  1.43032E-01
      21    -1     0     0   502   503  0.000000000E+00  0.000000000E+00  7.773932515E+01  7.773932515E+01  0.000000000E+00  0.00000E+00  9.000E+00
      21    -1     0     0   504   505  0.000000000E+00  0.000000000E+00 -1.880580021E+03  1.880580021E+03  0.000000000E+00  0.00000E+00  9.000E+00
       6     2     1     2   502     0 -8.410801627E+01  1.488990131E+02 -6.503558555E+02  6.924179918E+02  1.650298822E+02  0.00000E+00  9.000E+00
      -6     2     1     2     0   505  1.212452140E+02 -1.356410650E+02 -1.187200010E+03  1.213364819E+03  1.723700056E+02  0.00000E+00  9.000E+00
      21     1     1     2   504   503 -3.713719769E+01 -1.325794815E+01  3.471516936E+01  5.253653610E+01  1.507891493E-06  0.00000E+00  9.000E+00
      24     2     3     3     0     0 -7.299226240E+01  2.596776932E+01 -2.714954300E+02  2.939284528E+02  8.174332641E+01  0.00000E+00  9.000E+00
       5     1     3     3   502     0 -1.111575387E+01  1.229312438E+02 -3.788604255E+02  3.984895390E+02  4.800000000E+00  0.00000E+00 -1.000E+00
     -24     2     4     4     0     0  8.762824621E+01 -1.641747746E+02 -8.801642590E+02  9.031418899E+02  7.964976006E+01  0.00000E+00  9.000E+00
      -5     1     4     4     0   505  3.361696774E+01  2.853370965E+01 -3.070357512E+02  3.102229289E+02  4.800000000E+00  0.00000E+00  1.000E+00
      -3     1     6     6     0   508 -5.108653102E+01  8.296156216E+00 -2.571423384E+02  2.622992223E+02  2.000000000E-01  0.00000E+00  1.000E+00
       4     1     6     6   508     0 -2.190573138E+01  1.767161310E+01 -1.435309164E+01  3.162923041E+01  1.500000000E+00  0.00000E+00 -1.000E+00
      13     1     8     8     0     0  2.478390940E+01 -5.183792734E+01 -1.316799398E+02  1.436698667E+02  1.057000000E-01  0.00000E+00 -1.000E+00
     -14     1     8     8     0     0  6.284433681E+01 -1.123368473E+02 -7.484843192E+02  7.594720232E+02  0.000000000E+00  0.00000E+00  1.000E+00
#rwgt            1           1   354.24239231266336                2        1113           0
<rwgt>
<wgt id='1001'>0.68707E+03</wgt>
<wgt id='1002'>0.59428E+03</wgt>
<wgt id='1003'>0.82902E+03</wgt>
<wgt id='1004'>0.67312E+03</wgt>
<wgt id='1005'>0.58981E+03</wgt>
<wgt id='1006'>0.79562E+03</wgt>
<wgt id='1007'>0.66794E+03</wgt>
<wgt id='1008'>0.56471E+03</wgt>
<wgt id='1009'>0.83434E+03</wgt>
<wgt id='2000'>0.68707E+03</wgt>
<wgt id='2001'>0.68662E+03</wgt>
<wgt id='2002'>0.68615E+03</wgt>
<wgt id='2003'>0.68592E+03</wgt>
<wgt id='2004'>0.68956E+03</wgt>
<wgt id='2005'>0.68770E+03</wgt>
<wgt id='2006'>0.68539E+03</wgt>
<wgt id='2007'>0.68841E+03</wgt>
<wgt id='2008'>0.68542E+03</wgt>
<wgt id='2009'>0.68858E+03</wgt>
<wgt id='2010'>0.68580E+03</wgt>
<wgt id='2011'>0.68468E+03</wgt>
<wgt id='2012'>0.68461E+03</wgt>
<wgt id='2013'>0.68131E+03</wgt>
<wgt id='2014'>0.68370E+03</wgt>
<wgt id='2015'>0.68539E+03</wgt>
<wgt id='2016'>0.68858E+03</wgt>
<wgt id='2017'>0.68625E+03</wgt>
<wgt id='2018'>0.68433E+03</wgt>
<wgt id='2019'>0.68747E+03</wgt>
<wgt id='2020'>0.68383E+03</wgt>
<wgt id='2021'>0.68957E+03</wgt>
<wgt id='2022'>0.68542E+03</wgt>
<wgt id='2023'>0.68867E+03</wgt>
<wgt id='2024'>0.68342E+03</wgt>
<wgt id='2025'>0.68758E+03</wgt>
<wgt id='2026'>0.69153E+03</wgt>
<wgt id='2027'>0.68502E+03</wgt>
<wgt id='2028'>0.68332E+03</wgt>
<wgt id='2029'>0.69616E+03</wgt>
<wgt id='2030'>0.68709E+03</wgt>
<wgt id='2031'>0.68733E+03</wgt>
<wgt id='2032'>0.68593E+03</wgt>
<wgt id='2033'>0.68577E+03</wgt>
<wgt id='2034'>0.69044E+03</wgt>
<wgt id='2035'>0.68936E+03</wgt>
<wgt id='2036'>0.68727E+03</wgt>
<wgt id='2037'>0.68984E+03</wgt>
<wgt id='2038'>0.68764E+03</wgt>
<wgt id='2039'>0.68223E+03</wgt>
<wgt id='2040'>0.68500E+03</wgt>
<wgt id='2041'>0.68678E+03</wgt>
<wgt id='2042'>0.69211E+03</wgt>
<wgt id='2043'>0.68405E+03</wgt>
<wgt id='2044'>0.68770E+03</wgt>
<wgt id='2045'>0.68727E+03</wgt>
<wgt id='2046'>0.69045E+03</wgt>
<wgt id='2047'>0.68799E+03</wgt>
<wgt id='2048'>0.68736E+03</wgt>
<wgt id='2049'>0.68653E+03</wgt>
<wgt id='2050'>0.68623E+03</wgt>
<wgt id='2051'>0.68100E+03</wgt>
<wgt id='2052'>0.68451E+03</wgt>
<wgt id='2053'>0.68609E+03</wgt>
<wgt id='2054'>0.68606E+03</wgt>
<wgt id='2055'>0.68808E+03</wgt>
<wgt id='2056'>0.68615E+03</wgt>
<wgt id='2057'>0.68258E+03</wgt>
<wgt id='2058'>0.68712E+03</wgt>
<wgt id='2059'>0.68679E+03</wgt>
<wgt id='2060'>0.68702E+03</wgt>
<wgt id='2061'>0.68593E+03</wgt>
<wgt id='2062'>0.68398E+03</wgt>
<wgt id='2063'>0.69073E+03</wgt>
<wgt id='2064'>0.68728E+03</wgt>
<wgt id='2065'>0.68763E+03</wgt>
<wgt id='2066'>0.69002E+03</wgt>
<wgt id='2067'>0.68686E+03</wgt>
<wgt id='2068'>0.68647E+03</wgt>
<wgt id='2069'>0.69070E+03</wgt>
<wgt id='2070'>0.68217E+03</wgt>
<wgt id='2071'>0.68667E+03</wgt>
<wgt id='2072'>0.68711E+03</wgt>
<wgt id='2073'>0.68364E+03</wgt>
<wgt id='2074'>0.68660E+03</wgt>
<wgt id='2075'>0.68456E+03</wgt>
<wgt id='2076'>0.68934E+03</wgt>
<wgt id='2077'>0.68130E+03</wgt>
<wgt id='2078'>0.68846E+03</wgt>
<wgt id='2079'>0.68786E+03</wgt>
<wgt id='2080'>0.68913E+03</wgt>
<wgt id='2081'>0.68766E+03</wgt>
<wgt id='2082'>0.68856E+03</wgt>
<wgt id='2083'>0.68825E+03</wgt>
<wgt id='2084'>0.68669E+03</wgt>
<wgt id='2085'>0.68915E+03</wgt>
<wgt id='2086'>0.68753E+03</wgt>
<wgt id='2087'>0.68593E+03</wgt>
<wgt id='2088'>0.68678E+03</wgt>
<wgt id='2089'>0.68395E+03</wgt>
<wgt id='2090'>0.68876E+03</wgt>
<wgt id='2091'>0.68789E+03</wgt>
<wgt id='2092'>0.68714E+03</wgt>
<wgt id='2093'>0.68724E+03</wgt>
<wgt id='2094'>0.68683E+03</wgt>
<wgt id='2095'>0.68754E+03</wgt>
<wgt id='2096'>0.68618E+03</wgt>
<wgt id='2097'>0.68857E+03</wgt>
<wgt id='2098'>0.68572E+03</wgt>
<wgt id='2099'>0.68878E+03</wgt>
<wgt id='2100'>0.68635E+03</wgt>
<wgt id='2101'>0.66720E+03</wgt>
<wgt id='2102'>0.71304E+03</wgt>
<wgt id='2104'>0.59615E+03</wgt>
<wgt id='2105'>0.61616E+03</wgt>
<wgt id='2106'>0.62921E+03</wgt>
<wgt id='2107'>0.64367E+03</wgt>
<wgt id='2108'>0.67580E+03</wgt>
<wgt id='2109'>0.69665E+03</wgt>
<wgt id='2110'>0.73241E+03</wgt>
<wgt id='2111'>0.75705E+03</wgt>
<wgt id='3000'>0.75192E+03</wgt>
<wgt id='3001'>0.75118E+03</wgt>
<wgt id='3002'>0.75062E+03</wgt>
<wgt id='3003'>0.75111E+03</wgt>
<wgt id='3004'>0.75516E+03</wgt>
<wgt id='3005'>0.75121E+03</wgt>
<wgt id='3006'>0.75102E+03</wgt>
<wgt id='3007'>0.75319E+03</wgt>
<wgt id='3008'>0.75302E+03</wgt>
<wgt id='3009'>0.75310E+03</wgt>
<wgt id='3010'>0.75208E+03</wgt>
<wgt id='3011'>0.75001E+03</wgt>
<wgt id='3012'>0.75066E+03</wgt>
<wgt id='3013'>0.75597E+03</wgt>
<wgt id='3014'>0.75037E+03</wgt>
<wgt id='3015'>0.74990E+03</wgt>
<wgt id='3016'>0.75048E+03</wgt>
<wgt id='3017'>0.74959E+03</wgt>
<wgt id='3018'>0.75356E+03</wgt>
<wgt id='3019'>0.75705E+03</wgt>
<wgt id='3020'>0.75527E+03</wgt>
<wgt id='3021'>0.75394E+03</wgt>
<wgt id='3022'>0.75239E+03</wgt>
<wgt id='3023'>0.75306E+03</wgt>
<wgt id='3024'>0.75125E+03</wgt>
<wgt id='3025'>0.75435E+03</wgt>
<wgt id='3026'>0.75302E+03</wgt>
<wgt id='3027'>0.75239E+03</wgt>
<wgt id='3028'>0.74920E+03</wgt>
<wgt id='3029'>0.74478E+03</wgt>
<wgt id='3030'>0.76075E+03</wgt>
<wgt id='3031'>0.75607E+03</wgt>
<wgt id='3032'>0.75376E+03</wgt>
<wgt id='3033'>0.75579E+03</wgt>
<wgt id='3034'>0.75093E+03</wgt>
<wgt id='3035'>0.76017E+03</wgt>
<wgt id='3036'>0.75269E+03</wgt>
<wgt id='3037'>0.75213E+03</wgt>
<wgt id='3038'>0.75311E+03</wgt>
<wgt id='3039'>0.75294E+03</wgt>
<wgt id='3040'>0.75029E+03</wgt>
<wgt id='3041'>0.75196E+03</wgt>
<wgt id='3042'>0.75216E+03</wgt>
<wgt id='3043'>0.75476E+03</wgt>
<wgt id='3044'>0.74943E+03</wgt>
<wgt id='3045'>0.75103E+03</wgt>
<wgt id='3046'>0.75002E+03</wgt>
<wgt id='3047'>0.75319E+03</wgt>
<wgt id='3048'>0.74848E+03</wgt>
<wgt id='3049'>0.75193E+03</wgt>
<wgt id='3050'>0.75424E+03</wgt>
<wgt id='3051'>0.75141E+03</wgt>
<wgt id='3052'>0.75269E+03</wgt>
<wgt id='3053'>0.74913E+03</wgt>
<wgt id='3054'>0.75133E+03</wgt>
<wgt id='3055'>0.75646E+03</wgt>
<wgt id='3056'>0.74795E+03</wgt>
<wgt id='3057'>0.75047E+03</wgt>
<wgt id='3058'>0.75375E+03</wgt>
<wgt id='3059'>0.74904E+03</wgt>
<wgt id='3060'>0.75517E+03</wgt>
<wgt id='3061'>0.74836E+03</wgt>
<wgt id='3062'>0.75300E+03</wgt>
<wgt id='3063'>0.74618E+03</wgt>
<wgt id='3064'>0.75422E+03</wgt>
<wgt id='3065'>0.74900E+03</wgt>
<wgt id='3066'>0.75390E+03</wgt>
<wgt id='3067'>0.75091E+03</wgt>
<wgt id='3068'>0.75171E+03</wgt>
<wgt id='3069'>0.74968E+03</wgt>
<wgt id='3070'>0.75172E+03</wgt>
<wgt id='3071'>0.75249E+03</wgt>
<wgt id='3072'>0.75094E+03</wgt>
<wgt id='3073'>0.75181E+03</wgt>
<wgt id='3074'>0.75717E+03</wgt>
<wgt id='3075'>0.75161E+03</wgt>
<wgt id='3076'>0.75398E+03</wgt>
<wgt id='3077'>0.75490E+03</wgt>
<wgt id='3078'>0.75169E+03</wgt>
<wgt id='3079'>0.74777E+03</wgt>
<wgt id='3080'>0.75020E+03</wgt>
<wgt id='3081'>0.75158E+03</wgt>
<wgt id='3082'>0.75103E+03</wgt>
<wgt id='3083'>0.74789E+03</wgt>
<wgt id='3084'>0.74998E+03</wgt>
<wgt id='3085'>0.75455E+03</wgt>
<wgt id='3086'>0.74966E+03</wgt>
<wgt id='3087'>0.74840E+03</wgt>
<wgt id='3088'>0.74962E+03</wgt>
<wgt id='3089'>0.75061E+03</wgt>
<wgt id='3090'>0.75304E+03</wgt>
<wgt id='3091'>0.75095E+03</wgt>
<wgt id='3092'>0.75191E+03</wgt>
<wgt id='3093'>0.75269E+03</wgt>
<wgt id='3094'>0.75305E+03</wgt>
<wgt id='3095'>0.75324E+03</wgt>
<wgt id='3096'>0.75111E+03</wgt>
<wgt id='3097'>0.75203E+03</wgt>
<wgt id='3098'>0.75185E+03</wgt>
<wgt id='3099'>0.75264E+03</wgt>
<wgt id='3100'>0.75367E+03</wgt>
<wgt id='3101'>0.73231E+03</wgt>
<wgt id='3102'>0.77032E+03</wgt>
<wgt id='5000'>0.78512E+03</wgt>
<wgt id='5001'>0.79404E+03</wgt>
<wgt id='5002'>0.78592E+03</wgt>
<wgt id='5003'>0.79176E+03</wgt>
<wgt id='5004'>0.78648E+03</wgt>
<wgt id='5005'>0.83123E+03</wgt>
<wgt id='5006'>0.80299E+03</wgt>
<wgt id='5007'>0.79417E+03</wgt>
<wgt id='5008'>0.80364E+03</wgt>
<wgt id='5009'>0.79200E+03</wgt>
<wgt id='5010'>0.78367E+03</wgt>
<wgt id='5011'>0.80741E+03</wgt>
<wgt id='5012'>0.76426E+03</wgt>
<wgt id='5013'>0.77318E+03</wgt>
<wgt id='5014'>0.79783E+03</wgt>
<wgt id='5015'>0.75798E+03</wgt>
<wgt id='5016'>0.86559E+03</wgt>
<wgt id='5017'>0.78009E+03</wgt>
<wgt id='5018'>0.78996E+03</wgt>
<wgt id='5019'>0.76728E+03</wgt>
<wgt id='5020'>0.80014E+03</wgt>
<wgt id='5021'>0.77039E+03</wgt>
<wgt id='5022'>0.79462E+03</wgt>
<wgt id='5023'>0.77383E+03</wgt>
<wgt id='5024'>0.79872E+03</wgt>
<wgt id='5025'>0.78766E+03</wgt>
<wgt id='5026'>0.78307E+03</wgt>
<wgt id='5027'>0.76739E+03</wgt>
<wgt id='5028'>0.81628E+03</wgt>
<wgt id='5029'>0.83012E+03</wgt>
<wgt id='5030'>0.75865E+03</wgt>
<wgt id='5031'>0.80789E+03</wgt>
<wgt id='5032'>0.75356E+03</wgt>
<wgt id='5033'>0.77763E+03</wgt>
<wgt id='5034'>0.79275E+03</wgt>
<wgt id='5035'>0.77527E+03</wgt>
<wgt id='5036'>0.79321E+03</wgt>
<wgt id='5037'>0.76476E+03</wgt>
<wgt id='5038'>0.80942E+03</wgt>
<wgt id='5039'>0.78926E+03</wgt>
<wgt id='5040'>0.78301E+03</wgt>
<wgt id='5041'>0.83185E+03</wgt>
<wgt id='5042'>0.76910E+03</wgt>
<wgt id='5043'>0.72378E+03</wgt>
<wgt id='5044'>0.86067E+03</wgt>
<wgt id='5045'>0.77663E+03</wgt>
<wgt id='5046'>0.80027E+03</wgt>
<wgt id='5047'>0.79882E+03</wgt>
<wgt id='5048'>0.76558E+03</wgt>
<wgt id='5049'>0.79100E+03</wgt>
<wgt id='5050'>0.76929E+03</wgt>
<wgt id='5051'>0.77702E+03</wgt>
<wgt id='5052'>0.79031E+03</wgt>
<wgt id='5053'>0.71616E+03</wgt>
<wgt id='5054'>0.72719E+03</wgt>
<wgt id='5055'>0.78079E+03</wgt>
<wgt id='5056'>0.80018E+03</wgt>
<wgt id='5060'>0.74886E+03</wgt>
<wgt id='5070'>0.83062E+03</wgt>
<wgt id='4000'>0.78789E+03</wgt>
<wgt id='4001'>0.78765E+03</wgt>
<wgt id='4002'>0.77939E+03</wgt>
<wgt id='4003'>0.78695E+03</wgt>
<wgt id='4004'>0.80465E+03</wgt>
<wgt id='4005'>0.75882E+03</wgt>
<wgt id='4006'>0.80677E+03</wgt>
<wgt id='4007'>0.78694E+03</wgt>
<wgt id='4008'>0.78703E+03</wgt>
<wgt id='4009'>0.84325E+03</wgt>
<wgt id='4010'>0.73132E+03</wgt>
<wgt id='4011'>0.78601E+03</wgt>
<wgt id='4012'>0.78829E+03</wgt>
<wgt id='4013'>0.87602E+03</wgt>
<wgt id='4014'>0.73639E+03</wgt>
<wgt id='4015'>0.81455E+03</wgt>
<wgt id='4016'>0.77103E+03</wgt>
<wgt id='4017'>0.77436E+03</wgt>
<wgt id='4018'>0.80424E+03</wgt>
<wgt id='4019'>0.74824E+03</wgt>
<wgt id='4020'>0.83251E+03</wgt>
<wgt id='4021'>0.77697E+03</wgt>
<wgt id='4022'>0.81025E+03</wgt>
<wgt id='4023'>0.81673E+03</wgt>
<wgt id='4024'>0.76077E+03</wgt>
<wgt id='4025'>0.78668E+03</wgt>
<wgt id='4026'>0.78897E+03</wgt>
<wgt id='4027'>0.80046E+03</wgt>
<wgt id='4028'>0.77052E+03</wgt>
<wgt id='4029'>0.80158E+03</wgt>
<wgt id='4030'>0.78311E+03</wgt>
<wgt id='4031'>0.78430E+03</wgt>
<wgt id='4032'>0.79264E+03</wgt>
<wgt id='4033'>0.79382E+03</wgt>
<wgt id='4034'>0.77511E+03</wgt>
<wgt id='4035'>0.76767E+03</wgt>
<wgt id='4036'>0.80537E+03</wgt>
<wgt id='4037'>0.75395E+03</wgt>
<wgt id='4038'>0.84161E+03</wgt>
<wgt id='4039'>0.77171E+03</wgt>
<wgt id='4040'>0.80384E+03</wgt>
<wgt id='4041'>0.80395E+03</wgt>
<wgt id='4042'>0.76774E+03</wgt>
<wgt id='4043'>0.80817E+03</wgt>
<wgt id='4044'>0.76256E+03</wgt>
<wgt id='4045'>0.79846E+03</wgt>
<wgt id='4046'>0.79522E+03</wgt>
<wgt id='4047'>0.80209E+03</wgt>
<wgt id='4048'>0.80924E+03</wgt>
<wgt id='4049'>0.80508E+03</wgt>
<wgt id='4050'>0.82902E+03</wgt>
<wgt id='4051'>0.79042E+03</wgt>
<wgt id='4052'>0.79362E+03</wgt>
<wgt id='4053'>0.74104E+03</wgt>
<wgt id='4054'>0.79763E+03</wgt>
<wgt id='4055'>0.78287E+03</wgt>
<wgt id='4056'>0.79829E+03</wgt>
<wgt id='4060'>0.75931E+03</wgt>
<wgt id='4070'>0.82601E+03</wgt>
<wgt id='4080'>0.10358E+04</wgt>
<wgt id='6000'>0.74515E+03</wgt>
<wgt id='6001'>0.74572E+03</wgt>
<wgt id='6002'>0.74450E+03</wgt>
<wgt id='6003'>0.74565E+03</wgt>
<wgt id='6004'>0.74480E+03</wgt>
<wgt id='6005'>0.74888E+03</wgt>
<wgt id='6006'>0.74165E+03</wgt>
<wgt id='6007'>0.74403E+03</wgt>
<wgt id='6008'>0.74638E+03</wgt>
<wgt id='6009'>0.74614E+03</wgt>
<wgt id='6010'>0.74411E+03</wgt>
<wgt id='6011'>0.74549E+03</wgt>
<wgt id='6012'>0.74437E+03</wgt>
<wgt id='6013'>0.74504E+03</wgt>
<wgt id='6014'>0.74532E+03</wgt>
<wgt id='6015'>0.74535E+03</wgt>
<wgt id='6016'>0.74503E+03</wgt>
<wgt id='6017'>0.74168E+03</wgt>
<wgt id='6018'>0.74923E+03</wgt>
<wgt id='6019'>0.74488E+03</wgt>
<wgt id='6020'>0.74534E+03</wgt>
<wgt id='6021'>0.74244E+03</wgt>
<wgt id='6022'>0.74868E+03</wgt>
<wgt id='6023'>0.73921E+03</wgt>
<wgt id='6024'>0.74892E+03</wgt>
<wgt id='6025'>0.75952E+03</wgt>
<wgt id='6026'>0.73049E+03</wgt>
<wgt id='6027'>0.74451E+03</wgt>
<wgt id='6028'>0.74546E+03</wgt>
<wgt id='6029'>0.73213E+03</wgt>
<wgt id='6030'>0.76131E+03</wgt>
<wgt id='6031'>0.72261E+03</wgt>
<wgt id='6032'>0.77241E+03</wgt>
<wgt id='6033'>0.75379E+03</wgt>
<wgt id='6034'>0.73697E+03</wgt>
<wgt id='6035'>0.74965E+03</wgt>
<wgt id='6036'>0.73484E+03</wgt>
<wgt id='6037'>0.74431E+03</wgt>
<wgt id='6038'>0.74523E+03</wgt>
<wgt id='6039'>0.74014E+03</wgt>
<wgt id='6040'>0.75085E+03</wgt>
<wgt id='6041'>0.73223E+03</wgt>
<wgt id='6042'>0.76022E+03</wgt>
<wgt id='6043'>0.74870E+03</wgt>
<wgt id='6044'>0.74565E+03</wgt>
<wgt id='6045'>0.74241E+03</wgt>
<wgt id='6046'>0.75170E+03</wgt>
<wgt id='6047'>0.72939E+03</wgt>
<wgt id='6048'>0.77454E+03</wgt>
<wgt id='6049'>0.73420E+03</wgt>
<wgt id='6050'>0.75136E+03</wgt>
<wgt id='7000'>0.78860E+03</wgt>
<wgt id='7001'>0.78853E+03</wgt>
<wgt id='7002'>0.78862E+03</wgt>
<wgt id='7003'>0.79140E+03</wgt>
<wgt id='7004'>0.78573E+03</wgt>
<wgt id='7005'>0.79050E+03</wgt>
<wgt id='7006'>0.78783E+03</wgt>
<wgt id='7007'>0.78889E+03</wgt>
<wgt id='7008'>0.78824E+03</wgt>
<wgt id='7009'>0.78955E+03</wgt>
<wgt id='7010'>0.78758E+03</wgt>
<wgt id='7011'>0.78598E+03</wgt>
<wgt id='7012'>0.78969E+03</wgt>
<wgt id='7013'>0.78822E+03</wgt>
<wgt id='7014'>0.78902E+03</wgt>
<wgt id='7015'>0.78842E+03</wgt>
<wgt id='7016'>0.78878E+03</wgt>
<wgt id='7017'>0.78218E+03</wgt>
<wgt id='7018'>0.79210E+03</wgt>
<wgt id='7019'>0.78817E+03</wgt>
<wgt id='7020'>0.78912E+03</wgt>
<wgt id='7021'>0.79007E+03</wgt>
<wgt id='7022'>0.78750E+03</wgt>
<wgt id='7023'>0.78913E+03</wgt>
<wgt id='7024'>0.78782E+03</wgt>
<wgt id='7025'>0.78915E+03</wgt>
<wgt id='7026'>0.78709E+03</wgt>
<wgt id='7027'>0.78553E+03</wgt>
<wgt id='7028'>0.79076E+03</wgt>
<wgt id='7029'>0.80396E+03</wgt>
<wgt id='7030'>0.75085E+03</wgt>
<wgt id='7031'>0.77629E+03</wgt>
<wgt id='7032'>0.81550E+03</wgt>
<wgt id='7033'>0.79431E+03</wgt>
<wgt id='7034'>0.77822E+03</wgt>
<wgt id='7035'>0.76904E+03</wgt>
<wgt id='7036'>0.79814E+03</wgt>
<wgt id='7037'>0.78736E+03</wgt>
<wgt id='7038'>0.79126E+03</wgt>
<wgt id='7039'>0.78041E+03</wgt>
<wgt id='7040'>0.79487E+03</wgt>
<wgt id='7041'>0.80813E+03</wgt>
<wgt id='7042'>0.76069E+03</wgt>
<wgt id='7043'>0.79006E+03</wgt>
<wgt id='7044'>0.78052E+03</wgt>
<wgt id='7045'>0.80208E+03</wgt>
<wgt id='7046'>0.77845E+03</wgt>
<wgt id='7047'>0.78408E+03</wgt>
<wgt id='7048'>0.79031E+03</wgt>
<wgt id='7049'>0.80699E+03</wgt>
<wgt id='7050'>0.77518E+03</wgt>
<wgt id='7060'>0.10427E+04</wgt>
<wgt id='8000'>0.65813E+03</wgt>
<wgt id='8001'>0.65812E+03</wgt>
<wgt id='8002'>0.65831E+03</wgt>
<wgt id='8003'>0.65810E+03</wgt>
<wgt id='8004'>0.65811E+03</wgt>
<wgt id='8005'>0.65704E+03</wgt>
<wgt id='8006'>0.65912E+03</wgt>
<wgt id='8007'>0.65972E+03</wgt>
<wgt id='8008'>0.65911E+03</wgt>
<wgt id='8009'>0.66026E+03</wgt>
<wgt id='8010'>0.65734E+03</wgt>
<wgt id='8011'>0.65874E+03</wgt>
<wgt id='8012'>0.65612E+03</wgt>
<wgt id='8013'>0.65686E+03</wgt>
<wgt id='8014'>0.65987E+03</wgt>
<wgt id='8015'>0.65759E+03</wgt>
<wgt id='8016'>0.65987E+03</wgt>
<wgt id='8017'>0.66050E+03</wgt>
<wgt id='8018'>0.66224E+03</wgt>
<wgt id='8019'>0.65283E+03</wgt>
<wgt id='8020'>0.66683E+03</wgt>
<wgt id='8021'>0.65527E+03</wgt>
<wgt id='8022'>0.67379E+03</wgt>
<wgt id='8023'>0.65214E+03</wgt>
<wgt id='8024'>0.64762E+03</wgt>
<wgt id='8025'>0.64738E+03</wgt>
<wgt id='8026'>0.65602E+03</wgt>
<wgt id='8027'>0.66124E+03</wgt>
<wgt id='8028'>0.65754E+03</wgt>
<wgt id='8029'>0.70502E+03</wgt>
<wgt id='8500'>0.77504E+03</wgt>
<wgt id='8501'>0.75904E+03</wgt>
<wgt id='8502'>0.77194E+03</wgt>
<wgt id='8503'>0.77691E+03</wgt>
<wgt id='8504'>0.76937E+03</wgt>
<wgt id='8505'>0.77963E+03</wgt>
<wgt id='8506'>0.77609E+03</wgt>
<wgt id='8507'>0.76964E+03</wgt>
<wgt id='8508'>0.75294E+03</wgt>
<wgt id='8509'>0.78224E+03</wgt>
<wgt id='8510'>0.76451E+03</wgt>
<wgt id='8511'>0.76790E+03</wgt>
<wgt id='8512'>0.79404E+03</wgt>
<wgt id='8513'>0.78700E+03</wgt>
<wgt id='8514'>0.77954E+03</wgt>
<wgt id='8515'>0.77989E+03</wgt>
<wgt id='8516'>0.76890E+03</wgt>
<wgt id='8517'>0.79047E+03</wgt>
<wgt id='8518'>0.78426E+03</wgt>
<wgt id='8519'>0.79101E+03</wgt>
<wgt id='8520'>0.74128E+03</wgt>
<wgt id='8521'>0.77724E+03</wgt>
<wgt id='8522'>0.79535E+03</wgt>
<wgt id='8523'>0.75611E+03</wgt>
<wgt id='8524'>0.79034E+03</wgt>
<wgt id='8525'>0.77429E+03</wgt>
<wgt id='8526'>0.77342E+03</wgt>
<wgt id='8527'>0.77679E+03</wgt>
<wgt id='8528'>0.77115E+03</wgt>
<wgt id='8529'>0.77225E+03</wgt>
<wgt id='8530'>0.77454E+03</wgt>
<wgt id='8531'>0.77453E+03</wgt>
<wgt id='8532'>0.77302E+03</wgt>
<wgt id='8533'>0.77073E+03</wgt>
<wgt id='8534'>0.77319E+03</wgt>
<wgt id='8535'>0.77879E+03</wgt>
<wgt id='8536'>0.77099E+03</wgt>
<wgt id='8537'>0.77429E+03</wgt>
<wgt id='8538'>0.77566E+03</wgt>
<wgt id='8539'>0.77412E+03</wgt>
<wgt id='8540'>0.77715E+03</wgt>
<wgt id='8541'>0.77602E+03</wgt>
<wgt id='8542'>0.77274E+03</wgt>
<wgt id='8543'>0.77167E+03</wgt>
<wgt id='8544'>0.77709E+03</wgt>
<wgt id='8545'>0.77556E+03</wgt>
<wgt id='8546'>0.77701E+03</wgt>
<wgt id='8547'>0.77377E+03</wgt>
<wgt id='8548'>0.77240E+03</wgt>
<wgt id='8549'>0.77578E+03</wgt>
<wgt id='8550'>0.77465E+03</wgt>
<wgt id='8551'>0.77556E+03</wgt>
<wgt id='8552'>0.77369E+03</wgt>
<wgt id='8553'>0.77275E+03</wgt>
<wgt id='8554'>0.77470E+03</wgt>
<wgt id='8555'>0.77494E+03</wgt>
<wgt id='8556'>0.77448E+03</wgt>
<wgt id='8557'>0.77592E+03</wgt>
<wgt id='8558'>0.77582E+03</wgt>
<wgt id='8559'>0.77490E+03</wgt>
<wgt id='8560'>0.77415E+03</wgt>
<wgt id='8561'>0.77635E+03</wgt>
<wgt id='8562'>0.77524E+03</wgt>
<wgt id='8563'>0.77523E+03</wgt>
<wgt id='8564'>0.77524E+03</wgt>
<wgt id='8565'>0.77585E+03</wgt>
<wgt id='8566'>0.77657E+03</wgt>
<wgt id='8567'>0.77568E+03</wgt>
<wgt id='8568'>0.77592E+03</wgt>
<wgt id='8569'>0.77568E+03</wgt>
<wgt id='8570'>0.77486E+03</wgt>
<wgt id='8571'>0.77378E+03</wgt>
<wgt id='8572'>0.77473E+03</wgt>
<wgt id='8573'>0.77391E+03</wgt>
<wgt id='8574'>0.77475E+03</wgt>
<wgt id='8575'>0.77432E+03</wgt>
<wgt id='8576'>0.77554E+03</wgt>
<wgt id='8577'>0.77416E+03</wgt>
<wgt id='8578'>0.77564E+03</wgt>
<wgt id='8579'>0.77642E+03</wgt>
<wgt id='8580'>0.77428E+03</wgt>
<wgt id='8581'>0.77565E+03</wgt>
<wgt id='8582'>0.77430E+03</wgt>
<wgt id='8583'>0.77533E+03</wgt>
<wgt id='8584'>0.77615E+03</wgt>
<wgt id='8585'>0.77548E+03</wgt>
<wgt id='8586'>0.77671E+03</wgt>
<wgt id='8587'>0.77546E+03</wgt>
<wgt id='8588'>0.77496E+03</wgt>
<wgt id='8589'>0.77514E+03</wgt>
<wgt id='8590'>0.77486E+03</wgt>
<wgt id='8591'>0.77424E+03</wgt>
<wgt id='8592'>0.77504E+03</wgt>
<wgt id='8593'>0.77453E+03</wgt>
<wgt id='8594'>0.77504E+03</wgt>
<wgt id='8595'>0.77463E+03</wgt>
<wgt id='8596'>0.77484E+03</wgt>
<wgt id='8597'>0.77555E+03</wgt>
<wgt id='8598'>0.77556E+03</wgt>
<wgt id='8599'>0.77527E+03</wgt>
<wgt id='8600'>0.77505E+03</wgt>
<wgt id='8601'>0.75673E+03</wgt>
<wgt id='8602'>0.79977E+03</wgt>
<wgt id='9000'>0.76929E+03</wgt>
<wgt id='9001'>0.77692E+03</wgt>
<wgt id='9002'>0.76557E+03</wgt>
<wgt id='9003'>0.77962E+03</wgt>
<wgt id='9004'>0.77608E+03</wgt>
<wgt id='9005'>0.77639E+03</wgt>
<wgt id='9006'>0.77125E+03</wgt>
<wgt id='9007'>0.76445E+03</wgt>
<wgt id='9008'>0.76212E+03</wgt>
<wgt id='9009'>0.77371E+03</wgt>
<wgt id='9010'>0.77410E+03</wgt>
<wgt id='9011'>0.75603E+03</wgt>
<wgt id='9012'>0.78212E+03</wgt>
<wgt id='9013'>0.79137E+03</wgt>
<wgt id='9014'>0.78130E+03</wgt>
<wgt id='9015'>0.76507E+03</wgt>
<wgt id='9016'>0.75657E+03</wgt>
<wgt id='9017'>0.77118E+03</wgt>
<wgt id='9018'>0.77545E+03</wgt>
<wgt id='9019'>0.77879E+03</wgt>
<wgt id='9020'>0.73909E+03</wgt>
<wgt id='9021'>0.74859E+03</wgt>
<wgt id='9022'>0.78094E+03</wgt>
<wgt id='9023'>0.73635E+03</wgt>
<wgt id='9024'>0.75848E+03</wgt>
<wgt id='9025'>0.77685E+03</wgt>
<wgt id='9026'>0.76160E+03</wgt>
<wgt id='9027'>0.77150E+03</wgt>
<wgt id='9028'>0.77540E+03</wgt>
<wgt id='9029'>0.77121E+03</wgt>
<wgt id='9030'>0.76813E+03</wgt>
<wgt id='9031'>0.76734E+03</wgt>
<wgt id='9032'>0.77085E+03</wgt>
<wgt id='9033'>0.77177E+03</wgt>
<wgt id='9034'>0.77202E+03</wgt>
<wgt id='9035'>0.77157E+03</wgt>
<wgt id='9036'>0.77067E+03</wgt>
<wgt id='9037'>0.77086E+03</wgt>
<wgt id='9038'>0.77182E+03</wgt>
<wgt id='9039'>0.76944E+03</wgt>
<wgt id='9040'>0.76693E+03</wgt>
<wgt id='9041'>0.76988E+03</wgt>
<wgt id='9042'>0.77167E+03</wgt>
<wgt id='9043'>0.76647E+03</wgt>
<wgt id='9044'>0.77111E+03</wgt>
<wgt id='9045'>0.76874E+03</wgt>
<wgt id='9046'>0.76770E+03</wgt>
<wgt id='9047'>0.76981E+03</wgt>
<wgt id='9048'>0.76988E+03</wgt>
<wgt id='9049'>0.76819E+03</wgt>
<wgt id='9050'>0.76972E+03</wgt>
<wgt id='9051'>0.77111E+03</wgt>
<wgt id='9052'>0.77131E+03</wgt>
<wgt id='9053'>0.76976E+03</wgt>
<wgt id='9054'>0.76886E+03</wgt>
<wgt id='9055'>0.76915E+03</wgt>
<wgt id='9056'>0.76950E+03</wgt>
<wgt id='9057'>0.76927E+03</wgt>
<wgt id='9058'>0.76799E+03</wgt>
<wgt id='9059'>0.76858E+03</wgt>
<wgt id='9060'>0.76952E+03</wgt>
<wgt id='9061'>0.76870E+03</wgt>
<wgt id='9062'>0.76988E+03</wgt>
<wgt id='9063'>0.76931E+03</wgt>
<wgt id='9064'>0.77050E+03</wgt>
<wgt id='9065'>0.76875E+03</wgt>
<wgt id='9066'>0.76874E+03</wgt>
<wgt id='9067'>0.76846E+03</wgt>
<wgt id='9068'>0.76971E+03</wgt>
<wgt id='9069'>0.77045E+03</wgt>
<wgt id='9070'>0.76916E+03</wgt>
<wgt id='9071'>0.76988E+03</wgt>
<wgt id='9072'>0.76963E+03</wgt>
<wgt id='9073'>0.76917E+03</wgt>
<wgt id='9074'>0.77011E+03</wgt>
<wgt id='9075'>0.76879E+03</wgt>
<wgt id='9076'>0.76951E+03</wgt>
<wgt id='9077'>0.76967E+03</wgt>
<wgt id='9078'>0.77002E+03</wgt>
<wgt id='9079'>0.76850E+03</wgt>
<wgt id='9080'>0.77065E+03</wgt>
<wgt id='9081'>0.76920E+03</wgt>
<wgt id='9082'>0.76920E+03</wgt>
<wgt id='9083'>0.76924E+03</wgt>
<wgt id='9084'>0.76849E+03</wgt>
<wgt id='9085'>0.76818E+03</wgt>
<wgt id='9086'>0.76957E+03</wgt>
<wgt id='9087'>0.76765E+03</wgt>
<wgt id='9088'>0.76881E+03</wgt>
<wgt id='9089'>0.76874E+03</wgt>
<wgt id='9090'>0.76981E+03</wgt>
<wgt id='9091'>0.76917E+03</wgt>
<wgt id='9092'>0.76900E+03</wgt>
<wgt id='9093'>0.76901E+03</wgt>
<wgt id='9094'>0.76883E+03</wgt>
<wgt id='9095'>0.76931E+03</wgt>
<wgt id='9096'>0.76912E+03</wgt>
<wgt id='9097'>0.76934E+03</wgt>
<wgt id='9098'>0.76925E+03</wgt>
<wgt id='9099'>0.76876E+03</wgt>
<wgt id='9100'>0.76943E+03</wgt>
<wgt id='9101'>0.74472E+03</wgt>
<wgt id='9102'>0.80088E+03</wgt>
<wgt id='10000'>0.77517E+03</wgt>
<wgt id='10001'>0.76517E+03</wgt>
<wgt id='10002'>0.75644E+03</wgt>
<wgt id='10003'>0.77130E+03</wgt>
<wgt id='10004'>0.76184E+03</wgt>
<wgt id='10005'>0.74925E+03</wgt>
<wgt id='10006'>0.75144E+03</wgt>
<wgt id='10007'>0.77586E+03</wgt>
<wgt id='10008'>0.76575E+03</wgt>
<wgt id='10009'>0.76752E+03</wgt>
<wgt id='10010'>0.77168E+03</wgt>
<wgt id='10011'>0.76262E+03</wgt>
<wgt id='10012'>0.76582E+03</wgt>
<wgt id='10013'>0.77895E+03</wgt>
<wgt id='10014'>0.77502E+03</wgt>
<wgt id='10015'>0.77712E+03</wgt>
<wgt id='10016'>0.77446E+03</wgt>
<wgt id='10017'>0.78277E+03</wgt>
<wgt id='10018'>0.78367E+03</wgt>
<wgt id='10019'>0.76154E+03</wgt>
<wgt id='10020'>0.77671E+03</wgt>
<wgt id='10021'>0.77060E+03</wgt>
<wgt id='10022'>0.81520E+03</wgt>
<wgt id='10023'>0.77577E+03</wgt>
<wgt id='10024'>0.77431E+03</wgt>
<wgt id='10025'>0.77379E+03</wgt>
<wgt id='10026'>0.77320E+03</wgt>
<wgt id='10027'>0.77369E+03</wgt>
<wgt id='10028'>0.77164E+03</wgt>
<wgt id='10029'>0.77665E+03</wgt>
<wgt id='10030'>0.77557E+03</wgt>
<wgt id='10031'>0.75673E+03</wgt>
<wgt id='10032'>0.79977E+03</wgt>
<wgt id='11000'>0.76941E+03</wgt>
<wgt id='11001'>0.76995E+03</wgt>
<wgt id='11002'>0.76401E+03</wgt>
<wgt id='11003'>0.77356E+03</wgt>
<wgt id='11004'>0.75963E+03</wgt>
<wgt id='11005'>0.83139E+03</wgt>
<wgt id='11006'>0.76987E+03</wgt>
<wgt id='11007'>0.77149E+03</wgt>
<wgt id='11008'>0.77178E+03</wgt>
<wgt id='11009'>0.77052E+03</wgt>
<wgt id='11010'>0.76562E+03</wgt>
<wgt id='11011'>0.76758E+03</wgt>
<wgt id='11012'>0.76647E+03</wgt>
<wgt id='11013'>0.76883E+03</wgt>
<wgt id='11014'>0.76659E+03</wgt>
<wgt id='11015'>0.76316E+03</wgt>
<wgt id='11016'>0.77363E+03</wgt>
<wgt id='11017'>0.77154E+03</wgt>
<wgt id='11018'>0.76968E+03</wgt>
<wgt id='11019'>0.77306E+03</wgt>
<wgt id='11020'>0.77100E+03</wgt>
<wgt id='11021'>0.77148E+03</wgt>
<wgt id='11022'>0.76598E+03</wgt>
<wgt id='11023'>0.77061E+03</wgt>
<wgt id='11024'>0.76660E+03</wgt>
<wgt id='11025'>0.76586E+03</wgt>
<wgt id='11026'>0.76978E+03</wgt>
<wgt id='11027'>0.77373E+03</wgt>
<wgt id='11028'>0.76772E+03</wgt>
<wgt id='11029'>0.75415E+03</wgt>
<wgt id='11030'>0.76882E+03</wgt>
<wgt id='11031'>0.74472E+03</wgt>
<wgt id='11032'>0.80088E+03</wgt>
<wgt id='12000'>0.50989E+03</wgt>
<wgt id='12001'>0.50948E+03</wgt>
<wgt id='12002'>0.51029E+03</wgt>
<wgt id='12003'>0.50991E+03</wgt>
<wgt id='12004'>0.50987E+03</wgt>
<wgt id='12005'>0.50919E+03</wgt>
<wgt id='12006'>0.51059E+03</wgt>
<wgt id='12007'>0.51140E+03</wgt>
<wgt id='12008'>0.50841E+03</wgt>
<wgt id='12009'>0.50886E+03</wgt>
<wgt id='12010'>0.51099E+03</wgt>
<wgt id='12011'>0.50893E+03</wgt>
<wgt id='12012'>0.51100E+03</wgt>
<wgt id='12013'>0.51165E+03</wgt>
<wgt id='12014'>0.50815E+03</wgt>
<wgt id='12015'>0.51148E+03</wgt>
<wgt id='12016'>0.50832E+03</wgt>
<wgt id='12017'>0.51016E+03</wgt>
<wgt id='12018'>0.50998E+03</wgt>
<wgt id='12019'>0.51780E+03</wgt>
<wgt id='12020'>0.50249E+03</wgt>
<wgt id='12021'>0.51091E+03</wgt>
<wgt id='12022'>0.50922E+03</wgt>
<wgt id='12023'>0.50634E+03</wgt>
<wgt id='12024'>0.51561E+03</wgt>
<wgt id='12025'>0.50368E+03</wgt>
<wgt id='12026'>0.51567E+03</wgt>
<wgt id='12027'>0.51671E+03</wgt>
<wgt id='12028'>0.50485E+03</wgt>
<wgt id='12050'>0.50989E+03</wgt>
<wgt id='12051'>0.50911E+03</wgt>
<wgt id='12052'>0.50162E+03</wgt>
<wgt id='12053'>0.50940E+03</wgt>
<wgt id='12054'>0.50298E+03</wgt>
<wgt id='12055'>0.49485E+03</wgt>
<wgt id='12056'>0.52840E+03</wgt>
<wgt id='12057'>0.50688E+03</wgt>
<wgt id='12058'>0.50526E+03</wgt>
<wgt id='12059'>0.51004E+03</wgt>
<wgt id='12060'>0.50194E+03</wgt>
<wgt id='12061'>0.50636E+03</wgt>
<wgt id='12062'>0.50270E+03</wgt>
<wgt id='12063'>0.51769E+03</wgt>
<wgt id='13000'>0.62494E+03</wgt>
<wgt id='13001'>0.61823E+03</wgt>
<wgt id='13002'>0.61935E+03</wgt>
<wgt id='13003'>0.61872E+03</wgt>
<wgt id='13004'>0.61887E+03</wgt>
<wgt id='13005'>0.61846E+03</wgt>
<wgt id='13006'>0.61913E+03</wgt>
<wgt id='13007'>0.62128E+03</wgt>
<wgt id='13008'>0.61637E+03</wgt>
<wgt id='13009'>0.61632E+03</wgt>
<wgt id='13010'>0.62137E+03</wgt>
<wgt id='13011'>0.62034E+03</wgt>
<wgt id='13012'>0.61735E+03</wgt>
<wgt id='13013'>0.62011E+03</wgt>
<wgt id='13014'>0.61746E+03</wgt>
<wgt id='13015'>0.62169E+03</wgt>
<wgt id='13016'>0.61521E+03</wgt>
<wgt id='13017'>0.61528E+03</wgt>
<wgt id='13018'>0.62260E+03</wgt>
<wgt id='13019'>0.62820E+03</wgt>
<wgt id='13020'>0.60982E+03</wgt>
<wgt id='13021'>0.64018E+03</wgt>
<wgt id='13022'>0.60012E+03</wgt>
<wgt id='13023'>0.60313E+03</wgt>
<wgt id='13024'>0.63500E+03</wgt>
<wgt id='13025'>0.60272E+03</wgt>
<wgt id='13026'>0.63520E+03</wgt>
<wgt id='13027'>0.61118E+03</wgt>
<wgt id='13028'>0.62721E+03</wgt>
<wgt id='13050'>0.62494E+03</wgt>
<wgt id='13051'>0.62242E+03</wgt>
<wgt id='13052'>0.60980E+03</wgt>
<wgt id='13053'>0.62394E+03</wgt>
<wgt id='13054'>0.61703E+03</wgt>
<wgt id='13055'>0.57489E+03</wgt>
<wgt id='13056'>0.65694E+03</wgt>
<wgt id='13057'>0.62079E+03</wgt>
<wgt id='13058'>0.61649E+03</wgt>
<wgt id='13059'>0.63165E+03</wgt>
<wgt id='13060'>0.57087E+03</wgt>
<wgt id='13061'>0.62939E+03</wgt>
<wgt id='13062'>0.60434E+03</wgt>
<wgt id='13063'>0.64857E+03</wgt>
<wgt id='14000'>0.78433E+03</wgt>
<wgt id='14001'>0.78425E+03</wgt>
<wgt id='14002'>0.78418E+03</wgt>
<wgt id='14003'>0.78410E+03</wgt>
<wgt id='14004'>0.78402E+03</wgt>
<wgt id='14005'>0.78394E+03</wgt>
<wgt id='14006'>0.78387E+03</wgt>
<wgt id='14007'>0.78379E+03</wgt>
<wgt id='14008'>0.78371E+03</wgt>
<wgt id='14009'>0.78363E+03</wgt>
<wgt id='14010'>0.78356E+03</wgt>
<wgt id='14011'>0.78348E+03</wgt>
<wgt id='14012'>0.78340E+03</wgt>
<wgt id='14013'>0.78332E+03</wgt>
<wgt id='14014'>0.78325E+03</wgt>
<wgt id='14015'>0.78317E+03</wgt>
<wgt id='14016'>0.78309E+03</wgt>
<wgt id='14017'>0.78302E+03</wgt>
<wgt id='14018'>0.78294E+03</wgt>
<wgt id='14019'>0.78286E+03</wgt>
<wgt id='14020'>0.78278E+03</wgt>
<wgt id='14021'>0.78270E+03</wgt>
<wgt id='14022'>0.78263E+03</wgt>
<wgt id='14023'>0.78255E+03</wgt>
<wgt id='14024'>0.78247E+03</wgt>
<wgt id='14025'>0.78239E+03</wgt>
<wgt id='14026'>0.78232E+03</wgt>
<wgt id='14027'>0.78224E+03</wgt>
<wgt id='14028'>0.78216E+03</wgt>
<wgt id='14029'>0.78209E+03</wgt>
<wgt id='14030'>0.78201E+03</wgt>
<wgt id='15000'>0.76069E+03</wgt>
<wgt id='15001'>0.76837E+03</wgt>
<wgt id='15002'>0.75701E+03</wgt>
<wgt id='15003'>0.77093E+03</wgt>
<wgt id='15004'>0.76746E+03</wgt>
<wgt id='15005'>0.76775E+03</wgt>
<wgt id='15006'>0.76256E+03</wgt>
<wgt id='15007'>0.75579E+03</wgt>
<wgt id='15008'>0.75360E+03</wgt>
<wgt id='15009'>0.76507E+03</wgt>
<wgt id='15010'>0.76550E+03</wgt>
<wgt id='15011'>0.74747E+03</wgt>
<wgt id='15012'>0.77329E+03</wgt>
<wgt id='15013'>0.78249E+03</wgt>
<wgt id='15014'>0.77253E+03</wgt>
<wgt id='15015'>0.75662E+03</wgt>
<wgt id='15016'>0.74798E+03</wgt>
<wgt id='15017'>0.76261E+03</wgt>
<wgt id='15018'>0.76683E+03</wgt>
<wgt id='15019'>0.77002E+03</wgt>
<wgt id='15020'>0.73080E+03</wgt>
<wgt id='15021'>0.74025E+03</wgt>
<wgt id='15022'>0.77225E+03</wgt>
<wgt id='15023'>0.72806E+03</wgt>
<wgt id='15024'>0.75003E+03</wgt>
<wgt id='15025'>0.76827E+03</wgt>
<wgt id='15026'>0.75317E+03</wgt>
<wgt id='15027'>0.76277E+03</wgt>
<wgt id='15028'>0.76670E+03</wgt>
<wgt id='15029'>0.76264E+03</wgt>
<wgt id='15030'>0.75961E+03</wgt>
<wgt id='15031'>0.75865E+03</wgt>
<wgt id='15032'>0.76228E+03</wgt>
<wgt id='15033'>0.76320E+03</wgt>
<wgt id='15034'>0.76338E+03</wgt>
<wgt id='15035'>0.76298E+03</wgt>
<wgt id='15036'>0.76205E+03</wgt>
<wgt id='15037'>0.76225E+03</wgt>
<wgt id='15038'>0.76321E+03</wgt>
<wgt id='15039'>0.76088E+03</wgt>
<wgt id='15040'>0.75836E+03</wgt>
<wgt id='15041'>0.76127E+03</wgt>
<wgt id='15042'>0.76305E+03</wgt>
<wgt id='15043'>0.75786E+03</wgt>
<wgt id='15044'>0.76250E+03</wgt>
<wgt id='15045'>0.76014E+03</wgt>
<wgt id='15046'>0.75909E+03</wgt>
<wgt id='15047'>0.76121E+03</wgt>
<wgt id='15048'>0.76126E+03</wgt>
<wgt id='15049'>0.75959E+03</wgt>
<wgt id='15050'>0.76111E+03</wgt>
<wgt id='15051'>0.76251E+03</wgt>
<wgt id='15052'>0.76270E+03</wgt>
<wgt id='15053'>0.76117E+03</wgt>
<wgt id='15054'>0.76025E+03</wgt>
<wgt id='15055'>0.76054E+03</wgt>
<wgt id='15056'>0.76093E+03</wgt>
<wgt id='15057'>0.76066E+03</wgt>
<wgt id='15058'>0.75938E+03</wgt>
<wgt id='15059'>0.75997E+03</wgt>
<wgt id='15060'>0.76090E+03</wgt>
<wgt id='15061'>0.76010E+03</wgt>
<wgt id='15062'>0.76128E+03</wgt>
<wgt id='15063'>0.76074E+03</wgt>
<wgt id='15064'>0.76186E+03</wgt>
<wgt id='15065'>0.76017E+03</wgt>
<wgt id='15066'>0.76015E+03</wgt>
<wgt id='15067'>0.75988E+03</wgt>
<wgt id='15068'>0.76110E+03</wgt>
<wgt id='15069'>0.76185E+03</wgt>
<wgt id='15070'>0.76056E+03</wgt>
<wgt id='15071'>0.76127E+03</wgt>
<wgt id='15072'>0.76104E+03</wgt>
<wgt id='15073'>0.76057E+03</wgt>
<wgt id='15074'>0.76150E+03</wgt>
<wgt id='15075'>0.76019E+03</wgt>
<wgt id='15076'>0.76089E+03</wgt>
<wgt id='15077'>0.76107E+03</wgt>
<wgt id='15078'>0.76142E+03</wgt>
<wgt id='15079'>0.75991E+03</wgt>
<wgt id='15080'>0.76205E+03</wgt>
<wgt id='15081'>0.76058E+03</wgt>
<wgt id='15082'>0.76060E+03</wgt>
<wgt id='15083'>0.76063E+03</wgt>
<wgt id='15084'>0.75990E+03</wgt>
<wgt id='15085'>0.75959E+03</wgt>
<wgt id='15086'>0.76095E+03</wgt>
<wgt id='15087'>0.75908E+03</wgt>
<wgt id='15088'>0.76023E+03</wgt>
<wgt id='15089'>0.76015E+03</wgt>
<wgt id='15090'>0.76122E+03</wgt>
<wgt id='15091'>0.76058E+03</wgt>
<wgt id='15092'>0.76041E+03</wgt>
<wgt id='15093'>0.76041E+03</wgt>
<wgt id='15094'>0.76025E+03</wgt>
<wgt id='15095'>0.76071E+03</wgt>
<wgt id='15096'>0.76051E+03</wgt>
<wgt id='15097'>0.76074E+03</wgt>
<wgt id='15098'>0.76065E+03</wgt>
<wgt id='15099'>0.76015E+03</wgt>
<wgt id='15100'>0.76082E+03</wgt>
<wgt id='15101'>0.76069E+03</wgt>
<wgt id='15102'>0.76064E+03</wgt>
<wgt id='15103'>0.76070E+03</wgt>
<wgt id='15104'>0.76070E+03</wgt>
<wgt id='15105'>0.76072E+03</wgt>
<wgt id='15106'>0.76070E+03</wgt>
<wgt id='15107'>0.76066E+03</wgt>
<wgt id='1500'>0.79661E+03</wgt>
<wgt id='1501'>0.77096E+03</wgt>
<wgt id='1502'>0.83883E+03</wgt>
<wgt id='1503'>0.78127E+03</wgt>
<wgt id='1504'>0.79641E+03</wgt>
<wgt id='1505'>0.74399E+03</wgt>
<wgt id='1506'>0.83448E+03</wgt>
<wgt id='1507'>0.76305E+03</wgt>
<wgt id='1508'>0.81480E+03</wgt>
<wgt id='1509'>0.81443E+03</wgt>
<wgt id='1510'>0.73381E+03</wgt>
<wgt id='1511'>0.84878E+03</wgt>
<wgt id='1512'>0.76923E+03</wgt>
<wgt id='1513'>0.84210E+03</wgt>
<wgt id='1514'>0.85464E+03</wgt>
<wgt id='1515'>0.81780E+03</wgt>
<wgt id='1516'>0.78256E+03</wgt>
<wgt id='1517'>0.96099E+03</wgt>
<wgt id='1518'>0.83173E+03</wgt>
<wgt id='1519'>0.77684E+03</wgt>
<wgt id='1520'>0.76655E+03</wgt>
<wgt id='1521'>0.76718E+03</wgt>
<wgt id='1522'>0.68257E+03</wgt>
<wgt id='1523'>0.70980E+03</wgt>
<wgt id='1524'>0.69467E+03</wgt>
<wgt id='1525'>0.79788E+03</wgt>
<wgt id='1526'>0.78520E+03</wgt>
<wgt id='1527'>0.95089E+03</wgt>
<wgt id='1528'>0.87117E+03</wgt>
<wgt id='1529'>0.86005E+03</wgt>
<wgt id='1530'>0.76729E+03</wgt>
<wgt id='1531'>0.75831E+03</wgt>
<wgt id='1532'>0.78451E+03</wgt>
<wgt id='1533'>0.77908E+03</wgt>
<wgt id='1534'>0.72936E+03</wgt>
<wgt id='1535'>0.84785E+03</wgt>
<wgt id='1536'>0.75662E+03</wgt>
<wgt id='1537'>0.85825E+03</wgt>
<wgt id='1538'>0.73361E+03</wgt>
<wgt id='1539'>0.76089E+03</wgt>
<wgt id='1540'>0.78160E+03</wgt>
<wgt id='1541'>0.72321E+03</wgt>
<wgt id='1542'>0.83136E+03</wgt>
<wgt id='1543'>0.72637E+03</wgt>
<wgt id='1544'>0.77823E+03</wgt>
<wgt id='1545'>0.68504E+03</wgt>
<wgt id='1546'>0.66404E+03</wgt>
<wgt id='1547'>0.84831E+03</wgt>
<wgt id='1548'>0.83092E+03</wgt>
<wgt id='1549'>0.81733E+03</wgt>
<wgt id='1550'>0.78045E+03</wgt>
<wgt id='1551'>0.77791E+03</wgt>
<wgt id='1552'>0.74190E+03</wgt>
<wgt id='1553'>0.78018E+03</wgt>
<wgt id='1554'>0.86317E+03</wgt>
<wgt id='1555'>0.77976E+03</wgt>
<wgt id='1556'>0.87122E+03</wgt>
<wgt id='1557'>0.76768E+03</wgt>
<wgt id='1558'>0.79819E+03</wgt>
<wgt id='1559'>0.80887E+03</wgt>
<wgt id='1560'>0.75367E+03</wgt>
<wgt id='1561'>0.78179E+03</wgt>
<wgt id='1562'>0.75131E+03</wgt>
<wgt id='1563'>0.86420E+03</wgt>
<wgt id='1564'>0.88180E+03</wgt>
<wgt id='1565'>0.83042E+03</wgt>
<wgt id='1566'>0.78886E+03</wgt>
<wgt id='1567'>0.73758E+03</wgt>
<wgt id='1568'>0.81654E+03</wgt>
<wgt id='1569'>0.84560E+03</wgt>
<wgt id='1570'>0.85340E+03</wgt>
<wgt id='1571'>0.67808E+03</wgt>
<wgt id='1572'>0.77890E+03</wgt>
<wgt id='1573'>0.81712E+03</wgt>
<wgt id='1574'>0.85432E+03</wgt>
<wgt id='1575'>0.79152E+03</wgt>
<wgt id='1576'>0.71568E+03</wgt>
<wgt id='1577'>0.74159E+03</wgt>
<wgt id='1578'>0.85845E+03</wgt>
<wgt id='1579'>0.77899E+03</wgt>
<wgt id='1580'>0.79141E+03</wgt>
<wgt id='1581'>0.72636E+03</wgt>
<wgt id='1582'>0.76037E+03</wgt>
<wgt id='1583'>0.87456E+03</wgt>
<wgt id='1584'>0.76604E+03</wgt>
<wgt id='1585'>0.82240E+03</wgt>
<wgt id='1586'>0.84574E+03</wgt>
<wgt id='1587'>0.82337E+03</wgt>
<wgt id='1588'>0.84336E+03</wgt>
<wgt id='1589'>0.81005E+03</wgt>
<wgt id='1590'>0.79503E+03</wgt>
<wgt id='1591'>0.79093E+03</wgt>
<wgt id='1592'>0.73305E+03</wgt>
<wgt id='1593'>0.82885E+03</wgt>
<wgt id='1594'>0.76703E+03</wgt>
<wgt id='1595'>0.91345E+03</wgt>
<wgt id='1596'>0.80807E+03</wgt>
<wgt id='1597'>0.77725E+03</wgt>
<wgt id='1598'>0.66482E+03</wgt>
<wgt id='1599'>0.82740E+03</wgt>
<wgt id='1600'>0.86691E+03</wgt>
<wgt id='1601'>0.77546E+03</wgt>
<wgt id='1602'>0.81355E+03</wgt>
<wgt id='1700'>0.74014E+03</wgt>
<wgt id='1800'>0.64976E+03</wgt>
<wgt id='1850'>0.74447E+03</wgt>
<wgt id='1900'>0.76363E+03</wgt>
<wgt id='1950'>0.72505E+03</wgt>
</rwgt>
</event>
<event>
     13 322222  6.87070E+02  1.17909E+02 -1.00000E+00  1.19188E-01
      21    -1     0     0   502   503  0.000000000E+00  0.000000000E+00  8.442079206E+02  8.442079206E+02  0.000000000E+00  0.00000E+00  9.000E+00
      21    -1     0     0   504   505  0.000000000E+00  0.000000000E+00 -1.170116424E+02  1.170116424E+02  0.000000000E+00  0.00000E+00  9.000E+00
       6     2     1     2   502     0 -1.868255292E+01  9.231069637E+00  3.287307306E+01  1.770601483E+02  1.727292875E+02  0.00000E+00  9.000E+00
      -6     2     1     2     0   505  1.687022938E+01 -1.271261191E+02  2.771336862E+02  3.506278450E+02  1.723112036E+02  0.00000E+00  9.000E+00
      21     1     1     2   504   503  1.812323538E+00  1.178950494E+02  4.171895189E+02  4.335315696E+02  5.394796609E-06  0.00000E+00  9.000E+00
      24     2     3     3     0     0  4.735683711E+01  3.600603760E+01  8.128173688E+00  1.014727817E+02  8.180191599E+01  0.00000E+00  9.000E+00
       5     1     3     3   502     0 -6.603939003E+01 -2.677496797E+01  2.474489937E+01  7.558736661E+01  4.800000000E+00  0.00000E+00 -1.000E+00
     -24     2     4     4     0     0 -5.765235844E+01 -6.963338377E+01  1.784885421E+02  2.141986136E+02  7.648714840E+01  0.00000E+00  9.000E+00
      -5     1     4     4     0   505  7.452258783E+01 -5.749273529E+01  9.864514419E+01  1.364292314E+02  4.800000000E+00  0.00000E+00  1.000E+00
      -3     1     6     6     0   509  4.861535597E+00 -6.932573034E+00 -2.922661289E+01  3.042909789E+01  2.000000000E-01  0.00000E+00  1.000E+00
       4     1     6     6   509     0  4.249530152E+01  4.293861064E+01  3.735478658E+01  7.104368385E+01  1.500000000E+00  0.00000E+00 -1.000E+00
      15     1     8     8     0     0 -6.259959165E+01 -8.310271503E+01  1.558582191E+02  1.874025408E+02  1.777000000E+00  0.00000E+00 -1.000E+00
     -16     1     8     8     0     0  4.947233204E+00  1.346933126E+01  2.263032297E+01  2.679607283E+01  0.000000000E+00  0.00000E+00  1.000E+00
#rwgt            1           1   536.87396664355424                2        1670           0
<rwgt>
<wgt id='1001'>0.68707E+03</wgt>
<wgt id='1002'>0.63997E+03</wgt>
<wgt id='1003'>0.75928E+03</wgt>
<wgt id='1004'>0.63339E+03</wgt>
<wgt id='1005'>0.59213E+03</wgt>
<wgt id='1006'>0.69375E+03</wgt>
<wgt id='1007'>0.73407E+03</wgt>
<wgt id='1008'>0.67998E+03</wgt>
<wgt id='1009'>0.82212E+03</wgt>
<wgt id='2000'>0.68707E+03</wgt>
<wgt id='2001'>0.68650E+03</wgt>
<wgt id='2002'>0.68774E+03</wgt>
<wgt id='2003'>0.68750E+03</wgt>
<wgt id='2004'>0.68879E+03</wgt>
<wgt id='2005'>0.68655E+03</wgt>
<wgt id='2006'>0.68560E+03</wgt>
<wgt id='2007'>0.68576E+03</wgt>
<wgt id='2008'>0.68518E+03</wgt>
<wgt id='2009'>0.68808E+03</wgt>
<wgt id='2010'>0.68703E+03</wgt>
<wgt id='2011'>0.68520E+03</wgt>
<wgt id='2012'>0.68661E+03</wgt>
<wgt id='2013'>0.68590E+03</wgt>
<wgt id='2014'>0.68772E+03</wgt>
<wgt id='2015'>0.68747E+03</wgt>
<wgt id='2016'>0.68780E+03</wgt>
<wgt id='2017'>0.68671E+03</wgt>
<wgt id='2018'>0.68702E+03</wgt>
<wgt id='2019'>0.68726E+03</wgt>
<wgt id='2020'>0.68774E+03</wgt>
<wgt id='2021'>0.68683E+03</wgt>
<wgt id='2022'>0.68730E+03</wgt>
<wgt id='2023'>0.68794E+03</wgt>
<wgt id='2024'>0.68580E+03</wgt>
<wgt id='2025'>0.68794E+03</wgt>
<wgt id='2026'>0.68897E+03</wgt>
<wgt id='2027'>0.68604E+03</wgt>
<wgt id='2028'>0.68553E+03</wgt>
<wgt id='2029'>0.69046E+03</wgt>
<wgt id='2030'>0.68704E+03</wgt>
<wgt id='2031'>0.68790E+03</wgt>
<wgt id='2032'>0.68636E+03</wgt>
<wgt id='2033'>0.68715E+03</wgt>
<wgt id='2034'>0.68952E+03</wgt>
<wgt id='2035'>0.68684E+03</wgt>
<wgt id='2036'>0.68705E+03</wgt>
<wgt id='2037'>0.68866E+03</wgt>
<wgt id='2038'>0.68645E+03</wgt>
<wgt id='2039'>0.68474E+03</wgt>
<wgt id='2040'>0.68645E+03</wgt>
<wgt id='2041'>0.68677E+03</wgt>
<wgt id='2042'>0.68723E+03</wgt>
<wgt id='2043'>0.68637E+03</wgt>
<wgt id='2044'>0.68792E+03</wgt>
<wgt id='2045'>0.68658E+03</wgt>
<wgt id='2046'>0.68820E+03</wgt>
<wgt id='2047'>0.68794E+03</wgt>
<wgt id='2048'>0.68655E+03</wgt>
<wgt id='2049'>0.68671E+03</wgt>
<wgt id='2050'>0.68768E+03</wgt>
<wgt id='2051'>0.68790E+03</wgt>
<wgt id='2052'>0.68702E+03</wgt>
<wgt id='2053'>0.68735E+03</wgt>
<wgt id='2054'>0.68742E+03</wgt>
<wgt id='2055'>0.68707E+03</wgt>
<wgt id='2056'>0.68707E+03</wgt>
<wgt id='2057'>0.68739E+03</wgt>
<wgt id='2058'>0.68727E+03</wgt>
<wgt id='2059'>0.68694E+03</wgt>
<wgt id='2060'>0.68716E+03</wgt>
<wgt id='2061'>0.68683E+03</wgt>
<wgt id='2062'>0.68727E+03</wgt>
<wgt id='2063'>0.68695E+03</wgt>
<wgt id='2064'>0.68680E+03</wgt>
<wgt id='2065'>0.68730E+03</wgt>
<wgt id='2066'>0.68683E+03</wgt>
<wgt id='2067'>0.68711E+03</wgt>
<wgt id='2068'>0.68730E+03</wgt>
<wgt id='2069'>0.68713E+03</wgt>
<wgt id='2070'>0.68688E+03</wgt>
<wgt id='2071'>0.68668E+03</wgt>
<wgt id='2072'>0.68712E+03</wgt>
<wgt id='2073'>0.68711E+03</wgt>
<wgt id='2074'>0.68705E+03</wgt>
<wgt id='2075'>0.68692E+03</wgt>
<wgt id='2076'>0.68711E+03</wgt>
<wgt id='2077'>0.68695E+03</wgt>
<wgt id='2078'>0.68704E+03</wgt>
<wgt id='2079'>0.68711E+03</wgt>
<wgt id='2080'>0.68724E+03</wgt>
<wgt id='2081'>0.68717E+03</wgt>
<wgt id='2082'>0.68718E+03</wgt>
<wgt id='2083'>0.68710E+03</wgt>
<wgt id='2084'>0.68719E+03</wgt>
<wgt id='2085'>0.68710E+03</wgt>
<wgt id='2086'>0.68687E+03</wgt>
<wgt id='2087'>0.68696E+03</wgt>
<wgt id='2088'>0.68718E+03</wgt>
<wgt id='2089'>0.68697E+03</wgt>
<wgt id='2090'>0.68698E+03</wgt>
<wgt id='2091'>0.68707E+03</wgt>
<wgt id='2092'>0.68708E+03</wgt>
<wgt id='2093'>0.68701E+03</wgt>
<wgt id='2094'>0.68723E+03</wgt>
<wgt id='2095'>0.68717E+03</wgt>
<wgt id='2096'>0.68695E+03</wgt>
<wgt id='2097'>0.68718E+03</wgt>
<wgt id='2098'>0.68702E+03</wgt>
<wgt id='2099'>0.68689E+03</wgt>
<wgt id='2100'>0.68715E+03</wgt>
<wgt id='2101'>0.66847E+03</wgt>
<wgt id='2102'>0.70515E+03</wgt>
<wgt id='2104'>0.60418E+03</wgt>
<wgt id='2105'>0.62030E+03</wgt>
<wgt id='2106'>0.63704E+03</wgt>
<wgt id='2107'>0.65275E+03</wgt>
<wgt id='2108'>0.67915E+03</wgt>
<wgt id='2109'>0.69607E+03</wgt>
<wgt id='2110'>0.72000E+03</wgt>
<wgt id='2111'>0.73680E+03</wgt>
<wgt id='3000'>0.71330E+03</wgt>
<wgt id='3001'>0.71386E+03</wgt>
<wgt id='3002'>0.71278E+03</wgt>
<wgt id='3003'>0.71337E+03</wgt>
<wgt id='3004'>0.71501E+03</wgt>
<wgt id='3005'>0.71387E+03</wgt>
<wgt id='3006'>0.71282E+03</wgt>
<wgt id='3007'>0.71440E+03</wgt>
<wgt id='3008'>0.71311E+03</wgt>
<wgt id='3009'>0.71497E+03</wgt>
<wgt id='3010'>0.71271E+03</wgt>
<wgt id='3011'>0.71213E+03</wgt>
<wgt id='3012'>0.71356E+03</wgt>
<wgt id='3013'>0.71411E+03</wgt>
<wgt id='3014'>0.71358E+03</wgt>
<wgt id='3015'>0.71243E+03</wgt>
<wgt id='3016'>0.71335E+03</wgt>
<wgt id='3017'>0.71320E+03</wgt>
<wgt id='3018'>0.71411E+03</wgt>
<wgt id='3019'>0.71377E+03</wgt>
<wgt id='3020'>0.71321E+03</wgt>
<wgt id='3021'>0.71317E+03</wgt>
<wgt id='3022'>0.71339E+03</wgt>
<wgt id='3023'>0.71302E+03</wgt>
<wgt id='3024'>0.71253E+03</wgt>
<wgt id='3025'>0.71408E+03</wgt>
<wgt id='3026'>0.71346E+03</wgt>
<wgt id='3027'>0.71350E+03</wgt>
<wgt id='3028'>0.71160E+03</wgt>
<wgt id='3029'>0.71102E+03</wgt>
<wgt id='3030'>0.71703E+03</wgt>
<wgt id='3031'>0.71521E+03</wgt>
<wgt id='3032'>0.71399E+03</wgt>
<wgt id='3033'>0.71537E+03</wgt>
<wgt id='3034'>0.71340E+03</wgt>
<wgt id='3035'>0.71712E+03</wgt>
<wgt id='3036'>0.71411E+03</wgt>
<wgt id='3037'>0.71257E+03</wgt>
<wgt id='3038'>0.71341E+03</wgt>
<wgt id='3039'>0.71348E+03</wgt>
<wgt id='3040'>0.71197E+03</wgt>
<wgt id='3041'>0.71352E+03</wgt>
<wgt id='3042'>0.71275E+03</wgt>
<wgt id='3043'>0.71256E+03</wgt>
<wgt id='3044'>0.71366E+03</wgt>
<wgt id='3045'>0.71395E+03</wgt>
<wgt id='3046'>0.71402E+03</wgt>
<wgt id='3047'>0.71344E+03</wgt>
<wgt id='3048'>0.71320E+03</wgt>
<wgt id='3049'>0.71309E+03</wgt>
<wgt id='3050'>0.71278E+03</wgt>
<wgt id='3051'>0.71437E+03</wgt>
<wgt id='3052'>0.71290E+03</wgt>
<wgt id='3053'>0.71297E+03</wgt>
<wgt id='3054'>0.71329E+03</wgt>
<wgt id='3055'>0.71279E+03</wgt>
<wgt id='3056'>0.71349E+03</wgt>
<wgt id='3057'>0.71313E+03</wgt>
<wgt id='3058'>0.71287E+03</wgt>
<wgt id='3059'>0.71341E+03</wgt>
<wgt id='3060'>0.71344E+03</wgt>
<wgt id='3061'>0.71342E+03</wgt>
<wgt id='3062'>0.71342E+03</wgt>
<wgt id='3063'>0.71377E+03</wgt>
<wgt id='3064'>0.71305E+03</wgt>
<wgt id='3065'>0.71336E+03</wgt>
<wgt id='3066'>0.71355E+03</wgt>
<wgt id='3067'>0.71303E+03</wgt>
<wgt id='3068'>0.71346E+03</wgt>
<wgt id='3069'>0.71317E+03</wgt>
<wgt id='3070'>0.71346E+03</wgt>
<wgt id='3071'>0.71324E+03</wgt>
<wgt id='3072'>0.71317E+03</wgt>
<wgt id='3073'>0.71287E+03</wgt>
<wgt id='3074'>0.71376E+03</wgt>
<wgt id='3075'>0.71308E+03</wgt>
<wgt id='3076'>0.71332E+03</wgt>
<wgt id='3077'>0.71353E+03</wgt>
<wgt id='3078'>0.71340E+03</wgt>
<wgt id='3079'>0.71324E+03</wgt>
<wgt id='3080'>0.71316E+03</wgt>
<wgt id='3081'>0.71332E+03</wgt>
<wgt id='3082'>0.71309E+03</wgt>
<wgt id='3083'>0.71337E+03</wgt>
<wgt id='3084'>0.71326E+03</wgt>
<wgt id='3085'>0.71331E+03</wgt>
<wgt id='3086'>0.71304E+03</wgt>
<wgt id='3087'>0.71327E+03</wgt>
<wgt id='3088'>0.71331E+03</wgt>
<wgt id='3089'>0.71327E+03</wgt>
<wgt id='3090'>0.71331E+03</wgt>
<wgt id='3091'>0.71339E+03</wgt>
<wgt id='3092'>0.71334E+03</wgt>
<wgt id='3093'>0.71328E+03</wgt>
<wgt id='3094'>0.71354E+03</wgt>
<wgt id='3095'>0.71327E+03</wgt>
<wgt id='3096'>0.71327E+03</wgt>
<wgt id='3097'>0.71312E+03</wgt>
<wgt id='3098'>0.71332E+03</wgt>
<wgt id='3099'>0.71340E+03</wgt>
<wgt id='3100'>0.71332E+03</wgt>
<wgt id='3101'>0.69484E+03</wgt>
<wgt id='3102'>0.73052E+03</wgt>
<wgt id='5000'>0.67980E+03</wgt>
<wgt id='5001'>0.68072E+03</wgt>
<wgt id='5002'>0.68087E+03</wgt>
<wgt id='5003'>0.67979E+03</wgt>
<wgt id='5004'>0.67667E+03</wgt>
<wgt id='5005'>0.67068E+03</wgt>
<wgt id='5006'>0.66423E+03</wgt>
<wgt id='5007'>0.67235E+03</wgt>
<wgt id='5008'>0.68222E+03</wgt>
<wgt id='5009'>0.67641E+03</wgt>
<wgt id='5010'>0.67933E+03</wgt>
<wgt id='5011'>0.68181E+03</wgt>
<wgt id='5012'>0.67904E+03</wgt>
<wgt id='5013'>0.68595E+03</wgt>
<wgt id='5014'>0.68861E+03</wgt>
<wgt id='5015'>0.67981E+03</wgt>
<wgt id='5016'>0.67964E+03</wgt>
<wgt id='5017'>0.66980E+03</wgt>
<wgt id='5018'>0.69035E+03</wgt>
<wgt id='5019'>0.68818E+03</wgt>
<wgt id='5020'>0.67185E+03</wgt>
<wgt id='5021'>0.67862E+03</wgt>
<wgt id='5022'>0.68053E+03</wgt>
<wgt id='5023'>0.67695E+03</wgt>
<wgt id='5024'>0.68289E+03</wgt>
<wgt id='5025'>0.68343E+03</wgt>
<wgt id='5026'>0.67680E+03</wgt>
<wgt id='5027'>0.68197E+03</wgt>
<wgt id='5028'>0.67612E+03</wgt>
<wgt id='5029'>0.67661E+03</wgt>
<wgt id='5030'>0.68179E+03</wgt>
<wgt id='5031'>0.67652E+03</wgt>
<wgt id='5032'>0.68465E+03</wgt>
<wgt id='5033'>0.67964E+03</wgt>
<wgt id='5034'>0.67990E+03</wgt>
<wgt id='5035'>0.68549E+03</wgt>
<wgt id='5036'>0.67440E+03</wgt>
<wgt id='5037'>0.66393E+03</wgt>
<wgt id='5038'>0.69767E+03</wgt>
<wgt id='5039'>0.69425E+03</wgt>
<wgt id='5040'>0.67187E+03</wgt>
<wgt id='5041'>0.68139E+03</wgt>
<wgt id='5042'>0.67873E+03</wgt>
<wgt id='5043'>0.68263E+03</wgt>
<wgt id='5044'>0.67885E+03</wgt>
<wgt id='5045'>0.68728E+03</wgt>
<wgt id='5046'>0.66274E+03</wgt>
<wgt id='5047'>0.68341E+03</wgt>
<wgt id='5048'>0.67273E+03</wgt>
<wgt id='5049'>0.68078E+03</wgt>
<wgt id='5050'>0.67862E+03</wgt>
<wgt id='5051'>0.67963E+03</wgt>
<wgt id='5052'>0.67977E+03</wgt>
<wgt id='5053'>0.66319E+03</wgt>
<wgt id='5054'>0.66994E+03</wgt>
<wgt id='5055'>0.67406E+03</wgt>
<wgt id='5056'>0.69103E+03</wgt>
<wgt id='5060'>0.66001E+03</wgt>
<wgt id='5070'>0.70003E+03</wgt>
<wgt id='4000'>0.68715E+03</wgt>
<wgt id='4001'>0.68662E+03</wgt>
<wgt id='4002'>0.68781E+03</wgt>
<wgt id='4003'>0.67784E+03</wgt>
<wgt id='4004'>0.68007E+03</wgt>
<wgt id='4005'>0.68542E+03</wgt>
<wgt id='4006'>0.68930E+03</wgt>
<wgt id='4007'>0.68978E+03</wgt>
<wgt id='4008'>0.67914E+03</wgt>
<wgt id='4009'>0.68788E+03</wgt>
<wgt id='4010'>0.68388E+03</wgt>
<wgt id='4011'>0.69964E+03</wgt>
<wgt id='4012'>0.67785E+03</wgt>
<wgt id='4013'>0.68580E+03</wgt>
<wgt id='4014'>0.68870E+03</wgt>
<wgt id='4015'>0.70103E+03</wgt>
<wgt id='4016'>0.67759E+03</wgt>
<wgt id='4017'>0.67549E+03</wgt>
<wgt id='4018'>0.70094E+03</wgt>
<wgt id='4019'>0.69326E+03</wgt>
<wgt id='4020'>0.68080E+03</wgt>
<wgt id='4021'>0.68930E+03</wgt>
<wgt id='4022'>0.68293E+03</wgt>
<wgt id='4023'>0.68579E+03</wgt>
<wgt id='4024'>0.68859E+03</wgt>
<wgt id='4025'>0.69919E+03</wgt>
<wgt id='4026'>0.67551E+03</wgt>
<wgt id='4027'>0.68837E+03</wgt>
<wgt id='4028'>0.68559E+03</wgt>
<wgt id='4029'>0.68668E+03</wgt>
<wgt id='4030'>0.68737E+03</wgt>
<wgt id='4031'>0.68969E+03</wgt>
<wgt id='4032'>0.68387E+03</wgt>
<wgt id='4033'>0.68222E+03</wgt>
<wgt id='4034'>0.69804E+03</wgt>
<wgt id='4035'>0.67926E+03</wgt>
<wgt id='4036'>0.69519E+03</wgt>
<wgt id='4037'>0.68667E+03</wgt>
<wgt id='4038'>0.68811E+03</wgt>
<wgt id='4039'>0.68722E+03</wgt>
<wgt id='4040'>0.68815E+03</wgt>
<wgt id='4041'>0.68549E+03</wgt>
<wgt id='4042'>0.68951E+03</wgt>
<wgt id='4043'>0.68615E+03</wgt>
<wgt id='4044'>0.69413E+03</wgt>
<wgt id='4045'>0.68343E+03</wgt>
<wgt id='4046'>0.69011E+03</wgt>
<wgt id='4047'>0.68620E+03</wgt>
<wgt id='4048'>0.67349E+03</wgt>
<wgt id='4049'>0.67372E+03</wgt>
<wgt id='4050'>0.68532E+03</wgt>
<wgt id='4051'>0.68835E+03</wgt>
<wgt id='4052'>0.68796E+03</wgt>
<wgt id='4053'>0.66645E+03</wgt>
<wgt id='4054'>0.69569E+03</wgt>
<wgt id='4055'>0.68144E+03</wgt>
<wgt id='4056'>0.69718E+03</wgt>
<wgt id='4060'>0.66834E+03</wgt>
<wgt id='4070'>0.70669E+03</wgt>
<wgt id='4080'>0.63155E+03</wgt>
<wgt id='6000'>0.70218E+03</wgt>
<wgt id='6001'>0.70237E+03</wgt>
<wgt id='6002'>0.70191E+03</wgt>
<wgt id='6003'>0.70288E+03</wgt>
<wgt id='6004'>0.70171E+03</wgt>
<wgt id='6005'>0.70591E+03</wgt>
<wgt id='6006'>0.69869E+03</wgt>
<wgt id='6007'>0.69960E+03</wgt>
<wgt id='6008'>0.70507E+03</wgt>
<wgt id='6009'>0.70269E+03</wgt>
<wgt id='6010'>0.70163E+03</wgt>
<wgt id='6011'>0.70280E+03</wgt>
<wgt id='6012'>0.70084E+03</wgt>
<wgt id='6013'>0.70199E+03</wgt>
<wgt id='6014'>0.70252E+03</wgt>
<wgt id='6015'>0.70111E+03</wgt>
<wgt id='6016'>0.70279E+03</wgt>
<wgt id='6017'>0.69978E+03</wgt>
<wgt id='6018'>0.70501E+03</wgt>
<wgt id='6019'>0.70283E+03</wgt>
<wgt id='6020'>0.70163E+03</wgt>
<wgt id='6021'>0.70090E+03</wgt>
<wgt id='6022'>0.70382E+03</wgt>
<wgt id='6023'>0.69833E+03</wgt>
<wgt id='6024'>0.70474E+03</wgt>
<wgt id='6025'>0.70241E+03</wgt>
<wgt id='6026'>0.70196E+03</wgt>
<wgt id='6027'>0.70261E+03</wgt>
<wgt id='6028'>0.70192E+03</wgt>
<wgt id='6029'>0.70053E+03</wgt>
<wgt id='6030'>0.70420E+03</wgt>
<wgt id='6031'>0.69575E+03</wgt>
<wgt id='6032'>0.70937E+03</wgt>
<wgt id='6033'>0.70514E+03</wgt>
<wgt id='6034'>0.69929E+03</wgt>
<wgt id='6035'>0.70316E+03</wgt>
<wgt id='6036'>0.69976E+03</wgt>
<wgt id='6037'>0.70274E+03</wgt>
<wgt id='6038'>0.70196E+03</wgt>
<wgt id='6039'>0.70063E+03</wgt>
<wgt id='6040'>0.70388E+03</wgt>
<wgt id='6041'>0.69714E+03</wgt>
<wgt id='6042'>0.70789E+03</wgt>
<wgt id='6043'>0.70745E+03</wgt>
<wgt id='6044'>0.69905E+03</wgt>
<wgt id='6045'>0.70144E+03</wgt>
<wgt id='6046'>0.70401E+03</wgt>
<wgt id='6047'>0.71008E+03</wgt>
<wgt id='6048'>0.69073E+03</wgt>
<wgt id='6049'>0.70575E+03</wgt>
<wgt id='6050'>0.70026E+03</wgt>
<wgt id='7000'>0.67656E+03</wgt>
<wgt id='7001'>0.67616E+03</wgt>
<wgt id='7002'>0.67709E+03</wgt>
<wgt id='7003'>0.67863E+03</wgt>
<wgt id='7004'>0.67455E+03</wgt>
<wgt id='7005'>0.67850E+03</wgt>
<wgt id='7006'>0.67578E+03</wgt>
<wgt id='7007'>0.67588E+03</wgt>
<wgt id='7008'>0.67728E+03</wgt>
<wgt id='7009'>0.67699E+03</wgt>
<wgt id='7010'>0.67618E+03</wgt>
<wgt id='7011'>0.67475E+03</wgt>
<wgt id='7012'>0.67734E+03</wgt>
<wgt id='7013'>0.67655E+03</wgt>
<wgt id='7014'>0.67661E+03</wgt>
<wgt id='7015'>0.67632E+03</wgt>
<wgt id='7016'>0.67680E+03</wgt>
<wgt id='7017'>0.67744E+03</wgt>
<wgt id='7018'>0.67604E+03</wgt>
<wgt id='7019'>0.67648E+03</wgt>
<wgt id='7020'>0.67668E+03</wgt>
<wgt id='7021'>0.67571E+03</wgt>
<wgt id='7022'>0.67714E+03</wgt>
<wgt id='7023'>0.68229E+03</wgt>
<wgt id='7024'>0.67119E+03</wgt>
<wgt id='7025'>0.67847E+03</wgt>
<wgt id='7026'>0.67181E+03</wgt>
<wgt id='7027'>0.67706E+03</wgt>
<wgt id='7028'>0.67559E+03</wgt>
<wgt id='7029'>0.67795E+03</wgt>
<wgt id='7030'>0.67351E+03</wgt>
<wgt id='7031'>0.67382E+03</wgt>
<wgt id='7032'>0.68221E+03</wgt>
<wgt id='7033'>0.67724E+03</wgt>
<wgt id='7034'>0.67507E+03</wgt>
<wgt id='7035'>0.67301E+03</wgt>
<wgt id='7036'>0.67805E+03</wgt>
<wgt id='7037'>0.67644E+03</wgt>
<wgt id='7038'>0.67645E+03</wgt>
<wgt id='7039'>0.67446E+03</wgt>
<wgt id='7040'>0.67816E+03</wgt>
<wgt id='7041'>0.67723E+03</wgt>
<wgt id='7042'>0.67511E+03</wgt>
<wgt id='7043'>0.67718E+03</wgt>
<wgt id='7044'>0.67304E+03</wgt>
<wgt id='7045'>0.66729E+03</wgt>
<wgt id='7046'>0.68259E+03</wgt>
<wgt id='7047'>0.68023E+03</wgt>
<wgt id='7048'>0.67485E+03</wgt>
<wgt id='7049'>0.67224E+03</wgt>
<wgt id='7050'>0.67881E+03</wgt>
<wgt id='7060'>0.82226E+03</wgt>
<wgt id='8000'>0.67615E+03</wgt>
<wgt id='8001'>0.67608E+03</wgt>
<wgt id='8002'>0.67633E+03</wgt>
<wgt id='8003'>0.67616E+03</wgt>
<wgt id='8004'>0.67613E+03</wgt>
<wgt id='8005'>0.67506E+03</wgt>
<wgt id='8006'>0.67683E+03</wgt>
<wgt id='8007'>0.67752E+03</wgt>
<wgt id='8008'>0.67758E+03</wgt>
<wgt id='8009'>0.67880E+03</wgt>
<wgt id='8010'>0.67538E+03</wgt>
<wgt id='8011'>0.67627E+03</wgt>
<wgt id='8012'>0.67368E+03</wgt>
<wgt id='8013'>0.67484E+03</wgt>
<wgt id='8014'>0.67771E+03</wgt>
<wgt id='8015'>0.67581E+03</wgt>
<wgt id='8016'>0.67674E+03</wgt>
<wgt id='8017'>0.67652E+03</wgt>
<wgt id='8018'>0.67778E+03</wgt>
<wgt id='8019'>0.67660E+03</wgt>
<wgt id='8020'>0.67581E+03</wgt>
<wgt id='8021'>0.67558E+03</wgt>
<wgt id='8022'>0.67544E+03</wgt>
<wgt id='8023'>0.67549E+03</wgt>
<wgt id='8024'>0.67420E+03</wgt>
<wgt id='8025'>0.67587E+03</wgt>
<wgt id='8026'>0.67699E+03</wgt>
<wgt id='8027'>0.67651E+03</wgt>
<wgt id='8028'>0.67655E+03</wgt>
<wgt id='8029'>0.67522E+03</wgt>
<wgt id='8500'>0.70656E+03</wgt>
<wgt id='8501'>0.70224E+03</wgt>
<wgt id='8502'>0.71185E+03</wgt>
<wgt id='8503'>0.70866E+03</wgt>
<wgt id='8504'>0.70336E+03</wgt>
<wgt id='8505'>0.70501E+03</wgt>
<wgt id='8506'>0.71098E+03</wgt>
<wgt id='8507'>0.69906E+03</wgt>
<wgt id='8508'>0.69562E+03</wgt>
<wgt id='8509'>0.71120E+03</wgt>
<wgt id='8510'>0.71484E+03</wgt>
<wgt id='8511'>0.70576E+03</wgt>
<wgt id='8512'>0.70516E+03</wgt>
<wgt id='8513'>0.70684E+03</wgt>
<wgt id='8514'>0.69686E+03</wgt>
<wgt id='8515'>0.71119E+03</wgt>
<wgt id='8516'>0.70518E+03</wgt>
<wgt id='8517'>0.70382E+03</wgt>
<wgt id='8518'>0.70262E+03</wgt>
<wgt id='8519'>0.70208E+03</wgt>
<wgt id='8520'>0.70439E+03</wgt>
<wgt id='8521'>0.70474E+03</wgt>
<wgt id='8522'>0.70895E+03</wgt>
<wgt id='8523'>0.70387E+03</wgt>
<wgt id='8524'>0.70767E+03</wgt>
<wgt id='8525'>0.70698E+03</wgt>
<wgt id='8526'>0.70511E+03</wgt>
<wgt id='8527'>0.70600E+03</wgt>
<wgt id='8528'>0.70557E+03</wgt>
<wgt id='8529'>0.70625E+03</wgt>
<wgt id='8530'>0.70742E+03</wgt>
<wgt id='8531'>0.70633E+03</wgt>
<wgt id='8532'>0.70652E+03</wgt>
<wgt id='8533'>0.70505E+03</wgt>
<wgt id='8534'>0.70672E+03</wgt>
<wgt id='8535'>0.70809E+03</wgt>
<wgt id='8536'>0.70602E+03</wgt>
<wgt id='8537'>0.70657E+03</wgt>
<wgt id='8538'>0.70638E+03</wgt>
<wgt id='8539'>0.70693E+03</wgt>
<wgt id='8540'>0.70706E+03</wgt>
<wgt id='8541'>0.70724E+03</wgt>
<wgt id='8542'>0.70710E+03</wgt>
<wgt id='8543'>0.70580E+03</wgt>
<wgt id='8544'>0.70764E+03</wgt>
<wgt id='8545'>0.70695E+03</wgt>
<wgt id='8546'>0.70738E+03</wgt>
<wgt id='8547'>0.70584E+03</wgt>
<wgt id='8548'>0.70619E+03</wgt>
<wgt id='8549'>0.70676E+03</wgt>
<wgt id='8550'>0.70608E+03</wgt>
<wgt id='8551'>0.70612E+03</wgt>
<wgt id='8552'>0.70612E+03</wgt>
<wgt id='8553'>0.70559E+03</wgt>
<wgt id='8554'>0.70606E+03</wgt>
<wgt id='8555'>0.70662E+03</wgt>
<wgt id='8556'>0.70630E+03</wgt>
<wgt id='8557'>0.70670E+03</wgt>
<wgt id='8558'>0.70746E+03</wgt>
<wgt id='8559'>0.70629E+03</wgt>
<wgt id='8560'>0.70559E+03</wgt>
<wgt id='8561'>0.70687E+03</wgt>
<wgt id='8562'>0.70615E+03</wgt>
<wgt id='8563'>0.70653E+03</wgt>
<wgt id='8564'>0.70630E+03</wgt>
<wgt id='8565'>0.70684E+03</wgt>
<wgt id='8566'>0.70691E+03</wgt>
<wgt id='8567'>0.70657E+03</wgt>
<wgt id='8568'>0.70706E+03</wgt>
<wgt id='8569'>0.70690E+03</wgt>
<wgt id='8570'>0.70634E+03</wgt>
<wgt id='8571'>0.70596E+03</wgt>
<wgt id='8572'>0.70615E+03</wgt>
<wgt id='8573'>0.70626E+03</wgt>
<wgt id='8574'>0.70626E+03</wgt>
<wgt id='8575'>0.70643E+03</wgt>
<wgt id='8576'>0.70664E+03</wgt>
<wgt id='8577'>0.70619E+03</wgt>
<wgt id='8578'>0.70644E+03</wgt>
<wgt id='8579'>0.70714E+03</wgt>
<wgt id='8580'>0.70652E+03</wgt>
<wgt id='8581'>0.70694E+03</wgt>
<wgt id='8582'>0.70619E+03</wgt>
<wgt id='8583'>0.70677E+03</wgt>
<wgt id='8584'>0.70701E+03</wgt>
<wgt id='8585'>0.70676E+03</wgt>
<wgt id='8586'>0.70729E+03</wgt>
<wgt id='8587'>0.70658E+03</wgt>
<wgt id='8588'>0.70652E+03</wgt>
<wgt id='8589'>0.70655E+03</wgt>
<wgt id='8590'>0.70658E+03</wgt>
<wgt id='8591'>0.70622E+03</wgt>
<wgt id='8592'>0.70647E+03</wgt>
<wgt id='8593'>0.70638E+03</wgt>
<wgt id='8594'>0.70648E+03</wgt>
<wgt id='8595'>0.70651E+03</wgt>
<wgt id='8596'>0.70649E+03</wgt>
<wgt id='8597'>0.70671E+03</wgt>
<wgt id='8598'>0.70671E+03</wgt>
<wgt id='8599'>0.70661E+03</wgt>
<wgt id='8600'>0.70656E+03</wgt>
<wgt id='8601'>0.69567E+03</wgt>
<wgt id='8602'>0.71732E+03</wgt>
<wgt id='9000'>0.68231E+03</wgt>
<wgt id='9001'>0.68243E+03</wgt>
<wgt id='9002'>0.68425E+03</wgt>
<wgt id='9003'>0.67902E+03</wgt>
<wgt id='9004'>0.68324E+03</wgt>
<wgt id='9005'>0.68626E+03</wgt>
<wgt id='9006'>0.68148E+03</wgt>
<wgt id='9007'>0.67800E+03</wgt>
<wgt id='9008'>0.68094E+03</wgt>
<wgt id='9009'>0.68262E+03</wgt>
<wgt id='9010'>0.67873E+03</wgt>
<wgt id='9011'>0.68714E+03</wgt>
<wgt id='9012'>0.68628E+03</wgt>
<wgt id='9013'>0.67895E+03</wgt>
<wgt id='9014'>0.68318E+03</wgt>
<wgt id='9015'>0.68097E+03</wgt>
<wgt id='9016'>0.68894E+03</wgt>
<wgt id='9017'>0.67766E+03</wgt>
<wgt id='9018'>0.68246E+03</wgt>
<wgt id='9019'>0.68358E+03</wgt>
<wgt id='9020'>0.68701E+03</wgt>
<wgt id='9021'>0.68218E+03</wgt>
<wgt id='9022'>0.68401E+03</wgt>
<wgt id='9023'>0.67789E+03</wgt>
<wgt id='9024'>0.68037E+03</wgt>
<wgt id='9025'>0.68417E+03</wgt>
<wgt id='9026'>0.68246E+03</wgt>
<wgt id='9027'>0.68183E+03</wgt>
<wgt id='9028'>0.68300E+03</wgt>
<wgt id='9029'>0.68277E+03</wgt>
<wgt id='9030'>0.68309E+03</wgt>
<wgt id='9031'>0.68161E+03</wgt>
<wgt id='9032'>0.68271E+03</wgt>
<wgt id='9033'>0.68309E+03</wgt>
<wgt id='9034'>0.68230E+03</wgt>
<wgt id='9035'>0.68301E+03</wgt>
<wgt id='9036'>0.68248E+03</wgt>
<wgt id='9037'>0.68298E+03</wgt>
<wgt id='9038'>0.68278E+03</wgt>
<wgt id='9039'>0.68251E+03</wgt>
<wgt id='9040'>0.68173E+03</wgt>
<wgt id='9041'>0.68239E+03</wgt>
<wgt id='9042'>0.68273E+03</wgt>
<wgt id='9043'>0.68151E+03</wgt>
<wgt id='9044'>0.68255E+03</wgt>
<wgt id='9045'>0.68269E+03</wgt>
<wgt id='9046'>0.68140E+03</wgt>
<wgt id='9047'>0.68241E+03</wgt>
<wgt id='9048'>0.68271E+03</wgt>
<wgt id='9049'>0.68189E+03</wgt>
<wgt id='9050'>0.68236E+03</wgt>
<wgt id='9051'>0.68276E+03</wgt>
<wgt id='9052'>0.68281E+03</wgt>
<wgt id='9053'>0.68224E+03</wgt>
<wgt id='9054'>0.68183E+03</wgt>
<wgt id='9055'>0.68194E+03</wgt>
<wgt id='9056'>0.68289E+03</wgt>
<wgt id='9057'>0.68235E+03</wgt>
<wgt id='9058'>0.68147E+03</wgt>
<wgt id='9059'>0.68190E+03</wgt>
<wgt id='9060'>0.68197E+03</wgt>
<wgt id='9061'>0.68236E+03</wgt>
<wgt id='9062'>0.68245E+03</wgt>
<wgt id='9063'>0.68259E+03</wgt>
<wgt id='9064'>0.68228E+03</wgt>
<wgt id='9065'>0.68215E+03</wgt>
<wgt id='9066'>0.68228E+03</wgt>
<wgt id='9067'>0.68254E+03</wgt>
<wgt id='9068'>0.68255E+03</wgt>
<wgt id='9069'>0.68290E+03</wgt>
<wgt id='9070'>0.68214E+03</wgt>
<wgt id='9071'>0.68281E+03</wgt>
<wgt id='9072'>0.68284E+03</wgt>
<wgt id='9073'>0.68212E+03</wgt>
<wgt id='9074'>0.68240E+03</wgt>
<wgt id='9075'>0.68229E+03</wgt>
<wgt id='9076'>0.68218E+03</wgt>
<wgt id='9077'>0.68248E+03</wgt>
<wgt id='9078'>0.68232E+03</wgt>
<wgt id='9079'>0.68213E+03</wgt>
<wgt id='9080'>0.68307E+03</wgt>
<wgt id='9081'>0.68223E+03</wgt>
<wgt id='9082'>0.68251E+03</wgt>
<wgt id='9083'>0.68204E+03</wgt>
<wgt id='9084'>0.68192E+03</wgt>
<wgt id='9085'>0.68193E+03</wgt>
<wgt id='9086'>0.68246E+03</wgt>
<wgt id='9087'>0.68163E+03</wgt>
<wgt id='9088'>0.68202E+03</wgt>
<wgt id='9089'>0.68205E+03</wgt>
<wgt id='9090'>0.68245E+03</wgt>
<wgt id='9091'>0.68212E+03</wgt>
<wgt id='9092'>0.68221E+03</wgt>
<wgt id='9093'>0.68214E+03</wgt>
<wgt id='9094'>0.68216E+03</wgt>
<wgt id='9095'>0.68237E+03</wgt>
<wgt id='9096'>0.68210E+03</wgt>
<wgt id='9097'>0.68238E+03</wgt>
<wgt id='9098'>0.68222E+03</wgt>
<wgt id='9099'>0.68217E+03</wgt>
<wgt id='9100'>0.68228E+03</wgt>
<wgt id='9101'>0.67217E+03</wgt>
<wgt id='9102'>0.69295E+03</wgt>
<wgt id='10000'>0.70658E+03</wgt>
<wgt id='10001'>0.71064E+03</wgt>
<wgt id='10002'>0.69961E+03</wgt>
<wgt id='10003'>0.70605E+03</wgt>
<wgt id='10004'>0.69356E+03</wgt>
<wgt id='10005'>0.71129E+03</wgt>
<wgt id='10006'>0.70263E+03</wgt>
<wgt id='10007'>0.70652E+03</wgt>
<wgt id='10008'>0.70877E+03</wgt>
<wgt id='10009'>0.70278E+03</wgt>
<wgt id='10010'>0.70904E+03</wgt>
<wgt id='10011'>0.70187E+03</wgt>
<wgt id='10012'>0.70636E+03</wgt>
<wgt id='10013'>0.70769E+03</wgt>
<wgt id='10014'>0.70522E+03</wgt>
<wgt id='10015'>0.70613E+03</wgt>
<wgt id='10016'>0.70317E+03</wgt>
<wgt id='10017'>0.71320E+03</wgt>
<wgt id='10018'>0.70808E+03</wgt>
<wgt id='10019'>0.70435E+03</wgt>
<wgt id='10020'>0.70448E+03</wgt>
<wgt id='10021'>0.70574E+03</wgt>
<wgt id='10022'>0.70622E+03</wgt>
<wgt id='10023'>0.70714E+03</wgt>
<wgt id='10024'>0.70556E+03</wgt>
<wgt id='10025'>0.70593E+03</wgt>
<wgt id='10026'>0.70990E+03</wgt>
<wgt id='10027'>0.70846E+03</wgt>
<wgt id='10028'>0.71721E+03</wgt>
<wgt id='10029'>0.70700E+03</wgt>
<wgt id='10030'>0.70611E+03</wgt>
<wgt id='10031'>0.69567E+03</wgt>
<wgt id='10032'>0.71732E+03</wgt>
<wgt id='11000'>0.68232E+03</wgt>
<wgt id='11001'>0.66971E+03</wgt>
<wgt id='11002'>0.68426E+03</wgt>
<wgt id='11003'>0.68212E+03</wgt>
<wgt id='11004'>0.68426E+03</wgt>
<wgt id='11005'>0.68162E+03</wgt>
<wgt id='11006'>0.68268E+03</wgt>
<wgt id='11007'>0.68146E+03</wgt>
<wgt id='11008'>0.68248E+03</wgt>
<wgt id='11009'>0.68081E+03</wgt>
<wgt id='11010'>0.67841E+03</wgt>
<wgt id='11011'>0.68074E+03</wgt>
<wgt id='11012'>0.68237E+03</wgt>
<wgt id='11013'>0.68343E+03</wgt>
<wgt id='11014'>0.68132E+03</wgt>
<wgt id='11015'>0.68185E+03</wgt>
<wgt id='11016'>0.68225E+03</wgt>
<wgt id='11017'>0.68490E+03</wgt>
<wgt id='11018'>0.68203E+03</wgt>
<wgt id='11019'>0.68207E+03</wgt>
<wgt id='11020'>0.68377E+03</wgt>
<wgt id='11021'>0.68305E+03</wgt>
<wgt id='11022'>0.68851E+03</wgt>
<wgt id='11023'>0.68263E+03</wgt>
<wgt id='11024'>0.68284E+03</wgt>
<wgt id='11025'>0.68225E+03</wgt>
<wgt id='11026'>0.68224E+03</wgt>
<wgt id='11027'>0.68232E+03</wgt>
<wgt id='11028'>0.68266E+03</wgt>
<wgt id='11029'>0.68226E+03</wgt>
<wgt id='11030'>0.68229E+03</wgt>
<wgt id='11031'>0.67217E+03</wgt>
<wgt id='11032'>0.69295E+03</wgt>
<wgt id='12000'>0.67753E+03</wgt>
<wgt id='12001'>0.67668E+03</wgt>
<wgt id='12002'>0.67838E+03</wgt>
<wgt id='12003'>0.67788E+03</wgt>
<wgt id='12004'>0.67719E+03</wgt>
<wgt id='12005'>0.67854E+03</wgt>
<wgt id='12006'>0.67653E+03</wgt>
<wgt id='12007'>0.68087E+03</wgt>
<wgt id='12008'>0.67426E+03</wgt>
<wgt id='12009'>0.67690E+03</wgt>
<wgt id='12010'>0.67818E+03</wgt>
<wgt id='12011'>0.67332E+03</wgt>
<wgt id='12012'>0.68224E+03</wgt>
<wgt id='12013'>0.67551E+03</wgt>
<wgt id='12014'>0.67959E+03</wgt>
<wgt id='12015'>0.67884E+03</wgt>
<wgt id='12016'>0.67501E+03</wgt>
<wgt id='12017'>0.68067E+03</wgt>
<wgt id='12018'>0.67560E+03</wgt>
<wgt id='12019'>0.67777E+03</wgt>
<wgt id='12020'>0.67672E+03</wgt>
<wgt id='12021'>0.67847E+03</wgt>
<wgt id='12022'>0.67656E+03</wgt>
<wgt id='12023'>0.67229E+03</wgt>
<wgt id='12024'>0.68159E+03</wgt>
<wgt id='12025'>0.67536E+03</wgt>
<wgt id='12026'>0.68004E+03</wgt>
<wgt id='12027'>0.68536E+03</wgt>
<wgt id='12028'>0.67035E+03</wgt>
<wgt id='12050'>0.67753E+03</wgt>
<wgt id='12051'>0.67878E+03</wgt>
<wgt id='12052'>0.67269E+03</wgt>
<wgt id='12053'>0.67885E+03</wgt>
<wgt id='12054'>0.67393E+03</wgt>
<wgt id='12055'>0.67640E+03</wgt>
<wgt id='12056'>0.67955E+03</wgt>
<wgt id='12057'>0.67594E+03</wgt>
<wgt id='12058'>0.67729E+03</wgt>
<wgt id='12059'>0.68005E+03</wgt>
<wgt id='12060'>0.67308E+03</wgt>
<wgt id='12061'>0.67372E+03</wgt>
<wgt id='12062'>0.67476E+03</wgt>
<wgt id='12063'>0.67379E+03</wgt>
<wgt id='13000'>0.67346E+03</wgt>
<wgt id='13001'>0.67066E+03</wgt>
<wgt id='13002'>0.67201E+03</wgt>
<wgt id='13003'>0.67105E+03</wgt>
<wgt id='13004'>0.67162E+03</wgt>
<wgt id='13005'>0.67214E+03</wgt>
<wgt id='13006'>0.67053E+03</wgt>
<wgt id='13007'>0.67528E+03</wgt>
<wgt id='13008'>0.66750E+03</wgt>
<wgt id='13009'>0.66859E+03</wgt>
<wgt id='13010'>0.67418E+03</wgt>
<wgt id='13011'>0.67359E+03</wgt>
<wgt id='13012'>0.66911E+03</wgt>
<wgt id='13013'>0.67034E+03</wgt>
<wgt id='13014'>0.67227E+03</wgt>
<wgt id='13015'>0.67074E+03</wgt>
<wgt id='13016'>0.67005E+03</wgt>
<wgt id='13017'>0.67152E+03</wgt>
<wgt id='13018'>0.67118E+03</wgt>
<wgt id='13019'>0.67037E+03</wgt>
<wgt id='13020'>0.67238E+03</wgt>
<wgt id='13021'>0.67286E+03</wgt>
<wgt id='13022'>0.66974E+03</wgt>
<wgt id='13023'>0.66845E+03</wgt>
<wgt id='13024'>0.67434E+03</wgt>
<wgt id='13025'>0.66379E+03</wgt>
<wgt id='13026'>0.67837E+03</wgt>
<wgt id='13027'>0.66838E+03</wgt>
<wgt id='13028'>0.67468E+03</wgt>
<wgt id='13050'>0.67346E+03</wgt>
<wgt id='13051'>0.67372E+03</wgt>
<wgt id='13052'>0.66570E+03</wgt>
<wgt id='13053'>0.67344E+03</wgt>
<wgt id='13054'>0.66952E+03</wgt>
<wgt id='13055'>0.66255E+03</wgt>
<wgt id='13056'>0.66864E+03</wgt>
<wgt id='13057'>0.67061E+03</wgt>
<wgt id='13058'>0.67373E+03</wgt>
<wgt id='13059'>0.67398E+03</wgt>
<wgt id='13060'>0.65732E+03</wgt>
<wgt id='13061'>0.67064E+03</wgt>
<wgt id='13062'>0.67392E+03</wgt>
<wgt id='13063'>0.67389E+03</wgt>
<wgt id='14000'>0.68521E+03</wgt>
<wgt id='14001'>0.68512E+03</wgt>
<wgt id='14002'>0.68503E+03</wgt>
<wgt id='14003'>0.68494E+03</wgt>
<wgt id='14004'>0.68486E+03</wgt>
<wgt id='14005'>0.68477E+03</wgt>
<wgt id='14006'>0.68469E+03</wgt>
<wgt id='14007'>0.68460E+03</wgt>
<wgt id='14008'>0.68451E+03</wgt>
<wgt id='14009'>0.68442E+03</wgt>
<wgt id='14010'>0.68433E+03</wgt>
<wgt id='14011'>0.68425E+03</wgt>
<wgt id='14012'>0.68416E+03</wgt>
<wgt id='14013'>0.68407E+03</wgt>
<wgt id='14014'>0.68398E+03</wgt>
<wgt id='14015'>0.68390E+03</wgt>
<wgt id='14016'>0.68381E+03</wgt>
<wgt id='14017'>0.68372E+03</wgt>
<wgt id='14018'>0.68364E+03</wgt>
<wgt id='14019'>0.68355E+03</wgt>
<wgt id='14020'>0.68346E+03</wgt>
<wgt id='14021'>0.68337E+03</wgt>
<wgt id='14022'>0.68329E+03</wgt>
<wgt id='14023'>0.68320E+03</wgt>
<wgt id='14024'>0.68311E+03</wgt>
<wgt id='14025'>0.68302E+03</wgt>
<wgt id='14026'>0.68294E+03</wgt>
<wgt id='14027'>0.68285E+03</wgt>
<wgt id='14028'>0.68277E+03</wgt>
<wgt id='14029'>0.68268E+03</wgt>
<wgt id='14030'>0.68259E+03</wgt>
<wgt id='15000'>0.67439E+03</wgt>
<wgt id='15001'>0.67440E+03</wgt>
<wgt id='15002'>0.67618E+03</wgt>
<wgt id='15003'>0.67128E+03</wgt>
<wgt id='15004'>0.67532E+03</wgt>
<wgt id='15005'>0.67834E+03</wgt>
<wgt id='15006'>0.67375E+03</wgt>
<wgt id='15007'>0.67020E+03</wgt>
<wgt id='15008'>0.67304E+03</wgt>
<wgt id='15009'>0.67476E+03</wgt>
<wgt id='15010'>0.67093E+03</wgt>
<wgt id='15011'>0.67930E+03</wgt>
<wgt id='15012'>0.67835E+03</wgt>
<wgt id='15013'>0.67125E+03</wgt>
<wgt id='15014'>0.67509E+03</wgt>
<wgt id='15015'>0.67270E+03</wgt>
<wgt id='15016'>0.68106E+03</wgt>
<wgt id='15017'>0.66981E+03</wgt>
<wgt id='15018'>0.67454E+03</wgt>
<wgt id='15019'>0.67575E+03</wgt>
<wgt id='15020'>0.67923E+03</wgt>
<wgt id='15021'>0.67408E+03</wgt>
<wgt id='15022'>0.67607E+03</wgt>
<wgt id='15023'>0.67007E+03</wgt>
<wgt id='15024'>0.67239E+03</wgt>
<wgt id='15025'>0.67617E+03</wgt>
<wgt id='15026'>0.67440E+03</wgt>
<wgt id='15027'>0.67402E+03</wgt>
<wgt id='15028'>0.67516E+03</wgt>
<wgt id='15029'>0.67477E+03</wgt>
<wgt id='15030'>0.67505E+03</wgt>
<wgt id='15031'>0.67388E+03</wgt>
<wgt id='15032'>0.67478E+03</wgt>
<wgt id='15033'>0.67516E+03</wgt>
<wgt id='15034'>0.67433E+03</wgt>
<wgt id='15035'>0.67505E+03</wgt>
<wgt id='15036'>0.67456E+03</wgt>
<wgt id='15037'>0.67510E+03</wgt>
<wgt id='15038'>0.67485E+03</wgt>
<wgt id='15039'>0.67455E+03</wgt>
<wgt id='15040'>0.67381E+03</wgt>
<wgt id='15041'>0.67441E+03</wgt>
<wgt id='15042'>0.67478E+03</wgt>
<wgt id='15043'>0.67372E+03</wgt>
<wgt id='15044'>0.67463E+03</wgt>
<wgt id='15045'>0.67475E+03</wgt>
<wgt id='15046'>0.67353E+03</wgt>
<wgt id='15047'>0.67443E+03</wgt>
<wgt id='15048'>0.67482E+03</wgt>
<wgt id='15049'>0.67394E+03</wgt>
<wgt id='15050'>0.67447E+03</wgt>
<wgt id='15051'>0.67483E+03</wgt>
<wgt id='15052'>0.67487E+03</wgt>
<wgt id='15053'>0.67435E+03</wgt>
<wgt id='15054'>0.67394E+03</wgt>
<wgt id='15055'>0.67404E+03</wgt>
<wgt id='15056'>0.67492E+03</wgt>
<wgt id='15057'>0.67442E+03</wgt>
<wgt id='15058'>0.67364E+03</wgt>
<wgt id='15059'>0.67402E+03</wgt>
<wgt id='15060'>0.67408E+03</wgt>
<wgt id='15061'>0.67445E+03</wgt>
<wgt id='15062'>0.67452E+03</wgt>
<wgt id='15063'>0.67467E+03</wgt>
<wgt id='15064'>0.67437E+03</wgt>
<wgt id='15065'>0.67423E+03</wgt>
<wgt id='15066'>0.67436E+03</wgt>
<wgt id='15067'>0.67461E+03</wgt>
<wgt id='15068'>0.67463E+03</wgt>
<wgt id='15069'>0.67495E+03</wgt>
<wgt id='15070'>0.67422E+03</wgt>
<wgt id='15071'>0.67491E+03</wgt>
<wgt id='15072'>0.67491E+03</wgt>
<wgt id='15073'>0.67417E+03</wgt>
<wgt id='15074'>0.67448E+03</wgt>
<wgt id='15075'>0.67437E+03</wgt>
<wgt id='15076'>0.67431E+03</wgt>
<wgt id='15077'>0.67457E+03</wgt>
<wgt id='15078'>0.67444E+03</wgt>
<wgt id='15079'>0.67421E+03</wgt>
<wgt id='15080'>0.67511E+03</wgt>
<wgt id='15081'>0.67435E+03</wgt>
<wgt id='15082'>0.67461E+03</wgt>
<wgt id='15083'>0.67412E+03</wgt>
<wgt id='15084'>0.67400E+03</wgt>
<wgt id='15085'>0.67404E+03</wgt>
<wgt id='15086'>0.67457E+03</wgt>
<wgt id='15087'>0.67370E+03</wgt>
<wgt id='15088'>0.67409E+03</wgt>
<wgt id='15089'>0.67411E+03</wgt>
<wgt id='15090'>0.67452E+03</wgt>
<wgt id='15091'>0.67419E+03</wgt>
<wgt id='15092'>0.67428E+03</wgt>
<wgt id='15093'>0.67423E+03</wgt>
<wgt id='15094'>0.67422E+03</wgt>
<wgt id='15095'>0.67445E+03</wgt>
<wgt id='15096'>0.67420E+03</wgt>
<wgt id='15097'>0.67447E+03</wgt>
<wgt id='15098'>0.67430E+03</wgt>
<wgt id='15099'>0.67426E+03</wgt>
<wgt id='15100'>0.67437E+03</wgt>
<wgt id='15101'>0.67438E+03</wgt>
<wgt id='15102'>0.67434E+03</wgt>
<wgt id='15103'>0.67440E+03</wgt>
<wgt id='15104'>0.67440E+03</wgt>
<wgt id='15105'>0.67441E+03</wgt>
<wgt id='15106'>0.67440E+03</wgt>
<wgt id='15107'>0.67436E+03</wgt>
<wgt id='1500'>0.72896E+03</wgt>
<wgt id='1501'>0.72247E+03</wgt>
<wgt id='1502'>0.72959E+03</wgt>
<wgt id='1503'>0.74019E+03</wgt>
<wgt id='1504'>0.71677E+03</wgt>
<wgt id='1505'>0.70448E+03</wgt>
<wgt id='1506'>0.74385E+03</wgt>
<wgt id='1507'>0.72757E+03</wgt>
<wgt id='1508'>0.72966E+03</wgt>
<wgt id='1509'>0.74336E+03</wgt>
<wgt id='1510'>0.70795E+03</wgt>
<wgt id='1511'>0.68644E+03</wgt>
<wgt id='1512'>0.73943E+03</wgt>
<wgt id='1513'>0.72981E+03</wgt>
<wgt id='1514'>0.71991E+03</wgt>
<wgt id='1515'>0.74559E+03</wgt>
<wgt id='1516'>0.73995E+03</wgt>
<wgt id='1517'>0.73631E+03</wgt>
<wgt id='1518'>0.73900E+03</wgt>
<wgt id='1519'>0.73868E+03</wgt>
<wgt id='1520'>0.76274E+03</wgt>
<wgt id='1521'>0.73469E+03</wgt>
<wgt id='1522'>0.71257E+03</wgt>
<wgt id='1523'>0.76452E+03</wgt>
<wgt id='1524'>0.72598E+03</wgt>
<wgt id='1525'>0.72344E+03</wgt>
<wgt id='1526'>0.73203E+03</wgt>
<wgt id='1527'>0.73639E+03</wgt>
<wgt id='1528'>0.72361E+03</wgt>
<wgt id='1529'>0.74454E+03</wgt>
<wgt id='1530'>0.75157E+03</wgt>
<wgt id='1531'>0.71843E+03</wgt>
<wgt id='1532'>0.70942E+03</wgt>
<wgt id='1533'>0.71483E+03</wgt>
<wgt id='1534'>0.72616E+03</wgt>
<wgt id='1535'>0.74505E+03</wgt>
<wgt id='1536'>0.72876E+03</wgt>
<wgt id='1537'>0.74198E+03</wgt>
<wgt id='1538'>0.72727E+03</wgt>
<wgt id='1539'>0.72255E+03</wgt>
<wgt id='1540'>0.71855E+03</wgt>
<wgt id='1541'>0.73350E+03</wgt>
<wgt id='1542'>0.72682E+03</wgt>
<wgt id='1543'>0.71875E+03</wgt>
<wgt id='1544'>0.72760E+03</wgt>
<wgt id='1545'>0.72082E+03</wgt>
<wgt id='1546'>0.73895E+03</wgt>
<wgt id='1547'>0.72350E+03</wgt>
<wgt id='1548'>0.72932E+03</wgt>
<wgt id='1549'>0.72553E+03</wgt>
<wgt id='1550'>0.71961E+03</wgt>
<wgt id='1551'>0.72112E+03</wgt>
<wgt id='1552'>0.71721E+03</wgt>
<wgt id='1553'>0.73835E+03</wgt>
<wgt id='1554'>0.72540E+03</wgt>
<wgt id='1555'>0.71606E+03</wgt>
<wgt id='1556'>0.72618E+03</wgt>
<wgt id='1557'>0.73763E+03</wgt>
<wgt id='1558'>0.71353E+03</wgt>
<wgt id='1559'>0.74992E+03</wgt>
<wgt id='1560'>0.72475E+03</wgt>
<wgt id='1561'>0.72917E+03</wgt>
<wgt id='1562'>0.73767E+03</wgt>
<wgt id='1563'>0.72104E+03</wgt>
<wgt id='1564'>0.72323E+03</wgt>
<wgt id='1565'>0.73183E+03</wgt>
<wgt id='1566'>0.72251E+03</wgt>
<wgt id='1567'>0.77775E+03</wgt>
<wgt id='1568'>0.72565E+03</wgt>
<wgt id='1569'>0.70744E+03</wgt>
<wgt id='1570'>0.70962E+03</wgt>
<wgt id='1571'>0.71867E+03</wgt>
<wgt id='1572'>0.73404E+03</wgt>
<wgt id='1573'>0.70407E+03</wgt>
<wgt id='1574'>0.74280E+03</wgt>
<wgt id='1575'>0.72409E+03</wgt>
<wgt id='1576'>0.70467E+03</wgt>
<wgt id='1577'>0.71893E+03</wgt>
<wgt id='1578'>0.74179E+03</wgt>
<wgt id='1579'>0.72486E+03</wgt>
<wgt id='1580'>0.72088E+03</wgt>
<wgt id='1581'>0.72701E+03</wgt>
<wgt id='1582'>0.70837E+03</wgt>
<wgt id='1583'>0.76174E+03</wgt>
<wgt id='1584'>0.72334E+03</wgt>
<wgt id='1585'>0.72322E+03</wgt>
<wgt id='1586'>0.72163E+03</wgt>
<wgt id='1587'>0.73111E+03</wgt>
<wgt id='1588'>0.72918E+03</wgt>
<wgt id='1589'>0.76147E+03</wgt>
<wgt id='1590'>0.71798E+03</wgt>
<wgt id='1591'>0.72229E+03</wgt>
<wgt id='1592'>0.72434E+03</wgt>
<wgt id='1593'>0.73511E+03</wgt>
<wgt id='1594'>0.74579E+03</wgt>
<wgt id='1595'>0.72050E+03</wgt>
<wgt id='1596'>0.73852E+03</wgt>
<wgt id='1597'>0.73140E+03</wgt>
<wgt id='1598'>0.73239E+03</wgt>
<wgt id='1599'>0.74008E+03</wgt>
<wgt id='1600'>0.74382E+03</wgt>
<wgt id='1601'>0.72020E+03</wgt>
<wgt id='1602'>0.73336E+03</wgt>
<wgt id='1700'>0.69013E+03</wgt>
<wgt id='1800'>0.68937E+03</wgt>
<wgt id='1850'>0.79764E+03</wgt>
<wgt id='1900'>0.74955E+03</wgt>
<wgt id='1950'>0.77693E+03</wgt>
</rwgt>
</event>
<event>
     13 322222  6.87070E+02  3.44332E+01 -1.00000E+00  1.46684E-01
      21    -1     0     0   504   505  0.000000000E+00  0.000000000E+00  1.609864848E+02  1.609864848E+02  0.000000000E+00  0.00000E+00  9.000E+00
      21    -1     0     0   502   503  0.000000000E+00  0.000000000E+00 -4.311292183E+02  4.311292183E+02  0.000000000E+00  0.00000E+00  9.000E+00
       6     2     1     2   502     0 -1.287980081E+00 -1.918215029E+01  2.707274977E+01  1.836366034E+02  1.806096746E+02  0.00000E+00  9.000E+00
      -6     2     1     2     0   505  2.702429202E+01 -3.693335222E+00 -2.719132827E+01  1.362683545E+02  1.307124440E+02  0.00000E+00  9.000E+00
      21     1     1     2   504   503 -2.573631194E+01  2.287548551E+01 -2.700241550E+02  2.722107453E+02  5.394796609E-06  0.00000E+00  9.000E+00
      24     2     3     3     0     0 -3.601147424E+01  5.021136462E+01  2.803485429E+01  1.058860625E+02  8.128897694E+01  0.00000E+00  9.000E+00
       5     1     3     3   502     0  3.472349415E+01 -6.939351490E+01 -9.621045184E-01  7.775054085E+01  4.800000000E+00  0.00000E+00 -1.000E+00
     -24     2     4     4     0     0  3.934311458E+01  2.846932235E+01 -3.603175743E+00  9.424894382E+01  8.069385080E+01  0.00000E+00  9.000E+00
      -5     1     4     4     0   505 -1.231882256E+01 -3.216265757E+01 -2.358815253E+01  4.201941064E+01  4.800000000E+00  0.00000E+00  1.000E+00
      -1     1     6     6     0   510 -7.877969787E-01  6.304680511E+01  2.641537229E+01  6.836155463E+01  1.000000000E-01  0.00000E+00  1.000E+00
       2     1     6     6   510     0 -3.522367726E+01 -1.283544049E+01  1.619482005E+00  3.752450791E+01  1.000000000E-01  0.00000E+00 -1.000E+00
       3     1     8     8   511     0  1.063183162E+01 -2.642509211E+01 -1.345624788E+01  3.150288786E+01  2.000000000E-01  0.00000E+00 -1.000E+00
      -4     1     8     8     0   511  2.871128296E+01  5.489441446E+01  9.853072137E+00  6.274605596E+01  1.500000000E+00  0.00000E+00  1.000E+00
#rwgt            1           1   686.20968160014479                2        2016           0
<rwgt>
<wgt id='1001'>0.68707E+03</wgt>
<wgt id='1002'>0.64864E+03</wgt>
<wgt id='1003'>0.72322E+03</wgt>
<wgt id='1004'>0.59503E+03</wgt>
<wgt id='1005'>0.56324E+03</wgt>
<wgt id='1006'>0.62468E+03</wgt>
<wgt id='1007'>0.80116E+03</wgt>
<wgt id='1008'>0.75371E+03</wgt>
<wgt id='1009'>0.84623E+03</wgt>
<wgt id='2000'>0.68707E+03</wgt>
<wgt id='2001'>0.68622E+03</wgt>
<wgt id='2002'>0.68866E+03</wgt>
<wgt id='2003'>0.68866E+03</wgt>
<wgt id='2004'>0.68839E+03</wgt>
<wgt id='2005'>0.68561E+03</wgt>
<wgt id='2006'>0.68478E+03</wgt>
<wgt id='2007'>0.68327E+03</wgt>
<wgt id='2008'>0.68345E+03</wgt>
<wgt id='2009'>0.68878E+03</wgt>
<wgt id='2010'>0.68742E+03</wgt>
<wgt id='2011'>0.68683E+03</wgt>
<wgt id='2012'>0.68919E+03</wgt>
<wgt id='2013'>0.69021E+03</wgt>
<wgt id='2014'>0.69091E+03</wgt>
<wgt id='2015'>0.68934E+03</wgt>
<wgt id='2016'>0.68704E+03</wgt>
<wgt id='2017'>0.68692E+03</wgt>
<wgt id='2018'>0.69021E+03</wgt>
<wgt id='2019'>0.68682E+03</wgt>
<wgt id='2020'>0.69149E+03</wgt>
<wgt id='2021'>0.68480E+03</wgt>
<wgt id='2022'>0.68999E+03</wgt>
<wgt id='2023'>0.68892E+03</wgt>
<wgt id='2024'>0.68727E+03</wgt>
<wgt id='2025'>0.68962E+03</wgt>
<wgt id='2026'>0.68865E+03</wgt>
<wgt id='2027'>0.68627E+03</wgt>
<wgt id='2028'>0.68616E+03</wgt>
<wgt id='2029'>0.68811E+03</wgt>
<wgt id='2030'>0.68765E+03</wgt>
<wgt id='2031'>0.68738E+03</wgt>
<wgt id='2032'>0.68747E+03</wgt>
<wgt id='2033'>0.68741E+03</wgt>
<wgt id='2034'>0.68717E+03</wgt>
<wgt id='2035'>0.68699E+03</wgt>
<wgt id='2036'>0.68668E+03</wgt>
<wgt id='2037'>0.68728E+03</wgt>
<wgt id='2038'>0.68707E+03</wgt>
<wgt id='2039'>0.68688E+03</wgt>
<wgt id='2040'>0.68663E+03</wgt>
<wgt id='2041'>0.68646E+03</wgt>
<wgt id='2042'>0.68648E+03</wgt>
<wgt id='2043'>0.68712E+03</wgt>
<wgt id='2044'>0.68745E+03</wgt>
<wgt id='2045'>0.68695E+03</wgt>
<wgt id='2046'>0.68775E+03</wgt>
<wgt id='2047'>0.68731E+03</wgt>
<wgt id='2048'>0.68692E+03</wgt>
<wgt id='2049'>0.68701E+03</wgt>
<wgt id='2050'>0.68755E+03</wgt>
<wgt id='2051'>0.68723E+03</wgt>
<wgt id='2052'>0.68677E+03</wgt>
<wgt id='2053'>0.68718E+03</wgt>
<wgt id='2054'>0.68735E+03</wgt>
<wgt id='2055'>0.68705E+03</wgt>
<wgt id='2056'>0.68710E+03</wgt>
<wgt id='2057'>0.68707E+03</wgt>
<wgt id='2058'>0.68705E+03</wgt>
<wgt id='2059'>0.68690E+03</wgt>
<wgt id='2060'>0.68705E+03</wgt>
<wgt id='2061'>0.68701E+03</wgt>
<wgt id='2062'>0.68733E+03</wgt>
<wgt id='2063'>0.68688E+03</wgt>
<wgt id='2064'>0.68704E+03</wgt>
<wgt id='2065'>0.68748E+03</wgt>
<wgt id='2066'>0.68718E+03</wgt>
<wgt id='2067'>0.68708E+03</wgt>
<wgt id='2068'>0.68726E+03</wgt>
<wgt id='2069'>0.68698E+03</wgt>
<wgt id='2070'>0.68687E+03</wgt>
<wgt id='2071'>0.68683E+03</wgt>
<wgt id='2072'>0.68709E+03</wgt>
<wgt id='2073'>0.68717E+03</wgt>
<wgt id='2074'>0.68693E+03</wgt>
<wgt id='2075'>0.68703E+03</wgt>
<wgt id='2076'>0.68707E+03</wgt>
<wgt id='2077'>0.68698E+03</wgt>
<wgt id='2078'>0.68706E+03</wgt>
<wgt id='2079'>0.68715E+03</wgt>
<wgt id='2080'>0.68713E+03</wgt>
<wgt id='2081'>0.68710E+03</wgt>
<wgt id='2082'>0.68711E+03</wgt>
<wgt id='2083'>0.68712E+03</wgt>
<wgt id='2084'>0.68710E+03</wgt>
<wgt id='2085'>0.68707E+03</wgt>
<wgt id='2086'>0.68704E+03</wgt>
<wgt id='2087'>0.68703E+03</wgt>
<wgt id='2088'>0.68710E+03</wgt>
<wgt id='2089'>0.68704E+03</wgt>
<wgt id='2090'>0.68704E+03</wgt>
<wgt id='2091'>0.68712E+03</wgt>
<wgt id='2092'>0.68710E+03</wgt>
<wgt id='2093'>0.68704E+03</wgt>
<wgt id='2094'>0.68712E+03</wgt>
<wgt id='2095'>0.68712E+03</wgt>
<wgt id='2096'>0.68701E+03</wgt>
<wgt id='2097'>0.68712E+03</wgt>
<wgt id='2098'>0.68702E+03</wgt>
<wgt id='2099'>0.68707E+03</wgt>
<wgt id='2100'>0.68707E+03</wgt>
<wgt id='2101'>0.66775E+03</wgt>
<wgt id='2102'>0.70391E+03</wgt>
<wgt id='2104'>0.60359E+03</wgt>
<wgt id='2105'>0.61885E+03</wgt>
<wgt id='2106'>0.63766E+03</wgt>
<wgt id='2107'>0.65602E+03</wgt>
<wgt id='2108'>0.68014E+03</wgt>
<wgt id='2109'>0.69747E+03</wgt>
<wgt id='2110'>0.71803E+03</wgt>
<wgt id='2111'>0.73497E+03</wgt>
<wgt id='3000'>0.71609E+03</wgt>
<wgt id='3001'>0.71780E+03</wgt>
<wgt id='3002'>0.71484E+03</wgt>
<wgt id='3003'>0.71787E+03</wgt>
<wgt id='3004'>0.71775E+03</wgt>
<wgt id='3005'>0.71933E+03</wgt>
<wgt id='3006'>0.71640E+03</wgt>
<wgt id='3007'>0.71904E+03</wgt>
<wgt id='3008'>0.71476E+03</wgt>
<wgt id='3009'>0.71846E+03</wgt>
<wgt id='3010'>0.71382E+03</wgt>
<wgt id='3011'>0.71555E+03</wgt>
<wgt id='3012'>0.71973E+03</wgt>
<wgt id='3013'>0.71343E+03</wgt>
<wgt id='3014'>0.71914E+03</wgt>
<wgt id='3015'>0.71605E+03</wgt>
<wgt id='3016'>0.71683E+03</wgt>
<wgt id='3017'>0.71931E+03</wgt>
<wgt id='3018'>0.71844E+03</wgt>
<wgt id='3019'>0.71192E+03</wgt>
<wgt id='3020'>0.71325E+03</wgt>
<wgt id='3021'>0.71225E+03</wgt>
<wgt id='3022'>0.71579E+03</wgt>
<wgt id='3023'>0.71406E+03</wgt>
<wgt id='3024'>0.71387E+03</wgt>
<wgt id='3025'>0.71602E+03</wgt>
<wgt id='3026'>0.71741E+03</wgt>
<wgt id='3027'>0.71634E+03</wgt>
<wgt id='3028'>0.71395E+03</wgt>
<wgt id='3029'>0.71589E+03</wgt>
<wgt id='3030'>0.71721E+03</wgt>
<wgt id='3031'>0.71651E+03</wgt>
<wgt id='3032'>0.71628E+03</wgt>
<wgt id='3033'>0.71629E+03</wgt>
<wgt id='3034'>0.71637E+03</wgt>
<wgt id='3035'>0.71669E+03</wgt>
<wgt id='3036'>0.71633E+03</wgt>
<wgt id='3037'>0.71597E+03</wgt>
<wgt id='3038'>0.71600E+03</wgt>
<wgt id='3039'>0.71695E+03</wgt>
<wgt id='3040'>0.71573E+03</wgt>
<wgt id='3041'>0.71579E+03</wgt>
<wgt id='3042'>0.71558E+03</wgt>
<wgt id='3043'>0.71546E+03</wgt>
<wgt id='3044'>0.71659E+03</wgt>
<wgt id='3045'>0.71652E+03</wgt>
<wgt id='3046'>0.71630E+03</wgt>
<wgt id='3047'>0.71599E+03</wgt>
<wgt id='3048'>0.71618E+03</wgt>
<wgt id='3049'>0.71584E+03</wgt>
<wgt id='3050'>0.71577E+03</wgt>
<wgt id='3051'>0.71670E+03</wgt>
<wgt id='3052'>0.71594E+03</wgt>
<wgt id='3053'>0.71604E+03</wgt>
<wgt id='3054'>0.71605E+03</wgt>
<wgt id='3055'>0.71611E+03</wgt>
<wgt id='3056'>0.71629E+03</wgt>
<wgt id='3057'>0.71620E+03</wgt>
<wgt id='3058'>0.71580E+03</wgt>
<wgt id='3059'>0.71626E+03</wgt>
<wgt id='3060'>0.71626E+03</wgt>
<wgt id='3061'>0.71655E+03</wgt>
<wgt id='3062'>0.71629E+03</wgt>
<wgt id='3063'>0.71612E+03</wgt>
<wgt id='3064'>0.71602E+03</wgt>
<wgt id='3065'>0.71601E+03</wgt>
<wgt id='3066'>0.71626E+03</wgt>
<wgt id='3067'>0.71572E+03</wgt>
<wgt id='3068'>0.71619E+03</wgt>
<wgt id='3069'>0.71594E+03</wgt>
<wgt id='3070'>0.71590E+03</wgt>
<wgt id='3071'>0.71596E+03</wgt>
<wgt id='3072'>0.71620E+03</wgt>
<wgt id='3073'>0.71597E+03</wgt>
<wgt id='3074'>0.71623E+03</wgt>
<wgt id='3075'>0.71610E+03</wgt>
<wgt id='3076'>0.71612E+03</wgt>
<wgt id='3077'>0.71616E+03</wgt>
<wgt id='3078'>0.71622E+03</wgt>
<wgt id='3079'>0.71611E+03</wgt>
<wgt id='3080'>0.71604E+03</wgt>
<wgt id='3081'>0.71609E+03</wgt>
<wgt id='3082'>0.71602E+03</wgt>
<wgt id='3083'>0.71602E+03</wgt>
<wgt id='3084'>0.71596E+03</wgt>
<wgt id='3085'>0.71605E+03</wgt>
<wgt id='3086'>0.71592E+03</wgt>
<wgt id='3087'>0.71601E+03</wgt>
<wgt id='3088'>0.71611E+03</wgt>
<wgt id='3089'>0.71608E+03</wgt>
<wgt id='3090'>0.71614E+03</wgt>
<wgt id='3091'>0.71618E+03</wgt>
<wgt id='3092'>0.71619E+03</wgt>
<wgt id='3093'>0.71603E+03</wgt>
<wgt id='3094'>0.71621E+03</wgt>
<wgt id='3095'>0.71615E+03</wgt>
<wgt id='3096'>0.71615E+03</wgt>
<wgt id='3097'>0.71602E+03</wgt>
<wgt id='3098'>0.71616E+03</wgt>
<wgt id='3099'>0.71616E+03</wgt>
<wgt id='3100'>0.71612E+03</wgt>
<wgt id='3101'>0.69790E+03</wgt>
<wgt id='3102'>0.73577E+03</wgt>
<wgt id='5000'>0.67153E+03</wgt>
<wgt id='5001'>0.67036E+03</wgt>
<wgt id='5002'>0.67237E+03</wgt>
<wgt id='5003'>0.66827E+03</wgt>
<wgt id='5004'>0.67121E+03</wgt>
<wgt id='5005'>0.65233E+03</wgt>
<wgt id='5006'>0.67085E+03</wgt>
<wgt id='5007'>0.67054E+03</wgt>
<wgt id='5008'>0.66580E+03</wgt>
<wgt id='5009'>0.67598E+03</wgt>
<wgt id='5010'>0.66743E+03</wgt>
<wgt id='5011'>0.67101E+03</wgt>
<wgt id='5012'>0.67234E+03</wgt>
<wgt id='5013'>0.66473E+03</wgt>
<wgt id='5014'>0.67974E+03</wgt>
<wgt id='5015'>0.67519E+03</wgt>
<wgt id='5016'>0.66093E+03</wgt>
<wgt id='5017'>0.66525E+03</wgt>
<wgt id='5018'>0.67805E+03</wgt>
<wgt id='5019'>0.67903E+03</wgt>
<wgt id='5020'>0.66432E+03</wgt>
<wgt id='5021'>0.67257E+03</wgt>
<wgt id='5022'>0.67086E+03</wgt>
<wgt id='5023'>0.66981E+03</wgt>
<wgt id='5024'>0.67329E+03</wgt>
<wgt id='5025'>0.67369E+03</wgt>
<wgt id='5026'>0.66973E+03</wgt>
<wgt id='5027'>0.67680E+03</wgt>
<wgt id='5028'>0.66267E+03</wgt>
<wgt id='5029'>0.66122E+03</wgt>
<wgt id='5030'>0.67788E+03</wgt>
<wgt id='5031'>0.66476E+03</wgt>
<wgt id='5032'>0.68150E+03</wgt>
<wgt id='5033'>0.66948E+03</wgt>
<wgt id='5034'>0.67311E+03</wgt>
<wgt id='5035'>0.67183E+03</wgt>
<wgt id='5036'>0.67046E+03</wgt>
<wgt id='5037'>0.66041E+03</wgt>
<wgt id='5038'>0.68362E+03</wgt>
<wgt id='5039'>0.68663E+03</wgt>
<wgt id='5040'>0.66333E+03</wgt>
<wgt id='5041'>0.66771E+03</wgt>
<wgt id='5042'>0.67157E+03</wgt>
<wgt id='5043'>0.67710E+03</wgt>
<wgt id='5044'>0.66034E+03</wgt>
<wgt id='5045'>0.69780E+03</wgt>
<wgt id='5046'>0.65197E+03</wgt>
<wgt id='5047'>0.68373E+03</wgt>
<wgt id='5048'>0.66327E+03</wgt>
<wgt id='5049'>0.67306E+03</wgt>
<wgt id='5050'>0.67059E+03</wgt>
<wgt id='5051'>0.67219E+03</wgt>
<wgt id='5052'>0.67149E+03</wgt>
<wgt id='5053'>0.67149E+03</wgt>
<wgt id='5054'>0.68308E+03</wgt>
<wgt id='5055'>0.66652E+03</wgt>
<wgt id='5056'>0.68021E+03</wgt>
<wgt id='5060'>0.65326E+03</wgt>
<wgt id='5070'>0.68827E+03</wgt>
<wgt id='4000'>0.68791E+03</wgt>
<wgt id='4001'>0.68823E+03</wgt>
<wgt id='4002'>0.68901E+03</wgt>
<wgt id='4003'>0.69695E+03</wgt>
<wgt id='4004'>0.67531E+03</wgt>
<wgt id='4005'>0.68674E+03</wgt>
<wgt id='4006'>0.68910E+03</wgt>
<wgt id='4007'>0.69917E+03</wgt>
<wgt id='4008'>0.67663E+03</wgt>
<wgt id='4009'>0.67993E+03</wgt>
<wgt id='4010'>0.69104E+03</wgt>
<wgt id='4011'>0.70435E+03</wgt>
<wgt id='4012'>0.67701E+03</wgt>
<wgt id='4013'>0.67334E+03</wgt>
<wgt id='4014'>0.69656E+03</wgt>
<wgt id='4015'>0.69972E+03</wgt>
<wgt id='4016'>0.67969E+03</wgt>
<wgt id='4017'>0.67747E+03</wgt>
<wgt id='4018'>0.70024E+03</wgt>
<wgt id='4019'>0.69838E+03</wgt>
<wgt id='4020'>0.67683E+03</wgt>
<wgt id='4021'>0.69115E+03</wgt>
<wgt id='4022'>0.68158E+03</wgt>
<wgt id='4023'>0.68381E+03</wgt>
<wgt id='4024'>0.69197E+03</wgt>
<wgt id='4025'>0.69140E+03</wgt>
<wgt id='4026'>0.68410E+03</wgt>
<wgt id='4027'>0.68696E+03</wgt>
<wgt id='4028'>0.68929E+03</wgt>
<wgt id='4029'>0.68393E+03</wgt>
<wgt id='4030'>0.68932E+03</wgt>
<wgt id='4031'>0.69039E+03</wgt>
<wgt id='4032'>0.68469E+03</wgt>
<wgt id='4033'>0.68361E+03</wgt>
<wgt id='4034'>0.69725E+03</wgt>
<wgt id='4035'>0.68916E+03</wgt>
<wgt id='4036'>0.68686E+03</wgt>
<wgt id='4037'>0.69202E+03</wgt>
<wgt id='4038'>0.68170E+03</wgt>
<wgt id='4039'>0.68908E+03</wgt>
<wgt id='4040'>0.68716E+03</wgt>
<wgt id='4041'>0.69076E+03</wgt>
<wgt id='4042'>0.68582E+03</wgt>
<wgt id='4043'>0.69497E+03</wgt>
<wgt id='4044'>0.68549E+03</wgt>
<wgt id='4045'>0.67868E+03</wgt>
<wgt id='4046'>0.68861E+03</wgt>
<wgt id='4047'>0.68033E+03</wgt>
<wgt id='4048'>0.68441E+03</wgt>
<wgt id='4049'>0.68158E+03</wgt>
<wgt id='4050'>0.67596E+03</wgt>
<wgt id='4051'>0.68820E+03</wgt>
<wgt id='4052'>0.68753E+03</wgt>
<wgt id='4053'>0.67318E+03</wgt>
<wgt id='4054'>0.69734E+03</wgt>
<wgt id='4055'>0.68080E+03</wgt>
<wgt id='4056'>0.69793E+03</wgt>
<wgt id='4060'>0.66888E+03</wgt>
<wgt id='4070'>0.70622E+03</wgt>
<wgt id='4080'>0.60813E+03</wgt>
<wgt id='6000'>0.71066E+03</wgt>
<wgt id='6001'>0.71081E+03</wgt>
<wgt id='6002'>0.71048E+03</wgt>
<wgt id='6003'>0.71133E+03</wgt>
<wgt id='6004'>0.71020E+03</wgt>
<wgt id='6005'>0.71419E+03</wgt>
<wgt id='6006'>0.70737E+03</wgt>
<wgt id='6007'>0.70754E+03</wgt>
<wgt id='6008'>0.71415E+03</wgt>
<wgt id='6009'>0.71160E+03</wgt>
<wgt id='6010'>0.70970E+03</wgt>
<wgt id='6011'>0.71158E+03</wgt>
<wgt id='6012'>0.70859E+03</wgt>
<wgt id='6013'>0.71028E+03</wgt>
<wgt id='6014'>0.71132E+03</wgt>
<wgt id='6015'>0.70896E+03</wgt>
<wgt id='6016'>0.71160E+03</wgt>
<wgt id='6017'>0.70764E+03</wgt>
<wgt id='6018'>0.71420E+03</wgt>
<wgt id='6019'>0.71171E+03</wgt>
<wgt id='6020'>0.70973E+03</wgt>
<wgt id='6021'>0.70921E+03</wgt>
<wgt id='6022'>0.71257E+03</wgt>
<wgt id='6023'>0.70636E+03</wgt>
<wgt id='6024'>0.71359E+03</wgt>
<wgt id='6025'>0.70490E+03</wgt>
<wgt id='6026'>0.71649E+03</wgt>
<wgt id='6027'>0.71161E+03</wgt>
<wgt id='6028'>0.71047E+03</wgt>
<wgt id='6029'>0.71200E+03</wgt>
<wgt id='6030'>0.70915E+03</wgt>
<wgt id='6031'>0.70725E+03</wgt>
<wgt id='6032'>0.71435E+03</wgt>
<wgt id='6033'>0.71299E+03</wgt>
<wgt id='6034'>0.70831E+03</wgt>
<wgt id='6035'>0.71092E+03</wgt>
<wgt id='6036'>0.71039E+03</wgt>
<wgt id='6037'>0.71152E+03</wgt>
<wgt id='6038'>0.71043E+03</wgt>
<wgt id='6039'>0.70958E+03</wgt>
<wgt id='6040'>0.71184E+03</wgt>
<wgt id='6041'>0.70675E+03</wgt>
<wgt id='6042'>0.71508E+03</wgt>
<wgt id='6043'>0.71733E+03</wgt>
<wgt id='6044'>0.70676E+03</wgt>
<wgt id='6045'>0.71000E+03</wgt>
<wgt id='6046'>0.71225E+03</wgt>
<wgt id='6047'>0.71573E+03</wgt>
<wgt id='6048'>0.69867E+03</wgt>
<wgt id='6049'>0.71314E+03</wgt>
<wgt id='6050'>0.70903E+03</wgt>
<wgt id='7000'>0.67700E+03</wgt>
<wgt id='7001'>0.67650E+03</wgt>
<wgt id='7002'>0.67763E+03</wgt>
<wgt id='7003'>0.67914E+03</wgt>
<wgt id='7004'>0.67487E+03</wgt>
<wgt id='7005'>0.67894E+03</wgt>
<wgt id='7006'>0.67623E+03</wgt>
<wgt id='7007'>0.67548E+03</wgt>
<wgt id='7008'>0.67852E+03</wgt>
<wgt id='7009'>0.67760E+03</wgt>
<wgt id='7010'>0.67643E+03</wgt>
<wgt id='7011'>0.67369E+03</wgt>
<wgt id='7012'>0.67842E+03</wgt>
<wgt id='7013'>0.67702E+03</wgt>
<wgt id='7014'>0.67697E+03</wgt>
<wgt id='7015'>0.67623E+03</wgt>
<wgt id='7016'>0.67779E+03</wgt>
<wgt id='7017'>0.67824E+03</wgt>
<wgt id='7018'>0.67628E+03</wgt>
<wgt id='7019'>0.67664E+03</wgt>
<wgt id='7020'>0.67745E+03</wgt>
<wgt id='7021'>0.67601E+03</wgt>
<wgt id='7022'>0.67768E+03</wgt>
<wgt id='7023'>0.68534E+03</wgt>
<wgt id='7024'>0.66915E+03</wgt>
<wgt id='7025'>0.67980E+03</wgt>
<wgt id='7026'>0.67007E+03</wgt>
<wgt id='7027'>0.67869E+03</wgt>
<wgt id='7028'>0.67554E+03</wgt>
<wgt id='7029'>0.67598E+03</wgt>
<wgt id='7030'>0.68016E+03</wgt>
<wgt id='7031'>0.67540E+03</wgt>
<wgt id='7032'>0.68030E+03</wgt>
<wgt id='7033'>0.67687E+03</wgt>
<wgt id='7034'>0.67722E+03</wgt>
<wgt id='7035'>0.67595E+03</wgt>
<wgt id='7036'>0.67746E+03</wgt>
<wgt id='7037'>0.67704E+03</wgt>
<wgt id='7038'>0.67676E+03</wgt>
<wgt id='7039'>0.67563E+03</wgt>
<wgt id='7040'>0.67804E+03</wgt>
<wgt id='7041'>0.67645E+03</wgt>
<wgt id='7042'>0.67682E+03</wgt>
<wgt id='7043'>0.67765E+03</wgt>
<wgt id='7044'>0.67313E+03</wgt>
<wgt id='7045'>0.66791E+03</wgt>
<wgt id='7046'>0.68149E+03</wgt>
<wgt id='7047'>0.67954E+03</wgt>
<wgt id='7048'>0.67564E+03</wgt>
<wgt id='7049'>0.67332E+03</wgt>
<wgt id='7050'>0.67773E+03</wgt>
<wgt id='7060'>0.87812E+03</wgt>
<wgt id='8000'>0.67398E+03</wgt>
<wgt id='8001'>0.67386E+03</wgt>
<wgt id='8002'>0.67418E+03</wgt>
<wgt id='8003'>0.67402E+03</wgt>
<wgt id='8004'>0.67396E+03</wgt>
<wgt id='8005'>0.67262E+03</wgt>
<wgt id='8006'>0.67426E+03</wgt>
<wgt id='8007'>0.67457E+03</wgt>
<wgt id='8008'>0.67542E+03</wgt>
<wgt id='8009'>0.67674E+03</wgt>
<wgt id='8010'>0.67347E+03</wgt>
<wgt id='8011'>0.67391E+03</wgt>
<wgt id='8012'>0.67199E+03</wgt>
<wgt id='8013'>0.67306E+03</wgt>
<wgt id='8014'>0.67487E+03</wgt>
<wgt id='8015'>0.67358E+03</wgt>
<wgt id='8016'>0.67438E+03</wgt>
<wgt id='8017'>0.67413E+03</wgt>
<wgt id='8018'>0.67488E+03</wgt>
<wgt id='8019'>0.67512E+03</wgt>
<wgt id='8020'>0.67227E+03</wgt>
<wgt id='8021'>0.67379E+03</wgt>
<wgt id='8022'>0.67080E+03</wgt>
<wgt id='8023'>0.67424E+03</wgt>
<wgt id='8024'>0.67387E+03</wgt>
<wgt id='8025'>0.67541E+03</wgt>
<wgt id='8026'>0.67528E+03</wgt>
<wgt id='8027'>0.67358E+03</wgt>
<wgt id='8028'>0.67457E+03</wgt>
<wgt id='8029'>0.66971E+03</wgt>
<wgt id='8500'>0.70551E+03</wgt>
<wgt id='8501'>0.70362E+03</wgt>
<wgt id='8502'>0.71376E+03</wgt>
<wgt id='8503'>0.70962E+03</wgt>
<wgt id='8504'>0.70310E+03</wgt>
<wgt id='8505'>0.70164E+03</wgt>
<wgt id='8506'>0.70794E+03</wgt>
<wgt id='8507'>0.70083E+03</wgt>
<wgt id='8508'>0.70341E+03</wgt>
<wgt id='8509'>0.70605E+03</wgt>
<wgt id='8510'>0.71746E+03</wgt>
<wgt id='8511'>0.70531E+03</wgt>
<wgt id='8512'>0.69761E+03</wgt>
<wgt id='8513'>0.70702E+03</wgt>
<wgt id='8514'>0.69683E+03</wgt>
<wgt id='8515'>0.70765E+03</wgt>
<wgt id='8516'>0.70641E+03</wgt>
<wgt id='8517'>0.70308E+03</wgt>
<wgt id='8518'>0.70315E+03</wgt>
<wgt id='8519'>0.70357E+03</wgt>
<wgt id='8520'>0.70473E+03</wgt>
<wgt id='8521'>0.70198E+03</wgt>
<wgt id='8522'>0.70711E+03</wgt>
<wgt id='8523'>0.70384E+03</wgt>
<wgt id='8524'>0.70539E+03</wgt>
<wgt id='8525'>0.70521E+03</wgt>
<wgt id='8526'>0.70517E+03</wgt>
<wgt id='8527'>0.70561E+03</wgt>
<wgt id='8528'>0.70428E+03</wgt>
<wgt id='8529'>0.70496E+03</wgt>
<wgt id='8530'>0.70546E+03</wgt>
<wgt id='8531'>0.70534E+03</wgt>
<wgt id='8532'>0.70545E+03</wgt>
<wgt id='8533'>0.70446E+03</wgt>
<wgt id='8534'>0.70584E+03</wgt>
<wgt id='8535'>0.70694E+03</wgt>
<wgt id='8536'>0.70507E+03</wgt>
<wgt id='8537'>0.70567E+03</wgt>
<wgt id='8538'>0.70524E+03</wgt>
<wgt id='8539'>0.70579E+03</wgt>
<wgt id='8540'>0.70588E+03</wgt>
<wgt id='8541'>0.70608E+03</wgt>
<wgt id='8542'>0.70614E+03</wgt>
<wgt id='8543'>0.70485E+03</wgt>
<wgt id='8544'>0.70648E+03</wgt>
<wgt id='8545'>0.70596E+03</wgt>
<wgt id='8546'>0.70620E+03</wgt>
<wgt id='8547'>0.70487E+03</wgt>
<wgt id='8548'>0.70498E+03</wgt>
<wgt id='8549'>0.70563E+03</wgt>
<wgt id='8550'>0.70518E+03</wgt>
<wgt id='8551'>0.70484E+03</wgt>
<wgt id='8552'>0.70533E+03</wgt>
<wgt id='8553'>0.70483E+03</wgt>
<wgt id='8554'>0.70503E+03</wgt>
<wgt id='8555'>0.70557E+03</wgt>
<wgt id='8556'>0.70538E+03</wgt>
<wgt id='8557'>0.70551E+03</wgt>
<wgt id='8558'>0.70639E+03</wgt>
<wgt id='8559'>0.70522E+03</wgt>
<wgt id='8560'>0.70461E+03</wgt>
<wgt id='8561'>0.70564E+03</wgt>
<wgt id='8562'>0.70507E+03</wgt>
<wgt id='8563'>0.70550E+03</wgt>
<wgt id='8564'>0.70531E+03</wgt>
<wgt id='8565'>0.70561E+03</wgt>
<wgt id='8566'>0.70563E+03</wgt>
<wgt id='8567'>0.70545E+03</wgt>
<wgt id='8568'>0.70591E+03</wgt>
<wgt id='8569'>0.70577E+03</wgt>
<wgt id='8570'>0.70527E+03</wgt>
<wgt id='8571'>0.70505E+03</wgt>
<wgt id='8572'>0.70525E+03</wgt>
<wgt id='8573'>0.70523E+03</wgt>
<wgt id='8574'>0.70534E+03</wgt>
<wgt id='8575'>0.70538E+03</wgt>
<wgt id='8576'>0.70552E+03</wgt>
<wgt id='8577'>0.70530E+03</wgt>
<wgt id='8578'>0.70546E+03</wgt>
<wgt id='8579'>0.70601E+03</wgt>
<wgt id='8580'>0.70551E+03</wgt>
<wgt id='8581'>0.70577E+03</wgt>
<wgt id='8582'>0.70510E+03</wgt>
<wgt id='8583'>0.70571E+03</wgt>
<wgt id='8584'>0.70584E+03</wgt>
<wgt id='8585'>0.70565E+03</wgt>
<wgt id='8586'>0.70604E+03</wgt>
<wgt id='8587'>0.70552E+03</wgt>
<wgt id='8588'>0.70545E+03</wgt>
<wgt id='8589'>0.70550E+03</wgt>
<wgt id='8590'>0.70550E+03</wgt>
<wgt id='8591'>0.70528E+03</wgt>
<wgt id='8592'>0.70546E+03</wgt>
<wgt id='8593'>0.70532E+03</wgt>
<wgt id='8594'>0.70548E+03</wgt>
<wgt id='8595'>0.70549E+03</wgt>
<wgt id='8596'>0.70542E+03</wgt>
<wgt id='8597'>0.70563E+03</wgt>
<wgt id='8598'>0.70567E+03</wgt>
<wgt id='8599'>0.70557E+03</wgt>
<wgt id='8600'>0.70550E+03</wgt>
<wgt id='8601'>0.69341E+03</wgt>
<wgt id='8602'>0.71628E+03</wgt>
<wgt id='9000'>0.67771E+03</wgt>
<wgt id='9001'>0.67787E+03</wgt>
<wgt id='9002'>0.68135E+03</wgt>
<wgt id='9003'>0.67197E+03</wgt>
<wgt id='9004'>0.67685E+03</wgt>
<wgt id='9005'>0.68243E+03</wgt>
<wgt id='9006'>0.67448E+03</wgt>
<wgt id='9007'>0.67239E+03</wgt>
<wgt id='9008'>0.67634E+03</wgt>
<wgt id='9009'>0.67777E+03</wgt>
<wgt id='9010'>0.67391E+03</wgt>
<wgt id='9011'>0.68617E+03</wgt>
<wgt id='9012'>0.67714E+03</wgt>
<wgt id='9013'>0.66799E+03</wgt>
<wgt id='9014'>0.67271E+03</wgt>
<wgt id='9015'>0.67723E+03</wgt>
<wgt id='9016'>0.68573E+03</wgt>
<wgt id='9017'>0.67649E+03</wgt>
<wgt id='9018'>0.67688E+03</wgt>
<wgt id='9019'>0.67712E+03</wgt>
<wgt id='9020'>0.68103E+03</wgt>
<wgt id='9021'>0.67573E+03</wgt>
<wgt id='9022'>0.67888E+03</wgt>
<wgt id='9023'>0.67554E+03</wgt>
<wgt id='9024'>0.67689E+03</wgt>
<wgt id='9025'>0.67903E+03</wgt>
<wgt id='9026'>0.67793E+03</wgt>
<wgt id='9027'>0.67645E+03</wgt>
<wgt id='9028'>0.67813E+03</wgt>
<wgt id='9029'>0.67854E+03</wgt>
<wgt id='9030'>0.67757E+03</wgt>
<wgt id='9031'>0.67717E+03</wgt>
<wgt id='9032'>0.67838E+03</wgt>
<wgt id='9033'>0.67847E+03</wgt>
<wgt id='9034'>0.67748E+03</wgt>
<wgt id='9035'>0.67847E+03</wgt>
<wgt id='9036'>0.67775E+03</wgt>
<wgt id='9037'>0.67833E+03</wgt>
<wgt id='9038'>0.67798E+03</wgt>
<wgt id='9039'>0.67781E+03</wgt>
<wgt id='9040'>0.67717E+03</wgt>
<wgt id='9041'>0.67764E+03</wgt>
<wgt id='9042'>0.67779E+03</wgt>
<wgt id='9043'>0.67710E+03</wgt>
<wgt id='9044'>0.67801E+03</wgt>
<wgt id='9045'>0.67790E+03</wgt>
<wgt id='9046'>0.67680E+03</wgt>
<wgt id='9047'>0.67761E+03</wgt>
<wgt id='9048'>0.67802E+03</wgt>
<wgt id='9049'>0.67732E+03</wgt>
<wgt id='9050'>0.67788E+03</wgt>
<wgt id='9051'>0.67806E+03</wgt>
<wgt id='9052'>0.67796E+03</wgt>
<wgt id='9053'>0.67770E+03</wgt>
<wgt id='9054'>0.67731E+03</wgt>
<wgt id='9055'>0.67752E+03</wgt>
<wgt id='9056'>0.67838E+03</wgt>
<wgt id='9057'>0.67773E+03</wgt>
<wgt id='9058'>0.67701E+03</wgt>
<wgt id='9059'>0.67733E+03</wgt>
<wgt id='9060'>0.67739E+03</wgt>
<wgt id='9061'>0.67780E+03</wgt>
<wgt id='9062'>0.67783E+03</wgt>
<wgt id='9063'>0.67803E+03</wgt>
<wgt id='9064'>0.67759E+03</wgt>
<wgt id='9065'>0.67764E+03</wgt>
<wgt id='9066'>0.67776E+03</wgt>
<wgt id='9067'>0.67798E+03</wgt>
<wgt id='9068'>0.67798E+03</wgt>
<wgt id='9069'>0.67816E+03</wgt>
<wgt id='9070'>0.67761E+03</wgt>
<wgt id='9071'>0.67817E+03</wgt>
<wgt id='9072'>0.67818E+03</wgt>
<wgt id='9073'>0.67753E+03</wgt>
<wgt id='9074'>0.67783E+03</wgt>
<wgt id='9075'>0.67768E+03</wgt>
<wgt id='9076'>0.67760E+03</wgt>
<wgt id='9077'>0.67782E+03</wgt>
<wgt id='9078'>0.67771E+03</wgt>
<wgt id='9079'>0.67756E+03</wgt>
<wgt id='9080'>0.67834E+03</wgt>
<wgt id='9081'>0.67763E+03</wgt>
<wgt id='9082'>0.67791E+03</wgt>
<wgt id='9083'>0.67747E+03</wgt>
<wgt id='9084'>0.67746E+03</wgt>
<wgt id='9085'>0.67744E+03</wgt>
<wgt id='9086'>0.67783E+03</wgt>
<wgt id='9087'>0.67714E+03</wgt>
<wgt id='9088'>0.67750E+03</wgt>
<wgt id='9089'>0.67750E+03</wgt>
<wgt id='9090'>0.67782E+03</wgt>
<wgt id='9091'>0.67760E+03</wgt>
<wgt id='9092'>0.67766E+03</wgt>
<wgt id='9093'>0.67758E+03</wgt>
<wgt id='9094'>0.67762E+03</wgt>
<wgt id='9095'>0.67778E+03</wgt>
<wgt id='9096'>0.67757E+03</wgt>
<wgt id='9097'>0.67777E+03</wgt>
<wgt id='9098'>0.67768E+03</wgt>
<wgt id='9099'>0.67755E+03</wgt>
<wgt id='9100'>0.67771E+03</wgt>
<wgt id='9101'>0.66748E+03</wgt>
<wgt id='9102'>0.68654E+03</wgt>
<wgt id='10000'>0.70545E+03</wgt>
<wgt id='10001'>0.71017E+03</wgt>
<wgt id='10002'>0.70166E+03</wgt>
<wgt id='10003'>0.70522E+03</wgt>
<wgt id='10004'>0.69765E+03</wgt>
<wgt id='10005'>0.72184E+03</wgt>
<wgt id='10006'>0.70330E+03</wgt>
<wgt id='10007'>0.70529E+03</wgt>
<wgt id='10008'>0.70641E+03</wgt>
<wgt id='10009'>0.70329E+03</wgt>
<wgt id='10010'>0.70690E+03</wgt>
<wgt id='10011'>0.70271E+03</wgt>
<wgt id='10012'>0.70562E+03</wgt>
<wgt id='10013'>0.70609E+03</wgt>
<wgt id='10014'>0.70441E+03</wgt>
<wgt id='10015'>0.70507E+03</wgt>
<wgt id='10016'>0.70348E+03</wgt>
<wgt id='10017'>0.71000E+03</wgt>
<wgt id='10018'>0.70612E+03</wgt>
<wgt id='10019'>0.70402E+03</wgt>
<wgt id='10020'>0.70452E+03</wgt>
<wgt id='10021'>0.70506E+03</wgt>
<wgt id='10022'>0.70532E+03</wgt>
<wgt id='10023'>0.70562E+03</wgt>
<wgt id='10024'>0.70476E+03</wgt>
<wgt id='10025'>0.70511E+03</wgt>
<wgt id='10026'>0.70715E+03</wgt>
<wgt id='10027'>0.70657E+03</wgt>
<wgt id='10028'>0.71124E+03</wgt>
<wgt id='10029'>0.70574E+03</wgt>
<wgt id='10030'>0.70520E+03</wgt>
<wgt id='10031'>0.69341E+03</wgt>
<wgt id='10032'>0.71628E+03</wgt>
<wgt id='11000'>0.67765E+03</wgt>
<wgt id='11001'>0.67111E+03</wgt>
<wgt id='11002'>0.68140E+03</wgt>
<wgt id='11003'>0.67725E+03</wgt>
<wgt id='11004'>0.68162E+03</wgt>
<wgt id='11005'>0.67110E+03</wgt>
<wgt id='11006'>0.67801E+03</wgt>
<wgt id='11007'>0.67605E+03</wgt>
<wgt id='11008'>0.67699E+03</wgt>
<wgt id='11009'>0.67473E+03</wgt>
<wgt id='11010'>0.67256E+03</wgt>
<wgt id='11011'>0.67432E+03</wgt>
<wgt id='11012'>0.67839E+03</wgt>
<wgt id='11013'>0.67949E+03</wgt>
<wgt id='11014'>0.67564E+03</wgt>
<wgt id='11015'>0.67692E+03</wgt>
<wgt id='11016'>0.67684E+03</wgt>
<wgt id='11017'>0.68335E+03</wgt>
<wgt id='11018'>0.67716E+03</wgt>
<wgt id='11019'>0.67713E+03</wgt>
<wgt id='11020'>0.67995E+03</wgt>
<wgt id='11021'>0.67940E+03</wgt>
<wgt id='11022'>0.69160E+03</wgt>
<wgt id='11023'>0.67800E+03</wgt>
<wgt id='11024'>0.67784E+03</wgt>
<wgt id='11025'>0.67799E+03</wgt>
<wgt id='11026'>0.67767E+03</wgt>
<wgt id='11027'>0.67748E+03</wgt>
<wgt id='11028'>0.67788E+03</wgt>
<wgt id='11029'>0.67757E+03</wgt>
<wgt id='11030'>0.67762E+03</wgt>
<wgt id='11031'>0.66748E+03</wgt>
<wgt id='11032'>0.68654E+03</wgt>
<wgt id='12000'>0.71418E+03</wgt>
<wgt id='12001'>0.71316E+03</wgt>
<wgt id='12002'>0.71519E+03</wgt>
<wgt id='12003'>0.71506E+03</wgt>
<wgt id='12004'>0.71330E+03</wgt>
<wgt id='12005'>0.71550E+03</wgt>
<wgt id='12006'>0.71287E+03</wgt>
<wgt id='12007'>0.71760E+03</wgt>
<wgt id='12008'>0.71084E+03</wgt>
<wgt id='12009'>0.71423E+03</wgt>
<wgt id='12010'>0.71414E+03</wgt>
<wgt id='12011'>0.71104E+03</wgt>
<wgt id='12012'>0.71777E+03</wgt>
<wgt id='12013'>0.71133E+03</wgt>
<wgt id='12014'>0.71707E+03</wgt>
<wgt id='12015'>0.71419E+03</wgt>
<wgt id='12016'>0.71267E+03</wgt>
<wgt id='12017'>0.71746E+03</wgt>
<wgt id='12018'>0.71185E+03</wgt>
<wgt id='12019'>0.71196E+03</wgt>
<wgt id='12020'>0.71585E+03</wgt>
<wgt id='12021'>0.71620E+03</wgt>
<wgt id='12022'>0.71183E+03</wgt>
<wgt id='12023'>0.71023E+03</wgt>
<wgt id='12024'>0.71572E+03</wgt>
<wgt id='12025'>0.71495E+03</wgt>
<wgt id='12026'>0.71406E+03</wgt>
<wgt id='12027'>0.71785E+03</wgt>
<wgt id='12028'>0.71111E+03</wgt>
<wgt id='12050'>0.71418E+03</wgt>
<wgt id='12051'>0.71530E+03</wgt>
<wgt id='12052'>0.71204E+03</wgt>
<wgt id='12053'>0.71529E+03</wgt>
<wgt id='12054'>0.71273E+03</wgt>
<wgt id='12055'>0.71615E+03</wgt>
<wgt id='12056'>0.71122E+03</wgt>
<wgt id='12057'>0.71218E+03</wgt>
<wgt id='12058'>0.71615E+03</wgt>
<wgt id='12059'>0.71552E+03</wgt>
<wgt id='12060'>0.71295E+03</wgt>
<wgt id='12061'>0.71345E+03</wgt>
<wgt id='12062'>0.71268E+03</wgt>
<wgt id='12063'>0.70638E+03</wgt>
<wgt id='13000'>0.66596E+03</wgt>
<wgt id='13001'>0.66452E+03</wgt>
<wgt id='13002'>0.66584E+03</wgt>
<wgt id='13003'>0.66524E+03</wgt>
<wgt id='13004'>0.66513E+03</wgt>
<wgt id='13005'>0.66638E+03</wgt>
<wgt id='13006'>0.66399E+03</wgt>
<wgt id='13007'>0.66914E+03</wgt>
<wgt id='13008'>0.66134E+03</wgt>
<wgt id='13009'>0.66347E+03</wgt>
<wgt id='13010'>0.66698E+03</wgt>
<wgt id='13011'>0.66732E+03</wgt>
<wgt id='13012'>0.66306E+03</wgt>
<wgt id='13013'>0.66367E+03</wgt>
<wgt id='13014'>0.66664E+03</wgt>
<wgt id='13015'>0.66378E+03</wgt>
<wgt id='13016'>0.66484E+03</wgt>
<wgt id='13017'>0.66538E+03</wgt>
<wgt id='13018'>0.66496E+03</wgt>
<wgt id='13019'>0.66342E+03</wgt>
<wgt id='13020'>0.66699E+03</wgt>
<wgt id='13021'>0.66249E+03</wgt>
<wgt id='13022'>0.66746E+03</wgt>
<wgt id='13023'>0.66465E+03</wgt>
<wgt id='13024'>0.66578E+03</wgt>
<wgt id='13025'>0.66053E+03</wgt>
<wgt id='13026'>0.66888E+03</wgt>
<wgt id='13027'>0.66381E+03</wgt>
<wgt id='13028'>0.66707E+03</wgt>
<wgt id='13050'>0.66596E+03</wgt>
<wgt id='13051'>0.66691E+03</wgt>
<wgt id='13052'>0.66128E+03</wgt>
<wgt id='13053'>0.66669E+03</wgt>
<wgt id='13054'>0.66371E+03</wgt>
<wgt id='13055'>0.66248E+03</wgt>
<wgt id='13056'>0.66112E+03</wgt>
<wgt id='13057'>0.66356E+03</wgt>
<wgt id='13058'>0.66844E+03</wgt>
<wgt id='13059'>0.66548E+03</wgt>
<wgt id='13060'>0.66029E+03</wgt>
<wgt id='13061'>0.66324E+03</wgt>
<wgt id='13062'>0.66975E+03</wgt>
<wgt id='13063'>0.66284E+03</wgt>
<wgt id='14000'>0.68622E+03</wgt>
<wgt id='14001'>0.68612E+03</wgt>
<wgt id='14002'>0.68603E+03</wgt>
<wgt id='14003'>0.68594E+03</wgt>
<wgt id='14004'>0.68584E+03</wgt>
<wgt id='14005'>0.68575E+03</wgt>
<wgt id='14006'>0.68566E+03</wgt>
<wgt id='14007'>0.68556E+03</wgt>
<wgt id='14008'>0.68547E+03</wgt>
<wgt id='14009'>0.68538E+03</wgt>
<wgt id='14010'>0.68528E+03</wgt>
<wgt id='14011'>0.68519E+03</wgt>
<wgt id='14012'>0.68510E+03</wgt>
<wgt id='14013'>0.68501E+03</wgt>
<wgt id='14014'>0.68492E+03</wgt>
<wgt id='14015'>0.68482E+03</wgt>
<wgt id='14016'>0.68473E+03</wgt>
<wgt id='14017'>0.68464E+03</wgt>
<wgt id='14018'>0.68454E+03</wgt>
<wgt id='14019'>0.68445E+03</wgt>
<wgt id='14020'>0.68436E+03</wgt>
<wgt id='14021'>0.68426E+03</wgt>
<wgt id='14022'>0.68417E+03</wgt>
<wgt id='14023'>0.68408E+03</wgt>
<wgt id='14024'>0.68399E+03</wgt>
<wgt id='14025'>0.68389E+03</wgt>
<wgt id='14026'>0.68380E+03</wgt>
<wgt id='14027'>0.68371E+03</wgt>
<wgt id='14028'>0.68362E+03</wgt>
<wgt id='14029'>0.68352E+03</wgt>
<wgt id='14030'>0.68343E+03</wgt>
<wgt id='15000'>0.66897E+03</wgt>
<wgt id='15001'>0.66899E+03</wgt>
<wgt id='15002'>0.67251E+03</wgt>
<wgt id='15003'>0.66334E+03</wgt>
<wgt id='15004'>0.66811E+03</wgt>
<wgt id='15005'>0.67365E+03</wgt>
<wgt id='15006'>0.66590E+03</wgt>
<wgt id='15007'>0.66380E+03</wgt>
<wgt id='15008'>0.66762E+03</wgt>
<wgt id='15009'>0.66906E+03</wgt>
<wgt id='15010'>0.66521E+03</wgt>
<wgt id='15011'>0.67748E+03</wgt>
<wgt id='15012'>0.66848E+03</wgt>
<wgt id='15013'>0.65946E+03</wgt>
<wgt id='15014'>0.66399E+03</wgt>
<wgt id='15015'>0.66824E+03</wgt>
<wgt id='15016'>0.67703E+03</wgt>
<wgt id='15017'>0.66771E+03</wgt>
<wgt id='15018'>0.66813E+03</wgt>
<wgt id='15019'>0.66851E+03</wgt>
<wgt id='15020'>0.67238E+03</wgt>
<wgt id='15021'>0.66693E+03</wgt>
<wgt id='15022'>0.67013E+03</wgt>
<wgt id='15023'>0.66684E+03</wgt>
<wgt id='15024'>0.66807E+03</wgt>
<wgt id='15025'>0.67018E+03</wgt>
<wgt id='15026'>0.66908E+03</wgt>
<wgt id='15027'>0.66786E+03</wgt>
<wgt id='15028'>0.66944E+03</wgt>
<wgt id='15029'>0.66973E+03</wgt>
<wgt id='15030'>0.66880E+03</wgt>
<wgt id='15031'>0.66857E+03</wgt>
<wgt id='15032'>0.66958E+03</wgt>
<wgt id='15033'>0.66969E+03</wgt>
<wgt id='15034'>0.66874E+03</wgt>
<wgt id='15035'>0.66971E+03</wgt>
<wgt id='15036'>0.66902E+03</wgt>
<wgt id='15037'>0.66959E+03</wgt>
<wgt id='15038'>0.66922E+03</wgt>
<wgt id='15039'>0.66902E+03</wgt>
<wgt id='15040'>0.66844E+03</wgt>
<wgt id='15041'>0.66887E+03</wgt>
<wgt id='15042'>0.66903E+03</wgt>
<wgt id='15043'>0.66844E+03</wgt>
<wgt id='15044'>0.66926E+03</wgt>
<wgt id='15045'>0.66914E+03</wgt>
<wgt id='15046'>0.66811E+03</wgt>
<wgt id='15047'>0.66885E+03</wgt>
<wgt id='15048'>0.66930E+03</wgt>
<wgt id='15049'>0.66857E+03</wgt>
<wgt id='15050'>0.66916E+03</wgt>
<wgt id='15051'>0.66931E+03</wgt>
<wgt id='15052'>0.66922E+03</wgt>
<wgt id='15053'>0.66897E+03</wgt>
<wgt id='15054'>0.66860E+03</wgt>
<wgt id='15055'>0.66880E+03</wgt>
<wgt id='15056'>0.66959E+03</wgt>
<wgt id='15057'>0.66899E+03</wgt>
<wgt id='15058'>0.66832E+03</wgt>
<wgt id='15059'>0.66862E+03</wgt>
<wgt id='15060'>0.66867E+03</wgt>
<wgt id='15061'>0.66907E+03</wgt>
<wgt id='15062'>0.66908E+03</wgt>
<wgt id='15063'>0.66928E+03</wgt>
<wgt id='15064'>0.66887E+03</wgt>
<wgt id='15065'>0.66890E+03</wgt>
<wgt id='15066'>0.66902E+03</wgt>
<wgt id='15067'>0.66922E+03</wgt>
<wgt id='15068'>0.66924E+03</wgt>
<wgt id='15069'>0.66940E+03</wgt>
<wgt id='15070'>0.66887E+03</wgt>
<wgt id='15071'>0.66944E+03</wgt>
<wgt id='15072'>0.66942E+03</wgt>
<wgt id='15073'>0.66878E+03</wgt>
<wgt id='15074'>0.66910E+03</wgt>
<wgt id='15075'>0.66894E+03</wgt>
<wgt id='15076'>0.66889E+03</wgt>
<wgt id='15077'>0.66909E+03</wgt>
<wgt id='15078'>0.66900E+03</wgt>
<wgt id='15079'>0.66883E+03</wgt>
<wgt id='15080'>0.66957E+03</wgt>
<wgt id='15081'>0.66892E+03</wgt>
<wgt id='15082'>0.66918E+03</wgt>
<wgt id='15083'>0.66874E+03</wgt>
<wgt id='15084'>0.66872E+03</wgt>
<wgt id='15085'>0.66871E+03</wgt>
<wgt id='15086'>0.66913E+03</wgt>
<wgt id='15087'>0.66840E+03</wgt>
<wgt id='15088'>0.66875E+03</wgt>
<wgt id='15089'>0.66875E+03</wgt>
<wgt id='15090'>0.66907E+03</wgt>
<wgt id='15091'>0.66884E+03</wgt>
<wgt id='15092'>0.66891E+03</wgt>
<wgt id='15093'>0.66884E+03</wgt>
<wgt id='15094'>0.66886E+03</wgt>
<wgt id='15095'>0.66904E+03</wgt>
<wgt id='15096'>0.66885E+03</wgt>
<wgt id='15097'>0.66903E+03</wgt>
<wgt id='15098'>0.66894E+03</wgt>
<wgt id='15099'>0.66882E+03</wgt>
<wgt id='15100'>0.66898E+03</wgt>
<wgt id='15101'>0.66897E+03</wgt>
<wgt id='15102'>0.66892E+03</wgt>
<wgt id='15103'>0.66898E+03</wgt>
<wgt id='15104'>0.66898E+03</wgt>
<wgt id='15105'>0.66900E+03</wgt>
<wgt id='15106'>0.66898E+03</wgt>
<wgt id='15107'>0.66894E+03</wgt>
<wgt id='1500'>0.71782E+03</wgt>
<wgt id='1501'>0.67479E+03</wgt>
<wgt id='1502'>0.71128E+03</wgt>
<wgt id='1503'>0.71516E+03</wgt>
<wgt id='1504'>0.71287E+03</wgt>
<wgt id='1505'>0.63514E+03</wgt>
<wgt id='1506'>0.73087E+03</wgt>
<wgt id='1507'>0.72094E+03</wgt>
<wgt id='1508'>0.72959E+03</wgt>
<wgt id='1509'>0.72368E+03</wgt>
<wgt id='1510'>0.68214E+03</wgt>
<wgt id='1511'>0.67359E+03</wgt>
<wgt id='1512'>0.73279E+03</wgt>
<wgt id='1513'>0.73244E+03</wgt>
<wgt id='1514'>0.69304E+03</wgt>
<wgt id='1515'>0.72633E+03</wgt>
<wgt id='1516'>0.72900E+03</wgt>
<wgt id='1517'>0.71309E+03</wgt>
<wgt id='1518'>0.72258E+03</wgt>
<wgt id='1519'>0.73584E+03</wgt>
<wgt id='1520'>0.74135E+03</wgt>
<wgt id='1521'>0.72110E+03</wgt>
<wgt id='1522'>0.70056E+03</wgt>
<wgt id='1523'>0.76876E+03</wgt>
<wgt id='1524'>0.71228E+03</wgt>
<wgt id='1525'>0.72234E+03</wgt>
<wgt id='1526'>0.71556E+03</wgt>
<wgt id='1527'>0.71793E+03</wgt>
<wgt id='1528'>0.71060E+03</wgt>
<wgt id='1529'>0.71650E+03</wgt>
<wgt id='1530'>0.73461E+03</wgt>
<wgt id='1531'>0.71031E+03</wgt>
<wgt id='1532'>0.69359E+03</wgt>
<wgt id='1533'>0.71642E+03</wgt>
<wgt id='1534'>0.71531E+03</wgt>
<wgt id='1535'>0.73559E+03</wgt>
<wgt id='1536'>0.74142E+03</wgt>
<wgt id='1537'>0.73016E+03</wgt>
<wgt id='1538'>0.73655E+03</wgt>
<wgt id='1539'>0.70273E+03</wgt>
<wgt id='1540'>0.72292E+03</wgt>
<wgt id='1541'>0.72808E+03</wgt>
<wgt id='1542'>0.71640E+03</wgt>
<wgt id='1543'>0.71825E+03</wgt>
<wgt id='1544'>0.70900E+03</wgt>
<wgt id='1545'>0.71008E+03</wgt>
<wgt id='1546'>0.73254E+03</wgt>
<wgt id='1547'>0.71206E+03</wgt>
<wgt id='1548'>0.71498E+03</wgt>
<wgt id='1549'>0.71440E+03</wgt>
<wgt id='1550'>0.71533E+03</wgt>
<wgt id='1551'>0.71470E+03</wgt>
<wgt id='1552'>0.70526E+03</wgt>
<wgt id='1553'>0.72362E+03</wgt>
<wgt id='1554'>0.72208E+03</wgt>
<wgt id='1555'>0.71520E+03</wgt>
<wgt id='1556'>0.70357E+03</wgt>
<wgt id='1557'>0.74689E+03</wgt>
<wgt id='1558'>0.70518E+03</wgt>
<wgt id='1559'>0.72502E+03</wgt>
<wgt id='1560'>0.71892E+03</wgt>
<wgt id='1561'>0.72622E+03</wgt>
<wgt id='1562'>0.71722E+03</wgt>
<wgt id='1563'>0.72899E+03</wgt>
<wgt id='1564'>0.70032E+03</wgt>
<wgt id='1565'>0.73321E+03</wgt>
<wgt id='1566'>0.71319E+03</wgt>
<wgt id='1567'>0.76411E+03</wgt>
<wgt id='1568'>0.70831E+03</wgt>
<wgt id='1569'>0.69757E+03</wgt>
<wgt id='1570'>0.71102E+03</wgt>
<wgt id='1571'>0.72637E+03</wgt>
<wgt id='1572'>0.71992E+03</wgt>
<wgt id='1573'>0.67322E+03</wgt>
<wgt id='1574'>0.72064E+03</wgt>
<wgt id='1575'>0.71594E+03</wgt>
<wgt id='1576'>0.68998E+03</wgt>
<wgt id='1577'>0.71367E+03</wgt>
<wgt id='1578'>0.74144E+03</wgt>
<wgt id='1579'>0.71756E+03</wgt>
<wgt id='1580'>0.71606E+03</wgt>
<wgt id='1581'>0.71860E+03</wgt>
<wgt id='1582'>0.70635E+03</wgt>
<wgt id='1583'>0.74018E+03</wgt>
<wgt id='1584'>0.71991E+03</wgt>
<wgt id='1585'>0.69953E+03</wgt>
<wgt id='1586'>0.71094E+03</wgt>
<wgt id='1587'>0.71120E+03</wgt>
<wgt id='1588'>0.72036E+03</wgt>
<wgt id='1589'>0.75023E+03</wgt>
<wgt id='1590'>0.70642E+03</wgt>
<wgt id='1591'>0.71599E+03</wgt>
<wgt id='1592'>0.73035E+03</wgt>
<wgt id='1593'>0.72048E+03</wgt>
<wgt id='1594'>0.72672E+03</wgt>
<wgt id='1595'>0.70051E+03</wgt>
<wgt id='1596'>0.73497E+03</wgt>
<wgt id='1597'>0.72273E+03</wgt>
<wgt id='1598'>0.74484E+03</wgt>
<wgt id='1599'>0.74461E+03</wgt>
<wgt id='1600'>0.72014E+03</wgt>
<wgt id='1601'>0.70915E+03</wgt>
<wgt id='1602'>0.72397E+03</wgt>
<wgt id='1700'>0.68496E+03</wgt>
<wgt id='1800'>0.71684E+03</wgt>
<wgt id='1850'>0.84806E+03</wgt>
<wgt id='1900'>0.74759E+03</wgt>
<wgt id='1950'>0.81656E+03</wgt>
</rwgt>
</event>
<event>
     13 322222  6.87070E+02  6.12702E+01 -1.00000E+00  1.32351E-01
      21    -1     0     0   512   513  0.000000000E+00  0.000000000E+00  1.513921804E+02  1.513921804E+02  0.000000000E+00  0.00000E+00  9.000E+00
       1    -1     0     0   502     0  0.000000000E+00  0.000000000E+00 -1.900914965E+03  1.900914965E+03  0.000000000E+00  0.00000E+00  9.000E+00
       6     2     1     2   502     0 -5.708623928E+01  3.253200291E+01 -3.380386704E+01  1.879573101E+02  1.728238382E+02  0.00000E+00  9.000E+00
      -6     2     1     2     0   513 -3.414814701E+00 -4.220996798E+01 -4.179754029E+01  1.893074992E+02  1.797135291E+02  0.00000E+00  9.000E+00
       1     1     1     2   512     0  6.050105398E+01  9.677965068E+00 -1.673921377E+03  1.675042336E+03  1.000000000E-01  0.00000E+00  9.000E+00
      24     2     3     3     0     0 -7.004064051E+01 -2.219317182E+01  2.022869683E+01  1.098214079E+02  7.907789355E+01  0.00000E+00  9.000E+00
       5     1     3     3   502     0  1.295440124E+01  5.472517473E+01 -5.403256387E+01  7.813590224E+01  4.800000000E+00  0.00000E+00 -1.000E+00
     -24     2     4     4     0     0 -1.299586053E+01 -2.890939641E+01  4.679881059E+01  9.907970401E+01  8.137575488E+01  0.00000E+00  9.000E+00
      -5     1     4     4     0   513  9.581045831E+00 -1.330057157E+01 -8.859635088E+01  9.022779523E+01  4.800000000E+00  0.00000E+00  1.000E+00
     -13     1     6     6     0     0 -4.678983658E-01  2.076445388E+01 -9.472159677E+00  2.282793147E+01  1.057000000E-01  0.00000E+00  1.000E+00
      14     1     6     6     0     0 -6.957274215E+01 -4.295762570E+01  2.970085651E+01  8.699347638E+01  0.000000000E+00  0.00000E+00 -1.000E+00
       1     1     8     8   514     0  6.292246066E+00  2.493654520E+01  8.832695810E-01  2.573351535E+01  1.000000000E-01  0.00000E+00 -1.000E+00
      -2     1     8     8     0   514 -1.928810660E+01 -5.384594161E+01  4.591554101E+01  7.334618866E+01  1.000000000E-01  0.00000E+00  1.000E+00
#rwgt            2          31   38.600822764706422                2        2325           0
<rwgt>
<wgt id='1001'>0.68707E+03</wgt>
<wgt id='1002'>0.62991E+03</wgt>
<wgt id='1003'>0.75131E+03</wgt>
<wgt id='1004'>0.52580E+03</wgt>
<wgt id='1005'>0.48206E+03</wgt>
<wgt id='1006'>0.57497E+03</wgt>
<wgt id='1007'>0.92293E+03</wgt>
<wgt id='1008'>0.84614E+03</wgt>
<wgt id='1009'>0.10092E+04</wgt>
<wgt id='2000'>0.68707E+03</wgt>
<wgt id='2001'>0.68474E+03</wgt>
<wgt id='2002'>0.69140E+03</wgt>
<wgt id='2003'>0.68979E+03</wgt>
<wgt id='2004'>0.68479E+03</wgt>
<wgt id='2005'>0.68593E+03</wgt>
<wgt id='2006'>0.68882E+03</wgt>
<wgt id='2007'>0.68437E+03</wgt>
<wgt id='2008'>0.68719E+03</wgt>
<wgt id='2009'>0.68525E+03</wgt>
<wgt id='2010'>0.68930E+03</wgt>
<wgt id='2011'>0.68547E+03</wgt>
<wgt id='2012'>0.68663E+03</wgt>
<wgt id='2013'>0.68840E+03</wgt>
<wgt id='2014'>0.68978E+03</wgt>
<wgt id='2015'>0.68847E+03</wgt>
<wgt id='2016'>0.68826E+03</wgt>
<wgt id='2017'>0.68813E+03</wgt>
<wgt id='2018'>0.68854E+03</wgt>
<wgt id='2019'>0.68447E+03</wgt>
<wgt id='2020'>0.68722E+03</wgt>
<wgt id='2021'>0.68494E+03</wgt>
<wgt id='2022'>0.68932E+03</wgt>
<wgt id='2023'>0.68439E+03</wgt>
<wgt id='2024'>0.69146E+03</wgt>
<wgt id='2025'>0.68647E+03</wgt>
<wgt id='2026'>0.68754E+03</wgt>
<wgt id='2027'>0.69208E+03</wgt>
<wgt id='2028'>0.68818E+03</wgt>
<wgt id='2029'>0.67962E+03</wgt>
<wgt id='2030'>0.68627E+03</wgt>
<wgt id='2031'>0.68470E+03</wgt>
<wgt id='2032'>0.68175E+03</wgt>
<wgt id='2033'>0.69205E+03</wgt>
<wgt id='2034'>0.68554E+03</wgt>
<wgt id='2035'>0.68989E+03</wgt>
<wgt id='2036'>0.68726E+03</wgt>
<wgt id='2037'>0.68914E+03</wgt>
<wgt id='2038'>0.68142E+03</wgt>
<wgt id='2039'>0.68560E+03</wgt>
<wgt id='2040'>0.68693E+03</wgt>
<wgt id='2041'>0.68491E+03</wgt>
<wgt id='2042'>0.68675E+03</wgt>
<wgt id='2043'>0.68819E+03</wgt>
<wgt id='2044'>0.68639E+03</wgt>
<wgt id='2045'>0.68927E+03</wgt>
<wgt id='2046'>0.68682E+03</wgt>
<wgt id='2047'>0.68515E+03</wgt>
<wgt id='2048'>0.68968E+03</wgt>
<wgt id='2049'>0.68541E+03</wgt>
<wgt id='2050'>0.69097E+03</wgt>
<wgt id='2051'>0.69022E+03</wgt>
<wgt id='2052'>0.68568E+03</wgt>
<wgt id='2053'>0.68969E+03</wgt>
<wgt id='2054'>0.68848E+03</wgt>
<wgt id='2055'>0.69282E+03</wgt>
<wgt id='2056'>0.69190E+03</wgt>
<wgt id='2057'>0.68622E+03</wgt>
<wgt id='2058'>0.68566E+03</wgt>
<wgt id='2059'>0.68804E+03</wgt>
<wgt id='2060'>0.68548E+03</wgt>
<wgt id='2061'>0.68434E+03</wgt>
<wgt id='2062'>0.68980E+03</wgt>
<wgt id='2063'>0.68704E+03</wgt>
<wgt id='2064'>0.68887E+03</wgt>
<wgt id='2065'>0.68844E+03</wgt>
<wgt id='2066'>0.68435E+03</wgt>
<wgt id='2067'>0.68477E+03</wgt>
<wgt id='2068'>0.68384E+03</wgt>
<wgt id='2069'>0.68931E+03</wgt>
<wgt id='2070'>0.68508E+03</wgt>
<wgt id='2071'>0.68920E+03</wgt>
<wgt id='2072'>0.68739E+03</wgt>
<wgt id='2073'>0.68720E+03</wgt>
<wgt id='2074'>0.68608E+03</wgt>
<wgt id='2075'>0.68676E+03</wgt>
<wgt id='2076'>0.68521E+03</wgt>
<wgt id='2077'>0.68677E+03</wgt>
<wgt id='2078'>0.68639E+03</wgt>
<wgt id='2079'>0.68356E+03</wgt>
<wgt id='2080'>0.68810E+03</wgt>
<wgt id='2081'>0.68822E+03</wgt>
<wgt id='2082'>0.68891E+03</wgt>
<wgt id='2083'>0.68539E+03</wgt>
<wgt id='2084'>0.68719E+03</wgt>
<wgt id='2085'>0.68589E+03</wgt>
<wgt id='2086'>0.68546E+03</wgt>
<wgt id='2087'>0.68706E+03</wgt>
<wgt id='2088'>0.68681E+03</wgt>
<wgt id='2089'>0.68784E+03</wgt>
<wgt id='2090'>0.68703E+03</wgt>
<wgt id='2091'>0.68735E+03</wgt>
<wgt id='2092'>0.68579E+03</wgt>
<wgt id='2093'>0.68610E+03</wgt>
<wgt id='2094'>0.68649E+03</wgt>
<wgt id='2095'>0.68627E+03</wgt>
<wgt id='2096'>0.68637E+03</wgt>
<wgt id='2097'>0.68766E+03</wgt>
<wgt id='2098'>0.68594E+03</wgt>
<wgt id='2099'>0.68659E+03</wgt>
<wgt id='2100'>0.68733E+03</wgt>
<wgt id='2101'>0.65994E+03</wgt>
<wgt id='2102'>0.71237E+03</wgt>
<wgt id='2104'>0.56123E+03</wgt>
<wgt id='2105'>0.58237E+03</wgt>
<wgt id='2106'>0.61008E+03</wgt>
<wgt id='2107'>0.63666E+03</wgt>
<wgt id='2108'>0.67446E+03</wgt>
<wgt id='2109'>0.70093E+03</wgt>
<wgt id='2110'>0.73558E+03</wgt>
<wgt id='2111'>0.75708E+03</wgt>
<wgt id='3000'>0.68587E+03</wgt>
<wgt id='3001'>0.68966E+03</wgt>
<wgt id='3002'>0.68131E+03</wgt>
<wgt id='3003'>0.68944E+03</wgt>
<wgt id='3004'>0.68226E+03</wgt>
<wgt id='3005'>0.68820E+03</wgt>
<wgt id='3006'>0.68917E+03</wgt>
<wgt id='3007'>0.68872E+03</wgt>
<wgt id='3008'>0.68559E+03</wgt>
<wgt id='3009'>0.68759E+03</wgt>
<wgt id='3010'>0.68800E+03</wgt>
<wgt id='3011'>0.68464E+03</wgt>
<wgt id='3012'>0.68469E+03</wgt>
<wgt id='3013'>0.68545E+03</wgt>
<wgt id='3014'>0.68708E+03</wgt>
<wgt id='3015'>0.68451E+03</wgt>
<wgt id='3016'>0.68939E+03</wgt>
<wgt id='3017'>0.68481E+03</wgt>
<wgt id='3018'>0.68439E+03</wgt>
<wgt id='3019'>0.68142E+03</wgt>
<wgt id='3020'>0.68325E+03</wgt>
<wgt id='3021'>0.68578E+03</wgt>
<wgt id='3022'>0.68585E+03</wgt>
<wgt id='3023'>0.68518E+03</wgt>
<wgt id='3024'>0.68723E+03</wgt>
<wgt id='3025'>0.68539E+03</wgt>
<wgt id='3026'>0.68577E+03</wgt>
<wgt id='3027'>0.68414E+03</wgt>
<wgt id='3028'>0.68714E+03</wgt>
<wgt id='3029'>0.68850E+03</wgt>
<wgt id='3030'>0.67683E+03</wgt>
<wgt id='3031'>0.68333E+03</wgt>
<wgt id='3032'>0.68757E+03</wgt>
<wgt id='3033'>0.68771E+03</wgt>
<wgt id='3034'>0.68405E+03</wgt>
<wgt id='3035'>0.68819E+03</wgt>
<wgt id='3036'>0.68274E+03</wgt>
<wgt id='3037'>0.69009E+03</wgt>
<wgt id='3038'>0.68073E+03</wgt>
<wgt id='3039'>0.68539E+03</wgt>
<wgt id='3040'>0.68134E+03</wgt>
<wgt id='3041'>0.68789E+03</wgt>
<wgt id='3042'>0.68521E+03</wgt>
<wgt id='3043'>0.68523E+03</wgt>
<wgt id='3044'>0.68797E+03</wgt>
<wgt id='3045'>0.68862E+03</wgt>
<wgt id='3046'>0.68600E+03</wgt>
<wgt id='3047'>0.68522E+03</wgt>
<wgt id='3048'>0.68844E+03</wgt>
<wgt id='3049'>0.68557E+03</wgt>
<wgt id='3050'>0.68523E+03</wgt>
<wgt id='3051'>0.68794E+03</wgt>
<wgt id='3052'>0.68461E+03</wgt>
<wgt id='3053'>0.69147E+03</wgt>
<wgt id='3054'>0.68811E+03</wgt>
<wgt id='3055'>0.68694E+03</wgt>
<wgt id='3056'>0.69074E+03</wgt>
<wgt id='3057'>0.68446E+03</wgt>
<wgt id='3058'>0.68412E+03</wgt>
<wgt id='3059'>0.68312E+03</wgt>
<wgt id='3060'>0.68424E+03</wgt>
<wgt id='3061'>0.68531E+03</wgt>
<wgt id='3062'>0.69038E+03</wgt>
<wgt id='3063'>0.68325E+03</wgt>
<wgt id='3064'>0.68327E+03</wgt>
<wgt id='3065'>0.68784E+03</wgt>
<wgt id='3066'>0.69035E+03</wgt>
<wgt id='3067'>0.68776E+03</wgt>
<wgt id='3068'>0.68817E+03</wgt>
<wgt id='3069'>0.68598E+03</wgt>
<wgt id='3070'>0.68787E+03</wgt>
<wgt id='3071'>0.68626E+03</wgt>
<wgt id='3072'>0.68535E+03</wgt>
<wgt id='3073'>0.68702E+03</wgt>
<wgt id='3074'>0.68644E+03</wgt>
<wgt id='3075'>0.68380E+03</wgt>
<wgt id='3076'>0.68791E+03</wgt>
<wgt id='3077'>0.68613E+03</wgt>
<wgt id='3078'>0.68701E+03</wgt>
<wgt id='3079'>0.68672E+03</wgt>
<wgt id='3080'>0.68658E+03</wgt>
<wgt id='3081'>0.68495E+03</wgt>
<wgt id='3082'>0.68293E+03</wgt>
<wgt id='3083'>0.68382E+03</wgt>
<wgt id='3084'>0.68657E+03</wgt>
<wgt id='3085'>0.68336E+03</wgt>
<wgt id='3086'>0.68648E+03</wgt>
<wgt id='3087'>0.68585E+03</wgt>
<wgt id='3088'>0.68422E+03</wgt>
<wgt id='3089'>0.68590E+03</wgt>
<wgt id='3090'>0.68624E+03</wgt>
<wgt id='3091'>0.68709E+03</wgt>
<wgt id='3092'>0.68354E+03</wgt>
<wgt id='3093'>0.68503E+03</wgt>
<wgt id='3094'>0.68562E+03</wgt>
<wgt id='3095'>0.68541E+03</wgt>
<wgt id='3096'>0.68500E+03</wgt>
<wgt id='3097'>0.68472E+03</wgt>
<wgt id='3098'>0.68642E+03</wgt>
<wgt id='3099'>0.68772E+03</wgt>
<wgt id='3100'>0.68615E+03</wgt>
<wgt id='3101'>0.66291E+03</wgt>
<wgt id='3102'>0.71739E+03</wgt>
<wgt id='5000'>0.65711E+03</wgt>
<wgt id='5001'>0.66418E+03</wgt>
<wgt id='5002'>0.66916E+03</wgt>
<wgt id='5003'>0.65774E+03</wgt>
<wgt id='5004'>0.65871E+03</wgt>
<wgt id='5005'>0.63937E+03</wgt>
<wgt id='5006'>0.66032E+03</wgt>
<wgt id='5007'>0.65318E+03</wgt>
<wgt id='5008'>0.66286E+03</wgt>
<wgt id='5009'>0.63745E+03</wgt>
<wgt id='5010'>0.66910E+03</wgt>
<wgt id='5011'>0.65976E+03</wgt>
<wgt id='5012'>0.65367E+03</wgt>
<wgt id='5013'>0.65483E+03</wgt>
<wgt id='5014'>0.66128E+03</wgt>
<wgt id='5015'>0.65927E+03</wgt>
<wgt id='5016'>0.65407E+03</wgt>
<wgt id='5017'>0.65823E+03</wgt>
<wgt id='5018'>0.65579E+03</wgt>
<wgt id='5019'>0.66488E+03</wgt>
<wgt id='5020'>0.65079E+03</wgt>
<wgt id='5021'>0.66268E+03</wgt>
<wgt id='5022'>0.65394E+03</wgt>
<wgt id='5023'>0.66318E+03</wgt>
<wgt id='5024'>0.65030E+03</wgt>
<wgt id='5025'>0.65751E+03</wgt>
<wgt id='5026'>0.65677E+03</wgt>
<wgt id='5027'>0.65878E+03</wgt>
<wgt id='5028'>0.65426E+03</wgt>
<wgt id='5029'>0.65105E+03</wgt>
<wgt id='5030'>0.66091E+03</wgt>
<wgt id='5031'>0.65581E+03</wgt>
<wgt id='5032'>0.65927E+03</wgt>
<wgt id='5033'>0.66356E+03</wgt>
<wgt id='5034'>0.65096E+03</wgt>
<wgt id='5035'>0.65746E+03</wgt>
<wgt id='5036'>0.65641E+03</wgt>
<wgt id='5037'>0.65736E+03</wgt>
<wgt id='5038'>0.65641E+03</wgt>
<wgt id='5039'>0.65928E+03</wgt>
<wgt id='5040'>0.65461E+03</wgt>
<wgt id='5041'>0.64794E+03</wgt>
<wgt id='5042'>0.66262E+03</wgt>
<wgt id='5043'>0.66744E+03</wgt>
<wgt id='5044'>0.64715E+03</wgt>
<wgt id='5045'>0.65884E+03</wgt>
<wgt id='5046'>0.65501E+03</wgt>
<wgt id='5047'>0.68489E+03</wgt>
<wgt id='5048'>0.64050E+03</wgt>
<wgt id='5049'>0.65567E+03</wgt>
<wgt id='5050'>0.65865E+03</wgt>
<wgt id='5051'>0.64631E+03</wgt>
<wgt id='5052'>0.63629E+03</wgt>
<wgt id='5053'>0.66261E+03</wgt>
<wgt id='5054'>0.66969E+03</wgt>
<wgt id='5055'>0.65789E+03</wgt>
<wgt id='5056'>0.65742E+03</wgt>
<wgt id='5060'>0.63773E+03</wgt>
<wgt id='5070'>0.67497E+03</wgt>
<wgt id='4000'>0.68909E+03</wgt>
<wgt id='4001'>0.66573E+03</wgt>
<wgt id='4002'>0.67463E+03</wgt>
<wgt id='4003'>0.69546E+03</wgt>
<wgt id='4004'>0.68290E+03</wgt>
<wgt id='4005'>0.69251E+03</wgt>
<wgt id='4006'>0.68639E+03</wgt>
<wgt id='4007'>0.70068E+03</wgt>
<wgt id='4008'>0.68110E+03</wgt>
<wgt id='4009'>0.69510E+03</wgt>
<wgt id='4010'>0.68577E+03</wgt>
<wgt id='4011'>0.67364E+03</wgt>
<wgt id='4012'>0.69711E+03</wgt>
<wgt id='4013'>0.67958E+03</wgt>
<wgt id='4014'>0.70859E+03</wgt>
<wgt id='4015'>0.68954E+03</wgt>
<wgt id='4016'>0.68683E+03</wgt>
<wgt id='4017'>0.69127E+03</wgt>
<wgt id='4018'>0.68595E+03</wgt>
<wgt id='4019'>0.70029E+03</wgt>
<wgt id='4020'>0.67810E+03</wgt>
<wgt id='4021'>0.69560E+03</wgt>
<wgt id='4022'>0.68119E+03</wgt>
<wgt id='4023'>0.68042E+03</wgt>
<wgt id='4024'>0.69499E+03</wgt>
<wgt id='4025'>0.68992E+03</wgt>
<wgt id='4026'>0.68785E+03</wgt>
<wgt id='4027'>0.68750E+03</wgt>
<wgt id='4028'>0.69065E+03</wgt>
<wgt id='4029'>0.68834E+03</wgt>
<wgt id='4030'>0.68928E+03</wgt>
<wgt id='4031'>0.69051E+03</wgt>
<wgt id='4032'>0.68726E+03</wgt>
<wgt id='4033'>0.68562E+03</wgt>
<wgt id='4034'>0.69649E+03</wgt>
<wgt id='4035'>0.69086E+03</wgt>
<wgt id='4036'>0.68583E+03</wgt>
<wgt id='4037'>0.68535E+03</wgt>
<wgt id='4038'>0.69454E+03</wgt>
<wgt id='4039'>0.68733E+03</wgt>
<wgt id='4040'>0.69033E+03</wgt>
<wgt id='4041'>0.66984E+03</wgt>
<wgt id='4042'>0.69927E+03</wgt>
<wgt id='4043'>0.70792E+03</wgt>
<wgt id='4044'>0.67869E+03</wgt>
<wgt id='4045'>0.68857E+03</wgt>
<wgt id='4046'>0.68976E+03</wgt>
<wgt id='4047'>0.70037E+03</wgt>
<wgt id='4048'>0.69000E+03</wgt>
<wgt id='4049'>0.69189E+03</wgt>
<wgt id='4050'>0.68448E+03</wgt>
<wgt id='4051'>0.69649E+03</wgt>
<wgt id='4052'>0.69238E+03</wgt>
<wgt id='4053'>0.67759E+03</wgt>
<wgt id='4054'>0.69366E+03</wgt>
<wgt id='4055'>0.68909E+03</wgt>
<wgt id='4056'>0.69079E+03</wgt>
<wgt id='4060'>0.66707E+03</wgt>
<wgt id='4070'>0.70987E+03</wgt>
<wgt id='4080'>0.64246E+03</wgt>
<wgt id='6000'>0.74629E+03</wgt>
<wgt id='6001'>0.74634E+03</wgt>
<wgt id='6002'>0.74623E+03</wgt>
<wgt id='6003'>0.74674E+03</wgt>
<wgt id='6004'>0.74596E+03</wgt>
<wgt id='6005'>0.74848E+03</wgt>
<wgt id='6006'>0.74425E+03</wgt>
<wgt id='6007'>0.74458E+03</wgt>
<wgt id='6008'>0.74815E+03</wgt>
<wgt id='6009'>0.74861E+03</wgt>
<wgt id='6010'>0.74398E+03</wgt>
<wgt id='6011'>0.74409E+03</wgt>
<wgt id='6012'>0.75099E+03</wgt>
<wgt id='6013'>0.75134E+03</wgt>
<wgt id='6014'>0.73728E+03</wgt>
<wgt id='6015'>0.75834E+03</wgt>
<wgt id='6016'>0.73949E+03</wgt>
<wgt id='6017'>0.74946E+03</wgt>
<wgt id='6018'>0.74260E+03</wgt>
<wgt id='6019'>0.74186E+03</wgt>
<wgt id='6020'>0.75007E+03</wgt>
<wgt id='6021'>0.74124E+03</wgt>
<wgt id='6022'>0.75263E+03</wgt>
<wgt id='6023'>0.74574E+03</wgt>
<wgt id='6024'>0.74637E+03</wgt>
<wgt id='6025'>0.74377E+03</wgt>
<wgt id='6026'>0.74883E+03</wgt>
<wgt id='6027'>0.73641E+03</wgt>
<wgt id='6028'>0.74415E+03</wgt>
<wgt id='6029'>0.74990E+03</wgt>
<wgt id='6030'>0.74151E+03</wgt>
<wgt id='6031'>0.75207E+03</wgt>
<wgt id='6032'>0.73997E+03</wgt>
<wgt id='6033'>0.74288E+03</wgt>
<wgt id='6034'>0.74981E+03</wgt>
<wgt id='6035'>0.74628E+03</wgt>
<wgt id='6036'>0.74674E+03</wgt>
<wgt id='6037'>0.74379E+03</wgt>
<wgt id='6038'>0.74720E+03</wgt>
<wgt id='6039'>0.74410E+03</wgt>
<wgt id='6040'>0.74827E+03</wgt>
<wgt id='6041'>0.74070E+03</wgt>
<wgt id='6042'>0.75234E+03</wgt>
<wgt id='6043'>0.74691E+03</wgt>
<wgt id='6044'>0.74674E+03</wgt>
<wgt id='6045'>0.74188E+03</wgt>
<wgt id='6046'>0.75716E+03</wgt>
<wgt id='6047'>0.74732E+03</wgt>
<wgt id='6048'>0.73897E+03</wgt>
<wgt id='6049'>0.75007E+03</wgt>
<wgt id='6050'>0.74012E+03</wgt>
<wgt id='7000'>0.70835E+03</wgt>
<wgt id='7001'>0.70801E+03</wgt>
<wgt id='7002'>0.70871E+03</wgt>
<wgt id='7003'>0.70954E+03</wgt>
<wgt id='7004'>0.70716E+03</wgt>
<wgt id='7005'>0.70956E+03</wgt>
<wgt id='7006'>0.70784E+03</wgt>
<wgt id='7007'>0.70895E+03</wgt>
<wgt id='7008'>0.70773E+03</wgt>
<wgt id='7009'>0.71164E+03</wgt>
<wgt id='7010'>0.70517E+03</wgt>
<wgt id='7011'>0.71417E+03</wgt>
<wgt id='7012'>0.70578E+03</wgt>
<wgt id='7013'>0.70598E+03</wgt>
<wgt id='7014'>0.71124E+03</wgt>
<wgt id='7015'>0.71974E+03</wgt>
<wgt id='7016'>0.69604E+03</wgt>
<wgt id='7017'>0.70195E+03</wgt>
<wgt id='7018'>0.71194E+03</wgt>
<wgt id='7019'>0.71170E+03</wgt>
<wgt id='7020'>0.70369E+03</wgt>
<wgt id='7021'>0.70935E+03</wgt>
<wgt id='7022'>0.70758E+03</wgt>
<wgt id='7023'>0.70827E+03</wgt>
<wgt id='7024'>0.70837E+03</wgt>
<wgt id='7025'>0.70812E+03</wgt>
<wgt id='7026'>0.70886E+03</wgt>
<wgt id='7027'>0.70188E+03</wgt>
<wgt id='7028'>0.70238E+03</wgt>
<wgt id='7029'>0.70442E+03</wgt>
<wgt id='7030'>0.71895E+03</wgt>
<wgt id='7031'>0.71197E+03</wgt>
<wgt id='7032'>0.69974E+03</wgt>
<wgt id='7033'>0.70783E+03</wgt>
<wgt id='7034'>0.70887E+03</wgt>
<wgt id='7035'>0.71033E+03</wgt>
<wgt id='7036'>0.70712E+03</wgt>
<wgt id='7037'>0.70808E+03</wgt>
<wgt id='7038'>0.70771E+03</wgt>
<wgt id='7039'>0.70609E+03</wgt>
<wgt id='7040'>0.70957E+03</wgt>
<wgt id='7041'>0.71211E+03</wgt>
<wgt id='7042'>0.69967E+03</wgt>
<wgt id='7043'>0.70573E+03</wgt>
<wgt id='7044'>0.71083E+03</wgt>
<wgt id='7045'>0.70232E+03</wgt>
<wgt id='7046'>0.71187E+03</wgt>
<wgt id='7047'>0.71865E+03</wgt>
<wgt id='7048'>0.70388E+03</wgt>
<wgt id='7049'>0.70475E+03</wgt>
<wgt id='7050'>0.71011E+03</wgt>
<wgt id='7060'>0.10248E+04</wgt>
<wgt id='8000'>0.64555E+03</wgt>
<wgt id='8001'>0.64548E+03</wgt>
<wgt id='8002'>0.64565E+03</wgt>
<wgt id='8003'>0.64554E+03</wgt>
<wgt id='8004'>0.64552E+03</wgt>
<wgt id='8005'>0.64492E+03</wgt>
<wgt id='8006'>0.64564E+03</wgt>
<wgt id='8007'>0.64619E+03</wgt>
<wgt id='8008'>0.64710E+03</wgt>
<wgt id='8009'>0.64208E+03</wgt>
<wgt id='8010'>0.64700E+03</wgt>
<wgt id='8011'>0.64699E+03</wgt>
<wgt id='8012'>0.64812E+03</wgt>
<wgt id='8013'>0.64469E+03</wgt>
<wgt id='8014'>0.64600E+03</wgt>
<wgt id='8015'>0.64839E+03</wgt>
<wgt id='8016'>0.64449E+03</wgt>
<wgt id='8017'>0.64460E+03</wgt>
<wgt id='8018'>0.64477E+03</wgt>
<wgt id='8019'>0.64646E+03</wgt>
<wgt id='8020'>0.64703E+03</wgt>
<wgt id='8021'>0.64591E+03</wgt>
<wgt id='8022'>0.64389E+03</wgt>
<wgt id='8023'>0.64950E+03</wgt>
<wgt id='8024'>0.64791E+03</wgt>
<wgt id='8025'>0.64682E+03</wgt>
<wgt id='8026'>0.64772E+03</wgt>
<wgt id='8027'>0.64758E+03</wgt>
<wgt id='8028'>0.63507E+03</wgt>
<wgt id='8029'>0.63917E+03</wgt>
<wgt id='8500'>0.71140E+03</wgt>
<wgt id='8501'>0.71492E+03</wgt>
<wgt id='8502'>0.71751E+03</wgt>
<wgt id='8503'>0.71470E+03</wgt>
<wgt id='8504'>0.71265E+03</wgt>
<wgt id='8505'>0.70390E+03</wgt>
<wgt id='8506'>0.71292E+03</wgt>
<wgt id='8507'>0.70730E+03</wgt>
<wgt id='8508'>0.72012E+03</wgt>
<wgt id='8509'>0.71220E+03</wgt>
<wgt id='8510'>0.71924E+03</wgt>
<wgt id='8511'>0.71543E+03</wgt>
<wgt id='8512'>0.70874E+03</wgt>
<wgt id='8513'>0.70206E+03</wgt>
<wgt id='8514'>0.71358E+03</wgt>
<wgt id='8515'>0.71062E+03</wgt>
<wgt id='8516'>0.71504E+03</wgt>
<wgt id='8517'>0.71336E+03</wgt>
<wgt id='8518'>0.71003E+03</wgt>
<wgt id='8519'>0.71323E+03</wgt>
<wgt id='8520'>0.72118E+03</wgt>
<wgt id='8521'>0.70555E+03</wgt>
<wgt id='8522'>0.70788E+03</wgt>
<wgt id='8523'>0.72303E+03</wgt>
<wgt id='8524'>0.70441E+03</wgt>
<wgt id='8525'>0.69915E+03</wgt>
<wgt id='8526'>0.70613E+03</wgt>
<wgt id='8527'>0.71796E+03</wgt>
<wgt id='8528'>0.70580E+03</wgt>
<wgt id='8529'>0.70729E+03</wgt>
<wgt id='8530'>0.71290E+03</wgt>
<wgt id='8531'>0.70842E+03</wgt>
<wgt id='8532'>0.71406E+03</wgt>
<wgt id='8533'>0.70956E+03</wgt>
<wgt id='8534'>0.70670E+03</wgt>
<wgt id='8535'>0.71786E+03</wgt>
<wgt id='8536'>0.71040E+03</wgt>
<wgt id='8537'>0.70574E+03</wgt>
<wgt id='8538'>0.70846E+03</wgt>
<wgt id='8539'>0.71063E+03</wgt>
<wgt id='8540'>0.70991E+03</wgt>
<wgt id='8541'>0.71519E+03</wgt>
<wgt id='8542'>0.70661E+03</wgt>
<wgt id='8543'>0.70992E+03</wgt>
<wgt id='8544'>0.71665E+03</wgt>
<wgt id='8545'>0.70611E+03</wgt>
<wgt id='8546'>0.71428E+03</wgt>
<wgt id='8547'>0.71176E+03</wgt>
<wgt id='8548'>0.71213E+03</wgt>
<wgt id='8549'>0.71252E+03</wgt>
<wgt id='8550'>0.70882E+03</wgt>
<wgt id='8551'>0.71410E+03</wgt>
<wgt id='8552'>0.71145E+03</wgt>
<wgt id='8553'>0.70778E+03</wgt>
<wgt id='8554'>0.71251E+03</wgt>
<wgt id='8555'>0.71061E+03</wgt>
<wgt id='8556'>0.71001E+03</wgt>
<wgt id='8557'>0.70987E+03</wgt>
<wgt id='8558'>0.71142E+03</wgt>
<wgt id='8559'>0.71147E+03</wgt>
<wgt id='8560'>0.70983E+03</wgt>
<wgt id='8561'>0.71166E+03</wgt>
<wgt id='8562'>0.71123E+03</wgt>
<wgt id='8563'>0.71139E+03</wgt>
<wgt id='8564'>0.71075E+03</wgt>
<wgt id='8565'>0.71350E+03</wgt>
<wgt id='8566'>0.71189E+03</wgt>
<wgt id='8567'>0.71289E+03</wgt>
<wgt id='8568'>0.71093E+03</wgt>
<wgt id='8569'>0.71131E+03</wgt>
<wgt id='8570'>0.71122E+03</wgt>
<wgt id='8571'>0.71031E+03</wgt>
<wgt id='8572'>0.71067E+03</wgt>
<wgt id='8573'>0.71000E+03</wgt>
<wgt id='8574'>0.71027E+03</wgt>
<wgt id='8575'>0.71190E+03</wgt>
<wgt id='8576'>0.71147E+03</wgt>
<wgt id='8577'>0.71051E+03</wgt>
<wgt id='8578'>0.71158E+03</wgt>
<wgt id='8579'>0.71127E+03</wgt>
<wgt id='8580'>0.71164E+03</wgt>
<wgt id='8581'>0.71169E+03</wgt>
<wgt id='8582'>0.71108E+03</wgt>
<wgt id='8583'>0.71154E+03</wgt>
<wgt id='8584'>0.71195E+03</wgt>
<wgt id='8585'>0.71149E+03</wgt>
<wgt id='8586'>0.71186E+03</wgt>
<wgt id='8587'>0.71125E+03</wgt>
<wgt id='8588'>0.71160E+03</wgt>
<wgt id='8589'>0.71094E+03</wgt>
<wgt id='8590'>0.71157E+03</wgt>
<wgt id='8591'>0.71064E+03</wgt>
<wgt id='8592'>0.71106E+03</wgt>
<wgt id='8593'>0.71103E+03</wgt>
<wgt id='8594'>0.71135E+03</wgt>
<wgt id='8595'>0.71088E+03</wgt>
<wgt id='8596'>0.71100E+03</wgt>
<wgt id='8597'>0.71175E+03</wgt>
<wgt id='8598'>0.71125E+03</wgt>
<wgt id='8599'>0.71095E+03</wgt>
<wgt id='8600'>0.71128E+03</wgt>
<wgt id='8601'>0.69380E+03</wgt>
<wgt id='8602'>0.72479E+03</wgt>
<wgt id='9000'>0.67641E+03</wgt>
<wgt id='9001'>0.68429E+03</wgt>
<wgt id='9002'>0.67871E+03</wgt>
<wgt id='9003'>0.67120E+03</wgt>
<wgt id='9004'>0.67772E+03</wgt>
<wgt id='9005'>0.67926E+03</wgt>
<wgt id='9006'>0.67097E+03</wgt>
<wgt id='9007'>0.66982E+03</wgt>
<wgt id='9008'>0.67545E+03</wgt>
<wgt id='9009'>0.67302E+03</wgt>
<wgt id='9010'>0.67610E+03</wgt>
<wgt id='9011'>0.67410E+03</wgt>
<wgt id='9012'>0.67412E+03</wgt>
<wgt id='9013'>0.66851E+03</wgt>
<wgt id='9014'>0.67471E+03</wgt>
<wgt id='9015'>0.68740E+03</wgt>
<wgt id='9016'>0.67109E+03</wgt>
<wgt id='9017'>0.67972E+03</wgt>
<wgt id='9018'>0.67757E+03</wgt>
<wgt id='9019'>0.66969E+03</wgt>
<wgt id='9020'>0.67527E+03</wgt>
<wgt id='9021'>0.68119E+03</wgt>
<wgt id='9022'>0.67180E+03</wgt>
<wgt id='9023'>0.67777E+03</wgt>
<wgt id='9024'>0.68491E+03</wgt>
<wgt id='9025'>0.68041E+03</wgt>
<wgt id='9026'>0.67911E+03</wgt>
<wgt id='9027'>0.67212E+03</wgt>
<wgt id='9028'>0.67231E+03</wgt>
<wgt id='9029'>0.67574E+03</wgt>
<wgt id='9030'>0.67922E+03</wgt>
<wgt id='9031'>0.66625E+03</wgt>
<wgt id='9032'>0.68225E+03</wgt>
<wgt id='9033'>0.67609E+03</wgt>
<wgt id='9034'>0.67148E+03</wgt>
<wgt id='9035'>0.68020E+03</wgt>
<wgt id='9036'>0.67587E+03</wgt>
<wgt id='9037'>0.67841E+03</wgt>
<wgt id='9038'>0.67820E+03</wgt>
<wgt id='9039'>0.68501E+03</wgt>
<wgt id='9040'>0.68394E+03</wgt>
<wgt id='9041'>0.67355E+03</wgt>
<wgt id='9042'>0.67918E+03</wgt>
<wgt id='9043'>0.67529E+03</wgt>
<wgt id='9044'>0.67651E+03</wgt>
<wgt id='9045'>0.67477E+03</wgt>
<wgt id='9046'>0.67478E+03</wgt>
<wgt id='9047'>0.68022E+03</wgt>
<wgt id='9048'>0.68111E+03</wgt>
<wgt id='9049'>0.67375E+03</wgt>
<wgt id='9050'>0.67334E+03</wgt>
<wgt id='9051'>0.67665E+03</wgt>
<wgt id='9052'>0.67852E+03</wgt>
<wgt id='9053'>0.67822E+03</wgt>
<wgt id='9054'>0.67532E+03</wgt>
<wgt id='9055'>0.67485E+03</wgt>
<wgt id='9056'>0.67701E+03</wgt>
<wgt id='9057'>0.67579E+03</wgt>
<wgt id='9058'>0.67292E+03</wgt>
<wgt id='9059'>0.67861E+03</wgt>
<wgt id='9060'>0.67733E+03</wgt>
<wgt id='9061'>0.67632E+03</wgt>
<wgt id='9062'>0.67730E+03</wgt>
<wgt id='9063'>0.67541E+03</wgt>
<wgt id='9064'>0.67691E+03</wgt>
<wgt id='9065'>0.67530E+03</wgt>
<wgt id='9066'>0.67488E+03</wgt>
<wgt id='9067'>0.67659E+03</wgt>
<wgt id='9068'>0.67646E+03</wgt>
<wgt id='9069'>0.67716E+03</wgt>
<wgt id='9070'>0.67606E+03</wgt>
<wgt id='9071'>0.67766E+03</wgt>
<wgt id='9072'>0.67607E+03</wgt>
<wgt id='9073'>0.67610E+03</wgt>
<wgt id='9074'>0.67669E+03</wgt>
<wgt id='9075'>0.67662E+03</wgt>
<wgt id='9076'>0.67702E+03</wgt>
<wgt id='9077'>0.67714E+03</wgt>
<wgt id='9078'>0.67638E+03</wgt>
<wgt id='9079'>0.67581E+03</wgt>
<wgt id='9080'>0.67703E+03</wgt>
<wgt id='9081'>0.67669E+03</wgt>
<wgt id='9082'>0.67643E+03</wgt>
<wgt id='9083'>0.67623E+03</wgt>
<wgt id='9084'>0.67547E+03</wgt>
<wgt id='9085'>0.67649E+03</wgt>
<wgt id='9086'>0.67628E+03</wgt>
<wgt id='9087'>0.67580E+03</wgt>
<wgt id='9088'>0.67629E+03</wgt>
<wgt id='9089'>0.67580E+03</wgt>
<wgt id='9090'>0.67622E+03</wgt>
<wgt id='9091'>0.67658E+03</wgt>
<wgt id='9092'>0.67631E+03</wgt>
<wgt id='9093'>0.67584E+03</wgt>
<wgt id='9094'>0.67651E+03</wgt>
<wgt id='9095'>0.67595E+03</wgt>
<wgt id='9096'>0.67592E+03</wgt>
<wgt id='9097'>0.67647E+03</wgt>
<wgt id='9098'>0.67610E+03</wgt>
<wgt id='9099'>0.67611E+03</wgt>
<wgt id='9100'>0.67651E+03</wgt>
<wgt id='9101'>0.66089E+03</wgt>
<wgt id='9102'>0.68687E+03</wgt>
<wgt id='10000'>0.71139E+03</wgt>
<wgt id='10001'>0.72338E+03</wgt>
<wgt id='10002'>0.71826E+03</wgt>
<wgt id='10003'>0.71065E+03</wgt>
<wgt id='10004'>0.71724E+03</wgt>
<wgt id='10005'>0.72331E+03</wgt>
<wgt id='10006'>0.73370E+03</wgt>
<wgt id='10007'>0.70911E+03</wgt>
<wgt id='10008'>0.70988E+03</wgt>
<wgt id='10009'>0.70915E+03</wgt>
<wgt id='10010'>0.71137E+03</wgt>
<wgt id='10011'>0.71035E+03</wgt>
<wgt id='10012'>0.70529E+03</wgt>
<wgt id='10013'>0.71043E+03</wgt>
<wgt id='10014'>0.71332E+03</wgt>
<wgt id='10015'>0.70668E+03</wgt>
<wgt id='10016'>0.70885E+03</wgt>
<wgt id='10017'>0.71503E+03</wgt>
<wgt id='10018'>0.69799E+03</wgt>
<wgt id='10019'>0.70912E+03</wgt>
<wgt id='10020'>0.70937E+03</wgt>
<wgt id='10021'>0.71115E+03</wgt>
<wgt id='10022'>0.71250E+03</wgt>
<wgt id='10023'>0.71135E+03</wgt>
<wgt id='10024'>0.71436E+03</wgt>
<wgt id='10025'>0.71238E+03</wgt>
<wgt id='10026'>0.71476E+03</wgt>
<wgt id='10027'>0.71161E+03</wgt>
<wgt id='10028'>0.71379E+03</wgt>
<wgt id='10029'>0.71167E+03</wgt>
<wgt id='10030'>0.71061E+03</wgt>
<wgt id='10031'>0.69380E+03</wgt>
<wgt id='10032'>0.72479E+03</wgt>
<wgt id='11000'>0.67639E+03</wgt>
<wgt id='11001'>0.68465E+03</wgt>
<wgt id='11002'>0.68474E+03</wgt>
<wgt id='11003'>0.67667E+03</wgt>
<wgt id='11004'>0.68060E+03</wgt>
<wgt id='11005'>0.67184E+03</wgt>
<wgt id='11006'>0.67625E+03</wgt>
<wgt id='11007'>0.67507E+03</wgt>
<wgt id='11008'>0.69470E+03</wgt>
<wgt id='11009'>0.66783E+03</wgt>
<wgt id='11010'>0.67265E+03</wgt>
<wgt id='11011'>0.67304E+03</wgt>
<wgt id='11012'>0.67793E+03</wgt>
<wgt id='11013'>0.67980E+03</wgt>
<wgt id='11014'>0.67677E+03</wgt>
<wgt id='11015'>0.68168E+03</wgt>
<wgt id='11016'>0.68086E+03</wgt>
<wgt id='11017'>0.67375E+03</wgt>
<wgt id='11018'>0.67694E+03</wgt>
<wgt id='11019'>0.67757E+03</wgt>
<wgt id='11020'>0.67237E+03</wgt>
<wgt id='11021'>0.67208E+03</wgt>
<wgt id='11022'>0.68213E+03</wgt>
<wgt id='11023'>0.67511E+03</wgt>
<wgt id='11024'>0.67458E+03</wgt>
<wgt id='11025'>0.67556E+03</wgt>
<wgt id='11026'>0.67301E+03</wgt>
<wgt id='11027'>0.67635E+03</wgt>
<wgt id='11028'>0.67004E+03</wgt>
<wgt id='11029'>0.68009E+03</wgt>
<wgt id='11030'>0.67489E+03</wgt>
<wgt id='11031'>0.66089E+03</wgt>
<wgt id='11032'>0.68687E+03</wgt>
<wgt id='12000'>0.73205E+03</wgt>
<wgt id='12001'>0.73166E+03</wgt>
<wgt id='12002'>0.73244E+03</wgt>
<wgt id='12003'>0.73200E+03</wgt>
<wgt id='12004'>0.73210E+03</wgt>
<wgt id='12005'>0.73238E+03</wgt>
<wgt id='12006'>0.73172E+03</wgt>
<wgt id='12007'>0.73283E+03</wgt>
<wgt id='12008'>0.73130E+03</wgt>
<wgt id='12009'>0.71053E+03</wgt>
<wgt id='12010'>0.75375E+03</wgt>
<wgt id='12011'>0.73950E+03</wgt>
<wgt id='12012'>0.72481E+03</wgt>
<wgt id='12013'>0.73328E+03</wgt>
<wgt id='12014'>0.73084E+03</wgt>
<wgt id='12015'>0.72357E+03</wgt>
<wgt id='12016'>0.73985E+03</wgt>
<wgt id='12017'>0.71922E+03</wgt>
<wgt id='12018'>0.74561E+03</wgt>
<wgt id='12019'>0.73691E+03</wgt>
<wgt id='12020'>0.72613E+03</wgt>
<wgt id='12021'>0.73209E+03</wgt>
<wgt id='12022'>0.73186E+03</wgt>
<wgt id='12023'>0.71608E+03</wgt>
<wgt id='12024'>0.75062E+03</wgt>
<wgt id='12025'>0.74254E+03</wgt>
<wgt id='12026'>0.72166E+03</wgt>
<wgt id='12027'>0.72281E+03</wgt>
<wgt id='12028'>0.74213E+03</wgt>
<wgt id='12050'>0.73205E+03</wgt>
<wgt id='12051'>0.73626E+03</wgt>
<wgt id='12052'>0.72959E+03</wgt>
<wgt id='12053'>0.76507E+03</wgt>
<wgt id='12054'>0.75879E+03</wgt>
<wgt id='12055'>0.73672E+03</wgt>
<wgt id='12056'>0.72891E+03</wgt>
<wgt id='12057'>0.73093E+03</wgt>
<wgt id='12058'>0.73297E+03</wgt>
<wgt id='12059'>0.73148E+03</wgt>
<wgt id='12060'>0.73247E+03</wgt>
<wgt id='12061'>0.72843E+03</wgt>
<wgt id='12062'>0.73337E+03</wgt>
<wgt id='12063'>0.78943E+03</wgt>
<wgt id='13000'>0.71734E+03</wgt>
<wgt id='13001'>0.71641E+03</wgt>
<wgt id='13002'>0.71713E+03</wgt>
<wgt id='13003'>0.71663E+03</wgt>
<wgt id='13004'>0.71691E+03</wgt>
<wgt id='13005'>0.71697E+03</wgt>
<wgt id='13006'>0.71657E+03</wgt>
<wgt id='13007'>0.71837E+03</wgt>
<wgt id='13008'>0.71522E+03</wgt>
<wgt id='13009'>0.71151E+03</wgt>
<wgt id='13010'>0.72209E+03</wgt>
<wgt id='13011'>0.69637E+03</wgt>
<wgt id='13012'>0.73728E+03</wgt>
<wgt id='13013'>0.72166E+03</wgt>
<wgt id='13014'>0.71185E+03</wgt>
<wgt id='13015'>0.71493E+03</wgt>
<wgt id='13016'>0.71768E+03</wgt>
<wgt id='13017'>0.72680E+03</wgt>
<wgt id='13018'>0.70686E+03</wgt>
<wgt id='13019'>0.71977E+03</wgt>
<wgt id='13020'>0.71309E+03</wgt>
<wgt id='13021'>0.71511E+03</wgt>
<wgt id='13022'>0.71830E+03</wgt>
<wgt id='13023'>0.72587E+03</wgt>
<wgt id='13024'>0.70826E+03</wgt>
<wgt id='13025'>0.71503E+03</wgt>
<wgt id='13026'>0.72009E+03</wgt>
<wgt id='13027'>0.70647E+03</wgt>
<wgt id='13028'>0.72800E+03</wgt>
<wgt id='13050'>0.71734E+03</wgt>
<wgt id='13051'>0.71943E+03</wgt>
<wgt id='13052'>0.73386E+03</wgt>
<wgt id='13053'>0.72773E+03</wgt>
<wgt id='13054'>0.71939E+03</wgt>
<wgt id='13055'>0.72736E+03</wgt>
<wgt id='13056'>0.70129E+03</wgt>
<wgt id='13057'>0.71566E+03</wgt>
<wgt id='13058'>0.72064E+03</wgt>
<wgt id='13059'>0.69981E+03</wgt>
<wgt id='13060'>0.72526E+03</wgt>
<wgt id='13061'>0.69538E+03</wgt>
<wgt id='13062'>0.72732E+03</wgt>
<wgt id='13063'>0.71263E+03</wgt>
<wgt id='14000'>0.68558E+03</wgt>
<wgt id='14001'>0.68551E+03</wgt>
<wgt id='14002'>0.68543E+03</wgt>
<wgt id='14003'>0.68535E+03</wgt>
<wgt id='14004'>0.68528E+03</wgt>
<wgt id='14005'>0.68520E+03</wgt>
<wgt id='14006'>0.68513E+03</wgt>
<wgt id='14007'>0.68505E+03</wgt>
<wgt id='14008'>0.68497E+03</wgt>
<wgt id='14009'>0.68490E+03</wgt>
<wgt id='14010'>0.68482E+03</wgt>
<wgt id='14011'>0.68475E+03</wgt>
<wgt id='14012'>0.68467E+03</wgt>
<wgt id='14013'>0.68460E+03</wgt>
<wgt id='14014'>0.68452E+03</wgt>
<wgt id='14015'>0.68444E+03</wgt>
<wgt id='14016'>0.68437E+03</wgt>
<wgt id='14017'>0.68429E+03</wgt>
<wgt id='14018'>0.68422E+03</wgt>
<wgt id='14019'>0.68414E+03</wgt>
<wgt id='14020'>0.68407E+03</wgt>
<wgt id='14021'>0.68399E+03</wgt>
<wgt id='14022'>0.68392E+03</wgt>
<wgt id='14023'>0.68384E+03</wgt>
<wgt id='14024'>0.68376E+03</wgt>
<wgt id='14025'>0.68369E+03</wgt>
<wgt id='14026'>0.68361E+03</wgt>
<wgt id='14027'>0.68354E+03</wgt>
<wgt id='14028'>0.68346E+03</wgt>
<wgt id='14029'>0.68338E+03</wgt>
<wgt id='14030'>0.68331E+03</wgt>
<wgt id='15000'>0.67106E+03</wgt>
<wgt id='15001'>0.67885E+03</wgt>
<wgt id='15002'>0.67332E+03</wgt>
<wgt id='15003'>0.66592E+03</wgt>
<wgt id='15004'>0.67236E+03</wgt>
<wgt id='15005'>0.67390E+03</wgt>
<wgt id='15006'>0.66571E+03</wgt>
<wgt id='15007'>0.66453E+03</wgt>
<wgt id='15008'>0.67010E+03</wgt>
<wgt id='15009'>0.66771E+03</wgt>
<wgt id='15010'>0.67076E+03</wgt>
<wgt id='15011'>0.66880E+03</wgt>
<wgt id='15012'>0.66881E+03</wgt>
<wgt id='15013'>0.66325E+03</wgt>
<wgt id='15014'>0.66936E+03</wgt>
<wgt id='15015'>0.68189E+03</wgt>
<wgt id='15016'>0.66583E+03</wgt>
<wgt id='15017'>0.67434E+03</wgt>
<wgt id='15018'>0.67220E+03</wgt>
<wgt id='15019'>0.66442E+03</wgt>
<wgt id='15020'>0.66997E+03</wgt>
<wgt id='15021'>0.67575E+03</wgt>
<wgt id='15022'>0.66649E+03</wgt>
<wgt id='15023'>0.67241E+03</wgt>
<wgt id='15024'>0.67947E+03</wgt>
<wgt id='15025'>0.67501E+03</wgt>
<wgt id='15026'>0.67370E+03</wgt>
<wgt id='15027'>0.66683E+03</wgt>
<wgt id='15028'>0.66702E+03</wgt>
<wgt id='15029'>0.67039E+03</wgt>
<wgt id='15030'>0.67383E+03</wgt>
<wgt id='15031'>0.66102E+03</wgt>
<wgt id='15032'>0.67686E+03</wgt>
<wgt id='15033'>0.67074E+03</wgt>
<wgt id='15034'>0.66616E+03</wgt>
<wgt id='15035'>0.67482E+03</wgt>
<wgt id='15036'>0.67053E+03</wgt>
<wgt id='15037'>0.67305E+03</wgt>
<wgt id='15038'>0.67283E+03</wgt>
<wgt id='15039'>0.67959E+03</wgt>
<wgt id='15040'>0.67855E+03</wgt>
<wgt id='15041'>0.66821E+03</wgt>
<wgt id='15042'>0.67381E+03</wgt>
<wgt id='15043'>0.66997E+03</wgt>
<wgt id='15044'>0.67116E+03</wgt>
<wgt id='15045'>0.66943E+03</wgt>
<wgt id='15046'>0.66946E+03</wgt>
<wgt id='15047'>0.67483E+03</wgt>
<wgt id='15048'>0.67574E+03</wgt>
<wgt id='15049'>0.66841E+03</wgt>
<wgt id='15050'>0.66801E+03</wgt>
<wgt id='15051'>0.67130E+03</wgt>
<wgt id='15052'>0.67316E+03</wgt>
<wgt id='15053'>0.67286E+03</wgt>
<wgt id='15054'>0.66999E+03</wgt>
<wgt id='15055'>0.66952E+03</wgt>
<wgt id='15056'>0.67165E+03</wgt>
<wgt id='15057'>0.67045E+03</wgt>
<wgt id='15058'>0.66762E+03</wgt>
<wgt id='15059'>0.67325E+03</wgt>
<wgt id='15060'>0.67197E+03</wgt>
<wgt id='15061'>0.67097E+03</wgt>
<wgt id='15062'>0.67194E+03</wgt>
<wgt id='15063'>0.67007E+03</wgt>
<wgt id='15064'>0.67157E+03</wgt>
<wgt id='15065'>0.66996E+03</wgt>
<wgt id='15066'>0.66954E+03</wgt>
<wgt id='15067'>0.67123E+03</wgt>
<wgt id='15068'>0.67111E+03</wgt>
<wgt id='15069'>0.67180E+03</wgt>
<wgt id='15070'>0.67072E+03</wgt>
<wgt id='15071'>0.67231E+03</wgt>
<wgt id='15072'>0.67072E+03</wgt>
<wgt id='15073'>0.67075E+03</wgt>
<wgt id='15074'>0.67134E+03</wgt>
<wgt id='15075'>0.67127E+03</wgt>
<wgt id='15076'>0.67168E+03</wgt>
<wgt id='15077'>0.67179E+03</wgt>
<wgt id='15078'>0.67104E+03</wgt>
<wgt id='15079'>0.67047E+03</wgt>
<wgt id='15080'>0.67167E+03</wgt>
<wgt id='15081'>0.67134E+03</wgt>
<wgt id='15082'>0.67108E+03</wgt>
<wgt id='15083'>0.67088E+03</wgt>
<wgt id='15084'>0.67013E+03</wgt>
<wgt id='15085'>0.67114E+03</wgt>
<wgt id='15086'>0.67094E+03</wgt>
<wgt id='15087'>0.67045E+03</wgt>
<wgt id='15088'>0.67094E+03</wgt>
<wgt id='15089'>0.67046E+03</wgt>
<wgt id='15090'>0.67088E+03</wgt>
<wgt id='15091'>0.67122E+03</wgt>
<wgt id='15092'>0.67096E+03</wgt>
<wgt id='15093'>0.67049E+03</wgt>
<wgt id='15094'>0.67116E+03</wgt>
<wgt id='15095'>0.67061E+03</wgt>
<wgt id='15096'>0.67057E+03</wgt>
<wgt id='15097'>0.67112E+03</wgt>
<wgt id='15098'>0.67076E+03</wgt>
<wgt id='15099'>0.67077E+03</wgt>
<wgt id='15100'>0.67116E+03</wgt>
<wgt id='15101'>0.67106E+03</wgt>
<wgt id='15102'>0.67104E+03</wgt>
<wgt id='15103'>0.67107E+03</wgt>
<wgt id='15104'>0.67107E+03</wgt>
<wgt id='15105'>0.67108E+03</wgt>
<wgt id='15106'>0.67107E+03</wgt>
<wgt id='15107'>0.67105E+03</wgt>
<wgt id='1500'>0.69229E+03</wgt>
<wgt id='1501'>0.67450E+03</wgt>
<wgt id='1502'>0.67569E+03</wgt>
<wgt id='1503'>0.68487E+03</wgt>
<wgt id='1504'>0.68452E+03</wgt>
<wgt id='1505'>0.65685E+03</wgt>
<wgt id='1506'>0.70567E+03</wgt>
<wgt id='1507'>0.72105E+03</wgt>
<wgt id='1508'>0.69918E+03</wgt>
<wgt id='1509'>0.69840E+03</wgt>
<wgt id='1510'>0.67711E+03</wgt>
<wgt id='1511'>0.68331E+03</wgt>
<wgt id='1512'>0.70522E+03</wgt>
<wgt id='1513'>0.72036E+03</wgt>
<wgt id='1514'>0.66787E+03</wgt>
<wgt id='1515'>0.68735E+03</wgt>
<wgt id='1516'>0.69775E+03</wgt>
<wgt id='1517'>0.65808E+03</wgt>
<wgt id='1518'>0.67051E+03</wgt>
<wgt id='1519'>0.70211E+03</wgt>
<wgt id='1520'>0.67224E+03</wgt>
<wgt id='1521'>0.74697E+03</wgt>
<wgt id='1522'>0.69226E+03</wgt>
<wgt id='1523'>0.75630E+03</wgt>
<wgt id='1524'>0.70985E+03</wgt>
<wgt id='1525'>0.69949E+03</wgt>
<wgt id='1526'>0.71074E+03</wgt>
<wgt id='1527'>0.66832E+03</wgt>
<wgt id='1528'>0.68294E+03</wgt>
<wgt id='1529'>0.68963E+03</wgt>
<wgt id='1530'>0.70070E+03</wgt>
<wgt id='1531'>0.68734E+03</wgt>
<wgt id='1532'>0.72508E+03</wgt>
<wgt id='1533'>0.66247E+03</wgt>
<wgt id='1534'>0.70234E+03</wgt>
<wgt id='1535'>0.72718E+03</wgt>
<wgt id='1536'>0.71941E+03</wgt>
<wgt id='1537'>0.65799E+03</wgt>
<wgt id='1538'>0.73302E+03</wgt>
<wgt id='1539'>0.67181E+03</wgt>
<wgt id='1540'>0.67803E+03</wgt>
<wgt id='1541'>0.71925E+03</wgt>
<wgt id='1542'>0.66270E+03</wgt>
<wgt id='1543'>0.67551E+03</wgt>
<wgt id='1544'>0.67650E+03</wgt>
<wgt id='1545'>0.72055E+03</wgt>
<wgt id='1546'>0.67517E+03</wgt>
<wgt id='1547'>0.69400E+03</wgt>
<wgt id='1548'>0.69152E+03</wgt>
<wgt id='1549'>0.63528E+03</wgt>
<wgt id='1550'>0.68452E+03</wgt>
<wgt id='1551'>0.70562E+03</wgt>
<wgt id='1552'>0.72455E+03</wgt>
<wgt id='1553'>0.65509E+03</wgt>
<wgt id='1554'>0.73154E+03</wgt>
<wgt id='1555'>0.69389E+03</wgt>
<wgt id='1556'>0.67004E+03</wgt>
<wgt id='1557'>0.66786E+03</wgt>
<wgt id='1558'>0.69191E+03</wgt>
<wgt id='1559'>0.65154E+03</wgt>
<wgt id='1560'>0.72751E+03</wgt>
<wgt id='1561'>0.70963E+03</wgt>
<wgt id='1562'>0.64514E+03</wgt>
<wgt id='1563'>0.74272E+03</wgt>
<wgt id='1564'>0.65095E+03</wgt>
<wgt id='1565'>0.68554E+03</wgt>
<wgt id='1566'>0.70980E+03</wgt>
<wgt id='1567'>0.77984E+03</wgt>
<wgt id='1568'>0.67230E+03</wgt>
<wgt id='1569'>0.70543E+03</wgt>
<wgt id='1570'>0.67766E+03</wgt>
<wgt id='1571'>0.71141E+03</wgt>
<wgt id='1572'>0.69368E+03</wgt>
<wgt id='1573'>0.70359E+03</wgt>
<wgt id='1574'>0.70439E+03</wgt>
<wgt id='1575'>0.66763E+03</wgt>
<wgt id='1576'>0.69736E+03</wgt>
<wgt id='1577'>0.70037E+03</wgt>
<wgt id='1578'>0.73160E+03</wgt>
<wgt id='1579'>0.66630E+03</wgt>
<wgt id='1580'>0.68118E+03</wgt>
<wgt id='1581'>0.69553E+03</wgt>
<wgt id='1582'>0.71925E+03</wgt>
<wgt id='1583'>0.63761E+03</wgt>
<wgt id='1584'>0.69451E+03</wgt>
<wgt id='1585'>0.68322E+03</wgt>
<wgt id='1586'>0.71110E+03</wgt>
<wgt id='1587'>0.66930E+03</wgt>
<wgt id='1588'>0.69194E+03</wgt>
<wgt id='1589'>0.70028E+03</wgt>
<wgt id='1590'>0.70749E+03</wgt>
<wgt id='1591'>0.70901E+03</wgt>
<wgt id='1592'>0.71862E+03</wgt>
<wgt id='1593'>0.68110E+03</wgt>
<wgt id='1594'>0.68348E+03</wgt>
<wgt id='1595'>0.62887E+03</wgt>
<wgt id='1596'>0.71880E+03</wgt>
<wgt id='1597'>0.70347E+03</wgt>
<wgt id='1598'>0.70816E+03</wgt>
<wgt id='1599'>0.70188E+03</wgt>
<wgt id='1600'>0.60984E+03</wgt>
<wgt id='1601'>0.68567E+03</wgt>
<wgt id='1602'>0.70365E+03</wgt>
<wgt id='1700'>0.65809E+03</wgt>
<wgt id='1800'>0.65365E+03</wgt>
<wgt id='1850'>0.82228E+03</wgt>
<wgt id='1900'>0.71692E+03</wgt>
<wgt id='1950'>0.88999E+03</wgt>
</rwgt>
</event>
<event>
     13 322222  6.87070E+02  1.29429E+02 -1.00000E+00  1.17527E-01
      21    -1     0     0   502   503  0.000000000E+00  0.000000000E+00  3.367990337E+02  3.367990337E+02  0.000000000E+00  0.00000E+00  9.000E+00
      21    -1     0     0   503   504  0.000000000E+00  0.000000000E+00 -3.722219574E+02  3.722219574E+02  0.000000000E+00  0.00000E+00  9.000E+00
       6     2     1     2   502     0 -1.489109308E+02  6.636882271E+01  1.797799621E+02  2.975714378E+02  1.721878040E+02  0.00000E+00  9.000E+00
      -6     2     1     2     0   505  2.179734214E+01 -4.199797955E+01 -2.447403022E+01  1.809516168E+02  1.729322268E+02  0.00000E+00  9.000E+00
      21     1     1     2   505   504  1.271135887E+02 -2.437084316E+01 -1.907288555E+02  2.304979366E+02  3.814697266E-06  0.00000E+00  9.000E+00
      24     2     3     3     0     0 -1.040360398E+02  1.766314701E+01  1.894905421E+02  2.304645525E+02  7.792149944E+01  0.00000E+00  9.000E+00
       5     1     3     3   502     0 -4.487489097E+01  4.870567570E+01 -9.710579970E+00  6.710688525E+01  4.800000000E+00  0.00000E+00 -1.000E+00
     -24     2     4     4     0     0  1.559963449E+00  1.818068061E+01 -6.534564417E+01  1.052908511E+02  8.051794512E+01  0.00000E+00  9.000E+00
      -5     1     4     4     0   505  2.023737870E+01 -6.017866016E+01  4.087161394E+01  7.566076567E+01  4.800000000E+00  0.00000E+00  1.000E+00
      -1     1     6     6     0   506 -6.103657804E+01  4.816515981E+01  1.010161008E+02  1.274739546E+02  1.000000000E-01  0.00000E+00  1.000E+00
       2     1     6     6   506     0 -4.299946180E+01 -3.050201279E+01  8.847444125E+01  1.029905979E+02  1.000000000E-01  0.00000E+00 -1.000E+00
       1     1     8     8   515     0 -3.755104483E+01  4.249494897E+00 -4.579767091E+01  5.937655965E+01  1.000000000E-01  0.00000E+00 -1.000E+00
      -4     1     8     8     0   515  3.911100827E+01  1.393118571E+01 -1.954797325E+01  4.591429148E+01  1.500000000E+00  0.00000E+00  1.000E+00
#rwgt            1           1   506.72827702121862                2        2503           0
<rwgt>
<wgt id='1001'>0.68707E+03</wgt>
<wgt id='1002'>0.61731E+03</wgt>
<wgt id='1003'>0.78296E+03</wgt>
<wgt id='1004'>0.71802E+03</wgt>
<wgt id='1005'>0.65468E+03</wgt>
<wgt id='1006'>0.80135E+03</wgt>
<wgt id='1007'>0.58702E+03</wgt>
<wgt id='1008'>0.51075E+03</wgt>
<wgt id='1009'>0.69840E+03</wgt>
<wgt id='2000'>0.68707E+03</wgt>
<wgt id='2001'>0.68616E+03</wgt>
<wgt id='2002'>0.68799E+03</wgt>
<wgt id='2003'>0.68824E+03</wgt>
<wgt id='2004'>0.68851E+03</wgt>
<wgt id='2005'>0.68578E+03</wgt>
<wgt id='2006'>0.68477E+03</wgt>
<wgt id='2007'>0.68397E+03</wgt>
<wgt id='2008'>0.68355E+03</wgt>
<wgt id='2009'>0.68860E+03</wgt>
<wgt id='2010'>0.68786E+03</wgt>
<wgt id='2011'>0.68506E+03</wgt>
<wgt id='2012'>0.68700E+03</wgt>
<wgt id='2013'>0.68655E+03</wgt>
<wgt id='2014'>0.68988E+03</wgt>
<wgt id='2015'>0.68894E+03</wgt>
<wgt id='2016'>0.68793E+03</wgt>
<wgt id='2017'>0.68677E+03</wgt>
<wgt id='2018'>0.68880E+03</wgt>
<wgt id='2019'>0.68711E+03</wgt>
<wgt id='2020'>0.69061E+03</wgt>
<wgt id='2021'>0.68523E+03</wgt>
<wgt id='2022'>0.68981E+03</wgt>
<wgt id='2023'>0.68924E+03</wgt>
<wgt id='2024'>0.68602E+03</wgt>
<wgt id='2025'>0.69134E+03</wgt>
<wgt id='2026'>0.69108E+03</wgt>
<wgt id='2027'>0.68528E+03</wgt>
<wgt id='2028'>0.68403E+03</wgt>
<wgt id='2029'>0.68978E+03</wgt>
<wgt id='2030'>0.68694E+03</wgt>
<wgt id='2031'>0.68889E+03</wgt>
<wgt id='2032'>0.68597E+03</wgt>
<wgt id='2033'>0.68748E+03</wgt>
<wgt id='2034'>0.69021E+03</wgt>
<wgt id='2035'>0.68662E+03</wgt>
<wgt id='2036'>0.68702E+03</wgt>
<wgt id='2037'>0.68979E+03</wgt>
<wgt id='2038'>0.68774E+03</wgt>
<wgt id='2039'>0.68515E+03</wgt>
<wgt id='2040'>0.68568E+03</wgt>
<wgt id='2041'>0.68558E+03</wgt>
<wgt id='2042'>0.68630E+03</wgt>
<wgt id='2043'>0.68969E+03</wgt>
<wgt id='2044'>0.68904E+03</wgt>
<wgt id='2045'>0.68674E+03</wgt>
<wgt id='2046'>0.68644E+03</wgt>
<wgt id='2047'>0.68679E+03</wgt>
<wgt id='2048'>0.68782E+03</wgt>
<wgt id='2049'>0.68784E+03</wgt>
<wgt id='2050'>0.68660E+03</wgt>
<wgt id='2051'>0.68828E+03</wgt>
<wgt id='2052'>0.68700E+03</wgt>
<wgt id='2053'>0.68682E+03</wgt>
<wgt id='2054'>0.68676E+03</wgt>
<wgt id='2055'>0.68639E+03</wgt>
<wgt id='2056'>0.68775E+03</wgt>
<wgt id='2057'>0.68794E+03</wgt>
<wgt id='2058'>0.68773E+03</wgt>
<wgt id='2059'>0.68664E+03</wgt>
<wgt id='2060'>0.68715E+03</wgt>
<wgt id='2061'>0.68650E+03</wgt>
<wgt id='2062'>0.68688E+03</wgt>
<wgt id='2063'>0.68754E+03</wgt>
<wgt id='2064'>0.68690E+03</wgt>
<wgt id='2065'>0.68745E+03</wgt>
<wgt id='2066'>0.68704E+03</wgt>
<wgt id='2067'>0.68677E+03</wgt>
<wgt id='2068'>0.68717E+03</wgt>
<wgt id='2069'>0.68713E+03</wgt>
<wgt id='2070'>0.68698E+03</wgt>
<wgt id='2071'>0.68725E+03</wgt>
<wgt id='2072'>0.68738E+03</wgt>
<wgt id='2073'>0.68723E+03</wgt>
<wgt id='2074'>0.68705E+03</wgt>
<wgt id='2075'>0.68676E+03</wgt>
<wgt id='2076'>0.68725E+03</wgt>
<wgt id='2077'>0.68656E+03</wgt>
<wgt id='2078'>0.68723E+03</wgt>
<wgt id='2079'>0.68704E+03</wgt>
<wgt id='2080'>0.68756E+03</wgt>
<wgt id='2081'>0.68716E+03</wgt>
<wgt id='2082'>0.68732E+03</wgt>
<wgt id='2083'>0.68742E+03</wgt>
<wgt id='2084'>0.68690E+03</wgt>
<wgt id='2085'>0.68780E+03</wgt>
<wgt id='2086'>0.68730E+03</wgt>
<wgt id='2087'>0.68661E+03</wgt>
<wgt id='2088'>0.68696E+03</wgt>
<wgt id='2089'>0.68681E+03</wgt>
<wgt id='2090'>0.68728E+03</wgt>
<wgt id='2091'>0.68701E+03</wgt>
<wgt id='2092'>0.68714E+03</wgt>
<wgt id='2093'>0.68702E+03</wgt>
<wgt id='2094'>0.68702E+03</wgt>
<wgt id='2095'>0.68710E+03</wgt>
<wgt id='2096'>0.68675E+03</wgt>
<wgt id='2097'>0.68736E+03</wgt>
<wgt id='2098'>0.68667E+03</wgt>
<wgt id='2099'>0.68727E+03</wgt>
<wgt id='2100'>0.68730E+03</wgt>
<wgt id='2101'>0.67666E+03</wgt>
<wgt id='2102'>0.69487E+03</wgt>
<wgt id='2104'>0.64732E+03</wgt>
<wgt id='2105'>0.65507E+03</wgt>
<wgt id='2106'>0.66482E+03</wgt>
<wgt id='2107'>0.67464E+03</wgt>
<wgt id='2108'>0.68484E+03</wgt>
<wgt id='2109'>0.69156E+03</wgt>
<wgt id='2110'>0.69880E+03</wgt>
<wgt id='2111'>0.70394E+03</wgt>
<wgt id='3000'>0.70681E+03</wgt>
<wgt id='3001'>0.70763E+03</wgt>
<wgt id='3002'>0.70618E+03</wgt>
<wgt id='3003'>0.70741E+03</wgt>
<wgt id='3004'>0.70807E+03</wgt>
<wgt id='3005'>0.70880E+03</wgt>
<wgt id='3006'>0.70657E+03</wgt>
<wgt id='3007'>0.70946E+03</wgt>
<wgt id='3008'>0.70691E+03</wgt>
<wgt id='3009'>0.70961E+03</wgt>
<wgt id='3010'>0.70564E+03</wgt>
<wgt id='3011'>0.70526E+03</wgt>
<wgt id='3012'>0.70812E+03</wgt>
<wgt id='3013'>0.70713E+03</wgt>
<wgt id='3014'>0.70807E+03</wgt>
<wgt id='3015'>0.70566E+03</wgt>
<wgt id='3016'>0.70699E+03</wgt>
<wgt id='3017'>0.70836E+03</wgt>
<wgt id='3018'>0.70917E+03</wgt>
<wgt id='3019'>0.70491E+03</wgt>
<wgt id='3020'>0.70438E+03</wgt>
<wgt id='3021'>0.70363E+03</wgt>
<wgt id='3022'>0.70670E+03</wgt>
<wgt id='3023'>0.70472E+03</wgt>
<wgt id='3024'>0.70342E+03</wgt>
<wgt id='3025'>0.70732E+03</wgt>
<wgt id='3026'>0.70906E+03</wgt>
<wgt id='3027'>0.70714E+03</wgt>
<wgt id='3028'>0.70266E+03</wgt>
<wgt id='3029'>0.70387E+03</wgt>
<wgt id='3030'>0.70999E+03</wgt>
<wgt id='3031'>0.70872E+03</wgt>
<wgt id='3032'>0.70856E+03</wgt>
<wgt id='3033'>0.70906E+03</wgt>
<wgt id='3034'>0.70783E+03</wgt>
<wgt id='3035'>0.71036E+03</wgt>
<wgt id='3036'>0.70794E+03</wgt>
<wgt id='3037'>0.70563E+03</wgt>
<wgt id='3038'>0.70773E+03</wgt>
<wgt id='3039'>0.70688E+03</wgt>
<wgt id='3040'>0.70663E+03</wgt>
<wgt id='3041'>0.70731E+03</wgt>
<wgt id='3042'>0.70473E+03</wgt>
<wgt id='3043'>0.70477E+03</wgt>
<wgt id='3044'>0.70735E+03</wgt>
<wgt id='3045'>0.70868E+03</wgt>
<wgt id='3046'>0.70593E+03</wgt>
<wgt id='3047'>0.70590E+03</wgt>
<wgt id='3048'>0.70859E+03</wgt>
<wgt id='3049'>0.70629E+03</wgt>
<wgt id='3050'>0.70924E+03</wgt>
<wgt id='3051'>0.70639E+03</wgt>
<wgt id='3052'>0.70685E+03</wgt>
<wgt id='3053'>0.70670E+03</wgt>
<wgt id='3054'>0.70645E+03</wgt>
<wgt id='3055'>0.70505E+03</wgt>
<wgt id='3056'>0.70679E+03</wgt>
<wgt id='3057'>0.70625E+03</wgt>
<wgt id='3058'>0.70627E+03</wgt>
<wgt id='3059'>0.70699E+03</wgt>
<wgt id='3060'>0.70704E+03</wgt>
<wgt id='3061'>0.70690E+03</wgt>
<wgt id='3062'>0.70715E+03</wgt>
<wgt id='3063'>0.70701E+03</wgt>
<wgt id='3064'>0.70687E+03</wgt>
<wgt id='3065'>0.70703E+03</wgt>
<wgt id='3066'>0.70740E+03</wgt>
<wgt id='3067'>0.70667E+03</wgt>
<wgt id='3068'>0.70673E+03</wgt>
<wgt id='3069'>0.70680E+03</wgt>
<wgt id='3070'>0.70714E+03</wgt>
<wgt id='3071'>0.70673E+03</wgt>
<wgt id='3072'>0.70682E+03</wgt>
<wgt id='3073'>0.70676E+03</wgt>
<wgt id='3074'>0.70688E+03</wgt>
<wgt id='3075'>0.70709E+03</wgt>
<wgt id='3076'>0.70709E+03</wgt>
<wgt id='3077'>0.70701E+03</wgt>
<wgt id='3078'>0.70678E+03</wgt>
<wgt id='3079'>0.70658E+03</wgt>
<wgt id='3080'>0.70727E+03</wgt>
<wgt id='3081'>0.70670E+03</wgt>
<wgt id='3082'>0.70648E+03</wgt>
<wgt id='3083'>0.70680E+03</wgt>
<wgt id='3084'>0.70635E+03</wgt>
<wgt id='3085'>0.70740E+03</wgt>
<wgt id='3086'>0.70651E+03</wgt>
<wgt id='3087'>0.70634E+03</wgt>
<wgt id='3088'>0.70677E+03</wgt>
<wgt id='3089'>0.70668E+03</wgt>
<wgt id='3090'>0.70756E+03</wgt>
<wgt id='3091'>0.70704E+03</wgt>
<wgt id='3092'>0.70671E+03</wgt>
<wgt id='3093'>0.70651E+03</wgt>
<wgt id='3094'>0.70689E+03</wgt>
<wgt id='3095'>0.70708E+03</wgt>
<wgt id='3096'>0.70673E+03</wgt>
<wgt id='3097'>0.70670E+03</wgt>
<wgt id='3098'>0.70633E+03</wgt>
<wgt id='3099'>0.70682E+03</wgt>
<wgt id='3100'>0.70681E+03</wgt>
<wgt id='3101'>0.69556E+03</wgt>
<wgt id='3102'>0.71595E+03</wgt>
<wgt id='5000'>0.64800E+03</wgt>
<wgt id='5001'>0.64879E+03</wgt>
<wgt id='5002'>0.64751E+03</wgt>
<wgt id='5003'>0.64703E+03</wgt>
<wgt id='5004'>0.64070E+03</wgt>
<wgt id='5005'>0.63065E+03</wgt>
<wgt id='5006'>0.62638E+03</wgt>
<wgt id='5007'>0.63675E+03</wgt>
<wgt id='5008'>0.64741E+03</wgt>
<wgt id='5009'>0.64666E+03</wgt>
<wgt id='5010'>0.64651E+03</wgt>
<wgt id='5011'>0.64673E+03</wgt>
<wgt id='5012'>0.64968E+03</wgt>
<wgt id='5013'>0.63875E+03</wgt>
<wgt id='5014'>0.67248E+03</wgt>
<wgt id='5015'>0.65280E+03</wgt>
<wgt id='5016'>0.63461E+03</wgt>
<wgt id='5017'>0.63612E+03</wgt>
<wgt id='5018'>0.66035E+03</wgt>
<wgt id='5019'>0.66141E+03</wgt>
<wgt id='5020'>0.63589E+03</wgt>
<wgt id='5021'>0.64904E+03</wgt>
<wgt id='5022'>0.64731E+03</wgt>
<wgt id='5023'>0.64652E+03</wgt>
<wgt id='5024'>0.64949E+03</wgt>
<wgt id='5025'>0.64997E+03</wgt>
<wgt id='5026'>0.64633E+03</wgt>
<wgt id='5027'>0.65443E+03</wgt>
<wgt id='5028'>0.63722E+03</wgt>
<wgt id='5029'>0.63402E+03</wgt>
<wgt id='5030'>0.65673E+03</wgt>
<wgt id='5031'>0.63951E+03</wgt>
<wgt id='5032'>0.66071E+03</wgt>
<wgt id='5033'>0.64835E+03</wgt>
<wgt id='5034'>0.64716E+03</wgt>
<wgt id='5035'>0.65223E+03</wgt>
<wgt id='5036'>0.64359E+03</wgt>
<wgt id='5037'>0.62995E+03</wgt>
<wgt id='5038'>0.66800E+03</wgt>
<wgt id='5039'>0.66701E+03</wgt>
<wgt id='5040'>0.63798E+03</wgt>
<wgt id='5041'>0.65035E+03</wgt>
<wgt id='5042'>0.64580E+03</wgt>
<wgt id='5043'>0.65088E+03</wgt>
<wgt id='5044'>0.63984E+03</wgt>
<wgt id='5045'>0.67317E+03</wgt>
<wgt id='5046'>0.62189E+03</wgt>
<wgt id='5047'>0.66326E+03</wgt>
<wgt id='5048'>0.63749E+03</wgt>
<wgt id='5049'>0.64915E+03</wgt>
<wgt id='5050'>0.64627E+03</wgt>
<wgt id='5051'>0.64751E+03</wgt>
<wgt id='5052'>0.64884E+03</wgt>
<wgt id='5053'>0.63415E+03</wgt>
<wgt id='5054'>0.63802E+03</wgt>
<wgt id='5055'>0.64051E+03</wgt>
<wgt id='5056'>0.66418E+03</wgt>
<wgt id='5060'>0.63701E+03</wgt>
<wgt id='5070'>0.65818E+03</wgt>
<wgt id='4000'>0.65090E+03</wgt>
<wgt id='4001'>0.65092E+03</wgt>
<wgt id='4002'>0.65163E+03</wgt>
<wgt id='4003'>0.64518E+03</wgt>
<wgt id='4004'>0.63845E+03</wgt>
<wgt id='4005'>0.64834E+03</wgt>
<wgt id='4006'>0.65330E+03</wgt>
<wgt id='4007'>0.66134E+03</wgt>
<wgt id='4008'>0.63795E+03</wgt>
<wgt id='4009'>0.64547E+03</wgt>
<wgt id='4010'>0.64673E+03</wgt>
<wgt id='4011'>0.67122E+03</wgt>
<wgt id='4012'>0.63683E+03</wgt>
<wgt id='4013'>0.63752E+03</wgt>
<wgt id='4014'>0.66003E+03</wgt>
<wgt id='4015'>0.66736E+03</wgt>
<wgt id='4016'>0.63987E+03</wgt>
<wgt id='4017'>0.63662E+03</wgt>
<wgt id='4018'>0.66786E+03</wgt>
<wgt id='4019'>0.66341E+03</wgt>
<wgt id='4020'>0.63804E+03</wgt>
<wgt id='4021'>0.65584E+03</wgt>
<wgt id='4022'>0.64169E+03</wgt>
<wgt id='4023'>0.64545E+03</wgt>
<wgt id='4024'>0.65623E+03</wgt>
<wgt id='4025'>0.66184E+03</wgt>
<wgt id='4026'>0.64002E+03</wgt>
<wgt id='4027'>0.64971E+03</wgt>
<wgt id='4028'>0.65254E+03</wgt>
<wgt id='4029'>0.64501E+03</wgt>
<wgt id='4030'>0.65300E+03</wgt>
<wgt id='4031'>0.65520E+03</wgt>
<wgt id='4032'>0.64531E+03</wgt>
<wgt id='4033'>0.64345E+03</wgt>
<wgt id='4034'>0.66727E+03</wgt>
<wgt id='4035'>0.65022E+03</wgt>
<wgt id='4036'>0.65212E+03</wgt>
<wgt id='4037'>0.65555E+03</wgt>
<wgt id='4038'>0.64417E+03</wgt>
<wgt id='4039'>0.65294E+03</wgt>
<wgt id='4040'>0.64952E+03</wgt>
<wgt id='4041'>0.65228E+03</wgt>
<wgt id='4042'>0.65098E+03</wgt>
<wgt id='4043'>0.66246E+03</wgt>
<wgt id='4044'>0.65166E+03</wgt>
<wgt id='4045'>0.63011E+03</wgt>
<wgt id='4046'>0.65679E+03</wgt>
<wgt id='4047'>0.64960E+03</wgt>
<wgt id='4048'>0.62758E+03</wgt>
<wgt id='4049'>0.62691E+03</wgt>
<wgt id='4050'>0.64534E+03</wgt>
<wgt id='4051'>0.65069E+03</wgt>
<wgt id='4052'>0.65202E+03</wgt>
<wgt id='4053'>0.63229E+03</wgt>
<wgt id='4054'>0.66132E+03</wgt>
<wgt id='4055'>0.64260E+03</wgt>
<wgt id='4056'>0.66593E+03</wgt>
<wgt id='4060'>0.64059E+03</wgt>
<wgt id='4070'>0.66083E+03</wgt>
<wgt id='4080'>0.53567E+03</wgt>
<wgt id='6000'>0.68419E+03</wgt>
<wgt id='6001'>0.68450E+03</wgt>
<wgt id='6002'>0.68384E+03</wgt>
<wgt id='6003'>0.68489E+03</wgt>
<wgt id='6004'>0.68370E+03</wgt>
<wgt id='6005'>0.68837E+03</wgt>
<wgt id='6006'>0.68033E+03</wgt>
<wgt id='6007'>0.68085E+03</wgt>
<wgt id='6008'>0.68795E+03</wgt>
<wgt id='6009'>0.68548E+03</wgt>
<wgt id='6010'>0.68292E+03</wgt>
<wgt id='6011'>0.68530E+03</wgt>
<wgt id='6012'>0.68182E+03</wgt>
<wgt id='6013'>0.68379E+03</wgt>
<wgt id='6014'>0.68497E+03</wgt>
<wgt id='6015'>0.68248E+03</wgt>
<wgt id='6016'>0.68519E+03</wgt>
<wgt id='6017'>0.67983E+03</wgt>
<wgt id='6018'>0.68938E+03</wgt>
<wgt id='6019'>0.68529E+03</wgt>
<wgt id='6020'>0.68326E+03</wgt>
<wgt id='6021'>0.68148E+03</wgt>
<wgt id='6022'>0.68775E+03</wgt>
<wgt id='6023'>0.67793E+03</wgt>
<wgt id='6024'>0.68840E+03</wgt>
<wgt id='6025'>0.67905E+03</wgt>
<wgt id='6026'>0.68947E+03</wgt>
<wgt id='6027'>0.68542E+03</wgt>
<wgt id='6028'>0.68397E+03</wgt>
<wgt id='6029'>0.68503E+03</wgt>
<wgt id='6030'>0.68325E+03</wgt>
<wgt id='6031'>0.67898E+03</wgt>
<wgt id='6032'>0.69006E+03</wgt>
<wgt id='6033'>0.68749E+03</wgt>
<wgt id='6034'>0.68097E+03</wgt>
<wgt id='6035'>0.68486E+03</wgt>
<wgt id='6036'>0.68363E+03</wgt>
<wgt id='6037'>0.68440E+03</wgt>
<wgt id='6038'>0.68404E+03</wgt>
<wgt id='6039'>0.68239E+03</wgt>
<wgt id='6040'>0.68622E+03</wgt>
<wgt id='6041'>0.67908E+03</wgt>
<wgt id='6042'>0.68995E+03</wgt>
<wgt id='6043'>0.69249E+03</wgt>
<wgt id='6044'>0.68002E+03</wgt>
<wgt id='6045'>0.68368E+03</wgt>
<wgt id='6046'>0.68615E+03</wgt>
<wgt id='6047'>0.69698E+03</wgt>
<wgt id='6048'>0.66305E+03</wgt>
<wgt id='6049'>0.69022E+03</wgt>
<wgt id='6050'>0.68083E+03</wgt>
<wgt id='7000'>0.66062E+03</wgt>
<wgt id='7001'>0.66022E+03</wgt>
<wgt id='7002'>0.66119E+03</wgt>
<wgt id='7003'>0.66311E+03</wgt>
<wgt id='7004'>0.65819E+03</wgt>
<wgt id='7005'>0.66279E+03</wgt>
<wgt id='7006'>0.65978E+03</wgt>
<wgt id='7007'>0.65932E+03</wgt>
<wgt id='7008'>0.66200E+03</wgt>
<wgt id='7009'>0.66138E+03</wgt>
<wgt id='7010'>0.65993E+03</wgt>
<wgt id='7011'>0.65704E+03</wgt>
<wgt id='7012'>0.66219E+03</wgt>
<wgt id='7013'>0.66059E+03</wgt>
<wgt id='7014'>0.66073E+03</wgt>
<wgt id='7015'>0.65993E+03</wgt>
<wgt id='7016'>0.66140E+03</wgt>
<wgt id='7017'>0.66073E+03</wgt>
<wgt id='7018'>0.66059E+03</wgt>
<wgt id='7019'>0.66029E+03</wgt>
<wgt id='7020'>0.66113E+03</wgt>
<wgt id='7021'>0.65990E+03</wgt>
<wgt id='7022'>0.66112E+03</wgt>
<wgt id='7023'>0.67163E+03</wgt>
<wgt id='7024'>0.65036E+03</wgt>
<wgt id='7025'>0.66418E+03</wgt>
<wgt id='7026'>0.65181E+03</wgt>
<wgt id='7027'>0.66245E+03</wgt>
<wgt id='7028'>0.65919E+03</wgt>
<wgt id='7029'>0.66044E+03</wgt>
<wgt id='7030'>0.66180E+03</wgt>
<wgt id='7031'>0.65789E+03</wgt>
<wgt id='7032'>0.66661E+03</wgt>
<wgt id='7033'>0.66095E+03</wgt>
<wgt id='7034'>0.66032E+03</wgt>
<wgt id='7035'>0.65842E+03</wgt>
<wgt id='7036'>0.66192E+03</wgt>
<wgt id='7037'>0.66036E+03</wgt>
<wgt id='7038'>0.66128E+03</wgt>
<wgt id='7039'>0.65791E+03</wgt>
<wgt id='7040'>0.66267E+03</wgt>
<wgt id='7041'>0.66002E+03</wgt>
<wgt id='7042'>0.66073E+03</wgt>
<wgt id='7043'>0.66158E+03</wgt>
<wgt id='7044'>0.65539E+03</wgt>
<wgt id='7045'>0.64740E+03</wgt>
<wgt id='7046'>0.66872E+03</wgt>
<wgt id='7047'>0.66582E+03</wgt>
<wgt id='7048'>0.65844E+03</wgt>
<wgt id='7049'>0.65398E+03</wgt>
<wgt id='7050'>0.66399E+03</wgt>
<wgt id='7060'>0.71100E+03</wgt>
<wgt id='8000'>0.66189E+03</wgt>
<wgt id='8001'>0.66185E+03</wgt>
<wgt id='8002'>0.66215E+03</wgt>
<wgt id='8003'>0.66193E+03</wgt>
<wgt id='8004'>0.66187E+03</wgt>
<wgt id='8005'>0.66019E+03</wgt>
<wgt id='8006'>0.66250E+03</wgt>
<wgt id='8007'>0.66299E+03</wgt>
<wgt id='8008'>0.66378E+03</wgt>
<wgt id='8009'>0.66572E+03</wgt>
<wgt id='8010'>0.66103E+03</wgt>
<wgt id='8011'>0.66218E+03</wgt>
<wgt id='8012'>0.65908E+03</wgt>
<wgt id='8013'>0.66079E+03</wgt>
<wgt id='8014'>0.66353E+03</wgt>
<wgt id='8015'>0.66180E+03</wgt>
<wgt id='8016'>0.66257E+03</wgt>
<wgt id='8017'>0.66263E+03</wgt>
<wgt id='8018'>0.66338E+03</wgt>
<wgt id='8019'>0.66338E+03</wgt>
<wgt id='8020'>0.65971E+03</wgt>
<wgt id='8021'>0.66189E+03</wgt>
<wgt id='8022'>0.65755E+03</wgt>
<wgt id='8023'>0.66254E+03</wgt>
<wgt id='8024'>0.66163E+03</wgt>
<wgt id='8025'>0.66380E+03</wgt>
<wgt id='8026'>0.66341E+03</wgt>
<wgt id='8027'>0.66140E+03</wgt>
<wgt id='8028'>0.66295E+03</wgt>
<wgt id='8029'>0.65356E+03</wgt>
<wgt id='8500'>0.68338E+03</wgt>
<wgt id='8501'>0.68030E+03</wgt>
<wgt id='8502'>0.69220E+03</wgt>
<wgt id='8503'>0.68673E+03</wgt>
<wgt id='8504'>0.68004E+03</wgt>
<wgt id='8505'>0.68054E+03</wgt>
<wgt id='8506'>0.68975E+03</wgt>
<wgt id='8507'>0.67381E+03</wgt>
<wgt id='8508'>0.67072E+03</wgt>
<wgt id='8509'>0.68890E+03</wgt>
<wgt id='8510'>0.70001E+03</wgt>
<wgt id='8511'>0.68358E+03</wgt>
<wgt id='8512'>0.67608E+03</wgt>
<wgt id='8513'>0.68431E+03</wgt>
<wgt id='8514'>0.66588E+03</wgt>
<wgt id='8515'>0.68939E+03</wgt>
<wgt id='8516'>0.68189E+03</wgt>
<wgt id='8517'>0.67702E+03</wgt>
<wgt id='8518'>0.67951E+03</wgt>
<wgt id='8519'>0.67988E+03</wgt>
<wgt id='8520'>0.68279E+03</wgt>
<wgt id='8521'>0.68253E+03</wgt>
<wgt id='8522'>0.68412E+03</wgt>
<wgt id='8523'>0.68004E+03</wgt>
<wgt id='8524'>0.68608E+03</wgt>
<wgt id='8525'>0.68281E+03</wgt>
<wgt id='8526'>0.68303E+03</wgt>
<wgt id='8527'>0.68333E+03</wgt>
<wgt id='8528'>0.68158E+03</wgt>
<wgt id='8529'>0.68204E+03</wgt>
<wgt id='8530'>0.68394E+03</wgt>
<wgt id='8531'>0.68322E+03</wgt>
<wgt id='8532'>0.68331E+03</wgt>
<wgt id='8533'>0.68207E+03</wgt>
<wgt id='8534'>0.68370E+03</wgt>
<wgt id='8535'>0.68503E+03</wgt>
<wgt id='8536'>0.68291E+03</wgt>
<wgt id='8537'>0.68310E+03</wgt>
<wgt id='8538'>0.68322E+03</wgt>
<wgt id='8539'>0.68329E+03</wgt>
<wgt id='8540'>0.68408E+03</wgt>
<wgt id='8541'>0.68360E+03</wgt>
<wgt id='8542'>0.68336E+03</wgt>
<wgt id='8543'>0.68233E+03</wgt>
<wgt id='8544'>0.68401E+03</wgt>
<wgt id='8545'>0.68395E+03</wgt>
<wgt id='8546'>0.68387E+03</wgt>
<wgt id='8547'>0.68312E+03</wgt>
<wgt id='8548'>0.68257E+03</wgt>
<wgt id='8549'>0.68344E+03</wgt>
<wgt id='8550'>0.68332E+03</wgt>
<wgt id='8551'>0.68312E+03</wgt>
<wgt id='8552'>0.68322E+03</wgt>
<wgt id='8553'>0.68257E+03</wgt>
<wgt id='8554'>0.68297E+03</wgt>
<wgt id='8555'>0.68352E+03</wgt>
<wgt id='8556'>0.68308E+03</wgt>
<wgt id='8557'>0.68327E+03</wgt>
<wgt id='8558'>0.68359E+03</wgt>
<wgt id='8559'>0.68317E+03</wgt>
<wgt id='8560'>0.68281E+03</wgt>
<wgt id='8561'>0.68361E+03</wgt>
<wgt id='8562'>0.68356E+03</wgt>
<wgt id='8563'>0.68359E+03</wgt>
<wgt id='8564'>0.68321E+03</wgt>
<wgt id='8565'>0.68362E+03</wgt>
<wgt id='8566'>0.68395E+03</wgt>
<wgt id='8567'>0.68355E+03</wgt>
<wgt id='8568'>0.68370E+03</wgt>
<wgt id='8569'>0.68350E+03</wgt>
<wgt id='8570'>0.68297E+03</wgt>
<wgt id='8571'>0.68283E+03</wgt>
<wgt id='8572'>0.68357E+03</wgt>
<wgt id='8573'>0.68273E+03</wgt>
<wgt id='8574'>0.68325E+03</wgt>
<wgt id='8575'>0.68270E+03</wgt>
<wgt id='8576'>0.68375E+03</wgt>
<wgt id='8577'>0.68329E+03</wgt>
<wgt id='8578'>0.68344E+03</wgt>
<wgt id='8579'>0.68426E+03</wgt>
<wgt id='8580'>0.68325E+03</wgt>
<wgt id='8581'>0.68359E+03</wgt>
<wgt id='8582'>0.68298E+03</wgt>
<wgt id='8583'>0.68329E+03</wgt>
<wgt id='8584'>0.68376E+03</wgt>
<wgt id='8585'>0.68333E+03</wgt>
<wgt id='8586'>0.68406E+03</wgt>
<wgt id='8587'>0.68324E+03</wgt>
<wgt id='8588'>0.68330E+03</wgt>
<wgt id='8589'>0.68358E+03</wgt>
<wgt id='8590'>0.68333E+03</wgt>
<wgt id='8591'>0.68312E+03</wgt>
<wgt id='8592'>0.68342E+03</wgt>
<wgt id='8593'>0.68312E+03</wgt>
<wgt id='8594'>0.68332E+03</wgt>
<wgt id='8595'>0.68316E+03</wgt>
<wgt id='8596'>0.68340E+03</wgt>
<wgt id='8597'>0.68349E+03</wgt>
<wgt id='8598'>0.68353E+03</wgt>
<wgt id='8599'>0.68335E+03</wgt>
<wgt id='8600'>0.68347E+03</wgt>
<wgt id='8601'>0.67987E+03</wgt>
<wgt id='8602'>0.68566E+03</wgt>
<wgt id='9000'>0.66185E+03</wgt>
<wgt id='9001'>0.66002E+03</wgt>
<wgt id='9002'>0.66662E+03</wgt>
<wgt id='9003'>0.65469E+03</wgt>
<wgt id='9004'>0.66064E+03</wgt>
<wgt id='9005'>0.66616E+03</wgt>
<wgt id='9006'>0.65868E+03</wgt>
<wgt id='9007'>0.65662E+03</wgt>
<wgt id='9008'>0.66009E+03</wgt>
<wgt id='9009'>0.66125E+03</wgt>
<wgt id='9010'>0.65462E+03</wgt>
<wgt id='9011'>0.67166E+03</wgt>
<wgt id='9012'>0.66543E+03</wgt>
<wgt id='9013'>0.64977E+03</wgt>
<wgt id='9014'>0.66156E+03</wgt>
<wgt id='9015'>0.66373E+03</wgt>
<wgt id='9016'>0.67594E+03</wgt>
<wgt id='9017'>0.65513E+03</wgt>
<wgt id='9018'>0.65898E+03</wgt>
<wgt id='9019'>0.66164E+03</wgt>
<wgt id='9020'>0.66527E+03</wgt>
<wgt id='9021'>0.66498E+03</wgt>
<wgt id='9022'>0.66491E+03</wgt>
<wgt id='9023'>0.65641E+03</wgt>
<wgt id='9024'>0.65974E+03</wgt>
<wgt id='9025'>0.66465E+03</wgt>
<wgt id='9026'>0.66202E+03</wgt>
<wgt id='9027'>0.66081E+03</wgt>
<wgt id='9028'>0.66281E+03</wgt>
<wgt id='9029'>0.66259E+03</wgt>
<wgt id='9030'>0.66181E+03</wgt>
<wgt id='9031'>0.66092E+03</wgt>
<wgt id='9032'>0.66231E+03</wgt>
<wgt id='9033'>0.66267E+03</wgt>
<wgt id='9034'>0.66233E+03</wgt>
<wgt id='9035'>0.66312E+03</wgt>
<wgt id='9036'>0.66194E+03</wgt>
<wgt id='9037'>0.66238E+03</wgt>
<wgt id='9038'>0.66195E+03</wgt>
<wgt id='9039'>0.66193E+03</wgt>
<wgt id='9040'>0.66156E+03</wgt>
<wgt id='9041'>0.66133E+03</wgt>
<wgt id='9042'>0.66184E+03</wgt>
<wgt id='9043'>0.66101E+03</wgt>
<wgt id='9044'>0.66265E+03</wgt>
<wgt id='9045'>0.66155E+03</wgt>
<wgt id='9046'>0.66092E+03</wgt>
<wgt id='9047'>0.66161E+03</wgt>
<wgt id='9048'>0.66200E+03</wgt>
<wgt id='9049'>0.66126E+03</wgt>
<wgt id='9050'>0.66212E+03</wgt>
<wgt id='9051'>0.66256E+03</wgt>
<wgt id='9052'>0.66224E+03</wgt>
<wgt id='9053'>0.66205E+03</wgt>
<wgt id='9054'>0.66152E+03</wgt>
<wgt id='9055'>0.66178E+03</wgt>
<wgt id='9056'>0.66225E+03</wgt>
<wgt id='9057'>0.66180E+03</wgt>
<wgt id='9058'>0.66150E+03</wgt>
<wgt id='9059'>0.66164E+03</wgt>
<wgt id='9060'>0.66176E+03</wgt>
<wgt id='9061'>0.66179E+03</wgt>
<wgt id='9062'>0.66210E+03</wgt>
<wgt id='9063'>0.66225E+03</wgt>
<wgt id='9064'>0.66203E+03</wgt>
<wgt id='9065'>0.66184E+03</wgt>
<wgt id='9066'>0.66191E+03</wgt>
<wgt id='9067'>0.66146E+03</wgt>
<wgt id='9068'>0.66247E+03</wgt>
<wgt id='9069'>0.66207E+03</wgt>
<wgt id='9070'>0.66188E+03</wgt>
<wgt id='9071'>0.66192E+03</wgt>
<wgt id='9072'>0.66198E+03</wgt>
<wgt id='9073'>0.66181E+03</wgt>
<wgt id='9074'>0.66224E+03</wgt>
<wgt id='9075'>0.66173E+03</wgt>
<wgt id='9076'>0.66181E+03</wgt>
<wgt id='9077'>0.66208E+03</wgt>
<wgt id='9078'>0.66195E+03</wgt>
<wgt id='9079'>0.66117E+03</wgt>
<wgt id='9080'>0.66252E+03</wgt>
<wgt id='9081'>0.66137E+03</wgt>
<wgt id='9082'>0.66179E+03</wgt>
<wgt id='9083'>0.66157E+03</wgt>
<wgt id='9084'>0.66152E+03</wgt>
<wgt id='9085'>0.66153E+03</wgt>
<wgt id='9086'>0.66201E+03</wgt>
<wgt id='9087'>0.66102E+03</wgt>
<wgt id='9088'>0.66188E+03</wgt>
<wgt id='9089'>0.66172E+03</wgt>
<wgt id='9090'>0.66211E+03</wgt>
<wgt id='9091'>0.66168E+03</wgt>
<wgt id='9092'>0.66169E+03</wgt>
<wgt id='9093'>0.66162E+03</wgt>
<wgt id='9094'>0.66176E+03</wgt>
<wgt id='9095'>0.66180E+03</wgt>
<wgt id='9096'>0.66177E+03</wgt>
<wgt id='9097'>0.66191E+03</wgt>
<wgt id='9098'>0.66191E+03</wgt>
<wgt id='9099'>0.66156E+03</wgt>
<wgt id='9100'>0.66191E+03</wgt>
<wgt id='9101'>0.66009E+03</wgt>
<wgt id='9102'>0.66420E+03</wgt>
<wgt id='10000'>0.68330E+03</wgt>
<wgt id='10001'>0.69081E+03</wgt>
<wgt id='10002'>0.67402E+03</wgt>
<wgt id='10003'>0.68248E+03</wgt>
<wgt id='10004'>0.66349E+03</wgt>
<wgt id='10005'>0.69778E+03</wgt>
<wgt id='10006'>0.67885E+03</wgt>
<wgt id='10007'>0.68331E+03</wgt>
<wgt id='10008'>0.68760E+03</wgt>
<wgt id='10009'>0.67980E+03</wgt>
<wgt id='10010'>0.68718E+03</wgt>
<wgt id='10011'>0.67905E+03</wgt>
<wgt id='10012'>0.68425E+03</wgt>
<wgt id='10013'>0.68448E+03</wgt>
<wgt id='10014'>0.68089E+03</wgt>
<wgt id='10015'>0.68194E+03</wgt>
<wgt id='10016'>0.67808E+03</wgt>
<wgt id='10017'>0.69167E+03</wgt>
<wgt id='10018'>0.68440E+03</wgt>
<wgt id='10019'>0.68727E+03</wgt>
<wgt id='10020'>0.68017E+03</wgt>
<wgt id='10021'>0.68132E+03</wgt>
<wgt id='10022'>0.68316E+03</wgt>
<wgt id='10023'>0.68383E+03</wgt>
<wgt id='10024'>0.68177E+03</wgt>
<wgt id='10025'>0.68228E+03</wgt>
<wgt id='10026'>0.68853E+03</wgt>
<wgt id='10027'>0.68631E+03</wgt>
<wgt id='10028'>0.69704E+03</wgt>
<wgt id='10029'>0.68367E+03</wgt>
<wgt id='10030'>0.68359E+03</wgt>
<wgt id='10031'>0.67987E+03</wgt>
<wgt id='10032'>0.68566E+03</wgt>
<wgt id='11000'>0.66177E+03</wgt>
<wgt id='11001'>0.64657E+03</wgt>
<wgt id='11002'>0.66767E+03</wgt>
<wgt id='11003'>0.66102E+03</wgt>
<wgt id='11004'>0.67072E+03</wgt>
<wgt id='11005'>0.65763E+03</wgt>
<wgt id='11006'>0.66218E+03</wgt>
<wgt id='11007'>0.65910E+03</wgt>
<wgt id='11008'>0.66118E+03</wgt>
<wgt id='11009'>0.65748E+03</wgt>
<wgt id='11010'>0.65760E+03</wgt>
<wgt id='11011'>0.65910E+03</wgt>
<wgt id='11012'>0.66330E+03</wgt>
<wgt id='11013'>0.66397E+03</wgt>
<wgt id='11014'>0.65998E+03</wgt>
<wgt id='11015'>0.66252E+03</wgt>
<wgt id='11016'>0.66098E+03</wgt>
<wgt id='11017'>0.66676E+03</wgt>
<wgt id='11018'>0.66084E+03</wgt>
<wgt id='11019'>0.66049E+03</wgt>
<wgt id='11020'>0.66531E+03</wgt>
<wgt id='11021'>0.66324E+03</wgt>
<wgt id='11022'>0.67678E+03</wgt>
<wgt id='11023'>0.66208E+03</wgt>
<wgt id='11024'>0.66518E+03</wgt>
<wgt id='11025'>0.66311E+03</wgt>
<wgt id='11026'>0.66184E+03</wgt>
<wgt id='11027'>0.66079E+03</wgt>
<wgt id='11028'>0.66361E+03</wgt>
<wgt id='11029'>0.66863E+03</wgt>
<wgt id='11030'>0.66155E+03</wgt>
<wgt id='11031'>0.66009E+03</wgt>
<wgt id='11032'>0.66420E+03</wgt>
<wgt id='12000'>0.71333E+03</wgt>
<wgt id='12001'>0.71198E+03</wgt>
<wgt id='12002'>0.71468E+03</wgt>
<wgt id='12003'>0.71440E+03</wgt>
<wgt id='12004'>0.71226E+03</wgt>
<wgt id='12005'>0.71502E+03</wgt>
<wgt id='12006'>0.71165E+03</wgt>
<wgt id='12007'>0.71850E+03</wgt>
<wgt id='12008'>0.70827E+03</wgt>
<wgt id='12009'>0.71342E+03</wgt>
<wgt id='12010'>0.71329E+03</wgt>
<wgt id='12011'>0.70761E+03</wgt>
<wgt id='12012'>0.71967E+03</wgt>
<wgt id='12013'>0.71073E+03</wgt>
<wgt id='12014'>0.71600E+03</wgt>
<wgt id='12015'>0.71280E+03</wgt>
<wgt id='12016'>0.71212E+03</wgt>
<wgt id='12017'>0.71723E+03</wgt>
<wgt id='12018'>0.71106E+03</wgt>
<wgt id='12019'>0.71278E+03</wgt>
<wgt id='12020'>0.71316E+03</wgt>
<wgt id='12021'>0.71745E+03</wgt>
<wgt id='12022'>0.70888E+03</wgt>
<wgt id='12023'>0.70743E+03</wgt>
<wgt id='12024'>0.71631E+03</wgt>
<wgt id='12025'>0.71286E+03</wgt>
<wgt id='12026'>0.71415E+03</wgt>
<wgt id='12027'>0.72078E+03</wgt>
<wgt id='12028'>0.70688E+03</wgt>
<wgt id='12050'>0.71333E+03</wgt>
<wgt id='12051'>0.71124E+03</wgt>
<wgt id='12052'>0.70890E+03</wgt>
<wgt id='12053'>0.71105E+03</wgt>
<wgt id='12054'>0.70950E+03</wgt>
<wgt id='12055'>0.71477E+03</wgt>
<wgt id='12056'>0.70650E+03</wgt>
<wgt id='12057'>0.70864E+03</wgt>
<wgt id='12058'>0.71280E+03</wgt>
<wgt id='12059'>0.71304E+03</wgt>
<wgt id='12060'>0.70846E+03</wgt>
<wgt id='12061'>0.70806E+03</wgt>
<wgt id='12062'>0.70917E+03</wgt>
<wgt id='12063'>0.69625E+03</wgt>
<wgt id='13000'>0.66257E+03</wgt>
<wgt id='13001'>0.65809E+03</wgt>
<wgt id='13002'>0.65978E+03</wgt>
<wgt id='13003'>0.65890E+03</wgt>
<wgt id='13004'>0.65897E+03</wgt>
<wgt id='13005'>0.66033E+03</wgt>
<wgt id='13006'>0.65754E+03</wgt>
<wgt id='13007'>0.66430E+03</wgt>
<wgt id='13008'>0.65371E+03</wgt>
<wgt id='13009'>0.65626E+03</wgt>
<wgt id='13010'>0.66171E+03</wgt>
<wgt id='13011'>0.66256E+03</wgt>
<wgt id='13012'>0.65536E+03</wgt>
<wgt id='13013'>0.65808E+03</wgt>
<wgt id='13014'>0.65971E+03</wgt>
<wgt id='13015'>0.65738E+03</wgt>
<wgt id='13016'>0.65822E+03</wgt>
<wgt id='13017'>0.66036E+03</wgt>
<wgt id='13018'>0.65754E+03</wgt>
<wgt id='13019'>0.65813E+03</wgt>
<wgt id='13020'>0.65992E+03</wgt>
<wgt id='13021'>0.65484E+03</wgt>
<wgt id='13022'>0.66240E+03</wgt>
<wgt id='13023'>0.65800E+03</wgt>
<wgt id='13024'>0.65944E+03</wgt>
<wgt id='13025'>0.65185E+03</wgt>
<wgt id='13026'>0.66401E+03</wgt>
<wgt id='13027'>0.65719E+03</wgt>
<wgt id='13028'>0.66161E+03</wgt>
<wgt id='13050'>0.66257E+03</wgt>
<wgt id='13051'>0.66009E+03</wgt>
<wgt id='13052'>0.65752E+03</wgt>
<wgt id='13053'>0.65942E+03</wgt>
<wgt id='13054'>0.65782E+03</wgt>
<wgt id='13055'>0.65377E+03</wgt>
<wgt id='13056'>0.65117E+03</wgt>
<wgt id='13057'>0.65697E+03</wgt>
<wgt id='13058'>0.66326E+03</wgt>
<wgt id='13059'>0.65962E+03</wgt>
<wgt id='13060'>0.65012E+03</wgt>
<wgt id='13061'>0.65638E+03</wgt>
<wgt id='13062'>0.66599E+03</wgt>
<wgt id='13063'>0.65710E+03</wgt>
<wgt id='14000'>0.65086E+03</wgt>
<wgt id='14001'>0.65078E+03</wgt>
<wgt id='14002'>0.65071E+03</wgt>
<wgt id='14003'>0.65064E+03</wgt>
<wgt id='14004'>0.65056E+03</wgt>
<wgt id='14005'>0.65048E+03</wgt>
<wgt id='14006'>0.65041E+03</wgt>
<wgt id='14007'>0.65034E+03</wgt>
<wgt id='14008'>0.65026E+03</wgt>
<wgt id='14009'>0.65019E+03</wgt>
<wgt id='14010'>0.65011E+03</wgt>
<wgt id='14011'>0.65004E+03</wgt>
<wgt id='14012'>0.64997E+03</wgt>
<wgt id='14013'>0.64989E+03</wgt>
<wgt id='14014'>0.64982E+03</wgt>
<wgt id='14015'>0.64974E+03</wgt>
<wgt id='14016'>0.64967E+03</wgt>
<wgt id='14017'>0.64959E+03</wgt>
<wgt id='14018'>0.64952E+03</wgt>
<wgt id='14019'>0.64944E+03</wgt>
<wgt id='14020'>0.64937E+03</wgt>
<wgt id='14021'>0.64929E+03</wgt>
<wgt id='14022'>0.64922E+03</wgt>
<wgt id='14023'>0.64915E+03</wgt>
<wgt id='14024'>0.64907E+03</wgt>
<wgt id='14025'>0.64900E+03</wgt>
<wgt id='14026'>0.64892E+03</wgt>
<wgt id='14027'>0.64885E+03</wgt>
<wgt id='14028'>0.64877E+03</wgt>
<wgt id='14029'>0.64870E+03</wgt>
<wgt id='14030'>0.64863E+03</wgt>
<wgt id='15000'>0.65292E+03</wgt>
<wgt id='15001'>0.65106E+03</wgt>
<wgt id='15002'>0.65755E+03</wgt>
<wgt id='15003'>0.64592E+03</wgt>
<wgt id='15004'>0.65174E+03</wgt>
<wgt id='15005'>0.65720E+03</wgt>
<wgt id='15006'>0.64988E+03</wgt>
<wgt id='15007'>0.64779E+03</wgt>
<wgt id='15008'>0.65118E+03</wgt>
<wgt id='15009'>0.65237E+03</wgt>
<wgt id='15010'>0.64581E+03</wgt>
<wgt id='15011'>0.66266E+03</wgt>
<wgt id='15012'>0.65648E+03</wgt>
<wgt id='15013'>0.64109E+03</wgt>
<wgt id='15014'>0.65259E+03</wgt>
<wgt id='15015'>0.65458E+03</wgt>
<wgt id='15016'>0.66689E+03</wgt>
<wgt id='15017'>0.64625E+03</wgt>
<wgt id='15018'>0.65008E+03</wgt>
<wgt id='15019'>0.65279E+03</wgt>
<wgt id='15020'>0.65638E+03</wgt>
<wgt id='15021'>0.65595E+03</wgt>
<wgt id='15022'>0.65596E+03</wgt>
<wgt id='15023'>0.64752E+03</wgt>
<wgt id='15024'>0.65077E+03</wgt>
<wgt id='15025'>0.65561E+03</wgt>
<wgt id='15026'>0.65303E+03</wgt>
<wgt id='15027'>0.65198E+03</wgt>
<wgt id='15028'>0.65391E+03</wgt>
<wgt id='15029'>0.65364E+03</wgt>
<wgt id='15030'>0.65289E+03</wgt>
<wgt id='15031'>0.65206E+03</wgt>
<wgt id='15032'>0.65335E+03</wgt>
<wgt id='15033'>0.65372E+03</wgt>
<wgt id='15034'>0.65339E+03</wgt>
<wgt id='15035'>0.65419E+03</wgt>
<wgt id='15036'>0.65301E+03</wgt>
<wgt id='15037'>0.65346E+03</wgt>
<wgt id='15038'>0.65301E+03</wgt>
<wgt id='15039'>0.65297E+03</wgt>
<wgt id='15040'>0.65263E+03</wgt>
<wgt id='15041'>0.65237E+03</wgt>
<wgt id='15042'>0.65288E+03</wgt>
<wgt id='15043'>0.65214E+03</wgt>
<wgt id='15044'>0.65371E+03</wgt>
<wgt id='15045'>0.65260E+03</wgt>
<wgt id='15046'>0.65202E+03</wgt>
<wgt id='15047'>0.65266E+03</wgt>
<wgt id='15048'>0.65308E+03</wgt>
<wgt id='15049'>0.65232E+03</wgt>
<wgt id='15050'>0.65319E+03</wgt>
<wgt id='15051'>0.65362E+03</wgt>
<wgt id='15052'>0.65330E+03</wgt>
<wgt id='15053'>0.65313E+03</wgt>
<wgt id='15054'>0.65261E+03</wgt>
<wgt id='15055'>0.65286E+03</wgt>
<wgt id='15056'>0.65329E+03</wgt>
<wgt id='15057'>0.65287E+03</wgt>
<wgt id='15058'>0.65261E+03</wgt>
<wgt id='15059'>0.65272E+03</wgt>
<wgt id='15060'>0.65284E+03</wgt>
<wgt id='15061'>0.65286E+03</wgt>
<wgt id='15062'>0.65316E+03</wgt>
<wgt id='15063'>0.65331E+03</wgt>
<wgt id='15064'>0.65310E+03</wgt>
<wgt id='15065'>0.65291E+03</wgt>
<wgt id='15066'>0.65298E+03</wgt>
<wgt id='15067'>0.65252E+03</wgt>
<wgt id='15068'>0.65354E+03</wgt>
<wgt id='15069'>0.65313E+03</wgt>
<wgt id='15070'>0.65294E+03</wgt>
<wgt id='15071'>0.65300E+03</wgt>
<wgt id='15072'>0.65305E+03</wgt>
<wgt id='15073'>0.65286E+03</wgt>
<wgt id='15074'>0.65331E+03</wgt>
<wgt id='15075'>0.65280E+03</wgt>
<wgt id='15076'>0.65290E+03</wgt>
<wgt id='15077'>0.65315E+03</wgt>
<wgt id='15078'>0.65304E+03</wgt>
<wgt id='15079'>0.65224E+03</wgt>
<wgt id='15080'>0.65357E+03</wgt>
<wgt id='15081'>0.65246E+03</wgt>
<wgt id='15082'>0.65287E+03</wgt>
<wgt id='15083'>0.65264E+03</wgt>
<wgt id='15084'>0.65259E+03</wgt>
<wgt id='15085'>0.65261E+03</wgt>
<wgt id='15086'>0.65310E+03</wgt>
<wgt id='15087'>0.65210E+03</wgt>
<wgt id='15088'>0.65294E+03</wgt>
<wgt id='15089'>0.65279E+03</wgt>
<wgt id='15090'>0.65318E+03</wgt>
<wgt id='15091'>0.65274E+03</wgt>
<wgt id='15092'>0.65276E+03</wgt>
<wgt id='15093'>0.65270E+03</wgt>
<wgt id='15094'>0.65282E+03</wgt>
<wgt id='15095'>0.65288E+03</wgt>
<wgt id='15096'>0.65284E+03</wgt>
<wgt id='15097'>0.65298E+03</wgt>
<wgt id='15098'>0.65298E+03</wgt>
<wgt id='15099'>0.65263E+03</wgt>
<wgt id='15100'>0.65298E+03</wgt>
<wgt id='15101'>0.65291E+03</wgt>
<wgt id='15102'>0.65287E+03</wgt>
<wgt id='15103'>0.65293E+03</wgt>
<wgt id='15104'>0.65293E+03</wgt>
<wgt id='15105'>0.65295E+03</wgt>
<wgt id='15106'>0.65293E+03</wgt>
<wgt id='15107'>0.65289E+03</wgt>
<wgt id='1500'>0.71699E+03</wgt>
<wgt id='1501'>0.70081E+03</wgt>
<wgt id='1502'>0.71482E+03</wgt>
<wgt id='1503'>0.73978E+03</wgt>
<wgt id='1504'>0.71124E+03</wgt>
<wgt id='1505'>0.65941E+03</wgt>
<wgt id='1506'>0.74636E+03</wgt>
<wgt id='1507'>0.71163E+03</wgt>
<wgt id='1508'>0.73062E+03</wgt>
<wgt id='1509'>0.74206E+03</wgt>
<wgt id='1510'>0.67895E+03</wgt>
<wgt id='1511'>0.64749E+03</wgt>
<wgt id='1512'>0.73573E+03</wgt>
<wgt id='1513'>0.72692E+03</wgt>
<wgt id='1514'>0.68614E+03</wgt>
<wgt id='1515'>0.73324E+03</wgt>
<wgt id='1516'>0.72773E+03</wgt>
<wgt id='1517'>0.73108E+03</wgt>
<wgt id='1518'>0.73192E+03</wgt>
<wgt id='1519'>0.73634E+03</wgt>
<wgt id='1520'>0.76689E+03</wgt>
<wgt id='1521'>0.72024E+03</wgt>
<wgt id='1522'>0.69270E+03</wgt>
<wgt id='1523'>0.78032E+03</wgt>
<wgt id='1524'>0.72292E+03</wgt>
<wgt id='1525'>0.71036E+03</wgt>
<wgt id='1526'>0.72368E+03</wgt>
<wgt id='1527'>0.71938E+03</wgt>
<wgt id='1528'>0.70137E+03</wgt>
<wgt id='1529'>0.73945E+03</wgt>
<wgt id='1530'>0.75399E+03</wgt>
<wgt id='1531'>0.70444E+03</wgt>
<wgt id='1532'>0.68228E+03</wgt>
<wgt id='1533'>0.69458E+03</wgt>
<wgt id='1534'>0.71279E+03</wgt>
<wgt id='1535'>0.73283E+03</wgt>
<wgt id='1536'>0.72408E+03</wgt>
<wgt id='1537'>0.73385E+03</wgt>
<wgt id='1538'>0.72947E+03</wgt>
<wgt id='1539'>0.70849E+03</wgt>
<wgt id='1540'>0.71151E+03</wgt>
<wgt id='1541'>0.72426E+03</wgt>
<wgt id='1542'>0.70865E+03</wgt>
<wgt id='1543'>0.71996E+03</wgt>
<wgt id='1544'>0.72787E+03</wgt>
<wgt id='1545'>0.69832E+03</wgt>
<wgt id='1546'>0.73502E+03</wgt>
<wgt id='1547'>0.71475E+03</wgt>
<wgt id='1548'>0.72007E+03</wgt>
<wgt id='1549'>0.70218E+03</wgt>
<wgt id='1550'>0.70402E+03</wgt>
<wgt id='1551'>0.71645E+03</wgt>
<wgt id='1552'>0.70251E+03</wgt>
<wgt id='1553'>0.72869E+03</wgt>
<wgt id='1554'>0.72080E+03</wgt>
<wgt id='1555'>0.70052E+03</wgt>
<wgt id='1556'>0.71191E+03</wgt>
<wgt id='1557'>0.72976E+03</wgt>
<wgt id='1558'>0.69878E+03</wgt>
<wgt id='1559'>0.74092E+03</wgt>
<wgt id='1560'>0.71243E+03</wgt>
<wgt id='1561'>0.71496E+03</wgt>
<wgt id='1562'>0.73060E+03</wgt>
<wgt id='1563'>0.71280E+03</wgt>
<wgt id='1564'>0.70220E+03</wgt>
<wgt id='1565'>0.73385E+03</wgt>
<wgt id='1566'>0.70931E+03</wgt>
<wgt id='1567'>0.78637E+03</wgt>
<wgt id='1568'>0.70042E+03</wgt>
<wgt id='1569'>0.68269E+03</wgt>
<wgt id='1570'>0.70031E+03</wgt>
<wgt id='1571'>0.70873E+03</wgt>
<wgt id='1572'>0.72690E+03</wgt>
<wgt id='1573'>0.67577E+03</wgt>
<wgt id='1574'>0.72486E+03</wgt>
<wgt id='1575'>0.70821E+03</wgt>
<wgt id='1576'>0.69180E+03</wgt>
<wgt id='1577'>0.70452E+03</wgt>
<wgt id='1578'>0.73206E+03</wgt>
<wgt id='1579'>0.71160E+03</wgt>
<wgt id='1580'>0.70244E+03</wgt>
<wgt id='1581'>0.70865E+03</wgt>
<wgt id='1582'>0.68843E+03</wgt>
<wgt id='1583'>0.76686E+03</wgt>
<wgt id='1584'>0.70551E+03</wgt>
<wgt id='1585'>0.70737E+03</wgt>
<wgt id='1586'>0.70449E+03</wgt>
<wgt id='1587'>0.71810E+03</wgt>
<wgt id='1588'>0.71605E+03</wgt>
<wgt id='1589'>0.76959E+03</wgt>
<wgt id='1590'>0.70530E+03</wgt>
<wgt id='1591'>0.71491E+03</wgt>
<wgt id='1592'>0.71668E+03</wgt>
<wgt id='1593'>0.72097E+03</wgt>
<wgt id='1594'>0.72413E+03</wgt>
<wgt id='1595'>0.69378E+03</wgt>
<wgt id='1596'>0.73504E+03</wgt>
<wgt id='1597'>0.72668E+03</wgt>
<wgt id='1598'>0.72896E+03</wgt>
<wgt id='1599'>0.73609E+03</wgt>
<wgt id='1600'>0.74816E+03</wgt>
<wgt id='1601'>0.71520E+03</wgt>
<wgt id='1602'>0.71803E+03</wgt>
<wgt id='1700'>0.68259E+03</wgt>
<wgt id='1800'>0.67736E+03</wgt>
<wgt id='1850'>0.74097E+03</wgt>
<wgt id='1900'>0.75310E+03</wgt>
<wgt id='1950'>0.71529E+03</wgt>
</rwgt>
</event>
<event>
     13 322222  6.87070E+02  5.44039E+01 -1.00000E+00  1.35067E-01
      21    -1     0     0   503   504  0.000000000E+00  0.000000000E+00  1.934339094E+02  1.934339094E+02  0.000000000E+00  0.00000E+00  9.000E+00
      21    -1     0     0   504   505  0.000000000E+00  0.000000000E+00 -7.778541609E+02  7.778541609E+02  0.000000000E+00  0.00000E+00  9.000E+00
       6     2     1     2   502     0 -1.349348955E+02  1.373626224E+02 -7.039645581E+01  2.684647393E+02  1.733255296E+02  0.00000E+00  9.000E+00
      -6     2     1     2     0   505  1.166407637E+02 -8.612678554E+01 -5.771439722E+02  6.194930069E+02  1.722020033E+02  0.00000E+00  9.000E+00
      21     1     1     2   503   502  1.829413173E+01 -5.123583689E+01  6.312017655E+01  8.333032417E+01  1.348699152E-06  0.00000E+00  9.000E+00
      24     2     3     3     0     0 -1.339867827E+02  5.284697221E+01 -1.567927831E+01  1.676639280E+02  8.438064095E+01  0.00000E+00  9.000E+00
       5     1     3     3   502     0 -9.481127416E-01  8.451565022E+01 -5.471717750E+01  1.008008113E+02  4.800000000E+00  0.00000E+00 -1.000E+00
     -24     2     4     4     0     0  2.462869404E+01 -2.858118573E+01 -4.149070379E+02  4.242455232E+02  8.008094086E+01  0.00000E+00  9.000E+00
      -5     1     4     4     0   505  9.201206969E+01 -5.754559981E+01 -1.622369343E+02  1.952474837E+02  4.800000000E+00  0.00000E+00  1.000E+00
      -1     1     6     6     0   507 -1.108231595E+02  6.504587857E+01  1.261059328E+01  1.291192320E+02  1.000000000E-01  0.00000E+00  1.000E+00
       2     1     6     6   507     0 -2.316362321E+01 -1.219890636E+01 -2.828987159E+01  3.854469602E+01  1.000000000E-01  0.00000E+00 -1.000E+00
       1     1     8     8   516     0  5.117734154E+01 -1.574266030E+01 -1.895595151E+02  1.969765758E+02  1.000000000E-01  0.00000E+00 -1.000E+00
      -2     1     8     8     0   516 -2.654864750E+01 -1.283852543E+01 -2.253475228E+02  2.272689474E+02  1.000000000E-01  0.00000E+00  1.000E+00
#rwgt            1           1   704.62640907940090                2        2789           0
<rwgt>
<wgt id='1001'>0.68707E+03</wgt>
<wgt id='1002'>0.77712E+03</wgt>
<wgt id='1003'>0.58268E+03</wgt>
<wgt id='1004'>0.59188E+03</wgt>
<wgt id='1005'>0.65691E+03</wgt>
<wgt id='1006'>0.51623E+03</wgt>
<wgt id='1007'>0.80725E+03</wgt>
<wgt id='1008'>0.93458E+03</wgt>
<wgt id='1009'>0.66007E+03</wgt>
<wgt id='2000'>0.68707E+03</wgt>
<wgt id='2001'>0.68669E+03</wgt>
<wgt id='2002'>0.68796E+03</wgt>
<wgt id='2003'>0.68717E+03</wgt>
<wgt id='2004'>0.68893E+03</wgt>
<wgt id='2005'>0.68683E+03</wgt>
<wgt id='2006'>0.68518E+03</wgt>
<wgt id='2007'>0.68682E+03</wgt>
<wgt id='2008'>0.68609E+03</wgt>
<wgt id='2009'>0.68802E+03</wgt>
<wgt id='2010'>0.68666E+03</wgt>
<wgt id='2011'>0.68532E+03</wgt>
<wgt id='2012'>0.68686E+03</wgt>
<wgt id='2013'>0.68598E+03</wgt>
<wgt id='2014'>0.68654E+03</wgt>
<wgt id='2015'>0.68684E+03</wgt>
<wgt id='2016'>0.68720E+03</wgt>
<wgt id='2017'>0.68633E+03</wgt>
<wgt id='2018'>0.68622E+03</wgt>
<wgt id='2019'>0.68726E+03</wgt>
<wgt id='2020'>0.68574E+03</wgt>
<wgt id='2021'>0.68786E+03</wgt>
<wgt id='2022'>0.68457E+03</wgt>
<wgt id='2023'>0.68752E+03</wgt>
<wgt id='2024'>0.68563E+03</wgt>
<wgt id='2025'>0.68433E+03</wgt>
<wgt id='2026'>0.68666E+03</wgt>
<wgt id='2027'>0.68568E+03</wgt>
<wgt id='2028'>0.68700E+03</wgt>
<wgt id='2029'>0.69336E+03</wgt>
<wgt id='2030'>0.68812E+03</wgt>
<wgt id='2031'>0.68680E+03</wgt>
<wgt id='2032'>0.68965E+03</wgt>
<wgt id='2033'>0.68845E+03</wgt>
<wgt id='2034'>0.68641E+03</wgt>
<wgt id='2035'>0.68577E+03</wgt>
<wgt id='2036'>0.68508E+03</wgt>
<wgt id='2037'>0.68786E+03</wgt>
<wgt id='2038'>0.68702E+03</wgt>
<wgt id='2039'>0.68794E+03</wgt>
<wgt id='2040'>0.68633E+03</wgt>
<wgt id='2041'>0.68502E+03</wgt>
<wgt id='2042'>0.68363E+03</wgt>
<wgt id='2043'>0.68913E+03</wgt>
<wgt id='2044'>0.68836E+03</wgt>
<wgt id='2045'>0.68652E+03</wgt>
<wgt id='2046'>0.68874E+03</wgt>
<wgt id='2047'>0.68831E+03</wgt>
<wgt id='2048'>0.68665E+03</wgt>
<wgt id='2049'>0.68719E+03</wgt>
<wgt id='2050'>0.68834E+03</wgt>
<wgt id='2051'>0.68780E+03</wgt>
<wgt id='2052'>0.68605E+03</wgt>
<wgt id='2053'>0.68679E+03</wgt>
<wgt id='2054'>0.68743E+03</wgt>
<wgt id='2055'>0.68761E+03</wgt>
<wgt id='2056'>0.68721E+03</wgt>
<wgt id='2057'>0.68627E+03</wgt>
<wgt id='2058'>0.68729E+03</wgt>
<wgt id='2059'>0.68702E+03</wgt>
<wgt id='2060'>0.68771E+03</wgt>
<wgt id='2061'>0.68669E+03</wgt>
<wgt id='2062'>0.68665E+03</wgt>
<wgt id='2063'>0.68700E+03</wgt>
<wgt id='2064'>0.68641E+03</wgt>
<wgt id='2065'>0.68705E+03</wgt>
<wgt id='2066'>0.68660E+03</wgt>
<wgt id='2067'>0.68708E+03</wgt>
<wgt id='2068'>0.68744E+03</wgt>
<wgt id='2069'>0.68738E+03</wgt>
<wgt id='2070'>0.68710E+03</wgt>
<wgt id='2071'>0.68659E+03</wgt>
<wgt id='2072'>0.68712E+03</wgt>
<wgt id='2073'>0.68717E+03</wgt>
<wgt id='2074'>0.68736E+03</wgt>
<wgt id='2075'>0.68669E+03</wgt>
<wgt id='2076'>0.68740E+03</wgt>
<wgt id='2077'>0.68674E+03</wgt>
<wgt id='2078'>0.68699E+03</wgt>
<wgt id='2079'>0.68718E+03</wgt>
<wgt id='2080'>0.68730E+03</wgt>
<wgt id='2081'>0.68738E+03</wgt>
<wgt id='2082'>0.68732E+03</wgt>
<wgt id='2083'>0.68711E+03</wgt>
<wgt id='2084'>0.68713E+03</wgt>
<wgt id='2085'>0.68715E+03</wgt>
<wgt id='2086'>0.68689E+03</wgt>
<wgt id='2087'>0.68685E+03</wgt>
<wgt id='2088'>0.68709E+03</wgt>
<wgt id='2089'>0.68681E+03</wgt>
<wgt id='2090'>0.68690E+03</wgt>
<wgt id='2091'>0.68712E+03</wgt>
<wgt id='2092'>0.68702E+03</wgt>
<wgt id='2093'>0.68705E+03</wgt>
<wgt id='2094'>0.68719E+03</wgt>
<wgt id='2095'>0.68729E+03</wgt>
<wgt id='2096'>0.68693E+03</wgt>
<wgt id='2097'>0.68727E+03</wgt>
<wgt id='2098'>0.68706E+03</wgt>
<wgt id='2099'>0.68684E+03</wgt>
<wgt id='2100'>0.68718E+03</wgt>
<wgt id='2101'>0.67072E+03</wgt>
<wgt id='2102'>0.70708E+03</wgt>
<wgt id='2104'>0.59513E+03</wgt>
<wgt id='2105'>0.61428E+03</wgt>
<wgt id='2106'>0.63230E+03</wgt>
<wgt id='2107'>0.64830E+03</wgt>
<wgt id='2108'>0.67843E+03</wgt>
<wgt id='2109'>0.69876E+03</wgt>
<wgt id='2110'>0.72604E+03</wgt>
<wgt id='2111'>0.74553E+03</wgt>
<wgt id='3000'>0.72484E+03</wgt>
<wgt id='3001'>0.72608E+03</wgt>
<wgt id='3002'>0.72410E+03</wgt>
<wgt id='3003'>0.72437E+03</wgt>
<wgt id='3004'>0.72699E+03</wgt>
<wgt id='3005'>0.72519E+03</wgt>
<wgt id='3006'>0.72451E+03</wgt>
<wgt id='3007'>0.72529E+03</wgt>
<wgt id='3008'>0.72445E+03</wgt>
<wgt id='3009'>0.72583E+03</wgt>
<wgt id='3010'>0.72309E+03</wgt>
<wgt id='3011'>0.72375E+03</wgt>
<wgt id='3012'>0.72565E+03</wgt>
<wgt id='3013'>0.72504E+03</wgt>
<wgt id='3014'>0.72469E+03</wgt>
<wgt id='3015'>0.72379E+03</wgt>
<wgt id='3016'>0.72553E+03</wgt>
<wgt id='3017'>0.72487E+03</wgt>
<wgt id='3018'>0.72504E+03</wgt>
<wgt id='3019'>0.72506E+03</wgt>
<wgt id='3020'>0.72627E+03</wgt>
<wgt id='3021'>0.72612E+03</wgt>
<wgt id='3022'>0.72459E+03</wgt>
<wgt id='3023'>0.72474E+03</wgt>
<wgt id='3024'>0.72560E+03</wgt>
<wgt id='3025'>0.72534E+03</wgt>
<wgt id='3026'>0.72277E+03</wgt>
<wgt id='3027'>0.72567E+03</wgt>
<wgt id='3028'>0.72575E+03</wgt>
<wgt id='3029'>0.72339E+03</wgt>
<wgt id='3030'>0.72923E+03</wgt>
<wgt id='3031'>0.72708E+03</wgt>
<wgt id='3032'>0.72238E+03</wgt>
<wgt id='3033'>0.72279E+03</wgt>
<wgt id='3034'>0.72408E+03</wgt>
<wgt id='3035'>0.72382E+03</wgt>
<wgt id='3036'>0.72606E+03</wgt>
<wgt id='3037'>0.72645E+03</wgt>
<wgt id='3038'>0.72523E+03</wgt>
<wgt id='3039'>0.72800E+03</wgt>
<wgt id='3040'>0.72601E+03</wgt>
<wgt id='3041'>0.72449E+03</wgt>
<wgt id='3042'>0.72183E+03</wgt>
<wgt id='3043'>0.72178E+03</wgt>
<wgt id='3044'>0.72693E+03</wgt>
<wgt id='3045'>0.72662E+03</wgt>
<wgt id='3046'>0.72610E+03</wgt>
<wgt id='3047'>0.72389E+03</wgt>
<wgt id='3048'>0.72683E+03</wgt>
<wgt id='3049'>0.72414E+03</wgt>
<wgt id='3050'>0.72417E+03</wgt>
<wgt id='3051'>0.72724E+03</wgt>
<wgt id='3052'>0.72443E+03</wgt>
<wgt id='3053'>0.72387E+03</wgt>
<wgt id='3054'>0.72448E+03</wgt>
<wgt id='3055'>0.72536E+03</wgt>
<wgt id='3056'>0.72493E+03</wgt>
<wgt id='3057'>0.72398E+03</wgt>
<wgt id='3058'>0.72491E+03</wgt>
<wgt id='3059'>0.72438E+03</wgt>
<wgt id='3060'>0.72489E+03</wgt>
<wgt id='3061'>0.72417E+03</wgt>
<wgt id='3062'>0.72475E+03</wgt>
<wgt id='3063'>0.72529E+03</wgt>
<wgt id='3064'>0.72457E+03</wgt>
<wgt id='3065'>0.72479E+03</wgt>
<wgt id='3066'>0.72496E+03</wgt>
<wgt id='3067'>0.72463E+03</wgt>
<wgt id='3068'>0.72490E+03</wgt>
<wgt id='3069'>0.72460E+03</wgt>
<wgt id='3070'>0.72493E+03</wgt>
<wgt id='3071'>0.72494E+03</wgt>
<wgt id='3072'>0.72458E+03</wgt>
<wgt id='3073'>0.72436E+03</wgt>
<wgt id='3074'>0.72577E+03</wgt>
<wgt id='3075'>0.72463E+03</wgt>
<wgt id='3076'>0.72500E+03</wgt>
<wgt id='3077'>0.72516E+03</wgt>
<wgt id='3078'>0.72503E+03</wgt>
<wgt id='3079'>0.72462E+03</wgt>
<wgt id='3080'>0.72456E+03</wgt>
<wgt id='3081'>0.72478E+03</wgt>
<wgt id='3082'>0.72459E+03</wgt>
<wgt id='3083'>0.72495E+03</wgt>
<wgt id='3084'>0.72478E+03</wgt>
<wgt id='3085'>0.72506E+03</wgt>
<wgt id='3086'>0.72440E+03</wgt>
<wgt id='3087'>0.72464E+03</wgt>
<wgt id='3088'>0.72480E+03</wgt>
<wgt id='3089'>0.72487E+03</wgt>
<wgt id='3090'>0.72487E+03</wgt>
<wgt id='3091'>0.72492E+03</wgt>
<wgt id='3092'>0.72495E+03</wgt>
<wgt id='3093'>0.72495E+03</wgt>
<wgt id='3094'>0.72511E+03</wgt>
<wgt id='3095'>0.72482E+03</wgt>
<wgt id='3096'>0.72477E+03</wgt>
<wgt id='3097'>0.72469E+03</wgt>
<wgt id='3098'>0.72481E+03</wgt>
<wgt id='3099'>0.72498E+03</wgt>
<wgt id='3100'>0.72496E+03</wgt>
<wgt id='3101'>0.70570E+03</wgt>
<wgt id='3102'>0.74568E+03</wgt>
<wgt id='5000'>0.70342E+03</wgt>
<wgt id='5001'>0.70492E+03</wgt>
<wgt id='5002'>0.70630E+03</wgt>
<wgt id='5003'>0.70375E+03</wgt>
<wgt id='5004'>0.70335E+03</wgt>
<wgt id='5005'>0.69978E+03</wgt>
<wgt id='5006'>0.68918E+03</wgt>
<wgt id='5007'>0.69701E+03</wgt>
<wgt id='5008'>0.70870E+03</wgt>
<wgt id='5009'>0.69696E+03</wgt>
<wgt id='5010'>0.70461E+03</wgt>
<wgt id='5011'>0.70961E+03</wgt>
<wgt id='5012'>0.69890E+03</wgt>
<wgt id='5013'>0.72353E+03</wgt>
<wgt id='5014'>0.70206E+03</wgt>
<wgt id='5015'>0.69953E+03</wgt>
<wgt id='5016'>0.71397E+03</wgt>
<wgt id='5017'>0.69138E+03</wgt>
<wgt id='5018'>0.71610E+03</wgt>
<wgt id='5019'>0.70772E+03</wgt>
<wgt id='5020'>0.69866E+03</wgt>
<wgt id='5021'>0.69972E+03</wgt>
<wgt id='5022'>0.70574E+03</wgt>
<wgt id='5023'>0.69922E+03</wgt>
<wgt id='5024'>0.70813E+03</wgt>
<wgt id='5025'>0.70766E+03</wgt>
<wgt id='5026'>0.69994E+03</wgt>
<wgt id='5027'>0.70303E+03</wgt>
<wgt id='5028'>0.70397E+03</wgt>
<wgt id='5029'>0.70763E+03</wgt>
<wgt id='5030'>0.70074E+03</wgt>
<wgt id='5031'>0.70291E+03</wgt>
<wgt id='5032'>0.70414E+03</wgt>
<wgt id='5033'>0.70114E+03</wgt>
<wgt id='5034'>0.70581E+03</wgt>
<wgt id='5035'>0.70911E+03</wgt>
<wgt id='5036'>0.69806E+03</wgt>
<wgt id='5037'>0.68522E+03</wgt>
<wgt id='5038'>0.72429E+03</wgt>
<wgt id='5039'>0.72035E+03</wgt>
<wgt id='5040'>0.69438E+03</wgt>
<wgt id='5041'>0.70587E+03</wgt>
<wgt id='5042'>0.70337E+03</wgt>
<wgt id='5043'>0.71054E+03</wgt>
<wgt id='5044'>0.70666E+03</wgt>
<wgt id='5045'>0.69736E+03</wgt>
<wgt id='5046'>0.69045E+03</wgt>
<wgt id='5047'>0.69495E+03</wgt>
<wgt id='5048'>0.70013E+03</wgt>
<wgt id='5049'>0.70320E+03</wgt>
<wgt id='5050'>0.70244E+03</wgt>
<wgt id='5051'>0.70333E+03</wgt>
<wgt id='5052'>0.70197E+03</wgt>
<wgt id='5053'>0.68169E+03</wgt>
<wgt id='5054'>0.69553E+03</wgt>
<wgt id='5055'>0.69782E+03</wgt>
<wgt id='5056'>0.71428E+03</wgt>
<wgt id='5060'>0.68237E+03</wgt>
<wgt id='5070'>0.72573E+03</wgt>
<wgt id='4000'>0.71409E+03</wgt>
<wgt id='4001'>0.71227E+03</wgt>
<wgt id='4002'>0.71471E+03</wgt>
<wgt id='4003'>0.70002E+03</wgt>
<wgt id='4004'>0.71023E+03</wgt>
<wgt id='4005'>0.71327E+03</wgt>
<wgt id='4006'>0.71520E+03</wgt>
<wgt id='4007'>0.71058E+03</wgt>
<wgt id='4008'>0.70938E+03</wgt>
<wgt id='4009'>0.71817E+03</wgt>
<wgt id='4010'>0.71544E+03</wgt>
<wgt id='4011'>0.72474E+03</wgt>
<wgt id='4012'>0.70532E+03</wgt>
<wgt id='4013'>0.71861E+03</wgt>
<wgt id='4014'>0.71371E+03</wgt>
<wgt id='4015'>0.73078E+03</wgt>
<wgt id='4016'>0.70286E+03</wgt>
<wgt id='4017'>0.70010E+03</wgt>
<wgt id='4018'>0.73072E+03</wgt>
<wgt id='4019'>0.71518E+03</wgt>
<wgt id='4020'>0.71284E+03</wgt>
<wgt id='4021'>0.71551E+03</wgt>
<wgt id='4022'>0.71144E+03</wgt>
<wgt id='4023'>0.71613E+03</wgt>
<wgt id='4024'>0.71206E+03</wgt>
<wgt id='4025'>0.72870E+03</wgt>
<wgt id='4026'>0.70011E+03</wgt>
<wgt id='4027'>0.71799E+03</wgt>
<wgt id='4028'>0.70878E+03</wgt>
<wgt id='4029'>0.71720E+03</wgt>
<wgt id='4030'>0.71306E+03</wgt>
<wgt id='4031'>0.71618E+03</wgt>
<wgt id='4032'>0.71140E+03</wgt>
<wgt id='4033'>0.71000E+03</wgt>
<wgt id='4034'>0.72313E+03</wgt>
<wgt id='4035'>0.69840E+03</wgt>
<wgt id='4036'>0.72948E+03</wgt>
<wgt id='4037'>0.70883E+03</wgt>
<wgt id='4038'>0.72214E+03</wgt>
<wgt id='4039'>0.71156E+03</wgt>
<wgt id='4040'>0.71783E+03</wgt>
<wgt id='4041'>0.70957E+03</wgt>
<wgt id='4042'>0.71835E+03</wgt>
<wgt id='4043'>0.70280E+03</wgt>
<wgt id='4044'>0.72772E+03</wgt>
<wgt id='4045'>0.72472E+03</wgt>
<wgt id='4046'>0.71399E+03</wgt>
<wgt id='4047'>0.71401E+03</wgt>
<wgt id='4048'>0.70584E+03</wgt>
<wgt id='4049'>0.70702E+03</wgt>
<wgt id='4050'>0.71491E+03</wgt>
<wgt id='4051'>0.71711E+03</wgt>
<wgt id='4052'>0.71492E+03</wgt>
<wgt id='4053'>0.68850E+03</wgt>
<wgt id='4054'>0.72255E+03</wgt>
<wgt id='4055'>0.70953E+03</wgt>
<wgt id='4056'>0.72265E+03</wgt>
<wgt id='4060'>0.69439E+03</wgt>
<wgt id='4070'>0.73537E+03</wgt>
<wgt id='4080'>0.71310E+03</wgt>
<wgt id='6000'>0.72445E+03</wgt>
<wgt id='6001'>0.72490E+03</wgt>
<wgt id='6002'>0.72397E+03</wgt>
<wgt id='6003'>0.72515E+03</wgt>
<wgt id='6004'>0.72398E+03</wgt>
<wgt id='6005'>0.72869E+03</wgt>
<wgt id='6006'>0.72054E+03</wgt>
<wgt id='6007'>0.72194E+03</wgt>
<wgt id='6008'>0.72728E+03</wgt>
<wgt id='6009'>0.72537E+03</wgt>
<wgt id='6010'>0.72355E+03</wgt>
<wgt id='6011'>0.72509E+03</wgt>
<wgt id='6012'>0.72304E+03</wgt>
<wgt id='6013'>0.72420E+03</wgt>
<wgt id='6014'>0.72490E+03</wgt>
<wgt id='6015'>0.72359E+03</wgt>
<wgt id='6016'>0.72495E+03</wgt>
<wgt id='6017'>0.72145E+03</wgt>
<wgt id='6018'>0.72798E+03</wgt>
<wgt id='6019'>0.72462E+03</wgt>
<wgt id='6020'>0.72431E+03</wgt>
<wgt id='6021'>0.72285E+03</wgt>
<wgt id='6022'>0.72655E+03</wgt>
<wgt id='6023'>0.71992E+03</wgt>
<wgt id='6024'>0.72748E+03</wgt>
<wgt id='6025'>0.72790E+03</wgt>
<wgt id='6026'>0.72104E+03</wgt>
<wgt id='6027'>0.72472E+03</wgt>
<wgt id='6028'>0.72423E+03</wgt>
<wgt id='6029'>0.72070E+03</wgt>
<wgt id='6030'>0.72902E+03</wgt>
<wgt id='6031'>0.71465E+03</wgt>
<wgt id='6032'>0.73561E+03</wgt>
<wgt id='6033'>0.72861E+03</wgt>
<wgt id='6034'>0.72044E+03</wgt>
<wgt id='6035'>0.72610E+03</wgt>
<wgt id='6036'>0.72040E+03</wgt>
<wgt id='6037'>0.72507E+03</wgt>
<wgt id='6038'>0.72412E+03</wgt>
<wgt id='6039'>0.72214E+03</wgt>
<wgt id='6040'>0.72708E+03</wgt>
<wgt id='6041'>0.71772E+03</wgt>
<wgt id='6042'>0.73213E+03</wgt>
<wgt id='6043'>0.73057E+03</wgt>
<wgt id='6044'>0.72156E+03</wgt>
<wgt id='6045'>0.72326E+03</wgt>
<wgt id='6046'>0.72746E+03</wgt>
<wgt id='6047'>0.72947E+03</wgt>
<wgt id='6048'>0.71856E+03</wgt>
<wgt id='6049'>0.72611E+03</wgt>
<wgt id='6050'>0.72366E+03</wgt>
<wgt id='7000'>0.69244E+03</wgt>
<wgt id='7001'>0.69218E+03</wgt>
<wgt id='7002'>0.69276E+03</wgt>
<wgt id='7003'>0.69483E+03</wgt>
<wgt id='7004'>0.69005E+03</wgt>
<wgt id='7005'>0.69444E+03</wgt>
<wgt id='7006'>0.69162E+03</wgt>
<wgt id='7007'>0.69210E+03</wgt>
<wgt id='7008'>0.69275E+03</wgt>
<wgt id='7009'>0.69308E+03</wgt>
<wgt id='7010'>0.69181E+03</wgt>
<wgt id='7011'>0.69042E+03</wgt>
<wgt id='7012'>0.69330E+03</wgt>
<wgt id='7013'>0.69229E+03</wgt>
<wgt id='7014'>0.69261E+03</wgt>
<wgt id='7015'>0.69224E+03</wgt>
<wgt id='7016'>0.69264E+03</wgt>
<wgt id='7017'>0.69199E+03</wgt>
<wgt id='7018'>0.69269E+03</wgt>
<wgt id='7019'>0.69255E+03</wgt>
<wgt id='7020'>0.69228E+03</wgt>
<wgt id='7021'>0.69150E+03</wgt>
<wgt id='7022'>0.69308E+03</wgt>
<wgt id='7023'>0.69746E+03</wgt>
<wgt id='7024'>0.68769E+03</wgt>
<wgt id='7025'>0.69411E+03</wgt>
<wgt id='7026'>0.68820E+03</wgt>
<wgt id='7027'>0.69239E+03</wgt>
<wgt id='7028'>0.69179E+03</wgt>
<wgt id='7029'>0.69572E+03</wgt>
<wgt id='7030'>0.68442E+03</wgt>
<wgt id='7031'>0.68832E+03</wgt>
<wgt id='7032'>0.70097E+03</wgt>
<wgt id='7033'>0.69383E+03</wgt>
<wgt id='7034'>0.68966E+03</wgt>
<wgt id='7035'>0.68656E+03</wgt>
<wgt id='7036'>0.69498E+03</wgt>
<wgt id='7037'>0.69216E+03</wgt>
<wgt id='7038'>0.69257E+03</wgt>
<wgt id='7039'>0.68933E+03</wgt>
<wgt id='7040'>0.69481E+03</wgt>
<wgt id='7041'>0.69516E+03</wgt>
<wgt id='7042'>0.68809E+03</wgt>
<wgt id='7043'>0.69314E+03</wgt>
<wgt id='7044'>0.68840E+03</wgt>
<wgt id='7045'>0.68472E+03</wgt>
<wgt id='7046'>0.69778E+03</wgt>
<wgt id='7047'>0.69598E+03</wgt>
<wgt id='7048'>0.69084E+03</wgt>
<wgt id='7049'>0.69012E+03</wgt>
<wgt id='7050'>0.69369E+03</wgt>
<wgt id='7060'>0.89359E+03</wgt>
<wgt id='8000'>0.68173E+03</wgt>
<wgt id='8001'>0.68166E+03</wgt>
<wgt id='8002'>0.68194E+03</wgt>
<wgt id='8003'>0.68173E+03</wgt>
<wgt id='8004'>0.68171E+03</wgt>
<wgt id='8005'>0.68048E+03</wgt>
<wgt id='8006'>0.68267E+03</wgt>
<wgt id='8007'>0.68346E+03</wgt>
<wgt id='8008'>0.68332E+03</wgt>
<wgt id='8009'>0.68472E+03</wgt>
<wgt id='8010'>0.68083E+03</wgt>
<wgt id='8011'>0.68199E+03</wgt>
<wgt id='8012'>0.67892E+03</wgt>
<wgt id='8013'>0.68013E+03</wgt>
<wgt id='8014'>0.68376E+03</wgt>
<wgt id='8015'>0.68132E+03</wgt>
<wgt id='8016'>0.68264E+03</wgt>
<wgt id='8017'>0.68246E+03</wgt>
<wgt id='8018'>0.68410E+03</wgt>
<wgt id='8019'>0.68135E+03</wgt>
<wgt id='8020'>0.68281E+03</wgt>
<wgt id='8021'>0.68071E+03</wgt>
<wgt id='8022'>0.68371E+03</wgt>
<wgt id='8023'>0.68003E+03</wgt>
<wgt id='8024'>0.67789E+03</wgt>
<wgt id='8025'>0.67961E+03</wgt>
<wgt id='8026'>0.68219E+03</wgt>
<wgt id='8027'>0.68278E+03</wgt>
<wgt id='8028'>0.68207E+03</wgt>
<wgt id='8029'>0.68705E+03</wgt>
<wgt id='8500'>0.72650E+03</wgt>
<wgt id='8501'>0.72062E+03</wgt>
<wgt id='8502'>0.73002E+03</wgt>
<wgt id='8503'>0.72879E+03</wgt>
<wgt id='8504'>0.72269E+03</wgt>
<wgt id='8505'>0.72598E+03</wgt>
<wgt id='8506'>0.72953E+03</wgt>
<wgt id='8507'>0.71980E+03</wgt>
<wgt id='8508'>0.71622E+03</wgt>
<wgt id='8509'>0.73028E+03</wgt>
<wgt id='8510'>0.73012E+03</wgt>
<wgt id='8511'>0.72411E+03</wgt>
<wgt id='8512'>0.72920E+03</wgt>
<wgt id='8513'>0.72695E+03</wgt>
<wgt id='8514'>0.72223E+03</wgt>
<wgt id='8515'>0.73105E+03</wgt>
<wgt id='8516'>0.72455E+03</wgt>
<wgt id='8517'>0.72823E+03</wgt>
<wgt id='8518'>0.71963E+03</wgt>
<wgt id='8519'>0.71796E+03</wgt>
<wgt id='8520'>0.72344E+03</wgt>
<wgt id='8521'>0.72248E+03</wgt>
<wgt id='8522'>0.73120E+03</wgt>
<wgt id='8523'>0.72295E+03</wgt>
<wgt id='8524'>0.72895E+03</wgt>
<wgt id='8525'>0.72771E+03</wgt>
<wgt id='8526'>0.72696E+03</wgt>
<wgt id='8527'>0.72731E+03</wgt>
<wgt id='8528'>0.72557E+03</wgt>
<wgt id='8529'>0.72607E+03</wgt>
<wgt id='8530'>0.72586E+03</wgt>
<wgt id='8531'>0.72642E+03</wgt>
<wgt id='8532'>0.72621E+03</wgt>
<wgt id='8533'>0.72550E+03</wgt>
<wgt id='8534'>0.72689E+03</wgt>
<wgt id='8535'>0.72824E+03</wgt>
<wgt id='8536'>0.72565E+03</wgt>
<wgt id='8537'>0.72658E+03</wgt>
<wgt id='8538'>0.72648E+03</wgt>
<wgt id='8539'>0.72696E+03</wgt>
<wgt id='8540'>0.72721E+03</wgt>
<wgt id='8541'>0.72729E+03</wgt>
<wgt id='8542'>0.72680E+03</wgt>
<wgt id='8543'>0.72538E+03</wgt>
<wgt id='8544'>0.72779E+03</wgt>
<wgt id='8545'>0.72674E+03</wgt>
<wgt id='8546'>0.72754E+03</wgt>
<wgt id='8547'>0.72582E+03</wgt>
<wgt id='8548'>0.72605E+03</wgt>
<wgt id='8549'>0.72662E+03</wgt>
<wgt id='8550'>0.72593E+03</wgt>
<wgt id='8551'>0.72638E+03</wgt>
<wgt id='8552'>0.72589E+03</wgt>
<wgt id='8553'>0.72546E+03</wgt>
<wgt id='8554'>0.72609E+03</wgt>
<wgt id='8555'>0.72650E+03</wgt>
<wgt id='8556'>0.72625E+03</wgt>
<wgt id='8557'>0.72679E+03</wgt>
<wgt id='8558'>0.72738E+03</wgt>
<wgt id='8559'>0.72636E+03</wgt>
<wgt id='8560'>0.72573E+03</wgt>
<wgt id='8561'>0.72694E+03</wgt>
<wgt id='8562'>0.72615E+03</wgt>
<wgt id='8563'>0.72653E+03</wgt>
<wgt id='8564'>0.72632E+03</wgt>
<wgt id='8565'>0.72687E+03</wgt>
<wgt id='8566'>0.72701E+03</wgt>
<wgt id='8567'>0.72662E+03</wgt>
<wgt id='8568'>0.72705E+03</wgt>
<wgt id='8569'>0.72692E+03</wgt>
<wgt id='8570'>0.72624E+03</wgt>
<wgt id='8571'>0.72583E+03</wgt>
<wgt id='8572'>0.72593E+03</wgt>
<wgt id='8573'>0.72615E+03</wgt>
<wgt id='8574'>0.72619E+03</wgt>
<wgt id='8575'>0.72630E+03</wgt>
<wgt id='8576'>0.72659E+03</wgt>
<wgt id='8577'>0.72596E+03</wgt>
<wgt id='8578'>0.72644E+03</wgt>
<wgt id='8579'>0.72710E+03</wgt>
<wgt id='8580'>0.72626E+03</wgt>
<wgt id='8581'>0.72692E+03</wgt>
<wgt id='8582'>0.72611E+03</wgt>
<wgt id='8583'>0.72673E+03</wgt>
<wgt id='8584'>0.72706E+03</wgt>
<wgt id='8585'>0.72678E+03</wgt>
<wgt id='8586'>0.72732E+03</wgt>
<wgt id='8587'>0.72670E+03</wgt>
<wgt id='8588'>0.72653E+03</wgt>
<wgt id='8589'>0.72644E+03</wgt>
<wgt id='8590'>0.72654E+03</wgt>
<wgt id='8591'>0.72607E+03</wgt>
<wgt id='8592'>0.72640E+03</wgt>
<wgt id='8593'>0.72630E+03</wgt>
<wgt id='8594'>0.72636E+03</wgt>
<wgt id='8595'>0.72644E+03</wgt>
<wgt id='8596'>0.72640E+03</wgt>
<wgt id='8597'>0.72670E+03</wgt>
<wgt id='8598'>0.72672E+03</wgt>
<wgt id='8599'>0.72658E+03</wgt>
<wgt id='8600'>0.72651E+03</wgt>
<wgt id='8601'>0.71440E+03</wgt>
<wgt id='8602'>0.73934E+03</wgt>
<wgt id='9000'>0.69800E+03</wgt>
<wgt id='9001'>0.69919E+03</wgt>
<wgt id='9002'>0.69864E+03</wgt>
<wgt id='9003'>0.69688E+03</wgt>
<wgt id='9004'>0.70034E+03</wgt>
<wgt id='9005'>0.70260E+03</wgt>
<wgt id='9006'>0.69926E+03</wgt>
<wgt id='9007'>0.69441E+03</wgt>
<wgt id='9008'>0.69652E+03</wgt>
<wgt id='9009'>0.69901E+03</wgt>
<wgt id='9010'>0.69650E+03</wgt>
<wgt id='9011'>0.70150E+03</wgt>
<wgt id='9012'>0.70200E+03</wgt>
<wgt id='9013'>0.70119E+03</wgt>
<wgt id='9014'>0.69858E+03</wgt>
<wgt id='9015'>0.69279E+03</wgt>
<wgt id='9016'>0.70028E+03</wgt>
<wgt id='9017'>0.69444E+03</wgt>
<wgt id='9018'>0.70210E+03</wgt>
<wgt id='9019'>0.70152E+03</wgt>
<wgt id='9020'>0.70571E+03</wgt>
<wgt id='9021'>0.69323E+03</wgt>
<wgt id='9022'>0.69908E+03</wgt>
<wgt id='9023'>0.69292E+03</wgt>
<wgt id='9024'>0.69507E+03</wgt>
<wgt id='9025'>0.70289E+03</wgt>
<wgt id='9026'>0.69796E+03</wgt>
<wgt id='9027'>0.69625E+03</wgt>
<wgt id='9028'>0.69884E+03</wgt>
<wgt id='9029'>0.69806E+03</wgt>
<wgt id='9030'>0.69680E+03</wgt>
<wgt id='9031'>0.69723E+03</wgt>
<wgt id='9032'>0.69898E+03</wgt>
<wgt id='9033'>0.69887E+03</wgt>
<wgt id='9034'>0.69832E+03</wgt>
<wgt id='9035'>0.69857E+03</wgt>
<wgt id='9036'>0.69829E+03</wgt>
<wgt id='9037'>0.69845E+03</wgt>
<wgt id='9038'>0.69865E+03</wgt>
<wgt id='9039'>0.69817E+03</wgt>
<wgt id='9040'>0.69736E+03</wgt>
<wgt id='9041'>0.69813E+03</wgt>
<wgt id='9042'>0.69853E+03</wgt>
<wgt id='9043'>0.69694E+03</wgt>
<wgt id='9044'>0.69843E+03</wgt>
<wgt id='9045'>0.69844E+03</wgt>
<wgt id='9046'>0.69700E+03</wgt>
<wgt id='9047'>0.69831E+03</wgt>
<wgt id='9048'>0.69840E+03</wgt>
<wgt id='9049'>0.69769E+03</wgt>
<wgt id='9050'>0.69804E+03</wgt>
<wgt id='9051'>0.69851E+03</wgt>
<wgt id='9052'>0.69866E+03</wgt>
<wgt id='9053'>0.69808E+03</wgt>
<wgt id='9054'>0.69765E+03</wgt>
<wgt id='9055'>0.69764E+03</wgt>
<wgt id='9056'>0.69845E+03</wgt>
<wgt id='9057'>0.69809E+03</wgt>
<wgt id='9058'>0.69706E+03</wgt>
<wgt id='9059'>0.69753E+03</wgt>
<wgt id='9060'>0.69781E+03</wgt>
<wgt id='9061'>0.69795E+03</wgt>
<wgt id='9062'>0.69820E+03</wgt>
<wgt id='9063'>0.69814E+03</wgt>
<wgt id='9064'>0.69811E+03</wgt>
<wgt id='9065'>0.69774E+03</wgt>
<wgt id='9066'>0.69780E+03</wgt>
<wgt id='9067'>0.69808E+03</wgt>
<wgt id='9068'>0.69807E+03</wgt>
<wgt id='9069'>0.69871E+03</wgt>
<wgt id='9070'>0.69781E+03</wgt>
<wgt id='9071'>0.69843E+03</wgt>
<wgt id='9072'>0.69855E+03</wgt>
<wgt id='9073'>0.69791E+03</wgt>
<wgt id='9074'>0.69817E+03</wgt>
<wgt id='9075'>0.69802E+03</wgt>
<wgt id='9076'>0.69790E+03</wgt>
<wgt id='9077'>0.69823E+03</wgt>
<wgt id='9078'>0.69811E+03</wgt>
<wgt id='9079'>0.69788E+03</wgt>
<wgt id='9080'>0.69874E+03</wgt>
<wgt id='9081'>0.69804E+03</wgt>
<wgt id='9082'>0.69821E+03</wgt>
<wgt id='9083'>0.69782E+03</wgt>
<wgt id='9084'>0.69758E+03</wgt>
<wgt id='9085'>0.69747E+03</wgt>
<wgt id='9086'>0.69822E+03</wgt>
<wgt id='9087'>0.69723E+03</wgt>
<wgt id='9088'>0.69762E+03</wgt>
<wgt id='9089'>0.69768E+03</wgt>
<wgt id='9090'>0.69810E+03</wgt>
<wgt id='9091'>0.69783E+03</wgt>
<wgt id='9092'>0.69789E+03</wgt>
<wgt id='9093'>0.69782E+03</wgt>
<wgt id='9094'>0.69783E+03</wgt>
<wgt id='9095'>0.69809E+03</wgt>
<wgt id='9096'>0.69782E+03</wgt>
<wgt id='9097'>0.69807E+03</wgt>
<wgt id='9098'>0.69792E+03</wgt>
<wgt id='9099'>0.69775E+03</wgt>
<wgt id='9100'>0.69805E+03</wgt>
<wgt id='9101'>0.68564E+03</wgt>
<wgt id='9102'>0.71058E+03</wgt>
<wgt id='10000'>0.72644E+03</wgt>
<wgt id='10001'>0.72875E+03</wgt>
<wgt id='10002'>0.71949E+03</wgt>
<wgt id='10003'>0.72647E+03</wgt>
<wgt id='10004'>0.71695E+03</wgt>
<wgt id='10005'>0.72562E+03</wgt>
<wgt id='10006'>0.72099E+03</wgt>
<wgt id='10007'>0.72630E+03</wgt>
<wgt id='10008'>0.72764E+03</wgt>
<wgt id='10009'>0.72219E+03</wgt>
<wgt id='10010'>0.72796E+03</wgt>
<wgt id='10011'>0.72038E+03</wgt>
<wgt id='10012'>0.72403E+03</wgt>
<wgt id='10013'>0.72740E+03</wgt>
<wgt id='10014'>0.72600E+03</wgt>
<wgt id='10015'>0.72755E+03</wgt>
<wgt id='10016'>0.72409E+03</wgt>
<wgt id='10017'>0.73228E+03</wgt>
<wgt id='10018'>0.72852E+03</wgt>
<wgt id='10019'>0.71750E+03</wgt>
<wgt id='10020'>0.72409E+03</wgt>
<wgt id='10021'>0.72553E+03</wgt>
<wgt id='10022'>0.72638E+03</wgt>
<wgt id='10023'>0.72762E+03</wgt>
<wgt id='10024'>0.72614E+03</wgt>
<wgt id='10025'>0.72573E+03</wgt>
<wgt id='10026'>0.72997E+03</wgt>
<wgt id='10027'>0.72778E+03</wgt>
<wgt id='10028'>0.73694E+03</wgt>
<wgt id='10029'>0.72672E+03</wgt>
<wgt id='10030'>0.72608E+03</wgt>
<wgt id='10031'>0.71440E+03</wgt>
<wgt id='10032'>0.73934E+03</wgt>
<wgt id='11000'>0.69793E+03</wgt>
<wgt id='11001'>0.68362E+03</wgt>
<wgt id='11002'>0.69716E+03</wgt>
<wgt id='11003'>0.69815E+03</wgt>
<wgt id='11004'>0.69479E+03</wgt>
<wgt id='11005'>0.70044E+03</wgt>
<wgt id='11006'>0.69817E+03</wgt>
<wgt id='11007'>0.69829E+03</wgt>
<wgt id='11008'>0.69849E+03</wgt>
<wgt id='11009'>0.69778E+03</wgt>
<wgt id='11010'>0.69488E+03</wgt>
<wgt id='11011'>0.69659E+03</wgt>
<wgt id='11012'>0.69743E+03</wgt>
<wgt id='11013'>0.69872E+03</wgt>
<wgt id='11014'>0.69715E+03</wgt>
<wgt id='11015'>0.69579E+03</wgt>
<wgt id='11016'>0.69897E+03</wgt>
<wgt id='11017'>0.69969E+03</wgt>
<wgt id='11018'>0.69828E+03</wgt>
<wgt id='11019'>0.69860E+03</wgt>
<wgt id='11020'>0.69836E+03</wgt>
<wgt id='11021'>0.69937E+03</wgt>
<wgt id='11022'>0.70076E+03</wgt>
<wgt id='11023'>0.69808E+03</wgt>
<wgt id='11024'>0.69565E+03</wgt>
<wgt id='11025'>0.69734E+03</wgt>
<wgt id='11026'>0.69787E+03</wgt>
<wgt id='11027'>0.69930E+03</wgt>
<wgt id='11028'>0.69715E+03</wgt>
<wgt id='11029'>0.69033E+03</wgt>
<wgt id='11030'>0.69815E+03</wgt>
<wgt id='11031'>0.68564E+03</wgt>
<wgt id='11032'>0.71058E+03</wgt>
<wgt id='12000'>0.64214E+03</wgt>
<wgt id='12001'>0.64127E+03</wgt>
<wgt id='12002'>0.64299E+03</wgt>
<wgt id='12003'>0.64245E+03</wgt>
<wgt id='12004'>0.64182E+03</wgt>
<wgt id='12005'>0.64286E+03</wgt>
<wgt id='12006'>0.64141E+03</wgt>
<wgt id='12007'>0.64556E+03</wgt>
<wgt id='12008'>0.63878E+03</wgt>
<wgt id='12009'>0.64107E+03</wgt>
<wgt id='12010'>0.64323E+03</wgt>
<wgt id='12011'>0.63737E+03</wgt>
<wgt id='12012'>0.64739E+03</wgt>
<wgt id='12013'>0.64066E+03</wgt>
<wgt id='12014'>0.64364E+03</wgt>
<wgt id='12015'>0.64521E+03</wgt>
<wgt id='12016'>0.63806E+03</wgt>
<wgt id='12017'>0.64508E+03</wgt>
<wgt id='12018'>0.64031E+03</wgt>
<wgt id='12019'>0.64530E+03</wgt>
<wgt id='12020'>0.63855E+03</wgt>
<wgt id='12021'>0.64274E+03</wgt>
<wgt id='12022'>0.64157E+03</wgt>
<wgt id='12023'>0.63484E+03</wgt>
<wgt id='12024'>0.64891E+03</wgt>
<wgt id='12025'>0.63713E+03</wgt>
<wgt id='12026'>0.64736E+03</wgt>
<wgt id='12027'>0.65330E+03</wgt>
<wgt id='12028'>0.63200E+03</wgt>
<wgt id='12050'>0.64214E+03</wgt>
<wgt id='12051'>0.64027E+03</wgt>
<wgt id='12052'>0.63186E+03</wgt>
<wgt id='12053'>0.64036E+03</wgt>
<wgt id='12054'>0.63355E+03</wgt>
<wgt id='12055'>0.63292E+03</wgt>
<wgt id='12056'>0.64772E+03</wgt>
<wgt id='12057'>0.63742E+03</wgt>
<wgt id='12058'>0.63713E+03</wgt>
<wgt id='12059'>0.64227E+03</wgt>
<wgt id='12060'>0.63201E+03</wgt>
<wgt id='12061'>0.63245E+03</wgt>
<wgt id='12062'>0.63582E+03</wgt>
<wgt id='12063'>0.64208E+03</wgt>
<wgt id='13000'>0.68129E+03</wgt>
<wgt id='13001'>0.67381E+03</wgt>
<wgt id='13002'>0.67532E+03</wgt>
<wgt id='13003'>0.67429E+03</wgt>
<wgt id='13004'>0.67484E+03</wgt>
<wgt id='13005'>0.67524E+03</wgt>
<wgt id='13006'>0.67389E+03</wgt>
<wgt id='13007'>0.67890E+03</wgt>
<wgt id='13008'>0.67036E+03</wgt>
<wgt id='13009'>0.67111E+03</wgt>
<wgt id='13010'>0.67814E+03</wgt>
<wgt id='13011'>0.67705E+03</wgt>
<wgt id='13012'>0.67213E+03</wgt>
<wgt id='13013'>0.67385E+03</wgt>
<wgt id='13014'>0.67522E+03</wgt>
<wgt id='13015'>0.67497E+03</wgt>
<wgt id='13016'>0.67232E+03</wgt>
<wgt id='13017'>0.67430E+03</wgt>
<wgt id='13018'>0.67490E+03</wgt>
<wgt id='13019'>0.67515E+03</wgt>
<wgt id='13020'>0.67410E+03</wgt>
<wgt id='13021'>0.68044E+03</wgt>
<wgt id='13022'>0.66881E+03</wgt>
<wgt id='13023'>0.66827E+03</wgt>
<wgt id='13024'>0.68096E+03</wgt>
<wgt id='13025'>0.66297E+03</wgt>
<wgt id='13026'>0.68569E+03</wgt>
<wgt id='13027'>0.66956E+03</wgt>
<wgt id='13028'>0.68010E+03</wgt>
<wgt id='13050'>0.68130E+03</wgt>
<wgt id='13051'>0.67740E+03</wgt>
<wgt id='13052'>0.66714E+03</wgt>
<wgt id='13053'>0.67709E+03</wgt>
<wgt id='13054'>0.67268E+03</wgt>
<wgt id='13055'>0.65608E+03</wgt>
<wgt id='13056'>0.67671E+03</wgt>
<wgt id='13057'>0.67442E+03</wgt>
<wgt id='13058'>0.67659E+03</wgt>
<wgt id='13059'>0.67930E+03</wgt>
<wgt id='13060'>0.64895E+03</wgt>
<wgt id='13061'>0.67516E+03</wgt>
<wgt id='13062'>0.67539E+03</wgt>
<wgt id='13063'>0.68333E+03</wgt>
<wgt id='14000'>0.71325E+03</wgt>
<wgt id='14001'>0.71317E+03</wgt>
<wgt id='14002'>0.71309E+03</wgt>
<wgt id='14003'>0.71302E+03</wgt>
<wgt id='14004'>0.71294E+03</wgt>
<wgt id='14005'>0.71287E+03</wgt>
<wgt id='14006'>0.71279E+03</wgt>
<wgt id='14007'>0.71271E+03</wgt>
<wgt id='14008'>0.71263E+03</wgt>
<wgt id='14009'>0.71256E+03</wgt>
<wgt id='14010'>0.71248E+03</wgt>
<wgt id='14011'>0.71241E+03</wgt>
<wgt id='14012'>0.71233E+03</wgt>
<wgt id='14013'>0.71225E+03</wgt>
<wgt id='14014'>0.71218E+03</wgt>
<wgt id='14015'>0.71210E+03</wgt>
<wgt id='14016'>0.71202E+03</wgt>
<wgt id='14017'>0.71195E+03</wgt>
<wgt id='14018'>0.71187E+03</wgt>
<wgt id='14019'>0.71180E+03</wgt>
<wgt id='14020'>0.71172E+03</wgt>
<wgt id='14021'>0.71164E+03</wgt>
<wgt id='14022'>0.71156E+03</wgt>
<wgt id='14023'>0.71149E+03</wgt>
<wgt id='14024'>0.71141E+03</wgt>
<wgt id='14025'>0.71134E+03</wgt>
<wgt id='14026'>0.71126E+03</wgt>
<wgt id='14027'>0.71118E+03</wgt>
<wgt id='14028'>0.71111E+03</wgt>
<wgt id='14029'>0.71103E+03</wgt>
<wgt id='14030'>0.71095E+03</wgt>
<wgt id='15000'>0.68993E+03</wgt>
<wgt id='15001'>0.69110E+03</wgt>
<wgt id='15002'>0.69038E+03</wgt>
<wgt id='15003'>0.68904E+03</wgt>
<wgt id='15004'>0.69231E+03</wgt>
<wgt id='15005'>0.69456E+03</wgt>
<wgt id='15006'>0.69130E+03</wgt>
<wgt id='15007'>0.68631E+03</wgt>
<wgt id='15008'>0.68844E+03</wgt>
<wgt id='15009'>0.69102E+03</wgt>
<wgt id='15010'>0.68858E+03</wgt>
<wgt id='15011'>0.69339E+03</wgt>
<wgt id='15012'>0.69392E+03</wgt>
<wgt id='15013'>0.69328E+03</wgt>
<wgt id='15014'>0.69033E+03</wgt>
<wgt id='15015'>0.68446E+03</wgt>
<wgt id='15016'>0.69221E+03</wgt>
<wgt id='15017'>0.68642E+03</wgt>
<wgt id='15018'>0.69396E+03</wgt>
<wgt id='15019'>0.69345E+03</wgt>
<wgt id='15020'>0.69767E+03</wgt>
<wgt id='15021'>0.68508E+03</wgt>
<wgt id='15022'>0.69105E+03</wgt>
<wgt id='15023'>0.68488E+03</wgt>
<wgt id='15024'>0.68697E+03</wgt>
<wgt id='15025'>0.69466E+03</wgt>
<wgt id='15026'>0.68980E+03</wgt>
<wgt id='15027'>0.68829E+03</wgt>
<wgt id='15028'>0.69081E+03</wgt>
<wgt id='15029'>0.68999E+03</wgt>
<wgt id='15030'>0.68875E+03</wgt>
<wgt id='15031'>0.68928E+03</wgt>
<wgt id='15032'>0.69090E+03</wgt>
<wgt id='15033'>0.69081E+03</wgt>
<wgt id='15034'>0.69021E+03</wgt>
<wgt id='15035'>0.69051E+03</wgt>
<wgt id='15036'>0.69020E+03</wgt>
<wgt id='15037'>0.69043E+03</wgt>
<wgt id='15038'>0.69057E+03</wgt>
<wgt id='15039'>0.69008E+03</wgt>
<wgt id='15040'>0.68929E+03</wgt>
<wgt id='15041'>0.68997E+03</wgt>
<wgt id='15042'>0.69038E+03</wgt>
<wgt id='15043'>0.68897E+03</wgt>
<wgt id='15044'>0.69036E+03</wgt>
<wgt id='15045'>0.69030E+03</wgt>
<wgt id='15046'>0.68896E+03</wgt>
<wgt id='15047'>0.69016E+03</wgt>
<wgt id='15048'>0.69034E+03</wgt>
<wgt id='15049'>0.68957E+03</wgt>
<wgt id='15050'>0.68999E+03</wgt>
<wgt id='15051'>0.69045E+03</wgt>
<wgt id='15052'>0.69056E+03</wgt>
<wgt id='15053'>0.69006E+03</wgt>
<wgt id='15054'>0.68960E+03</wgt>
<wgt id='15055'>0.68958E+03</wgt>
<wgt id='15056'>0.69035E+03</wgt>
<wgt id='15057'>0.68999E+03</wgt>
<wgt id='15058'>0.68907E+03</wgt>
<wgt id='15059'>0.68949E+03</wgt>
<wgt id='15060'>0.68976E+03</wgt>
<wgt id='15061'>0.68989E+03</wgt>
<wgt id='15062'>0.69011E+03</wgt>
<wgt id='15063'>0.69008E+03</wgt>
<wgt id='15064'>0.69002E+03</wgt>
<wgt id='15065'>0.68968E+03</wgt>
<wgt id='15066'>0.68975E+03</wgt>
<wgt id='15067'>0.69000E+03</wgt>
<wgt id='15068'>0.69001E+03</wgt>
<wgt id='15069'>0.69062E+03</wgt>
<wgt id='15070'>0.68974E+03</wgt>
<wgt id='15071'>0.69038E+03</wgt>
<wgt id='15072'>0.69049E+03</wgt>
<wgt id='15073'>0.68981E+03</wgt>
<wgt id='15074'>0.69010E+03</wgt>
<wgt id='15075'>0.68993E+03</wgt>
<wgt id='15076'>0.68987E+03</wgt>
<wgt id='15077'>0.69017E+03</wgt>
<wgt id='15078'>0.69009E+03</wgt>
<wgt id='15079'>0.68981E+03</wgt>
<wgt id='15080'>0.69063E+03</wgt>
<wgt id='15081'>0.68999E+03</wgt>
<wgt id='15082'>0.69015E+03</wgt>
<wgt id='15083'>0.68973E+03</wgt>
<wgt id='15084'>0.68951E+03</wgt>
<wgt id='15085'>0.68943E+03</wgt>
<wgt id='15086'>0.69017E+03</wgt>
<wgt id='15087'>0.68916E+03</wgt>
<wgt id='15088'>0.68954E+03</wgt>
<wgt id='15089'>0.68960E+03</wgt>
<wgt id='15090'>0.69003E+03</wgt>
<wgt id='15091'>0.68976E+03</wgt>
<wgt id='15092'>0.68982E+03</wgt>
<wgt id='15093'>0.68975E+03</wgt>
<wgt id='15094'>0.68975E+03</wgt>
<wgt id='15095'>0.69003E+03</wgt>
<wgt id='15096'>0.68975E+03</wgt>
<wgt id='15097'>0.69000E+03</wgt>
<wgt id='15098'>0.68986E+03</wgt>
<wgt id='15099'>0.68969E+03</wgt>
<wgt id='15100'>0.68997E+03</wgt>
<wgt id='15101'>0.68992E+03</wgt>
<wgt id='15102'>0.68987E+03</wgt>
<wgt id='15103'>0.68994E+03</wgt>
<wgt id='15104'>0.68994E+03</wgt>
<wgt id='15105'>0.68995E+03</wgt>
<wgt id='15106'>0.68993E+03</wgt>
<wgt id='15107'>0.68989E+03</wgt>
<wgt id='1500'>0.74171E+03</wgt>
<wgt id='1501'>0.72466E+03</wgt>
<wgt id='1502'>0.75302E+03</wgt>
<wgt id='1503'>0.76211E+03</wgt>
<wgt id='1504'>0.71262E+03</wgt>
<wgt id='1505'>0.70566E+03</wgt>
<wgt id='1506'>0.73119E+03</wgt>
<wgt id='1507'>0.74426E+03</wgt>
<wgt id='1508'>0.74878E+03</wgt>
<wgt id='1509'>0.74658E+03</wgt>
<wgt id='1510'>0.74967E+03</wgt>
<wgt id='1511'>0.71999E+03</wgt>
<wgt id='1512'>0.73769E+03</wgt>
<wgt id='1513'>0.72753E+03</wgt>
<wgt id='1514'>0.75780E+03</wgt>
<wgt id='1515'>0.74410E+03</wgt>
<wgt id='1516'>0.75881E+03</wgt>
<wgt id='1517'>0.76275E+03</wgt>
<wgt id='1518'>0.75920E+03</wgt>
<wgt id='1519'>0.73583E+03</wgt>
<wgt id='1520'>0.76302E+03</wgt>
<wgt id='1521'>0.72036E+03</wgt>
<wgt id='1522'>0.73563E+03</wgt>
<wgt id='1523'>0.75150E+03</wgt>
<wgt id='1524'>0.73292E+03</wgt>
<wgt id='1525'>0.73818E+03</wgt>
<wgt id='1526'>0.72347E+03</wgt>
<wgt id='1527'>0.76941E+03</wgt>
<wgt id='1528'>0.74624E+03</wgt>
<wgt id='1529'>0.75691E+03</wgt>
<wgt id='1530'>0.74603E+03</wgt>
<wgt id='1531'>0.72555E+03</wgt>
<wgt id='1532'>0.72969E+03</wgt>
<wgt id='1533'>0.73559E+03</wgt>
<wgt id='1534'>0.72323E+03</wgt>
<wgt id='1535'>0.77463E+03</wgt>
<wgt id='1536'>0.74828E+03</wgt>
<wgt id='1537'>0.74707E+03</wgt>
<wgt id='1538'>0.74797E+03</wgt>
<wgt id='1539'>0.72362E+03</wgt>
<wgt id='1540'>0.73459E+03</wgt>
<wgt id='1541'>0.73353E+03</wgt>
<wgt id='1542'>0.72817E+03</wgt>
<wgt id='1543'>0.72590E+03</wgt>
<wgt id='1544'>0.74234E+03</wgt>
<wgt id='1545'>0.75818E+03</wgt>
<wgt id='1546'>0.73904E+03</wgt>
<wgt id='1547'>0.74086E+03</wgt>
<wgt id='1548'>0.74046E+03</wgt>
<wgt id='1549'>0.75721E+03</wgt>
<wgt id='1550'>0.74048E+03</wgt>
<wgt id='1551'>0.73551E+03</wgt>
<wgt id='1552'>0.74514E+03</wgt>
<wgt id='1553'>0.74611E+03</wgt>
<wgt id='1554'>0.71958E+03</wgt>
<wgt id='1555'>0.73880E+03</wgt>
<wgt id='1556'>0.75049E+03</wgt>
<wgt id='1557'>0.74248E+03</wgt>
<wgt id='1558'>0.73711E+03</wgt>
<wgt id='1559'>0.75672E+03</wgt>
<wgt id='1560'>0.73975E+03</wgt>
<wgt id='1561'>0.74698E+03</wgt>
<wgt id='1562'>0.75632E+03</wgt>
<wgt id='1563'>0.73000E+03</wgt>
<wgt id='1564'>0.75794E+03</wgt>
<wgt id='1565'>0.74257E+03</wgt>
<wgt id='1566'>0.73833E+03</wgt>
<wgt id='1567'>0.76954E+03</wgt>
<wgt id='1568'>0.74037E+03</wgt>
<wgt id='1569'>0.72943E+03</wgt>
<wgt id='1570'>0.73169E+03</wgt>
<wgt id='1571'>0.74032E+03</wgt>
<wgt id='1572'>0.73154E+03</wgt>
<wgt id='1573'>0.73052E+03</wgt>
<wgt id='1574'>0.74225E+03</wgt>
<wgt id='1575'>0.74632E+03</wgt>
<wgt id='1576'>0.71428E+03</wgt>
<wgt id='1577'>0.71891E+03</wgt>
<wgt id='1578'>0.73172E+03</wgt>
<wgt id='1579'>0.74173E+03</wgt>
<wgt id='1580'>0.73043E+03</wgt>
<wgt id='1581'>0.74169E+03</wgt>
<wgt id='1582'>0.73331E+03</wgt>
<wgt id='1583'>0.74891E+03</wgt>
<wgt id='1584'>0.75005E+03</wgt>
<wgt id='1585'>0.74807E+03</wgt>
<wgt id='1586'>0.74291E+03</wgt>
<wgt id='1587'>0.75719E+03</wgt>
<wgt id='1588'>0.74827E+03</wgt>
<wgt id='1589'>0.74138E+03</wgt>
<wgt id='1590'>0.72986E+03</wgt>
<wgt id='1591'>0.73110E+03</wgt>
<wgt id='1592'>0.74093E+03</wgt>
<wgt id='1593'>0.75169E+03</wgt>
<wgt id='1594'>0.75992E+03</wgt>
<wgt id='1595'>0.75969E+03</wgt>
<wgt id='1596'>0.74206E+03</wgt>
<wgt id='1597'>0.74714E+03</wgt>
<wgt id='1598'>0.74373E+03</wgt>
<wgt id='1599'>0.74888E+03</wgt>
<wgt id='1600'>0.75285E+03</wgt>
<wgt id='1601'>0.73241E+03</wgt>
<wgt id='1602'>0.74655E+03</wgt>
<wgt id='1700'>0.69810E+03</wgt>
<wgt id='1800'>0.71699E+03</wgt>
<wgt id='1850'>0.82691E+03</wgt>
<wgt id='1900'>0.77863E+03</wgt>
<wgt id='1950'>0.79778E+03</wgt>
</rwgt>
</event>
<event>
     13 322222  6.87070E+02  9.48380E+00 -1.00000E+00  1.94298E-01
      21    -1     0     0   502   503  0.000000000E+00  0.000000000E+00  7.246730497E+01  7.246730497E+01  0.000000000E+00  0.00000E+00  9.000E+00
      21    -1     0     0   504   505  0.000000000E+00  0.000000000E+00 -1.041479014E+03  1.041479014E+03  0.000000000E+00  0.00000E+00  9.000E+00
       6     2     1     2   502     0  2.951271935E+01  5.786073876E+01 -1.159825395E+02  2.148127724E+02  1.687415539E+02  0.00000E+00  9.000E+00
      -6     2     1     2     0   505 -2.988441531E+01 -6.733725278E+01 -8.629393650E+02  8.854166057E+02  1.840403055E+02  0.00000E+00  9.000E+00
      21     1     1     2   504   503  3.716959610E-01  9.476514020E+00  9.910195865E+00  1.371694055E+01  5.196212463E-07  0.00000E+00  9.000E+00
      24     2     3     3     0     0 -6.561978252E+00  6.920507296E+01 -1.370674814E+02  1.712502598E+02  7.554306951E+01  0.00000E+00  9.000E+00
       5     1     3     3   502     0  3.607469760E+01 -1.134433421E+01  2.108494188E+01  4.356251255E+01  4.800000000E+00  0.00000E+00 -1.000E+00
     -24     2     4     4     0     0  3.558978316E+01 -8.621340697E+01 -6.537347653E+02  6.653421083E+02  8.131170575E+01  0.00000E+00  9.000E+00
      -5     1     4     4     0   505 -6.547419848E+01  1.887615419E+01 -2.092045997E+02  2.200744974E+02  4.800000000E+00  0.00000E+00  1.000E+00
     -15     1     6     6     0     0 -7.120757169E+00  1.965099519E+00  8.197563076E+00  1.117696596E+01  1.777000000E+00  0.00000E+00  1.000E+00
      16     1     6     6     0     0  5.587789170E-01  6.723997345E+01 -1.452650444E+02  1.600732938E+02  0.000000000E+00  0.00000E+00 -1.000E+00
       1     1     8     8   517     0  9.215374906E+00  1.582853541E+01 -9.202204779E+01  9.382714398E+01  1.000000000E-01  0.00000E+00 -1.000E+00
      -2     1     8     8     0   517  2.637440826E+01 -1.020419424E+02 -5.617127175E+02  5.715149643E+02  1.000000000E-01  0.00000E+00  1.000E+00
#rwgt            1           1   742.13328749662537                2        3109           0
<rwgt>
<wgt id='1001'>0.68707E+03</wgt>
<wgt id='1002'>0.67226E+03</wgt>
<wgt id='1003'>0.70068E+03</wgt>
<wgt id='1004'>0.57839E+03</wgt>
<wgt id='1005'>0.56359E+03</wgt>
<wgt id='1006'>0.59246E+03</wgt>
<wgt id='1007'>0.83048E+03</wgt>
<wgt id='1008'>0.81666E+03</wgt>
<wgt id='1009'>0.84235E+03</wgt>
<wgt id='2000'>0.68707E+03</wgt>
<wgt id='2001'>0.68654E+03</wgt>
<wgt id='2002'>0.68783E+03</wgt>
<wgt id='2003'>0.68707E+03</wgt>
<wgt id='2004'>0.68888E+03</wgt>
<wgt id='2005'>0.68669E+03</wgt>
<wgt id='2006'>0.68478E+03</wgt>
<wgt id='2007'>0.68676E+03</wgt>
<wgt id='2008'>0.68679E+03</wgt>
<wgt id='2009'>0.68786E+03</wgt>
<wgt id='2010'>0.68576E+03</wgt>
<wgt id='2011'>0.68705E+03</wgt>
<wgt id='2012'>0.68804E+03</wgt>
<wgt id='2013'>0.68708E+03</wgt>
<wgt id='2014'>0.68630E+03</wgt>
<wgt id='2015'>0.68648E+03</wgt>
<wgt id='2016'>0.68739E+03</wgt>
<wgt id='2017'>0.68656E+03</wgt>
<wgt id='2018'>0.68605E+03</wgt>
<wgt id='2019'>0.68754E+03</wgt>
<wgt id='2020'>0.68584E+03</wgt>
<wgt id='2021'>0.68819E+03</wgt>
<wgt id='2022'>0.68450E+03</wgt>
<wgt id='2023'>0.68761E+03</wgt>
<wgt id='2024'>0.68595E+03</wgt>
<wgt id='2025'>0.68464E+03</wgt>
<wgt id='2026'>0.68665E+03</wgt>
<wgt id='2027'>0.68560E+03</wgt>
<wgt id='2028'>0.68676E+03</wgt>
<wgt id='2029'>0.69301E+03</wgt>
<wgt id='2030'>0.68873E+03</wgt>
<wgt id='2031'>0.68697E+03</wgt>
<wgt id='2032'>0.68997E+03</wgt>
<wgt id='2033'>0.68865E+03</wgt>
<wgt id='2034'>0.68443E+03</wgt>
<wgt id='2035'>0.68613E+03</wgt>
<wgt id='2036'>0.68616E+03</wgt>
<wgt id='2037'>0.68563E+03</wgt>
<wgt id='2038'>0.68753E+03</wgt>
<wgt id='2039'>0.69056E+03</wgt>
<wgt id='2040'>0.68954E+03</wgt>
<wgt id='2041'>0.68704E+03</wgt>
<wgt id='2042'>0.68186E+03</wgt>
<wgt id='2043'>0.68843E+03</wgt>
<wgt id='2044'>0.68739E+03</wgt>
<wgt id='2045'>0.68669E+03</wgt>
<wgt id='2046'>0.68780E+03</wgt>
<wgt id='2047'>0.68859E+03</wgt>
<wgt id='2048'>0.68532E+03</wgt>
<wgt id='2049'>0.68658E+03</wgt>
<wgt id='2050'>0.68737E+03</wgt>
<wgt id='2051'>0.68854E+03</wgt>
<wgt id='2052'>0.68721E+03</wgt>
<wgt id='2053'>0.68764E+03</wgt>
<wgt id='2054'>0.68742E+03</wgt>
<wgt id='2055'>0.68722E+03</wgt>
<wgt id='2056'>0.68701E+03</wgt>
<wgt id='2057'>0.68721E+03</wgt>
<wgt id='2058'>0.68701E+03</wgt>
<wgt id='2059'>0.68657E+03</wgt>
<wgt id='2060'>0.68727E+03</wgt>
<wgt id='2061'>0.68595E+03</wgt>
<wgt id='2062'>0.68647E+03</wgt>
<wgt id='2063'>0.68766E+03</wgt>
<wgt id='2064'>0.68656E+03</wgt>
<wgt id='2065'>0.68800E+03</wgt>
<wgt id='2066'>0.68725E+03</wgt>
<wgt id='2067'>0.68691E+03</wgt>
<wgt id='2068'>0.68722E+03</wgt>
<wgt id='2069'>0.68739E+03</wgt>
<wgt id='2070'>0.68631E+03</wgt>
<wgt id='2071'>0.68669E+03</wgt>
<wgt id='2072'>0.68719E+03</wgt>
<wgt id='2073'>0.68681E+03</wgt>
<wgt id='2074'>0.68693E+03</wgt>
<wgt id='2075'>0.68692E+03</wgt>
<wgt id='2076'>0.68716E+03</wgt>
<wgt id='2077'>0.68666E+03</wgt>
<wgt id='2078'>0.68705E+03</wgt>
<wgt id='2079'>0.68715E+03</wgt>
<wgt id='2080'>0.68749E+03</wgt>
<wgt id='2081'>0.68734E+03</wgt>
<wgt id='2082'>0.68735E+03</wgt>
<wgt id='2083'>0.68736E+03</wgt>
<wgt id='2084'>0.68718E+03</wgt>
<wgt id='2085'>0.68753E+03</wgt>
<wgt id='2086'>0.68693E+03</wgt>
<wgt id='2087'>0.68671E+03</wgt>
<wgt id='2088'>0.68729E+03</wgt>
<wgt id='2089'>0.68638E+03</wgt>
<wgt id='2090'>0.68742E+03</wgt>
<wgt id='2091'>0.68742E+03</wgt>
<wgt id='2092'>0.68721E+03</wgt>
<wgt id='2093'>0.68703E+03</wgt>
<wgt id='2094'>0.68720E+03</wgt>
<wgt id='2095'>0.68737E+03</wgt>
<wgt id='2096'>0.68683E+03</wgt>
<wgt id='2097'>0.68764E+03</wgt>
<wgt id='2098'>0.68674E+03</wgt>
<wgt id='2099'>0.68720E+03</wgt>
<wgt id='2100'>0.68712E+03</wgt>
<wgt id='2101'>0.67097E+03</wgt>
<wgt id='2102'>0.70766E+03</wgt>
<wgt id='2104'>0.59079E+03</wgt>
<wgt id='2105'>0.60995E+03</wgt>
<wgt id='2106'>0.63058E+03</wgt>
<wgt id='2107'>0.64627E+03</wgt>
<wgt id='2108'>0.67697E+03</wgt>
<wgt id='2109'>0.69950E+03</wgt>
<wgt id='2110'>0.72818E+03</wgt>
<wgt id='2111'>0.75193E+03</wgt>
<wgt id='3000'>0.73496E+03</wgt>
<wgt id='3001'>0.73599E+03</wgt>
<wgt id='3002'>0.73452E+03</wgt>
<wgt id='3003'>0.73462E+03</wgt>
<wgt id='3004'>0.73736E+03</wgt>
<wgt id='3005'>0.73552E+03</wgt>
<wgt id='3006'>0.73482E+03</wgt>
<wgt id='3007'>0.73500E+03</wgt>
<wgt id='3008'>0.73386E+03</wgt>
<wgt id='3009'>0.73420E+03</wgt>
<wgt id='3010'>0.73243E+03</wgt>
<wgt id='3011'>0.73506E+03</wgt>
<wgt id='3012'>0.73661E+03</wgt>
<wgt id='3013'>0.73451E+03</wgt>
<wgt id='3014'>0.73479E+03</wgt>
<wgt id='3015'>0.73474E+03</wgt>
<wgt id='3016'>0.73590E+03</wgt>
<wgt id='3017'>0.73512E+03</wgt>
<wgt id='3018'>0.73551E+03</wgt>
<wgt id='3019'>0.73475E+03</wgt>
<wgt id='3020'>0.73614E+03</wgt>
<wgt id='3021'>0.73616E+03</wgt>
<wgt id='3022'>0.73423E+03</wgt>
<wgt id='3023'>0.73411E+03</wgt>
<wgt id='3024'>0.73527E+03</wgt>
<wgt id='3025'>0.73515E+03</wgt>
<wgt id='3026'>0.73361E+03</wgt>
<wgt id='3027'>0.73569E+03</wgt>
<wgt id='3028'>0.73495E+03</wgt>
<wgt id='3029'>0.73470E+03</wgt>
<wgt id='3030'>0.73838E+03</wgt>
<wgt id='3031'>0.73652E+03</wgt>
<wgt id='3032'>0.73270E+03</wgt>
<wgt id='3033'>0.73266E+03</wgt>
<wgt id='3034'>0.73476E+03</wgt>
<wgt id='3035'>0.72969E+03</wgt>
<wgt id='3036'>0.73537E+03</wgt>
<wgt id='3037'>0.73830E+03</wgt>
<wgt id='3038'>0.73528E+03</wgt>
<wgt id='3039'>0.73536E+03</wgt>
<wgt id='3040'>0.73873E+03</wgt>
<wgt id='3041'>0.73684E+03</wgt>
<wgt id='3042'>0.73209E+03</wgt>
<wgt id='3043'>0.73224E+03</wgt>
<wgt id='3044'>0.73561E+03</wgt>
<wgt id='3045'>0.73550E+03</wgt>
<wgt id='3046'>0.73798E+03</wgt>
<wgt id='3047'>0.73434E+03</wgt>
<wgt id='3048'>0.73648E+03</wgt>
<wgt id='3049'>0.73480E+03</wgt>
<wgt id='3050'>0.73319E+03</wgt>
<wgt id='3051'>0.73637E+03</wgt>
<wgt id='3052'>0.73345E+03</wgt>
<wgt id='3053'>0.73486E+03</wgt>
<wgt id='3054'>0.73540E+03</wgt>
<wgt id='3055'>0.73305E+03</wgt>
<wgt id='3056'>0.73454E+03</wgt>
<wgt id='3057'>0.73437E+03</wgt>
<wgt id='3058'>0.73432E+03</wgt>
<wgt id='3059'>0.73434E+03</wgt>
<wgt id='3060'>0.73604E+03</wgt>
<wgt id='3061'>0.73451E+03</wgt>
<wgt id='3062'>0.73556E+03</wgt>
<wgt id='3063'>0.73439E+03</wgt>
<wgt id='3064'>0.73442E+03</wgt>
<wgt id='3065'>0.73404E+03</wgt>
<wgt id='3066'>0.73524E+03</wgt>
<wgt id='3067'>0.73328E+03</wgt>
<wgt id='3068'>0.73550E+03</wgt>
<wgt id='3069'>0.73450E+03</wgt>
<wgt id='3070'>0.73494E+03</wgt>
<wgt id='3071'>0.73434E+03</wgt>
<wgt id='3072'>0.73490E+03</wgt>
<wgt id='3073'>0.73468E+03</wgt>
<wgt id='3074'>0.73529E+03</wgt>
<wgt id='3075'>0.73513E+03</wgt>
<wgt id='3076'>0.73511E+03</wgt>
<wgt id='3077'>0.73521E+03</wgt>
<wgt id='3078'>0.73527E+03</wgt>
<wgt id='3079'>0.73458E+03</wgt>
<wgt id='3080'>0.73483E+03</wgt>
<wgt id='3081'>0.73472E+03</wgt>
<wgt id='3082'>0.73502E+03</wgt>
<wgt id='3083'>0.73409E+03</wgt>
<wgt id='3084'>0.73408E+03</wgt>
<wgt id='3085'>0.73583E+03</wgt>
<wgt id='3086'>0.73429E+03</wgt>
<wgt id='3087'>0.73424E+03</wgt>
<wgt id='3088'>0.73448E+03</wgt>
<wgt id='3089'>0.73479E+03</wgt>
<wgt id='3090'>0.73561E+03</wgt>
<wgt id='3091'>0.73523E+03</wgt>
<wgt id='3092'>0.73480E+03</wgt>
<wgt id='3093'>0.73496E+03</wgt>
<wgt id='3094'>0.73542E+03</wgt>
<wgt id='3095'>0.73491E+03</wgt>
<wgt id='3096'>0.73482E+03</wgt>
<wgt id='3097'>0.73475E+03</wgt>
<wgt id='3098'>0.73448E+03</wgt>
<wgt id='3099'>0.73489E+03</wgt>
<wgt id='3100'>0.73530E+03</wgt>
<wgt id='3101'>0.71525E+03</wgt>
<wgt id='3102'>0.75821E+03</wgt>
<wgt id='5000'>0.72460E+03</wgt>
<wgt id='5001'>0.72581E+03</wgt>
<wgt id='5002'>0.72808E+03</wgt>
<wgt id='5003'>0.72398E+03</wgt>
<wgt id='5004'>0.72845E+03</wgt>
<wgt id='5005'>0.72660E+03</wgt>
<wgt id='5006'>0.72126E+03</wgt>
<wgt id='5007'>0.72332E+03</wgt>
<wgt id='5008'>0.72937E+03</wgt>
<wgt id='5009'>0.71977E+03</wgt>
<wgt id='5010'>0.72589E+03</wgt>
<wgt id='5011'>0.73411E+03</wgt>
<wgt id='5012'>0.71623E+03</wgt>
<wgt id='5013'>0.74843E+03</wgt>
<wgt id='5014'>0.71284E+03</wgt>
<wgt id='5015'>0.71724E+03</wgt>
<wgt id='5016'>0.74449E+03</wgt>
<wgt id='5017'>0.71468E+03</wgt>
<wgt id='5018'>0.73492E+03</wgt>
<wgt id='5019'>0.72177E+03</wgt>
<wgt id='5020'>0.72599E+03</wgt>
<wgt id='5021'>0.71907E+03</wgt>
<wgt id='5022'>0.72807E+03</wgt>
<wgt id='5023'>0.71960E+03</wgt>
<wgt id='5024'>0.73030E+03</wgt>
<wgt id='5025'>0.72805E+03</wgt>
<wgt id='5026'>0.72177E+03</wgt>
<wgt id='5027'>0.72186E+03</wgt>
<wgt id='5028'>0.72911E+03</wgt>
<wgt id='5029'>0.73554E+03</wgt>
<wgt id='5030'>0.71769E+03</wgt>
<wgt id='5031'>0.72707E+03</wgt>
<wgt id='5032'>0.72089E+03</wgt>
<wgt id='5033'>0.71936E+03</wgt>
<wgt id='5034'>0.72993E+03</wgt>
<wgt id='5035'>0.72564E+03</wgt>
<wgt id='5036'>0.72325E+03</wgt>
<wgt id='5037'>0.70891E+03</wgt>
<wgt id='5038'>0.74276E+03</wgt>
<wgt id='5039'>0.74067E+03</wgt>
<wgt id='5040'>0.71627E+03</wgt>
<wgt id='5041'>0.72781E+03</wgt>
<wgt id='5042'>0.72508E+03</wgt>
<wgt id='5043'>0.73097E+03</wgt>
<wgt id='5044'>0.73118E+03</wgt>
<wgt id='5045'>0.71244E+03</wgt>
<wgt id='5046'>0.71967E+03</wgt>
<wgt id='5047'>0.70934E+03</wgt>
<wgt id='5048'>0.72528E+03</wgt>
<wgt id='5049'>0.72366E+03</wgt>
<wgt id='5050'>0.72353E+03</wgt>
<wgt id='5051'>0.72479E+03</wgt>
<wgt id='5052'>0.72223E+03</wgt>
<wgt id='5053'>0.70151E+03</wgt>
<wgt id='5054'>0.72165E+03</wgt>
<wgt id='5055'>0.72002E+03</wgt>
<wgt id='5056'>0.73209E+03</wgt>
<wgt id='5060'>0.70193E+03</wgt>
<wgt id='5070'>0.74907E+03</wgt>
<wgt id='4000'>0.74344E+03</wgt>
<wgt id='4001'>0.74105E+03</wgt>
<wgt id='4002'>0.74399E+03</wgt>
<wgt id='4003'>0.73337E+03</wgt>
<wgt id='4004'>0.74354E+03</wgt>
<wgt id='4005'>0.74271E+03</wgt>
<wgt id='4006'>0.74370E+03</wgt>
<wgt id='4007'>0.73670E+03</wgt>
<wgt id='4008'>0.74284E+03</wgt>
<wgt id='4009'>0.74976E+03</wgt>
<wgt id='4010'>0.74725E+03</wgt>
<wgt id='4011'>0.75052E+03</wgt>
<wgt id='4012'>0.73713E+03</wgt>
<wgt id='4013'>0.75281E+03</wgt>
<wgt id='4014'>0.74021E+03</wgt>
<wgt id='4015'>0.76011E+03</wgt>
<wgt id='4016'>0.73249E+03</wgt>
<wgt id='4017'>0.72977E+03</wgt>
<wgt id='4018'>0.75978E+03</wgt>
<wgt id='4019'>0.73795E+03</wgt>
<wgt id='4020'>0.74892E+03</wgt>
<wgt id='4021'>0.74324E+03</wgt>
<wgt id='4022'>0.74397E+03</wgt>
<wgt id='4023'>0.74960E+03</wgt>
<wgt id='4024'>0.73717E+03</wgt>
<wgt id='4025'>0.75340E+03</wgt>
<wgt id='4026'>0.73378E+03</wgt>
<wgt id='4027'>0.74919E+03</wgt>
<wgt id='4028'>0.73547E+03</wgt>
<wgt id='4029'>0.74911E+03</wgt>
<wgt id='4030'>0.74149E+03</wgt>
<wgt id='4031'>0.74432E+03</wgt>
<wgt id='4032'>0.74232E+03</wgt>
<wgt id='4033'>0.74196E+03</wgt>
<wgt id='4034'>0.74672E+03</wgt>
<wgt id='4035'>0.72561E+03</wgt>
<wgt id='4036'>0.76037E+03</wgt>
<wgt id='4037'>0.73382E+03</wgt>
<wgt id='4038'>0.75775E+03</wgt>
<wgt id='4039'>0.73786E+03</wgt>
<wgt id='4040'>0.74953E+03</wgt>
<wgt id='4041'>0.73969E+03</wgt>
<wgt id='4042'>0.74577E+03</wgt>
<wgt id='4043'>0.72762E+03</wgt>
<wgt id='4044'>0.75592E+03</wgt>
<wgt id='4045'>0.76451E+03</wgt>
<wgt id='4046'>0.73933E+03</wgt>
<wgt id='4047'>0.74272E+03</wgt>
<wgt id='4048'>0.74708E+03</wgt>
<wgt id='4049'>0.74767E+03</wgt>
<wgt id='4050'>0.74553E+03</wgt>
<wgt id='4051'>0.74699E+03</wgt>
<wgt id='4052'>0.74375E+03</wgt>
<wgt id='4053'>0.71412E+03</wgt>
<wgt id='4054'>0.75067E+03</wgt>
<wgt id='4055'>0.73998E+03</wgt>
<wgt id='4056'>0.74880E+03</wgt>
<wgt id='4060'>0.72186E+03</wgt>
<wgt id='4070'>0.76723E+03</wgt>
<wgt id='4080'>0.82075E+03</wgt>
<wgt id='6000'>0.73755E+03</wgt>
<wgt id='6001'>0.73807E+03</wgt>
<wgt id='6002'>0.73697E+03</wgt>
<wgt id='6003'>0.73807E+03</wgt>
<wgt id='6004'>0.73719E+03</wgt>
<wgt id='6005'>0.74143E+03</wgt>
<wgt id='6006'>0.73391E+03</wgt>
<wgt id='6007'>0.73526E+03</wgt>
<wgt id='6008'>0.74012E+03</wgt>
<wgt id='6009'>0.73895E+03</wgt>
<wgt id='6010'>0.73618E+03</wgt>
<wgt id='6011'>0.73835E+03</wgt>
<wgt id='6012'>0.73582E+03</wgt>
<wgt id='6013'>0.73720E+03</wgt>
<wgt id='6014'>0.73816E+03</wgt>
<wgt id='6015'>0.73674E+03</wgt>
<wgt id='6016'>0.73801E+03</wgt>
<wgt id='6017'>0.73403E+03</wgt>
<wgt id='6018'>0.74172E+03</wgt>
<wgt id='6019'>0.73754E+03</wgt>
<wgt id='6020'>0.73756E+03</wgt>
<wgt id='6021'>0.73565E+03</wgt>
<wgt id='6022'>0.74002E+03</wgt>
<wgt id='6023'>0.73228E+03</wgt>
<wgt id='6024'>0.74105E+03</wgt>
<wgt id='6025'>0.74283E+03</wgt>
<wgt id='6026'>0.73191E+03</wgt>
<wgt id='6027'>0.73786E+03</wgt>
<wgt id='6028'>0.73746E+03</wgt>
<wgt id='6029'>0.73285E+03</wgt>
<wgt id='6030'>0.74328E+03</wgt>
<wgt id='6031'>0.72629E+03</wgt>
<wgt id='6032'>0.75049E+03</wgt>
<wgt id='6033'>0.74235E+03</wgt>
<wgt id='6034'>0.73293E+03</wgt>
<wgt id='6035'>0.73952E+03</wgt>
<wgt id='6036'>0.73305E+03</wgt>
<wgt id='6037'>0.73823E+03</wgt>
<wgt id='6038'>0.73716E+03</wgt>
<wgt id='6039'>0.73475E+03</wgt>
<wgt id='6040'>0.74072E+03</wgt>
<wgt id='6041'>0.73017E+03</wgt>
<wgt id='6042'>0.74602E+03</wgt>
<wgt id='6043'>0.74438E+03</wgt>
<wgt id='6044'>0.73490E+03</wgt>
<wgt id='6045'>0.73603E+03</wgt>
<wgt id='6046'>0.74139E+03</wgt>
<wgt id='6047'>0.73700E+03</wgt>
<wgt id='6048'>0.74003E+03</wgt>
<wgt id='6049'>0.73610E+03</wgt>
<wgt id='6050'>0.73842E+03</wgt>
<wgt id='7000'>0.70286E+03</wgt>
<wgt id='7001'>0.70269E+03</wgt>
<wgt id='7002'>0.70307E+03</wgt>
<wgt id='7003'>0.70537E+03</wgt>
<wgt id='7004'>0.70035E+03</wgt>
<wgt id='7005'>0.70457E+03</wgt>
<wgt id='7006'>0.70217E+03</wgt>
<wgt id='7007'>0.70246E+03</wgt>
<wgt id='7008'>0.70328E+03</wgt>
<wgt id='7009'>0.70374E+03</wgt>
<wgt id='7010'>0.70199E+03</wgt>
<wgt id='7011'>0.69991E+03</wgt>
<wgt id='7012'>0.70412E+03</wgt>
<wgt id='7013'>0.70265E+03</wgt>
<wgt id='7014'>0.70311E+03</wgt>
<wgt id='7015'>0.70240E+03</wgt>
<wgt id='7016'>0.70337E+03</wgt>
<wgt id='7017'>0.70046E+03</wgt>
<wgt id='7018'>0.70418E+03</wgt>
<wgt id='7019'>0.70280E+03</wgt>
<wgt id='7020'>0.70292E+03</wgt>
<wgt id='7021'>0.70243E+03</wgt>
<wgt id='7022'>0.70315E+03</wgt>
<wgt id='7023'>0.70676E+03</wgt>
<wgt id='7024'>0.69910E+03</wgt>
<wgt id='7025'>0.70437E+03</wgt>
<wgt id='7026'>0.69903E+03</wgt>
<wgt id='7027'>0.70261E+03</wgt>
<wgt id='7028'>0.70267E+03</wgt>
<wgt id='7029'>0.70728E+03</wgt>
<wgt id='7030'>0.69179E+03</wgt>
<wgt id='7031'>0.69800E+03</wgt>
<wgt id='7032'>0.71310E+03</wgt>
<wgt id='7033'>0.70460E+03</wgt>
<wgt id='7034'>0.69955E+03</wgt>
<wgt id='7035'>0.69588E+03</wgt>
<wgt id='7036'>0.70609E+03</wgt>
<wgt id='7037'>0.70259E+03</wgt>
<wgt id='7038'>0.70337E+03</wgt>
<wgt id='7039'>0.69917E+03</wgt>
<wgt id='7040'>0.70566E+03</wgt>
<wgt id='7041'>0.70769E+03</wgt>
<wgt id='7042'>0.69552E+03</wgt>
<wgt id='7043'>0.70361E+03</wgt>
<wgt id='7044'>0.69856E+03</wgt>
<wgt id='7045'>0.69884E+03</wgt>
<wgt id='7046'>0.70547E+03</wgt>
<wgt id='7047'>0.70488E+03</wgt>
<wgt id='7048'>0.70194E+03</wgt>
<wgt id='7049'>0.70420E+03</wgt>
<wgt id='7050'>0.70161E+03</wgt>
<wgt id='7060'>0.10065E+04</wgt>
<wgt id='8000'>0.69044E+03</wgt>
<wgt id='8001'>0.69035E+03</wgt>
<wgt id='8002'>0.69065E+03</wgt>
<wgt id='8003'>0.69044E+03</wgt>
<wgt id='8004'>0.69042E+03</wgt>
<wgt id='8005'>0.68908E+03</wgt>
<wgt id='8006'>0.69127E+03</wgt>
<wgt id='8007'>0.69187E+03</wgt>
<wgt id='8008'>0.69195E+03</wgt>
<wgt id='8009'>0.69339E+03</wgt>
<wgt id='8010'>0.68963E+03</wgt>
<wgt id='8011'>0.69071E+03</wgt>
<wgt id='8012'>0.68793E+03</wgt>
<wgt id='8013'>0.68896E+03</wgt>
<wgt id='8014'>0.69224E+03</wgt>
<wgt id='8015'>0.68997E+03</wgt>
<wgt id='8016'>0.69148E+03</wgt>
<wgt id='8017'>0.69139E+03</wgt>
<wgt id='8018'>0.69302E+03</wgt>
<wgt id='8019'>0.68920E+03</wgt>
<wgt id='8020'>0.69279E+03</wgt>
<wgt id='8021'>0.68910E+03</wgt>
<wgt id='8022'>0.69470E+03</wgt>
<wgt id='8023'>0.68796E+03</wgt>
<wgt id='8024'>0.68555E+03</wgt>
<wgt id='8025'>0.68694E+03</wgt>
<wgt id='8026'>0.69050E+03</wgt>
<wgt id='8027'>0.69172E+03</wgt>
<wgt id='8028'>0.69064E+03</wgt>
<wgt id='8029'>0.70262E+03</wgt>
<wgt id='8500'>0.74137E+03</wgt>
<wgt id='8501'>0.73391E+03</wgt>
<wgt id='8502'>0.74268E+03</wgt>
<wgt id='8503'>0.74414E+03</wgt>
<wgt id='8504'>0.73787E+03</wgt>
<wgt id='8505'>0.74181E+03</wgt>
<wgt id='8506'>0.74114E+03</wgt>
<wgt id='8507'>0.73844E+03</wgt>
<wgt id='8508'>0.73579E+03</wgt>
<wgt id='8509'>0.74259E+03</wgt>
<wgt id='8510'>0.73968E+03</wgt>
<wgt id='8511'>0.73759E+03</wgt>
<wgt id='8512'>0.74680E+03</wgt>
<wgt id='8513'>0.74358E+03</wgt>
<wgt id='8514'>0.74326E+03</wgt>
<wgt id='8515'>0.74475E+03</wgt>
<wgt id='8516'>0.73945E+03</wgt>
<wgt id='8517'>0.74636E+03</wgt>
<wgt id='8518'>0.73536E+03</wgt>
<wgt id='8519'>0.73358E+03</wgt>
<wgt id='8520'>0.73497E+03</wgt>
<wgt id='8521'>0.73488E+03</wgt>
<wgt id='8522'>0.74851E+03</wgt>
<wgt id='8523'>0.73638E+03</wgt>
<wgt id='8524'>0.74227E+03</wgt>
<wgt id='8525'>0.74324E+03</wgt>
<wgt id='8526'>0.74278E+03</wgt>
<wgt id='8527'>0.74180E+03</wgt>
<wgt id='8528'>0.74034E+03</wgt>
<wgt id='8529'>0.73906E+03</wgt>
<wgt id='8530'>0.74125E+03</wgt>
<wgt id='8531'>0.74137E+03</wgt>
<wgt id='8532'>0.74105E+03</wgt>
<wgt id='8533'>0.73996E+03</wgt>
<wgt id='8534'>0.74197E+03</wgt>
<wgt id='8535'>0.74389E+03</wgt>
<wgt id='8536'>0.74088E+03</wgt>
<wgt id='8537'>0.74159E+03</wgt>
<wgt id='8538'>0.74132E+03</wgt>
<wgt id='8539'>0.74170E+03</wgt>
<wgt id='8540'>0.74251E+03</wgt>
<wgt id='8541'>0.74192E+03</wgt>
<wgt id='8542'>0.74126E+03</wgt>
<wgt id='8543'>0.73971E+03</wgt>
<wgt id='8544'>0.74260E+03</wgt>
<wgt id='8545'>0.74164E+03</wgt>
<wgt id='8546'>0.74255E+03</wgt>
<wgt id='8547'>0.74097E+03</wgt>
<wgt id='8548'>0.74089E+03</wgt>
<wgt id='8549'>0.74131E+03</wgt>
<wgt id='8550'>0.74102E+03</wgt>
<wgt id='8551'>0.74147E+03</wgt>
<wgt id='8552'>0.74077E+03</wgt>
<wgt id='8553'>0.74041E+03</wgt>
<wgt id='8554'>0.74111E+03</wgt>
<wgt id='8555'>0.74131E+03</wgt>
<wgt id='8556'>0.74111E+03</wgt>
<wgt id='8557'>0.74163E+03</wgt>
<wgt id='8558'>0.74206E+03</wgt>
<wgt id='8559'>0.74121E+03</wgt>
<wgt id='8560'>0.74076E+03</wgt>
<wgt id='8561'>0.74181E+03</wgt>
<wgt id='8562'>0.74107E+03</wgt>
<wgt id='8563'>0.74140E+03</wgt>
<wgt id='8564'>0.74122E+03</wgt>
<wgt id='8565'>0.74173E+03</wgt>
<wgt id='8566'>0.74198E+03</wgt>
<wgt id='8567'>0.74166E+03</wgt>
<wgt id='8568'>0.74191E+03</wgt>
<wgt id='8569'>0.74174E+03</wgt>
<wgt id='8570'>0.74113E+03</wgt>
<wgt id='8571'>0.74069E+03</wgt>
<wgt id='8572'>0.74082E+03</wgt>
<wgt id='8573'>0.74087E+03</wgt>
<wgt id='8574'>0.74123E+03</wgt>
<wgt id='8575'>0.74115E+03</wgt>
<wgt id='8576'>0.74144E+03</wgt>
<wgt id='8577'>0.74072E+03</wgt>
<wgt id='8578'>0.74146E+03</wgt>
<wgt id='8579'>0.74197E+03</wgt>
<wgt id='8580'>0.74098E+03</wgt>
<wgt id='8581'>0.74171E+03</wgt>
<wgt id='8582'>0.74099E+03</wgt>
<wgt id='8583'>0.74169E+03</wgt>
<wgt id='8584'>0.74199E+03</wgt>
<wgt id='8585'>0.74168E+03</wgt>
<wgt id='8586'>0.74230E+03</wgt>
<wgt id='8587'>0.74158E+03</wgt>
<wgt id='8588'>0.74137E+03</wgt>
<wgt id='8589'>0.74135E+03</wgt>
<wgt id='8590'>0.74133E+03</wgt>
<wgt id='8591'>0.74092E+03</wgt>
<wgt id='8592'>0.74124E+03</wgt>
<wgt id='8593'>0.74110E+03</wgt>
<wgt id='8594'>0.74126E+03</wgt>
<wgt id='8595'>0.74131E+03</wgt>
<wgt id='8596'>0.74116E+03</wgt>
<wgt id='8597'>0.74163E+03</wgt>
<wgt id='8598'>0.74162E+03</wgt>
<wgt id='8599'>0.74149E+03</wgt>
<wgt id='8600'>0.74137E+03</wgt>
<wgt id='8601'>0.72707E+03</wgt>
<wgt id='8602'>0.75700E+03</wgt>
<wgt id='9000'>0.70965E+03</wgt>
<wgt id='9001'>0.71219E+03</wgt>
<wgt id='9002'>0.70860E+03</wgt>
<wgt id='9003'>0.71111E+03</wgt>
<wgt id='9004'>0.71317E+03</wgt>
<wgt id='9005'>0.71456E+03</wgt>
<wgt id='9006'>0.71260E+03</wgt>
<wgt id='9007'>0.70756E+03</wgt>
<wgt id='9008'>0.70851E+03</wgt>
<wgt id='9009'>0.71196E+03</wgt>
<wgt id='9010'>0.71091E+03</wgt>
<wgt id='9011'>0.71124E+03</wgt>
<wgt id='9012'>0.71190E+03</wgt>
<wgt id='9013'>0.71832E+03</wgt>
<wgt id='9014'>0.70916E+03</wgt>
<wgt id='9015'>0.70096E+03</wgt>
<wgt id='9016'>0.70668E+03</wgt>
<wgt id='9017'>0.70817E+03</wgt>
<wgt id='9018'>0.71571E+03</wgt>
<wgt id='9019'>0.71440E+03</wgt>
<wgt id='9020'>0.71675E+03</wgt>
<wgt id='9021'>0.70011E+03</wgt>
<wgt id='9022'>0.71063E+03</wgt>
<wgt id='9023'>0.70334E+03</wgt>
<wgt id='9024'>0.70619E+03</wgt>
<wgt id='9025'>0.71311E+03</wgt>
<wgt id='9026'>0.70878E+03</wgt>
<wgt id='9027'>0.70831E+03</wgt>
<wgt id='9028'>0.71026E+03</wgt>
<wgt id='9029'>0.71072E+03</wgt>
<wgt id='9030'>0.70848E+03</wgt>
<wgt id='9031'>0.70829E+03</wgt>
<wgt id='9032'>0.71044E+03</wgt>
<wgt id='9033'>0.71029E+03</wgt>
<wgt id='9034'>0.71083E+03</wgt>
<wgt id='9035'>0.71073E+03</wgt>
<wgt id='9036'>0.71018E+03</wgt>
<wgt id='9037'>0.70984E+03</wgt>
<wgt id='9038'>0.71021E+03</wgt>
<wgt id='9039'>0.70920E+03</wgt>
<wgt id='9040'>0.70909E+03</wgt>
<wgt id='9041'>0.70952E+03</wgt>
<wgt id='9042'>0.70956E+03</wgt>
<wgt id='9043'>0.70825E+03</wgt>
<wgt id='9044'>0.71012E+03</wgt>
<wgt id='9045'>0.70949E+03</wgt>
<wgt id='9046'>0.70856E+03</wgt>
<wgt id='9047'>0.71005E+03</wgt>
<wgt id='9048'>0.70992E+03</wgt>
<wgt id='9049'>0.70928E+03</wgt>
<wgt id='9050'>0.70962E+03</wgt>
<wgt id='9051'>0.71022E+03</wgt>
<wgt id='9052'>0.71038E+03</wgt>
<wgt id='9053'>0.70998E+03</wgt>
<wgt id='9054'>0.70951E+03</wgt>
<wgt id='9055'>0.70937E+03</wgt>
<wgt id='9056'>0.71002E+03</wgt>
<wgt id='9057'>0.70975E+03</wgt>
<wgt id='9058'>0.70870E+03</wgt>
<wgt id='9059'>0.70931E+03</wgt>
<wgt id='9060'>0.70970E+03</wgt>
<wgt id='9061'>0.70952E+03</wgt>
<wgt id='9062'>0.70993E+03</wgt>
<wgt id='9063'>0.70971E+03</wgt>
<wgt id='9064'>0.70987E+03</wgt>
<wgt id='9065'>0.70927E+03</wgt>
<wgt id='9066'>0.70936E+03</wgt>
<wgt id='9067'>0.70959E+03</wgt>
<wgt id='9068'>0.70968E+03</wgt>
<wgt id='9069'>0.71042E+03</wgt>
<wgt id='9070'>0.70949E+03</wgt>
<wgt id='9071'>0.71003E+03</wgt>
<wgt id='9072'>0.71018E+03</wgt>
<wgt id='9073'>0.70954E+03</wgt>
<wgt id='9074'>0.70990E+03</wgt>
<wgt id='9075'>0.70965E+03</wgt>
<wgt id='9076'>0.70966E+03</wgt>
<wgt id='9077'>0.70993E+03</wgt>
<wgt id='9078'>0.70995E+03</wgt>
<wgt id='9079'>0.70946E+03</wgt>
<wgt id='9080'>0.71031E+03</wgt>
<wgt id='9081'>0.70979E+03</wgt>
<wgt id='9082'>0.70982E+03</wgt>
<wgt id='9083'>0.70946E+03</wgt>
<wgt id='9084'>0.70917E+03</wgt>
<wgt id='9085'>0.70909E+03</wgt>
<wgt id='9086'>0.70991E+03</wgt>
<wgt id='9087'>0.70879E+03</wgt>
<wgt id='9088'>0.70921E+03</wgt>
<wgt id='9089'>0.70930E+03</wgt>
<wgt id='9090'>0.70977E+03</wgt>
<wgt id='9091'>0.70947E+03</wgt>
<wgt id='9092'>0.70952E+03</wgt>
<wgt id='9093'>0.70946E+03</wgt>
<wgt id='9094'>0.70943E+03</wgt>
<wgt id='9095'>0.70974E+03</wgt>
<wgt id='9096'>0.70945E+03</wgt>
<wgt id='9097'>0.70973E+03</wgt>
<wgt id='9098'>0.70958E+03</wgt>
<wgt id='9099'>0.70944E+03</wgt>
<wgt id='9100'>0.70967E+03</wgt>
<wgt id='9101'>0.69456E+03</wgt>
<wgt id='9102'>0.72489E+03</wgt>
<wgt id='10000'>0.74184E+03</wgt>
<wgt id='10001'>0.74121E+03</wgt>
<wgt id='10002'>0.73563E+03</wgt>
<wgt id='10003'>0.74177E+03</wgt>
<wgt id='10004'>0.73853E+03</wgt>
<wgt id='10005'>0.73787E+03</wgt>
<wgt id='10006'>0.73511E+03</wgt>
<wgt id='10007'>0.74118E+03</wgt>
<wgt id='10008'>0.74131E+03</wgt>
<wgt id='10009'>0.73765E+03</wgt>
<wgt id='10010'>0.74160E+03</wgt>
<wgt id='10011'>0.73555E+03</wgt>
<wgt id='10012'>0.73777E+03</wgt>
<wgt id='10013'>0.74270E+03</wgt>
<wgt id='10014'>0.74236E+03</wgt>
<wgt id='10015'>0.74447E+03</wgt>
<wgt id='10016'>0.74142E+03</wgt>
<wgt id='10017'>0.74435E+03</wgt>
<wgt id='10018'>0.74411E+03</wgt>
<wgt id='10019'>0.72687E+03</wgt>
<wgt id='10020'>0.74072E+03</wgt>
<wgt id='10021'>0.74129E+03</wgt>
<wgt id='10022'>0.74419E+03</wgt>
<wgt id='10023'>0.74304E+03</wgt>
<wgt id='10024'>0.74180E+03</wgt>
<wgt id='10025'>0.74109E+03</wgt>
<wgt id='10026'>0.74389E+03</wgt>
<wgt id='10027'>0.74233E+03</wgt>
<wgt id='10028'>0.74757E+03</wgt>
<wgt id='10029'>0.74236E+03</wgt>
<wgt id='10030'>0.74148E+03</wgt>
<wgt id='10031'>0.72707E+03</wgt>
<wgt id='10032'>0.75700E+03</wgt>
<wgt id='11000'>0.71009E+03</wgt>
<wgt id='11001'>0.69956E+03</wgt>
<wgt id='11002'>0.70648E+03</wgt>
<wgt id='11003'>0.71052E+03</wgt>
<wgt id='11004'>0.70217E+03</wgt>
<wgt id='11005'>0.71620E+03</wgt>
<wgt id='11006'>0.71041E+03</wgt>
<wgt id='11007'>0.71159E+03</wgt>
<wgt id='11008'>0.71079E+03</wgt>
<wgt id='11009'>0.71095E+03</wgt>
<wgt id='11010'>0.70838E+03</wgt>
<wgt id='11011'>0.70877E+03</wgt>
<wgt id='11012'>0.70858E+03</wgt>
<wgt id='11013'>0.71086E+03</wgt>
<wgt id='11014'>0.70916E+03</wgt>
<wgt id='11015'>0.70590E+03</wgt>
<wgt id='11016'>0.71214E+03</wgt>
<wgt id='11017'>0.71211E+03</wgt>
<wgt id='11018'>0.71082E+03</wgt>
<wgt id='11019'>0.71192E+03</wgt>
<wgt id='11020'>0.71022E+03</wgt>
<wgt id='11021'>0.71248E+03</wgt>
<wgt id='11022'>0.70953E+03</wgt>
<wgt id='11023'>0.71019E+03</wgt>
<wgt id='11024'>0.70564E+03</wgt>
<wgt id='11025'>0.70810E+03</wgt>
<wgt id='11026'>0.70998E+03</wgt>
<wgt id='11027'>0.71312E+03</wgt>
<wgt id='11028'>0.70892E+03</wgt>
<wgt id='11029'>0.69634E+03</wgt>
<wgt id='11030'>0.71036E+03</wgt>
<wgt id='11031'>0.69456E+03</wgt>
<wgt id='11032'>0.72489E+03</wgt>
<wgt id='12000'>0.62366E+03</wgt>
<wgt id='12001'>0.62286E+03</wgt>
<wgt id='12002'>0.62445E+03</wgt>
<wgt id='12003'>0.62414E+03</wgt>
<wgt id='12004'>0.62317E+03</wgt>
<wgt id='12005'>0.62408E+03</wgt>
<wgt id='12006'>0.62324E+03</wgt>
<wgt id='12007'>0.62651E+03</wgt>
<wgt id='12008'>0.62087E+03</wgt>
<wgt id='12009'>0.62272E+03</wgt>
<wgt id='12010'>0.62464E+03</wgt>
<wgt id='12011'>0.61957E+03</wgt>
<wgt id='12012'>0.62811E+03</wgt>
<wgt id='12013'>0.62281E+03</wgt>
<wgt id='12014'>0.62453E+03</wgt>
<wgt id='12015'>0.62747E+03</wgt>
<wgt id='12016'>0.61920E+03</wgt>
<wgt id='12017'>0.62601E+03</wgt>
<wgt id='12018'>0.62199E+03</wgt>
<wgt id='12019'>0.62887E+03</wgt>
<wgt id='12020'>0.61832E+03</wgt>
<wgt id='12021'>0.62432E+03</wgt>
<wgt id='12022'>0.62298E+03</wgt>
<wgt id='12023'>0.61616E+03</wgt>
<wgt id='12024'>0.63098E+03</wgt>
<wgt id='12025'>0.61719E+03</wgt>
<wgt id='12026'>0.63033E+03</wgt>
<wgt id='12027'>0.63497E+03</wgt>
<wgt id='12028'>0.61367E+03</wgt>
<wgt id='12050'>0.62366E+03</wgt>
<wgt id='12051'>0.62587E+03</wgt>
<wgt id='12052'>0.61743E+03</wgt>
<wgt id='12053'>0.62596E+03</wgt>
<wgt id='12054'>0.61913E+03</wgt>
<wgt id='12055'>0.61510E+03</wgt>
<wgt id='12056'>0.63862E+03</wgt>
<wgt id='12057'>0.62334E+03</wgt>
<wgt id='12058'>0.62239E+03</wgt>
<wgt id='12059'>0.62787E+03</wgt>
<wgt id='12060'>0.61755E+03</wgt>
<wgt id='12061'>0.61807E+03</wgt>
<wgt id='12062'>0.62188E+03</wgt>
<wgt id='12063'>0.63243E+03</wgt>
<wgt id='13000'>0.68729E+03</wgt>
<wgt id='13001'>0.68422E+03</wgt>
<wgt id='13002'>0.68565E+03</wgt>
<wgt id='13003'>0.68491E+03</wgt>
<wgt id='13004'>0.68496E+03</wgt>
<wgt id='13005'>0.68558E+03</wgt>
<wgt id='13006'>0.68430E+03</wgt>
<wgt id='13007'>0.68893E+03</wgt>
<wgt id='13008'>0.68106E+03</wgt>
<wgt id='13009'>0.68177E+03</wgt>
<wgt id='13010'>0.68821E+03</wgt>
<wgt id='13011'>0.68734E+03</wgt>
<wgt id='13012'>0.68261E+03</wgt>
<wgt id='13013'>0.68441E+03</wgt>
<wgt id='13014'>0.68543E+03</wgt>
<wgt id='13015'>0.68623E+03</wgt>
<wgt id='13016'>0.68227E+03</wgt>
<wgt id='13017'>0.68390E+03</wgt>
<wgt id='13018'>0.68603E+03</wgt>
<wgt id='13019'>0.68752E+03</wgt>
<wgt id='13020'>0.68249E+03</wgt>
<wgt id='13021'>0.69391E+03</wgt>
<wgt id='13022'>0.67621E+03</wgt>
<wgt id='13023'>0.67600E+03</wgt>
<wgt id='13024'>0.69393E+03</wgt>
<wgt id='13025'>0.67179E+03</wgt>
<wgt id='13026'>0.69748E+03</wgt>
<wgt id='13027'>0.67919E+03</wgt>
<wgt id='13028'>0.69135E+03</wgt>
<wgt id='13050'>0.68729E+03</wgt>
<wgt id='13051'>0.68754E+03</wgt>
<wgt id='13052'>0.67735E+03</wgt>
<wgt id='13053'>0.68738E+03</wgt>
<wgt id='13054'>0.68346E+03</wgt>
<wgt id='13055'>0.65887E+03</wgt>
<wgt id='13056'>0.69488E+03</wgt>
<wgt id='13057'>0.68513E+03</wgt>
<wgt id='13058'>0.68631E+03</wgt>
<wgt id='13059'>0.69142E+03</wgt>
<wgt id='13060'>0.65259E+03</wgt>
<wgt id='13061'>0.68786E+03</wgt>
<wgt id='13062'>0.68291E+03</wgt>
<wgt id='13063'>0.69873E+03</wgt>
<wgt id='14000'>0.74060E+03</wgt>
<wgt id='14001'>0.74053E+03</wgt>
<wgt id='14002'>0.74044E+03</wgt>
<wgt id='14003'>0.74037E+03</wgt>
<wgt id='14004'>0.74029E+03</wgt>
<wgt id='14005'>0.74021E+03</wgt>
<wgt id='14006'>0.74013E+03</wgt>
<wgt id='14007'>0.74004E+03</wgt>
<wgt id='14008'>0.73996E+03</wgt>
<wgt id='14009'>0.73988E+03</wgt>
<wgt id='14010'>0.73980E+03</wgt>
<wgt id='14011'>0.73972E+03</wgt>
<wgt id='14012'>0.73964E+03</wgt>
<wgt id='14013'>0.73957E+03</wgt>
<wgt id='14014'>0.73948E+03</wgt>
<wgt id='14015'>0.73940E+03</wgt>
<wgt id='14016'>0.73933E+03</wgt>
<wgt id='14017'>0.73925E+03</wgt>
<wgt id='14018'>0.73917E+03</wgt>
<wgt id='14019'>0.73909E+03</wgt>
<wgt id='14020'>0.73901E+03</wgt>
<wgt id='14021'>0.73893E+03</wgt>
<wgt id='14022'>0.73885E+03</wgt>
<wgt id='14023'>0.73877E+03</wgt>
<wgt id='14024'>0.73869E+03</wgt>
<wgt id='14025'>0.73861E+03</wgt>
<wgt id='14026'>0.73853E+03</wgt>
<wgt id='14027'>0.73845E+03</wgt>
<wgt id='14028'>0.73837E+03</wgt>
<wgt id='14029'>0.73829E+03</wgt>
<wgt id='14030'>0.73821E+03</wgt>
<wgt id='15000'>0.70187E+03</wgt>
<wgt id='15001'>0.70451E+03</wgt>
<wgt id='15002'>0.70089E+03</wgt>
<wgt id='15003'>0.70327E+03</wgt>
<wgt id='15004'>0.70537E+03</wgt>
<wgt id='15005'>0.70676E+03</wgt>
<wgt id='15006'>0.70467E+03</wgt>
<wgt id='15007'>0.69970E+03</wgt>
<wgt id='15008'>0.70072E+03</wgt>
<wgt id='15009'>0.70413E+03</wgt>
<wgt id='15010'>0.70312E+03</wgt>
<wgt id='15011'>0.70334E+03</wgt>
<wgt id='15012'>0.70403E+03</wgt>
<wgt id='15013'>0.71032E+03</wgt>
<wgt id='15014'>0.70141E+03</wgt>
<wgt id='15015'>0.69349E+03</wgt>
<wgt id='15016'>0.69883E+03</wgt>
<wgt id='15017'>0.70045E+03</wgt>
<wgt id='15018'>0.70788E+03</wgt>
<wgt id='15019'>0.70649E+03</wgt>
<wgt id='15020'>0.70876E+03</wgt>
<wgt id='15021'>0.69249E+03</wgt>
<wgt id='15022'>0.70288E+03</wgt>
<wgt id='15023'>0.69552E+03</wgt>
<wgt id='15024'>0.69849E+03</wgt>
<wgt id='15025'>0.70539E+03</wgt>
<wgt id='15026'>0.70110E+03</wgt>
<wgt id='15027'>0.70043E+03</wgt>
<wgt id='15028'>0.70244E+03</wgt>
<wgt id='15029'>0.70300E+03</wgt>
<wgt id='15030'>0.70076E+03</wgt>
<wgt id='15031'>0.70039E+03</wgt>
<wgt id='15032'>0.70269E+03</wgt>
<wgt id='15033'>0.70254E+03</wgt>
<wgt id='15034'>0.70304E+03</wgt>
<wgt id='15035'>0.70298E+03</wgt>
<wgt id='15036'>0.70238E+03</wgt>
<wgt id='15037'>0.70207E+03</wgt>
<wgt id='15038'>0.70244E+03</wgt>
<wgt id='15039'>0.70148E+03</wgt>
<wgt id='15040'>0.70130E+03</wgt>
<wgt id='15041'>0.70177E+03</wgt>
<wgt id='15042'>0.70182E+03</wgt>
<wgt id='15043'>0.70043E+03</wgt>
<wgt id='15044'>0.70235E+03</wgt>
<wgt id='15045'>0.70175E+03</wgt>
<wgt id='15046'>0.70075E+03</wgt>
<wgt id='15047'>0.70229E+03</wgt>
<wgt id='15048'>0.70213E+03</wgt>
<wgt id='15049'>0.70150E+03</wgt>
<wgt id='15050'>0.70182E+03</wgt>
<wgt id='15051'>0.70244E+03</wgt>
<wgt id='15052'>0.70260E+03</wgt>
<wgt id='15053'>0.70218E+03</wgt>
<wgt id='15054'>0.70169E+03</wgt>
<wgt id='15055'>0.70156E+03</wgt>
<wgt id='15056'>0.70227E+03</wgt>
<wgt id='15057'>0.70196E+03</wgt>
<wgt id='15058'>0.70089E+03</wgt>
<wgt id='15059'>0.70150E+03</wgt>
<wgt id='15060'>0.70189E+03</wgt>
<wgt id='15061'>0.70174E+03</wgt>
<wgt id='15062'>0.70215E+03</wgt>
<wgt id='15063'>0.70195E+03</wgt>
<wgt id='15064'>0.70208E+03</wgt>
<wgt id='15065'>0.70150E+03</wgt>
<wgt id='15066'>0.70158E+03</wgt>
<wgt id='15067'>0.70184E+03</wgt>
<wgt id='15068'>0.70189E+03</wgt>
<wgt id='15069'>0.70265E+03</wgt>
<wgt id='15070'>0.70172E+03</wgt>
<wgt id='15071'>0.70224E+03</wgt>
<wgt id='15072'>0.70240E+03</wgt>
<wgt id='15073'>0.70177E+03</wgt>
<wgt id='15074'>0.70211E+03</wgt>
<wgt id='15075'>0.70185E+03</wgt>
<wgt id='15076'>0.70186E+03</wgt>
<wgt id='15077'>0.70214E+03</wgt>
<wgt id='15078'>0.70215E+03</wgt>
<wgt id='15079'>0.70167E+03</wgt>
<wgt id='15080'>0.70255E+03</wgt>
<wgt id='15081'>0.70198E+03</wgt>
<wgt id='15082'>0.70203E+03</wgt>
<wgt id='15083'>0.70169E+03</wgt>
<wgt id='15084'>0.70141E+03</wgt>
<wgt id='15085'>0.70131E+03</wgt>
<wgt id='15086'>0.70210E+03</wgt>
<wgt id='15087'>0.70102E+03</wgt>
<wgt id='15088'>0.70145E+03</wgt>
<wgt id='15089'>0.70154E+03</wgt>
<wgt id='15090'>0.70200E+03</wgt>
<wgt id='15091'>0.70170E+03</wgt>
<wgt id='15092'>0.70176E+03</wgt>
<wgt id='15093'>0.70167E+03</wgt>
<wgt id='15094'>0.70167E+03</wgt>
<wgt id='15095'>0.70195E+03</wgt>
<wgt id='15096'>0.70167E+03</wgt>
<wgt id='15097'>0.70195E+03</wgt>
<wgt id='15098'>0.70180E+03</wgt>
<wgt id='15099'>0.70166E+03</wgt>
<wgt id='15100'>0.70188E+03</wgt>
<wgt id='15101'>0.70186E+03</wgt>
<wgt id='15102'>0.70181E+03</wgt>
<wgt id='15103'>0.70188E+03</wgt>
<wgt id='15104'>0.70188E+03</wgt>
<wgt id='15105'>0.70189E+03</wgt>
<wgt id='15106'>0.70187E+03</wgt>
<wgt id='15107'>0.70183E+03</wgt>
<wgt id='1500'>0.74390E+03</wgt>
<wgt id='1501'>0.71973E+03</wgt>
<wgt id='1502'>0.76257E+03</wgt>
<wgt id='1503'>0.75506E+03</wgt>
<wgt id='1504'>0.70668E+03</wgt>
<wgt id='1505'>0.71174E+03</wgt>
<wgt id='1506'>0.72842E+03</wgt>
<wgt id='1507'>0.75092E+03</wgt>
<wgt id='1508'>0.75296E+03</wgt>
<wgt id='1509'>0.73439E+03</wgt>
<wgt id='1510'>0.76377E+03</wgt>
<wgt id='1511'>0.74970E+03</wgt>
<wgt id='1512'>0.73549E+03</wgt>
<wgt id='1513'>0.75432E+03</wgt>
<wgt id='1514'>0.77659E+03</wgt>
<wgt id='1515'>0.74521E+03</wgt>
<wgt id='1516'>0.75898E+03</wgt>
<wgt id='1517'>0.77368E+03</wgt>
<wgt id='1518'>0.75894E+03</wgt>
<wgt id='1519'>0.72891E+03</wgt>
<wgt id='1520'>0.74175E+03</wgt>
<wgt id='1521'>0.71657E+03</wgt>
<wgt id='1522'>0.74063E+03</wgt>
<wgt id='1523'>0.75626E+03</wgt>
<wgt id='1524'>0.71936E+03</wgt>
<wgt id='1525'>0.74480E+03</wgt>
<wgt id='1526'>0.70690E+03</wgt>
<wgt id='1527'>0.78457E+03</wgt>
<wgt id='1528'>0.75085E+03</wgt>
<wgt id='1529'>0.75032E+03</wgt>
<wgt id='1530'>0.72898E+03</wgt>
<wgt id='1531'>0.72618E+03</wgt>
<wgt id='1532'>0.73920E+03</wgt>
<wgt id='1533'>0.74513E+03</wgt>
<wgt id='1534'>0.70643E+03</wgt>
<wgt id='1535'>0.78732E+03</wgt>
<wgt id='1536'>0.75185E+03</wgt>
<wgt id='1537'>0.75026E+03</wgt>
<wgt id='1538'>0.74820E+03</wgt>
<wgt id='1539'>0.71932E+03</wgt>
<wgt id='1540'>0.73749E+03</wgt>
<wgt id='1541'>0.72846E+03</wgt>
<wgt id='1542'>0.72435E+03</wgt>
<wgt id='1543'>0.72236E+03</wgt>
<wgt id='1544'>0.73434E+03</wgt>
<wgt id='1545'>0.76774E+03</wgt>
<wgt id='1546'>0.72872E+03</wgt>
<wgt id='1547'>0.74596E+03</wgt>
<wgt id='1548'>0.74093E+03</wgt>
<wgt id='1549'>0.77096E+03</wgt>
<wgt id='1550'>0.74898E+03</wgt>
<wgt id='1551'>0.73554E+03</wgt>
<wgt id='1552'>0.75191E+03</wgt>
<wgt id='1553'>0.72445E+03</wgt>
<wgt id='1554'>0.73667E+03</wgt>
<wgt id='1555'>0.74502E+03</wgt>
<wgt id='1556'>0.75726E+03</wgt>
<wgt id='1557'>0.75132E+03</wgt>
<wgt id='1558'>0.74637E+03</wgt>
<wgt id='1559'>0.74762E+03</wgt>
<wgt id='1560'>0.74177E+03</wgt>
<wgt id='1561'>0.75224E+03</wgt>
<wgt id='1562'>0.74978E+03</wgt>
<wgt id='1563'>0.73137E+03</wgt>
<wgt id='1564'>0.77369E+03</wgt>
<wgt id='1565'>0.73595E+03</wgt>
<wgt id='1566'>0.74165E+03</wgt>
<wgt id='1567'>0.76584E+03</wgt>
<wgt id='1568'>0.74669E+03</wgt>
<wgt id='1569'>0.74211E+03</wgt>
<wgt id='1570'>0.74479E+03</wgt>
<wgt id='1571'>0.74157E+03</wgt>
<wgt id='1572'>0.72558E+03</wgt>
<wgt id='1573'>0.74533E+03</wgt>
<wgt id='1574'>0.72356E+03</wgt>
<wgt id='1575'>0.75509E+03</wgt>
<wgt id='1576'>0.71206E+03</wgt>
<wgt id='1577'>0.72262E+03</wgt>
<wgt id='1578'>0.73374E+03</wgt>
<wgt id='1579'>0.74485E+03</wgt>
<wgt id='1580'>0.74111E+03</wgt>
<wgt id='1581'>0.74350E+03</wgt>
<wgt id='1582'>0.74343E+03</wgt>
<wgt id='1583'>0.72229E+03</wgt>
<wgt id='1584'>0.75757E+03</wgt>
<wgt id='1585'>0.75340E+03</wgt>
<wgt id='1586'>0.75260E+03</wgt>
<wgt id='1587'>0.76458E+03</wgt>
<wgt id='1588'>0.75549E+03</wgt>
<wgt id='1589'>0.73042E+03</wgt>
<wgt id='1590'>0.73637E+03</wgt>
<wgt id='1591'>0.73128E+03</wgt>
<wgt id='1592'>0.74183E+03</wgt>
<wgt id='1593'>0.75603E+03</wgt>
<wgt id='1594'>0.75008E+03</wgt>
<wgt id='1595'>0.78296E+03</wgt>
<wgt id='1596'>0.73765E+03</wgt>
<wgt id='1597'>0.74733E+03</wgt>
<wgt id='1598'>0.74492E+03</wgt>
<wgt id='1599'>0.75015E+03</wgt>
<wgt id='1600'>0.77983E+03</wgt>
<wgt id='1601'>0.73302E+03</wgt>
<wgt id='1602'>0.75080E+03</wgt>
<wgt id='1700'>0.70075E+03</wgt>
<wgt id='1800'>0.75624E+03</wgt>
<wgt id='1850'>0.88099E+03</wgt>
<wgt id='1900'>0.80778E+03</wgt>
<wgt id='1950'>0.85028E+03</wgt>
</rwgt>
</event>
<event>
     13 322222  6.87070E+02  2.44843E+01 -1.00000E+00  1.56778E-01
      21    -1     0     0   502   503  0.000000000E+00  0.000000000E+00  5.512554882E+02  5.512554882E+02  0.000000000E+00  0.00000E+00  9.000E+00
      21    -1     0     0   504   505  0.000000000E+00  0.000000000E+00 -3.719838534E+02  3.719838534E+02  0.000000000E+00  0.00000E+00  9.000E+00
       6     2     1     2   502     0 -5.384633747E+01 -5.658709467E+01  5.030663179E+02  5.373828581E+02  1.720554812E+02  0.00000E+00  9.000E+00
      -6     2     1     2     0   505  3.535406425E+01  4.053975448E+01 -3.041656858E+02  3.544752977E+02  1.739039697E+02  0.00000E+00  9.000E+00
      21     1     1     2   504   503  1.849227321E+01  1.604734018E+01 -1.962899714E+01  3.138118583E+01  4.129530925E-07  0.00000E+00  9.000E+00
      24     2     3     3     0     0 -7.995673503E+01  1.081485908E+01  3.427674501E+02  3.614750889E+02  8.163745717E+01  0.00000E+00  9.000E+00
       5     1     3     3   502     0  2.611039756E+01 -6.740195375E+01  1.602988678E+02  1.759077691E+02  4.800000000E+00  0.00000E+00 -1.000E+00
     -24     2     4     4     0     0  4.070287863E+01  5.409401503E+01 -3.171109280E+02  3.344017557E+02  8.174537776E+01  0.00000E+00  9.000E+00
      -5     1     4     4     0   505 -5.348814371E+00 -1.355426055E+01  1.294524215E+01  2.007354200E+01  4.800000000E+00  0.00000E+00  1.000E+00
      -3     1     6     6     0   506 -5.276906559E+01 -7.240644065E+00  7.653291115E+01  9.324337884E+01  2.000000000E-01  0.00000E+00  1.000E+00
       4     1     6     6   506     0 -2.718766944E+01  1.805550315E+01  2.662345389E+02  2.682317101E+02  1.500000000E+00  0.00000E+00 -1.000E+00
      13     1     8     8     0     0 -1.853491697E+01  4.167222683E+01 -1.375191657E+02  1.448849535E+02  1.057000000E-01  0.00000E+00 -1.000E+00
     -14     1     8     8     0     0  5.923779560E+01  1.242178820E+01 -1.795917623E+02  1.895168022E+02  0.000000000E+00  0.00000E+00  1.000E+00
#rwgt            1           1   1812.8485829472886                2        3477           0
<rwgt>
<wgt id='1001'>0.68707E+03</wgt>
<wgt id='1002'>0.67187E+03</wgt>
<wgt id='1003'>0.70279E+03</wgt>
<wgt id='1004'>0.57529E+03</wgt>
<wgt id='1005'>0.55867E+03</wgt>
<wgt id='1006'>0.59318E+03</wgt>
<wgt id='1007'>0.83591E+03</wgt>
<wgt id='1008'>0.82423E+03</wgt>
<wgt id='1009'>0.84674E+03</wgt>
<wgt id='2000'>0.68707E+03</wgt>
<wgt id='2001'>0.68647E+03</wgt>
<wgt id='2002'>0.68693E+03</wgt>
<wgt id='2003'>0.68663E+03</wgt>
<wgt id='2004'>0.68914E+03</wgt>
<wgt id='2005'>0.68699E+03</wgt>
<wgt id='2006'>0.68564E+03</wgt>
<wgt id='2007'>0.68666E+03</wgt>
<wgt id='2008'>0.68555E+03</wgt>
<wgt id='2009'>0.68785E+03</wgt>
<wgt id='2010'>0.68690E+03</wgt>
<wgt id='2011'>0.68395E+03</wgt>
<wgt id='2012'>0.68521E+03</wgt>
<wgt id='2013'>0.68313E+03</wgt>
<wgt id='2014'>0.68642E+03</wgt>
<wgt id='2015'>0.68674E+03</wgt>
<wgt id='2016'>0.68864E+03</wgt>
<wgt id='2017'>0.68662E+03</wgt>
<wgt id='2018'>0.68556E+03</wgt>
<wgt id='2019'>0.68760E+03</wgt>
<wgt id='2020'>0.68667E+03</wgt>
<wgt id='2021'>0.68748E+03</wgt>
<wgt id='2022'>0.68680E+03</wgt>
<wgt id='2023'>0.68810E+03</wgt>
<wgt id='2024'>0.68500E+03</wgt>
<wgt id='2025'>0.68831E+03</wgt>
<wgt id='2026'>0.68993E+03</wgt>
<wgt id='2027'>0.68549E+03</wgt>
<wgt id='2028'>0.68463E+03</wgt>
<wgt id='2029'>0.69198E+03</wgt>
<wgt id='2030'>0.68704E+03</wgt>
<wgt id='2031'>0.68836E+03</wgt>
<wgt id='2032'>0.68623E+03</wgt>
<wgt id='2033'>0.68730E+03</wgt>
<wgt id='2034'>0.68986E+03</wgt>
<wgt id='2035'>0.68657E+03</wgt>
<wgt id='2036'>0.68720E+03</wgt>
<wgt id='2037'>0.68897E+03</wgt>
<wgt id='2038'>0.68664E+03</wgt>
<wgt id='2039'>0.68510E+03</wgt>
<wgt id='2040'>0.68690E+03</wgt>
<wgt id='2041'>0.68678E+03</wgt>
<wgt id='2042'>0.68612E+03</wgt>
<wgt id='2043'>0.68697E+03</wgt>
<wgt id='2044'>0.68830E+03</wgt>
<wgt id='2045'>0.68638E+03</wgt>
<wgt id='2046'>0.68831E+03</wgt>
<wgt id='2047'>0.68845E+03</wgt>
<wgt id='2048'>0.68620E+03</wgt>
<wgt id='2049'>0.68672E+03</wgt>
<wgt id='2050'>0.68761E+03</wgt>
<wgt id='2051'>0.68842E+03</wgt>
<wgt id='2052'>0.68703E+03</wgt>
<wgt id='2053'>0.68743E+03</wgt>
<wgt id='2054'>0.68747E+03</wgt>
<wgt id='2055'>0.68711E+03</wgt>
<wgt id='2056'>0.68708E+03</wgt>
<wgt id='2057'>0.68752E+03</wgt>
<wgt id='2058'>0.68732E+03</wgt>
<wgt id='2059'>0.68685E+03</wgt>
<wgt id='2060'>0.68719E+03</wgt>
<wgt id='2061'>0.68669E+03</wgt>
<wgt id='2062'>0.68718E+03</wgt>
<wgt id='2063'>0.68702E+03</wgt>
<wgt id='2064'>0.68673E+03</wgt>
<wgt id='2065'>0.68746E+03</wgt>
<wgt id='2066'>0.68680E+03</wgt>
<wgt id='2067'>0.68717E+03</wgt>
<wgt id='2068'>0.68736E+03</wgt>
<wgt id='2069'>0.68721E+03</wgt>
<wgt id='2070'>0.68681E+03</wgt>
<wgt id='2071'>0.68665E+03</wgt>
<wgt id='2072'>0.68713E+03</wgt>
<wgt id='2073'>0.68710E+03</wgt>
<wgt id='2074'>0.68690E+03</wgt>
<wgt id='2075'>0.68700E+03</wgt>
<wgt id='2076'>0.68709E+03</wgt>
<wgt id='2077'>0.68684E+03</wgt>
<wgt id='2078'>0.68708E+03</wgt>
<wgt id='2079'>0.68725E+03</wgt>
<wgt id='2080'>0.68708E+03</wgt>
<wgt id='2081'>0.68723E+03</wgt>
<wgt id='2082'>0.68723E+03</wgt>
<wgt id='2083'>0.68707E+03</wgt>
<wgt id='2084'>0.68707E+03</wgt>
<wgt id='2085'>0.68699E+03</wgt>
<wgt id='2086'>0.68703E+03</wgt>
<wgt id='2087'>0.68700E+03</wgt>
<wgt id='2088'>0.68719E+03</wgt>
<wgt id='2089'>0.68706E+03</wgt>
<wgt id='2090'>0.68710E+03</wgt>
<wgt id='2091'>0.68704E+03</wgt>
<wgt id='2092'>0.68707E+03</wgt>
<wgt id='2093'>0.68705E+03</wgt>
<wgt id='2094'>0.68704E+03</wgt>
<wgt id='2095'>0.68713E+03</wgt>
<wgt id='2096'>0.68697E+03</wgt>
<wgt id='2097'>0.68732E+03</wgt>
<wgt id='2098'>0.68694E+03</wgt>
<wgt id='2099'>0.68715E+03</wgt>
<wgt id='2100'>0.68706E+03</wgt>
<wgt id='2101'>0.66444E+03</wgt>
<wgt id='2102'>0.71046E+03</wgt>
<wgt id='2104'>0.58211E+03</wgt>
<wgt id='2105'>0.60331E+03</wgt>
<wgt id='2106'>0.62422E+03</wgt>
<wgt id='2107'>0.64257E+03</wgt>
<wgt id='2108'>0.67608E+03</wgt>
<wgt id='2109'>0.69828E+03</wgt>
<wgt id='2110'>0.73006E+03</wgt>
<wgt id='2111'>0.75225E+03</wgt>
<wgt id='3000'>0.72037E+03</wgt>
<wgt id='3001'>0.72027E+03</wgt>
<wgt id='3002'>0.72064E+03</wgt>
<wgt id='3003'>0.71933E+03</wgt>
<wgt id='3004'>0.72222E+03</wgt>
<wgt id='3005'>0.71972E+03</wgt>
<wgt id='3006'>0.71942E+03</wgt>
<wgt id='3007'>0.72087E+03</wgt>
<wgt id='3008'>0.72084E+03</wgt>
<wgt id='3009'>0.72204E+03</wgt>
<wgt id='3010'>0.72033E+03</wgt>
<wgt id='3011'>0.71851E+03</wgt>
<wgt id='3012'>0.71896E+03</wgt>
<wgt id='3013'>0.72353E+03</wgt>
<wgt id='3014'>0.71928E+03</wgt>
<wgt id='3015'>0.71837E+03</wgt>
<wgt id='3016'>0.72035E+03</wgt>
<wgt id='3017'>0.71878E+03</wgt>
<wgt id='3018'>0.72110E+03</wgt>
<wgt id='3019'>0.72237E+03</wgt>
<wgt id='3020'>0.72072E+03</wgt>
<wgt id='3021'>0.72116E+03</wgt>
<wgt id='3022'>0.72043E+03</wgt>
<wgt id='3023'>0.72014E+03</wgt>
<wgt id='3024'>0.71912E+03</wgt>
<wgt id='3025'>0.72141E+03</wgt>
<wgt id='3026'>0.72061E+03</wgt>
<wgt id='3027'>0.72068E+03</wgt>
<wgt id='3028'>0.71783E+03</wgt>
<wgt id='3029'>0.71715E+03</wgt>
<wgt id='3030'>0.72547E+03</wgt>
<wgt id='3031'>0.72299E+03</wgt>
<wgt id='3032'>0.72129E+03</wgt>
<wgt id='3033'>0.72291E+03</wgt>
<wgt id='3034'>0.72067E+03</wgt>
<wgt id='3035'>0.72439E+03</wgt>
<wgt id='3036'>0.72150E+03</wgt>
<wgt id='3037'>0.71997E+03</wgt>
<wgt id='3038'>0.72068E+03</wgt>
<wgt id='3039'>0.72031E+03</wgt>
<wgt id='3040'>0.71952E+03</wgt>
<wgt id='3041'>0.72116E+03</wgt>
<wgt id='3042'>0.71912E+03</wgt>
<wgt id='3043'>0.71879E+03</wgt>
<wgt id='3044'>0.72083E+03</wgt>
<wgt id='3045'>0.72128E+03</wgt>
<wgt id='3046'>0.72167E+03</wgt>
<wgt id='3047'>0.72041E+03</wgt>
<wgt id='3048'>0.72068E+03</wgt>
<wgt id='3049'>0.72007E+03</wgt>
<wgt id='3050'>0.71967E+03</wgt>
<wgt id='3051'>0.72186E+03</wgt>
<wgt id='3052'>0.71977E+03</wgt>
<wgt id='3053'>0.72014E+03</wgt>
<wgt id='3054'>0.72051E+03</wgt>
<wgt id='3055'>0.71946E+03</wgt>
<wgt id='3056'>0.72057E+03</wgt>
<wgt id='3057'>0.72022E+03</wgt>
<wgt id='3058'>0.71968E+03</wgt>
<wgt id='3059'>0.72049E+03</wgt>
<wgt id='3060'>0.72076E+03</wgt>
<wgt id='3061'>0.72078E+03</wgt>
<wgt id='3062'>0.72059E+03</wgt>
<wgt id='3063'>0.72070E+03</wgt>
<wgt id='3064'>0.72007E+03</wgt>
<wgt id='3065'>0.72032E+03</wgt>
<wgt id='3066'>0.72060E+03</wgt>
<wgt id='3067'>0.71982E+03</wgt>
<wgt id='3068'>0.72059E+03</wgt>
<wgt id='3069'>0.71996E+03</wgt>
<wgt id='3070'>0.72031E+03</wgt>
<wgt id='3071'>0.72026E+03</wgt>
<wgt id='3072'>0.72054E+03</wgt>
<wgt id='3073'>0.72012E+03</wgt>
<wgt id='3074'>0.72077E+03</wgt>
<wgt id='3075'>0.72047E+03</wgt>
<wgt id='3076'>0.72037E+03</wgt>
<wgt id='3077'>0.72043E+03</wgt>
<wgt id='3078'>0.72065E+03</wgt>
<wgt id='3079'>0.72017E+03</wgt>
<wgt id='3080'>0.72021E+03</wgt>
<wgt id='3081'>0.72028E+03</wgt>
<wgt id='3082'>0.72021E+03</wgt>
<wgt id='3083'>0.72040E+03</wgt>
<wgt id='3084'>0.72023E+03</wgt>
<wgt id='3085'>0.72056E+03</wgt>
<wgt id='3086'>0.72032E+03</wgt>
<wgt id='3087'>0.72028E+03</wgt>
<wgt id='3088'>0.72026E+03</wgt>
<wgt id='3089'>0.72041E+03</wgt>
<wgt id='3090'>0.72046E+03</wgt>
<wgt id='3091'>0.72033E+03</wgt>
<wgt id='3092'>0.72033E+03</wgt>
<wgt id='3093'>0.72045E+03</wgt>
<wgt id='3094'>0.72049E+03</wgt>
<wgt id='3095'>0.72042E+03</wgt>
<wgt id='3096'>0.72021E+03</wgt>
<wgt id='3097'>0.72022E+03</wgt>
<wgt id='3098'>0.72021E+03</wgt>
<wgt id='3099'>0.72048E+03</wgt>
<wgt id='3100'>0.72045E+03</wgt>
<wgt id='3101'>0.69639E+03</wgt>
<wgt id='3102'>0.74233E+03</wgt>
<wgt id='5000'>0.68075E+03</wgt>
<wgt id='5001'>0.68335E+03</wgt>
<wgt id='5002'>0.68312E+03</wgt>
<wgt id='5003'>0.68303E+03</wgt>
<wgt id='5004'>0.67683E+03</wgt>
<wgt id='5005'>0.67577E+03</wgt>
<wgt id='5006'>0.65612E+03</wgt>
<wgt id='5007'>0.66935E+03</wgt>
<wgt id='5008'>0.68852E+03</wgt>
<wgt id='5009'>0.67250E+03</wgt>
<wgt id='5010'>0.68224E+03</wgt>
<wgt id='5011'>0.68529E+03</wgt>
<wgt id='5012'>0.67871E+03</wgt>
<wgt id='5013'>0.69685E+03</wgt>
<wgt id='5014'>0.68965E+03</wgt>
<wgt id='5015'>0.67842E+03</wgt>
<wgt id='5016'>0.68757E+03</wgt>
<wgt id='5017'>0.66603E+03</wgt>
<wgt id='5018'>0.69640E+03</wgt>
<wgt id='5019'>0.69094E+03</wgt>
<wgt id='5020'>0.67116E+03</wgt>
<wgt id='5021'>0.67792E+03</wgt>
<wgt id='5022'>0.68253E+03</wgt>
<wgt id='5023'>0.67635E+03</wgt>
<wgt id='5024'>0.68561E+03</wgt>
<wgt id='5025'>0.68585E+03</wgt>
<wgt id='5026'>0.67656E+03</wgt>
<wgt id='5027'>0.68138E+03</wgt>
<wgt id='5028'>0.67960E+03</wgt>
<wgt id='5029'>0.68155E+03</wgt>
<wgt id='5030'>0.68031E+03</wgt>
<wgt id='5031'>0.67910E+03</wgt>
<wgt id='5032'>0.68325E+03</wgt>
<wgt id='5033'>0.68111E+03</wgt>
<wgt id='5034'>0.68053E+03</wgt>
<wgt id='5035'>0.69102E+03</wgt>
<wgt id='5036'>0.67162E+03</wgt>
<wgt id='5037'>0.65848E+03</wgt>
<wgt id='5038'>0.70627E+03</wgt>
<wgt id='5039'>0.69845E+03</wgt>
<wgt id='5040'>0.67108E+03</wgt>
<wgt id='5041'>0.68568E+03</wgt>
<wgt id='5042'>0.67888E+03</wgt>
<wgt id='5043'>0.68330E+03</wgt>
<wgt id='5044'>0.68570E+03</wgt>
<wgt id='5045'>0.68004E+03</wgt>
<wgt id='5046'>0.66194E+03</wgt>
<wgt id='5047'>0.67958E+03</wgt>
<wgt id='5048'>0.67296E+03</wgt>
<wgt id='5049'>0.68125E+03</wgt>
<wgt id='5050'>0.67887E+03</wgt>
<wgt id='5051'>0.67964E+03</wgt>
<wgt id='5052'>0.68032E+03</wgt>
<wgt id='5053'>0.65687E+03</wgt>
<wgt id='5054'>0.66062E+03</wgt>
<wgt id='5055'>0.67417E+03</wgt>
<wgt id='5056'>0.69582E+03</wgt>
<wgt id='5060'>0.65519E+03</wgt>
<wgt id='5070'>0.70803E+03</wgt>
<wgt id='4000'>0.68552E+03</wgt>
<wgt id='4001'>0.68396E+03</wgt>
<wgt id='4002'>0.68535E+03</wgt>
<wgt id='4003'>0.66562E+03</wgt>
<wgt id='4004'>0.68047E+03</wgt>
<wgt id='4005'>0.68263E+03</wgt>
<wgt id='4006'>0.68842E+03</wgt>
<wgt id='4007'>0.68431E+03</wgt>
<wgt id='4008'>0.67795E+03</wgt>
<wgt id='4009'>0.69164E+03</wgt>
<wgt id='4010'>0.67867E+03</wgt>
<wgt id='4011'>0.69868E+03</wgt>
<wgt id='4012'>0.67485E+03</wgt>
<wgt id='4013'>0.69150E+03</wgt>
<wgt id='4014'>0.68381E+03</wgt>
<wgt id='4015'>0.70390E+03</wgt>
<wgt id='4016'>0.67303E+03</wgt>
<wgt id='4017'>0.67032E+03</wgt>
<wgt id='4018'>0.70357E+03</wgt>
<wgt id='4019'>0.68984E+03</wgt>
<wgt id='4020'>0.68118E+03</wgt>
<wgt id='4021'>0.68767E+03</wgt>
<wgt id='4022'>0.68141E+03</wgt>
<wgt id='4023'>0.68572E+03</wgt>
<wgt id='4024'>0.68548E+03</wgt>
<wgt id='4025'>0.70537E+03</wgt>
<wgt id='4026'>0.66683E+03</wgt>
<wgt id='4027'>0.68844E+03</wgt>
<wgt id='4028'>0.68165E+03</wgt>
<wgt id='4029'>0.68738E+03</wgt>
<wgt id='4030'>0.68495E+03</wgt>
<wgt id='4031'>0.68840E+03</wgt>
<wgt id='4032'>0.68181E+03</wgt>
<wgt id='4033'>0.67943E+03</wgt>
<wgt id='4034'>0.69907E+03</wgt>
<wgt id='4035'>0.67011E+03</wgt>
<wgt id='4036'>0.70105E+03</wgt>
<wgt id='4037'>0.68202E+03</wgt>
<wgt id='4038'>0.69141E+03</wgt>
<wgt id='4039'>0.68480E+03</wgt>
<wgt id='4040'>0.68828E+03</wgt>
<wgt id='4041'>0.68070E+03</wgt>
<wgt id='4042'>0.69077E+03</wgt>
<wgt id='4043'>0.67908E+03</wgt>
<wgt id='4044'>0.69961E+03</wgt>
<wgt id='4045'>0.68643E+03</wgt>
<wgt id='4046'>0.69033E+03</wgt>
<wgt id='4047'>0.68825E+03</wgt>
<wgt id='4048'>0.66583E+03</wgt>
<wgt id='4049'>0.66762E+03</wgt>
<wgt id='4050'>0.68939E+03</wgt>
<wgt id='4051'>0.68826E+03</wgt>
<wgt id='4052'>0.68747E+03</wgt>
<wgt id='4053'>0.66140E+03</wgt>
<wgt id='4054'>0.69487E+03</wgt>
<wgt id='4055'>0.68013E+03</wgt>
<wgt id='4056'>0.69766E+03</wgt>
<wgt id='4060'>0.66203E+03</wgt>
<wgt id='4070'>0.71086E+03</wgt>
<wgt id='4080'>0.63939E+03</wgt>
<wgt id='6000'>0.70570E+03</wgt>
<wgt id='6001'>0.70630E+03</wgt>
<wgt id='6002'>0.70512E+03</wgt>
<wgt id='6003'>0.70654E+03</wgt>
<wgt id='6004'>0.70517E+03</wgt>
<wgt id='6005'>0.71030E+03</wgt>
<wgt id='6006'>0.70151E+03</wgt>
<wgt id='6007'>0.70317E+03</wgt>
<wgt id='6008'>0.70858E+03</wgt>
<wgt id='6009'>0.70647E+03</wgt>
<wgt id='6010'>0.70500E+03</wgt>
<wgt id='6011'>0.70628E+03</wgt>
<wgt id='6012'>0.70449E+03</wgt>
<wgt id='6013'>0.70557E+03</wgt>
<wgt id='6014'>0.70609E+03</wgt>
<wgt id='6015'>0.70497E+03</wgt>
<wgt id='6016'>0.70617E+03</wgt>
<wgt id='6017'>0.70292E+03</wgt>
<wgt id='6018'>0.70909E+03</wgt>
<wgt id='6019'>0.70569E+03</wgt>
<wgt id='6020'>0.70574E+03</wgt>
<wgt id='6021'>0.70425E+03</wgt>
<wgt id='6022'>0.70763E+03</wgt>
<wgt id='6023'>0.70154E+03</wgt>
<wgt id='6024'>0.70854E+03</wgt>
<wgt id='6025'>0.70968E+03</wgt>
<wgt id='6026'>0.70192E+03</wgt>
<wgt id='6027'>0.70593E+03</wgt>
<wgt id='6028'>0.70535E+03</wgt>
<wgt id='6029'>0.70175E+03</wgt>
<wgt id='6030'>0.71059E+03</wgt>
<wgt id='6031'>0.69594E+03</wgt>
<wgt id='6032'>0.71687E+03</wgt>
<wgt id='6033'>0.70970E+03</wgt>
<wgt id='6034'>0.70196E+03</wgt>
<wgt id='6035'>0.70741E+03</wgt>
<wgt id='6036'>0.70137E+03</wgt>
<wgt id='6037'>0.70623E+03</wgt>
<wgt id='6038'>0.70547E+03</wgt>
<wgt id='6039'>0.70355E+03</wgt>
<wgt id='6040'>0.70822E+03</wgt>
<wgt id='6041'>0.69910E+03</wgt>
<wgt id='6042'>0.71330E+03</wgt>
<wgt id='6043'>0.71155E+03</wgt>
<wgt id='6044'>0.70281E+03</wgt>
<wgt id='6045'>0.70475E+03</wgt>
<wgt id='6046'>0.70825E+03</wgt>
<wgt id='6047'>0.71670E+03</wgt>
<wgt id='6048'>0.69256E+03</wgt>
<wgt id='6049'>0.71056E+03</wgt>
<wgt id='6050'>0.70339E+03</wgt>
<wgt id='7000'>0.67769E+03</wgt>
<wgt id='7001'>0.67752E+03</wgt>
<wgt id='7002'>0.67792E+03</wgt>
<wgt id='7003'>0.68010E+03</wgt>
<wgt id='7004'>0.67532E+03</wgt>
<wgt id='7005'>0.67998E+03</wgt>
<wgt id='7006'>0.67683E+03</wgt>
<wgt id='7007'>0.67760E+03</wgt>
<wgt id='7008'>0.67782E+03</wgt>
<wgt id='7009'>0.67825E+03</wgt>
<wgt id='7010'>0.67717E+03</wgt>
<wgt id='7011'>0.67625E+03</wgt>
<wgt id='7012'>0.67830E+03</wgt>
<wgt id='7013'>0.67754E+03</wgt>
<wgt id='7014'>0.67787E+03</wgt>
<wgt id='7015'>0.67774E+03</wgt>
<wgt id='7016'>0.67768E+03</wgt>
<wgt id='7017'>0.67805E+03</wgt>
<wgt id='7018'>0.67757E+03</wgt>
<wgt id='7019'>0.67809E+03</wgt>
<wgt id='7020'>0.67724E+03</wgt>
<wgt id='7021'>0.67625E+03</wgt>
<wgt id='7022'>0.67872E+03</wgt>
<wgt id='7023'>0.68309E+03</wgt>
<wgt id='7024'>0.67268E+03</wgt>
<wgt id='7025'>0.67935E+03</wgt>
<wgt id='7026'>0.67352E+03</wgt>
<wgt id='7027'>0.67761E+03</wgt>
<wgt id='7028'>0.67690E+03</wgt>
<wgt id='7029'>0.68102E+03</wgt>
<wgt id='7030'>0.66981E+03</wgt>
<wgt id='7031'>0.67371E+03</wgt>
<wgt id='7032'>0.68595E+03</wgt>
<wgt id='7033'>0.67915E+03</wgt>
<wgt id='7034'>0.67471E+03</wgt>
<wgt id='7035'>0.67184E+03</wgt>
<wgt id='7036'>0.68015E+03</wgt>
<wgt id='7037'>0.67735E+03</wgt>
<wgt id='7038'>0.67772E+03</wgt>
<wgt id='7039'>0.67464E+03</wgt>
<wgt id='7040'>0.68005E+03</wgt>
<wgt id='7041'>0.67935E+03</wgt>
<wgt id='7042'>0.67512E+03</wgt>
<wgt id='7043'>0.67842E+03</wgt>
<wgt id='7044'>0.67388E+03</wgt>
<wgt id='7045'>0.66713E+03</wgt>
<wgt id='7046'>0.68562E+03</wgt>
<wgt id='7047'>0.68282E+03</wgt>
<wgt id='7048'>0.67554E+03</wgt>
<wgt id='7049'>0.67268E+03</wgt>
<wgt id='7050'>0.68125E+03</wgt>
<wgt id='7060'>0.85217E+03</wgt>
<wgt id='8000'>0.67543E+03</wgt>
<wgt id='8001'>0.67536E+03</wgt>
<wgt id='8002'>0.67565E+03</wgt>
<wgt id='8003'>0.67542E+03</wgt>
<wgt id='8004'>0.67541E+03</wgt>
<wgt id='8005'>0.67418E+03</wgt>
<wgt id='8006'>0.67652E+03</wgt>
<wgt id='8007'>0.67749E+03</wgt>
<wgt id='8008'>0.67712E+03</wgt>
<wgt id='8009'>0.67856E+03</wgt>
<wgt id='8010'>0.67442E+03</wgt>
<wgt id='8011'>0.67573E+03</wgt>
<wgt id='8012'>0.67228E+03</wgt>
<wgt id='8013'>0.67361E+03</wgt>
<wgt id='8014'>0.67778E+03</wgt>
<wgt id='8015'>0.67504E+03</wgt>
<wgt id='8016'>0.67632E+03</wgt>
<wgt id='8017'>0.67601E+03</wgt>
<wgt id='8018'>0.67787E+03</wgt>
<wgt id='8019'>0.67547E+03</wgt>
<wgt id='8020'>0.67599E+03</wgt>
<wgt id='8021'>0.67455E+03</wgt>
<wgt id='8022'>0.67638E+03</wgt>
<wgt id='8023'>0.67396E+03</wgt>
<wgt id='8024'>0.67183E+03</wgt>
<wgt id='8025'>0.67386E+03</wgt>
<wgt id='8026'>0.67611E+03</wgt>
<wgt id='8027'>0.67648E+03</wgt>
<wgt id='8028'>0.67589E+03</wgt>
<wgt id='8029'>0.67711E+03</wgt>
<wgt id='8500'>0.71036E+03</wgt>
<wgt id='8501'>0.70407E+03</wgt>
<wgt id='8502'>0.71442E+03</wgt>
<wgt id='8503'>0.71151E+03</wgt>
<wgt id='8504'>0.70641E+03</wgt>
<wgt id='8505'>0.71026E+03</wgt>
<wgt id='8506'>0.71643E+03</wgt>
<wgt id='8507'>0.69963E+03</wgt>
<wgt id='8508'>0.69210E+03</wgt>
<wgt id='8509'>0.71820E+03</wgt>
<wgt id='8510'>0.71742E+03</wgt>
<wgt id='8511'>0.70871E+03</wgt>
<wgt id='8512'>0.71225E+03</wgt>
<wgt id='8513'>0.71068E+03</wgt>
<wgt id='8514'>0.69852E+03</wgt>
<wgt id='8515'>0.71710E+03</wgt>
<wgt id='8516'>0.70691E+03</wgt>
<wgt id='8517'>0.70725E+03</wgt>
<wgt id='8518'>0.70492E+03</wgt>
<wgt id='8519'>0.70346E+03</wgt>
<wgt id='8520'>0.70652E+03</wgt>
<wgt id='8521'>0.70836E+03</wgt>
<wgt id='8522'>0.71412E+03</wgt>
<wgt id='8523'>0.70648E+03</wgt>
<wgt id='8524'>0.71188E+03</wgt>
<wgt id='8525'>0.71187E+03</wgt>
<wgt id='8526'>0.70927E+03</wgt>
<wgt id='8527'>0.70973E+03</wgt>
<wgt id='8528'>0.70974E+03</wgt>
<wgt id='8529'>0.70965E+03</wgt>
<wgt id='8530'>0.71125E+03</wgt>
<wgt id='8531'>0.71022E+03</wgt>
<wgt id='8532'>0.71025E+03</wgt>
<wgt id='8533'>0.70896E+03</wgt>
<wgt id='8534'>0.71057E+03</wgt>
<wgt id='8535'>0.71187E+03</wgt>
<wgt id='8536'>0.70980E+03</wgt>
<wgt id='8537'>0.71033E+03</wgt>
<wgt id='8538'>0.71028E+03</wgt>
<wgt id='8539'>0.71085E+03</wgt>
<wgt id='8540'>0.71093E+03</wgt>
<wgt id='8541'>0.71105E+03</wgt>
<wgt id='8542'>0.71064E+03</wgt>
<wgt id='8543'>0.70966E+03</wgt>
<wgt id='8544'>0.71141E+03</wgt>
<wgt id='8545'>0.71067E+03</wgt>
<wgt id='8546'>0.71123E+03</wgt>
<wgt id='8547'>0.70969E+03</wgt>
<wgt id='8548'>0.71010E+03</wgt>
<wgt id='8549'>0.71069E+03</wgt>
<wgt id='8550'>0.70957E+03</wgt>
<wgt id='8551'>0.71017E+03</wgt>
<wgt id='8552'>0.70968E+03</wgt>
<wgt id='8553'>0.70923E+03</wgt>
<wgt id='8554'>0.70995E+03</wgt>
<wgt id='8555'>0.71036E+03</wgt>
<wgt id='8556'>0.71005E+03</wgt>
<wgt id='8557'>0.71069E+03</wgt>
<wgt id='8558'>0.71120E+03</wgt>
<wgt id='8559'>0.71027E+03</wgt>
<wgt id='8560'>0.70946E+03</wgt>
<wgt id='8561'>0.71089E+03</wgt>
<wgt id='8562'>0.71001E+03</wgt>
<wgt id='8563'>0.71036E+03</wgt>
<wgt id='8564'>0.71002E+03</wgt>
<wgt id='8565'>0.71065E+03</wgt>
<wgt id='8566'>0.71086E+03</wgt>
<wgt id='8567'>0.71038E+03</wgt>
<wgt id='8568'>0.71093E+03</wgt>
<wgt id='8569'>0.71074E+03</wgt>
<wgt id='8570'>0.71009E+03</wgt>
<wgt id='8571'>0.70967E+03</wgt>
<wgt id='8572'>0.70981E+03</wgt>
<wgt id='8573'>0.70999E+03</wgt>
<wgt id='8574'>0.70990E+03</wgt>
<wgt id='8575'>0.71020E+03</wgt>
<wgt id='8576'>0.71039E+03</wgt>
<wgt id='8577'>0.70982E+03</wgt>
<wgt id='8578'>0.71021E+03</wgt>
<wgt id='8579'>0.71091E+03</wgt>
<wgt id='8580'>0.71021E+03</wgt>
<wgt id='8581'>0.71078E+03</wgt>
<wgt id='8582'>0.70999E+03</wgt>
<wgt id='8583'>0.71057E+03</wgt>
<wgt id='8584'>0.71093E+03</wgt>
<wgt id='8585'>0.71064E+03</wgt>
<wgt id='8586'>0.71124E+03</wgt>
<wgt id='8587'>0.71058E+03</wgt>
<wgt id='8588'>0.71041E+03</wgt>
<wgt id='8589'>0.71031E+03</wgt>
<wgt id='8590'>0.71045E+03</wgt>
<wgt id='8591'>0.70992E+03</wgt>
<wgt id='8592'>0.71027E+03</wgt>
<wgt id='8593'>0.71017E+03</wgt>
<wgt id='8594'>0.71018E+03</wgt>
<wgt id='8595'>0.71026E+03</wgt>
<wgt id='8596'>0.71028E+03</wgt>
<wgt id='8597'>0.71054E+03</wgt>
<wgt id='8598'>0.71052E+03</wgt>
<wgt id='8599'>0.71043E+03</wgt>
<wgt id='8600'>0.71038E+03</wgt>
<wgt id='8601'>0.69688E+03</wgt>
<wgt id='8602'>0.72453E+03</wgt>
<wgt id='9000'>0.68270E+03</wgt>
<wgt id='9001'>0.68205E+03</wgt>
<wgt id='9002'>0.68399E+03</wgt>
<wgt id='9003'>0.68048E+03</wgt>
<wgt id='9004'>0.68455E+03</wgt>
<wgt id='9005'>0.68668E+03</wgt>
<wgt id='9006'>0.68338E+03</wgt>
<wgt id='9007'>0.67845E+03</wgt>
<wgt id='9008'>0.68086E+03</wgt>
<wgt id='9009'>0.68328E+03</wgt>
<wgt id='9010'>0.67839E+03</wgt>
<wgt id='9011'>0.68713E+03</wgt>
<wgt id='9012'>0.69063E+03</wgt>
<wgt id='9013'>0.68253E+03</wgt>
<wgt id='9014'>0.68691E+03</wgt>
<wgt id='9015'>0.67975E+03</wgt>
<wgt id='9016'>0.69056E+03</wgt>
<wgt id='9017'>0.67550E+03</wgt>
<wgt id='9018'>0.68370E+03</wgt>
<wgt id='9019'>0.68550E+03</wgt>
<wgt id='9020'>0.68972E+03</wgt>
<wgt id='9021'>0.68170E+03</wgt>
<wgt id='9022'>0.68455E+03</wgt>
<wgt id='9023'>0.67660E+03</wgt>
<wgt id='9024'>0.67996E+03</wgt>
<wgt id='9025'>0.68507E+03</wgt>
<wgt id='9026'>0.68241E+03</wgt>
<wgt id='9027'>0.68229E+03</wgt>
<wgt id='9028'>0.68352E+03</wgt>
<wgt id='9029'>0.68315E+03</wgt>
<wgt id='9030'>0.68311E+03</wgt>
<wgt id='9031'>0.68189E+03</wgt>
<wgt id='9032'>0.68318E+03</wgt>
<wgt id='9033'>0.68335E+03</wgt>
<wgt id='9034'>0.68316E+03</wgt>
<wgt id='9035'>0.68323E+03</wgt>
<wgt id='9036'>0.68309E+03</wgt>
<wgt id='9037'>0.68320E+03</wgt>
<wgt id='9038'>0.68338E+03</wgt>
<wgt id='9039'>0.68280E+03</wgt>
<wgt id='9040'>0.68217E+03</wgt>
<wgt id='9041'>0.68294E+03</wgt>
<wgt id='9042'>0.68322E+03</wgt>
<wgt id='9043'>0.68174E+03</wgt>
<wgt id='9044'>0.68285E+03</wgt>
<wgt id='9045'>0.68323E+03</wgt>
<wgt id='9046'>0.68181E+03</wgt>
<wgt id='9047'>0.68311E+03</wgt>
<wgt id='9048'>0.68317E+03</wgt>
<wgt id='9049'>0.68234E+03</wgt>
<wgt id='9050'>0.68266E+03</wgt>
<wgt id='9051'>0.68323E+03</wgt>
<wgt id='9052'>0.68340E+03</wgt>
<wgt id='9053'>0.68261E+03</wgt>
<wgt id='9054'>0.68232E+03</wgt>
<wgt id='9055'>0.68218E+03</wgt>
<wgt id='9056'>0.68309E+03</wgt>
<wgt id='9057'>0.68282E+03</wgt>
<wgt id='9058'>0.68181E+03</wgt>
<wgt id='9059'>0.68223E+03</wgt>
<wgt id='9060'>0.68235E+03</wgt>
<wgt id='9061'>0.68269E+03</wgt>
<wgt id='9062'>0.68282E+03</wgt>
<wgt id='9063'>0.68284E+03</wgt>
<wgt id='9064'>0.68283E+03</wgt>
<wgt id='9065'>0.68248E+03</wgt>
<wgt id='9066'>0.68258E+03</wgt>
<wgt id='9067'>0.68294E+03</wgt>
<wgt id='9068'>0.68274E+03</wgt>
<wgt id='9069'>0.68337E+03</wgt>
<wgt id='9070'>0.68249E+03</wgt>
<wgt id='9071'>0.68322E+03</wgt>
<wgt id='9072'>0.68327E+03</wgt>
<wgt id='9073'>0.68256E+03</wgt>
<wgt id='9074'>0.68280E+03</wgt>
<wgt id='9075'>0.68261E+03</wgt>
<wgt id='9076'>0.68264E+03</wgt>
<wgt id='9077'>0.68294E+03</wgt>
<wgt id='9078'>0.68274E+03</wgt>
<wgt id='9079'>0.68263E+03</wgt>
<wgt id='9080'>0.68351E+03</wgt>
<wgt id='9081'>0.68274E+03</wgt>
<wgt id='9082'>0.68295E+03</wgt>
<wgt id='9083'>0.68248E+03</wgt>
<wgt id='9084'>0.68235E+03</wgt>
<wgt id='9085'>0.68226E+03</wgt>
<wgt id='9086'>0.68293E+03</wgt>
<wgt id='9087'>0.68188E+03</wgt>
<wgt id='9088'>0.68234E+03</wgt>
<wgt id='9089'>0.68238E+03</wgt>
<wgt id='9090'>0.68281E+03</wgt>
<wgt id='9091'>0.68249E+03</wgt>
<wgt id='9092'>0.68259E+03</wgt>
<wgt id='9093'>0.68249E+03</wgt>
<wgt id='9094'>0.68249E+03</wgt>
<wgt id='9095'>0.68276E+03</wgt>
<wgt id='9096'>0.68256E+03</wgt>
<wgt id='9097'>0.68278E+03</wgt>
<wgt id='9098'>0.68262E+03</wgt>
<wgt id='9099'>0.68250E+03</wgt>
<wgt id='9100'>0.68273E+03</wgt>
<wgt id='9101'>0.66939E+03</wgt>
<wgt id='9102'>0.69763E+03</wgt>
<wgt id='10000'>0.71092E+03</wgt>
<wgt id='10001'>0.71496E+03</wgt>
<wgt id='10002'>0.70057E+03</wgt>
<wgt id='10003'>0.71020E+03</wgt>
<wgt id='10004'>0.69276E+03</wgt>
<wgt id='10005'>0.70950E+03</wgt>
<wgt id='10006'>0.70499E+03</wgt>
<wgt id='10007'>0.71077E+03</wgt>
<wgt id='10008'>0.71336E+03</wgt>
<wgt id='10009'>0.70597E+03</wgt>
<wgt id='10010'>0.71407E+03</wgt>
<wgt id='10011'>0.70448E+03</wgt>
<wgt id='10012'>0.71039E+03</wgt>
<wgt id='10013'>0.71236E+03</wgt>
<wgt id='10014'>0.70930E+03</wgt>
<wgt id='10015'>0.71059E+03</wgt>
<wgt id='10016'>0.70630E+03</wgt>
<wgt id='10017'>0.72033E+03</wgt>
<wgt id='10018'>0.71311E+03</wgt>
<wgt id='10019'>0.70678E+03</wgt>
<wgt id='10020'>0.70755E+03</wgt>
<wgt id='10021'>0.70968E+03</wgt>
<wgt id='10022'>0.71003E+03</wgt>
<wgt id='10023'>0.71159E+03</wgt>
<wgt id='10024'>0.70958E+03</wgt>
<wgt id='10025'>0.71004E+03</wgt>
<wgt id='10026'>0.71589E+03</wgt>
<wgt id='10027'>0.71378E+03</wgt>
<wgt id='10028'>0.72534E+03</wgt>
<wgt id='10029'>0.71140E+03</wgt>
<wgt id='10030'>0.71041E+03</wgt>
<wgt id='10031'>0.69688E+03</wgt>
<wgt id='10032'>0.72453E+03</wgt>
<wgt id='11000'>0.68324E+03</wgt>
<wgt id='11001'>0.66470E+03</wgt>
<wgt id='11002'>0.68430E+03</wgt>
<wgt id='11003'>0.68312E+03</wgt>
<wgt id='11004'>0.68442E+03</wgt>
<wgt id='11005'>0.68549E+03</wgt>
<wgt id='11006'>0.68372E+03</wgt>
<wgt id='11007'>0.68269E+03</wgt>
<wgt id='11008'>0.68352E+03</wgt>
<wgt id='11009'>0.68229E+03</wgt>
<wgt id='11010'>0.67893E+03</wgt>
<wgt id='11011'>0.68259E+03</wgt>
<wgt id='11012'>0.68299E+03</wgt>
<wgt id='11013'>0.68390E+03</wgt>
<wgt id='11014'>0.68267E+03</wgt>
<wgt id='11015'>0.68251E+03</wgt>
<wgt id='11016'>0.68359E+03</wgt>
<wgt id='11017'>0.68471E+03</wgt>
<wgt id='11018'>0.68288E+03</wgt>
<wgt id='11019'>0.68304E+03</wgt>
<wgt id='11020'>0.68498E+03</wgt>
<wgt id='11021'>0.68375E+03</wgt>
<wgt id='11022'>0.68623E+03</wgt>
<wgt id='11023'>0.68370E+03</wgt>
<wgt id='11024'>0.68383E+03</wgt>
<wgt id='11025'>0.68322E+03</wgt>
<wgt id='11026'>0.68327E+03</wgt>
<wgt id='11027'>0.68383E+03</wgt>
<wgt id='11028'>0.68396E+03</wgt>
<wgt id='11029'>0.68179E+03</wgt>
<wgt id='11030'>0.68321E+03</wgt>
<wgt id='11031'>0.66939E+03</wgt>
<wgt id='11032'>0.69763E+03</wgt>
<wgt id='12000'>0.64865E+03</wgt>
<wgt id='12001'>0.64771E+03</wgt>
<wgt id='12002'>0.64959E+03</wgt>
<wgt id='12003'>0.64883E+03</wgt>
<wgt id='12004'>0.64847E+03</wgt>
<wgt id='12005'>0.64955E+03</wgt>
<wgt id='12006'>0.64776E+03</wgt>
<wgt id='12007'>0.65266E+03</wgt>
<wgt id='12008'>0.64473E+03</wgt>
<wgt id='12009'>0.64732E+03</wgt>
<wgt id='12010'>0.65001E+03</wgt>
<wgt id='12011'>0.64307E+03</wgt>
<wgt id='12012'>0.65483E+03</wgt>
<wgt id='12013'>0.64684E+03</wgt>
<wgt id='12014'>0.65051E+03</wgt>
<wgt id='12015'>0.65089E+03</wgt>
<wgt id='12016'>0.64526E+03</wgt>
<wgt id='12017'>0.65222E+03</wgt>
<wgt id='12018'>0.64662E+03</wgt>
<wgt id='12019'>0.65057E+03</wgt>
<wgt id='12020'>0.64610E+03</wgt>
<wgt id='12021'>0.64925E+03</wgt>
<wgt id='12022'>0.64821E+03</wgt>
<wgt id='12023'>0.64148E+03</wgt>
<wgt id='12024'>0.65529E+03</wgt>
<wgt id='12025'>0.64430E+03</wgt>
<wgt id='12026'>0.65319E+03</wgt>
<wgt id='12027'>0.66048E+03</wgt>
<wgt id='12028'>0.63774E+03</wgt>
<wgt id='12050'>0.64865E+03</wgt>
<wgt id='12051'>0.65138E+03</wgt>
<wgt id='12052'>0.64194E+03</wgt>
<wgt id='12053'>0.65154E+03</wgt>
<wgt id='12054'>0.64381E+03</wgt>
<wgt id='12055'>0.64620E+03</wgt>
<wgt id='12056'>0.65537E+03</wgt>
<wgt id='12057'>0.64789E+03</wgt>
<wgt id='12058'>0.64800E+03</wgt>
<wgt id='12059'>0.65331E+03</wgt>
<wgt id='12060'>0.64233E+03</wgt>
<wgt id='12061'>0.64354E+03</wgt>
<wgt id='12062'>0.64527E+03</wgt>
<wgt id='12063'>0.64867E+03</wgt>
<wgt id='13000'>0.67205E+03</wgt>
<wgt id='13001'>0.66877E+03</wgt>
<wgt id='13002'>0.67045E+03</wgt>
<wgt id='13003'>0.66916E+03</wgt>
<wgt id='13004'>0.67006E+03</wgt>
<wgt id='13005'>0.67025E+03</wgt>
<wgt id='13006'>0.66898E+03</wgt>
<wgt id='13007'>0.67440E+03</wgt>
<wgt id='13008'>0.66496E+03</wgt>
<wgt id='13009'>0.66560E+03</wgt>
<wgt id='13010'>0.67375E+03</wgt>
<wgt id='13011'>0.67225E+03</wgt>
<wgt id='13012'>0.66702E+03</wgt>
<wgt id='13013'>0.66892E+03</wgt>
<wgt id='13014'>0.67022E+03</wgt>
<wgt id='13015'>0.66948E+03</wgt>
<wgt id='13016'>0.66756E+03</wgt>
<wgt id='13017'>0.66988E+03</wgt>
<wgt id='13018'>0.66943E+03</wgt>
<wgt id='13019'>0.66908E+03</wgt>
<wgt id='13020'>0.67028E+03</wgt>
<wgt id='13021'>0.67428E+03</wgt>
<wgt id='13022'>0.66511E+03</wgt>
<wgt id='13023'>0.66433E+03</wgt>
<wgt id='13024'>0.67504E+03</wgt>
<wgt id='13025'>0.65797E+03</wgt>
<wgt id='13026'>0.68098E+03</wgt>
<wgt id='13027'>0.66454E+03</wgt>
<wgt id='13028'>0.67512E+03</wgt>
<wgt id='13050'>0.67205E+03</wgt>
<wgt id='13051'>0.67293E+03</wgt>
<wgt id='13052'>0.66189E+03</wgt>
<wgt id='13053'>0.67260E+03</wgt>
<wgt id='13054'>0.66726E+03</wgt>
<wgt id='13055'>0.65447E+03</wgt>
<wgt id='13056'>0.66716E+03</wgt>
<wgt id='13057'>0.66934E+03</wgt>
<wgt id='13058'>0.67207E+03</wgt>
<wgt id='13059'>0.67383E+03</wgt>
<wgt id='13060'>0.64607E+03</wgt>
<wgt id='13061'>0.66899E+03</wgt>
<wgt id='13062'>0.67205E+03</wgt>
<wgt id='13063'>0.67637E+03</wgt>
<wgt id='14000'>0.68604E+03</wgt>
<wgt id='14001'>0.68597E+03</wgt>
<wgt id='14002'>0.68590E+03</wgt>
<wgt id='14003'>0.68584E+03</wgt>
<wgt id='14004'>0.68577E+03</wgt>
<wgt id='14005'>0.68571E+03</wgt>
<wgt id='14006'>0.68564E+03</wgt>
<wgt id='14007'>0.68557E+03</wgt>
<wgt id='14008'>0.68550E+03</wgt>
<wgt id='14009'>0.68544E+03</wgt>
<wgt id='14010'>0.68537E+03</wgt>
<wgt id='14011'>0.68530E+03</wgt>
<wgt id='14012'>0.68524E+03</wgt>
<wgt id='14013'>0.68517E+03</wgt>
<wgt id='14014'>0.68510E+03</wgt>
<wgt id='14015'>0.68504E+03</wgt>
<wgt id='14016'>0.68497E+03</wgt>
<wgt id='14017'>0.68491E+03</wgt>
<wgt id='14018'>0.68483E+03</wgt>
<wgt id='14019'>0.68476E+03</wgt>
<wgt id='14020'>0.68470E+03</wgt>
<wgt id='14021'>0.68463E+03</wgt>
<wgt id='14022'>0.68457E+03</wgt>
<wgt id='14023'>0.68450E+03</wgt>
<wgt id='14024'>0.68443E+03</wgt>
<wgt id='14025'>0.68437E+03</wgt>
<wgt id='14026'>0.68430E+03</wgt>
<wgt id='14027'>0.68423E+03</wgt>
<wgt id='14028'>0.68416E+03</wgt>
<wgt id='14029'>0.68410E+03</wgt>
<wgt id='14030'>0.68403E+03</wgt>
<wgt id='15000'>0.67437E+03</wgt>
<wgt id='15001'>0.67377E+03</wgt>
<wgt id='15002'>0.67554E+03</wgt>
<wgt id='15003'>0.67230E+03</wgt>
<wgt id='15004'>0.67626E+03</wgt>
<wgt id='15005'>0.67837E+03</wgt>
<wgt id='15006'>0.67505E+03</wgt>
<wgt id='15007'>0.67004E+03</wgt>
<wgt id='15008'>0.67252E+03</wgt>
<wgt id='15009'>0.67501E+03</wgt>
<wgt id='15010'>0.67018E+03</wgt>
<wgt id='15011'>0.67868E+03</wgt>
<wgt id='15012'>0.68224E+03</wgt>
<wgt id='15013'>0.67428E+03</wgt>
<wgt id='15014'>0.67845E+03</wgt>
<wgt id='15015'>0.67136E+03</wgt>
<wgt id='15016'>0.68213E+03</wgt>
<wgt id='15017'>0.66726E+03</wgt>
<wgt id='15018'>0.67532E+03</wgt>
<wgt id='15019'>0.67711E+03</wgt>
<wgt id='15020'>0.68131E+03</wgt>
<wgt id='15021'>0.67335E+03</wgt>
<wgt id='15022'>0.67626E+03</wgt>
<wgt id='15023'>0.66827E+03</wgt>
<wgt id='15024'>0.67165E+03</wgt>
<wgt id='15025'>0.67663E+03</wgt>
<wgt id='15026'>0.67407E+03</wgt>
<wgt id='15027'>0.67399E+03</wgt>
<wgt id='15028'>0.67518E+03</wgt>
<wgt id='15029'>0.67486E+03</wgt>
<wgt id='15030'>0.67485E+03</wgt>
<wgt id='15031'>0.67356E+03</wgt>
<wgt id='15032'>0.67485E+03</wgt>
<wgt id='15033'>0.67505E+03</wgt>
<wgt id='15034'>0.67482E+03</wgt>
<wgt id='15035'>0.67492E+03</wgt>
<wgt id='15036'>0.67475E+03</wgt>
<wgt id='15037'>0.67489E+03</wgt>
<wgt id='15038'>0.67505E+03</wgt>
<wgt id='15039'>0.67446E+03</wgt>
<wgt id='15040'>0.67385E+03</wgt>
<wgt id='15041'>0.67456E+03</wgt>
<wgt id='15042'>0.67483E+03</wgt>
<wgt id='15043'>0.67344E+03</wgt>
<wgt id='15044'>0.67453E+03</wgt>
<wgt id='15045'>0.67483E+03</wgt>
<wgt id='15046'>0.67349E+03</wgt>
<wgt id='15047'>0.67474E+03</wgt>
<wgt id='15048'>0.67482E+03</wgt>
<wgt id='15049'>0.67398E+03</wgt>
<wgt id='15050'>0.67434E+03</wgt>
<wgt id='15051'>0.67491E+03</wgt>
<wgt id='15052'>0.67505E+03</wgt>
<wgt id='15053'>0.67432E+03</wgt>
<wgt id='15054'>0.67401E+03</wgt>
<wgt id='15055'>0.67386E+03</wgt>
<wgt id='15056'>0.67475E+03</wgt>
<wgt id='15057'>0.67447E+03</wgt>
<wgt id='15058'>0.67351E+03</wgt>
<wgt id='15059'>0.67391E+03</wgt>
<wgt id='15060'>0.67403E+03</wgt>
<wgt id='15061'>0.67436E+03</wgt>
<wgt id='15062'>0.67448E+03</wgt>
<wgt id='15063'>0.67452E+03</wgt>
<wgt id='15064'>0.67447E+03</wgt>
<wgt id='15065'>0.67416E+03</wgt>
<wgt id='15066'>0.67427E+03</wgt>
<wgt id='15067'>0.67460E+03</wgt>
<wgt id='15068'>0.67442E+03</wgt>
<wgt id='15069'>0.67504E+03</wgt>
<wgt id='15070'>0.67416E+03</wgt>
<wgt id='15071'>0.67490E+03</wgt>
<wgt id='15072'>0.67495E+03</wgt>
<wgt id='15073'>0.67421E+03</wgt>
<wgt id='15074'>0.67447E+03</wgt>
<wgt id='15075'>0.67428E+03</wgt>
<wgt id='15076'>0.67432E+03</wgt>
<wgt id='15077'>0.67462E+03</wgt>
<wgt id='15078'>0.67443E+03</wgt>
<wgt id='15079'>0.67430E+03</wgt>
<wgt id='15080'>0.67516E+03</wgt>
<wgt id='15081'>0.67441E+03</wgt>
<wgt id='15082'>0.67463E+03</wgt>
<wgt id='15083'>0.67413E+03</wgt>
<wgt id='15084'>0.67401E+03</wgt>
<wgt id='15085'>0.67395E+03</wgt>
<wgt id='15086'>0.67461E+03</wgt>
<wgt id='15087'>0.67356E+03</wgt>
<wgt id='15088'>0.67401E+03</wgt>
<wgt id='15089'>0.67405E+03</wgt>
<wgt id='15090'>0.67448E+03</wgt>
<wgt id='15091'>0.67417E+03</wgt>
<wgt id='15092'>0.67427E+03</wgt>
<wgt id='15093'>0.67416E+03</wgt>
<wgt id='15094'>0.67416E+03</wgt>
<wgt id='15095'>0.67444E+03</wgt>
<wgt id='15096'>0.67422E+03</wgt>
<wgt id='15097'>0.67445E+03</wgt>
<wgt id='15098'>0.67429E+03</wgt>
<wgt id='15099'>0.67416E+03</wgt>
<wgt id='15100'>0.67439E+03</wgt>
<wgt id='15101'>0.67436E+03</wgt>
<wgt id='15102'>0.67432E+03</wgt>
<wgt id='15103'>0.67438E+03</wgt>
<wgt id='15104'>0.67438E+03</wgt>
<wgt id='15105'>0.67439E+03</wgt>
<wgt id='15106'>0.67437E+03</wgt>
<wgt id='15107'>0.67433E+03</wgt>
<wgt id='1500'>0.74309E+03</wgt>
<wgt id='1501'>0.75446E+03</wgt>
<wgt id='1502'>0.74754E+03</wgt>
<wgt id='1503'>0.76303E+03</wgt>
<wgt id='1504'>0.72266E+03</wgt>
<wgt id='1505'>0.74310E+03</wgt>
<wgt id='1506'>0.75960E+03</wgt>
<wgt id='1507'>0.73725E+03</wgt>
<wgt id='1508'>0.74852E+03</wgt>
<wgt id='1509'>0.76075E+03</wgt>
<wgt id='1510'>0.73081E+03</wgt>
<wgt id='1511'>0.69475E+03</wgt>
<wgt id='1512'>0.75246E+03</wgt>
<wgt id='1513'>0.73760E+03</wgt>
<wgt id='1514'>0.74514E+03</wgt>
<wgt id='1515'>0.76680E+03</wgt>
<wgt id='1516'>0.75563E+03</wgt>
<wgt id='1517'>0.75961E+03</wgt>
<wgt id='1518'>0.76116E+03</wgt>
<wgt id='1519'>0.74979E+03</wgt>
<wgt id='1520'>0.78482E+03</wgt>
<wgt id='1521'>0.74597E+03</wgt>
<wgt id='1522'>0.72680E+03</wgt>
<wgt id='1523'>0.77175E+03</wgt>
<wgt id='1524'>0.73962E+03</wgt>
<wgt id='1525'>0.73155E+03</wgt>
<wgt id='1526'>0.74532E+03</wgt>
<wgt id='1527'>0.75846E+03</wgt>
<wgt id='1528'>0.73528E+03</wgt>
<wgt id='1529'>0.76934E+03</wgt>
<wgt id='1530'>0.76670E+03</wgt>
<wgt id='1531'>0.72819E+03</wgt>
<wgt id='1532'>0.72268E+03</wgt>
<wgt id='1533'>0.71692E+03</wgt>
<wgt id='1534'>0.73317E+03</wgt>
<wgt id='1535'>0.76240E+03</wgt>
<wgt id='1536'>0.73324E+03</wgt>
<wgt id='1537'>0.75845E+03</wgt>
<wgt id='1538'>0.74492E+03</wgt>
<wgt id='1539'>0.74406E+03</wgt>
<wgt id='1540'>0.72439E+03</wgt>
<wgt id='1541'>0.74722E+03</wgt>
<wgt id='1542'>0.73158E+03</wgt>
<wgt id='1543'>0.72451E+03</wgt>
<wgt id='1544'>0.74390E+03</wgt>
<wgt id='1545'>0.73268E+03</wgt>
<wgt id='1546'>0.75411E+03</wgt>
<wgt id='1547'>0.73908E+03</wgt>
<wgt id='1548'>0.74685E+03</wgt>
<wgt id='1549'>0.73868E+03</wgt>
<wgt id='1550'>0.72967E+03</wgt>
<wgt id='1551'>0.73172E+03</wgt>
<wgt id='1552'>0.73138E+03</wgt>
<wgt id='1553'>0.74629E+03</wgt>
<wgt id='1554'>0.73374E+03</wgt>
<wgt id='1555'>0.72299E+03</wgt>
<wgt id='1556'>0.74961E+03</wgt>
<wgt id='1557'>0.74243E+03</wgt>
<wgt id='1558'>0.72608E+03</wgt>
<wgt id='1559'>0.77052E+03</wgt>
<wgt id='1560'>0.73774E+03</wgt>
<wgt id='1561'>0.73787E+03</wgt>
<wgt id='1562'>0.75638E+03</wgt>
<wgt id='1563'>0.72185E+03</wgt>
<wgt id='1564'>0.74424E+03</wgt>
<wgt id='1565'>0.73957E+03</wgt>
<wgt id='1566'>0.73332E+03</wgt>
<wgt id='1567'>0.80074E+03</wgt>
<wgt id='1568'>0.74040E+03</wgt>
<wgt id='1569'>0.71892E+03</wgt>
<wgt id='1570'>0.71600E+03</wgt>
<wgt id='1571'>0.72291E+03</wgt>
<wgt id='1572'>0.75053E+03</wgt>
<wgt id='1573'>0.73652E+03</wgt>
<wgt id='1574'>0.75147E+03</wgt>
<wgt id='1575'>0.74061E+03</wgt>
<wgt id='1576'>0.71657E+03</wgt>
<wgt id='1577'>0.72641E+03</wgt>
<wgt id='1578'>0.74711E+03</wgt>
<wgt id='1579'>0.73765E+03</wgt>
<wgt id='1580'>0.73034E+03</wgt>
<wgt id='1581'>0.73959E+03</wgt>
<wgt id='1582'>0.72007E+03</wgt>
<wgt id='1583'>0.78103E+03</wgt>
<wgt id='1584'>0.73577E+03</wgt>
<wgt id='1585'>0.74390E+03</wgt>
<wgt id='1586'>0.73466E+03</wgt>
<wgt id='1587'>0.74937E+03</wgt>
<wgt id='1588'>0.74252E+03</wgt>
<wgt id='1589'>0.77814E+03</wgt>
<wgt id='1590'>0.72948E+03</wgt>
<wgt id='1591'>0.73897E+03</wgt>
<wgt id='1592'>0.73008E+03</wgt>
<wgt id='1593'>0.75412E+03</wgt>
<wgt id='1594'>0.76005E+03</wgt>
<wgt id='1595'>0.74342E+03</wgt>
<wgt id='1596'>0.74824E+03</wgt>
<wgt id='1597'>0.74399E+03</wgt>
<wgt id='1598'>0.73630E+03</wgt>
<wgt id='1599'>0.74930E+03</wgt>
<wgt id='1600'>0.77149E+03</wgt>
<wgt id='1601'>0.73249E+03</wgt>
<wgt id='1602'>0.74918E+03</wgt>
<wgt id='1700'>0.69367E+03</wgt>
<wgt id='1800'>0.67208E+03</wgt>
<wgt id='1850'>0.80210E+03</wgt>
<wgt id='1900'>0.76041E+03</wgt>
<wgt id='1950'>0.78156E+03</wgt>
</rwgt>
</event>
<event>
     13 322222  6.87070E+02  2.47790E+02 -1.00000E+00  1.07152E-01
      21    -1     0     0   502   503  0.000000000E+00  0.000000000E+00  7.371578491E+01  7.371578491E+01  0.000000000E+00  0.00000E+00  9.000E+00
      21    -1     0     0   504   505  0.000000000E+00  0.000000000E+00 -1.711522321E+03  1.711522321E+03  0.000000000E+00  0.00000E+00  9.000E+00
       6     2     1     2   502     0  1.218202836E+02 -8.250806525E+01 -3.845031628E+02  4.445996199E+02  1.678641638E+02  0.00000E+00  9.000E+00
      -6     2     1     2     0   505 -1.764923359E+01 -1.423213602E+02 -4.937301554E+02  5.416695558E+02  1.704980241E+02  0.00000E+00  9.000E+00
      21     1     1     2   504   503 -1.041710500E+02  2.248294255E+02 -7.595732174E+02  7.989689298E+02  1.525878906E-05  0.00000E+00  9.000E+00
      24     2     3     3     0     0  8.944882414E+01  1.203554130E+01 -1.725733609E+02  2.102415907E+02  7.920868113E+01  0.00000E+00  9.000E+00
       5     1     3     3   502     0  3.237145943E+01 -9.454360654E+01 -2.119298019E+02  2.343580292E+02  4.800000000E+00  0.00000E+00 -1.000E+00
     -24     2     4     4     0     0 -6.432729333E+01 -4.445599160E+01 -2.156326201E+02  2.431435924E+02  8.066624956E+01  0.00000E+00  9.000E+00
      -5     1     4     4     0   505  4.667805975E+01 -9.786536863E+01 -2.780975353E+02  2.985259633E+02  4.800000000E+00  0.00000E+00  1.000E+00
      -3     1     6     6     0   507 -1.818317657E+00 -2.194678876E+01 -2.385173366E+01  3.246402647E+01  2.000000000E-01  0.00000E+00  1.000E+00
       4     1     6     6   507     0  9.126714180E+01  3.398233006E+01 -1.487216273E+02  1.777775642E+02  1.500000000E+00  0.00000E+00 -1.000E+00
       1     1     8     8   508     0 -5.560043661E+01 -6.073571769E+01 -1.186851463E+02  1.444521025E+02  1.000000000E-01  0.00000E+00 -1.000E+00
      -2     1     8     8     0   508 -8.726856719E+00  1.627972609E+01 -9.694747379E+01  9.869148992E+01  1.000000000E-01  0.00000E+00  1.000E+00
#rwgt            1           1   638.26964951666332                2        3821           0
<rwgt>
<wgt id='1001'>0.68707E+03</wgt>
<wgt id='1002'>0.61336E+03</wgt>
<wgt id='1003'>0.76402E+03</wgt>
<wgt id='1004'>0.61747E+03</wgt>
<wgt id='1005'>0.55663E+03</wgt>
<wgt id='1006'>0.68064E+03</wgt>
<wgt id='1007'>0.76208E+03</wgt>
<wgt id='1008'>0.67085E+03</wgt>
<wgt id='1009'>0.85790E+03</wgt>
<wgt id='2000'>0.68707E+03</wgt>
<wgt id='2001'>0.68664E+03</wgt>
<wgt id='2002'>0.68834E+03</wgt>
<wgt id='2003'>0.68743E+03</wgt>
<wgt id='2004'>0.68869E+03</wgt>
<wgt id='2005'>0.68682E+03</wgt>
<wgt id='2006'>0.68542E+03</wgt>
<wgt id='2007'>0.68737E+03</wgt>
<wgt id='2008'>0.68728E+03</wgt>
<wgt id='2009'>0.68749E+03</wgt>
<wgt id='2010'>0.68609E+03</wgt>
<wgt id='2011'>0.68695E+03</wgt>
<wgt id='2012'>0.68744E+03</wgt>
<wgt id='2013'>0.68684E+03</wgt>
<wgt id='2014'>0.68570E+03</wgt>
<wgt id='2015'>0.68634E+03</wgt>
<wgt id='2016'>0.68685E+03</wgt>
<wgt id='2017'>0.68650E+03</wgt>
<wgt id='2018'>0.68570E+03</wgt>
<wgt id='2019'>0.68730E+03</wgt>
<wgt id='2020'>0.68471E+03</wgt>
<wgt id='2021'>0.68848E+03</wgt>
<wgt id='2022'>0.68398E+03</wgt>
<wgt id='2023'>0.68716E+03</wgt>
<wgt id='2024'>0.68572E+03</wgt>
<wgt id='2025'>0.68434E+03</wgt>
<wgt id='2026'>0.68669E+03</wgt>
<wgt id='2027'>0.68576E+03</wgt>
<wgt id='2028'>0.68671E+03</wgt>
<wgt id='2029'>0.69283E+03</wgt>
<wgt id='2030'>0.68797E+03</wgt>
<wgt id='2031'>0.68708E+03</wgt>
<wgt id='2032'>0.68904E+03</wgt>
<wgt id='2033'>0.68815E+03</wgt>
<wgt id='2034'>0.68647E+03</wgt>
<wgt id='2035'>0.68602E+03</wgt>
<wgt id='2036'>0.68583E+03</wgt>
<wgt id='2037'>0.68744E+03</wgt>
<wgt id='2038'>0.68707E+03</wgt>
<wgt id='2039'>0.68818E+03</wgt>
<wgt id='2040'>0.68712E+03</wgt>
<wgt id='2041'>0.68586E+03</wgt>
<wgt id='2042'>0.68388E+03</wgt>
<wgt id='2043'>0.68852E+03</wgt>
<wgt id='2044'>0.68802E+03</wgt>
<wgt id='2045'>0.68663E+03</wgt>
<wgt id='2046'>0.68861E+03</wgt>
<wgt id='2047'>0.68842E+03</wgt>
<wgt id='2048'>0.68637E+03</wgt>
<wgt id='2049'>0.68700E+03</wgt>
<wgt id='2050'>0.68818E+03</wgt>
<wgt id='2051'>0.68767E+03</wgt>
<wgt id='2052'>0.68622E+03</wgt>
<wgt id='2053'>0.68688E+03</wgt>
<wgt id='2054'>0.68742E+03</wgt>
<wgt id='2055'>0.68761E+03</wgt>
<wgt id='2056'>0.68710E+03</wgt>
<wgt id='2057'>0.68635E+03</wgt>
<wgt id='2058'>0.68720E+03</wgt>
<wgt id='2059'>0.68701E+03</wgt>
<wgt id='2060'>0.68752E+03</wgt>
<wgt id='2061'>0.68677E+03</wgt>
<wgt id='2062'>0.68677E+03</wgt>
<wgt id='2063'>0.68698E+03</wgt>
<wgt id='2064'>0.68654E+03</wgt>
<wgt id='2065'>0.68709E+03</wgt>
<wgt id='2066'>0.68679E+03</wgt>
<wgt id='2067'>0.68708E+03</wgt>
<wgt id='2068'>0.68741E+03</wgt>
<wgt id='2069'>0.68731E+03</wgt>
<wgt id='2070'>0.68691E+03</wgt>
<wgt id='2071'>0.68654E+03</wgt>
<wgt id='2072'>0.68711E+03</wgt>
<wgt id='2073'>0.68699E+03</wgt>
<wgt id='2074'>0.68708E+03</wgt>
<wgt id='2075'>0.68677E+03</wgt>
<wgt id='2076'>0.68733E+03</wgt>
<wgt id='2077'>0.68664E+03</wgt>
<wgt id='2078'>0.68708E+03</wgt>
<wgt id='2079'>0.68720E+03</wgt>
<wgt id='2080'>0.68721E+03</wgt>
<wgt id='2081'>0.68733E+03</wgt>
<wgt id='2082'>0.68733E+03</wgt>
<wgt id='2083'>0.68702E+03</wgt>
<wgt id='2084'>0.68711E+03</wgt>
<wgt id='2085'>0.68706E+03</wgt>
<wgt id='2086'>0.68694E+03</wgt>
<wgt id='2087'>0.68688E+03</wgt>
<wgt id='2088'>0.68713E+03</wgt>
<wgt id='2089'>0.68692E+03</wgt>
<wgt id='2090'>0.68695E+03</wgt>
<wgt id='2091'>0.68706E+03</wgt>
<wgt id='2092'>0.68696E+03</wgt>
<wgt id='2093'>0.68711E+03</wgt>
<wgt id='2094'>0.68712E+03</wgt>
<wgt id='2095'>0.68725E+03</wgt>
<wgt id='2096'>0.68695E+03</wgt>
<wgt id='2097'>0.68726E+03</wgt>
<wgt id='2098'>0.68706E+03</wgt>
<wgt id='2099'>0.68695E+03</wgt>
<wgt id='2100'>0.68711E+03</wgt>
<wgt id='2101'>0.67237E+03</wgt>
<wgt id='2102'>0.70510E+03</wgt>
<wgt id='2104'>0.60259E+03</wgt>
<wgt id='2105'>0.61995E+03</wgt>
<wgt id='2106'>0.63601E+03</wgt>
<wgt id='2107'>0.65006E+03</wgt>
<wgt id='2108'>0.67861E+03</wgt>
<wgt id='2109'>0.69747E+03</wgt>
<wgt id='2110'>0.72295E+03</wgt>
<wgt id='2111'>0.74152E+03</wgt>
<wgt id='3000'>0.72448E+03</wgt>
<wgt id='3001'>0.72586E+03</wgt>
<wgt id='3002'>0.72317E+03</wgt>
<wgt id='3003'>0.72432E+03</wgt>
<wgt id='3004'>0.72654E+03</wgt>
<wgt id='3005'>0.72463E+03</wgt>
<wgt id='3006'>0.72441E+03</wgt>
<wgt id='3007'>0.72414E+03</wgt>
<wgt id='3008'>0.72381E+03</wgt>
<wgt id='3009'>0.72379E+03</wgt>
<wgt id='3010'>0.72279E+03</wgt>
<wgt id='3011'>0.72441E+03</wgt>
<wgt id='3012'>0.72566E+03</wgt>
<wgt id='3013'>0.72387E+03</wgt>
<wgt id='3014'>0.72399E+03</wgt>
<wgt id='3015'>0.72443E+03</wgt>
<wgt id='3016'>0.72493E+03</wgt>
<wgt id='3017'>0.72410E+03</wgt>
<wgt id='3018'>0.72414E+03</wgt>
<wgt id='3019'>0.72578E+03</wgt>
<wgt id='3020'>0.72669E+03</wgt>
<wgt id='3021'>0.72660E+03</wgt>
<wgt id='3022'>0.72430E+03</wgt>
<wgt id='3023'>0.72478E+03</wgt>
<wgt id='3024'>0.72565E+03</wgt>
<wgt id='3025'>0.72509E+03</wgt>
<wgt id='3026'>0.72249E+03</wgt>
<wgt id='3027'>0.72520E+03</wgt>
<wgt id='3028'>0.72531E+03</wgt>
<wgt id='3029'>0.72309E+03</wgt>
<wgt id='3030'>0.72859E+03</wgt>
<wgt id='3031'>0.72644E+03</wgt>
<wgt id='3032'>0.72251E+03</wgt>
<wgt id='3033'>0.72294E+03</wgt>
<wgt id='3034'>0.72388E+03</wgt>
<wgt id='3035'>0.72323E+03</wgt>
<wgt id='3036'>0.72544E+03</wgt>
<wgt id='3037'>0.72616E+03</wgt>
<wgt id='3038'>0.72481E+03</wgt>
<wgt id='3039'>0.72649E+03</wgt>
<wgt id='3040'>0.72587E+03</wgt>
<wgt id='3041'>0.72455E+03</wgt>
<wgt id='3042'>0.72203E+03</wgt>
<wgt id='3043'>0.72201E+03</wgt>
<wgt id='3044'>0.72602E+03</wgt>
<wgt id='3045'>0.72578E+03</wgt>
<wgt id='3046'>0.72605E+03</wgt>
<wgt id='3047'>0.72383E+03</wgt>
<wgt id='3048'>0.72601E+03</wgt>
<wgt id='3049'>0.72396E+03</wgt>
<wgt id='3050'>0.72351E+03</wgt>
<wgt id='3051'>0.72673E+03</wgt>
<wgt id='3052'>0.72398E+03</wgt>
<wgt id='3053'>0.72371E+03</wgt>
<wgt id='3054'>0.72429E+03</wgt>
<wgt id='3055'>0.72500E+03</wgt>
<wgt id='3056'>0.72446E+03</wgt>
<wgt id='3057'>0.72387E+03</wgt>
<wgt id='3058'>0.72444E+03</wgt>
<wgt id='3059'>0.72401E+03</wgt>
<wgt id='3060'>0.72464E+03</wgt>
<wgt id='3061'>0.72404E+03</wgt>
<wgt id='3062'>0.72441E+03</wgt>
<wgt id='3063'>0.72473E+03</wgt>
<wgt id='3064'>0.72440E+03</wgt>
<wgt id='3065'>0.72438E+03</wgt>
<wgt id='3066'>0.72459E+03</wgt>
<wgt id='3067'>0.72425E+03</wgt>
<wgt id='3068'>0.72447E+03</wgt>
<wgt id='3069'>0.72413E+03</wgt>
<wgt id='3070'>0.72436E+03</wgt>
<wgt id='3071'>0.72458E+03</wgt>
<wgt id='3072'>0.72444E+03</wgt>
<wgt id='3073'>0.72415E+03</wgt>
<wgt id='3074'>0.72546E+03</wgt>
<wgt id='3075'>0.72442E+03</wgt>
<wgt id='3076'>0.72468E+03</wgt>
<wgt id='3077'>0.72471E+03</wgt>
<wgt id='3078'>0.72475E+03</wgt>
<wgt id='3079'>0.72413E+03</wgt>
<wgt id='3080'>0.72410E+03</wgt>
<wgt id='3081'>0.72436E+03</wgt>
<wgt id='3082'>0.72416E+03</wgt>
<wgt id='3083'>0.72463E+03</wgt>
<wgt id='3084'>0.72447E+03</wgt>
<wgt id='3085'>0.72459E+03</wgt>
<wgt id='3086'>0.72419E+03</wgt>
<wgt id='3087'>0.72426E+03</wgt>
<wgt id='3088'>0.72440E+03</wgt>
<wgt id='3089'>0.72449E+03</wgt>
<wgt id='3090'>0.72434E+03</wgt>
<wgt id='3091'>0.72443E+03</wgt>
<wgt id='3092'>0.72462E+03</wgt>
<wgt id='3093'>0.72464E+03</wgt>
<wgt id='3094'>0.72467E+03</wgt>
<wgt id='3095'>0.72450E+03</wgt>
<wgt id='3096'>0.72442E+03</wgt>
<wgt id='3097'>0.72435E+03</wgt>
<wgt id='3098'>0.72455E+03</wgt>
<wgt id='3099'>0.72462E+03</wgt>
<wgt id='3100'>0.72460E+03</wgt>
<wgt id='3101'>0.70720E+03</wgt>
<wgt id='3102'>0.74381E+03</wgt>
<wgt id='5000'>0.70564E+03</wgt>
<wgt id='5001'>0.70663E+03</wgt>
<wgt id='5002'>0.70776E+03</wgt>
<wgt id='5003'>0.70570E+03</wgt>
<wgt id='5004'>0.70682E+03</wgt>
<wgt id='5005'>0.70577E+03</wgt>
<wgt id='5006'>0.69772E+03</wgt>
<wgt id='5007'>0.70199E+03</wgt>
<wgt id='5008'>0.71014E+03</wgt>
<wgt id='5009'>0.70094E+03</wgt>
<wgt id='5010'>0.70678E+03</wgt>
<wgt id='5011'>0.71225E+03</wgt>
<wgt id='5012'>0.69992E+03</wgt>
<wgt id='5013'>0.72285E+03</wgt>
<wgt id='5014'>0.69964E+03</wgt>
<wgt id='5015'>0.70139E+03</wgt>
<wgt id='5016'>0.71675E+03</wgt>
<wgt id='5017'>0.69718E+03</wgt>
<wgt id='5018'>0.71447E+03</wgt>
<wgt id='5019'>0.70452E+03</wgt>
<wgt id='5020'>0.70582E+03</wgt>
<wgt id='5021'>0.70200E+03</wgt>
<wgt id='5022'>0.70791E+03</wgt>
<wgt id='5023'>0.70122E+03</wgt>
<wgt id='5024'>0.71058E+03</wgt>
<wgt id='5025'>0.70854E+03</wgt>
<wgt id='5026'>0.70325E+03</wgt>
<wgt id='5027'>0.70519E+03</wgt>
<wgt id='5028'>0.70626E+03</wgt>
<wgt id='5029'>0.71080E+03</wgt>
<wgt id='5030'>0.70228E+03</wgt>
<wgt id='5031'>0.70583E+03</wgt>
<wgt id='5032'>0.70524E+03</wgt>
<wgt id='5033'>0.70176E+03</wgt>
<wgt id='5034'>0.70951E+03</wgt>
<wgt id='5035'>0.70638E+03</wgt>
<wgt id='5036'>0.70459E+03</wgt>
<wgt id='5037'>0.69198E+03</wgt>
<wgt id='5038'>0.72131E+03</wgt>
<wgt id='5039'>0.72020E+03</wgt>
<wgt id='5040'>0.69803E+03</wgt>
<wgt id='5041'>0.70747E+03</wgt>
<wgt id='5042'>0.70583E+03</wgt>
<wgt id='5043'>0.71150E+03</wgt>
<wgt id='5044'>0.70807E+03</wgt>
<wgt id='5045'>0.69611E+03</wgt>
<wgt id='5046'>0.70014E+03</wgt>
<wgt id='5047'>0.69375E+03</wgt>
<wgt id='5048'>0.70714E+03</wgt>
<wgt id='5049'>0.70499E+03</wgt>
<wgt id='5050'>0.70523E+03</wgt>
<wgt id='5051'>0.70591E+03</wgt>
<wgt id='5052'>0.70391E+03</wgt>
<wgt id='5053'>0.68093E+03</wgt>
<wgt id='5054'>0.69834E+03</wgt>
<wgt id='5055'>0.70062E+03</wgt>
<wgt id='5056'>0.71401E+03</wgt>
<wgt id='5060'>0.68651E+03</wgt>
<wgt id='5070'>0.72595E+03</wgt>
<wgt id='4000'>0.72342E+03</wgt>
<wgt id='4001'>0.72165E+03</wgt>
<wgt id='4002'>0.72420E+03</wgt>
<wgt id='4003'>0.71244E+03</wgt>
<wgt id='4004'>0.72295E+03</wgt>
<wgt id='4005'>0.72354E+03</wgt>
<wgt id='4006'>0.72341E+03</wgt>
<wgt id='4007'>0.71801E+03</wgt>
<wgt id='4008'>0.72276E+03</wgt>
<wgt id='4009'>0.72631E+03</wgt>
<wgt id='4010'>0.72666E+03</wgt>
<wgt id='4011'>0.73062E+03</wgt>
<wgt id='4012'>0.71733E+03</wgt>
<wgt id='4013'>0.72599E+03</wgt>
<wgt id='4014'>0.72372E+03</wgt>
<wgt id='4015'>0.73774E+03</wgt>
<wgt id='4016'>0.71395E+03</wgt>
<wgt id='4017'>0.71121E+03</wgt>
<wgt id='4018'>0.73796E+03</wgt>
<wgt id='4019'>0.72202E+03</wgt>
<wgt id='4020'>0.72460E+03</wgt>
<wgt id='4021'>0.72371E+03</wgt>
<wgt id='4022'>0.72281E+03</wgt>
<wgt id='4023'>0.72686E+03</wgt>
<wgt id='4024'>0.71985E+03</wgt>
<wgt id='4025'>0.73192E+03</wgt>
<wgt id='4026'>0.71511E+03</wgt>
<wgt id='4027'>0.72714E+03</wgt>
<wgt id='4028'>0.71826E+03</wgt>
<wgt id='4029'>0.72677E+03</wgt>
<wgt id='4030'>0.72227E+03</wgt>
<wgt id='4031'>0.72459E+03</wgt>
<wgt id='4032'>0.72191E+03</wgt>
<wgt id='4033'>0.72149E+03</wgt>
<wgt id='4034'>0.72769E+03</wgt>
<wgt id='4035'>0.71065E+03</wgt>
<wgt id='4036'>0.73565E+03</wgt>
<wgt id='4037'>0.71768E+03</wgt>
<wgt id='4038'>0.73182E+03</wgt>
<wgt id='4039'>0.71963E+03</wgt>
<wgt id='4040'>0.72766E+03</wgt>
<wgt id='4041'>0.72034E+03</wgt>
<wgt id='4042'>0.72580E+03</wgt>
<wgt id='4043'>0.71150E+03</wgt>
<wgt id='4044'>0.73458E+03</wgt>
<wgt id='4045'>0.73594E+03</wgt>
<wgt id='4046'>0.72148E+03</wgt>
<wgt id='4047'>0.72318E+03</wgt>
<wgt id='4048'>0.72132E+03</wgt>
<wgt id='4049'>0.72192E+03</wgt>
<wgt id='4050'>0.72486E+03</wgt>
<wgt id='4051'>0.72580E+03</wgt>
<wgt id='4052'>0.72373E+03</wgt>
<wgt id='4053'>0.69548E+03</wgt>
<wgt id='4054'>0.72972E+03</wgt>
<wgt id='4055'>0.71978E+03</wgt>
<wgt id='4056'>0.72954E+03</wgt>
<wgt id='4060'>0.70482E+03</wgt>
<wgt id='4070'>0.74347E+03</wgt>
<wgt id='4080'>0.77060E+03</wgt>
<wgt id='6000'>0.72718E+03</wgt>
<wgt id='6001'>0.72765E+03</wgt>
<wgt id='6002'>0.72663E+03</wgt>
<wgt id='6003'>0.72763E+03</wgt>
<wgt id='6004'>0.72683E+03</wgt>
<wgt id='6005'>0.73064E+03</wgt>
<wgt id='6006'>0.72393E+03</wgt>
<wgt id='6007'>0.72479E+03</wgt>
<wgt id='6008'>0.72982E+03</wgt>
<wgt id='6009'>0.72854E+03</wgt>
<wgt id='6010'>0.72577E+03</wgt>
<wgt id='6011'>0.72800E+03</wgt>
<wgt id='6012'>0.72531E+03</wgt>
<wgt id='6013'>0.72676E+03</wgt>
<wgt id='6014'>0.72784E+03</wgt>
<wgt id='6015'>0.72614E+03</wgt>
<wgt id='6016'>0.72770E+03</wgt>
<wgt id='6017'>0.72379E+03</wgt>
<wgt id='6018'>0.73108E+03</wgt>
<wgt id='6019'>0.72724E+03</wgt>
<wgt id='6020'>0.72706E+03</wgt>
<wgt id='6021'>0.72552E+03</wgt>
<wgt id='6022'>0.72931E+03</wgt>
<wgt id='6023'>0.72238E+03</wgt>
<wgt id='6024'>0.73039E+03</wgt>
<wgt id='6025'>0.73038E+03</wgt>
<wgt id='6026'>0.72338E+03</wgt>
<wgt id='6027'>0.72773E+03</wgt>
<wgt id='6028'>0.72701E+03</wgt>
<wgt id='6029'>0.72417E+03</wgt>
<wgt id='6030'>0.73084E+03</wgt>
<wgt id='6031'>0.71864E+03</wgt>
<wgt id='6032'>0.73683E+03</wgt>
<wgt id='6033'>0.73096E+03</wgt>
<wgt id='6034'>0.72345E+03</wgt>
<wgt id='6035'>0.72862E+03</wgt>
<wgt id='6036'>0.72394E+03</wgt>
<wgt id='6037'>0.72795E+03</wgt>
<wgt id='6038'>0.72683E+03</wgt>
<wgt id='6039'>0.72493E+03</wgt>
<wgt id='6040'>0.72968E+03</wgt>
<wgt id='6041'>0.72133E+03</wgt>
<wgt id='6042'>0.73387E+03</wgt>
<wgt id='6043'>0.73402E+03</wgt>
<wgt id='6044'>0.72419E+03</wgt>
<wgt id='6045'>0.72593E+03</wgt>
<wgt id='6046'>0.73023E+03</wgt>
<wgt id='6047'>0.72860E+03</wgt>
<wgt id='6048'>0.72609E+03</wgt>
<wgt id='6049'>0.72707E+03</wgt>
<wgt id='6050'>0.72728E+03</wgt>
<wgt id='7000'>0.69415E+03</wgt>
<wgt id='7001'>0.69397E+03</wgt>
<wgt id='7002'>0.69434E+03</wgt>
<wgt id='7003'>0.69652E+03</wgt>
<wgt id='7004'>0.69180E+03</wgt>
<wgt id='7005'>0.69579E+03</wgt>
<wgt id='7006'>0.69350E+03</wgt>
<wgt id='7007'>0.69342E+03</wgt>
<wgt id='7008'>0.69488E+03</wgt>
<wgt id='7009'>0.69503E+03</wgt>
<wgt id='7010'>0.69334E+03</wgt>
<wgt id='7011'>0.69091E+03</wgt>
<wgt id='7012'>0.69558E+03</wgt>
<wgt id='7013'>0.69401E+03</wgt>
<wgt id='7014'>0.69433E+03</wgt>
<wgt id='7015'>0.69352E+03</wgt>
<wgt id='7016'>0.69482E+03</wgt>
<wgt id='7017'>0.69219E+03</wgt>
<wgt id='7018'>0.69521E+03</wgt>
<wgt id='7019'>0.69403E+03</wgt>
<wgt id='7020'>0.69430E+03</wgt>
<wgt id='7021'>0.69358E+03</wgt>
<wgt id='7022'>0.69455E+03</wgt>
<wgt id='7023'>0.69825E+03</wgt>
<wgt id='7024'>0.69012E+03</wgt>
<wgt id='7025'>0.69577E+03</wgt>
<wgt id='7026'>0.69015E+03</wgt>
<wgt id='7027'>0.69442E+03</wgt>
<wgt id='7028'>0.69366E+03</wgt>
<wgt id='7029'>0.69706E+03</wgt>
<wgt id='7030'>0.68694E+03</wgt>
<wgt id='7031'>0.69050E+03</wgt>
<wgt id='7032'>0.70182E+03</wgt>
<wgt id='7033'>0.69536E+03</wgt>
<wgt id='7034'>0.69189E+03</wgt>
<wgt id='7035'>0.68905E+03</wgt>
<wgt id='7036'>0.69652E+03</wgt>
<wgt id='7037'>0.69399E+03</wgt>
<wgt id='7038'>0.69447E+03</wgt>
<wgt id='7039'>0.69123E+03</wgt>
<wgt id='7040'>0.69636E+03</wgt>
<wgt id='7041'>0.69706E+03</wgt>
<wgt id='7042'>0.68951E+03</wgt>
<wgt id='7043'>0.69479E+03</wgt>
<wgt id='7044'>0.69043E+03</wgt>
<wgt id='7045'>0.68882E+03</wgt>
<wgt id='7046'>0.69755E+03</wgt>
<wgt id='7047'>0.69644E+03</wgt>
<wgt id='7048'>0.69311E+03</wgt>
<wgt id='7049'>0.69385E+03</wgt>
<wgt id='7050'>0.69396E+03</wgt>
<wgt id='7060'>0.95245E+03</wgt>
<wgt id='8000'>0.68313E+03</wgt>
<wgt id='8001'>0.68304E+03</wgt>
<wgt id='8002'>0.68333E+03</wgt>
<wgt id='8003'>0.68314E+03</wgt>
<wgt id='8004'>0.68311E+03</wgt>
<wgt id='8005'>0.68182E+03</wgt>
<wgt id='8006'>0.68378E+03</wgt>
<wgt id='8007'>0.68425E+03</wgt>
<wgt id='8008'>0.68455E+03</wgt>
<wgt id='8009'>0.68589E+03</wgt>
<wgt id='8010'>0.68245E+03</wgt>
<wgt id='8011'>0.68329E+03</wgt>
<wgt id='8012'>0.68088E+03</wgt>
<wgt id='8013'>0.68188E+03</wgt>
<wgt id='8014'>0.68462E+03</wgt>
<wgt id='8015'>0.68268E+03</wgt>
<wgt id='8016'>0.68396E+03</wgt>
<wgt id='8017'>0.68388E+03</wgt>
<wgt id='8018'>0.68515E+03</wgt>
<wgt id='8019'>0.68255E+03</wgt>
<wgt id='8020'>0.68438E+03</wgt>
<wgt id='8021'>0.68214E+03</wgt>
<wgt id='8022'>0.68539E+03</wgt>
<wgt id='8023'>0.68139E+03</wgt>
<wgt id='8024'>0.67962E+03</wgt>
<wgt id='8025'>0.68097E+03</wgt>
<wgt id='8026'>0.68349E+03</wgt>
<wgt id='8027'>0.68396E+03</wgt>
<wgt id='8028'>0.68345E+03</wgt>
<wgt id='8029'>0.69006E+03</wgt>
<wgt id='8500'>0.72780E+03</wgt>
<wgt id='8501'>0.72169E+03</wgt>
<wgt id='8502'>0.73015E+03</wgt>
<wgt id='8503'>0.73020E+03</wgt>
<wgt id='8504'>0.72440E+03</wgt>
<wgt id='8505'>0.72779E+03</wgt>
<wgt id='8506'>0.72869E+03</wgt>
<wgt id='8507'>0.72507E+03</wgt>
<wgt id='8508'>0.72234E+03</wgt>
<wgt id='8509'>0.72966E+03</wgt>
<wgt id='8510'>0.72956E+03</wgt>
<wgt id='8511'>0.72558E+03</wgt>
<wgt id='8512'>0.73146E+03</wgt>
<wgt id='8513'>0.72827E+03</wgt>
<wgt id='8514'>0.72661E+03</wgt>
<wgt id='8515'>0.73164E+03</wgt>
<wgt id='8516'>0.72619E+03</wgt>
<wgt id='8517'>0.73025E+03</wgt>
<wgt id='8518'>0.72176E+03</wgt>
<wgt id='8519'>0.72028E+03</wgt>
<wgt id='8520'>0.72414E+03</wgt>
<wgt id='8521'>0.72363E+03</wgt>
<wgt id='8522'>0.73252E+03</wgt>
<wgt id='8523'>0.72396E+03</wgt>
<wgt id='8524'>0.72964E+03</wgt>
<wgt id='8525'>0.72870E+03</wgt>
<wgt id='8526'>0.72781E+03</wgt>
<wgt id='8527'>0.72851E+03</wgt>
<wgt id='8528'>0.72645E+03</wgt>
<wgt id='8529'>0.72702E+03</wgt>
<wgt id='8530'>0.72729E+03</wgt>
<wgt id='8531'>0.72778E+03</wgt>
<wgt id='8532'>0.72754E+03</wgt>
<wgt id='8533'>0.72656E+03</wgt>
<wgt id='8534'>0.72818E+03</wgt>
<wgt id='8535'>0.72960E+03</wgt>
<wgt id='8536'>0.72686E+03</wgt>
<wgt id='8537'>0.72795E+03</wgt>
<wgt id='8538'>0.72757E+03</wgt>
<wgt id='8539'>0.72822E+03</wgt>
<wgt id='8540'>0.72838E+03</wgt>
<wgt id='8541'>0.72849E+03</wgt>
<wgt id='8542'>0.72801E+03</wgt>
<wgt id='8543'>0.72687E+03</wgt>
<wgt id='8544'>0.72899E+03</wgt>
<wgt id='8545'>0.72815E+03</wgt>
<wgt id='8546'>0.72891E+03</wgt>
<wgt id='8547'>0.72705E+03</wgt>
<wgt id='8548'>0.72725E+03</wgt>
<wgt id='8549'>0.72803E+03</wgt>
<wgt id='8550'>0.72732E+03</wgt>
<wgt id='8551'>0.72773E+03</wgt>
<wgt id='8552'>0.72733E+03</wgt>
<wgt id='8553'>0.72687E+03</wgt>
<wgt id='8554'>0.72747E+03</wgt>
<wgt id='8555'>0.72782E+03</wgt>
<wgt id='8556'>0.72755E+03</wgt>
<wgt id='8557'>0.72807E+03</wgt>
<wgt id='8558'>0.72861E+03</wgt>
<wgt id='8559'>0.72766E+03</wgt>
<wgt id='8560'>0.72707E+03</wgt>
<wgt id='8561'>0.72821E+03</wgt>
<wgt id='8562'>0.72742E+03</wgt>
<wgt id='8563'>0.72782E+03</wgt>
<wgt id='8564'>0.72763E+03</wgt>
<wgt id='8565'>0.72811E+03</wgt>
<wgt id='8566'>0.72819E+03</wgt>
<wgt id='8567'>0.72791E+03</wgt>
<wgt id='8568'>0.72832E+03</wgt>
<wgt id='8569'>0.72820E+03</wgt>
<wgt id='8570'>0.72763E+03</wgt>
<wgt id='8571'>0.72713E+03</wgt>
<wgt id='8572'>0.72725E+03</wgt>
<wgt id='8573'>0.72741E+03</wgt>
<wgt id='8574'>0.72764E+03</wgt>
<wgt id='8575'>0.72763E+03</wgt>
<wgt id='8576'>0.72780E+03</wgt>
<wgt id='8577'>0.72732E+03</wgt>
<wgt id='8578'>0.72781E+03</wgt>
<wgt id='8579'>0.72835E+03</wgt>
<wgt id='8580'>0.72754E+03</wgt>
<wgt id='8581'>0.72820E+03</wgt>
<wgt id='8582'>0.72736E+03</wgt>
<wgt id='8583'>0.72811E+03</wgt>
<wgt id='8584'>0.72832E+03</wgt>
<wgt id='8585'>0.72811E+03</wgt>
<wgt id='8586'>0.72857E+03</wgt>
<wgt id='8587'>0.72797E+03</wgt>
<wgt id='8588'>0.72778E+03</wgt>
<wgt id='8589'>0.72775E+03</wgt>
<wgt id='8590'>0.72781E+03</wgt>
<wgt id='8591'>0.72744E+03</wgt>
<wgt id='8592'>0.72770E+03</wgt>
<wgt id='8593'>0.72756E+03</wgt>
<wgt id='8594'>0.72773E+03</wgt>
<wgt id='8595'>0.72779E+03</wgt>
<wgt id='8596'>0.72767E+03</wgt>
<wgt id='8597'>0.72799E+03</wgt>
<wgt id='8598'>0.72803E+03</wgt>
<wgt id='8599'>0.72790E+03</wgt>
<wgt id='8600'>0.72780E+03</wgt>
<wgt id='8601'>0.71585E+03</wgt>
<wgt id='8602'>0.74050E+03</wgt>
<wgt id='9000'>0.69810E+03</wgt>
<wgt id='9001'>0.70003E+03</wgt>
<wgt id='9002'>0.69826E+03</wgt>
<wgt id='9003'>0.69764E+03</wgt>
<wgt id='9004'>0.70060E+03</wgt>
<wgt id='9005'>0.70203E+03</wgt>
<wgt id='9006'>0.70020E+03</wgt>
<wgt id='9007'>0.69705E+03</wgt>
<wgt id='9008'>0.69772E+03</wgt>
<wgt id='9009'>0.69916E+03</wgt>
<wgt id='9010'>0.69815E+03</wgt>
<wgt id='9011'>0.70018E+03</wgt>
<wgt id='9012'>0.69914E+03</wgt>
<wgt id='9013'>0.70273E+03</wgt>
<wgt id='9014'>0.69820E+03</wgt>
<wgt id='9015'>0.69263E+03</wgt>
<wgt id='9016'>0.69750E+03</wgt>
<wgt id='9017'>0.69536E+03</wgt>
<wgt id='9018'>0.70240E+03</wgt>
<wgt id='9019'>0.70164E+03</wgt>
<wgt id='9020'>0.70471E+03</wgt>
<wgt id='9021'>0.69303E+03</wgt>
<wgt id='9022'>0.69914E+03</wgt>
<wgt id='9023'>0.69286E+03</wgt>
<wgt id='9024'>0.69515E+03</wgt>
<wgt id='9025'>0.70210E+03</wgt>
<wgt id='9026'>0.69779E+03</wgt>
<wgt id='9027'>0.69661E+03</wgt>
<wgt id='9028'>0.69895E+03</wgt>
<wgt id='9029'>0.69854E+03</wgt>
<wgt id='9030'>0.69711E+03</wgt>
<wgt id='9031'>0.69725E+03</wgt>
<wgt id='9032'>0.69904E+03</wgt>
<wgt id='9033'>0.69900E+03</wgt>
<wgt id='9034'>0.69849E+03</wgt>
<wgt id='9035'>0.69897E+03</wgt>
<wgt id='9036'>0.69839E+03</wgt>
<wgt id='9037'>0.69856E+03</wgt>
<wgt id='9038'>0.69868E+03</wgt>
<wgt id='9039'>0.69825E+03</wgt>
<wgt id='9040'>0.69730E+03</wgt>
<wgt id='9041'>0.69819E+03</wgt>
<wgt id='9042'>0.69859E+03</wgt>
<wgt id='9043'>0.69701E+03</wgt>
<wgt id='9044'>0.69846E+03</wgt>
<wgt id='9045'>0.69845E+03</wgt>
<wgt id='9046'>0.69706E+03</wgt>
<wgt id='9047'>0.69837E+03</wgt>
<wgt id='9048'>0.69850E+03</wgt>
<wgt id='9049'>0.69781E+03</wgt>
<wgt id='9050'>0.69808E+03</wgt>
<wgt id='9051'>0.69860E+03</wgt>
<wgt id='9052'>0.69878E+03</wgt>
<wgt id='9053'>0.69820E+03</wgt>
<wgt id='9054'>0.69771E+03</wgt>
<wgt id='9055'>0.69769E+03</wgt>
<wgt id='9056'>0.69852E+03</wgt>
<wgt id='9057'>0.69811E+03</wgt>
<wgt id='9058'>0.69726E+03</wgt>
<wgt id='9059'>0.69764E+03</wgt>
<wgt id='9060'>0.69792E+03</wgt>
<wgt id='9061'>0.69802E+03</wgt>
<wgt id='9062'>0.69828E+03</wgt>
<wgt id='9063'>0.69822E+03</wgt>
<wgt id='9064'>0.69827E+03</wgt>
<wgt id='9065'>0.69783E+03</wgt>
<wgt id='9066'>0.69787E+03</wgt>
<wgt id='9067'>0.69822E+03</wgt>
<wgt id='9068'>0.69811E+03</wgt>
<wgt id='9069'>0.69884E+03</wgt>
<wgt id='9070'>0.69793E+03</wgt>
<wgt id='9071'>0.69850E+03</wgt>
<wgt id='9072'>0.69864E+03</wgt>
<wgt id='9073'>0.69801E+03</wgt>
<wgt id='9074'>0.69824E+03</wgt>
<wgt id='9075'>0.69806E+03</wgt>
<wgt id='9076'>0.69803E+03</wgt>
<wgt id='9077'>0.69832E+03</wgt>
<wgt id='9078'>0.69825E+03</wgt>
<wgt id='9079'>0.69800E+03</wgt>
<wgt id='9080'>0.69880E+03</wgt>
<wgt id='9081'>0.69817E+03</wgt>
<wgt id='9082'>0.69830E+03</wgt>
<wgt id='9083'>0.69793E+03</wgt>
<wgt id='9084'>0.69772E+03</wgt>
<wgt id='9085'>0.69760E+03</wgt>
<wgt id='9086'>0.69829E+03</wgt>
<wgt id='9087'>0.69735E+03</wgt>
<wgt id='9088'>0.69773E+03</wgt>
<wgt id='9089'>0.69780E+03</wgt>
<wgt id='9090'>0.69820E+03</wgt>
<wgt id='9091'>0.69796E+03</wgt>
<wgt id='9092'>0.69801E+03</wgt>
<wgt id='9093'>0.69791E+03</wgt>
<wgt id='9094'>0.69795E+03</wgt>
<wgt id='9095'>0.69820E+03</wgt>
<wgt id='9096'>0.69792E+03</wgt>
<wgt id='9097'>0.69818E+03</wgt>
<wgt id='9098'>0.69803E+03</wgt>
<wgt id='9099'>0.69787E+03</wgt>
<wgt id='9100'>0.69812E+03</wgt>
<wgt id='9101'>0.68617E+03</wgt>
<wgt id='9102'>0.71019E+03</wgt>
<wgt id='10000'>0.72802E+03</wgt>
<wgt id='10001'>0.72891E+03</wgt>
<wgt id='10002'>0.72256E+03</wgt>
<wgt id='10003'>0.72789E+03</wgt>
<wgt id='10004'>0.72337E+03</wgt>
<wgt id='10005'>0.72695E+03</wgt>
<wgt id='10006'>0.72294E+03</wgt>
<wgt id='10007'>0.72784E+03</wgt>
<wgt id='10008'>0.72788E+03</wgt>
<wgt id='10009'>0.72407E+03</wgt>
<wgt id='10010'>0.72858E+03</wgt>
<wgt id='10011'>0.72267E+03</wgt>
<wgt id='10012'>0.72479E+03</wgt>
<wgt id='10013'>0.72860E+03</wgt>
<wgt id='10014'>0.72826E+03</wgt>
<wgt id='10015'>0.72976E+03</wgt>
<wgt id='10016'>0.72692E+03</wgt>
<wgt id='10017'>0.72994E+03</wgt>
<wgt id='10018'>0.73013E+03</wgt>
<wgt id='10019'>0.71827E+03</wgt>
<wgt id='10020'>0.72647E+03</wgt>
<wgt id='10021'>0.72735E+03</wgt>
<wgt id='10022'>0.72875E+03</wgt>
<wgt id='10023'>0.72899E+03</wgt>
<wgt id='10024'>0.72794E+03</wgt>
<wgt id='10025'>0.72738E+03</wgt>
<wgt id='10026'>0.73051E+03</wgt>
<wgt id='10027'>0.72879E+03</wgt>
<wgt id='10028'>0.73581E+03</wgt>
<wgt id='10029'>0.72862E+03</wgt>
<wgt id='10030'>0.72765E+03</wgt>
<wgt id='10031'>0.71585E+03</wgt>
<wgt id='10032'>0.74050E+03</wgt>
<wgt id='11000'>0.69830E+03</wgt>
<wgt id='11001'>0.68747E+03</wgt>
<wgt id='11002'>0.69639E+03</wgt>
<wgt id='11003'>0.69847E+03</wgt>
<wgt id='11004'>0.69366E+03</wgt>
<wgt id='11005'>0.70137E+03</wgt>
<wgt id='11006'>0.69839E+03</wgt>
<wgt id='11007'>0.69898E+03</wgt>
<wgt id='11008'>0.69864E+03</wgt>
<wgt id='11009'>0.69834E+03</wgt>
<wgt id='11010'>0.69828E+03</wgt>
<wgt id='11011'>0.69697E+03</wgt>
<wgt id='11012'>0.69750E+03</wgt>
<wgt id='11013'>0.69928E+03</wgt>
<wgt id='11014'>0.69751E+03</wgt>
<wgt id='11015'>0.69588E+03</wgt>
<wgt id='11016'>0.69954E+03</wgt>
<wgt id='11017'>0.69989E+03</wgt>
<wgt id='11018'>0.69885E+03</wgt>
<wgt id='11019'>0.69932E+03</wgt>
<wgt id='11020'>0.69813E+03</wgt>
<wgt id='11021'>0.69992E+03</wgt>
<wgt id='11022'>0.69965E+03</wgt>
<wgt id='11023'>0.69827E+03</wgt>
<wgt id='11024'>0.69553E+03</wgt>
<wgt id='11025'>0.69658E+03</wgt>
<wgt id='11026'>0.69824E+03</wgt>
<wgt id='11027'>0.69996E+03</wgt>
<wgt id='11028'>0.69734E+03</wgt>
<wgt id='11029'>0.68973E+03</wgt>
<wgt id='11030'>0.69853E+03</wgt>
<wgt id='11031'>0.68617E+03</wgt>
<wgt id='11032'>0.71019E+03</wgt>
<wgt id='12000'>0.64802E+03</wgt>
<wgt id='12001'>0.64721E+03</wgt>
<wgt id='12002'>0.64882E+03</wgt>
<wgt id='12003'>0.64863E+03</wgt>
<wgt id='12004'>0.64741E+03</wgt>
<wgt id='12005'>0.64861E+03</wgt>
<wgt id='12006'>0.64743E+03</wgt>
<wgt id='12007'>0.65076E+03</wgt>
<wgt id='12008'>0.64534E+03</wgt>
<wgt id='12009'>0.64732E+03</wgt>
<wgt id='12010'>0.64875E+03</wgt>
<wgt id='12011'>0.64411E+03</wgt>
<wgt id='12012'>0.65227E+03</wgt>
<wgt id='12013'>0.64674E+03</wgt>
<wgt id='12014'>0.64932E+03</wgt>
<wgt id='12015'>0.65119E+03</wgt>
<wgt id='12016'>0.64414E+03</wgt>
<wgt id='12017'>0.65043E+03</wgt>
<wgt id='12018'>0.64622E+03</wgt>
<wgt id='12019'>0.65149E+03</wgt>
<wgt id='12020'>0.64434E+03</wgt>
<wgt id='12021'>0.64884E+03</wgt>
<wgt id='12022'>0.64709E+03</wgt>
<wgt id='12023'>0.64136E+03</wgt>
<wgt id='12024'>0.65395E+03</wgt>
<wgt id='12025'>0.64309E+03</wgt>
<wgt id='12026'>0.65326E+03</wgt>
<wgt id='12027'>0.65760E+03</wgt>
<wgt id='12028'>0.63948E+03</wgt>
<wgt id='12050'>0.64802E+03</wgt>
<wgt id='12051'>0.64945E+03</wgt>
<wgt id='12052'>0.64223E+03</wgt>
<wgt id='12053'>0.64952E+03</wgt>
<wgt id='12054'>0.64369E+03</wgt>
<wgt id='12055'>0.64186E+03</wgt>
<wgt id='12056'>0.65773E+03</wgt>
<wgt id='12057'>0.64689E+03</wgt>
<wgt id='12058'>0.64689E+03</wgt>
<wgt id='12059'>0.65092E+03</wgt>
<wgt id='12060'>0.64265E+03</wgt>
<wgt id='12061'>0.64254E+03</wgt>
<wgt id='12062'>0.64631E+03</wgt>
<wgt id='12063'>0.65286E+03</wgt>
<wgt id='13000'>0.68629E+03</wgt>
<wgt id='13001'>0.68321E+03</wgt>
<wgt id='13002'>0.68453E+03</wgt>
<wgt id='13003'>0.68394E+03</wgt>
<wgt id='13004'>0.68380E+03</wgt>
<wgt id='13005'>0.68465E+03</wgt>
<wgt id='13006'>0.68309E+03</wgt>
<wgt id='13007'>0.68762E+03</wgt>
<wgt id='13008'>0.68022E+03</wgt>
<wgt id='13009'>0.68118E+03</wgt>
<wgt id='13010'>0.68665E+03</wgt>
<wgt id='13011'>0.68607E+03</wgt>
<wgt id='13012'>0.68172E+03</wgt>
<wgt id='13013'>0.68305E+03</wgt>
<wgt id='13014'>0.68464E+03</wgt>
<wgt id='13015'>0.68462E+03</wgt>
<wgt id='13016'>0.68186E+03</wgt>
<wgt id='13017'>0.68318E+03</wgt>
<wgt id='13018'>0.68458E+03</wgt>
<wgt id='13019'>0.68517E+03</wgt>
<wgt id='13020'>0.68266E+03</wgt>
<wgt id='13021'>0.68955E+03</wgt>
<wgt id='13022'>0.67817E+03</wgt>
<wgt id='13023'>0.67724E+03</wgt>
<wgt id='13024'>0.69054E+03</wgt>
<wgt id='13025'>0.67318E+03</wgt>
<wgt id='13026'>0.69387E+03</wgt>
<wgt id='13027'>0.67934E+03</wgt>
<wgt id='13028'>0.68900E+03</wgt>
<wgt id='13050'>0.68629E+03</wgt>
<wgt id='13051'>0.68609E+03</wgt>
<wgt id='13052'>0.67736E+03</wgt>
<wgt id='13053'>0.68583E+03</wgt>
<wgt id='13054'>0.68253E+03</wgt>
<wgt id='13055'>0.66436E+03</wgt>
<wgt id='13056'>0.68963E+03</wgt>
<wgt id='13057'>0.68360E+03</wgt>
<wgt id='13058'>0.68572E+03</wgt>
<wgt id='13059'>0.68834E+03</wgt>
<wgt id='13060'>0.65919E+03</wgt>
<wgt id='13061'>0.68527E+03</wgt>
<wgt id='13062'>0.68397E+03</wgt>
<wgt id='13063'>0.69324E+03</wgt>
<wgt id='14000'>0.72180E+03</wgt>
<wgt id='14001'>0.72172E+03</wgt>
<wgt id='14002'>0.72163E+03</wgt>
<wgt id='14003'>0.72155E+03</wgt>
<wgt id='14004'>0.72146E+03</wgt>
<wgt id='14005'>0.72138E+03</wgt>
<wgt id='14006'>0.72129E+03</wgt>
<wgt id='14007'>0.72121E+03</wgt>
<wgt id='14008'>0.72112E+03</wgt>
<wgt id='14009'>0.72104E+03</wgt>
<wgt id='14010'>0.72095E+03</wgt>
<wgt id='14011'>0.72087E+03</wgt>
<wgt id='14012'>0.72078E+03</wgt>
<wgt id='14013'>0.72069E+03</wgt>
<wgt id='14014'>0.72061E+03</wgt>
<wgt id='14015'>0.72052E+03</wgt>
<wgt id='14016'>0.72044E+03</wgt>
<wgt id='14017'>0.72036E+03</wgt>
<wgt id='14018'>0.72027E+03</wgt>
<wgt id='14019'>0.72019E+03</wgt>
<wgt id='14020'>0.72010E+03</wgt>
<wgt id='14021'>0.72002E+03</wgt>
<wgt id='14022'>0.71993E+03</wgt>
<wgt id='14023'>0.71985E+03</wgt>
<wgt id='14024'>0.71976E+03</wgt>
<wgt id='14025'>0.71967E+03</wgt>
<wgt id='14026'>0.71959E+03</wgt>
<wgt id='14027'>0.71950E+03</wgt>
<wgt id='14028'>0.71942E+03</wgt>
<wgt id='14029'>0.71933E+03</wgt>
<wgt id='14030'>0.71925E+03</wgt>
<wgt id='15000'>0.69027E+03</wgt>
<wgt id='15001'>0.69213E+03</wgt>
<wgt id='15002'>0.69026E+03</wgt>
<wgt id='15003'>0.69001E+03</wgt>
<wgt id='15004'>0.69278E+03</wgt>
<wgt id='15005'>0.69423E+03</wgt>
<wgt id='15006'>0.69248E+03</wgt>
<wgt id='15007'>0.68920E+03</wgt>
<wgt id='15008'>0.68988E+03</wgt>
<wgt id='15009'>0.69141E+03</wgt>
<wgt id='15010'>0.69042E+03</wgt>
<wgt id='15011'>0.69239E+03</wgt>
<wgt id='15012'>0.69136E+03</wgt>
<wgt id='15013'>0.69502E+03</wgt>
<wgt id='15014'>0.69022E+03</wgt>
<wgt id='15015'>0.68453E+03</wgt>
<wgt id='15016'>0.68977E+03</wgt>
<wgt id='15017'>0.68756E+03</wgt>
<wgt id='15018'>0.69448E+03</wgt>
<wgt id='15019'>0.69382E+03</wgt>
<wgt id='15020'>0.69695E+03</wgt>
<wgt id='15021'>0.68512E+03</wgt>
<wgt id='15022'>0.69135E+03</wgt>
<wgt id='15023'>0.68508E+03</wgt>
<wgt id='15024'>0.68729E+03</wgt>
<wgt id='15025'>0.69409E+03</wgt>
<wgt id='15026'>0.68985E+03</wgt>
<wgt id='15027'>0.68892E+03</wgt>
<wgt id='15028'>0.69117E+03</wgt>
<wgt id='15029'>0.69070E+03</wgt>
<wgt id='15030'>0.68929E+03</wgt>
<wgt id='15031'>0.68956E+03</wgt>
<wgt id='15032'>0.69119E+03</wgt>
<wgt id='15033'>0.69118E+03</wgt>
<wgt id='15034'>0.69063E+03</wgt>
<wgt id='15035'>0.69113E+03</wgt>
<wgt id='15036'>0.69055E+03</wgt>
<wgt id='15037'>0.69077E+03</wgt>
<wgt id='15038'>0.69084E+03</wgt>
<wgt id='15039'>0.69038E+03</wgt>
<wgt id='15040'>0.68948E+03</wgt>
<wgt id='15041'>0.69027E+03</wgt>
<wgt id='15042'>0.69069E+03</wgt>
<wgt id='15043'>0.68929E+03</wgt>
<wgt id='15044'>0.69063E+03</wgt>
<wgt id='15045'>0.69056E+03</wgt>
<wgt id='15046'>0.68928E+03</wgt>
<wgt id='15047'>0.69047E+03</wgt>
<wgt id='15048'>0.69068E+03</wgt>
<wgt id='15049'>0.68994E+03</wgt>
<wgt id='15050'>0.69028E+03</wgt>
<wgt id='15051'>0.69077E+03</wgt>
<wgt id='15052'>0.69092E+03</wgt>
<wgt id='15053'>0.69043E+03</wgt>
<wgt id='15054'>0.68991E+03</wgt>
<wgt id='15055'>0.68988E+03</wgt>
<wgt id='15056'>0.69065E+03</wgt>
<wgt id='15057'>0.69026E+03</wgt>
<wgt id='15058'>0.68950E+03</wgt>
<wgt id='15059'>0.68985E+03</wgt>
<wgt id='15060'>0.69012E+03</wgt>
<wgt id='15061'>0.69020E+03</wgt>
<wgt id='15062'>0.69044E+03</wgt>
<wgt id='15063'>0.69040E+03</wgt>
<wgt id='15064'>0.69042E+03</wgt>
<wgt id='15065'>0.69002E+03</wgt>
<wgt id='15066'>0.69006E+03</wgt>
<wgt id='15067'>0.69037E+03</wgt>
<wgt id='15068'>0.69029E+03</wgt>
<wgt id='15069'>0.69099E+03</wgt>
<wgt id='15070'>0.69009E+03</wgt>
<wgt id='15071'>0.69070E+03</wgt>
<wgt id='15072'>0.69081E+03</wgt>
<wgt id='15073'>0.69015E+03</wgt>
<wgt id='15074'>0.69042E+03</wgt>
<wgt id='15075'>0.69022E+03</wgt>
<wgt id='15076'>0.69025E+03</wgt>
<wgt id='15077'>0.69050E+03</wgt>
<wgt id='15078'>0.69047E+03</wgt>
<wgt id='15079'>0.69017E+03</wgt>
<wgt id='15080'>0.69092E+03</wgt>
<wgt id='15081'>0.69037E+03</wgt>
<wgt id='15082'>0.69048E+03</wgt>
<wgt id='15083'>0.69009E+03</wgt>
<wgt id='15084'>0.68988E+03</wgt>
<wgt id='15085'>0.68980E+03</wgt>
<wgt id='15086'>0.69049E+03</wgt>
<wgt id='15087'>0.68953E+03</wgt>
<wgt id='15088'>0.68990E+03</wgt>
<wgt id='15089'>0.68996E+03</wgt>
<wgt id='15090'>0.69038E+03</wgt>
<wgt id='15091'>0.69012E+03</wgt>
<wgt id='15092'>0.69018E+03</wgt>
<wgt id='15093'>0.69009E+03</wgt>
<wgt id='15094'>0.69011E+03</wgt>
<wgt id='15095'>0.69037E+03</wgt>
<wgt id='15096'>0.69009E+03</wgt>
<wgt id='15097'>0.69035E+03</wgt>
<wgt id='15098'>0.69021E+03</wgt>
<wgt id='15099'>0.69004E+03</wgt>
<wgt id='15100'>0.69030E+03</wgt>
<wgt id='15101'>0.69026E+03</wgt>
<wgt id='15102'>0.69022E+03</wgt>
<wgt id='15103'>0.69028E+03</wgt>
<wgt id='15104'>0.69028E+03</wgt>
<wgt id='15105'>0.69029E+03</wgt>
<wgt id='15106'>0.69027E+03</wgt>
<wgt id='15107'>0.69023E+03</wgt>
<wgt id='1500'>0.73442E+03</wgt>
<wgt id='1501'>0.71012E+03</wgt>
<wgt id='1502'>0.75108E+03</wgt>
<wgt id='1503'>0.75004E+03</wgt>
<wgt id='1504'>0.70408E+03</wgt>
<wgt id='1505'>0.70203E+03</wgt>
<wgt id='1506'>0.72250E+03</wgt>
<wgt id='1507'>0.73961E+03</wgt>
<wgt id='1508'>0.73823E+03</wgt>
<wgt id='1509'>0.73531E+03</wgt>
<wgt id='1510'>0.74815E+03</wgt>
<wgt id='1511'>0.73169E+03</wgt>
<wgt id='1512'>0.73133E+03</wgt>
<wgt id='1513'>0.72492E+03</wgt>
<wgt id='1514'>0.75611E+03</wgt>
<wgt id='1515'>0.73998E+03</wgt>
<wgt id='1516'>0.74979E+03</wgt>
<wgt id='1517'>0.75503E+03</wgt>
<wgt id='1518'>0.74615E+03</wgt>
<wgt id='1519'>0.72377E+03</wgt>
<wgt id='1520'>0.74593E+03</wgt>
<wgt id='1521'>0.71799E+03</wgt>
<wgt id='1522'>0.73166E+03</wgt>
<wgt id='1523'>0.74471E+03</wgt>
<wgt id='1524'>0.72102E+03</wgt>
<wgt id='1525'>0.73303E+03</wgt>
<wgt id='1526'>0.71169E+03</wgt>
<wgt id='1527'>0.76138E+03</wgt>
<wgt id='1528'>0.73955E+03</wgt>
<wgt id='1529'>0.74639E+03</wgt>
<wgt id='1530'>0.73525E+03</wgt>
<wgt id='1531'>0.72019E+03</wgt>
<wgt id='1532'>0.72611E+03</wgt>
<wgt id='1533'>0.73269E+03</wgt>
<wgt id='1534'>0.71640E+03</wgt>
<wgt id='1535'>0.77057E+03</wgt>
<wgt id='1536'>0.73586E+03</wgt>
<wgt id='1537'>0.74185E+03</wgt>
<wgt id='1538'>0.73360E+03</wgt>
<wgt id='1539'>0.71419E+03</wgt>
<wgt id='1540'>0.72761E+03</wgt>
<wgt id='1541'>0.72107E+03</wgt>
<wgt id='1542'>0.72636E+03</wgt>
<wgt id='1543'>0.71894E+03</wgt>
<wgt id='1544'>0.73275E+03</wgt>
<wgt id='1545'>0.75339E+03</wgt>
<wgt id='1546'>0.72599E+03</wgt>
<wgt id='1547'>0.73161E+03</wgt>
<wgt id='1548'>0.72958E+03</wgt>
<wgt id='1549'>0.75220E+03</wgt>
<wgt id='1550'>0.73465E+03</wgt>
<wgt id='1551'>0.72755E+03</wgt>
<wgt id='1552'>0.73985E+03</wgt>
<wgt id='1553'>0.73453E+03</wgt>
<wgt id='1554'>0.71626E+03</wgt>
<wgt id='1555'>0.73073E+03</wgt>
<wgt id='1556'>0.74231E+03</wgt>
<wgt id='1557'>0.73454E+03</wgt>
<wgt id='1558'>0.73229E+03</wgt>
<wgt id='1559'>0.74951E+03</wgt>
<wgt id='1560'>0.73016E+03</wgt>
<wgt id='1561'>0.73750E+03</wgt>
<wgt id='1562'>0.74581E+03</wgt>
<wgt id='1563'>0.72276E+03</wgt>
<wgt id='1564'>0.75522E+03</wgt>
<wgt id='1565'>0.72969E+03</wgt>
<wgt id='1566'>0.73345E+03</wgt>
<wgt id='1567'>0.75971E+03</wgt>
<wgt id='1568'>0.73304E+03</wgt>
<wgt id='1569'>0.72624E+03</wgt>
<wgt id='1570'>0.72851E+03</wgt>
<wgt id='1571'>0.73158E+03</wgt>
<wgt id='1572'>0.72323E+03</wgt>
<wgt id='1573'>0.72941E+03</wgt>
<wgt id='1574'>0.73517E+03</wgt>
<wgt id='1575'>0.73716E+03</wgt>
<wgt id='1576'>0.71000E+03</wgt>
<wgt id='1577'>0.71769E+03</wgt>
<wgt id='1578'>0.73135E+03</wgt>
<wgt id='1579'>0.73227E+03</wgt>
<wgt id='1580'>0.72802E+03</wgt>
<wgt id='1581'>0.73512E+03</wgt>
<wgt id='1582'>0.72817E+03</wgt>
<wgt id='1583'>0.73222E+03</wgt>
<wgt id='1584'>0.74120E+03</wgt>
<wgt id='1585'>0.73982E+03</wgt>
<wgt id='1586'>0.73825E+03</wgt>
<wgt id='1587'>0.75126E+03</wgt>
<wgt id='1588'>0.74051E+03</wgt>
<wgt id='1589'>0.73026E+03</wgt>
<wgt id='1590'>0.72736E+03</wgt>
<wgt id='1591'>0.71757E+03</wgt>
<wgt id='1592'>0.73247E+03</wgt>
<wgt id='1593'>0.74178E+03</wgt>
<wgt id='1594'>0.75342E+03</wgt>
<wgt id='1595'>0.75775E+03</wgt>
<wgt id='1596'>0.73128E+03</wgt>
<wgt id='1597'>0.73671E+03</wgt>
<wgt id='1598'>0.73522E+03</wgt>
<wgt id='1599'>0.73950E+03</wgt>
<wgt id='1600'>0.74722E+03</wgt>
<wgt id='1601'>0.72403E+03</wgt>
<wgt id='1602'>0.73866E+03</wgt>
<wgt id='1700'>0.69516E+03</wgt>
<wgt id='1800'>0.75582E+03</wgt>
<wgt id='1850'>0.86758E+03</wgt>
<wgt id='1900'>0.80415E+03</wgt>
<wgt id='1950'>0.84206E+03</wgt>
</rwgt>
</event>
<event>
     13 322222  6.87070E+02  2.54205E+01 -1.00000E+00  1.55598E-01
      21    -1     0     0   502   503  0.000000000E+00  0.000000000E+00  1.948230951E+02  1.948230951E+02  0.000000000E+00  0.00000E+00  9.000E+00
      21    -1     0     0   504   505  0.000000000E+00  0.000000000E+00 -5.361880260E+02  5.361880260E+02  0.000000000E+00  0.00000E+00  9.000E+00
       6     2     1     2   502     0 -4.852841997E+01  2.360604105E+01  3.767081975E+01  1.847533206E+02  1.726338497E+02  0.00000E+00  9.000E+00
      -6     2     1     2     0   505  5.740407233E+01  2.146621407E-01 -1.664551317E+01  1.829770726E+02  1.729400544E+02  0.00000E+00  9.000E+00
      21     1     1     2   504   503 -8.875652357E+00 -2.382070319E+01 -3.623902374E+02  3.632807279E+02  5.394796609E-06  0.00000E+00  9.000E+00
      24     2     3     3     0     0 -7.196188868E+01  4.206672192E+01 -2.288463479E+01  1.170781606E+02  7.896497119E+01  0.00000E+00  9.000E+00
       5     1     3     3   502     0  2.343346871E+01 -1.846068087E+01  6.055545454E+01  6.767515991E+01  4.800000000E+00  0.00000E+00 -1.000E+00
     -24     2     4     4     0     0 -2.403399141E+01 -1.680442398E+01 -4.481621489E+01  9.500869221E+01  7.847379862E+01  0.00000E+00  9.000E+00
      -5     1     4     4     0   505  8.143806375E+01  1.701908612E+01  2.817070172E+01  8.796838042E+01  4.800000000E+00  0.00000E+00  1.000E+00
     -11     1     6     6     0     0 -5.532916592E+01 -2.522949872E+00 -3.797182722E+01  6.715312011E+01  5.100000000E-04  0.00000E+00  1.000E+00
      12     1     6     6     0     0 -1.663272276E+01  4.458967180E+01  1.508719243E+01  4.992504054E+01  0.000000000E+00  0.00000E+00 -1.000E+00
       1     1     8     8   509     0 -3.702426382E+01  3.275757931E+00 -5.709286484E+01  6.812585351E+01  1.000000000E-01  0.00000E+00 -1.000E+00
      -2     1     8     8     0   509  1.299027241E+01 -2.008018191E+01  1.227664994E+01  2.688283870E+01  1.000000000E-01  0.00000E+00  1.000E+00
#rwgt            1           1   698.37471016086090                2        4068           0
<rwgt>
<wgt id='1001'>0.68707E+03</wgt>
<wgt id='1002'>0.78740E+03</wgt>
<wgt id='1003'>0.59152E+03</wgt>
<wgt id='1004'>0.62258E+03</wgt>
<wgt id='1005'>0.69575E+03</wgt>
<wgt id='1006'>0.55264E+03</wgt>
<wgt id='1007'>0.75287E+03</wgt>
<wgt id='1008'>0.89398E+03</wgt>
<wgt id='1009'>0.61896E+03</wgt>
<wgt id='2000'>0.68707E+03</wgt>
<wgt id='2001'>0.68616E+03</wgt>
<wgt id='2002'>0.68829E+03</wgt>
<wgt id='2003'>0.68836E+03</wgt>
<wgt id='2004'>0.68840E+03</wgt>
<wgt id='2005'>0.68572E+03</wgt>
<wgt id='2006'>0.68484E+03</wgt>
<wgt id='2007'>0.68332E+03</wgt>
<wgt id='2008'>0.68332E+03</wgt>
<wgt id='2009'>0.68873E+03</wgt>
<wgt id='2010'>0.68751E+03</wgt>
<wgt id='2011'>0.68635E+03</wgt>
<wgt id='2012'>0.68871E+03</wgt>
<wgt id='2013'>0.68931E+03</wgt>
<wgt id='2014'>0.69086E+03</wgt>
<wgt id='2015'>0.68930E+03</wgt>
<wgt id='2016'>0.68740E+03</wgt>
<wgt id='2017'>0.68701E+03</wgt>
<wgt id='2018'>0.69005E+03</wgt>
<wgt id='2019'>0.68691E+03</wgt>
<wgt id='2020'>0.69171E+03</wgt>
<wgt id='2021'>0.68471E+03</wgt>
<wgt id='2022'>0.69057E+03</wgt>
<wgt id='2023'>0.68918E+03</wgt>
<wgt id='2024'>0.68716E+03</wgt>
<wgt id='2025'>0.69082E+03</wgt>
<wgt id='2026'>0.68951E+03</wgt>
<wgt id='2027'>0.68601E+03</wgt>
<wgt id='2028'>0.68546E+03</wgt>
<wgt id='2029'>0.68788E+03</wgt>
<wgt id='2030'>0.68751E+03</wgt>
<wgt id='2031'>0.68784E+03</wgt>
<wgt id='2032'>0.68696E+03</wgt>
<wgt id='2033'>0.68727E+03</wgt>
<wgt id='2034'>0.68731E+03</wgt>
<wgt id='2035'>0.68694E+03</wgt>
<wgt id='2036'>0.68713E+03</wgt>
<wgt id='2037'>0.68722E+03</wgt>
<wgt id='2038'>0.68729E+03</wgt>
<wgt id='2039'>0.68723E+03</wgt>
<wgt id='2040'>0.68707E+03</wgt>
<wgt id='2041'>0.68673E+03</wgt>
<wgt id='2042'>0.68616E+03</wgt>
<wgt id='2043'>0.68764E+03</wgt>
<wgt id='2044'>0.68751E+03</wgt>
<wgt id='2045'>0.68706E+03</wgt>
<wgt id='2046'>0.68758E+03</wgt>
<wgt id='2047'>0.68747E+03</wgt>
<wgt id='2048'>0.68708E+03</wgt>
<wgt id='2049'>0.68710E+03</wgt>
<wgt id='2050'>0.68751E+03</wgt>
<wgt id='2051'>0.68720E+03</wgt>
<wgt id='2052'>0.68661E+03</wgt>
<wgt id='2053'>0.68690E+03</wgt>
<wgt id='2054'>0.68716E+03</wgt>
<wgt id='2055'>0.68719E+03</wgt>
<wgt id='2056'>0.68711E+03</wgt>
<wgt id='2057'>0.68686E+03</wgt>
<wgt id='2058'>0.68721E+03</wgt>
<wgt id='2059'>0.68698E+03</wgt>
<wgt id='2060'>0.68715E+03</wgt>
<wgt id='2061'>0.68702E+03</wgt>
<wgt id='2062'>0.68719E+03</wgt>
<wgt id='2063'>0.68694E+03</wgt>
<wgt id='2064'>0.68696E+03</wgt>
<wgt id='2065'>0.68725E+03</wgt>
<wgt id='2066'>0.68703E+03</wgt>
<wgt id='2067'>0.68706E+03</wgt>
<wgt id='2068'>0.68721E+03</wgt>
<wgt id='2069'>0.68704E+03</wgt>
<wgt id='2070'>0.68693E+03</wgt>
<wgt id='2071'>0.68675E+03</wgt>
<wgt id='2072'>0.68711E+03</wgt>
<wgt id='2073'>0.68709E+03</wgt>
<wgt id='2074'>0.68679E+03</wgt>
<wgt id='2075'>0.68707E+03</wgt>
<wgt id='2076'>0.68701E+03</wgt>
<wgt id='2077'>0.68693E+03</wgt>
<wgt id='2078'>0.68711E+03</wgt>
<wgt id='2079'>0.68718E+03</wgt>
<wgt id='2080'>0.68707E+03</wgt>
<wgt id='2081'>0.68713E+03</wgt>
<wgt id='2082'>0.68714E+03</wgt>
<wgt id='2083'>0.68707E+03</wgt>
<wgt id='2084'>0.68707E+03</wgt>
<wgt id='2085'>0.68699E+03</wgt>
<wgt id='2086'>0.68708E+03</wgt>
<wgt id='2087'>0.68705E+03</wgt>
<wgt id='2088'>0.68710E+03</wgt>
<wgt id='2089'>0.68709E+03</wgt>
<wgt id='2090'>0.68710E+03</wgt>
<wgt id='2091'>0.68706E+03</wgt>
<wgt id='2092'>0.68710E+03</wgt>
<wgt id='2093'>0.68705E+03</wgt>
<wgt id='2094'>0.68710E+03</wgt>
<wgt id='2095'>0.68707E+03</wgt>
<wgt id='2096'>0.68703E+03</wgt>
<wgt id='2097'>0.68716E+03</wgt>
<wgt id='2098'>0.68699E+03</wgt>
<wgt id='2099'>0.68712E+03</wgt>
<wgt id='2100'>0.68705E+03</wgt>
<wgt id='2101'>0.66927E+03</wgt>
<wgt id='2102'>0.70231E+03</wgt>
<wgt id='2104'>0.61143E+03</wgt>
<wgt id='2105'>0.62517E+03</wgt>
<wgt id='2106'>0.64311E+03</wgt>
<wgt id='2107'>0.65988E+03</wgt>
<wgt id='2108'>0.68075E+03</wgt>
<wgt id='2109'>0.69671E+03</wgt>
<wgt id='2110'>0.71418E+03</wgt>
<wgt id='2111'>0.72958E+03</wgt>
<wgt id='3000'>0.71434E+03</wgt>
<wgt id='3001'>0.71576E+03</wgt>
<wgt id='3002'>0.71353E+03</wgt>
<wgt id='3003'>0.71587E+03</wgt>
<wgt id='3004'>0.71585E+03</wgt>
<wgt id='3005'>0.71737E+03</wgt>
<wgt id='3006'>0.71455E+03</wgt>
<wgt id='3007'>0.71732E+03</wgt>
<wgt id='3008'>0.71328E+03</wgt>
<wgt id='3009'>0.71685E+03</wgt>
<wgt id='3010'>0.71232E+03</wgt>
<wgt id='3011'>0.71350E+03</wgt>
<wgt id='3012'>0.71742E+03</wgt>
<wgt id='3013'>0.71258E+03</wgt>
<wgt id='3014'>0.71713E+03</wgt>
<wgt id='3015'>0.71370E+03</wgt>
<wgt id='3016'>0.71509E+03</wgt>
<wgt id='3017'>0.71723E+03</wgt>
<wgt id='3018'>0.71691E+03</wgt>
<wgt id='3019'>0.71028E+03</wgt>
<wgt id='3020'>0.71102E+03</wgt>
<wgt id='3021'>0.71005E+03</wgt>
<wgt id='3022'>0.71403E+03</wgt>
<wgt id='3023'>0.71193E+03</wgt>
<wgt id='3024'>0.71125E+03</wgt>
<wgt id='3025'>0.71424E+03</wgt>
<wgt id='3026'>0.71639E+03</wgt>
<wgt id='3027'>0.71459E+03</wgt>
<wgt id='3028'>0.71125E+03</wgt>
<wgt id='3029'>0.71387E+03</wgt>
<wgt id='3030'>0.71532E+03</wgt>
<wgt id='3031'>0.71470E+03</wgt>
<wgt id='3032'>0.71509E+03</wgt>
<wgt id='3033'>0.71489E+03</wgt>
<wgt id='3034'>0.71488E+03</wgt>
<wgt id='3035'>0.71468E+03</wgt>
<wgt id='3036'>0.71453E+03</wgt>
<wgt id='3037'>0.71445E+03</wgt>
<wgt id='3038'>0.71432E+03</wgt>
<wgt id='3039'>0.71460E+03</wgt>
<wgt id='3040'>0.71449E+03</wgt>
<wgt id='3041'>0.71428E+03</wgt>
<wgt id='3042'>0.71358E+03</wgt>
<wgt id='3043'>0.71359E+03</wgt>
<wgt id='3044'>0.71479E+03</wgt>
<wgt id='3045'>0.71490E+03</wgt>
<wgt id='3046'>0.71456E+03</wgt>
<wgt id='3047'>0.71407E+03</wgt>
<wgt id='3048'>0.71477E+03</wgt>
<wgt id='3049'>0.71410E+03</wgt>
<wgt id='3050'>0.71428E+03</wgt>
<wgt id='3051'>0.71516E+03</wgt>
<wgt id='3052'>0.71427E+03</wgt>
<wgt id='3053'>0.71425E+03</wgt>
<wgt id='3054'>0.71419E+03</wgt>
<wgt id='3055'>0.71468E+03</wgt>
<wgt id='3056'>0.71453E+03</wgt>
<wgt id='3057'>0.71420E+03</wgt>
<wgt id='3058'>0.71417E+03</wgt>
<wgt id='3059'>0.71442E+03</wgt>
<wgt id='3060'>0.71446E+03</wgt>
<wgt id='3061'>0.71475E+03</wgt>
<wgt id='3062'>0.71442E+03</wgt>
<wgt id='3063'>0.71441E+03</wgt>
<wgt id='3064'>0.71435E+03</wgt>
<wgt id='3065'>0.71443E+03</wgt>
<wgt id='3066'>0.71448E+03</wgt>
<wgt id='3067'>0.71407E+03</wgt>
<wgt id='3068'>0.71432E+03</wgt>
<wgt id='3069'>0.71404E+03</wgt>
<wgt id='3070'>0.71402E+03</wgt>
<wgt id='3071'>0.71434E+03</wgt>
<wgt id='3072'>0.71460E+03</wgt>
<wgt id='3073'>0.71439E+03</wgt>
<wgt id='3074'>0.71449E+03</wgt>
<wgt id='3075'>0.71450E+03</wgt>
<wgt id='3076'>0.71437E+03</wgt>
<wgt id='3077'>0.71429E+03</wgt>
<wgt id='3078'>0.71454E+03</wgt>
<wgt id='3079'>0.71427E+03</wgt>
<wgt id='3080'>0.71423E+03</wgt>
<wgt id='3081'>0.71428E+03</wgt>
<wgt id='3082'>0.71427E+03</wgt>
<wgt id='3083'>0.71429E+03</wgt>
<wgt id='3084'>0.71422E+03</wgt>
<wgt id='3085'>0.71439E+03</wgt>
<wgt id='3086'>0.71435E+03</wgt>
<wgt id='3087'>0.71427E+03</wgt>
<wgt id='3088'>0.71428E+03</wgt>
<wgt id='3089'>0.71437E+03</wgt>
<wgt id='3090'>0.71439E+03</wgt>
<wgt id='3091'>0.71436E+03</wgt>
<wgt id='3092'>0.71432E+03</wgt>
<wgt id='3093'>0.71435E+03</wgt>
<wgt id='3094'>0.71445E+03</wgt>
<wgt id='3095'>0.71439E+03</wgt>
<wgt id='3096'>0.71431E+03</wgt>
<wgt id='3097'>0.71425E+03</wgt>
<wgt id='3098'>0.71432E+03</wgt>
<wgt id='3099'>0.71441E+03</wgt>
<wgt id='3100'>0.71441E+03</wgt>
<wgt id='3101'>0.69793E+03</wgt>
<wgt id='3102'>0.73222E+03</wgt>
<wgt id='5000'>0.66952E+03</wgt>
<wgt id='5001'>0.66868E+03</wgt>
<wgt id='5002'>0.67044E+03</wgt>
<wgt id='5003'>0.66682E+03</wgt>
<wgt id='5004'>0.66853E+03</wgt>
<wgt id='5005'>0.65060E+03</wgt>
<wgt id='5006'>0.66612E+03</wgt>
<wgt id='5007'>0.66726E+03</wgt>
<wgt id='5008'>0.66471E+03</wgt>
<wgt id='5009'>0.67305E+03</wgt>
<wgt id='5010'>0.66569E+03</wgt>
<wgt id='5011'>0.66914E+03</wgt>
<wgt id='5012'>0.67041E+03</wgt>
<wgt id='5013'>0.66368E+03</wgt>
<wgt id='5014'>0.67925E+03</wgt>
<wgt id='5015'>0.67293E+03</wgt>
<wgt id='5016'>0.65973E+03</wgt>
<wgt id='5017'>0.66198E+03</wgt>
<wgt id='5018'>0.67737E+03</wgt>
<wgt id='5019'>0.67838E+03</wgt>
<wgt id='5020'>0.66114E+03</wgt>
<wgt id='5021'>0.67027E+03</wgt>
<wgt id='5022'>0.66903E+03</wgt>
<wgt id='5023'>0.66758E+03</wgt>
<wgt id='5024'>0.67152E+03</wgt>
<wgt id='5025'>0.67210E+03</wgt>
<wgt id='5026'>0.66737E+03</wgt>
<wgt id='5027'>0.67454E+03</wgt>
<wgt id='5028'>0.66108E+03</wgt>
<wgt id='5029'>0.65970E+03</wgt>
<wgt id='5030'>0.67559E+03</wgt>
<wgt id='5031'>0.66298E+03</wgt>
<wgt id='5032'>0.67918E+03</wgt>
<wgt id='5033'>0.66809E+03</wgt>
<wgt id='5034'>0.67052E+03</wgt>
<wgt id='5035'>0.67140E+03</wgt>
<wgt id='5036'>0.66712E+03</wgt>
<wgt id='5037'>0.65684E+03</wgt>
<wgt id='5038'>0.68339E+03</wgt>
<wgt id='5039'>0.68501E+03</wgt>
<wgt id='5040'>0.66111E+03</wgt>
<wgt id='5041'>0.66660E+03</wgt>
<wgt id='5042'>0.66925E+03</wgt>
<wgt id='5043'>0.67434E+03</wgt>
<wgt id='5044'>0.65965E+03</wgt>
<wgt id='5045'>0.69578E+03</wgt>
<wgt id='5046'>0.64859E+03</wgt>
<wgt id='5047'>0.68232E+03</wgt>
<wgt id='5048'>0.66017E+03</wgt>
<wgt id='5049'>0.67109E+03</wgt>
<wgt id='5050'>0.66829E+03</wgt>
<wgt id='5051'>0.66989E+03</wgt>
<wgt id='5052'>0.66960E+03</wgt>
<wgt id='5053'>0.66902E+03</wgt>
<wgt id='5054'>0.67823E+03</wgt>
<wgt id='5055'>0.66435E+03</wgt>
<wgt id='5056'>0.67918E+03</wgt>
<wgt id='5060'>0.65227E+03</wgt>
<wgt id='5070'>0.68541E+03</wgt>
<wgt id='4000'>0.68164E+03</wgt>
<wgt id='4001'>0.68186E+03</wgt>
<wgt id='4002'>0.68246E+03</wgt>
<wgt id='4003'>0.68831E+03</wgt>
<wgt id='4004'>0.66906E+03</wgt>
<wgt id='4005'>0.67993E+03</wgt>
<wgt id='4006'>0.68326E+03</wgt>
<wgt id='4007'>0.69273E+03</wgt>
<wgt id='4008'>0.67001E+03</wgt>
<wgt id='4009'>0.67503E+03</wgt>
<wgt id='4010'>0.68275E+03</wgt>
<wgt id='4011'>0.69845E+03</wgt>
<wgt id='4012'>0.67033E+03</wgt>
<wgt id='4013'>0.66898E+03</wgt>
<wgt id='4014'>0.68916E+03</wgt>
<wgt id='4015'>0.69418E+03</wgt>
<wgt id='4016'>0.67294E+03</wgt>
<wgt id='4017'>0.67066E+03</wgt>
<wgt id='4018'>0.69460E+03</wgt>
<wgt id='4019'>0.69207E+03</wgt>
<wgt id='4020'>0.67066E+03</wgt>
<wgt id='4021'>0.68495E+03</wgt>
<wgt id='4022'>0.67516E+03</wgt>
<wgt id='4023'>0.67774E+03</wgt>
<wgt id='4024'>0.68552E+03</wgt>
<wgt id='4025'>0.68723E+03</wgt>
<wgt id='4026'>0.67587E+03</wgt>
<wgt id='4027'>0.68093E+03</wgt>
<wgt id='4028'>0.68270E+03</wgt>
<wgt id='4029'>0.67793E+03</wgt>
<wgt id='4030'>0.68296E+03</wgt>
<wgt id='4031'>0.68431E+03</wgt>
<wgt id='4032'>0.67816E+03</wgt>
<wgt id='4033'>0.67684E+03</wgt>
<wgt id='4034'>0.69210E+03</wgt>
<wgt id='4035'>0.68139E+03</wgt>
<wgt id='4036'>0.68209E+03</wgt>
<wgt id='4037'>0.68539E+03</wgt>
<wgt id='4038'>0.67606E+03</wgt>
<wgt id='4039'>0.68287E+03</wgt>
<wgt id='4040'>0.68101E+03</wgt>
<wgt id='4041'>0.68390E+03</wgt>
<wgt id='4042'>0.68018E+03</wgt>
<wgt id='4043'>0.68862E+03</wgt>
<wgt id='4044'>0.68026E+03</wgt>
<wgt id='4045'>0.67176E+03</wgt>
<wgt id='4046'>0.68326E+03</wgt>
<wgt id='4047'>0.67496E+03</wgt>
<wgt id='4048'>0.67555E+03</wgt>
<wgt id='4049'>0.67307E+03</wgt>
<wgt id='4050'>0.67096E+03</wgt>
<wgt id='4051'>0.68206E+03</wgt>
<wgt id='4052'>0.68154E+03</wgt>
<wgt id='4053'>0.66700E+03</wgt>
<wgt id='4054'>0.69132E+03</wgt>
<wgt id='4055'>0.67451E+03</wgt>
<wgt id='4056'>0.69237E+03</wgt>
<wgt id='4060'>0.66416E+03</wgt>
<wgt id='4070'>0.69853E+03</wgt>
<wgt id='4080'>0.59579E+03</wgt>
<wgt id='6000'>0.70262E+03</wgt>
<wgt id='6001'>0.70280E+03</wgt>
<wgt id='6002'>0.70243E+03</wgt>
<wgt id='6003'>0.70329E+03</wgt>
<wgt id='6004'>0.70216E+03</wgt>
<wgt id='6005'>0.70624E+03</wgt>
<wgt id='6006'>0.69923E+03</wgt>
<wgt id='6007'>0.69957E+03</wgt>
<wgt id='6008'>0.70604E+03</wgt>
<wgt id='6009'>0.70350E+03</wgt>
<wgt id='6010'>0.70173E+03</wgt>
<wgt id='6011'>0.70348E+03</wgt>
<wgt id='6012'>0.70067E+03</wgt>
<wgt id='6013'>0.70226E+03</wgt>
<wgt id='6014'>0.70324E+03</wgt>
<wgt id='6015'>0.70101E+03</wgt>
<wgt id='6016'>0.70350E+03</wgt>
<wgt id='6017'>0.69967E+03</wgt>
<wgt id='6018'>0.70608E+03</wgt>
<wgt id='6019'>0.70355E+03</wgt>
<wgt id='6020'>0.70179E+03</wgt>
<wgt id='6021'>0.70118E+03</wgt>
<wgt id='6022'>0.70452E+03</wgt>
<wgt id='6023'>0.69840E+03</wgt>
<wgt id='6024'>0.70548E+03</wgt>
<wgt id='6025'>0.69774E+03</wgt>
<wgt id='6026'>0.70762E+03</wgt>
<wgt id='6027'>0.70346E+03</wgt>
<wgt id='6028'>0.70242E+03</wgt>
<wgt id='6029'>0.70344E+03</wgt>
<wgt id='6030'>0.70173E+03</wgt>
<wgt id='6031'>0.69862E+03</wgt>
<wgt id='6032'>0.70700E+03</wgt>
<wgt id='6033'>0.70510E+03</wgt>
<wgt id='6034'>0.70016E+03</wgt>
<wgt id='6035'>0.70300E+03</wgt>
<wgt id='6036'>0.70197E+03</wgt>
<wgt id='6037'>0.70345E+03</wgt>
<wgt id='6038'>0.70238E+03</wgt>
<wgt id='6039'>0.70146E+03</wgt>
<wgt id='6040'>0.70393E+03</wgt>
<wgt id='6041'>0.69849E+03</wgt>
<wgt id='6042'>0.70726E+03</wgt>
<wgt id='6043'>0.70909E+03</wgt>
<wgt id='6044'>0.69884E+03</wgt>
<wgt id='6045'>0.70197E+03</wgt>
<wgt id='6046'>0.70419E+03</wgt>
<wgt id='6047'>0.70917E+03</wgt>
<wgt id='6048'>0.68915E+03</wgt>
<wgt id='6049'>0.70582E+03</wgt>
<wgt id='6050'>0.70067E+03</wgt>
<wgt id='7000'>0.67264E+03</wgt>
<wgt id='7001'>0.67215E+03</wgt>
<wgt id='7002'>0.67325E+03</wgt>
<wgt id='7003'>0.67479E+03</wgt>
<wgt id='7004'>0.67049E+03</wgt>
<wgt id='7005'>0.67459E+03</wgt>
<wgt id='7006'>0.67186E+03</wgt>
<wgt id='7007'>0.67128E+03</wgt>
<wgt id='7008'>0.67399E+03</wgt>
<wgt id='7009'>0.67321E+03</wgt>
<wgt id='7010'>0.67210E+03</wgt>
<wgt id='7011'>0.66962E+03</wgt>
<wgt id='7012'>0.67393E+03</wgt>
<wgt id='7013'>0.67264E+03</wgt>
<wgt id='7014'>0.67264E+03</wgt>
<wgt id='7015'>0.67198E+03</wgt>
<wgt id='7016'>0.67331E+03</wgt>
<wgt id='7017'>0.67397E+03</wgt>
<wgt id='7018'>0.67189E+03</wgt>
<wgt id='7019'>0.67238E+03</wgt>
<wgt id='7020'>0.67296E+03</wgt>
<wgt id='7021'>0.67152E+03</wgt>
<wgt id='7022'>0.67339E+03</wgt>
<wgt id='7023'>0.68084E+03</wgt>
<wgt id='7024'>0.66495E+03</wgt>
<wgt id='7025'>0.67535E+03</wgt>
<wgt id='7026'>0.66593E+03</wgt>
<wgt id='7027'>0.67415E+03</wgt>
<wgt id='7028'>0.67122E+03</wgt>
<wgt id='7029'>0.67200E+03</wgt>
<wgt id='7030'>0.67483E+03</wgt>
<wgt id='7031'>0.67083E+03</wgt>
<wgt id='7032'>0.67639E+03</wgt>
<wgt id='7033'>0.67266E+03</wgt>
<wgt id='7034'>0.67260E+03</wgt>
<wgt id='7035'>0.67117E+03</wgt>
<wgt id='7036'>0.67327E+03</wgt>
<wgt id='7037'>0.67264E+03</wgt>
<wgt id='7038'>0.67240E+03</wgt>
<wgt id='7039'>0.67109E+03</wgt>
<wgt id='7040'>0.67380E+03</wgt>
<wgt id='7041'>0.67211E+03</wgt>
<wgt id='7042'>0.67251E+03</wgt>
<wgt id='7043'>0.67329E+03</wgt>
<wgt id='7044'>0.66880E+03</wgt>
<wgt id='7045'>0.66302E+03</wgt>
<wgt id='7046'>0.67775E+03</wgt>
<wgt id='7047'>0.67560E+03</wgt>
<wgt id='7048'>0.67112E+03</wgt>
<wgt id='7049'>0.66843E+03</wgt>
<wgt id='7050'>0.67390E+03</wgt>
<wgt id='7060'>0.83428E+03</wgt>
<wgt id='8000'>0.67104E+03</wgt>
<wgt id='8001'>0.67094E+03</wgt>
<wgt id='8002'>0.67124E+03</wgt>
<wgt id='8003'>0.67108E+03</wgt>
<wgt id='8004'>0.67102E+03</wgt>
<wgt id='8005'>0.66971E+03</wgt>
<wgt id='8006'>0.67142E+03</wgt>
<wgt id='8007'>0.67182E+03</wgt>
<wgt id='8008'>0.67252E+03</wgt>
<wgt id='8009'>0.67386E+03</wgt>
<wgt id='8010'>0.67046E+03</wgt>
<wgt id='8011'>0.67101E+03</wgt>
<wgt id='8012'>0.66889E+03</wgt>
<wgt id='8013'>0.67004E+03</wgt>
<wgt id='8014'>0.67212E+03</wgt>
<wgt id='8015'>0.67066E+03</wgt>
<wgt id='8016'>0.67148E+03</wgt>
<wgt id='8017'>0.67128E+03</wgt>
<wgt id='8018'>0.67208E+03</wgt>
<wgt id='8019'>0.67216E+03</wgt>
<wgt id='8020'>0.66944E+03</wgt>
<wgt id='8021'>0.67081E+03</wgt>
<wgt id='8022'>0.66807E+03</wgt>
<wgt id='8023'>0.67120E+03</wgt>
<wgt id='8024'>0.67067E+03</wgt>
<wgt id='8025'>0.67230E+03</wgt>
<wgt id='8026'>0.67231E+03</wgt>
<wgt id='8027'>0.67077E+03</wgt>
<wgt id='8028'>0.67162E+03</wgt>
<wgt id='8029'>0.66673E+03</wgt>
<wgt id='8500'>0.70088E+03</wgt>
<wgt id='8501'>0.69862E+03</wgt>
<wgt id='8502'>0.70886E+03</wgt>
<wgt id='8503'>0.70464E+03</wgt>
<wgt id='8504'>0.69839E+03</wgt>
<wgt id='8505'>0.69732E+03</wgt>
<wgt id='8506'>0.70391E+03</wgt>
<wgt id='8507'>0.69504E+03</wgt>
<wgt id='8508'>0.69643E+03</wgt>
<wgt id='8509'>0.70248E+03</wgt>
<wgt id='8510'>0.71281E+03</wgt>
<wgt id='8511'>0.70060E+03</wgt>
<wgt id='8512'>0.69336E+03</wgt>
<wgt id='8513'>0.70256E+03</wgt>
<wgt id='8514'>0.69093E+03</wgt>
<wgt id='8515'>0.70355E+03</wgt>
<wgt id='8516'>0.70128E+03</wgt>
<wgt id='8517'>0.69773E+03</wgt>
<wgt id='8518'>0.69867E+03</wgt>
<wgt id='8519'>0.69904E+03</wgt>
<wgt id='8520'>0.69969E+03</wgt>
<wgt id='8521'>0.69743E+03</wgt>
<wgt id='8522'>0.70256E+03</wgt>
<wgt id='8523'>0.69893E+03</wgt>
<wgt id='8524'>0.70057E+03</wgt>
<wgt id='8525'>0.70082E+03</wgt>
<wgt id='8526'>0.70062E+03</wgt>
<wgt id='8527'>0.70089E+03</wgt>
<wgt id='8528'>0.69972E+03</wgt>
<wgt id='8529'>0.70014E+03</wgt>
<wgt id='8530'>0.70084E+03</wgt>
<wgt id='8531'>0.70072E+03</wgt>
<wgt id='8532'>0.70080E+03</wgt>
<wgt id='8533'>0.69989E+03</wgt>
<wgt id='8534'>0.70128E+03</wgt>
<wgt id='8535'>0.70229E+03</wgt>
<wgt id='8536'>0.70046E+03</wgt>
<wgt id='8537'>0.70105E+03</wgt>
<wgt id='8538'>0.70063E+03</wgt>
<wgt id='8539'>0.70120E+03</wgt>
<wgt id='8540'>0.70132E+03</wgt>
<wgt id='8541'>0.70146E+03</wgt>
<wgt id='8542'>0.70147E+03</wgt>
<wgt id='8543'>0.70020E+03</wgt>
<wgt id='8544'>0.70188E+03</wgt>
<wgt id='8545'>0.70131E+03</wgt>
<wgt id='8546'>0.70156E+03</wgt>
<wgt id='8547'>0.70031E+03</wgt>
<wgt id='8548'>0.70040E+03</wgt>
<wgt id='8549'>0.70099E+03</wgt>
<wgt id='8550'>0.70051E+03</wgt>
<wgt id='8551'>0.70026E+03</wgt>
<wgt id='8552'>0.70066E+03</wgt>
<wgt id='8553'>0.70018E+03</wgt>
<wgt id='8554'>0.70041E+03</wgt>
<wgt id='8555'>0.70094E+03</wgt>
<wgt id='8556'>0.70075E+03</wgt>
<wgt id='8557'>0.70091E+03</wgt>
<wgt id='8558'>0.70174E+03</wgt>
<wgt id='8559'>0.70063E+03</wgt>
<wgt id='8560'>0.70003E+03</wgt>
<wgt id='8561'>0.70105E+03</wgt>
<wgt id='8562'>0.70047E+03</wgt>
<wgt id='8563'>0.70087E+03</wgt>
<wgt id='8564'>0.70069E+03</wgt>
<wgt id='8565'>0.70100E+03</wgt>
<wgt id='8566'>0.70106E+03</wgt>
<wgt id='8567'>0.70086E+03</wgt>
<wgt id='8568'>0.70129E+03</wgt>
<wgt id='8569'>0.70115E+03</wgt>
<wgt id='8570'>0.70063E+03</wgt>
<wgt id='8571'>0.70043E+03</wgt>
<wgt id='8572'>0.70061E+03</wgt>
<wgt id='8573'>0.70060E+03</wgt>
<wgt id='8574'>0.70068E+03</wgt>
<wgt id='8575'>0.70076E+03</wgt>
<wgt id='8576'>0.70091E+03</wgt>
<wgt id='8577'>0.70062E+03</wgt>
<wgt id='8578'>0.70083E+03</wgt>
<wgt id='8579'>0.70138E+03</wgt>
<wgt id='8580'>0.70085E+03</wgt>
<wgt id='8581'>0.70114E+03</wgt>
<wgt id='8582'>0.70051E+03</wgt>
<wgt id='8583'>0.70107E+03</wgt>
<wgt id='8584'>0.70124E+03</wgt>
<wgt id='8585'>0.70103E+03</wgt>
<wgt id='8586'>0.70144E+03</wgt>
<wgt id='8587'>0.70094E+03</wgt>
<wgt id='8588'>0.70085E+03</wgt>
<wgt id='8589'>0.70087E+03</wgt>
<wgt id='8590'>0.70088E+03</wgt>
<wgt id='8591'>0.70063E+03</wgt>
<wgt id='8592'>0.70083E+03</wgt>
<wgt id='8593'>0.70070E+03</wgt>
<wgt id='8594'>0.70083E+03</wgt>
<wgt id='8595'>0.70085E+03</wgt>
<wgt id='8596'>0.70079E+03</wgt>
<wgt id='8597'>0.70102E+03</wgt>
<wgt id='8598'>0.70104E+03</wgt>
<wgt id='8599'>0.70095E+03</wgt>
<wgt id='8600'>0.70088E+03</wgt>
<wgt id='8601'>0.69034E+03</wgt>
<wgt id='8602'>0.71020E+03</wgt>
<wgt id='9000'>0.67581E+03</wgt>
<wgt id='9001'>0.67562E+03</wgt>
<wgt id='9002'>0.67934E+03</wgt>
<wgt id='9003'>0.67027E+03</wgt>
<wgt id='9004'>0.67504E+03</wgt>
<wgt id='9005'>0.68047E+03</wgt>
<wgt id='9006'>0.67267E+03</wgt>
<wgt id='9007'>0.67015E+03</wgt>
<wgt id='9008'>0.67417E+03</wgt>
<wgt id='9009'>0.67594E+03</wgt>
<wgt id='9010'>0.67154E+03</wgt>
<wgt id='9011'>0.68433E+03</wgt>
<wgt id='9012'>0.67665E+03</wgt>
<wgt id='9013'>0.66617E+03</wgt>
<wgt id='9014'>0.67173E+03</wgt>
<wgt id='9015'>0.67535E+03</wgt>
<wgt id='9016'>0.68495E+03</wgt>
<wgt id='9017'>0.67390E+03</wgt>
<wgt id='9018'>0.67456E+03</wgt>
<wgt id='9019'>0.67526E+03</wgt>
<wgt id='9020'>0.67931E+03</wgt>
<wgt id='9021'>0.67382E+03</wgt>
<wgt id='9022'>0.67709E+03</wgt>
<wgt id='9023'>0.67336E+03</wgt>
<wgt id='9024'>0.67497E+03</wgt>
<wgt id='9025'>0.67678E+03</wgt>
<wgt id='9026'>0.67583E+03</wgt>
<wgt id='9027'>0.67462E+03</wgt>
<wgt id='9028'>0.67624E+03</wgt>
<wgt id='9029'>0.67677E+03</wgt>
<wgt id='9030'>0.67562E+03</wgt>
<wgt id='9031'>0.67527E+03</wgt>
<wgt id='9032'>0.67651E+03</wgt>
<wgt id='9033'>0.67653E+03</wgt>
<wgt id='9034'>0.67567E+03</wgt>
<wgt id='9035'>0.67657E+03</wgt>
<wgt id='9036'>0.67587E+03</wgt>
<wgt id='9037'>0.67639E+03</wgt>
<wgt id='9038'>0.67610E+03</wgt>
<wgt id='9039'>0.67585E+03</wgt>
<wgt id='9040'>0.67529E+03</wgt>
<wgt id='9041'>0.67575E+03</wgt>
<wgt id='9042'>0.67588E+03</wgt>
<wgt id='9043'>0.67519E+03</wgt>
<wgt id='9044'>0.67608E+03</wgt>
<wgt id='9045'>0.67599E+03</wgt>
<wgt id='9046'>0.67492E+03</wgt>
<wgt id='9047'>0.67575E+03</wgt>
<wgt id='9048'>0.67613E+03</wgt>
<wgt id='9049'>0.67543E+03</wgt>
<wgt id='9050'>0.67597E+03</wgt>
<wgt id='9051'>0.67617E+03</wgt>
<wgt id='9052'>0.67609E+03</wgt>
<wgt id='9053'>0.67582E+03</wgt>
<wgt id='9054'>0.67545E+03</wgt>
<wgt id='9055'>0.67562E+03</wgt>
<wgt id='9056'>0.67645E+03</wgt>
<wgt id='9057'>0.67585E+03</wgt>
<wgt id='9058'>0.67511E+03</wgt>
<wgt id='9059'>0.67544E+03</wgt>
<wgt id='9060'>0.67551E+03</wgt>
<wgt id='9061'>0.67590E+03</wgt>
<wgt id='9062'>0.67593E+03</wgt>
<wgt id='9063'>0.67610E+03</wgt>
<wgt id='9064'>0.67572E+03</wgt>
<wgt id='9065'>0.67572E+03</wgt>
<wgt id='9066'>0.67585E+03</wgt>
<wgt id='9067'>0.67607E+03</wgt>
<wgt id='9068'>0.67605E+03</wgt>
<wgt id='9069'>0.67628E+03</wgt>
<wgt id='9070'>0.67570E+03</wgt>
<wgt id='9071'>0.67627E+03</wgt>
<wgt id='9072'>0.67628E+03</wgt>
<wgt id='9073'>0.67564E+03</wgt>
<wgt id='9074'>0.67594E+03</wgt>
<wgt id='9075'>0.67579E+03</wgt>
<wgt id='9076'>0.67572E+03</wgt>
<wgt id='9077'>0.67593E+03</wgt>
<wgt id='9078'>0.67583E+03</wgt>
<wgt id='9079'>0.67568E+03</wgt>
<wgt id='9080'>0.67643E+03</wgt>
<wgt id='9081'>0.67576E+03</wgt>
<wgt id='9082'>0.67603E+03</wgt>
<wgt id='9083'>0.67558E+03</wgt>
<wgt id='9084'>0.67555E+03</wgt>
<wgt id='9085'>0.67552E+03</wgt>
<wgt id='9086'>0.67596E+03</wgt>
<wgt id='9087'>0.67522E+03</wgt>
<wgt id='9088'>0.67558E+03</wgt>
<wgt id='9089'>0.67558E+03</wgt>
<wgt id='9090'>0.67591E+03</wgt>
<wgt id='9091'>0.67569E+03</wgt>
<wgt id='9092'>0.67575E+03</wgt>
<wgt id='9093'>0.67568E+03</wgt>
<wgt id='9094'>0.67571E+03</wgt>
<wgt id='9095'>0.67589E+03</wgt>
<wgt id='9096'>0.67568E+03</wgt>
<wgt id='9097'>0.67587E+03</wgt>
<wgt id='9098'>0.67577E+03</wgt>
<wgt id='9099'>0.67564E+03</wgt>
<wgt id='9100'>0.67582E+03</wgt>
<wgt id='9101'>0.66688E+03</wgt>
<wgt id='9102'>0.68363E+03</wgt>
<wgt id='10000'>0.70086E+03</wgt>
<wgt id='10001'>0.70565E+03</wgt>
<wgt id='10002'>0.69618E+03</wgt>
<wgt id='10003'>0.70049E+03</wgt>
<wgt id='10004'>0.69125E+03</wgt>
<wgt id='10005'>0.71597E+03</wgt>
<wgt id='10006'>0.69830E+03</wgt>
<wgt id='10007'>0.70061E+03</wgt>
<wgt id='10008'>0.70202E+03</wgt>
<wgt id='10009'>0.69847E+03</wgt>
<wgt id='10010'>0.70259E+03</wgt>
<wgt id='10011'>0.69779E+03</wgt>
<wgt id='10012'>0.70125E+03</wgt>
<wgt id='10013'>0.70161E+03</wgt>
<wgt id='10014'>0.69960E+03</wgt>
<wgt id='10015'>0.70034E+03</wgt>
<wgt id='10016'>0.69844E+03</wgt>
<wgt id='10017'>0.70645E+03</wgt>
<wgt id='10018'>0.70157E+03</wgt>
<wgt id='10019'>0.69967E+03</wgt>
<wgt id='10020'>0.69962E+03</wgt>
<wgt id='10021'>0.70036E+03</wgt>
<wgt id='10022'>0.70065E+03</wgt>
<wgt id='10023'>0.70095E+03</wgt>
<wgt id='10024'>0.69999E+03</wgt>
<wgt id='10025'>0.70042E+03</wgt>
<wgt id='10026'>0.70297E+03</wgt>
<wgt id='10027'>0.70234E+03</wgt>
<wgt id='10028'>0.70754E+03</wgt>
<wgt id='10029'>0.70121E+03</wgt>
<wgt id='10030'>0.70065E+03</wgt>
<wgt id='10031'>0.69034E+03</wgt>
<wgt id='10032'>0.71020E+03</wgt>
<wgt id='11000'>0.67579E+03</wgt>
<wgt id='11001'>0.66793E+03</wgt>
<wgt id='11002'>0.67966E+03</wgt>
<wgt id='11003'>0.67534E+03</wgt>
<wgt id='11004'>0.68006E+03</wgt>
<wgt id='11005'>0.66981E+03</wgt>
<wgt id='11006'>0.67625E+03</wgt>
<wgt id='11007'>0.67412E+03</wgt>
<wgt id='11008'>0.67517E+03</wgt>
<wgt id='11009'>0.67293E+03</wgt>
<wgt id='11010'>0.67015E+03</wgt>
<wgt id='11011'>0.67269E+03</wgt>
<wgt id='11012'>0.67648E+03</wgt>
<wgt id='11013'>0.67753E+03</wgt>
<wgt id='11014'>0.67389E+03</wgt>
<wgt id='11015'>0.67515E+03</wgt>
<wgt id='11016'>0.67500E+03</wgt>
<wgt id='11017'>0.68131E+03</wgt>
<wgt id='11018'>0.67517E+03</wgt>
<wgt id='11019'>0.67520E+03</wgt>
<wgt id='11020'>0.67833E+03</wgt>
<wgt id='11021'>0.67736E+03</wgt>
<wgt id='11022'>0.68927E+03</wgt>
<wgt id='11023'>0.67627E+03</wgt>
<wgt id='11024'>0.67626E+03</wgt>
<wgt id='11025'>0.67635E+03</wgt>
<wgt id='11026'>0.67587E+03</wgt>
<wgt id='11027'>0.67558E+03</wgt>
<wgt id='11028'>0.67628E+03</wgt>
<wgt id='11029'>0.67618E+03</wgt>
<wgt id='11030'>0.67570E+03</wgt>
<wgt id='11031'>0.66688E+03</wgt>
<wgt id='11032'>0.68363E+03</wgt>
<wgt id='12000'>0.70680E+03</wgt>
<wgt id='12001'>0.70578E+03</wgt>
<wgt id='12002'>0.70781E+03</wgt>
<wgt id='12003'>0.70758E+03</wgt>
<wgt id='12004'>0.70602E+03</wgt>
<wgt id='12005'>0.70812E+03</wgt>
<wgt id='12006'>0.70548E+03</wgt>
<wgt id='12007'>0.71040E+03</wgt>
<wgt id='12008'>0.70328E+03</wgt>
<wgt id='12009'>0.70670E+03</wgt>
<wgt id='12010'>0.70691E+03</wgt>
<wgt id='12011'>0.70332E+03</wgt>
<wgt id='12012'>0.71076E+03</wgt>
<wgt id='12013'>0.70399E+03</wgt>
<wgt id='12014'>0.70965E+03</wgt>
<wgt id='12015'>0.70677E+03</wgt>
<wgt id='12016'>0.70532E+03</wgt>
<wgt id='12017'>0.71021E+03</wgt>
<wgt id='12018'>0.70448E+03</wgt>
<wgt id='12019'>0.70476E+03</wgt>
<wgt id='12020'>0.70825E+03</wgt>
<wgt id='12021'>0.70873E+03</wgt>
<wgt id='12022'>0.70461E+03</wgt>
<wgt id='12023'>0.70256E+03</wgt>
<wgt id='12024'>0.70879E+03</wgt>
<wgt id='12025'>0.70724E+03</wgt>
<wgt id='12026'>0.70696E+03</wgt>
<wgt id='12027'>0.71131E+03</wgt>
<wgt id='12028'>0.70290E+03</wgt>
<wgt id='12050'>0.70680E+03</wgt>
<wgt id='12051'>0.70733E+03</wgt>
<wgt id='12052'>0.70368E+03</wgt>
<wgt id='12053'>0.70732E+03</wgt>
<wgt id='12054'>0.70445E+03</wgt>
<wgt id='12055'>0.70811E+03</wgt>
<wgt id='12056'>0.70367E+03</wgt>
<wgt id='12057'>0.70424E+03</wgt>
<wgt id='12058'>0.70789E+03</wgt>
<wgt id='12059'>0.70781E+03</wgt>
<wgt id='12060'>0.70441E+03</wgt>
<wgt id='12061'>0.70517E+03</wgt>
<wgt id='12062'>0.70422E+03</wgt>
<wgt id='12063'>0.69812E+03</wgt>
<wgt id='13000'>0.66432E+03</wgt>
<wgt id='13001'>0.66207E+03</wgt>
<wgt id='13002'>0.66342E+03</wgt>
<wgt id='13003'>0.66272E+03</wgt>
<wgt id='13004'>0.66278E+03</wgt>
<wgt id='13005'>0.66390E+03</wgt>
<wgt id='13006'>0.66160E+03</wgt>
<wgt id='13007'>0.66684E+03</wgt>
<wgt id='13008'>0.65877E+03</wgt>
<wgt id='13009'>0.66077E+03</wgt>
<wgt id='13010'>0.66481E+03</wgt>
<wgt id='13011'>0.66498E+03</wgt>
<wgt id='13012'>0.66053E+03</wgt>
<wgt id='13013'>0.66132E+03</wgt>
<wgt id='13014'>0.66411E+03</wgt>
<wgt id='13015'>0.66134E+03</wgt>
<wgt id='13016'>0.66231E+03</wgt>
<wgt id='13017'>0.66306E+03</wgt>
<wgt id='13018'>0.66242E+03</wgt>
<wgt id='13019'>0.66096E+03</wgt>
<wgt id='13020'>0.66458E+03</wgt>
<wgt id='13021'>0.66050E+03</wgt>
<wgt id='13022'>0.66464E+03</wgt>
<wgt id='13023'>0.66196E+03</wgt>
<wgt id='13024'>0.66361E+03</wgt>
<wgt id='13025'>0.65746E+03</wgt>
<wgt id='13026'>0.66712E+03</wgt>
<wgt id='13027'>0.66105E+03</wgt>
<wgt id='13028'>0.66494E+03</wgt>
<wgt id='13050'>0.66432E+03</wgt>
<wgt id='13051'>0.66454E+03</wgt>
<wgt id='13052'>0.65871E+03</wgt>
<wgt id='13053'>0.66429E+03</wgt>
<wgt id='13054'>0.66126E+03</wgt>
<wgt id='13055'>0.65947E+03</wgt>
<wgt id='13056'>0.65814E+03</wgt>
<wgt id='13057'>0.66124E+03</wgt>
<wgt id='13058'>0.66598E+03</wgt>
<wgt id='13059'>0.66325E+03</wgt>
<wgt id='13060'>0.65655E+03</wgt>
<wgt id='13061'>0.66069E+03</wgt>
<wgt id='13062'>0.66739E+03</wgt>
<wgt id='13063'>0.66086E+03</wgt>
<wgt id='14000'>0.68013E+03</wgt>
<wgt id='14001'>0.68004E+03</wgt>
<wgt id='14002'>0.67995E+03</wgt>
<wgt id='14003'>0.67986E+03</wgt>
<wgt id='14004'>0.67977E+03</wgt>
<wgt id='14005'>0.67968E+03</wgt>
<wgt id='14006'>0.67959E+03</wgt>
<wgt id='14007'>0.67950E+03</wgt>
<wgt id='14008'>0.67941E+03</wgt>
<wgt id='14009'>0.67932E+03</wgt>
<wgt id='14010'>0.67923E+03</wgt>
<wgt id='14011'>0.67914E+03</wgt>
<wgt id='14012'>0.67905E+03</wgt>
<wgt id='14013'>0.67896E+03</wgt>
<wgt id='14014'>0.67888E+03</wgt>
<wgt id='14015'>0.67878E+03</wgt>
<wgt id='14016'>0.67870E+03</wgt>
<wgt id='14017'>0.67861E+03</wgt>
<wgt id='14018'>0.67851E+03</wgt>
<wgt id='14019'>0.67843E+03</wgt>
<wgt id='14020'>0.67834E+03</wgt>
<wgt id='14021'>0.67825E+03</wgt>
<wgt id='14022'>0.67816E+03</wgt>
<wgt id='14023'>0.67807E+03</wgt>
<wgt id='14024'>0.67798E+03</wgt>
<wgt id='14025'>0.67789E+03</wgt>
<wgt id='14026'>0.67780E+03</wgt>
<wgt id='14027'>0.67771E+03</wgt>
<wgt id='14028'>0.67762E+03</wgt>
<wgt id='14029'>0.67753E+03</wgt>
<wgt id='14030'>0.67744E+03</wgt>
<wgt id='15000'>0.66759E+03</wgt>
<wgt id='15001'>0.66731E+03</wgt>
<wgt id='15002'>0.67105E+03</wgt>
<wgt id='15003'>0.66213E+03</wgt>
<wgt id='15004'>0.66682E+03</wgt>
<wgt id='15005'>0.67220E+03</wgt>
<wgt id='15006'>0.66457E+03</wgt>
<wgt id='15007'>0.66207E+03</wgt>
<wgt id='15008'>0.66598E+03</wgt>
<wgt id='15009'>0.66773E+03</wgt>
<wgt id='15010'>0.66336E+03</wgt>
<wgt id='15011'>0.67609E+03</wgt>
<wgt id='15012'>0.66845E+03</wgt>
<wgt id='15013'>0.65813E+03</wgt>
<wgt id='15014'>0.66354E+03</wgt>
<wgt id='15015'>0.66698E+03</wgt>
<wgt id='15016'>0.67670E+03</wgt>
<wgt id='15017'>0.66565E+03</wgt>
<wgt id='15018'>0.66635E+03</wgt>
<wgt id='15019'>0.66713E+03</wgt>
<wgt id='15020'>0.67113E+03</wgt>
<wgt id='15021'>0.66557E+03</wgt>
<wgt id='15022'>0.66886E+03</wgt>
<wgt id='15023'>0.66515E+03</wgt>
<wgt id='15024'>0.66669E+03</wgt>
<wgt id='15025'>0.66850E+03</wgt>
<wgt id='15026'>0.66755E+03</wgt>
<wgt id='15027'>0.66649E+03</wgt>
<wgt id='15028'>0.66805E+03</wgt>
<wgt id='15029'>0.66851E+03</wgt>
<wgt id='15030'>0.66738E+03</wgt>
<wgt id='15031'>0.66712E+03</wgt>
<wgt id='15032'>0.66825E+03</wgt>
<wgt id='15033'>0.66829E+03</wgt>
<wgt id='15034'>0.66745E+03</wgt>
<wgt id='15035'>0.66833E+03</wgt>
<wgt id='15036'>0.66765E+03</wgt>
<wgt id='15037'>0.66817E+03</wgt>
<wgt id='15038'>0.66786E+03</wgt>
<wgt id='15039'>0.66760E+03</wgt>
<wgt id='15040'>0.66707E+03</wgt>
<wgt id='15041'>0.66751E+03</wgt>
<wgt id='15042'>0.66765E+03</wgt>
<wgt id='15043'>0.66701E+03</wgt>
<wgt id='15044'>0.66785E+03</wgt>
<wgt id='15045'>0.66776E+03</wgt>
<wgt id='15046'>0.66672E+03</wgt>
<wgt id='15047'>0.66752E+03</wgt>
<wgt id='15048'>0.66792E+03</wgt>
<wgt id='15049'>0.66720E+03</wgt>
<wgt id='15050'>0.66775E+03</wgt>
<wgt id='15051'>0.66794E+03</wgt>
<wgt id='15052'>0.66786E+03</wgt>
<wgt id='15053'>0.66760E+03</wgt>
<wgt id='15054'>0.66724E+03</wgt>
<wgt id='15055'>0.66741E+03</wgt>
<wgt id='15056'>0.66820E+03</wgt>
<wgt id='15057'>0.66763E+03</wgt>
<wgt id='15058'>0.66692E+03</wgt>
<wgt id='15059'>0.66723E+03</wgt>
<wgt id='15060'>0.66730E+03</wgt>
<wgt id='15061'>0.66768E+03</wgt>
<wgt id='15062'>0.66770E+03</wgt>
<wgt id='15063'>0.66787E+03</wgt>
<wgt id='15064'>0.66751E+03</wgt>
<wgt id='15065'>0.66750E+03</wgt>
<wgt id='15066'>0.66762E+03</wgt>
<wgt id='15067'>0.66783E+03</wgt>
<wgt id='15068'>0.66783E+03</wgt>
<wgt id='15069'>0.66804E+03</wgt>
<wgt id='15070'>0.66748E+03</wgt>
<wgt id='15071'>0.66805E+03</wgt>
<wgt id='15072'>0.66805E+03</wgt>
<wgt id='15073'>0.66741E+03</wgt>
<wgt id='15074'>0.66772E+03</wgt>
<wgt id='15075'>0.66757E+03</wgt>
<wgt id='15076'>0.66752E+03</wgt>
<wgt id='15077'>0.66772E+03</wgt>
<wgt id='15078'>0.66762E+03</wgt>
<wgt id='15079'>0.66745E+03</wgt>
<wgt id='15080'>0.66819E+03</wgt>
<wgt id='15081'>0.66755E+03</wgt>
<wgt id='15082'>0.66781E+03</wgt>
<wgt id='15083'>0.66736E+03</wgt>
<wgt id='15084'>0.66733E+03</wgt>
<wgt id='15085'>0.66731E+03</wgt>
<wgt id='15086'>0.66776E+03</wgt>
<wgt id='15087'>0.66700E+03</wgt>
<wgt id='15088'>0.66735E+03</wgt>
<wgt id='15089'>0.66735E+03</wgt>
<wgt id='15090'>0.66768E+03</wgt>
<wgt id='15091'>0.66746E+03</wgt>
<wgt id='15092'>0.66753E+03</wgt>
<wgt id='15093'>0.66746E+03</wgt>
<wgt id='15094'>0.66747E+03</wgt>
<wgt id='15095'>0.66767E+03</wgt>
<wgt id='15096'>0.66747E+03</wgt>
<wgt id='15097'>0.66765E+03</wgt>
<wgt id='15098'>0.66755E+03</wgt>
<wgt id='15099'>0.66743E+03</wgt>
<wgt id='15100'>0.66760E+03</wgt>
<wgt id='15101'>0.66758E+03</wgt>
<wgt id='15102'>0.66754E+03</wgt>
<wgt id='15103'>0.66760E+03</wgt>
<wgt id='15104'>0.66760E+03</wgt>
<wgt id='15105'>0.66762E+03</wgt>
<wgt id='15106'>0.66760E+03</wgt>
<wgt id='15107'>0.66756E+03</wgt>
<wgt id='1500'>0.71706E+03</wgt>
<wgt id='1501'>0.67891E+03</wgt>
<wgt id='1502'>0.70970E+03</wgt>
<wgt id='1503'>0.71524E+03</wgt>
<wgt id='1504'>0.71223E+03</wgt>
<wgt id='1505'>0.63983E+03</wgt>
<wgt id='1506'>0.73375E+03</wgt>
<wgt id='1507'>0.71829E+03</wgt>
<wgt id='1508'>0.73232E+03</wgt>
<wgt id='1509'>0.72461E+03</wgt>
<wgt id='1510'>0.67957E+03</wgt>
<wgt id='1511'>0.66807E+03</wgt>
<wgt id='1512'>0.73260E+03</wgt>
<wgt id='1513'>0.73361E+03</wgt>
<wgt id='1514'>0.69198E+03</wgt>
<wgt id='1515'>0.72904E+03</wgt>
<wgt id='1516'>0.72722E+03</wgt>
<wgt id='1517'>0.71357E+03</wgt>
<wgt id='1518'>0.72333E+03</wgt>
<wgt id='1519'>0.73658E+03</wgt>
<wgt id='1520'>0.74318E+03</wgt>
<wgt id='1521'>0.72151E+03</wgt>
<wgt id='1522'>0.69800E+03</wgt>
<wgt id='1523'>0.76935E+03</wgt>
<wgt id='1524'>0.71181E+03</wgt>
<wgt id='1525'>0.71962E+03</wgt>
<wgt id='1526'>0.71741E+03</wgt>
<wgt id='1527'>0.71724E+03</wgt>
<wgt id='1528'>0.70799E+03</wgt>
<wgt id='1529'>0.71855E+03</wgt>
<wgt id='1530'>0.73528E+03</wgt>
<wgt id='1531'>0.70922E+03</wgt>
<wgt id='1532'>0.69208E+03</wgt>
<wgt id='1533'>0.71004E+03</wgt>
<wgt id='1534'>0.71366E+03</wgt>
<wgt id='1535'>0.73436E+03</wgt>
<wgt id='1536'>0.73763E+03</wgt>
<wgt id='1537'>0.73044E+03</wgt>
<wgt id='1538'>0.74067E+03</wgt>
<wgt id='1539'>0.70524E+03</wgt>
<wgt id='1540'>0.72013E+03</wgt>
<wgt id='1541'>0.72933E+03</wgt>
<wgt id='1542'>0.71306E+03</wgt>
<wgt id='1543'>0.71565E+03</wgt>
<wgt id='1544'>0.70813E+03</wgt>
<wgt id='1545'>0.70390E+03</wgt>
<wgt id='1546'>0.73426E+03</wgt>
<wgt id='1547'>0.71176E+03</wgt>
<wgt id='1548'>0.71618E+03</wgt>
<wgt id='1549'>0.70997E+03</wgt>
<wgt id='1550'>0.71277E+03</wgt>
<wgt id='1551'>0.71269E+03</wgt>
<wgt id='1552'>0.70218E+03</wgt>
<wgt id='1553'>0.72139E+03</wgt>
<wgt id='1554'>0.72364E+03</wgt>
<wgt id='1555'>0.71125E+03</wgt>
<wgt id='1556'>0.70419E+03</wgt>
<wgt id='1557'>0.74411E+03</wgt>
<wgt id='1558'>0.70257E+03</wgt>
<wgt id='1559'>0.72522E+03</wgt>
<wgt id='1560'>0.71797E+03</wgt>
<wgt id='1561'>0.72329E+03</wgt>
<wgt id='1562'>0.71628E+03</wgt>
<wgt id='1563'>0.72577E+03</wgt>
<wgt id='1564'>0.69818E+03</wgt>
<wgt id='1565'>0.73132E+03</wgt>
<wgt id='1566'>0.71135E+03</wgt>
<wgt id='1567'>0.76953E+03</wgt>
<wgt id='1568'>0.70711E+03</wgt>
<wgt id='1569'>0.69566E+03</wgt>
<wgt id='1570'>0.70723E+03</wgt>
<wgt id='1571'>0.72136E+03</wgt>
<wgt id='1572'>0.72166E+03</wgt>
<wgt id='1573'>0.67823E+03</wgt>
<wgt id='1574'>0.71972E+03</wgt>
<wgt id='1575'>0.71550E+03</wgt>
<wgt id='1576'>0.68868E+03</wgt>
<wgt id='1577'>0.71211E+03</wgt>
<wgt id='1578'>0.73978E+03</wgt>
<wgt id='1579'>0.71612E+03</wgt>
<wgt id='1580'>0.71436E+03</wgt>
<wgt id='1581'>0.71724E+03</wgt>
<wgt id='1582'>0.70444E+03</wgt>
<wgt id='1583'>0.74347E+03</wgt>
<wgt id='1584'>0.71724E+03</wgt>
<wgt id='1585'>0.69916E+03</wgt>
<wgt id='1586'>0.70897E+03</wgt>
<wgt id='1587'>0.70971E+03</wgt>
<wgt id='1588'>0.71880E+03</wgt>
<wgt id='1589'>0.75312E+03</wgt>
<wgt id='1590'>0.70512E+03</wgt>
<wgt id='1591'>0.71837E+03</wgt>
<wgt id='1592'>0.72658E+03</wgt>
<wgt id='1593'>0.72099E+03</wgt>
<wgt id='1594'>0.72479E+03</wgt>
<wgt id='1595'>0.69869E+03</wgt>
<wgt id='1596'>0.73455E+03</wgt>
<wgt id='1597'>0.72071E+03</wgt>
<wgt id='1598'>0.74185E+03</wgt>
<wgt id='1599'>0.74284E+03</wgt>
<wgt id='1600'>0.72459E+03</wgt>
<wgt id='1601'>0.70968E+03</wgt>
<wgt id='1602'>0.72234E+03</wgt>
<wgt id='1700'>0.68474E+03</wgt>
<wgt id='1800'>0.69932E+03</wgt>
<wgt id='1850'>0.81429E+03</wgt>
<wgt id='1900'>0.73957E+03</wgt>
<wgt id='1950'>0.78617E+03</wgt>
</rwgt>
</event>
<event>
     13 322222  6.87070E+02  5.31173E+01 -1.00000E+00  1.35628E-01
      21    -1     0     0   504   505  0.000000000E+00  0.000000000E+00  2.684084695E+02  2.684084695E+02  0.000000000E+00  0.00000E+00  9.000E+00
      21    -1     0     0   502   503  0.000000000E+00  0.000000000E+00 -1.470748185E+03  1.470748185E+03  0.000000000E+00  0.00000E+00  9.000E+00
       6     2     1     2   502     0 -1.969712503E+01  7.291379883E+00 -7.005490341E+02  7.210129293E+02  1.692617915E+02  0.00000E+00  9.000E+00
      -6     2     1     2     0   505 -5.949401557E+00  3.922423662E+01  2.267488778E+02  2.876703607E+02  1.725260755E+02  0.00000E+00  9.000E+00
      21     1     1     2   504   503  2.564652659E+01 -4.651561650E+01 -7.285395590E+02  7.304733643E+02  1.525878906E-05  0.00000E+00  9.000E+00
      24     2     3     3     0     0  3.310549133E+01 -2.151901285E+01 -2.273752107E+02  2.440069941E+02  7.925203635E+01  0.00000E+00  9.000E+00
       5     1     3     3   502     0 -5.280261636E+01  2.881039273E+01 -4.731738234E+02  4.770059352E+02  4.800000000E+00  0.00000E+00 -1.000E+00
     -24     2     4     4     0     0  7.529319068E+00  4.385143718E+01  4.009656915E+01  1.004132882E+02  8.059438190E+01  0.00000E+00  9.000E+00
      -5     1     4     4     0   505 -1.347872063E+01 -4.627200566E+00  1.866523086E+02  1.872570725E+02  4.800000000E+00  0.00000E+00  1.000E+00
      -1     1     6     6     0   506  8.702945117E-01 -4.713971565E+01 -1.298832856E+02  1.381759317E+02  1.000000000E-01  0.00000E+00  1.000E+00
       2     1     6     6   506     0  3.223519682E+01  2.562070280E+01 -9.749192506E+01  1.058310624E+02  1.000000000E-01  0.00000E+00 -1.000E+00
       3     1     8     8   510     0 -1.150949181E+01 -1.843401877E+00  4.876157125E+01  5.013578924E+01  2.000000000E-01  0.00000E+00 -1.000E+00
      -4     1     8     8     0   510  1.903881087E+01  4.569483906E+01 -8.665002108E+00  5.027749892E+01  1.500000000E+00  0.00000E+00  1.000E+00
#rwgt            1           1   1866.6127052847696                2        4540           0
<rwgt>
<wgt id='1001'>0.68707E+03</wgt>
<wgt id='1002'>0.58344E+03</wgt>
<wgt id='1003'>0.81043E+03</wgt>
<wgt id='1004'>0.63001E+03</wgt>
<wgt id='1005'>0.53992E+03</wgt>
<wgt id='1006'>0.73710E+03</wgt>
<wgt id='1007'>0.73952E+03</wgt>
<wgt id='1008'>0.61929E+03</wgt>
<wgt id='1009'>0.88290E+03</wgt>
<wgt id='2000'>0.68707E+03</wgt>
<wgt id='2001'>0.68669E+03</wgt>
<wgt id='2002'>0.68674E+03</wgt>
<wgt id='2003'>0.68620E+03</wgt>
<wgt id='2004'>0.68921E+03</wgt>
<wgt id='2005'>0.68721E+03</wgt>
<wgt id='2006'>0.68511E+03</wgt>
<wgt id='2007'>0.68717E+03</wgt>
<wgt id='2008'>0.68586E+03</wgt>
<wgt id='2009'>0.68781E+03</wgt>
<wgt id='2010'>0.68664E+03</wgt>
<wgt id='2011'>0.68416E+03</wgt>
<wgt id='2012'>0.68559E+03</wgt>
<wgt id='2013'>0.68347E+03</wgt>
<wgt id='2014'>0.68593E+03</wgt>
<wgt id='2015'>0.68656E+03</wgt>
<wgt id='2016'>0.68830E+03</wgt>
<wgt id='2017'>0.68636E+03</wgt>
<wgt id='2018'>0.68525E+03</wgt>
<wgt id='2019'>0.68763E+03</wgt>
<wgt id='2020'>0.68588E+03</wgt>
<wgt id='2021'>0.68794E+03</wgt>
<wgt id='2022'>0.68537E+03</wgt>
<wgt id='2023'>0.68800E+03</wgt>
<wgt id='2024'>0.68509E+03</wgt>
<wgt id='2025'>0.68669E+03</wgt>
<wgt id='2026'>0.68836E+03</wgt>
<wgt id='2027'>0.68513E+03</wgt>
<wgt id='2028'>0.68547E+03</wgt>
<wgt id='2029'>0.69379E+03</wgt>
<wgt id='2030'>0.68806E+03</wgt>
<wgt id='2031'>0.68763E+03</wgt>
<wgt id='2032'>0.68861E+03</wgt>
<wgt id='2033'>0.68812E+03</wgt>
<wgt id='2034'>0.68726E+03</wgt>
<wgt id='2035'>0.68593E+03</wgt>
<wgt id='2036'>0.68602E+03</wgt>
<wgt id='2037'>0.68754E+03</wgt>
<wgt id='2038'>0.68698E+03</wgt>
<wgt id='2039'>0.68825E+03</wgt>
<wgt id='2040'>0.68768E+03</wgt>
<wgt id='2041'>0.68602E+03</wgt>
<wgt id='2042'>0.68333E+03</wgt>
<wgt id='2043'>0.68842E+03</wgt>
<wgt id='2044'>0.68825E+03</wgt>
<wgt id='2045'>0.68639E+03</wgt>
<wgt id='2046'>0.68935E+03</wgt>
<wgt id='2047'>0.68937E+03</wgt>
<wgt id='2048'>0.68690E+03</wgt>
<wgt id='2049'>0.68717E+03</wgt>
<wgt id='2050'>0.68840E+03</wgt>
<wgt id='2051'>0.68812E+03</wgt>
<wgt id='2052'>0.68645E+03</wgt>
<wgt id='2053'>0.68698E+03</wgt>
<wgt id='2054'>0.68715E+03</wgt>
<wgt id='2055'>0.68790E+03</wgt>
<wgt id='2056'>0.68708E+03</wgt>
<wgt id='2057'>0.68642E+03</wgt>
<wgt id='2058'>0.68730E+03</wgt>
<wgt id='2059'>0.68701E+03</wgt>
<wgt id='2060'>0.68757E+03</wgt>
<wgt id='2061'>0.68661E+03</wgt>
<wgt id='2062'>0.68703E+03</wgt>
<wgt id='2063'>0.68740E+03</wgt>
<wgt id='2064'>0.68625E+03</wgt>
<wgt id='2065'>0.68715E+03</wgt>
<wgt id='2066'>0.68649E+03</wgt>
<wgt id='2067'>0.68728E+03</wgt>
<wgt id='2068'>0.68761E+03</wgt>
<wgt id='2069'>0.68788E+03</wgt>
<wgt id='2070'>0.68685E+03</wgt>
<wgt id='2071'>0.68636E+03</wgt>
<wgt id='2072'>0.68703E+03</wgt>
<wgt id='2073'>0.68705E+03</wgt>
<wgt id='2074'>0.68725E+03</wgt>
<wgt id='2075'>0.68668E+03</wgt>
<wgt id='2076'>0.68729E+03</wgt>
<wgt id='2077'>0.68642E+03</wgt>
<wgt id='2078'>0.68723E+03</wgt>
<wgt id='2079'>0.68742E+03</wgt>
<wgt id='2080'>0.68700E+03</wgt>
<wgt id='2081'>0.68734E+03</wgt>
<wgt id='2082'>0.68735E+03</wgt>
<wgt id='2083'>0.68702E+03</wgt>
<wgt id='2084'>0.68723E+03</wgt>
<wgt id='2085'>0.68679E+03</wgt>
<wgt id='2086'>0.68689E+03</wgt>
<wgt id='2087'>0.68718E+03</wgt>
<wgt id='2088'>0.68701E+03</wgt>
<wgt id='2089'>0.68687E+03</wgt>
<wgt id='2090'>0.68685E+03</wgt>
<wgt id='2091'>0.68713E+03</wgt>
<wgt id='2092'>0.68706E+03</wgt>
<wgt id='2093'>0.68665E+03</wgt>
<wgt id='2094'>0.68727E+03</wgt>
<wgt id='2095'>0.68717E+03</wgt>
<wgt id='2096'>0.68704E+03</wgt>
<wgt id='2097'>0.68688E+03</wgt>
<wgt id='2098'>0.68699E+03</wgt>
<wgt id='2099'>0.68708E+03</wgt>
<wgt id='2100'>0.68708E+03</wgt>
<wgt id='2101'>0.67055E+03</wgt>
<wgt id='2102'>0.70658E+03</wgt>
<wgt id='2104'>0.59814E+03</wgt>
<wgt id='2105'>0.61680E+03</wgt>
<wgt id='2106'>0.63520E+03</wgt>
<wgt id='2107'>0.64941E+03</wgt>
<wgt id='2108'>0.67779E+03</wgt>
<wgt id='2109'>0.69796E+03</wgt>
<wgt id='2110'>0.72420E+03</wgt>
<wgt id='2111'>0.74390E+03</wgt>
<wgt id='3000'>0.72532E+03</wgt>
<wgt id='3001'>0.72545E+03</wgt>
<wgt id='3002'>0.72596E+03</wgt>
<wgt id='3003'>0.72387E+03</wgt>
<wgt id='3004'>0.72742E+03</wgt>
<wgt id='3005'>0.72466E+03</wgt>
<wgt id='3006'>0.72436E+03</wgt>
<wgt id='3007'>0.72550E+03</wgt>
<wgt id='3008'>0.72567E+03</wgt>
<wgt id='3009'>0.72655E+03</wgt>
<wgt id='3010'>0.72426E+03</wgt>
<wgt id='3011'>0.72357E+03</wgt>
<wgt id='3012'>0.72469E+03</wgt>
<wgt id='3013'>0.72812E+03</wgt>
<wgt id='3014'>0.72421E+03</wgt>
<wgt id='3015'>0.72306E+03</wgt>
<wgt id='3016'>0.72595E+03</wgt>
<wgt id='3017'>0.72419E+03</wgt>
<wgt id='3018'>0.72598E+03</wgt>
<wgt id='3019'>0.72648E+03</wgt>
<wgt id='3020'>0.72603E+03</wgt>
<wgt id='3021'>0.72629E+03</wgt>
<wgt id='3022'>0.72501E+03</wgt>
<wgt id='3023'>0.72472E+03</wgt>
<wgt id='3024'>0.72455E+03</wgt>
<wgt id='3025'>0.72586E+03</wgt>
<wgt id='3026'>0.72464E+03</wgt>
<wgt id='3027'>0.72605E+03</wgt>
<wgt id='3028'>0.72403E+03</wgt>
<wgt id='3029'>0.72312E+03</wgt>
<wgt id='3030'>0.73037E+03</wgt>
<wgt id='3031'>0.72788E+03</wgt>
<wgt id='3032'>0.72416E+03</wgt>
<wgt id='3033'>0.72486E+03</wgt>
<wgt id='3034'>0.72520E+03</wgt>
<wgt id='3035'>0.72477E+03</wgt>
<wgt id='3036'>0.72653E+03</wgt>
<wgt id='3037'>0.72719E+03</wgt>
<wgt id='3038'>0.72594E+03</wgt>
<wgt id='3039'>0.72704E+03</wgt>
<wgt id='3040'>0.72729E+03</wgt>
<wgt id='3041'>0.72567E+03</wgt>
<wgt id='3042'>0.72223E+03</wgt>
<wgt id='3043'>0.72242E+03</wgt>
<wgt id='3044'>0.72657E+03</wgt>
<wgt id='3045'>0.72668E+03</wgt>
<wgt id='3046'>0.72720E+03</wgt>
<wgt id='3047'>0.72464E+03</wgt>
<wgt id='3048'>0.72707E+03</wgt>
<wgt id='3049'>0.72491E+03</wgt>
<wgt id='3050'>0.72398E+03</wgt>
<wgt id='3051'>0.72831E+03</wgt>
<wgt id='3052'>0.72502E+03</wgt>
<wgt id='3053'>0.72389E+03</wgt>
<wgt id='3054'>0.72496E+03</wgt>
<wgt id='3055'>0.72546E+03</wgt>
<wgt id='3056'>0.72549E+03</wgt>
<wgt id='3057'>0.72480E+03</wgt>
<wgt id='3058'>0.72507E+03</wgt>
<wgt id='3059'>0.72503E+03</wgt>
<wgt id='3060'>0.72529E+03</wgt>
<wgt id='3061'>0.72507E+03</wgt>
<wgt id='3062'>0.72544E+03</wgt>
<wgt id='3063'>0.72552E+03</wgt>
<wgt id='3064'>0.72501E+03</wgt>
<wgt id='3065'>0.72557E+03</wgt>
<wgt id='3066'>0.72549E+03</wgt>
<wgt id='3067'>0.72517E+03</wgt>
<wgt id='3068'>0.72525E+03</wgt>
<wgt id='3069'>0.72469E+03</wgt>
<wgt id='3070'>0.72519E+03</wgt>
<wgt id='3071'>0.72552E+03</wgt>
<wgt id='3072'>0.72545E+03</wgt>
<wgt id='3073'>0.72489E+03</wgt>
<wgt id='3074'>0.72667E+03</wgt>
<wgt id='3075'>0.72514E+03</wgt>
<wgt id='3076'>0.72524E+03</wgt>
<wgt id='3077'>0.72575E+03</wgt>
<wgt id='3078'>0.72556E+03</wgt>
<wgt id='3079'>0.72520E+03</wgt>
<wgt id='3080'>0.72474E+03</wgt>
<wgt id='3081'>0.72561E+03</wgt>
<wgt id='3082'>0.72548E+03</wgt>
<wgt id='3083'>0.72516E+03</wgt>
<wgt id='3084'>0.72561E+03</wgt>
<wgt id='3085'>0.72537E+03</wgt>
<wgt id='3086'>0.72534E+03</wgt>
<wgt id='3087'>0.72549E+03</wgt>
<wgt id='3088'>0.72534E+03</wgt>
<wgt id='3089'>0.72529E+03</wgt>
<wgt id='3090'>0.72539E+03</wgt>
<wgt id='3091'>0.72535E+03</wgt>
<wgt id='3092'>0.72536E+03</wgt>
<wgt id='3093'>0.72547E+03</wgt>
<wgt id='3094'>0.72540E+03</wgt>
<wgt id='3095'>0.72538E+03</wgt>
<wgt id='3096'>0.72515E+03</wgt>
<wgt id='3097'>0.72520E+03</wgt>
<wgt id='3098'>0.72536E+03</wgt>
<wgt id='3099'>0.72555E+03</wgt>
<wgt id='3100'>0.72560E+03</wgt>
<wgt id='3101'>0.70671E+03</wgt>
<wgt id='3102'>0.74482E+03</wgt>
<wgt id='5000'>0.70600E+03</wgt>
<wgt id='5001'>0.70780E+03</wgt>
<wgt id='5002'>0.70914E+03</wgt>
<wgt id='5003'>0.70749E+03</wgt>
<wgt id='5004'>0.70490E+03</wgt>
<wgt id='5005'>0.70311E+03</wgt>
<wgt id='5006'>0.68391E+03</wgt>
<wgt id='5007'>0.69599E+03</wgt>
<wgt id='5008'>0.71423E+03</wgt>
<wgt id='5009'>0.69662E+03</wgt>
<wgt id='5010'>0.70770E+03</wgt>
<wgt id='5011'>0.71343E+03</wgt>
<wgt id='5012'>0.70074E+03</wgt>
<wgt id='5013'>0.73383E+03</wgt>
<wgt id='5014'>0.70506E+03</wgt>
<wgt id='5015'>0.70049E+03</wgt>
<wgt id='5016'>0.72097E+03</wgt>
<wgt id='5017'>0.69009E+03</wgt>
<wgt id='5018'>0.72299E+03</wgt>
<wgt id='5019'>0.71388E+03</wgt>
<wgt id='5020'>0.69805E+03</wgt>
<wgt id='5021'>0.70122E+03</wgt>
<wgt id='5022'>0.70900E+03</wgt>
<wgt id='5023'>0.70021E+03</wgt>
<wgt id='5024'>0.71247E+03</wgt>
<wgt id='5025'>0.71235E+03</wgt>
<wgt id='5026'>0.70079E+03</wgt>
<wgt id='5027'>0.70463E+03</wgt>
<wgt id='5028'>0.70814E+03</wgt>
<wgt id='5029'>0.71269E+03</wgt>
<wgt id='5030'>0.70183E+03</wgt>
<wgt id='5031'>0.70645E+03</wgt>
<wgt id='5032'>0.70527E+03</wgt>
<wgt id='5033'>0.70533E+03</wgt>
<wgt id='5034'>0.70700E+03</wgt>
<wgt id='5035'>0.71667E+03</wgt>
<wgt id='5036'>0.69650E+03</wgt>
<wgt id='5037'>0.68203E+03</wgt>
<wgt id='5038'>0.73372E+03</wgt>
<wgt id='5039'>0.72507E+03</wgt>
<wgt id='5040'>0.69570E+03</wgt>
<wgt id='5041'>0.71011E+03</wgt>
<wgt id='5042'>0.70542E+03</wgt>
<wgt id='5043'>0.71251E+03</wgt>
<wgt id='5044'>0.71269E+03</wgt>
<wgt id='5045'>0.69673E+03</wgt>
<wgt id='5046'>0.68920E+03</wgt>
<wgt id='5047'>0.69633E+03</wgt>
<wgt id='5048'>0.70046E+03</wgt>
<wgt id='5049'>0.70618E+03</wgt>
<wgt id='5050'>0.70504E+03</wgt>
<wgt id='5051'>0.70577E+03</wgt>
<wgt id='5052'>0.70487E+03</wgt>
<wgt id='5053'>0.68157E+03</wgt>
<wgt id='5054'>0.69000E+03</wgt>
<wgt id='5055'>0.69979E+03</wgt>
<wgt id='5056'>0.71927E+03</wgt>
<wgt id='5060'>0.68335E+03</wgt>
<wgt id='5070'>0.73062E+03</wgt>
<wgt id='4000'>0.70755E+03</wgt>
<wgt id='4001'>0.70575E+03</wgt>
<wgt id='4002'>0.70826E+03</wgt>
<wgt id='4003'>0.68552E+03</wgt>
<wgt id='4004'>0.70393E+03</wgt>
<wgt id='4005'>0.70640E+03</wgt>
<wgt id='4006'>0.70978E+03</wgt>
<wgt id='4007'>0.70224E+03</wgt>
<wgt id='4008'>0.70184E+03</wgt>
<wgt id='4009'>0.71537E+03</wgt>
<wgt id='4010'>0.70480E+03</wgt>
<wgt id='4011'>0.71942E+03</wgt>
<wgt id='4012'>0.69758E+03</wgt>
<wgt id='4013'>0.71780E+03</wgt>
<wgt id='4014'>0.70327E+03</wgt>
<wgt id='4015'>0.72740E+03</wgt>
<wgt id='4016'>0.69420E+03</wgt>
<wgt id='4017'>0.69092E+03</wgt>
<wgt id='4018'>0.72733E+03</wgt>
<wgt id='4019'>0.70902E+03</wgt>
<wgt id='4020'>0.70594E+03</wgt>
<wgt id='4021'>0.70874E+03</wgt>
<wgt id='4022'>0.70515E+03</wgt>
<wgt id='4023'>0.71070E+03</wgt>
<wgt id='4024'>0.70449E+03</wgt>
<wgt id='4025'>0.72943E+03</wgt>
<wgt id='4026'>0.68703E+03</wgt>
<wgt id='4027'>0.71252E+03</wgt>
<wgt id='4028'>0.70083E+03</wgt>
<wgt id='4029'>0.71226E+03</wgt>
<wgt id='4030'>0.70598E+03</wgt>
<wgt id='4031'>0.71007E+03</wgt>
<wgt id='4032'>0.70429E+03</wgt>
<wgt id='4033'>0.70202E+03</wgt>
<wgt id='4034'>0.71984E+03</wgt>
<wgt id='4035'>0.68619E+03</wgt>
<wgt id='4036'>0.72892E+03</wgt>
<wgt id='4037'>0.70027E+03</wgt>
<wgt id='4038'>0.71861E+03</wgt>
<wgt id='4039'>0.70450E+03</wgt>
<wgt id='4040'>0.71204E+03</wgt>
<wgt id='4041'>0.70090E+03</wgt>
<wgt id='4042'>0.71428E+03</wgt>
<wgt id='4043'>0.69201E+03</wgt>
<wgt id='4044'>0.72692E+03</wgt>
<wgt id='4045'>0.71991E+03</wgt>
<wgt id='4046'>0.70911E+03</wgt>
<wgt id='4047'>0.70870E+03</wgt>
<wgt id='4048'>0.69302E+03</wgt>
<wgt id='4049'>0.69513E+03</wgt>
<wgt id='4050'>0.71127E+03</wgt>
<wgt id='4051'>0.71085E+03</wgt>
<wgt id='4052'>0.70846E+03</wgt>
<wgt id='4053'>0.68095E+03</wgt>
<wgt id='4054'>0.71692E+03</wgt>
<wgt id='4055'>0.70288E+03</wgt>
<wgt id='4056'>0.71772E+03</wgt>
<wgt id='4060'>0.68766E+03</wgt>
<wgt id='4070'>0.72962E+03</wgt>
<wgt id='4080'>0.69131E+03</wgt>
<wgt id='6000'>0.71813E+03</wgt>
<wgt id='6001'>0.71868E+03</wgt>
<wgt id='6002'>0.71752E+03</wgt>
<wgt id='6003'>0.71896E+03</wgt>
<wgt id='6004'>0.71755E+03</wgt>
<wgt id='6005'>0.72283E+03</wgt>
<wgt id='6006'>0.71376E+03</wgt>
<wgt id='6007'>0.71529E+03</wgt>
<wgt id='6008'>0.72131E+03</wgt>
<wgt id='6009'>0.71897E+03</wgt>
<wgt id='6010'>0.71729E+03</wgt>
<wgt id='6011'>0.71880E+03</wgt>
<wgt id='6012'>0.71667E+03</wgt>
<wgt id='6013'>0.71790E+03</wgt>
<wgt id='6014'>0.71855E+03</wgt>
<wgt id='6015'>0.71718E+03</wgt>
<wgt id='6016'>0.71866E+03</wgt>
<wgt id='6017'>0.71517E+03</wgt>
<wgt id='6018'>0.72161E+03</wgt>
<wgt id='6019'>0.71814E+03</wgt>
<wgt id='6020'>0.71813E+03</wgt>
<wgt id='6021'>0.71683E+03</wgt>
<wgt id='6022'>0.71985E+03</wgt>
<wgt id='6023'>0.71351E+03</wgt>
<wgt id='6024'>0.72121E+03</wgt>
<wgt id='6025'>0.72466E+03</wgt>
<wgt id='6026'>0.71181E+03</wgt>
<wgt id='6027'>0.71836E+03</wgt>
<wgt id='6028'>0.71781E+03</wgt>
<wgt id='6029'>0.71251E+03</wgt>
<wgt id='6030'>0.72495E+03</wgt>
<wgt id='6031'>0.70588E+03</wgt>
<wgt id='6032'>0.73211E+03</wgt>
<wgt id='6033'>0.72309E+03</wgt>
<wgt id='6034'>0.71335E+03</wgt>
<wgt id='6035'>0.72038E+03</wgt>
<wgt id='6036'>0.71230E+03</wgt>
<wgt id='6037'>0.71879E+03</wgt>
<wgt id='6038'>0.71815E+03</wgt>
<wgt id='6039'>0.71547E+03</wgt>
<wgt id='6040'>0.72119E+03</wgt>
<wgt id='6041'>0.71041E+03</wgt>
<wgt id='6042'>0.72697E+03</wgt>
<wgt id='6043'>0.72426E+03</wgt>
<wgt id='6044'>0.71517E+03</wgt>
<wgt id='6045'>0.71684E+03</wgt>
<wgt id='6046'>0.72109E+03</wgt>
<wgt id='6047'>0.72706E+03</wgt>
<wgt id='6048'>0.70878E+03</wgt>
<wgt id='6049'>0.72166E+03</wgt>
<wgt id='6050'>0.71653E+03</wgt>
<wgt id='7000'>0.68808E+03</wgt>
<wgt id='7001'>0.68790E+03</wgt>
<wgt id='7002'>0.68834E+03</wgt>
<wgt id='7003'>0.69057E+03</wgt>
<wgt id='7004'>0.68563E+03</wgt>
<wgt id='7005'>0.69036E+03</wgt>
<wgt id='7006'>0.68717E+03</wgt>
<wgt id='7007'>0.68782E+03</wgt>
<wgt id='7008'>0.68837E+03</wgt>
<wgt id='7009'>0.68867E+03</wgt>
<wgt id='7010'>0.68754E+03</wgt>
<wgt id='7011'>0.68638E+03</wgt>
<wgt id='7012'>0.68882E+03</wgt>
<wgt id='7013'>0.68796E+03</wgt>
<wgt id='7014'>0.68826E+03</wgt>
<wgt id='7015'>0.68805E+03</wgt>
<wgt id='7016'>0.68813E+03</wgt>
<wgt id='7017'>0.68826E+03</wgt>
<wgt id='7018'>0.68802E+03</wgt>
<wgt id='7019'>0.68839E+03</wgt>
<wgt id='7020'>0.68768E+03</wgt>
<wgt id='7021'>0.68669E+03</wgt>
<wgt id='7022'>0.68905E+03</wgt>
<wgt id='7023'>0.69254E+03</wgt>
<wgt id='7024'>0.68393E+03</wgt>
<wgt id='7025'>0.68961E+03</wgt>
<wgt id='7026'>0.68425E+03</wgt>
<wgt id='7027'>0.68783E+03</wgt>
<wgt id='7028'>0.68730E+03</wgt>
<wgt id='7029'>0.69254E+03</wgt>
<wgt id='7030'>0.67703E+03</wgt>
<wgt id='7031'>0.68326E+03</wgt>
<wgt id='7032'>0.69798E+03</wgt>
<wgt id='7033'>0.68992E+03</wgt>
<wgt id='7034'>0.68436E+03</wgt>
<wgt id='7035'>0.68057E+03</wgt>
<wgt id='7036'>0.69126E+03</wgt>
<wgt id='7037'>0.68767E+03</wgt>
<wgt id='7038'>0.68832E+03</wgt>
<wgt id='7039'>0.68456E+03</wgt>
<wgt id='7040'>0.69080E+03</wgt>
<wgt id='7041'>0.69072E+03</wgt>
<wgt id='7042'>0.68404E+03</wgt>
<wgt id='7043'>0.68882E+03</wgt>
<wgt id='7044'>0.68398E+03</wgt>
<wgt id='7045'>0.67824E+03</wgt>
<wgt id='7046'>0.69574E+03</wgt>
<wgt id='7047'>0.69294E+03</wgt>
<wgt id='7048'>0.68590E+03</wgt>
<wgt id='7049'>0.68392E+03</wgt>
<wgt id='7050'>0.69119E+03</wgt>
<wgt id='7060'>0.84059E+03</wgt>
<wgt id='8000'>0.67906E+03</wgt>
<wgt id='8001'>0.67903E+03</wgt>
<wgt id='8002'>0.67928E+03</wgt>
<wgt id='8003'>0.67906E+03</wgt>
<wgt id='8004'>0.67905E+03</wgt>
<wgt id='8005'>0.67788E+03</wgt>
<wgt id='8006'>0.68030E+03</wgt>
<wgt id='8007'>0.68144E+03</wgt>
<wgt id='8008'>0.68093E+03</wgt>
<wgt id='8009'>0.68241E+03</wgt>
<wgt id='8010'>0.67793E+03</wgt>
<wgt id='8011'>0.67933E+03</wgt>
<wgt id='8012'>0.67554E+03</wgt>
<wgt id='8013'>0.67708E+03</wgt>
<wgt id='8014'>0.68177E+03</wgt>
<wgt id='8015'>0.67855E+03</wgt>
<wgt id='8016'>0.68012E+03</wgt>
<wgt id='8017'>0.68001E+03</wgt>
<wgt id='8018'>0.68207E+03</wgt>
<wgt id='8019'>0.67847E+03</wgt>
<wgt id='8020'>0.68071E+03</wgt>
<wgt id='8021'>0.67776E+03</wgt>
<wgt id='8022'>0.68214E+03</wgt>
<wgt id='8023'>0.67670E+03</wgt>
<wgt id='8024'>0.67397E+03</wgt>
<wgt id='8025'>0.67607E+03</wgt>
<wgt id='8026'>0.67952E+03</wgt>
<wgt id='8027'>0.68056E+03</wgt>
<wgt id='8028'>0.67930E+03</wgt>
<wgt id='8029'>0.68553E+03</wgt>
<wgt id='8500'>0.72377E+03</wgt>
<wgt id='8501'>0.71668E+03</wgt>
<wgt id='8502'>0.72656E+03</wgt>
<wgt id='8503'>0.72522E+03</wgt>
<wgt id='8504'>0.71954E+03</wgt>
<wgt id='8505'>0.72400E+03</wgt>
<wgt id='8506'>0.72850E+03</wgt>
<wgt id='8507'>0.71376E+03</wgt>
<wgt id='8508'>0.70701E+03</wgt>
<wgt id='8509'>0.73055E+03</wgt>
<wgt id='8510'>0.72680E+03</wgt>
<wgt id='8511'>0.72085E+03</wgt>
<wgt id='8512'>0.72845E+03</wgt>
<wgt id='8513'>0.72406E+03</wgt>
<wgt id='8514'>0.71666E+03</wgt>
<wgt id='8515'>0.72993E+03</wgt>
<wgt id='8516'>0.72049E+03</wgt>
<wgt id='8517'>0.72391E+03</wgt>
<wgt id='8518'>0.71609E+03</wgt>
<wgt id='8519'>0.71430E+03</wgt>
<wgt id='8520'>0.71948E+03</wgt>
<wgt id='8521'>0.71911E+03</wgt>
<wgt id='8522'>0.72925E+03</wgt>
<wgt id='8523'>0.71940E+03</wgt>
<wgt id='8524'>0.72515E+03</wgt>
<wgt id='8525'>0.72576E+03</wgt>
<wgt id='8526'>0.72377E+03</wgt>
<wgt id='8527'>0.72395E+03</wgt>
<wgt id='8528'>0.72304E+03</wgt>
<wgt id='8529'>0.72294E+03</wgt>
<wgt id='8530'>0.72367E+03</wgt>
<wgt id='8531'>0.72369E+03</wgt>
<wgt id='8532'>0.72344E+03</wgt>
<wgt id='8533'>0.72255E+03</wgt>
<wgt id='8534'>0.72399E+03</wgt>
<wgt id='8535'>0.72551E+03</wgt>
<wgt id='8536'>0.72310E+03</wgt>
<wgt id='8537'>0.72383E+03</wgt>
<wgt id='8538'>0.72367E+03</wgt>
<wgt id='8539'>0.72452E+03</wgt>
<wgt id='8540'>0.72435E+03</wgt>
<wgt id='8541'>0.72493E+03</wgt>
<wgt id='8542'>0.72426E+03</wgt>
<wgt id='8543'>0.72283E+03</wgt>
<wgt id='8544'>0.72528E+03</wgt>
<wgt id='8545'>0.72378E+03</wgt>
<wgt id='8546'>0.72447E+03</wgt>
<wgt id='8547'>0.72315E+03</wgt>
<wgt id='8548'>0.72346E+03</wgt>
<wgt id='8549'>0.72391E+03</wgt>
<wgt id='8550'>0.72294E+03</wgt>
<wgt id='8551'>0.72333E+03</wgt>
<wgt id='8552'>0.72303E+03</wgt>
<wgt id='8553'>0.72256E+03</wgt>
<wgt id='8554'>0.72326E+03</wgt>
<wgt id='8555'>0.72377E+03</wgt>
<wgt id='8556'>0.72356E+03</wgt>
<wgt id='8557'>0.72412E+03</wgt>
<wgt id='8558'>0.72483E+03</wgt>
<wgt id='8559'>0.72363E+03</wgt>
<wgt id='8560'>0.72282E+03</wgt>
<wgt id='8561'>0.72437E+03</wgt>
<wgt id='8562'>0.72334E+03</wgt>
<wgt id='8563'>0.72381E+03</wgt>
<wgt id='8564'>0.72351E+03</wgt>
<wgt id='8565'>0.72400E+03</wgt>
<wgt id='8566'>0.72413E+03</wgt>
<wgt id='8567'>0.72380E+03</wgt>
<wgt id='8568'>0.72444E+03</wgt>
<wgt id='8569'>0.72432E+03</wgt>
<wgt id='8570'>0.72355E+03</wgt>
<wgt id='8571'>0.72321E+03</wgt>
<wgt id='8572'>0.72324E+03</wgt>
<wgt id='8573'>0.72344E+03</wgt>
<wgt id='8574'>0.72329E+03</wgt>
<wgt id='8575'>0.72375E+03</wgt>
<wgt id='8576'>0.72374E+03</wgt>
<wgt id='8577'>0.72329E+03</wgt>
<wgt id='8578'>0.72354E+03</wgt>
<wgt id='8579'>0.72423E+03</wgt>
<wgt id='8580'>0.72368E+03</wgt>
<wgt id='8581'>0.72432E+03</wgt>
<wgt id='8582'>0.72341E+03</wgt>
<wgt id='8583'>0.72409E+03</wgt>
<wgt id='8584'>0.72424E+03</wgt>
<wgt id='8585'>0.72410E+03</wgt>
<wgt id='8586'>0.72445E+03</wgt>
<wgt id='8587'>0.72407E+03</wgt>
<wgt id='8588'>0.72381E+03</wgt>
<wgt id='8589'>0.72369E+03</wgt>
<wgt id='8590'>0.72395E+03</wgt>
<wgt id='8591'>0.72336E+03</wgt>
<wgt id='8592'>0.72369E+03</wgt>
<wgt id='8593'>0.72370E+03</wgt>
<wgt id='8594'>0.72372E+03</wgt>
<wgt id='8595'>0.72366E+03</wgt>
<wgt id='8596'>0.72379E+03</wgt>
<wgt id='8597'>0.72396E+03</wgt>
<wgt id='8598'>0.72396E+03</wgt>
<wgt id='8599'>0.72377E+03</wgt>
<wgt id='8600'>0.72377E+03</wgt>
<wgt id='8601'>0.71300E+03</wgt>
<wgt id='8602'>0.73588E+03</wgt>
<wgt id='9000'>0.69739E+03</wgt>
<wgt id='9001'>0.69788E+03</wgt>
<wgt id='9002'>0.69713E+03</wgt>
<wgt id='9003'>0.69746E+03</wgt>
<wgt id='9004'>0.70043E+03</wgt>
<wgt id='9005'>0.70216E+03</wgt>
<wgt id='9006'>0.69956E+03</wgt>
<wgt id='9007'>0.69253E+03</wgt>
<wgt id='9008'>0.69539E+03</wgt>
<wgt id='9009'>0.69905E+03</wgt>
<wgt id='9010'>0.69506E+03</wgt>
<wgt id='9011'>0.70072E+03</wgt>
<wgt id='9012'>0.70542E+03</wgt>
<wgt id='9013'>0.70225E+03</wgt>
<wgt id='9014'>0.70046E+03</wgt>
<wgt id='9015'>0.69114E+03</wgt>
<wgt id='9016'>0.70182E+03</wgt>
<wgt id='9017'>0.69165E+03</wgt>
<wgt id='9018'>0.70100E+03</wgt>
<wgt id='9019'>0.70149E+03</wgt>
<wgt id='9020'>0.70736E+03</wgt>
<wgt id='9021'>0.69203E+03</wgt>
<wgt id='9022'>0.69869E+03</wgt>
<wgt id='9023'>0.69154E+03</wgt>
<wgt id='9024'>0.69415E+03</wgt>
<wgt id='9025'>0.70098E+03</wgt>
<wgt id='9026'>0.69701E+03</wgt>
<wgt id='9027'>0.69591E+03</wgt>
<wgt id='9028'>0.69806E+03</wgt>
<wgt id='9029'>0.69805E+03</wgt>
<wgt id='9030'>0.69675E+03</wgt>
<wgt id='9031'>0.69666E+03</wgt>
<wgt id='9032'>0.69853E+03</wgt>
<wgt id='9033'>0.69816E+03</wgt>
<wgt id='9034'>0.69761E+03</wgt>
<wgt id='9035'>0.69798E+03</wgt>
<wgt id='9036'>0.69792E+03</wgt>
<wgt id='9037'>0.69808E+03</wgt>
<wgt id='9038'>0.69828E+03</wgt>
<wgt id='9039'>0.69750E+03</wgt>
<wgt id='9040'>0.69664E+03</wgt>
<wgt id='9041'>0.69773E+03</wgt>
<wgt id='9042'>0.69758E+03</wgt>
<wgt id='9043'>0.69642E+03</wgt>
<wgt id='9044'>0.69734E+03</wgt>
<wgt id='9045'>0.69758E+03</wgt>
<wgt id='9046'>0.69651E+03</wgt>
<wgt id='9047'>0.69781E+03</wgt>
<wgt id='9048'>0.69802E+03</wgt>
<wgt id='9049'>0.69703E+03</wgt>
<wgt id='9050'>0.69752E+03</wgt>
<wgt id='9051'>0.69796E+03</wgt>
<wgt id='9052'>0.69817E+03</wgt>
<wgt id='9053'>0.69712E+03</wgt>
<wgt id='9054'>0.69716E+03</wgt>
<wgt id='9055'>0.69710E+03</wgt>
<wgt id='9056'>0.69799E+03</wgt>
<wgt id='9057'>0.69763E+03</wgt>
<wgt id='9058'>0.69626E+03</wgt>
<wgt id='9059'>0.69686E+03</wgt>
<wgt id='9060'>0.69706E+03</wgt>
<wgt id='9061'>0.69739E+03</wgt>
<wgt id='9062'>0.69756E+03</wgt>
<wgt id='9063'>0.69749E+03</wgt>
<wgt id='9064'>0.69745E+03</wgt>
<wgt id='9065'>0.69728E+03</wgt>
<wgt id='9066'>0.69738E+03</wgt>
<wgt id='9067'>0.69769E+03</wgt>
<wgt id='9068'>0.69741E+03</wgt>
<wgt id='9069'>0.69817E+03</wgt>
<wgt id='9070'>0.69710E+03</wgt>
<wgt id='9071'>0.69812E+03</wgt>
<wgt id='9072'>0.69807E+03</wgt>
<wgt id='9073'>0.69725E+03</wgt>
<wgt id='9074'>0.69744E+03</wgt>
<wgt id='9075'>0.69735E+03</wgt>
<wgt id='9076'>0.69738E+03</wgt>
<wgt id='9077'>0.69756E+03</wgt>
<wgt id='9078'>0.69745E+03</wgt>
<wgt id='9079'>0.69743E+03</wgt>
<wgt id='9080'>0.69832E+03</wgt>
<wgt id='9081'>0.69747E+03</wgt>
<wgt id='9082'>0.69773E+03</wgt>
<wgt id='9083'>0.69722E+03</wgt>
<wgt id='9084'>0.69716E+03</wgt>
<wgt id='9085'>0.69688E+03</wgt>
<wgt id='9086'>0.69747E+03</wgt>
<wgt id='9087'>0.69669E+03</wgt>
<wgt id='9088'>0.69707E+03</wgt>
<wgt id='9089'>0.69701E+03</wgt>
<wgt id='9090'>0.69749E+03</wgt>
<wgt id='9091'>0.69736E+03</wgt>
<wgt id='9092'>0.69727E+03</wgt>
<wgt id='9093'>0.69722E+03</wgt>
<wgt id='9094'>0.69727E+03</wgt>
<wgt id='9095'>0.69753E+03</wgt>
<wgt id='9096'>0.69728E+03</wgt>
<wgt id='9097'>0.69747E+03</wgt>
<wgt id='9098'>0.69729E+03</wgt>
<wgt id='9099'>0.69720E+03</wgt>
<wgt id='9100'>0.69745E+03</wgt>
<wgt id='9101'>0.68583E+03</wgt>
<wgt id='9102'>0.71000E+03</wgt>
<wgt id='10000'>0.72370E+03</wgt>
<wgt id='10001'>0.72610E+03</wgt>
<wgt id='10002'>0.71447E+03</wgt>
<wgt id='10003'>0.72388E+03</wgt>
<wgt id='10004'>0.70962E+03</wgt>
<wgt id='10005'>0.71853E+03</wgt>
<wgt id='10006'>0.71692E+03</wgt>
<wgt id='10007'>0.72344E+03</wgt>
<wgt id='10008'>0.72490E+03</wgt>
<wgt id='10009'>0.71871E+03</wgt>
<wgt id='10010'>0.72571E+03</wgt>
<wgt id='10011'>0.71638E+03</wgt>
<wgt id='10012'>0.72129E+03</wgt>
<wgt id='10013'>0.72515E+03</wgt>
<wgt id='10014'>0.72280E+03</wgt>
<wgt id='10015'>0.72464E+03</wgt>
<wgt id='10016'>0.72012E+03</wgt>
<wgt id='10017'>0.73244E+03</wgt>
<wgt id='10018'>0.72622E+03</wgt>
<wgt id='10019'>0.71355E+03</wgt>
<wgt id='10020'>0.72031E+03</wgt>
<wgt id='10021'>0.72260E+03</wgt>
<wgt id='10022'>0.72242E+03</wgt>
<wgt id='10023'>0.72474E+03</wgt>
<wgt id='10024'>0.72322E+03</wgt>
<wgt id='10025'>0.72270E+03</wgt>
<wgt id='10026'>0.72825E+03</wgt>
<wgt id='10027'>0.72594E+03</wgt>
<wgt id='10028'>0.73718E+03</wgt>
<wgt id='10029'>0.72403E+03</wgt>
<wgt id='10030'>0.72331E+03</wgt>
<wgt id='10031'>0.71300E+03</wgt>
<wgt id='10032'>0.73588E+03</wgt>
<wgt id='11000'>0.69731E+03</wgt>
<wgt id='11001'>0.67815E+03</wgt>
<wgt id='11002'>0.69600E+03</wgt>
<wgt id='11003'>0.69775E+03</wgt>
<wgt id='11004'>0.69338E+03</wgt>
<wgt id='11005'>0.70070E+03</wgt>
<wgt id='11006'>0.69804E+03</wgt>
<wgt id='11007'>0.69795E+03</wgt>
<wgt id='11008'>0.69791E+03</wgt>
<wgt id='11009'>0.69801E+03</wgt>
<wgt id='11010'>0.69256E+03</wgt>
<wgt id='11011'>0.69656E+03</wgt>
<wgt id='11012'>0.69639E+03</wgt>
<wgt id='11013'>0.69752E+03</wgt>
<wgt id='11014'>0.69689E+03</wgt>
<wgt id='11015'>0.69477E+03</wgt>
<wgt id='11016'>0.69804E+03</wgt>
<wgt id='11017'>0.69887E+03</wgt>
<wgt id='11018'>0.69744E+03</wgt>
<wgt id='11019'>0.69816E+03</wgt>
<wgt id='11020'>0.69826E+03</wgt>
<wgt id='11021'>0.69826E+03</wgt>
<wgt id='11022'>0.69739E+03</wgt>
<wgt id='11023'>0.69776E+03</wgt>
<wgt id='11024'>0.69493E+03</wgt>
<wgt id='11025'>0.69698E+03</wgt>
<wgt id='11026'>0.69734E+03</wgt>
<wgt id='11027'>0.69901E+03</wgt>
<wgt id='11028'>0.69687E+03</wgt>
<wgt id='11029'>0.68952E+03</wgt>
<wgt id='11030'>0.69740E+03</wgt>
<wgt id='11031'>0.68583E+03</wgt>
<wgt id='11032'>0.71000E+03</wgt>
<wgt id='12000'>0.61679E+03</wgt>
<wgt id='12001'>0.61594E+03</wgt>
<wgt id='12002'>0.61764E+03</wgt>
<wgt id='12003'>0.61688E+03</wgt>
<wgt id='12004'>0.61670E+03</wgt>
<wgt id='12005'>0.61764E+03</wgt>
<wgt id='12006'>0.61594E+03</wgt>
<wgt id='12007'>0.62047E+03</wgt>
<wgt id='12008'>0.61319E+03</wgt>
<wgt id='12009'>0.61537E+03</wgt>
<wgt id='12010'>0.61822E+03</wgt>
<wgt id='12011'>0.61093E+03</wgt>
<wgt id='12012'>0.62323E+03</wgt>
<wgt id='12013'>0.61492E+03</wgt>
<wgt id='12014'>0.61868E+03</wgt>
<wgt id='12015'>0.62052E+03</wgt>
<wgt id='12016'>0.61204E+03</wgt>
<wgt id='12017'>0.62054E+03</wgt>
<wgt id='12018'>0.61443E+03</wgt>
<wgt id='12019'>0.61997E+03</wgt>
<wgt id='12020'>0.61300E+03</wgt>
<wgt id='12021'>0.61634E+03</wgt>
<wgt id='12022'>0.61737E+03</wgt>
<wgt id='12023'>0.60820E+03</wgt>
<wgt id='12024'>0.62504E+03</wgt>
<wgt id='12025'>0.61051E+03</wgt>
<wgt id='12026'>0.62340E+03</wgt>
<wgt id='12027'>0.63093E+03</wgt>
<wgt id='12028'>0.60377E+03</wgt>
<wgt id='12050'>0.61679E+03</wgt>
<wgt id='12051'>0.62088E+03</wgt>
<wgt id='12052'>0.61035E+03</wgt>
<wgt id='12053'>0.62101E+03</wgt>
<wgt id='12054'>0.61247E+03</wgt>
<wgt id='12055'>0.61231E+03</wgt>
<wgt id='12056'>0.63039E+03</wgt>
<wgt id='12057'>0.61778E+03</wgt>
<wgt id='12058'>0.61652E+03</wgt>
<wgt id='12059'>0.62353E+03</wgt>
<wgt id='12060'>0.61040E+03</wgt>
<wgt id='12061'>0.61141E+03</wgt>
<wgt id='12062'>0.61481E+03</wgt>
<wgt id='12063'>0.62229E+03</wgt>
<wgt id='13000'>0.67827E+03</wgt>
<wgt id='13001'>0.67588E+03</wgt>
<wgt id='13002'>0.67757E+03</wgt>
<wgt id='13003'>0.67619E+03</wgt>
<wgt id='13004'>0.67727E+03</wgt>
<wgt id='13005'>0.67743E+03</wgt>
<wgt id='13006'>0.67603E+03</wgt>
<wgt id='13007'>0.68163E+03</wgt>
<wgt id='13008'>0.67197E+03</wgt>
<wgt id='13009'>0.67209E+03</wgt>
<wgt id='13010'>0.68152E+03</wgt>
<wgt id='13011'>0.67966E+03</wgt>
<wgt id='13012'>0.67385E+03</wgt>
<wgt id='13013'>0.67570E+03</wgt>
<wgt id='13014'>0.67767E+03</wgt>
<wgt id='13015'>0.67727E+03</wgt>
<wgt id='13016'>0.67400E+03</wgt>
<wgt id='13017'>0.67631E+03</wgt>
<wgt id='13018'>0.67722E+03</wgt>
<wgt id='13019'>0.67670E+03</wgt>
<wgt id='13020'>0.67684E+03</wgt>
<wgt id='13021'>0.68526E+03</wgt>
<wgt id='13022'>0.66853E+03</wgt>
<wgt id='13023'>0.66890E+03</wgt>
<wgt id='13024'>0.68492E+03</wgt>
<wgt id='13025'>0.66252E+03</wgt>
<wgt id='13026'>0.69093E+03</wgt>
<wgt id='13027'>0.67041E+03</wgt>
<wgt id='13028'>0.68350E+03</wgt>
<wgt id='13050'>0.67827E+03</wgt>
<wgt id='13051'>0.68039E+03</wgt>
<wgt id='13052'>0.66618E+03</wgt>
<wgt id='13053'>0.68004E+03</wgt>
<wgt id='13054'>0.67430E+03</wgt>
<wgt id='13055'>0.65499E+03</wgt>
<wgt id='13056'>0.67814E+03</wgt>
<wgt id='13057'>0.67703E+03</wgt>
<wgt id='13058'>0.67856E+03</wgt>
<wgt id='13059'>0.68289E+03</wgt>
<wgt id='13060'>0.64504E+03</wgt>
<wgt id='13061'>0.67756E+03</wgt>
<wgt id='13062'>0.67700E+03</wgt>
<wgt id='13063'>0.68756E+03</wgt>
<wgt id='14000'>0.70657E+03</wgt>
<wgt id='14001'>0.70650E+03</wgt>
<wgt id='14002'>0.70643E+03</wgt>
<wgt id='14003'>0.70636E+03</wgt>
<wgt id='14004'>0.70629E+03</wgt>
<wgt id='14005'>0.70622E+03</wgt>
<wgt id='14006'>0.70615E+03</wgt>
<wgt id='14007'>0.70608E+03</wgt>
<wgt id='14008'>0.70601E+03</wgt>
<wgt id='14009'>0.70594E+03</wgt>
<wgt id='14010'>0.70587E+03</wgt>
<wgt id='14011'>0.70580E+03</wgt>
<wgt id='14012'>0.70573E+03</wgt>
<wgt id='14013'>0.70566E+03</wgt>
<wgt id='14014'>0.70559E+03</wgt>
<wgt id='14015'>0.70552E+03</wgt>
<wgt id='14016'>0.70545E+03</wgt>
<wgt id='14017'>0.70538E+03</wgt>
<wgt id='14018'>0.70531E+03</wgt>
<wgt id='14019'>0.70524E+03</wgt>
<wgt id='14020'>0.70517E+03</wgt>
<wgt id='14021'>0.70510E+03</wgt>
<wgt id='14022'>0.70503E+03</wgt>
<wgt id='14023'>0.70496E+03</wgt>
<wgt id='14024'>0.70489E+03</wgt>
<wgt id='14025'>0.70482E+03</wgt>
<wgt id='14026'>0.70475E+03</wgt>
<wgt id='14027'>0.70468E+03</wgt>
<wgt id='14028'>0.70461E+03</wgt>
<wgt id='14029'>0.70455E+03</wgt>
<wgt id='14030'>0.70448E+03</wgt>
<wgt id='15000'>0.68948E+03</wgt>
<wgt id='15001'>0.68998E+03</wgt>
<wgt id='15002'>0.68908E+03</wgt>
<wgt id='15003'>0.68974E+03</wgt>
<wgt id='15004'>0.69255E+03</wgt>
<wgt id='15005'>0.69427E+03</wgt>
<wgt id='15006'>0.69173E+03</wgt>
<wgt id='15007'>0.68462E+03</wgt>
<wgt id='15008'>0.68750E+03</wgt>
<wgt id='15009'>0.69120E+03</wgt>
<wgt id='15010'>0.68731E+03</wgt>
<wgt id='15011'>0.69275E+03</wgt>
<wgt id='15012'>0.69742E+03</wgt>
<wgt id='15013'>0.69446E+03</wgt>
<wgt id='15014'>0.69237E+03</wgt>
<wgt id='15015'>0.68306E+03</wgt>
<wgt id='15016'>0.69386E+03</wgt>
<wgt id='15017'>0.68383E+03</wgt>
<wgt id='15018'>0.69305E+03</wgt>
<wgt id='15019'>0.69356E+03</wgt>
<wgt id='15020'>0.69943E+03</wgt>
<wgt id='15021'>0.68408E+03</wgt>
<wgt id='15022'>0.69082E+03</wgt>
<wgt id='15023'>0.68366E+03</wgt>
<wgt id='15024'>0.68623E+03</wgt>
<wgt id='15025'>0.69298E+03</wgt>
<wgt id='15026'>0.68905E+03</wgt>
<wgt id='15027'>0.68807E+03</wgt>
<wgt id='15028'>0.69019E+03</wgt>
<wgt id='15029'>0.69013E+03</wgt>
<wgt id='15030'>0.68885E+03</wgt>
<wgt id='15031'>0.68885E+03</wgt>
<wgt id='15032'>0.69062E+03</wgt>
<wgt id='15033'>0.69027E+03</wgt>
<wgt id='15034'>0.68967E+03</wgt>
<wgt id='15035'>0.69008E+03</wgt>
<wgt id='15036'>0.69000E+03</wgt>
<wgt id='15037'>0.69021E+03</wgt>
<wgt id='15038'>0.69037E+03</wgt>
<wgt id='15039'>0.68959E+03</wgt>
<wgt id='15040'>0.68873E+03</wgt>
<wgt id='15041'>0.68976E+03</wgt>
<wgt id='15042'>0.68962E+03</wgt>
<wgt id='15043'>0.68860E+03</wgt>
<wgt id='15044'>0.68944E+03</wgt>
<wgt id='15045'>0.68963E+03</wgt>
<wgt id='15046'>0.68863E+03</wgt>
<wgt id='15047'>0.68983E+03</wgt>
<wgt id='15048'>0.69011E+03</wgt>
<wgt id='15049'>0.68909E+03</wgt>
<wgt id='15050'>0.68963E+03</wgt>
<wgt id='15051'>0.69006E+03</wgt>
<wgt id='15052'>0.69024E+03</wgt>
<wgt id='15053'>0.68926E+03</wgt>
<wgt id='15054'>0.68926E+03</wgt>
<wgt id='15055'>0.68920E+03</wgt>
<wgt id='15056'>0.69006E+03</wgt>
<wgt id='15057'>0.68969E+03</wgt>
<wgt id='15058'>0.68842E+03</wgt>
<wgt id='15059'>0.68898E+03</wgt>
<wgt id='15060'>0.68917E+03</wgt>
<wgt id='15061'>0.68949E+03</wgt>
<wgt id='15062'>0.68964E+03</wgt>
<wgt id='15063'>0.68960E+03</wgt>
<wgt id='15064'>0.68953E+03</wgt>
<wgt id='15065'>0.68938E+03</wgt>
<wgt id='15066'>0.68949E+03</wgt>
<wgt id='15067'>0.68978E+03</wgt>
<wgt id='15068'>0.68951E+03</wgt>
<wgt id='15069'>0.69025E+03</wgt>
<wgt id='15070'>0.68919E+03</wgt>
<wgt id='15071'>0.69023E+03</wgt>
<wgt id='15072'>0.69017E+03</wgt>
<wgt id='15073'>0.68932E+03</wgt>
<wgt id='15074'>0.68953E+03</wgt>
<wgt id='15075'>0.68943E+03</wgt>
<wgt id='15076'>0.68950E+03</wgt>
<wgt id='15077'>0.68966E+03</wgt>
<wgt id='15078'>0.68959E+03</wgt>
<wgt id='15079'>0.68952E+03</wgt>
<wgt id='15080'>0.69037E+03</wgt>
<wgt id='15081'>0.68957E+03</wgt>
<wgt id='15082'>0.68983E+03</wgt>
<wgt id='15083'>0.68931E+03</wgt>
<wgt id='15084'>0.68925E+03</wgt>
<wgt id='15085'>0.68900E+03</wgt>
<wgt id='15086'>0.68958E+03</wgt>
<wgt id='15087'>0.68879E+03</wgt>
<wgt id='15088'>0.68916E+03</wgt>
<wgt id='15089'>0.68910E+03</wgt>
<wgt id='15090'>0.68959E+03</wgt>
<wgt id='15091'>0.68945E+03</wgt>
<wgt id='15092'>0.68936E+03</wgt>
<wgt id='15093'>0.68932E+03</wgt>
<wgt id='15094'>0.68936E+03</wgt>
<wgt id='15095'>0.68963E+03</wgt>
<wgt id='15096'>0.68937E+03</wgt>
<wgt id='15097'>0.68956E+03</wgt>
<wgt id='15098'>0.68939E+03</wgt>
<wgt id='15099'>0.68930E+03</wgt>
<wgt id='15100'>0.68954E+03</wgt>
<wgt id='15101'>0.68947E+03</wgt>
<wgt id='15102'>0.68943E+03</wgt>
<wgt id='15103'>0.68949E+03</wgt>
<wgt id='15104'>0.68949E+03</wgt>
<wgt id='15105'>0.68951E+03</wgt>
<wgt id='15106'>0.68949E+03</wgt>
<wgt id='15107'>0.68945E+03</wgt>
<wgt id='1500'>0.74869E+03</wgt>
<wgt id='1501'>0.75141E+03</wgt>
<wgt id='1502'>0.75773E+03</wgt>
<wgt id='1503'>0.76970E+03</wgt>
<wgt id='1504'>0.71592E+03</wgt>
<wgt id='1505'>0.73742E+03</wgt>
<wgt id='1506'>0.74643E+03</wgt>
<wgt id='1507'>0.74795E+03</wgt>
<wgt id='1508'>0.76017E+03</wgt>
<wgt id='1509'>0.75731E+03</wgt>
<wgt id='1510'>0.75187E+03</wgt>
<wgt id='1511'>0.71394E+03</wgt>
<wgt id='1512'>0.74404E+03</wgt>
<wgt id='1513'>0.73838E+03</wgt>
<wgt id='1514'>0.76854E+03</wgt>
<wgt id='1515'>0.76238E+03</wgt>
<wgt id='1516'>0.76777E+03</wgt>
<wgt id='1517'>0.76984E+03</wgt>
<wgt id='1518'>0.76868E+03</wgt>
<wgt id='1519'>0.74844E+03</wgt>
<wgt id='1520'>0.77943E+03</wgt>
<wgt id='1521'>0.73451E+03</wgt>
<wgt id='1522'>0.74163E+03</wgt>
<wgt id='1523'>0.76027E+03</wgt>
<wgt id='1524'>0.73883E+03</wgt>
<wgt id='1525'>0.74042E+03</wgt>
<wgt id='1526'>0.73649E+03</wgt>
<wgt id='1527'>0.77644E+03</wgt>
<wgt id='1528'>0.74676E+03</wgt>
<wgt id='1529'>0.77082E+03</wgt>
<wgt id='1530'>0.75820E+03</wgt>
<wgt id='1531'>0.73129E+03</wgt>
<wgt id='1532'>0.73312E+03</wgt>
<wgt id='1533'>0.72822E+03</wgt>
<wgt id='1534'>0.72631E+03</wgt>
<wgt id='1535'>0.77746E+03</wgt>
<wgt id='1536'>0.74533E+03</wgt>
<wgt id='1537'>0.75947E+03</wgt>
<wgt id='1538'>0.76340E+03</wgt>
<wgt id='1539'>0.74175E+03</wgt>
<wgt id='1540'>0.73620E+03</wgt>
<wgt id='1541'>0.74821E+03</wgt>
<wgt id='1542'>0.72914E+03</wgt>
<wgt id='1543'>0.72520E+03</wgt>
<wgt id='1544'>0.74834E+03</wgt>
<wgt id='1545'>0.75282E+03</wgt>
<wgt id='1546'>0.75146E+03</wgt>
<wgt id='1547'>0.74646E+03</wgt>
<wgt id='1548'>0.75051E+03</wgt>
<wgt id='1549'>0.75745E+03</wgt>
<wgt id='1550'>0.73903E+03</wgt>
<wgt id='1551'>0.73407E+03</wgt>
<wgt id='1552'>0.74350E+03</wgt>
<wgt id='1553'>0.74609E+03</wgt>
<wgt id='1554'>0.72696E+03</wgt>
<wgt id='1555'>0.73522E+03</wgt>
<wgt id='1556'>0.76132E+03</wgt>
<wgt id='1557'>0.74558E+03</wgt>
<wgt id='1558'>0.73564E+03</wgt>
<wgt id='1559'>0.76992E+03</wgt>
<wgt id='1560'>0.74893E+03</wgt>
<wgt id='1561'>0.74910E+03</wgt>
<wgt id='1562'>0.76521E+03</wgt>
<wgt id='1563'>0.72346E+03</wgt>
<wgt id='1564'>0.76366E+03</wgt>
<wgt id='1565'>0.73528E+03</wgt>
<wgt id='1566'>0.74228E+03</wgt>
<wgt id='1567'>0.78971E+03</wgt>
<wgt id='1568'>0.74813E+03</wgt>
<wgt id='1569'>0.72681E+03</wgt>
<wgt id='1570'>0.72319E+03</wgt>
<wgt id='1571'>0.73449E+03</wgt>
<wgt id='1572'>0.74455E+03</wgt>
<wgt id='1573'>0.75111E+03</wgt>
<wgt id='1574'>0.74467E+03</wgt>
<wgt id='1575'>0.75710E+03</wgt>
<wgt id='1576'>0.71699E+03</wgt>
<wgt id='1577'>0.72474E+03</wgt>
<wgt id='1578'>0.73737E+03</wgt>
<wgt id='1579'>0.74857E+03</wgt>
<wgt id='1580'>0.73673E+03</wgt>
<wgt id='1581'>0.74793E+03</wgt>
<wgt id='1582'>0.73347E+03</wgt>
<wgt id='1583'>0.76396E+03</wgt>
<wgt id='1584'>0.75248E+03</wgt>
<wgt id='1585'>0.75540E+03</wgt>
<wgt id='1586'>0.74585E+03</wgt>
<wgt id='1587'>0.76198E+03</wgt>
<wgt id='1588'>0.75251E+03</wgt>
<wgt id='1589'>0.75919E+03</wgt>
<wgt id='1590'>0.73351E+03</wgt>
<wgt id='1591'>0.74351E+03</wgt>
<wgt id='1592'>0.73680E+03</wgt>
<wgt id='1593'>0.76344E+03</wgt>
<wgt id='1594'>0.76081E+03</wgt>
<wgt id='1595'>0.76578E+03</wgt>
<wgt id='1596'>0.74516E+03</wgt>
<wgt id='1597'>0.74916E+03</wgt>
<wgt id='1598'>0.74512E+03</wgt>
<wgt id='1599'>0.75066E+03</wgt>
<wgt id='1600'>0.77342E+03</wgt>
<wgt id='1601'>0.74033E+03</wgt>
<wgt id='1602'>0.75204E+03</wgt>
<wgt id='1700'>0.70020E+03</wgt>
<wgt id='1800'>0.67776E+03</wgt>
<wgt id='1850'>0.77457E+03</wgt>
<wgt id='1900'>0.76358E+03</wgt>
<wgt id='1950'>0.74841E+03</wgt>
</rwgt>
</event>
<event>
     13 322222  6.87070E+02  2.34892E+01 -1.00000E+00  1.58105E-01
       2    -1     0     0   503     0  0.000000000E+00  0.000000000E+00  5.939104692E+02  5.939104692E+02  0.000000000E+00  0.00000E+00  9.000E+00
      21    -1     0     0   502   503  0.000000000E+00  0.000000000E+00 -7.190235372E+01  7.190235372E+01  0.000000000E+00  0.00000E+00  9.000E+00
       6     2     1     2   502     0  7.493457024E+01 -9.533755025E+00  1.822242799E+02  2.623545746E+02  1.729686455E+02  0.00000E+00  9.000E+00
      -6     2     1     2     0   512 -7.670514772E+01  3.295607894E+01  2.804035267E+02  3.396008189E+02  1.724320028E+02  0.00000E+00  9.000E+00
       2     1     1     2   512     0  1.770577481E+00 -2.342232392E+01  5.938030891E+01  6.385742939E+01  1.000000000E-01  0.00000E+00  9.000E+00
      24     2     3     3     0     0 -8.937455405E+00  8.585804339E+00  3.004128708E+01  8.758175518E+01  8.132951965E+01  0.00000E+00  9.000E+00
       5     1     3     3   502     0  8.387202564E+01 -1.811955936E+01  1.521829928E+02  1.747728194E+02  4.800000000E+00  0.00000E+00 -1.000E+00
     -24     2     4     4     0     0 -8.914358369E+01  4.283823366E+01  2.922658318E+02  3.192016534E+02  8.178438940E+01  0.00000E+00  9.000E+00
      -5     1     4     4     0   512  1.243843597E+01 -9.882154722E+00 -1.186230507E+01  2.039916550E+01  4.800000000E+00  0.00000E+00  1.000E+00
     -15     1     6     6     0     0  5.694024412E+00  2.007161152E+01 -2.316001154E+01  3.122235363E+01  1.777000000E+00  0.00000E+00  1.000E+00
      16     1     6     6     0     0 -1.463147982E+01 -1.148580718E+01  5.320129862E+01  5.635940155E+01  0.000000000E+00  0.00000E+00 -1.000E+00
       3     1     8     8   513     0 -2.878194803E+01  5.494036245E+01  1.895594229E+02  1.994483862E+02  2.000000000E-01  0.00000E+00 -1.000E+00
      -4     1     8     8     0   513 -6.036163566E+01 -1.210212878E+01  1.027064089E+02  1.197532672E+02  1.500000000E+00  0.00000E+00  1.000E+00
#rwgt            1           1   843.19853980675987                2        4720           0
<rwgt>
<wgt id='1001'>0.68707E+03</wgt>
<wgt id='1002'>0.80235E+03</wgt>
<wgt id='1003'>0.56416E+03</wgt>
<wgt id='1004'>0.59570E+03</wgt>
<wgt id='1005'>0.68098E+03</wgt>
<wgt id='1006'>0.50442E+03</wgt>
<wgt id='1007'>0.80020E+03</wgt>
<wgt id='1008'>0.96011E+03</wgt>
<wgt id='1009'>0.63030E+03</wgt>
<wgt id='2000'>0.68707E+03</wgt>
<wgt id='2001'>0.68662E+03</wgt>
<wgt id='2002'>0.68832E+03</wgt>
<wgt id='2003'>0.68789E+03</wgt>
<wgt id='2004'>0.68877E+03</wgt>
<wgt id='2005'>0.68645E+03</wgt>
<wgt id='2006'>0.68541E+03</wgt>
<wgt id='2007'>0.68624E+03</wgt>
<wgt id='2008'>0.68606E+03</wgt>
<wgt id='2009'>0.68780E+03</wgt>
<wgt id='2010'>0.68657E+03</wgt>
<wgt id='2011'>0.68657E+03</wgt>
<wgt id='2012'>0.68743E+03</wgt>
<wgt id='2013'>0.68716E+03</wgt>
<wgt id='2014'>0.68691E+03</wgt>
<wgt id='2015'>0.68700E+03</wgt>
<wgt id='2016'>0.68701E+03</wgt>
<wgt id='2017'>0.68660E+03</wgt>
<wgt id='2018'>0.68664E+03</wgt>
<wgt id='2019'>0.68724E+03</wgt>
<wgt id='2020'>0.68618E+03</wgt>
<wgt id='2021'>0.68758E+03</wgt>
<wgt id='2022'>0.68539E+03</wgt>
<wgt id='2023'>0.68741E+03</wgt>
<wgt id='2024'>0.68572E+03</wgt>
<wgt id='2025'>0.68564E+03</wgt>
<wgt id='2026'>0.68763E+03</wgt>
<wgt id='2027'>0.68612E+03</wgt>
<wgt id='2028'>0.68631E+03</wgt>
<wgt id='2029'>0.69139E+03</wgt>
<wgt id='2030'>0.68719E+03</wgt>
<wgt id='2031'>0.68750E+03</wgt>
<wgt id='2032'>0.68716E+03</wgt>
<wgt id='2033'>0.68745E+03</wgt>
<wgt id='2034'>0.68896E+03</wgt>
<wgt id='2035'>0.68655E+03</wgt>
<wgt id='2036'>0.68672E+03</wgt>
<wgt id='2037'>0.68865E+03</wgt>
<wgt id='2038'>0.68663E+03</wgt>
<wgt id='2039'>0.68541E+03</wgt>
<wgt id='2040'>0.68649E+03</wgt>
<wgt id='2041'>0.68639E+03</wgt>
<wgt id='2042'>0.68642E+03</wgt>
<wgt id='2043'>0.68696E+03</wgt>
<wgt id='2044'>0.68805E+03</wgt>
<wgt id='2045'>0.68656E+03</wgt>
<wgt id='2046'>0.68830E+03</wgt>
<wgt id='2047'>0.68818E+03</wgt>
<wgt id='2048'>0.68645E+03</wgt>
<wgt id='2049'>0.68679E+03</wgt>
<wgt id='2050'>0.68774E+03</wgt>
<wgt id='2051'>0.68792E+03</wgt>
<wgt id='2052'>0.68681E+03</wgt>
<wgt id='2053'>0.68725E+03</wgt>
<wgt id='2054'>0.68745E+03</wgt>
<wgt id='2055'>0.68725E+03</wgt>
<wgt id='2056'>0.68705E+03</wgt>
<wgt id='2057'>0.68712E+03</wgt>
<wgt id='2058'>0.68718E+03</wgt>
<wgt id='2059'>0.68688E+03</wgt>
<wgt id='2060'>0.68709E+03</wgt>
<wgt id='2061'>0.68699E+03</wgt>
<wgt id='2062'>0.68736E+03</wgt>
<wgt id='2063'>0.68684E+03</wgt>
<wgt id='2064'>0.68691E+03</wgt>
<wgt id='2065'>0.68739E+03</wgt>
<wgt id='2066'>0.68694E+03</wgt>
<wgt id='2067'>0.68720E+03</wgt>
<wgt id='2068'>0.68730E+03</wgt>
<wgt id='2069'>0.68705E+03</wgt>
<wgt id='2070'>0.68685E+03</wgt>
<wgt id='2071'>0.68657E+03</wgt>
<wgt id='2072'>0.68713E+03</wgt>
<wgt id='2073'>0.68708E+03</wgt>
<wgt id='2074'>0.68662E+03</wgt>
<wgt id='2075'>0.68710E+03</wgt>
<wgt id='2076'>0.68698E+03</wgt>
<wgt id='2077'>0.68687E+03</wgt>
<wgt id='2078'>0.68711E+03</wgt>
<wgt id='2079'>0.68726E+03</wgt>
<wgt id='2080'>0.68701E+03</wgt>
<wgt id='2081'>0.68717E+03</wgt>
<wgt id='2082'>0.68718E+03</wgt>
<wgt id='2083'>0.68710E+03</wgt>
<wgt id='2084'>0.68700E+03</wgt>
<wgt id='2085'>0.68689E+03</wgt>
<wgt id='2086'>0.68712E+03</wgt>
<wgt id='2087'>0.68706E+03</wgt>
<wgt id='2088'>0.68713E+03</wgt>
<wgt id='2089'>0.68718E+03</wgt>
<wgt id='2090'>0.68719E+03</wgt>
<wgt id='2091'>0.68699E+03</wgt>
<wgt id='2092'>0.68712E+03</wgt>
<wgt id='2093'>0.68707E+03</wgt>
<wgt id='2094'>0.68705E+03</wgt>
<wgt id='2095'>0.68704E+03</wgt>
<wgt id='2096'>0.68699E+03</wgt>
<wgt id='2097'>0.68728E+03</wgt>
<wgt id='2098'>0.68692E+03</wgt>
<wgt id='2099'>0.68722E+03</wgt>
<wgt id='2100'>0.68701E+03</wgt>
<wgt id='2101'>0.66808E+03</wgt>
<wgt id='2102'>0.70617E+03</wgt>
<wgt id='2104'>0.59661E+03</wgt>
<wgt id='2105'>0.61464E+03</wgt>
<wgt id='2106'>0.63120E+03</wgt>
<wgt id='2107'>0.64791E+03</wgt>
<wgt id='2108'>0.67818E+03</wgt>
<wgt id='2109'>0.69712E+03</wgt>
<wgt id='2110'>0.72397E+03</wgt>
<wgt id='2111'>0.74259E+03</wgt>
<wgt id='3000'>0.71770E+03</wgt>
<wgt id='3001'>0.71889E+03</wgt>
<wgt id='3002'>0.71633E+03</wgt>
<wgt id='3003'>0.71797E+03</wgt>
<wgt id='3004'>0.71973E+03</wgt>
<wgt id='3005'>0.71829E+03</wgt>
<wgt id='3006'>0.71752E+03</wgt>
<wgt id='3007'>0.71826E+03</wgt>
<wgt id='3008'>0.71708E+03</wgt>
<wgt id='3009'>0.71827E+03</wgt>
<wgt id='3010'>0.71646E+03</wgt>
<wgt id='3011'>0.71733E+03</wgt>
<wgt id='3012'>0.71887E+03</wgt>
<wgt id='3013'>0.71694E+03</wgt>
<wgt id='3014'>0.71794E+03</wgt>
<wgt id='3015'>0.71794E+03</wgt>
<wgt id='3016'>0.71776E+03</wgt>
<wgt id='3017'>0.71767E+03</wgt>
<wgt id='3018'>0.71773E+03</wgt>
<wgt id='3019'>0.71884E+03</wgt>
<wgt id='3020'>0.71925E+03</wgt>
<wgt id='3021'>0.71913E+03</wgt>
<wgt id='3022'>0.71773E+03</wgt>
<wgt id='3023'>0.71831E+03</wgt>
<wgt id='3024'>0.71863E+03</wgt>
<wgt id='3025'>0.71867E+03</wgt>
<wgt id='3026'>0.71633E+03</wgt>
<wgt id='3027'>0.71819E+03</wgt>
<wgt id='3028'>0.71775E+03</wgt>
<wgt id='3029'>0.71575E+03</wgt>
<wgt id='3030'>0.72193E+03</wgt>
<wgt id='3031'>0.71988E+03</wgt>
<wgt id='3032'>0.71720E+03</wgt>
<wgt id='3033'>0.71872E+03</wgt>
<wgt id='3034'>0.71734E+03</wgt>
<wgt id='3035'>0.72093E+03</wgt>
<wgt id='3036'>0.71877E+03</wgt>
<wgt id='3037'>0.71728E+03</wgt>
<wgt id='3038'>0.71794E+03</wgt>
<wgt id='3039'>0.71872E+03</wgt>
<wgt id='3040'>0.71650E+03</wgt>
<wgt id='3041'>0.71784E+03</wgt>
<wgt id='3042'>0.71690E+03</wgt>
<wgt id='3043'>0.71643E+03</wgt>
<wgt id='3044'>0.71845E+03</wgt>
<wgt id='3045'>0.71844E+03</wgt>
<wgt id='3046'>0.71870E+03</wgt>
<wgt id='3047'>0.71768E+03</wgt>
<wgt id='3048'>0.71771E+03</wgt>
<wgt id='3049'>0.71735E+03</wgt>
<wgt id='3050'>0.71688E+03</wgt>
<wgt id='3051'>0.71901E+03</wgt>
<wgt id='3052'>0.71736E+03</wgt>
<wgt id='3053'>0.71765E+03</wgt>
<wgt id='3054'>0.71785E+03</wgt>
<wgt id='3055'>0.71738E+03</wgt>
<wgt id='3056'>0.71792E+03</wgt>
<wgt id='3057'>0.71777E+03</wgt>
<wgt id='3058'>0.71720E+03</wgt>
<wgt id='3059'>0.71788E+03</wgt>
<wgt id='3060'>0.71800E+03</wgt>
<wgt id='3061'>0.71827E+03</wgt>
<wgt id='3062'>0.71791E+03</wgt>
<wgt id='3063'>0.71790E+03</wgt>
<wgt id='3064'>0.71757E+03</wgt>
<wgt id='3065'>0.71774E+03</wgt>
<wgt id='3066'>0.71793E+03</wgt>
<wgt id='3067'>0.71721E+03</wgt>
<wgt id='3068'>0.71780E+03</wgt>
<wgt id='3069'>0.71726E+03</wgt>
<wgt id='3070'>0.71742E+03</wgt>
<wgt id='3071'>0.71765E+03</wgt>
<wgt id='3072'>0.71803E+03</wgt>
<wgt id='3073'>0.71762E+03</wgt>
<wgt id='3074'>0.71798E+03</wgt>
<wgt id='3075'>0.71793E+03</wgt>
<wgt id='3076'>0.71767E+03</wgt>
<wgt id='3077'>0.71760E+03</wgt>
<wgt id='3078'>0.71801E+03</wgt>
<wgt id='3079'>0.71752E+03</wgt>
<wgt id='3080'>0.71754E+03</wgt>
<wgt id='3081'>0.71760E+03</wgt>
<wgt id='3082'>0.71759E+03</wgt>
<wgt id='3083'>0.71769E+03</wgt>
<wgt id='3084'>0.71753E+03</wgt>
<wgt id='3085'>0.71784E+03</wgt>
<wgt id='3086'>0.71777E+03</wgt>
<wgt id='3087'>0.71762E+03</wgt>
<wgt id='3088'>0.71757E+03</wgt>
<wgt id='3089'>0.71775E+03</wgt>
<wgt id='3090'>0.71773E+03</wgt>
<wgt id='3091'>0.71764E+03</wgt>
<wgt id='3092'>0.71763E+03</wgt>
<wgt id='3093'>0.71776E+03</wgt>
<wgt id='3094'>0.71779E+03</wgt>
<wgt id='3095'>0.71775E+03</wgt>
<wgt id='3096'>0.71756E+03</wgt>
<wgt id='3097'>0.71754E+03</wgt>
<wgt id='3098'>0.71759E+03</wgt>
<wgt id='3099'>0.71778E+03</wgt>
<wgt id='3100'>0.71777E+03</wgt>
<wgt id='3101'>0.69789E+03</wgt>
<wgt id='3102'>0.73721E+03</wgt>
<wgt id='5000'>0.68319E+03</wgt>
<wgt id='5001'>0.68366E+03</wgt>
<wgt id='5002'>0.68436E+03</wgt>
<wgt id='5003'>0.68291E+03</wgt>
<wgt id='5004'>0.68187E+03</wgt>
<wgt id='5005'>0.67623E+03</wgt>
<wgt id='5006'>0.67223E+03</wgt>
<wgt id='5007'>0.67787E+03</wgt>
<wgt id='5008'>0.68525E+03</wgt>
<wgt id='5009'>0.68039E+03</wgt>
<wgt id='5010'>0.68289E+03</wgt>
<wgt id='5011'>0.68623E+03</wgt>
<wgt id='5012'>0.68094E+03</wgt>
<wgt id='5013'>0.69102E+03</wgt>
<wgt id='5014'>0.68591E+03</wgt>
<wgt id='5015'>0.68275E+03</wgt>
<wgt id='5016'>0.68382E+03</wgt>
<wgt id='5017'>0.67501E+03</wgt>
<wgt id='5018'>0.69177E+03</wgt>
<wgt id='5019'>0.68693E+03</wgt>
<wgt id='5020'>0.67924E+03</wgt>
<wgt id='5021'>0.68177E+03</wgt>
<wgt id='5022'>0.68406E+03</wgt>
<wgt id='5023'>0.67983E+03</wgt>
<wgt id='5024'>0.68685E+03</wgt>
<wgt id='5025'>0.68601E+03</wgt>
<wgt id='5026'>0.68085E+03</wgt>
<wgt id='5027'>0.68550E+03</wgt>
<wgt id='5028'>0.67921E+03</wgt>
<wgt id='5029'>0.68094E+03</wgt>
<wgt id='5030'>0.68446E+03</wgt>
<wgt id='5031'>0.68016E+03</wgt>
<wgt id='5032'>0.68754E+03</wgt>
<wgt id='5033'>0.68106E+03</wgt>
<wgt id='5034'>0.68517E+03</wgt>
<wgt id='5035'>0.68516E+03</wgt>
<wgt id='5036'>0.68098E+03</wgt>
<wgt id='5037'>0.66982E+03</wgt>
<wgt id='5038'>0.69826E+03</wgt>
<wgt id='5039'>0.69773E+03</wgt>
<wgt id='5040'>0.67541E+03</wgt>
<wgt id='5041'>0.68325E+03</wgt>
<wgt id='5042'>0.68295E+03</wgt>
<wgt id='5043'>0.68845E+03</wgt>
<wgt id='5044'>0.68032E+03</wgt>
<wgt id='5045'>0.68535E+03</wgt>
<wgt id='5046'>0.67141E+03</wgt>
<wgt id='5047'>0.68073E+03</wgt>
<wgt id='5048'>0.68098E+03</wgt>
<wgt id='5049'>0.68350E+03</wgt>
<wgt id='5050'>0.68273E+03</wgt>
<wgt id='5051'>0.68346E+03</wgt>
<wgt id='5052'>0.68246E+03</wgt>
<wgt id='5053'>0.66361E+03</wgt>
<wgt id='5054'>0.67656E+03</wgt>
<wgt id='5055'>0.67761E+03</wgt>
<wgt id='5056'>0.69308E+03</wgt>
<wgt id='5060'>0.66322E+03</wgt>
<wgt id='5070'>0.70346E+03</wgt>
<wgt id='4000'>0.69942E+03</wgt>
<wgt id='4001'>0.69858E+03</wgt>
<wgt id='4002'>0.70034E+03</wgt>
<wgt id='4003'>0.69174E+03</wgt>
<wgt id='4004'>0.69447E+03</wgt>
<wgt id='4005'>0.69920E+03</wgt>
<wgt id='4006'>0.70008E+03</wgt>
<wgt id='4007'>0.69960E+03</wgt>
<wgt id='4008'>0.69466E+03</wgt>
<wgt id='4009'>0.69821E+03</wgt>
<wgt id='4010'>0.70105E+03</wgt>
<wgt id='4011'>0.71008E+03</wgt>
<wgt id='4012'>0.69141E+03</wgt>
<wgt id='4013'>0.69475E+03</wgt>
<wgt id='4014'>0.70327E+03</wgt>
<wgt id='4015'>0.71268E+03</wgt>
<wgt id='4016'>0.69044E+03</wgt>
<wgt id='4017'>0.68786E+03</wgt>
<wgt id='4018'>0.71312E+03</wgt>
<wgt id='4019'>0.70399E+03</wgt>
<wgt id='4020'>0.69442E+03</wgt>
<wgt id='4021'>0.70102E+03</wgt>
<wgt id='4022'>0.69618E+03</wgt>
<wgt id='4023'>0.69904E+03</wgt>
<wgt id='4024'>0.69972E+03</wgt>
<wgt id='4025'>0.70772E+03</wgt>
<wgt id='4026'>0.69121E+03</wgt>
<wgt id='4027'>0.70088E+03</wgt>
<wgt id='4028'>0.69743E+03</wgt>
<wgt id='4029'>0.69954E+03</wgt>
<wgt id='4030'>0.69940E+03</wgt>
<wgt id='4031'>0.70139E+03</wgt>
<wgt id='4032'>0.69686E+03</wgt>
<wgt id='4033'>0.69595E+03</wgt>
<wgt id='4034'>0.70703E+03</wgt>
<wgt id='4035'>0.69214E+03</wgt>
<wgt id='4036'>0.70660E+03</wgt>
<wgt id='4037'>0.69837E+03</wgt>
<wgt id='4038'>0.70082E+03</wgt>
<wgt id='4039'>0.69821E+03</wgt>
<wgt id='4040'>0.70120E+03</wgt>
<wgt id='4041'>0.69790E+03</wgt>
<wgt id='4042'>0.70117E+03</wgt>
<wgt id='4043'>0.69497E+03</wgt>
<wgt id='4044'>0.70694E+03</wgt>
<wgt id='4045'>0.70053E+03</wgt>
<wgt id='4046'>0.70010E+03</wgt>
<wgt id='4047'>0.69769E+03</wgt>
<wgt id='4048'>0.69145E+03</wgt>
<wgt id='4049'>0.69135E+03</wgt>
<wgt id='4050'>0.69701E+03</wgt>
<wgt id='4051'>0.70076E+03</wgt>
<wgt id='4052'>0.69969E+03</wgt>
<wgt id='4053'>0.67589E+03</wgt>
<wgt id='4054'>0.70684E+03</wgt>
<wgt id='4055'>0.69436E+03</wgt>
<wgt id='4056'>0.70791E+03</wgt>
<wgt id='4060'>0.67947E+03</wgt>
<wgt id='4070'>0.71999E+03</wgt>
<wgt id='4080'>0.68069E+03</wgt>
<wgt id='6000'>0.71239E+03</wgt>
<wgt id='6001'>0.71280E+03</wgt>
<wgt id='6002'>0.71205E+03</wgt>
<wgt id='6003'>0.71298E+03</wgt>
<wgt id='6004'>0.71206E+03</wgt>
<wgt id='6005'>0.71599E+03</wgt>
<wgt id='6006'>0.70915E+03</wgt>
<wgt id='6007'>0.70977E+03</wgt>
<wgt id='6008'>0.71539E+03</wgt>
<wgt id='6009'>0.71356E+03</wgt>
<wgt id='6010'>0.71132E+03</wgt>
<wgt id='6011'>0.71325E+03</wgt>
<wgt id='6012'>0.71057E+03</wgt>
<wgt id='6013'>0.71208E+03</wgt>
<wgt id='6014'>0.71307E+03</wgt>
<wgt id='6015'>0.71120E+03</wgt>
<wgt id='6016'>0.71312E+03</wgt>
<wgt id='6017'>0.70939E+03</wgt>
<wgt id='6018'>0.71604E+03</wgt>
<wgt id='6019'>0.71286E+03</wgt>
<wgt id='6020'>0.71202E+03</wgt>
<wgt id='6021'>0.71097E+03</wgt>
<wgt id='6022'>0.71433E+03</wgt>
<wgt id='6023'>0.70806E+03</wgt>
<wgt id='6024'>0.71541E+03</wgt>
<wgt id='6025'>0.71230E+03</wgt>
<wgt id='6026'>0.71227E+03</wgt>
<wgt id='6027'>0.71314E+03</wgt>
<wgt id='6028'>0.71219E+03</wgt>
<wgt id='6029'>0.71123E+03</wgt>
<wgt id='6030'>0.71397E+03</wgt>
<wgt id='6031'>0.70629E+03</wgt>
<wgt id='6032'>0.71931E+03</wgt>
<wgt id='6033'>0.71550E+03</wgt>
<wgt id='6034'>0.70946E+03</wgt>
<wgt id='6035'>0.71339E+03</wgt>
<wgt id='6036'>0.71036E+03</wgt>
<wgt id='6037'>0.71320E+03</wgt>
<wgt id='6038'>0.71217E+03</wgt>
<wgt id='6039'>0.71078E+03</wgt>
<wgt id='6040'>0.71429E+03</wgt>
<wgt id='6041'>0.70764E+03</wgt>
<wgt id='6042'>0.71796E+03</wgt>
<wgt id='6043'>0.71902E+03</wgt>
<wgt id='6044'>0.70906E+03</wgt>
<wgt id='6045'>0.71156E+03</wgt>
<wgt id='6046'>0.71466E+03</wgt>
<wgt id='6047'>0.71710E+03</wgt>
<wgt id='6048'>0.70516E+03</wgt>
<wgt id='6049'>0.71430E+03</wgt>
<wgt id='6050'>0.71141E+03</wgt>
<wgt id='7000'>0.67929E+03</wgt>
<wgt id='7001'>0.67897E+03</wgt>
<wgt id='7002'>0.67967E+03</wgt>
<wgt id='7003'>0.68152E+03</wgt>
<wgt id='7004'>0.67706E+03</wgt>
<wgt id='7005'>0.68108E+03</wgt>
<wgt id='7006'>0.67861E+03</wgt>
<wgt id='7007'>0.67829E+03</wgt>
<wgt id='7008'>0.68028E+03</wgt>
<wgt id='7009'>0.67998E+03</wgt>
<wgt id='7010'>0.67862E+03</wgt>
<wgt id='7011'>0.67628E+03</wgt>
<wgt id='7012'>0.68058E+03</wgt>
<wgt id='7013'>0.67921E+03</wgt>
<wgt id='7014'>0.67937E+03</wgt>
<wgt id='7015'>0.67868E+03</wgt>
<wgt id='7016'>0.67996E+03</wgt>
<wgt id='7017'>0.67898E+03</wgt>
<wgt id='7018'>0.67950E+03</wgt>
<wgt id='7019'>0.67918E+03</wgt>
<wgt id='7020'>0.67949E+03</wgt>
<wgt id='7021'>0.67846E+03</wgt>
<wgt id='7022'>0.67989E+03</wgt>
<wgt id='7023'>0.68498E+03</wgt>
<wgt id='7024'>0.67389E+03</wgt>
<wgt id='7025'>0.68128E+03</wgt>
<wgt id='7026'>0.67433E+03</wgt>
<wgt id='7027'>0.68016E+03</wgt>
<wgt id='7028'>0.67837E+03</wgt>
<wgt id='7029'>0.68051E+03</wgt>
<wgt id='7030'>0.67662E+03</wgt>
<wgt id='7031'>0.67667E+03</wgt>
<wgt id='7032'>0.68478E+03</wgt>
<wgt id='7033'>0.67992E+03</wgt>
<wgt id='7034'>0.67804E+03</wgt>
<wgt id='7035'>0.67598E+03</wgt>
<wgt id='7036'>0.68077E+03</wgt>
<wgt id='7037'>0.67918E+03</wgt>
<wgt id='7038'>0.67930E+03</wgt>
<wgt id='7039'>0.67712E+03</wgt>
<wgt id='7040'>0.68095E+03</wgt>
<wgt id='7041'>0.68025E+03</wgt>
<wgt id='7042'>0.67738E+03</wgt>
<wgt id='7043'>0.67995E+03</wgt>
<wgt id='7044'>0.67570E+03</wgt>
<wgt id='7045'>0.67148E+03</wgt>
<wgt id='7046'>0.68410E+03</wgt>
<wgt id='7047'>0.68223E+03</wgt>
<wgt id='7048'>0.67796E+03</wgt>
<wgt id='7049'>0.67657E+03</wgt>
<wgt id='7050'>0.68041E+03</wgt>
<wgt id='7060'>0.90525E+03</wgt>
<wgt id='8000'>0.68271E+03</wgt>
<wgt id='8001'>0.68261E+03</wgt>
<wgt id='8002'>0.68291E+03</wgt>
<wgt id='8003'>0.68274E+03</wgt>
<wgt id='8004'>0.68269E+03</wgt>
<wgt id='8005'>0.68142E+03</wgt>
<wgt id='8006'>0.68324E+03</wgt>
<wgt id='8007'>0.68370E+03</wgt>
<wgt id='8008'>0.68416E+03</wgt>
<wgt id='8009'>0.68548E+03</wgt>
<wgt id='8010'>0.68207E+03</wgt>
<wgt id='8011'>0.68278E+03</wgt>
<wgt id='8012'>0.68049E+03</wgt>
<wgt id='8013'>0.68154E+03</wgt>
<wgt id='8014'>0.68402E+03</wgt>
<wgt id='8015'>0.68229E+03</wgt>
<wgt id='8016'>0.68334E+03</wgt>
<wgt id='8017'>0.68313E+03</wgt>
<wgt id='8018'>0.68426E+03</wgt>
<wgt id='8019'>0.68300E+03</wgt>
<wgt id='8020'>0.68251E+03</wgt>
<wgt id='8021'>0.68211E+03</wgt>
<wgt id='8022'>0.68231E+03</wgt>
<wgt id='8023'>0.68192E+03</wgt>
<wgt id='8024'>0.68077E+03</wgt>
<wgt id='8025'>0.68228E+03</wgt>
<wgt id='8026'>0.68355E+03</wgt>
<wgt id='8027'>0.68301E+03</wgt>
<wgt id='8028'>0.68320E+03</wgt>
<wgt id='8029'>0.68346E+03</wgt>
<wgt id='8500'>0.71349E+03</wgt>
<wgt id='8501'>0.70872E+03</wgt>
<wgt id='8502'>0.71807E+03</wgt>
<wgt id='8503'>0.71597E+03</wgt>
<wgt id='8504'>0.71024E+03</wgt>
<wgt id='8505'>0.71242E+03</wgt>
<wgt id='8506'>0.71601E+03</wgt>
<wgt id='8507'>0.70910E+03</wgt>
<wgt id='8508'>0.70675E+03</wgt>
<wgt id='8509'>0.71612E+03</wgt>
<wgt id='8510'>0.72022E+03</wgt>
<wgt id='8511'>0.71234E+03</wgt>
<wgt id='8512'>0.71282E+03</wgt>
<wgt id='8513'>0.71387E+03</wgt>
<wgt id='8514'>0.70701E+03</wgt>
<wgt id='8515'>0.71747E+03</wgt>
<wgt id='8516'>0.71220E+03</wgt>
<wgt id='8517'>0.71245E+03</wgt>
<wgt id='8518'>0.70880E+03</wgt>
<wgt id='8519'>0.70741E+03</wgt>
<wgt id='8520'>0.71134E+03</wgt>
<wgt id='8521'>0.71126E+03</wgt>
<wgt id='8522'>0.71628E+03</wgt>
<wgt id='8523'>0.71064E+03</wgt>
<wgt id='8524'>0.71515E+03</wgt>
<wgt id='8525'>0.71441E+03</wgt>
<wgt id='8526'>0.71249E+03</wgt>
<wgt id='8527'>0.71330E+03</wgt>
<wgt id='8528'>0.71245E+03</wgt>
<wgt id='8529'>0.71327E+03</wgt>
<wgt id='8530'>0.71386E+03</wgt>
<wgt id='8531'>0.71335E+03</wgt>
<wgt id='8532'>0.71348E+03</wgt>
<wgt id='8533'>0.71220E+03</wgt>
<wgt id='8534'>0.71381E+03</wgt>
<wgt id='8535'>0.71492E+03</wgt>
<wgt id='8536'>0.71277E+03</wgt>
<wgt id='8537'>0.71357E+03</wgt>
<wgt id='8538'>0.71309E+03</wgt>
<wgt id='8539'>0.71387E+03</wgt>
<wgt id='8540'>0.71389E+03</wgt>
<wgt id='8541'>0.71407E+03</wgt>
<wgt id='8542'>0.71386E+03</wgt>
<wgt id='8543'>0.71291E+03</wgt>
<wgt id='8544'>0.71452E+03</wgt>
<wgt id='8545'>0.71391E+03</wgt>
<wgt id='8546'>0.71428E+03</wgt>
<wgt id='8547'>0.71281E+03</wgt>
<wgt id='8548'>0.71299E+03</wgt>
<wgt id='8549'>0.71382E+03</wgt>
<wgt id='8550'>0.71298E+03</wgt>
<wgt id='8551'>0.71314E+03</wgt>
<wgt id='8552'>0.71312E+03</wgt>
<wgt id='8553'>0.71263E+03</wgt>
<wgt id='8554'>0.71311E+03</wgt>
<wgt id='8555'>0.71352E+03</wgt>
<wgt id='8556'>0.71329E+03</wgt>
<wgt id='8557'>0.71366E+03</wgt>
<wgt id='8558'>0.71428E+03</wgt>
<wgt id='8559'>0.71334E+03</wgt>
<wgt id='8560'>0.71266E+03</wgt>
<wgt id='8561'>0.71383E+03</wgt>
<wgt id='8562'>0.71309E+03</wgt>
<wgt id='8563'>0.71349E+03</wgt>
<wgt id='8564'>0.71323E+03</wgt>
<wgt id='8565'>0.71366E+03</wgt>
<wgt id='8566'>0.71379E+03</wgt>
<wgt id='8567'>0.71351E+03</wgt>
<wgt id='8568'>0.71395E+03</wgt>
<wgt id='8569'>0.71380E+03</wgt>
<wgt id='8570'>0.71327E+03</wgt>
<wgt id='8571'>0.71293E+03</wgt>
<wgt id='8572'>0.71307E+03</wgt>
<wgt id='8573'>0.71312E+03</wgt>
<wgt id='8574'>0.71323E+03</wgt>
<wgt id='8575'>0.71335E+03</wgt>
<wgt id='8576'>0.71349E+03</wgt>
<wgt id='8577'>0.71310E+03</wgt>
<wgt id='8578'>0.71344E+03</wgt>
<wgt id='8579'>0.71399E+03</wgt>
<wgt id='8580'>0.71336E+03</wgt>
<wgt id='8581'>0.71379E+03</wgt>
<wgt id='8582'>0.71311E+03</wgt>
<wgt id='8583'>0.71374E+03</wgt>
<wgt id='8584'>0.71393E+03</wgt>
<wgt id='8585'>0.71372E+03</wgt>
<wgt id='8586'>0.71420E+03</wgt>
<wgt id='8587'>0.71362E+03</wgt>
<wgt id='8588'>0.71348E+03</wgt>
<wgt id='8589'>0.71347E+03</wgt>
<wgt id='8590'>0.71352E+03</wgt>
<wgt id='8591'>0.71315E+03</wgt>
<wgt id='8592'>0.71342E+03</wgt>
<wgt id='8593'>0.71328E+03</wgt>
<wgt id='8594'>0.71339E+03</wgt>
<wgt id='8595'>0.71344E+03</wgt>
<wgt id='8596'>0.71337E+03</wgt>
<wgt id='8597'>0.71365E+03</wgt>
<wgt id='8598'>0.71365E+03</wgt>
<wgt id='8599'>0.71358E+03</wgt>
<wgt id='8600'>0.71350E+03</wgt>
<wgt id='8601'>0.70106E+03</wgt>
<wgt id='8602'>0.72587E+03</wgt>
<wgt id='9000'>0.68383E+03</wgt>
<wgt id='9001'>0.68434E+03</wgt>
<wgt id='9002'>0.68549E+03</wgt>
<wgt id='9003'>0.68078E+03</wgt>
<wgt id='9004'>0.68489E+03</wgt>
<wgt id='9005'>0.68768E+03</wgt>
<wgt id='9006'>0.68413E+03</wgt>
<wgt id='9007'>0.68168E+03</wgt>
<wgt id='9008'>0.68338E+03</wgt>
<wgt id='9009'>0.68414E+03</wgt>
<wgt id='9010'>0.68165E+03</wgt>
<wgt id='9011'>0.68845E+03</wgt>
<wgt id='9012'>0.68498E+03</wgt>
<wgt id='9013'>0.68237E+03</wgt>
<wgt id='9014'>0.68337E+03</wgt>
<wgt id='9015'>0.68083E+03</wgt>
<wgt id='9016'>0.68774E+03</wgt>
<wgt id='9017'>0.67995E+03</wgt>
<wgt id='9018'>0.68554E+03</wgt>
<wgt id='9019'>0.68596E+03</wgt>
<wgt id='9020'>0.68976E+03</wgt>
<wgt id='9021'>0.68273E+03</wgt>
<wgt id='9022'>0.68510E+03</wgt>
<wgt id='9023'>0.67975E+03</wgt>
<wgt id='9024'>0.68145E+03</wgt>
<wgt id='9025'>0.68651E+03</wgt>
<wgt id='9026'>0.68384E+03</wgt>
<wgt id='9027'>0.68327E+03</wgt>
<wgt id='9028'>0.68468E+03</wgt>
<wgt id='9029'>0.68400E+03</wgt>
<wgt id='9030'>0.68393E+03</wgt>
<wgt id='9031'>0.68347E+03</wgt>
<wgt id='9032'>0.68431E+03</wgt>
<wgt id='9033'>0.68461E+03</wgt>
<wgt id='9034'>0.68383E+03</wgt>
<wgt id='9035'>0.68453E+03</wgt>
<wgt id='9036'>0.68404E+03</wgt>
<wgt id='9037'>0.68445E+03</wgt>
<wgt id='9038'>0.68427E+03</wgt>
<wgt id='9039'>0.68397E+03</wgt>
<wgt id='9040'>0.68307E+03</wgt>
<wgt id='9041'>0.68387E+03</wgt>
<wgt id='9042'>0.68425E+03</wgt>
<wgt id='9043'>0.68310E+03</wgt>
<wgt id='9044'>0.68404E+03</wgt>
<wgt id='9045'>0.68421E+03</wgt>
<wgt id='9046'>0.68291E+03</wgt>
<wgt id='9047'>0.68391E+03</wgt>
<wgt id='9048'>0.68430E+03</wgt>
<wgt id='9049'>0.68347E+03</wgt>
<wgt id='9050'>0.68388E+03</wgt>
<wgt id='9051'>0.68423E+03</wgt>
<wgt id='9052'>0.68435E+03</wgt>
<wgt id='9053'>0.68381E+03</wgt>
<wgt id='9054'>0.68339E+03</wgt>
<wgt id='9055'>0.68345E+03</wgt>
<wgt id='9056'>0.68427E+03</wgt>
<wgt id='9057'>0.68384E+03</wgt>
<wgt id='9058'>0.68314E+03</wgt>
<wgt id='9059'>0.68341E+03</wgt>
<wgt id='9060'>0.68354E+03</wgt>
<wgt id='9061'>0.68386E+03</wgt>
<wgt id='9062'>0.68394E+03</wgt>
<wgt id='9063'>0.68400E+03</wgt>
<wgt id='9064'>0.68393E+03</wgt>
<wgt id='9065'>0.68367E+03</wgt>
<wgt id='9066'>0.68373E+03</wgt>
<wgt id='9067'>0.68406E+03</wgt>
<wgt id='9068'>0.68394E+03</wgt>
<wgt id='9069'>0.68440E+03</wgt>
<wgt id='9070'>0.68367E+03</wgt>
<wgt id='9071'>0.68431E+03</wgt>
<wgt id='9072'>0.68432E+03</wgt>
<wgt id='9073'>0.68368E+03</wgt>
<wgt id='9074'>0.68393E+03</wgt>
<wgt id='9075'>0.68374E+03</wgt>
<wgt id='9076'>0.68380E+03</wgt>
<wgt id='9077'>0.68402E+03</wgt>
<wgt id='9078'>0.68390E+03</wgt>
<wgt id='9079'>0.68374E+03</wgt>
<wgt id='9080'>0.68451E+03</wgt>
<wgt id='9081'>0.68387E+03</wgt>
<wgt id='9082'>0.68406E+03</wgt>
<wgt id='9083'>0.68363E+03</wgt>
<wgt id='9084'>0.68354E+03</wgt>
<wgt id='9085'>0.68349E+03</wgt>
<wgt id='9086'>0.68403E+03</wgt>
<wgt id='9087'>0.68313E+03</wgt>
<wgt id='9088'>0.68353E+03</wgt>
<wgt id='9089'>0.68355E+03</wgt>
<wgt id='9090'>0.68393E+03</wgt>
<wgt id='9091'>0.68367E+03</wgt>
<wgt id='9092'>0.68375E+03</wgt>
<wgt id='9093'>0.68365E+03</wgt>
<wgt id='9094'>0.68366E+03</wgt>
<wgt id='9095'>0.68390E+03</wgt>
<wgt id='9096'>0.68371E+03</wgt>
<wgt id='9097'>0.68391E+03</wgt>
<wgt id='9098'>0.68377E+03</wgt>
<wgt id='9099'>0.68366E+03</wgt>
<wgt id='9100'>0.68385E+03</wgt>
<wgt id='9101'>0.67240E+03</wgt>
<wgt id='9102'>0.69532E+03</wgt>
<wgt id='10000'>0.71332E+03</wgt>
<wgt id='10001'>0.71651E+03</wgt>
<wgt id='10002'>0.70771E+03</wgt>
<wgt id='10003'>0.71305E+03</wgt>
<wgt id='10004'>0.70474E+03</wgt>
<wgt id='10005'>0.71821E+03</wgt>
<wgt id='10006'>0.70961E+03</wgt>
<wgt id='10007'>0.71334E+03</wgt>
<wgt id='10008'>0.71452E+03</wgt>
<wgt id='10009'>0.70971E+03</wgt>
<wgt id='10010'>0.71494E+03</wgt>
<wgt id='10011'>0.70882E+03</wgt>
<wgt id='10012'>0.71193E+03</wgt>
<wgt id='10013'>0.71402E+03</wgt>
<wgt id='10014'>0.71276E+03</wgt>
<wgt id='10015'>0.71375E+03</wgt>
<wgt id='10016'>0.71101E+03</wgt>
<wgt id='10017'>0.71691E+03</wgt>
<wgt id='10018'>0.71504E+03</wgt>
<wgt id='10019'>0.70898E+03</wgt>
<wgt id='10020'>0.71158E+03</wgt>
<wgt id='10021'>0.71261E+03</wgt>
<wgt id='10022'>0.71276E+03</wgt>
<wgt id='10023'>0.71403E+03</wgt>
<wgt id='10024'>0.71279E+03</wgt>
<wgt id='10025'>0.71276E+03</wgt>
<wgt id='10026'>0.71614E+03</wgt>
<wgt id='10027'>0.71462E+03</wgt>
<wgt id='10028'>0.72256E+03</wgt>
<wgt id='10029'>0.71381E+03</wgt>
<wgt id='10030'>0.71285E+03</wgt>
<wgt id='10031'>0.70106E+03</wgt>
<wgt id='10032'>0.72587E+03</wgt>
<wgt id='11000'>0.68366E+03</wgt>
<wgt id='11001'>0.67255E+03</wgt>
<wgt id='11002'>0.68436E+03</wgt>
<wgt id='11003'>0.68350E+03</wgt>
<wgt id='11004'>0.68368E+03</wgt>
<wgt id='11005'>0.68260E+03</wgt>
<wgt id='11006'>0.68375E+03</wgt>
<wgt id='11007'>0.68322E+03</wgt>
<wgt id='11008'>0.68360E+03</wgt>
<wgt id='11009'>0.68233E+03</wgt>
<wgt id='11010'>0.68224E+03</wgt>
<wgt id='11011'>0.68191E+03</wgt>
<wgt id='11012'>0.68356E+03</wgt>
<wgt id='11013'>0.68497E+03</wgt>
<wgt id='11014'>0.68262E+03</wgt>
<wgt id='11015'>0.68272E+03</wgt>
<wgt id='11016'>0.68388E+03</wgt>
<wgt id='11017'>0.68614E+03</wgt>
<wgt id='11018'>0.68374E+03</wgt>
<wgt id='11019'>0.68377E+03</wgt>
<wgt id='11020'>0.68426E+03</wgt>
<wgt id='11021'>0.68487E+03</wgt>
<wgt id='11022'>0.68909E+03</wgt>
<wgt id='11023'>0.68366E+03</wgt>
<wgt id='11024'>0.68304E+03</wgt>
<wgt id='11025'>0.68267E+03</wgt>
<wgt id='11026'>0.68357E+03</wgt>
<wgt id='11027'>0.68413E+03</wgt>
<wgt id='11028'>0.68341E+03</wgt>
<wgt id='11029'>0.68104E+03</wgt>
<wgt id='11030'>0.68378E+03</wgt>
<wgt id='11031'>0.67240E+03</wgt>
<wgt id='11032'>0.69532E+03</wgt>
<wgt id='12000'>0.67777E+03</wgt>
<wgt id='12001'>0.67688E+03</wgt>
<wgt id='12002'>0.67866E+03</wgt>
<wgt id='12003'>0.67843E+03</wgt>
<wgt id='12004'>0.67712E+03</wgt>
<wgt id='12005'>0.67871E+03</wgt>
<wgt id='12006'>0.67684E+03</wgt>
<wgt id='12007'>0.68087E+03</wgt>
<wgt id='12008'>0.67474E+03</wgt>
<wgt id='12009'>0.67730E+03</wgt>
<wgt id='12010'>0.67827E+03</wgt>
<wgt id='12011'>0.67385E+03</wgt>
<wgt id='12012'>0.68210E+03</wgt>
<wgt id='12013'>0.67578E+03</wgt>
<wgt id='12014'>0.67980E+03</wgt>
<wgt id='12015'>0.67974E+03</wgt>
<wgt id='12016'>0.67474E+03</wgt>
<wgt id='12017'>0.68064E+03</wgt>
<wgt id='12018'>0.67574E+03</wgt>
<wgt id='12019'>0.67870E+03</wgt>
<wgt id='12020'>0.67643E+03</wgt>
<wgt id='12021'>0.67895E+03</wgt>
<wgt id='12022'>0.67642E+03</wgt>
<wgt id='12023'>0.67204E+03</wgt>
<wgt id='12024'>0.68207E+03</wgt>
<wgt id='12025'>0.67516E+03</wgt>
<wgt id='12026'>0.68083E+03</wgt>
<wgt id='12027'>0.68542E+03</wgt>
<wgt id='12028'>0.67089E+03</wgt>
<wgt id='12050'>0.67777E+03</wgt>
<wgt id='12051'>0.67845E+03</wgt>
<wgt id='12052'>0.67260E+03</wgt>
<wgt id='12053'>0.67848E+03</wgt>
<wgt id='12054'>0.67380E+03</wgt>
<wgt id='12055'>0.67497E+03</wgt>
<wgt id='12056'>0.68073E+03</wgt>
<wgt id='12057'>0.67566E+03</wgt>
<wgt id='12058'>0.67713E+03</wgt>
<wgt id='12059'>0.67951E+03</wgt>
<wgt id='12060'>0.67319E+03</wgt>
<wgt id='12061'>0.67310E+03</wgt>
<wgt id='12062'>0.67546E+03</wgt>
<wgt id='12063'>0.67640E+03</wgt>
<wgt id='13000'>0.67811E+03</wgt>
<wgt id='13001'>0.67498E+03</wgt>
<wgt id='13002'>0.67631E+03</wgt>
<wgt id='13003'>0.67565E+03</wgt>
<wgt id='13004'>0.67565E+03</wgt>
<wgt id='13005'>0.67659E+03</wgt>
<wgt id='13006'>0.67470E+03</wgt>
<wgt id='13007'>0.67953E+03</wgt>
<wgt id='13008'>0.67187E+03</wgt>
<wgt id='13009'>0.67323E+03</wgt>
<wgt id='13010'>0.67816E+03</wgt>
<wgt id='13011'>0.67784E+03</wgt>
<wgt id='13012'>0.67348E+03</wgt>
<wgt id='13013'>0.67451E+03</wgt>
<wgt id='13014'>0.67673E+03</wgt>
<wgt id='13015'>0.67541E+03</wgt>
<wgt id='13016'>0.67434E+03</wgt>
<wgt id='13017'>0.67550E+03</wgt>
<wgt id='13018'>0.67580E+03</wgt>
<wgt id='13019'>0.67521E+03</wgt>
<wgt id='13020'>0.67614E+03</wgt>
<wgt id='13021'>0.67739E+03</wgt>
<wgt id='13022'>0.67367E+03</wgt>
<wgt id='13023'>0.67200E+03</wgt>
<wgt id='13024'>0.67936E+03</wgt>
<wgt id='13025'>0.66759E+03</wgt>
<wgt id='13026'>0.68295E+03</wgt>
<wgt id='13027'>0.67248E+03</wgt>
<wgt id='13028'>0.67933E+03</wgt>
<wgt id='13050'>0.67811E+03</wgt>
<wgt id='13051'>0.67772E+03</wgt>
<wgt id='13052'>0.67010E+03</wgt>
<wgt id='13053'>0.67739E+03</wgt>
<wgt id='13054'>0.67417E+03</wgt>
<wgt id='13055'>0.66445E+03</wgt>
<wgt id='13056'>0.67542E+03</wgt>
<wgt id='13057'>0.67480E+03</wgt>
<wgt id='13058'>0.67819E+03</wgt>
<wgt id='13059'>0.67814E+03</wgt>
<wgt id='13060'>0.66004E+03</wgt>
<wgt id='13061'>0.67521E+03</wgt>
<wgt id='13062'>0.67820E+03</wgt>
<wgt id='13063'>0.67935E+03</wgt>
<wgt id='14000'>0.69877E+03</wgt>
<wgt id='14001'>0.69868E+03</wgt>
<wgt id='14002'>0.69859E+03</wgt>
<wgt id='14003'>0.69851E+03</wgt>
<wgt id='14004'>0.69842E+03</wgt>
<wgt id='14005'>0.69833E+03</wgt>
<wgt id='14006'>0.69824E+03</wgt>
<wgt id='14007'>0.69816E+03</wgt>
<wgt id='14008'>0.69807E+03</wgt>
<wgt id='14009'>0.69798E+03</wgt>
<wgt id='14010'>0.69789E+03</wgt>
<wgt id='14011'>0.69780E+03</wgt>
<wgt id='14012'>0.69772E+03</wgt>
<wgt id='14013'>0.69763E+03</wgt>
<wgt id='14014'>0.69754E+03</wgt>
<wgt id='14015'>0.69746E+03</wgt>
<wgt id='14016'>0.69737E+03</wgt>
<wgt id='14017'>0.69728E+03</wgt>
<wgt id='14018'>0.69719E+03</wgt>
<wgt id='14019'>0.69710E+03</wgt>
<wgt id='14020'>0.69701E+03</wgt>
<wgt id='14021'>0.69693E+03</wgt>
<wgt id='14022'>0.69684E+03</wgt>
<wgt id='14023'>0.69675E+03</wgt>
<wgt id='14024'>0.69666E+03</wgt>
<wgt id='14025'>0.69658E+03</wgt>
<wgt id='14026'>0.69649E+03</wgt>
<wgt id='14027'>0.69640E+03</wgt>
<wgt id='14028'>0.69631E+03</wgt>
<wgt id='14029'>0.69622E+03</wgt>
<wgt id='14030'>0.69614E+03</wgt>
<wgt id='15000'>0.67561E+03</wgt>
<wgt id='15001'>0.67620E+03</wgt>
<wgt id='15002'>0.67718E+03</wgt>
<wgt id='15003'>0.67269E+03</wgt>
<wgt id='15004'>0.67671E+03</wgt>
<wgt id='15005'>0.67946E+03</wgt>
<wgt id='15006'>0.67590E+03</wgt>
<wgt id='15007'>0.67338E+03</wgt>
<wgt id='15008'>0.67514E+03</wgt>
<wgt id='15009'>0.67595E+03</wgt>
<wgt id='15010'>0.67352E+03</wgt>
<wgt id='15011'>0.68007E+03</wgt>
<wgt id='15012'>0.67673E+03</wgt>
<wgt id='15013'>0.67422E+03</wgt>
<wgt id='15014'>0.67511E+03</wgt>
<wgt id='15015'>0.67263E+03</wgt>
<wgt id='15016'>0.67940E+03</wgt>
<wgt id='15017'>0.67181E+03</wgt>
<wgt id='15018'>0.67731E+03</wgt>
<wgt id='15019'>0.67767E+03</wgt>
<wgt id='15020'>0.68144E+03</wgt>
<wgt id='15021'>0.67449E+03</wgt>
<wgt id='15022'>0.67692E+03</wgt>
<wgt id='15023'>0.67150E+03</wgt>
<wgt id='15024'>0.67325E+03</wgt>
<wgt id='15025'>0.67829E+03</wgt>
<wgt id='15026'>0.67565E+03</wgt>
<wgt id='15027'>0.67501E+03</wgt>
<wgt id='15028'>0.67645E+03</wgt>
<wgt id='15029'>0.67581E+03</wgt>
<wgt id='15030'>0.67575E+03</wgt>
<wgt id='15031'>0.67522E+03</wgt>
<wgt id='15032'>0.67610E+03</wgt>
<wgt id='15033'>0.67641E+03</wgt>
<wgt id='15034'>0.67560E+03</wgt>
<wgt id='15035'>0.67633E+03</wgt>
<wgt id='15036'>0.67581E+03</wgt>
<wgt id='15037'>0.67624E+03</wgt>
<wgt id='15038'>0.67605E+03</wgt>
<wgt id='15039'>0.67577E+03</wgt>
<wgt id='15040'>0.67485E+03</wgt>
<wgt id='15041'>0.67563E+03</wgt>
<wgt id='15042'>0.67600E+03</wgt>
<wgt id='15043'>0.67488E+03</wgt>
<wgt id='15044'>0.67582E+03</wgt>
<wgt id='15045'>0.67595E+03</wgt>
<wgt id='15046'>0.67468E+03</wgt>
<wgt id='15047'>0.67566E+03</wgt>
<wgt id='15048'>0.67607E+03</wgt>
<wgt id='15049'>0.67524E+03</wgt>
<wgt id='15050'>0.67566E+03</wgt>
<wgt id='15051'>0.67602E+03</wgt>
<wgt id='15052'>0.67612E+03</wgt>
<wgt id='15053'>0.67561E+03</wgt>
<wgt id='15054'>0.67517E+03</wgt>
<wgt id='15055'>0.67522E+03</wgt>
<wgt id='15056'>0.67606E+03</wgt>
<wgt id='15057'>0.67561E+03</wgt>
<wgt id='15058'>0.67493E+03</wgt>
<wgt id='15059'>0.67519E+03</wgt>
<wgt id='15060'>0.67531E+03</wgt>
<wgt id='15061'>0.67564E+03</wgt>
<wgt id='15062'>0.67571E+03</wgt>
<wgt id='15063'>0.67580E+03</wgt>
<wgt id='15064'>0.67568E+03</wgt>
<wgt id='15065'>0.67546E+03</wgt>
<wgt id='15066'>0.67552E+03</wgt>
<wgt id='15067'>0.67584E+03</wgt>
<wgt id='15068'>0.67571E+03</wgt>
<wgt id='15069'>0.67618E+03</wgt>
<wgt id='15070'>0.67545E+03</wgt>
<wgt id='15071'>0.67609E+03</wgt>
<wgt id='15072'>0.67611E+03</wgt>
<wgt id='15073'>0.67545E+03</wgt>
<wgt id='15074'>0.67571E+03</wgt>
<wgt id='15075'>0.67551E+03</wgt>
<wgt id='15076'>0.67558E+03</wgt>
<wgt id='15077'>0.67580E+03</wgt>
<wgt id='15078'>0.67568E+03</wgt>
<wgt id='15079'>0.67552E+03</wgt>
<wgt id='15080'>0.67628E+03</wgt>
<wgt id='15081'>0.67564E+03</wgt>
<wgt id='15082'>0.67583E+03</wgt>
<wgt id='15083'>0.67540E+03</wgt>
<wgt id='15084'>0.67532E+03</wgt>
<wgt id='15085'>0.67528E+03</wgt>
<wgt id='15086'>0.67580E+03</wgt>
<wgt id='15087'>0.67492E+03</wgt>
<wgt id='15088'>0.67531E+03</wgt>
<wgt id='15089'>0.67534E+03</wgt>
<wgt id='15090'>0.67571E+03</wgt>
<wgt id='15091'>0.67545E+03</wgt>
<wgt id='15092'>0.67553E+03</wgt>
<wgt id='15093'>0.67543E+03</wgt>
<wgt id='15094'>0.67545E+03</wgt>
<wgt id='15095'>0.67568E+03</wgt>
<wgt id='15096'>0.67548E+03</wgt>
<wgt id='15097'>0.67568E+03</wgt>
<wgt id='15098'>0.67555E+03</wgt>
<wgt id='15099'>0.67543E+03</wgt>
<wgt id='15100'>0.67562E+03</wgt>
<wgt id='15101'>0.67560E+03</wgt>
<wgt id='15102'>0.67556E+03</wgt>
<wgt id='15103'>0.67562E+03</wgt>
<wgt id='15104'>0.67562E+03</wgt>
<wgt id='15105'>0.67563E+03</wgt>
<wgt id='15106'>0.67561E+03</wgt>
<wgt id='15107'>0.67558E+03</wgt>
<wgt id='1500'>0.72824E+03</wgt>
<wgt id='1501'>0.70901E+03</wgt>
<wgt id='1502'>0.73650E+03</wgt>
<wgt id='1503'>0.74124E+03</wgt>
<wgt id='1504'>0.70946E+03</wgt>
<wgt id='1505'>0.69382E+03</wgt>
<wgt id='1506'>0.73091E+03</wgt>
<wgt id='1507'>0.73053E+03</wgt>
<wgt id='1508'>0.72621E+03</wgt>
<wgt id='1509'>0.73742E+03</wgt>
<wgt id='1510'>0.72215E+03</wgt>
<wgt id='1511'>0.70270E+03</wgt>
<wgt id='1512'>0.73572E+03</wgt>
<wgt id='1513'>0.72103E+03</wgt>
<wgt id='1514'>0.72846E+03</wgt>
<wgt id='1515'>0.73902E+03</wgt>
<wgt id='1516'>0.74268E+03</wgt>
<wgt id='1517'>0.73643E+03</wgt>
<wgt id='1518'>0.73737E+03</wgt>
<wgt id='1519'>0.72979E+03</wgt>
<wgt id='1520'>0.75403E+03</wgt>
<wgt id='1521'>0.72749E+03</wgt>
<wgt id='1522'>0.71978E+03</wgt>
<wgt id='1523'>0.75638E+03</wgt>
<wgt id='1524'>0.72276E+03</wgt>
<wgt id='1525'>0.72583E+03</wgt>
<wgt id='1526'>0.72047E+03</wgt>
<wgt id='1527'>0.73954E+03</wgt>
<wgt id='1528'>0.72573E+03</wgt>
<wgt id='1529'>0.74012E+03</wgt>
<wgt id='1530'>0.74459E+03</wgt>
<wgt id='1531'>0.71732E+03</wgt>
<wgt id='1532'>0.71167E+03</wgt>
<wgt id='1533'>0.72375E+03</wgt>
<wgt id='1534'>0.72349E+03</wgt>
<wgt id='1535'>0.75160E+03</wgt>
<wgt id='1536'>0.73106E+03</wgt>
<wgt id='1537'>0.73864E+03</wgt>
<wgt id='1538'>0.72037E+03</wgt>
<wgt id='1539'>0.71435E+03</wgt>
<wgt id='1540'>0.72080E+03</wgt>
<wgt id='1541'>0.72510E+03</wgt>
<wgt id='1542'>0.72763E+03</wgt>
<wgt id='1543'>0.71919E+03</wgt>
<wgt id='1544'>0.72825E+03</wgt>
<wgt id='1545'>0.73611E+03</wgt>
<wgt id='1546'>0.73121E+03</wgt>
<wgt id='1547'>0.72170E+03</wgt>
<wgt id='1548'>0.72382E+03</wgt>
<wgt id='1549'>0.73501E+03</wgt>
<wgt id='1550'>0.72327E+03</wgt>
<wgt id='1551'>0.72209E+03</wgt>
<wgt id='1552'>0.72525E+03</wgt>
<wgt id='1553'>0.73706E+03</wgt>
<wgt id='1554'>0.71503E+03</wgt>
<wgt id='1555'>0.72031E+03</wgt>
<wgt id='1556'>0.72671E+03</wgt>
<wgt id='1557'>0.73643E+03</wgt>
<wgt id='1558'>0.71873E+03</wgt>
<wgt id='1559'>0.74889E+03</wgt>
<wgt id='1560'>0.72405E+03</wgt>
<wgt id='1561'>0.73011E+03</wgt>
<wgt id='1562'>0.73923E+03</wgt>
<wgt id='1563'>0.71982E+03</wgt>
<wgt id='1564'>0.73224E+03</wgt>
<wgt id='1565'>0.72984E+03</wgt>
<wgt id='1566'>0.72433E+03</wgt>
<wgt id='1567'>0.76626E+03</wgt>
<wgt id='1568'>0.72450E+03</wgt>
<wgt id='1569'>0.71000E+03</wgt>
<wgt id='1570'>0.71520E+03</wgt>
<wgt id='1571'>0.72574E+03</wgt>
<wgt id='1572'>0.72640E+03</wgt>
<wgt id='1573'>0.70325E+03</wgt>
<wgt id='1574'>0.73680E+03</wgt>
<wgt id='1575'>0.72441E+03</wgt>
<wgt id='1576'>0.70523E+03</wgt>
<wgt id='1577'>0.71781E+03</wgt>
<wgt id='1578'>0.73814E+03</wgt>
<wgt id='1579'>0.72452E+03</wgt>
<wgt id='1580'>0.72194E+03</wgt>
<wgt id='1581'>0.72830E+03</wgt>
<wgt id='1582'>0.71296E+03</wgt>
<wgt id='1583'>0.74609E+03</wgt>
<wgt id='1584'>0.72789E+03</wgt>
<wgt id='1585'>0.72419E+03</wgt>
<wgt id='1586'>0.72459E+03</wgt>
<wgt id='1587'>0.73522E+03</wgt>
<wgt id='1588'>0.72976E+03</wgt>
<wgt id='1589'>0.74669E+03</wgt>
<wgt id='1590'>0.71913E+03</wgt>
<wgt id='1591'>0.71323E+03</wgt>
<wgt id='1592'>0.72899E+03</wgt>
<wgt id='1593'>0.73260E+03</wgt>
<wgt id='1594'>0.74790E+03</wgt>
<wgt id='1595'>0.72972E+03</wgt>
<wgt id='1596'>0.73284E+03</wgt>
<wgt id='1597'>0.73162E+03</wgt>
<wgt id='1598'>0.73459E+03</wgt>
<wgt id='1599'>0.73894E+03</wgt>
<wgt id='1600'>0.73525E+03</wgt>
<wgt id='1601'>0.71761E+03</wgt>
<wgt id='1602'>0.73292E+03</wgt>
<wgt id='1700'>0.68894E+03</wgt>
<wgt id='1800'>0.73254E+03</wgt>
<wgt id='1850'>0.85974E+03</wgt>
<wgt id='1900'>0.77924E+03</wgt>
<wgt id='1950'>0.83324E+03</wgt>
</rwgt>
</event>
<event>
     13 322222  6.87070E+02  2.04617E+01 -1.00000E+00  1.62689E-01
      21    -1     0     0   502   503  0.000000000E+00  0.000000000E+00  1.609810244E+02  1.609810244E+02  0.000000000E+00  0.00000E+00  9.000E+00
      21    -1     0     0   504   505  0.000000000E+00  0.000000000E+00 -7.426549288E+02  7.426549288E+02  0.000000000E+00  0.00000E+00  9.000E+00
       6     2     1     2   502     0  1.297412155E+02  1.811964426E+02 -7.336708763E+01  2.909724794E+02  1.720968344E+02  0.00000E+00  9.000E+00
      -6     2     1     2     0   505 -1.495365643E+02 -1.863758338E+02 -5.133564114E+02  5.915878876E+02  1.713017460E+02  0.00000E+00  9.000E+00
      21     1     1     2   504   503  1.979534881E+01  5.179391268E+00  5.049594675E+00  2.107558623E+01  4.298152060E-07  0.00000E+00  9.000E+00
      24     2     3     3     0     0  2.966621059E+01  1.773997766E+01 -1.986804380E+01  9.192924234E+01  8.283390353E+01  0.00000E+00  9.000E+00
       5     1     3     3   502     0  1.000750049E+02  1.634564649E+02 -5.349904382E+01  1.990432370E+02  4.800000000E+00  0.00000E+00 -1.000E+00
     -24     2     4     4     0     0 -1.501660195E+02 -9.172976894E+01 -3.950022698E+02  4.399665941E+02  8.111489909E+01  0.00000E+00  9.000E+00
      -5     1     4     4     0   505  6.294552786E-01 -9.464606488E+01 -1.183541416E+02  1.516212935E+02  4.800000000E+00  0.00000E+00  1.000E+00
     -11     1     6     6     0     0  5.767553586E+01  8.326200140E+00 -4.052988268E+00  5.841420854E+01  5.100000000E-04  0.00000E+00  1.000E+00
      12     1     6     6     0     0 -2.800932527E+01  9.413777517E+00 -1.581505554E+01  3.351503380E+01  0.000000000E+00  0.00000E+00 -1.000E+00
       3     1     8     8   514     0 -1.504380062E+02 -1.004782299E+02 -3.896496098E+02  4.295978664E+02  2.000000000E-01  0.00000E+00 -1.000E+00
      -4     1     8     8     0   514  2.719866192E-01  8.748460971E+00 -5.352660052E+00  1.036872778E+01  1.500000000E+00  0.00000E+00  1.000E+00
#rwgt            1           1   687.44539943992481                2        4967           0
<rwgt>
<wgt id='1001'>0.68707E+03</wgt>
<wgt id='1002'>0.75583E+03</wgt>
<wgt id='1003'>0.60743E+03</wgt>
<wgt id='1004'>0.59626E+03</wgt>
<wgt id='1005'>0.64475E+03</wgt>
<wgt id='1006'>0.53991E+03</wgt>
<wgt id='1007'>0.80002E+03</wgt>
<wgt id='1008'>0.89905E+03</wgt>
<wgt id='1009'>0.68563E+03</wgt>
<wgt id='2000'>0.68707E+03</wgt>
<wgt id='2001'>0.68664E+03</wgt>
<wgt id='2002'>0.68761E+03</wgt>
<wgt id='2003'>0.68692E+03</wgt>
<wgt id='2004'>0.68886E+03</wgt>
<wgt id='2005'>0.68695E+03</wgt>
<wgt id='2006'>0.68535E+03</wgt>
<wgt id='2007'>0.68680E+03</wgt>
<wgt id='2008'>0.68596E+03</wgt>
<wgt id='2009'>0.68801E+03</wgt>
<wgt id='2010'>0.68676E+03</wgt>
<wgt id='2011'>0.68494E+03</wgt>
<wgt id='2012'>0.68645E+03</wgt>
<wgt id='2013'>0.68523E+03</wgt>
<wgt id='2014'>0.68656E+03</wgt>
<wgt id='2015'>0.68681E+03</wgt>
<wgt id='2016'>0.68762E+03</wgt>
<wgt id='2017'>0.68643E+03</wgt>
<wgt id='2018'>0.68609E+03</wgt>
<wgt id='2019'>0.68732E+03</wgt>
<wgt id='2020'>0.68608E+03</wgt>
<wgt id='2021'>0.68770E+03</wgt>
<wgt id='2022'>0.68525E+03</wgt>
<wgt id='2023'>0.68769E+03</wgt>
<wgt id='2024'>0.68562E+03</wgt>
<wgt id='2025'>0.68535E+03</wgt>
<wgt id='2026'>0.68728E+03</wgt>
<wgt id='2027'>0.68568E+03</wgt>
<wgt id='2028'>0.68660E+03</wgt>
<wgt id='2029'>0.69274E+03</wgt>
<wgt id='2030'>0.68800E+03</wgt>
<wgt id='2031'>0.68703E+03</wgt>
<wgt id='2032'>0.68921E+03</wgt>
<wgt id='2033'>0.68828E+03</wgt>
<wgt id='2034'>0.68655E+03</wgt>
<wgt id='2035'>0.68593E+03</wgt>
<wgt id='2036'>0.68543E+03</wgt>
<wgt id='2037'>0.68773E+03</wgt>
<wgt id='2038'>0.68710E+03</wgt>
<wgt id='2039'>0.68800E+03</wgt>
<wgt id='2040'>0.68660E+03</wgt>
<wgt id='2041'>0.68534E+03</wgt>
<wgt id='2042'>0.68379E+03</wgt>
<wgt id='2043'>0.68890E+03</wgt>
<wgt id='2044'>0.68822E+03</wgt>
<wgt id='2045'>0.68658E+03</wgt>
<wgt id='2046'>0.68861E+03</wgt>
<wgt id='2047'>0.68828E+03</wgt>
<wgt id='2048'>0.68655E+03</wgt>
<wgt id='2049'>0.68712E+03</wgt>
<wgt id='2050'>0.68824E+03</wgt>
<wgt id='2051'>0.68780E+03</wgt>
<wgt id='2052'>0.68614E+03</wgt>
<wgt id='2053'>0.68689E+03</wgt>
<wgt id='2054'>0.68746E+03</wgt>
<wgt id='2055'>0.68754E+03</wgt>
<wgt id='2056'>0.68715E+03</wgt>
<wgt id='2057'>0.68639E+03</wgt>
<wgt id='2058'>0.68723E+03</wgt>
<wgt id='2059'>0.68698E+03</wgt>
<wgt id='2060'>0.68756E+03</wgt>
<wgt id='2061'>0.68677E+03</wgt>
<wgt id='2062'>0.68681E+03</wgt>
<wgt id='2063'>0.68694E+03</wgt>
<wgt id='2064'>0.68656E+03</wgt>
<wgt id='2065'>0.68723E+03</wgt>
<wgt id='2066'>0.68677E+03</wgt>
<wgt id='2067'>0.68710E+03</wgt>
<wgt id='2068'>0.68743E+03</wgt>
<wgt id='2069'>0.68729E+03</wgt>
<wgt id='2070'>0.68695E+03</wgt>
<wgt id='2071'>0.68657E+03</wgt>
<wgt id='2072'>0.68710E+03</wgt>
<wgt id='2073'>0.68713E+03</wgt>
<wgt id='2074'>0.68715E+03</wgt>
<wgt id='2075'>0.68680E+03</wgt>
<wgt id='2076'>0.68729E+03</wgt>
<wgt id='2077'>0.68675E+03</wgt>
<wgt id='2078'>0.68702E+03</wgt>
<wgt id='2079'>0.68720E+03</wgt>
<wgt id='2080'>0.68723E+03</wgt>
<wgt id='2081'>0.68733E+03</wgt>
<wgt id='2082'>0.68732E+03</wgt>
<wgt id='2083'>0.68712E+03</wgt>
<wgt id='2084'>0.68710E+03</wgt>
<wgt id='2085'>0.68708E+03</wgt>
<wgt id='2086'>0.68696E+03</wgt>
<wgt id='2087'>0.68690E+03</wgt>
<wgt id='2088'>0.68711E+03</wgt>
<wgt id='2089'>0.68689E+03</wgt>
<wgt id='2090'>0.68697E+03</wgt>
<wgt id='2091'>0.68713E+03</wgt>
<wgt id='2092'>0.68705E+03</wgt>
<wgt id='2093'>0.68705E+03</wgt>
<wgt id='2094'>0.68715E+03</wgt>
<wgt id='2095'>0.68724E+03</wgt>
<wgt id='2096'>0.68695E+03</wgt>
<wgt id='2097'>0.68727E+03</wgt>
<wgt id='2098'>0.68703E+03</wgt>
<wgt id='2099'>0.68695E+03</wgt>
<wgt id='2100'>0.68712E+03</wgt>
<wgt id='2101'>0.67033E+03</wgt>
<wgt id='2102'>0.70703E+03</wgt>
<wgt id='2104'>0.59551E+03</wgt>
<wgt id='2105'>0.61471E+03</wgt>
<wgt id='2106'>0.63311E+03</wgt>
<wgt id='2107'>0.64884E+03</wgt>
<wgt id='2108'>0.67819E+03</wgt>
<wgt id='2109'>0.69840E+03</wgt>
<wgt id='2110'>0.72547E+03</wgt>
<wgt id='2111'>0.74500E+03</wgt>
<wgt id='3000'>0.72293E+03</wgt>
<wgt id='3001'>0.72386E+03</wgt>
<wgt id='3002'>0.72254E+03</wgt>
<wgt id='3003'>0.72226E+03</wgt>
<wgt id='3004'>0.72487E+03</wgt>
<wgt id='3005'>0.72302E+03</wgt>
<wgt id='3006'>0.72249E+03</wgt>
<wgt id='3007'>0.72341E+03</wgt>
<wgt id='3008'>0.72280E+03</wgt>
<wgt id='3009'>0.72415E+03</wgt>
<wgt id='3010'>0.72157E+03</wgt>
<wgt id='3011'>0.72159E+03</wgt>
<wgt id='3012'>0.72311E+03</wgt>
<wgt id='3013'>0.72400E+03</wgt>
<wgt id='3014'>0.72257E+03</wgt>
<wgt id='3015'>0.72142E+03</wgt>
<wgt id='3016'>0.72357E+03</wgt>
<wgt id='3017'>0.72264E+03</wgt>
<wgt id='3018'>0.72334E+03</wgt>
<wgt id='3019'>0.72318E+03</wgt>
<wgt id='3020'>0.72379E+03</wgt>
<wgt id='3021'>0.72390E+03</wgt>
<wgt id='3022'>0.72269E+03</wgt>
<wgt id='3023'>0.72262E+03</wgt>
<wgt id='3024'>0.72302E+03</wgt>
<wgt id='3025'>0.72336E+03</wgt>
<wgt id='3026'>0.72148E+03</wgt>
<wgt id='3027'>0.72360E+03</wgt>
<wgt id='3028'>0.72311E+03</wgt>
<wgt id='3029'>0.72147E+03</wgt>
<wgt id='3030'>0.72697E+03</wgt>
<wgt id='3031'>0.72495E+03</wgt>
<wgt id='3032'>0.72104E+03</wgt>
<wgt id='3033'>0.72136E+03</wgt>
<wgt id='3034'>0.72240E+03</wgt>
<wgt id='3035'>0.72201E+03</wgt>
<wgt id='3036'>0.72401E+03</wgt>
<wgt id='3037'>0.72436E+03</wgt>
<wgt id='3038'>0.72327E+03</wgt>
<wgt id='3039'>0.72558E+03</wgt>
<wgt id='3040'>0.72406E+03</wgt>
<wgt id='3041'>0.72276E+03</wgt>
<wgt id='3042'>0.72021E+03</wgt>
<wgt id='3043'>0.72010E+03</wgt>
<wgt id='3044'>0.72477E+03</wgt>
<wgt id='3045'>0.72450E+03</wgt>
<wgt id='3046'>0.72419E+03</wgt>
<wgt id='3047'>0.72211E+03</wgt>
<wgt id='3048'>0.72467E+03</wgt>
<wgt id='3049'>0.72228E+03</wgt>
<wgt id='3050'>0.72216E+03</wgt>
<wgt id='3051'>0.72516E+03</wgt>
<wgt id='3052'>0.72251E+03</wgt>
<wgt id='3053'>0.72220E+03</wgt>
<wgt id='3054'>0.72270E+03</wgt>
<wgt id='3055'>0.72333E+03</wgt>
<wgt id='3056'>0.72304E+03</wgt>
<wgt id='3057'>0.72227E+03</wgt>
<wgt id='3058'>0.72287E+03</wgt>
<wgt id='3059'>0.72262E+03</wgt>
<wgt id='3060'>0.72310E+03</wgt>
<wgt id='3061'>0.72258E+03</wgt>
<wgt id='3062'>0.72289E+03</wgt>
<wgt id='3063'>0.72323E+03</wgt>
<wgt id='3064'>0.72273E+03</wgt>
<wgt id='3065'>0.72283E+03</wgt>
<wgt id='3066'>0.72305E+03</wgt>
<wgt id='3067'>0.72258E+03</wgt>
<wgt id='3068'>0.72301E+03</wgt>
<wgt id='3069'>0.72261E+03</wgt>
<wgt id='3070'>0.72285E+03</wgt>
<wgt id='3071'>0.72296E+03</wgt>
<wgt id='3072'>0.72284E+03</wgt>
<wgt id='3073'>0.72258E+03</wgt>
<wgt id='3074'>0.72373E+03</wgt>
<wgt id='3075'>0.72285E+03</wgt>
<wgt id='3076'>0.72307E+03</wgt>
<wgt id='3077'>0.72314E+03</wgt>
<wgt id='3078'>0.72321E+03</wgt>
<wgt id='3079'>0.72268E+03</wgt>
<wgt id='3080'>0.72266E+03</wgt>
<wgt id='3081'>0.72282E+03</wgt>
<wgt id='3082'>0.72269E+03</wgt>
<wgt id='3083'>0.72300E+03</wgt>
<wgt id='3084'>0.72283E+03</wgt>
<wgt id='3085'>0.72309E+03</wgt>
<wgt id='3086'>0.72259E+03</wgt>
<wgt id='3087'>0.72270E+03</wgt>
<wgt id='3088'>0.72286E+03</wgt>
<wgt id='3089'>0.72297E+03</wgt>
<wgt id='3090'>0.72291E+03</wgt>
<wgt id='3091'>0.72297E+03</wgt>
<wgt id='3092'>0.72304E+03</wgt>
<wgt id='3093'>0.72304E+03</wgt>
<wgt id='3094'>0.72313E+03</wgt>
<wgt id='3095'>0.72297E+03</wgt>
<wgt id='3096'>0.72287E+03</wgt>
<wgt id='3097'>0.72276E+03</wgt>
<wgt id='3098'>0.72294E+03</wgt>
<wgt id='3099'>0.72308E+03</wgt>
<wgt id='3100'>0.72306E+03</wgt>
<wgt id='3101'>0.70385E+03</wgt>
<wgt id='3102'>0.74327E+03</wgt>
<wgt id='5000'>0.70365E+03</wgt>
<wgt id='5001'>0.70555E+03</wgt>
<wgt id='5002'>0.70677E+03</wgt>
<wgt id='5003'>0.70446E+03</wgt>
<wgt id='5004'>0.70318E+03</wgt>
<wgt id='5005'>0.70065E+03</wgt>
<wgt id='5006'>0.68807E+03</wgt>
<wgt id='5007'>0.69676E+03</wgt>
<wgt id='5008'>0.70979E+03</wgt>
<wgt id='5009'>0.69661E+03</wgt>
<wgt id='5010'>0.70504E+03</wgt>
<wgt id='5011'>0.70975E+03</wgt>
<wgt id='5012'>0.69957E+03</wgt>
<wgt id='5013'>0.72444E+03</wgt>
<wgt id='5014'>0.70341E+03</wgt>
<wgt id='5015'>0.69944E+03</wgt>
<wgt id='5016'>0.71539E+03</wgt>
<wgt id='5017'>0.69116E+03</wgt>
<wgt id='5018'>0.71685E+03</wgt>
<wgt id='5019'>0.70911E+03</wgt>
<wgt id='5020'>0.69791E+03</wgt>
<wgt id='5021'>0.69986E+03</wgt>
<wgt id='5022'>0.70604E+03</wgt>
<wgt id='5023'>0.69959E+03</wgt>
<wgt id='5024'>0.70822E+03</wgt>
<wgt id='5025'>0.70824E+03</wgt>
<wgt id='5026'>0.69988E+03</wgt>
<wgt id='5027'>0.70273E+03</wgt>
<wgt id='5028'>0.70512E+03</wgt>
<wgt id='5029'>0.70867E+03</wgt>
<wgt id='5030'>0.70054E+03</wgt>
<wgt id='5031'>0.70370E+03</wgt>
<wgt id='5032'>0.70361E+03</wgt>
<wgt id='5033'>0.70215E+03</wgt>
<wgt id='5034'>0.70534E+03</wgt>
<wgt id='5035'>0.71104E+03</wgt>
<wgt id='5036'>0.69690E+03</wgt>
<wgt id='5037'>0.68499E+03</wgt>
<wgt id='5038'>0.72507E+03</wgt>
<wgt id='5039'>0.71971E+03</wgt>
<wgt id='5040'>0.69497E+03</wgt>
<wgt id='5041'>0.70695E+03</wgt>
<wgt id='5042'>0.70326E+03</wgt>
<wgt id='5043'>0.70944E+03</wgt>
<wgt id='5044'>0.70886E+03</wgt>
<wgt id='5045'>0.69766E+03</wgt>
<wgt id='5046'>0.68996E+03</wgt>
<wgt id='5047'>0.69639E+03</wgt>
<wgt id='5048'>0.69891E+03</wgt>
<wgt id='5049'>0.70362E+03</wgt>
<wgt id='5050'>0.70229E+03</wgt>
<wgt id='5051'>0.70323E+03</wgt>
<wgt id='5052'>0.70239E+03</wgt>
<wgt id='5053'>0.68291E+03</wgt>
<wgt id='5054'>0.69413E+03</wgt>
<wgt id='5055'>0.69826E+03</wgt>
<wgt id='5056'>0.71461E+03</wgt>
<wgt id='5060'>0.68230E+03</wgt>
<wgt id='5070'>0.72645E+03</wgt>
<wgt id='4000'>0.71102E+03</wgt>
<wgt id='4001'>0.70920E+03</wgt>
<wgt id='4002'>0.71130E+03</wgt>
<wgt id='4003'>0.69575E+03</wgt>
<wgt id='4004'>0.70724E+03</wgt>
<wgt id='4005'>0.70945E+03</wgt>
<wgt id='4006'>0.71273E+03</wgt>
<wgt id='4007'>0.70755E+03</wgt>
<wgt id='4008'>0.70580E+03</wgt>
<wgt id='4009'>0.71680E+03</wgt>
<wgt id='4010'>0.71015E+03</wgt>
<wgt id='4011'>0.72129E+03</wgt>
<wgt id='4012'>0.70239E+03</wgt>
<wgt id='4013'>0.71839E+03</wgt>
<wgt id='4014'>0.70895E+03</wgt>
<wgt id='4015'>0.72739E+03</wgt>
<wgt id='4016'>0.69992E+03</wgt>
<wgt id='4017'>0.69757E+03</wgt>
<wgt id='4018'>0.72700E+03</wgt>
<wgt id='4019'>0.71184E+03</wgt>
<wgt id='4020'>0.71019E+03</wgt>
<wgt id='4021'>0.71233E+03</wgt>
<wgt id='4022'>0.70860E+03</wgt>
<wgt id='4023'>0.71305E+03</wgt>
<wgt id='4024'>0.70910E+03</wgt>
<wgt id='4025'>0.72712E+03</wgt>
<wgt id='4026'>0.69572E+03</wgt>
<wgt id='4027'>0.71502E+03</wgt>
<wgt id='4028'>0.70562E+03</wgt>
<wgt id='4029'>0.71448E+03</wgt>
<wgt id='4030'>0.70987E+03</wgt>
<wgt id='4031'>0.71310E+03</wgt>
<wgt id='4032'>0.70835E+03</wgt>
<wgt id='4033'>0.70671E+03</wgt>
<wgt id='4034'>0.72057E+03</wgt>
<wgt id='4035'>0.69451E+03</wgt>
<wgt id='4036'>0.72731E+03</wgt>
<wgt id='4037'>0.70545E+03</wgt>
<wgt id='4038'>0.71976E+03</wgt>
<wgt id='4039'>0.70885E+03</wgt>
<wgt id='4040'>0.71471E+03</wgt>
<wgt id='4041'>0.70611E+03</wgt>
<wgt id='4042'>0.71573E+03</wgt>
<wgt id='4043'>0.70009E+03</wgt>
<wgt id='4044'>0.72496E+03</wgt>
<wgt id='4045'>0.72122E+03</wgt>
<wgt id='4046'>0.71178E+03</wgt>
<wgt id='4047'>0.71179E+03</wgt>
<wgt id='4048'>0.70135E+03</wgt>
<wgt id='4049'>0.70281E+03</wgt>
<wgt id='4050'>0.71308E+03</wgt>
<wgt id='4051'>0.71427E+03</wgt>
<wgt id='4052'>0.71221E+03</wgt>
<wgt id='4053'>0.68647E+03</wgt>
<wgt id='4054'>0.71952E+03</wgt>
<wgt id='4055'>0.70662E+03</wgt>
<wgt id='4056'>0.71965E+03</wgt>
<wgt id='4060'>0.69145E+03</wgt>
<wgt id='4070'>0.73230E+03</wgt>
<wgt id='4080'>0.70320E+03</wgt>
<wgt id='6000'>0.72086E+03</wgt>
<wgt id='6001'>0.72127E+03</wgt>
<wgt id='6002'>0.72043E+03</wgt>
<wgt id='6003'>0.72158E+03</wgt>
<wgt id='6004'>0.72038E+03</wgt>
<wgt id='6005'>0.72508E+03</wgt>
<wgt id='6006'>0.71696E+03</wgt>
<wgt id='6007'>0.71860E+03</wgt>
<wgt id='6008'>0.72341E+03</wgt>
<wgt id='6009'>0.72147E+03</wgt>
<wgt id='6010'>0.72027E+03</wgt>
<wgt id='6011'>0.72131E+03</wgt>
<wgt id='6012'>0.71986E+03</wgt>
<wgt id='6013'>0.72069E+03</wgt>
<wgt id='6014'>0.72115E+03</wgt>
<wgt id='6015'>0.72022E+03</wgt>
<wgt id='6016'>0.72123E+03</wgt>
<wgt id='6017'>0.71839E+03</wgt>
<wgt id='6018'>0.72376E+03</wgt>
<wgt id='6019'>0.72097E+03</wgt>
<wgt id='6020'>0.72076E+03</wgt>
<wgt id='6021'>0.71949E+03</wgt>
<wgt id='6022'>0.72267E+03</wgt>
<wgt id='6023'>0.71693E+03</wgt>
<wgt id='6024'>0.72346E+03</wgt>
<wgt id='6025'>0.72514E+03</wgt>
<wgt id='6026'>0.71671E+03</wgt>
<wgt id='6027'>0.72092E+03</wgt>
<wgt id='6028'>0.72058E+03</wgt>
<wgt id='6029'>0.71673E+03</wgt>
<wgt id='6030'>0.72590E+03</wgt>
<wgt id='6031'>0.71105E+03</wgt>
<wgt id='6032'>0.73207E+03</wgt>
<wgt id='6033'>0.72484E+03</wgt>
<wgt id='6034'>0.71704E+03</wgt>
<wgt id='6035'>0.72255E+03</wgt>
<wgt id='6036'>0.71650E+03</wgt>
<wgt id='6037'>0.72137E+03</wgt>
<wgt id='6038'>0.72054E+03</wgt>
<wgt id='6039'>0.71868E+03</wgt>
<wgt id='6040'>0.72337E+03</wgt>
<wgt id='6041'>0.71419E+03</wgt>
<wgt id='6042'>0.72843E+03</wgt>
<wgt id='6043'>0.72601E+03</wgt>
<wgt id='6044'>0.71831E+03</wgt>
<wgt id='6045'>0.71975E+03</wgt>
<wgt id='6046'>0.72366E+03</wgt>
<wgt id='6047'>0.72669E+03</wgt>
<wgt id='6048'>0.71434E+03</wgt>
<wgt id='6049'>0.72298E+03</wgt>
<wgt id='6050'>0.71988E+03</wgt>
<wgt id='7000'>0.69291E+03</wgt>
<wgt id='7001'>0.69262E+03</wgt>
<wgt id='7002'>0.69326E+03</wgt>
<wgt id='7003'>0.69518E+03</wgt>
<wgt id='7004'>0.69065E+03</wgt>
<wgt id='7005'>0.69492E+03</wgt>
<wgt id='7006'>0.69210E+03</wgt>
<wgt id='7007'>0.69287E+03</wgt>
<wgt id='7008'>0.69293E+03</wgt>
<wgt id='7009'>0.69342E+03</wgt>
<wgt id='7010'>0.69240E+03</wgt>
<wgt id='7011'>0.69167E+03</wgt>
<wgt id='7012'>0.69344E+03</wgt>
<wgt id='7013'>0.69275E+03</wgt>
<wgt id='7014'>0.69307E+03</wgt>
<wgt id='7015'>0.69295E+03</wgt>
<wgt id='7016'>0.69287E+03</wgt>
<wgt id='7017'>0.69291E+03</wgt>
<wgt id='7018'>0.69290E+03</wgt>
<wgt id='7019'>0.69310E+03</wgt>
<wgt id='7020'>0.69262E+03</wgt>
<wgt id='7021'>0.69194E+03</wgt>
<wgt id='7022'>0.69357E+03</wgt>
<wgt id='7023'>0.69719E+03</wgt>
<wgt id='7024'>0.68888E+03</wgt>
<wgt id='7025'>0.69427E+03</wgt>
<wgt id='7026'>0.68940E+03</wgt>
<wgt id='7027'>0.69254E+03</wgt>
<wgt id='7028'>0.69229E+03</wgt>
<wgt id='7029'>0.69647E+03</wgt>
<wgt id='7030'>0.68426E+03</wgt>
<wgt id='7031'>0.68881E+03</wgt>
<wgt id='7032'>0.70134E+03</wgt>
<wgt id='7033'>0.69438E+03</wgt>
<wgt id='7034'>0.68988E+03</wgt>
<wgt id='7035'>0.68681E+03</wgt>
<wgt id='7036'>0.69547E+03</wgt>
<wgt id='7037'>0.69259E+03</wgt>
<wgt id='7038'>0.69293E+03</wgt>
<wgt id='7039'>0.68992E+03</wgt>
<wgt id='7040'>0.69519E+03</wgt>
<wgt id='7041'>0.69566E+03</wgt>
<wgt id='7042'>0.68857E+03</wgt>
<wgt id='7043'>0.69356E+03</wgt>
<wgt id='7044'>0.68919E+03</wgt>
<wgt id='7045'>0.68528E+03</wgt>
<wgt id='7046'>0.69838E+03</wgt>
<wgt id='7047'>0.69656E+03</wgt>
<wgt id='7048'>0.69128E+03</wgt>
<wgt id='7049'>0.69030E+03</wgt>
<wgt id='7050'>0.69450E+03</wgt>
<wgt id='7060'>0.86634E+03</wgt>
<wgt id='8000'>0.67933E+03</wgt>
<wgt id='8001'>0.67927E+03</wgt>
<wgt id='8002'>0.67952E+03</wgt>
<wgt id='8003'>0.67932E+03</wgt>
<wgt id='8004'>0.67931E+03</wgt>
<wgt id='8005'>0.67823E+03</wgt>
<wgt id='8006'>0.68033E+03</wgt>
<wgt id='8007'>0.68120E+03</wgt>
<wgt id='8008'>0.68080E+03</wgt>
<wgt id='8009'>0.68205E+03</wgt>
<wgt id='8010'>0.67841E+03</wgt>
<wgt id='8011'>0.67961E+03</wgt>
<wgt id='8012'>0.67655E+03</wgt>
<wgt id='8013'>0.67769E+03</wgt>
<wgt id='8014'>0.68141E+03</wgt>
<wgt id='8015'>0.67895E+03</wgt>
<wgt id='8016'>0.68020E+03</wgt>
<wgt id='8017'>0.68000E+03</wgt>
<wgt id='8018'>0.68170E+03</wgt>
<wgt id='8019'>0.67889E+03</wgt>
<wgt id='8020'>0.68054E+03</wgt>
<wgt id='8021'>0.67828E+03</wgt>
<wgt id='8022'>0.68160E+03</wgt>
<wgt id='8023'>0.67759E+03</wgt>
<wgt id='8024'>0.67539E+03</wgt>
<wgt id='8025'>0.67704E+03</wgt>
<wgt id='8026'>0.67969E+03</wgt>
<wgt id='8027'>0.68051E+03</wgt>
<wgt id='8028'>0.67957E+03</wgt>
<wgt id='8029'>0.68476E+03</wgt>
<wgt id='8500'>0.72409E+03</wgt>
<wgt id='8501'>0.71818E+03</wgt>
<wgt id='8502'>0.72727E+03</wgt>
<wgt id='8503'>0.72591E+03</wgt>
<wgt id='8504'>0.72040E+03</wgt>
<wgt id='8505'>0.72370E+03</wgt>
<wgt id='8506'>0.72763E+03</wgt>
<wgt id='8507'>0.71641E+03</wgt>
<wgt id='8508'>0.71214E+03</wgt>
<wgt id='8509'>0.72874E+03</wgt>
<wgt id='8510'>0.72734E+03</wgt>
<wgt id='8511'>0.72178E+03</wgt>
<wgt id='8512'>0.72725E+03</wgt>
<wgt id='8513'>0.72448E+03</wgt>
<wgt id='8514'>0.71924E+03</wgt>
<wgt id='8515'>0.72883E+03</wgt>
<wgt id='8516'>0.72195E+03</wgt>
<wgt id='8517'>0.72532E+03</wgt>
<wgt id='8518'>0.71783E+03</wgt>
<wgt id='8519'>0.71638E+03</wgt>
<wgt id='8520'>0.72081E+03</wgt>
<wgt id='8521'>0.72019E+03</wgt>
<wgt id='8522'>0.72870E+03</wgt>
<wgt id='8523'>0.72065E+03</wgt>
<wgt id='8524'>0.72604E+03</wgt>
<wgt id='8525'>0.72526E+03</wgt>
<wgt id='8526'>0.72456E+03</wgt>
<wgt id='8527'>0.72471E+03</wgt>
<wgt id='8528'>0.72329E+03</wgt>
<wgt id='8529'>0.72342E+03</wgt>
<wgt id='8530'>0.72363E+03</wgt>
<wgt id='8531'>0.72405E+03</wgt>
<wgt id='8532'>0.72379E+03</wgt>
<wgt id='8533'>0.72309E+03</wgt>
<wgt id='8534'>0.72446E+03</wgt>
<wgt id='8535'>0.72582E+03</wgt>
<wgt id='8536'>0.72333E+03</wgt>
<wgt id='8537'>0.72417E+03</wgt>
<wgt id='8538'>0.72413E+03</wgt>
<wgt id='8539'>0.72458E+03</wgt>
<wgt id='8540'>0.72481E+03</wgt>
<wgt id='8541'>0.72492E+03</wgt>
<wgt id='8542'>0.72441E+03</wgt>
<wgt id='8543'>0.72305E+03</wgt>
<wgt id='8544'>0.72541E+03</wgt>
<wgt id='8545'>0.72434E+03</wgt>
<wgt id='8546'>0.72515E+03</wgt>
<wgt id='8547'>0.72336E+03</wgt>
<wgt id='8548'>0.72366E+03</wgt>
<wgt id='8549'>0.72428E+03</wgt>
<wgt id='8550'>0.72337E+03</wgt>
<wgt id='8551'>0.72394E+03</wgt>
<wgt id='8552'>0.72343E+03</wgt>
<wgt id='8553'>0.72295E+03</wgt>
<wgt id='8554'>0.72368E+03</wgt>
<wgt id='8555'>0.72407E+03</wgt>
<wgt id='8556'>0.72381E+03</wgt>
<wgt id='8557'>0.72441E+03</wgt>
<wgt id='8558'>0.72502E+03</wgt>
<wgt id='8559'>0.72397E+03</wgt>
<wgt id='8560'>0.72325E+03</wgt>
<wgt id='8561'>0.72460E+03</wgt>
<wgt id='8562'>0.72373E+03</wgt>
<wgt id='8563'>0.72411E+03</wgt>
<wgt id='8564'>0.72386E+03</wgt>
<wgt id='8565'>0.72446E+03</wgt>
<wgt id='8566'>0.72460E+03</wgt>
<wgt id='8567'>0.72417E+03</wgt>
<wgt id='8568'>0.72467E+03</wgt>
<wgt id='8569'>0.72449E+03</wgt>
<wgt id='8570'>0.72381E+03</wgt>
<wgt id='8571'>0.72335E+03</wgt>
<wgt id='8572'>0.72352E+03</wgt>
<wgt id='8573'>0.72372E+03</wgt>
<wgt id='8574'>0.72372E+03</wgt>
<wgt id='8575'>0.72388E+03</wgt>
<wgt id='8576'>0.72414E+03</wgt>
<wgt id='8577'>0.72353E+03</wgt>
<wgt id='8578'>0.72401E+03</wgt>
<wgt id='8579'>0.72469E+03</wgt>
<wgt id='8580'>0.72386E+03</wgt>
<wgt id='8581'>0.72454E+03</wgt>
<wgt id='8582'>0.72367E+03</wgt>
<wgt id='8583'>0.72434E+03</wgt>
<wgt id='8584'>0.72468E+03</wgt>
<wgt id='8585'>0.72439E+03</wgt>
<wgt id='8586'>0.72495E+03</wgt>
<wgt id='8587'>0.72432E+03</wgt>
<wgt id='8588'>0.72413E+03</wgt>
<wgt id='8589'>0.72401E+03</wgt>
<wgt id='8590'>0.72415E+03</wgt>
<wgt id='8591'>0.72365E+03</wgt>
<wgt id='8592'>0.72399E+03</wgt>
<wgt id='8593'>0.72389E+03</wgt>
<wgt id='8594'>0.72394E+03</wgt>
<wgt id='8595'>0.72402E+03</wgt>
<wgt id='8596'>0.72399E+03</wgt>
<wgt id='8597'>0.72429E+03</wgt>
<wgt id='8598'>0.72431E+03</wgt>
<wgt id='8599'>0.72417E+03</wgt>
<wgt id='8600'>0.72410E+03</wgt>
<wgt id='8601'>0.71222E+03</wgt>
<wgt id='8602'>0.73681E+03</wgt>
<wgt id='9000'>0.69826E+03</wgt>
<wgt id='9001'>0.69940E+03</wgt>
<wgt id='9002'>0.69877E+03</wgt>
<wgt id='9003'>0.69747E+03</wgt>
<wgt id='9004'>0.70069E+03</wgt>
<wgt id='9005'>0.70266E+03</wgt>
<wgt id='9006'>0.69938E+03</wgt>
<wgt id='9007'>0.69424E+03</wgt>
<wgt id='9008'>0.69649E+03</wgt>
<wgt id='9009'>0.69931E+03</wgt>
<wgt id='9010'>0.69652E+03</wgt>
<wgt id='9011'>0.70127E+03</wgt>
<wgt id='9012'>0.70356E+03</wgt>
<wgt id='9013'>0.70162E+03</wgt>
<wgt id='9014'>0.69981E+03</wgt>
<wgt id='9015'>0.69358E+03</wgt>
<wgt id='9016'>0.70100E+03</wgt>
<wgt id='9017'>0.69457E+03</wgt>
<wgt id='9018'>0.70188E+03</wgt>
<wgt id='9019'>0.70150E+03</wgt>
<wgt id='9020'>0.70537E+03</wgt>
<wgt id='9021'>0.69354E+03</wgt>
<wgt id='9022'>0.69931E+03</wgt>
<wgt id='9023'>0.69322E+03</wgt>
<wgt id='9024'>0.69568E+03</wgt>
<wgt id='9025'>0.70264E+03</wgt>
<wgt id='9026'>0.69817E+03</wgt>
<wgt id='9027'>0.69652E+03</wgt>
<wgt id='9028'>0.69895E+03</wgt>
<wgt id='9029'>0.69850E+03</wgt>
<wgt id='9030'>0.69711E+03</wgt>
<wgt id='9031'>0.69737E+03</wgt>
<wgt id='9032'>0.69924E+03</wgt>
<wgt id='9033'>0.69907E+03</wgt>
<wgt id='9034'>0.69867E+03</wgt>
<wgt id='9035'>0.69876E+03</wgt>
<wgt id='9036'>0.69859E+03</wgt>
<wgt id='9037'>0.69867E+03</wgt>
<wgt id='9038'>0.69896E+03</wgt>
<wgt id='9039'>0.69841E+03</wgt>
<wgt id='9040'>0.69770E+03</wgt>
<wgt id='9041'>0.69848E+03</wgt>
<wgt id='9042'>0.69880E+03</wgt>
<wgt id='9043'>0.69718E+03</wgt>
<wgt id='9044'>0.69865E+03</wgt>
<wgt id='9045'>0.69877E+03</wgt>
<wgt id='9046'>0.69727E+03</wgt>
<wgt id='9047'>0.69866E+03</wgt>
<wgt id='9048'>0.69869E+03</wgt>
<wgt id='9049'>0.69793E+03</wgt>
<wgt id='9050'>0.69828E+03</wgt>
<wgt id='9051'>0.69880E+03</wgt>
<wgt id='9052'>0.69895E+03</wgt>
<wgt id='9053'>0.69831E+03</wgt>
<wgt id='9054'>0.69789E+03</wgt>
<wgt id='9055'>0.69783E+03</wgt>
<wgt id='9056'>0.69872E+03</wgt>
<wgt id='9057'>0.69837E+03</wgt>
<wgt id='9058'>0.69725E+03</wgt>
<wgt id='9059'>0.69774E+03</wgt>
<wgt id='9060'>0.69802E+03</wgt>
<wgt id='9061'>0.69821E+03</wgt>
<wgt id='9062'>0.69846E+03</wgt>
<wgt id='9063'>0.69841E+03</wgt>
<wgt id='9064'>0.69839E+03</wgt>
<wgt id='9065'>0.69799E+03</wgt>
<wgt id='9066'>0.69806E+03</wgt>
<wgt id='9067'>0.69841E+03</wgt>
<wgt id='9068'>0.69832E+03</wgt>
<wgt id='9069'>0.69900E+03</wgt>
<wgt id='9070'>0.69808E+03</wgt>
<wgt id='9071'>0.69873E+03</wgt>
<wgt id='9072'>0.69884E+03</wgt>
<wgt id='9073'>0.69817E+03</wgt>
<wgt id='9074'>0.69843E+03</wgt>
<wgt id='9075'>0.69824E+03</wgt>
<wgt id='9076'>0.69816E+03</wgt>
<wgt id='9077'>0.69850E+03</wgt>
<wgt id='9078'>0.69836E+03</wgt>
<wgt id='9079'>0.69816E+03</wgt>
<wgt id='9080'>0.69907E+03</wgt>
<wgt id='9081'>0.69832E+03</wgt>
<wgt id='9082'>0.69849E+03</wgt>
<wgt id='9083'>0.69806E+03</wgt>
<wgt id='9084'>0.69787E+03</wgt>
<wgt id='9085'>0.69772E+03</wgt>
<wgt id='9086'>0.69849E+03</wgt>
<wgt id='9087'>0.69743E+03</wgt>
<wgt id='9088'>0.69786E+03</wgt>
<wgt id='9089'>0.69793E+03</wgt>
<wgt id='9090'>0.69836E+03</wgt>
<wgt id='9091'>0.69808E+03</wgt>
<wgt id='9092'>0.69816E+03</wgt>
<wgt id='9093'>0.69807E+03</wgt>
<wgt id='9094'>0.69807E+03</wgt>
<wgt id='9095'>0.69835E+03</wgt>
<wgt id='9096'>0.69810E+03</wgt>
<wgt id='9097'>0.69834E+03</wgt>
<wgt id='9098'>0.69818E+03</wgt>
<wgt id='9099'>0.69802E+03</wgt>
<wgt id='9100'>0.69830E+03</wgt>
<wgt id='9101'>0.68585E+03</wgt>
<wgt id='9102'>0.71111E+03</wgt>
<wgt id='10000'>0.72402E+03</wgt>
<wgt id='10001'>0.72623E+03</wgt>
<wgt id='10002'>0.71681E+03</wgt>
<wgt id='10003'>0.72384E+03</wgt>
<wgt id='10004'>0.71351E+03</wgt>
<wgt id='10005'>0.72176E+03</wgt>
<wgt id='10006'>0.71859E+03</wgt>
<wgt id='10007'>0.72384E+03</wgt>
<wgt id='10008'>0.72483E+03</wgt>
<wgt id='10009'>0.71968E+03</wgt>
<wgt id='10010'>0.72564E+03</wgt>
<wgt id='10011'>0.71789E+03</wgt>
<wgt id='10012'>0.72203E+03</wgt>
<wgt id='10013'>0.72506E+03</wgt>
<wgt id='10014'>0.72335E+03</wgt>
<wgt id='10015'>0.72486E+03</wgt>
<wgt id='10016'>0.72144E+03</wgt>
<wgt id='10017'>0.73080E+03</wgt>
<wgt id='10018'>0.72600E+03</wgt>
<wgt id='10019'>0.71546E+03</wgt>
<wgt id='10020'>0.72170E+03</wgt>
<wgt id='10021'>0.72313E+03</wgt>
<wgt id='10022'>0.72411E+03</wgt>
<wgt id='10023'>0.72500E+03</wgt>
<wgt id='10024'>0.72350E+03</wgt>
<wgt id='10025'>0.72340E+03</wgt>
<wgt id='10026'>0.72755E+03</wgt>
<wgt id='10027'>0.72553E+03</wgt>
<wgt id='10028'>0.73466E+03</wgt>
<wgt id='10029'>0.72434E+03</wgt>
<wgt id='10030'>0.72359E+03</wgt>
<wgt id='10031'>0.71222E+03</wgt>
<wgt id='10032'>0.73681E+03</wgt>
<wgt id='11000'>0.69819E+03</wgt>
<wgt id='11001'>0.68374E+03</wgt>
<wgt id='11002'>0.69759E+03</wgt>
<wgt id='11003'>0.69842E+03</wgt>
<wgt id='11004'>0.69533E+03</wgt>
<wgt id='11005'>0.70141E+03</wgt>
<wgt id='11006'>0.69854E+03</wgt>
<wgt id='11007'>0.69853E+03</wgt>
<wgt id='11008'>0.69890E+03</wgt>
<wgt id='11009'>0.69816E+03</wgt>
<wgt id='11010'>0.69440E+03</wgt>
<wgt id='11011'>0.69717E+03</wgt>
<wgt id='11012'>0.69767E+03</wgt>
<wgt id='11013'>0.69881E+03</wgt>
<wgt id='11014'>0.69760E+03</wgt>
<wgt id='11015'>0.69626E+03</wgt>
<wgt id='11016'>0.69921E+03</wgt>
<wgt id='11017'>0.69951E+03</wgt>
<wgt id='11018'>0.69842E+03</wgt>
<wgt id='11019'>0.69878E+03</wgt>
<wgt id='11020'>0.69877E+03</wgt>
<wgt id='11021'>0.69932E+03</wgt>
<wgt id='11022'>0.70024E+03</wgt>
<wgt id='11023'>0.69845E+03</wgt>
<wgt id='11024'>0.69624E+03</wgt>
<wgt id='11025'>0.69782E+03</wgt>
<wgt id='11026'>0.69815E+03</wgt>
<wgt id='11027'>0.69943E+03</wgt>
<wgt id='11028'>0.69759E+03</wgt>
<wgt id='11029'>0.69105E+03</wgt>
<wgt id='11030'>0.69839E+03</wgt>
<wgt id='11031'>0.68585E+03</wgt>
<wgt id='11032'>0.71111E+03</wgt>
<wgt id='12000'>0.63864E+03</wgt>
<wgt id='12001'>0.63785E+03</wgt>
<wgt id='12002'>0.63942E+03</wgt>
<wgt id='12003'>0.63875E+03</wgt>
<wgt id='12004'>0.63852E+03</wgt>
<wgt id='12005'>0.63927E+03</wgt>
<wgt id='12006'>0.63801E+03</wgt>
<wgt id='12007'>0.64193E+03</wgt>
<wgt id='12008'>0.63541E+03</wgt>
<wgt id='12009'>0.63741E+03</wgt>
<wgt id='12010'>0.63989E+03</wgt>
<wgt id='12011'>0.63405E+03</wgt>
<wgt id='12012'>0.64372E+03</wgt>
<wgt id='12013'>0.63732E+03</wgt>
<wgt id='12014'>0.63999E+03</wgt>
<wgt id='12015'>0.64150E+03</wgt>
<wgt id='12016'>0.63480E+03</wgt>
<wgt id='12017'>0.64147E+03</wgt>
<wgt id='12018'>0.63700E+03</wgt>
<wgt id='12019'>0.64161E+03</wgt>
<wgt id='12020'>0.63521E+03</wgt>
<wgt id='12021'>0.63885E+03</wgt>
<wgt id='12022'>0.63856E+03</wgt>
<wgt id='12023'>0.63165E+03</wgt>
<wgt id='12024'>0.64543E+03</wgt>
<wgt id='12025'>0.63379E+03</wgt>
<wgt id='12026'>0.64361E+03</wgt>
<wgt id='12027'>0.64962E+03</wgt>
<wgt id='12028'>0.62859E+03</wgt>
<wgt id='12050'>0.63864E+03</wgt>
<wgt id='12051'>0.63464E+03</wgt>
<wgt id='12052'>0.62597E+03</wgt>
<wgt id='12053'>0.63477E+03</wgt>
<wgt id='12054'>0.62771E+03</wgt>
<wgt id='12055'>0.62736E+03</wgt>
<wgt id='12056'>0.64189E+03</wgt>
<wgt id='12057'>0.63181E+03</wgt>
<wgt id='12058'>0.63122E+03</wgt>
<wgt id='12059'>0.63662E+03</wgt>
<wgt id='12060'>0.62613E+03</wgt>
<wgt id='12061'>0.62695E+03</wgt>
<wgt id='12062'>0.62969E+03</wgt>
<wgt id='12063'>0.63672E+03</wgt>
<wgt id='13000'>0.68048E+03</wgt>
<wgt id='13001'>0.67053E+03</wgt>
<wgt id='13002'>0.67199E+03</wgt>
<wgt id='13003'>0.67086E+03</wgt>
<wgt id='13004'>0.67167E+03</wgt>
<wgt id='13005'>0.67176E+03</wgt>
<wgt id='13006'>0.67077E+03</wgt>
<wgt id='13007'>0.67537E+03</wgt>
<wgt id='13008'>0.66727E+03</wgt>
<wgt id='13009'>0.66777E+03</wgt>
<wgt id='13010'>0.67488E+03</wgt>
<wgt id='13011'>0.67351E+03</wgt>
<wgt id='13012'>0.66906E+03</wgt>
<wgt id='13013'>0.67069E+03</wgt>
<wgt id='13014'>0.67177E+03</wgt>
<wgt id='13015'>0.67163E+03</wgt>
<wgt id='13016'>0.66901E+03</wgt>
<wgt id='13017'>0.67106E+03</wgt>
<wgt id='13018'>0.67155E+03</wgt>
<wgt id='13019'>0.67167E+03</wgt>
<wgt id='13020'>0.67097E+03</wgt>
<wgt id='13021'>0.67752E+03</wgt>
<wgt id='13022'>0.66525E+03</wgt>
<wgt id='13023'>0.66521E+03</wgt>
<wgt id='13024'>0.67745E+03</wgt>
<wgt id='13025'>0.65996E+03</wgt>
<wgt id='13026'>0.68235E+03</wgt>
<wgt id='13027'>0.66620E+03</wgt>
<wgt id='13028'>0.67675E+03</wgt>
<wgt id='13050'>0.68048E+03</wgt>
<wgt id='13051'>0.67428E+03</wgt>
<wgt id='13052'>0.66374E+03</wgt>
<wgt id='13053'>0.67405E+03</wgt>
<wgt id='13054'>0.66921E+03</wgt>
<wgt id='13055'>0.65371E+03</wgt>
<wgt id='13056'>0.67283E+03</wgt>
<wgt id='13057'>0.67130E+03</wgt>
<wgt id='13058'>0.67301E+03</wgt>
<wgt id='13059'>0.67601E+03</wgt>
<wgt id='13060'>0.64620E+03</wgt>
<wgt id='13061'>0.67173E+03</wgt>
<wgt id='13062'>0.67173E+03</wgt>
<wgt id='13063'>0.67991E+03</wgt>
<wgt id='14000'>0.70922E+03</wgt>
<wgt id='14001'>0.70914E+03</wgt>
<wgt id='14002'>0.70906E+03</wgt>
<wgt id='14003'>0.70898E+03</wgt>
<wgt id='14004'>0.70891E+03</wgt>
<wgt id='14005'>0.70883E+03</wgt>
<wgt id='14006'>0.70876E+03</wgt>
<wgt id='14007'>0.70868E+03</wgt>
<wgt id='14008'>0.70860E+03</wgt>
<wgt id='14009'>0.70853E+03</wgt>
<wgt id='14010'>0.70845E+03</wgt>
<wgt id='14011'>0.70837E+03</wgt>
<wgt id='14012'>0.70830E+03</wgt>
<wgt id='14013'>0.70822E+03</wgt>
<wgt id='14014'>0.70814E+03</wgt>
<wgt id='14015'>0.70807E+03</wgt>
<wgt id='14016'>0.70799E+03</wgt>
<wgt id='14017'>0.70791E+03</wgt>
<wgt id='14018'>0.70784E+03</wgt>
<wgt id='14019'>0.70776E+03</wgt>
<wgt id='14020'>0.70769E+03</wgt>
<wgt id='14021'>0.70761E+03</wgt>
<wgt id='14022'>0.70753E+03</wgt>
<wgt id='14023'>0.70746E+03</wgt>
<wgt id='14024'>0.70738E+03</wgt>
<wgt id='14025'>0.70730E+03</wgt>
<wgt id='14026'>0.70722E+03</wgt>
<wgt id='14027'>0.70715E+03</wgt>
<wgt id='14028'>0.70707E+03</wgt>
<wgt id='14029'>0.70700E+03</wgt>
<wgt id='14030'>0.70692E+03</wgt>
<wgt id='15000'>0.68990E+03</wgt>
<wgt id='15001'>0.69094E+03</wgt>
<wgt id='15002'>0.69021E+03</wgt>
<wgt id='15003'>0.68932E+03</wgt>
<wgt id='15004'>0.69234E+03</wgt>
<wgt id='15005'>0.69431E+03</wgt>
<wgt id='15006'>0.69117E+03</wgt>
<wgt id='15007'>0.68592E+03</wgt>
<wgt id='15008'>0.68813E+03</wgt>
<wgt id='15009'>0.69103E+03</wgt>
<wgt id='15010'>0.68828E+03</wgt>
<wgt id='15011'>0.69294E+03</wgt>
<wgt id='15012'>0.69519E+03</wgt>
<wgt id='15013'>0.69342E+03</wgt>
<wgt id='15014'>0.69126E+03</wgt>
<wgt id='15015'>0.68489E+03</wgt>
<wgt id='15016'>0.69271E+03</wgt>
<wgt id='15017'>0.68624E+03</wgt>
<wgt id='15018'>0.69343E+03</wgt>
<wgt id='15019'>0.69318E+03</wgt>
<wgt id='15020'>0.69709E+03</wgt>
<wgt id='15021'>0.68508E+03</wgt>
<wgt id='15022'>0.69097E+03</wgt>
<wgt id='15023'>0.68492E+03</wgt>
<wgt id='15024'>0.68727E+03</wgt>
<wgt id='15025'>0.69409E+03</wgt>
<wgt id='15026'>0.68968E+03</wgt>
<wgt id='15027'>0.68830E+03</wgt>
<wgt id='15028'>0.69065E+03</wgt>
<wgt id='15029'>0.69010E+03</wgt>
<wgt id='15030'>0.68871E+03</wgt>
<wgt id='15031'>0.68919E+03</wgt>
<wgt id='15032'>0.69086E+03</wgt>
<wgt id='15033'>0.69071E+03</wgt>
<wgt id='15034'>0.69026E+03</wgt>
<wgt id='15035'>0.69038E+03</wgt>
<wgt id='15036'>0.69022E+03</wgt>
<wgt id='15037'>0.69036E+03</wgt>
<wgt id='15038'>0.69058E+03</wgt>
<wgt id='15039'>0.69001E+03</wgt>
<wgt id='15040'>0.68933E+03</wgt>
<wgt id='15041'>0.69003E+03</wgt>
<wgt id='15042'>0.69036E+03</wgt>
<wgt id='15043'>0.68895E+03</wgt>
<wgt id='15044'>0.69029E+03</wgt>
<wgt id='15045'>0.69035E+03</wgt>
<wgt id='15046'>0.68895E+03</wgt>
<wgt id='15047'>0.69021E+03</wgt>
<wgt id='15048'>0.69035E+03</wgt>
<wgt id='15049'>0.68952E+03</wgt>
<wgt id='15050'>0.68994E+03</wgt>
<wgt id='15051'>0.69043E+03</wgt>
<wgt id='15052'>0.69056E+03</wgt>
<wgt id='15053'>0.68999E+03</wgt>
<wgt id='15054'>0.68955E+03</wgt>
<wgt id='15055'>0.68949E+03</wgt>
<wgt id='15056'>0.69031E+03</wgt>
<wgt id='15057'>0.68998E+03</wgt>
<wgt id='15058'>0.68897E+03</wgt>
<wgt id='15059'>0.68942E+03</wgt>
<wgt id='15060'>0.68968E+03</wgt>
<wgt id='15061'>0.68986E+03</wgt>
<wgt id='15062'>0.69007E+03</wgt>
<wgt id='15063'>0.69005E+03</wgt>
<wgt id='15064'>0.69002E+03</wgt>
<wgt id='15065'>0.68964E+03</wgt>
<wgt id='15066'>0.68971E+03</wgt>
<wgt id='15067'>0.69002E+03</wgt>
<wgt id='15068'>0.68996E+03</wgt>
<wgt id='15069'>0.69061E+03</wgt>
<wgt id='15070'>0.68971E+03</wgt>
<wgt id='15071'>0.69040E+03</wgt>
<wgt id='15072'>0.69047E+03</wgt>
<wgt id='15073'>0.68977E+03</wgt>
<wgt id='15074'>0.69007E+03</wgt>
<wgt id='15075'>0.68987E+03</wgt>
<wgt id='15076'>0.68985E+03</wgt>
<wgt id='15077'>0.69015E+03</wgt>
<wgt id='15078'>0.69005E+03</wgt>
<wgt id='15079'>0.68980E+03</wgt>
<wgt id='15080'>0.69065E+03</wgt>
<wgt id='15081'>0.68998E+03</wgt>
<wgt id='15082'>0.69014E+03</wgt>
<wgt id='15083'>0.68969E+03</wgt>
<wgt id='15084'>0.68950E+03</wgt>
<wgt id='15085'>0.68939E+03</wgt>
<wgt id='15086'>0.69016E+03</wgt>
<wgt id='15087'>0.68907E+03</wgt>
<wgt id='15088'>0.68949E+03</wgt>
<wgt id='15089'>0.68956E+03</wgt>
<wgt id='15090'>0.69000E+03</wgt>
<wgt id='15091'>0.68971E+03</wgt>
<wgt id='15092'>0.68979E+03</wgt>
<wgt id='15093'>0.68971E+03</wgt>
<wgt id='15094'>0.68969E+03</wgt>
<wgt id='15095'>0.69000E+03</wgt>
<wgt id='15096'>0.68974E+03</wgt>
<wgt id='15097'>0.68998E+03</wgt>
<wgt id='15098'>0.68982E+03</wgt>
<wgt id='15099'>0.68966E+03</wgt>
<wgt id='15100'>0.68994E+03</wgt>
<wgt id='15101'>0.68989E+03</wgt>
<wgt id='15102'>0.68985E+03</wgt>
<wgt id='15103'>0.68990E+03</wgt>
<wgt id='15104'>0.68991E+03</wgt>
<wgt id='15105'>0.68992E+03</wgt>
<wgt id='15106'>0.68990E+03</wgt>
<wgt id='15107'>0.68986E+03</wgt>
<wgt id='1500'>0.74166E+03</wgt>
<wgt id='1501'>0.73010E+03</wgt>
<wgt id='1502'>0.75102E+03</wgt>
<wgt id='1503'>0.76138E+03</wgt>
<wgt id='1504'>0.71489E+03</wgt>
<wgt id='1505'>0.71346E+03</wgt>
<wgt id='1506'>0.73489E+03</wgt>
<wgt id='1507'>0.74206E+03</wgt>
<wgt id='1508'>0.75180E+03</wgt>
<wgt id='1509'>0.74741E+03</wgt>
<wgt id='1510'>0.74767E+03</wgt>
<wgt id='1511'>0.71733E+03</wgt>
<wgt id='1512'>0.73916E+03</wgt>
<wgt id='1513'>0.73087E+03</wgt>
<wgt id='1514'>0.75755E+03</wgt>
<wgt id='1515'>0.74857E+03</wgt>
<wgt id='1516'>0.75636E+03</wgt>
<wgt id='1517'>0.76335E+03</wgt>
<wgt id='1518'>0.75947E+03</wgt>
<wgt id='1519'>0.73725E+03</wgt>
<wgt id='1520'>0.76323E+03</wgt>
<wgt id='1521'>0.72436E+03</wgt>
<wgt id='1522'>0.73307E+03</wgt>
<wgt id='1523'>0.75218E+03</wgt>
<wgt id='1524'>0.73288E+03</wgt>
<wgt id='1525'>0.73652E+03</wgt>
<wgt id='1526'>0.72641E+03</wgt>
<wgt id='1527'>0.76884E+03</wgt>
<wgt id='1528'>0.74381E+03</wgt>
<wgt id='1529'>0.75783E+03</wgt>
<wgt id='1530'>0.74583E+03</wgt>
<wgt id='1531'>0.72594E+03</wgt>
<wgt id='1532'>0.73037E+03</wgt>
<wgt id='1533'>0.73086E+03</wgt>
<wgt id='1534'>0.72178E+03</wgt>
<wgt id='1535'>0.77366E+03</wgt>
<wgt id='1536'>0.74494E+03</wgt>
<wgt id='1537'>0.74824E+03</wgt>
<wgt id='1538'>0.75230E+03</wgt>
<wgt id='1539'>0.72775E+03</wgt>
<wgt id='1540'>0.73250E+03</wgt>
<wgt id='1541'>0.73645E+03</wgt>
<wgt id='1542'>0.72615E+03</wgt>
<wgt id='1543'>0.72442E+03</wgt>
<wgt id='1544'>0.74087E+03</wgt>
<wgt id='1545'>0.75144E+03</wgt>
<wgt id='1546'>0.74070E+03</wgt>
<wgt id='1547'>0.74151E+03</wgt>
<wgt id='1548'>0.74228E+03</wgt>
<wgt id='1549'>0.75296E+03</wgt>
<wgt id='1550'>0.73872E+03</wgt>
<wgt id='1551'>0.73403E+03</wgt>
<wgt id='1552'>0.74230E+03</wgt>
<wgt id='1553'>0.74164E+03</wgt>
<wgt id='1554'>0.72403E+03</wgt>
<wgt id='1555'>0.73637E+03</wgt>
<wgt id='1556'>0.75106E+03</wgt>
<wgt id='1557'>0.74090E+03</wgt>
<wgt id='1558'>0.73556E+03</wgt>
<wgt id='1559'>0.75593E+03</wgt>
<wgt id='1560'>0.73969E+03</wgt>
<wgt id='1561'>0.74428E+03</wgt>
<wgt id='1562'>0.75394E+03</wgt>
<wgt id='1563'>0.72902E+03</wgt>
<wgt id='1564'>0.75525E+03</wgt>
<wgt id='1565'>0.74223E+03</wgt>
<wgt id='1566'>0.73656E+03</wgt>
<wgt id='1567'>0.77440E+03</wgt>
<wgt id='1568'>0.74014E+03</wgt>
<wgt id='1569'>0.73024E+03</wgt>
<wgt id='1570'>0.72925E+03</wgt>
<wgt id='1571'>0.73599E+03</wgt>
<wgt id='1572'>0.73441E+03</wgt>
<wgt id='1573'>0.73807E+03</wgt>
<wgt id='1574'>0.74093E+03</wgt>
<wgt id='1575'>0.74676E+03</wgt>
<wgt id='1576'>0.71484E+03</wgt>
<wgt id='1577'>0.71948E+03</wgt>
<wgt id='1578'>0.73397E+03</wgt>
<wgt id='1579'>0.74126E+03</wgt>
<wgt id='1580'>0.73038E+03</wgt>
<wgt id='1581'>0.74101E+03</wgt>
<wgt id='1582'>0.73335E+03</wgt>
<wgt id='1583'>0.75078E+03</wgt>
<wgt id='1584'>0.74780E+03</wgt>
<wgt id='1585'>0.74812E+03</wgt>
<wgt id='1586'>0.74193E+03</wgt>
<wgt id='1587'>0.75563E+03</wgt>
<wgt id='1588'>0.74762E+03</wgt>
<wgt id='1589'>0.74586E+03</wgt>
<wgt id='1590'>0.72968E+03</wgt>
<wgt id='1591'>0.73530E+03</wgt>
<wgt id='1592'>0.73788E+03</wgt>
<wgt id='1593'>0.75225E+03</wgt>
<wgt id='1594'>0.75646E+03</wgt>
<wgt id='1595'>0.75772E+03</wgt>
<wgt id='1596'>0.74227E+03</wgt>
<wgt id='1597'>0.74568E+03</wgt>
<wgt id='1598'>0.74157E+03</wgt>
<wgt id='1599'>0.74906E+03</wgt>
<wgt id='1600'>0.75547E+03</wgt>
<wgt id='1601'>0.73273E+03</wgt>
<wgt id='1602'>0.74682E+03</wgt>
<wgt id='1700'>0.69881E+03</wgt>
<wgt id='1800'>0.69963E+03</wgt>
<wgt id='1850'>0.80368E+03</wgt>
<wgt id='1900'>0.76616E+03</wgt>
<wgt id='1950'>0.77945E+03</wgt>
</rwgt>
</event>
<event>
     13 322222  6.87070E+02  6.01440E+01 -1.00000E+00  1.32767E-01
      21    -1     0     0   502   503  0.000000000E+00  0.000000000E+00  5.797738347E+01  5.797738347E+01  0.000000000E+00  0.00000E+00  9.000E+00
      21    -1     0     0   504   505  0.000000000E+00  0.000000000E+00 -1.102288482E+03  1.102288482E+03  0.000000000E+00  0.00000E+00  9.000E+00
       6     2     1     2   502     0 -1.345853726E+01 -2.868641599E+01 -1.399408541E+02  2.221997206E+02  1.696621068E+02  0.00000E+00  9.000E+00
      -6     2     1     2     0   505 -4.584908044E+01  1.869097316E+01 -5.498263615E+02  5.784570970E+02  1.727775872E+02  0.00000E+00  9.000E+00
      21     1     1     2   504   503  5.930761770E+01  9.995442830E+00 -3.545438826E+02  3.596090475E+02  0.000000000E+00  0.00000E+00  9.000E+00
      24     2     3     3     0     0  5.774926675E+01 -9.420480698E+00 -8.026237258E+01  1.271929378E+02  7.944980626E+01  0.00000E+00  9.000E+00
       5     1     3     3   502     0 -7.120780401E+01 -1.926593529E+01 -5.967848157E+01  9.500678279E+01  4.800000000E+00  0.00000E+00 -1.000E+00
     -24     2     4     4     0     0  2.782705621E+01 -1.494405745E+01 -1.745180097E+02  1.944793798E+02  7.979989689E+01  0.00000E+00  9.000E+00
      -5     1     4     4     0   505 -7.367613665E+01  3.363503061E+01 -3.753083517E+02  3.839777172E+02  4.800000000E+00  0.00000E+00  1.000E+00
      -3     1     6     6     0   506 -1.775800878E+00 -1.950876595E+01  7.229360671E+00  2.088178808E+01  2.000000000E-01  0.00000E+00  1.000E+00
       4     1     6     6   506     0  5.952506763E+01  1.008828525E+01 -8.749173325E+01  1.063111498E+02  1.500000000E+00  0.00000E+00 -1.000E+00
      11     1     8     8     0     0  2.873998049E+01  2.955643118E+01 -7.952595231E+01  8.957648238E+01  5.100000000E-04  0.00000E+00 -1.000E+00
     -12     1     8     8     0     0 -9.129242772E-01 -4.450048864E+01 -9.499205741E+01  1.049028974E+02  0.000000000E+00  0.00000E+00  1.000E+00
#rwgt            1           1   367.37809061891647                2        5158           0
<rwgt>
<wgt id='1001'>0.68707E+03</wgt>
<wgt id='1002'>0.80968E+03</wgt>
<wgt id='1003'>0.55372E+03</wgt>
<wgt id='1004'>0.59740E+03</wgt>
<wgt id='1005'>0.68752E+03</wgt>
<wgt id='1006'>0.49899E+03</wgt>
<wgt id='1007'>0.79700E+03</wgt>
<wgt id='1008'>0.96825E+03</wgt>
<wgt id='1009'>0.61142E+03</wgt>
<wgt id='2000'>0.68707E+03</wgt>
<wgt id='2001'>0.68674E+03</wgt>
<wgt id='2002'>0.68847E+03</wgt>
<wgt id='2003'>0.68756E+03</wgt>
<wgt id='2004'>0.68875E+03</wgt>
<wgt id='2005'>0.68676E+03</wgt>
<wgt id='2006'>0.68532E+03</wgt>
<wgt id='2007'>0.68739E+03</wgt>
<wgt id='2008'>0.68718E+03</wgt>
<wgt id='2009'>0.68754E+03</wgt>
<wgt id='2010'>0.68624E+03</wgt>
<wgt id='2011'>0.68675E+03</wgt>
<wgt id='2012'>0.68737E+03</wgt>
<wgt id='2013'>0.68689E+03</wgt>
<wgt id='2014'>0.68574E+03</wgt>
<wgt id='2015'>0.68635E+03</wgt>
<wgt id='2016'>0.68661E+03</wgt>
<wgt id='2017'>0.68637E+03</wgt>
<wgt id='2018'>0.68573E+03</wgt>
<wgt id='2019'>0.68727E+03</wgt>
<wgt id='2020'>0.68438E+03</wgt>
<wgt id='2021'>0.68859E+03</wgt>
<wgt id='2022'>0.68341E+03</wgt>
<wgt id='2023'>0.68699E+03</wgt>
<wgt id='2024'>0.68558E+03</wgt>
<wgt id='2025'>0.68364E+03</wgt>
<wgt id='2026'>0.68638E+03</wgt>
<wgt id='2027'>0.68573E+03</wgt>
<wgt id='2028'>0.68687E+03</wgt>
<wgt id='2029'>0.69338E+03</wgt>
<wgt id='2030'>0.68791E+03</wgt>
<wgt id='2031'>0.68707E+03</wgt>
<wgt id='2032'>0.68913E+03</wgt>
<wgt id='2033'>0.68827E+03</wgt>
<wgt id='2034'>0.68684E+03</wgt>
<wgt id='2035'>0.68573E+03</wgt>
<wgt id='2036'>0.68548E+03</wgt>
<wgt id='2037'>0.68800E+03</wgt>
<wgt id='2038'>0.68710E+03</wgt>
<wgt id='2039'>0.68783E+03</wgt>
<wgt id='2040'>0.68656E+03</wgt>
<wgt id='2041'>0.68522E+03</wgt>
<wgt id='2042'>0.68369E+03</wgt>
<wgt id='2043'>0.68937E+03</wgt>
<wgt id='2044'>0.68841E+03</wgt>
<wgt id='2045'>0.68660E+03</wgt>
<wgt id='2046'>0.68863E+03</wgt>
<wgt id='2047'>0.68839E+03</wgt>
<wgt id='2048'>0.68682E+03</wgt>
<wgt id='2049'>0.68724E+03</wgt>
<wgt id='2050'>0.68832E+03</wgt>
<wgt id='2051'>0.68773E+03</wgt>
<wgt id='2052'>0.68594E+03</wgt>
<wgt id='2053'>0.68659E+03</wgt>
<wgt id='2054'>0.68731E+03</wgt>
<wgt id='2055'>0.68769E+03</wgt>
<wgt id='2056'>0.68719E+03</wgt>
<wgt id='2057'>0.68612E+03</wgt>
<wgt id='2058'>0.68731E+03</wgt>
<wgt id='2059'>0.68706E+03</wgt>
<wgt id='2060'>0.68769E+03</wgt>
<wgt id='2061'>0.68677E+03</wgt>
<wgt id='2062'>0.68672E+03</wgt>
<wgt id='2063'>0.68695E+03</wgt>
<wgt id='2064'>0.68643E+03</wgt>
<wgt id='2065'>0.68703E+03</wgt>
<wgt id='2066'>0.68661E+03</wgt>
<wgt id='2067'>0.68708E+03</wgt>
<wgt id='2068'>0.68741E+03</wgt>
<wgt id='2069'>0.68729E+03</wgt>
<wgt id='2070'>0.68713E+03</wgt>
<wgt id='2071'>0.68655E+03</wgt>
<wgt id='2072'>0.68711E+03</wgt>
<wgt id='2073'>0.68717E+03</wgt>
<wgt id='2074'>0.68720E+03</wgt>
<wgt id='2075'>0.68677E+03</wgt>
<wgt id='2076'>0.68729E+03</wgt>
<wgt id='2077'>0.68678E+03</wgt>
<wgt id='2078'>0.68703E+03</wgt>
<wgt id='2079'>0.68715E+03</wgt>
<wgt id='2080'>0.68727E+03</wgt>
<wgt id='2081'>0.68736E+03</wgt>
<wgt id='2082'>0.68729E+03</wgt>
<wgt id='2083'>0.68712E+03</wgt>
<wgt id='2084'>0.68714E+03</wgt>
<wgt id='2085'>0.68717E+03</wgt>
<wgt id='2086'>0.68690E+03</wgt>
<wgt id='2087'>0.68687E+03</wgt>
<wgt id='2088'>0.68710E+03</wgt>
<wgt id='2089'>0.68681E+03</wgt>
<wgt id='2090'>0.68689E+03</wgt>
<wgt id='2091'>0.68714E+03</wgt>
<wgt id='2092'>0.68703E+03</wgt>
<wgt id='2093'>0.68704E+03</wgt>
<wgt id='2094'>0.68720E+03</wgt>
<wgt id='2095'>0.68728E+03</wgt>
<wgt id='2096'>0.68695E+03</wgt>
<wgt id='2097'>0.68723E+03</wgt>
<wgt id='2098'>0.68707E+03</wgt>
<wgt id='2099'>0.68686E+03</wgt>
<wgt id='2100'>0.68719E+03</wgt>
<wgt id='2101'>0.67130E+03</wgt>
<wgt id='2102'>0.70648E+03</wgt>
<wgt id='2104'>0.59644E+03</wgt>
<wgt id='2105'>0.61500E+03</wgt>
<wgt id='2106'>0.63163E+03</wgt>
<wgt id='2107'>0.64737E+03</wgt>
<wgt id='2108'>0.67827E+03</wgt>
<wgt id='2109'>0.69814E+03</wgt>
<wgt id='2110'>0.72594E+03</wgt>
<wgt id='2111'>0.74516E+03</wgt>
<wgt id='3000'>0.72461E+03</wgt>
<wgt id='3001'>0.72614E+03</wgt>
<wgt id='3002'>0.72322E+03</wgt>
<wgt id='3003'>0.72441E+03</wgt>
<wgt id='3004'>0.72673E+03</wgt>
<wgt id='3005'>0.72485E+03</wgt>
<wgt id='3006'>0.72455E+03</wgt>
<wgt id='3007'>0.72436E+03</wgt>
<wgt id='3008'>0.72399E+03</wgt>
<wgt id='3009'>0.72418E+03</wgt>
<wgt id='3010'>0.72280E+03</wgt>
<wgt id='3011'>0.72440E+03</wgt>
<wgt id='3012'>0.72588E+03</wgt>
<wgt id='3013'>0.72375E+03</wgt>
<wgt id='3014'>0.72418E+03</wgt>
<wgt id='3015'>0.72464E+03</wgt>
<wgt id='3016'>0.72507E+03</wgt>
<wgt id='3017'>0.72435E+03</wgt>
<wgt id='3018'>0.72410E+03</wgt>
<wgt id='3019'>0.72599E+03</wgt>
<wgt id='3020'>0.72723E+03</wgt>
<wgt id='3021'>0.72710E+03</wgt>
<wgt id='3022'>0.72448E+03</wgt>
<wgt id='3023'>0.72517E+03</wgt>
<wgt id='3024'>0.72625E+03</wgt>
<wgt id='3025'>0.72525E+03</wgt>
<wgt id='3026'>0.72211E+03</wgt>
<wgt id='3027'>0.72544E+03</wgt>
<wgt id='3028'>0.72599E+03</wgt>
<wgt id='3029'>0.72299E+03</wgt>
<wgt id='3030'>0.72910E+03</wgt>
<wgt id='3031'>0.72694E+03</wgt>
<wgt id='3032'>0.72229E+03</wgt>
<wgt id='3033'>0.72286E+03</wgt>
<wgt id='3034'>0.72384E+03</wgt>
<wgt id='3035'>0.72390E+03</wgt>
<wgt id='3036'>0.72586E+03</wgt>
<wgt id='3037'>0.72620E+03</wgt>
<wgt id='3038'>0.72510E+03</wgt>
<wgt id='3039'>0.72729E+03</wgt>
<wgt id='3040'>0.72586E+03</wgt>
<wgt id='3041'>0.72444E+03</wgt>
<wgt id='3042'>0.72162E+03</wgt>
<wgt id='3043'>0.72163E+03</wgt>
<wgt id='3044'>0.72656E+03</wgt>
<wgt id='3045'>0.72644E+03</wgt>
<wgt id='3046'>0.72584E+03</wgt>
<wgt id='3047'>0.72361E+03</wgt>
<wgt id='3048'>0.72668E+03</wgt>
<wgt id='3049'>0.72392E+03</wgt>
<wgt id='3050'>0.72409E+03</wgt>
<wgt id='3051'>0.72704E+03</wgt>
<wgt id='3052'>0.72431E+03</wgt>
<wgt id='3053'>0.72363E+03</wgt>
<wgt id='3054'>0.72417E+03</wgt>
<wgt id='3055'>0.72523E+03</wgt>
<wgt id='3056'>0.72470E+03</wgt>
<wgt id='3057'>0.72366E+03</wgt>
<wgt id='3058'>0.72475E+03</wgt>
<wgt id='3059'>0.72413E+03</wgt>
<wgt id='3060'>0.72460E+03</wgt>
<wgt id='3061'>0.72399E+03</wgt>
<wgt id='3062'>0.72444E+03</wgt>
<wgt id='3063'>0.72509E+03</wgt>
<wgt id='3064'>0.72438E+03</wgt>
<wgt id='3065'>0.72469E+03</wgt>
<wgt id='3066'>0.72472E+03</wgt>
<wgt id='3067'>0.72446E+03</wgt>
<wgt id='3068'>0.72463E+03</wgt>
<wgt id='3069'>0.72431E+03</wgt>
<wgt id='3070'>0.72458E+03</wgt>
<wgt id='3071'>0.72476E+03</wgt>
<wgt id='3072'>0.72445E+03</wgt>
<wgt id='3073'>0.72425E+03</wgt>
<wgt id='3074'>0.72539E+03</wgt>
<wgt id='3075'>0.72444E+03</wgt>
<wgt id='3076'>0.72480E+03</wgt>
<wgt id='3077'>0.72486E+03</wgt>
<wgt id='3078'>0.72482E+03</wgt>
<wgt id='3079'>0.72445E+03</wgt>
<wgt id='3080'>0.72432E+03</wgt>
<wgt id='3081'>0.72454E+03</wgt>
<wgt id='3082'>0.72439E+03</wgt>
<wgt id='3083'>0.72472E+03</wgt>
<wgt id='3084'>0.72455E+03</wgt>
<wgt id='3085'>0.72485E+03</wgt>
<wgt id='3086'>0.72428E+03</wgt>
<wgt id='3087'>0.72441E+03</wgt>
<wgt id='3088'>0.72455E+03</wgt>
<wgt id='3089'>0.72466E+03</wgt>
<wgt id='3090'>0.72466E+03</wgt>
<wgt id='3091'>0.72472E+03</wgt>
<wgt id='3092'>0.72473E+03</wgt>
<wgt id='3093'>0.72468E+03</wgt>
<wgt id='3094'>0.72484E+03</wgt>
<wgt id='3095'>0.72462E+03</wgt>
<wgt id='3096'>0.72457E+03</wgt>
<wgt id='3097'>0.72445E+03</wgt>
<wgt id='3098'>0.72460E+03</wgt>
<wgt id='3099'>0.72472E+03</wgt>
<wgt id='3100'>0.72473E+03</wgt>
<wgt id='3101'>0.70552E+03</wgt>
<wgt id='3102'>0.74558E+03</wgt>
<wgt id='5000'>0.70096E+03</wgt>
<wgt id='5001'>0.70174E+03</wgt>
<wgt id='5002'>0.70279E+03</wgt>
<wgt id='5003'>0.70095E+03</wgt>
<wgt id='5004'>0.70114E+03</wgt>
<wgt id='5005'>0.69917E+03</wgt>
<wgt id='5006'>0.68940E+03</wgt>
<wgt id='5007'>0.69558E+03</wgt>
<wgt id='5008'>0.70543E+03</wgt>
<wgt id='5009'>0.69550E+03</wgt>
<wgt id='5010'>0.70219E+03</wgt>
<wgt id='5011'>0.70677E+03</wgt>
<wgt id='5012'>0.69592E+03</wgt>
<wgt id='5013'>0.71845E+03</wgt>
<wgt id='5014'>0.69682E+03</wgt>
<wgt id='5015'>0.69780E+03</wgt>
<wgt id='5016'>0.70883E+03</wgt>
<wgt id='5017'>0.69181E+03</wgt>
<wgt id='5018'>0.71056E+03</wgt>
<wgt id='5019'>0.70136E+03</wgt>
<wgt id='5020'>0.69980E+03</wgt>
<wgt id='5021'>0.69785E+03</wgt>
<wgt id='5022'>0.70289E+03</wgt>
<wgt id='5023'>0.69669E+03</wgt>
<wgt id='5024'>0.70571E+03</wgt>
<wgt id='5025'>0.70400E+03</wgt>
<wgt id='5026'>0.69846E+03</wgt>
<wgt id='5027'>0.70152E+03</wgt>
<wgt id='5028'>0.69986E+03</wgt>
<wgt id='5029'>0.70375E+03</wgt>
<wgt id='5030'>0.69904E+03</wgt>
<wgt id='5031'>0.69987E+03</wgt>
<wgt id='5032'>0.70240E+03</wgt>
<wgt id='5033'>0.69751E+03</wgt>
<wgt id='5034'>0.70439E+03</wgt>
<wgt id='5035'>0.70239E+03</wgt>
<wgt id='5036'>0.69928E+03</wgt>
<wgt id='5037'>0.68648E+03</wgt>
<wgt id='5038'>0.71752E+03</wgt>
<wgt id='5039'>0.71666E+03</wgt>
<wgt id='5040'>0.69274E+03</wgt>
<wgt id='5041'>0.70186E+03</wgt>
<wgt id='5042'>0.70139E+03</wgt>
<wgt id='5043'>0.70895E+03</wgt>
<wgt id='5044'>0.70093E+03</wgt>
<wgt id='5045'>0.69166E+03</wgt>
<wgt id='5046'>0.69339E+03</wgt>
<wgt id='5047'>0.68901E+03</wgt>
<wgt id='5048'>0.70268E+03</wgt>
<wgt id='5049'>0.70034E+03</wgt>
<wgt id='5050'>0.70107E+03</wgt>
<wgt id='5051'>0.70152E+03</wgt>
<wgt id='5052'>0.69935E+03</wgt>
<wgt id='5053'>0.67540E+03</wgt>
<wgt id='5054'>0.69288E+03</wgt>
<wgt id='5055'>0.69537E+03</wgt>
<wgt id='5056'>0.71033E+03</wgt>
<wgt id='5060'>0.68093E+03</wgt>
<wgt id='5070'>0.72201E+03</wgt>
<wgt id='4000'>0.71960E+03</wgt>
<wgt id='4001'>0.71800E+03</wgt>
<wgt id='4002'>0.72087E+03</wgt>
<wgt id='4003'>0.70673E+03</wgt>
<wgt id='4004'>0.71801E+03</wgt>
<wgt id='4005'>0.72063E+03</wgt>
<wgt id='4006'>0.71930E+03</wgt>
<wgt id='4007'>0.71428E+03</wgt>
<wgt id='4008'>0.71819E+03</wgt>
<wgt id='4009'>0.72062E+03</wgt>
<wgt id='4010'>0.72436E+03</wgt>
<wgt id='4011'>0.72809E+03</wgt>
<wgt id='4012'>0.71262E+03</wgt>
<wgt id='4013'>0.71876E+03</wgt>
<wgt id='4014'>0.72202E+03</wgt>
<wgt id='4015'>0.73438E+03</wgt>
<wgt id='4016'>0.70978E+03</wgt>
<wgt id='4017'>0.70667E+03</wgt>
<wgt id='4018'>0.73498E+03</wgt>
<wgt id='4019'>0.72044E+03</wgt>
<wgt id='4020'>0.71837E+03</wgt>
<wgt id='4021'>0.72047E+03</wgt>
<wgt id='4022'>0.71782E+03</wgt>
<wgt id='4023'>0.72177E+03</wgt>
<wgt id='4024'>0.71726E+03</wgt>
<wgt id='4025'>0.72927E+03</wgt>
<wgt id='4026'>0.71013E+03</wgt>
<wgt id='4027'>0.72286E+03</wgt>
<wgt id='4028'>0.71507E+03</wgt>
<wgt id='4029'>0.72215E+03</wgt>
<wgt id='4030'>0.71873E+03</wgt>
<wgt id='4031'>0.72122E+03</wgt>
<wgt id='4032'>0.71749E+03</wgt>
<wgt id='4033'>0.71686E+03</wgt>
<wgt id='4034'>0.72561E+03</wgt>
<wgt id='4035'>0.70724E+03</wgt>
<wgt id='4036'>0.73157E+03</wgt>
<wgt id='4037'>0.71508E+03</wgt>
<wgt id='4038'>0.72598E+03</wgt>
<wgt id='4039'>0.71637E+03</wgt>
<wgt id='4040'>0.72320E+03</wgt>
<wgt id='4041'>0.71601E+03</wgt>
<wgt id='4042'>0.72286E+03</wgt>
<wgt id='4043'>0.70733E+03</wgt>
<wgt id='4044'>0.73228E+03</wgt>
<wgt id='4045'>0.73027E+03</wgt>
<wgt id='4046'>0.71807E+03</wgt>
<wgt id='4047'>0.71910E+03</wgt>
<wgt id='4048'>0.71411E+03</wgt>
<wgt id='4049'>0.71497E+03</wgt>
<wgt id='4050'>0.71993E+03</wgt>
<wgt id='4051'>0.72174E+03</wgt>
<wgt id='4052'>0.71974E+03</wgt>
<wgt id='4053'>0.69158E+03</wgt>
<wgt id='4054'>0.72627E+03</wgt>
<wgt id='4055'>0.71554E+03</wgt>
<wgt id='4056'>0.72655E+03</wgt>
<wgt id='4060'>0.69980E+03</wgt>
<wgt id='4070'>0.74065E+03</wgt>
<wgt id='4080'>0.74812E+03</wgt>
<wgt id='6000'>0.72618E+03</wgt>
<wgt id='6001'>0.72666E+03</wgt>
<wgt id='6002'>0.72565E+03</wgt>
<wgt id='6003'>0.72673E+03</wgt>
<wgt id='6004'>0.72581E+03</wgt>
<wgt id='6005'>0.72984E+03</wgt>
<wgt id='6006'>0.72276E+03</wgt>
<wgt id='6007'>0.72355E+03</wgt>
<wgt id='6008'>0.72913E+03</wgt>
<wgt id='6009'>0.72762E+03</wgt>
<wgt id='6010'>0.72475E+03</wgt>
<wgt id='6011'>0.72711E+03</wgt>
<wgt id='6012'>0.72414E+03</wgt>
<wgt id='6013'>0.72575E+03</wgt>
<wgt id='6014'>0.72693E+03</wgt>
<wgt id='6015'>0.72498E+03</wgt>
<wgt id='6016'>0.72685E+03</wgt>
<wgt id='6017'>0.72265E+03</wgt>
<wgt id='6018'>0.73034E+03</wgt>
<wgt id='6019'>0.72642E+03</wgt>
<wgt id='6020'>0.72597E+03</wgt>
<wgt id='6021'>0.72447E+03</wgt>
<wgt id='6022'>0.72844E+03</wgt>
<wgt id='6023'>0.72115E+03</wgt>
<wgt id='6024'>0.72956E+03</wgt>
<wgt id='6025'>0.72864E+03</wgt>
<wgt id='6026'>0.72327E+03</wgt>
<wgt id='6027'>0.72688E+03</wgt>
<wgt id='6028'>0.72602E+03</wgt>
<wgt id='6029'>0.72359E+03</wgt>
<wgt id='6030'>0.72935E+03</wgt>
<wgt id='6031'>0.71791E+03</wgt>
<wgt id='6032'>0.73553E+03</wgt>
<wgt id='6033'>0.73003E+03</wgt>
<wgt id='6034'>0.72243E+03</wgt>
<wgt id='6035'>0.72758E+03</wgt>
<wgt id='6036'>0.72313E+03</wgt>
<wgt id='6037'>0.72701E+03</wgt>
<wgt id='6038'>0.72586E+03</wgt>
<wgt id='6039'>0.72399E+03</wgt>
<wgt id='6040'>0.72866E+03</wgt>
<wgt id='6041'>0.72034E+03</wgt>
<wgt id='6042'>0.73287E+03</wgt>
<wgt id='6043'>0.73347E+03</wgt>
<wgt id='6044'>0.72291E+03</wgt>
<wgt id='6045'>0.72501E+03</wgt>
<wgt id='6046'>0.72915E+03</wgt>
<wgt id='6047'>0.72903E+03</wgt>
<wgt id='6048'>0.72284E+03</wgt>
<wgt id='6049'>0.72680E+03</wgt>
<wgt id='6050'>0.72591E+03</wgt>
<wgt id='7000'>0.68916E+03</wgt>
<wgt id='7001'>0.68897E+03</wgt>
<wgt id='7002'>0.68940E+03</wgt>
<wgt id='7003'>0.69157E+03</wgt>
<wgt id='7004'>0.68676E+03</wgt>
<wgt id='7005'>0.69092E+03</wgt>
<wgt id='7006'>0.68845E+03</wgt>
<wgt id='7007'>0.68825E+03</wgt>
<wgt id='7008'>0.69007E+03</wgt>
<wgt id='7009'>0.69002E+03</wgt>
<wgt id='7010'>0.68833E+03</wgt>
<wgt id='7011'>0.68576E+03</wgt>
<wgt id='7012'>0.69064E+03</wgt>
<wgt id='7013'>0.68903E+03</wgt>
<wgt id='7014'>0.68933E+03</wgt>
<wgt id='7015'>0.68847E+03</wgt>
<wgt id='7016'>0.68991E+03</wgt>
<wgt id='7017'>0.68758E+03</wgt>
<wgt id='7018'>0.69003E+03</wgt>
<wgt id='7019'>0.68901E+03</wgt>
<wgt id='7020'>0.68934E+03</wgt>
<wgt id='7021'>0.68852E+03</wgt>
<wgt id='7022'>0.68959E+03</wgt>
<wgt id='7023'>0.69406E+03</wgt>
<wgt id='7024'>0.68444E+03</wgt>
<wgt id='7025'>0.69098E+03</wgt>
<wgt id='7026'>0.68461E+03</wgt>
<wgt id='7027'>0.68967E+03</wgt>
<wgt id='7028'>0.68853E+03</wgt>
<wgt id='7029'>0.69160E+03</wgt>
<wgt id='7030'>0.68308E+03</wgt>
<wgt id='7031'>0.68563E+03</wgt>
<wgt id='7032'>0.69652E+03</wgt>
<wgt id='7033'>0.69023E+03</wgt>
<wgt id='7034'>0.68714E+03</wgt>
<wgt id='7035'>0.68439E+03</wgt>
<wgt id='7036'>0.69135E+03</wgt>
<wgt id='7037'>0.68899E+03</wgt>
<wgt id='7038'>0.68942E+03</wgt>
<wgt id='7039'>0.68631E+03</wgt>
<wgt id='7040'>0.69132E+03</wgt>
<wgt id='7041'>0.69143E+03</wgt>
<wgt id='7042'>0.68542E+03</wgt>
<wgt id='7043'>0.68985E+03</wgt>
<wgt id='7044'>0.68522E+03</wgt>
<wgt id='7045'>0.68244E+03</wgt>
<wgt id='7046'>0.69356E+03</wgt>
<wgt id='7047'>0.69198E+03</wgt>
<wgt id='7048'>0.68787E+03</wgt>
<wgt id='7049'>0.68775E+03</wgt>
<wgt id='7050'>0.68972E+03</wgt>
<wgt id='7060'>0.95359E+03</wgt>
<wgt id='8000'>0.68571E+03</wgt>
<wgt id='8001'>0.68562E+03</wgt>
<wgt id='8002'>0.68593E+03</wgt>
<wgt id='8003'>0.68573E+03</wgt>
<wgt id='8004'>0.68569E+03</wgt>
<wgt id='8005'>0.68433E+03</wgt>
<wgt id='8006'>0.68638E+03</wgt>
<wgt id='8007'>0.68689E+03</wgt>
<wgt id='8008'>0.68727E+03</wgt>
<wgt id='8009'>0.68872E+03</wgt>
<wgt id='8010'>0.68499E+03</wgt>
<wgt id='8011'>0.68586E+03</wgt>
<wgt id='8012'>0.68329E+03</wgt>
<wgt id='8013'>0.68440E+03</wgt>
<wgt id='8014'>0.68729E+03</wgt>
<wgt id='8015'>0.68525E+03</wgt>
<wgt id='8016'>0.68656E+03</wgt>
<wgt id='8017'>0.68641E+03</wgt>
<wgt id='8018'>0.68775E+03</wgt>
<wgt id='8019'>0.68540E+03</wgt>
<wgt id='8020'>0.68653E+03</wgt>
<wgt id='8021'>0.68480E+03</wgt>
<wgt id='8022'>0.68718E+03</wgt>
<wgt id='8023'>0.68421E+03</wgt>
<wgt id='8024'>0.68249E+03</wgt>
<wgt id='8025'>0.68402E+03</wgt>
<wgt id='8026'>0.68627E+03</wgt>
<wgt id='8027'>0.68643E+03</wgt>
<wgt id='8028'>0.68614E+03</wgt>
<wgt id='8029'>0.69054E+03</wgt>
<wgt id='8500'>0.72679E+03</wgt>
<wgt id='8501'>0.72089E+03</wgt>
<wgt id='8502'>0.72972E+03</wgt>
<wgt id='8503'>0.72932E+03</wgt>
<wgt id='8504'>0.72318E+03</wgt>
<wgt id='8505'>0.72660E+03</wgt>
<wgt id='8506'>0.72818E+03</wgt>
<wgt id='8507'>0.72353E+03</wgt>
<wgt id='8508'>0.72078E+03</wgt>
<wgt id='8509'>0.72889E+03</wgt>
<wgt id='8510'>0.72991E+03</wgt>
<wgt id='8511'>0.72473E+03</wgt>
<wgt id='8512'>0.72967E+03</wgt>
<wgt id='8513'>0.72683E+03</wgt>
<wgt id='8514'>0.72423E+03</wgt>
<wgt id='8515'>0.73100E+03</wgt>
<wgt id='8516'>0.72506E+03</wgt>
<wgt id='8517'>0.72849E+03</wgt>
<wgt id='8518'>0.71977E+03</wgt>
<wgt id='8519'>0.71792E+03</wgt>
<wgt id='8520'>0.72435E+03</wgt>
<wgt id='8521'>0.72311E+03</wgt>
<wgt id='8522'>0.73077E+03</wgt>
<wgt id='8523'>0.72318E+03</wgt>
<wgt id='8524'>0.72914E+03</wgt>
<wgt id='8525'>0.72779E+03</wgt>
<wgt id='8526'>0.72680E+03</wgt>
<wgt id='8527'>0.72756E+03</wgt>
<wgt id='8528'>0.72548E+03</wgt>
<wgt id='8529'>0.72635E+03</wgt>
<wgt id='8530'>0.72604E+03</wgt>
<wgt id='8531'>0.72668E+03</wgt>
<wgt id='8532'>0.72655E+03</wgt>
<wgt id='8533'>0.72572E+03</wgt>
<wgt id='8534'>0.72721E+03</wgt>
<wgt id='8535'>0.72854E+03</wgt>
<wgt id='8536'>0.72588E+03</wgt>
<wgt id='8537'>0.72692E+03</wgt>
<wgt id='8538'>0.72658E+03</wgt>
<wgt id='8539'>0.72718E+03</wgt>
<wgt id='8540'>0.72737E+03</wgt>
<wgt id='8541'>0.72749E+03</wgt>
<wgt id='8542'>0.72706E+03</wgt>
<wgt id='8543'>0.72574E+03</wgt>
<wgt id='8544'>0.72795E+03</wgt>
<wgt id='8545'>0.72711E+03</wgt>
<wgt id='8546'>0.72779E+03</wgt>
<wgt id='8547'>0.72616E+03</wgt>
<wgt id='8548'>0.72626E+03</wgt>
<wgt id='8549'>0.72686E+03</wgt>
<wgt id='8550'>0.72640E+03</wgt>
<wgt id='8551'>0.72662E+03</wgt>
<wgt id='8552'>0.72633E+03</wgt>
<wgt id='8553'>0.72593E+03</wgt>
<wgt id='8554'>0.72641E+03</wgt>
<wgt id='8555'>0.72680E+03</wgt>
<wgt id='8556'>0.72658E+03</wgt>
<wgt id='8557'>0.72700E+03</wgt>
<wgt id='8558'>0.72761E+03</wgt>
<wgt id='8559'>0.72662E+03</wgt>
<wgt id='8560'>0.72607E+03</wgt>
<wgt id='8561'>0.72711E+03</wgt>
<wgt id='8562'>0.72641E+03</wgt>
<wgt id='8563'>0.72683E+03</wgt>
<wgt id='8564'>0.72662E+03</wgt>
<wgt id='8565'>0.72708E+03</wgt>
<wgt id='8566'>0.72718E+03</wgt>
<wgt id='8567'>0.72690E+03</wgt>
<wgt id='8568'>0.72729E+03</wgt>
<wgt id='8569'>0.72717E+03</wgt>
<wgt id='8570'>0.72660E+03</wgt>
<wgt id='8571'>0.72621E+03</wgt>
<wgt id='8572'>0.72626E+03</wgt>
<wgt id='8573'>0.72643E+03</wgt>
<wgt id='8574'>0.72661E+03</wgt>
<wgt id='8575'>0.72661E+03</wgt>
<wgt id='8576'>0.72685E+03</wgt>
<wgt id='8577'>0.72634E+03</wgt>
<wgt id='8578'>0.72678E+03</wgt>
<wgt id='8579'>0.72734E+03</wgt>
<wgt id='8580'>0.72658E+03</wgt>
<wgt id='8581'>0.72714E+03</wgt>
<wgt id='8582'>0.72639E+03</wgt>
<wgt id='8583'>0.72705E+03</wgt>
<wgt id='8584'>0.72727E+03</wgt>
<wgt id='8585'>0.72704E+03</wgt>
<wgt id='8586'>0.72752E+03</wgt>
<wgt id='8587'>0.72693E+03</wgt>
<wgt id='8588'>0.72678E+03</wgt>
<wgt id='8589'>0.72676E+03</wgt>
<wgt id='8590'>0.72681E+03</wgt>
<wgt id='8591'>0.72643E+03</wgt>
<wgt id='8592'>0.72671E+03</wgt>
<wgt id='8593'>0.72657E+03</wgt>
<wgt id='8594'>0.72670E+03</wgt>
<wgt id='8595'>0.72676E+03</wgt>
<wgt id='8596'>0.72667E+03</wgt>
<wgt id='8597'>0.72697E+03</wgt>
<wgt id='8598'>0.72699E+03</wgt>
<wgt id='8599'>0.72688E+03</wgt>
<wgt id='8600'>0.72680E+03</wgt>
<wgt id='8601'>0.71414E+03</wgt>
<wgt id='8602'>0.74003E+03</wgt>
<wgt id='9000'>0.69469E+03</wgt>
<wgt id='9001'>0.69614E+03</wgt>
<wgt id='9002'>0.69523E+03</wgt>
<wgt id='9003'>0.69347E+03</wgt>
<wgt id='9004'>0.69691E+03</wgt>
<wgt id='9005'>0.69871E+03</wgt>
<wgt id='9006'>0.69672E+03</wgt>
<wgt id='9007'>0.69355E+03</wgt>
<wgt id='9008'>0.69446E+03</wgt>
<wgt id='9009'>0.69550E+03</wgt>
<wgt id='9010'>0.69412E+03</wgt>
<wgt id='9011'>0.69776E+03</wgt>
<wgt id='9012'>0.69561E+03</wgt>
<wgt id='9013'>0.69819E+03</wgt>
<wgt id='9014'>0.69458E+03</wgt>
<wgt id='9015'>0.68939E+03</wgt>
<wgt id='9016'>0.69533E+03</wgt>
<wgt id='9017'>0.69114E+03</wgt>
<wgt id='9018'>0.69883E+03</wgt>
<wgt id='9019'>0.69823E+03</wgt>
<wgt id='9020'>0.70266E+03</wgt>
<wgt id='9021'>0.69103E+03</wgt>
<wgt id='9022'>0.69571E+03</wgt>
<wgt id='9023'>0.68998E+03</wgt>
<wgt id='9024'>0.69164E+03</wgt>
<wgt id='9025'>0.69924E+03</wgt>
<wgt id='9026'>0.69464E+03</wgt>
<wgt id='9027'>0.69312E+03</wgt>
<wgt id='9028'>0.69563E+03</wgt>
<wgt id='9029'>0.69482E+03</wgt>
<wgt id='9030'>0.69355E+03</wgt>
<wgt id='9031'>0.69413E+03</wgt>
<wgt id='9032'>0.69567E+03</wgt>
<wgt id='9033'>0.69561E+03</wgt>
<wgt id='9034'>0.69486E+03</wgt>
<wgt id='9035'>0.69545E+03</wgt>
<wgt id='9036'>0.69491E+03</wgt>
<wgt id='9037'>0.69519E+03</wgt>
<wgt id='9038'>0.69523E+03</wgt>
<wgt id='9039'>0.69488E+03</wgt>
<wgt id='9040'>0.69391E+03</wgt>
<wgt id='9041'>0.69469E+03</wgt>
<wgt id='9042'>0.69512E+03</wgt>
<wgt id='9043'>0.69370E+03</wgt>
<wgt id='9044'>0.69510E+03</wgt>
<wgt id='9045'>0.69500E+03</wgt>
<wgt id='9046'>0.69368E+03</wgt>
<wgt id='9047'>0.69486E+03</wgt>
<wgt id='9048'>0.69506E+03</wgt>
<wgt id='9049'>0.69438E+03</wgt>
<wgt id='9050'>0.69474E+03</wgt>
<wgt id='9051'>0.69517E+03</wgt>
<wgt id='9052'>0.69528E+03</wgt>
<wgt id='9053'>0.69481E+03</wgt>
<wgt id='9054'>0.69437E+03</wgt>
<wgt id='9055'>0.69438E+03</wgt>
<wgt id='9056'>0.69513E+03</wgt>
<wgt id='9057'>0.69474E+03</wgt>
<wgt id='9058'>0.69388E+03</wgt>
<wgt id='9059'>0.69427E+03</wgt>
<wgt id='9060'>0.69453E+03</wgt>
<wgt id='9061'>0.69466E+03</wgt>
<wgt id='9062'>0.69487E+03</wgt>
<wgt id='9063'>0.69483E+03</wgt>
<wgt id='9064'>0.69476E+03</wgt>
<wgt id='9065'>0.69447E+03</wgt>
<wgt id='9066'>0.69453E+03</wgt>
<wgt id='9067'>0.69477E+03</wgt>
<wgt id='9068'>0.69476E+03</wgt>
<wgt id='9069'>0.69534E+03</wgt>
<wgt id='9070'>0.69451E+03</wgt>
<wgt id='9071'>0.69510E+03</wgt>
<wgt id='9072'>0.69522E+03</wgt>
<wgt id='9073'>0.69459E+03</wgt>
<wgt id='9074'>0.69484E+03</wgt>
<wgt id='9075'>0.69470E+03</wgt>
<wgt id='9076'>0.69462E+03</wgt>
<wgt id='9077'>0.69491E+03</wgt>
<wgt id='9078'>0.69481E+03</wgt>
<wgt id='9079'>0.69459E+03</wgt>
<wgt id='9080'>0.69535E+03</wgt>
<wgt id='9081'>0.69472E+03</wgt>
<wgt id='9082'>0.69489E+03</wgt>
<wgt id='9083'>0.69451E+03</wgt>
<wgt id='9084'>0.69432E+03</wgt>
<wgt id='9085'>0.69423E+03</wgt>
<wgt id='9086'>0.69490E+03</wgt>
<wgt id='9087'>0.69399E+03</wgt>
<wgt id='9088'>0.69435E+03</wgt>
<wgt id='9089'>0.69440E+03</wgt>
<wgt id='9090'>0.69479E+03</wgt>
<wgt id='9091'>0.69454E+03</wgt>
<wgt id='9092'>0.69459E+03</wgt>
<wgt id='9093'>0.69452E+03</wgt>
<wgt id='9094'>0.69454E+03</wgt>
<wgt id='9095'>0.69478E+03</wgt>
<wgt id='9096'>0.69452E+03</wgt>
<wgt id='9097'>0.69475E+03</wgt>
<wgt id='9098'>0.69463E+03</wgt>
<wgt id='9099'>0.69446E+03</wgt>
<wgt id='9100'>0.69473E+03</wgt>
<wgt id='9101'>0.68247E+03</wgt>
<wgt id='9102'>0.70698E+03</wgt>
<wgt id='10000'>0.72666E+03</wgt>
<wgt id='10001'>0.72848E+03</wgt>
<wgt id='10002'>0.72109E+03</wgt>
<wgt id='10003'>0.72677E+03</wgt>
<wgt id='10004'>0.72073E+03</wgt>
<wgt id='10005'>0.72690E+03</wgt>
<wgt id='10006'>0.72197E+03</wgt>
<wgt id='10007'>0.72658E+03</wgt>
<wgt id='10008'>0.72751E+03</wgt>
<wgt id='10009'>0.72267E+03</wgt>
<wgt id='10010'>0.72772E+03</wgt>
<wgt id='10011'>0.72123E+03</wgt>
<wgt id='10012'>0.72359E+03</wgt>
<wgt id='10013'>0.72719E+03</wgt>
<wgt id='10014'>0.72677E+03</wgt>
<wgt id='10015'>0.72825E+03</wgt>
<wgt id='10016'>0.72506E+03</wgt>
<wgt id='10017'>0.72898E+03</wgt>
<wgt id='10018'>0.72880E+03</wgt>
<wgt id='10019'>0.71803E+03</wgt>
<wgt id='10020'>0.72457E+03</wgt>
<wgt id='10021'>0.72585E+03</wgt>
<wgt id='10022'>0.72609E+03</wgt>
<wgt id='10023'>0.72782E+03</wgt>
<wgt id='10024'>0.72669E+03</wgt>
<wgt id='10025'>0.72590E+03</wgt>
<wgt id='10026'>0.72973E+03</wgt>
<wgt id='10027'>0.72761E+03</wgt>
<wgt id='10028'>0.73613E+03</wgt>
<wgt id='10029'>0.72715E+03</wgt>
<wgt id='10030'>0.72633E+03</wgt>
<wgt id='10031'>0.71414E+03</wgt>
<wgt id='10032'>0.74003E+03</wgt>
<wgt id='11000'>0.69455E+03</wgt>
<wgt id='11001'>0.68213E+03</wgt>
<wgt id='11002'>0.69320E+03</wgt>
<wgt id='11003'>0.69460E+03</wgt>
<wgt id='11004'>0.69081E+03</wgt>
<wgt id='11005'>0.69586E+03</wgt>
<wgt id='11006'>0.69456E+03</wgt>
<wgt id='11007'>0.69498E+03</wgt>
<wgt id='11008'>0.69479E+03</wgt>
<wgt id='11009'>0.69431E+03</wgt>
<wgt id='11010'>0.69464E+03</wgt>
<wgt id='11011'>0.69307E+03</wgt>
<wgt id='11012'>0.69401E+03</wgt>
<wgt id='11013'>0.69566E+03</wgt>
<wgt id='11014'>0.69378E+03</wgt>
<wgt id='11015'>0.69252E+03</wgt>
<wgt id='11016'>0.69559E+03</wgt>
<wgt id='11017'>0.69621E+03</wgt>
<wgt id='11018'>0.69511E+03</wgt>
<wgt id='11019'>0.69535E+03</wgt>
<wgt id='11020'>0.69430E+03</wgt>
<wgt id='11021'>0.69610E+03</wgt>
<wgt id='11022'>0.69683E+03</wgt>
<wgt id='11023'>0.69442E+03</wgt>
<wgt id='11024'>0.69204E+03</wgt>
<wgt id='11025'>0.69304E+03</wgt>
<wgt id='11026'>0.69446E+03</wgt>
<wgt id='11027'>0.69585E+03</wgt>
<wgt id='11028'>0.69361E+03</wgt>
<wgt id='11029'>0.68731E+03</wgt>
<wgt id='11030'>0.69482E+03</wgt>
<wgt id='11031'>0.68247E+03</wgt>
<wgt id='11032'>0.70698E+03</wgt>
<wgt id='12000'>0.65597E+03</wgt>
<wgt id='12001'>0.65508E+03</wgt>
<wgt id='12002'>0.65685E+03</wgt>
<wgt id='12003'>0.65665E+03</wgt>
<wgt id='12004'>0.65528E+03</wgt>
<wgt id='12005'>0.65673E+03</wgt>
<wgt id='12006'>0.65520E+03</wgt>
<wgt id='12007'>0.65900E+03</wgt>
<wgt id='12008'>0.65300E+03</wgt>
<wgt id='12009'>0.65531E+03</wgt>
<wgt id='12010'>0.65665E+03</wgt>
<wgt id='12011'>0.65155E+03</wgt>
<wgt id='12012'>0.66076E+03</wgt>
<wgt id='12013'>0.65438E+03</wgt>
<wgt id='12014'>0.65758E+03</wgt>
<wgt id='12015'>0.65928E+03</wgt>
<wgt id='12016'>0.65182E+03</wgt>
<wgt id='12017'>0.65872E+03</wgt>
<wgt id='12018'>0.65392E+03</wgt>
<wgt id='12019'>0.65912E+03</wgt>
<wgt id='12020'>0.65252E+03</wgt>
<wgt id='12021'>0.65693E+03</wgt>
<wgt id='12022'>0.65485E+03</wgt>
<wgt id='12023'>0.64877E+03</wgt>
<wgt id='12024'>0.66207E+03</wgt>
<wgt id='12025'>0.65113E+03</wgt>
<wgt id='12026'>0.66118E+03</wgt>
<wgt id='12027'>0.66616E+03</wgt>
<wgt id='12028'>0.64681E+03</wgt>
<wgt id='12050'>0.65597E+03</wgt>
<wgt id='12051'>0.65854E+03</wgt>
<wgt id='12052'>0.65135E+03</wgt>
<wgt id='12053'>0.65856E+03</wgt>
<wgt id='12054'>0.65284E+03</wgt>
<wgt id='12055'>0.65171E+03</wgt>
<wgt id='12056'>0.66596E+03</wgt>
<wgt id='12057'>0.65594E+03</wgt>
<wgt id='12058'>0.65618E+03</wgt>
<wgt id='12059'>0.66022E+03</wgt>
<wgt id='12060'>0.65168E+03</wgt>
<wgt id='12061'>0.65120E+03</wgt>
<wgt id='12062'>0.65562E+03</wgt>
<wgt id='12063'>0.66089E+03</wgt>
<wgt id='13000'>0.68774E+03</wgt>
<wgt id='13001'>0.68587E+03</wgt>
<wgt id='13002'>0.68728E+03</wgt>
<wgt id='13003'>0.68664E+03</wgt>
<wgt id='13004'>0.68652E+03</wgt>
<wgt id='13005'>0.68750E+03</wgt>
<wgt id='13006'>0.68565E+03</wgt>
<wgt id='13007'>0.69065E+03</wgt>
<wgt id='13008'>0.68261E+03</wgt>
<wgt id='13009'>0.68370E+03</wgt>
<wgt id='13010'>0.68955E+03</wgt>
<wgt id='13011'>0.68905E+03</wgt>
<wgt id='13012'>0.68415E+03</wgt>
<wgt id='13013'>0.68558E+03</wgt>
<wgt id='13014'>0.68753E+03</wgt>
<wgt id='13015'>0.68715E+03</wgt>
<wgt id='13016'>0.68459E+03</wgt>
<wgt id='13017'>0.68604E+03</wgt>
<wgt id='13018'>0.68712E+03</wgt>
<wgt id='13019'>0.68737E+03</wgt>
<wgt id='13020'>0.68587E+03</wgt>
<wgt id='13021'>0.69138E+03</wgt>
<wgt id='13022'>0.68161E+03</wgt>
<wgt id='13023'>0.68042E+03</wgt>
<wgt id='13024'>0.69276E+03</wgt>
<wgt id='13025'>0.67582E+03</wgt>
<wgt id='13026'>0.69652E+03</wgt>
<wgt id='13027'>0.68216E+03</wgt>
<wgt id='13028'>0.69162E+03</wgt>
<wgt id='13050'>0.68774E+03</wgt>
<wgt id='13051'>0.68883E+03</wgt>
<wgt id='13052'>0.67985E+03</wgt>
<wgt id='13053'>0.68844E+03</wgt>
<wgt id='13054'>0.68515E+03</wgt>
<wgt id='13055'>0.66823E+03</wgt>
<wgt id='13056'>0.69027E+03</wgt>
<wgt id='13057'>0.68612E+03</wgt>
<wgt id='13058'>0.68881E+03</wgt>
<wgt id='13059'>0.69075E+03</wgt>
<wgt id='13060'>0.66270E+03</wgt>
<wgt id='13061'>0.68746E+03</wgt>
<wgt id='13062'>0.68763E+03</wgt>
<wgt id='13063'>0.69480E+03</wgt>
<wgt id='14000'>0.71768E+03</wgt>
<wgt id='14001'>0.71759E+03</wgt>
<wgt id='14002'>0.71751E+03</wgt>
<wgt id='14003'>0.71742E+03</wgt>
<wgt id='14004'>0.71734E+03</wgt>
<wgt id='14005'>0.71726E+03</wgt>
<wgt id='14006'>0.71717E+03</wgt>
<wgt id='14007'>0.71709E+03</wgt>
<wgt id='14008'>0.71700E+03</wgt>
<wgt id='14009'>0.71692E+03</wgt>
<wgt id='14010'>0.71684E+03</wgt>
<wgt id='14011'>0.71675E+03</wgt>
<wgt id='14012'>0.71667E+03</wgt>
<wgt id='14013'>0.71658E+03</wgt>
<wgt id='14014'>0.71650E+03</wgt>
<wgt id='14015'>0.71641E+03</wgt>
<wgt id='14016'>0.71633E+03</wgt>
<wgt id='14017'>0.71625E+03</wgt>
<wgt id='14018'>0.71616E+03</wgt>
<wgt id='14019'>0.71608E+03</wgt>
<wgt id='14020'>0.71599E+03</wgt>
<wgt id='14021'>0.71591E+03</wgt>
<wgt id='14022'>0.71583E+03</wgt>
<wgt id='14023'>0.71574E+03</wgt>
<wgt id='14024'>0.71566E+03</wgt>
<wgt id='14025'>0.71557E+03</wgt>
<wgt id='14026'>0.71549E+03</wgt>
<wgt id='14027'>0.71541E+03</wgt>
<wgt id='14028'>0.71532E+03</wgt>
<wgt id='14029'>0.71524E+03</wgt>
<wgt id='14030'>0.71515E+03</wgt>
<wgt id='15000'>0.68620E+03</wgt>
<wgt id='15001'>0.68765E+03</wgt>
<wgt id='15002'>0.68662E+03</wgt>
<wgt id='15003'>0.68514E+03</wgt>
<wgt id='15004'>0.68844E+03</wgt>
<wgt id='15005'>0.69024E+03</wgt>
<wgt id='15006'>0.68828E+03</wgt>
<wgt id='15007'>0.68501E+03</wgt>
<wgt id='15008'>0.68596E+03</wgt>
<wgt id='15009'>0.68707E+03</wgt>
<wgt id='15010'>0.68573E+03</wgt>
<wgt id='15011'>0.68921E+03</wgt>
<wgt id='15012'>0.68712E+03</wgt>
<wgt id='15013'>0.68978E+03</wgt>
<wgt id='15014'>0.68598E+03</wgt>
<wgt id='15015'>0.68078E+03</wgt>
<wgt id='15016'>0.68683E+03</wgt>
<wgt id='15017'>0.68271E+03</wgt>
<wgt id='15018'>0.69029E+03</wgt>
<wgt id='15019'>0.68972E+03</wgt>
<wgt id='15020'>0.69415E+03</wgt>
<wgt id='15021'>0.68251E+03</wgt>
<wgt id='15022'>0.68727E+03</wgt>
<wgt id='15023'>0.68150E+03</wgt>
<wgt id='15024'>0.68314E+03</wgt>
<wgt id='15025'>0.69067E+03</wgt>
<wgt id='15026'>0.68611E+03</wgt>
<wgt id='15027'>0.68468E+03</wgt>
<wgt id='15028'>0.68717E+03</wgt>
<wgt id='15029'>0.68634E+03</wgt>
<wgt id='15030'>0.68508E+03</wgt>
<wgt id='15031'>0.68570E+03</wgt>
<wgt id='15032'>0.68719E+03</wgt>
<wgt id='15033'>0.68714E+03</wgt>
<wgt id='15034'>0.68635E+03</wgt>
<wgt id='15035'>0.68697E+03</wgt>
<wgt id='15036'>0.68641E+03</wgt>
<wgt id='15037'>0.68674E+03</wgt>
<wgt id='15038'>0.68674E+03</wgt>
<wgt id='15039'>0.68639E+03</wgt>
<wgt id='15040'>0.68542E+03</wgt>
<wgt id='15041'>0.68615E+03</wgt>
<wgt id='15042'>0.68659E+03</wgt>
<wgt id='15043'>0.68528E+03</wgt>
<wgt id='15044'>0.68661E+03</wgt>
<wgt id='15045'>0.68648E+03</wgt>
<wgt id='15046'>0.68521E+03</wgt>
<wgt id='15047'>0.68632E+03</wgt>
<wgt id='15048'>0.68657E+03</wgt>
<wgt id='15049'>0.68587E+03</wgt>
<wgt id='15050'>0.68626E+03</wgt>
<wgt id='15051'>0.68668E+03</wgt>
<wgt id='15052'>0.68677E+03</wgt>
<wgt id='15053'>0.68635E+03</wgt>
<wgt id='15054'>0.68589E+03</wgt>
<wgt id='15055'>0.68589E+03</wgt>
<wgt id='15056'>0.68663E+03</wgt>
<wgt id='15057'>0.68624E+03</wgt>
<wgt id='15058'>0.68544E+03</wgt>
<wgt id='15059'>0.68580E+03</wgt>
<wgt id='15060'>0.68606E+03</wgt>
<wgt id='15061'>0.68618E+03</wgt>
<wgt id='15062'>0.68637E+03</wgt>
<wgt id='15063'>0.68636E+03</wgt>
<wgt id='15064'>0.68626E+03</wgt>
<wgt id='15065'>0.68600E+03</wgt>
<wgt id='15066'>0.68605E+03</wgt>
<wgt id='15067'>0.68628E+03</wgt>
<wgt id='15068'>0.68627E+03</wgt>
<wgt id='15069'>0.68684E+03</wgt>
<wgt id='15070'>0.68602E+03</wgt>
<wgt id='15071'>0.68663E+03</wgt>
<wgt id='15072'>0.68673E+03</wgt>
<wgt id='15073'>0.68609E+03</wgt>
<wgt id='15074'>0.68635E+03</wgt>
<wgt id='15075'>0.68620E+03</wgt>
<wgt id='15076'>0.68615E+03</wgt>
<wgt id='15077'>0.68643E+03</wgt>
<wgt id='15078'>0.68636E+03</wgt>
<wgt id='15079'>0.68610E+03</wgt>
<wgt id='15080'>0.68684E+03</wgt>
<wgt id='15081'>0.68624E+03</wgt>
<wgt id='15082'>0.68640E+03</wgt>
<wgt id='15083'>0.68601E+03</wgt>
<wgt id='15084'>0.68583E+03</wgt>
<wgt id='15085'>0.68576E+03</wgt>
<wgt id='15086'>0.68641E+03</wgt>
<wgt id='15087'>0.68551E+03</wgt>
<wgt id='15088'>0.68587E+03</wgt>
<wgt id='15089'>0.68591E+03</wgt>
<wgt id='15090'>0.68631E+03</wgt>
<wgt id='15091'>0.68605E+03</wgt>
<wgt id='15092'>0.68611E+03</wgt>
<wgt id='15093'>0.68603E+03</wgt>
<wgt id='15094'>0.68605E+03</wgt>
<wgt id='15095'>0.68630E+03</wgt>
<wgt id='15096'>0.68603E+03</wgt>
<wgt id='15097'>0.68627E+03</wgt>
<wgt id='15098'>0.68615E+03</wgt>
<wgt id='15099'>0.68597E+03</wgt>
<wgt id='15100'>0.68624E+03</wgt>
<wgt id='15101'>0.68619E+03</wgt>
<wgt id='15102'>0.68615E+03</wgt>
<wgt id='15103'>0.68621E+03</wgt>
<wgt id='15104'>0.68621E+03</wgt>
<wgt id='15105'>0.68623E+03</wgt>
<wgt id='15106'>0.68620E+03</wgt>
<wgt id='15107'>0.68617E+03</wgt>
<wgt id='1500'>0.73568E+03</wgt>
<wgt id='1501'>0.71318E+03</wgt>
<wgt id='1502'>0.75263E+03</wgt>
<wgt id='1503'>0.75681E+03</wgt>
<wgt id='1504'>0.70419E+03</wgt>
<wgt id='1505'>0.70214E+03</wgt>
<wgt id='1506'>0.72163E+03</wgt>
<wgt id='1507'>0.74155E+03</wgt>
<wgt id='1508'>0.73780E+03</wgt>
<wgt id='1509'>0.73932E+03</wgt>
<wgt id='1510'>0.75087E+03</wgt>
<wgt id='1511'>0.72667E+03</wgt>
<wgt id='1512'>0.73108E+03</wgt>
<wgt id='1513'>0.71916E+03</wgt>
<wgt id='1514'>0.75415E+03</wgt>
<wgt id='1515'>0.73675E+03</wgt>
<wgt id='1516'>0.75373E+03</wgt>
<wgt id='1517'>0.75312E+03</wgt>
<wgt id='1518'>0.74838E+03</wgt>
<wgt id='1519'>0.72561E+03</wgt>
<wgt id='1520'>0.75368E+03</wgt>
<wgt id='1521'>0.71602E+03</wgt>
<wgt id='1522'>0.73546E+03</wgt>
<wgt id='1523'>0.74845E+03</wgt>
<wgt id='1524'>0.72762E+03</wgt>
<wgt id='1525'>0.73339E+03</wgt>
<wgt id='1526'>0.71381E+03</wgt>
<wgt id='1527'>0.75917E+03</wgt>
<wgt id='1528'>0.73929E+03</wgt>
<wgt id='1529'>0.74979E+03</wgt>
<wgt id='1530'>0.74114E+03</wgt>
<wgt id='1531'>0.72134E+03</wgt>
<wgt id='1532'>0.72489E+03</wgt>
<wgt id='1533'>0.73442E+03</wgt>
<wgt id='1534'>0.72132E+03</wgt>
<wgt id='1535'>0.77146E+03</wgt>
<wgt id='1536'>0.73854E+03</wgt>
<wgt id='1537'>0.73943E+03</wgt>
<wgt id='1538'>0.73401E+03</wgt>
<wgt id='1539'>0.71425E+03</wgt>
<wgt id='1540'>0.72977E+03</wgt>
<wgt id='1541'>0.72218E+03</wgt>
<wgt id='1542'>0.72740E+03</wgt>
<wgt id='1543'>0.72289E+03</wgt>
<wgt id='1544'>0.73880E+03</wgt>
<wgt id='1545'>0.75960E+03</wgt>
<wgt id='1546'>0.73086E+03</wgt>
<wgt id='1547'>0.73133E+03</wgt>
<wgt id='1548'>0.72973E+03</wgt>
<wgt id='1549'>0.75382E+03</wgt>
<wgt id='1550'>0.73535E+03</wgt>
<wgt id='1551'>0.73029E+03</wgt>
<wgt id='1552'>0.74310E+03</wgt>
<wgt id='1553'>0.74387E+03</wgt>
<wgt id='1554'>0.71063E+03</wgt>
<wgt id='1555'>0.73193E+03</wgt>
<wgt id='1556'>0.74213E+03</wgt>
<wgt id='1557'>0.73438E+03</wgt>
<wgt id='1558'>0.73269E+03</wgt>
<wgt id='1559'>0.75382E+03</wgt>
<wgt id='1560'>0.73165E+03</wgt>
<wgt id='1561'>0.73908E+03</wgt>
<wgt id='1562'>0.75251E+03</wgt>
<wgt id='1563'>0.72197E+03</wgt>
<wgt id='1564'>0.75554E+03</wgt>
<wgt id='1565'>0.73229E+03</wgt>
<wgt id='1566'>0.73531E+03</wgt>
<wgt id='1567'>0.76365E+03</wgt>
<wgt id='1568'>0.73304E+03</wgt>
<wgt id='1569'>0.72311E+03</wgt>
<wgt id='1570'>0.72693E+03</wgt>
<wgt id='1571'>0.73607E+03</wgt>
<wgt id='1572'>0.72354E+03</wgt>
<wgt id='1573'>0.72564E+03</wgt>
<wgt id='1574'>0.73879E+03</wgt>
<wgt id='1575'>0.73716E+03</wgt>
<wgt id='1576'>0.71254E+03</wgt>
<wgt id='1577'>0.71707E+03</wgt>
<wgt id='1578'>0.72688E+03</wgt>
<wgt id='1579'>0.73361E+03</wgt>
<wgt id='1580'>0.72700E+03</wgt>
<wgt id='1581'>0.73728E+03</wgt>
<wgt id='1582'>0.72730E+03</wgt>
<wgt id='1583'>0.73667E+03</wgt>
<wgt id='1584'>0.74262E+03</wgt>
<wgt id='1585'>0.74133E+03</wgt>
<wgt id='1586'>0.73776E+03</wgt>
<wgt id='1587'>0.75347E+03</wgt>
<wgt id='1588'>0.74062E+03</wgt>
<wgt id='1589'>0.72968E+03</wgt>
<wgt id='1590'>0.72786E+03</wgt>
<wgt id='1591'>0.71663E+03</wgt>
<wgt id='1592'>0.73579E+03</wgt>
<wgt id='1593'>0.74196E+03</wgt>
<wgt id='1594'>0.75868E+03</wgt>
<wgt id='1595'>0.75477E+03</wgt>
<wgt id='1596'>0.73326E+03</wgt>
<wgt id='1597'>0.73972E+03</wgt>
<wgt id='1598'>0.73894E+03</wgt>
<wgt id='1599'>0.73822E+03</wgt>
<wgt id='1600'>0.74572E+03</wgt>
<wgt id='1601'>0.72508E+03</wgt>
<wgt id='1602'>0.73982E+03</wgt>
<wgt id='1700'>0.69424E+03</wgt>
<wgt id='1800'>0.75658E+03</wgt>
<wgt id='1850'>0.87961E+03</wgt>
<wgt id='1900'>0.80713E+03</wgt>
<wgt id='1950'>0.85096E+03</wgt>
</rwgt>
</event>
<event>
     13 322222  6.87070E+02  2.69694E+01 -1.00000E+00  1.53774E-01
      21    -1     0     0   504   505  0.000000000E+00  0.000000000E+00  1.172609371E+02  1.172609371E+02  0.000000000E+00  0.00000E+00  9.000E+00
      21    -1     0     0   502   503  0.000000000E+00  0.000000000E+00 -4.461463672E+02  4.461463672E+02  0.000000000E+00  0.00000E+00  9.000E+00
       6     2     1     2   502     0 -3.104691244E+01 -8.258284970E+01 -6.455561771E+01  2.052994798E+02  1.737717203E+02  0.00000E+00  9.000E+00
      -6     2     1     2     0   505  5.429632605E+01  9.625084081E+01 -1.917773093E+02  2.807048858E+02  1.726394543E+02  0.00000E+00  9.000E+00
      21     1     1     2   504   503 -2.324941361E+01 -1.366799111E+01 -7.255250314E+01  7.740293875E+01  0.000000000E+00  0.00000E+00  9.000E+00
      24     2     3     3     0     0 -4.088165082E+01 -1.129229132E+02 -8.461799213E+01  1.673155305E+02  8.007114620E+01  0.00000E+00  9.000E+00
       5     1     3     3   502     0  9.834738383E+00  3.034006355E+01  2.006237442E+01  3.798394927E+01  4.800000000E+00  0.00000E+00 -1.000E+00
     -24     2     4     4     0     0 -9.986954179E-01 -7.527838851E+00 -1.024217368E+02  1.329381369E+02  8.440776220E+01  0.00000E+00  9.000E+00
      -5     1     4     4     0   505  5.529502146E+01  1.037786797E+02 -8.935557251E+01  1.477667489E+02  4.800000000E+00  0.00000E+00  1.000E+00
      -1     1     6     6     0   507  3.185496243E+00 -6.848516234E+01 -7.881899881E+01  1.044643931E+02  1.000000000E-01  0.00000E+00  1.000E+00
       2     1     6     6   507     0 -4.406714706E+01 -4.443775090E+01 -5.798993319E+00  6.285113745E+01  1.000000000E-01  0.00000E+00 -1.000E+00
       1     1     8     8   508     0  4.076806257E+01 -3.504090371E+00 -6.447998690E+01  7.636748186E+01  1.000000000E-01  0.00000E+00 -1.000E+00
      -2     1     8     8     0   508 -4.176675799E+01 -4.023748480E+00 -3.794174987E+01  5.657065501E+01  1.000000000E-01  0.00000E+00  1.000E+00
#rwgt            1           1   806.23466572130417                2        5487           0
<rwgt>
<wgt id='1001'>0.68707E+03</wgt>
<wgt id='1002'>0.75583E+03</wgt>
<wgt id='1003'>0.61155E+03</wgt>
<wgt id='1004'>0.58338E+03</wgt>
<wgt id='1005'>0.63352E+03</wgt>
<wgt id='1006'>0.52798E+03</wgt>
<wgt id='1007'>0.82177E+03</wgt>
<wgt id='1008'>0.91839E+03</wgt>
<wgt id='1009'>0.71624E+03</wgt>
<wgt id='2000'>0.68707E+03</wgt>
<wgt id='2001'>0.68629E+03</wgt>
<wgt id='2002'>0.68815E+03</wgt>
<wgt id='2003'>0.68810E+03</wgt>
<wgt id='2004'>0.68861E+03</wgt>
<wgt id='2005'>0.68598E+03</wgt>
<wgt id='2006'>0.68512E+03</wgt>
<wgt id='2007'>0.68443E+03</wgt>
<wgt id='2008'>0.68440E+03</wgt>
<wgt id='2009'>0.68834E+03</wgt>
<wgt id='2010'>0.68718E+03</wgt>
<wgt id='2011'>0.68624E+03</wgt>
<wgt id='2012'>0.68800E+03</wgt>
<wgt id='2013'>0.68819E+03</wgt>
<wgt id='2014'>0.68930E+03</wgt>
<wgt id='2015'>0.68832E+03</wgt>
<wgt id='2016'>0.68736E+03</wgt>
<wgt id='2017'>0.68686E+03</wgt>
<wgt id='2018'>0.68862E+03</wgt>
<wgt id='2019'>0.68716E+03</wgt>
<wgt id='2020'>0.68959E+03</wgt>
<wgt id='2021'>0.68586E+03</wgt>
<wgt id='2022'>0.68861E+03</wgt>
<wgt id='2023'>0.68840E+03</wgt>
<wgt id='2024'>0.68648E+03</wgt>
<wgt id='2025'>0.68902E+03</wgt>
<wgt id='2026'>0.68902E+03</wgt>
<wgt id='2027'>0.68617E+03</wgt>
<wgt id='2028'>0.68562E+03</wgt>
<wgt id='2029'>0.68911E+03</wgt>
<wgt id='2030'>0.68721E+03</wgt>
<wgt id='2031'>0.68787E+03</wgt>
<wgt id='2032'>0.68657E+03</wgt>
<wgt id='2033'>0.68722E+03</wgt>
<wgt id='2034'>0.68845E+03</wgt>
<wgt id='2035'>0.68691E+03</wgt>
<wgt id='2036'>0.68724E+03</wgt>
<wgt id='2037'>0.68790E+03</wgt>
<wgt id='2038'>0.68686E+03</wgt>
<wgt id='2039'>0.68605E+03</wgt>
<wgt id='2040'>0.68721E+03</wgt>
<wgt id='2041'>0.68717E+03</wgt>
<wgt id='2042'>0.68657E+03</wgt>
<wgt id='2043'>0.68692E+03</wgt>
<wgt id='2044'>0.68768E+03</wgt>
<wgt id='2045'>0.68674E+03</wgt>
<wgt id='2046'>0.68756E+03</wgt>
<wgt id='2047'>0.68771E+03</wgt>
<wgt id='2048'>0.68664E+03</wgt>
<wgt id='2049'>0.68692E+03</wgt>
<wgt id='2050'>0.68722E+03</wgt>
<wgt id='2051'>0.68800E+03</wgt>
<wgt id='2052'>0.68723E+03</wgt>
<wgt id='2053'>0.68734E+03</wgt>
<wgt id='2054'>0.68715E+03</wgt>
<wgt id='2055'>0.68696E+03</wgt>
<wgt id='2056'>0.68709E+03</wgt>
<wgt id='2057'>0.68753E+03</wgt>
<wgt id='2058'>0.68734E+03</wgt>
<wgt id='2059'>0.68696E+03</wgt>
<wgt id='2060'>0.68724E+03</wgt>
<wgt id='2061'>0.68663E+03</wgt>
<wgt id='2062'>0.68686E+03</wgt>
<wgt id='2063'>0.68728E+03</wgt>
<wgt id='2064'>0.68669E+03</wgt>
<wgt id='2065'>0.68717E+03</wgt>
<wgt id='2066'>0.68679E+03</wgt>
<wgt id='2067'>0.68710E+03</wgt>
<wgt id='2068'>0.68721E+03</wgt>
<wgt id='2069'>0.68717E+03</wgt>
<wgt id='2070'>0.68698E+03</wgt>
<wgt id='2071'>0.68684E+03</wgt>
<wgt id='2072'>0.68711E+03</wgt>
<wgt id='2073'>0.68706E+03</wgt>
<wgt id='2074'>0.68715E+03</wgt>
<wgt id='2075'>0.68695E+03</wgt>
<wgt id='2076'>0.68706E+03</wgt>
<wgt id='2077'>0.68696E+03</wgt>
<wgt id='2078'>0.68712E+03</wgt>
<wgt id='2079'>0.68707E+03</wgt>
<wgt id='2080'>0.68713E+03</wgt>
<wgt id='2081'>0.68721E+03</wgt>
<wgt id='2082'>0.68715E+03</wgt>
<wgt id='2083'>0.68703E+03</wgt>
<wgt id='2084'>0.68717E+03</wgt>
<wgt id='2085'>0.68722E+03</wgt>
<wgt id='2086'>0.68687E+03</wgt>
<wgt id='2087'>0.68695E+03</wgt>
<wgt id='2088'>0.68719E+03</wgt>
<wgt id='2089'>0.68692E+03</wgt>
<wgt id='2090'>0.68695E+03</wgt>
<wgt id='2091'>0.68710E+03</wgt>
<wgt id='2092'>0.68706E+03</wgt>
<wgt id='2093'>0.68700E+03</wgt>
<wgt id='2094'>0.68712E+03</wgt>
<wgt id='2095'>0.68719E+03</wgt>
<wgt id='2096'>0.68702E+03</wgt>
<wgt id='2097'>0.68716E+03</wgt>
<wgt id='2098'>0.68709E+03</wgt>
<wgt id='2099'>0.68699E+03</wgt>
<wgt id='2100'>0.68712E+03</wgt>
<wgt id='2101'>0.66710E+03</wgt>
<wgt id='2102'>0.70568E+03</wgt>
<wgt id='2104'>0.59785E+03</wgt>
<wgt id='2105'>0.61418E+03</wgt>
<wgt id='2106'>0.63371E+03</wgt>
<wgt id='2107'>0.65208E+03</wgt>
<wgt id='2108'>0.67904E+03</wgt>
<wgt id='2109'>0.69754E+03</wgt>
<wgt id='2110'>0.72141E+03</wgt>
<wgt id='2111'>0.73978E+03</wgt>
<wgt id='3000'>0.71698E+03</wgt>
<wgt id='3001'>0.71800E+03</wgt>
<wgt id='3002'>0.71625E+03</wgt>
<wgt id='3003'>0.71794E+03</wgt>
<wgt id='3004'>0.71858E+03</wgt>
<wgt id='3005'>0.71899E+03</wgt>
<wgt id='3006'>0.71695E+03</wgt>
<wgt id='3007'>0.71895E+03</wgt>
<wgt id='3008'>0.71613E+03</wgt>
<wgt id='3009'>0.71866E+03</wgt>
<wgt id='3010'>0.71551E+03</wgt>
<wgt id='3011'>0.71630E+03</wgt>
<wgt id='3012'>0.71899E+03</wgt>
<wgt id='3013'>0.71600E+03</wgt>
<wgt id='3014'>0.71858E+03</wgt>
<wgt id='3015'>0.71674E+03</wgt>
<wgt id='3016'>0.71729E+03</wgt>
<wgt id='3017'>0.71853E+03</wgt>
<wgt id='3018'>0.71859E+03</wgt>
<wgt id='3019'>0.71525E+03</wgt>
<wgt id='3020'>0.71556E+03</wgt>
<wgt id='3021'>0.71484E+03</wgt>
<wgt id='3022'>0.71686E+03</wgt>
<wgt id='3023'>0.71568E+03</wgt>
<wgt id='3024'>0.71523E+03</wgt>
<wgt id='3025'>0.71735E+03</wgt>
<wgt id='3026'>0.71806E+03</wgt>
<wgt id='3027'>0.71719E+03</wgt>
<wgt id='3028'>0.71466E+03</wgt>
<wgt id='3029'>0.71562E+03</wgt>
<wgt id='3030'>0.71913E+03</wgt>
<wgt id='3031'>0.71803E+03</wgt>
<wgt id='3032'>0.71783E+03</wgt>
<wgt id='3033'>0.71849E+03</wgt>
<wgt id='3034'>0.71739E+03</wgt>
<wgt id='3035'>0.71880E+03</wgt>
<wgt id='3036'>0.71744E+03</wgt>
<wgt id='3037'>0.71689E+03</wgt>
<wgt id='3038'>0.71707E+03</wgt>
<wgt id='3039'>0.71644E+03</wgt>
<wgt id='3040'>0.71681E+03</wgt>
<wgt id='3041'>0.71756E+03</wgt>
<wgt id='3042'>0.71626E+03</wgt>
<wgt id='3043'>0.71630E+03</wgt>
<wgt id='3044'>0.71698E+03</wgt>
<wgt id='3045'>0.71747E+03</wgt>
<wgt id='3046'>0.71762E+03</wgt>
<wgt id='3047'>0.71704E+03</wgt>
<wgt id='3048'>0.71731E+03</wgt>
<wgt id='3049'>0.71693E+03</wgt>
<wgt id='3050'>0.71683E+03</wgt>
<wgt id='3051'>0.71763E+03</wgt>
<wgt id='3052'>0.71654E+03</wgt>
<wgt id='3053'>0.71664E+03</wgt>
<wgt id='3054'>0.71694E+03</wgt>
<wgt id='3055'>0.71611E+03</wgt>
<wgt id='3056'>0.71704E+03</wgt>
<wgt id='3057'>0.71665E+03</wgt>
<wgt id='3058'>0.71659E+03</wgt>
<wgt id='3059'>0.71689E+03</wgt>
<wgt id='3060'>0.71714E+03</wgt>
<wgt id='3061'>0.71682E+03</wgt>
<wgt id='3062'>0.71713E+03</wgt>
<wgt id='3063'>0.71739E+03</wgt>
<wgt id='3064'>0.71675E+03</wgt>
<wgt id='3065'>0.71693E+03</wgt>
<wgt id='3066'>0.71707E+03</wgt>
<wgt id='3067'>0.71675E+03</wgt>
<wgt id='3068'>0.71713E+03</wgt>
<wgt id='3069'>0.71694E+03</wgt>
<wgt id='3070'>0.71724E+03</wgt>
<wgt id='3071'>0.71691E+03</wgt>
<wgt id='3072'>0.71687E+03</wgt>
<wgt id='3073'>0.71660E+03</wgt>
<wgt id='3074'>0.71736E+03</wgt>
<wgt id='3075'>0.71684E+03</wgt>
<wgt id='3076'>0.71699E+03</wgt>
<wgt id='3077'>0.71718E+03</wgt>
<wgt id='3078'>0.71704E+03</wgt>
<wgt id='3079'>0.71692E+03</wgt>
<wgt id='3080'>0.71688E+03</wgt>
<wgt id='3081'>0.71698E+03</wgt>
<wgt id='3082'>0.71683E+03</wgt>
<wgt id='3083'>0.71710E+03</wgt>
<wgt id='3084'>0.71702E+03</wgt>
<wgt id='3085'>0.71703E+03</wgt>
<wgt id='3086'>0.71688E+03</wgt>
<wgt id='3087'>0.71692E+03</wgt>
<wgt id='3088'>0.71700E+03</wgt>
<wgt id='3089'>0.71698E+03</wgt>
<wgt id='3090'>0.71703E+03</wgt>
<wgt id='3091'>0.71698E+03</wgt>
<wgt id='3092'>0.71701E+03</wgt>
<wgt id='3093'>0.71703E+03</wgt>
<wgt id='3094'>0.71709E+03</wgt>
<wgt id='3095'>0.71699E+03</wgt>
<wgt id='3096'>0.71689E+03</wgt>
<wgt id='3097'>0.71686E+03</wgt>
<wgt id='3098'>0.71694E+03</wgt>
<wgt id='3099'>0.71704E+03</wgt>
<wgt id='3100'>0.71700E+03</wgt>
<wgt id='3101'>0.69710E+03</wgt>
<wgt id='3102'>0.73713E+03</wgt>
<wgt id='5000'>0.67339E+03</wgt>
<wgt id='5001'>0.67329E+03</wgt>
<wgt id='5002'>0.67441E+03</wgt>
<wgt id='5003'>0.67190E+03</wgt>
<wgt id='5004'>0.67185E+03</wgt>
<wgt id='5005'>0.65933E+03</wgt>
<wgt id='5006'>0.66565E+03</wgt>
<wgt id='5007'>0.66934E+03</wgt>
<wgt id='5008'>0.67177E+03</wgt>
<wgt id='5009'>0.67403E+03</wgt>
<wgt id='5010'>0.67110E+03</wgt>
<wgt id='5011'>0.67427E+03</wgt>
<wgt id='5012'>0.67328E+03</wgt>
<wgt id='5013'>0.67279E+03</wgt>
<wgt id='5014'>0.68129E+03</wgt>
<wgt id='5015'>0.67537E+03</wgt>
<wgt id='5016'>0.66753E+03</wgt>
<wgt id='5017'>0.66534E+03</wgt>
<wgt id='5018'>0.68180E+03</wgt>
<wgt id='5019'>0.68065E+03</wgt>
<wgt id='5020'>0.66641E+03</wgt>
<wgt id='5021'>0.67339E+03</wgt>
<wgt id='5022'>0.67337E+03</wgt>
<wgt id='5023'>0.67084E+03</wgt>
<wgt id='5024'>0.67609E+03</wgt>
<wgt id='5025'>0.67612E+03</wgt>
<wgt id='5026'>0.67111E+03</wgt>
<wgt id='5027'>0.67742E+03</wgt>
<wgt id='5028'>0.66655E+03</wgt>
<wgt id='5029'>0.66624E+03</wgt>
<wgt id='5030'>0.67777E+03</wgt>
<wgt id='5031'>0.66815E+03</wgt>
<wgt id='5032'>0.68108E+03</wgt>
<wgt id='5033'>0.67187E+03</wgt>
<wgt id='5034'>0.67459E+03</wgt>
<wgt id='5035'>0.67571E+03</wgt>
<wgt id='5036'>0.67073E+03</wgt>
<wgt id='5037'>0.65996E+03</wgt>
<wgt id='5038'>0.68826E+03</wgt>
<wgt id='5039'>0.68865E+03</wgt>
<wgt id='5040'>0.66510E+03</wgt>
<wgt id='5041'>0.67199E+03</wgt>
<wgt id='5042'>0.67289E+03</wgt>
<wgt id='5043'>0.67785E+03</wgt>
<wgt id='5044'>0.66664E+03</wgt>
<wgt id='5045'>0.68998E+03</wgt>
<wgt id='5046'>0.65568E+03</wgt>
<wgt id='5047'>0.68053E+03</wgt>
<wgt id='5048'>0.66658E+03</wgt>
<wgt id='5049'>0.67451E+03</wgt>
<wgt id='5050'>0.67238E+03</wgt>
<wgt id='5051'>0.67361E+03</wgt>
<wgt id='5052'>0.67322E+03</wgt>
<wgt id='5053'>0.66425E+03</wgt>
<wgt id='5054'>0.67408E+03</wgt>
<wgt id='5055'>0.66789E+03</wgt>
<wgt id='5056'>0.68368E+03</wgt>
<wgt id='5060'>0.65322E+03</wgt>
<wgt id='5070'>0.69296E+03</wgt>
<wgt id='4000'>0.68800E+03</wgt>
<wgt id='4001'>0.68779E+03</wgt>
<wgt id='4002'>0.68880E+03</wgt>
<wgt id='4003'>0.68796E+03</wgt>
<wgt id='4004'>0.67847E+03</wgt>
<wgt id='4005'>0.68666E+03</wgt>
<wgt id='4006'>0.68943E+03</wgt>
<wgt id='4007'>0.69475E+03</wgt>
<wgt id='4008'>0.67885E+03</wgt>
<wgt id='4009'>0.68383E+03</wgt>
<wgt id='4010'>0.68848E+03</wgt>
<wgt id='4011'>0.70262E+03</wgt>
<wgt id='4012'>0.67778E+03</wgt>
<wgt id='4013'>0.67874E+03</wgt>
<wgt id='4014'>0.69393E+03</wgt>
<wgt id='4015'>0.70113E+03</wgt>
<wgt id='4016'>0.67895E+03</wgt>
<wgt id='4017'>0.67658E+03</wgt>
<wgt id='4018'>0.70151E+03</wgt>
<wgt id='4019'>0.69639E+03</wgt>
<wgt id='4020'>0.67913E+03</wgt>
<wgt id='4021'>0.69070E+03</wgt>
<wgt id='4022'>0.68269E+03</wgt>
<wgt id='4023'>0.68528E+03</wgt>
<wgt id='4024'>0.69071E+03</wgt>
<wgt id='4025'>0.69524E+03</wgt>
<wgt id='4026'>0.68073E+03</wgt>
<wgt id='4027'>0.68806E+03</wgt>
<wgt id='4028'>0.68800E+03</wgt>
<wgt id='4029'>0.68573E+03</wgt>
<wgt id='4030'>0.68883E+03</wgt>
<wgt id='4031'>0.69046E+03</wgt>
<wgt id='4032'>0.68481E+03</wgt>
<wgt id='4033'>0.68355E+03</wgt>
<wgt id='4034'>0.69775E+03</wgt>
<wgt id='4035'>0.68496E+03</wgt>
<wgt id='4036'>0.69116E+03</wgt>
<wgt id='4037'>0.68995E+03</wgt>
<wgt id='4038'>0.68512E+03</wgt>
<wgt id='4039'>0.68847E+03</wgt>
<wgt id='4040'>0.68828E+03</wgt>
<wgt id='4041'>0.68869E+03</wgt>
<wgt id='4042'>0.68795E+03</wgt>
<wgt id='4043'>0.69074E+03</wgt>
<wgt id='4044'>0.69039E+03</wgt>
<wgt id='4045'>0.68169E+03</wgt>
<wgt id='4046'>0.68978E+03</wgt>
<wgt id='4047'>0.68374E+03</wgt>
<wgt id='4048'>0.67988E+03</wgt>
<wgt id='4049'>0.67849E+03</wgt>
<wgt id='4050'>0.68108E+03</wgt>
<wgt id='4051'>0.68883E+03</wgt>
<wgt id='4052'>0.68825E+03</wgt>
<wgt id='4053'>0.66962E+03</wgt>
<wgt id='4054'>0.69690E+03</wgt>
<wgt id='4055'>0.68158E+03</wgt>
<wgt id='4056'>0.69827E+03</wgt>
<wgt id='4060'>0.66767E+03</wgt>
<wgt id='4070'>0.70831E+03</wgt>
<wgt id='4080'>0.62526E+03</wgt>
<wgt id='6000'>0.70938E+03</wgt>
<wgt id='6001'>0.70962E+03</wgt>
<wgt id='6002'>0.70905E+03</wgt>
<wgt id='6003'>0.71005E+03</wgt>
<wgt id='6004'>0.70890E+03</wgt>
<wgt id='6005'>0.71305E+03</wgt>
<wgt id='6006'>0.70594E+03</wgt>
<wgt id='6007'>0.70644E+03</wgt>
<wgt id='6008'>0.71266E+03</wgt>
<wgt id='6009'>0.71032E+03</wgt>
<wgt id='6010'>0.70841E+03</wgt>
<wgt id='6011'>0.71024E+03</wgt>
<wgt id='6012'>0.70749E+03</wgt>
<wgt id='6013'>0.70903E+03</wgt>
<wgt id='6014'>0.70997E+03</wgt>
<wgt id='6015'>0.70793E+03</wgt>
<wgt id='6016'>0.71019E+03</wgt>
<wgt id='6017'>0.70640E+03</wgt>
<wgt id='6018'>0.71287E+03</wgt>
<wgt id='6019'>0.71013E+03</wgt>
<wgt id='6020'>0.70872E+03</wgt>
<wgt id='6021'>0.70792E+03</wgt>
<wgt id='6022'>0.71126E+03</wgt>
<wgt id='6023'>0.70512E+03</wgt>
<wgt id='6024'>0.71224E+03</wgt>
<wgt id='6025'>0.70637E+03</wgt>
<wgt id='6026'>0.71235E+03</wgt>
<wgt id='6027'>0.71017E+03</wgt>
<wgt id='6028'>0.70915E+03</wgt>
<wgt id='6029'>0.70936E+03</wgt>
<wgt id='6030'>0.70945E+03</wgt>
<wgt id='6031'>0.70448E+03</wgt>
<wgt id='6032'>0.71478E+03</wgt>
<wgt id='6033'>0.71206E+03</wgt>
<wgt id='6034'>0.70671E+03</wgt>
<wgt id='6035'>0.70998E+03</wgt>
<wgt id='6036'>0.70810E+03</wgt>
<wgt id='6037'>0.71017E+03</wgt>
<wgt id='6038'>0.70913E+03</wgt>
<wgt id='6039'>0.70803E+03</wgt>
<wgt id='6040'>0.71086E+03</wgt>
<wgt id='6041'>0.70489E+03</wgt>
<wgt id='6042'>0.71441E+03</wgt>
<wgt id='6043'>0.71592E+03</wgt>
<wgt id='6044'>0.70569E+03</wgt>
<wgt id='6045'>0.70862E+03</wgt>
<wgt id='6046'>0.71121E+03</wgt>
<wgt id='6047'>0.71563E+03</wgt>
<wgt id='6048'>0.69783E+03</wgt>
<wgt id='6049'>0.71228E+03</wgt>
<wgt id='6050'>0.70764E+03</wgt>
<wgt id='7000'>0.67686E+03</wgt>
<wgt id='7001'>0.67650E+03</wgt>
<wgt id='7002'>0.67736E+03</wgt>
<wgt id='7003'>0.67909E+03</wgt>
<wgt id='7004'>0.67468E+03</wgt>
<wgt id='7005'>0.67883E+03</wgt>
<wgt id='7006'>0.67607E+03</wgt>
<wgt id='7007'>0.67568E+03</wgt>
<wgt id='7008'>0.67806E+03</wgt>
<wgt id='7009'>0.67749E+03</wgt>
<wgt id='7010'>0.67628E+03</wgt>
<wgt id='7011'>0.67392E+03</wgt>
<wgt id='7012'>0.67814E+03</wgt>
<wgt id='7013'>0.67686E+03</wgt>
<wgt id='7014'>0.67690E+03</wgt>
<wgt id='7015'>0.67624E+03</wgt>
<wgt id='7016'>0.67751E+03</wgt>
<wgt id='7017'>0.67760E+03</wgt>
<wgt id='7018'>0.67641E+03</wgt>
<wgt id='7019'>0.67668E+03</wgt>
<wgt id='7020'>0.67712E+03</wgt>
<wgt id='7021'>0.67581E+03</wgt>
<wgt id='7022'>0.67758E+03</wgt>
<wgt id='7023'>0.68415E+03</wgt>
<wgt id='7024'>0.67002E+03</wgt>
<wgt id='7025'>0.67929E+03</wgt>
<wgt id='7026'>0.67084E+03</wgt>
<wgt id='7027'>0.67809E+03</wgt>
<wgt id='7028'>0.67559E+03</wgt>
<wgt id='7029'>0.67694E+03</wgt>
<wgt id='7030'>0.67714E+03</wgt>
<wgt id='7031'>0.67471E+03</wgt>
<wgt id='7032'>0.68130E+03</wgt>
<wgt id='7033'>0.67711E+03</wgt>
<wgt id='7034'>0.67630E+03</wgt>
<wgt id='7035'>0.67461E+03</wgt>
<wgt id='7036'>0.67783E+03</wgt>
<wgt id='7037'>0.67680E+03</wgt>
<wgt id='7038'>0.67674E+03</wgt>
<wgt id='7039'>0.67508E+03</wgt>
<wgt id='7040'>0.67820E+03</wgt>
<wgt id='7041'>0.67685E+03</wgt>
<wgt id='7042'>0.67613E+03</wgt>
<wgt id='7043'>0.67752E+03</wgt>
<wgt id='7044'>0.67311E+03</wgt>
<wgt id='7045'>0.66764E+03</wgt>
<wgt id='7046'>0.68209E+03</wgt>
<wgt id='7047'>0.67996E+03</wgt>
<wgt id='7048'>0.67532E+03</wgt>
<wgt id='7049'>0.67300E+03</wgt>
<wgt id='7050'>0.67823E+03</wgt>
<wgt id='7060'>0.88076E+03</wgt>
<wgt id='8000'>0.67428E+03</wgt>
<wgt id='8001'>0.67418E+03</wgt>
<wgt id='8002'>0.67449E+03</wgt>
<wgt id='8003'>0.67431E+03</wgt>
<wgt id='8004'>0.67426E+03</wgt>
<wgt id='8005'>0.67295E+03</wgt>
<wgt id='8006'>0.67475E+03</wgt>
<wgt id='8007'>0.67518E+03</wgt>
<wgt id='8008'>0.67576E+03</wgt>
<wgt id='8009'>0.67709E+03</wgt>
<wgt id='8010'>0.67367E+03</wgt>
<wgt id='8011'>0.67430E+03</wgt>
<wgt id='8012'>0.67207E+03</wgt>
<wgt id='8013'>0.67317E+03</wgt>
<wgt id='8014'>0.67549E+03</wgt>
<wgt id='8015'>0.67388E+03</wgt>
<wgt id='8016'>0.67480E+03</wgt>
<wgt id='8017'>0.67454E+03</wgt>
<wgt id='8018'>0.67554E+03</wgt>
<wgt id='8019'>0.67509E+03</wgt>
<wgt id='8020'>0.67321E+03</wgt>
<wgt id='8021'>0.67391E+03</wgt>
<wgt id='8022'>0.67228E+03</wgt>
<wgt id='8023'>0.67408E+03</wgt>
<wgt id='8024'>0.67328E+03</wgt>
<wgt id='8025'>0.67489E+03</wgt>
<wgt id='8026'>0.67539E+03</wgt>
<wgt id='8027'>0.67426E+03</wgt>
<wgt id='8028'>0.67483E+03</wgt>
<wgt id='8029'>0.67170E+03</wgt>
<wgt id='8500'>0.70635E+03</wgt>
<wgt id='8501'>0.70310E+03</wgt>
<wgt id='8502'>0.71312E+03</wgt>
<wgt id='8503'>0.70956E+03</wgt>
<wgt id='8504'>0.70351E+03</wgt>
<wgt id='8505'>0.70376E+03</wgt>
<wgt id='8506'>0.70966E+03</wgt>
<wgt id='8507'>0.70064E+03</wgt>
<wgt id='8508'>0.70017E+03</wgt>
<wgt id='8509'>0.70878E+03</wgt>
<wgt id='8510'>0.71669E+03</wgt>
<wgt id='8511'>0.70584E+03</wgt>
<wgt id='8512'>0.70164E+03</wgt>
<wgt id='8513'>0.70729E+03</wgt>
<wgt id='8514'>0.69708E+03</wgt>
<wgt id='8515'>0.70983E+03</wgt>
<wgt id='8516'>0.70598E+03</wgt>
<wgt id='8517'>0.70367E+03</wgt>
<wgt id='8518'>0.70309E+03</wgt>
<wgt id='8519'>0.70278E+03</wgt>
<wgt id='8520'>0.70472E+03</wgt>
<wgt id='8521'>0.70371E+03</wgt>
<wgt id='8522'>0.70842E+03</wgt>
<wgt id='8523'>0.70409E+03</wgt>
<wgt id='8524'>0.70677E+03</wgt>
<wgt id='8525'>0.70661E+03</wgt>
<wgt id='8526'>0.70538E+03</wgt>
<wgt id='8527'>0.70581E+03</wgt>
<wgt id='8528'>0.70534E+03</wgt>
<wgt id='8529'>0.70564E+03</wgt>
<wgt id='8530'>0.70713E+03</wgt>
<wgt id='8531'>0.70613E+03</wgt>
<wgt id='8532'>0.70637E+03</wgt>
<wgt id='8533'>0.70487E+03</wgt>
<wgt id='8534'>0.70658E+03</wgt>
<wgt id='8535'>0.70797E+03</wgt>
<wgt id='8536'>0.70602E+03</wgt>
<wgt id='8537'>0.70645E+03</wgt>
<wgt id='8538'>0.70611E+03</wgt>
<wgt id='8539'>0.70669E+03</wgt>
<wgt id='8540'>0.70682E+03</wgt>
<wgt id='8541'>0.70691E+03</wgt>
<wgt id='8542'>0.70684E+03</wgt>
<wgt id='8543'>0.70558E+03</wgt>
<wgt id='8544'>0.70729E+03</wgt>
<wgt id='8545'>0.70678E+03</wgt>
<wgt id='8546'>0.70710E+03</wgt>
<wgt id='8547'>0.70571E+03</wgt>
<wgt id='8548'>0.70596E+03</wgt>
<wgt id='8549'>0.70648E+03</wgt>
<wgt id='8550'>0.70600E+03</wgt>
<wgt id='8551'>0.70586E+03</wgt>
<wgt id='8552'>0.70603E+03</wgt>
<wgt id='8553'>0.70559E+03</wgt>
<wgt id='8554'>0.70593E+03</wgt>
<wgt id='8555'>0.70642E+03</wgt>
<wgt id='8556'>0.70616E+03</wgt>
<wgt id='8557'>0.70645E+03</wgt>
<wgt id='8558'>0.70722E+03</wgt>
<wgt id='8559'>0.70612E+03</wgt>
<wgt id='8560'>0.70545E+03</wgt>
<wgt id='8561'>0.70660E+03</wgt>
<wgt id='8562'>0.70593E+03</wgt>
<wgt id='8563'>0.70636E+03</wgt>
<wgt id='8564'>0.70611E+03</wgt>
<wgt id='8565'>0.70651E+03</wgt>
<wgt id='8566'>0.70656E+03</wgt>
<wgt id='8567'>0.70631E+03</wgt>
<wgt id='8568'>0.70680E+03</wgt>
<wgt id='8569'>0.70665E+03</wgt>
<wgt id='8570'>0.70615E+03</wgt>
<wgt id='8571'>0.70585E+03</wgt>
<wgt id='8572'>0.70599E+03</wgt>
<wgt id='8573'>0.70607E+03</wgt>
<wgt id='8574'>0.70613E+03</wgt>
<wgt id='8575'>0.70622E+03</wgt>
<wgt id='8576'>0.70637E+03</wgt>
<wgt id='8577'>0.70606E+03</wgt>
<wgt id='8578'>0.70626E+03</wgt>
<wgt id='8579'>0.70685E+03</wgt>
<wgt id='8580'>0.70631E+03</wgt>
<wgt id='8581'>0.70666E+03</wgt>
<wgt id='8582'>0.70595E+03</wgt>
<wgt id='8583'>0.70656E+03</wgt>
<wgt id='8584'>0.70673E+03</wgt>
<wgt id='8585'>0.70654E+03</wgt>
<wgt id='8586'>0.70696E+03</wgt>
<wgt id='8587'>0.70641E+03</wgt>
<wgt id='8588'>0.70632E+03</wgt>
<wgt id='8589'>0.70634E+03</wgt>
<wgt id='8590'>0.70638E+03</wgt>
<wgt id='8591'>0.70608E+03</wgt>
<wgt id='8592'>0.70630E+03</wgt>
<wgt id='8593'>0.70616E+03</wgt>
<wgt id='8594'>0.70629E+03</wgt>
<wgt id='8595'>0.70632E+03</wgt>
<wgt id='8596'>0.70627E+03</wgt>
<wgt id='8597'>0.70648E+03</wgt>
<wgt id='8598'>0.70650E+03</wgt>
<wgt id='8599'>0.70641E+03</wgt>
<wgt id='8600'>0.70636E+03</wgt>
<wgt id='8601'>0.69381E+03</wgt>
<wgt id='8602'>0.71810E+03</wgt>
<wgt id='9000'>0.67785E+03</wgt>
<wgt id='9001'>0.67787E+03</wgt>
<wgt id='9002'>0.68072E+03</wgt>
<wgt id='9003'>0.67311E+03</wgt>
<wgt id='9004'>0.67787E+03</wgt>
<wgt id='9005'>0.68213E+03</wgt>
<wgt id='9006'>0.67600E+03</wgt>
<wgt id='9007'>0.67356E+03</wgt>
<wgt id='9008'>0.67674E+03</wgt>
<wgt id='9009'>0.67801E+03</wgt>
<wgt id='9010'>0.67416E+03</wgt>
<wgt id='9011'>0.68463E+03</wgt>
<wgt id='9012'>0.67908E+03</wgt>
<wgt id='9013'>0.67132E+03</wgt>
<wgt id='9014'>0.67579E+03</wgt>
<wgt id='9015'>0.67669E+03</wgt>
<wgt id='9016'>0.68496E+03</wgt>
<wgt id='9017'>0.67458E+03</wgt>
<wgt id='9018'>0.67766E+03</wgt>
<wgt id='9019'>0.67838E+03</wgt>
<wgt id='9020'>0.68217E+03</wgt>
<wgt id='9021'>0.67716E+03</wgt>
<wgt id='9022'>0.67930E+03</wgt>
<wgt id='9023'>0.67440E+03</wgt>
<wgt id='9024'>0.67633E+03</wgt>
<wgt id='9025'>0.67919E+03</wgt>
<wgt id='9026'>0.67803E+03</wgt>
<wgt id='9027'>0.67730E+03</wgt>
<wgt id='9028'>0.67835E+03</wgt>
<wgt id='9029'>0.67853E+03</wgt>
<wgt id='9030'>0.67856E+03</wgt>
<wgt id='9031'>0.67716E+03</wgt>
<wgt id='9032'>0.67822E+03</wgt>
<wgt id='9033'>0.67855E+03</wgt>
<wgt id='9034'>0.67793E+03</wgt>
<wgt id='9035'>0.67863E+03</wgt>
<wgt id='9036'>0.67801E+03</wgt>
<wgt id='9037'>0.67840E+03</wgt>
<wgt id='9038'>0.67819E+03</wgt>
<wgt id='9039'>0.67786E+03</wgt>
<wgt id='9040'>0.67732E+03</wgt>
<wgt id='9041'>0.67784E+03</wgt>
<wgt id='9042'>0.67795E+03</wgt>
<wgt id='9043'>0.67705E+03</wgt>
<wgt id='9044'>0.67805E+03</wgt>
<wgt id='9045'>0.67801E+03</wgt>
<wgt id='9046'>0.67692E+03</wgt>
<wgt id='9047'>0.67792E+03</wgt>
<wgt id='9048'>0.67817E+03</wgt>
<wgt id='9049'>0.67749E+03</wgt>
<wgt id='9050'>0.67793E+03</wgt>
<wgt id='9051'>0.67825E+03</wgt>
<wgt id='9052'>0.67824E+03</wgt>
<wgt id='9053'>0.67783E+03</wgt>
<wgt id='9054'>0.67750E+03</wgt>
<wgt id='9055'>0.67756E+03</wgt>
<wgt id='9056'>0.67845E+03</wgt>
<wgt id='9057'>0.67793E+03</wgt>
<wgt id='9058'>0.67708E+03</wgt>
<wgt id='9059'>0.67746E+03</wgt>
<wgt id='9060'>0.67754E+03</wgt>
<wgt id='9061'>0.67792E+03</wgt>
<wgt id='9062'>0.67798E+03</wgt>
<wgt id='9063'>0.67811E+03</wgt>
<wgt id='9064'>0.67779E+03</wgt>
<wgt id='9065'>0.67774E+03</wgt>
<wgt id='9066'>0.67786E+03</wgt>
<wgt id='9067'>0.67810E+03</wgt>
<wgt id='9068'>0.67803E+03</wgt>
<wgt id='9069'>0.67837E+03</wgt>
<wgt id='9070'>0.67771E+03</wgt>
<wgt id='9071'>0.67832E+03</wgt>
<wgt id='9072'>0.67836E+03</wgt>
<wgt id='9073'>0.67769E+03</wgt>
<wgt id='9074'>0.67796E+03</wgt>
<wgt id='9075'>0.67782E+03</wgt>
<wgt id='9076'>0.67775E+03</wgt>
<wgt id='9077'>0.67801E+03</wgt>
<wgt id='9078'>0.67786E+03</wgt>
<wgt id='9079'>0.67775E+03</wgt>
<wgt id='9080'>0.67853E+03</wgt>
<wgt id='9081'>0.67780E+03</wgt>
<wgt id='9082'>0.67806E+03</wgt>
<wgt id='9083'>0.67762E+03</wgt>
<wgt id='9084'>0.67757E+03</wgt>
<wgt id='9085'>0.67753E+03</wgt>
<wgt id='9086'>0.67800E+03</wgt>
<wgt id='9087'>0.67723E+03</wgt>
<wgt id='9088'>0.67761E+03</wgt>
<wgt id='9089'>0.67762E+03</wgt>
<wgt id='9090'>0.67797E+03</wgt>
<wgt id='9091'>0.67771E+03</wgt>
<wgt id='9092'>0.67779E+03</wgt>
<wgt id='9093'>0.67769E+03</wgt>
<wgt id='9094'>0.67773E+03</wgt>
<wgt id='9095'>0.67792E+03</wgt>
<wgt id='9096'>0.67771E+03</wgt>
<wgt id='9097'>0.67792E+03</wgt>
<wgt id='9098'>0.67781E+03</wgt>
<wgt id='9099'>0.67767E+03</wgt>
<wgt id='9100'>0.67786E+03</wgt>
<wgt id='9101'>0.66683E+03</wgt>
<wgt id='9102'>0.68851E+03</wgt>
<wgt id='10000'>0.70620E+03</wgt>
<wgt id='10001'>0.71065E+03</wgt>
<wgt id='10002'>0.70032E+03</wgt>
<wgt id='10003'>0.70593E+03</wgt>
<wgt id='10004'>0.69544E+03</wgt>
<wgt id='10005'>0.71705E+03</wgt>
<wgt id='10006'>0.70314E+03</wgt>
<wgt id='10007'>0.70594E+03</wgt>
<wgt id='10008'>0.70888E+03</wgt>
<wgt id='10009'>0.70313E+03</wgt>
<wgt id='10010'>0.70840E+03</wgt>
<wgt id='10011'>0.70247E+03</wgt>
<wgt id='10012'>0.70633E+03</wgt>
<wgt id='10013'>0.70717E+03</wgt>
<wgt id='10014'>0.70500E+03</wgt>
<wgt id='10015'>0.70588E+03</wgt>
<wgt id='10016'>0.70338E+03</wgt>
<wgt id='10017'>0.71130E+03</wgt>
<wgt id='10018'>0.70741E+03</wgt>
<wgt id='10019'>0.70431E+03</wgt>
<wgt id='10020'>0.70462E+03</wgt>
<wgt id='10021'>0.70565E+03</wgt>
<wgt id='10022'>0.70587E+03</wgt>
<wgt id='10023'>0.70675E+03</wgt>
<wgt id='10024'>0.70528E+03</wgt>
<wgt id='10025'>0.70550E+03</wgt>
<wgt id='10026'>0.70882E+03</wgt>
<wgt id='10027'>0.70787E+03</wgt>
<wgt id='10028'>0.71428E+03</wgt>
<wgt id='10029'>0.70663E+03</wgt>
<wgt id='10030'>0.70579E+03</wgt>
<wgt id='10031'>0.69381E+03</wgt>
<wgt id='10032'>0.71810E+03</wgt>
<wgt id='11000'>0.67770E+03</wgt>
<wgt id='11001'>0.66799E+03</wgt>
<wgt id='11002'>0.68040E+03</wgt>
<wgt id='11003'>0.67729E+03</wgt>
<wgt id='11004'>0.68081E+03</wgt>
<wgt id='11005'>0.67374E+03</wgt>
<wgt id='11006'>0.67802E+03</wgt>
<wgt id='11007'>0.67638E+03</wgt>
<wgt id='11008'>0.67727E+03</wgt>
<wgt id='11009'>0.67531E+03</wgt>
<wgt id='11010'>0.67368E+03</wgt>
<wgt id='11011'>0.67527E+03</wgt>
<wgt id='11012'>0.67803E+03</wgt>
<wgt id='11013'>0.67931E+03</wgt>
<wgt id='11014'>0.67620E+03</wgt>
<wgt id='11015'>0.67700E+03</wgt>
<wgt id='11016'>0.67735E+03</wgt>
<wgt id='11017'>0.68186E+03</wgt>
<wgt id='11018'>0.67734E+03</wgt>
<wgt id='11019'>0.67726E+03</wgt>
<wgt id='11020'>0.67964E+03</wgt>
<wgt id='11021'>0.67908E+03</wgt>
<wgt id='11022'>0.68760E+03</wgt>
<wgt id='11023'>0.67797E+03</wgt>
<wgt id='11024'>0.67819E+03</wgt>
<wgt id='11025'>0.67760E+03</wgt>
<wgt id='11026'>0.67769E+03</wgt>
<wgt id='11027'>0.67778E+03</wgt>
<wgt id='11028'>0.67817E+03</wgt>
<wgt id='11029'>0.67770E+03</wgt>
<wgt id='11030'>0.67767E+03</wgt>
<wgt id='11031'>0.66683E+03</wgt>
<wgt id='11032'>0.68851E+03</wgt>
<wgt id='12000'>0.69711E+03</wgt>
<wgt id='12001'>0.69613E+03</wgt>
<wgt id='12002'>0.69809E+03</wgt>
<wgt id='12003'>0.69783E+03</wgt>
<wgt id='12004'>0.69639E+03</wgt>
<wgt id='12005'>0.69828E+03</wgt>
<wgt id='12006'>0.69595E+03</wgt>
<wgt id='12007'>0.70057E+03</wgt>
<wgt id='12008'>0.69373E+03</wgt>
<wgt id='12009'>0.69681E+03</wgt>
<wgt id='12010'>0.69743E+03</wgt>
<wgt id='12011'>0.69335E+03</wgt>
<wgt id='12012'>0.70133E+03</wgt>
<wgt id='12013'>0.69460E+03</wgt>
<wgt id='12014'>0.69966E+03</wgt>
<wgt id='12015'>0.69786E+03</wgt>
<wgt id='12016'>0.69502E+03</wgt>
<wgt id='12017'>0.70036E+03</wgt>
<wgt id='12018'>0.69489E+03</wgt>
<wgt id='12019'>0.69617E+03</wgt>
<wgt id='12020'>0.69751E+03</wgt>
<wgt id='12021'>0.69872E+03</wgt>
<wgt id='12022'>0.69528E+03</wgt>
<wgt id='12023'>0.69225E+03</wgt>
<wgt id='12024'>0.70007E+03</wgt>
<wgt id='12025'>0.69636E+03</wgt>
<wgt id='12026'>0.69839E+03</wgt>
<wgt id='12027'>0.70298E+03</wgt>
<wgt id='12028'>0.69190E+03</wgt>
<wgt id='12050'>0.69711E+03</wgt>
<wgt id='12051'>0.69649E+03</wgt>
<wgt id='12052'>0.69162E+03</wgt>
<wgt id='12053'>0.69652E+03</wgt>
<wgt id='12054'>0.69262E+03</wgt>
<wgt id='12055'>0.69564E+03</wgt>
<wgt id='12056'>0.69477E+03</wgt>
<wgt id='12057'>0.69335E+03</wgt>
<wgt id='12058'>0.69617E+03</wgt>
<wgt id='12059'>0.69713E+03</wgt>
<wgt id='12060'>0.69242E+03</wgt>
<wgt id='12061'>0.69287E+03</wgt>
<wgt id='12062'>0.69320E+03</wgt>
<wgt id='12063'>0.68981E+03</wgt>
<wgt id='13000'>0.66930E+03</wgt>
<wgt id='13001'>0.66536E+03</wgt>
<wgt id='13002'>0.66673E+03</wgt>
<wgt id='13003'>0.66602E+03</wgt>
<wgt id='13004'>0.66608E+03</wgt>
<wgt id='13005'>0.66710E+03</wgt>
<wgt id='13006'>0.66500E+03</wgt>
<wgt id='13007'>0.67011E+03</wgt>
<wgt id='13008'>0.66210E+03</wgt>
<wgt id='13009'>0.66383E+03</wgt>
<wgt id='13010'>0.66835E+03</wgt>
<wgt id='13011'>0.66826E+03</wgt>
<wgt id='13012'>0.66386E+03</wgt>
<wgt id='13013'>0.66475E+03</wgt>
<wgt id='13014'>0.66729E+03</wgt>
<wgt id='13015'>0.66507E+03</wgt>
<wgt id='13016'>0.66527E+03</wgt>
<wgt id='13017'>0.66621E+03</wgt>
<wgt id='13018'>0.66588E+03</wgt>
<wgt id='13019'>0.66469E+03</wgt>
<wgt id='13020'>0.66746E+03</wgt>
<wgt id='13021'>0.66529E+03</wgt>
<wgt id='13022'>0.66651E+03</wgt>
<wgt id='13023'>0.66422E+03</wgt>
<wgt id='13024'>0.66795E+03</wgt>
<wgt id='13025'>0.65965E+03</wgt>
<wgt id='13026'>0.67163E+03</wgt>
<wgt id='13027'>0.66374E+03</wgt>
<wgt id='13028'>0.66885E+03</wgt>
<wgt id='13050'>0.66930E+03</wgt>
<wgt id='13051'>0.66810E+03</wgt>
<wgt id='13052'>0.66124E+03</wgt>
<wgt id='13053'>0.66783E+03</wgt>
<wgt id='13054'>0.66444E+03</wgt>
<wgt id='13055'>0.65990E+03</wgt>
<wgt id='13056'>0.66277E+03</wgt>
<wgt id='13057'>0.66478E+03</wgt>
<wgt id='13058'>0.66906E+03</wgt>
<wgt id='13059'>0.66730E+03</wgt>
<wgt id='13060'>0.65626E+03</wgt>
<wgt id='13061'>0.66451E+03</wgt>
<wgt id='13062'>0.67001E+03</wgt>
<wgt id='13063'>0.66620E+03</wgt>
<wgt id='14000'>0.68656E+03</wgt>
<wgt id='14001'>0.68647E+03</wgt>
<wgt id='14002'>0.68639E+03</wgt>
<wgt id='14003'>0.68630E+03</wgt>
<wgt id='14004'>0.68621E+03</wgt>
<wgt id='14005'>0.68613E+03</wgt>
<wgt id='14006'>0.68604E+03</wgt>
<wgt id='14007'>0.68595E+03</wgt>
<wgt id='14008'>0.68586E+03</wgt>
<wgt id='14009'>0.68577E+03</wgt>
<wgt id='14010'>0.68569E+03</wgt>
<wgt id='14011'>0.68560E+03</wgt>
<wgt id='14012'>0.68551E+03</wgt>
<wgt id='14013'>0.68543E+03</wgt>
<wgt id='14014'>0.68534E+03</wgt>
<wgt id='14015'>0.68526E+03</wgt>
<wgt id='14016'>0.68517E+03</wgt>
<wgt id='14017'>0.68508E+03</wgt>
<wgt id='14018'>0.68499E+03</wgt>
<wgt id='14019'>0.68490E+03</wgt>
<wgt id='14020'>0.68482E+03</wgt>
<wgt id='14021'>0.68473E+03</wgt>
<wgt id='14022'>0.68464E+03</wgt>
<wgt id='14023'>0.68456E+03</wgt>
<wgt id='14024'>0.68447E+03</wgt>
<wgt id='14025'>0.68438E+03</wgt>
<wgt id='14026'>0.68429E+03</wgt>
<wgt id='14027'>0.68421E+03</wgt>
<wgt id='14028'>0.68412E+03</wgt>
<wgt id='14029'>0.68403E+03</wgt>
<wgt id='14030'>0.68395E+03</wgt>
<wgt id='15000'>0.66980E+03</wgt>
<wgt id='15001'>0.66974E+03</wgt>
<wgt id='15002'>0.67255E+03</wgt>
<wgt id='15003'>0.66520E+03</wgt>
<wgt id='15004'>0.66983E+03</wgt>
<wgt id='15005'>0.67408E+03</wgt>
<wgt id='15006'>0.66806E+03</wgt>
<wgt id='15007'>0.66554E+03</wgt>
<wgt id='15008'>0.66868E+03</wgt>
<wgt id='15009'>0.67001E+03</wgt>
<wgt id='15010'>0.66618E+03</wgt>
<wgt id='15011'>0.67662E+03</wgt>
<wgt id='15012'>0.67108E+03</wgt>
<wgt id='15013'>0.66341E+03</wgt>
<wgt id='15014'>0.66765E+03</wgt>
<wgt id='15015'>0.66841E+03</wgt>
<wgt id='15016'>0.67695E+03</wgt>
<wgt id='15017'>0.66656E+03</wgt>
<wgt id='15018'>0.66958E+03</wgt>
<wgt id='15019'>0.67039E+03</wgt>
<wgt id='15020'>0.67417E+03</wgt>
<wgt id='15021'>0.66900E+03</wgt>
<wgt id='15022'>0.67126E+03</wgt>
<wgt id='15023'>0.66639E+03</wgt>
<wgt id='15024'>0.66823E+03</wgt>
<wgt id='15025'>0.67103E+03</wgt>
<wgt id='15026'>0.66989E+03</wgt>
<wgt id='15027'>0.66936E+03</wgt>
<wgt id='15028'>0.67034E+03</wgt>
<wgt id='15029'>0.67045E+03</wgt>
<wgt id='15030'>0.67049E+03</wgt>
<wgt id='15031'>0.66922E+03</wgt>
<wgt id='15032'>0.67014E+03</wgt>
<wgt id='15033'>0.67049E+03</wgt>
<wgt id='15034'>0.66987E+03</wgt>
<wgt id='15035'>0.67057E+03</wgt>
<wgt id='15036'>0.66997E+03</wgt>
<wgt id='15037'>0.67037E+03</wgt>
<wgt id='15038'>0.67013E+03</wgt>
<wgt id='15039'>0.66976E+03</wgt>
<wgt id='15040'>0.66928E+03</wgt>
<wgt id='15041'>0.66974E+03</wgt>
<wgt id='15042'>0.66985E+03</wgt>
<wgt id='15043'>0.66908E+03</wgt>
<wgt id='15044'>0.66999E+03</wgt>
<wgt id='15045'>0.66993E+03</wgt>
<wgt id='15046'>0.66891E+03</wgt>
<wgt id='15047'>0.66983E+03</wgt>
<wgt id='15048'>0.67013E+03</wgt>
<wgt id='15049'>0.66942E+03</wgt>
<wgt id='15050'>0.66989E+03</wgt>
<wgt id='15051'>0.67019E+03</wgt>
<wgt id='15052'>0.67018E+03</wgt>
<wgt id='15053'>0.66980E+03</wgt>
<wgt id='15054'>0.66948E+03</wgt>
<wgt id='15055'>0.66953E+03</wgt>
<wgt id='15056'>0.67036E+03</wgt>
<wgt id='15057'>0.66987E+03</wgt>
<wgt id='15058'>0.66908E+03</wgt>
<wgt id='15059'>0.66943E+03</wgt>
<wgt id='15060'>0.66952E+03</wgt>
<wgt id='15061'>0.66987E+03</wgt>
<wgt id='15062'>0.66992E+03</wgt>
<wgt id='15063'>0.67005E+03</wgt>
<wgt id='15064'>0.66974E+03</wgt>
<wgt id='15065'>0.66969E+03</wgt>
<wgt id='15066'>0.66982E+03</wgt>
<wgt id='15067'>0.67003E+03</wgt>
<wgt id='15068'>0.66999E+03</wgt>
<wgt id='15069'>0.67031E+03</wgt>
<wgt id='15070'>0.66966E+03</wgt>
<wgt id='15071'>0.67028E+03</wgt>
<wgt id='15072'>0.67030E+03</wgt>
<wgt id='15073'>0.66962E+03</wgt>
<wgt id='15074'>0.66992E+03</wgt>
<wgt id='15075'>0.66977E+03</wgt>
<wgt id='15076'>0.66973E+03</wgt>
<wgt id='15077'>0.66997E+03</wgt>
<wgt id='15078'>0.66983E+03</wgt>
<wgt id='15079'>0.66969E+03</wgt>
<wgt id='15080'>0.67045E+03</wgt>
<wgt id='15081'>0.66977E+03</wgt>
<wgt id='15082'>0.67002E+03</wgt>
<wgt id='15083'>0.66957E+03</wgt>
<wgt id='15084'>0.66951E+03</wgt>
<wgt id='15085'>0.66949E+03</wgt>
<wgt id='15086'>0.66998E+03</wgt>
<wgt id='15087'>0.66918E+03</wgt>
<wgt id='15088'>0.66955E+03</wgt>
<wgt id='15089'>0.66956E+03</wgt>
<wgt id='15090'>0.66991E+03</wgt>
<wgt id='15091'>0.66965E+03</wgt>
<wgt id='15092'>0.66973E+03</wgt>
<wgt id='15093'>0.66965E+03</wgt>
<wgt id='15094'>0.66967E+03</wgt>
<wgt id='15095'>0.66988E+03</wgt>
<wgt id='15096'>0.66967E+03</wgt>
<wgt id='15097'>0.66987E+03</wgt>
<wgt id='15098'>0.66976E+03</wgt>
<wgt id='15099'>0.66962E+03</wgt>
<wgt id='15100'>0.66981E+03</wgt>
<wgt id='15101'>0.66980E+03</wgt>
<wgt id='15102'>0.66975E+03</wgt>
<wgt id='15103'>0.66981E+03</wgt>
<wgt id='15104'>0.66981E+03</wgt>
<wgt id='15105'>0.66983E+03</wgt>
<wgt id='15106'>0.66981E+03</wgt>
<wgt id='15107'>0.66977E+03</wgt>
<wgt id='1500'>0.72344E+03</wgt>
<wgt id='1501'>0.70001E+03</wgt>
<wgt id='1502'>0.72213E+03</wgt>
<wgt id='1503'>0.72784E+03</wgt>
<wgt id='1504'>0.71377E+03</wgt>
<wgt id='1505'>0.67327E+03</wgt>
<wgt id='1506'>0.73822E+03</wgt>
<wgt id='1507'>0.72423E+03</wgt>
<wgt id='1508'>0.72632E+03</wgt>
<wgt id='1509'>0.73305E+03</wgt>
<wgt id='1510'>0.69721E+03</wgt>
<wgt id='1511'>0.68182E+03</wgt>
<wgt id='1512'>0.73674E+03</wgt>
<wgt id='1513'>0.73378E+03</wgt>
<wgt id='1514'>0.70734E+03</wgt>
<wgt id='1515'>0.73595E+03</wgt>
<wgt id='1516'>0.73516E+03</wgt>
<wgt id='1517'>0.72412E+03</wgt>
<wgt id='1518'>0.73057E+03</wgt>
<wgt id='1519'>0.73659E+03</wgt>
<wgt id='1520'>0.75187E+03</wgt>
<wgt id='1521'>0.72852E+03</wgt>
<wgt id='1522'>0.70794E+03</wgt>
<wgt id='1523'>0.77133E+03</wgt>
<wgt id='1524'>0.71861E+03</wgt>
<wgt id='1525'>0.72303E+03</wgt>
<wgt id='1526'>0.72203E+03</wgt>
<wgt id='1527'>0.72662E+03</wgt>
<wgt id='1528'>0.71580E+03</wgt>
<wgt id='1529'>0.72998E+03</wgt>
<wgt id='1530'>0.74334E+03</wgt>
<wgt id='1531'>0.71430E+03</wgt>
<wgt id='1532'>0.70080E+03</wgt>
<wgt id='1533'>0.71687E+03</wgt>
<wgt id='1534'>0.72029E+03</wgt>
<wgt id='1535'>0.73969E+03</wgt>
<wgt id='1536'>0.73428E+03</wgt>
<wgt id='1537'>0.73577E+03</wgt>
<wgt id='1538'>0.72516E+03</wgt>
<wgt id='1539'>0.71279E+03</wgt>
<wgt id='1540'>0.71982E+03</wgt>
<wgt id='1541'>0.73038E+03</wgt>
<wgt id='1542'>0.72179E+03</wgt>
<wgt id='1543'>0.71855E+03</wgt>
<wgt id='1544'>0.71839E+03</wgt>
<wgt id='1545'>0.71812E+03</wgt>
<wgt id='1546'>0.73543E+03</wgt>
<wgt id='1547'>0.71692E+03</wgt>
<wgt id='1548'>0.72113E+03</wgt>
<wgt id='1549'>0.72125E+03</wgt>
<wgt id='1550'>0.71721E+03</wgt>
<wgt id='1551'>0.71783E+03</wgt>
<wgt id='1552'>0.71211E+03</wgt>
<wgt id='1553'>0.72952E+03</wgt>
<wgt id='1554'>0.72517E+03</wgt>
<wgt id='1555'>0.71504E+03</wgt>
<wgt id='1556'>0.71477E+03</wgt>
<wgt id='1557'>0.74415E+03</wgt>
<wgt id='1558'>0.70974E+03</wgt>
<wgt id='1559'>0.73861E+03</wgt>
<wgt id='1560'>0.72147E+03</wgt>
<wgt id='1561'>0.72706E+03</wgt>
<wgt id='1562'>0.72775E+03</wgt>
<wgt id='1563'>0.72313E+03</wgt>
<wgt id='1564'>0.71296E+03</wgt>
<wgt id='1565'>0.73163E+03</wgt>
<wgt id='1566'>0.71727E+03</wgt>
<wgt id='1567'>0.77284E+03</wgt>
<wgt id='1568'>0.71756E+03</wgt>
<wgt id='1569'>0.70135E+03</wgt>
<wgt id='1570'>0.70999E+03</wgt>
<wgt id='1571'>0.72292E+03</wgt>
<wgt id='1572'>0.72689E+03</wgt>
<wgt id='1573'>0.68611E+03</wgt>
<wgt id='1574'>0.72890E+03</wgt>
<wgt id='1575'>0.71978E+03</wgt>
<wgt id='1576'>0.69752E+03</wgt>
<wgt id='1577'>0.71739E+03</wgt>
<wgt id='1578'>0.74181E+03</wgt>
<wgt id='1579'>0.72063E+03</wgt>
<wgt id='1580'>0.71958E+03</wgt>
<wgt id='1581'>0.72293E+03</wgt>
<wgt id='1582'>0.70647E+03</wgt>
<wgt id='1583'>0.74904E+03</wgt>
<wgt id='1584'>0.72117E+03</wgt>
<wgt id='1585'>0.71076E+03</wgt>
<wgt id='1586'>0.71612E+03</wgt>
<wgt id='1587'>0.72129E+03</wgt>
<wgt id='1588'>0.72432E+03</wgt>
<wgt id='1589'>0.75616E+03</wgt>
<wgt id='1590'>0.71247E+03</wgt>
<wgt id='1591'>0.71695E+03</wgt>
<wgt id='1592'>0.72775E+03</wgt>
<wgt id='1593'>0.72736E+03</wgt>
<wgt id='1594'>0.73625E+03</wgt>
<wgt id='1595'>0.71149E+03</wgt>
<wgt id='1596'>0.73577E+03</wgt>
<wgt id='1597'>0.72741E+03</wgt>
<wgt id='1598'>0.73840E+03</wgt>
<wgt id='1599'>0.74148E+03</wgt>
<wgt id='1600'>0.73756E+03</wgt>
<wgt id='1601'>0.71384E+03</wgt>
<wgt id='1602'>0.72926E+03</wgt>
<wgt id='1700'>0.68600E+03</wgt>
<wgt id='1800'>0.71116E+03</wgt>
<wgt id='1850'>0.84390E+03</wgt>
<wgt id='1900'>0.75713E+03</wgt>
<wgt id='1950'>0.81779E+03</wgt>
</rwgt>
</event>
<event>
     13 322222  6.87070E+02  9.59284E+01 -1.00000E+00  1.23038E-01
      21    -1     0     0   502   503  0.000000000E+00  0.000000000E+00  2.459855944E+02  2.459855944E+02  0.000000000E+00  0.00000E+00  9.000E+00
      21    -1     0     0   504   505  0.000000000E+00  0.000000000E+00 -7.869304612E+02  7.869304612E+02  0.000000000E+00  0.00000E+00  9.000E+00
       6     2     1     2   502     0 -1.552069958E+02 -5.529451059E+01  3.537463787E+01  2.392354663E+02  1.698103321E+02  0.00000E+00  9.000E+00
      -6     2     1     2     0   505  1.983800747E+02 -3.036962183E+01 -6.039399843E+01  2.689126537E+02  1.684921729E+02  0.00000E+00  9.000E+00
      21     1     1     2   504   503 -4.317307890E+01  8.566413242E+01 -5.159255062E+02  5.247679357E+02  7.629394531E-06  0.00000E+00  9.000E+00
      24     2     3     3     0     0 -3.752434820E+01 -7.568294196E+01  1.500671994E+01  1.179804221E+02  8.098267677E+01  0.00000E+00  9.000E+00
       5     1     3     3   502     0 -1.176826476E+02  2.038843137E+01  2.036791793E+01  1.212550442E+02  4.800000000E+00  0.00000E+00 -1.000E+00
     -24     2     4     4     0     0  2.067209729E+02 -5.825735930E+01 -6.638604580E+01  2.388088148E+02  8.059194996E+01  0.00000E+00  9.000E+00
      -5     1     4     4     0   505 -8.340898233E+00  2.788773747E+01  5.992047376E+00  3.010383890E+01  4.800000000E+00  0.00000E+00  1.000E+00
      -1     1     6     6     0   508  1.356017982E+01  9.622415602E-01  2.172339524E+01  2.562655432E+01  1.000000000E-01  0.00000E+00  1.000E+00
       2     1     6     6   508     0 -5.108452803E+01 -7.664518352E+01 -6.716675303E+00  9.235386774E+01  1.000000000E-01  0.00000E+00 -1.000E+00
      15     1     8     8     0     0 -3.933234881E+00 -1.208446663E+01 -8.921988777E+00  1.562895656E+01  1.777000000E+00  0.00000E+00 -1.000E+00
     -16     1     8     8     0     0  2.106542078E+02 -4.617289267E+01 -5.746405703E+01  2.231798582E+02  0.000000000E+00  0.00000E+00  1.000E+00
#rwgt            1           1   747.71589829854281                2        6096           0
<rwgt>
<wgt id='1001'>0.68707E+03</wgt>
<wgt id='1002'>0.77513E+03</wgt>
<wgt id='1003'>0.59541E+03</wgt>
<wgt id='1004'>0.61661E+03</wgt>
<wgt id='1005'>0.67951E+03</wgt>
<wgt id='1006'>0.55121E+03</wgt>
<wgt id='1007'>0.76487E+03</wgt>
<wgt id='1008'>0.89056E+03</wgt>
<wgt id='1009'>0.63391E+03</wgt>
<wgt id='2000'>0.68707E+03</wgt>
<wgt id='2001'>0.68622E+03</wgt>
<wgt id='2002'>0.68740E+03</wgt>
<wgt id='2003'>0.68742E+03</wgt>
<wgt id='2004'>0.68857E+03</wgt>
<wgt id='2005'>0.68630E+03</wgt>
<wgt id='2006'>0.68534E+03</wgt>
<wgt id='2007'>0.68466E+03</wgt>
<wgt id='2008'>0.68416E+03</wgt>
<wgt id='2009'>0.68826E+03</wgt>
<wgt id='2010'>0.68738E+03</wgt>
<wgt id='2011'>0.68506E+03</wgt>
<wgt id='2012'>0.68689E+03</wgt>
<wgt id='2013'>0.68620E+03</wgt>
<wgt id='2014'>0.68911E+03</wgt>
<wgt id='2015'>0.68824E+03</wgt>
<wgt id='2016'>0.68817E+03</wgt>
<wgt id='2017'>0.68698E+03</wgt>
<wgt id='2018'>0.68815E+03</wgt>
<wgt id='2019'>0.68725E+03</wgt>
<wgt id='2020'>0.68995E+03</wgt>
<wgt id='2021'>0.68573E+03</wgt>
<wgt id='2022'>0.68966E+03</wgt>
<wgt id='2023'>0.68877E+03</wgt>
<wgt id='2024'>0.68634E+03</wgt>
<wgt id='2025'>0.69092E+03</wgt>
<wgt id='2026'>0.69031E+03</wgt>
<wgt id='2027'>0.68582E+03</wgt>
<wgt id='2028'>0.68459E+03</wgt>
<wgt id='2029'>0.68874E+03</wgt>
<wgt id='2030'>0.68710E+03</wgt>
<wgt id='2031'>0.68846E+03</wgt>
<wgt id='2032'>0.68604E+03</wgt>
<wgt id='2033'>0.68708E+03</wgt>
<wgt id='2034'>0.68852E+03</wgt>
<wgt id='2035'>0.68683E+03</wgt>
<wgt id='2036'>0.68764E+03</wgt>
<wgt id='2037'>0.68778E+03</wgt>
<wgt id='2038'>0.68711E+03</wgt>
<wgt id='2039'>0.68665E+03</wgt>
<wgt id='2040'>0.68758E+03</wgt>
<wgt id='2041'>0.68720E+03</wgt>
<wgt id='2042'>0.68609E+03</wgt>
<wgt id='2043'>0.68761E+03</wgt>
<wgt id='2044'>0.68775E+03</wgt>
<wgt id='2045'>0.68694E+03</wgt>
<wgt id='2046'>0.68754E+03</wgt>
<wgt id='2047'>0.68790E+03</wgt>
<wgt id='2048'>0.68688E+03</wgt>
<wgt id='2049'>0.68704E+03</wgt>
<wgt id='2050'>0.68731E+03</wgt>
<wgt id='2051'>0.68780E+03</wgt>
<wgt id='2052'>0.68685E+03</wgt>
<wgt id='2053'>0.68699E+03</wgt>
<wgt id='2054'>0.68705E+03</wgt>
<wgt id='2055'>0.68715E+03</wgt>
<wgt id='2056'>0.68710E+03</wgt>
<wgt id='2057'>0.68720E+03</wgt>
<wgt id='2058'>0.68737E+03</wgt>
<wgt id='2059'>0.68702E+03</wgt>
<wgt id='2060'>0.68736E+03</wgt>
<wgt id='2061'>0.68675E+03</wgt>
<wgt id='2062'>0.68692E+03</wgt>
<wgt id='2063'>0.68718E+03</wgt>
<wgt id='2064'>0.68670E+03</wgt>
<wgt id='2065'>0.68716E+03</wgt>
<wgt id='2066'>0.68677E+03</wgt>
<wgt id='2067'>0.68707E+03</wgt>
<wgt id='2068'>0.68729E+03</wgt>
<wgt id='2069'>0.68726E+03</wgt>
<wgt id='2070'>0.68703E+03</wgt>
<wgt id='2071'>0.68681E+03</wgt>
<wgt id='2072'>0.68715E+03</wgt>
<wgt id='2073'>0.68707E+03</wgt>
<wgt id='2074'>0.68708E+03</wgt>
<wgt id='2075'>0.68691E+03</wgt>
<wgt id='2076'>0.68714E+03</wgt>
<wgt id='2077'>0.68686E+03</wgt>
<wgt id='2078'>0.68707E+03</wgt>
<wgt id='2079'>0.68721E+03</wgt>
<wgt id='2080'>0.68713E+03</wgt>
<wgt id='2081'>0.68721E+03</wgt>
<wgt id='2082'>0.68723E+03</wgt>
<wgt id='2083'>0.68698E+03</wgt>
<wgt id='2084'>0.68708E+03</wgt>
<wgt id='2085'>0.68697E+03</wgt>
<wgt id='2086'>0.68705E+03</wgt>
<wgt id='2087'>0.68700E+03</wgt>
<wgt id='2088'>0.68713E+03</wgt>
<wgt id='2089'>0.68711E+03</wgt>
<wgt id='2090'>0.68710E+03</wgt>
<wgt id='2091'>0.68700E+03</wgt>
<wgt id='2092'>0.68704E+03</wgt>
<wgt id='2093'>0.68705E+03</wgt>
<wgt id='2094'>0.68705E+03</wgt>
<wgt id='2095'>0.68708E+03</wgt>
<wgt id='2096'>0.68702E+03</wgt>
<wgt id='2097'>0.68722E+03</wgt>
<wgt id='2098'>0.68697E+03</wgt>
<wgt id='2099'>0.68712E+03</wgt>
<wgt id='2100'>0.68706E+03</wgt>
<wgt id='2101'>0.66838E+03</wgt>
<wgt id='2102'>0.70454E+03</wgt>
<wgt id='2104'>0.60505E+03</wgt>
<wgt id='2105'>0.62040E+03</wgt>
<wgt id='2106'>0.63947E+03</wgt>
<wgt id='2107'>0.65591E+03</wgt>
<wgt id='2108'>0.67939E+03</wgt>
<wgt id='2109'>0.69666E+03</wgt>
<wgt id='2110'>0.71803E+03</wgt>
<wgt id='2111'>0.73501E+03</wgt>
<wgt id='3000'>0.71405E+03</wgt>
<wgt id='3001'>0.71448E+03</wgt>
<wgt id='3002'>0.71412E+03</wgt>
<wgt id='3003'>0.71440E+03</wgt>
<wgt id='3004'>0.71534E+03</wgt>
<wgt id='3005'>0.71545E+03</wgt>
<wgt id='3006'>0.71374E+03</wgt>
<wgt id='3007'>0.71604E+03</wgt>
<wgt id='3008'>0.71384E+03</wgt>
<wgt id='3009'>0.71627E+03</wgt>
<wgt id='3010'>0.71318E+03</wgt>
<wgt id='3011'>0.71263E+03</wgt>
<wgt id='3012'>0.71476E+03</wgt>
<wgt id='3013'>0.71502E+03</wgt>
<wgt id='3014'>0.71506E+03</wgt>
<wgt id='3015'>0.71250E+03</wgt>
<wgt id='3016'>0.71444E+03</wgt>
<wgt id='3017'>0.71486E+03</wgt>
<wgt id='3018'>0.71603E+03</wgt>
<wgt id='3019'>0.71248E+03</wgt>
<wgt id='3020'>0.71170E+03</wgt>
<wgt id='3021'>0.71136E+03</wgt>
<wgt id='3022'>0.71392E+03</wgt>
<wgt id='3023'>0.71219E+03</wgt>
<wgt id='3024'>0.71093E+03</wgt>
<wgt id='3025'>0.71426E+03</wgt>
<wgt id='3026'>0.71615E+03</wgt>
<wgt id='3027'>0.71417E+03</wgt>
<wgt id='3028'>0.71036E+03</wgt>
<wgt id='3029'>0.71239E+03</wgt>
<wgt id='3030'>0.71599E+03</wgt>
<wgt id='3031'>0.71499E+03</wgt>
<wgt id='3032'>0.71560E+03</wgt>
<wgt id='3033'>0.71591E+03</wgt>
<wgt id='3034'>0.71475E+03</wgt>
<wgt id='3035'>0.71553E+03</wgt>
<wgt id='3036'>0.71444E+03</wgt>
<wgt id='3037'>0.71410E+03</wgt>
<wgt id='3038'>0.71418E+03</wgt>
<wgt id='3039'>0.71318E+03</wgt>
<wgt id='3040'>0.71437E+03</wgt>
<wgt id='3041'>0.71473E+03</wgt>
<wgt id='3042'>0.71304E+03</wgt>
<wgt id='3043'>0.71312E+03</wgt>
<wgt id='3044'>0.71416E+03</wgt>
<wgt id='3045'>0.71474E+03</wgt>
<wgt id='3046'>0.71464E+03</wgt>
<wgt id='3047'>0.71383E+03</wgt>
<wgt id='3048'>0.71470E+03</wgt>
<wgt id='3049'>0.71393E+03</wgt>
<wgt id='3050'>0.71405E+03</wgt>
<wgt id='3051'>0.71507E+03</wgt>
<wgt id='3052'>0.71378E+03</wgt>
<wgt id='3053'>0.71378E+03</wgt>
<wgt id='3054'>0.71388E+03</wgt>
<wgt id='3055'>0.71378E+03</wgt>
<wgt id='3056'>0.71417E+03</wgt>
<wgt id='3057'>0.71361E+03</wgt>
<wgt id='3058'>0.71376E+03</wgt>
<wgt id='3059'>0.71401E+03</wgt>
<wgt id='3060'>0.71418E+03</wgt>
<wgt id='3061'>0.71413E+03</wgt>
<wgt id='3062'>0.71405E+03</wgt>
<wgt id='3063'>0.71433E+03</wgt>
<wgt id='3064'>0.71391E+03</wgt>
<wgt id='3065'>0.71418E+03</wgt>
<wgt id='3066'>0.71417E+03</wgt>
<wgt id='3067'>0.71379E+03</wgt>
<wgt id='3068'>0.71404E+03</wgt>
<wgt id='3069'>0.71374E+03</wgt>
<wgt id='3070'>0.71398E+03</wgt>
<wgt id='3071'>0.71406E+03</wgt>
<wgt id='3072'>0.71419E+03</wgt>
<wgt id='3073'>0.71399E+03</wgt>
<wgt id='3074'>0.71439E+03</wgt>
<wgt id='3075'>0.71417E+03</wgt>
<wgt id='3076'>0.71406E+03</wgt>
<wgt id='3077'>0.71405E+03</wgt>
<wgt id='3078'>0.71425E+03</wgt>
<wgt id='3079'>0.71389E+03</wgt>
<wgt id='3080'>0.71392E+03</wgt>
<wgt id='3081'>0.71398E+03</wgt>
<wgt id='3082'>0.71388E+03</wgt>
<wgt id='3083'>0.71411E+03</wgt>
<wgt id='3084'>0.71398E+03</wgt>
<wgt id='3085'>0.71418E+03</wgt>
<wgt id='3086'>0.71411E+03</wgt>
<wgt id='3087'>0.71401E+03</wgt>
<wgt id='3088'>0.71394E+03</wgt>
<wgt id='3089'>0.71408E+03</wgt>
<wgt id='3090'>0.71412E+03</wgt>
<wgt id='3091'>0.71402E+03</wgt>
<wgt id='3092'>0.71397E+03</wgt>
<wgt id='3093'>0.71408E+03</wgt>
<wgt id='3094'>0.71421E+03</wgt>
<wgt id='3095'>0.71407E+03</wgt>
<wgt id='3096'>0.71390E+03</wgt>
<wgt id='3097'>0.71390E+03</wgt>
<wgt id='3098'>0.71393E+03</wgt>
<wgt id='3099'>0.71412E+03</wgt>
<wgt id='3100'>0.71413E+03</wgt>
<wgt id='3101'>0.69579E+03</wgt>
<wgt id='3102'>0.73225E+03</wgt>
<wgt id='5000'>0.67363E+03</wgt>
<wgt id='5001'>0.67433E+03</wgt>
<wgt id='5002'>0.67498E+03</wgt>
<wgt id='5003'>0.67313E+03</wgt>
<wgt id='5004'>0.67082E+03</wgt>
<wgt id='5005'>0.66094E+03</wgt>
<wgt id='5006'>0.66009E+03</wgt>
<wgt id='5007'>0.66724E+03</wgt>
<wgt id='5008'>0.67427E+03</wgt>
<wgt id='5009'>0.67202E+03</wgt>
<wgt id='5010'>0.67207E+03</wgt>
<wgt id='5011'>0.67483E+03</wgt>
<wgt id='5012'>0.67378E+03</wgt>
<wgt id='5013'>0.67657E+03</wgt>
<wgt id='5014'>0.68432E+03</wgt>
<wgt id='5015'>0.67464E+03</wgt>
<wgt id='5016'>0.67081E+03</wgt>
<wgt id='5017'>0.66320E+03</wgt>
<wgt id='5018'>0.68466E+03</wgt>
<wgt id='5019'>0.68390E+03</wgt>
<wgt id='5020'>0.66409E+03</wgt>
<wgt id='5021'>0.67307E+03</wgt>
<wgt id='5022'>0.67398E+03</wgt>
<wgt id='5023'>0.67097E+03</wgt>
<wgt id='5024'>0.67649E+03</wgt>
<wgt id='5025'>0.67735E+03</wgt>
<wgt id='5026'>0.67056E+03</wgt>
<wgt id='5027'>0.67661E+03</wgt>
<wgt id='5028'>0.66860E+03</wgt>
<wgt id='5029'>0.66823E+03</wgt>
<wgt id='5030'>0.67702E+03</wgt>
<wgt id='5031'>0.66934E+03</wgt>
<wgt id='5032'>0.68001E+03</wgt>
<wgt id='5033'>0.67378E+03</wgt>
<wgt id='5034'>0.67336E+03</wgt>
<wgt id='5035'>0.67998E+03</wgt>
<wgt id='5036'>0.66763E+03</wgt>
<wgt id='5037'>0.65731E+03</wgt>
<wgt id='5038'>0.69191E+03</wgt>
<wgt id='5039'>0.68880E+03</wgt>
<wgt id='5040'>0.66527E+03</wgt>
<wgt id='5041'>0.67443E+03</wgt>
<wgt id='5042'>0.67247E+03</wgt>
<wgt id='5043'>0.67650E+03</wgt>
<wgt id='5044'>0.67086E+03</wgt>
<wgt id='5045'>0.68885E+03</wgt>
<wgt id='5046'>0.65324E+03</wgt>
<wgt id='5047'>0.68164E+03</wgt>
<wgt id='5048'>0.66427E+03</wgt>
<wgt id='5049'>0.67509E+03</wgt>
<wgt id='5050'>0.67211E+03</wgt>
<wgt id='5051'>0.67334E+03</wgt>
<wgt id='5052'>0.67394E+03</wgt>
<wgt id='5053'>0.66418E+03</wgt>
<wgt id='5054'>0.66884E+03</wgt>
<wgt id='5055'>0.66807E+03</wgt>
<wgt id='5056'>0.68513E+03</wgt>
<wgt id='5060'>0.65375E+03</wgt>
<wgt id='5070'>0.69346E+03</wgt>
<wgt id='4000'>0.67959E+03</wgt>
<wgt id='4001'>0.67942E+03</wgt>
<wgt id='4002'>0.68001E+03</wgt>
<wgt id='4003'>0.67413E+03</wgt>
<wgt id='4004'>0.67024E+03</wgt>
<wgt id='4005'>0.67709E+03</wgt>
<wgt id='4006'>0.68228E+03</wgt>
<wgt id='4007'>0.68540E+03</wgt>
<wgt id='4008'>0.66942E+03</wgt>
<wgt id='4009'>0.67905E+03</wgt>
<wgt id='4010'>0.67599E+03</wgt>
<wgt id='4011'>0.69446E+03</wgt>
<wgt id='4012'>0.66888E+03</wgt>
<wgt id='4013'>0.67615E+03</wgt>
<wgt id='4014'>0.68212E+03</wgt>
<wgt id='4015'>0.69364E+03</wgt>
<wgt id='4016'>0.66984E+03</wgt>
<wgt id='4017'>0.66775E+03</wgt>
<wgt id='4018'>0.69357E+03</wgt>
<wgt id='4019'>0.68754E+03</wgt>
<wgt id='4020'>0.67138E+03</wgt>
<wgt id='4021'>0.68229E+03</wgt>
<wgt id='4022'>0.67436E+03</wgt>
<wgt id='4023'>0.67726E+03</wgt>
<wgt id='4024'>0.68207E+03</wgt>
<wgt id='4025'>0.69173E+03</wgt>
<wgt id='4026'>0.66784E+03</wgt>
<wgt id='4027'>0.68023E+03</wgt>
<wgt id='4028'>0.67884E+03</wgt>
<wgt id='4029'>0.67821E+03</wgt>
<wgt id='4030'>0.68012E+03</wgt>
<wgt id='4031'>0.68235E+03</wgt>
<wgt id='4032'>0.67602E+03</wgt>
<wgt id='4033'>0.67414E+03</wgt>
<wgt id='4034'>0.69160E+03</wgt>
<wgt id='4035'>0.67310E+03</wgt>
<wgt id='4036'>0.68627E+03</wgt>
<wgt id='4037'>0.68028E+03</wgt>
<wgt id='4038'>0.67886E+03</wgt>
<wgt id='4039'>0.68034E+03</wgt>
<wgt id='4040'>0.68005E+03</wgt>
<wgt id='4041'>0.67893E+03</wgt>
<wgt id='4042'>0.68111E+03</wgt>
<wgt id='4043'>0.68137E+03</wgt>
<wgt id='4044'>0.68463E+03</wgt>
<wgt id='4045'>0.67318E+03</wgt>
<wgt id='4046'>0.68308E+03</wgt>
<wgt id='4047'>0.67745E+03</wgt>
<wgt id='4048'>0.66633E+03</wgt>
<wgt id='4049'>0.66594E+03</wgt>
<wgt id='4050'>0.67563E+03</wgt>
<wgt id='4051'>0.68080E+03</wgt>
<wgt id='4052'>0.68047E+03</wgt>
<wgt id='4053'>0.66193E+03</wgt>
<wgt id='4054'>0.68888E+03</wgt>
<wgt id='4055'>0.67330E+03</wgt>
<wgt id='4056'>0.69056E+03</wgt>
<wgt id='4060'>0.66069E+03</wgt>
<wgt id='4070'>0.69888E+03</wgt>
<wgt id='4080'>0.60340E+03</wgt>
<wgt id='6000'>0.69737E+03</wgt>
<wgt id='6001'>0.69761E+03</wgt>
<wgt id='6002'>0.69714E+03</wgt>
<wgt id='6003'>0.69812E+03</wgt>
<wgt id='6004'>0.69688E+03</wgt>
<wgt id='6005'>0.70123E+03</wgt>
<wgt id='6006'>0.69384E+03</wgt>
<wgt id='6007'>0.69471E+03</wgt>
<wgt id='6008'>0.70041E+03</wgt>
<wgt id='6009'>0.69790E+03</wgt>
<wgt id='6010'>0.69689E+03</wgt>
<wgt id='6011'>0.69799E+03</wgt>
<wgt id='6012'>0.69607E+03</wgt>
<wgt id='6013'>0.69719E+03</wgt>
<wgt id='6014'>0.69777E+03</wgt>
<wgt id='6015'>0.69624E+03</wgt>
<wgt id='6016'>0.69804E+03</wgt>
<wgt id='6017'>0.69505E+03</wgt>
<wgt id='6018'>0.70016E+03</wgt>
<wgt id='6019'>0.69804E+03</wgt>
<wgt id='6020'>0.69682E+03</wgt>
<wgt id='6021'>0.69616E+03</wgt>
<wgt id='6022'>0.69900E+03</wgt>
<wgt id='6023'>0.69382E+03</wgt>
<wgt id='6024'>0.69979E+03</wgt>
<wgt id='6025'>0.69667E+03</wgt>
<wgt id='6026'>0.69828E+03</wgt>
<wgt id='6027'>0.69787E+03</wgt>
<wgt id='6028'>0.69710E+03</wgt>
<wgt id='6029'>0.69614E+03</wgt>
<wgt id='6030'>0.69894E+03</wgt>
<wgt id='6031'>0.69137E+03</wgt>
<wgt id='6032'>0.70417E+03</wgt>
<wgt id='6033'>0.70024E+03</wgt>
<wgt id='6034'>0.69461E+03</wgt>
<wgt id='6035'>0.69828E+03</wgt>
<wgt id='6036'>0.69513E+03</wgt>
<wgt id='6037'>0.69796E+03</wgt>
<wgt id='6038'>0.69716E+03</wgt>
<wgt id='6039'>0.69598E+03</wgt>
<wgt id='6040'>0.69897E+03</wgt>
<wgt id='6041'>0.69255E+03</wgt>
<wgt id='6042'>0.70288E+03</wgt>
<wgt id='6043'>0.70264E+03</wgt>
<wgt id='6044'>0.69424E+03</wgt>
<wgt id='6045'>0.69670E+03</wgt>
<wgt id='6046'>0.69907E+03</wgt>
<wgt id='6047'>0.70648E+03</wgt>
<wgt id='6048'>0.68347E+03</wgt>
<wgt id='6049'>0.70162E+03</wgt>
<wgt id='6050'>0.69510E+03</wgt>
<wgt id='7000'>0.67275E+03</wgt>
<wgt id='7001'>0.67235E+03</wgt>
<wgt id='7002'>0.67326E+03</wgt>
<wgt id='7003'>0.67482E+03</wgt>
<wgt id='7004'>0.67067E+03</wgt>
<wgt id='7005'>0.67483E+03</wgt>
<wgt id='7006'>0.67191E+03</wgt>
<wgt id='7007'>0.67202E+03</wgt>
<wgt id='7008'>0.67347E+03</wgt>
<wgt id='7009'>0.67317E+03</wgt>
<wgt id='7010'>0.67232E+03</wgt>
<wgt id='7011'>0.67102E+03</wgt>
<wgt id='7012'>0.67351E+03</wgt>
<wgt id='7013'>0.67271E+03</wgt>
<wgt id='7014'>0.67278E+03</wgt>
<wgt id='7015'>0.67249E+03</wgt>
<wgt id='7016'>0.67300E+03</wgt>
<wgt id='7017'>0.67419E+03</wgt>
<wgt id='7018'>0.67190E+03</wgt>
<wgt id='7019'>0.67272E+03</wgt>
<wgt id='7020'>0.67277E+03</wgt>
<wgt id='7021'>0.67163E+03</wgt>
<wgt id='7022'>0.67350E+03</wgt>
<wgt id='7023'>0.67913E+03</wgt>
<wgt id='7024'>0.66676E+03</wgt>
<wgt id='7025'>0.67471E+03</wgt>
<wgt id='7026'>0.66780E+03</wgt>
<wgt id='7027'>0.67341E+03</wgt>
<wgt id='7028'>0.67163E+03</wgt>
<wgt id='7029'>0.67373E+03</wgt>
<wgt id='7030'>0.67073E+03</wgt>
<wgt id='7031'>0.67015E+03</wgt>
<wgt id='7032'>0.67801E+03</wgt>
<wgt id='7033'>0.67329E+03</wgt>
<wgt id='7034'>0.67148E+03</wgt>
<wgt id='7035'>0.66953E+03</wgt>
<wgt id='7036'>0.67402E+03</wgt>
<wgt id='7037'>0.67257E+03</wgt>
<wgt id='7038'>0.67247E+03</wgt>
<wgt id='7039'>0.67080E+03</wgt>
<wgt id='7040'>0.67420E+03</wgt>
<wgt id='7041'>0.67293E+03</wgt>
<wgt id='7042'>0.67187E+03</wgt>
<wgt id='7043'>0.67337E+03</wgt>
<wgt id='7044'>0.66913E+03</wgt>
<wgt id='7045'>0.66284E+03</wgt>
<wgt id='7046'>0.67907E+03</wgt>
<wgt id='7047'>0.67664E+03</wgt>
<wgt id='7048'>0.67090E+03</wgt>
<wgt id='7049'>0.66784E+03</wgt>
<wgt id='7050'>0.67527E+03</wgt>
<wgt id='7060'>0.80471E+03</wgt>
<wgt id='8000'>0.66910E+03</wgt>
<wgt id='8001'>0.66903E+03</wgt>
<wgt id='8002'>0.66929E+03</wgt>
<wgt id='8003'>0.66912E+03</wgt>
<wgt id='8004'>0.66909E+03</wgt>
<wgt id='8005'>0.66798E+03</wgt>
<wgt id='8006'>0.66979E+03</wgt>
<wgt id='8007'>0.67048E+03</wgt>
<wgt id='8008'>0.67056E+03</wgt>
<wgt id='8009'>0.67178E+03</wgt>
<wgt id='8010'>0.66835E+03</wgt>
<wgt id='8011'>0.66921E+03</wgt>
<wgt id='8012'>0.66660E+03</wgt>
<wgt id='8013'>0.66779E+03</wgt>
<wgt id='8014'>0.67068E+03</wgt>
<wgt id='8015'>0.66874E+03</wgt>
<wgt id='8016'>0.66969E+03</wgt>
<wgt id='8017'>0.66942E+03</wgt>
<wgt id='8018'>0.67065E+03</wgt>
<wgt id='8019'>0.66977E+03</wgt>
<wgt id='8020'>0.66836E+03</wgt>
<wgt id='8021'>0.66861E+03</wgt>
<wgt id='8022'>0.66779E+03</wgt>
<wgt id='8023'>0.66872E+03</wgt>
<wgt id='8024'>0.66750E+03</wgt>
<wgt id='8025'>0.66920E+03</wgt>
<wgt id='8026'>0.67002E+03</wgt>
<wgt id='8027'>0.66945E+03</wgt>
<wgt id='8028'>0.66948E+03</wgt>
<wgt id='8029'>0.66684E+03</wgt>
<wgt id='8500'>0.70070E+03</wgt>
<wgt id='8501'>0.69671E+03</wgt>
<wgt id='8502'>0.70659E+03</wgt>
<wgt id='8503'>0.70292E+03</wgt>
<wgt id='8504'>0.69775E+03</wgt>
<wgt id='8505'>0.69880E+03</wgt>
<wgt id='8506'>0.70520E+03</wgt>
<wgt id='8507'>0.69241E+03</wgt>
<wgt id='8508'>0.68952E+03</wgt>
<wgt id='8509'>0.70539E+03</wgt>
<wgt id='8510'>0.71017E+03</wgt>
<wgt id='8511'>0.69993E+03</wgt>
<wgt id='8512'>0.69724E+03</wgt>
<wgt id='8513'>0.70190E+03</wgt>
<wgt id='8514'>0.68945E+03</wgt>
<wgt id='8515'>0.70507E+03</wgt>
<wgt id='8516'>0.69935E+03</wgt>
<wgt id='8517'>0.69685E+03</wgt>
<wgt id='8518'>0.69784E+03</wgt>
<wgt id='8519'>0.69745E+03</wgt>
<wgt id='8520'>0.69838E+03</wgt>
<wgt id='8521'>0.69830E+03</wgt>
<wgt id='8522'>0.70291E+03</wgt>
<wgt id='8523'>0.69809E+03</wgt>
<wgt id='8524'>0.70073E+03</wgt>
<wgt id='8525'>0.70146E+03</wgt>
<wgt id='8526'>0.70004E+03</wgt>
<wgt id='8527'>0.70002E+03</wgt>
<wgt id='8528'>0.69997E+03</wgt>
<wgt id='8529'>0.69975E+03</wgt>
<wgt id='8530'>0.70131E+03</wgt>
<wgt id='8531'>0.70052E+03</wgt>
<wgt id='8532'>0.70063E+03</wgt>
<wgt id='8533'>0.69946E+03</wgt>
<wgt id='8534'>0.70101E+03</wgt>
<wgt id='8535'>0.70221E+03</wgt>
<wgt id='8536'>0.70038E+03</wgt>
<wgt id='8537'>0.70074E+03</wgt>
<wgt id='8538'>0.70059E+03</wgt>
<wgt id='8539'>0.70107E+03</wgt>
<wgt id='8540'>0.70128E+03</wgt>
<wgt id='8541'>0.70129E+03</wgt>
<wgt id='8542'>0.70118E+03</wgt>
<wgt id='8543'>0.69990E+03</wgt>
<wgt id='8544'>0.70169E+03</wgt>
<wgt id='8545'>0.70106E+03</wgt>
<wgt id='8546'>0.70139E+03</wgt>
<wgt id='8547'>0.70018E+03</wgt>
<wgt id='8548'>0.70035E+03</wgt>
<wgt id='8549'>0.70081E+03</wgt>
<wgt id='8550'>0.70018E+03</wgt>
<wgt id='8551'>0.70014E+03</wgt>
<wgt id='8552'>0.70026E+03</wgt>
<wgt id='8553'>0.69983E+03</wgt>
<wgt id='8554'>0.70023E+03</wgt>
<wgt id='8555'>0.70072E+03</wgt>
<wgt id='8556'>0.70051E+03</wgt>
<wgt id='8557'>0.70080E+03</wgt>
<wgt id='8558'>0.70157E+03</wgt>
<wgt id='8559'>0.70050E+03</wgt>
<wgt id='8560'>0.69976E+03</wgt>
<wgt id='8561'>0.70098E+03</wgt>
<wgt id='8562'>0.70028E+03</wgt>
<wgt id='8563'>0.70071E+03</wgt>
<wgt id='8564'>0.70042E+03</wgt>
<wgt id='8565'>0.70088E+03</wgt>
<wgt id='8566'>0.70103E+03</wgt>
<wgt id='8567'>0.70069E+03</wgt>
<wgt id='8568'>0.70118E+03</wgt>
<wgt id='8569'>0.70100E+03</wgt>
<wgt id='8570'>0.70042E+03</wgt>
<wgt id='8571'>0.70020E+03</wgt>
<wgt id='8572'>0.70033E+03</wgt>
<wgt id='8573'>0.70037E+03</wgt>
<wgt id='8574'>0.70035E+03</wgt>
<wgt id='8575'>0.70056E+03</wgt>
<wgt id='8576'>0.70077E+03</wgt>
<wgt id='8577'>0.70030E+03</wgt>
<wgt id='8578'>0.70059E+03</wgt>
<wgt id='8579'>0.70125E+03</wgt>
<wgt id='8580'>0.70064E+03</wgt>
<wgt id='8581'>0.70101E+03</wgt>
<wgt id='8582'>0.70034E+03</wgt>
<wgt id='8583'>0.70088E+03</wgt>
<wgt id='8584'>0.70114E+03</wgt>
<wgt id='8585'>0.70085E+03</wgt>
<wgt id='8586'>0.70142E+03</wgt>
<wgt id='8587'>0.70078E+03</wgt>
<wgt id='8588'>0.70070E+03</wgt>
<wgt id='8589'>0.70071E+03</wgt>
<wgt id='8590'>0.70072E+03</wgt>
<wgt id='8591'>0.70034E+03</wgt>
<wgt id='8592'>0.70063E+03</wgt>
<wgt id='8593'>0.70052E+03</wgt>
<wgt id='8594'>0.70058E+03</wgt>
<wgt id='8595'>0.70060E+03</wgt>
<wgt id='8596'>0.70061E+03</wgt>
<wgt id='8597'>0.70085E+03</wgt>
<wgt id='8598'>0.70084E+03</wgt>
<wgt id='8599'>0.70076E+03</wgt>
<wgt id='8600'>0.70071E+03</wgt>
<wgt id='8601'>0.68986E+03</wgt>
<wgt id='8602'>0.71112E+03</wgt>
<wgt id='9000'>0.67776E+03</wgt>
<wgt id='9001'>0.67723E+03</wgt>
<wgt id='9002'>0.68014E+03</wgt>
<wgt id='9003'>0.67388E+03</wgt>
<wgt id='9004'>0.67808E+03</wgt>
<wgt id='9005'>0.68188E+03</wgt>
<wgt id='9006'>0.67617E+03</wgt>
<wgt id='9007'>0.67251E+03</wgt>
<wgt id='9008'>0.67595E+03</wgt>
<wgt id='9009'>0.67813E+03</wgt>
<wgt id='9010'>0.67334E+03</wgt>
<wgt id='9011'>0.68419E+03</wgt>
<wgt id='9012'>0.68232E+03</wgt>
<wgt id='9013'>0.67211E+03</wgt>
<wgt id='9014'>0.67776E+03</wgt>
<wgt id='9015'>0.67668E+03</wgt>
<wgt id='9016'>0.68674E+03</wgt>
<wgt id='9017'>0.67345E+03</wgt>
<wgt id='9018'>0.67680E+03</wgt>
<wgt id='9019'>0.67833E+03</wgt>
<wgt id='9020'>0.68225E+03</wgt>
<wgt id='9021'>0.67677E+03</wgt>
<wgt id='9022'>0.67931E+03</wgt>
<wgt id='9023'>0.67403E+03</wgt>
<wgt id='9024'>0.67637E+03</wgt>
<wgt id='9025'>0.67854E+03</wgt>
<wgt id='9026'>0.67761E+03</wgt>
<wgt id='9027'>0.67718E+03</wgt>
<wgt id='9028'>0.67826E+03</wgt>
<wgt id='9029'>0.67863E+03</wgt>
<wgt id='9030'>0.67812E+03</wgt>
<wgt id='9031'>0.67716E+03</wgt>
<wgt id='9032'>0.67824E+03</wgt>
<wgt id='9033'>0.67843E+03</wgt>
<wgt id='9034'>0.67796E+03</wgt>
<wgt id='9035'>0.67837E+03</wgt>
<wgt id='9036'>0.67799E+03</wgt>
<wgt id='9037'>0.67830E+03</wgt>
<wgt id='9038'>0.67820E+03</wgt>
<wgt id='9039'>0.67767E+03</wgt>
<wgt id='9040'>0.67736E+03</wgt>
<wgt id='9041'>0.67779E+03</wgt>
<wgt id='9042'>0.67788E+03</wgt>
<wgt id='9043'>0.67702E+03</wgt>
<wgt id='9044'>0.67798E+03</wgt>
<wgt id='9045'>0.67798E+03</wgt>
<wgt id='9046'>0.67692E+03</wgt>
<wgt id='9047'>0.67789E+03</wgt>
<wgt id='9048'>0.67812E+03</wgt>
<wgt id='9049'>0.67731E+03</wgt>
<wgt id='9050'>0.67787E+03</wgt>
<wgt id='9051'>0.67821E+03</wgt>
<wgt id='9052'>0.67817E+03</wgt>
<wgt id='9053'>0.67772E+03</wgt>
<wgt id='9054'>0.67745E+03</wgt>
<wgt id='9055'>0.67745E+03</wgt>
<wgt id='9056'>0.67833E+03</wgt>
<wgt id='9057'>0.67789E+03</wgt>
<wgt id='9058'>0.67695E+03</wgt>
<wgt id='9059'>0.67737E+03</wgt>
<wgt id='9060'>0.67743E+03</wgt>
<wgt id='9061'>0.67786E+03</wgt>
<wgt id='9062'>0.67787E+03</wgt>
<wgt id='9063'>0.67801E+03</wgt>
<wgt id='9064'>0.67770E+03</wgt>
<wgt id='9065'>0.67763E+03</wgt>
<wgt id='9066'>0.67779E+03</wgt>
<wgt id='9067'>0.67798E+03</wgt>
<wgt id='9068'>0.67798E+03</wgt>
<wgt id='9069'>0.67826E+03</wgt>
<wgt id='9070'>0.67760E+03</wgt>
<wgt id='9071'>0.67829E+03</wgt>
<wgt id='9072'>0.67826E+03</wgt>
<wgt id='9073'>0.67759E+03</wgt>
<wgt id='9074'>0.67787E+03</wgt>
<wgt id='9075'>0.67775E+03</wgt>
<wgt id='9076'>0.67769E+03</wgt>
<wgt id='9077'>0.67794E+03</wgt>
<wgt id='9078'>0.67778E+03</wgt>
<wgt id='9079'>0.67763E+03</wgt>
<wgt id='9080'>0.67847E+03</wgt>
<wgt id='9081'>0.67772E+03</wgt>
<wgt id='9082'>0.67799E+03</wgt>
<wgt id='9083'>0.67750E+03</wgt>
<wgt id='9084'>0.67742E+03</wgt>
<wgt id='9085'>0.67741E+03</wgt>
<wgt id='9086'>0.67798E+03</wgt>
<wgt id='9087'>0.67706E+03</wgt>
<wgt id='9088'>0.67749E+03</wgt>
<wgt id='9089'>0.67748E+03</wgt>
<wgt id='9090'>0.67788E+03</wgt>
<wgt id='9091'>0.67756E+03</wgt>
<wgt id='9092'>0.67766E+03</wgt>
<wgt id='9093'>0.67760E+03</wgt>
<wgt id='9094'>0.67760E+03</wgt>
<wgt id='9095'>0.67782E+03</wgt>
<wgt id='9096'>0.67762E+03</wgt>
<wgt id='9097'>0.67784E+03</wgt>
<wgt id='9098'>0.67770E+03</wgt>
<wgt id='9099'>0.67759E+03</wgt>
<wgt id='9100'>0.67777E+03</wgt>
<wgt id='9101'>0.66776E+03</wgt>
<wgt id='9102'>0.68792E+03</wgt>
<wgt id='10000'>0.70075E+03</wgt>
<wgt id='10001'>0.70506E+03</wgt>
<wgt id='10002'>0.69355E+03</wgt>
<wgt id='10003'>0.70015E+03</wgt>
<wgt id='10004'>0.68681E+03</wgt>
<wgt id='10005'>0.70797E+03</wgt>
<wgt id='10006'>0.69698E+03</wgt>
<wgt id='10007'>0.70041E+03</wgt>
<wgt id='10008'>0.70312E+03</wgt>
<wgt id='10009'>0.69727E+03</wgt>
<wgt id='10010'>0.70341E+03</wgt>
<wgt id='10011'>0.69637E+03</wgt>
<wgt id='10012'>0.70133E+03</wgt>
<wgt id='10013'>0.70188E+03</wgt>
<wgt id='10014'>0.69907E+03</wgt>
<wgt id='10015'>0.70010E+03</wgt>
<wgt id='10016'>0.69717E+03</wgt>
<wgt id='10017'>0.70830E+03</wgt>
<wgt id='10018'>0.70197E+03</wgt>
<wgt id='10019'>0.69913E+03</wgt>
<wgt id='10020'>0.69866E+03</wgt>
<wgt id='10021'>0.69996E+03</wgt>
<wgt id='10022'>0.70028E+03</wgt>
<wgt id='10023'>0.70109E+03</wgt>
<wgt id='10024'>0.69949E+03</wgt>
<wgt id='10025'>0.70001E+03</wgt>
<wgt id='10026'>0.70393E+03</wgt>
<wgt id='10027'>0.70298E+03</wgt>
<wgt id='10028'>0.71053E+03</wgt>
<wgt id='10029'>0.70125E+03</wgt>
<wgt id='10030'>0.70038E+03</wgt>
<wgt id='10031'>0.68986E+03</wgt>
<wgt id='10032'>0.71112E+03</wgt>
<wgt id='11000'>0.67781E+03</wgt>
<wgt id='11001'>0.66575E+03</wgt>
<wgt id='11002'>0.68070E+03</wgt>
<wgt id='11003'>0.67745E+03</wgt>
<wgt id='11004'>0.68109E+03</wgt>
<wgt id='11005'>0.67548E+03</wgt>
<wgt id='11006'>0.67837E+03</wgt>
<wgt id='11007'>0.67653E+03</wgt>
<wgt id='11008'>0.67767E+03</wgt>
<wgt id='11009'>0.67586E+03</wgt>
<wgt id='11010'>0.67233E+03</wgt>
<wgt id='11011'>0.67594E+03</wgt>
<wgt id='11012'>0.67811E+03</wgt>
<wgt id='11013'>0.67902E+03</wgt>
<wgt id='11014'>0.67663E+03</wgt>
<wgt id='11015'>0.67729E+03</wgt>
<wgt id='11016'>0.67750E+03</wgt>
<wgt id='11017'>0.68126E+03</wgt>
<wgt id='11018'>0.67724E+03</wgt>
<wgt id='11019'>0.67733E+03</wgt>
<wgt id='11020'>0.68008E+03</wgt>
<wgt id='11021'>0.67863E+03</wgt>
<wgt id='11022'>0.68616E+03</wgt>
<wgt id='11023'>0.67837E+03</wgt>
<wgt id='11024'>0.67872E+03</wgt>
<wgt id='11025'>0.67830E+03</wgt>
<wgt id='11026'>0.67793E+03</wgt>
<wgt id='11027'>0.67773E+03</wgt>
<wgt id='11028'>0.67864E+03</wgt>
<wgt id='11029'>0.67841E+03</wgt>
<wgt id='11030'>0.67773E+03</wgt>
<wgt id='11031'>0.66776E+03</wgt>
<wgt id='11032'>0.68792E+03</wgt>
<wgt id='12000'>0.68181E+03</wgt>
<wgt id='12001'>0.68092E+03</wgt>
<wgt id='12002'>0.68270E+03</wgt>
<wgt id='12003'>0.68216E+03</wgt>
<wgt id='12004'>0.68146E+03</wgt>
<wgt id='12005'>0.68291E+03</wgt>
<wgt id='12006'>0.68072E+03</wgt>
<wgt id='12007'>0.68537E+03</wgt>
<wgt id='12008'>0.67833E+03</wgt>
<wgt id='12009'>0.68114E+03</wgt>
<wgt id='12010'>0.68249E+03</wgt>
<wgt id='12011'>0.67760E+03</wgt>
<wgt id='12012'>0.68655E+03</wgt>
<wgt id='12013'>0.67953E+03</wgt>
<wgt id='12014'>0.68414E+03</wgt>
<wgt id='12015'>0.68259E+03</wgt>
<wgt id='12016'>0.67971E+03</wgt>
<wgt id='12017'>0.68524E+03</wgt>
<wgt id='12018'>0.67972E+03</wgt>
<wgt id='12019'>0.68112E+03</wgt>
<wgt id='12020'>0.68186E+03</wgt>
<wgt id='12021'>0.68275E+03</wgt>
<wgt id='12022'>0.68084E+03</wgt>
<wgt id='12023'>0.67660E+03</wgt>
<wgt id='12024'>0.68566E+03</wgt>
<wgt id='12025'>0.68056E+03</wgt>
<wgt id='12026'>0.68344E+03</wgt>
<wgt id='12027'>0.68918E+03</wgt>
<wgt id='12028'>0.67504E+03</wgt>
<wgt id='12050'>0.68181E+03</wgt>
<wgt id='12051'>0.67844E+03</wgt>
<wgt id='12052'>0.67252E+03</wgt>
<wgt id='12053'>0.67851E+03</wgt>
<wgt id='12054'>0.67372E+03</wgt>
<wgt id='12055'>0.67715E+03</wgt>
<wgt id='12056'>0.67776E+03</wgt>
<wgt id='12057'>0.67539E+03</wgt>
<wgt id='12058'>0.67725E+03</wgt>
<wgt id='12059'>0.67957E+03</wgt>
<wgt id='12060'>0.67301E+03</wgt>
<wgt id='12061'>0.67407E+03</wgt>
<wgt id='12062'>0.67400E+03</wgt>
<wgt id='12063'>0.67176E+03</wgt>
<wgt id='13000'>0.66808E+03</wgt>
<wgt id='13001'>0.66074E+03</wgt>
<wgt id='13002'>0.66213E+03</wgt>
<wgt id='13003'>0.66113E+03</wgt>
<wgt id='13004'>0.66174E+03</wgt>
<wgt id='13005'>0.66227E+03</wgt>
<wgt id='13006'>0.66061E+03</wgt>
<wgt id='13007'>0.66550E+03</wgt>
<wgt id='13008'>0.65749E+03</wgt>
<wgt id='13009'>0.65870E+03</wgt>
<wgt id='13010'>0.66428E+03</wgt>
<wgt id='13011'>0.66367E+03</wgt>
<wgt id='13012'>0.65923E+03</wgt>
<wgt id='13013'>0.66036E+03</wgt>
<wgt id='13014'>0.66244E+03</wgt>
<wgt id='13015'>0.66051E+03</wgt>
<wgt id='13016'>0.66039E+03</wgt>
<wgt id='13017'>0.66172E+03</wgt>
<wgt id='13018'>0.66119E+03</wgt>
<wgt id='13019'>0.65990E+03</wgt>
<wgt id='13020'>0.66305E+03</wgt>
<wgt id='13021'>0.66207E+03</wgt>
<wgt id='13022'>0.66071E+03</wgt>
<wgt id='13023'>0.65935E+03</wgt>
<wgt id='13024'>0.66367E+03</wgt>
<wgt id='13025'>0.65419E+03</wgt>
<wgt id='13026'>0.66820E+03</wgt>
<wgt id='13027'>0.65858E+03</wgt>
<wgt id='13028'>0.66466E+03</wgt>
<wgt id='13050'>0.66808E+03</wgt>
<wgt id='13051'>0.66390E+03</wgt>
<wgt id='13052'>0.65587E+03</wgt>
<wgt id='13053'>0.66365E+03</wgt>
<wgt id='13054'>0.65950E+03</wgt>
<wgt id='13055'>0.65495E+03</wgt>
<wgt id='13056'>0.65698E+03</wgt>
<wgt id='13057'>0.66057E+03</wgt>
<wgt id='13058'>0.66409E+03</wgt>
<wgt id='13059'>0.66329E+03</wgt>
<wgt id='13060'>0.64960E+03</wgt>
<wgt id='13061'>0.65982E+03</wgt>
<wgt id='13062'>0.66487E+03</wgt>
<wgt id='13063'>0.66226E+03</wgt>
<wgt id='14000'>0.67833E+03</wgt>
<wgt id='14001'>0.67824E+03</wgt>
<wgt id='14002'>0.67816E+03</wgt>
<wgt id='14003'>0.67808E+03</wgt>
<wgt id='14004'>0.67799E+03</wgt>
<wgt id='14005'>0.67791E+03</wgt>
<wgt id='14006'>0.67783E+03</wgt>
<wgt id='14007'>0.67774E+03</wgt>
<wgt id='14008'>0.67766E+03</wgt>
<wgt id='14009'>0.67757E+03</wgt>
<wgt id='14010'>0.67749E+03</wgt>
<wgt id='14011'>0.67741E+03</wgt>
<wgt id='14012'>0.67732E+03</wgt>
<wgt id='14013'>0.67724E+03</wgt>
<wgt id='14014'>0.67716E+03</wgt>
<wgt id='14015'>0.67707E+03</wgt>
<wgt id='14016'>0.67699E+03</wgt>
<wgt id='14017'>0.67690E+03</wgt>
<wgt id='14018'>0.67682E+03</wgt>
<wgt id='14019'>0.67674E+03</wgt>
<wgt id='14020'>0.67665E+03</wgt>
<wgt id='14021'>0.67657E+03</wgt>
<wgt id='14022'>0.67649E+03</wgt>
<wgt id='14023'>0.67640E+03</wgt>
<wgt id='14024'>0.67632E+03</wgt>
<wgt id='14025'>0.67623E+03</wgt>
<wgt id='14026'>0.67615E+03</wgt>
<wgt id='14027'>0.67607E+03</wgt>
<wgt id='14028'>0.67598E+03</wgt>
<wgt id='14029'>0.67590E+03</wgt>
<wgt id='14030'>0.67582E+03</wgt>
<wgt id='15000'>0.67012E+03</wgt>
<wgt id='15001'>0.66963E+03</wgt>
<wgt id='15002'>0.67246E+03</wgt>
<wgt id='15003'>0.66631E+03</wgt>
<wgt id='15004'>0.67045E+03</wgt>
<wgt id='15005'>0.67422E+03</wgt>
<wgt id='15006'>0.66854E+03</wgt>
<wgt id='15007'>0.66489E+03</wgt>
<wgt id='15008'>0.66831E+03</wgt>
<wgt id='15009'>0.67049E+03</wgt>
<wgt id='15010'>0.66578E+03</wgt>
<wgt id='15011'>0.67646E+03</wgt>
<wgt id='15012'>0.67460E+03</wgt>
<wgt id='15013'>0.66454E+03</wgt>
<wgt id='15014'>0.67006E+03</wgt>
<wgt id='15015'>0.66904E+03</wgt>
<wgt id='15016'>0.67898E+03</wgt>
<wgt id='15017'>0.66590E+03</wgt>
<wgt id='15018'>0.66918E+03</wgt>
<wgt id='15019'>0.67067E+03</wgt>
<wgt id='15020'>0.67456E+03</wgt>
<wgt id='15021'>0.66906E+03</wgt>
<wgt id='15022'>0.67167E+03</wgt>
<wgt id='15023'>0.66640E+03</wgt>
<wgt id='15024'>0.66874E+03</wgt>
<wgt id='15025'>0.67094E+03</wgt>
<wgt id='15026'>0.66998E+03</wgt>
<wgt id='15027'>0.66950E+03</wgt>
<wgt id='15028'>0.67062E+03</wgt>
<wgt id='15029'>0.67100E+03</wgt>
<wgt id='15030'>0.67044E+03</wgt>
<wgt id='15031'>0.66951E+03</wgt>
<wgt id='15032'>0.67062E+03</wgt>
<wgt id='15033'>0.67080E+03</wgt>
<wgt id='15034'>0.67029E+03</wgt>
<wgt id='15035'>0.67074E+03</wgt>
<wgt id='15036'>0.67034E+03</wgt>
<wgt id='15037'>0.67066E+03</wgt>
<wgt id='15038'>0.67055E+03</wgt>
<wgt id='15039'>0.67005E+03</wgt>
<wgt id='15040'>0.66971E+03</wgt>
<wgt id='15041'>0.67015E+03</wgt>
<wgt id='15042'>0.67024E+03</wgt>
<wgt id='15043'>0.66939E+03</wgt>
<wgt id='15044'>0.67034E+03</wgt>
<wgt id='15045'>0.67034E+03</wgt>
<wgt id='15046'>0.66928E+03</wgt>
<wgt id='15047'>0.67024E+03</wgt>
<wgt id='15048'>0.67048E+03</wgt>
<wgt id='15049'>0.66967E+03</wgt>
<wgt id='15050'>0.67023E+03</wgt>
<wgt id='15051'>0.67056E+03</wgt>
<wgt id='15052'>0.67052E+03</wgt>
<wgt id='15053'>0.67008E+03</wgt>
<wgt id='15054'>0.66980E+03</wgt>
<wgt id='15055'>0.66981E+03</wgt>
<wgt id='15056'>0.67069E+03</wgt>
<wgt id='15057'>0.67024E+03</wgt>
<wgt id='15058'>0.66932E+03</wgt>
<wgt id='15059'>0.66973E+03</wgt>
<wgt id='15060'>0.66979E+03</wgt>
<wgt id='15061'>0.67022E+03</wgt>
<wgt id='15062'>0.67022E+03</wgt>
<wgt id='15063'>0.67037E+03</wgt>
<wgt id='15064'>0.67006E+03</wgt>
<wgt id='15065'>0.66999E+03</wgt>
<wgt id='15066'>0.67015E+03</wgt>
<wgt id='15067'>0.67034E+03</wgt>
<wgt id='15068'>0.67034E+03</wgt>
<wgt id='15069'>0.67062E+03</wgt>
<wgt id='15070'>0.66996E+03</wgt>
<wgt id='15071'>0.67065E+03</wgt>
<wgt id='15072'>0.67062E+03</wgt>
<wgt id='15073'>0.66995E+03</wgt>
<wgt id='15074'>0.67023E+03</wgt>
<wgt id='15075'>0.67010E+03</wgt>
<wgt id='15076'>0.67005E+03</wgt>
<wgt id='15077'>0.67029E+03</wgt>
<wgt id='15078'>0.67014E+03</wgt>
<wgt id='15079'>0.66999E+03</wgt>
<wgt id='15080'>0.67083E+03</wgt>
<wgt id='15081'>0.67008E+03</wgt>
<wgt id='15082'>0.67035E+03</wgt>
<wgt id='15083'>0.66985E+03</wgt>
<wgt id='15084'>0.66978E+03</wgt>
<wgt id='15085'>0.66977E+03</wgt>
<wgt id='15086'>0.67033E+03</wgt>
<wgt id='15087'>0.66942E+03</wgt>
<wgt id='15088'>0.66985E+03</wgt>
<wgt id='15089'>0.66984E+03</wgt>
<wgt id='15090'>0.67024E+03</wgt>
<wgt id='15091'>0.66992E+03</wgt>
<wgt id='15092'>0.67003E+03</wgt>
<wgt id='15093'>0.66996E+03</wgt>
<wgt id='15094'>0.66996E+03</wgt>
<wgt id='15095'>0.67018E+03</wgt>
<wgt id='15096'>0.66998E+03</wgt>
<wgt id='15097'>0.67019E+03</wgt>
<wgt id='15098'>0.67006E+03</wgt>
<wgt id='15099'>0.66995E+03</wgt>
<wgt id='15100'>0.67013E+03</wgt>
<wgt id='15101'>0.67011E+03</wgt>
<wgt id='15102'>0.67007E+03</wgt>
<wgt id='15103'>0.67013E+03</wgt>
<wgt id='15104'>0.67013E+03</wgt>
<wgt id='15105'>0.67014E+03</wgt>
<wgt id='15106'>0.67012E+03</wgt>
<wgt id='15107'>0.67009E+03</wgt>
<wgt id='1500'>0.72532E+03</wgt>
<wgt id='1501'>0.71393E+03</wgt>
<wgt id='1502'>0.72125E+03</wgt>
<wgt id='1503'>0.73212E+03</wgt>
<wgt id='1504'>0.71656E+03</wgt>
<wgt id='1505'>0.68880E+03</wgt>
<wgt id='1506'>0.74563E+03</wgt>
<wgt id='1507'>0.72255E+03</wgt>
<wgt id='1508'>0.73645E+03</wgt>
<wgt id='1509'>0.73787E+03</wgt>
<wgt id='1510'>0.69655E+03</wgt>
<wgt id='1511'>0.67524E+03</wgt>
<wgt id='1512'>0.73833E+03</wgt>
<wgt id='1513'>0.73760E+03</wgt>
<wgt id='1514'>0.71017E+03</wgt>
<wgt id='1515'>0.74402E+03</wgt>
<wgt id='1516'>0.73413E+03</wgt>
<wgt id='1517'>0.72938E+03</wgt>
<wgt id='1518'>0.73514E+03</wgt>
<wgt id='1519'>0.74071E+03</wgt>
<wgt id='1520'>0.75815E+03</wgt>
<wgt id='1521'>0.73235E+03</wgt>
<wgt id='1522'>0.70592E+03</wgt>
<wgt id='1523'>0.77163E+03</wgt>
<wgt id='1524'>0.72144E+03</wgt>
<wgt id='1525'>0.72070E+03</wgt>
<wgt id='1526'>0.72921E+03</wgt>
<wgt id='1527'>0.72919E+03</wgt>
<wgt id='1528'>0.71467E+03</wgt>
<wgt id='1529'>0.73739E+03</wgt>
<wgt id='1530'>0.74631E+03</wgt>
<wgt id='1531'>0.71518E+03</wgt>
<wgt id='1532'>0.70317E+03</wgt>
<wgt id='1533'>0.70758E+03</wgt>
<wgt id='1534'>0.71910E+03</wgt>
<wgt id='1535'>0.74133E+03</wgt>
<wgt id='1536'>0.72972E+03</wgt>
<wgt id='1537'>0.73881E+03</wgt>
<wgt id='1538'>0.74010E+03</wgt>
<wgt id='1539'>0.72185E+03</wgt>
<wgt id='1540'>0.71796E+03</wgt>
<wgt id='1541'>0.73648E+03</wgt>
<wgt id='1542'>0.71758E+03</wgt>
<wgt id='1543'>0.71674E+03</wgt>
<wgt id='1544'>0.72012E+03</wgt>
<wgt id='1545'>0.70908E+03</wgt>
<wgt id='1546'>0.74165E+03</wgt>
<wgt id='1547'>0.72073E+03</wgt>
<wgt id='1548'>0.72720E+03</wgt>
<wgt id='1549'>0.71579E+03</wgt>
<wgt id='1550'>0.71581E+03</wgt>
<wgt id='1551'>0.71745E+03</wgt>
<wgt id='1552'>0.70975E+03</wgt>
<wgt id='1553'>0.72732E+03</wgt>
<wgt id='1554'>0.73055E+03</wgt>
<wgt id='1555'>0.71162E+03</wgt>
<wgt id='1556'>0.71996E+03</wgt>
<wgt id='1557'>0.73990E+03</wgt>
<wgt id='1558'>0.70865E+03</wgt>
<wgt id='1559'>0.74064E+03</wgt>
<wgt id='1560'>0.72339E+03</wgt>
<wgt id='1561'>0.72488E+03</wgt>
<wgt id='1562'>0.72886E+03</wgt>
<wgt id='1563'>0.72036E+03</wgt>
<wgt id='1564'>0.71193E+03</wgt>
<wgt id='1565'>0.73143E+03</wgt>
<wgt id='1566'>0.71684E+03</wgt>
<wgt id='1567'>0.78494E+03</wgt>
<wgt id='1568'>0.71876E+03</wgt>
<wgt id='1569'>0.70267E+03</wgt>
<wgt id='1570'>0.70604E+03</wgt>
<wgt id='1571'>0.71631E+03</wgt>
<wgt id='1572'>0.73341E+03</wgt>
<wgt id='1573'>0.70384E+03</wgt>
<wgt id='1574'>0.73088E+03</wgt>
<wgt id='1575'>0.72314E+03</wgt>
<wgt id='1576'>0.69968E+03</wgt>
<wgt id='1577'>0.71671E+03</wgt>
<wgt id='1578'>0.74077E+03</wgt>
<wgt id='1579'>0.72212E+03</wgt>
<wgt id='1580'>0.71865E+03</wgt>
<wgt id='1581'>0.72376E+03</wgt>
<wgt id='1582'>0.70736E+03</wgt>
<wgt id='1583'>0.75798E+03</wgt>
<wgt id='1584'>0.71978E+03</wgt>
<wgt id='1585'>0.71517E+03</wgt>
<wgt id='1586'>0.71600E+03</wgt>
<wgt id='1587'>0.72288E+03</wgt>
<wgt id='1588'>0.72557E+03</wgt>
<wgt id='1589'>0.76370E+03</wgt>
<wgt id='1590'>0.71317E+03</wgt>
<wgt id='1591'>0.72680E+03</wgt>
<wgt id='1592'>0.72264E+03</wgt>
<wgt id='1593'>0.73172E+03</wgt>
<wgt id='1594'>0.73468E+03</wgt>
<wgt id='1595'>0.71153E+03</wgt>
<wgt id='1596'>0.73812E+03</wgt>
<wgt id='1597'>0.72691E+03</wgt>
<wgt id='1598'>0.73534E+03</wgt>
<wgt id='1599'>0.74092E+03</wgt>
<wgt id='1600'>0.74636E+03</wgt>
<wgt id='1601'>0.71758E+03</wgt>
<wgt id='1602'>0.73055E+03</wgt>
<wgt id='1700'>0.68814E+03</wgt>
<wgt id='1800'>0.67331E+03</wgt>
<wgt id='1850'>0.78296E+03</wgt>
<wgt id='1900'>0.73636E+03</wgt>
<wgt id='1950'>0.76374E+03</wgt>
</rwgt>
</event>
<event>
     13 322222  6.87070E+02  2.17634E+02 -1.00000E+00  1.09073E-01
      21    -1     0     0   504   505  0.000000000E+00  0.000000000E+00  1.981882136E+03  1.981882136E+03  0.000000000E+00  0.00000E+00  9.000E+00
      21    -1     0     0   502   503  0.000000000E+00  0.000000000E+00 -1.795602568E+02  1.795602568E+02  0.000000000E+00  0.00000E+00  9.000E+00
       6     2     1     2   502     0  2.388425750E+02  2.442661156E+02  1.318509919E+02  4.041211712E+02  1.709313489E+02  0.00000E+00  9.000E+00
      -6     2     1     2     0   505 -1.224027449E+02 -6.040143065E+01  1.354117677E+03  1.373337094E+03  1.838187326E+02  0.00000E+00  9.000E+00
      21     1     1     2   504   503 -1.164398301E+02 -1.838646850E+02  3.163532104E+02  3.839841275E+02  3.814697266E-06  0.00000E+00  9.000E+00
      24     2     3     3     0     0  5.753898053E+00  4.358296380E+01  1.037734716E+01  7.339024561E+01  5.784338112E+01  0.00000E+00  9.000E+00
       5     1     3     3   502     0  2.330886770E+02  2.006831518E+02  1.214736447E+02  3.307309256E+02  4.800000000E+00  0.00000E+00 -1.000E+00
     -24     2     4     4     0     0 -9.790515189E+00  2.503557421E+01  4.266561024E+02  4.351532058E+02  8.124191453E+01  0.00000E+00  9.000E+00
      -5     1     4     4     0   505 -1.126122297E+02 -8.543700486E+01  9.274615748E+02  9.381838886E+02  4.800000000E+00  0.00000E+00  1.000E+00
     -11     1     6     6     0     0 -1.501337797E+01  4.229923257E+01  2.153182147E+01  4.978198399E+01  5.100000000E-04  0.00000E+00  1.000E+00
      12     1     6     6     0     0  2.076727603E+01  1.283731234E+00 -1.115447431E+01  2.360826162E+01  0.000000000E+00  0.00000E+00 -1.000E+00
       3     1     8     8   506     0  3.475612771E+01  9.013644555E+00  2.352232379E+02  2.379479898E+02  2.000000000E-01  0.00000E+00 -1.000E+00
      -4     1     8     8     0   506 -4.454664290E+01  1.602192966E+01  1.914328645E+02  1.972052160E+02  1.500000000E+00  0.00000E+00  1.000E+00
#rwgt            2           1   120.88759870405265                2        6411           0
<rwgt>
<wgt id='1001'>0.68707E+03</wgt>
<wgt id='1002'>0.59753E+03</wgt>
<wgt id='1003'>0.79722E+03</wgt>
<wgt id='1004'>0.53439E+03</wgt>
<wgt id='1005'>0.46475E+03</wgt>
<wgt id='1006'>0.62007E+03</wgt>
<wgt id='1007'>0.90492E+03</wgt>
<wgt id='1008'>0.78699E+03</wgt>
<wgt id='1009'>0.10500E+04</wgt>
<wgt id='2000'>0.68707E+03</wgt>
<wgt id='2001'>0.68639E+03</wgt>
<wgt id='2002'>0.68608E+03</wgt>
<wgt id='2003'>0.68607E+03</wgt>
<wgt id='2004'>0.69013E+03</wgt>
<wgt id='2005'>0.68749E+03</wgt>
<wgt id='2006'>0.68528E+03</wgt>
<wgt id='2007'>0.68735E+03</wgt>
<wgt id='2008'>0.68364E+03</wgt>
<wgt id='2009'>0.68996E+03</wgt>
<wgt id='2010'>0.68661E+03</wgt>
<wgt id='2011'>0.68237E+03</wgt>
<wgt id='2012'>0.68408E+03</wgt>
<wgt id='2013'>0.68019E+03</wgt>
<wgt id='2014'>0.68504E+03</wgt>
<wgt id='2015'>0.68599E+03</wgt>
<wgt id='2016'>0.68898E+03</wgt>
<wgt id='2017'>0.68606E+03</wgt>
<wgt id='2018'>0.68555E+03</wgt>
<wgt id='2019'>0.68721E+03</wgt>
<wgt id='2020'>0.68592E+03</wgt>
<wgt id='2021'>0.68849E+03</wgt>
<wgt id='2022'>0.68672E+03</wgt>
<wgt id='2023'>0.68977E+03</wgt>
<wgt id='2024'>0.68357E+03</wgt>
<wgt id='2025'>0.68765E+03</wgt>
<wgt id='2026'>0.69229E+03</wgt>
<wgt id='2027'>0.68471E+03</wgt>
<wgt id='2028'>0.68334E+03</wgt>
<wgt id='2029'>0.69618E+03</wgt>
<wgt id='2030'>0.68700E+03</wgt>
<wgt id='2031'>0.68720E+03</wgt>
<wgt id='2032'>0.68667E+03</wgt>
<wgt id='2033'>0.68621E+03</wgt>
<wgt id='2034'>0.69055E+03</wgt>
<wgt id='2035'>0.68875E+03</wgt>
<wgt id='2036'>0.68645E+03</wgt>
<wgt id='2037'>0.69097E+03</wgt>
<wgt id='2038'>0.68860E+03</wgt>
<wgt id='2039'>0.68140E+03</wgt>
<wgt id='2040'>0.68291E+03</wgt>
<wgt id='2041'>0.68489E+03</wgt>
<wgt id='2042'>0.69170E+03</wgt>
<wgt id='2043'>0.68682E+03</wgt>
<wgt id='2044'>0.68875E+03</wgt>
<wgt id='2045'>0.68763E+03</wgt>
<wgt id='2046'>0.68821E+03</wgt>
<wgt id='2047'>0.68572E+03</wgt>
<wgt id='2048'>0.68631E+03</wgt>
<wgt id='2049'>0.68659E+03</wgt>
<wgt id='2050'>0.68501E+03</wgt>
<wgt id='2051'>0.68069E+03</wgt>
<wgt id='2052'>0.68347E+03</wgt>
<wgt id='2053'>0.68599E+03</wgt>
<wgt id='2054'>0.68664E+03</wgt>
<wgt id='2055'>0.68639E+03</wgt>
<wgt id='2056'>0.68598E+03</wgt>
<wgt id='2057'>0.68275E+03</wgt>
<wgt id='2058'>0.68704E+03</wgt>
<wgt id='2059'>0.68637E+03</wgt>
<wgt id='2060'>0.68695E+03</wgt>
<wgt id='2061'>0.68547E+03</wgt>
<wgt id='2062'>0.68216E+03</wgt>
<wgt id='2063'>0.69068E+03</wgt>
<wgt id='2064'>0.68822E+03</wgt>
<wgt id='2065'>0.68868E+03</wgt>
<wgt id='2066'>0.69102E+03</wgt>
<wgt id='2067'>0.68614E+03</wgt>
<wgt id='2068'>0.68628E+03</wgt>
<wgt id='2069'>0.68917E+03</wgt>
<wgt id='2070'>0.68180E+03</wgt>
<wgt id='2071'>0.68724E+03</wgt>
<wgt id='2072'>0.68763E+03</wgt>
<wgt id='2073'>0.68357E+03</wgt>
<wgt id='2074'>0.68597E+03</wgt>
<wgt id='2075'>0.68512E+03</wgt>
<wgt id='2076'>0.68865E+03</wgt>
<wgt id='2077'>0.68205E+03</wgt>
<wgt id='2078'>0.68825E+03</wgt>
<wgt id='2079'>0.68754E+03</wgt>
<wgt id='2080'>0.68928E+03</wgt>
<wgt id='2081'>0.68787E+03</wgt>
<wgt id='2082'>0.68846E+03</wgt>
<wgt id='2083'>0.68816E+03</wgt>
<wgt id='2084'>0.68614E+03</wgt>
<wgt id='2085'>0.68939E+03</wgt>
<wgt id='2086'>0.68792E+03</wgt>
<wgt id='2087'>0.68509E+03</wgt>
<wgt id='2088'>0.68712E+03</wgt>
<wgt id='2089'>0.68506E+03</wgt>
<wgt id='2090'>0.68912E+03</wgt>
<wgt id='2091'>0.68741E+03</wgt>
<wgt id='2092'>0.68676E+03</wgt>
<wgt id='2093'>0.68897E+03</wgt>
<wgt id='2094'>0.68584E+03</wgt>
<wgt id='2095'>0.68778E+03</wgt>
<wgt id='2096'>0.68586E+03</wgt>
<wgt id='2097'>0.69003E+03</wgt>
<wgt id='2098'>0.68592E+03</wgt>
<wgt id='2099'>0.68849E+03</wgt>
<wgt id='2100'>0.68651E+03</wgt>
<wgt id='2101'>0.65661E+03</wgt>
<wgt id='2102'>0.72555E+03</wgt>
<wgt id='2104'>0.54781E+03</wgt>
<wgt id='2105'>0.57667E+03</wgt>
<wgt id='2106'>0.59948E+03</wgt>
<wgt id='2107'>0.62551E+03</wgt>
<wgt id='2108'>0.67153E+03</wgt>
<wgt id='2109'>0.70373E+03</wgt>
<wgt id='2110'>0.75462E+03</wgt>
<wgt id='2111'>0.79093E+03</wgt>
<wgt id='3000'>0.75940E+03</wgt>
<wgt id='3001'>0.75878E+03</wgt>
<wgt id='3002'>0.75809E+03</wgt>
<wgt id='3003'>0.75836E+03</wgt>
<wgt id='3004'>0.76277E+03</wgt>
<wgt id='3005'>0.75918E+03</wgt>
<wgt id='3006'>0.75847E+03</wgt>
<wgt id='3007'>0.76201E+03</wgt>
<wgt id='3008'>0.76061E+03</wgt>
<wgt id='3009'>0.76378E+03</wgt>
<wgt id='3010'>0.75970E+03</wgt>
<wgt id='3011'>0.75543E+03</wgt>
<wgt id='3012'>0.75726E+03</wgt>
<wgt id='3013'>0.76464E+03</wgt>
<wgt id='3014'>0.75843E+03</wgt>
<wgt id='3015'>0.75580E+03</wgt>
<wgt id='3016'>0.75789E+03</wgt>
<wgt id='3017'>0.75764E+03</wgt>
<wgt id='3018'>0.76202E+03</wgt>
<wgt id='3019'>0.76284E+03</wgt>
<wgt id='3020'>0.76162E+03</wgt>
<wgt id='3021'>0.75974E+03</wgt>
<wgt id='3022'>0.75995E+03</wgt>
<wgt id='3023'>0.75969E+03</wgt>
<wgt id='3024'>0.75740E+03</wgt>
<wgt id='3025'>0.76206E+03</wgt>
<wgt id='3026'>0.76050E+03</wgt>
<wgt id='3027'>0.75989E+03</wgt>
<wgt id='3028'>0.75645E+03</wgt>
<wgt id='3029'>0.75151E+03</wgt>
<wgt id='3030'>0.76879E+03</wgt>
<wgt id='3031'>0.76366E+03</wgt>
<wgt id='3032'>0.76102E+03</wgt>
<wgt id='3033'>0.76229E+03</wgt>
<wgt id='3034'>0.75824E+03</wgt>
<wgt id='3035'>0.76797E+03</wgt>
<wgt id='3036'>0.76046E+03</wgt>
<wgt id='3037'>0.75870E+03</wgt>
<wgt id='3038'>0.76032E+03</wgt>
<wgt id='3039'>0.76185E+03</wgt>
<wgt id='3040'>0.75636E+03</wgt>
<wgt id='3041'>0.75868E+03</wgt>
<wgt id='3042'>0.75889E+03</wgt>
<wgt id='3043'>0.76110E+03</wgt>
<wgt id='3044'>0.75818E+03</wgt>
<wgt id='3045'>0.75972E+03</wgt>
<wgt id='3046'>0.75585E+03</wgt>
<wgt id='3047'>0.75990E+03</wgt>
<wgt id='3048'>0.75678E+03</wgt>
<wgt id='3049'>0.75881E+03</wgt>
<wgt id='3050'>0.76422E+03</wgt>
<wgt id='3051'>0.75714E+03</wgt>
<wgt id='3052'>0.75968E+03</wgt>
<wgt id='3053'>0.75827E+03</wgt>
<wgt id='3054'>0.75844E+03</wgt>
<wgt id='3055'>0.76383E+03</wgt>
<wgt id='3056'>0.75491E+03</wgt>
<wgt id='3057'>0.75620E+03</wgt>
<wgt id='3058'>0.76154E+03</wgt>
<wgt id='3059'>0.75601E+03</wgt>
<wgt id='3060'>0.76415E+03</wgt>
<wgt id='3061'>0.75501E+03</wgt>
<wgt id='3062'>0.76087E+03</wgt>
<wgt id='3063'>0.75296E+03</wgt>
<wgt id='3064'>0.76216E+03</wgt>
<wgt id='3065'>0.75488E+03</wgt>
<wgt id='3066'>0.76152E+03</wgt>
<wgt id='3067'>0.75635E+03</wgt>
<wgt id='3068'>0.76003E+03</wgt>
<wgt id='3069'>0.75752E+03</wgt>
<wgt id='3070'>0.75917E+03</wgt>
<wgt id='3071'>0.75924E+03</wgt>
<wgt id='3072'>0.75874E+03</wgt>
<wgt id='3073'>0.75984E+03</wgt>
<wgt id='3074'>0.76318E+03</wgt>
<wgt id='3075'>0.76036E+03</wgt>
<wgt id='3076'>0.76225E+03</wgt>
<wgt id='3077'>0.76142E+03</wgt>
<wgt id='3078'>0.75976E+03</wgt>
<wgt id='3079'>0.75445E+03</wgt>
<wgt id='3080'>0.75815E+03</wgt>
<wgt id='3081'>0.75768E+03</wgt>
<wgt id='3082'>0.75658E+03</wgt>
<wgt id='3083'>0.75728E+03</wgt>
<wgt id='3084'>0.75638E+03</wgt>
<wgt id='3085'>0.76217E+03</wgt>
<wgt id='3086'>0.75701E+03</wgt>
<wgt id='3087'>0.75490E+03</wgt>
<wgt id='3088'>0.75682E+03</wgt>
<wgt id='3089'>0.75848E+03</wgt>
<wgt id='3090'>0.75958E+03</wgt>
<wgt id='3091'>0.75774E+03</wgt>
<wgt id='3092'>0.75994E+03</wgt>
<wgt id='3093'>0.76053E+03</wgt>
<wgt id='3094'>0.76098E+03</wgt>
<wgt id='3095'>0.76052E+03</wgt>
<wgt id='3096'>0.75866E+03</wgt>
<wgt id='3097'>0.75942E+03</wgt>
<wgt id='3098'>0.75949E+03</wgt>
<wgt id='3099'>0.76020E+03</wgt>
<wgt id='3100'>0.76083E+03</wgt>
<wgt id='3101'>0.72650E+03</wgt>
<wgt id='3102'>0.78953E+03</wgt>
<wgt id='5000'>0.78203E+03</wgt>
<wgt id='5001'>0.79284E+03</wgt>
<wgt id='5002'>0.78373E+03</wgt>
<wgt id='5003'>0.79070E+03</wgt>
<wgt id='5004'>0.78064E+03</wgt>
<wgt id='5005'>0.82611E+03</wgt>
<wgt id='5006'>0.79400E+03</wgt>
<wgt id='5007'>0.78876E+03</wgt>
<wgt id='5008'>0.80212E+03</wgt>
<wgt id='5009'>0.78824E+03</wgt>
<wgt id='5010'>0.78048E+03</wgt>
<wgt id='5011'>0.80410E+03</wgt>
<wgt id='5012'>0.76284E+03</wgt>
<wgt id='5013'>0.76522E+03</wgt>
<wgt id='5014'>0.80876E+03</wgt>
<wgt id='5015'>0.75478E+03</wgt>
<wgt id='5016'>0.86466E+03</wgt>
<wgt id='5017'>0.77233E+03</wgt>
<wgt id='5018'>0.79157E+03</wgt>
<wgt id='5019'>0.77071E+03</wgt>
<wgt id='5020'>0.79077E+03</wgt>
<wgt id='5021'>0.76684E+03</wgt>
<wgt id='5022'>0.79186E+03</wgt>
<wgt id='5023'>0.77157E+03</wgt>
<wgt id='5024'>0.79482E+03</wgt>
<wgt id='5025'>0.78517E+03</wgt>
<wgt id='5026'>0.77946E+03</wgt>
<wgt id='5027'>0.76332E+03</wgt>
<wgt id='5028'>0.81505E+03</wgt>
<wgt id='5029'>0.82776E+03</wgt>
<wgt id='5030'>0.75541E+03</wgt>
<wgt id='5031'>0.80549E+03</wgt>
<wgt id='5032'>0.74987E+03</wgt>
<wgt id='5033'>0.77632E+03</wgt>
<wgt id='5034'>0.78786E+03</wgt>
<wgt id='5035'>0.77794E+03</wgt>
<wgt id='5036'>0.78485E+03</wgt>
<wgt id='5037'>0.75535E+03</wgt>
<wgt id='5038'>0.81358E+03</wgt>
<wgt id='5039'>0.78779E+03</wgt>
<wgt id='5040'>0.77884E+03</wgt>
<wgt id='5041'>0.83531E+03</wgt>
<wgt id='5042'>0.76346E+03</wgt>
<wgt id='5043'>0.71514E+03</wgt>
<wgt id='5044'>0.86601E+03</wgt>
<wgt id='5045'>0.78350E+03</wgt>
<wgt id='5046'>0.78724E+03</wgt>
<wgt id='5047'>0.80758E+03</wgt>
<wgt id='5048'>0.75208E+03</wgt>
<wgt id='5049'>0.78899E+03</wgt>
<wgt id='5050'>0.76262E+03</wgt>
<wgt id='5051'>0.77166E+03</wgt>
<wgt id='5052'>0.78854E+03</wgt>
<wgt id='5053'>0.71496E+03</wgt>
<wgt id='5054'>0.72050E+03</wgt>
<wgt id='5055'>0.77673E+03</wgt>
<wgt id='5056'>0.80280E+03</wgt>
<wgt id='5060'>0.73305E+03</wgt>
<wgt id='5070'>0.84200E+03</wgt>
<wgt id='4000'>0.78102E+03</wgt>
<wgt id='4001'>0.78075E+03</wgt>
<wgt id='4002'>0.77028E+03</wgt>
<wgt id='4003'>0.77993E+03</wgt>
<wgt id='4004'>0.79308E+03</wgt>
<wgt id='4005'>0.74635E+03</wgt>
<wgt id='4006'>0.80360E+03</wgt>
<wgt id='4007'>0.78598E+03</wgt>
<wgt id='4008'>0.77350E+03</wgt>
<wgt id='4009'>0.84237E+03</wgt>
<wgt id='4010'>0.71605E+03</wgt>
<wgt id='4011'>0.78334E+03</wgt>
<wgt id='4012'>0.77785E+03</wgt>
<wgt id='4013'>0.87887E+03</wgt>
<wgt id='4014'>0.72582E+03</wgt>
<wgt id='4015'>0.81158E+03</wgt>
<wgt id='4016'>0.76150E+03</wgt>
<wgt id='4017'>0.76558E+03</wgt>
<wgt id='4018'>0.79967E+03</wgt>
<wgt id='4019'>0.74114E+03</wgt>
<wgt id='4020'>0.82644E+03</wgt>
<wgt id='4021'>0.77162E+03</wgt>
<wgt id='4022'>0.80095E+03</wgt>
<wgt id='4023'>0.80901E+03</wgt>
<wgt id='4024'>0.75510E+03</wgt>
<wgt id='4025'>0.78634E+03</wgt>
<wgt id='4026'>0.77578E+03</wgt>
<wgt id='4027'>0.79376E+03</wgt>
<wgt id='4028'>0.76355E+03</wgt>
<wgt id='4029'>0.79417E+03</wgt>
<wgt id='4030'>0.77646E+03</wgt>
<wgt id='4031'>0.77843E+03</wgt>
<wgt id='4032'>0.78447E+03</wgt>
<wgt id='4033'>0.78453E+03</wgt>
<wgt id='4034'>0.77335E+03</wgt>
<wgt id='4035'>0.75843E+03</wgt>
<wgt id='4036'>0.80101E+03</wgt>
<wgt id='4037'>0.74723E+03</wgt>
<wgt id='4038'>0.83579E+03</wgt>
<wgt id='4039'>0.76646E+03</wgt>
<wgt id='4040'>0.79681E+03</wgt>
<wgt id='4041'>0.79748E+03</wgt>
<wgt id='4042'>0.76059E+03</wgt>
<wgt id='4043'>0.81088E+03</wgt>
<wgt id='4044'>0.75252E+03</wgt>
<wgt id='4045'>0.78395E+03</wgt>
<wgt id='4046'>0.79355E+03</wgt>
<wgt id='4047'>0.79800E+03</wgt>
<wgt id='4048'>0.79472E+03</wgt>
<wgt id='4049'>0.79114E+03</wgt>
<wgt id='4050'>0.82463E+03</wgt>
<wgt id='4051'>0.78452E+03</wgt>
<wgt id='4052'>0.78856E+03</wgt>
<wgt id='4053'>0.73702E+03</wgt>
<wgt id='4054'>0.79479E+03</wgt>
<wgt id='4055'>0.77407E+03</wgt>
<wgt id='4056'>0.79684E+03</wgt>
<wgt id='4060'>0.74087E+03</wgt>
<wgt id='4070'>0.83225E+03</wgt>
<wgt id='4080'>0.94640E+03</wgt>
<wgt id='6000'>0.74526E+03</wgt>
<wgt id='6001'>0.74576E+03</wgt>
<wgt id='6002'>0.74470E+03</wgt>
<wgt id='6003'>0.74588E+03</wgt>
<wgt id='6004'>0.74484E+03</wgt>
<wgt id='6005'>0.75013E+03</wgt>
<wgt id='6006'>0.74075E+03</wgt>
<wgt id='6007'>0.74441E+03</wgt>
<wgt id='6008'>0.74622E+03</wgt>
<wgt id='6009'>0.74550E+03</wgt>
<wgt id='6010'>0.74501E+03</wgt>
<wgt id='6011'>0.74518E+03</wgt>
<wgt id='6012'>0.74541E+03</wgt>
<wgt id='6013'>0.74539E+03</wgt>
<wgt id='6014'>0.74501E+03</wgt>
<wgt id='6015'>0.74599E+03</wgt>
<wgt id='6016'>0.74485E+03</wgt>
<wgt id='6017'>0.74203E+03</wgt>
<wgt id='6018'>0.74902E+03</wgt>
<wgt id='6019'>0.74485E+03</wgt>
<wgt id='6020'>0.74560E+03</wgt>
<wgt id='6021'>0.74191E+03</wgt>
<wgt id='6022'>0.74957E+03</wgt>
<wgt id='6023'>0.73992E+03</wgt>
<wgt id='6024'>0.74857E+03</wgt>
<wgt id='6025'>0.75926E+03</wgt>
<wgt id='6026'>0.73187E+03</wgt>
<wgt id='6027'>0.74386E+03</wgt>
<wgt id='6028'>0.74566E+03</wgt>
<wgt id='6029'>0.73077E+03</wgt>
<wgt id='6030'>0.76332E+03</wgt>
<wgt id='6031'>0.72041E+03</wgt>
<wgt id='6032'>0.77552E+03</wgt>
<wgt id='6033'>0.75427E+03</wgt>
<wgt id='6034'>0.73682E+03</wgt>
<wgt id='6035'>0.74996E+03</wgt>
<wgt id='6036'>0.73420E+03</wgt>
<wgt id='6037'>0.74426E+03</wgt>
<wgt id='6038'>0.74427E+03</wgt>
<wgt id='6039'>0.74002E+03</wgt>
<wgt id='6040'>0.75130E+03</wgt>
<wgt id='6041'>0.73069E+03</wgt>
<wgt id='6042'>0.76202E+03</wgt>
<wgt id='6043'>0.74678E+03</wgt>
<wgt id='6044'>0.74648E+03</wgt>
<wgt id='6045'>0.74257E+03</wgt>
<wgt id='6046'>0.75208E+03</wgt>
<wgt id='6047'>0.73218E+03</wgt>
<wgt id='6048'>0.77024E+03</wgt>
<wgt id='6049'>0.73536E+03</wgt>
<wgt id='6050'>0.75084E+03</wgt>
<wgt id='7000'>0.79730E+03</wgt>
<wgt id='7001'>0.79709E+03</wgt>
<wgt id='7002'>0.79760E+03</wgt>
<wgt id='7003'>0.80037E+03</wgt>
<wgt id='7004'>0.79428E+03</wgt>
<wgt id='7005'>0.79963E+03</wgt>
<wgt id='7006'>0.79638E+03</wgt>
<wgt id='7007'>0.79878E+03</wgt>
<wgt id='7008'>0.79586E+03</wgt>
<wgt id='7009'>0.79801E+03</wgt>
<wgt id='7010'>0.79662E+03</wgt>
<wgt id='7011'>0.79688E+03</wgt>
<wgt id='7012'>0.79751E+03</wgt>
<wgt id='7013'>0.79687E+03</wgt>
<wgt id='7014'>0.79784E+03</wgt>
<wgt id='7015'>0.79795E+03</wgt>
<wgt id='7016'>0.79665E+03</wgt>
<wgt id='7017'>0.79228E+03</wgt>
<wgt id='7018'>0.80016E+03</wgt>
<wgt id='7019'>0.79731E+03</wgt>
<wgt id='7020'>0.79728E+03</wgt>
<wgt id='7021'>0.79828E+03</wgt>
<wgt id='7022'>0.79663E+03</wgt>
<wgt id='7023'>0.80011E+03</wgt>
<wgt id='7024'>0.79469E+03</wgt>
<wgt id='7025'>0.79791E+03</wgt>
<wgt id='7026'>0.79562E+03</wgt>
<wgt id='7027'>0.79302E+03</wgt>
<wgt id='7028'>0.80010E+03</wgt>
<wgt id='7029'>0.81459E+03</wgt>
<wgt id='7030'>0.75561E+03</wgt>
<wgt id='7031'>0.78351E+03</wgt>
<wgt id='7032'>0.82772E+03</wgt>
<wgt id='7033'>0.80383E+03</wgt>
<wgt id='7034'>0.78540E+03</wgt>
<wgt id='7035'>0.77571E+03</wgt>
<wgt id='7036'>0.80778E+03</wgt>
<wgt id='7037'>0.79604E+03</wgt>
<wgt id='7038'>0.79937E+03</wgt>
<wgt id='7039'>0.78825E+03</wgt>
<wgt id='7040'>0.80431E+03</wgt>
<wgt id='7041'>0.81849E+03</wgt>
<wgt id='7042'>0.76731E+03</wgt>
<wgt id='7043'>0.79894E+03</wgt>
<wgt id='7044'>0.78833E+03</wgt>
<wgt id='7045'>0.80986E+03</wgt>
<wgt id='7046'>0.78768E+03</wgt>
<wgt id='7047'>0.79344E+03</wgt>
<wgt id='7048'>0.79897E+03</wgt>
<wgt id='7049'>0.81544E+03</wgt>
<wgt id='7050'>0.78375E+03</wgt>
<wgt id='7060'>0.10602E+04</wgt>
<wgt id='8000'>0.64547E+03</wgt>
<wgt id='8001'>0.64545E+03</wgt>
<wgt id='8002'>0.64565E+03</wgt>
<wgt id='8003'>0.64542E+03</wgt>
<wgt id='8004'>0.64545E+03</wgt>
<wgt id='8005'>0.64446E+03</wgt>
<wgt id='8006'>0.64681E+03</wgt>
<wgt id='8007'>0.64769E+03</wgt>
<wgt id='8008'>0.64643E+03</wgt>
<wgt id='8009'>0.64765E+03</wgt>
<wgt id='8010'>0.64443E+03</wgt>
<wgt id='8011'>0.64645E+03</wgt>
<wgt id='8012'>0.64305E+03</wgt>
<wgt id='8013'>0.64378E+03</wgt>
<wgt id='8014'>0.64771E+03</wgt>
<wgt id='8015'>0.64510E+03</wgt>
<wgt id='8016'>0.64743E+03</wgt>
<wgt id='8017'>0.64753E+03</wgt>
<wgt id='8018'>0.64993E+03</wgt>
<wgt id='8019'>0.64030E+03</wgt>
<wgt id='8020'>0.65426E+03</wgt>
<wgt id='8021'>0.64263E+03</wgt>
<wgt id='8022'>0.66106E+03</wgt>
<wgt id='8023'>0.63958E+03</wgt>
<wgt id='8024'>0.63462E+03</wgt>
<wgt id='8025'>0.63458E+03</wgt>
<wgt id='8026'>0.64324E+03</wgt>
<wgt id='8027'>0.64900E+03</wgt>
<wgt id='8028'>0.64533E+03</wgt>
<wgt id='8029'>0.69208E+03</wgt>
<wgt id='8500'>0.77969E+03</wgt>
<wgt id='8501'>0.76373E+03</wgt>
<wgt id='8502'>0.77868E+03</wgt>
<wgt id='8503'>0.78178E+03</wgt>
<wgt id='8504'>0.77359E+03</wgt>
<wgt id='8505'>0.78343E+03</wgt>
<wgt id='8506'>0.78395E+03</wgt>
<wgt id='8507'>0.76814E+03</wgt>
<wgt id='8508'>0.74966E+03</wgt>
<wgt id='8509'>0.78991E+03</wgt>
<wgt id='8510'>0.77197E+03</wgt>
<wgt id='8511'>0.77268E+03</wgt>
<wgt id='8512'>0.79746E+03</wgt>
<wgt id='8513'>0.79297E+03</wgt>
<wgt id='8514'>0.77976E+03</wgt>
<wgt id='8515'>0.78574E+03</wgt>
<wgt id='8516'>0.77315E+03</wgt>
<wgt id='8517'>0.79529E+03</wgt>
<wgt id='8518'>0.79045E+03</wgt>
<wgt id='8519'>0.79816E+03</wgt>
<wgt id='8520'>0.74397E+03</wgt>
<wgt id='8521'>0.78333E+03</wgt>
<wgt id='8522'>0.80104E+03</wgt>
<wgt id='8523'>0.75943E+03</wgt>
<wgt id='8524'>0.79789E+03</wgt>
<wgt id='8525'>0.77811E+03</wgt>
<wgt id='8526'>0.77944E+03</wgt>
<wgt id='8527'>0.78252E+03</wgt>
<wgt id='8528'>0.77589E+03</wgt>
<wgt id='8529'>0.77640E+03</wgt>
<wgt id='8530'>0.77840E+03</wgt>
<wgt id='8531'>0.77902E+03</wgt>
<wgt id='8532'>0.77759E+03</wgt>
<wgt id='8533'>0.77582E+03</wgt>
<wgt id='8534'>0.77865E+03</wgt>
<wgt id='8535'>0.78403E+03</wgt>
<wgt id='8536'>0.77613E+03</wgt>
<wgt id='8537'>0.77904E+03</wgt>
<wgt id='8538'>0.78101E+03</wgt>
<wgt id='8539'>0.77835E+03</wgt>
<wgt id='8540'>0.78263E+03</wgt>
<wgt id='8541'>0.77937E+03</wgt>
<wgt id='8542'>0.77641E+03</wgt>
<wgt id='8543'>0.77634E+03</wgt>
<wgt id='8544'>0.78112E+03</wgt>
<wgt id='8545'>0.78090E+03</wgt>
<wgt id='8546'>0.78260E+03</wgt>
<wgt id='8547'>0.77788E+03</wgt>
<wgt id='8548'>0.77691E+03</wgt>
<wgt id='8549'>0.78100E+03</wgt>
<wgt id='8550'>0.77901E+03</wgt>
<wgt id='8551'>0.78098E+03</wgt>
<wgt id='8552'>0.77804E+03</wgt>
<wgt id='8553'>0.77735E+03</wgt>
<wgt id='8554'>0.77912E+03</wgt>
<wgt id='8555'>0.77933E+03</wgt>
<wgt id='8556'>0.77886E+03</wgt>
<wgt id='8557'>0.78077E+03</wgt>
<wgt id='8558'>0.78029E+03</wgt>
<wgt id='8559'>0.77984E+03</wgt>
<wgt id='8560'>0.77881E+03</wgt>
<wgt id='8561'>0.78119E+03</wgt>
<wgt id='8562'>0.78011E+03</wgt>
<wgt id='8563'>0.77969E+03</wgt>
<wgt id='8564'>0.77980E+03</wgt>
<wgt id='8565'>0.78070E+03</wgt>
<wgt id='8566'>0.78183E+03</wgt>
<wgt id='8567'>0.78021E+03</wgt>
<wgt id='8568'>0.78051E+03</wgt>
<wgt id='8569'>0.78001E+03</wgt>
<wgt id='8570'>0.77924E+03</wgt>
<wgt id='8571'>0.77790E+03</wgt>
<wgt id='8572'>0.77898E+03</wgt>
<wgt id='8573'>0.77870E+03</wgt>
<wgt id='8574'>0.77921E+03</wgt>
<wgt id='8575'>0.77867E+03</wgt>
<wgt id='8576'>0.78038E+03</wgt>
<wgt id='8577'>0.77837E+03</wgt>
<wgt id='8578'>0.78043E+03</wgt>
<wgt id='8579'>0.78132E+03</wgt>
<wgt id='8580'>0.77863E+03</wgt>
<wgt id='8581'>0.78016E+03</wgt>
<wgt id='8582'>0.77887E+03</wgt>
<wgt id='8583'>0.77970E+03</wgt>
<wgt id='8584'>0.78119E+03</wgt>
<wgt id='8585'>0.78005E+03</wgt>
<wgt id='8586'>0.78209E+03</wgt>
<wgt id='8587'>0.78005E+03</wgt>
<wgt id='8588'>0.77974E+03</wgt>
<wgt id='8589'>0.77979E+03</wgt>
<wgt id='8590'>0.77941E+03</wgt>
<wgt id='8591'>0.77857E+03</wgt>
<wgt id='8592'>0.77965E+03</wgt>
<wgt id='8593'>0.77894E+03</wgt>
<wgt id='8594'>0.77921E+03</wgt>
<wgt id='8595'>0.77934E+03</wgt>
<wgt id='8596'>0.77938E+03</wgt>
<wgt id='8597'>0.78025E+03</wgt>
<wgt id='8598'>0.78021E+03</wgt>
<wgt id='8599'>0.78016E+03</wgt>
<wgt id='8600'>0.77977E+03</wgt>
<wgt id='8601'>0.75294E+03</wgt>
<wgt id='8602'>0.81334E+03</wgt>
<wgt id='9000'>0.77445E+03</wgt>
<wgt id='9001'>0.78158E+03</wgt>
<wgt id='9002'>0.77260E+03</wgt>
<wgt id='9003'>0.78324E+03</wgt>
<wgt id='9004'>0.78076E+03</wgt>
<wgt id='9005'>0.78260E+03</wgt>
<wgt id='9006'>0.77363E+03</wgt>
<wgt id='9007'>0.76576E+03</wgt>
<wgt id='9008'>0.76451E+03</wgt>
<wgt id='9009'>0.77819E+03</wgt>
<wgt id='9010'>0.77647E+03</wgt>
<wgt id='9011'>0.76195E+03</wgt>
<wgt id='9012'>0.79232E+03</wgt>
<wgt id='9013'>0.79343E+03</wgt>
<wgt id='9014'>0.78869E+03</wgt>
<wgt id='9015'>0.77294E+03</wgt>
<wgt id='9016'>0.76541E+03</wgt>
<wgt id='9017'>0.77618E+03</wgt>
<wgt id='9018'>0.78008E+03</wgt>
<wgt id='9019'>0.78385E+03</wgt>
<wgt id='9020'>0.73922E+03</wgt>
<wgt id='9021'>0.75356E+03</wgt>
<wgt id='9022'>0.78741E+03</wgt>
<wgt id='9023'>0.73843E+03</wgt>
<wgt id='9024'>0.76322E+03</wgt>
<wgt id='9025'>0.78461E+03</wgt>
<wgt id='9026'>0.76656E+03</wgt>
<wgt id='9027'>0.77605E+03</wgt>
<wgt id='9028'>0.78139E+03</wgt>
<wgt id='9029'>0.77597E+03</wgt>
<wgt id='9030'>0.77183E+03</wgt>
<wgt id='9031'>0.77166E+03</wgt>
<wgt id='9032'>0.77578E+03</wgt>
<wgt id='9033'>0.77687E+03</wgt>
<wgt id='9034'>0.77823E+03</wgt>
<wgt id='9035'>0.77653E+03</wgt>
<wgt id='9036'>0.77555E+03</wgt>
<wgt id='9037'>0.77517E+03</wgt>
<wgt id='9038'>0.77674E+03</wgt>
<wgt id='9039'>0.77449E+03</wgt>
<wgt id='9040'>0.77244E+03</wgt>
<wgt id='9041'>0.77514E+03</wgt>
<wgt id='9042'>0.77731E+03</wgt>
<wgt id='9043'>0.77050E+03</wgt>
<wgt id='9044'>0.77747E+03</wgt>
<wgt id='9045'>0.77451E+03</wgt>
<wgt id='9046'>0.77235E+03</wgt>
<wgt id='9047'>0.77548E+03</wgt>
<wgt id='9048'>0.77417E+03</wgt>
<wgt id='9049'>0.77342E+03</wgt>
<wgt id='9050'>0.77437E+03</wgt>
<wgt id='9051'>0.77629E+03</wgt>
<wgt id='9052'>0.77618E+03</wgt>
<wgt id='9053'>0.77533E+03</wgt>
<wgt id='9054'>0.77355E+03</wgt>
<wgt id='9055'>0.77367E+03</wgt>
<wgt id='9056'>0.77429E+03</wgt>
<wgt id='9057'>0.77415E+03</wgt>
<wgt id='9058'>0.77315E+03</wgt>
<wgt id='9059'>0.77359E+03</wgt>
<wgt id='9060'>0.77465E+03</wgt>
<wgt id='9061'>0.77376E+03</wgt>
<wgt id='9062'>0.77491E+03</wgt>
<wgt id='9063'>0.77445E+03</wgt>
<wgt id='9064'>0.77588E+03</wgt>
<wgt id='9065'>0.77349E+03</wgt>
<wgt id='9066'>0.77348E+03</wgt>
<wgt id='9067'>0.77344E+03</wgt>
<wgt id='9068'>0.77481E+03</wgt>
<wgt id='9069'>0.77559E+03</wgt>
<wgt id='9070'>0.77440E+03</wgt>
<wgt id='9071'>0.77459E+03</wgt>
<wgt id='9072'>0.77460E+03</wgt>
<wgt id='9073'>0.77433E+03</wgt>
<wgt id='9074'>0.77541E+03</wgt>
<wgt id='9075'>0.77382E+03</wgt>
<wgt id='9076'>0.77435E+03</wgt>
<wgt id='9077'>0.77497E+03</wgt>
<wgt id='9078'>0.77506E+03</wgt>
<wgt id='9079'>0.77350E+03</wgt>
<wgt id='9080'>0.77561E+03</wgt>
<wgt id='9081'>0.77437E+03</wgt>
<wgt id='9082'>0.77418E+03</wgt>
<wgt id='9083'>0.77426E+03</wgt>
<wgt id='9084'>0.77314E+03</wgt>
<wgt id='9085'>0.77324E+03</wgt>
<wgt id='9086'>0.77526E+03</wgt>
<wgt id='9087'>0.77242E+03</wgt>
<wgt id='9088'>0.77368E+03</wgt>
<wgt id='9089'>0.77398E+03</wgt>
<wgt id='9090'>0.77495E+03</wgt>
<wgt id='9091'>0.77380E+03</wgt>
<wgt id='9092'>0.77426E+03</wgt>
<wgt id='9093'>0.77412E+03</wgt>
<wgt id='9094'>0.77371E+03</wgt>
<wgt id='9095'>0.77436E+03</wgt>
<wgt id='9096'>0.77412E+03</wgt>
<wgt id='9097'>0.77448E+03</wgt>
<wgt id='9098'>0.77437E+03</wgt>
<wgt id='9099'>0.77376E+03</wgt>
<wgt id='9100'>0.77454E+03</wgt>
<wgt id='9101'>0.74063E+03</wgt>
<wgt id='9102'>0.81642E+03</wgt>
<wgt id='10000'>0.77976E+03</wgt>
<wgt id='10001'>0.77131E+03</wgt>
<wgt id='10002'>0.75721E+03</wgt>
<wgt id='10003'>0.77448E+03</wgt>
<wgt id='10004'>0.75781E+03</wgt>
<wgt id='10005'>0.75391E+03</wgt>
<wgt id='10006'>0.75369E+03</wgt>
<wgt id='10007'>0.78040E+03</wgt>
<wgt id='10008'>0.77149E+03</wgt>
<wgt id='10009'>0.77142E+03</wgt>
<wgt id='10010'>0.77759E+03</wgt>
<wgt id='10011'>0.76589E+03</wgt>
<wgt id='10012'>0.77176E+03</wgt>
<wgt id='10013'>0.78426E+03</wgt>
<wgt id='10014'>0.77838E+03</wgt>
<wgt id='10015'>0.78046E+03</wgt>
<wgt id='10016'>0.77754E+03</wgt>
<wgt id='10017'>0.79382E+03</wgt>
<wgt id='10018'>0.78890E+03</wgt>
<wgt id='10019'>0.76913E+03</wgt>
<wgt id='10020'>0.78083E+03</wgt>
<wgt id='10021'>0.77469E+03</wgt>
<wgt id='10022'>0.82409E+03</wgt>
<wgt id='10023'>0.78028E+03</wgt>
<wgt id='10024'>0.77791E+03</wgt>
<wgt id='10025'>0.77863E+03</wgt>
<wgt id='10026'>0.77899E+03</wgt>
<wgt id='10027'>0.77913E+03</wgt>
<wgt id='10028'>0.77839E+03</wgt>
<wgt id='10029'>0.78084E+03</wgt>
<wgt id='10030'>0.78018E+03</wgt>
<wgt id='10031'>0.75294E+03</wgt>
<wgt id='10032'>0.81334E+03</wgt>
<wgt id='11000'>0.77451E+03</wgt>
<wgt id='11001'>0.77251E+03</wgt>
<wgt id='11002'>0.77185E+03</wgt>
<wgt id='11003'>0.77845E+03</wgt>
<wgt id='11004'>0.76940E+03</wgt>
<wgt id='11005'>0.84262E+03</wgt>
<wgt id='11006'>0.77461E+03</wgt>
<wgt id='11007'>0.77548E+03</wgt>
<wgt id='11008'>0.77718E+03</wgt>
<wgt id='11009'>0.77437E+03</wgt>
<wgt id='11010'>0.76606E+03</wgt>
<wgt id='11011'>0.77267E+03</wgt>
<wgt id='11012'>0.77233E+03</wgt>
<wgt id='11013'>0.77406E+03</wgt>
<wgt id='11014'>0.77143E+03</wgt>
<wgt id='11015'>0.76953E+03</wgt>
<wgt id='11016'>0.77956E+03</wgt>
<wgt id='11017'>0.77703E+03</wgt>
<wgt id='11018'>0.77435E+03</wgt>
<wgt id='11019'>0.77694E+03</wgt>
<wgt id='11020'>0.77756E+03</wgt>
<wgt id='11021'>0.77667E+03</wgt>
<wgt id='11022'>0.77559E+03</wgt>
<wgt id='11023'>0.77624E+03</wgt>
<wgt id='11024'>0.77365E+03</wgt>
<wgt id='11025'>0.77281E+03</wgt>
<wgt id='11026'>0.77503E+03</wgt>
<wgt id='11027'>0.77813E+03</wgt>
<wgt id='11028'>0.77386E+03</wgt>
<wgt id='11029'>0.76166E+03</wgt>
<wgt id='11030'>0.77391E+03</wgt>
<wgt id='11031'>0.74063E+03</wgt>
<wgt id='11032'>0.81642E+03</wgt>
<wgt id='12000'>0.50701E+03</wgt>
<wgt id='12001'>0.50654E+03</wgt>
<wgt id='12002'>0.50747E+03</wgt>
<wgt id='12003'>0.50669E+03</wgt>
<wgt id='12004'>0.50732E+03</wgt>
<wgt id='12005'>0.50628E+03</wgt>
<wgt id='12006'>0.50773E+03</wgt>
<wgt id='12007'>0.50934E+03</wgt>
<wgt id='12008'>0.50471E+03</wgt>
<wgt id='12009'>0.50565E+03</wgt>
<wgt id='12010'>0.50845E+03</wgt>
<wgt id='12011'>0.50577E+03</wgt>
<wgt id='12012'>0.50854E+03</wgt>
<wgt id='12013'>0.50945E+03</wgt>
<wgt id='12014'>0.50459E+03</wgt>
<wgt id='12015'>0.50752E+03</wgt>
<wgt id='12016'>0.50621E+03</wgt>
<wgt id='12017'>0.50728E+03</wgt>
<wgt id='12018'>0.50771E+03</wgt>
<wgt id='12019'>0.51531E+03</wgt>
<wgt id='12020'>0.49920E+03</wgt>
<wgt id='12021'>0.50924E+03</wgt>
<wgt id='12022'>0.50540E+03</wgt>
<wgt id='12023'>0.50454E+03</wgt>
<wgt id='12024'>0.51229E+03</wgt>
<wgt id='12025'>0.50155E+03</wgt>
<wgt id='12026'>0.51167E+03</wgt>
<wgt id='12027'>0.51400E+03</wgt>
<wgt id='12028'>0.50177E+03</wgt>
<wgt id='12050'>0.50701E+03</wgt>
<wgt id='12051'>0.50512E+03</wgt>
<wgt id='12052'>0.49732E+03</wgt>
<wgt id='12053'>0.50549E+03</wgt>
<wgt id='12054'>0.49870E+03</wgt>
<wgt id='12055'>0.49179E+03</wgt>
<wgt id='12056'>0.52211E+03</wgt>
<wgt id='12057'>0.50263E+03</wgt>
<wgt id='12058'>0.50111E+03</wgt>
<wgt id='12059'>0.50631E+03</wgt>
<wgt id='12060'>0.49726E+03</wgt>
<wgt id='12061'>0.50277E+03</wgt>
<wgt id='12062'>0.49727E+03</wgt>
<wgt id='12063'>0.51164E+03</wgt>
<wgt id='13000'>0.60624E+03</wgt>
<wgt id='13001'>0.59763E+03</wgt>
<wgt id='13002'>0.59892E+03</wgt>
<wgt id='13003'>0.59779E+03</wgt>
<wgt id='13004'>0.59876E+03</wgt>
<wgt id='13005'>0.59761E+03</wgt>
<wgt id='13006'>0.59894E+03</wgt>
<wgt id='13007'>0.60130E+03</wgt>
<wgt id='13008'>0.59534E+03</wgt>
<wgt id='13009'>0.59538E+03</wgt>
<wgt id='13010'>0.60130E+03</wgt>
<wgt id='13011'>0.60000E+03</wgt>
<wgt id='13012'>0.59666E+03</wgt>
<wgt id='13013'>0.60053E+03</wgt>
<wgt id='13014'>0.59599E+03</wgt>
<wgt id='13015'>0.60072E+03</wgt>
<wgt id='13016'>0.59446E+03</wgt>
<wgt id='13017'>0.59536E+03</wgt>
<wgt id='13018'>0.60159E+03</wgt>
<wgt id='13019'>0.60794E+03</wgt>
<wgt id='13020'>0.58924E+03</wgt>
<wgt id='13021'>0.61894E+03</wgt>
<wgt id='13022'>0.58064E+03</wgt>
<wgt id='13023'>0.58369E+03</wgt>
<wgt id='13024'>0.61328E+03</wgt>
<wgt id='13025'>0.58176E+03</wgt>
<wgt id='13026'>0.61533E+03</wgt>
<wgt id='13027'>0.59064E+03</wgt>
<wgt id='13028'>0.60670E+03</wgt>
<wgt id='13050'>0.60624E+03</wgt>
<wgt id='13051'>0.60220E+03</wgt>
<wgt id='13052'>0.59159E+03</wgt>
<wgt id='13053'>0.60369E+03</wgt>
<wgt id='13054'>0.59621E+03</wgt>
<wgt id='13055'>0.55656E+03</wgt>
<wgt id='13056'>0.63283E+03</wgt>
<wgt id='13057'>0.60035E+03</wgt>
<wgt id='13058'>0.59620E+03</wgt>
<wgt id='13059'>0.61145E+03</wgt>
<wgt id='13060'>0.55126E+03</wgt>
<wgt id='13061'>0.60828E+03</wgt>
<wgt id='13062'>0.58467E+03</wgt>
<wgt id='13063'>0.62835E+03</wgt>
<wgt id='14000'>0.77711E+03</wgt>
<wgt id='14001'>0.77705E+03</wgt>
<wgt id='14002'>0.77698E+03</wgt>
<wgt id='14003'>0.77692E+03</wgt>
<wgt id='14004'>0.77686E+03</wgt>
<wgt id='14005'>0.77680E+03</wgt>
<wgt id='14006'>0.77674E+03</wgt>
<wgt id='14007'>0.77668E+03</wgt>
<wgt id='14008'>0.77661E+03</wgt>
<wgt id='14009'>0.77656E+03</wgt>
<wgt id='14010'>0.77649E+03</wgt>
<wgt id='14011'>0.77643E+03</wgt>
<wgt id='14012'>0.77637E+03</wgt>
<wgt id='14013'>0.77631E+03</wgt>
<wgt id='14014'>0.77625E+03</wgt>
<wgt id='14015'>0.77618E+03</wgt>
<wgt id='14016'>0.77613E+03</wgt>
<wgt id='14017'>0.77606E+03</wgt>
<wgt id='14018'>0.77600E+03</wgt>
<wgt id='14019'>0.77594E+03</wgt>
<wgt id='14020'>0.77588E+03</wgt>
<wgt id='14021'>0.77582E+03</wgt>
<wgt id='14022'>0.77575E+03</wgt>
<wgt id='14023'>0.77569E+03</wgt>
<wgt id='14024'>0.77563E+03</wgt>
<wgt id='14025'>0.77557E+03</wgt>
<wgt id='14026'>0.77551E+03</wgt>
<wgt id='14027'>0.77544E+03</wgt>
<wgt id='14028'>0.77538E+03</wgt>
<wgt id='14029'>0.77532E+03</wgt>
<wgt id='14030'>0.77526E+03</wgt>
<wgt id='15000'>0.76477E+03</wgt>
<wgt id='15001'>0.77172E+03</wgt>
<wgt id='15002'>0.76287E+03</wgt>
<wgt id='15003'>0.77350E+03</wgt>
<wgt id='15004'>0.77100E+03</wgt>
<wgt id='15005'>0.77284E+03</wgt>
<wgt id='15006'>0.76406E+03</wgt>
<wgt id='15007'>0.75623E+03</wgt>
<wgt id='15008'>0.75495E+03</wgt>
<wgt id='15009'>0.76849E+03</wgt>
<wgt id='15010'>0.76678E+03</wgt>
<wgt id='15011'>0.75252E+03</wgt>
<wgt id='15012'>0.78244E+03</wgt>
<wgt id='15013'>0.78359E+03</wgt>
<wgt id='15014'>0.77876E+03</wgt>
<wgt id='15015'>0.76306E+03</wgt>
<wgt id='15016'>0.75592E+03</wgt>
<wgt id='15017'>0.76643E+03</wgt>
<wgt id='15018'>0.77031E+03</wgt>
<wgt id='15019'>0.77412E+03</wgt>
<wgt id='15020'>0.73010E+03</wgt>
<wgt id='15021'>0.74408E+03</wgt>
<wgt id='15022'>0.77757E+03</wgt>
<wgt id='15023'>0.72921E+03</wgt>
<wgt id='15024'>0.75362E+03</wgt>
<wgt id='15025'>0.77472E+03</wgt>
<wgt id='15026'>0.75690E+03</wgt>
<wgt id='15027'>0.76644E+03</wgt>
<wgt id='15028'>0.77166E+03</wgt>
<wgt id='15029'>0.76624E+03</wgt>
<wgt id='15030'>0.76217E+03</wgt>
<wgt id='15031'>0.76210E+03</wgt>
<wgt id='15032'>0.76606E+03</wgt>
<wgt id='15033'>0.76714E+03</wgt>
<wgt id='15034'>0.76848E+03</wgt>
<wgt id='15035'>0.76681E+03</wgt>
<wgt id='15036'>0.76585E+03</wgt>
<wgt id='15037'>0.76550E+03</wgt>
<wgt id='15038'>0.76702E+03</wgt>
<wgt id='15039'>0.76478E+03</wgt>
<wgt id='15040'>0.76279E+03</wgt>
<wgt id='15041'>0.76541E+03</wgt>
<wgt id='15042'>0.76756E+03</wgt>
<wgt id='15043'>0.76092E+03</wgt>
<wgt id='15044'>0.76774E+03</wgt>
<wgt id='15045'>0.76480E+03</wgt>
<wgt id='15046'>0.76272E+03</wgt>
<wgt id='15047'>0.76575E+03</wgt>
<wgt id='15048'>0.76451E+03</wgt>
<wgt id='15049'>0.76373E+03</wgt>
<wgt id='15050'>0.76469E+03</wgt>
<wgt id='15051'>0.76658E+03</wgt>
<wgt id='15052'>0.76647E+03</wgt>
<wgt id='15053'>0.76565E+03</wgt>
<wgt id='15054'>0.76389E+03</wgt>
<wgt id='15055'>0.76401E+03</wgt>
<wgt id='15056'>0.76458E+03</wgt>
<wgt id='15057'>0.76447E+03</wgt>
<wgt id='15058'>0.76351E+03</wgt>
<wgt id='15059'>0.76393E+03</wgt>
<wgt id='15060'>0.76498E+03</wgt>
<wgt id='15061'>0.76409E+03</wgt>
<wgt id='15062'>0.76521E+03</wgt>
<wgt id='15063'>0.76476E+03</wgt>
<wgt id='15064'>0.76619E+03</wgt>
<wgt id='15065'>0.76381E+03</wgt>
<wgt id='15066'>0.76381E+03</wgt>
<wgt id='15067'>0.76375E+03</wgt>
<wgt id='15068'>0.76512E+03</wgt>
<wgt id='15069'>0.76588E+03</wgt>
<wgt id='15070'>0.76472E+03</wgt>
<wgt id='15071'>0.76492E+03</wgt>
<wgt id='15072'>0.76491E+03</wgt>
<wgt id='15073'>0.76464E+03</wgt>
<wgt id='15074'>0.76572E+03</wgt>
<wgt id='15075'>0.76415E+03</wgt>
<wgt id='15076'>0.76469E+03</wgt>
<wgt id='15077'>0.76528E+03</wgt>
<wgt id='15078'>0.76539E+03</wgt>
<wgt id='15079'>0.76382E+03</wgt>
<wgt id='15080'>0.76590E+03</wgt>
<wgt id='15081'>0.76470E+03</wgt>
<wgt id='15082'>0.76451E+03</wgt>
<wgt id='15083'>0.76458E+03</wgt>
<wgt id='15084'>0.76347E+03</wgt>
<wgt id='15085'>0.76358E+03</wgt>
<wgt id='15086'>0.76559E+03</wgt>
<wgt id='15087'>0.76276E+03</wgt>
<wgt id='15088'>0.76399E+03</wgt>
<wgt id='15089'>0.76429E+03</wgt>
<wgt id='15090'>0.76526E+03</wgt>
<wgt id='15091'>0.76412E+03</wgt>
<wgt id='15092'>0.76457E+03</wgt>
<wgt id='15093'>0.76445E+03</wgt>
<wgt id='15094'>0.76402E+03</wgt>
<wgt id='15095'>0.76468E+03</wgt>
<wgt id='15096'>0.76444E+03</wgt>
<wgt id='15097'>0.76480E+03</wgt>
<wgt id='15098'>0.76468E+03</wgt>
<wgt id='15099'>0.76409E+03</wgt>
<wgt id='15100'>0.76485E+03</wgt>
<wgt id='15101'>0.76476E+03</wgt>
<wgt id='15102'>0.76472E+03</wgt>
<wgt id='15103'>0.76478E+03</wgt>
<wgt id='15104'>0.76478E+03</wgt>
<wgt id='15105'>0.76479E+03</wgt>
<wgt id='15106'>0.76477E+03</wgt>
<wgt id='15107'>0.76474E+03</wgt>
<wgt id='1500'>0.81492E+03</wgt>
<wgt id='1501'>0.79200E+03</wgt>
<wgt id='1502'>0.85626E+03</wgt>
<wgt id='1503'>0.81107E+03</wgt>
<wgt id='1504'>0.82464E+03</wgt>
<wgt id='1505'>0.74498E+03</wgt>
<wgt id='1506'>0.86628E+03</wgt>
<wgt id='1507'>0.76637E+03</wgt>
<wgt id='1508'>0.84235E+03</wgt>
<wgt id='1509'>0.83991E+03</wgt>
<wgt id='1510'>0.75237E+03</wgt>
<wgt id='1511'>0.84027E+03</wgt>
<wgt id='1512'>0.79560E+03</wgt>
<wgt id='1513'>0.85881E+03</wgt>
<wgt id='1514'>0.86132E+03</wgt>
<wgt id='1515'>0.83493E+03</wgt>
<wgt id='1516'>0.79343E+03</wgt>
<wgt id='1517'>0.10038E+04</wgt>
<wgt id='1518'>0.86644E+03</wgt>
<wgt id='1519'>0.79525E+03</wgt>
<wgt id='1520'>0.79329E+03</wgt>
<wgt id='1521'>0.77584E+03</wgt>
<wgt id='1522'>0.67906E+03</wgt>
<wgt id='1523'>0.71880E+03</wgt>
<wgt id='1524'>0.71631E+03</wgt>
<wgt id='1525'>0.81295E+03</wgt>
<wgt id='1526'>0.80698E+03</wgt>
<wgt id='1527'>0.98721E+03</wgt>
<wgt id='1528'>0.89442E+03</wgt>
<wgt id='1529'>0.89117E+03</wgt>
<wgt id='1530'>0.78474E+03</wgt>
<wgt id='1531'>0.76938E+03</wgt>
<wgt id='1532'>0.79774E+03</wgt>
<wgt id='1533'>0.79370E+03</wgt>
<wgt id='1534'>0.73777E+03</wgt>
<wgt id='1535'>0.88201E+03</wgt>
<wgt id='1536'>0.78003E+03</wgt>
<wgt id='1537'>0.87996E+03</wgt>
<wgt id='1538'>0.75373E+03</wgt>
<wgt id='1539'>0.78126E+03</wgt>
<wgt id='1540'>0.79216E+03</wgt>
<wgt id='1541'>0.73974E+03</wgt>
<wgt id='1542'>0.84179E+03</wgt>
<wgt id='1543'>0.74136E+03</wgt>
<wgt id='1544'>0.79968E+03</wgt>
<wgt id='1545'>0.68873E+03</wgt>
<wgt id='1546'>0.68344E+03</wgt>
<wgt id='1547'>0.88151E+03</wgt>
<wgt id='1548'>0.86464E+03</wgt>
<wgt id='1549'>0.82787E+03</wgt>
<wgt id='1550'>0.80451E+03</wgt>
<wgt id='1551'>0.80584E+03</wgt>
<wgt id='1552'>0.75435E+03</wgt>
<wgt id='1553'>0.78810E+03</wgt>
<wgt id='1554'>0.89554E+03</wgt>
<wgt id='1555'>0.80314E+03</wgt>
<wgt id='1556'>0.90124E+03</wgt>
<wgt id='1557'>0.79059E+03</wgt>
<wgt id='1558'>0.82170E+03</wgt>
<wgt id='1559'>0.82013E+03</wgt>
<wgt id='1560'>0.76436E+03</wgt>
<wgt id='1561'>0.80075E+03</wgt>
<wgt id='1562'>0.76175E+03</wgt>
<wgt id='1563'>0.90080E+03</wgt>
<wgt id='1564'>0.89789E+03</wgt>
<wgt id='1565'>0.89600E+03</wgt>
<wgt id='1566'>0.79979E+03</wgt>
<wgt id='1567'>0.75674E+03</wgt>
<wgt id='1568'>0.83906E+03</wgt>
<wgt id='1569'>0.88144E+03</wgt>
<wgt id='1570'>0.88776E+03</wgt>
<wgt id='1571'>0.68934E+03</wgt>
<wgt id='1572'>0.80018E+03</wgt>
<wgt id='1573'>0.83493E+03</wgt>
<wgt id='1574'>0.87431E+03</wgt>
<wgt id='1575'>0.80399E+03</wgt>
<wgt id='1576'>0.72671E+03</wgt>
<wgt id='1577'>0.74716E+03</wgt>
<wgt id='1578'>0.87880E+03</wgt>
<wgt id='1579'>0.79633E+03</wgt>
<wgt id='1580'>0.80123E+03</wgt>
<wgt id='1581'>0.73060E+03</wgt>
<wgt id='1582'>0.77907E+03</wgt>
<wgt id='1583'>0.91768E+03</wgt>
<wgt id='1584'>0.78436E+03</wgt>
<wgt id='1585'>0.84833E+03</wgt>
<wgt id='1586'>0.86875E+03</wgt>
<wgt id='1587'>0.83603E+03</wgt>
<wgt id='1588'>0.86903E+03</wgt>
<wgt id='1589'>0.84420E+03</wgt>
<wgt id='1590'>0.80939E+03</wgt>
<wgt id='1591'>0.82396E+03</wgt>
<wgt id='1592'>0.75248E+03</wgt>
<wgt id='1593'>0.85381E+03</wgt>
<wgt id='1594'>0.78665E+03</wgt>
<wgt id='1595'>0.93484E+03</wgt>
<wgt id='1596'>0.84593E+03</wgt>
<wgt id='1597'>0.79999E+03</wgt>
<wgt id='1598'>0.67331E+03</wgt>
<wgt id='1599'>0.86128E+03</wgt>
<wgt id='1600'>0.89536E+03</wgt>
<wgt id='1601'>0.78932E+03</wgt>
<wgt id='1602'>0.84208E+03</wgt>
<wgt id='1700'>0.74916E+03</wgt>
<wgt id='1800'>0.59894E+03</wgt>
<wgt id='1850'>0.74813E+03</wgt>
<wgt id='1900'>0.73461E+03</wgt>
<wgt id='1950'>0.72499E+03</wgt>
</rwgt>
</event>
<event>
     13 322222  6.87070E+02  7.62360E+01 -1.00000E+00  1.27637E-01
      21    -1     0     0   502   503  0.000000000E+00  0.000000000E+00  2.250549493E+02  2.250549493E+02  0.000000000E+00  0.00000E+00  9.000E+00
      21    -1     0     0   504   505  0.000000000E+00  0.000000000E+00 -7.621161665E+02  7.621161665E+02  0.000000000E+00  0.00000E+00  9.000E+00
       6     2     1     2   502     0 -1.148872386E+02  1.927925851E+02  1.770690649E+01  2.829191509E+02  1.713524232E+02  0.00000E+00  9.000E+00
      -6     2     1     2     0   505  7.907930716E+01 -1.254894055E+02 -5.806304024E+02  6.237486521E+02  1.730017025E+02  0.00000E+00  9.000E+00
      21     1     1     2   504   503  3.580793140E+01 -6.730317959E+01  2.586227865E+01  8.050331291E+01  6.743495762E-07  0.00000E+00  9.000E+00
      24     2     3     3     0     0 -7.286335435E+01  1.753651890E+02 -3.931090192E+01  2.098179097E+02  8.010112554E+01  0.00000E+00  9.000E+00
       5     1     3     3   502     0 -4.202388421E+01  1.742739606E+01  5.701780841E+01  7.310124112E+01  4.800000000E+00  0.00000E+00 -1.000E+00
     -24     2     4     4     0     0  7.435390310E+00 -3.373678618E+00 -1.567355486E+02  1.768090715E+02  8.141712874E+01  0.00000E+00  9.000E+00
      -5     1     4     4     0   505  7.164391685E+01 -1.221157269E+02 -4.238948538E+02  4.469395805E+02  4.800000000E+00  0.00000E+00  1.000E+00
      -3     1     6     6     0   506 -1.272682168E+01  1.255997393E+02 -3.761372870E+01  1.317273665E+02  2.000000000E-01  0.00000E+00  1.000E+00
       4     1     6     6   506     0 -6.013653267E+01  4.976544976E+01 -1.697173227E+00  7.809054327E+01  1.500000000E+00  0.00000E+00 -1.000E+00
      13     1     8     8     0     0  2.127795596E+01 -1.515049096E+01 -8.508100769E+00  2.747158054E+01  1.057000000E-01  0.00000E+00 -1.000E+00
     -14     1     8     8     0     0 -1.384256565E+01  1.177681234E+01 -1.482274478E+02  1.493374910E+02  0.000000000E+00  0.00000E+00  1.000E+00
#rwgt            2           1   58.673976545964294                2        7062           0
<rwgt>
<wgt id='1001'>0.68707E+03</wgt>
<wgt id='1002'>0.62106E+03</wgt>
<wgt id='1003'>0.76387E+03</wgt>
<wgt id='1004'>0.53215E+03</wgt>
<wgt id='1005'>0.48102E+03</wgt>
<wgt id='1006'>0.59163E+03</wgt>
<wgt id='1007'>0.90954E+03</wgt>
<wgt id='1008'>0.82216E+03</wgt>
<wgt id='1009'>0.10112E+04</wgt>
<wgt id='2000'>0.68707E+03</wgt>
<wgt id='2001'>0.68657E+03</wgt>
<wgt id='2002'>0.68707E+03</wgt>
<wgt id='2003'>0.68638E+03</wgt>
<wgt id='2004'>0.68902E+03</wgt>
<wgt id='2005'>0.68717E+03</wgt>
<wgt id='2006'>0.68537E+03</wgt>
<wgt id='2007'>0.68703E+03</wgt>
<wgt id='2008'>0.68592E+03</wgt>
<wgt id='2009'>0.68801E+03</wgt>
<wgt id='2010'>0.68660E+03</wgt>
<wgt id='2011'>0.68435E+03</wgt>
<wgt id='2012'>0.68587E+03</wgt>
<wgt id='2013'>0.68396E+03</wgt>
<wgt id='2014'>0.68619E+03</wgt>
<wgt id='2015'>0.68659E+03</wgt>
<wgt id='2016'>0.68824E+03</wgt>
<wgt id='2017'>0.68652E+03</wgt>
<wgt id='2018'>0.68560E+03</wgt>
<wgt id='2019'>0.68750E+03</wgt>
<wgt id='2020'>0.68613E+03</wgt>
<wgt id='2021'>0.68780E+03</wgt>
<wgt id='2022'>0.68567E+03</wgt>
<wgt id='2023'>0.68797E+03</wgt>
<wgt id='2024'>0.68541E+03</wgt>
<wgt id='2025'>0.68639E+03</wgt>
<wgt id='2026'>0.68815E+03</wgt>
<wgt id='2027'>0.68537E+03</wgt>
<wgt id='2028'>0.68583E+03</wgt>
<wgt id='2029'>0.69295E+03</wgt>
<wgt id='2030'>0.68802E+03</wgt>
<wgt id='2031'>0.68748E+03</wgt>
<wgt id='2032'>0.68882E+03</wgt>
<wgt id='2033'>0.68816E+03</wgt>
<wgt id='2034'>0.68654E+03</wgt>
<wgt id='2035'>0.68611E+03</wgt>
<wgt id='2036'>0.68608E+03</wgt>
<wgt id='2037'>0.68727E+03</wgt>
<wgt id='2038'>0.68719E+03</wgt>
<wgt id='2039'>0.68839E+03</wgt>
<wgt id='2040'>0.68760E+03</wgt>
<wgt id='2041'>0.68611E+03</wgt>
<wgt id='2042'>0.68349E+03</wgt>
<wgt id='2043'>0.68853E+03</wgt>
<wgt id='2044'>0.68803E+03</wgt>
<wgt id='2045'>0.68663E+03</wgt>
<wgt id='2046'>0.68857E+03</wgt>
<wgt id='2047'>0.68861E+03</wgt>
<wgt id='2048'>0.68617E+03</wgt>
<wgt id='2049'>0.68690E+03</wgt>
<wgt id='2050'>0.68810E+03</wgt>
<wgt id='2051'>0.68788E+03</wgt>
<wgt id='2052'>0.68627E+03</wgt>
<wgt id='2053'>0.68693E+03</wgt>
<wgt id='2054'>0.68739E+03</wgt>
<wgt id='2055'>0.68759E+03</wgt>
<wgt id='2056'>0.68707E+03</wgt>
<wgt id='2057'>0.68645E+03</wgt>
<wgt id='2058'>0.68723E+03</wgt>
<wgt id='2059'>0.68696E+03</wgt>
<wgt id='2060'>0.68752E+03</wgt>
<wgt id='2061'>0.68666E+03</wgt>
<wgt id='2062'>0.68672E+03</wgt>
<wgt id='2063'>0.68708E+03</wgt>
<wgt id='2064'>0.68654E+03</wgt>
<wgt id='2065'>0.68718E+03</wgt>
<wgt id='2066'>0.68684E+03</wgt>
<wgt id='2067'>0.68706E+03</wgt>
<wgt id='2068'>0.68740E+03</wgt>
<wgt id='2069'>0.68738E+03</wgt>
<wgt id='2070'>0.68677E+03</wgt>
<wgt id='2071'>0.68650E+03</wgt>
<wgt id='2072'>0.68712E+03</wgt>
<wgt id='2073'>0.68691E+03</wgt>
<wgt id='2074'>0.68695E+03</wgt>
<wgt id='2075'>0.68680E+03</wgt>
<wgt id='2076'>0.68729E+03</wgt>
<wgt id='2077'>0.68657E+03</wgt>
<wgt id='2078'>0.68708E+03</wgt>
<wgt id='2079'>0.68724E+03</wgt>
<wgt id='2080'>0.68728E+03</wgt>
<wgt id='2081'>0.68735E+03</wgt>
<wgt id='2082'>0.68740E+03</wgt>
<wgt id='2083'>0.68707E+03</wgt>
<wgt id='2084'>0.68710E+03</wgt>
<wgt id='2085'>0.68706E+03</wgt>
<wgt id='2086'>0.68699E+03</wgt>
<wgt id='2087'>0.68687E+03</wgt>
<wgt id='2088'>0.68716E+03</wgt>
<wgt id='2089'>0.68689E+03</wgt>
<wgt id='2090'>0.68703E+03</wgt>
<wgt id='2091'>0.68711E+03</wgt>
<wgt id='2092'>0.68704E+03</wgt>
<wgt id='2093'>0.68710E+03</wgt>
<wgt id='2094'>0.68715E+03</wgt>
<wgt id='2095'>0.68725E+03</wgt>
<wgt id='2096'>0.68690E+03</wgt>
<wgt id='2097'>0.68738E+03</wgt>
<wgt id='2098'>0.68698E+03</wgt>
<wgt id='2099'>0.68698E+03</wgt>
<wgt id='2100'>0.68710E+03</wgt>
<wgt id='2101'>0.66486E+03</wgt>
<wgt id='2102'>0.71309E+03</wgt>
<wgt id='2104'>0.57048E+03</wgt>
<wgt id='2105'>0.59426E+03</wgt>
<wgt id='2106'>0.61826E+03</wgt>
<wgt id='2107'>0.63841E+03</wgt>
<wgt id='2108'>0.67493E+03</wgt>
<wgt id='2109'>0.70131E+03</wgt>
<wgt id='2110'>0.73690E+03</wgt>
<wgt id='2111'>0.76362E+03</wgt>
<wgt id='3000'>0.73010E+03</wgt>
<wgt id='3001'>0.73051E+03</wgt>
<wgt id='3002'>0.73033E+03</wgt>
<wgt id='3003'>0.72898E+03</wgt>
<wgt id='3004'>0.73208E+03</wgt>
<wgt id='3005'>0.72970E+03</wgt>
<wgt id='3006'>0.72941E+03</wgt>
<wgt id='3007'>0.73044E+03</wgt>
<wgt id='3008'>0.73020E+03</wgt>
<wgt id='3009'>0.73134E+03</wgt>
<wgt id='3010'>0.72903E+03</wgt>
<wgt id='3011'>0.72845E+03</wgt>
<wgt id='3012'>0.72949E+03</wgt>
<wgt id='3013'>0.73255E+03</wgt>
<wgt id='3014'>0.72924E+03</wgt>
<wgt id='3015'>0.72788E+03</wgt>
<wgt id='3016'>0.73074E+03</wgt>
<wgt id='3017'>0.72918E+03</wgt>
<wgt id='3018'>0.73076E+03</wgt>
<wgt id='3019'>0.73078E+03</wgt>
<wgt id='3020'>0.73064E+03</wgt>
<wgt id='3021'>0.73088E+03</wgt>
<wgt id='3022'>0.72980E+03</wgt>
<wgt id='3023'>0.72939E+03</wgt>
<wgt id='3024'>0.72933E+03</wgt>
<wgt id='3025'>0.73059E+03</wgt>
<wgt id='3026'>0.72937E+03</wgt>
<wgt id='3027'>0.73074E+03</wgt>
<wgt id='3028'>0.72913E+03</wgt>
<wgt id='3029'>0.72827E+03</wgt>
<wgt id='3030'>0.73446E+03</wgt>
<wgt id='3031'>0.73218E+03</wgt>
<wgt id='3032'>0.72877E+03</wgt>
<wgt id='3033'>0.72911E+03</wgt>
<wgt id='3034'>0.72984E+03</wgt>
<wgt id='3035'>0.72864E+03</wgt>
<wgt id='3036'>0.73097E+03</wgt>
<wgt id='3037'>0.73195E+03</wgt>
<wgt id='3038'>0.73038E+03</wgt>
<wgt id='3039'>0.73166E+03</wgt>
<wgt id='3040'>0.73187E+03</wgt>
<wgt id='3041'>0.73050E+03</wgt>
<wgt id='3042'>0.72741E+03</wgt>
<wgt id='3043'>0.72745E+03</wgt>
<wgt id='3044'>0.73152E+03</wgt>
<wgt id='3045'>0.73139E+03</wgt>
<wgt id='3046'>0.73197E+03</wgt>
<wgt id='3047'>0.72945E+03</wgt>
<wgt id='3048'>0.73172E+03</wgt>
<wgt id='3049'>0.72962E+03</wgt>
<wgt id='3050'>0.72903E+03</wgt>
<wgt id='3051'>0.73249E+03</wgt>
<wgt id='3052'>0.72941E+03</wgt>
<wgt id='3053'>0.72941E+03</wgt>
<wgt id='3054'>0.73000E+03</wgt>
<wgt id='3055'>0.73038E+03</wgt>
<wgt id='3056'>0.73005E+03</wgt>
<wgt id='3057'>0.72945E+03</wgt>
<wgt id='3058'>0.72994E+03</wgt>
<wgt id='3059'>0.72962E+03</wgt>
<wgt id='3060'>0.73043E+03</wgt>
<wgt id='3061'>0.72972E+03</wgt>
<wgt id='3062'>0.73009E+03</wgt>
<wgt id='3063'>0.73022E+03</wgt>
<wgt id='3064'>0.72999E+03</wgt>
<wgt id='3065'>0.72993E+03</wgt>
<wgt id='3066'>0.73026E+03</wgt>
<wgt id='3067'>0.72965E+03</wgt>
<wgt id='3068'>0.73014E+03</wgt>
<wgt id='3069'>0.72964E+03</wgt>
<wgt id='3070'>0.72994E+03</wgt>
<wgt id='3071'>0.73013E+03</wgt>
<wgt id='3072'>0.73011E+03</wgt>
<wgt id='3073'>0.72984E+03</wgt>
<wgt id='3074'>0.73112E+03</wgt>
<wgt id='3075'>0.73015E+03</wgt>
<wgt id='3076'>0.73032E+03</wgt>
<wgt id='3077'>0.73030E+03</wgt>
<wgt id='3078'>0.73046E+03</wgt>
<wgt id='3079'>0.72962E+03</wgt>
<wgt id='3080'>0.72971E+03</wgt>
<wgt id='3081'>0.72995E+03</wgt>
<wgt id='3082'>0.72977E+03</wgt>
<wgt id='3083'>0.73014E+03</wgt>
<wgt id='3084'>0.72997E+03</wgt>
<wgt id='3085'>0.73034E+03</wgt>
<wgt id='3086'>0.72979E+03</wgt>
<wgt id='3087'>0.72982E+03</wgt>
<wgt id='3088'>0.72993E+03</wgt>
<wgt id='3089'>0.73009E+03</wgt>
<wgt id='3090'>0.73005E+03</wgt>
<wgt id='3091'>0.73006E+03</wgt>
<wgt id='3092'>0.73013E+03</wgt>
<wgt id='3093'>0.73028E+03</wgt>
<wgt id='3094'>0.73038E+03</wgt>
<wgt id='3095'>0.73013E+03</wgt>
<wgt id='3096'>0.73000E+03</wgt>
<wgt id='3097'>0.72993E+03</wgt>
<wgt id='3098'>0.73007E+03</wgt>
<wgt id='3099'>0.73028E+03</wgt>
<wgt id='3100'>0.73027E+03</wgt>
<wgt id='3101'>0.70530E+03</wgt>
<wgt id='3102'>0.75636E+03</wgt>
<wgt id='5000'>0.71068E+03</wgt>
<wgt id='5001'>0.71344E+03</wgt>
<wgt id='5002'>0.71451E+03</wgt>
<wgt id='5003'>0.71237E+03</wgt>
<wgt id='5004'>0.71045E+03</wgt>
<wgt id='5005'>0.71094E+03</wgt>
<wgt id='5006'>0.69356E+03</wgt>
<wgt id='5007'>0.70326E+03</wgt>
<wgt id='5008'>0.71911E+03</wgt>
<wgt id='5009'>0.70207E+03</wgt>
<wgt id='5010'>0.71283E+03</wgt>
<wgt id='5011'>0.71861E+03</wgt>
<wgt id='5012'>0.70543E+03</wgt>
<wgt id='5013'>0.73562E+03</wgt>
<wgt id='5014'>0.70986E+03</wgt>
<wgt id='5015'>0.70430E+03</wgt>
<wgt id='5016'>0.72898E+03</wgt>
<wgt id='5017'>0.69640E+03</wgt>
<wgt id='5018'>0.72579E+03</wgt>
<wgt id='5019'>0.71627E+03</wgt>
<wgt id='5020'>0.70474E+03</wgt>
<wgt id='5021'>0.70564E+03</wgt>
<wgt id='5022'>0.71386E+03</wgt>
<wgt id='5023'>0.70593E+03</wgt>
<wgt id='5024'>0.71607E+03</wgt>
<wgt id='5025'>0.71594E+03</wgt>
<wgt id='5026'>0.70636E+03</wgt>
<wgt id='5027'>0.70796E+03</wgt>
<wgt id='5028'>0.71522E+03</wgt>
<wgt id='5029'>0.71982E+03</wgt>
<wgt id='5030'>0.70511E+03</wgt>
<wgt id='5031'>0.71271E+03</wgt>
<wgt id='5032'>0.70782E+03</wgt>
<wgt id='5033'>0.70923E+03</wgt>
<wgt id='5034'>0.71242E+03</wgt>
<wgt id='5035'>0.71998E+03</wgt>
<wgt id='5036'>0.70237E+03</wgt>
<wgt id='5037'>0.68913E+03</wgt>
<wgt id='5038'>0.73559E+03</wgt>
<wgt id='5039'>0.72732E+03</wgt>
<wgt id='5040'>0.70163E+03</wgt>
<wgt id='5041'>0.71690E+03</wgt>
<wgt id='5042'>0.70949E+03</wgt>
<wgt id='5043'>0.71388E+03</wgt>
<wgt id='5044'>0.72151E+03</wgt>
<wgt id='5045'>0.70160E+03</wgt>
<wgt id='5046'>0.69701E+03</wgt>
<wgt id='5047'>0.70243E+03</wgt>
<wgt id='5048'>0.70435E+03</wgt>
<wgt id='5049'>0.71062E+03</wgt>
<wgt id='5050'>0.70843E+03</wgt>
<wgt id='5051'>0.70967E+03</wgt>
<wgt id='5052'>0.70933E+03</wgt>
<wgt id='5053'>0.68726E+03</wgt>
<wgt id='5054'>0.69649E+03</wgt>
<wgt id='5055'>0.70524E+03</wgt>
<wgt id='5056'>0.72268E+03</wgt>
<wgt id='5060'>0.68232E+03</wgt>
<wgt id='5070'>0.74156E+03</wgt>
<wgt id='4000'>0.71858E+03</wgt>
<wgt id='4001'>0.71629E+03</wgt>
<wgt id='4002'>0.71825E+03</wgt>
<wgt id='4003'>0.69987E+03</wgt>
<wgt id='4004'>0.71618E+03</wgt>
<wgt id='4005'>0.71544E+03</wgt>
<wgt id='4006'>0.72126E+03</wgt>
<wgt id='4007'>0.71368E+03</wgt>
<wgt id='4008'>0.71332E+03</wgt>
<wgt id='4009'>0.72900E+03</wgt>
<wgt id='4010'>0.71395E+03</wgt>
<wgt id='4011'>0.72842E+03</wgt>
<wgt id='4012'>0.70984E+03</wgt>
<wgt id='4013'>0.73365E+03</wgt>
<wgt id='4014'>0.71226E+03</wgt>
<wgt id='4015'>0.73711E+03</wgt>
<wgt id='4016'>0.70604E+03</wgt>
<wgt id='4017'>0.70383E+03</wgt>
<wgt id='4018'>0.73611E+03</wgt>
<wgt id='4019'>0.71657E+03</wgt>
<wgt id='4020'>0.72086E+03</wgt>
<wgt id='4021'>0.71946E+03</wgt>
<wgt id='4022'>0.71709E+03</wgt>
<wgt id='4023'>0.72244E+03</wgt>
<wgt id='4024'>0.71492E+03</wgt>
<wgt id='4025'>0.73787E+03</wgt>
<wgt id='4026'>0.70043E+03</wgt>
<wgt id='4027'>0.72380E+03</wgt>
<wgt id='4028'>0.71151E+03</wgt>
<wgt id='4029'>0.72375E+03</wgt>
<wgt id='4030'>0.71684E+03</wgt>
<wgt id='4031'>0.72051E+03</wgt>
<wgt id='4032'>0.71609E+03</wgt>
<wgt id='4033'>0.71416E+03</wgt>
<wgt id='4034'>0.72840E+03</wgt>
<wgt id='4035'>0.69808E+03</wgt>
<wgt id='4036'>0.73878E+03</wgt>
<wgt id='4037'>0.71034E+03</wgt>
<wgt id='4038'>0.73173E+03</wgt>
<wgt id='4039'>0.71562E+03</wgt>
<wgt id='4040'>0.72355E+03</wgt>
<wgt id='4041'>0.71281E+03</wgt>
<wgt id='4042'>0.72380E+03</wgt>
<wgt id='4043'>0.70604E+03</wgt>
<wgt id='4044'>0.73418E+03</wgt>
<wgt id='4045'>0.73202E+03</wgt>
<wgt id='4046'>0.71999E+03</wgt>
<wgt id='4047'>0.72121E+03</wgt>
<wgt id='4048'>0.70822E+03</wgt>
<wgt id='4049'>0.71030E+03</wgt>
<wgt id='4050'>0.72411E+03</wgt>
<wgt id='4051'>0.72258E+03</wgt>
<wgt id='4052'>0.72036E+03</wgt>
<wgt id='4053'>0.69240E+03</wgt>
<wgt id='4054'>0.72759E+03</wgt>
<wgt id='4055'>0.71432E+03</wgt>
<wgt id='4056'>0.72774E+03</wgt>
<wgt id='4060'>0.69270E+03</wgt>
<wgt id='4070'>0.74714E+03</wgt>
<wgt id='4080'>0.72505E+03</wgt>
<wgt id='6000'>0.72434E+03</wgt>
<wgt id='6001'>0.72483E+03</wgt>
<wgt id='6002'>0.72381E+03</wgt>
<wgt id='6003'>0.72512E+03</wgt>
<wgt id='6004'>0.72382E+03</wgt>
<wgt id='6005'>0.72886E+03</wgt>
<wgt id='6006'>0.72015E+03</wgt>
<wgt id='6007'>0.72223E+03</wgt>
<wgt id='6008'>0.72672E+03</wgt>
<wgt id='6009'>0.72483E+03</wgt>
<wgt id='6010'>0.72385E+03</wgt>
<wgt id='6011'>0.72470E+03</wgt>
<wgt id='6012'>0.72352E+03</wgt>
<wgt id='6013'>0.72426E+03</wgt>
<wgt id='6014'>0.72449E+03</wgt>
<wgt id='6015'>0.72397E+03</wgt>
<wgt id='6016'>0.72455E+03</wgt>
<wgt id='6017'>0.72186E+03</wgt>
<wgt id='6018'>0.72726E+03</wgt>
<wgt id='6019'>0.72419E+03</wgt>
<wgt id='6020'>0.72447E+03</wgt>
<wgt id='6021'>0.72289E+03</wgt>
<wgt id='6022'>0.72624E+03</wgt>
<wgt id='6023'>0.72029E+03</wgt>
<wgt id='6024'>0.72698E+03</wgt>
<wgt id='6025'>0.73102E+03</wgt>
<wgt id='6026'>0.71788E+03</wgt>
<wgt id='6027'>0.72415E+03</wgt>
<wgt id='6028'>0.72404E+03</wgt>
<wgt id='6029'>0.71858E+03</wgt>
<wgt id='6030'>0.73136E+03</wgt>
<wgt id='6031'>0.71247E+03</wgt>
<wgt id='6032'>0.73803E+03</wgt>
<wgt id='6033'>0.72884E+03</wgt>
<wgt id='6034'>0.72002E+03</wgt>
<wgt id='6035'>0.72645E+03</wgt>
<wgt id='6036'>0.71882E+03</wgt>
<wgt id='6037'>0.72468E+03</wgt>
<wgt id='6038'>0.72400E+03</wgt>
<wgt id='6039'>0.72179E+03</wgt>
<wgt id='6040'>0.72726E+03</wgt>
<wgt id='6041'>0.71671E+03</wgt>
<wgt id='6042'>0.73305E+03</wgt>
<wgt id='6043'>0.72920E+03</wgt>
<wgt id='6044'>0.72211E+03</wgt>
<wgt id='6045'>0.72307E+03</wgt>
<wgt id='6046'>0.72755E+03</wgt>
<wgt id='6047'>0.73066E+03</wgt>
<wgt id='6048'>0.71857E+03</wgt>
<wgt id='6049'>0.72651E+03</wgt>
<wgt id='6050'>0.72342E+03</wgt>
<wgt id='7000'>0.69608E+03</wgt>
<wgt id='7001'>0.69587E+03</wgt>
<wgt id='7002'>0.69634E+03</wgt>
<wgt id='7003'>0.69843E+03</wgt>
<wgt id='7004'>0.69374E+03</wgt>
<wgt id='7005'>0.69822E+03</wgt>
<wgt id='7006'>0.69521E+03</wgt>
<wgt id='7007'>0.69643E+03</wgt>
<wgt id='7008'>0.69572E+03</wgt>
<wgt id='7009'>0.69656E+03</wgt>
<wgt id='7010'>0.69560E+03</wgt>
<wgt id='7011'>0.69530E+03</wgt>
<wgt id='7012'>0.69643E+03</wgt>
<wgt id='7013'>0.69588E+03</wgt>
<wgt id='7014'>0.69632E+03</wgt>
<wgt id='7015'>0.69637E+03</wgt>
<wgt id='7016'>0.69577E+03</wgt>
<wgt id='7017'>0.69573E+03</wgt>
<wgt id='7018'>0.69627E+03</wgt>
<wgt id='7019'>0.69643E+03</wgt>
<wgt id='7020'>0.69558E+03</wgt>
<wgt id='7021'>0.69503E+03</wgt>
<wgt id='7022'>0.69680E+03</wgt>
<wgt id='7023'>0.69974E+03</wgt>
<wgt id='7024'>0.69264E+03</wgt>
<wgt id='7025'>0.69721E+03</wgt>
<wgt id='7026'>0.69313E+03</wgt>
<wgt id='7027'>0.69517E+03</wgt>
<wgt id='7028'>0.69570E+03</wgt>
<wgt id='7029'>0.70104E+03</wgt>
<wgt id='7030'>0.68392E+03</wgt>
<wgt id='7031'>0.69114E+03</wgt>
<wgt id='7032'>0.70631E+03</wgt>
<wgt id='7033'>0.69806E+03</wgt>
<wgt id='7034'>0.69205E+03</wgt>
<wgt id='7035'>0.68849E+03</wgt>
<wgt id='7036'>0.69930E+03</wgt>
<wgt id='7037'>0.69565E+03</wgt>
<wgt id='7038'>0.69624E+03</wgt>
<wgt id='7039'>0.69255E+03</wgt>
<wgt id='7040'>0.69878E+03</wgt>
<wgt id='7041'>0.70000E+03</wgt>
<wgt id='7042'>0.69023E+03</wgt>
<wgt id='7043'>0.69675E+03</wgt>
<wgt id='7044'>0.69222E+03</wgt>
<wgt id='7045'>0.68886E+03</wgt>
<wgt id='7046'>0.70168E+03</wgt>
<wgt id='7047'>0.70001E+03</wgt>
<wgt id='7048'>0.69438E+03</wgt>
<wgt id='7049'>0.69397E+03</wgt>
<wgt id='7050'>0.69764E+03</wgt>
<wgt id='7060'>0.92056E+03</wgt>
<wgt id='8000'>0.67816E+03</wgt>
<wgt id='8001'>0.67810E+03</wgt>
<wgt id='8002'>0.67836E+03</wgt>
<wgt id='8003'>0.67815E+03</wgt>
<wgt id='8004'>0.67815E+03</wgt>
<wgt id='8005'>0.67709E+03</wgt>
<wgt id='8006'>0.67935E+03</wgt>
<wgt id='8007'>0.68038E+03</wgt>
<wgt id='8008'>0.67968E+03</wgt>
<wgt id='8009'>0.68095E+03</wgt>
<wgt id='8010'>0.67713E+03</wgt>
<wgt id='8011'>0.67856E+03</wgt>
<wgt id='8012'>0.67513E+03</wgt>
<wgt id='8013'>0.67626E+03</wgt>
<wgt id='8014'>0.68057E+03</wgt>
<wgt id='8015'>0.67778E+03</wgt>
<wgt id='8016'>0.67918E+03</wgt>
<wgt id='8017'>0.67885E+03</wgt>
<wgt id='8018'>0.68098E+03</wgt>
<wgt id='8019'>0.67727E+03</wgt>
<wgt id='8020'>0.68023E+03</wgt>
<wgt id='8021'>0.67691E+03</wgt>
<wgt id='8022'>0.68185E+03</wgt>
<wgt id='8023'>0.67584E+03</wgt>
<wgt id='8024'>0.67316E+03</wgt>
<wgt id='8025'>0.67488E+03</wgt>
<wgt id='8026'>0.67830E+03</wgt>
<wgt id='8027'>0.67974E+03</wgt>
<wgt id='8028'>0.67837E+03</wgt>
<wgt id='8029'>0.68668E+03</wgt>
<wgt id='8500'>0.73218E+03</wgt>
<wgt id='8501'>0.72507E+03</wgt>
<wgt id='8502'>0.73448E+03</wgt>
<wgt id='8503'>0.73358E+03</wgt>
<wgt id='8504'>0.72825E+03</wgt>
<wgt id='8505'>0.73248E+03</wgt>
<wgt id='8506'>0.73621E+03</wgt>
<wgt id='8507'>0.72303E+03</wgt>
<wgt id='8508'>0.71673E+03</wgt>
<wgt id='8509'>0.73825E+03</wgt>
<wgt id='8510'>0.73373E+03</wgt>
<wgt id='8511'>0.72923E+03</wgt>
<wgt id='8512'>0.73750E+03</wgt>
<wgt id='8513'>0.73318E+03</wgt>
<wgt id='8514'>0.72722E+03</wgt>
<wgt id='8515'>0.73765E+03</wgt>
<wgt id='8516'>0.72917E+03</wgt>
<wgt id='8517'>0.73386E+03</wgt>
<wgt id='8518'>0.72617E+03</wgt>
<wgt id='8519'>0.72481E+03</wgt>
<wgt id='8520'>0.72671E+03</wgt>
<wgt id='8521'>0.72783E+03</wgt>
<wgt id='8522'>0.73822E+03</wgt>
<wgt id='8523'>0.72775E+03</wgt>
<wgt id='8524'>0.73387E+03</wgt>
<wgt id='8525'>0.73371E+03</wgt>
<wgt id='8526'>0.73268E+03</wgt>
<wgt id='8527'>0.73260E+03</wgt>
<wgt id='8528'>0.73144E+03</wgt>
<wgt id='8529'>0.73100E+03</wgt>
<wgt id='8530'>0.73208E+03</wgt>
<wgt id='8531'>0.73222E+03</wgt>
<wgt id='8532'>0.73182E+03</wgt>
<wgt id='8533'>0.73102E+03</wgt>
<wgt id='8534'>0.73253E+03</wgt>
<wgt id='8535'>0.73403E+03</wgt>
<wgt id='8536'>0.73140E+03</wgt>
<wgt id='8537'>0.73221E+03</wgt>
<wgt id='8538'>0.73233E+03</wgt>
<wgt id='8539'>0.73271E+03</wgt>
<wgt id='8540'>0.73303E+03</wgt>
<wgt id='8541'>0.73299E+03</wgt>
<wgt id='8542'>0.73237E+03</wgt>
<wgt id='8543'>0.73108E+03</wgt>
<wgt id='8544'>0.73350E+03</wgt>
<wgt id='8545'>0.73241E+03</wgt>
<wgt id='8546'>0.73335E+03</wgt>
<wgt id='8547'>0.73146E+03</wgt>
<wgt id='8548'>0.73181E+03</wgt>
<wgt id='8549'>0.73243E+03</wgt>
<wgt id='8550'>0.73136E+03</wgt>
<wgt id='8551'>0.73216E+03</wgt>
<wgt id='8552'>0.73139E+03</wgt>
<wgt id='8553'>0.73091E+03</wgt>
<wgt id='8554'>0.73176E+03</wgt>
<wgt id='8555'>0.73216E+03</wgt>
<wgt id='8556'>0.73186E+03</wgt>
<wgt id='8557'>0.73259E+03</wgt>
<wgt id='8558'>0.73308E+03</wgt>
<wgt id='8559'>0.73207E+03</wgt>
<wgt id='8560'>0.73133E+03</wgt>
<wgt id='8561'>0.73278E+03</wgt>
<wgt id='8562'>0.73184E+03</wgt>
<wgt id='8563'>0.73218E+03</wgt>
<wgt id='8564'>0.73192E+03</wgt>
<wgt id='8565'>0.73261E+03</wgt>
<wgt id='8566'>0.73283E+03</wgt>
<wgt id='8567'>0.73231E+03</wgt>
<wgt id='8568'>0.73283E+03</wgt>
<wgt id='8569'>0.73266E+03</wgt>
<wgt id='8570'>0.73189E+03</wgt>
<wgt id='8571'>0.73136E+03</wgt>
<wgt id='8572'>0.73151E+03</wgt>
<wgt id='8573'>0.73176E+03</wgt>
<wgt id='8574'>0.73176E+03</wgt>
<wgt id='8575'>0.73197E+03</wgt>
<wgt id='8576'>0.73225E+03</wgt>
<wgt id='8577'>0.73150E+03</wgt>
<wgt id='8578'>0.73209E+03</wgt>
<wgt id='8579'>0.73284E+03</wgt>
<wgt id='8580'>0.73188E+03</wgt>
<wgt id='8581'>0.73269E+03</wgt>
<wgt id='8582'>0.73174E+03</wgt>
<wgt id='8583'>0.73245E+03</wgt>
<wgt id='8584'>0.73287E+03</wgt>
<wgt id='8585'>0.73252E+03</wgt>
<wgt id='8586'>0.73319E+03</wgt>
<wgt id='8587'>0.73245E+03</wgt>
<wgt id='8588'>0.73224E+03</wgt>
<wgt id='8589'>0.73211E+03</wgt>
<wgt id='8590'>0.73223E+03</wgt>
<wgt id='8591'>0.73167E+03</wgt>
<wgt id='8592'>0.73205E+03</wgt>
<wgt id='8593'>0.73196E+03</wgt>
<wgt id='8594'>0.73200E+03</wgt>
<wgt id='8595'>0.73209E+03</wgt>
<wgt id='8596'>0.73207E+03</wgt>
<wgt id='8597'>0.73241E+03</wgt>
<wgt id='8598'>0.73242E+03</wgt>
<wgt id='8599'>0.73226E+03</wgt>
<wgt id='8600'>0.73219E+03</wgt>
<wgt id='8601'>0.71590E+03</wgt>
<wgt id='8602'>0.74994E+03</wgt>
<wgt id='9000'>0.70357E+03</wgt>
<wgt id='9001'>0.70481E+03</wgt>
<wgt id='9002'>0.70336E+03</wgt>
<wgt id='9003'>0.70406E+03</wgt>
<wgt id='9004'>0.70677E+03</wgt>
<wgt id='9005'>0.70818E+03</wgt>
<wgt id='9006'>0.70530E+03</wgt>
<wgt id='9007'>0.69905E+03</wgt>
<wgt id='9008'>0.70122E+03</wgt>
<wgt id='9009'>0.70514E+03</wgt>
<wgt id='9010'>0.70195E+03</wgt>
<wgt id='9011'>0.70555E+03</wgt>
<wgt id='9012'>0.71121E+03</wgt>
<wgt id='9013'>0.70939E+03</wgt>
<wgt id='9014'>0.70687E+03</wgt>
<wgt id='9015'>0.69794E+03</wgt>
<wgt id='9016'>0.70596E+03</wgt>
<wgt id='9017'>0.69935E+03</wgt>
<wgt id='9018'>0.70758E+03</wgt>
<wgt id='9019'>0.70756E+03</wgt>
<wgt id='9020'>0.71021E+03</wgt>
<wgt id='9021'>0.69721E+03</wgt>
<wgt id='9022'>0.70495E+03</wgt>
<wgt id='9023'>0.69694E+03</wgt>
<wgt id='9024'>0.70058E+03</wgt>
<wgt id='9025'>0.70747E+03</wgt>
<wgt id='9026'>0.70303E+03</wgt>
<wgt id='9027'>0.70211E+03</wgt>
<wgt id='9028'>0.70429E+03</wgt>
<wgt id='9029'>0.70419E+03</wgt>
<wgt id='9030'>0.70260E+03</wgt>
<wgt id='9031'>0.70232E+03</wgt>
<wgt id='9032'>0.70448E+03</wgt>
<wgt id='9033'>0.70430E+03</wgt>
<wgt id='9034'>0.70436E+03</wgt>
<wgt id='9035'>0.70414E+03</wgt>
<wgt id='9036'>0.70406E+03</wgt>
<wgt id='9037'>0.70392E+03</wgt>
<wgt id='9038'>0.70438E+03</wgt>
<wgt id='9039'>0.70363E+03</wgt>
<wgt id='9040'>0.70307E+03</wgt>
<wgt id='9041'>0.70385E+03</wgt>
<wgt id='9042'>0.70417E+03</wgt>
<wgt id='9043'>0.70235E+03</wgt>
<wgt id='9044'>0.70395E+03</wgt>
<wgt id='9045'>0.70410E+03</wgt>
<wgt id='9046'>0.70259E+03</wgt>
<wgt id='9047'>0.70414E+03</wgt>
<wgt id='9048'>0.70401E+03</wgt>
<wgt id='9049'>0.70323E+03</wgt>
<wgt id='9050'>0.70351E+03</wgt>
<wgt id='9051'>0.70419E+03</wgt>
<wgt id='9052'>0.70440E+03</wgt>
<wgt id='9053'>0.70362E+03</wgt>
<wgt id='9054'>0.70322E+03</wgt>
<wgt id='9055'>0.70307E+03</wgt>
<wgt id='9056'>0.70396E+03</wgt>
<wgt id='9057'>0.70368E+03</wgt>
<wgt id='9058'>0.70252E+03</wgt>
<wgt id='9059'>0.70306E+03</wgt>
<wgt id='9060'>0.70333E+03</wgt>
<wgt id='9061'>0.70347E+03</wgt>
<wgt id='9062'>0.70377E+03</wgt>
<wgt id='9063'>0.70368E+03</wgt>
<wgt id='9064'>0.70378E+03</wgt>
<wgt id='9065'>0.70325E+03</wgt>
<wgt id='9066'>0.70333E+03</wgt>
<wgt id='9067'>0.70370E+03</wgt>
<wgt id='9068'>0.70360E+03</wgt>
<wgt id='9069'>0.70441E+03</wgt>
<wgt id='9070'>0.70335E+03</wgt>
<wgt id='9071'>0.70405E+03</wgt>
<wgt id='9072'>0.70419E+03</wgt>
<wgt id='9073'>0.70348E+03</wgt>
<wgt id='9074'>0.70374E+03</wgt>
<wgt id='9075'>0.70354E+03</wgt>
<wgt id='9076'>0.70349E+03</wgt>
<wgt id='9077'>0.70385E+03</wgt>
<wgt id='9078'>0.70371E+03</wgt>
<wgt id='9079'>0.70345E+03</wgt>
<wgt id='9080'>0.70444E+03</wgt>
<wgt id='9081'>0.70366E+03</wgt>
<wgt id='9082'>0.70382E+03</wgt>
<wgt id='9083'>0.70337E+03</wgt>
<wgt id='9084'>0.70310E+03</wgt>
<wgt id='9085'>0.70296E+03</wgt>
<wgt id='9086'>0.70384E+03</wgt>
<wgt id='9087'>0.70264E+03</wgt>
<wgt id='9088'>0.70312E+03</wgt>
<wgt id='9089'>0.70320E+03</wgt>
<wgt id='9090'>0.70369E+03</wgt>
<wgt id='9091'>0.70336E+03</wgt>
<wgt id='9092'>0.70345E+03</wgt>
<wgt id='9093'>0.70335E+03</wgt>
<wgt id='9094'>0.70336E+03</wgt>
<wgt id='9095'>0.70367E+03</wgt>
<wgt id='9096'>0.70338E+03</wgt>
<wgt id='9097'>0.70366E+03</wgt>
<wgt id='9098'>0.70347E+03</wgt>
<wgt id='9099'>0.70332E+03</wgt>
<wgt id='9100'>0.70361E+03</wgt>
<wgt id='9101'>0.68635E+03</wgt>
<wgt id='9102'>0.72202E+03</wgt>
<wgt id='10000'>0.73212E+03</wgt>
<wgt id='10001'>0.73364E+03</wgt>
<wgt id='10002'>0.72316E+03</wgt>
<wgt id='10003'>0.73160E+03</wgt>
<wgt id='10004'>0.71964E+03</wgt>
<wgt id='10005'>0.72591E+03</wgt>
<wgt id='10006'>0.72513E+03</wgt>
<wgt id='10007'>0.73177E+03</wgt>
<wgt id='10008'>0.73252E+03</wgt>
<wgt id='10009'>0.72717E+03</wgt>
<wgt id='10010'>0.73370E+03</wgt>
<wgt id='10011'>0.72501E+03</wgt>
<wgt id='10012'>0.72983E+03</wgt>
<wgt id='10013'>0.73343E+03</wgt>
<wgt id='10014'>0.73135E+03</wgt>
<wgt id='10015'>0.73301E+03</wgt>
<wgt id='10016'>0.72927E+03</wgt>
<wgt id='10017'>0.74038E+03</wgt>
<wgt id='10018'>0.73438E+03</wgt>
<wgt id='10019'>0.72172E+03</wgt>
<wgt id='10020'>0.72959E+03</wgt>
<wgt id='10021'>0.73112E+03</wgt>
<wgt id='10022'>0.73342E+03</wgt>
<wgt id='10023'>0.73305E+03</wgt>
<wgt id='10024'>0.73135E+03</wgt>
<wgt id='10025'>0.73137E+03</wgt>
<wgt id='10026'>0.73590E+03</wgt>
<wgt id='10027'>0.73387E+03</wgt>
<wgt id='10028'>0.74311E+03</wgt>
<wgt id='10029'>0.73254E+03</wgt>
<wgt id='10030'>0.73168E+03</wgt>
<wgt id='10031'>0.71590E+03</wgt>
<wgt id='10032'>0.74994E+03</wgt>
<wgt id='11000'>0.70351E+03</wgt>
<wgt id='11001'>0.68758E+03</wgt>
<wgt id='11002'>0.70210E+03</wgt>
<wgt id='11003'>0.70390E+03</wgt>
<wgt id='11004'>0.69950E+03</wgt>
<wgt id='11005'>0.71017E+03</wgt>
<wgt id='11006'>0.70401E+03</wgt>
<wgt id='11007'>0.70421E+03</wgt>
<wgt id='11008'>0.70452E+03</wgt>
<wgt id='11009'>0.70401E+03</wgt>
<wgt id='11010'>0.69885E+03</wgt>
<wgt id='11011'>0.70293E+03</wgt>
<wgt id='11012'>0.70258E+03</wgt>
<wgt id='11013'>0.70383E+03</wgt>
<wgt id='11014'>0.70299E+03</wgt>
<wgt id='11015'>0.70109E+03</wgt>
<wgt id='11016'>0.70494E+03</wgt>
<wgt id='11017'>0.70448E+03</wgt>
<wgt id='11018'>0.70367E+03</wgt>
<wgt id='11019'>0.70432E+03</wgt>
<wgt id='11020'>0.70443E+03</wgt>
<wgt id='11021'>0.70460E+03</wgt>
<wgt id='11022'>0.70342E+03</wgt>
<wgt id='11023'>0.70398E+03</wgt>
<wgt id='11024'>0.70137E+03</wgt>
<wgt id='11025'>0.70304E+03</wgt>
<wgt id='11026'>0.70349E+03</wgt>
<wgt id='11027'>0.70533E+03</wgt>
<wgt id='11028'>0.70308E+03</wgt>
<wgt id='11029'>0.69480E+03</wgt>
<wgt id='11030'>0.70365E+03</wgt>
<wgt id='11031'>0.68635E+03</wgt>
<wgt id='11032'>0.72202E+03</wgt>
<wgt id='12000'>0.62268E+03</wgt>
<wgt id='12001'>0.62193E+03</wgt>
<wgt id='12002'>0.62344E+03</wgt>
<wgt id='12003'>0.62264E+03</wgt>
<wgt id='12004'>0.62273E+03</wgt>
<wgt id='12005'>0.62318E+03</wgt>
<wgt id='12006'>0.62219E+03</wgt>
<wgt id='12007'>0.62605E+03</wgt>
<wgt id='12008'>0.61939E+03</wgt>
<wgt id='12009'>0.62119E+03</wgt>
<wgt id='12010'>0.62421E+03</wgt>
<wgt id='12011'>0.61784E+03</wgt>
<wgt id='12012'>0.62805E+03</wgt>
<wgt id='12013'>0.62170E+03</wgt>
<wgt id='12014'>0.62370E+03</wgt>
<wgt id='12015'>0.62581E+03</wgt>
<wgt id='12016'>0.61867E+03</wgt>
<wgt id='12017'>0.62556E+03</wgt>
<wgt id='12018'>0.62113E+03</wgt>
<wgt id='12019'>0.62665E+03</wgt>
<wgt id='12020'>0.61830E+03</wgt>
<wgt id='12021'>0.62272E+03</wgt>
<wgt id='12022'>0.62292E+03</wgt>
<wgt id='12023'>0.61561E+03</wgt>
<wgt id='12024'>0.63015E+03</wgt>
<wgt id='12025'>0.61679E+03</wgt>
<wgt id='12026'>0.62861E+03</wgt>
<wgt id='12027'>0.63497E+03</wgt>
<wgt id='12028'>0.61147E+03</wgt>
<wgt id='12050'>0.62268E+03</wgt>
<wgt id='12051'>0.62148E+03</wgt>
<wgt id='12052'>0.61123E+03</wgt>
<wgt id='12053'>0.62170E+03</wgt>
<wgt id='12054'>0.61323E+03</wgt>
<wgt id='12055'>0.61226E+03</wgt>
<wgt id='12056'>0.63073E+03</wgt>
<wgt id='12057'>0.61834E+03</wgt>
<wgt id='12058'>0.61704E+03</wgt>
<wgt id='12059'>0.62358E+03</wgt>
<wgt id='12060'>0.61146E+03</wgt>
<wgt id='12061'>0.61294E+03</wgt>
<wgt id='12062'>0.61528E+03</wgt>
<wgt id='12063'>0.62415E+03</wgt>
<wgt id='13000'>0.67756E+03</wgt>
<wgt id='13001'>0.66952E+03</wgt>
<wgt id='13002'>0.67107E+03</wgt>
<wgt id='13003'>0.66977E+03</wgt>
<wgt id='13004'>0.67082E+03</wgt>
<wgt id='13005'>0.67061E+03</wgt>
<wgt id='13006'>0.66997E+03</wgt>
<wgt id='13007'>0.67456E+03</wgt>
<wgt id='13008'>0.66615E+03</wgt>
<wgt id='13009'>0.66631E+03</wgt>
<wgt id='13010'>0.67441E+03</wgt>
<wgt id='13011'>0.67262E+03</wgt>
<wgt id='13012'>0.66803E+03</wgt>
<wgt id='13013'>0.67001E+03</wgt>
<wgt id='13014'>0.67051E+03</wgt>
<wgt id='13015'>0.67101E+03</wgt>
<wgt id='13016'>0.66761E+03</wgt>
<wgt id='13017'>0.66994E+03</wgt>
<wgt id='13018'>0.67077E+03</wgt>
<wgt id='13019'>0.67142E+03</wgt>
<wgt id='13020'>0.66933E+03</wgt>
<wgt id='13021'>0.67883E+03</wgt>
<wgt id='13022'>0.66228E+03</wgt>
<wgt id='13023'>0.66274E+03</wgt>
<wgt id='13024'>0.67804E+03</wgt>
<wgt id='13025'>0.65737E+03</wgt>
<wgt id='13026'>0.68325E+03</wgt>
<wgt id='13027'>0.66439E+03</wgt>
<wgt id='13028'>0.67659E+03</wgt>
<wgt id='13050'>0.67756E+03</wgt>
<wgt id='13051'>0.67385E+03</wgt>
<wgt id='13052'>0.66183E+03</wgt>
<wgt id='13053'>0.67372E+03</wgt>
<wgt id='13054'>0.66794E+03</wgt>
<wgt id='13055'>0.64882E+03</wgt>
<wgt id='13056'>0.67402E+03</wgt>
<wgt id='13057'>0.67071E+03</wgt>
<wgt id='13058'>0.67166E+03</wgt>
<wgt id='13059'>0.67652E+03</wgt>
<wgt id='13060'>0.64024E+03</wgt>
<wgt id='13061'>0.67178E+03</wgt>
<wgt id='13062'>0.66943E+03</wgt>
<wgt id='13063'>0.68198E+03</wgt>
<wgt id='14000'>0.71735E+03</wgt>
<wgt id='14001'>0.71728E+03</wgt>
<wgt id='14002'>0.71721E+03</wgt>
<wgt id='14003'>0.71714E+03</wgt>
<wgt id='14004'>0.71707E+03</wgt>
<wgt id='14005'>0.71700E+03</wgt>
<wgt id='14006'>0.71693E+03</wgt>
<wgt id='14007'>0.71686E+03</wgt>
<wgt id='14008'>0.71679E+03</wgt>
<wgt id='14009'>0.71672E+03</wgt>
<wgt id='14010'>0.71664E+03</wgt>
<wgt id='14011'>0.71657E+03</wgt>
<wgt id='14012'>0.71650E+03</wgt>
<wgt id='14013'>0.71643E+03</wgt>
<wgt id='14014'>0.71636E+03</wgt>
<wgt id='14015'>0.71629E+03</wgt>
<wgt id='14016'>0.71622E+03</wgt>
<wgt id='14017'>0.71615E+03</wgt>
<wgt id='14018'>0.71608E+03</wgt>
<wgt id='14019'>0.71601E+03</wgt>
<wgt id='14020'>0.71594E+03</wgt>
<wgt id='14021'>0.71587E+03</wgt>
<wgt id='14022'>0.71580E+03</wgt>
<wgt id='14023'>0.71573E+03</wgt>
<wgt id='14024'>0.71566E+03</wgt>
<wgt id='14025'>0.71558E+03</wgt>
<wgt id='14026'>0.71551E+03</wgt>
<wgt id='14027'>0.71544E+03</wgt>
<wgt id='14028'>0.71537E+03</wgt>
<wgt id='14029'>0.71530E+03</wgt>
<wgt id='14030'>0.71523E+03</wgt>
<wgt id='15000'>0.69537E+03</wgt>
<wgt id='15001'>0.69654E+03</wgt>
<wgt id='15002'>0.69499E+03</wgt>
<wgt id='15003'>0.69604E+03</wgt>
<wgt id='15004'>0.69857E+03</wgt>
<wgt id='15005'>0.70000E+03</wgt>
<wgt id='15006'>0.69722E+03</wgt>
<wgt id='15007'>0.69088E+03</wgt>
<wgt id='15008'>0.69303E+03</wgt>
<wgt id='15009'>0.69700E+03</wgt>
<wgt id='15010'>0.69387E+03</wgt>
<wgt id='15011'>0.69739E+03</wgt>
<wgt id='15012'>0.70297E+03</wgt>
<wgt id='15013'>0.70129E+03</wgt>
<wgt id='15014'>0.69848E+03</wgt>
<wgt id='15015'>0.68948E+03</wgt>
<wgt id='15016'>0.69782E+03</wgt>
<wgt id='15017'>0.69120E+03</wgt>
<wgt id='15018'>0.69930E+03</wgt>
<wgt id='15019'>0.69937E+03</wgt>
<wgt id='15020'>0.70208E+03</wgt>
<wgt id='15021'>0.68894E+03</wgt>
<wgt id='15022'>0.69677E+03</wgt>
<wgt id='15023'>0.68882E+03</wgt>
<wgt id='15024'>0.69234E+03</wgt>
<wgt id='15025'>0.69911E+03</wgt>
<wgt id='15026'>0.69473E+03</wgt>
<wgt id='15027'>0.69402E+03</wgt>
<wgt id='15028'>0.69614E+03</wgt>
<wgt id='15029'>0.69597E+03</wgt>
<wgt id='15030'>0.69438E+03</wgt>
<wgt id='15031'>0.69427E+03</wgt>
<wgt id='15032'>0.69627E+03</wgt>
<wgt id='15033'>0.69611E+03</wgt>
<wgt id='15034'>0.69611E+03</wgt>
<wgt id='15035'>0.69593E+03</wgt>
<wgt id='15036'>0.69585E+03</wgt>
<wgt id='15037'>0.69576E+03</wgt>
<wgt id='15038'>0.69617E+03</wgt>
<wgt id='15039'>0.69540E+03</wgt>
<wgt id='15040'>0.69487E+03</wgt>
<wgt id='15041'>0.69557E+03</wgt>
<wgt id='15042'>0.69590E+03</wgt>
<wgt id='15043'>0.69427E+03</wgt>
<wgt id='15044'>0.69575E+03</wgt>
<wgt id='15045'>0.69584E+03</wgt>
<wgt id='15046'>0.69443E+03</wgt>
<wgt id='15047'>0.69586E+03</wgt>
<wgt id='15048'>0.69582E+03</wgt>
<wgt id='15049'>0.69499E+03</wgt>
<wgt id='15050'>0.69533E+03</wgt>
<wgt id='15051'>0.69599E+03</wgt>
<wgt id='15052'>0.69617E+03</wgt>
<wgt id='15053'>0.69546E+03</wgt>
<wgt id='15054'>0.69504E+03</wgt>
<wgt id='15055'>0.69489E+03</wgt>
<wgt id='15056'>0.69572E+03</wgt>
<wgt id='15057'>0.69546E+03</wgt>
<wgt id='15058'>0.69440E+03</wgt>
<wgt id='15059'>0.69489E+03</wgt>
<wgt id='15060'>0.69516E+03</wgt>
<wgt id='15061'>0.69528E+03</wgt>
<wgt id='15062'>0.69555E+03</wgt>
<wgt id='15063'>0.69549E+03</wgt>
<wgt id='15064'>0.69557E+03</wgt>
<wgt id='15065'>0.69506E+03</wgt>
<wgt id='15066'>0.69515E+03</wgt>
<wgt id='15067'>0.69548E+03</wgt>
<wgt id='15068'>0.69541E+03</wgt>
<wgt id='15069'>0.69619E+03</wgt>
<wgt id='15070'>0.69515E+03</wgt>
<wgt id='15071'>0.69587E+03</wgt>
<wgt id='15072'>0.69599E+03</wgt>
<wgt id='15073'>0.69525E+03</wgt>
<wgt id='15074'>0.69554E+03</wgt>
<wgt id='15075'>0.69533E+03</wgt>
<wgt id='15076'>0.69533E+03</wgt>
<wgt id='15077'>0.69565E+03</wgt>
<wgt id='15078'>0.69556E+03</wgt>
<wgt id='15079'>0.69525E+03</wgt>
<wgt id='15080'>0.69619E+03</wgt>
<wgt id='15081'>0.69548E+03</wgt>
<wgt id='15082'>0.69563E+03</wgt>
<wgt id='15083'>0.69516E+03</wgt>
<wgt id='15084'>0.69489E+03</wgt>
<wgt id='15085'>0.69479E+03</wgt>
<wgt id='15086'>0.69567E+03</wgt>
<wgt id='15087'>0.69445E+03</wgt>
<wgt id='15088'>0.69492E+03</wgt>
<wgt id='15089'>0.69499E+03</wgt>
<wgt id='15090'>0.69549E+03</wgt>
<wgt id='15091'>0.69516E+03</wgt>
<wgt id='15092'>0.69524E+03</wgt>
<wgt id='15093'>0.69516E+03</wgt>
<wgt id='15094'>0.69514E+03</wgt>
<wgt id='15095'>0.69547E+03</wgt>
<wgt id='15096'>0.69518E+03</wgt>
<wgt id='15097'>0.69546E+03</wgt>
<wgt id='15098'>0.69528E+03</wgt>
<wgt id='15099'>0.69512E+03</wgt>
<wgt id='15100'>0.69541E+03</wgt>
<wgt id='15101'>0.69536E+03</wgt>
<wgt id='15102'>0.69532E+03</wgt>
<wgt id='15103'>0.69538E+03</wgt>
<wgt id='15104'>0.69538E+03</wgt>
<wgt id='15105'>0.69539E+03</wgt>
<wgt id='15106'>0.69537E+03</wgt>
<wgt id='15107'>0.69534E+03</wgt>
<wgt id='1500'>0.75330E+03</wgt>
<wgt id='1501'>0.75086E+03</wgt>
<wgt id='1502'>0.76347E+03</wgt>
<wgt id='1503'>0.77112E+03</wgt>
<wgt id='1504'>0.72424E+03</wgt>
<wgt id='1505'>0.73900E+03</wgt>
<wgt id='1506'>0.75080E+03</wgt>
<wgt id='1507'>0.75149E+03</wgt>
<wgt id='1508'>0.76658E+03</wgt>
<wgt id='1509'>0.75840E+03</wgt>
<wgt id='1510'>0.75853E+03</wgt>
<wgt id='1511'>0.72908E+03</wgt>
<wgt id='1512'>0.75076E+03</wgt>
<wgt id='1513'>0.74906E+03</wgt>
<wgt id='1514'>0.77572E+03</wgt>
<wgt id='1515'>0.76613E+03</wgt>
<wgt id='1516'>0.76608E+03</wgt>
<wgt id='1517'>0.78314E+03</wgt>
<wgt id='1518'>0.77425E+03</wgt>
<wgt id='1519'>0.74780E+03</wgt>
<wgt id='1520'>0.77363E+03</wgt>
<wgt id='1521'>0.73722E+03</wgt>
<wgt id='1522'>0.74052E+03</wgt>
<wgt id='1523'>0.76021E+03</wgt>
<wgt id='1524'>0.73869E+03</wgt>
<wgt id='1525'>0.74593E+03</wgt>
<wgt id='1526'>0.73789E+03</wgt>
<wgt id='1527'>0.78815E+03</wgt>
<wgt id='1528'>0.75675E+03</wgt>
<wgt id='1529'>0.77299E+03</wgt>
<wgt id='1530'>0.75437E+03</wgt>
<wgt id='1531'>0.73521E+03</wgt>
<wgt id='1532'>0.74311E+03</wgt>
<wgt id='1533'>0.73638E+03</wgt>
<wgt id='1534'>0.72663E+03</wgt>
<wgt id='1535'>0.78672E+03</wgt>
<wgt id='1536'>0.75127E+03</wgt>
<wgt id='1537'>0.76434E+03</wgt>
<wgt id='1538'>0.76559E+03</wgt>
<wgt id='1539'>0.74354E+03</wgt>
<wgt id='1540'>0.73921E+03</wgt>
<wgt id='1541'>0.74788E+03</wgt>
<wgt id='1542'>0.73429E+03</wgt>
<wgt id='1543'>0.72926E+03</wgt>
<wgt id='1544'>0.74855E+03</wgt>
<wgt id='1545'>0.75566E+03</wgt>
<wgt id='1546'>0.74925E+03</wgt>
<wgt id='1547'>0.75558E+03</wgt>
<wgt id='1548'>0.75711E+03</wgt>
<wgt id='1549'>0.76377E+03</wgt>
<wgt id='1550'>0.74866E+03</wgt>
<wgt id='1551'>0.74250E+03</wgt>
<wgt id='1552'>0.75074E+03</wgt>
<wgt id='1553'>0.74444E+03</wgt>
<wgt id='1554'>0.74152E+03</wgt>
<wgt id='1555'>0.74437E+03</wgt>
<wgt id='1556'>0.76826E+03</wgt>
<wgt id='1557'>0.75064E+03</wgt>
<wgt id='1558'>0.74639E+03</wgt>
<wgt id='1559'>0.76748E+03</wgt>
<wgt id='1560'>0.75012E+03</wgt>
<wgt id='1561'>0.75445E+03</wgt>
<wgt id='1562'>0.76250E+03</wgt>
<wgt id='1563'>0.73695E+03</wgt>
<wgt id='1564'>0.77076E+03</wgt>
<wgt id='1565'>0.74936E+03</wgt>
<wgt id='1566'>0.74609E+03</wgt>
<wgt id='1567'>0.78825E+03</wgt>
<wgt id='1568'>0.75394E+03</wgt>
<wgt id='1569'>0.74400E+03</wgt>
<wgt id='1570'>0.73996E+03</wgt>
<wgt id='1571'>0.73868E+03</wgt>
<wgt id='1572'>0.74757E+03</wgt>
<wgt id='1573'>0.76142E+03</wgt>
<wgt id='1574'>0.75032E+03</wgt>
<wgt id='1575'>0.76008E+03</wgt>
<wgt id='1576'>0.72274E+03</wgt>
<wgt id='1577'>0.72902E+03</wgt>
<wgt id='1578'>0.74612E+03</wgt>
<wgt id='1579'>0.75243E+03</wgt>
<wgt id='1580'>0.74189E+03</wgt>
<wgt id='1581'>0.75019E+03</wgt>
<wgt id='1582'>0.74381E+03</wgt>
<wgt id='1583'>0.76438E+03</wgt>
<wgt id='1584'>0.75798E+03</wgt>
<wgt id='1585'>0.76261E+03</wgt>
<wgt id='1586'>0.75445E+03</wgt>
<wgt id='1587'>0.76818E+03</wgt>
<wgt id='1588'>0.76051E+03</wgt>
<wgt id='1589'>0.76137E+03</wgt>
<wgt id='1590'>0.74082E+03</wgt>
<wgt id='1591'>0.75039E+03</wgt>
<wgt id='1592'>0.74276E+03</wgt>
<wgt id='1593'>0.76775E+03</wgt>
<wgt id='1594'>0.76467E+03</wgt>
<wgt id='1595'>0.77704E+03</wgt>
<wgt id='1596'>0.75226E+03</wgt>
<wgt id='1597'>0.75546E+03</wgt>
<wgt id='1598'>0.74573E+03</wgt>
<wgt id='1599'>0.76030E+03</wgt>
<wgt id='1600'>0.77919E+03</wgt>
<wgt id='1601'>0.74125E+03</wgt>
<wgt id='1602'>0.76195E+03</wgt>
<wgt id='1700'>0.70306E+03</wgt>
<wgt id='1800'>0.68994E+03</wgt>
<wgt id='1850'>0.82551E+03</wgt>
<wgt id='1900'>0.76952E+03</wgt>
<wgt id='1950'>0.80271E+03</wgt>
</rwgt>
</event>
<event>
     13 322222  6.87070E+02  2.51878E+00 -1.00000E+00  3.10652E-01
      -2    -1     0     0     0   512  0.000000000E+00  0.000000000E+00  5.674194683E+01  5.674194683E+01  0.000000000E+00  0.00000E+00  9.000E+00
       2    -1     0     0   503     0  0.000000000E+00  0.000000000E+00 -1.351355435E+03  1.351355435E+03  0.000000000E+00  0.00000E+00  9.000E+00
       6     2     1     2   502     0  8.277663953E+00 -1.342712914E+02 -2.635839029E+02  3.414234257E+02  1.702826542E+02  0.00000E+00  9.000E+00
      -6     2     1     2     0   512 -6.079198365E+00  1.355005135E+02 -6.575417842E+02  6.931776620E+02  1.724434030E+02  0.00000E+00  9.000E+00
      21     1     1     2   503   502 -2.198465589E+00 -1.229222021E+00 -3.734878014E+02  3.734962946E+02  7.629394531E-06  0.00000E+00  9.000E+00
      24     2     3     3     0     0  3.317611898E+00 -1.655084222E+02 -2.160214596E+02  2.841033902E+02  8.151945129E+01  0.00000E+00  9.000E+00
       5     1     3     3   502     0  4.960052055E+00  3.123713078E+01 -4.756244329E+01  5.732003548E+01  4.800000000E+00  0.00000E+00 -1.000E+00
     -24     2     4     4     0     0 -5.493928079E+01  3.894586248E+01 -2.327236984E+02  2.547674040E+02  7.880993303E+01  0.00000E+00  9.000E+00
      -5     1     4     4     0   512  4.886008243E+01  9.655465098E+01 -4.248180858E+02  4.384102580E+02  4.800000000E+00  0.00000E+00  1.000E+00
      -3     1     6     6     0   513 -3.558532035E+01 -8.336913778E+01 -1.332917207E+02  1.611938304E+02  2.000000000E-01  0.00000E+00  1.000E+00
       4     1     6     6   513     0  3.890293225E+01 -8.213928444E+01 -8.272973891E+01  1.229095598E+02  1.500000000E+00  0.00000E+00 -1.000E+00
       3     1     8     8   514     0  1.993856740E+01  1.263026105E+01 -4.189518583E+01  4.808655280E+01  2.000000000E-01  0.00000E+00 -1.000E+00
      -4     1     8     8     0   514 -7.487784819E+01  2.631560143E+01 -1.908285126E+02  2.066808512E+02  1.500000000E+00  0.00000E+00  1.000E+00
#rwgt            1           5   62.342005279123143                2        7417           0
<rwgt>
<wgt id='1001'>0.68707E+03</wgt>
<wgt id='1002'>0.72615E+03</wgt>
<wgt id='1003'>0.65376E+03</wgt>
<wgt id='1004'>0.61421E+03</wgt>
<wgt id='1005'>0.64468E+03</wgt>
<wgt id='1006'>0.58769E+03</wgt>
<wgt id='1007'>0.76849E+03</wgt>
<wgt id='1008'>0.81991E+03</wgt>
<wgt id='1009'>0.72560E+03</wgt>
<wgt id='2000'>0.68707E+03</wgt>
<wgt id='2001'>0.68709E+03</wgt>
<wgt id='2002'>0.68806E+03</wgt>
<wgt id='2003'>0.68774E+03</wgt>
<wgt id='2004'>0.68807E+03</wgt>
<wgt id='2005'>0.68688E+03</wgt>
<wgt id='2006'>0.68729E+03</wgt>
<wgt id='2007'>0.68558E+03</wgt>
<wgt id='2008'>0.68623E+03</wgt>
<wgt id='2009'>0.68946E+03</wgt>
<wgt id='2010'>0.68621E+03</wgt>
<wgt id='2011'>0.68604E+03</wgt>
<wgt id='2012'>0.68864E+03</wgt>
<wgt id='2013'>0.68761E+03</wgt>
<wgt id='2014'>0.69324E+03</wgt>
<wgt id='2015'>0.68763E+03</wgt>
<wgt id='2016'>0.68971E+03</wgt>
<wgt id='2017'>0.68642E+03</wgt>
<wgt id='2018'>0.68636E+03</wgt>
<wgt id='2019'>0.68819E+03</wgt>
<wgt id='2020'>0.68861E+03</wgt>
<wgt id='2021'>0.68945E+03</wgt>
<wgt id='2022'>0.68929E+03</wgt>
<wgt id='2023'>0.68328E+03</wgt>
<wgt id='2024'>0.68601E+03</wgt>
<wgt id='2025'>0.68855E+03</wgt>
<wgt id='2026'>0.68267E+03</wgt>
<wgt id='2027'>0.68933E+03</wgt>
<wgt id='2028'>0.68948E+03</wgt>
<wgt id='2029'>0.67879E+03</wgt>
<wgt id='2030'>0.68193E+03</wgt>
<wgt id='2031'>0.68740E+03</wgt>
<wgt id='2032'>0.68628E+03</wgt>
<wgt id='2033'>0.68753E+03</wgt>
<wgt id='2034'>0.68766E+03</wgt>
<wgt id='2035'>0.68453E+03</wgt>
<wgt id='2036'>0.68667E+03</wgt>
<wgt id='2037'>0.68818E+03</wgt>
<wgt id='2038'>0.68651E+03</wgt>
<wgt id='2039'>0.68702E+03</wgt>
<wgt id='2040'>0.68615E+03</wgt>
<wgt id='2041'>0.68810E+03</wgt>
<wgt id='2042'>0.68577E+03</wgt>
<wgt id='2043'>0.68759E+03</wgt>
<wgt id='2044'>0.68692E+03</wgt>
<wgt id='2045'>0.68863E+03</wgt>
<wgt id='2046'>0.68913E+03</wgt>
<wgt id='2047'>0.68828E+03</wgt>
<wgt id='2048'>0.68762E+03</wgt>
<wgt id='2049'>0.68612E+03</wgt>
<wgt id='2050'>0.68604E+03</wgt>
<wgt id='2051'>0.68812E+03</wgt>
<wgt id='2052'>0.68673E+03</wgt>
<wgt id='2053'>0.68720E+03</wgt>
<wgt id='2054'>0.68737E+03</wgt>
<wgt id='2055'>0.68608E+03</wgt>
<wgt id='2056'>0.68704E+03</wgt>
<wgt id='2057'>0.68729E+03</wgt>
<wgt id='2058'>0.68651E+03</wgt>
<wgt id='2059'>0.68648E+03</wgt>
<wgt id='2060'>0.68882E+03</wgt>
<wgt id='2061'>0.68682E+03</wgt>
<wgt id='2062'>0.68730E+03</wgt>
<wgt id='2063'>0.68658E+03</wgt>
<wgt id='2064'>0.68676E+03</wgt>
<wgt id='2065'>0.68703E+03</wgt>
<wgt id='2066'>0.68724E+03</wgt>
<wgt id='2067'>0.68762E+03</wgt>
<wgt id='2068'>0.68859E+03</wgt>
<wgt id='2069'>0.68708E+03</wgt>
<wgt id='2070'>0.68656E+03</wgt>
<wgt id='2071'>0.68719E+03</wgt>
<wgt id='2072'>0.68729E+03</wgt>
<wgt id='2073'>0.68735E+03</wgt>
<wgt id='2074'>0.68659E+03</wgt>
<wgt id='2075'>0.68587E+03</wgt>
<wgt id='2076'>0.68701E+03</wgt>
<wgt id='2077'>0.68702E+03</wgt>
<wgt id='2078'>0.68770E+03</wgt>
<wgt id='2079'>0.68665E+03</wgt>
<wgt id='2080'>0.68725E+03</wgt>
<wgt id='2081'>0.68744E+03</wgt>
<wgt id='2082'>0.68738E+03</wgt>
<wgt id='2083'>0.68731E+03</wgt>
<wgt id='2084'>0.68693E+03</wgt>
<wgt id='2085'>0.68740E+03</wgt>
<wgt id='2086'>0.68694E+03</wgt>
<wgt id='2087'>0.68730E+03</wgt>
<wgt id='2088'>0.68658E+03</wgt>
<wgt id='2089'>0.68765E+03</wgt>
<wgt id='2090'>0.68728E+03</wgt>
<wgt id='2091'>0.68743E+03</wgt>
<wgt id='2092'>0.68724E+03</wgt>
<wgt id='2093'>0.68655E+03</wgt>
<wgt id='2094'>0.68691E+03</wgt>
<wgt id='2095'>0.68700E+03</wgt>
<wgt id='2096'>0.68693E+03</wgt>
<wgt id='2097'>0.68746E+03</wgt>
<wgt id='2098'>0.68731E+03</wgt>
<wgt id='2099'>0.68697E+03</wgt>
<wgt id='2100'>0.68692E+03</wgt>
<wgt id='2101'>0.66169E+03</wgt>
<wgt id='2102'>0.71216E+03</wgt>
<wgt id='2104'>0.56889E+03</wgt>
<wgt id='2105'>0.59053E+03</wgt>
<wgt id='2106'>0.61640E+03</wgt>
<wgt id='2107'>0.64075E+03</wgt>
<wgt id='2108'>0.67639E+03</wgt>
<wgt id='2109'>0.69919E+03</wgt>
<wgt id='2110'>0.73571E+03</wgt>
<wgt id='2111'>0.76105E+03</wgt>
<wgt id='3000'>0.69570E+03</wgt>
<wgt id='3001'>0.69589E+03</wgt>
<wgt id='3002'>0.69542E+03</wgt>
<wgt id='3003'>0.69663E+03</wgt>
<wgt id='3004'>0.69609E+03</wgt>
<wgt id='3005'>0.69706E+03</wgt>
<wgt id='3006'>0.69573E+03</wgt>
<wgt id='3007'>0.69742E+03</wgt>
<wgt id='3008'>0.69407E+03</wgt>
<wgt id='3009'>0.69763E+03</wgt>
<wgt id='3010'>0.69282E+03</wgt>
<wgt id='3011'>0.69511E+03</wgt>
<wgt id='3012'>0.69590E+03</wgt>
<wgt id='3013'>0.69480E+03</wgt>
<wgt id='3014'>0.69946E+03</wgt>
<wgt id='3015'>0.69237E+03</wgt>
<wgt id='3016'>0.69621E+03</wgt>
<wgt id='3017'>0.69576E+03</wgt>
<wgt id='3018'>0.69644E+03</wgt>
<wgt id='3019'>0.69377E+03</wgt>
<wgt id='3020'>0.69122E+03</wgt>
<wgt id='3021'>0.69885E+03</wgt>
<wgt id='3022'>0.69722E+03</wgt>
<wgt id='3023'>0.69856E+03</wgt>
<wgt id='3024'>0.69538E+03</wgt>
<wgt id='3025'>0.69142E+03</wgt>
<wgt id='3026'>0.69475E+03</wgt>
<wgt id='3027'>0.69659E+03</wgt>
<wgt id='3028'>0.69788E+03</wgt>
<wgt id='3029'>0.69876E+03</wgt>
<wgt id='3030'>0.68531E+03</wgt>
<wgt id='3031'>0.69434E+03</wgt>
<wgt id='3032'>0.69495E+03</wgt>
<wgt id='3033'>0.69912E+03</wgt>
<wgt id='3034'>0.69658E+03</wgt>
<wgt id='3035'>0.69734E+03</wgt>
<wgt id='3036'>0.69688E+03</wgt>
<wgt id='3037'>0.69284E+03</wgt>
<wgt id='3038'>0.69650E+03</wgt>
<wgt id='3039'>0.69548E+03</wgt>
<wgt id='3040'>0.69583E+03</wgt>
<wgt id='3041'>0.69531E+03</wgt>
<wgt id='3042'>0.69661E+03</wgt>
<wgt id='3043'>0.69334E+03</wgt>
<wgt id='3044'>0.69565E+03</wgt>
<wgt id='3045'>0.69664E+03</wgt>
<wgt id='3046'>0.69627E+03</wgt>
<wgt id='3047'>0.69405E+03</wgt>
<wgt id='3048'>0.69553E+03</wgt>
<wgt id='3049'>0.69665E+03</wgt>
<wgt id='3050'>0.69512E+03</wgt>
<wgt id='3051'>0.69610E+03</wgt>
<wgt id='3052'>0.69630E+03</wgt>
<wgt id='3053'>0.69487E+03</wgt>
<wgt id='3054'>0.69450E+03</wgt>
<wgt id='3055'>0.69507E+03</wgt>
<wgt id='3056'>0.69583E+03</wgt>
<wgt id='3057'>0.69627E+03</wgt>
<wgt id='3058'>0.69504E+03</wgt>
<wgt id='3059'>0.69529E+03</wgt>
<wgt id='3060'>0.69576E+03</wgt>
<wgt id='3061'>0.69589E+03</wgt>
<wgt id='3062'>0.69471E+03</wgt>
<wgt id='3063'>0.69603E+03</wgt>
<wgt id='3064'>0.69547E+03</wgt>
<wgt id='3065'>0.69550E+03</wgt>
<wgt id='3066'>0.69580E+03</wgt>
<wgt id='3067'>0.69452E+03</wgt>
<wgt id='3068'>0.69652E+03</wgt>
<wgt id='3069'>0.69529E+03</wgt>
<wgt id='3070'>0.69503E+03</wgt>
<wgt id='3071'>0.69571E+03</wgt>
<wgt id='3072'>0.69485E+03</wgt>
<wgt id='3073'>0.69590E+03</wgt>
<wgt id='3074'>0.69690E+03</wgt>
<wgt id='3075'>0.69558E+03</wgt>
<wgt id='3076'>0.69618E+03</wgt>
<wgt id='3077'>0.69504E+03</wgt>
<wgt id='3078'>0.69617E+03</wgt>
<wgt id='3079'>0.69546E+03</wgt>
<wgt id='3080'>0.69623E+03</wgt>
<wgt id='3081'>0.69703E+03</wgt>
<wgt id='3082'>0.69556E+03</wgt>
<wgt id='3083'>0.69611E+03</wgt>
<wgt id='3084'>0.69559E+03</wgt>
<wgt id='3085'>0.69612E+03</wgt>
<wgt id='3086'>0.69572E+03</wgt>
<wgt id='3087'>0.69580E+03</wgt>
<wgt id='3088'>0.69561E+03</wgt>
<wgt id='3089'>0.69607E+03</wgt>
<wgt id='3090'>0.69579E+03</wgt>
<wgt id='3091'>0.69611E+03</wgt>
<wgt id='3092'>0.69600E+03</wgt>
<wgt id='3093'>0.69578E+03</wgt>
<wgt id='3094'>0.69538E+03</wgt>
<wgt id='3095'>0.69587E+03</wgt>
<wgt id='3096'>0.69556E+03</wgt>
<wgt id='3097'>0.69553E+03</wgt>
<wgt id='3098'>0.69571E+03</wgt>
<wgt id='3099'>0.69589E+03</wgt>
<wgt id='3100'>0.69613E+03</wgt>
<wgt id='3101'>0.67159E+03</wgt>
<wgt id='3102'>0.72200E+03</wgt>
<wgt id='5000'>0.67544E+03</wgt>
<wgt id='5001'>0.67797E+03</wgt>
<wgt id='5002'>0.67349E+03</wgt>
<wgt id='5003'>0.67606E+03</wgt>
<wgt id='5004'>0.67604E+03</wgt>
<wgt id='5005'>0.67503E+03</wgt>
<wgt id='5006'>0.67687E+03</wgt>
<wgt id='5007'>0.67805E+03</wgt>
<wgt id='5008'>0.66972E+03</wgt>
<wgt id='5009'>0.67832E+03</wgt>
<wgt id='5010'>0.67410E+03</wgt>
<wgt id='5011'>0.67769E+03</wgt>
<wgt id='5012'>0.66860E+03</wgt>
<wgt id='5013'>0.66951E+03</wgt>
<wgt id='5014'>0.67540E+03</wgt>
<wgt id='5015'>0.67572E+03</wgt>
<wgt id='5016'>0.67251E+03</wgt>
<wgt id='5017'>0.67540E+03</wgt>
<wgt id='5018'>0.67585E+03</wgt>
<wgt id='5019'>0.67705E+03</wgt>
<wgt id='5020'>0.67383E+03</wgt>
<wgt id='5021'>0.67164E+03</wgt>
<wgt id='5022'>0.67763E+03</wgt>
<wgt id='5023'>0.67165E+03</wgt>
<wgt id='5024'>0.67944E+03</wgt>
<wgt id='5025'>0.67087E+03</wgt>
<wgt id='5026'>0.67928E+03</wgt>
<wgt id='5027'>0.67682E+03</wgt>
<wgt id='5028'>0.67296E+03</wgt>
<wgt id='5029'>0.66788E+03</wgt>
<wgt id='5030'>0.68007E+03</wgt>
<wgt id='5031'>0.67584E+03</wgt>
<wgt id='5032'>0.67456E+03</wgt>
<wgt id='5033'>0.67993E+03</wgt>
<wgt id='5034'>0.67121E+03</wgt>
<wgt id='5035'>0.68578E+03</wgt>
<wgt id='5036'>0.66751E+03</wgt>
<wgt id='5037'>0.68614E+03</wgt>
<wgt id='5038'>0.66318E+03</wgt>
<wgt id='5039'>0.68877E+03</wgt>
<wgt id='5040'>0.66237E+03</wgt>
<wgt id='5041'>0.67261E+03</wgt>
<wgt id='5042'>0.67702E+03</wgt>
<wgt id='5043'>0.67424E+03</wgt>
<wgt id='5044'>0.67201E+03</wgt>
<wgt id='5045'>0.68079E+03</wgt>
<wgt id='5046'>0.67464E+03</wgt>
<wgt id='5047'>0.66288E+03</wgt>
<wgt id='5048'>0.68840E+03</wgt>
<wgt id='5049'>0.67959E+03</wgt>
<wgt id='5050'>0.67111E+03</wgt>
<wgt id='5051'>0.67760E+03</wgt>
<wgt id='5052'>0.67759E+03</wgt>
<wgt id='5053'>0.66681E+03</wgt>
<wgt id='5054'>0.66636E+03</wgt>
<wgt id='5055'>0.66430E+03</wgt>
<wgt id='5056'>0.68965E+03</wgt>
<wgt id='5060'>0.65244E+03</wgt>
<wgt id='5070'>0.69859E+03</wgt>
<wgt id='4000'>0.67988E+03</wgt>
<wgt id='4001'>0.68216E+03</wgt>
<wgt id='4002'>0.68153E+03</wgt>
<wgt id='4003'>0.68193E+03</wgt>
<wgt id='4004'>0.68053E+03</wgt>
<wgt id='4005'>0.67444E+03</wgt>
<wgt id='4006'>0.68375E+03</wgt>
<wgt id='4007'>0.67850E+03</wgt>
<wgt id='4008'>0.68845E+03</wgt>
<wgt id='4009'>0.67130E+03</wgt>
<wgt id='4010'>0.68994E+03</wgt>
<wgt id='4011'>0.68934E+03</wgt>
<wgt id='4012'>0.67402E+03</wgt>
<wgt id='4013'>0.67016E+03</wgt>
<wgt id='4014'>0.68322E+03</wgt>
<wgt id='4015'>0.68767E+03</wgt>
<wgt id='4016'>0.66881E+03</wgt>
<wgt id='4017'>0.69169E+03</wgt>
<wgt id='4018'>0.66639E+03</wgt>
<wgt id='4019'>0.68812E+03</wgt>
<wgt id='4020'>0.67081E+03</wgt>
<wgt id='4021'>0.67977E+03</wgt>
<wgt id='4022'>0.67841E+03</wgt>
<wgt id='4023'>0.67796E+03</wgt>
<wgt id='4024'>0.68198E+03</wgt>
<wgt id='4025'>0.68196E+03</wgt>
<wgt id='4026'>0.67839E+03</wgt>
<wgt id='4027'>0.68339E+03</wgt>
<wgt id='4028'>0.67491E+03</wgt>
<wgt id='4029'>0.67534E+03</wgt>
<wgt id='4030'>0.68144E+03</wgt>
<wgt id='4031'>0.67905E+03</wgt>
<wgt id='4032'>0.68091E+03</wgt>
<wgt id='4033'>0.68319E+03</wgt>
<wgt id='4034'>0.67248E+03</wgt>
<wgt id='4035'>0.67622E+03</wgt>
<wgt id='4036'>0.68384E+03</wgt>
<wgt id='4037'>0.68096E+03</wgt>
<wgt id='4038'>0.67639E+03</wgt>
<wgt id='4039'>0.67242E+03</wgt>
<wgt id='4040'>0.68281E+03</wgt>
<wgt id='4041'>0.68615E+03</wgt>
<wgt id='4042'>0.67375E+03</wgt>
<wgt id='4043'>0.68128E+03</wgt>
<wgt id='4044'>0.67774E+03</wgt>
<wgt id='4045'>0.67910E+03</wgt>
<wgt id='4046'>0.67731E+03</wgt>
<wgt id='4047'>0.67754E+03</wgt>
<wgt id='4048'>0.68021E+03</wgt>
<wgt id='4049'>0.67923E+03</wgt>
<wgt id='4050'>0.67810E+03</wgt>
<wgt id='4051'>0.67960E+03</wgt>
<wgt id='4052'>0.68293E+03</wgt>
<wgt id='4053'>0.67579E+03</wgt>
<wgt id='4054'>0.67812E+03</wgt>
<wgt id='4055'>0.67152E+03</wgt>
<wgt id='4056'>0.69030E+03</wgt>
<wgt id='4060'>0.65647E+03</wgt>
<wgt id='4070'>0.70262E+03</wgt>
<wgt id='4080'>0.59694E+03</wgt>
<wgt id='6000'>0.65300E+03</wgt>
<wgt id='6001'>0.65229E+03</wgt>
<wgt id='6002'>0.65378E+03</wgt>
<wgt id='6003'>0.65107E+03</wgt>
<wgt id='6004'>0.65431E+03</wgt>
<wgt id='6005'>0.65305E+03</wgt>
<wgt id='6006'>0.65301E+03</wgt>
<wgt id='6007'>0.65450E+03</wgt>
<wgt id='6008'>0.65133E+03</wgt>
<wgt id='6009'>0.65053E+03</wgt>
<wgt id='6010'>0.65541E+03</wgt>
<wgt id='6011'>0.65252E+03</wgt>
<wgt id='6012'>0.65408E+03</wgt>
<wgt id='6013'>0.65134E+03</wgt>
<wgt id='6014'>0.65597E+03</wgt>
<wgt id='6015'>0.65330E+03</wgt>
<wgt id='6016'>0.65285E+03</wgt>
<wgt id='6017'>0.65775E+03</wgt>
<wgt id='6018'>0.64746E+03</wgt>
<wgt id='6019'>0.65207E+03</wgt>
<wgt id='6020'>0.65381E+03</wgt>
<wgt id='6021'>0.65548E+03</wgt>
<wgt id='6022'>0.64983E+03</wgt>
<wgt id='6023'>0.66120E+03</wgt>
<wgt id='6024'>0.64755E+03</wgt>
<wgt id='6025'>0.65235E+03</wgt>
<wgt id='6026'>0.65319E+03</wgt>
<wgt id='6027'>0.65456E+03</wgt>
<wgt id='6028'>0.65245E+03</wgt>
<wgt id='6029'>0.65657E+03</wgt>
<wgt id='6030'>0.64883E+03</wgt>
<wgt id='6031'>0.65831E+03</wgt>
<wgt id='6032'>0.64669E+03</wgt>
<wgt id='6033'>0.65110E+03</wgt>
<wgt id='6034'>0.65476E+03</wgt>
<wgt id='6035'>0.65196E+03</wgt>
<wgt id='6036'>0.65274E+03</wgt>
<wgt id='6037'>0.65132E+03</wgt>
<wgt id='6038'>0.65468E+03</wgt>
<wgt id='6039'>0.65288E+03</wgt>
<wgt id='6040'>0.65287E+03</wgt>
<wgt id='6041'>0.64558E+03</wgt>
<wgt id='6042'>0.65891E+03</wgt>
<wgt id='6043'>0.65598E+03</wgt>
<wgt id='6044'>0.64912E+03</wgt>
<wgt id='6045'>0.65029E+03</wgt>
<wgt id='6046'>0.65948E+03</wgt>
<wgt id='6047'>0.65346E+03</wgt>
<wgt id='6048'>0.64964E+03</wgt>
<wgt id='6049'>0.65222E+03</wgt>
<wgt id='6050'>0.65458E+03</wgt>
<wgt id='7000'>0.66616E+03</wgt>
<wgt id='7001'>0.66522E+03</wgt>
<wgt id='7002'>0.66737E+03</wgt>
<wgt id='7003'>0.66701E+03</wgt>
<wgt id='7004'>0.66532E+03</wgt>
<wgt id='7005'>0.66363E+03</wgt>
<wgt id='7006'>0.66719E+03</wgt>
<wgt id='7007'>0.66740E+03</wgt>
<wgt id='7008'>0.66489E+03</wgt>
<wgt id='7009'>0.66463E+03</wgt>
<wgt id='7010'>0.66764E+03</wgt>
<wgt id='7011'>0.66926E+03</wgt>
<wgt id='7012'>0.66482E+03</wgt>
<wgt id='7013'>0.66575E+03</wgt>
<wgt id='7014'>0.66666E+03</wgt>
<wgt id='7015'>0.66451E+03</wgt>
<wgt id='7016'>0.66795E+03</wgt>
<wgt id='7017'>0.67186E+03</wgt>
<wgt id='7018'>0.66294E+03</wgt>
<wgt id='7019'>0.66821E+03</wgt>
<wgt id='7020'>0.66332E+03</wgt>
<wgt id='7021'>0.66490E+03</wgt>
<wgt id='7022'>0.66704E+03</wgt>
<wgt id='7023'>0.66164E+03</wgt>
<wgt id='7024'>0.67052E+03</wgt>
<wgt id='7025'>0.66314E+03</wgt>
<wgt id='7026'>0.67355E+03</wgt>
<wgt id='7027'>0.66644E+03</wgt>
<wgt id='7028'>0.66639E+03</wgt>
<wgt id='7029'>0.66323E+03</wgt>
<wgt id='7030'>0.67409E+03</wgt>
<wgt id='7031'>0.66814E+03</wgt>
<wgt id='7032'>0.66111E+03</wgt>
<wgt id='7033'>0.66459E+03</wgt>
<wgt id='7034'>0.66794E+03</wgt>
<wgt id='7035'>0.66820E+03</wgt>
<wgt id='7036'>0.66415E+03</wgt>
<wgt id='7037'>0.66655E+03</wgt>
<wgt id='7038'>0.66567E+03</wgt>
<wgt id='7039'>0.66619E+03</wgt>
<wgt id='7040'>0.66583E+03</wgt>
<wgt id='7041'>0.67102E+03</wgt>
<wgt id='7042'>0.65445E+03</wgt>
<wgt id='7043'>0.66742E+03</wgt>
<wgt id='7044'>0.66172E+03</wgt>
<wgt id='7045'>0.66198E+03</wgt>
<wgt id='7046'>0.66792E+03</wgt>
<wgt id='7047'>0.67152E+03</wgt>
<wgt id='7048'>0.66360E+03</wgt>
<wgt id='7049'>0.66565E+03</wgt>
<wgt id='7050'>0.66486E+03</wgt>
<wgt id='7060'>0.73048E+03</wgt>
<wgt id='8000'>0.69358E+03</wgt>
<wgt id='8001'>0.69344E+03</wgt>
<wgt id='8002'>0.69293E+03</wgt>
<wgt id='8003'>0.69461E+03</wgt>
<wgt id='8004'>0.69358E+03</wgt>
<wgt id='8005'>0.69386E+03</wgt>
<wgt id='8006'>0.69271E+03</wgt>
<wgt id='8007'>0.69456E+03</wgt>
<wgt id='8008'>0.69048E+03</wgt>
<wgt id='8009'>0.69267E+03</wgt>
<wgt id='8010'>0.69382E+03</wgt>
<wgt id='8011'>0.69185E+03</wgt>
<wgt id='8012'>0.69452E+03</wgt>
<wgt id='8013'>0.69384E+03</wgt>
<wgt id='8014'>0.69255E+03</wgt>
<wgt id='8015'>0.69384E+03</wgt>
<wgt id='8016'>0.69375E+03</wgt>
<wgt id='8017'>0.69221E+03</wgt>
<wgt id='8018'>0.69173E+03</wgt>
<wgt id='8019'>0.69355E+03</wgt>
<wgt id='8020'>0.69043E+03</wgt>
<wgt id='8021'>0.69222E+03</wgt>
<wgt id='8022'>0.69282E+03</wgt>
<wgt id='8023'>0.69382E+03</wgt>
<wgt id='8024'>0.69516E+03</wgt>
<wgt id='8025'>0.69408E+03</wgt>
<wgt id='8026'>0.69118E+03</wgt>
<wgt id='8027'>0.69202E+03</wgt>
<wgt id='8028'>0.69427E+03</wgt>
<wgt id='8029'>0.68952E+03</wgt>
<wgt id='8500'>0.66703E+03</wgt>
<wgt id='8501'>0.66438E+03</wgt>
<wgt id='8502'>0.66336E+03</wgt>
<wgt id='8503'>0.67225E+03</wgt>
<wgt id='8504'>0.66495E+03</wgt>
<wgt id='8505'>0.66823E+03</wgt>
<wgt id='8506'>0.66174E+03</wgt>
<wgt id='8507'>0.66988E+03</wgt>
<wgt id='8508'>0.66792E+03</wgt>
<wgt id='8509'>0.66461E+03</wgt>
<wgt id='8510'>0.66472E+03</wgt>
<wgt id='8511'>0.66186E+03</wgt>
<wgt id='8512'>0.66453E+03</wgt>
<wgt id='8513'>0.67319E+03</wgt>
<wgt id='8514'>0.66461E+03</wgt>
<wgt id='8515'>0.66593E+03</wgt>
<wgt id='8516'>0.66350E+03</wgt>
<wgt id='8517'>0.66636E+03</wgt>
<wgt id='8518'>0.67392E+03</wgt>
<wgt id='8519'>0.66415E+03</wgt>
<wgt id='8520'>0.66718E+03</wgt>
<wgt id='8521'>0.66795E+03</wgt>
<wgt id='8522'>0.66282E+03</wgt>
<wgt id='8523'>0.67171E+03</wgt>
<wgt id='8524'>0.66651E+03</wgt>
<wgt id='8525'>0.67131E+03</wgt>
<wgt id='8526'>0.66804E+03</wgt>
<wgt id='8527'>0.66492E+03</wgt>
<wgt id='8528'>0.67063E+03</wgt>
<wgt id='8529'>0.66695E+03</wgt>
<wgt id='8530'>0.66630E+03</wgt>
<wgt id='8531'>0.66724E+03</wgt>
<wgt id='8532'>0.66435E+03</wgt>
<wgt id='8533'>0.66605E+03</wgt>
<wgt id='8534'>0.66918E+03</wgt>
<wgt id='8535'>0.66985E+03</wgt>
<wgt id='8536'>0.66488E+03</wgt>
<wgt id='8537'>0.66585E+03</wgt>
<wgt id='8538'>0.66689E+03</wgt>
<wgt id='8539'>0.66847E+03</wgt>
<wgt id='8540'>0.66764E+03</wgt>
<wgt id='8541'>0.66834E+03</wgt>
<wgt id='8542'>0.66657E+03</wgt>
<wgt id='8543'>0.66592E+03</wgt>
<wgt id='8544'>0.66845E+03</wgt>
<wgt id='8545'>0.66846E+03</wgt>
<wgt id='8546'>0.66771E+03</wgt>
<wgt id='8547'>0.66666E+03</wgt>
<wgt id='8548'>0.66623E+03</wgt>
<wgt id='8549'>0.66777E+03</wgt>
<wgt id='8550'>0.66703E+03</wgt>
<wgt id='8551'>0.66639E+03</wgt>
<wgt id='8552'>0.66724E+03</wgt>
<wgt id='8553'>0.66580E+03</wgt>
<wgt id='8554'>0.66685E+03</wgt>
<wgt id='8555'>0.66709E+03</wgt>
<wgt id='8556'>0.66739E+03</wgt>
<wgt id='8557'>0.66628E+03</wgt>
<wgt id='8558'>0.66751E+03</wgt>
<wgt id='8559'>0.66683E+03</wgt>
<wgt id='8560'>0.66689E+03</wgt>
<wgt id='8561'>0.66717E+03</wgt>
<wgt id='8562'>0.66677E+03</wgt>
<wgt id='8563'>0.66680E+03</wgt>
<wgt id='8564'>0.66654E+03</wgt>
<wgt id='8565'>0.66696E+03</wgt>
<wgt id='8566'>0.66629E+03</wgt>
<wgt id='8567'>0.66607E+03</wgt>
<wgt id='8568'>0.66723E+03</wgt>
<wgt id='8569'>0.66713E+03</wgt>
<wgt id='8570'>0.66767E+03</wgt>
<wgt id='8571'>0.66713E+03</wgt>
<wgt id='8572'>0.66632E+03</wgt>
<wgt id='8573'>0.66660E+03</wgt>
<wgt id='8574'>0.66704E+03</wgt>
<wgt id='8575'>0.66695E+03</wgt>
<wgt id='8576'>0.66676E+03</wgt>
<wgt id='8577'>0.66683E+03</wgt>
<wgt id='8578'>0.66699E+03</wgt>
<wgt id='8579'>0.66722E+03</wgt>
<wgt id='8580'>0.66697E+03</wgt>
<wgt id='8581'>0.66705E+03</wgt>
<wgt id='8582'>0.66700E+03</wgt>
<wgt id='8583'>0.66698E+03</wgt>
<wgt id='8584'>0.66733E+03</wgt>
<wgt id='8585'>0.66713E+03</wgt>
<wgt id='8586'>0.66731E+03</wgt>
<wgt id='8587'>0.66717E+03</wgt>
<wgt id='8588'>0.66677E+03</wgt>
<wgt id='8589'>0.66675E+03</wgt>
<wgt id='8590'>0.66697E+03</wgt>
<wgt id='8591'>0.66660E+03</wgt>
<wgt id='8592'>0.66694E+03</wgt>
<wgt id='8593'>0.66663E+03</wgt>
<wgt id='8594'>0.66696E+03</wgt>
<wgt id='8595'>0.66707E+03</wgt>
<wgt id='8596'>0.66703E+03</wgt>
<wgt id='8597'>0.66715E+03</wgt>
<wgt id='8598'>0.66693E+03</wgt>
<wgt id='8599'>0.66711E+03</wgt>
<wgt id='8600'>0.66708E+03</wgt>
<wgt id='8601'>0.64795E+03</wgt>
<wgt id='8602'>0.68490E+03</wgt>
<wgt id='9000'>0.66939E+03</wgt>
<wgt id='9001'>0.67014E+03</wgt>
<wgt id='9002'>0.66762E+03</wgt>
<wgt id='9003'>0.67042E+03</wgt>
<wgt id='9004'>0.67264E+03</wgt>
<wgt id='9005'>0.67362E+03</wgt>
<wgt id='9006'>0.67168E+03</wgt>
<wgt id='9007'>0.67016E+03</wgt>
<wgt id='9008'>0.66953E+03</wgt>
<wgt id='9009'>0.67040E+03</wgt>
<wgt id='9010'>0.66926E+03</wgt>
<wgt id='9011'>0.67491E+03</wgt>
<wgt id='9012'>0.66882E+03</wgt>
<wgt id='9013'>0.67106E+03</wgt>
<wgt id='9014'>0.66587E+03</wgt>
<wgt id='9015'>0.66836E+03</wgt>
<wgt id='9016'>0.66927E+03</wgt>
<wgt id='9017'>0.66901E+03</wgt>
<wgt id='9018'>0.67203E+03</wgt>
<wgt id='9019'>0.66285E+03</wgt>
<wgt id='9020'>0.67045E+03</wgt>
<wgt id='9021'>0.67156E+03</wgt>
<wgt id='9022'>0.66572E+03</wgt>
<wgt id='9023'>0.67292E+03</wgt>
<wgt id='9024'>0.67366E+03</wgt>
<wgt id='9025'>0.66858E+03</wgt>
<wgt id='9026'>0.66880E+03</wgt>
<wgt id='9027'>0.67065E+03</wgt>
<wgt id='9028'>0.66899E+03</wgt>
<wgt id='9029'>0.66873E+03</wgt>
<wgt id='9030'>0.66910E+03</wgt>
<wgt id='9031'>0.67286E+03</wgt>
<wgt id='9032'>0.67086E+03</wgt>
<wgt id='9033'>0.67190E+03</wgt>
<wgt id='9034'>0.67160E+03</wgt>
<wgt id='9035'>0.66704E+03</wgt>
<wgt id='9036'>0.67333E+03</wgt>
<wgt id='9037'>0.66934E+03</wgt>
<wgt id='9038'>0.66915E+03</wgt>
<wgt id='9039'>0.66914E+03</wgt>
<wgt id='9040'>0.66729E+03</wgt>
<wgt id='9041'>0.66854E+03</wgt>
<wgt id='9042'>0.67056E+03</wgt>
<wgt id='9043'>0.66785E+03</wgt>
<wgt id='9044'>0.67054E+03</wgt>
<wgt id='9045'>0.66820E+03</wgt>
<wgt id='9046'>0.66850E+03</wgt>
<wgt id='9047'>0.66827E+03</wgt>
<wgt id='9048'>0.67019E+03</wgt>
<wgt id='9049'>0.66834E+03</wgt>
<wgt id='9050'>0.66922E+03</wgt>
<wgt id='9051'>0.66952E+03</wgt>
<wgt id='9052'>0.66984E+03</wgt>
<wgt id='9053'>0.66843E+03</wgt>
<wgt id='9054'>0.66888E+03</wgt>
<wgt id='9055'>0.66887E+03</wgt>
<wgt id='9056'>0.66960E+03</wgt>
<wgt id='9057'>0.66891E+03</wgt>
<wgt id='9058'>0.66829E+03</wgt>
<wgt id='9059'>0.66957E+03</wgt>
<wgt id='9060'>0.66892E+03</wgt>
<wgt id='9061'>0.66939E+03</wgt>
<wgt id='9062'>0.67033E+03</wgt>
<wgt id='9063'>0.66907E+03</wgt>
<wgt id='9064'>0.66881E+03</wgt>
<wgt id='9065'>0.66964E+03</wgt>
<wgt id='9066'>0.66987E+03</wgt>
<wgt id='9067'>0.66966E+03</wgt>
<wgt id='9068'>0.66885E+03</wgt>
<wgt id='9069'>0.66983E+03</wgt>
<wgt id='9070'>0.66982E+03</wgt>
<wgt id='9071'>0.66969E+03</wgt>
<wgt id='9072'>0.66989E+03</wgt>
<wgt id='9073'>0.66916E+03</wgt>
<wgt id='9074'>0.66927E+03</wgt>
<wgt id='9075'>0.66920E+03</wgt>
<wgt id='9076'>0.66949E+03</wgt>
<wgt id='9077'>0.66980E+03</wgt>
<wgt id='9078'>0.66932E+03</wgt>
<wgt id='9079'>0.66971E+03</wgt>
<wgt id='9080'>0.66962E+03</wgt>
<wgt id='9081'>0.66942E+03</wgt>
<wgt id='9082'>0.66946E+03</wgt>
<wgt id='9083'>0.66922E+03</wgt>
<wgt id='9084'>0.66901E+03</wgt>
<wgt id='9085'>0.66905E+03</wgt>
<wgt id='9086'>0.66928E+03</wgt>
<wgt id='9087'>0.66903E+03</wgt>
<wgt id='9088'>0.66930E+03</wgt>
<wgt id='9089'>0.66928E+03</wgt>
<wgt id='9090'>0.66949E+03</wgt>
<wgt id='9091'>0.66939E+03</wgt>
<wgt id='9092'>0.66935E+03</wgt>
<wgt id='9093'>0.66934E+03</wgt>
<wgt id='9094'>0.66895E+03</wgt>
<wgt id='9095'>0.66953E+03</wgt>
<wgt id='9096'>0.66942E+03</wgt>
<wgt id='9097'>0.66932E+03</wgt>
<wgt id='9098'>0.66938E+03</wgt>
<wgt id='9099'>0.66929E+03</wgt>
<wgt id='9100'>0.66940E+03</wgt>
<wgt id='9101'>0.65046E+03</wgt>
<wgt id='9102'>0.68719E+03</wgt>
<wgt id='10000'>0.66706E+03</wgt>
<wgt id='10001'>0.66172E+03</wgt>
<wgt id='10002'>0.65786E+03</wgt>
<wgt id='10003'>0.66662E+03</wgt>
<wgt id='10004'>0.67512E+03</wgt>
<wgt id='10005'>0.66825E+03</wgt>
<wgt id='10006'>0.66638E+03</wgt>
<wgt id='10007'>0.66689E+03</wgt>
<wgt id='10008'>0.66896E+03</wgt>
<wgt id='10009'>0.66803E+03</wgt>
<wgt id='10010'>0.66781E+03</wgt>
<wgt id='10011'>0.66406E+03</wgt>
<wgt id='10012'>0.67307E+03</wgt>
<wgt id='10013'>0.66699E+03</wgt>
<wgt id='10014'>0.66464E+03</wgt>
<wgt id='10015'>0.66885E+03</wgt>
<wgt id='10016'>0.66749E+03</wgt>
<wgt id='10017'>0.66526E+03</wgt>
<wgt id='10018'>0.66705E+03</wgt>
<wgt id='10019'>0.66901E+03</wgt>
<wgt id='10020'>0.67263E+03</wgt>
<wgt id='10021'>0.66472E+03</wgt>
<wgt id='10022'>0.66520E+03</wgt>
<wgt id='10023'>0.66768E+03</wgt>
<wgt id='10024'>0.66406E+03</wgt>
<wgt id='10025'>0.66772E+03</wgt>
<wgt id='10026'>0.66581E+03</wgt>
<wgt id='10027'>0.66776E+03</wgt>
<wgt id='10028'>0.66647E+03</wgt>
<wgt id='10029'>0.66622E+03</wgt>
<wgt id='10030'>0.66837E+03</wgt>
<wgt id='10031'>0.64795E+03</wgt>
<wgt id='10032'>0.68490E+03</wgt>
<wgt id='11000'>0.66942E+03</wgt>
<wgt id='11001'>0.66968E+03</wgt>
<wgt id='11002'>0.67181E+03</wgt>
<wgt id='11003'>0.66908E+03</wgt>
<wgt id='11004'>0.66114E+03</wgt>
<wgt id='11005'>0.66377E+03</wgt>
<wgt id='11006'>0.66951E+03</wgt>
<wgt id='11007'>0.66880E+03</wgt>
<wgt id='11008'>0.66788E+03</wgt>
<wgt id='11009'>0.66516E+03</wgt>
<wgt id='11010'>0.66769E+03</wgt>
<wgt id='11011'>0.67259E+03</wgt>
<wgt id='11012'>0.66991E+03</wgt>
<wgt id='11013'>0.66939E+03</wgt>
<wgt id='11014'>0.66868E+03</wgt>
<wgt id='11015'>0.66800E+03</wgt>
<wgt id='11016'>0.66826E+03</wgt>
<wgt id='11017'>0.66560E+03</wgt>
<wgt id='11018'>0.66947E+03</wgt>
<wgt id='11019'>0.67060E+03</wgt>
<wgt id='11020'>0.66583E+03</wgt>
<wgt id='11021'>0.66891E+03</wgt>
<wgt id='11022'>0.67183E+03</wgt>
<wgt id='11023'>0.66928E+03</wgt>
<wgt id='11024'>0.67014E+03</wgt>
<wgt id='11025'>0.66983E+03</wgt>
<wgt id='11026'>0.66996E+03</wgt>
<wgt id='11027'>0.67116E+03</wgt>
<wgt id='11028'>0.67137E+03</wgt>
<wgt id='11029'>0.66925E+03</wgt>
<wgt id='11030'>0.67659E+03</wgt>
<wgt id='11031'>0.65046E+03</wgt>
<wgt id='11032'>0.68719E+03</wgt>
<wgt id='12000'>0.74011E+03</wgt>
<wgt id='12001'>0.74091E+03</wgt>
<wgt id='12002'>0.73931E+03</wgt>
<wgt id='12003'>0.73903E+03</wgt>
<wgt id='12004'>0.74119E+03</wgt>
<wgt id='12005'>0.73942E+03</wgt>
<wgt id='12006'>0.74079E+03</wgt>
<wgt id='12007'>0.73955E+03</wgt>
<wgt id='12008'>0.74062E+03</wgt>
<wgt id='12009'>0.74487E+03</wgt>
<wgt id='12010'>0.73535E+03</wgt>
<wgt id='12011'>0.74152E+03</wgt>
<wgt id='12012'>0.73874E+03</wgt>
<wgt id='12013'>0.73781E+03</wgt>
<wgt id='12014'>0.74239E+03</wgt>
<wgt id='12015'>0.73771E+03</wgt>
<wgt id='12016'>0.74201E+03</wgt>
<wgt id='12017'>0.73791E+03</wgt>
<wgt id='12018'>0.74216E+03</wgt>
<wgt id='12019'>0.73816E+03</wgt>
<wgt id='12020'>0.74203E+03</wgt>
<wgt id='12021'>0.74239E+03</wgt>
<wgt id='12022'>0.73776E+03</wgt>
<wgt id='12023'>0.73334E+03</wgt>
<wgt id='12024'>0.74528E+03</wgt>
<wgt id='12025'>0.74299E+03</wgt>
<wgt id='12026'>0.73708E+03</wgt>
<wgt id='12027'>0.73545E+03</wgt>
<wgt id='12028'>0.74318E+03</wgt>
<wgt id='12050'>0.74011E+03</wgt>
<wgt id='12051'>0.74430E+03</wgt>
<wgt id='12052'>0.73376E+03</wgt>
<wgt id='12053'>0.74484E+03</wgt>
<wgt id='12054'>0.73570E+03</wgt>
<wgt id='12055'>0.74411E+03</wgt>
<wgt id='12056'>0.73643E+03</wgt>
<wgt id='12057'>0.73881E+03</wgt>
<wgt id='12058'>0.74086E+03</wgt>
<wgt id='12059'>0.73553E+03</wgt>
<wgt id='12060'>0.74410E+03</wgt>
<wgt id='12061'>0.73914E+03</wgt>
<wgt id='12062'>0.74441E+03</wgt>
<wgt id='12063'>0.76834E+03</wgt>
<wgt id='13000'>0.73522E+03</wgt>
<wgt id='13001'>0.73559E+03</wgt>
<wgt id='13002'>0.73411E+03</wgt>
<wgt id='13003'>0.73392E+03</wgt>
<wgt id='13004'>0.73578E+03</wgt>
<wgt id='13005'>0.73360E+03</wgt>
<wgt id='13006'>0.73609E+03</wgt>
<wgt id='13007'>0.73245E+03</wgt>
<wgt id='13008'>0.73719E+03</wgt>
<wgt id='13009'>0.73830E+03</wgt>
<wgt id='13010'>0.73139E+03</wgt>
<wgt id='13011'>0.73705E+03</wgt>
<wgt id='13012'>0.73265E+03</wgt>
<wgt id='13013'>0.73207E+03</wgt>
<wgt id='13014'>0.73761E+03</wgt>
<wgt id='13015'>0.73325E+03</wgt>
<wgt id='13016'>0.73610E+03</wgt>
<wgt id='13017'>0.73685E+03</wgt>
<wgt id='13018'>0.73280E+03</wgt>
<wgt id='13019'>0.73455E+03</wgt>
<wgt id='13020'>0.73517E+03</wgt>
<wgt id='13021'>0.72978E+03</wgt>
<wgt id='13022'>0.73981E+03</wgt>
<wgt id='13023'>0.73601E+03</wgt>
<wgt id='13024'>0.73342E+03</wgt>
<wgt id='13025'>0.73103E+03</wgt>
<wgt id='13026'>0.73707E+03</wgt>
<wgt id='13027'>0.73018E+03</wgt>
<wgt id='13028'>0.73744E+03</wgt>
<wgt id='13050'>0.73523E+03</wgt>
<wgt id='13051'>0.74133E+03</wgt>
<wgt id='13052'>0.72500E+03</wgt>
<wgt id='13053'>0.74219E+03</wgt>
<wgt id='13054'>0.72886E+03</wgt>
<wgt id='13055'>0.73739E+03</wgt>
<wgt id='13056'>0.72421E+03</wgt>
<wgt id='13057'>0.73386E+03</wgt>
<wgt id='13058'>0.73774E+03</wgt>
<wgt id='13059'>0.72186E+03</wgt>
<wgt id='13060'>0.73817E+03</wgt>
<wgt id='13061'>0.72261E+03</wgt>
<wgt id='13062'>0.74781E+03</wgt>
<wgt id='13063'>0.73296E+03</wgt>
<wgt id='14000'>0.67151E+03</wgt>
<wgt id='14001'>0.67135E+03</wgt>
<wgt id='14002'>0.67120E+03</wgt>
<wgt id='14003'>0.67105E+03</wgt>
<wgt id='14004'>0.67090E+03</wgt>
<wgt id='14005'>0.67074E+03</wgt>
<wgt id='14006'>0.67059E+03</wgt>
<wgt id='14007'>0.67044E+03</wgt>
<wgt id='14008'>0.67029E+03</wgt>
<wgt id='14009'>0.67013E+03</wgt>
<wgt id='14010'>0.66998E+03</wgt>
<wgt id='14011'>0.66983E+03</wgt>
<wgt id='14012'>0.66968E+03</wgt>
<wgt id='14013'>0.66952E+03</wgt>
<wgt id='14014'>0.66937E+03</wgt>
<wgt id='14015'>0.66922E+03</wgt>
<wgt id='14016'>0.66907E+03</wgt>
<wgt id='14017'>0.66891E+03</wgt>
<wgt id='14018'>0.66876E+03</wgt>
<wgt id='14019'>0.66861E+03</wgt>
<wgt id='14020'>0.66846E+03</wgt>
<wgt id='14021'>0.66830E+03</wgt>
<wgt id='14022'>0.66815E+03</wgt>
<wgt id='14023'>0.66800E+03</wgt>
<wgt id='14024'>0.66785E+03</wgt>
<wgt id='14025'>0.66769E+03</wgt>
<wgt id='14026'>0.66754E+03</wgt>
<wgt id='14027'>0.66739E+03</wgt>
<wgt id='14028'>0.66724E+03</wgt>
<wgt id='14029'>0.66708E+03</wgt>
<wgt id='14030'>0.66693E+03</wgt>
<wgt id='15000'>0.66417E+03</wgt>
<wgt id='15001'>0.66481E+03</wgt>
<wgt id='15002'>0.66239E+03</wgt>
<wgt id='15003'>0.66519E+03</wgt>
<wgt id='15004'>0.66737E+03</wgt>
<wgt id='15005'>0.66835E+03</wgt>
<wgt id='15006'>0.66652E+03</wgt>
<wgt id='15007'>0.66501E+03</wgt>
<wgt id='15008'>0.66432E+03</wgt>
<wgt id='15009'>0.66517E+03</wgt>
<wgt id='15010'>0.66400E+03</wgt>
<wgt id='15011'>0.66975E+03</wgt>
<wgt id='15012'>0.66365E+03</wgt>
<wgt id='15013'>0.66586E+03</wgt>
<wgt id='15014'>0.66068E+03</wgt>
<wgt id='15015'>0.66303E+03</wgt>
<wgt id='15016'>0.66415E+03</wgt>
<wgt id='15017'>0.66374E+03</wgt>
<wgt id='15018'>0.66676E+03</wgt>
<wgt id='15019'>0.65774E+03</wgt>
<wgt id='15020'>0.66529E+03</wgt>
<wgt id='15021'>0.66629E+03</wgt>
<wgt id='15022'>0.66049E+03</wgt>
<wgt id='15023'>0.66770E+03</wgt>
<wgt id='15024'>0.66837E+03</wgt>
<wgt id='15025'>0.66329E+03</wgt>
<wgt id='15026'>0.66350E+03</wgt>
<wgt id='15027'>0.66549E+03</wgt>
<wgt id='15028'>0.66380E+03</wgt>
<wgt id='15029'>0.66347E+03</wgt>
<wgt id='15030'>0.66383E+03</wgt>
<wgt id='15031'>0.66768E+03</wgt>
<wgt id='15032'>0.66559E+03</wgt>
<wgt id='15033'>0.66662E+03</wgt>
<wgt id='15034'>0.66635E+03</wgt>
<wgt id='15035'>0.66181E+03</wgt>
<wgt id='15036'>0.66809E+03</wgt>
<wgt id='15037'>0.66411E+03</wgt>
<wgt id='15038'>0.66392E+03</wgt>
<wgt id='15039'>0.66389E+03</wgt>
<wgt id='15040'>0.66207E+03</wgt>
<wgt id='15041'>0.66331E+03</wgt>
<wgt id='15042'>0.66532E+03</wgt>
<wgt id='15043'>0.66267E+03</wgt>
<wgt id='15044'>0.66529E+03</wgt>
<wgt id='15045'>0.66299E+03</wgt>
<wgt id='15046'>0.66330E+03</wgt>
<wgt id='15047'>0.66303E+03</wgt>
<wgt id='15048'>0.66497E+03</wgt>
<wgt id='15049'>0.66312E+03</wgt>
<wgt id='15050'>0.66400E+03</wgt>
<wgt id='15051'>0.66429E+03</wgt>
<wgt id='15052'>0.66462E+03</wgt>
<wgt id='15053'>0.66321E+03</wgt>
<wgt id='15054'>0.66367E+03</wgt>
<wgt id='15055'>0.66366E+03</wgt>
<wgt id='15056'>0.66435E+03</wgt>
<wgt id='15057'>0.66370E+03</wgt>
<wgt id='15058'>0.66309E+03</wgt>
<wgt id='15059'>0.66435E+03</wgt>
<wgt id='15060'>0.66372E+03</wgt>
<wgt id='15061'>0.66417E+03</wgt>
<wgt id='15062'>0.66509E+03</wgt>
<wgt id='15063'>0.66383E+03</wgt>
<wgt id='15064'>0.66361E+03</wgt>
<wgt id='15065'>0.66441E+03</wgt>
<wgt id='15066'>0.66463E+03</wgt>
<wgt id='15067'>0.66442E+03</wgt>
<wgt id='15068'>0.66363E+03</wgt>
<wgt id='15069'>0.66459E+03</wgt>
<wgt id='15070'>0.66459E+03</wgt>
<wgt id='15071'>0.66446E+03</wgt>
<wgt id='15072'>0.66466E+03</wgt>
<wgt id='15073'>0.66393E+03</wgt>
<wgt id='15074'>0.66405E+03</wgt>
<wgt id='15075'>0.66398E+03</wgt>
<wgt id='15076'>0.66427E+03</wgt>
<wgt id='15077'>0.66457E+03</wgt>
<wgt id='15078'>0.66411E+03</wgt>
<wgt id='15079'>0.66448E+03</wgt>
<wgt id='15080'>0.66438E+03</wgt>
<wgt id='15081'>0.66422E+03</wgt>
<wgt id='15082'>0.66424E+03</wgt>
<wgt id='15083'>0.66400E+03</wgt>
<wgt id='15084'>0.66378E+03</wgt>
<wgt id='15085'>0.66383E+03</wgt>
<wgt id='15086'>0.66408E+03</wgt>
<wgt id='15087'>0.66380E+03</wgt>
<wgt id='15088'>0.66407E+03</wgt>
<wgt id='15089'>0.66405E+03</wgt>
<wgt id='15090'>0.66426E+03</wgt>
<wgt id='15091'>0.66415E+03</wgt>
<wgt id='15092'>0.66412E+03</wgt>
<wgt id='15093'>0.66412E+03</wgt>
<wgt id='15094'>0.66372E+03</wgt>
<wgt id='15095'>0.66431E+03</wgt>
<wgt id='15096'>0.66420E+03</wgt>
<wgt id='15097'>0.66410E+03</wgt>
<wgt id='15098'>0.66415E+03</wgt>
<wgt id='15099'>0.66408E+03</wgt>
<wgt id='15100'>0.66418E+03</wgt>
<wgt id='15101'>0.66417E+03</wgt>
<wgt id='15102'>0.66416E+03</wgt>
<wgt id='15103'>0.66417E+03</wgt>
<wgt id='15104'>0.66417E+03</wgt>
<wgt id='15105'>0.66417E+03</wgt>
<wgt id='15106'>0.66417E+03</wgt>
<wgt id='15107'>0.66416E+03</wgt>
<wgt id='1500'>0.66713E+03</wgt>
<wgt id='1501'>0.64242E+03</wgt>
<wgt id='1502'>0.66072E+03</wgt>
<wgt id='1503'>0.69668E+03</wgt>
<wgt id='1504'>0.68978E+03</wgt>
<wgt id='1505'>0.65704E+03</wgt>
<wgt id='1506'>0.67013E+03</wgt>
<wgt id='1507'>0.66817E+03</wgt>
<wgt id='1508'>0.65318E+03</wgt>
<wgt id='1509'>0.67064E+03</wgt>
<wgt id='1510'>0.64985E+03</wgt>
<wgt id='1511'>0.65457E+03</wgt>
<wgt id='1512'>0.68001E+03</wgt>
<wgt id='1513'>0.68229E+03</wgt>
<wgt id='1514'>0.66879E+03</wgt>
<wgt id='1515'>0.66180E+03</wgt>
<wgt id='1516'>0.65433E+03</wgt>
<wgt id='1517'>0.65562E+03</wgt>
<wgt id='1518'>0.64487E+03</wgt>
<wgt id='1519'>0.65827E+03</wgt>
<wgt id='1520'>0.65606E+03</wgt>
<wgt id='1521'>0.68927E+03</wgt>
<wgt id='1522'>0.65650E+03</wgt>
<wgt id='1523'>0.69349E+03</wgt>
<wgt id='1524'>0.68306E+03</wgt>
<wgt id='1525'>0.67183E+03</wgt>
<wgt id='1526'>0.67705E+03</wgt>
<wgt id='1527'>0.65527E+03</wgt>
<wgt id='1528'>0.66450E+03</wgt>
<wgt id='1529'>0.66366E+03</wgt>
<wgt id='1530'>0.67110E+03</wgt>
<wgt id='1531'>0.67472E+03</wgt>
<wgt id='1532'>0.66896E+03</wgt>
<wgt id='1533'>0.66894E+03</wgt>
<wgt id='1534'>0.67667E+03</wgt>
<wgt id='1535'>0.68650E+03</wgt>
<wgt id='1536'>0.67259E+03</wgt>
<wgt id='1537'>0.65182E+03</wgt>
<wgt id='1538'>0.64075E+03</wgt>
<wgt id='1539'>0.66216E+03</wgt>
<wgt id='1540'>0.67192E+03</wgt>
<wgt id='1541'>0.67418E+03</wgt>
<wgt id='1542'>0.67022E+03</wgt>
<wgt id='1543'>0.67537E+03</wgt>
<wgt id='1544'>0.65989E+03</wgt>
<wgt id='1545'>0.66917E+03</wgt>
<wgt id='1546'>0.66949E+03</wgt>
<wgt id='1547'>0.64886E+03</wgt>
<wgt id='1548'>0.66001E+03</wgt>
<wgt id='1549'>0.67883E+03</wgt>
<wgt id='1550'>0.68331E+03</wgt>
<wgt id='1551'>0.67559E+03</wgt>
<wgt id='1552'>0.67734E+03</wgt>
<wgt id='1553'>0.67049E+03</wgt>
<wgt id='1554'>0.67030E+03</wgt>
<wgt id='1555'>0.67802E+03</wgt>
<wgt id='1556'>0.65093E+03</wgt>
<wgt id='1557'>0.68603E+03</wgt>
<wgt id='1558'>0.68335E+03</wgt>
<wgt id='1559'>0.65785E+03</wgt>
<wgt id='1560'>0.66913E+03</wgt>
<wgt id='1561'>0.67396E+03</wgt>
<wgt id='1562'>0.66539E+03</wgt>
<wgt id='1563'>0.67769E+03</wgt>
<wgt id='1564'>0.62186E+03</wgt>
<wgt id='1565'>0.68237E+03</wgt>
<wgt id='1566'>0.66731E+03</wgt>
<wgt id='1567'>0.66922E+03</wgt>
<wgt id='1568'>0.66914E+03</wgt>
<wgt id='1569'>0.65330E+03</wgt>
<wgt id='1570'>0.65594E+03</wgt>
<wgt id='1571'>0.67754E+03</wgt>
<wgt id='1572'>0.66530E+03</wgt>
<wgt id='1573'>0.64204E+03</wgt>
<wgt id='1574'>0.69785E+03</wgt>
<wgt id='1575'>0.66411E+03</wgt>
<wgt id='1576'>0.67193E+03</wgt>
<wgt id='1577'>0.66392E+03</wgt>
<wgt id='1578'>0.66778E+03</wgt>
<wgt id='1579'>0.66299E+03</wgt>
<wgt id='1580'>0.67205E+03</wgt>
<wgt id='1581'>0.67460E+03</wgt>
<wgt id='1582'>0.68297E+03</wgt>
<wgt id='1583'>0.64703E+03</wgt>
<wgt id='1584'>0.67073E+03</wgt>
<wgt id='1585'>0.66524E+03</wgt>
<wgt id='1586'>0.65597E+03</wgt>
<wgt id='1587'>0.67229E+03</wgt>
<wgt id='1588'>0.68397E+03</wgt>
<wgt id='1589'>0.65267E+03</wgt>
<wgt id='1590'>0.66970E+03</wgt>
<wgt id='1591'>0.66098E+03</wgt>
<wgt id='1592'>0.66743E+03</wgt>
<wgt id='1593'>0.65867E+03</wgt>
<wgt id='1594'>0.65841E+03</wgt>
<wgt id='1595'>0.65052E+03</wgt>
<wgt id='1596'>0.66294E+03</wgt>
<wgt id='1597'>0.66361E+03</wgt>
<wgt id='1598'>0.68860E+03</wgt>
<wgt id='1599'>0.67602E+03</wgt>
<wgt id='1600'>0.64487E+03</wgt>
<wgt id='1601'>0.65596E+03</wgt>
<wgt id='1602'>0.67917E+03</wgt>
<wgt id='1700'>0.66510E+03</wgt>
<wgt id='1800'>0.70436E+03</wgt>
<wgt id='1850'>0.84446E+03</wgt>
<wgt id='1900'>0.63913E+03</wgt>
<wgt id='1950'>0.81013E+03</wgt>
</rwgt>
</event>
<event>
     13 322222  6.87070E+02  9.07710E+01 -1.00000E+00  1.24113E-01
      21    -1     0     0   504   505  0.000000000E+00  0.000000000E+00  6.575312135E+01  6.575312135E+01  0.000000000E+00  0.00000E+00  9.000E+00
      21    -1     0     0   502   503  0.000000000E+00  0.000000000E+00 -1.479555302E+03  1.479555302E+03  0.000000000E+00  0.00000E+00  9.000E+00
       6     2     1     2   502     0 -1.402749667E+02 -1.646349145E+01 -7.097897525E+02  7.324535502E+02  1.128653962E+02  0.00000E+00  9.000E+00
      -6     2     1     2     0   505  2.047275626E+02  8.037940198E+01 -3.482330140E+02  4.456786589E+02  1.702615983E+02  0.00000E+00  9.000E+00
      21     1     1     2   504   503 -6.445259591E+01 -6.391591053E+01 -3.557794139E+02  3.671762139E+02  3.814697266E-06  0.00000E+00  9.000E+00
      24     2     3     3     0     0 -1.028507204E+02 -3.135099994E+01 -4.443629814E+02  4.639454071E+02  7.890326754E+01  0.00000E+00  9.000E+00
       5     1     3     3   502     0 -3.742424630E+01  1.488750849E+01 -2.654267711E+02  2.685081431E+02  4.800000000E+00  0.00000E+00 -1.000E+00
     -24     2     4     4     0     0  9.484377800E+01  1.063943879E+02 -2.145654030E+02  2.706321056E+02  8.299588195E+01  0.00000E+00  9.000E+00
      -5     1     4     4     0   505  1.098837846E+02 -2.601498590E+01 -1.336676110E+02  1.750465533E+02  4.800000000E+00  0.00000E+00  1.000E+00
      -3     1     6     6     0   514 -1.473633039E+01  1.871262177E+01 -3.581250064E+01  4.301042721E+01  2.000000000E-01  0.00000E+00  1.000E+00
       4     1     6     6   514     0 -8.811438997E+01 -5.006362171E+01 -4.085504808E+02  4.209349799E+02  1.500000000E+00  0.00000E+00 -1.000E+00
       1     1     8     8   515     0  3.335999347E+01  7.704469283E+01 -1.688935716E+02  1.886102393E+02  1.000000000E-01  0.00000E+00 -1.000E+00
      -2     1     8     8     0   515  6.148378453E+01  2.934969505E+01 -4.567183137E+01  8.202186623E+01  1.000000000E-01  0.00000E+00  1.000E+00
#rwgt            2           1   34.888054157073370                2        7775           0
<rwgt>
<wgt id='1001'>0.68707E+03</wgt>
<wgt id='1002'>0.62550E+03</wgt>
<wgt id='1003'>0.75689E+03</wgt>
<wgt id='1004'>0.53160E+03</wgt>
<wgt id='1005'>0.48396E+03</wgt>
<wgt id='1006'>0.58562E+03</wgt>
<wgt id='1007'>0.91068E+03</wgt>
<wgt id='1008'>0.82907E+03</wgt>
<wgt id='1009'>0.10032E+04</wgt>
<wgt id='2000'>0.68707E+03</wgt>
<wgt id='2001'>0.68640E+03</wgt>
<wgt id='2002'>0.68728E+03</wgt>
<wgt id='2003'>0.68645E+03</wgt>
<wgt id='2004'>0.68970E+03</wgt>
<wgt id='2005'>0.68702E+03</wgt>
<wgt id='2006'>0.68533E+03</wgt>
<wgt id='2007'>0.68609E+03</wgt>
<wgt id='2008'>0.68434E+03</wgt>
<wgt id='2009'>0.68871E+03</wgt>
<wgt id='2010'>0.68536E+03</wgt>
<wgt id='2011'>0.68501E+03</wgt>
<wgt id='2012'>0.68696E+03</wgt>
<wgt id='2013'>0.68588E+03</wgt>
<wgt id='2014'>0.68646E+03</wgt>
<wgt id='2015'>0.68711E+03</wgt>
<wgt id='2016'>0.68807E+03</wgt>
<wgt id='2017'>0.68706E+03</wgt>
<wgt id='2018'>0.68694E+03</wgt>
<wgt id='2019'>0.68723E+03</wgt>
<wgt id='2020'>0.68771E+03</wgt>
<wgt id='2021'>0.68776E+03</wgt>
<wgt id='2022'>0.68782E+03</wgt>
<wgt id='2023'>0.68935E+03</wgt>
<wgt id='2024'>0.68565E+03</wgt>
<wgt id='2025'>0.68813E+03</wgt>
<wgt id='2026'>0.68958E+03</wgt>
<wgt id='2027'>0.68561E+03</wgt>
<wgt id='2028'>0.68507E+03</wgt>
<wgt id='2029'>0.69215E+03</wgt>
<wgt id='2030'>0.68761E+03</wgt>
<wgt id='2031'>0.68718E+03</wgt>
<wgt id='2032'>0.68665E+03</wgt>
<wgt id='2033'>0.68617E+03</wgt>
<wgt id='2034'>0.68697E+03</wgt>
<wgt id='2035'>0.68886E+03</wgt>
<wgt id='2036'>0.68880E+03</wgt>
<wgt id='2037'>0.68560E+03</wgt>
<wgt id='2038'>0.68603E+03</wgt>
<wgt id='2039'>0.68499E+03</wgt>
<wgt id='2040'>0.68910E+03</wgt>
<wgt id='2041'>0.68969E+03</wgt>
<wgt id='2042'>0.68963E+03</wgt>
<wgt id='2043'>0.68067E+03</wgt>
<wgt id='2044'>0.68552E+03</wgt>
<wgt id='2045'>0.68727E+03</wgt>
<wgt id='2046'>0.69084E+03</wgt>
<wgt id='2047'>0.68954E+03</wgt>
<wgt id='2048'>0.68367E+03</wgt>
<wgt id='2049'>0.68470E+03</wgt>
<wgt id='2050'>0.68867E+03</wgt>
<wgt id='2051'>0.68360E+03</wgt>
<wgt id='2052'>0.68534E+03</wgt>
<wgt id='2053'>0.68646E+03</wgt>
<wgt id='2054'>0.68750E+03</wgt>
<wgt id='2055'>0.68869E+03</wgt>
<wgt id='2056'>0.68579E+03</wgt>
<wgt id='2057'>0.68389E+03</wgt>
<wgt id='2058'>0.68660E+03</wgt>
<wgt id='2059'>0.68754E+03</wgt>
<wgt id='2060'>0.68742E+03</wgt>
<wgt id='2061'>0.68724E+03</wgt>
<wgt id='2062'>0.68623E+03</wgt>
<wgt id='2063'>0.68709E+03</wgt>
<wgt id='2064'>0.68695E+03</wgt>
<wgt id='2065'>0.68592E+03</wgt>
<wgt id='2066'>0.68809E+03</wgt>
<wgt id='2067'>0.68709E+03</wgt>
<wgt id='2068'>0.68720E+03</wgt>
<wgt id='2069'>0.68848E+03</wgt>
<wgt id='2070'>0.68518E+03</wgt>
<wgt id='2071'>0.68637E+03</wgt>
<wgt id='2072'>0.68706E+03</wgt>
<wgt id='2073'>0.68491E+03</wgt>
<wgt id='2074'>0.68627E+03</wgt>
<wgt id='2075'>0.68562E+03</wgt>
<wgt id='2076'>0.68902E+03</wgt>
<wgt id='2077'>0.68381E+03</wgt>
<wgt id='2078'>0.68765E+03</wgt>
<wgt id='2079'>0.68762E+03</wgt>
<wgt id='2080'>0.68825E+03</wgt>
<wgt id='2081'>0.68776E+03</wgt>
<wgt id='2082'>0.68829E+03</wgt>
<wgt id='2083'>0.68718E+03</wgt>
<wgt id='2084'>0.68662E+03</wgt>
<wgt id='2085'>0.68758E+03</wgt>
<wgt id='2086'>0.68727E+03</wgt>
<wgt id='2087'>0.68612E+03</wgt>
<wgt id='2088'>0.68740E+03</wgt>
<wgt id='2089'>0.68620E+03</wgt>
<wgt id='2090'>0.68742E+03</wgt>
<wgt id='2091'>0.68724E+03</wgt>
<wgt id='2092'>0.68665E+03</wgt>
<wgt id='2093'>0.68764E+03</wgt>
<wgt id='2094'>0.68711E+03</wgt>
<wgt id='2095'>0.68786E+03</wgt>
<wgt id='2096'>0.68631E+03</wgt>
<wgt id='2097'>0.68831E+03</wgt>
<wgt id='2098'>0.68658E+03</wgt>
<wgt id='2099'>0.68688E+03</wgt>
<wgt id='2100'>0.68731E+03</wgt>
<wgt id='2101'>0.66031E+03</wgt>
<wgt id='2102'>0.71707E+03</wgt>
<wgt id='2104'>0.56697E+03</wgt>
<wgt id='2105'>0.59063E+03</wgt>
<wgt id='2106'>0.61496E+03</wgt>
<wgt id='2107'>0.63536E+03</wgt>
<wgt id='2108'>0.67374E+03</wgt>
<wgt id='2109'>0.70198E+03</wgt>
<wgt id='2110'>0.74035E+03</wgt>
<wgt id='2111'>0.77357E+03</wgt>
<wgt id='3000'>0.75189E+03</wgt>
<wgt id='3001'>0.75193E+03</wgt>
<wgt id='3002'>0.75116E+03</wgt>
<wgt id='3003'>0.75233E+03</wgt>
<wgt id='3004'>0.75535E+03</wgt>
<wgt id='3005'>0.75278E+03</wgt>
<wgt id='3006'>0.75161E+03</wgt>
<wgt id='3007'>0.75342E+03</wgt>
<wgt id='3008'>0.75078E+03</wgt>
<wgt id='3009'>0.75320E+03</wgt>
<wgt id='3010'>0.75099E+03</wgt>
<wgt id='3011'>0.75090E+03</wgt>
<wgt id='3012'>0.75267E+03</wgt>
<wgt id='3013'>0.75350E+03</wgt>
<wgt id='3014'>0.75243E+03</wgt>
<wgt id='3015'>0.75045E+03</wgt>
<wgt id='3016'>0.75199E+03</wgt>
<wgt id='3017'>0.75185E+03</wgt>
<wgt id='3018'>0.75373E+03</wgt>
<wgt id='3019'>0.75289E+03</wgt>
<wgt id='3020'>0.75278E+03</wgt>
<wgt id='3021'>0.75104E+03</wgt>
<wgt id='3022'>0.75170E+03</wgt>
<wgt id='3023'>0.75136E+03</wgt>
<wgt id='3024'>0.75079E+03</wgt>
<wgt id='3025'>0.75353E+03</wgt>
<wgt id='3026'>0.75302E+03</wgt>
<wgt id='3027'>0.75237E+03</wgt>
<wgt id='3028'>0.74952E+03</wgt>
<wgt id='3029'>0.74888E+03</wgt>
<wgt id='3030'>0.75735E+03</wgt>
<wgt id='3031'>0.75352E+03</wgt>
<wgt id='3032'>0.75293E+03</wgt>
<wgt id='3033'>0.75408E+03</wgt>
<wgt id='3034'>0.75102E+03</wgt>
<wgt id='3035'>0.75430E+03</wgt>
<wgt id='3036'>0.75119E+03</wgt>
<wgt id='3037'>0.75296E+03</wgt>
<wgt id='3038'>0.75109E+03</wgt>
<wgt id='3039'>0.75009E+03</wgt>
<wgt id='3040'>0.75106E+03</wgt>
<wgt id='3041'>0.75269E+03</wgt>
<wgt id='3042'>0.75439E+03</wgt>
<wgt id='3043'>0.75545E+03</wgt>
<wgt id='3044'>0.75010E+03</wgt>
<wgt id='3045'>0.74943E+03</wgt>
<wgt id='3046'>0.75496E+03</wgt>
<wgt id='3047'>0.75443E+03</wgt>
<wgt id='3048'>0.74751E+03</wgt>
<wgt id='3049'>0.75202E+03</wgt>
<wgt id='3050'>0.74829E+03</wgt>
<wgt id='3051'>0.75472E+03</wgt>
<wgt id='3052'>0.75077E+03</wgt>
<wgt id='3053'>0.75091E+03</wgt>
<wgt id='3054'>0.75292E+03</wgt>
<wgt id='3055'>0.75653E+03</wgt>
<wgt id='3056'>0.75003E+03</wgt>
<wgt id='3057'>0.75217E+03</wgt>
<wgt id='3058'>0.75277E+03</wgt>
<wgt id='3059'>0.74961E+03</wgt>
<wgt id='3060'>0.75343E+03</wgt>
<wgt id='3061'>0.75061E+03</wgt>
<wgt id='3062'>0.75173E+03</wgt>
<wgt id='3063'>0.74977E+03</wgt>
<wgt id='3064'>0.75354E+03</wgt>
<wgt id='3065'>0.75019E+03</wgt>
<wgt id='3066'>0.75278E+03</wgt>
<wgt id='3067'>0.75193E+03</wgt>
<wgt id='3068'>0.75143E+03</wgt>
<wgt id='3069'>0.75034E+03</wgt>
<wgt id='3070'>0.75116E+03</wgt>
<wgt id='3071'>0.75241E+03</wgt>
<wgt id='3072'>0.75163E+03</wgt>
<wgt id='3073'>0.75165E+03</wgt>
<wgt id='3074'>0.75565E+03</wgt>
<wgt id='3075'>0.75194E+03</wgt>
<wgt id='3076'>0.75332E+03</wgt>
<wgt id='3077'>0.75355E+03</wgt>
<wgt id='3078'>0.75262E+03</wgt>
<wgt id='3079'>0.74883E+03</wgt>
<wgt id='3080'>0.75055E+03</wgt>
<wgt id='3081'>0.75110E+03</wgt>
<wgt id='3082'>0.75027E+03</wgt>
<wgt id='3083'>0.75119E+03</wgt>
<wgt id='3084'>0.75108E+03</wgt>
<wgt id='3085'>0.75336E+03</wgt>
<wgt id='3086'>0.74998E+03</wgt>
<wgt id='3087'>0.75025E+03</wgt>
<wgt id='3088'>0.75103E+03</wgt>
<wgt id='3089'>0.75154E+03</wgt>
<wgt id='3090'>0.75213E+03</wgt>
<wgt id='3091'>0.75175E+03</wgt>
<wgt id='3092'>0.75185E+03</wgt>
<wgt id='3093'>0.75241E+03</wgt>
<wgt id='3094'>0.75302E+03</wgt>
<wgt id='3095'>0.75178E+03</wgt>
<wgt id='3096'>0.75173E+03</wgt>
<wgt id='3097'>0.75187E+03</wgt>
<wgt id='3098'>0.75153E+03</wgt>
<wgt id='3099'>0.75215E+03</wgt>
<wgt id='3100'>0.75248E+03</wgt>
<wgt id='3101'>0.72863E+03</wgt>
<wgt id='3102'>0.77762E+03</wgt>
<wgt id='5000'>0.77521E+03</wgt>
<wgt id='5001'>0.77971E+03</wgt>
<wgt id='5002'>0.77953E+03</wgt>
<wgt id='5003'>0.77599E+03</wgt>
<wgt id='5004'>0.78227E+03</wgt>
<wgt id='5005'>0.79331E+03</wgt>
<wgt id='5006'>0.79554E+03</wgt>
<wgt id='5007'>0.78553E+03</wgt>
<wgt id='5008'>0.78179E+03</wgt>
<wgt id='5009'>0.78006E+03</wgt>
<wgt id='5010'>0.77343E+03</wgt>
<wgt id='5011'>0.79277E+03</wgt>
<wgt id='5012'>0.75940E+03</wgt>
<wgt id='5013'>0.78140E+03</wgt>
<wgt id='5014'>0.76922E+03</wgt>
<wgt id='5015'>0.75625E+03</wgt>
<wgt id='5016'>0.83026E+03</wgt>
<wgt id='5017'>0.76677E+03</wgt>
<wgt id='5018'>0.78360E+03</wgt>
<wgt id='5019'>0.76490E+03</wgt>
<wgt id='5020'>0.78294E+03</wgt>
<wgt id='5021'>0.76409E+03</wgt>
<wgt id='5022'>0.78233E+03</wgt>
<wgt id='5023'>0.76773E+03</wgt>
<wgt id='5024'>0.78417E+03</wgt>
<wgt id='5025'>0.77824E+03</wgt>
<wgt id='5026'>0.77275E+03</wgt>
<wgt id='5027'>0.76318E+03</wgt>
<wgt id='5028'>0.79604E+03</wgt>
<wgt id='5029'>0.80701E+03</wgt>
<wgt id='5030'>0.75614E+03</wgt>
<wgt id='5031'>0.78933E+03</wgt>
<wgt id='5032'>0.75532E+03</wgt>
<wgt id='5033'>0.76727E+03</wgt>
<wgt id='5034'>0.78319E+03</wgt>
<wgt id='5035'>0.77150E+03</wgt>
<wgt id='5036'>0.77778E+03</wgt>
<wgt id='5037'>0.75647E+03</wgt>
<wgt id='5038'>0.79720E+03</wgt>
<wgt id='5039'>0.78623E+03</wgt>
<wgt id='5040'>0.76949E+03</wgt>
<wgt id='5041'>0.79903E+03</wgt>
<wgt id='5042'>0.76794E+03</wgt>
<wgt id='5043'>0.74699E+03</wgt>
<wgt id='5044'>0.81617E+03</wgt>
<wgt id='5045'>0.77602E+03</wgt>
<wgt id='5046'>0.77659E+03</wgt>
<wgt id='5047'>0.77913E+03</wgt>
<wgt id='5048'>0.76062E+03</wgt>
<wgt id='5049'>0.77764E+03</wgt>
<wgt id='5050'>0.76513E+03</wgt>
<wgt id='5051'>0.77095E+03</wgt>
<wgt id='5052'>0.77582E+03</wgt>
<wgt id='5053'>0.74268E+03</wgt>
<wgt id='5054'>0.75807E+03</wgt>
<wgt id='5055'>0.77228E+03</wgt>
<wgt id='5056'>0.78373E+03</wgt>
<wgt id='5060'>0.73842E+03</wgt>
<wgt id='5070'>0.81744E+03</wgt>
<wgt id='4000'>0.78876E+03</wgt>
<wgt id='4001'>0.78694E+03</wgt>
<wgt id='4002'>0.78383E+03</wgt>
<wgt id='4003'>0.79444E+03</wgt>
<wgt id='4004'>0.79352E+03</wgt>
<wgt id='4005'>0.77136E+03</wgt>
<wgt id='4006'>0.79885E+03</wgt>
<wgt id='4007'>0.78973E+03</wgt>
<wgt id='4008'>0.78470E+03</wgt>
<wgt id='4009'>0.82042E+03</wgt>
<wgt id='4010'>0.76169E+03</wgt>
<wgt id='4011'>0.79328E+03</wgt>
<wgt id='4012'>0.78441E+03</wgt>
<wgt id='4013'>0.84157E+03</wgt>
<wgt id='4014'>0.75823E+03</wgt>
<wgt id='4015'>0.81145E+03</wgt>
<wgt id='4016'>0.77415E+03</wgt>
<wgt id='4017'>0.77501E+03</wgt>
<wgt id='4018'>0.80533E+03</wgt>
<wgt id='4019'>0.76283E+03</wgt>
<wgt id='4020'>0.81713E+03</wgt>
<wgt id='4021'>0.78360E+03</wgt>
<wgt id='4022'>0.79962E+03</wgt>
<wgt id='4023'>0.80774E+03</wgt>
<wgt id='4024'>0.77052E+03</wgt>
<wgt id='4025'>0.79275E+03</wgt>
<wgt id='4026'>0.78480E+03</wgt>
<wgt id='4027'>0.79913E+03</wgt>
<wgt id='4028'>0.77442E+03</wgt>
<wgt id='4029'>0.79967E+03</wgt>
<wgt id='4030'>0.78496E+03</wgt>
<wgt id='4031'>0.78707E+03</wgt>
<wgt id='4032'>0.79102E+03</wgt>
<wgt id='4033'>0.79145E+03</wgt>
<wgt id='4034'>0.78288E+03</wgt>
<wgt id='4035'>0.76743E+03</wgt>
<wgt id='4036'>0.80784E+03</wgt>
<wgt id='4037'>0.76484E+03</wgt>
<wgt id='4038'>0.82621E+03</wgt>
<wgt id='4039'>0.77717E+03</wgt>
<wgt id='4040'>0.80090E+03</wgt>
<wgt id='4041'>0.79589E+03</wgt>
<wgt id='4042'>0.77786E+03</wgt>
<wgt id='4043'>0.79250E+03</wgt>
<wgt id='4044'>0.77810E+03</wgt>
<wgt id='4045'>0.80994E+03</wgt>
<wgt id='4046'>0.78769E+03</wgt>
<wgt id='4047'>0.79207E+03</wgt>
<wgt id='4048'>0.81173E+03</wgt>
<wgt id='4049'>0.80881E+03</wgt>
<wgt id='4050'>0.80487E+03</wgt>
<wgt id='4051'>0.79320E+03</wgt>
<wgt id='4052'>0.79170E+03</wgt>
<wgt id='4053'>0.75475E+03</wgt>
<wgt id='4054'>0.79947E+03</wgt>
<wgt id='4055'>0.78398E+03</wgt>
<wgt id='4056'>0.79613E+03</wgt>
<wgt id='4060'>0.75666E+03</wgt>
<wgt id='4070'>0.82708E+03</wgt>
<wgt id='4080'>0.94980E+03</wgt>
<wgt id='6000'>0.75766E+03</wgt>
<wgt id='6001'>0.75812E+03</wgt>
<wgt id='6002'>0.75718E+03</wgt>
<wgt id='6003'>0.75812E+03</wgt>
<wgt id='6004'>0.75736E+03</wgt>
<wgt id='6005'>0.76192E+03</wgt>
<wgt id='6006'>0.75375E+03</wgt>
<wgt id='6007'>0.75627E+03</wgt>
<wgt id='6008'>0.75927E+03</wgt>
<wgt id='6009'>0.75849E+03</wgt>
<wgt id='6010'>0.75682E+03</wgt>
<wgt id='6011'>0.75801E+03</wgt>
<wgt id='6012'>0.75693E+03</wgt>
<wgt id='6013'>0.75758E+03</wgt>
<wgt id='6014'>0.75782E+03</wgt>
<wgt id='6015'>0.75776E+03</wgt>
<wgt id='6016'>0.75762E+03</wgt>
<wgt id='6017'>0.75432E+03</wgt>
<wgt id='6018'>0.76158E+03</wgt>
<wgt id='6019'>0.75739E+03</wgt>
<wgt id='6020'>0.75789E+03</wgt>
<wgt id='6021'>0.75505E+03</wgt>
<wgt id='6022'>0.76106E+03</wgt>
<wgt id='6023'>0.75217E+03</wgt>
<wgt id='6024'>0.76119E+03</wgt>
<wgt id='6025'>0.76764E+03</wgt>
<wgt id='6026'>0.74781E+03</wgt>
<wgt id='6027'>0.75704E+03</wgt>
<wgt id='6028'>0.75782E+03</wgt>
<wgt id='6029'>0.74780E+03</wgt>
<wgt id='6030'>0.76990E+03</wgt>
<wgt id='6031'>0.73914E+03</wgt>
<wgt id='6032'>0.77980E+03</wgt>
<wgt id='6033'>0.76479E+03</wgt>
<wgt id='6034'>0.75093E+03</wgt>
<wgt id='6035'>0.76108E+03</wgt>
<wgt id='6036'>0.74976E+03</wgt>
<wgt id='6037'>0.75746E+03</wgt>
<wgt id='6038'>0.75708E+03</wgt>
<wgt id='6039'>0.75354E+03</wgt>
<wgt id='6040'>0.76242E+03</wgt>
<wgt id='6041'>0.74648E+03</wgt>
<wgt id='6042'>0.77057E+03</wgt>
<wgt id='6043'>0.76179E+03</wgt>
<wgt id='6044'>0.75719E+03</wgt>
<wgt id='6045'>0.75540E+03</wgt>
<wgt id='6046'>0.76341E+03</wgt>
<wgt id='6047'>0.74718E+03</wgt>
<wgt id='6048'>0.77603E+03</wgt>
<wgt id='6049'>0.75011E+03</wgt>
<wgt id='6050'>0.76186E+03</wgt>
<wgt id='7000'>0.75900E+03</wgt>
<wgt id='7001'>0.75880E+03</wgt>
<wgt id='7002'>0.75930E+03</wgt>
<wgt id='7003'>0.76176E+03</wgt>
<wgt id='7004'>0.75628E+03</wgt>
<wgt id='7005'>0.76084E+03</wgt>
<wgt id='7006'>0.75826E+03</wgt>
<wgt id='7007'>0.75962E+03</wgt>
<wgt id='7008'>0.75843E+03</wgt>
<wgt id='7009'>0.75984E+03</wgt>
<wgt id='7010'>0.75821E+03</wgt>
<wgt id='7011'>0.75725E+03</wgt>
<wgt id='7012'>0.75978E+03</wgt>
<wgt id='7013'>0.75867E+03</wgt>
<wgt id='7014'>0.75945E+03</wgt>
<wgt id='7015'>0.75911E+03</wgt>
<wgt id='7016'>0.75896E+03</wgt>
<wgt id='7017'>0.75483E+03</wgt>
<wgt id='7018'>0.76135E+03</wgt>
<wgt id='7019'>0.75896E+03</wgt>
<wgt id='7020'>0.75909E+03</wgt>
<wgt id='7021'>0.75952E+03</wgt>
<wgt id='7022'>0.75866E+03</wgt>
<wgt id='7023'>0.76180E+03</wgt>
<wgt id='7024'>0.75632E+03</wgt>
<wgt id='7025'>0.76004E+03</wgt>
<wgt id='7026'>0.75635E+03</wgt>
<wgt id='7027'>0.75676E+03</wgt>
<wgt id='7028'>0.76025E+03</wgt>
<wgt id='7029'>0.76958E+03</wgt>
<wgt id='7030'>0.73316E+03</wgt>
<wgt id='7031'>0.74989E+03</wgt>
<wgt id='7032'>0.77884E+03</wgt>
<wgt id='7033'>0.76301E+03</wgt>
<wgt id='7034'>0.75171E+03</wgt>
<wgt id='7035'>0.74514E+03</wgt>
<wgt id='7036'>0.76569E+03</wgt>
<wgt id='7037'>0.75830E+03</wgt>
<wgt id='7038'>0.76039E+03</wgt>
<wgt id='7039'>0.75277E+03</wgt>
<wgt id='7040'>0.76381E+03</wgt>
<wgt id='7041'>0.77239E+03</wgt>
<wgt id='7042'>0.73957E+03</wgt>
<wgt id='7043'>0.76018E+03</wgt>
<wgt id='7044'>0.75267E+03</wgt>
<wgt id='7045'>0.76495E+03</wgt>
<wgt id='7046'>0.75398E+03</wgt>
<wgt id='7047'>0.75726E+03</wgt>
<wgt id='7048'>0.75973E+03</wgt>
<wgt id='7049'>0.77013E+03</wgt>
<wgt id='7050'>0.75037E+03</wgt>
<wgt id='7060'>0.11169E+04</wgt>
<wgt id='8000'>0.67507E+03</wgt>
<wgt id='8001'>0.67500E+03</wgt>
<wgt id='8002'>0.67525E+03</wgt>
<wgt id='8003'>0.67504E+03</wgt>
<wgt id='8004'>0.67505E+03</wgt>
<wgt id='8005'>0.67392E+03</wgt>
<wgt id='8006'>0.67611E+03</wgt>
<wgt id='8007'>0.67677E+03</wgt>
<wgt id='8008'>0.67619E+03</wgt>
<wgt id='8009'>0.67744E+03</wgt>
<wgt id='8010'>0.67419E+03</wgt>
<wgt id='8011'>0.67568E+03</wgt>
<wgt id='8012'>0.67282E+03</wgt>
<wgt id='8013'>0.67353E+03</wgt>
<wgt id='8014'>0.67695E+03</wgt>
<wgt id='8015'>0.67464E+03</wgt>
<wgt id='8016'>0.67657E+03</wgt>
<wgt id='8017'>0.67660E+03</wgt>
<wgt id='8018'>0.67867E+03</wgt>
<wgt id='8019'>0.67139E+03</wgt>
<wgt id='8020'>0.68132E+03</wgt>
<wgt id='8021'>0.67282E+03</wgt>
<wgt id='8022'>0.68623E+03</wgt>
<wgt id='8023'>0.67048E+03</wgt>
<wgt id='8024'>0.66668E+03</wgt>
<wgt id='8025'>0.66715E+03</wgt>
<wgt id='8026'>0.67375E+03</wgt>
<wgt id='8027'>0.67758E+03</wgt>
<wgt id='8028'>0.67486E+03</wgt>
<wgt id='8029'>0.70836E+03</wgt>
<wgt id='8500'>0.77619E+03</wgt>
<wgt id='8501'>0.76445E+03</wgt>
<wgt id='8502'>0.77626E+03</wgt>
<wgt id='8503'>0.77907E+03</wgt>
<wgt id='8504'>0.77188E+03</wgt>
<wgt id='8505'>0.77747E+03</wgt>
<wgt id='8506'>0.77555E+03</wgt>
<wgt id='8507'>0.77184E+03</wgt>
<wgt id='8508'>0.76356E+03</wgt>
<wgt id='8509'>0.77896E+03</wgt>
<wgt id='8510'>0.76783E+03</wgt>
<wgt id='8511'>0.76987E+03</wgt>
<wgt id='8512'>0.78698E+03</wgt>
<wgt id='8513'>0.78578E+03</wgt>
<wgt id='8514'>0.78150E+03</wgt>
<wgt id='8515'>0.77865E+03</wgt>
<wgt id='8516'>0.77317E+03</wgt>
<wgt id='8517'>0.78751E+03</wgt>
<wgt id='8518'>0.78048E+03</wgt>
<wgt id='8519'>0.78318E+03</wgt>
<wgt id='8520'>0.75207E+03</wgt>
<wgt id='8521'>0.77126E+03</wgt>
<wgt id='8522'>0.79267E+03</wgt>
<wgt id='8523'>0.76420E+03</wgt>
<wgt id='8524'>0.78043E+03</wgt>
<wgt id='8525'>0.77764E+03</wgt>
<wgt id='8526'>0.77445E+03</wgt>
<wgt id='8527'>0.77674E+03</wgt>
<wgt id='8528'>0.77390E+03</wgt>
<wgt id='8529'>0.77485E+03</wgt>
<wgt id='8530'>0.77671E+03</wgt>
<wgt id='8531'>0.77629E+03</wgt>
<wgt id='8532'>0.77521E+03</wgt>
<wgt id='8533'>0.77334E+03</wgt>
<wgt id='8534'>0.77575E+03</wgt>
<wgt id='8535'>0.77850E+03</wgt>
<wgt id='8536'>0.77295E+03</wgt>
<wgt id='8537'>0.77590E+03</wgt>
<wgt id='8538'>0.77605E+03</wgt>
<wgt id='8539'>0.77609E+03</wgt>
<wgt id='8540'>0.77754E+03</wgt>
<wgt id='8541'>0.77695E+03</wgt>
<wgt id='8542'>0.77518E+03</wgt>
<wgt id='8543'>0.77465E+03</wgt>
<wgt id='8544'>0.77766E+03</wgt>
<wgt id='8545'>0.77662E+03</wgt>
<wgt id='8546'>0.77815E+03</wgt>
<wgt id='8547'>0.77471E+03</wgt>
<wgt id='8548'>0.77465E+03</wgt>
<wgt id='8549'>0.77691E+03</wgt>
<wgt id='8550'>0.77573E+03</wgt>
<wgt id='8551'>0.77694E+03</wgt>
<wgt id='8552'>0.77505E+03</wgt>
<wgt id='8553'>0.77433E+03</wgt>
<wgt id='8554'>0.77591E+03</wgt>
<wgt id='8555'>0.77622E+03</wgt>
<wgt id='8556'>0.77561E+03</wgt>
<wgt id='8557'>0.77664E+03</wgt>
<wgt id='8558'>0.77686E+03</wgt>
<wgt id='8559'>0.77599E+03</wgt>
<wgt id='8560'>0.77565E+03</wgt>
<wgt id='8561'>0.77692E+03</wgt>
<wgt id='8562'>0.77610E+03</wgt>
<wgt id='8563'>0.77623E+03</wgt>
<wgt id='8564'>0.77625E+03</wgt>
<wgt id='8565'>0.77709E+03</wgt>
<wgt id='8566'>0.77760E+03</wgt>
<wgt id='8567'>0.77670E+03</wgt>
<wgt id='8568'>0.77680E+03</wgt>
<wgt id='8569'>0.77675E+03</wgt>
<wgt id='8570'>0.77591E+03</wgt>
<wgt id='8571'>0.77501E+03</wgt>
<wgt id='8572'>0.77542E+03</wgt>
<wgt id='8573'>0.77533E+03</wgt>
<wgt id='8574'>0.77596E+03</wgt>
<wgt id='8575'>0.77553E+03</wgt>
<wgt id='8576'>0.77657E+03</wgt>
<wgt id='8577'>0.77511E+03</wgt>
<wgt id='8578'>0.77651E+03</wgt>
<wgt id='8579'>0.77735E+03</wgt>
<wgt id='8580'>0.77546E+03</wgt>
<wgt id='8581'>0.77669E+03</wgt>
<wgt id='8582'>0.77571E+03</wgt>
<wgt id='8583'>0.77645E+03</wgt>
<wgt id='8584'>0.77726E+03</wgt>
<wgt id='8585'>0.77653E+03</wgt>
<wgt id='8586'>0.77781E+03</wgt>
<wgt id='8587'>0.77644E+03</wgt>
<wgt id='8588'>0.77627E+03</wgt>
<wgt id='8589'>0.77626E+03</wgt>
<wgt id='8590'>0.77601E+03</wgt>
<wgt id='8591'>0.77551E+03</wgt>
<wgt id='8592'>0.77599E+03</wgt>
<wgt id='8593'>0.77574E+03</wgt>
<wgt id='8594'>0.77599E+03</wgt>
<wgt id='8595'>0.77600E+03</wgt>
<wgt id='8596'>0.77593E+03</wgt>
<wgt id='8597'>0.77659E+03</wgt>
<wgt id='8598'>0.77653E+03</wgt>
<wgt id='8599'>0.77640E+03</wgt>
<wgt id='8600'>0.77620E+03</wgt>
<wgt id='8601'>0.75444E+03</wgt>
<wgt id='8602'>0.80186E+03</wgt>
<wgt id='9000'>0.75417E+03</wgt>
<wgt id='9001'>0.76001E+03</wgt>
<wgt id='9002'>0.75086E+03</wgt>
<wgt id='9003'>0.76085E+03</wgt>
<wgt id='9004'>0.76011E+03</wgt>
<wgt id='9005'>0.76183E+03</wgt>
<wgt id='9006'>0.75562E+03</wgt>
<wgt id='9007'>0.74754E+03</wgt>
<wgt id='9008'>0.74861E+03</wgt>
<wgt id='9009'>0.75853E+03</wgt>
<wgt id='9010'>0.75836E+03</wgt>
<wgt id='9011'>0.74857E+03</wgt>
<wgt id='9012'>0.76238E+03</wgt>
<wgt id='9013'>0.76969E+03</wgt>
<wgt id='9014'>0.75750E+03</wgt>
<wgt id='9015'>0.74493E+03</wgt>
<wgt id='9016'>0.74523E+03</wgt>
<wgt id='9017'>0.75702E+03</wgt>
<wgt id='9018'>0.76077E+03</wgt>
<wgt id='9019'>0.76125E+03</wgt>
<wgt id='9020'>0.74168E+03</wgt>
<wgt id='9021'>0.73373E+03</wgt>
<wgt id='9022'>0.75975E+03</wgt>
<wgt id='9023'>0.73420E+03</wgt>
<wgt id='9024'>0.74726E+03</wgt>
<wgt id='9025'>0.75597E+03</wgt>
<wgt id='9026'>0.74932E+03</wgt>
<wgt id='9027'>0.75598E+03</wgt>
<wgt id='9028'>0.75734E+03</wgt>
<wgt id='9029'>0.75630E+03</wgt>
<wgt id='9030'>0.75484E+03</wgt>
<wgt id='9031'>0.75191E+03</wgt>
<wgt id='9032'>0.75485E+03</wgt>
<wgt id='9033'>0.75585E+03</wgt>
<wgt id='9034'>0.75604E+03</wgt>
<wgt id='9035'>0.75591E+03</wgt>
<wgt id='9036'>0.75497E+03</wgt>
<wgt id='9037'>0.75530E+03</wgt>
<wgt id='9038'>0.75587E+03</wgt>
<wgt id='9039'>0.75434E+03</wgt>
<wgt id='9040'>0.75246E+03</wgt>
<wgt id='9041'>0.75456E+03</wgt>
<wgt id='9042'>0.75664E+03</wgt>
<wgt id='9043'>0.75215E+03</wgt>
<wgt id='9044'>0.75517E+03</wgt>
<wgt id='9045'>0.75481E+03</wgt>
<wgt id='9046'>0.75273E+03</wgt>
<wgt id='9047'>0.75466E+03</wgt>
<wgt id='9048'>0.75496E+03</wgt>
<wgt id='9049'>0.75355E+03</wgt>
<wgt id='9050'>0.75404E+03</wgt>
<wgt id='9051'>0.75533E+03</wgt>
<wgt id='9052'>0.75572E+03</wgt>
<wgt id='9053'>0.75466E+03</wgt>
<wgt id='9054'>0.75312E+03</wgt>
<wgt id='9055'>0.75353E+03</wgt>
<wgt id='9056'>0.75429E+03</wgt>
<wgt id='9057'>0.75384E+03</wgt>
<wgt id='9058'>0.75330E+03</wgt>
<wgt id='9059'>0.75363E+03</wgt>
<wgt id='9060'>0.75426E+03</wgt>
<wgt id='9061'>0.75371E+03</wgt>
<wgt id='9062'>0.75454E+03</wgt>
<wgt id='9063'>0.75432E+03</wgt>
<wgt id='9064'>0.75491E+03</wgt>
<wgt id='9065'>0.75355E+03</wgt>
<wgt id='9066'>0.75353E+03</wgt>
<wgt id='9067'>0.75359E+03</wgt>
<wgt id='9068'>0.75427E+03</wgt>
<wgt id='9069'>0.75522E+03</wgt>
<wgt id='9070'>0.75400E+03</wgt>
<wgt id='9071'>0.75438E+03</wgt>
<wgt id='9072'>0.75457E+03</wgt>
<wgt id='9073'>0.75406E+03</wgt>
<wgt id='9074'>0.75468E+03</wgt>
<wgt id='9075'>0.75416E+03</wgt>
<wgt id='9076'>0.75411E+03</wgt>
<wgt id='9077'>0.75458E+03</wgt>
<wgt id='9078'>0.75471E+03</wgt>
<wgt id='9079'>0.75357E+03</wgt>
<wgt id='9080'>0.75510E+03</wgt>
<wgt id='9081'>0.75418E+03</wgt>
<wgt id='9082'>0.75420E+03</wgt>
<wgt id='9083'>0.75400E+03</wgt>
<wgt id='9084'>0.75327E+03</wgt>
<wgt id='9085'>0.75322E+03</wgt>
<wgt id='9086'>0.75464E+03</wgt>
<wgt id='9087'>0.75283E+03</wgt>
<wgt id='9088'>0.75355E+03</wgt>
<wgt id='9089'>0.75371E+03</wgt>
<wgt id='9090'>0.75447E+03</wgt>
<wgt id='9091'>0.75380E+03</wgt>
<wgt id='9092'>0.75395E+03</wgt>
<wgt id='9093'>0.75382E+03</wgt>
<wgt id='9094'>0.75370E+03</wgt>
<wgt id='9095'>0.75415E+03</wgt>
<wgt id='9096'>0.75388E+03</wgt>
<wgt id='9097'>0.75428E+03</wgt>
<wgt id='9098'>0.75406E+03</wgt>
<wgt id='9099'>0.75379E+03</wgt>
<wgt id='9100'>0.75419E+03</wgt>
<wgt id='9101'>0.72859E+03</wgt>
<wgt id='9102'>0.78319E+03</wgt>
<wgt id='10000'>0.77605E+03</wgt>
<wgt id='10001'>0.76859E+03</wgt>
<wgt id='10002'>0.76354E+03</wgt>
<wgt id='10003'>0.77286E+03</wgt>
<wgt id='10004'>0.77034E+03</wgt>
<wgt id='10005'>0.76247E+03</wgt>
<wgt id='10006'>0.75952E+03</wgt>
<wgt id='10007'>0.77555E+03</wgt>
<wgt id='10008'>0.76829E+03</wgt>
<wgt id='10009'>0.77035E+03</wgt>
<wgt id='10010'>0.77304E+03</wgt>
<wgt id='10011'>0.76675E+03</wgt>
<wgt id='10012'>0.76966E+03</wgt>
<wgt id='10013'>0.77833E+03</wgt>
<wgt id='10014'>0.77667E+03</wgt>
<wgt id='10015'>0.77880E+03</wgt>
<wgt id='10016'>0.77707E+03</wgt>
<wgt id='10017'>0.78277E+03</wgt>
<wgt id='10018'>0.78017E+03</wgt>
<wgt id='10019'>0.75719E+03</wgt>
<wgt id='10020'>0.77786E+03</wgt>
<wgt id='10021'>0.77389E+03</wgt>
<wgt id='10022'>0.79788E+03</wgt>
<wgt id='10023'>0.77611E+03</wgt>
<wgt id='10024'>0.77498E+03</wgt>
<wgt id='10025'>0.77560E+03</wgt>
<wgt id='10026'>0.77409E+03</wgt>
<wgt id='10027'>0.77488E+03</wgt>
<wgt id='10028'>0.77224E+03</wgt>
<wgt id='10029'>0.77703E+03</wgt>
<wgt id='10030'>0.77614E+03</wgt>
<wgt id='10031'>0.75444E+03</wgt>
<wgt id='10032'>0.80186E+03</wgt>
<wgt id='11000'>0.75403E+03</wgt>
<wgt id='11001'>0.75198E+03</wgt>
<wgt id='11002'>0.74823E+03</wgt>
<wgt id='11003'>0.75645E+03</wgt>
<wgt id='11004'>0.74259E+03</wgt>
<wgt id='11005'>0.78789E+03</wgt>
<wgt id='11006'>0.75447E+03</wgt>
<wgt id='11007'>0.75650E+03</wgt>
<wgt id='11008'>0.75615E+03</wgt>
<wgt id='11009'>0.75553E+03</wgt>
<wgt id='11010'>0.74665E+03</wgt>
<wgt id='11011'>0.75191E+03</wgt>
<wgt id='11012'>0.75083E+03</wgt>
<wgt id='11013'>0.75353E+03</wgt>
<wgt id='11014'>0.75092E+03</wgt>
<wgt id='11015'>0.74674E+03</wgt>
<wgt id='11016'>0.75744E+03</wgt>
<wgt id='11017'>0.75801E+03</wgt>
<wgt id='11018'>0.75420E+03</wgt>
<wgt id='11019'>0.75778E+03</wgt>
<wgt id='11020'>0.75615E+03</wgt>
<wgt id='11021'>0.75714E+03</wgt>
<wgt id='11022'>0.75261E+03</wgt>
<wgt id='11023'>0.75541E+03</wgt>
<wgt id='11024'>0.74967E+03</wgt>
<wgt id='11025'>0.75089E+03</wgt>
<wgt id='11026'>0.75428E+03</wgt>
<wgt id='11027'>0.75919E+03</wgt>
<wgt id='11028'>0.75252E+03</wgt>
<wgt id='11029'>0.73470E+03</wgt>
<wgt id='11030'>0.75360E+03</wgt>
<wgt id='11031'>0.72859E+03</wgt>
<wgt id='11032'>0.78319E+03</wgt>
<wgt id='12000'>0.55390E+03</wgt>
<wgt id='12001'>0.55336E+03</wgt>
<wgt id='12002'>0.55443E+03</wgt>
<wgt id='12003'>0.55393E+03</wgt>
<wgt id='12004'>0.55387E+03</wgt>
<wgt id='12005'>0.55351E+03</wgt>
<wgt id='12006'>0.55428E+03</wgt>
<wgt id='12007'>0.55609E+03</wgt>
<wgt id='12008'>0.55174E+03</wgt>
<wgt id='12009'>0.55277E+03</wgt>
<wgt id='12010'>0.55509E+03</wgt>
<wgt id='12011'>0.55210E+03</wgt>
<wgt id='12012'>0.55597E+03</wgt>
<wgt id='12013'>0.55505E+03</wgt>
<wgt id='12014'>0.55277E+03</wgt>
<wgt id='12015'>0.55598E+03</wgt>
<wgt id='12016'>0.55147E+03</wgt>
<wgt id='12017'>0.55483E+03</wgt>
<wgt id='12018'>0.55361E+03</wgt>
<wgt id='12019'>0.56139E+03</wgt>
<wgt id='12020'>0.54672E+03</wgt>
<wgt id='12021'>0.55510E+03</wgt>
<wgt id='12022'>0.55303E+03</wgt>
<wgt id='12023'>0.54941E+03</wgt>
<wgt id='12024'>0.56018E+03</wgt>
<wgt id='12025'>0.54752E+03</wgt>
<wgt id='12026'>0.55994E+03</wgt>
<wgt id='12027'>0.56226E+03</wgt>
<wgt id='12028'>0.54726E+03</wgt>
<wgt id='12050'>0.55390E+03</wgt>
<wgt id='12051'>0.55303E+03</wgt>
<wgt id='12052'>0.54495E+03</wgt>
<wgt id='12053'>0.55330E+03</wgt>
<wgt id='12054'>0.54645E+03</wgt>
<wgt id='12055'>0.53873E+03</wgt>
<wgt id='12056'>0.57097E+03</wgt>
<wgt id='12057'>0.55062E+03</wgt>
<wgt id='12058'>0.54907E+03</wgt>
<wgt id='12059'>0.55447E+03</wgt>
<wgt id='12060'>0.54499E+03</wgt>
<wgt id='12061'>0.54876E+03</wgt>
<wgt id='12062'>0.54680E+03</wgt>
<wgt id='12063'>0.56164E+03</wgt>
<wgt id='13000'>0.64828E+03</wgt>
<wgt id='13001'>0.64129E+03</wgt>
<wgt id='13002'>0.64255E+03</wgt>
<wgt id='13003'>0.64170E+03</wgt>
<wgt id='13004'>0.64214E+03</wgt>
<wgt id='13005'>0.64179E+03</wgt>
<wgt id='13006'>0.64205E+03</wgt>
<wgt id='13007'>0.64509E+03</wgt>
<wgt id='13008'>0.63885E+03</wgt>
<wgt id='13009'>0.63916E+03</wgt>
<wgt id='13010'>0.64480E+03</wgt>
<wgt id='13011'>0.64372E+03</wgt>
<wgt id='13012'>0.64022E+03</wgt>
<wgt id='13013'>0.64289E+03</wgt>
<wgt id='13014'>0.64092E+03</wgt>
<wgt id='13015'>0.64412E+03</wgt>
<wgt id='13016'>0.63852E+03</wgt>
<wgt id='13017'>0.63950E+03</wgt>
<wgt id='13018'>0.64456E+03</wgt>
<wgt id='13019'>0.64911E+03</wgt>
<wgt id='13020'>0.63509E+03</wgt>
<wgt id='13021'>0.65867E+03</wgt>
<wgt id='13022'>0.62692E+03</wgt>
<wgt id='13023'>0.62878E+03</wgt>
<wgt id='13024'>0.65529E+03</wgt>
<wgt id='13025'>0.62675E+03</wgt>
<wgt id='13026'>0.65711E+03</wgt>
<wgt id='13027'>0.63491E+03</wgt>
<wgt id='13028'>0.64967E+03</wgt>
<wgt id='13050'>0.64828E+03</wgt>
<wgt id='13051'>0.64512E+03</wgt>
<wgt id='13052'>0.63480E+03</wgt>
<wgt id='13053'>0.64602E+03</wgt>
<wgt id='13054'>0.64031E+03</wgt>
<wgt id='13055'>0.60425E+03</wgt>
<wgt id='13056'>0.66888E+03</wgt>
<wgt id='13057'>0.64334E+03</wgt>
<wgt id='13058'>0.64093E+03</wgt>
<wgt id='13059'>0.65263E+03</wgt>
<wgt id='13060'>0.59918E+03</wgt>
<wgt id='13061'>0.64964E+03</wgt>
<wgt id='13062'>0.63198E+03</wgt>
<wgt id='13063'>0.66624E+03</wgt>
<wgt id='14000'>0.78589E+03</wgt>
<wgt id='14001'>0.78581E+03</wgt>
<wgt id='14002'>0.78573E+03</wgt>
<wgt id='14003'>0.78566E+03</wgt>
<wgt id='14004'>0.78558E+03</wgt>
<wgt id='14005'>0.78551E+03</wgt>
<wgt id='14006'>0.78543E+03</wgt>
<wgt id='14007'>0.78535E+03</wgt>
<wgt id='14008'>0.78528E+03</wgt>
<wgt id='14009'>0.78520E+03</wgt>
<wgt id='14010'>0.78513E+03</wgt>
<wgt id='14011'>0.78505E+03</wgt>
<wgt id='14012'>0.78497E+03</wgt>
<wgt id='14013'>0.78490E+03</wgt>
<wgt id='14014'>0.78482E+03</wgt>
<wgt id='14015'>0.78474E+03</wgt>
<wgt id='14016'>0.78467E+03</wgt>
<wgt id='14017'>0.78459E+03</wgt>
<wgt id='14018'>0.78452E+03</wgt>
<wgt id='14019'>0.78444E+03</wgt>
<wgt id='14020'>0.78436E+03</wgt>
<wgt id='14021'>0.78429E+03</wgt>
<wgt id='14022'>0.78421E+03</wgt>
<wgt id='14023'>0.78413E+03</wgt>
<wgt id='14024'>0.78406E+03</wgt>
<wgt id='14025'>0.78398E+03</wgt>
<wgt id='14026'>0.78391E+03</wgt>
<wgt id='14027'>0.78383E+03</wgt>
<wgt id='14028'>0.78375E+03</wgt>
<wgt id='14029'>0.78368E+03</wgt>
<wgt id='14030'>0.78360E+03</wgt>
<wgt id='15000'>0.74511E+03</wgt>
<wgt id='15001'>0.75090E+03</wgt>
<wgt id='15002'>0.74182E+03</wgt>
<wgt id='15003'>0.75174E+03</wgt>
<wgt id='15004'>0.75099E+03</wgt>
<wgt id='15005'>0.75270E+03</wgt>
<wgt id='15006'>0.74654E+03</wgt>
<wgt id='15007'>0.73853E+03</wgt>
<wgt id='15008'>0.73961E+03</wgt>
<wgt id='15009'>0.74943E+03</wgt>
<wgt id='15010'>0.74927E+03</wgt>
<wgt id='15011'>0.73958E+03</wgt>
<wgt id='15012'>0.75321E+03</wgt>
<wgt id='15013'>0.76045E+03</wgt>
<wgt id='15014'>0.74836E+03</wgt>
<wgt id='15015'>0.73596E+03</wgt>
<wgt id='15016'>0.73628E+03</wgt>
<wgt id='15017'>0.74793E+03</wgt>
<wgt id='15018'>0.75165E+03</wgt>
<wgt id='15019'>0.75210E+03</wgt>
<wgt id='15020'>0.73279E+03</wgt>
<wgt id='15021'>0.72488E+03</wgt>
<wgt id='15022'>0.75064E+03</wgt>
<wgt id='15023'>0.72534E+03</wgt>
<wgt id='15024'>0.73827E+03</wgt>
<wgt id='15025'>0.74692E+03</wgt>
<wgt id='15026'>0.74032E+03</wgt>
<wgt id='15027'>0.74689E+03</wgt>
<wgt id='15028'>0.74825E+03</wgt>
<wgt id='15029'>0.74723E+03</wgt>
<wgt id='15030'>0.74579E+03</wgt>
<wgt id='15031'>0.74286E+03</wgt>
<wgt id='15032'>0.74580E+03</wgt>
<wgt id='15033'>0.74678E+03</wgt>
<wgt id='15034'>0.74695E+03</wgt>
<wgt id='15035'>0.74685E+03</wgt>
<wgt id='15036'>0.74589E+03</wgt>
<wgt id='15037'>0.74624E+03</wgt>
<wgt id='15038'>0.74680E+03</wgt>
<wgt id='15039'>0.74529E+03</wgt>
<wgt id='15040'>0.74342E+03</wgt>
<wgt id='15041'>0.74548E+03</wgt>
<wgt id='15042'>0.74754E+03</wgt>
<wgt id='15043'>0.74312E+03</wgt>
<wgt id='15044'>0.74610E+03</wgt>
<wgt id='15045'>0.74574E+03</wgt>
<wgt id='15046'>0.74369E+03</wgt>
<wgt id='15047'>0.74559E+03</wgt>
<wgt id='15048'>0.74589E+03</wgt>
<wgt id='15049'>0.74449E+03</wgt>
<wgt id='15050'>0.74498E+03</wgt>
<wgt id='15051'>0.74626E+03</wgt>
<wgt id='15052'>0.74664E+03</wgt>
<wgt id='15053'>0.74560E+03</wgt>
<wgt id='15054'>0.74407E+03</wgt>
<wgt id='15055'>0.74447E+03</wgt>
<wgt id='15056'>0.74523E+03</wgt>
<wgt id='15057'>0.74478E+03</wgt>
<wgt id='15058'>0.74425E+03</wgt>
<wgt id='15059'>0.74458E+03</wgt>
<wgt id='15060'>0.74520E+03</wgt>
<wgt id='15061'>0.74465E+03</wgt>
<wgt id='15062'>0.74548E+03</wgt>
<wgt id='15063'>0.74527E+03</wgt>
<wgt id='15064'>0.74584E+03</wgt>
<wgt id='15065'>0.74450E+03</wgt>
<wgt id='15066'>0.74448E+03</wgt>
<wgt id='15067'>0.74454E+03</wgt>
<wgt id='15068'>0.74521E+03</wgt>
<wgt id='15069'>0.74616E+03</wgt>
<wgt id='15070'>0.74495E+03</wgt>
<wgt id='15071'>0.74532E+03</wgt>
<wgt id='15072'>0.74551E+03</wgt>
<wgt id='15073'>0.74500E+03</wgt>
<wgt id='15074'>0.74561E+03</wgt>
<wgt id='15075'>0.74510E+03</wgt>
<wgt id='15076'>0.74506E+03</wgt>
<wgt id='15077'>0.74552E+03</wgt>
<wgt id='15078'>0.74565E+03</wgt>
<wgt id='15079'>0.74451E+03</wgt>
<wgt id='15080'>0.74603E+03</wgt>
<wgt id='15081'>0.74511E+03</wgt>
<wgt id='15082'>0.74514E+03</wgt>
<wgt id='15083'>0.74494E+03</wgt>
<wgt id='15084'>0.74422E+03</wgt>
<wgt id='15085'>0.74417E+03</wgt>
<wgt id='15086'>0.74558E+03</wgt>
<wgt id='15087'>0.74378E+03</wgt>
<wgt id='15088'>0.74450E+03</wgt>
<wgt id='15089'>0.74466E+03</wgt>
<wgt id='15090'>0.74541E+03</wgt>
<wgt id='15091'>0.74475E+03</wgt>
<wgt id='15092'>0.74489E+03</wgt>
<wgt id='15093'>0.74477E+03</wgt>
<wgt id='15094'>0.74465E+03</wgt>
<wgt id='15095'>0.74509E+03</wgt>
<wgt id='15096'>0.74482E+03</wgt>
<wgt id='15097'>0.74521E+03</wgt>
<wgt id='15098'>0.74500E+03</wgt>
<wgt id='15099'>0.74473E+03</wgt>
<wgt id='15100'>0.74513E+03</wgt>
<wgt id='15101'>0.74510E+03</wgt>
<wgt id='15102'>0.74505E+03</wgt>
<wgt id='15103'>0.74512E+03</wgt>
<wgt id='15104'>0.74512E+03</wgt>
<wgt id='15105'>0.74513E+03</wgt>
<wgt id='15106'>0.74511E+03</wgt>
<wgt id='15107'>0.74507E+03</wgt>
<wgt id='1500'>0.78392E+03</wgt>
<wgt id='1501'>0.75091E+03</wgt>
<wgt id='1502'>0.80362E+03</wgt>
<wgt id='1503'>0.74316E+03</wgt>
<wgt id='1504'>0.77284E+03</wgt>
<wgt id='1505'>0.73211E+03</wgt>
<wgt id='1506'>0.80969E+03</wgt>
<wgt id='1507'>0.77611E+03</wgt>
<wgt id='1508'>0.79738E+03</wgt>
<wgt id='1509'>0.77596E+03</wgt>
<wgt id='1510'>0.72956E+03</wgt>
<wgt id='1511'>0.81051E+03</wgt>
<wgt id='1512'>0.78384E+03</wgt>
<wgt id='1513'>0.83046E+03</wgt>
<wgt id='1514'>0.82262E+03</wgt>
<wgt id='1515'>0.81426E+03</wgt>
<wgt id='1516'>0.77668E+03</wgt>
<wgt id='1517'>0.87063E+03</wgt>
<wgt id='1518'>0.80670E+03</wgt>
<wgt id='1519'>0.77686E+03</wgt>
<wgt id='1520'>0.76015E+03</wgt>
<wgt id='1521'>0.77885E+03</wgt>
<wgt id='1522'>0.71911E+03</wgt>
<wgt id='1523'>0.74478E+03</wgt>
<wgt id='1524'>0.69751E+03</wgt>
<wgt id='1525'>0.78800E+03</wgt>
<wgt id='1526'>0.77408E+03</wgt>
<wgt id='1527'>0.87765E+03</wgt>
<wgt id='1528'>0.83636E+03</wgt>
<wgt id='1529'>0.80497E+03</wgt>
<wgt id='1530'>0.75880E+03</wgt>
<wgt id='1531'>0.75730E+03</wgt>
<wgt id='1532'>0.78288E+03</wgt>
<wgt id='1533'>0.78081E+03</wgt>
<wgt id='1534'>0.74579E+03</wgt>
<wgt id='1535'>0.81869E+03</wgt>
<wgt id='1536'>0.78134E+03</wgt>
<wgt id='1537'>0.83669E+03</wgt>
<wgt id='1538'>0.75920E+03</wgt>
<wgt id='1539'>0.76214E+03</wgt>
<wgt id='1540'>0.76574E+03</wgt>
<wgt id='1541'>0.75333E+03</wgt>
<wgt id='1542'>0.80140E+03</wgt>
<wgt id='1543'>0.72826E+03</wgt>
<wgt id='1544'>0.73818E+03</wgt>
<wgt id='1545'>0.72438E+03</wgt>
<wgt id='1546'>0.71536E+03</wgt>
<wgt id='1547'>0.81109E+03</wgt>
<wgt id='1548'>0.80176E+03</wgt>
<wgt id='1549'>0.80745E+03</wgt>
<wgt id='1550'>0.78429E+03</wgt>
<wgt id='1551'>0.76692E+03</wgt>
<wgt id='1552'>0.74829E+03</wgt>
<wgt id='1553'>0.76461E+03</wgt>
<wgt id='1554'>0.82646E+03</wgt>
<wgt id='1555'>0.77868E+03</wgt>
<wgt id='1556'>0.82047E+03</wgt>
<wgt id='1557'>0.79924E+03</wgt>
<wgt id='1558'>0.78722E+03</wgt>
<wgt id='1559'>0.78815E+03</wgt>
<wgt id='1560'>0.76605E+03</wgt>
<wgt id='1561'>0.80066E+03</wgt>
<wgt id='1562'>0.74419E+03</wgt>
<wgt id='1563'>0.81980E+03</wgt>
<wgt id='1564'>0.82717E+03</wgt>
<wgt id='1565'>0.78157E+03</wgt>
<wgt id='1566'>0.77608E+03</wgt>
<wgt id='1567'>0.75810E+03</wgt>
<wgt id='1568'>0.79833E+03</wgt>
<wgt id='1569'>0.81184E+03</wgt>
<wgt id='1570'>0.81992E+03</wgt>
<wgt id='1571'>0.72579E+03</wgt>
<wgt id='1572'>0.77850E+03</wgt>
<wgt id='1573'>0.78583E+03</wgt>
<wgt id='1574'>0.81453E+03</wgt>
<wgt id='1575'>0.78552E+03</wgt>
<wgt id='1576'>0.71902E+03</wgt>
<wgt id='1577'>0.75607E+03</wgt>
<wgt id='1578'>0.83489E+03</wgt>
<wgt id='1579'>0.77849E+03</wgt>
<wgt id='1580'>0.78869E+03</wgt>
<wgt id='1581'>0.75515E+03</wgt>
<wgt id='1582'>0.77146E+03</wgt>
<wgt id='1583'>0.82546E+03</wgt>
<wgt id='1584'>0.78300E+03</wgt>
<wgt id='1585'>0.78819E+03</wgt>
<wgt id='1586'>0.80759E+03</wgt>
<wgt id='1587'>0.79092E+03</wgt>
<wgt id='1588'>0.81403E+03</wgt>
<wgt id='1589'>0.80705E+03</wgt>
<wgt id='1590'>0.77663E+03</wgt>
<wgt id='1591'>0.78395E+03</wgt>
<wgt id='1592'>0.75411E+03</wgt>
<wgt id='1593'>0.81373E+03</wgt>
<wgt id='1594'>0.78037E+03</wgt>
<wgt id='1595'>0.86429E+03</wgt>
<wgt id='1596'>0.79097E+03</wgt>
<wgt id='1597'>0.77195E+03</wgt>
<wgt id='1598'>0.72658E+03</wgt>
<wgt id='1599'>0.82646E+03</wgt>
<wgt id='1600'>0.81896E+03</wgt>
<wgt id='1601'>0.76309E+03</wgt>
<wgt id='1602'>0.79995E+03</wgt>
<wgt id='1700'>0.72886E+03</wgt>
<wgt id='1800'>0.69758E+03</wgt>
<wgt id='1850'>0.84039E+03</wgt>
<wgt id='1900'>0.76961E+03</wgt>
<wgt id='1950'>0.82073E+03</wgt>
</rwgt>
</event>
<event>
     13 322222  6.87070E+02  1.50062E+01 -1.00000E+00  1.74066E-01
      21    -1     0     0   502   503  0.000000000E+00  0.000000000E+00  3.004949675E+02  3.004949675E+02  0.000000000E+00  0.00000E+00  9.000E+00
      21    -1     0     0   503   504  0.000000000E+00  0.000000000E+00 -3.150330877E+02  3.150330877E+02  0.000000000E+00  0.00000E+00  9.000E+00
       6     2     1     2   502     0  1.881774969E+02  4.475579940E+01  1.576273901E+02  2.984507171E+02  1.637454869E+02  0.00000E+00  9.000E+00
      -6     2     1     2     0   505 -1.741767681E+02 -5.015636552E+01 -1.624272353E+02  2.991882207E+02  1.740051064E+02  0.00000E+00  9.000E+00
      21     1     1     2   505   504 -1.400072882E+01  5.400566118E+00 -9.738275083E+00  1.788911746E+01  2.920019320E-07  0.00000E+00  9.000E+00
      24     2     3     3     0     0  1.308144521E+02 -1.627385416E+01  4.866092072E+01  1.609302860E+02  7.844369017E+01  0.00000E+00  9.000E+00
       5     1     3     3   502     0  5.736304482E+01  6.102965356E+01  1.089664694E+02  1.375204311E+02  4.800000000E+00  0.00000E+00 -1.000E+00
     -24     2     4     4     0     0 -5.271928982E+01 -6.516099466E+01 -1.260805499E+02  1.714338490E+02  8.042375766E+01  0.00000E+00  9.000E+00
      -5     1     4     4     0   505 -1.214574783E+02  1.500462914E+01 -3.634668544E+01  1.277543716E+02  4.800000000E+00  0.00000E+00  1.000E+00
      -3     1     6     6     0   515  1.093080064E+02  8.307189797E-01  6.667282553E+01  1.280399782E+02  2.000000000E-01  0.00000E+00  1.000E+00
       4     1     6     6   515     0  2.150644571E+01 -1.710457314E+01 -1.801190481E+01  3.289030776E+01  1.500000000E+00  0.00000E+00 -1.000E+00
       1     1     8     8   516     0 -2.361200250E+01 -3.846829140E+01 -1.239163014E+02  1.318809913E+02  1.000000000E-01  0.00000E+00 -1.000E+00
      -2     1     8     8     0   516 -2.910728732E+01 -2.669270326E+01 -2.164248415E+00  3.955285772E+01  1.000000000E-01  0.00000E+00  1.000E+00
#rwgt            1           1   684.18298245638573                2        7883           0
<rwgt>
<wgt id='1001'>0.68707E+03</wgt>
<wgt id='1002'>0.78488E+03</wgt>
<wgt id='1003'>0.57727E+03</wgt>
<wgt id='1004'>0.60458E+03</wgt>
<wgt id='1005'>0.67496E+03</wgt>
<wgt id='1006'>0.52546E+03</wgt>
<wgt id='1007'>0.78559E+03</wgt>
<wgt id='1008'>0.92425E+03</wgt>
<wgt id='1009'>0.63011E+03</wgt>
<wgt id='2000'>0.68707E+03</wgt>
<wgt id='2001'>0.68619E+03</wgt>
<wgt id='2002'>0.68713E+03</wgt>
<wgt id='2003'>0.68714E+03</wgt>
<wgt id='2004'>0.68875E+03</wgt>
<wgt id='2005'>0.68645E+03</wgt>
<wgt id='2006'>0.68544E+03</wgt>
<wgt id='2007'>0.68505E+03</wgt>
<wgt id='2008'>0.68440E+03</wgt>
<wgt id='2009'>0.68814E+03</wgt>
<wgt id='2010'>0.68730E+03</wgt>
<wgt id='2011'>0.68460E+03</wgt>
<wgt id='2012'>0.68628E+03</wgt>
<wgt id='2013'>0.68512E+03</wgt>
<wgt id='2014'>0.68855E+03</wgt>
<wgt id='2015'>0.68790E+03</wgt>
<wgt id='2016'>0.68848E+03</wgt>
<wgt id='2017'>0.68695E+03</wgt>
<wgt id='2018'>0.68753E+03</wgt>
<wgt id='2019'>0.68742E+03</wgt>
<wgt id='2020'>0.68946E+03</wgt>
<wgt id='2021'>0.68605E+03</wgt>
<wgt id='2022'>0.68943E+03</wgt>
<wgt id='2023'>0.68871E+03</wgt>
<wgt id='2024'>0.68597E+03</wgt>
<wgt id='2025'>0.69110E+03</wgt>
<wgt id='2026'>0.69079E+03</wgt>
<wgt id='2027'>0.68571E+03</wgt>
<wgt id='2028'>0.68417E+03</wgt>
<wgt id='2029'>0.68926E+03</wgt>
<wgt id='2030'>0.68694E+03</wgt>
<wgt id='2031'>0.68873E+03</wgt>
<wgt id='2032'>0.68559E+03</wgt>
<wgt id='2033'>0.68700E+03</wgt>
<wgt id='2034'>0.68917E+03</wgt>
<wgt id='2035'>0.68689E+03</wgt>
<wgt id='2036'>0.68789E+03</wgt>
<wgt id='2037'>0.68809E+03</wgt>
<wgt id='2038'>0.68700E+03</wgt>
<wgt id='2039'>0.68612E+03</wgt>
<wgt id='2040'>0.68777E+03</wgt>
<wgt id='2041'>0.68752E+03</wgt>
<wgt id='2042'>0.68623E+03</wgt>
<wgt id='2043'>0.68730E+03</wgt>
<wgt id='2044'>0.68786E+03</wgt>
<wgt id='2045'>0.68679E+03</wgt>
<wgt id='2046'>0.68749E+03</wgt>
<wgt id='2047'>0.68799E+03</wgt>
<wgt id='2048'>0.68666E+03</wgt>
<wgt id='2049'>0.68696E+03</wgt>
<wgt id='2050'>0.68714E+03</wgt>
<wgt id='2051'>0.68819E+03</wgt>
<wgt id='2052'>0.68715E+03</wgt>
<wgt id='2053'>0.68721E+03</wgt>
<wgt id='2054'>0.68706E+03</wgt>
<wgt id='2055'>0.68702E+03</wgt>
<wgt id='2056'>0.68711E+03</wgt>
<wgt id='2057'>0.68755E+03</wgt>
<wgt id='2058'>0.68743E+03</wgt>
<wgt id='2059'>0.68700E+03</wgt>
<wgt id='2060'>0.68733E+03</wgt>
<wgt id='2061'>0.68654E+03</wgt>
<wgt id='2062'>0.68681E+03</wgt>
<wgt id='2063'>0.68729E+03</wgt>
<wgt id='2064'>0.68660E+03</wgt>
<wgt id='2065'>0.68727E+03</wgt>
<wgt id='2066'>0.68671E+03</wgt>
<wgt id='2067'>0.68708E+03</wgt>
<wgt id='2068'>0.68731E+03</wgt>
<wgt id='2069'>0.68734E+03</wgt>
<wgt id='2070'>0.68703E+03</wgt>
<wgt id='2071'>0.68691E+03</wgt>
<wgt id='2072'>0.68717E+03</wgt>
<wgt id='2073'>0.68712E+03</wgt>
<wgt id='2074'>0.68735E+03</wgt>
<wgt id='2075'>0.68683E+03</wgt>
<wgt id='2076'>0.68723E+03</wgt>
<wgt id='2077'>0.68686E+03</wgt>
<wgt id='2078'>0.68699E+03</wgt>
<wgt id='2079'>0.68718E+03</wgt>
<wgt id='2080'>0.68719E+03</wgt>
<wgt id='2081'>0.68723E+03</wgt>
<wgt id='2082'>0.68724E+03</wgt>
<wgt id='2083'>0.68700E+03</wgt>
<wgt id='2084'>0.68711E+03</wgt>
<wgt id='2085'>0.68705E+03</wgt>
<wgt id='2086'>0.68697E+03</wgt>
<wgt id='2087'>0.68695E+03</wgt>
<wgt id='2088'>0.68714E+03</wgt>
<wgt id='2089'>0.68700E+03</wgt>
<wgt id='2090'>0.68702E+03</wgt>
<wgt id='2091'>0.68706E+03</wgt>
<wgt id='2092'>0.68702E+03</wgt>
<wgt id='2093'>0.68704E+03</wgt>
<wgt id='2094'>0.68705E+03</wgt>
<wgt id='2095'>0.68714E+03</wgt>
<wgt id='2096'>0.68701E+03</wgt>
<wgt id='2097'>0.68721E+03</wgt>
<wgt id='2098'>0.68702E+03</wgt>
<wgt id='2099'>0.68703E+03</wgt>
<wgt id='2100'>0.68710E+03</wgt>
<wgt id='2101'>0.66759E+03</wgt>
<wgt id='2102'>0.70566E+03</wgt>
<wgt id='2104'>0.60130E+03</wgt>
<wgt id='2105'>0.61732E+03</wgt>
<wgt id='2106'>0.63716E+03</wgt>
<wgt id='2107'>0.65382E+03</wgt>
<wgt id='2108'>0.67875E+03</wgt>
<wgt id='2109'>0.69667E+03</wgt>
<wgt id='2110'>0.71978E+03</wgt>
<wgt id='2111'>0.73755E+03</wgt>
<wgt id='3000'>0.71517E+03</wgt>
<wgt id='3001'>0.71521E+03</wgt>
<wgt id='3002'>0.71557E+03</wgt>
<wgt id='3003'>0.71512E+03</wgt>
<wgt id='3004'>0.71647E+03</wgt>
<wgt id='3005'>0.71604E+03</wgt>
<wgt id='3006'>0.71462E+03</wgt>
<wgt id='3007'>0.71682E+03</wgt>
<wgt id='3008'>0.71520E+03</wgt>
<wgt id='3009'>0.71725E+03</wgt>
<wgt id='3010'>0.71471E+03</wgt>
<wgt id='3011'>0.71355E+03</wgt>
<wgt id='3012'>0.71510E+03</wgt>
<wgt id='3013'>0.71711E+03</wgt>
<wgt id='3014'>0.71556E+03</wgt>
<wgt id='3015'>0.71335E+03</wgt>
<wgt id='3016'>0.71537E+03</wgt>
<wgt id='3017'>0.71527E+03</wgt>
<wgt id='3018'>0.71703E+03</wgt>
<wgt id='3019'>0.71453E+03</wgt>
<wgt id='3020'>0.71313E+03</wgt>
<wgt id='3021'>0.71293E+03</wgt>
<wgt id='3022'>0.71511E+03</wgt>
<wgt id='3023'>0.71343E+03</wgt>
<wgt id='3024'>0.71189E+03</wgt>
<wgt id='3025'>0.71557E+03</wgt>
<wgt id='3026'>0.71743E+03</wgt>
<wgt id='3027'>0.71523E+03</wgt>
<wgt id='3028'>0.71098E+03</wgt>
<wgt id='3029'>0.71285E+03</wgt>
<wgt id='3030'>0.71768E+03</wgt>
<wgt id='3031'>0.71646E+03</wgt>
<wgt id='3032'>0.71718E+03</wgt>
<wgt id='3033'>0.71783E+03</wgt>
<wgt id='3034'>0.71605E+03</wgt>
<wgt id='3035'>0.71738E+03</wgt>
<wgt id='3036'>0.71562E+03</wgt>
<wgt id='3037'>0.71514E+03</wgt>
<wgt id='3038'>0.71533E+03</wgt>
<wgt id='3039'>0.71363E+03</wgt>
<wgt id='3040'>0.71545E+03</wgt>
<wgt id='3041'>0.71626E+03</wgt>
<wgt id='3042'>0.71411E+03</wgt>
<wgt id='3043'>0.71426E+03</wgt>
<wgt id='3044'>0.71496E+03</wgt>
<wgt id='3045'>0.71585E+03</wgt>
<wgt id='3046'>0.71594E+03</wgt>
<wgt id='3047'>0.71511E+03</wgt>
<wgt id='3048'>0.71582E+03</wgt>
<wgt id='3049'>0.71514E+03</wgt>
<wgt id='3050'>0.71522E+03</wgt>
<wgt id='3051'>0.71609E+03</wgt>
<wgt id='3052'>0.71469E+03</wgt>
<wgt id='3053'>0.71478E+03</wgt>
<wgt id='3054'>0.71505E+03</wgt>
<wgt id='3055'>0.71427E+03</wgt>
<wgt id='3056'>0.71523E+03</wgt>
<wgt id='3057'>0.71462E+03</wgt>
<wgt id='3058'>0.71474E+03</wgt>
<wgt id='3059'>0.71506E+03</wgt>
<wgt id='3060'>0.71534E+03</wgt>
<wgt id='3061'>0.71501E+03</wgt>
<wgt id='3062'>0.71522E+03</wgt>
<wgt id='3063'>0.71560E+03</wgt>
<wgt id='3064'>0.71490E+03</wgt>
<wgt id='3065'>0.71520E+03</wgt>
<wgt id='3066'>0.71528E+03</wgt>
<wgt id='3067'>0.71492E+03</wgt>
<wgt id='3068'>0.71527E+03</wgt>
<wgt id='3069'>0.71499E+03</wgt>
<wgt id='3070'>0.71537E+03</wgt>
<wgt id='3071'>0.71513E+03</wgt>
<wgt id='3072'>0.71512E+03</wgt>
<wgt id='3073'>0.71487E+03</wgt>
<wgt id='3074'>0.71559E+03</wgt>
<wgt id='3075'>0.71513E+03</wgt>
<wgt id='3076'>0.71516E+03</wgt>
<wgt id='3077'>0.71531E+03</wgt>
<wgt id='3078'>0.71529E+03</wgt>
<wgt id='3079'>0.71502E+03</wgt>
<wgt id='3080'>0.71508E+03</wgt>
<wgt id='3081'>0.71512E+03</wgt>
<wgt id='3082'>0.71498E+03</wgt>
<wgt id='3083'>0.71527E+03</wgt>
<wgt id='3084'>0.71515E+03</wgt>
<wgt id='3085'>0.71527E+03</wgt>
<wgt id='3086'>0.71508E+03</wgt>
<wgt id='3087'>0.71510E+03</wgt>
<wgt id='3088'>0.71513E+03</wgt>
<wgt id='3089'>0.71517E+03</wgt>
<wgt id='3090'>0.71524E+03</wgt>
<wgt id='3091'>0.71516E+03</wgt>
<wgt id='3092'>0.71516E+03</wgt>
<wgt id='3093'>0.71521E+03</wgt>
<wgt id='3094'>0.71533E+03</wgt>
<wgt id='3095'>0.71518E+03</wgt>
<wgt id='3096'>0.71505E+03</wgt>
<wgt id='3097'>0.71503E+03</wgt>
<wgt id='3098'>0.71507E+03</wgt>
<wgt id='3099'>0.71525E+03</wgt>
<wgt id='3100'>0.71523E+03</wgt>
<wgt id='3101'>0.69557E+03</wgt>
<wgt id='3102'>0.73373E+03</wgt>
<wgt id='5000'>0.67318E+03</wgt>
<wgt id='5001'>0.67448E+03</wgt>
<wgt id='5002'>0.67470E+03</wgt>
<wgt id='5003'>0.67357E+03</wgt>
<wgt id='5004'>0.66960E+03</wgt>
<wgt id='5005'>0.66202E+03</wgt>
<wgt id='5006'>0.65567E+03</wgt>
<wgt id='5007'>0.66488E+03</wgt>
<wgt id='5008'>0.67582E+03</wgt>
<wgt id='5009'>0.66979E+03</wgt>
<wgt id='5010'>0.67236E+03</wgt>
<wgt id='5011'>0.67499E+03</wgt>
<wgt id='5012'>0.67310E+03</wgt>
<wgt id='5013'>0.67848E+03</wgt>
<wgt id='5014'>0.68488E+03</wgt>
<wgt id='5015'>0.67363E+03</wgt>
<wgt id='5016'>0.67207E+03</wgt>
<wgt id='5017'>0.66132E+03</wgt>
<wgt id='5018'>0.68574E+03</wgt>
<wgt id='5019'>0.68419E+03</wgt>
<wgt id='5020'>0.66299E+03</wgt>
<wgt id='5021'>0.67217E+03</wgt>
<wgt id='5022'>0.67380E+03</wgt>
<wgt id='5023'>0.67005E+03</wgt>
<wgt id='5024'>0.67656E+03</wgt>
<wgt id='5025'>0.67731E+03</wgt>
<wgt id='5026'>0.66976E+03</wgt>
<wgt id='5027'>0.67578E+03</wgt>
<wgt id='5028'>0.66876E+03</wgt>
<wgt id='5029'>0.66873E+03</wgt>
<wgt id='5030'>0.67599E+03</wgt>
<wgt id='5031'>0.66931E+03</wgt>
<wgt id='5032'>0.67895E+03</wgt>
<wgt id='5033'>0.67363E+03</wgt>
<wgt id='5034'>0.67266E+03</wgt>
<wgt id='5035'>0.68095E+03</wgt>
<wgt id='5036'>0.66601E+03</wgt>
<wgt id='5037'>0.65476E+03</wgt>
<wgt id='5038'>0.69393E+03</wgt>
<wgt id='5039'>0.68927E+03</wgt>
<wgt id='5040'>0.66432E+03</wgt>
<wgt id='5041'>0.67530E+03</wgt>
<wgt id='5042'>0.67159E+03</wgt>
<wgt id='5043'>0.67534E+03</wgt>
<wgt id='5044'>0.67234E+03</wgt>
<wgt id='5045'>0.68555E+03</wgt>
<wgt id='5046'>0.65233E+03</wgt>
<wgt id='5047'>0.68011E+03</wgt>
<wgt id='5048'>0.66354E+03</wgt>
<wgt id='5049'>0.67445E+03</wgt>
<wgt id='5050'>0.67141E+03</wgt>
<wgt id='5051'>0.67253E+03</wgt>
<wgt id='5052'>0.67339E+03</wgt>
<wgt id='5053'>0.65988E+03</wgt>
<wgt id='5054'>0.66302E+03</wgt>
<wgt id='5055'>0.66720E+03</wgt>
<wgt id='5056'>0.68621E+03</wgt>
<wgt id='5060'>0.65194E+03</wgt>
<wgt id='5070'>0.69479E+03</wgt>
<wgt id='4000'>0.67794E+03</wgt>
<wgt id='4001'>0.67740E+03</wgt>
<wgt id='4002'>0.67808E+03</wgt>
<wgt id='4003'>0.66834E+03</wgt>
<wgt id='4004'>0.66943E+03</wgt>
<wgt id='4005'>0.67505E+03</wgt>
<wgt id='4006'>0.68086E+03</wgt>
<wgt id='4007'>0.68251E+03</wgt>
<wgt id='4008'>0.66797E+03</wgt>
<wgt id='4009'>0.67918E+03</wgt>
<wgt id='4010'>0.67241E+03</wgt>
<wgt id='4011'>0.69283E+03</wgt>
<wgt id='4012'>0.66692E+03</wgt>
<wgt id='4013'>0.67674E+03</wgt>
<wgt id='4014'>0.67940E+03</wgt>
<wgt id='4015'>0.69344E+03</wgt>
<wgt id='4016'>0.66725E+03</wgt>
<wgt id='4017'>0.66497E+03</wgt>
<wgt id='4018'>0.69327E+03</wgt>
<wgt id='4019'>0.68544E+03</wgt>
<wgt id='4020'>0.67024E+03</wgt>
<wgt id='4021'>0.68064E+03</wgt>
<wgt id='4022'>0.67272E+03</wgt>
<wgt id='4023'>0.67596E+03</wgt>
<wgt id='4024'>0.68007E+03</wgt>
<wgt id='4025'>0.69253E+03</wgt>
<wgt id='4026'>0.66396E+03</wgt>
<wgt id='4027'>0.67901E+03</wgt>
<wgt id='4028'>0.67661E+03</wgt>
<wgt id='4029'>0.67712E+03</wgt>
<wgt id='4030'>0.67829E+03</wgt>
<wgt id='4031'>0.68085E+03</wgt>
<wgt id='4032'>0.67418E+03</wgt>
<wgt id='4033'>0.67206E+03</wgt>
<wgt id='4034'>0.69095E+03</wgt>
<wgt id='4035'>0.66937E+03</wgt>
<wgt id='4036'>0.68669E+03</wgt>
<wgt id='4037'>0.67788E+03</wgt>
<wgt id='4038'>0.67847E+03</wgt>
<wgt id='4039'>0.67855E+03</wgt>
<wgt id='4040'>0.67885E+03</wgt>
<wgt id='4041'>0.67625E+03</wgt>
<wgt id='4042'>0.68043E+03</wgt>
<wgt id='4043'>0.67856E+03</wgt>
<wgt id='4044'>0.68506E+03</wgt>
<wgt id='4045'>0.67185E+03</wgt>
<wgt id='4046'>0.68239E+03</wgt>
<wgt id='4047'>0.67729E+03</wgt>
<wgt id='4048'>0.66166E+03</wgt>
<wgt id='4049'>0.66181E+03</wgt>
<wgt id='4050'>0.67622E+03</wgt>
<wgt id='4051'>0.67949E+03</wgt>
<wgt id='4052'>0.67923E+03</wgt>
<wgt id='4053'>0.65879E+03</wgt>
<wgt id='4054'>0.68742E+03</wgt>
<wgt id='4055'>0.67171E+03</wgt>
<wgt id='4056'>0.68977E+03</wgt>
<wgt id='4060'>0.65805E+03</wgt>
<wgt id='4070'>0.69855E+03</wgt>
<wgt id='4080'>0.60380E+03</wgt>
<wgt id='6000'>0.70027E+03</wgt>
<wgt id='6001'>0.70063E+03</wgt>
<wgt id='6002'>0.69991E+03</wgt>
<wgt id='6003'>0.70107E+03</wgt>
<wgt id='6004'>0.69973E+03</wgt>
<wgt id='6005'>0.70437E+03</wgt>
<wgt id='6006'>0.69649E+03</wgt>
<wgt id='6007'>0.69761E+03</wgt>
<wgt id='6008'>0.70333E+03</wgt>
<wgt id='6009'>0.70085E+03</wgt>
<wgt id='6010'>0.69972E+03</wgt>
<wgt id='6011'>0.70089E+03</wgt>
<wgt id='6012'>0.69894E+03</wgt>
<wgt id='6013'>0.70010E+03</wgt>
<wgt id='6014'>0.70064E+03</wgt>
<wgt id='6015'>0.69924E+03</wgt>
<wgt id='6016'>0.70088E+03</wgt>
<wgt id='6017'>0.69774E+03</wgt>
<wgt id='6018'>0.70329E+03</wgt>
<wgt id='6019'>0.70074E+03</wgt>
<wgt id='6020'>0.69987E+03</wgt>
<wgt id='6021'>0.69896E+03</wgt>
<wgt id='6022'>0.70200E+03</wgt>
<wgt id='6023'>0.69647E+03</wgt>
<wgt id='6024'>0.70284E+03</wgt>
<wgt id='6025'>0.70065E+03</wgt>
<wgt id='6026'>0.70011E+03</wgt>
<wgt id='6027'>0.70070E+03</wgt>
<wgt id='6028'>0.69997E+03</wgt>
<wgt id='6029'>0.69838E+03</wgt>
<wgt id='6030'>0.70261E+03</wgt>
<wgt id='6031'>0.69331E+03</wgt>
<wgt id='6032'>0.70818E+03</wgt>
<wgt id='6033'>0.70341E+03</wgt>
<wgt id='6034'>0.69726E+03</wgt>
<wgt id='6035'>0.70135E+03</wgt>
<wgt id='6036'>0.69749E+03</wgt>
<wgt id='6037'>0.70084E+03</wgt>
<wgt id='6038'>0.70004E+03</wgt>
<wgt id='6039'>0.69867E+03</wgt>
<wgt id='6040'>0.70212E+03</wgt>
<wgt id='6041'>0.69496E+03</wgt>
<wgt id='6042'>0.70631E+03</wgt>
<wgt id='6043'>0.70582E+03</wgt>
<wgt id='6044'>0.69712E+03</wgt>
<wgt id='6045'>0.69952E+03</wgt>
<wgt id='6046'>0.70214E+03</wgt>
<wgt id='6047'>0.71064E+03</wgt>
<wgt id='6048'>0.68544E+03</wgt>
<wgt id='6049'>0.70509E+03</wgt>
<wgt id='6050'>0.69776E+03</wgt>
<wgt id='7000'>0.67530E+03</wgt>
<wgt id='7001'>0.67499E+03</wgt>
<wgt id='7002'>0.67572E+03</wgt>
<wgt id='7003'>0.67748E+03</wgt>
<wgt id='7004'>0.67311E+03</wgt>
<wgt id='7005'>0.67749E+03</wgt>
<wgt id='7006'>0.67443E+03</wgt>
<wgt id='7007'>0.67473E+03</wgt>
<wgt id='7008'>0.67585E+03</wgt>
<wgt id='7009'>0.67574E+03</wgt>
<wgt id='7010'>0.67483E+03</wgt>
<wgt id='7011'>0.67360E+03</wgt>
<wgt id='7012'>0.67603E+03</wgt>
<wgt id='7013'>0.67522E+03</wgt>
<wgt id='7014'>0.67538E+03</wgt>
<wgt id='7015'>0.67511E+03</wgt>
<wgt id='7016'>0.67545E+03</wgt>
<wgt id='7017'>0.67647E+03</wgt>
<wgt id='7018'>0.67459E+03</wgt>
<wgt id='7019'>0.67540E+03</wgt>
<wgt id='7020'>0.67516E+03</wgt>
<wgt id='7021'>0.67400E+03</wgt>
<wgt id='7022'>0.67619E+03</wgt>
<wgt id='7023'>0.68165E+03</wgt>
<wgt id='7024'>0.66935E+03</wgt>
<wgt id='7025'>0.67722E+03</wgt>
<wgt id='7026'>0.67039E+03</wgt>
<wgt id='7027'>0.67579E+03</wgt>
<wgt id='7028'>0.67421E+03</wgt>
<wgt id='7029'>0.67681E+03</wgt>
<wgt id='7030'>0.67191E+03</wgt>
<wgt id='7031'>0.67236E+03</wgt>
<wgt id='7032'>0.68129E+03</wgt>
<wgt id='7033'>0.67604E+03</wgt>
<wgt id='7034'>0.67360E+03</wgt>
<wgt id='7035'>0.67142E+03</wgt>
<wgt id='7036'>0.67685E+03</wgt>
<wgt id='7037'>0.67506E+03</wgt>
<wgt id='7038'>0.67511E+03</wgt>
<wgt id='7039'>0.67303E+03</wgt>
<wgt id='7040'>0.67697E+03</wgt>
<wgt id='7041'>0.67571E+03</wgt>
<wgt id='7042'>0.67417E+03</wgt>
<wgt id='7043'>0.67596E+03</wgt>
<wgt id='7044'>0.67159E+03</wgt>
<wgt id='7045'>0.66475E+03</wgt>
<wgt id='7046'>0.68235E+03</wgt>
<wgt id='7047'>0.67970E+03</wgt>
<wgt id='7048'>0.67327E+03</wgt>
<wgt id='7049'>0.67001E+03</wgt>
<wgt id='7050'>0.67832E+03</wgt>
<wgt id='7060'>0.81042E+03</wgt>
<wgt id='8000'>0.66892E+03</wgt>
<wgt id='8001'>0.66885E+03</wgt>
<wgt id='8002'>0.66912E+03</wgt>
<wgt id='8003'>0.66893E+03</wgt>
<wgt id='8004'>0.66890E+03</wgt>
<wgt id='8005'>0.66774E+03</wgt>
<wgt id='8006'>0.66972E+03</wgt>
<wgt id='8007'>0.67050E+03</wgt>
<wgt id='8008'>0.67046E+03</wgt>
<wgt id='8009'>0.67176E+03</wgt>
<wgt id='8010'>0.66809E+03</wgt>
<wgt id='8011'>0.66908E+03</wgt>
<wgt id='8012'>0.66621E+03</wgt>
<wgt id='8013'>0.66746E+03</wgt>
<wgt id='8014'>0.67074E+03</wgt>
<wgt id='8015'>0.66856E+03</wgt>
<wgt id='8016'>0.66958E+03</wgt>
<wgt id='8017'>0.66932E+03</wgt>
<wgt id='8018'>0.67070E+03</wgt>
<wgt id='8019'>0.66949E+03</wgt>
<wgt id='8020'>0.66843E+03</wgt>
<wgt id='8021'>0.66836E+03</wgt>
<wgt id='8022'>0.66802E+03</wgt>
<wgt id='8023'>0.66828E+03</wgt>
<wgt id='8024'>0.66685E+03</wgt>
<wgt id='8025'>0.66868E+03</wgt>
<wgt id='8026'>0.66983E+03</wgt>
<wgt id='8027'>0.66942E+03</wgt>
<wgt id='8028'>0.66937E+03</wgt>
<wgt id='8029'>0.66715E+03</wgt>
<wgt id='8500'>0.70134E+03</wgt>
<wgt id='8501'>0.69685E+03</wgt>
<wgt id='8502'>0.70703E+03</wgt>
<wgt id='8503'>0.70328E+03</wgt>
<wgt id='8504'>0.69816E+03</wgt>
<wgt id='8505'>0.69979E+03</wgt>
<wgt id='8506'>0.70671E+03</wgt>
<wgt id='8507'>0.69189E+03</wgt>
<wgt id='8508'>0.68753E+03</wgt>
<wgt id='8509'>0.70730E+03</wgt>
<wgt id='8510'>0.71092E+03</wgt>
<wgt id='8511'>0.70052E+03</wgt>
<wgt id='8512'>0.69900E+03</wgt>
<wgt id='8513'>0.70221E+03</wgt>
<wgt id='8514'>0.68894E+03</wgt>
<wgt id='8515'>0.70662E+03</wgt>
<wgt id='8516'>0.69938E+03</wgt>
<wgt id='8517'>0.69708E+03</wgt>
<wgt id='8518'>0.69794E+03</wgt>
<wgt id='8519'>0.69750E+03</wgt>
<wgt id='8520'>0.69859E+03</wgt>
<wgt id='8521'>0.69915E+03</wgt>
<wgt id='8522'>0.70382E+03</wgt>
<wgt id='8523'>0.69837E+03</wgt>
<wgt id='8524'>0.70149E+03</wgt>
<wgt id='8525'>0.70211E+03</wgt>
<wgt id='8526'>0.70034E+03</wgt>
<wgt id='8527'>0.70044E+03</wgt>
<wgt id='8528'>0.70061E+03</wgt>
<wgt id='8529'>0.70023E+03</wgt>
<wgt id='8530'>0.70238E+03</wgt>
<wgt id='8531'>0.70113E+03</wgt>
<wgt id='8532'>0.70129E+03</wgt>
<wgt id='8533'>0.69989E+03</wgt>
<wgt id='8534'>0.70157E+03</wgt>
<wgt id='8535'>0.70298E+03</wgt>
<wgt id='8536'>0.70109E+03</wgt>
<wgt id='8537'>0.70138E+03</wgt>
<wgt id='8538'>0.70129E+03</wgt>
<wgt id='8539'>0.70175E+03</wgt>
<wgt id='8540'>0.70196E+03</wgt>
<wgt id='8541'>0.70196E+03</wgt>
<wgt id='8542'>0.70178E+03</wgt>
<wgt id='8543'>0.70050E+03</wgt>
<wgt id='8544'>0.70231E+03</wgt>
<wgt id='8545'>0.70171E+03</wgt>
<wgt id='8546'>0.70212E+03</wgt>
<wgt id='8547'>0.70077E+03</wgt>
<wgt id='8548'>0.70109E+03</wgt>
<wgt id='8549'>0.70146E+03</wgt>
<wgt id='8550'>0.70081E+03</wgt>
<wgt id='8551'>0.70091E+03</wgt>
<wgt id='8552'>0.70084E+03</wgt>
<wgt id='8553'>0.70041E+03</wgt>
<wgt id='8554'>0.70091E+03</wgt>
<wgt id='8555'>0.70138E+03</wgt>
<wgt id='8556'>0.70111E+03</wgt>
<wgt id='8557'>0.70152E+03</wgt>
<wgt id='8558'>0.70222E+03</wgt>
<wgt id='8559'>0.70116E+03</wgt>
<wgt id='8560'>0.70041E+03</wgt>
<wgt id='8561'>0.70169E+03</wgt>
<wgt id='8562'>0.70094E+03</wgt>
<wgt id='8563'>0.70135E+03</wgt>
<wgt id='8564'>0.70105E+03</wgt>
<wgt id='8565'>0.70157E+03</wgt>
<wgt id='8566'>0.70171E+03</wgt>
<wgt id='8567'>0.70133E+03</wgt>
<wgt id='8568'>0.70186E+03</wgt>
<wgt id='8569'>0.70168E+03</wgt>
<wgt id='8570'>0.70109E+03</wgt>
<wgt id='8571'>0.70078E+03</wgt>
<wgt id='8572'>0.70091E+03</wgt>
<wgt id='8573'>0.70104E+03</wgt>
<wgt id='8574'>0.70098E+03</wgt>
<wgt id='8575'>0.70120E+03</wgt>
<wgt id='8576'>0.70140E+03</wgt>
<wgt id='8577'>0.70093E+03</wgt>
<wgt id='8578'>0.70121E+03</wgt>
<wgt id='8579'>0.70189E+03</wgt>
<wgt id='8580'>0.70128E+03</wgt>
<wgt id='8581'>0.70170E+03</wgt>
<wgt id='8582'>0.70097E+03</wgt>
<wgt id='8583'>0.70153E+03</wgt>
<wgt id='8584'>0.70181E+03</wgt>
<wgt id='8585'>0.70154E+03</wgt>
<wgt id='8586'>0.70209E+03</wgt>
<wgt id='8587'>0.70145E+03</wgt>
<wgt id='8588'>0.70135E+03</wgt>
<wgt id='8589'>0.70133E+03</wgt>
<wgt id='8590'>0.70139E+03</wgt>
<wgt id='8591'>0.70098E+03</wgt>
<wgt id='8592'>0.70128E+03</wgt>
<wgt id='8593'>0.70117E+03</wgt>
<wgt id='8594'>0.70122E+03</wgt>
<wgt id='8595'>0.70127E+03</wgt>
<wgt id='8596'>0.70127E+03</wgt>
<wgt id='8597'>0.70149E+03</wgt>
<wgt id='8598'>0.70149E+03</wgt>
<wgt id='8599'>0.70140E+03</wgt>
<wgt id='8600'>0.70136E+03</wgt>
<wgt id='8601'>0.69022E+03</wgt>
<wgt id='8602'>0.71227E+03</wgt>
<wgt id='9000'>0.67751E+03</wgt>
<wgt id='9001'>0.67680E+03</wgt>
<wgt id='9002'>0.67980E+03</wgt>
<wgt id='9003'>0.67379E+03</wgt>
<wgt id='9004'>0.67815E+03</wgt>
<wgt id='9005'>0.68155E+03</wgt>
<wgt id='9006'>0.67624E+03</wgt>
<wgt id='9007'>0.67229E+03</wgt>
<wgt id='9008'>0.67564E+03</wgt>
<wgt id='9009'>0.67789E+03</wgt>
<wgt id='9010'>0.67269E+03</wgt>
<wgt id='9011'>0.68355E+03</wgt>
<wgt id='9012'>0.68332E+03</wgt>
<wgt id='9013'>0.67258E+03</wgt>
<wgt id='9014'>0.67901E+03</wgt>
<wgt id='9015'>0.67643E+03</wgt>
<wgt id='9016'>0.68687E+03</wgt>
<wgt id='9017'>0.67199E+03</wgt>
<wgt id='9018'>0.67662E+03</wgt>
<wgt id='9019'>0.67845E+03</wgt>
<wgt id='9020'>0.68238E+03</wgt>
<wgt id='9021'>0.67710E+03</wgt>
<wgt id='9022'>0.67930E+03</wgt>
<wgt id='9023'>0.67291E+03</wgt>
<wgt id='9024'>0.67584E+03</wgt>
<wgt id='9025'>0.67828E+03</wgt>
<wgt id='9026'>0.67738E+03</wgt>
<wgt id='9027'>0.67712E+03</wgt>
<wgt id='9028'>0.67799E+03</wgt>
<wgt id='9029'>0.67844E+03</wgt>
<wgt id='9030'>0.67829E+03</wgt>
<wgt id='9031'>0.67663E+03</wgt>
<wgt id='9032'>0.67790E+03</wgt>
<wgt id='9033'>0.67812E+03</wgt>
<wgt id='9034'>0.67787E+03</wgt>
<wgt id='9035'>0.67817E+03</wgt>
<wgt id='9036'>0.67779E+03</wgt>
<wgt id='9037'>0.67800E+03</wgt>
<wgt id='9038'>0.67799E+03</wgt>
<wgt id='9039'>0.67744E+03</wgt>
<wgt id='9040'>0.67712E+03</wgt>
<wgt id='9041'>0.67759E+03</wgt>
<wgt id='9042'>0.67765E+03</wgt>
<wgt id='9043'>0.67661E+03</wgt>
<wgt id='9044'>0.67768E+03</wgt>
<wgt id='9045'>0.67774E+03</wgt>
<wgt id='9046'>0.67662E+03</wgt>
<wgt id='9047'>0.67775E+03</wgt>
<wgt id='9048'>0.67784E+03</wgt>
<wgt id='9049'>0.67710E+03</wgt>
<wgt id='9050'>0.67754E+03</wgt>
<wgt id='9051'>0.67799E+03</wgt>
<wgt id='9052'>0.67800E+03</wgt>
<wgt id='9053'>0.67746E+03</wgt>
<wgt id='9054'>0.67720E+03</wgt>
<wgt id='9055'>0.67714E+03</wgt>
<wgt id='9056'>0.67806E+03</wgt>
<wgt id='9057'>0.67765E+03</wgt>
<wgt id='9058'>0.67662E+03</wgt>
<wgt id='9059'>0.67709E+03</wgt>
<wgt id='9060'>0.67718E+03</wgt>
<wgt id='9061'>0.67757E+03</wgt>
<wgt id='9062'>0.67764E+03</wgt>
<wgt id='9063'>0.67774E+03</wgt>
<wgt id='9064'>0.67747E+03</wgt>
<wgt id='9065'>0.67736E+03</wgt>
<wgt id='9066'>0.67751E+03</wgt>
<wgt id='9067'>0.67774E+03</wgt>
<wgt id='9068'>0.67767E+03</wgt>
<wgt id='9069'>0.67808E+03</wgt>
<wgt id='9070'>0.67733E+03</wgt>
<wgt id='9071'>0.67802E+03</wgt>
<wgt id='9072'>0.67805E+03</wgt>
<wgt id='9073'>0.67735E+03</wgt>
<wgt id='9074'>0.67762E+03</wgt>
<wgt id='9075'>0.67748E+03</wgt>
<wgt id='9076'>0.67741E+03</wgt>
<wgt id='9077'>0.67771E+03</wgt>
<wgt id='9078'>0.67751E+03</wgt>
<wgt id='9079'>0.67740E+03</wgt>
<wgt id='9080'>0.67826E+03</wgt>
<wgt id='9081'>0.67747E+03</wgt>
<wgt id='9082'>0.67774E+03</wgt>
<wgt id='9083'>0.67725E+03</wgt>
<wgt id='9084'>0.67716E+03</wgt>
<wgt id='9085'>0.67712E+03</wgt>
<wgt id='9086'>0.67771E+03</wgt>
<wgt id='9087'>0.67679E+03</wgt>
<wgt id='9088'>0.67722E+03</wgt>
<wgt id='9089'>0.67723E+03</wgt>
<wgt id='9090'>0.67763E+03</wgt>
<wgt id='9091'>0.67732E+03</wgt>
<wgt id='9092'>0.67742E+03</wgt>
<wgt id='9093'>0.67733E+03</wgt>
<wgt id='9094'>0.67735E+03</wgt>
<wgt id='9095'>0.67757E+03</wgt>
<wgt id='9096'>0.67735E+03</wgt>
<wgt id='9097'>0.67758E+03</wgt>
<wgt id='9098'>0.67744E+03</wgt>
<wgt id='9099'>0.67732E+03</wgt>
<wgt id='9100'>0.67752E+03</wgt>
<wgt id='9101'>0.66711E+03</wgt>
<wgt id='9102'>0.68863E+03</wgt>
<wgt id='10000'>0.70147E+03</wgt>
<wgt id='10001'>0.70603E+03</wgt>
<wgt id='10002'>0.69278E+03</wgt>
<wgt id='10003'>0.70080E+03</wgt>
<wgt id='10004'>0.68500E+03</wgt>
<wgt id='10005'>0.70669E+03</wgt>
<wgt id='10006'>0.69708E+03</wgt>
<wgt id='10007'>0.70109E+03</wgt>
<wgt id='10008'>0.70470E+03</wgt>
<wgt id='10009'>0.69750E+03</wgt>
<wgt id='10010'>0.70463E+03</wgt>
<wgt id='10011'>0.69653E+03</wgt>
<wgt id='10012'>0.70214E+03</wgt>
<wgt id='10013'>0.70282E+03</wgt>
<wgt id='10014'>0.69960E+03</wgt>
<wgt id='10015'>0.70071E+03</wgt>
<wgt id='10016'>0.69724E+03</wgt>
<wgt id='10017'>0.70989E+03</wgt>
<wgt id='10018'>0.70296E+03</wgt>
<wgt id='10019'>0.69988E+03</wgt>
<wgt id='10020'>0.69893E+03</wgt>
<wgt id='10021'>0.70057E+03</wgt>
<wgt id='10022'>0.70089E+03</wgt>
<wgt id='10023'>0.70193E+03</wgt>
<wgt id='10024'>0.70002E+03</wgt>
<wgt id='10025'>0.70055E+03</wgt>
<wgt id='10026'>0.70536E+03</wgt>
<wgt id='10027'>0.70412E+03</wgt>
<wgt id='10028'>0.71280E+03</wgt>
<wgt id='10029'>0.70202E+03</wgt>
<wgt id='10030'>0.70104E+03</wgt>
<wgt id='10031'>0.69022E+03</wgt>
<wgt id='10032'>0.71227E+03</wgt>
<wgt id='11000'>0.67763E+03</wgt>
<wgt id='11001'>0.66339E+03</wgt>
<wgt id='11002'>0.68033E+03</wgt>
<wgt id='11003'>0.67724E+03</wgt>
<wgt id='11004'>0.68109E+03</wgt>
<wgt id='11005'>0.67633E+03</wgt>
<wgt id='11006'>0.67821E+03</wgt>
<wgt id='11007'>0.67634E+03</wgt>
<wgt id='11008'>0.67751E+03</wgt>
<wgt id='11009'>0.67575E+03</wgt>
<wgt id='11010'>0.67225E+03</wgt>
<wgt id='11011'>0.67617E+03</wgt>
<wgt id='11012'>0.67781E+03</wgt>
<wgt id='11013'>0.67875E+03</wgt>
<wgt id='11014'>0.67661E+03</wgt>
<wgt id='11015'>0.67718E+03</wgt>
<wgt id='11016'>0.67745E+03</wgt>
<wgt id='11017'>0.68063E+03</wgt>
<wgt id='11018'>0.67701E+03</wgt>
<wgt id='11019'>0.67707E+03</wgt>
<wgt id='11020'>0.68007E+03</wgt>
<wgt id='11021'>0.67832E+03</wgt>
<wgt id='11022'>0.68473E+03</wgt>
<wgt id='11023'>0.67820E+03</wgt>
<wgt id='11024'>0.67891E+03</wgt>
<wgt id='11025'>0.67806E+03</wgt>
<wgt id='11026'>0.67771E+03</wgt>
<wgt id='11027'>0.67768E+03</wgt>
<wgt id='11028'>0.67873E+03</wgt>
<wgt id='11029'>0.67862E+03</wgt>
<wgt id='11030'>0.67751E+03</wgt>
<wgt id='11031'>0.66711E+03</wgt>
<wgt id='11032'>0.68863E+03</wgt>
<wgt id='12000'>0.67475E+03</wgt>
<wgt id='12001'>0.67382E+03</wgt>
<wgt id='12002'>0.67569E+03</wgt>
<wgt id='12003'>0.67507E+03</wgt>
<wgt id='12004'>0.67444E+03</wgt>
<wgt id='12005'>0.67583E+03</wgt>
<wgt id='12006'>0.67368E+03</wgt>
<wgt id='12007'>0.67856E+03</wgt>
<wgt id='12008'>0.67104E+03</wgt>
<wgt id='12009'>0.67389E+03</wgt>
<wgt id='12010'>0.67564E+03</wgt>
<wgt id='12011'>0.67005E+03</wgt>
<wgt id='12012'>0.68002E+03</wgt>
<wgt id='12013'>0.67254E+03</wgt>
<wgt id='12014'>0.67701E+03</wgt>
<wgt id='12015'>0.67575E+03</wgt>
<wgt id='12016'>0.67245E+03</wgt>
<wgt id='12017'>0.67831E+03</wgt>
<wgt id='12018'>0.67264E+03</wgt>
<wgt id='12019'>0.67461E+03</wgt>
<wgt id='12020'>0.67423E+03</wgt>
<wgt id='12021'>0.67570E+03</wgt>
<wgt id='12022'>0.67383E+03</wgt>
<wgt id='12023'>0.66904E+03</wgt>
<wgt id='12024'>0.67929E+03</wgt>
<wgt id='12025'>0.67275E+03</wgt>
<wgt id='12026'>0.67708E+03</wgt>
<wgt id='12027'>0.68336E+03</wgt>
<wgt id='12028'>0.66682E+03</wgt>
<wgt id='12050'>0.67475E+03</wgt>
<wgt id='12051'>0.67127E+03</wgt>
<wgt id='12052'>0.66437E+03</wgt>
<wgt id='12053'>0.67137E+03</wgt>
<wgt id='12054'>0.66576E+03</wgt>
<wgt id='12055'>0.66931E+03</wgt>
<wgt id='12056'>0.67128E+03</wgt>
<wgt id='12057'>0.66801E+03</wgt>
<wgt id='12058'>0.66954E+03</wgt>
<wgt id='12059'>0.67259E+03</wgt>
<wgt id='12060'>0.66486E+03</wgt>
<wgt id='12061'>0.66604E+03</wgt>
<wgt id='12062'>0.66622E+03</wgt>
<wgt id='12063'>0.66494E+03</wgt>
<wgt id='13000'>0.66786E+03</wgt>
<wgt id='13001'>0.65980E+03</wgt>
<wgt id='13002'>0.66129E+03</wgt>
<wgt id='13003'>0.66020E+03</wgt>
<wgt id='13004'>0.66090E+03</wgt>
<wgt id='13005'>0.66134E+03</wgt>
<wgt id='13006'>0.65976E+03</wgt>
<wgt id='13007'>0.66488E+03</wgt>
<wgt id='13008'>0.65633E+03</wgt>
<wgt id='13009'>0.65743E+03</wgt>
<wgt id='13010'>0.66377E+03</wgt>
<wgt id='13011'>0.66292E+03</wgt>
<wgt id='13012'>0.65821E+03</wgt>
<wgt id='13013'>0.65958E+03</wgt>
<wgt id='13014'>0.66144E+03</wgt>
<wgt id='13015'>0.65974E+03</wgt>
<wgt id='13016'>0.65929E+03</wgt>
<wgt id='13017'>0.66092E+03</wgt>
<wgt id='13018'>0.66023E+03</wgt>
<wgt id='13019'>0.65917E+03</wgt>
<wgt id='13020'>0.66202E+03</wgt>
<wgt id='13021'>0.66193E+03</wgt>
<wgt id='13022'>0.65913E+03</wgt>
<wgt id='13023'>0.65776E+03</wgt>
<wgt id='13024'>0.66347E+03</wgt>
<wgt id='13025'>0.65219E+03</wgt>
<wgt id='13026'>0.66845E+03</wgt>
<wgt id='13027'>0.65714E+03</wgt>
<wgt id='13028'>0.66434E+03</wgt>
<wgt id='13050'>0.66787E+03</wgt>
<wgt id='13051'>0.66324E+03</wgt>
<wgt id='13052'>0.65452E+03</wgt>
<wgt id='13053'>0.66298E+03</wgt>
<wgt id='13054'>0.65848E+03</wgt>
<wgt id='13055'>0.65220E+03</wgt>
<wgt id='13056'>0.65609E+03</wgt>
<wgt id='13057'>0.65978E+03</wgt>
<wgt id='13058'>0.66325E+03</wgt>
<wgt id='13059'>0.66290E+03</wgt>
<wgt id='13060'>0.64603E+03</wgt>
<wgt id='13061'>0.65903E+03</wgt>
<wgt id='13062'>0.66402E+03</wgt>
<wgt id='13063'>0.66267E+03</wgt>
<wgt id='14000'>0.67697E+03</wgt>
<wgt id='14001'>0.67690E+03</wgt>
<wgt id='14002'>0.67682E+03</wgt>
<wgt id='14003'>0.67674E+03</wgt>
<wgt id='14004'>0.67666E+03</wgt>
<wgt id='14005'>0.67658E+03</wgt>
<wgt id='14006'>0.67650E+03</wgt>
<wgt id='14007'>0.67643E+03</wgt>
<wgt id='14008'>0.67635E+03</wgt>
<wgt id='14009'>0.67627E+03</wgt>
<wgt id='14010'>0.67619E+03</wgt>
<wgt id='14011'>0.67612E+03</wgt>
<wgt id='14012'>0.67604E+03</wgt>
<wgt id='14013'>0.67596E+03</wgt>
<wgt id='14014'>0.67588E+03</wgt>
<wgt id='14015'>0.67580E+03</wgt>
<wgt id='14016'>0.67573E+03</wgt>
<wgt id='14017'>0.67565E+03</wgt>
<wgt id='14018'>0.67557E+03</wgt>
<wgt id='14019'>0.67549E+03</wgt>
<wgt id='14020'>0.67542E+03</wgt>
<wgt id='14021'>0.67534E+03</wgt>
<wgt id='14022'>0.67526E+03</wgt>
<wgt id='14023'>0.67518E+03</wgt>
<wgt id='14024'>0.67510E+03</wgt>
<wgt id='14025'>0.67503E+03</wgt>
<wgt id='14026'>0.67495E+03</wgt>
<wgt id='14027'>0.67487E+03</wgt>
<wgt id='14028'>0.67479E+03</wgt>
<wgt id='14029'>0.67471E+03</wgt>
<wgt id='14030'>0.67464E+03</wgt>
<wgt id='15000'>0.66981E+03</wgt>
<wgt id='15001'>0.66906E+03</wgt>
<wgt id='15002'>0.67200E+03</wgt>
<wgt id='15003'>0.66621E+03</wgt>
<wgt id='15004'>0.67046E+03</wgt>
<wgt id='15005'>0.67383E+03</wgt>
<wgt id='15006'>0.66865E+03</wgt>
<wgt id='15007'>0.66468E+03</wgt>
<wgt id='15008'>0.66796E+03</wgt>
<wgt id='15009'>0.67022E+03</wgt>
<wgt id='15010'>0.66509E+03</wgt>
<wgt id='15011'>0.67583E+03</wgt>
<wgt id='15012'>0.67557E+03</wgt>
<wgt id='15013'>0.66503E+03</wgt>
<wgt id='15014'>0.67122E+03</wgt>
<wgt id='15015'>0.66856E+03</wgt>
<wgt id='15016'>0.67911E+03</wgt>
<wgt id='15017'>0.66433E+03</wgt>
<wgt id='15018'>0.66892E+03</wgt>
<wgt id='15019'>0.67080E+03</wgt>
<wgt id='15020'>0.67471E+03</wgt>
<wgt id='15021'>0.66934E+03</wgt>
<wgt id='15022'>0.67160E+03</wgt>
<wgt id='15023'>0.66524E+03</wgt>
<wgt id='15024'>0.66810E+03</wgt>
<wgt id='15025'>0.67051E+03</wgt>
<wgt id='15026'>0.66962E+03</wgt>
<wgt id='15027'>0.66950E+03</wgt>
<wgt id='15028'>0.67033E+03</wgt>
<wgt id='15029'>0.67072E+03</wgt>
<wgt id='15030'>0.67059E+03</wgt>
<wgt id='15031'>0.66901E+03</wgt>
<wgt id='15032'>0.67018E+03</wgt>
<wgt id='15033'>0.67041E+03</wgt>
<wgt id='15034'>0.67015E+03</wgt>
<wgt id='15035'>0.67047E+03</wgt>
<wgt id='15036'>0.67010E+03</wgt>
<wgt id='15037'>0.67031E+03</wgt>
<wgt id='15038'>0.67028E+03</wgt>
<wgt id='15039'>0.66971E+03</wgt>
<wgt id='15040'>0.66942E+03</wgt>
<wgt id='15041'>0.66986E+03</wgt>
<wgt id='15042'>0.66992E+03</wgt>
<wgt id='15043'>0.66897E+03</wgt>
<wgt id='15044'>0.66998E+03</wgt>
<wgt id='15045'>0.67001E+03</wgt>
<wgt id='15046'>0.66895E+03</wgt>
<wgt id='15047'>0.67002E+03</wgt>
<wgt id='15048'>0.67015E+03</wgt>
<wgt id='15049'>0.66939E+03</wgt>
<wgt id='15050'>0.66985E+03</wgt>
<wgt id='15051'>0.67028E+03</wgt>
<wgt id='15052'>0.67029E+03</wgt>
<wgt id='15053'>0.66977E+03</wgt>
<wgt id='15054'>0.66952E+03</wgt>
<wgt id='15055'>0.66946E+03</wgt>
<wgt id='15056'>0.67034E+03</wgt>
<wgt id='15057'>0.66995E+03</wgt>
<wgt id='15058'>0.66897E+03</wgt>
<wgt id='15059'>0.66941E+03</wgt>
<wgt id='15060'>0.66950E+03</wgt>
<wgt id='15061'>0.66987E+03</wgt>
<wgt id='15062'>0.66993E+03</wgt>
<wgt id='15063'>0.67004E+03</wgt>
<wgt id='15064'>0.66977E+03</wgt>
<wgt id='15065'>0.66966E+03</wgt>
<wgt id='15066'>0.66982E+03</wgt>
<wgt id='15067'>0.67003E+03</wgt>
<wgt id='15068'>0.66998E+03</wgt>
<wgt id='15069'>0.67037E+03</wgt>
<wgt id='15070'>0.66963E+03</wgt>
<wgt id='15071'>0.67033E+03</wgt>
<wgt id='15072'>0.67035E+03</wgt>
<wgt id='15073'>0.66964E+03</wgt>
<wgt id='15074'>0.66992E+03</wgt>
<wgt id='15075'>0.66979E+03</wgt>
<wgt id='15076'>0.66973E+03</wgt>
<wgt id='15077'>0.67001E+03</wgt>
<wgt id='15078'>0.66983E+03</wgt>
<wgt id='15079'>0.66970E+03</wgt>
<wgt id='15080'>0.67054E+03</wgt>
<wgt id='15081'>0.66978E+03</wgt>
<wgt id='15082'>0.67005E+03</wgt>
<wgt id='15083'>0.66955E+03</wgt>
<wgt id='15084'>0.66946E+03</wgt>
<wgt id='15085'>0.66944E+03</wgt>
<wgt id='15086'>0.67003E+03</wgt>
<wgt id='15087'>0.66910E+03</wgt>
<wgt id='15088'>0.66952E+03</wgt>
<wgt id='15089'>0.66953E+03</wgt>
<wgt id='15090'>0.66993E+03</wgt>
<wgt id='15091'>0.66961E+03</wgt>
<wgt id='15092'>0.66972E+03</wgt>
<wgt id='15093'>0.66964E+03</wgt>
<wgt id='15094'>0.66964E+03</wgt>
<wgt id='15095'>0.66988E+03</wgt>
<wgt id='15096'>0.66966E+03</wgt>
<wgt id='15097'>0.66988E+03</wgt>
<wgt id='15098'>0.66974E+03</wgt>
<wgt id='15099'>0.66962E+03</wgt>
<wgt id='15100'>0.66983E+03</wgt>
<wgt id='15101'>0.66980E+03</wgt>
<wgt id='15102'>0.66976E+03</wgt>
<wgt id='15103'>0.66982E+03</wgt>
<wgt id='15104'>0.66982E+03</wgt>
<wgt id='15105'>0.66983E+03</wgt>
<wgt id='15106'>0.66981E+03</wgt>
<wgt id='15107'>0.66978E+03</wgt>
<wgt id='1500'>0.72991E+03</wgt>
<wgt id='1501'>0.72838E+03</wgt>
<wgt id='1502'>0.72698E+03</wgt>
<wgt id='1503'>0.73956E+03</wgt>
<wgt id='1504'>0.71935E+03</wgt>
<wgt id='1505'>0.70796E+03</wgt>
<wgt id='1506'>0.75376E+03</wgt>
<wgt id='1507'>0.72527E+03</wgt>
<wgt id='1508'>0.73892E+03</wgt>
<wgt id='1509'>0.74525E+03</wgt>
<wgt id='1510'>0.70202E+03</wgt>
<wgt id='1511'>0.67638E+03</wgt>
<wgt id='1512'>0.74355E+03</wgt>
<wgt id='1513'>0.74186E+03</wgt>
<wgt id='1514'>0.71669E+03</wgt>
<wgt id='1515'>0.75212E+03</wgt>
<wgt id='1516'>0.73909E+03</wgt>
<wgt id='1517'>0.73636E+03</wgt>
<wgt id='1518'>0.74184E+03</wgt>
<wgt id='1519'>0.74508E+03</wgt>
<wgt id='1520'>0.76740E+03</wgt>
<wgt id='1521'>0.73856E+03</wgt>
<wgt id='1522'>0.70973E+03</wgt>
<wgt id='1523'>0.77736E+03</wgt>
<wgt id='1524'>0.72667E+03</wgt>
<wgt id='1525'>0.72263E+03</wgt>
<wgt id='1526'>0.73563E+03</wgt>
<wgt id='1527'>0.73496E+03</wgt>
<wgt id='1528'>0.71794E+03</wgt>
<wgt id='1529'>0.74665E+03</wgt>
<wgt id='1530'>0.75402E+03</wgt>
<wgt id='1531'>0.71880E+03</wgt>
<wgt id='1532'>0.70664E+03</wgt>
<wgt id='1533'>0.70745E+03</wgt>
<wgt id='1534'>0.72333E+03</wgt>
<wgt id='1535'>0.74468E+03</wgt>
<wgt id='1536'>0.72874E+03</wgt>
<wgt id='1537'>0.74476E+03</wgt>
<wgt id='1538'>0.73979E+03</wgt>
<wgt id='1539'>0.72991E+03</wgt>
<wgt id='1540'>0.71816E+03</wgt>
<wgt id='1541'>0.74088E+03</wgt>
<wgt id='1542'>0.72093E+03</wgt>
<wgt id='1543'>0.71852E+03</wgt>
<wgt id='1544'>0.72592E+03</wgt>
<wgt id='1545'>0.71145E+03</wgt>
<wgt id='1546'>0.74690E+03</wgt>
<wgt id='1547'>0.72493E+03</wgt>
<wgt id='1548'>0.73294E+03</wgt>
<wgt id='1549'>0.71911E+03</wgt>
<wgt id='1550'>0.71775E+03</wgt>
<wgt id='1551'>0.72034E+03</wgt>
<wgt id='1552'>0.71310E+03</wgt>
<wgt id='1553'>0.73165E+03</wgt>
<wgt id='1554'>0.73538E+03</wgt>
<wgt id='1555'>0.71216E+03</wgt>
<wgt id='1556'>0.72693E+03</wgt>
<wgt id='1557'>0.74149E+03</wgt>
<wgt id='1558'>0.71129E+03</wgt>
<wgt id='1559'>0.74949E+03</wgt>
<wgt id='1560'>0.72660E+03</wgt>
<wgt id='1561'>0.72691E+03</wgt>
<wgt id='1562'>0.73543E+03</wgt>
<wgt id='1563'>0.71958E+03</wgt>
<wgt id='1564'>0.71796E+03</wgt>
<wgt id='1565'>0.73303E+03</wgt>
<wgt id='1566'>0.72021E+03</wgt>
<wgt id='1567'>0.79455E+03</wgt>
<wgt id='1568'>0.72438E+03</wgt>
<wgt id='1569'>0.70506E+03</wgt>
<wgt id='1570'>0.70644E+03</wgt>
<wgt id='1571'>0.71549E+03</wgt>
<wgt id='1572'>0.74004E+03</wgt>
<wgt id='1573'>0.71145E+03</wgt>
<wgt id='1574'>0.73635E+03</wgt>
<wgt id='1575'>0.72680E+03</wgt>
<wgt id='1576'>0.70375E+03</wgt>
<wgt id='1577'>0.72031E+03</wgt>
<wgt id='1578'>0.74382E+03</wgt>
<wgt id='1579'>0.72528E+03</wgt>
<wgt id='1580'>0.72200E+03</wgt>
<wgt id='1581'>0.72723E+03</wgt>
<wgt id='1582'>0.70838E+03</wgt>
<wgt id='1583'>0.76742E+03</wgt>
<wgt id='1584'>0.72163E+03</wgt>
<wgt id='1585'>0.72141E+03</wgt>
<wgt id='1586'>0.71948E+03</wgt>
<wgt id='1587'>0.72812E+03</wgt>
<wgt id='1588'>0.72891E+03</wgt>
<wgt id='1589'>0.77215E+03</wgt>
<wgt id='1590'>0.71729E+03</wgt>
<wgt id='1591'>0.73082E+03</wgt>
<wgt id='1592'>0.72318E+03</wgt>
<wgt id='1593'>0.73764E+03</wgt>
<wgt id='1594'>0.74051E+03</wgt>
<wgt id='1595'>0.71720E+03</wgt>
<wgt id='1596'>0.74162E+03</wgt>
<wgt id='1597'>0.73086E+03</wgt>
<wgt id='1598'>0.73464E+03</wgt>
<wgt id='1599'>0.74247E+03</wgt>
<wgt id='1600'>0.75915E+03</wgt>
<wgt id='1601'>0.72177E+03</wgt>
<wgt id='1602'>0.73515E+03</wgt>
<wgt id='1700'>0.68928E+03</wgt>
<wgt id='1800'>0.66749E+03</wgt>
<wgt id='1850'>0.78038E+03</wgt>
<wgt id='1900'>0.74131E+03</wgt>
<wgt id='1950'>0.76276E+03</wgt>
</rwgt>
</event>
<event>
     13 322222  6.87070E+02  1.89214E+02 -1.00000E+00  1.11225E-01
      21    -1     0     0   504   505  0.000000000E+00  0.000000000E+00  6.648235466E+02  6.648235466E+02  0.000000000E+00  0.00000E+00  9.000E+00
      21    -1     0     0   502   503  0.000000000E+00  0.000000000E+00 -6.411880979E+02  6.411880979E+02  0.000000000E+00  0.00000E+00  9.000E+00
       6     2     1     2   502     0 -9.990863954E+01  1.980275272E+02 -4.509293818E+02  5.313337434E+02  1.725734676E+02  0.00000E+00  9.000E+00
      -6     2     1     2     0   505 -8.734487828E+01 -2.251937290E+02  3.848071374E+01  2.993135784E+02  1.725297351E+02  0.00000E+00  9.000E+00
      21     1     1     2   504   503  1.872535178E+02  2.716620187E+01  4.360841168E+02  4.753643228E+02  5.394796609E-06  0.00000E+00  9.000E+00
      24     2     3     3     0     0 -5.357518292E+01  8.556510235E+01 -3.499705054E+02  3.731872262E+02  8.122600639E+01  0.00000E+00  9.000E+00
       5     1     3     3   502     0 -4.633345662E+01  1.124624248E+02 -1.009588763E+02  1.581465172E+02  4.800000000E+00  0.00000E+00 -1.000E+00
     -24     2     4     4     0     0  1.016754724E+01 -1.189324514E+02  5.720392426E+01  1.538016171E+02  7.832203686E+01  0.00000E+00  9.000E+00
      -5     1     4     4     0   505 -9.751242552E+01 -1.062612776E+02 -1.872321052E+01  1.455119612E+02  4.800000000E+00  0.00000E+00  1.000E+00
      -1     1     6     6     0   516 -6.524930636E+00  6.738131975E+00 -1.780091619E+02  1.782561328E+02  1.000000000E-01  0.00000E+00  1.000E+00
       2     1     6     6   516     0 -4.705025229E+01  7.882697037E+01 -1.719613435E+02  1.949310934E+02  1.000000000E-01  0.00000E+00 -1.000E+00
      13     1     8     8     0     0  4.045268843E+01 -9.544632821E+01  3.449225554E+01  1.092526816E+02  1.057000000E-01  0.00000E+00 -1.000E+00
     -14     1     8     8     0     0 -3.028514119E+01 -2.348612323E+01  2.271166872E+01  4.454893553E+01  0.000000000E+00  0.00000E+00  1.000E+00
#rwgt            1           1   776.11896384285922                2        8731           0
<rwgt>
<wgt id='1001'>0.68707E+03</wgt>
<wgt id='1002'>0.75552E+03</wgt>
<wgt id='1003'>0.60536E+03</wgt>
<wgt id='1004'>0.58855E+03</wgt>
<wgt id='1005'>0.63706E+03</wgt>
<wgt id='1006'>0.53035E+03</wgt>
<wgt id='1007'>0.81307E+03</wgt>
<wgt id='1008'>0.91129E+03</wgt>
<wgt id='1009'>0.69629E+03</wgt>
<wgt id='2000'>0.68707E+03</wgt>
<wgt id='2001'>0.68659E+03</wgt>
<wgt id='2002'>0.68757E+03</wgt>
<wgt id='2003'>0.68710E+03</wgt>
<wgt id='2004'>0.68895E+03</wgt>
<wgt id='2005'>0.68685E+03</wgt>
<wgt id='2006'>0.68543E+03</wgt>
<wgt id='2007'>0.68640E+03</wgt>
<wgt id='2008'>0.68545E+03</wgt>
<wgt id='2009'>0.68809E+03</wgt>
<wgt id='2010'>0.68689E+03</wgt>
<wgt id='2011'>0.68474E+03</wgt>
<wgt id='2012'>0.68624E+03</wgt>
<wgt id='2013'>0.68493E+03</wgt>
<wgt id='2014'>0.68689E+03</wgt>
<wgt id='2015'>0.68706E+03</wgt>
<wgt id='2016'>0.68792E+03</wgt>
<wgt id='2017'>0.68653E+03</wgt>
<wgt id='2018'>0.68626E+03</wgt>
<wgt id='2019'>0.68730E+03</wgt>
<wgt id='2020'>0.68669E+03</wgt>
<wgt id='2021'>0.68731E+03</wgt>
<wgt id='2022'>0.68622E+03</wgt>
<wgt id='2023'>0.68802E+03</wgt>
<wgt id='2024'>0.68544E+03</wgt>
<wgt id='2025'>0.68671E+03</wgt>
<wgt id='2026'>0.68842E+03</wgt>
<wgt id='2027'>0.68563E+03</wgt>
<wgt id='2028'>0.68581E+03</wgt>
<wgt id='2029'>0.69215E+03</wgt>
<wgt id='2030'>0.68748E+03</wgt>
<wgt id='2031'>0.68755E+03</wgt>
<wgt id='2032'>0.68772E+03</wgt>
<wgt id='2033'>0.68770E+03</wgt>
<wgt id='2034'>0.68844E+03</wgt>
<wgt id='2035'>0.68637E+03</wgt>
<wgt id='2036'>0.68622E+03</wgt>
<wgt id='2037'>0.68858E+03</wgt>
<wgt id='2038'>0.68680E+03</wgt>
<wgt id='2039'>0.68602E+03</wgt>
<wgt id='2040'>0.68608E+03</wgt>
<wgt id='2041'>0.68572E+03</wgt>
<wgt id='2042'>0.68566E+03</wgt>
<wgt id='2043'>0.68758E+03</wgt>
<wgt id='2044'>0.68824E+03</wgt>
<wgt id='2045'>0.68654E+03</wgt>
<wgt id='2046'>0.68878E+03</wgt>
<wgt id='2047'>0.68834E+03</wgt>
<wgt id='2048'>0.68649E+03</wgt>
<wgt id='2049'>0.68685E+03</wgt>
<wgt id='2050'>0.68822E+03</wgt>
<wgt id='2051'>0.68760E+03</wgt>
<wgt id='2052'>0.68627E+03</wgt>
<wgt id='2053'>0.68700E+03</wgt>
<wgt id='2054'>0.68758E+03</wgt>
<wgt id='2055'>0.68743E+03</wgt>
<wgt id='2056'>0.68707E+03</wgt>
<wgt id='2057'>0.68665E+03</wgt>
<wgt id='2058'>0.68718E+03</wgt>
<wgt id='2059'>0.68689E+03</wgt>
<wgt id='2060'>0.68720E+03</wgt>
<wgt id='2061'>0.68716E+03</wgt>
<wgt id='2062'>0.68745E+03</wgt>
<wgt id='2063'>0.68666E+03</wgt>
<wgt id='2064'>0.68693E+03</wgt>
<wgt id='2065'>0.68722E+03</wgt>
<wgt id='2066'>0.68696E+03</wgt>
<wgt id='2067'>0.68719E+03</wgt>
<wgt id='2068'>0.68736E+03</wgt>
<wgt id='2069'>0.68705E+03</wgt>
<wgt id='2070'>0.68676E+03</wgt>
<wgt id='2071'>0.68639E+03</wgt>
<wgt id='2072'>0.68709E+03</wgt>
<wgt id='2073'>0.68700E+03</wgt>
<wgt id='2074'>0.68638E+03</wgt>
<wgt id='2075'>0.68712E+03</wgt>
<wgt id='2076'>0.68699E+03</wgt>
<wgt id='2077'>0.68675E+03</wgt>
<wgt id='2078'>0.68724E+03</wgt>
<wgt id='2079'>0.68730E+03</wgt>
<wgt id='2080'>0.68694E+03</wgt>
<wgt id='2081'>0.68720E+03</wgt>
<wgt id='2082'>0.68723E+03</wgt>
<wgt id='2083'>0.68702E+03</wgt>
<wgt id='2084'>0.68701E+03</wgt>
<wgt id='2085'>0.68685E+03</wgt>
<wgt id='2086'>0.68718E+03</wgt>
<wgt id='2087'>0.68706E+03</wgt>
<wgt id='2088'>0.68717E+03</wgt>
<wgt id='2089'>0.68727E+03</wgt>
<wgt id='2090'>0.68718E+03</wgt>
<wgt id='2091'>0.68694E+03</wgt>
<wgt id='2092'>0.68706E+03</wgt>
<wgt id='2093'>0.68709E+03</wgt>
<wgt id='2094'>0.68701E+03</wgt>
<wgt id='2095'>0.68703E+03</wgt>
<wgt id='2096'>0.68698E+03</wgt>
<wgt id='2097'>0.68734E+03</wgt>
<wgt id='2098'>0.68690E+03</wgt>
<wgt id='2099'>0.68725E+03</wgt>
<wgt id='2100'>0.68698E+03</wgt>
<wgt id='2101'>0.66780E+03</wgt>
<wgt id='2102'>0.70730E+03</wgt>
<wgt id='2104'>0.59421E+03</wgt>
<wgt id='2105'>0.61390E+03</wgt>
<wgt id='2106'>0.63154E+03</wgt>
<wgt id='2107'>0.64794E+03</wgt>
<wgt id='2108'>0.67787E+03</wgt>
<wgt id='2109'>0.69779E+03</wgt>
<wgt id='2110'>0.72484E+03</wgt>
<wgt id='2111'>0.74399E+03</wgt>
<wgt id='3000'>0.71984E+03</wgt>
<wgt id='3001'>0.72061E+03</wgt>
<wgt id='3002'>0.71927E+03</wgt>
<wgt id='3003'>0.71934E+03</wgt>
<wgt id='3004'>0.72188E+03</wgt>
<wgt id='3005'>0.71987E+03</wgt>
<wgt id='3006'>0.71929E+03</wgt>
<wgt id='3007'>0.72064E+03</wgt>
<wgt id='3008'>0.71985E+03</wgt>
<wgt id='3009'>0.72158E+03</wgt>
<wgt id='3010'>0.71893E+03</wgt>
<wgt id='3011'>0.71831E+03</wgt>
<wgt id='3012'>0.71983E+03</wgt>
<wgt id='3013'>0.72117E+03</wgt>
<wgt id='3014'>0.71964E+03</wgt>
<wgt id='3015'>0.71834E+03</wgt>
<wgt id='3016'>0.72019E+03</wgt>
<wgt id='3017'>0.71935E+03</wgt>
<wgt id='3018'>0.72046E+03</wgt>
<wgt id='3019'>0.72059E+03</wgt>
<wgt id='3020'>0.72039E+03</wgt>
<wgt id='3021'>0.72062E+03</wgt>
<wgt id='3022'>0.71975E+03</wgt>
<wgt id='3023'>0.71979E+03</wgt>
<wgt id='3024'>0.71962E+03</wgt>
<wgt id='3025'>0.72068E+03</wgt>
<wgt id='3026'>0.71893E+03</wgt>
<wgt id='3027'>0.72038E+03</wgt>
<wgt id='3028'>0.71906E+03</wgt>
<wgt id='3029'>0.71764E+03</wgt>
<wgt id='3030'>0.72463E+03</wgt>
<wgt id='3031'>0.72218E+03</wgt>
<wgt id='3032'>0.71914E+03</wgt>
<wgt id='3033'>0.72028E+03</wgt>
<wgt id='3034'>0.71950E+03</wgt>
<wgt id='3035'>0.72242E+03</wgt>
<wgt id='3036'>0.72101E+03</wgt>
<wgt id='3037'>0.71975E+03</wgt>
<wgt id='3038'>0.72008E+03</wgt>
<wgt id='3039'>0.72192E+03</wgt>
<wgt id='3040'>0.71896E+03</wgt>
<wgt id='3041'>0.71949E+03</wgt>
<wgt id='3042'>0.71840E+03</wgt>
<wgt id='3043'>0.71791E+03</wgt>
<wgt id='3044'>0.72128E+03</wgt>
<wgt id='3045'>0.72095E+03</wgt>
<wgt id='3046'>0.72087E+03</wgt>
<wgt id='3047'>0.71955E+03</wgt>
<wgt id='3048'>0.72027E+03</wgt>
<wgt id='3049'>0.71923E+03</wgt>
<wgt id='3050'>0.71887E+03</wgt>
<wgt id='3051'>0.72179E+03</wgt>
<wgt id='3052'>0.71962E+03</wgt>
<wgt id='3053'>0.71967E+03</wgt>
<wgt id='3054'>0.71989E+03</wgt>
<wgt id='3055'>0.72040E+03</wgt>
<wgt id='3056'>0.72011E+03</wgt>
<wgt id='3057'>0.71989E+03</wgt>
<wgt id='3058'>0.71946E+03</wgt>
<wgt id='3059'>0.72000E+03</wgt>
<wgt id='3060'>0.72013E+03</wgt>
<wgt id='3061'>0.72056E+03</wgt>
<wgt id='3062'>0.71992E+03</wgt>
<wgt id='3063'>0.71992E+03</wgt>
<wgt id='3064'>0.71988E+03</wgt>
<wgt id='3065'>0.71994E+03</wgt>
<wgt id='3066'>0.72008E+03</wgt>
<wgt id='3067'>0.71938E+03</wgt>
<wgt id='3068'>0.71984E+03</wgt>
<wgt id='3069'>0.71925E+03</wgt>
<wgt id='3070'>0.71929E+03</wgt>
<wgt id='3071'>0.71990E+03</wgt>
<wgt id='3072'>0.72024E+03</wgt>
<wgt id='3073'>0.71986E+03</wgt>
<wgt id='3074'>0.72032E+03</wgt>
<wgt id='3075'>0.72011E+03</wgt>
<wgt id='3076'>0.71998E+03</wgt>
<wgt id='3077'>0.71972E+03</wgt>
<wgt id='3078'>0.72027E+03</wgt>
<wgt id='3079'>0.71955E+03</wgt>
<wgt id='3080'>0.71952E+03</wgt>
<wgt id='3081'>0.71966E+03</wgt>
<wgt id='3082'>0.71960E+03</wgt>
<wgt id='3083'>0.71992E+03</wgt>
<wgt id='3084'>0.71969E+03</wgt>
<wgt id='3085'>0.71997E+03</wgt>
<wgt id='3086'>0.71992E+03</wgt>
<wgt id='3087'>0.71972E+03</wgt>
<wgt id='3088'>0.71967E+03</wgt>
<wgt id='3089'>0.71990E+03</wgt>
<wgt id='3090'>0.71973E+03</wgt>
<wgt id='3091'>0.71971E+03</wgt>
<wgt id='3092'>0.71978E+03</wgt>
<wgt id='3093'>0.71993E+03</wgt>
<wgt id='3094'>0.71993E+03</wgt>
<wgt id='3095'>0.71994E+03</wgt>
<wgt id='3096'>0.71972E+03</wgt>
<wgt id='3097'>0.71964E+03</wgt>
<wgt id='3098'>0.71982E+03</wgt>
<wgt id='3099'>0.71997E+03</wgt>
<wgt id='3100'>0.71992E+03</wgt>
<wgt id='3101'>0.69988E+03</wgt>
<wgt id='3102'>0.73953E+03</wgt>
<wgt id='5000'>0.69181E+03</wgt>
<wgt id='5001'>0.69372E+03</wgt>
<wgt id='5002'>0.69435E+03</wgt>
<wgt id='5003'>0.69280E+03</wgt>
<wgt id='5004'>0.68983E+03</wgt>
<wgt id='5005'>0.68576E+03</wgt>
<wgt id='5006'>0.67429E+03</wgt>
<wgt id='5007'>0.68376E+03</wgt>
<wgt id='5008'>0.69710E+03</wgt>
<wgt id='5009'>0.68580E+03</wgt>
<wgt id='5010'>0.69251E+03</wgt>
<wgt id='5011'>0.69638E+03</wgt>
<wgt id='5012'>0.68934E+03</wgt>
<wgt id='5013'>0.70638E+03</wgt>
<wgt id='5014'>0.69707E+03</wgt>
<wgt id='5015'>0.68949E+03</wgt>
<wgt id='5016'>0.69841E+03</wgt>
<wgt id='5017'>0.67911E+03</wgt>
<wgt id='5018'>0.70523E+03</wgt>
<wgt id='5019'>0.69959E+03</wgt>
<wgt id='5020'>0.68419E+03</wgt>
<wgt id='5021'>0.68908E+03</wgt>
<wgt id='5022'>0.69352E+03</wgt>
<wgt id='5023'>0.68787E+03</wgt>
<wgt id='5024'>0.69618E+03</wgt>
<wgt id='5025'>0.69628E+03</wgt>
<wgt id='5026'>0.68813E+03</wgt>
<wgt id='5027'>0.69241E+03</wgt>
<wgt id='5028'>0.69073E+03</wgt>
<wgt id='5029'>0.69287E+03</wgt>
<wgt id='5030'>0.69115E+03</wgt>
<wgt id='5031'>0.69019E+03</wgt>
<wgt id='5032'>0.69423E+03</wgt>
<wgt id='5033'>0.69097E+03</wgt>
<wgt id='5034'>0.69271E+03</wgt>
<wgt id='5035'>0.69941E+03</wgt>
<wgt id='5036'>0.68484E+03</wgt>
<wgt id='5037'>0.67237E+03</wgt>
<wgt id='5038'>0.71399E+03</wgt>
<wgt id='5039'>0.70864E+03</wgt>
<wgt id='5040'>0.68264E+03</wgt>
<wgt id='5041'>0.69507E+03</wgt>
<wgt id='5042'>0.69070E+03</wgt>
<wgt id='5043'>0.69578E+03</wgt>
<wgt id='5044'>0.69496E+03</wgt>
<wgt id='5045'>0.69269E+03</wgt>
<wgt id='5046'>0.67496E+03</wgt>
<wgt id='5047'>0.69015E+03</wgt>
<wgt id='5048'>0.68505E+03</wgt>
<wgt id='5049'>0.69222E+03</wgt>
<wgt id='5050'>0.69014E+03</wgt>
<wgt id='5051'>0.69117E+03</wgt>
<wgt id='5052'>0.69105E+03</wgt>
<wgt id='5053'>0.67199E+03</wgt>
<wgt id='5054'>0.68011E+03</wgt>
<wgt id='5055'>0.68587E+03</wgt>
<wgt id='5056'>0.70453E+03</wgt>
<wgt id='5060'>0.66988E+03</wgt>
<wgt id='5070'>0.71484E+03</wgt>
<wgt id='4000'>0.69880E+03</wgt>
<wgt id='4001'>0.69731E+03</wgt>
<wgt id='4002'>0.69890E+03</wgt>
<wgt id='4003'>0.68482E+03</wgt>
<wgt id='4004'>0.69323E+03</wgt>
<wgt id='4005'>0.69648E+03</wgt>
<wgt id='4006'>0.70103E+03</wgt>
<wgt id='4007'>0.69845E+03</wgt>
<wgt id='4008'>0.69160E+03</wgt>
<wgt id='4009'>0.70305E+03</wgt>
<wgt id='4010'>0.69551E+03</wgt>
<wgt id='4011'>0.71133E+03</wgt>
<wgt id='4012'>0.68882E+03</wgt>
<wgt id='4013'>0.70281E+03</wgt>
<wgt id='4014'>0.69823E+03</wgt>
<wgt id='4015'>0.71567E+03</wgt>
<wgt id='4016'>0.68729E+03</wgt>
<wgt id='4017'>0.68481E+03</wgt>
<wgt id='4018'>0.71538E+03</wgt>
<wgt id='4019'>0.70237E+03</wgt>
<wgt id='4020'>0.69512E+03</wgt>
<wgt id='4021'>0.70077E+03</wgt>
<wgt id='4022'>0.69504E+03</wgt>
<wgt id='4023'>0.69921E+03</wgt>
<wgt id='4024'>0.69849E+03</wgt>
<wgt id='4025'>0.71480E+03</wgt>
<wgt id='4026'>0.68355E+03</wgt>
<wgt id='4027'>0.70164E+03</wgt>
<wgt id='4028'>0.69499E+03</wgt>
<wgt id='4029'>0.70051E+03</wgt>
<wgt id='4030'>0.69825E+03</wgt>
<wgt id='4031'>0.70127E+03</wgt>
<wgt id='4032'>0.69560E+03</wgt>
<wgt id='4033'>0.69369E+03</wgt>
<wgt id='4034'>0.71009E+03</wgt>
<wgt id='4035'>0.68519E+03</wgt>
<wgt id='4036'>0.71231E+03</wgt>
<wgt id='4037'>0.69547E+03</wgt>
<wgt id='4038'>0.70429E+03</wgt>
<wgt id='4039'>0.69777E+03</wgt>
<wgt id='4040'>0.70153E+03</wgt>
<wgt id='4041'>0.69507E+03</wgt>
<wgt id='4042'>0.70267E+03</wgt>
<wgt id='4043'>0.69266E+03</wgt>
<wgt id='4044'>0.71029E+03</wgt>
<wgt id='4045'>0.70211E+03</wgt>
<wgt id='4046'>0.70148E+03</wgt>
<wgt id='4047'>0.69940E+03</wgt>
<wgt id='4048'>0.68554E+03</wgt>
<wgt id='4049'>0.68657E+03</wgt>
<wgt id='4050'>0.69987E+03</wgt>
<wgt id='4051'>0.70148E+03</wgt>
<wgt id='4052'>0.70022E+03</wgt>
<wgt id='4053'>0.67557E+03</wgt>
<wgt id='4054'>0.70790E+03</wgt>
<wgt id='4055'>0.69351E+03</wgt>
<wgt id='4056'>0.70938E+03</wgt>
<wgt id='4060'>0.67848E+03</wgt>
<wgt id='4070'>0.72050E+03</wgt>
<wgt id='4080'>0.66467E+03</wgt>
<wgt id='6000'>0.71132E+03</wgt>
<wgt id='6001'>0.71177E+03</wgt>
<wgt id='6002'>0.71083E+03</wgt>
<wgt id='6003'>0.71211E+03</wgt>
<wgt id='6004'>0.71081E+03</wgt>
<wgt id='6005'>0.71564E+03</wgt>
<wgt id='6006'>0.70733E+03</wgt>
<wgt id='6007'>0.70882E+03</wgt>
<wgt id='6008'>0.71412E+03</wgt>
<wgt id='6009'>0.71204E+03</wgt>
<wgt id='6010'>0.71062E+03</wgt>
<wgt id='6011'>0.71190E+03</wgt>
<wgt id='6012'>0.71007E+03</wgt>
<wgt id='6013'>0.71112E+03</wgt>
<wgt id='6014'>0.71168E+03</wgt>
<wgt id='6015'>0.71051E+03</wgt>
<wgt id='6016'>0.71177E+03</wgt>
<wgt id='6017'>0.70859E+03</wgt>
<wgt id='6018'>0.71452E+03</wgt>
<wgt id='6019'>0.71146E+03</wgt>
<wgt id='6020'>0.71121E+03</wgt>
<wgt id='6021'>0.70987E+03</wgt>
<wgt id='6022'>0.71323E+03</wgt>
<wgt id='6023'>0.70718E+03</wgt>
<wgt id='6024'>0.71406E+03</wgt>
<wgt id='6025'>0.71408E+03</wgt>
<wgt id='6026'>0.70869E+03</wgt>
<wgt id='6027'>0.71155E+03</wgt>
<wgt id='6028'>0.71105E+03</wgt>
<wgt id='6029'>0.70793E+03</wgt>
<wgt id='6030'>0.71546E+03</wgt>
<wgt id='6031'>0.70230E+03</wgt>
<wgt id='6032'>0.72157E+03</wgt>
<wgt id='6033'>0.71506E+03</wgt>
<wgt id='6034'>0.70770E+03</wgt>
<wgt id='6035'>0.71282E+03</wgt>
<wgt id='6036'>0.70751E+03</wgt>
<wgt id='6037'>0.71186E+03</wgt>
<wgt id='6038'>0.71100E+03</wgt>
<wgt id='6039'>0.70929E+03</wgt>
<wgt id='6040'>0.71366E+03</wgt>
<wgt id='6041'>0.70499E+03</wgt>
<wgt id='6042'>0.71853E+03</wgt>
<wgt id='6043'>0.71703E+03</wgt>
<wgt id='6044'>0.70842E+03</wgt>
<wgt id='6045'>0.71029E+03</wgt>
<wgt id='6046'>0.71394E+03</wgt>
<wgt id='6047'>0.71925E+03</wgt>
<wgt id='6048'>0.70121E+03</wgt>
<wgt id='6049'>0.71464E+03</wgt>
<wgt id='6050'>0.70966E+03</wgt>
<wgt id='7000'>0.68335E+03</wgt>
<wgt id='7001'>0.68312E+03</wgt>
<wgt id='7002'>0.68371E+03</wgt>
<wgt id='7003'>0.68571E+03</wgt>
<wgt id='7004'>0.68106E+03</wgt>
<wgt id='7005'>0.68552E+03</wgt>
<wgt id='7006'>0.68251E+03</wgt>
<wgt id='7007'>0.68315E+03</wgt>
<wgt id='7008'>0.68360E+03</wgt>
<wgt id='7009'>0.68393E+03</wgt>
<wgt id='7010'>0.68283E+03</wgt>
<wgt id='7011'>0.68177E+03</wgt>
<wgt id='7012'>0.68409E+03</wgt>
<wgt id='7013'>0.68324E+03</wgt>
<wgt id='7014'>0.68354E+03</wgt>
<wgt id='7015'>0.68336E+03</wgt>
<wgt id='7016'>0.68342E+03</wgt>
<wgt id='7017'>0.68360E+03</wgt>
<wgt id='7018'>0.68326E+03</wgt>
<wgt id='7019'>0.68357E+03</wgt>
<wgt id='7020'>0.68306E+03</wgt>
<wgt id='7021'>0.68216E+03</wgt>
<wgt id='7022'>0.68423E+03</wgt>
<wgt id='7023'>0.68874E+03</wgt>
<wgt id='7024'>0.67833E+03</wgt>
<wgt id='7025'>0.68509E+03</wgt>
<wgt id='7026'>0.67907E+03</wgt>
<wgt id='7027'>0.68334E+03</wgt>
<wgt id='7028'>0.68255E+03</wgt>
<wgt id='7029'>0.68625E+03</wgt>
<wgt id='7030'>0.67647E+03</wgt>
<wgt id='7031'>0.67959E+03</wgt>
<wgt id='7032'>0.69115E+03</wgt>
<wgt id='7033'>0.68464E+03</wgt>
<wgt id='7034'>0.68077E+03</wgt>
<wgt id='7035'>0.67801E+03</wgt>
<wgt id='7036'>0.68563E+03</wgt>
<wgt id='7037'>0.68308E+03</wgt>
<wgt id='7038'>0.68339E+03</wgt>
<wgt id='7039'>0.68057E+03</wgt>
<wgt id='7040'>0.68555E+03</wgt>
<wgt id='7041'>0.68525E+03</wgt>
<wgt id='7042'>0.68025E+03</wgt>
<wgt id='7043'>0.68401E+03</wgt>
<wgt id='7044'>0.67958E+03</wgt>
<wgt id='7045'>0.67425E+03</wgt>
<wgt id='7046'>0.68975E+03</wgt>
<wgt id='7047'>0.68755E+03</wgt>
<wgt id='7048'>0.68151E+03</wgt>
<wgt id='7049'>0.67961E+03</wgt>
<wgt id='7050'>0.68565E+03</wgt>
<wgt id='7060'>0.85015E+03</wgt>
<wgt id='8000'>0.68429E+03</wgt>
<wgt id='8001'>0.68423E+03</wgt>
<wgt id='8002'>0.68451E+03</wgt>
<wgt id='8003'>0.68430E+03</wgt>
<wgt id='8004'>0.68428E+03</wgt>
<wgt id='8005'>0.68305E+03</wgt>
<wgt id='8006'>0.68524E+03</wgt>
<wgt id='8007'>0.68608E+03</wgt>
<wgt id='8008'>0.68588E+03</wgt>
<wgt id='8009'>0.68725E+03</wgt>
<wgt id='8010'>0.68339E+03</wgt>
<wgt id='8011'>0.68455E+03</wgt>
<wgt id='8012'>0.68144E+03</wgt>
<wgt id='8013'>0.68268E+03</wgt>
<wgt id='8014'>0.68634E+03</wgt>
<wgt id='8015'>0.68391E+03</wgt>
<wgt id='8016'>0.68512E+03</wgt>
<wgt id='8017'>0.68490E+03</wgt>
<wgt id='8018'>0.68650E+03</wgt>
<wgt id='8019'>0.68430E+03</wgt>
<wgt id='8020'>0.68482E+03</wgt>
<wgt id='8021'>0.68345E+03</wgt>
<wgt id='8022'>0.68520E+03</wgt>
<wgt id='8023'>0.68294E+03</wgt>
<wgt id='8024'>0.68103E+03</wgt>
<wgt id='8025'>0.68285E+03</wgt>
<wgt id='8026'>0.68493E+03</wgt>
<wgt id='8027'>0.68520E+03</wgt>
<wgt id='8028'>0.68469E+03</wgt>
<wgt id='8029'>0.68684E+03</wgt>
<wgt id='8500'>0.71623E+03</wgt>
<wgt id='8501'>0.71069E+03</wgt>
<wgt id='8502'>0.72060E+03</wgt>
<wgt id='8503'>0.71807E+03</wgt>
<wgt id='8504'>0.71253E+03</wgt>
<wgt id='8505'>0.71547E+03</wgt>
<wgt id='8506'>0.72078E+03</wgt>
<wgt id='8507'>0.70755E+03</wgt>
<wgt id='8508'>0.70263E+03</wgt>
<wgt id='8509'>0.72180E+03</wgt>
<wgt id='8510'>0.72245E+03</wgt>
<wgt id='8511'>0.71451E+03</wgt>
<wgt id='8512'>0.71733E+03</wgt>
<wgt id='8513'>0.71675E+03</wgt>
<wgt id='8514'>0.70769E+03</wgt>
<wgt id='8515'>0.72154E+03</wgt>
<wgt id='8516'>0.71390E+03</wgt>
<wgt id='8517'>0.71517E+03</wgt>
<wgt id='8518'>0.71087E+03</wgt>
<wgt id='8519'>0.70973E+03</wgt>
<wgt id='8520'>0.71296E+03</wgt>
<wgt id='8521'>0.71335E+03</wgt>
<wgt id='8522'>0.72013E+03</wgt>
<wgt id='8523'>0.71281E+03</wgt>
<wgt id='8524'>0.71806E+03</wgt>
<wgt id='8525'>0.71729E+03</wgt>
<wgt id='8526'>0.71582E+03</wgt>
<wgt id='8527'>0.71651E+03</wgt>
<wgt id='8528'>0.71538E+03</wgt>
<wgt id='8529'>0.71592E+03</wgt>
<wgt id='8530'>0.71609E+03</wgt>
<wgt id='8531'>0.71621E+03</wgt>
<wgt id='8532'>0.71602E+03</wgt>
<wgt id='8533'>0.71519E+03</wgt>
<wgt id='8534'>0.71650E+03</wgt>
<wgt id='8535'>0.71756E+03</wgt>
<wgt id='8536'>0.71536E+03</wgt>
<wgt id='8537'>0.71623E+03</wgt>
<wgt id='8538'>0.71611E+03</wgt>
<wgt id='8539'>0.71670E+03</wgt>
<wgt id='8540'>0.71670E+03</wgt>
<wgt id='8541'>0.71697E+03</wgt>
<wgt id='8542'>0.71658E+03</wgt>
<wgt id='8543'>0.71567E+03</wgt>
<wgt id='8544'>0.71740E+03</wgt>
<wgt id='8545'>0.71654E+03</wgt>
<wgt id='8546'>0.71715E+03</wgt>
<wgt id='8547'>0.71546E+03</wgt>
<wgt id='8548'>0.71577E+03</wgt>
<wgt id='8549'>0.71666E+03</wgt>
<wgt id='8550'>0.71541E+03</wgt>
<wgt id='8551'>0.71600E+03</wgt>
<wgt id='8552'>0.71565E+03</wgt>
<wgt id='8553'>0.71512E+03</wgt>
<wgt id='8554'>0.71580E+03</wgt>
<wgt id='8555'>0.71622E+03</wgt>
<wgt id='8556'>0.71595E+03</wgt>
<wgt id='8557'>0.71653E+03</wgt>
<wgt id='8558'>0.71709E+03</wgt>
<wgt id='8559'>0.71613E+03</wgt>
<wgt id='8560'>0.71534E+03</wgt>
<wgt id='8561'>0.71672E+03</wgt>
<wgt id='8562'>0.71588E+03</wgt>
<wgt id='8563'>0.71622E+03</wgt>
<wgt id='8564'>0.71593E+03</wgt>
<wgt id='8565'>0.71651E+03</wgt>
<wgt id='8566'>0.71667E+03</wgt>
<wgt id='8567'>0.71626E+03</wgt>
<wgt id='8568'>0.71679E+03</wgt>
<wgt id='8569'>0.71661E+03</wgt>
<wgt id='8570'>0.71595E+03</wgt>
<wgt id='8571'>0.71551E+03</wgt>
<wgt id='8572'>0.71573E+03</wgt>
<wgt id='8573'>0.71584E+03</wgt>
<wgt id='8574'>0.71583E+03</wgt>
<wgt id='8575'>0.71605E+03</wgt>
<wgt id='8576'>0.71624E+03</wgt>
<wgt id='8577'>0.71572E+03</wgt>
<wgt id='8578'>0.71613E+03</wgt>
<wgt id='8579'>0.71679E+03</wgt>
<wgt id='8580'>0.71605E+03</wgt>
<wgt id='8581'>0.71665E+03</wgt>
<wgt id='8582'>0.71582E+03</wgt>
<wgt id='8583'>0.71648E+03</wgt>
<wgt id='8584'>0.71679E+03</wgt>
<wgt id='8585'>0.71651E+03</wgt>
<wgt id='8586'>0.71709E+03</wgt>
<wgt id='8587'>0.71643E+03</wgt>
<wgt id='8588'>0.71626E+03</wgt>
<wgt id='8589'>0.71617E+03</wgt>
<wgt id='8590'>0.71629E+03</wgt>
<wgt id='8591'>0.71582E+03</wgt>
<wgt id='8592'>0.71613E+03</wgt>
<wgt id='8593'>0.71603E+03</wgt>
<wgt id='8594'>0.71608E+03</wgt>
<wgt id='8595'>0.71615E+03</wgt>
<wgt id='8596'>0.71614E+03</wgt>
<wgt id='8597'>0.71642E+03</wgt>
<wgt id='8598'>0.71642E+03</wgt>
<wgt id='8599'>0.71630E+03</wgt>
<wgt id='8600'>0.71623E+03</wgt>
<wgt id='8601'>0.70439E+03</wgt>
<wgt id='8602'>0.72855E+03</wgt>
<wgt id='9000'>0.68980E+03</wgt>
<wgt id='9001'>0.69003E+03</wgt>
<wgt id='9002'>0.69114E+03</wgt>
<wgt id='9003'>0.68766E+03</wgt>
<wgt id='9004'>0.69149E+03</wgt>
<wgt id='9005'>0.69412E+03</wgt>
<wgt id='9006'>0.69010E+03</wgt>
<wgt id='9007'>0.68547E+03</wgt>
<wgt id='9008'>0.68797E+03</wgt>
<wgt id='9009'>0.69043E+03</wgt>
<wgt id='9010'>0.68662E+03</wgt>
<wgt id='9011'>0.69420E+03</wgt>
<wgt id='9012'>0.69549E+03</wgt>
<wgt id='9013'>0.68970E+03</wgt>
<wgt id='9014'>0.69162E+03</wgt>
<wgt id='9015'>0.68652E+03</wgt>
<wgt id='9016'>0.69567E+03</wgt>
<wgt id='9017'>0.68494E+03</wgt>
<wgt id='9018'>0.69171E+03</wgt>
<wgt id='9019'>0.69236E+03</wgt>
<wgt id='9020'>0.69618E+03</wgt>
<wgt id='9021'>0.68690E+03</wgt>
<wgt id='9022'>0.69125E+03</wgt>
<wgt id='9023'>0.68452E+03</wgt>
<wgt id='9024'>0.68733E+03</wgt>
<wgt id='9025'>0.69325E+03</wgt>
<wgt id='9026'>0.68960E+03</wgt>
<wgt id='9027'>0.68857E+03</wgt>
<wgt id='9028'>0.69065E+03</wgt>
<wgt id='9029'>0.69008E+03</wgt>
<wgt id='9030'>0.68918E+03</wgt>
<wgt id='9031'>0.68912E+03</wgt>
<wgt id='9032'>0.69064E+03</wgt>
<wgt id='9033'>0.69064E+03</wgt>
<wgt id='9034'>0.69000E+03</wgt>
<wgt id='9035'>0.69028E+03</wgt>
<wgt id='9036'>0.69007E+03</wgt>
<wgt id='9037'>0.69036E+03</wgt>
<wgt id='9038'>0.69049E+03</wgt>
<wgt id='9039'>0.69009E+03</wgt>
<wgt id='9040'>0.68917E+03</wgt>
<wgt id='9041'>0.69005E+03</wgt>
<wgt id='9042'>0.69051E+03</wgt>
<wgt id='9043'>0.68895E+03</wgt>
<wgt id='9044'>0.69008E+03</wgt>
<wgt id='9045'>0.69045E+03</wgt>
<wgt id='9046'>0.68890E+03</wgt>
<wgt id='9047'>0.69011E+03</wgt>
<wgt id='9048'>0.69031E+03</wgt>
<wgt id='9049'>0.68942E+03</wgt>
<wgt id='9050'>0.68981E+03</wgt>
<wgt id='9051'>0.69032E+03</wgt>
<wgt id='9052'>0.69046E+03</wgt>
<wgt id='9053'>0.68975E+03</wgt>
<wgt id='9054'>0.68931E+03</wgt>
<wgt id='9055'>0.68929E+03</wgt>
<wgt id='9056'>0.69020E+03</wgt>
<wgt id='9057'>0.68982E+03</wgt>
<wgt id='9058'>0.68896E+03</wgt>
<wgt id='9059'>0.68931E+03</wgt>
<wgt id='9060'>0.68945E+03</wgt>
<wgt id='9061'>0.68977E+03</wgt>
<wgt id='9062'>0.68991E+03</wgt>
<wgt id='9063'>0.68997E+03</wgt>
<wgt id='9064'>0.68996E+03</wgt>
<wgt id='9065'>0.68958E+03</wgt>
<wgt id='9066'>0.68965E+03</wgt>
<wgt id='9067'>0.69004E+03</wgt>
<wgt id='9068'>0.68988E+03</wgt>
<wgt id='9069'>0.69047E+03</wgt>
<wgt id='9070'>0.68962E+03</wgt>
<wgt id='9071'>0.69029E+03</wgt>
<wgt id='9072'>0.69034E+03</wgt>
<wgt id='9073'>0.68967E+03</wgt>
<wgt id='9074'>0.68991E+03</wgt>
<wgt id='9075'>0.68969E+03</wgt>
<wgt id='9076'>0.68974E+03</wgt>
<wgt id='9077'>0.69001E+03</wgt>
<wgt id='9078'>0.68987E+03</wgt>
<wgt id='9079'>0.68969E+03</wgt>
<wgt id='9080'>0.69058E+03</wgt>
<wgt id='9081'>0.68984E+03</wgt>
<wgt id='9082'>0.69004E+03</wgt>
<wgt id='9083'>0.68959E+03</wgt>
<wgt id='9084'>0.68945E+03</wgt>
<wgt id='9085'>0.68936E+03</wgt>
<wgt id='9086'>0.69001E+03</wgt>
<wgt id='9087'>0.68898E+03</wgt>
<wgt id='9088'>0.68944E+03</wgt>
<wgt id='9089'>0.68947E+03</wgt>
<wgt id='9090'>0.68990E+03</wgt>
<wgt id='9091'>0.68962E+03</wgt>
<wgt id='9092'>0.68970E+03</wgt>
<wgt id='9093'>0.68960E+03</wgt>
<wgt id='9094'>0.68960E+03</wgt>
<wgt id='9095'>0.68986E+03</wgt>
<wgt id='9096'>0.68965E+03</wgt>
<wgt id='9097'>0.68989E+03</wgt>
<wgt id='9098'>0.68972E+03</wgt>
<wgt id='9099'>0.68959E+03</wgt>
<wgt id='9100'>0.68981E+03</wgt>
<wgt id='9101'>0.67799E+03</wgt>
<wgt id='9102'>0.70233E+03</wgt>
<wgt id='10000'>0.71561E+03</wgt>
<wgt id='10001'>0.71898E+03</wgt>
<wgt id='10002'>0.70768E+03</wgt>
<wgt id='10003'>0.71505E+03</wgt>
<wgt id='10004'>0.70235E+03</wgt>
<wgt id='10005'>0.71630E+03</wgt>
<wgt id='10006'>0.71029E+03</wgt>
<wgt id='10007'>0.71562E+03</wgt>
<wgt id='10008'>0.71609E+03</wgt>
<wgt id='10009'>0.71130E+03</wgt>
<wgt id='10010'>0.71763E+03</wgt>
<wgt id='10011'>0.70975E+03</wgt>
<wgt id='10012'>0.71430E+03</wgt>
<wgt id='10013'>0.71666E+03</wgt>
<wgt id='10014'>0.71458E+03</wgt>
<wgt id='10015'>0.71571E+03</wgt>
<wgt id='10016'>0.71233E+03</wgt>
<wgt id='10017'>0.72339E+03</wgt>
<wgt id='10018'>0.71750E+03</wgt>
<wgt id='10019'>0.71004E+03</wgt>
<wgt id='10020'>0.71296E+03</wgt>
<wgt id='10021'>0.71455E+03</wgt>
<wgt id='10022'>0.71535E+03</wgt>
<wgt id='10023'>0.71618E+03</wgt>
<wgt id='10024'>0.71475E+03</wgt>
<wgt id='10025'>0.71509E+03</wgt>
<wgt id='10026'>0.71950E+03</wgt>
<wgt id='10027'>0.71756E+03</wgt>
<wgt id='10028'>0.72746E+03</wgt>
<wgt id='10029'>0.71597E+03</wgt>
<wgt id='10030'>0.71520E+03</wgt>
<wgt id='10031'>0.70439E+03</wgt>
<wgt id='10032'>0.72855E+03</wgt>
<wgt id='11000'>0.68920E+03</wgt>
<wgt id='11001'>0.67392E+03</wgt>
<wgt id='11002'>0.68999E+03</wgt>
<wgt id='11003'>0.68926E+03</wgt>
<wgt id='11004'>0.68908E+03</wgt>
<wgt id='11005'>0.69095E+03</wgt>
<wgt id='11006'>0.68957E+03</wgt>
<wgt id='11007'>0.68893E+03</wgt>
<wgt id='11008'>0.68959E+03</wgt>
<wgt id='11009'>0.68835E+03</wgt>
<wgt id='11010'>0.68506E+03</wgt>
<wgt id='11011'>0.68792E+03</wgt>
<wgt id='11012'>0.68904E+03</wgt>
<wgt id='11013'>0.68997E+03</wgt>
<wgt id='11014'>0.68834E+03</wgt>
<wgt id='11015'>0.68809E+03</wgt>
<wgt id='11016'>0.68960E+03</wgt>
<wgt id='11017'>0.69122E+03</wgt>
<wgt id='11018'>0.68904E+03</wgt>
<wgt id='11019'>0.68928E+03</wgt>
<wgt id='11020'>0.69042E+03</wgt>
<wgt id='11021'>0.69011E+03</wgt>
<wgt id='11022'>0.69367E+03</wgt>
<wgt id='11023'>0.68957E+03</wgt>
<wgt id='11024'>0.68862E+03</wgt>
<wgt id='11025'>0.68908E+03</wgt>
<wgt id='11026'>0.68920E+03</wgt>
<wgt id='11027'>0.68988E+03</wgt>
<wgt id='11028'>0.68914E+03</wgt>
<wgt id='11029'>0.68544E+03</wgt>
<wgt id='11030'>0.68927E+03</wgt>
<wgt id='11031'>0.67799E+03</wgt>
<wgt id='11032'>0.70233E+03</wgt>
<wgt id='12000'>0.65822E+03</wgt>
<wgt id='12001'>0.65732E+03</wgt>
<wgt id='12002'>0.65912E+03</wgt>
<wgt id='12003'>0.65847E+03</wgt>
<wgt id='12004'>0.65797E+03</wgt>
<wgt id='12005'>0.65906E+03</wgt>
<wgt id='12006'>0.65739E+03</wgt>
<wgt id='12007'>0.66191E+03</wgt>
<wgt id='12008'>0.65460E+03</wgt>
<wgt id='12009'>0.65709E+03</wgt>
<wgt id='12010'>0.65938E+03</wgt>
<wgt id='12011'>0.65333E+03</wgt>
<wgt id='12012'>0.66364E+03</wgt>
<wgt id='12013'>0.65648E+03</wgt>
<wgt id='12014'>0.65999E+03</wgt>
<wgt id='12015'>0.66042E+03</wgt>
<wgt id='12016'>0.65488E+03</wgt>
<wgt id='12017'>0.66145E+03</wgt>
<wgt id='12018'>0.65632E+03</wgt>
<wgt id='12019'>0.66010E+03</wgt>
<wgt id='12020'>0.65579E+03</wgt>
<wgt id='12021'>0.65893E+03</wgt>
<wgt id='12022'>0.65760E+03</wgt>
<wgt id='12023'>0.65162E+03</wgt>
<wgt id='12024'>0.66422E+03</wgt>
<wgt id='12025'>0.65427E+03</wgt>
<wgt id='12026'>0.66237E+03</wgt>
<wgt id='12027'>0.66866E+03</wgt>
<wgt id='12028'>0.64866E+03</wgt>
<wgt id='12050'>0.65822E+03</wgt>
<wgt id='12051'>0.65444E+03</wgt>
<wgt id='12052'>0.64590E+03</wgt>
<wgt id='12053'>0.65459E+03</wgt>
<wgt id='12054'>0.64759E+03</wgt>
<wgt id='12055'>0.64902E+03</wgt>
<wgt id='12056'>0.65855E+03</wgt>
<wgt id='12057'>0.65113E+03</wgt>
<wgt id='12058'>0.65151E+03</wgt>
<wgt id='12059'>0.65607E+03</wgt>
<wgt id='12060'>0.64636E+03</wgt>
<wgt id='12061'>0.64749E+03</wgt>
<wgt id='12062'>0.64901E+03</wgt>
<wgt id='12063'>0.65258E+03</wgt>
<wgt id='13000'>0.67961E+03</wgt>
<wgt id='13001'>0.67012E+03</wgt>
<wgt id='13002'>0.67168E+03</wgt>
<wgt id='13003'>0.67055E+03</wgt>
<wgt id='13004'>0.67126E+03</wgt>
<wgt id='13005'>0.67155E+03</wgt>
<wgt id='13006'>0.67025E+03</wgt>
<wgt id='13007'>0.67534E+03</wgt>
<wgt id='13008'>0.66659E+03</wgt>
<wgt id='13009'>0.66742E+03</wgt>
<wgt id='13010'>0.67451E+03</wgt>
<wgt id='13011'>0.67331E+03</wgt>
<wgt id='13012'>0.66854E+03</wgt>
<wgt id='13013'>0.67017E+03</wgt>
<wgt id='13014'>0.67156E+03</wgt>
<wgt id='13015'>0.67080E+03</wgt>
<wgt id='13016'>0.66900E+03</wgt>
<wgt id='13017'>0.67098E+03</wgt>
<wgt id='13018'>0.67090E+03</wgt>
<wgt id='13019'>0.67066E+03</wgt>
<wgt id='13020'>0.67127E+03</wgt>
<wgt id='13021'>0.67516E+03</wgt>
<wgt id='13022'>0.66676E+03</wgt>
<wgt id='13023'>0.66590E+03</wgt>
<wgt id='13024'>0.67602E+03</wgt>
<wgt id='13025'>0.66034E+03</wgt>
<wgt id='13026'>0.68111E+03</wgt>
<wgt id='13027'>0.66634E+03</wgt>
<wgt id='13028'>0.67591E+03</wgt>
<wgt id='13050'>0.67961E+03</wgt>
<wgt id='13051'>0.67394E+03</wgt>
<wgt id='13052'>0.66378E+03</wgt>
<wgt id='13053'>0.67368E+03</wgt>
<wgt id='13054'>0.66876E+03</wgt>
<wgt id='13055'>0.65630E+03</wgt>
<wgt id='13056'>0.67004E+03</wgt>
<wgt id='13057'>0.67055E+03</wgt>
<wgt id='13058'>0.67322E+03</wgt>
<wgt id='13059'>0.67497E+03</wgt>
<wgt id='13060'>0.64919E+03</wgt>
<wgt id='13061'>0.67072E+03</wgt>
<wgt id='13062'>0.67275E+03</wgt>
<wgt id='13063'>0.67725E+03</wgt>
<wgt id='14000'>0.69735E+03</wgt>
<wgt id='14001'>0.69727E+03</wgt>
<wgt id='14002'>0.69720E+03</wgt>
<wgt id='14003'>0.69713E+03</wgt>
<wgt id='14004'>0.69705E+03</wgt>
<wgt id='14005'>0.69698E+03</wgt>
<wgt id='14006'>0.69691E+03</wgt>
<wgt id='14007'>0.69684E+03</wgt>
<wgt id='14008'>0.69676E+03</wgt>
<wgt id='14009'>0.69669E+03</wgt>
<wgt id='14010'>0.69661E+03</wgt>
<wgt id='14011'>0.69654E+03</wgt>
<wgt id='14012'>0.69647E+03</wgt>
<wgt id='14013'>0.69639E+03</wgt>
<wgt id='14014'>0.69632E+03</wgt>
<wgt id='14015'>0.69625E+03</wgt>
<wgt id='14016'>0.69618E+03</wgt>
<wgt id='14017'>0.69610E+03</wgt>
<wgt id='14018'>0.69603E+03</wgt>
<wgt id='14019'>0.69595E+03</wgt>
<wgt id='14020'>0.69588E+03</wgt>
<wgt id='14021'>0.69581E+03</wgt>
<wgt id='14022'>0.69573E+03</wgt>
<wgt id='14023'>0.69566E+03</wgt>
<wgt id='14024'>0.69559E+03</wgt>
<wgt id='14025'>0.69551E+03</wgt>
<wgt id='14026'>0.69544E+03</wgt>
<wgt id='14027'>0.69537E+03</wgt>
<wgt id='14028'>0.69529E+03</wgt>
<wgt id='14029'>0.69522E+03</wgt>
<wgt id='14030'>0.69515E+03</wgt>
<wgt id='15000'>0.68258E+03</wgt>
<wgt id='15001'>0.68277E+03</wgt>
<wgt id='15002'>0.68378E+03</wgt>
<wgt id='15003'>0.68060E+03</wgt>
<wgt id='15004'>0.68428E+03</wgt>
<wgt id='15005'>0.68692E+03</wgt>
<wgt id='15006'>0.68297E+03</wgt>
<wgt id='15007'>0.67826E+03</wgt>
<wgt id='15008'>0.68076E+03</wgt>
<wgt id='15009'>0.68326E+03</wgt>
<wgt id='15010'>0.67952E+03</wgt>
<wgt id='15011'>0.68699E+03</wgt>
<wgt id='15012'>0.68822E+03</wgt>
<wgt id='15013'>0.68259E+03</wgt>
<wgt id='15014'>0.68425E+03</wgt>
<wgt id='15015'>0.67910E+03</wgt>
<wgt id='15016'>0.68845E+03</wgt>
<wgt id='15017'>0.67778E+03</wgt>
<wgt id='15018'>0.68444E+03</wgt>
<wgt id='15019'>0.68516E+03</wgt>
<wgt id='15020'>0.68898E+03</wgt>
<wgt id='15021'>0.67961E+03</wgt>
<wgt id='15022'>0.68405E+03</wgt>
<wgt id='15023'>0.67735E+03</wgt>
<wgt id='15024'>0.68009E+03</wgt>
<wgt id='15025'>0.68591E+03</wgt>
<wgt id='15026'>0.68231E+03</wgt>
<wgt id='15027'>0.68144E+03</wgt>
<wgt id='15028'>0.68346E+03</wgt>
<wgt id='15029'>0.68285E+03</wgt>
<wgt id='15030'>0.68196E+03</wgt>
<wgt id='15031'>0.68200E+03</wgt>
<wgt id='15032'>0.68340E+03</wgt>
<wgt id='15033'>0.68342E+03</wgt>
<wgt id='15034'>0.68276E+03</wgt>
<wgt id='15035'>0.68306E+03</wgt>
<wgt id='15036'>0.68285E+03</wgt>
<wgt id='15037'>0.68317E+03</wgt>
<wgt id='15038'>0.68325E+03</wgt>
<wgt id='15039'>0.68284E+03</wgt>
<wgt id='15040'>0.68196E+03</wgt>
<wgt id='15041'>0.68277E+03</wgt>
<wgt id='15042'>0.68323E+03</wgt>
<wgt id='15043'>0.68181E+03</wgt>
<wgt id='15044'>0.68287E+03</wgt>
<wgt id='15045'>0.68318E+03</wgt>
<wgt id='15046'>0.68171E+03</wgt>
<wgt id='15047'>0.68284E+03</wgt>
<wgt id='15048'>0.68309E+03</wgt>
<wgt id='15049'>0.68218E+03</wgt>
<wgt id='15050'>0.68261E+03</wgt>
<wgt id='15051'>0.68310E+03</wgt>
<wgt id='15052'>0.68322E+03</wgt>
<wgt id='15053'>0.68256E+03</wgt>
<wgt id='15054'>0.68212E+03</wgt>
<wgt id='15055'>0.68209E+03</wgt>
<wgt id='15056'>0.68296E+03</wgt>
<wgt id='15057'>0.68259E+03</wgt>
<wgt id='15058'>0.68180E+03</wgt>
<wgt id='15059'>0.68211E+03</wgt>
<wgt id='15060'>0.68225E+03</wgt>
<wgt id='15061'>0.68256E+03</wgt>
<wgt id='15062'>0.68268E+03</wgt>
<wgt id='15063'>0.68276E+03</wgt>
<wgt id='15064'>0.68272E+03</wgt>
<wgt id='15065'>0.68237E+03</wgt>
<wgt id='15066'>0.68244E+03</wgt>
<wgt id='15067'>0.68281E+03</wgt>
<wgt id='15068'>0.68267E+03</wgt>
<wgt id='15069'>0.68324E+03</wgt>
<wgt id='15070'>0.68240E+03</wgt>
<wgt id='15071'>0.68309E+03</wgt>
<wgt id='15072'>0.68312E+03</wgt>
<wgt id='15073'>0.68243E+03</wgt>
<wgt id='15074'>0.68269E+03</wgt>
<wgt id='15075'>0.68247E+03</wgt>
<wgt id='15076'>0.68255E+03</wgt>
<wgt id='15077'>0.68280E+03</wgt>
<wgt id='15078'>0.68269E+03</wgt>
<wgt id='15079'>0.68247E+03</wgt>
<wgt id='15080'>0.68333E+03</wgt>
<wgt id='15081'>0.68264E+03</wgt>
<wgt id='15082'>0.68283E+03</wgt>
<wgt id='15083'>0.68236E+03</wgt>
<wgt id='15084'>0.68223E+03</wgt>
<wgt id='15085'>0.68216E+03</wgt>
<wgt id='15086'>0.68281E+03</wgt>
<wgt id='15087'>0.68177E+03</wgt>
<wgt id='15088'>0.68221E+03</wgt>
<wgt id='15089'>0.68225E+03</wgt>
<wgt id='15090'>0.68268E+03</wgt>
<wgt id='15091'>0.68239E+03</wgt>
<wgt id='15092'>0.68248E+03</wgt>
<wgt id='15093'>0.68238E+03</wgt>
<wgt id='15094'>0.68238E+03</wgt>
<wgt id='15095'>0.68266E+03</wgt>
<wgt id='15096'>0.68243E+03</wgt>
<wgt id='15097'>0.68267E+03</wgt>
<wgt id='15098'>0.68250E+03</wgt>
<wgt id='15099'>0.68238E+03</wgt>
<wgt id='15100'>0.68260E+03</wgt>
<wgt id='15101'>0.68257E+03</wgt>
<wgt id='15102'>0.68253E+03</wgt>
<wgt id='15103'>0.68259E+03</wgt>
<wgt id='15104'>0.68259E+03</wgt>
<wgt id='15105'>0.68260E+03</wgt>
<wgt id='15106'>0.68258E+03</wgt>
<wgt id='15107'>0.68254E+03</wgt>
<wgt id='1500'>0.74019E+03</wgt>
<wgt id='1501'>0.73109E+03</wgt>
<wgt id='1502'>0.74505E+03</wgt>
<wgt id='1503'>0.75662E+03</wgt>
<wgt id='1504'>0.71963E+03</wgt>
<wgt id='1505'>0.71096E+03</wgt>
<wgt id='1506'>0.74559E+03</wgt>
<wgt id='1507'>0.73809E+03</wgt>
<wgt id='1508'>0.74986E+03</wgt>
<wgt id='1509'>0.75199E+03</wgt>
<wgt id='1510'>0.73098E+03</wgt>
<wgt id='1511'>0.70215E+03</wgt>
<wgt id='1512'>0.74668E+03</wgt>
<wgt id='1513'>0.72985E+03</wgt>
<wgt id='1514'>0.74397E+03</wgt>
<wgt id='1515'>0.75603E+03</wgt>
<wgt id='1516'>0.75358E+03</wgt>
<wgt id='1517'>0.75674E+03</wgt>
<wgt id='1518'>0.75664E+03</wgt>
<wgt id='1519'>0.74388E+03</wgt>
<wgt id='1520'>0.77176E+03</wgt>
<wgt id='1521'>0.73585E+03</wgt>
<wgt id='1522'>0.72623E+03</wgt>
<wgt id='1523'>0.75857E+03</wgt>
<wgt id='1524'>0.73410E+03</wgt>
<wgt id='1525'>0.73369E+03</wgt>
<wgt id='1526'>0.73571E+03</wgt>
<wgt id='1527'>0.75921E+03</wgt>
<wgt id='1528'>0.73814E+03</wgt>
<wgt id='1529'>0.75908E+03</wgt>
<wgt id='1530'>0.75546E+03</wgt>
<wgt id='1531'>0.72564E+03</wgt>
<wgt id='1532'>0.72286E+03</wgt>
<wgt id='1533'>0.72370E+03</wgt>
<wgt id='1534'>0.72858E+03</wgt>
<wgt id='1535'>0.76520E+03</wgt>
<wgt id='1536'>0.74072E+03</wgt>
<wgt id='1537'>0.75345E+03</wgt>
<wgt id='1538'>0.75034E+03</wgt>
<wgt id='1539'>0.73274E+03</wgt>
<wgt id='1540'>0.72899E+03</wgt>
<wgt id='1541'>0.74096E+03</wgt>
<wgt id='1542'>0.73013E+03</wgt>
<wgt id='1543'>0.72458E+03</wgt>
<wgt id='1544'>0.73909E+03</wgt>
<wgt id='1545'>0.73739E+03</wgt>
<wgt id='1546'>0.74598E+03</wgt>
<wgt id='1547'>0.73778E+03</wgt>
<wgt id='1548'>0.74193E+03</wgt>
<wgt id='1549'>0.74222E+03</wgt>
<wgt id='1550'>0.73267E+03</wgt>
<wgt id='1551'>0.73174E+03</wgt>
<wgt id='1552'>0.73331E+03</wgt>
<wgt id='1553'>0.74375E+03</wgt>
<wgt id='1554'>0.72563E+03</wgt>
<wgt id='1555'>0.72892E+03</wgt>
<wgt id='1556'>0.74540E+03</wgt>
<wgt id='1557'>0.74237E+03</wgt>
<wgt id='1558'>0.72836E+03</wgt>
<wgt id='1559'>0.76024E+03</wgt>
<wgt id='1560'>0.73693E+03</wgt>
<wgt id='1561'>0.74047E+03</wgt>
<wgt id='1562'>0.75123E+03</wgt>
<wgt id='1563'>0.72838E+03</wgt>
<wgt id='1564'>0.74406E+03</wgt>
<wgt id='1565'>0.74188E+03</wgt>
<wgt id='1566'>0.73332E+03</wgt>
<wgt id='1567'>0.78252E+03</wgt>
<wgt id='1568'>0.73625E+03</wgt>
<wgt id='1569'>0.72248E+03</wgt>
<wgt id='1570'>0.72278E+03</wgt>
<wgt id='1571'>0.72998E+03</wgt>
<wgt id='1572'>0.74109E+03</wgt>
<wgt id='1573'>0.73019E+03</wgt>
<wgt id='1574'>0.74677E+03</wgt>
<wgt id='1575'>0.74039E+03</wgt>
<wgt id='1576'>0.71288E+03</wgt>
<wgt id='1577'>0.72251E+03</wgt>
<wgt id='1578'>0.74459E+03</wgt>
<wgt id='1579'>0.73768E+03</wgt>
<wgt id='1580'>0.72852E+03</wgt>
<wgt id='1581'>0.73819E+03</wgt>
<wgt id='1582'>0.72517E+03</wgt>
<wgt id='1583'>0.76662E+03</wgt>
<wgt id='1584'>0.74014E+03</wgt>
<wgt id='1585'>0.74068E+03</wgt>
<wgt id='1586'>0.73587E+03</wgt>
<wgt id='1587'>0.74779E+03</wgt>
<wgt id='1588'>0.74310E+03</wgt>
<wgt id='1589'>0.76346E+03</wgt>
<wgt id='1590'>0.72724E+03</wgt>
<wgt id='1591'>0.73532E+03</wgt>
<wgt id='1592'>0.73466E+03</wgt>
<wgt id='1593'>0.75005E+03</wgt>
<wgt id='1594'>0.75652E+03</wgt>
<wgt id='1595'>0.74499E+03</wgt>
<wgt id='1596'>0.74553E+03</wgt>
<wgt id='1597'>0.74283E+03</wgt>
<wgt id='1598'>0.74048E+03</wgt>
<wgt id='1599'>0.75197E+03</wgt>
<wgt id='1600'>0.75084E+03</wgt>
<wgt id='1601'>0.73080E+03</wgt>
<wgt id='1602'>0.74533E+03</wgt>
<wgt id='1700'>0.69591E+03</wgt>
<wgt id='1800'>0.69072E+03</wgt>
<wgt id='1850'>0.80264E+03</wgt>
<wgt id='1900'>0.76200E+03</wgt>
<wgt id='1950'>0.77822E+03</wgt>
</rwgt>
</event>
<event>
     13 322222  6.87070E+02  1.05644E+02 -1.00000E+00  1.21206E-01
      21    -1     0     0   503   504  0.000000000E+00  0.000000000E+00  9.395703151E+02  9.395703151E+02  0.000000000E+00  0.00000E+00  9.000E+00
      21    -1     0     0   502   503  0.000000000E+00  0.000000000E+00 -8.557780032E+01  8.557780032E+01  0.000000000E+00  0.00000E+00  9.000E+00
       6     2     1     2   502     0 -9.310291519E+01  5.673114112E+01  1.727657822E+02  2.676773086E+02  1.729640161E+02  0.00000E+00  9.000E+00
      -6     2     1     2     0   505  1.315368304E+02  4.167347021E+01  4.013324741E+02  4.583029120E+02  1.730178848E+02  0.00000E+00  9.000E+00
      21     1     1     2   505   504 -3.843391522E+01 -9.840461132E+01  2.798942585E+02  2.991678949E+02  0.000000000E+00  0.00000E+00  9.000E+00
      24     2     3     3     0     0 -2.608813262E+01  7.618052864E+01  1.501069152E+02  1.941536797E+02  9.316384355E+01  0.00000E+00  9.000E+00
       5     1     3     3   502     0 -6.701478257E+01 -1.944938752E+01  2.265886700E+01  7.352362893E+01  4.800000000E+00  0.00000E+00 -1.000E+00
     -24     2     4     4     0     0  1.301595802E+02  2.241530996E+01  4.090433597E+02  4.369658243E+02  7.860470079E+01  0.00000E+00  9.000E+00
      -5     1     4     4     0   505  1.377250173E+00  1.925816025E+01 -7.710885625E+00  2.133708770E+01  4.800000000E+00  0.00000E+00  1.000E+00
     -13     1     6     6     0     0 -1.242486238E+01  3.717131815E+01  1.476330324E+02  1.527468741E+02  1.057000000E-01  0.00000E+00  1.000E+00
      14     1     6     6     0     0 -1.366327024E+01  3.900921049E+01  2.473882750E+00  4.140680563E+01  0.000000000E+00  0.00000E+00 -1.000E+00
       1     1     8     8   506     0  4.221146507E+01  2.725450104E+01  2.515134488E+02  2.564832169E+02  1.000000000E-01  0.00000E+00 -1.000E+00
      -2     1     8     8     0   506  8.794811517E+01 -4.839191083E+00  1.575299109E+02  1.804826074E+02  1.000000000E-01  0.00000E+00  1.000E+00
#rwgt            1           1   835.15091533964426                2        8901           0
<rwgt>
<wgt id='1001'>0.68707E+03</wgt>
<wgt id='1002'>0.77465E+03</wgt>
<wgt id='1003'>0.59053E+03</wgt>
<wgt id='1004'>0.58290E+03</wgt>
<wgt id='1005'>0.64733E+03</wgt>
<wgt id='1006'>0.51161E+03</wgt>
<wgt id='1007'>0.82263E+03</wgt>
<wgt id='1008'>0.94466E+03</wgt>
<wgt id='1009'>0.68860E+03</wgt>
<wgt id='2000'>0.68707E+03</wgt>
<wgt id='2001'>0.68669E+03</wgt>
<wgt id='2002'>0.68833E+03</wgt>
<wgt id='2003'>0.68773E+03</wgt>
<wgt id='2004'>0.68878E+03</wgt>
<wgt id='2005'>0.68663E+03</wgt>
<wgt id='2006'>0.68546E+03</wgt>
<wgt id='2007'>0.68665E+03</wgt>
<wgt id='2008'>0.68626E+03</wgt>
<wgt id='2009'>0.68777E+03</wgt>
<wgt id='2010'>0.68659E+03</wgt>
<wgt id='2011'>0.68624E+03</wgt>
<wgt id='2012'>0.68716E+03</wgt>
<wgt id='2013'>0.68680E+03</wgt>
<wgt id='2014'>0.68648E+03</wgt>
<wgt id='2015'>0.68678E+03</wgt>
<wgt id='2016'>0.68685E+03</wgt>
<wgt id='2017'>0.68648E+03</wgt>
<wgt id='2018'>0.68631E+03</wgt>
<wgt id='2019'>0.68720E+03</wgt>
<wgt id='2020'>0.68545E+03</wgt>
<wgt id='2021'>0.68789E+03</wgt>
<wgt id='2022'>0.68462E+03</wgt>
<wgt id='2023'>0.68722E+03</wgt>
<wgt id='2024'>0.68561E+03</wgt>
<wgt id='2025'>0.68467E+03</wgt>
<wgt id='2026'>0.68703E+03</wgt>
<wgt id='2027'>0.68608E+03</wgt>
<wgt id='2028'>0.68669E+03</wgt>
<wgt id='2029'>0.69209E+03</wgt>
<wgt id='2030'>0.68735E+03</wgt>
<wgt id='2031'>0.68720E+03</wgt>
<wgt id='2032'>0.68788E+03</wgt>
<wgt id='2033'>0.68771E+03</wgt>
<wgt id='2034'>0.68845E+03</wgt>
<wgt id='2035'>0.68621E+03</wgt>
<wgt id='2036'>0.68607E+03</wgt>
<wgt id='2037'>0.68875E+03</wgt>
<wgt id='2038'>0.68668E+03</wgt>
<wgt id='2039'>0.68591E+03</wgt>
<wgt id='2040'>0.68603E+03</wgt>
<wgt id='2041'>0.68567E+03</wgt>
<wgt id='2042'>0.68580E+03</wgt>
<wgt id='2043'>0.68774E+03</wgt>
<wgt id='2044'>0.68827E+03</wgt>
<wgt id='2045'>0.68658E+03</wgt>
<wgt id='2046'>0.68868E+03</wgt>
<wgt id='2047'>0.68833E+03</wgt>
<wgt id='2048'>0.68664E+03</wgt>
<wgt id='2049'>0.68698E+03</wgt>
<wgt id='2050'>0.68816E+03</wgt>
<wgt id='2051'>0.68769E+03</wgt>
<wgt id='2052'>0.68626E+03</wgt>
<wgt id='2053'>0.68688E+03</wgt>
<wgt id='2054'>0.68743E+03</wgt>
<wgt id='2055'>0.68751E+03</wgt>
<wgt id='2056'>0.68706E+03</wgt>
<wgt id='2057'>0.68655E+03</wgt>
<wgt id='2058'>0.68727E+03</wgt>
<wgt id='2059'>0.68703E+03</wgt>
<wgt id='2060'>0.68737E+03</wgt>
<wgt id='2061'>0.68715E+03</wgt>
<wgt id='2062'>0.68721E+03</wgt>
<wgt id='2063'>0.68670E+03</wgt>
<wgt id='2064'>0.68677E+03</wgt>
<wgt id='2065'>0.68704E+03</wgt>
<wgt id='2066'>0.68676E+03</wgt>
<wgt id='2067'>0.68725E+03</wgt>
<wgt id='2068'>0.68740E+03</wgt>
<wgt id='2069'>0.68715E+03</wgt>
<wgt id='2070'>0.68700E+03</wgt>
<wgt id='2071'>0.68648E+03</wgt>
<wgt id='2072'>0.68712E+03</wgt>
<wgt id='2073'>0.68709E+03</wgt>
<wgt id='2074'>0.68675E+03</wgt>
<wgt id='2075'>0.68694E+03</wgt>
<wgt id='2076'>0.68715E+03</wgt>
<wgt id='2077'>0.68673E+03</wgt>
<wgt id='2078'>0.68713E+03</wgt>
<wgt id='2079'>0.68730E+03</wgt>
<wgt id='2080'>0.68696E+03</wgt>
<wgt id='2081'>0.68724E+03</wgt>
<wgt id='2082'>0.68725E+03</wgt>
<wgt id='2083'>0.68698E+03</wgt>
<wgt id='2084'>0.68696E+03</wgt>
<wgt id='2085'>0.68678E+03</wgt>
<wgt id='2086'>0.68714E+03</wgt>
<wgt id='2087'>0.68705E+03</wgt>
<wgt id='2088'>0.68708E+03</wgt>
<wgt id='2089'>0.68730E+03</wgt>
<wgt id='2090'>0.68710E+03</wgt>
<wgt id='2091'>0.68690E+03</wgt>
<wgt id='2092'>0.68701E+03</wgt>
<wgt id='2093'>0.68710E+03</wgt>
<wgt id='2094'>0.68697E+03</wgt>
<wgt id='2095'>0.68701E+03</wgt>
<wgt id='2096'>0.68701E+03</wgt>
<wgt id='2097'>0.68724E+03</wgt>
<wgt id='2098'>0.68699E+03</wgt>
<wgt id='2099'>0.68718E+03</wgt>
<wgt id='2100'>0.68701E+03</wgt>
<wgt id='2101'>0.66783E+03</wgt>
<wgt id='2102'>0.70755E+03</wgt>
<wgt id='2104'>0.59110E+03</wgt>
<wgt id='2105'>0.61070E+03</wgt>
<wgt id='2106'>0.62785E+03</wgt>
<wgt id='2107'>0.64535E+03</wgt>
<wgt id='2108'>0.67779E+03</wgt>
<wgt id='2109'>0.69816E+03</wgt>
<wgt id='2110'>0.72719E+03</wgt>
<wgt id='2111'>0.74687E+03</wgt>
<wgt id='3000'>0.71948E+03</wgt>
<wgt id='3001'>0.72081E+03</wgt>
<wgt id='3002'>0.71806E+03</wgt>
<wgt id='3003'>0.71951E+03</wgt>
<wgt id='3004'>0.72150E+03</wgt>
<wgt id='3005'>0.71985E+03</wgt>
<wgt id='3006'>0.71933E+03</wgt>
<wgt id='3007'>0.71986E+03</wgt>
<wgt id='3008'>0.71902E+03</wgt>
<wgt id='3009'>0.72011E+03</wgt>
<wgt id='3010'>0.71820E+03</wgt>
<wgt id='3011'>0.71888E+03</wgt>
<wgt id='3012'>0.72046E+03</wgt>
<wgt id='3013'>0.71891E+03</wgt>
<wgt id='3014'>0.71948E+03</wgt>
<wgt id='3015'>0.71943E+03</wgt>
<wgt id='3016'>0.71965E+03</wgt>
<wgt id='3017'>0.71930E+03</wgt>
<wgt id='3018'>0.71925E+03</wgt>
<wgt id='3019'>0.72081E+03</wgt>
<wgt id='3020'>0.72151E+03</wgt>
<wgt id='3021'>0.72142E+03</wgt>
<wgt id='3022'>0.71950E+03</wgt>
<wgt id='3023'>0.72031E+03</wgt>
<wgt id='3024'>0.72088E+03</wgt>
<wgt id='3025'>0.72042E+03</wgt>
<wgt id='3026'>0.71744E+03</wgt>
<wgt id='3027'>0.72008E+03</wgt>
<wgt id='3028'>0.72039E+03</wgt>
<wgt id='3029'>0.71755E+03</wgt>
<wgt id='3030'>0.72391E+03</wgt>
<wgt id='3031'>0.72173E+03</wgt>
<wgt id='3032'>0.71821E+03</wgt>
<wgt id='3033'>0.71945E+03</wgt>
<wgt id='3034'>0.71878E+03</wgt>
<wgt id='3035'>0.72203E+03</wgt>
<wgt id='3036'>0.72077E+03</wgt>
<wgt id='3037'>0.71946E+03</wgt>
<wgt id='3038'>0.71979E+03</wgt>
<wgt id='3039'>0.72163E+03</wgt>
<wgt id='3040'>0.71864E+03</wgt>
<wgt id='3041'>0.71911E+03</wgt>
<wgt id='3042'>0.71805E+03</wgt>
<wgt id='3043'>0.71762E+03</wgt>
<wgt id='3044'>0.72092E+03</wgt>
<wgt id='3045'>0.72071E+03</wgt>
<wgt id='3046'>0.72035E+03</wgt>
<wgt id='3047'>0.71915E+03</wgt>
<wgt id='3048'>0.72013E+03</wgt>
<wgt id='3049'>0.71890E+03</wgt>
<wgt id='3050'>0.71869E+03</wgt>
<wgt id='3051'>0.72144E+03</wgt>
<wgt id='3052'>0.71934E+03</wgt>
<wgt id='3053'>0.71907E+03</wgt>
<wgt id='3054'>0.71939E+03</wgt>
<wgt id='3055'>0.72007E+03</wgt>
<wgt id='3056'>0.71972E+03</wgt>
<wgt id='3057'>0.71926E+03</wgt>
<wgt id='3058'>0.71931E+03</wgt>
<wgt id='3059'>0.71949E+03</wgt>
<wgt id='3060'>0.71958E+03</wgt>
<wgt id='3061'>0.71970E+03</wgt>
<wgt id='3062'>0.71941E+03</wgt>
<wgt id='3063'>0.71986E+03</wgt>
<wgt id='3064'>0.71950E+03</wgt>
<wgt id='3065'>0.71969E+03</wgt>
<wgt id='3066'>0.71960E+03</wgt>
<wgt id='3067'>0.71934E+03</wgt>
<wgt id='3068'>0.71939E+03</wgt>
<wgt id='3069'>0.71904E+03</wgt>
<wgt id='3070'>0.71919E+03</wgt>
<wgt id='3071'>0.71968E+03</wgt>
<wgt id='3072'>0.71971E+03</wgt>
<wgt id='3073'>0.71933E+03</wgt>
<wgt id='3074'>0.72018E+03</wgt>
<wgt id='3075'>0.71964E+03</wgt>
<wgt id='3076'>0.71954E+03</wgt>
<wgt id='3077'>0.71942E+03</wgt>
<wgt id='3078'>0.71985E+03</wgt>
<wgt id='3079'>0.71918E+03</wgt>
<wgt id='3080'>0.71919E+03</wgt>
<wgt id='3081'>0.71933E+03</wgt>
<wgt id='3082'>0.71920E+03</wgt>
<wgt id='3083'>0.71975E+03</wgt>
<wgt id='3084'>0.71953E+03</wgt>
<wgt id='3085'>0.71950E+03</wgt>
<wgt id='3086'>0.71956E+03</wgt>
<wgt id='3087'>0.71941E+03</wgt>
<wgt id='3088'>0.71942E+03</wgt>
<wgt id='3089'>0.71958E+03</wgt>
<wgt id='3090'>0.71927E+03</wgt>
<wgt id='3091'>0.71932E+03</wgt>
<wgt id='3092'>0.71953E+03</wgt>
<wgt id='3093'>0.71960E+03</wgt>
<wgt id='3094'>0.71952E+03</wgt>
<wgt id='3095'>0.71957E+03</wgt>
<wgt id='3096'>0.71935E+03</wgt>
<wgt id='3097'>0.71929E+03</wgt>
<wgt id='3098'>0.71953E+03</wgt>
<wgt id='3099'>0.71962E+03</wgt>
<wgt id='3100'>0.71954E+03</wgt>
<wgt id='3101'>0.69890E+03</wgt>
<wgt id='3102'>0.74041E+03</wgt>
<wgt id='5000'>0.69040E+03</wgt>
<wgt id='5001'>0.69132E+03</wgt>
<wgt id='5002'>0.69205E+03</wgt>
<wgt id='5003'>0.69044E+03</wgt>
<wgt id='5004'>0.68936E+03</wgt>
<wgt id='5005'>0.68507E+03</wgt>
<wgt id='5006'>0.67822E+03</wgt>
<wgt id='5007'>0.68473E+03</wgt>
<wgt id='5008'>0.69373E+03</wgt>
<wgt id='5009'>0.68636E+03</wgt>
<wgt id='5010'>0.69066E+03</wgt>
<wgt id='5011'>0.69432E+03</wgt>
<wgt id='5012'>0.68748E+03</wgt>
<wgt id='5013'>0.70201E+03</wgt>
<wgt id='5014'>0.69161E+03</wgt>
<wgt id='5015'>0.68892E+03</wgt>
<wgt id='5016'>0.69395E+03</wgt>
<wgt id='5017'>0.68134E+03</wgt>
<wgt id='5018'>0.69991E+03</wgt>
<wgt id='5019'>0.69386E+03</wgt>
<wgt id='5020'>0.68663E+03</wgt>
<wgt id='5021'>0.68831E+03</wgt>
<wgt id='5022'>0.69170E+03</wgt>
<wgt id='5023'>0.68676E+03</wgt>
<wgt id='5024'>0.69440E+03</wgt>
<wgt id='5025'>0.69356E+03</wgt>
<wgt id='5026'>0.68779E+03</wgt>
<wgt id='5027'>0.69196E+03</wgt>
<wgt id='5028'>0.68767E+03</wgt>
<wgt id='5029'>0.69006E+03</wgt>
<wgt id='5030'>0.69049E+03</wgt>
<wgt id='5031'>0.68814E+03</wgt>
<wgt id='5032'>0.69364E+03</wgt>
<wgt id='5033'>0.68827E+03</wgt>
<wgt id='5034'>0.69247E+03</wgt>
<wgt id='5035'>0.69321E+03</wgt>
<wgt id='5036'>0.68750E+03</wgt>
<wgt id='5037'>0.67626E+03</wgt>
<wgt id='5038'>0.70644E+03</wgt>
<wgt id='5039'>0.70523E+03</wgt>
<wgt id='5040'>0.68248E+03</wgt>
<wgt id='5041'>0.69103E+03</wgt>
<wgt id='5042'>0.69031E+03</wgt>
<wgt id='5043'>0.69625E+03</wgt>
<wgt id='5044'>0.68933E+03</wgt>
<wgt id='5045'>0.68895E+03</wgt>
<wgt id='5046'>0.67906E+03</wgt>
<wgt id='5047'>0.68530E+03</wgt>
<wgt id='5048'>0.68865E+03</wgt>
<wgt id='5049'>0.69051E+03</wgt>
<wgt id='5050'>0.68989E+03</wgt>
<wgt id='5051'>0.69052E+03</wgt>
<wgt id='5052'>0.68948E+03</wgt>
<wgt id='5053'>0.66918E+03</wgt>
<wgt id='5054'>0.68273E+03</wgt>
<wgt id='5055'>0.68489E+03</wgt>
<wgt id='5056'>0.70035E+03</wgt>
<wgt id='5060'>0.66935E+03</wgt>
<wgt id='5070'>0.71208E+03</wgt>
<wgt id='4000'>0.70615E+03</wgt>
<wgt id='4001'>0.70503E+03</wgt>
<wgt id='4002'>0.70692E+03</wgt>
<wgt id='4003'>0.69610E+03</wgt>
<wgt id='4004'>0.70198E+03</wgt>
<wgt id='4005'>0.70586E+03</wgt>
<wgt id='4006'>0.70685E+03</wgt>
<wgt id='4007'>0.70462E+03</wgt>
<wgt id='4008'>0.70203E+03</wgt>
<wgt id='4009'>0.70646E+03</wgt>
<wgt id='4010'>0.70793E+03</wgt>
<wgt id='4011'>0.71641E+03</wgt>
<wgt id='4012'>0.69816E+03</wgt>
<wgt id='4013'>0.70384E+03</wgt>
<wgt id='4014'>0.70904E+03</wgt>
<wgt id='4015'>0.71994E+03</wgt>
<wgt id='4016'>0.69683E+03</wgt>
<wgt id='4017'>0.69425E+03</wgt>
<wgt id='4018'>0.72026E+03</wgt>
<wgt id='4019'>0.70965E+03</wgt>
<wgt id='4020'>0.70229E+03</wgt>
<wgt id='4021'>0.70755E+03</wgt>
<wgt id='4022'>0.70333E+03</wgt>
<wgt id='4023'>0.70652E+03</wgt>
<wgt id='4024'>0.70573E+03</wgt>
<wgt id='4025'>0.71595E+03</wgt>
<wgt id='4026'>0.69657E+03</wgt>
<wgt id='4027'>0.70833E+03</wgt>
<wgt id='4028'>0.70317E+03</wgt>
<wgt id='4029'>0.70721E+03</wgt>
<wgt id='4030'>0.70581E+03</wgt>
<wgt id='4031'>0.70811E+03</wgt>
<wgt id='4032'>0.70361E+03</wgt>
<wgt id='4033'>0.70265E+03</wgt>
<wgt id='4034'>0.71383E+03</wgt>
<wgt id='4035'>0.69647E+03</wgt>
<wgt id='4036'>0.71566E+03</wgt>
<wgt id='4037'>0.70386E+03</wgt>
<wgt id='4038'>0.70948E+03</wgt>
<wgt id='4039'>0.70452E+03</wgt>
<wgt id='4040'>0.70850E+03</wgt>
<wgt id='4041'>0.70369E+03</wgt>
<wgt id='4042'>0.70869E+03</wgt>
<wgt id='4043'>0.69928E+03</wgt>
<wgt id='4044'>0.71573E+03</wgt>
<wgt id='4045'>0.71028E+03</wgt>
<wgt id='4046'>0.70653E+03</wgt>
<wgt id='4047'>0.70515E+03</wgt>
<wgt id='4048'>0.69814E+03</wgt>
<wgt id='4049'>0.69845E+03</wgt>
<wgt id='4050'>0.70506E+03</wgt>
<wgt id='4051'>0.70801E+03</wgt>
<wgt id='4052'>0.70669E+03</wgt>
<wgt id='4053'>0.68172E+03</wgt>
<wgt id='4054'>0.71357E+03</wgt>
<wgt id='4055'>0.70145E+03</wgt>
<wgt id='4056'>0.71433E+03</wgt>
<wgt id='4060'>0.68537E+03</wgt>
<wgt id='4070'>0.72786E+03</wgt>
<wgt id='4080'>0.69515E+03</wgt>
<wgt id='6000'>0.71809E+03</wgt>
<wgt id='6001'>0.71847E+03</wgt>
<wgt id='6002'>0.71770E+03</wgt>
<wgt id='6003'>0.71868E+03</wgt>
<wgt id='6004'>0.71771E+03</wgt>
<wgt id='6005'>0.72178E+03</wgt>
<wgt id='6006'>0.71470E+03</wgt>
<wgt id='6007'>0.71556E+03</wgt>
<wgt id='6008'>0.72094E+03</wgt>
<wgt id='6009'>0.71918E+03</wgt>
<wgt id='6010'>0.71703E+03</wgt>
<wgt id='6011'>0.71884E+03</wgt>
<wgt id='6012'>0.71648E+03</wgt>
<wgt id='6013'>0.71775E+03</wgt>
<wgt id='6014'>0.71871E+03</wgt>
<wgt id='6015'>0.71699E+03</wgt>
<wgt id='6016'>0.71872E+03</wgt>
<wgt id='6017'>0.71522E+03</wgt>
<wgt id='6018'>0.72149E+03</wgt>
<wgt id='6019'>0.71845E+03</wgt>
<wgt id='6020'>0.71779E+03</wgt>
<wgt id='6021'>0.71669E+03</wgt>
<wgt id='6022'>0.71997E+03</wgt>
<wgt id='6023'>0.71392E+03</wgt>
<wgt id='6024'>0.72092E+03</wgt>
<wgt id='6025'>0.71910E+03</wgt>
<wgt id='6026'>0.71689E+03</wgt>
<wgt id='6027'>0.71866E+03</wgt>
<wgt id='6028'>0.71786E+03</wgt>
<wgt id='6029'>0.71629E+03</wgt>
<wgt id='6030'>0.72036E+03</wgt>
<wgt id='6031'>0.71113E+03</wgt>
<wgt id='6032'>0.72594E+03</wgt>
<wgt id='6033'>0.72140E+03</wgt>
<wgt id='6034'>0.71488E+03</wgt>
<wgt id='6035'>0.71922E+03</wgt>
<wgt id='6036'>0.71550E+03</wgt>
<wgt id='6037'>0.71886E+03</wgt>
<wgt id='6038'>0.71781E+03</wgt>
<wgt id='6039'>0.71632E+03</wgt>
<wgt id='6040'>0.72012E+03</wgt>
<wgt id='6041'>0.71288E+03</wgt>
<wgt id='6042'>0.72406E+03</wgt>
<wgt id='6043'>0.72445E+03</wgt>
<wgt id='6044'>0.71494E+03</wgt>
<wgt id='6045'>0.71711E+03</wgt>
<wgt id='6046'>0.72055E+03</wgt>
<wgt id='6047'>0.72257E+03</wgt>
<wgt id='6048'>0.71171E+03</wgt>
<wgt id='6049'>0.71976E+03</wgt>
<wgt id='6050'>0.71723E+03</wgt>
<wgt id='7000'>0.68484E+03</wgt>
<wgt id='7001'>0.68456E+03</wgt>
<wgt id='7002'>0.68521E+03</wgt>
<wgt id='7003'>0.68710E+03</wgt>
<wgt id='7004'>0.68259E+03</wgt>
<wgt id='7005'>0.68663E+03</wgt>
<wgt id='7006'>0.68413E+03</wgt>
<wgt id='7007'>0.68408E+03</wgt>
<wgt id='7008'>0.68561E+03</wgt>
<wgt id='7009'>0.68556E+03</wgt>
<wgt id='7010'>0.68416E+03</wgt>
<wgt id='7011'>0.68224E+03</wgt>
<wgt id='7012'>0.68598E+03</wgt>
<wgt id='7013'>0.68474E+03</wgt>
<wgt id='7014'>0.68496E+03</wgt>
<wgt id='7015'>0.68434E+03</wgt>
<wgt id='7016'>0.68540E+03</wgt>
<wgt id='7017'>0.68451E+03</wgt>
<wgt id='7018'>0.68503E+03</wgt>
<wgt id='7019'>0.68479E+03</wgt>
<wgt id='7020'>0.68490E+03</wgt>
<wgt id='7021'>0.68400E+03</wgt>
<wgt id='7022'>0.68544E+03</wgt>
<wgt id='7023'>0.69002E+03</wgt>
<wgt id='7024'>0.67992E+03</wgt>
<wgt id='7025'>0.68662E+03</wgt>
<wgt id='7026'>0.68039E+03</wgt>
<wgt id='7027'>0.68539E+03</wgt>
<wgt id='7028'>0.68399E+03</wgt>
<wgt id='7029'>0.68656E+03</wgt>
<wgt id='7030'>0.68080E+03</wgt>
<wgt id='7031'>0.68186E+03</wgt>
<wgt id='7032'>0.69101E+03</wgt>
<wgt id='7033'>0.68565E+03</wgt>
<wgt id='7034'>0.68323E+03</wgt>
<wgt id='7035'>0.68086E+03</wgt>
<wgt id='7036'>0.68658E+03</wgt>
<wgt id='7037'>0.68470E+03</wgt>
<wgt id='7038'>0.68485E+03</wgt>
<wgt id='7039'>0.68249E+03</wgt>
<wgt id='7040'>0.68664E+03</wgt>
<wgt id='7041'>0.68624E+03</wgt>
<wgt id='7042'>0.68230E+03</wgt>
<wgt id='7043'>0.68547E+03</wgt>
<wgt id='7044'>0.68122E+03</wgt>
<wgt id='7045'>0.67726E+03</wgt>
<wgt id='7046'>0.68964E+03</wgt>
<wgt id='7047'>0.68786E+03</wgt>
<wgt id='7048'>0.68343E+03</wgt>
<wgt id='7049'>0.68231E+03</wgt>
<wgt id='7050'>0.68596E+03</wgt>
<wgt id='7060'>0.91477E+03</wgt>
<wgt id='8000'>0.68450E+03</wgt>
<wgt id='8001'>0.68440E+03</wgt>
<wgt id='8002'>0.68470E+03</wgt>
<wgt id='8003'>0.68451E+03</wgt>
<wgt id='8004'>0.68448E+03</wgt>
<wgt id='8005'>0.68323E+03</wgt>
<wgt id='8006'>0.68513E+03</wgt>
<wgt id='8007'>0.68566E+03</wgt>
<wgt id='8008'>0.68594E+03</wgt>
<wgt id='8009'>0.68724E+03</wgt>
<wgt id='8010'>0.68381E+03</wgt>
<wgt id='8011'>0.68461E+03</wgt>
<wgt id='8012'>0.68220E+03</wgt>
<wgt id='8013'>0.68321E+03</wgt>
<wgt id='8014'>0.68597E+03</wgt>
<wgt id='8015'>0.68407E+03</wgt>
<wgt id='8016'>0.68519E+03</wgt>
<wgt id='8017'>0.68494E+03</wgt>
<wgt id='8018'>0.68623E+03</wgt>
<wgt id='8019'>0.68458E+03</wgt>
<wgt id='8020'>0.68462E+03</wgt>
<wgt id='8021'>0.68376E+03</wgt>
<wgt id='8022'>0.68484E+03</wgt>
<wgt id='8023'>0.68351E+03</wgt>
<wgt id='8024'>0.68207E+03</wgt>
<wgt id='8025'>0.68358E+03</wgt>
<wgt id='8026'>0.68518E+03</wgt>
<wgt id='8027'>0.68506E+03</wgt>
<wgt id='8028'>0.68484E+03</wgt>
<wgt id='8029'>0.68655E+03</wgt>
<wgt id='8500'>0.71862E+03</wgt>
<wgt id='8501'>0.71356E+03</wgt>
<wgt id='8502'>0.72272E+03</wgt>
<wgt id='8503'>0.72092E+03</wgt>
<wgt id='8504'>0.71518E+03</wgt>
<wgt id='8505'>0.71781E+03</wgt>
<wgt id='8506'>0.72119E+03</wgt>
<wgt id='8507'>0.71389E+03</wgt>
<wgt id='8508'>0.71115E+03</wgt>
<wgt id='8509'>0.72149E+03</wgt>
<wgt id='8510'>0.72418E+03</wgt>
<wgt id='8511'>0.71718E+03</wgt>
<wgt id='8512'>0.71922E+03</wgt>
<wgt id='8513'>0.71880E+03</wgt>
<wgt id='8514'>0.71313E+03</wgt>
<wgt id='8515'>0.72271E+03</wgt>
<wgt id='8516'>0.71716E+03</wgt>
<wgt id='8517'>0.71849E+03</wgt>
<wgt id='8518'>0.71318E+03</wgt>
<wgt id='8519'>0.71157E+03</wgt>
<wgt id='8520'>0.71649E+03</wgt>
<wgt id='8521'>0.71618E+03</wgt>
<wgt id='8522'>0.72176E+03</wgt>
<wgt id='8523'>0.71574E+03</wgt>
<wgt id='8524'>0.72084E+03</wgt>
<wgt id='8525'>0.71963E+03</wgt>
<wgt id='8526'>0.71790E+03</wgt>
<wgt id='8527'>0.71883E+03</wgt>
<wgt id='8528'>0.71765E+03</wgt>
<wgt id='8529'>0.71865E+03</wgt>
<wgt id='8530'>0.71846E+03</wgt>
<wgt id='8531'>0.71853E+03</wgt>
<wgt id='8532'>0.71852E+03</wgt>
<wgt id='8533'>0.71744E+03</wgt>
<wgt id='8534'>0.71890E+03</wgt>
<wgt id='8535'>0.72000E+03</wgt>
<wgt id='8536'>0.71771E+03</wgt>
<wgt id='8537'>0.71868E+03</wgt>
<wgt id='8538'>0.71826E+03</wgt>
<wgt id='8539'>0.71902E+03</wgt>
<wgt id='8540'>0.71900E+03</wgt>
<wgt id='8541'>0.71930E+03</wgt>
<wgt id='8542'>0.71898E+03</wgt>
<wgt id='8543'>0.71806E+03</wgt>
<wgt id='8544'>0.71977E+03</wgt>
<wgt id='8545'>0.71900E+03</wgt>
<wgt id='8546'>0.71949E+03</wgt>
<wgt id='8547'>0.71783E+03</wgt>
<wgt id='8548'>0.71805E+03</wgt>
<wgt id='8549'>0.71902E+03</wgt>
<wgt id='8550'>0.71801E+03</wgt>
<wgt id='8551'>0.71834E+03</wgt>
<wgt id='8552'>0.71819E+03</wgt>
<wgt id='8553'>0.71769E+03</wgt>
<wgt id='8554'>0.71828E+03</wgt>
<wgt id='8555'>0.71862E+03</wgt>
<wgt id='8556'>0.71839E+03</wgt>
<wgt id='8557'>0.71883E+03</wgt>
<wgt id='8558'>0.71947E+03</wgt>
<wgt id='8559'>0.71852E+03</wgt>
<wgt id='8560'>0.71779E+03</wgt>
<wgt id='8561'>0.71901E+03</wgt>
<wgt id='8562'>0.71822E+03</wgt>
<wgt id='8563'>0.71865E+03</wgt>
<wgt id='8564'>0.71839E+03</wgt>
<wgt id='8565'>0.71885E+03</wgt>
<wgt id='8566'>0.71895E+03</wgt>
<wgt id='8567'>0.71865E+03</wgt>
<wgt id='8568'>0.71910E+03</wgt>
<wgt id='8569'>0.71893E+03</wgt>
<wgt id='8570'>0.71840E+03</wgt>
<wgt id='8571'>0.71802E+03</wgt>
<wgt id='8572'>0.71818E+03</wgt>
<wgt id='8573'>0.71826E+03</wgt>
<wgt id='8574'>0.71835E+03</wgt>
<wgt id='8575'>0.71846E+03</wgt>
<wgt id='8576'>0.71862E+03</wgt>
<wgt id='8577'>0.71819E+03</wgt>
<wgt id='8578'>0.71858E+03</wgt>
<wgt id='8579'>0.71913E+03</wgt>
<wgt id='8580'>0.71845E+03</wgt>
<wgt id='8581'>0.71896E+03</wgt>
<wgt id='8582'>0.71824E+03</wgt>
<wgt id='8583'>0.71888E+03</wgt>
<wgt id='8584'>0.71909E+03</wgt>
<wgt id='8585'>0.71888E+03</wgt>
<wgt id='8586'>0.71935E+03</wgt>
<wgt id='8587'>0.71879E+03</wgt>
<wgt id='8588'>0.71862E+03</wgt>
<wgt id='8589'>0.71858E+03</wgt>
<wgt id='8590'>0.71866E+03</wgt>
<wgt id='8591'>0.71827E+03</wgt>
<wgt id='8592'>0.71854E+03</wgt>
<wgt id='8593'>0.71840E+03</wgt>
<wgt id='8594'>0.71852E+03</wgt>
<wgt id='8595'>0.71857E+03</wgt>
<wgt id='8596'>0.71851E+03</wgt>
<wgt id='8597'>0.71879E+03</wgt>
<wgt id='8598'>0.71880E+03</wgt>
<wgt id='8599'>0.71871E+03</wgt>
<wgt id='8600'>0.71863E+03</wgt>
<wgt id='8601'>0.70548E+03</wgt>
<wgt id='8602'>0.73197E+03</wgt>
<wgt id='9000'>0.68869E+03</wgt>
<wgt id='9001'>0.68950E+03</wgt>
<wgt id='9002'>0.68999E+03</wgt>
<wgt id='9003'>0.68624E+03</wgt>
<wgt id='9004'>0.69013E+03</wgt>
<wgt id='9005'>0.69262E+03</wgt>
<wgt id='9006'>0.68939E+03</wgt>
<wgt id='9007'>0.68643E+03</wgt>
<wgt id='9008'>0.68808E+03</wgt>
<wgt id='9009'>0.68908E+03</wgt>
<wgt id='9010'>0.68691E+03</wgt>
<wgt id='9011'>0.69263E+03</wgt>
<wgt id='9012'>0.69037E+03</wgt>
<wgt id='9013'>0.68885E+03</wgt>
<wgt id='9014'>0.68861E+03</wgt>
<wgt id='9015'>0.68517E+03</wgt>
<wgt id='9016'>0.69169E+03</wgt>
<wgt id='9017'>0.68493E+03</wgt>
<wgt id='9018'>0.69124E+03</wgt>
<wgt id='9019'>0.69124E+03</wgt>
<wgt id='9020'>0.69517E+03</wgt>
<wgt id='9021'>0.68688E+03</wgt>
<wgt id='9022'>0.68981E+03</wgt>
<wgt id='9023'>0.68444E+03</wgt>
<wgt id='9024'>0.68617E+03</wgt>
<wgt id='9025'>0.69234E+03</wgt>
<wgt id='9026'>0.68874E+03</wgt>
<wgt id='9027'>0.68773E+03</wgt>
<wgt id='9028'>0.68959E+03</wgt>
<wgt id='9029'>0.68862E+03</wgt>
<wgt id='9030'>0.68832E+03</wgt>
<wgt id='9031'>0.68836E+03</wgt>
<wgt id='9032'>0.68940E+03</wgt>
<wgt id='9033'>0.68963E+03</wgt>
<wgt id='9034'>0.68868E+03</wgt>
<wgt id='9035'>0.68926E+03</wgt>
<wgt id='9036'>0.68887E+03</wgt>
<wgt id='9037'>0.68933E+03</wgt>
<wgt id='9038'>0.68925E+03</wgt>
<wgt id='9039'>0.68892E+03</wgt>
<wgt id='9040'>0.68788E+03</wgt>
<wgt id='9041'>0.68882E+03</wgt>
<wgt id='9042'>0.68930E+03</wgt>
<wgt id='9043'>0.68790E+03</wgt>
<wgt id='9044'>0.68893E+03</wgt>
<wgt id='9045'>0.68919E+03</wgt>
<wgt id='9046'>0.68775E+03</wgt>
<wgt id='9047'>0.68882E+03</wgt>
<wgt id='9048'>0.68921E+03</wgt>
<wgt id='9049'>0.68832E+03</wgt>
<wgt id='9050'>0.68875E+03</wgt>
<wgt id='9051'>0.68912E+03</wgt>
<wgt id='9052'>0.68925E+03</wgt>
<wgt id='9053'>0.68869E+03</wgt>
<wgt id='9054'>0.68818E+03</wgt>
<wgt id='9055'>0.68823E+03</wgt>
<wgt id='9056'>0.68911E+03</wgt>
<wgt id='9057'>0.68868E+03</wgt>
<wgt id='9058'>0.68792E+03</wgt>
<wgt id='9059'>0.68821E+03</wgt>
<wgt id='9060'>0.68839E+03</wgt>
<wgt id='9061'>0.68870E+03</wgt>
<wgt id='9062'>0.68881E+03</wgt>
<wgt id='9063'>0.68886E+03</wgt>
<wgt id='9064'>0.68881E+03</wgt>
<wgt id='9065'>0.68851E+03</wgt>
<wgt id='9066'>0.68853E+03</wgt>
<wgt id='9067'>0.68889E+03</wgt>
<wgt id='9068'>0.68876E+03</wgt>
<wgt id='9069'>0.68928E+03</wgt>
<wgt id='9070'>0.68854E+03</wgt>
<wgt id='9071'>0.68916E+03</wgt>
<wgt id='9072'>0.68917E+03</wgt>
<wgt id='9073'>0.68856E+03</wgt>
<wgt id='9074'>0.68879E+03</wgt>
<wgt id='9075'>0.68860E+03</wgt>
<wgt id='9076'>0.68864E+03</wgt>
<wgt id='9077'>0.68889E+03</wgt>
<wgt id='9078'>0.68876E+03</wgt>
<wgt id='9079'>0.68861E+03</wgt>
<wgt id='9080'>0.68937E+03</wgt>
<wgt id='9081'>0.68875E+03</wgt>
<wgt id='9082'>0.68890E+03</wgt>
<wgt id='9083'>0.68851E+03</wgt>
<wgt id='9084'>0.68839E+03</wgt>
<wgt id='9085'>0.68831E+03</wgt>
<wgt id='9086'>0.68888E+03</wgt>
<wgt id='9087'>0.68797E+03</wgt>
<wgt id='9088'>0.68836E+03</wgt>
<wgt id='9089'>0.68840E+03</wgt>
<wgt id='9090'>0.68878E+03</wgt>
<wgt id='9091'>0.68853E+03</wgt>
<wgt id='9092'>0.68860E+03</wgt>
<wgt id='9093'>0.68851E+03</wgt>
<wgt id='9094'>0.68851E+03</wgt>
<wgt id='9095'>0.68876E+03</wgt>
<wgt id='9096'>0.68855E+03</wgt>
<wgt id='9097'>0.68877E+03</wgt>
<wgt id='9098'>0.68862E+03</wgt>
<wgt id='9099'>0.68849E+03</wgt>
<wgt id='9100'>0.68871E+03</wgt>
<wgt id='9101'>0.67623E+03</wgt>
<wgt id='9102'>0.70122E+03</wgt>
<wgt id='10000'>0.71805E+03</wgt>
<wgt id='10001'>0.72076E+03</wgt>
<wgt id='10002'>0.71229E+03</wgt>
<wgt id='10003'>0.71788E+03</wgt>
<wgt id='10004'>0.70973E+03</wgt>
<wgt id='10005'>0.72089E+03</wgt>
<wgt id='10006'>0.71402E+03</wgt>
<wgt id='10007'>0.71810E+03</wgt>
<wgt id='10008'>0.71908E+03</wgt>
<wgt id='10009'>0.71426E+03</wgt>
<wgt id='10010'>0.71961E+03</wgt>
<wgt id='10011'>0.71316E+03</wgt>
<wgt id='10012'>0.71635E+03</wgt>
<wgt id='10013'>0.71876E+03</wgt>
<wgt id='10014'>0.71761E+03</wgt>
<wgt id='10015'>0.71877E+03</wgt>
<wgt id='10016'>0.71581E+03</wgt>
<wgt id='10017'>0.72197E+03</wgt>
<wgt id='10018'>0.71991E+03</wgt>
<wgt id='10019'>0.71258E+03</wgt>
<wgt id='10020'>0.71614E+03</wgt>
<wgt id='10021'>0.71722E+03</wgt>
<wgt id='10022'>0.71750E+03</wgt>
<wgt id='10023'>0.71890E+03</wgt>
<wgt id='10024'>0.71763E+03</wgt>
<wgt id='10025'>0.71751E+03</wgt>
<wgt id='10026'>0.72102E+03</wgt>
<wgt id='10027'>0.71931E+03</wgt>
<wgt id='10028'>0.72776E+03</wgt>
<wgt id='10029'>0.71850E+03</wgt>
<wgt id='10030'>0.71759E+03</wgt>
<wgt id='10031'>0.70548E+03</wgt>
<wgt id='10032'>0.73197E+03</wgt>
<wgt id='11000'>0.68813E+03</wgt>
<wgt id='11001'>0.67623E+03</wgt>
<wgt id='11002'>0.68830E+03</wgt>
<wgt id='11003'>0.68810E+03</wgt>
<wgt id='11004'>0.68706E+03</wgt>
<wgt id='11005'>0.68814E+03</wgt>
<wgt id='11006'>0.68820E+03</wgt>
<wgt id='11007'>0.68797E+03</wgt>
<wgt id='11008'>0.68827E+03</wgt>
<wgt id='11009'>0.68718E+03</wgt>
<wgt id='11010'>0.68666E+03</wgt>
<wgt id='11011'>0.68652E+03</wgt>
<wgt id='11012'>0.68793E+03</wgt>
<wgt id='11013'>0.68926E+03</wgt>
<wgt id='11014'>0.68723E+03</wgt>
<wgt id='11015'>0.68690E+03</wgt>
<wgt id='11016'>0.68858E+03</wgt>
<wgt id='11017'>0.69007E+03</wgt>
<wgt id='11018'>0.68834E+03</wgt>
<wgt id='11019'>0.68847E+03</wgt>
<wgt id='11020'>0.68836E+03</wgt>
<wgt id='11021'>0.68929E+03</wgt>
<wgt id='11022'>0.69247E+03</wgt>
<wgt id='11023'>0.68812E+03</wgt>
<wgt id='11024'>0.68702E+03</wgt>
<wgt id='11025'>0.68716E+03</wgt>
<wgt id='11026'>0.68807E+03</wgt>
<wgt id='11027'>0.68873E+03</wgt>
<wgt id='11028'>0.68760E+03</wgt>
<wgt id='11029'>0.68415E+03</wgt>
<wgt id='11030'>0.68830E+03</wgt>
<wgt id='11031'>0.67623E+03</wgt>
<wgt id='11032'>0.70122E+03</wgt>
<wgt id='12000'>0.67139E+03</wgt>
<wgt id='12001'>0.67052E+03</wgt>
<wgt id='12002'>0.67225E+03</wgt>
<wgt id='12003'>0.67194E+03</wgt>
<wgt id='12004'>0.67084E+03</wgt>
<wgt id='12005'>0.67222E+03</wgt>
<wgt id='12006'>0.67056E+03</wgt>
<wgt id='12007'>0.67452E+03</wgt>
<wgt id='12008'>0.66832E+03</wgt>
<wgt id='12009'>0.67069E+03</wgt>
<wgt id='12010'>0.67211E+03</wgt>
<wgt id='12011'>0.66731E+03</wgt>
<wgt id='12012'>0.67589E+03</wgt>
<wgt id='12013'>0.66956E+03</wgt>
<wgt id='12014'>0.67325E+03</wgt>
<wgt id='12015'>0.67373E+03</wgt>
<wgt id='12016'>0.66802E+03</wgt>
<wgt id='12017'>0.67415E+03</wgt>
<wgt id='12018'>0.66950E+03</wgt>
<wgt id='12019'>0.67292E+03</wgt>
<wgt id='12020'>0.66945E+03</wgt>
<wgt id='12021'>0.67224E+03</wgt>
<wgt id='12022'>0.67042E+03</wgt>
<wgt id='12023'>0.66496E+03</wgt>
<wgt id='12024'>0.67666E+03</wgt>
<wgt id='12025'>0.66820E+03</wgt>
<wgt id='12026'>0.67493E+03</wgt>
<wgt id='12027'>0.67996E+03</wgt>
<wgt id='12028'>0.66364E+03</wgt>
<wgt id='12050'>0.67139E+03</wgt>
<wgt id='12051'>0.67100E+03</wgt>
<wgt id='12052'>0.66457E+03</wgt>
<wgt id='12053'>0.67104E+03</wgt>
<wgt id='12054'>0.66589E+03</wgt>
<wgt id='12055'>0.66658E+03</wgt>
<wgt id='12056'>0.67486E+03</wgt>
<wgt id='12057'>0.66831E+03</wgt>
<wgt id='12058'>0.66920E+03</wgt>
<wgt id='12059'>0.67238E+03</wgt>
<wgt id='12060'>0.66498E+03</wgt>
<wgt id='12061'>0.66494E+03</wgt>
<wgt id='12062'>0.66779E+03</wgt>
<wgt id='12063'>0.67110E+03</wgt>
<wgt id='13000'>0.68378E+03</wgt>
<wgt id='13001'>0.67921E+03</wgt>
<wgt id='13002'>0.68057E+03</wgt>
<wgt id='13003'>0.67983E+03</wgt>
<wgt id='13004'>0.67996E+03</wgt>
<wgt id='13005'>0.68073E+03</wgt>
<wgt id='13006'>0.67906E+03</wgt>
<wgt id='13007'>0.68382E+03</wgt>
<wgt id='13008'>0.67607E+03</wgt>
<wgt id='13009'>0.67724E+03</wgt>
<wgt id='13010'>0.68264E+03</wgt>
<wgt id='13011'>0.68206E+03</wgt>
<wgt id='13012'>0.67776E+03</wgt>
<wgt id='13013'>0.67887E+03</wgt>
<wgt id='13014'>0.68086E+03</wgt>
<wgt id='13015'>0.67986E+03</wgt>
<wgt id='13016'>0.67835E+03</wgt>
<wgt id='13017'>0.67973E+03</wgt>
<wgt id='13018'>0.68007E+03</wgt>
<wgt id='13019'>0.67965E+03</wgt>
<wgt id='13020'>0.68021E+03</wgt>
<wgt id='13021'>0.68282E+03</wgt>
<wgt id='13022'>0.67682E+03</wgt>
<wgt id='13023'>0.67560E+03</wgt>
<wgt id='13024'>0.68425E+03</wgt>
<wgt id='13025'>0.67080E+03</wgt>
<wgt id='13026'>0.68831E+03</wgt>
<wgt id='13027'>0.67608E+03</wgt>
<wgt id='13028'>0.68421E+03</wgt>
<wgt id='13050'>0.68379E+03</wgt>
<wgt id='13051'>0.68210E+03</wgt>
<wgt id='13052'>0.67384E+03</wgt>
<wgt id='13053'>0.68176E+03</wgt>
<wgt id='13054'>0.67836E+03</wgt>
<wgt id='13055'>0.66691E+03</wgt>
<wgt id='13056'>0.68004E+03</wgt>
<wgt id='13057'>0.67926E+03</wgt>
<wgt id='13058'>0.68230E+03</wgt>
<wgt id='13059'>0.68269E+03</wgt>
<wgt id='13060'>0.66164E+03</wgt>
<wgt id='13061'>0.67940E+03</wgt>
<wgt id='13062'>0.68212E+03</wgt>
<wgt id='13063'>0.68473E+03</wgt>
<wgt id='14000'>0.70510E+03</wgt>
<wgt id='14001'>0.70502E+03</wgt>
<wgt id='14002'>0.70494E+03</wgt>
<wgt id='14003'>0.70485E+03</wgt>
<wgt id='14004'>0.70477E+03</wgt>
<wgt id='14005'>0.70468E+03</wgt>
<wgt id='14006'>0.70460E+03</wgt>
<wgt id='14007'>0.70451E+03</wgt>
<wgt id='14008'>0.70443E+03</wgt>
<wgt id='14009'>0.70434E+03</wgt>
<wgt id='14010'>0.70426E+03</wgt>
<wgt id='14011'>0.70417E+03</wgt>
<wgt id='14012'>0.70409E+03</wgt>
<wgt id='14013'>0.70400E+03</wgt>
<wgt id='14014'>0.70392E+03</wgt>
<wgt id='14015'>0.70384E+03</wgt>
<wgt id='14016'>0.70375E+03</wgt>
<wgt id='14017'>0.70367E+03</wgt>
<wgt id='14018'>0.70358E+03</wgt>
<wgt id='14019'>0.70350E+03</wgt>
<wgt id='14020'>0.70341E+03</wgt>
<wgt id='14021'>0.70333E+03</wgt>
<wgt id='14022'>0.70324E+03</wgt>
<wgt id='14023'>0.70316E+03</wgt>
<wgt id='14024'>0.70308E+03</wgt>
<wgt id='14025'>0.70299E+03</wgt>
<wgt id='14026'>0.70291E+03</wgt>
<wgt id='14027'>0.70282E+03</wgt>
<wgt id='14028'>0.70274E+03</wgt>
<wgt id='14029'>0.70265E+03</wgt>
<wgt id='14030'>0.70257E+03</wgt>
<wgt id='15000'>0.68090E+03</wgt>
<wgt id='15001'>0.68175E+03</wgt>
<wgt id='15002'>0.68207E+03</wgt>
<wgt id='15003'>0.67864E+03</wgt>
<wgt id='15004'>0.68239E+03</wgt>
<wgt id='15005'>0.68487E+03</wgt>
<wgt id='15006'>0.68165E+03</wgt>
<wgt id='15007'>0.67858E+03</wgt>
<wgt id='15008'>0.68028E+03</wgt>
<wgt id='15009'>0.68136E+03</wgt>
<wgt id='15010'>0.67925E+03</wgt>
<wgt id='15011'>0.68476E+03</wgt>
<wgt id='15012'>0.68257E+03</wgt>
<wgt id='15013'>0.68119E+03</wgt>
<wgt id='15014'>0.68071E+03</wgt>
<wgt id='15015'>0.67726E+03</wgt>
<wgt id='15016'>0.68385E+03</wgt>
<wgt id='15017'>0.67721E+03</wgt>
<wgt id='15018'>0.68341E+03</wgt>
<wgt id='15019'>0.68342E+03</wgt>
<wgt id='15020'>0.68736E+03</wgt>
<wgt id='15021'>0.67903E+03</wgt>
<wgt id='15022'>0.68207E+03</wgt>
<wgt id='15023'>0.67665E+03</wgt>
<wgt id='15024'>0.67838E+03</wgt>
<wgt id='15025'>0.68447E+03</wgt>
<wgt id='15026'>0.68093E+03</wgt>
<wgt id='15027'>0.67998E+03</wgt>
<wgt id='15028'>0.68181E+03</wgt>
<wgt id='15029'>0.68086E+03</wgt>
<wgt id='15030'>0.68057E+03</wgt>
<wgt id='15031'>0.68062E+03</wgt>
<wgt id='15032'>0.68162E+03</wgt>
<wgt id='15033'>0.68187E+03</wgt>
<wgt id='15034'>0.68088E+03</wgt>
<wgt id='15035'>0.68149E+03</wgt>
<wgt id='15036'>0.68107E+03</wgt>
<wgt id='15037'>0.68158E+03</wgt>
<wgt id='15038'>0.68146E+03</wgt>
<wgt id='15039'>0.68113E+03</wgt>
<wgt id='15040'>0.68010E+03</wgt>
<wgt id='15041'>0.68098E+03</wgt>
<wgt id='15042'>0.68145E+03</wgt>
<wgt id='15043'>0.68017E+03</wgt>
<wgt id='15044'>0.68116E+03</wgt>
<wgt id='15045'>0.68136E+03</wgt>
<wgt id='15046'>0.67997E+03</wgt>
<wgt id='15047'>0.68099E+03</wgt>
<wgt id='15048'>0.68142E+03</wgt>
<wgt id='15049'>0.68051E+03</wgt>
<wgt id='15050'>0.68098E+03</wgt>
<wgt id='15051'>0.68134E+03</wgt>
<wgt id='15052'>0.68144E+03</wgt>
<wgt id='15053'>0.68094E+03</wgt>
<wgt id='15054'>0.68041E+03</wgt>
<wgt id='15055'>0.68045E+03</wgt>
<wgt id='15056'>0.68132E+03</wgt>
<wgt id='15057'>0.68088E+03</wgt>
<wgt id='15058'>0.68018E+03</wgt>
<wgt id='15059'>0.68044E+03</wgt>
<wgt id='15060'>0.68061E+03</wgt>
<wgt id='15061'>0.68092E+03</wgt>
<wgt id='15062'>0.68102E+03</wgt>
<wgt id='15063'>0.68110E+03</wgt>
<wgt id='15064'>0.68100E+03</wgt>
<wgt id='15065'>0.68073E+03</wgt>
<wgt id='15066'>0.68076E+03</wgt>
<wgt id='15067'>0.68110E+03</wgt>
<wgt id='15068'>0.68098E+03</wgt>
<wgt id='15069'>0.68149E+03</wgt>
<wgt id='15070'>0.68075E+03</wgt>
<wgt id='15071'>0.68139E+03</wgt>
<wgt id='15072'>0.68140E+03</wgt>
<wgt id='15073'>0.68076E+03</wgt>
<wgt id='15074'>0.68101E+03</wgt>
<wgt id='15075'>0.68081E+03</wgt>
<wgt id='15076'>0.68088E+03</wgt>
<wgt id='15077'>0.68110E+03</wgt>
<wgt id='15078'>0.68100E+03</wgt>
<wgt id='15079'>0.68082E+03</wgt>
<wgt id='15080'>0.68156E+03</wgt>
<wgt id='15081'>0.68097E+03</wgt>
<wgt id='15082'>0.68112E+03</wgt>
<wgt id='15083'>0.68071E+03</wgt>
<wgt id='15084'>0.68060E+03</wgt>
<wgt id='15085'>0.68054E+03</wgt>
<wgt id='15086'>0.68110E+03</wgt>
<wgt id='15087'>0.68019E+03</wgt>
<wgt id='15088'>0.68058E+03</wgt>
<wgt id='15089'>0.68061E+03</wgt>
<wgt id='15090'>0.68100E+03</wgt>
<wgt id='15091'>0.68075E+03</wgt>
<wgt id='15092'>0.68082E+03</wgt>
<wgt id='15093'>0.68073E+03</wgt>
<wgt id='15094'>0.68073E+03</wgt>
<wgt id='15095'>0.68098E+03</wgt>
<wgt id='15096'>0.68076E+03</wgt>
<wgt id='15097'>0.68098E+03</wgt>
<wgt id='15098'>0.68085E+03</wgt>
<wgt id='15099'>0.68070E+03</wgt>
<wgt id='15100'>0.68092E+03</wgt>
<wgt id='15101'>0.68089E+03</wgt>
<wgt id='15102'>0.68085E+03</wgt>
<wgt id='15103'>0.68091E+03</wgt>
<wgt id='15104'>0.68091E+03</wgt>
<wgt id='15105'>0.68092E+03</wgt>
<wgt id='15106'>0.68090E+03</wgt>
<wgt id='15107'>0.68087E+03</wgt>
<wgt id='1500'>0.73294E+03</wgt>
<wgt id='1501'>0.71371E+03</wgt>
<wgt id='1502'>0.74313E+03</wgt>
<wgt id='1503'>0.74935E+03</wgt>
<wgt id='1504'>0.71124E+03</wgt>
<wgt id='1505'>0.69830E+03</wgt>
<wgt id='1506'>0.72977E+03</wgt>
<wgt id='1507'>0.73527E+03</wgt>
<wgt id='1508'>0.73228E+03</wgt>
<wgt id='1509'>0.74150E+03</wgt>
<wgt id='1510'>0.73316E+03</wgt>
<wgt id='1511'>0.71098E+03</wgt>
<wgt id='1512'>0.73718E+03</wgt>
<wgt id='1513'>0.71753E+03</wgt>
<wgt id='1514'>0.73867E+03</wgt>
<wgt id='1515'>0.74141E+03</wgt>
<wgt id='1516'>0.74847E+03</wgt>
<wgt id='1517'>0.74457E+03</wgt>
<wgt id='1518'>0.74388E+03</wgt>
<wgt id='1519'>0.73129E+03</wgt>
<wgt id='1520'>0.75766E+03</wgt>
<wgt id='1521'>0.72688E+03</wgt>
<wgt id='1522'>0.72630E+03</wgt>
<wgt id='1523'>0.75097E+03</wgt>
<wgt id='1524'>0.72714E+03</wgt>
<wgt id='1525'>0.73013E+03</wgt>
<wgt id='1526'>0.72251E+03</wgt>
<wgt id='1527'>0.74859E+03</wgt>
<wgt id='1528'>0.73349E+03</wgt>
<wgt id='1529'>0.74649E+03</wgt>
<wgt id='1530'>0.74647E+03</wgt>
<wgt id='1531'>0.72057E+03</wgt>
<wgt id='1532'>0.71851E+03</wgt>
<wgt id='1533'>0.72892E+03</wgt>
<wgt id='1534'>0.72626E+03</wgt>
<wgt id='1535'>0.75917E+03</wgt>
<wgt id='1536'>0.73604E+03</wgt>
<wgt id='1537'>0.74163E+03</wgt>
<wgt id='1538'>0.72731E+03</wgt>
<wgt id='1539'>0.71750E+03</wgt>
<wgt id='1540'>0.72543E+03</wgt>
<wgt id='1541'>0.72738E+03</wgt>
<wgt id='1542'>0.73101E+03</wgt>
<wgt id='1543'>0.72220E+03</wgt>
<wgt id='1544'>0.73444E+03</wgt>
<wgt id='1545'>0.74517E+03</wgt>
<wgt id='1546'>0.73342E+03</wgt>
<wgt id='1547'>0.72796E+03</wgt>
<wgt id='1548'>0.72881E+03</wgt>
<wgt id='1549'>0.74299E+03</wgt>
<wgt id='1550'>0.72918E+03</wgt>
<wgt id='1551'>0.72729E+03</wgt>
<wgt id='1552'>0.73296E+03</wgt>
<wgt id='1553'>0.74277E+03</wgt>
<wgt id='1554'>0.71288E+03</wgt>
<wgt id='1555'>0.72682E+03</wgt>
<wgt id='1556'>0.73447E+03</wgt>
<wgt id='1557'>0.73680E+03</wgt>
<wgt id='1558'>0.72538E+03</wgt>
<wgt id='1559'>0.75346E+03</wgt>
<wgt id='1560'>0.72924E+03</wgt>
<wgt id='1561'>0.73531E+03</wgt>
<wgt id='1562'>0.74627E+03</wgt>
<wgt id='1563'>0.72360E+03</wgt>
<wgt id='1564'>0.74132E+03</wgt>
<wgt id='1565'>0.73461E+03</wgt>
<wgt id='1566'>0.72932E+03</wgt>
<wgt id='1567'>0.76494E+03</wgt>
<wgt id='1568'>0.72970E+03</wgt>
<wgt id='1569'>0.71695E+03</wgt>
<wgt id='1570'>0.72046E+03</wgt>
<wgt id='1571'>0.73135E+03</wgt>
<wgt id='1572'>0.72870E+03</wgt>
<wgt id='1573'>0.71247E+03</wgt>
<wgt id='1574'>0.74209E+03</wgt>
<wgt id='1575'>0.73098E+03</wgt>
<wgt id='1576'>0.71010E+03</wgt>
<wgt id='1577'>0.71858E+03</wgt>
<wgt id='1578'>0.73782E+03</wgt>
<wgt id='1579'>0.73013E+03</wgt>
<wgt id='1580'>0.72439E+03</wgt>
<wgt id='1581'>0.73345E+03</wgt>
<wgt id='1582'>0.72001E+03</wgt>
<wgt id='1583'>0.74836E+03</wgt>
<wgt id='1584'>0.73510E+03</wgt>
<wgt id='1585'>0.73264E+03</wgt>
<wgt id='1586'>0.73113E+03</wgt>
<wgt id='1587'>0.74330E+03</wgt>
<wgt id='1588'>0.73595E+03</wgt>
<wgt id='1589'>0.74459E+03</wgt>
<wgt id='1590'>0.72311E+03</wgt>
<wgt id='1591'>0.71762E+03</wgt>
<wgt id='1592'>0.73338E+03</wgt>
<wgt id='1593'>0.73818E+03</wgt>
<wgt id='1594'>0.75464E+03</wgt>
<wgt id='1595'>0.73923E+03</wgt>
<wgt id='1596'>0.73568E+03</wgt>
<wgt id='1597'>0.73656E+03</wgt>
<wgt id='1598'>0.73729E+03</wgt>
<wgt id='1599'>0.74255E+03</wgt>
<wgt id='1600'>0.73424E+03</wgt>
<wgt id='1601'>0.72182E+03</wgt>
<wgt id='1602'>0.73801E+03</wgt>
<wgt id='1700'>0.69194E+03</wgt>
<wgt id='1800'>0.73042E+03</wgt>
<wgt id='1850'>0.85893E+03</wgt>
<wgt id='1900'>0.78083E+03</wgt>
<wgt id='1950'>0.83360E+03</wgt>
</rwgt>
</event>
<event>
     13 322222  6.87070E+02  2.73479E+01 -1.00000E+00  1.53350E-01
      21    -1     0     0   502   503  0.000000000E+00  0.000000000E+00  3.426015306E+01  3.426015306E+01  0.000000000E+00  0.00000E+00  9.000E+00
      21    -1     0     0   504   505  0.000000000E+00  0.000000000E+00 -1.351109813E+03  1.351109813E+03  0.000000000E+00  0.00000E+00  9.000E+00
       6     2     1     2   502     0 -2.485145434E+01 -2.910037106E+00 -3.033315330E+02  3.505845210E+02  1.739925985E+02  0.00000E+00  9.000E+00
      -6     2     1     2     0   505  5.212301801E+01  8.678444440E-01 -9.077887801E+02  9.255764550E+02  1.728980699E+02  0.00000E+00  9.000E+00
      21     1     1     2   504   503 -2.727156367E+01  2.042192662E+00 -1.057293472E+02  1.092089905E+02  1.348699152E-06  0.00000E+00  9.000E+00
      24     2     3     3     0     0  4.538067530E+01  2.851476820E+01 -1.449676515E+02  1.744532365E+02  8.090620519E+01  0.00000E+00  9.000E+00
       5     1     3     3   502     0 -7.023212965E+01 -3.142480530E+01 -1.583638814E+02  1.761312845E+02  4.800000000E+00  0.00000E+00 -1.000E+00
     -24     2     4     4     0     0  1.085201997E-01 -4.013815196E+01 -3.038220498E+02  3.179697968E+02  8.476951532E+01  0.00000E+00  9.000E+00
      -5     1     4     4     0   505  5.201449781E+01  4.100599641E+01 -6.039667303E+02  6.076066582E+02  4.800000000E+00  0.00000E+00  1.000E+00
     -11     1     6     6     0     0  1.822716403E+01 -1.253557844E+01 -8.226182625E-01  2.213700378E+01  5.100000000E-04  0.00000E+00  1.000E+00
      12     1     6     6     0     0  2.715351127E+01  4.105034663E+01 -1.441450333E+02  1.523162327E+02  0.000000000E+00  0.00000E+00 -1.000E+00
      13     1     8     8     0     0  1.335736558E+01 -8.492301449E+00 -4.181668041E+00  1.637180257E+01  1.057000000E-01  0.00000E+00 -1.000E+00
     -14     1     8     8     0     0 -1.324884538E+01 -3.164585051E+01 -2.996403818E+02  3.015979942E+02  0.000000000E+00  0.00000E+00  1.000E+00
#rwgt            1           1   343.00036364914172                2        9645           0
<rwgt>
<wgt id='1001'>0.68707E+03</wgt>
<wgt id='1002'>0.63059E+03</wgt>
<wgt id='1003'>0.74591E+03</wgt>
<wgt id='1004'>0.60267E+03</wgt>
<wgt id='1005'>0.55509E+03</wgt>
<wgt id='1006'>0.65208E+03</wgt>
<wgt id='1007'>0.78776E+03</wgt>
<wgt id='1008'>0.71955E+03</wgt>
<wgt id='1009'>0.85909E+03</wgt>
<wgt id='2000'>0.68707E+03</wgt>
<wgt id='2001'>0.68615E+03</wgt>
<wgt id='2002'>0.68758E+03</wgt>
<wgt id='2003'>0.68655E+03</wgt>
<wgt id='2004'>0.68893E+03</wgt>
<wgt id='2005'>0.68697E+03</wgt>
<wgt id='2006'>0.68510E+03</wgt>
<wgt id='2007'>0.68684E+03</wgt>
<wgt id='2008'>0.68726E+03</wgt>
<wgt id='2009'>0.68765E+03</wgt>
<wgt id='2010'>0.68495E+03</wgt>
<wgt id='2011'>0.68778E+03</wgt>
<wgt id='2012'>0.68839E+03</wgt>
<wgt id='2013'>0.68678E+03</wgt>
<wgt id='2014'>0.68577E+03</wgt>
<wgt id='2015'>0.68638E+03</wgt>
<wgt id='2016'>0.68830E+03</wgt>
<wgt id='2017'>0.68702E+03</wgt>
<wgt id='2018'>0.68562E+03</wgt>
<wgt id='2019'>0.68765E+03</wgt>
<wgt id='2020'>0.68666E+03</wgt>
<wgt id='2021'>0.68793E+03</wgt>
<wgt id='2022'>0.68619E+03</wgt>
<wgt id='2023'>0.68838E+03</wgt>
<wgt id='2024'>0.68620E+03</wgt>
<wgt id='2025'>0.68703E+03</wgt>
<wgt id='2026'>0.68792E+03</wgt>
<wgt id='2027'>0.68547E+03</wgt>
<wgt id='2028'>0.68584E+03</wgt>
<wgt id='2029'>0.69187E+03</wgt>
<wgt id='2030'>0.68884E+03</wgt>
<wgt id='2031'>0.68717E+03</wgt>
<wgt id='2032'>0.68924E+03</wgt>
<wgt id='2033'>0.68813E+03</wgt>
<wgt id='2034'>0.68414E+03</wgt>
<wgt id='2035'>0.68731E+03</wgt>
<wgt id='2036'>0.68778E+03</wgt>
<wgt id='2037'>0.68413E+03</wgt>
<wgt id='2038'>0.68706E+03</wgt>
<wgt id='2039'>0.69068E+03</wgt>
<wgt id='2040'>0.69145E+03</wgt>
<wgt id='2041'>0.68946E+03</wgt>
<wgt id='2042'>0.68332E+03</wgt>
<wgt id='2043'>0.68430E+03</wgt>
<wgt id='2044'>0.68615E+03</wgt>
<wgt id='2045'>0.68685E+03</wgt>
<wgt id='2046'>0.68841E+03</wgt>
<wgt id='2047'>0.68918E+03</wgt>
<wgt id='2048'>0.68338E+03</wgt>
<wgt id='2049'>0.68544E+03</wgt>
<wgt id='2050'>0.68722E+03</wgt>
<wgt id='2051'>0.68826E+03</wgt>
<wgt id='2052'>0.68790E+03</wgt>
<wgt id='2053'>0.68853E+03</wgt>
<wgt id='2054'>0.68779E+03</wgt>
<wgt id='2055'>0.68718E+03</wgt>
<wgt id='2056'>0.68663E+03</wgt>
<wgt id='2057'>0.68783E+03</wgt>
<wgt id='2058'>0.68653E+03</wgt>
<wgt id='2059'>0.68651E+03</wgt>
<wgt id='2060'>0.68665E+03</wgt>
<wgt id='2061'>0.68633E+03</wgt>
<wgt id='2062'>0.68690E+03</wgt>
<wgt id='2063'>0.68759E+03</wgt>
<wgt id='2064'>0.68700E+03</wgt>
<wgt id='2065'>0.68787E+03</wgt>
<wgt id='2066'>0.68810E+03</wgt>
<wgt id='2067'>0.68697E+03</wgt>
<wgt id='2068'>0.68737E+03</wgt>
<wgt id='2069'>0.68742E+03</wgt>
<wgt id='2070'>0.68539E+03</wgt>
<wgt id='2071'>0.68621E+03</wgt>
<wgt id='2072'>0.68713E+03</wgt>
<wgt id='2073'>0.68595E+03</wgt>
<wgt id='2074'>0.68593E+03</wgt>
<wgt id='2075'>0.68682E+03</wgt>
<wgt id='2076'>0.68719E+03</wgt>
<wgt id='2077'>0.68574E+03</wgt>
<wgt id='2078'>0.68745E+03</wgt>
<wgt id='2079'>0.68736E+03</wgt>
<wgt id='2080'>0.68719E+03</wgt>
<wgt id='2081'>0.68726E+03</wgt>
<wgt id='2082'>0.68766E+03</wgt>
<wgt id='2083'>0.68687E+03</wgt>
<wgt id='2084'>0.68695E+03</wgt>
<wgt id='2085'>0.68709E+03</wgt>
<wgt id='2086'>0.68723E+03</wgt>
<wgt id='2087'>0.68682E+03</wgt>
<wgt id='2088'>0.68735E+03</wgt>
<wgt id='2089'>0.68720E+03</wgt>
<wgt id='2090'>0.68752E+03</wgt>
<wgt id='2091'>0.68690E+03</wgt>
<wgt id='2092'>0.68684E+03</wgt>
<wgt id='2093'>0.68745E+03</wgt>
<wgt id='2094'>0.68667E+03</wgt>
<wgt id='2095'>0.68715E+03</wgt>
<wgt id='2096'>0.68681E+03</wgt>
<wgt id='2097'>0.68773E+03</wgt>
<wgt id='2098'>0.68676E+03</wgt>
<wgt id='2099'>0.68751E+03</wgt>
<wgt id='2100'>0.68685E+03</wgt>
<wgt id='2101'>0.67070E+03</wgt>
<wgt id='2102'>0.70637E+03</wgt>
<wgt id='2104'>0.59704E+03</wgt>
<wgt id='2105'>0.61502E+03</wgt>
<wgt id='2106'>0.63546E+03</wgt>
<wgt id='2107'>0.64822E+03</wgt>
<wgt id='2108'>0.67654E+03</wgt>
<wgt id='2109'>0.69917E+03</wgt>
<wgt id='2110'>0.72507E+03</wgt>
<wgt id='2111'>0.75029E+03</wgt>
<wgt id='3000'>0.74159E+03</wgt>
<wgt id='3001'>0.74215E+03</wgt>
<wgt id='3002'>0.74110E+03</wgt>
<wgt id='3003'>0.74136E+03</wgt>
<wgt id='3004'>0.74420E+03</wgt>
<wgt id='3005'>0.74156E+03</wgt>
<wgt id='3006'>0.74138E+03</wgt>
<wgt id='3007'>0.74103E+03</wgt>
<wgt id='3008'>0.74023E+03</wgt>
<wgt id='3009'>0.73972E+03</wgt>
<wgt id='3010'>0.73953E+03</wgt>
<wgt id='3011'>0.74225E+03</wgt>
<wgt id='3012'>0.74308E+03</wgt>
<wgt id='3013'>0.74206E+03</wgt>
<wgt id='3014'>0.74104E+03</wgt>
<wgt id='3015'>0.74129E+03</wgt>
<wgt id='3016'>0.74240E+03</wgt>
<wgt id='3017'>0.74109E+03</wgt>
<wgt id='3018'>0.74261E+03</wgt>
<wgt id='3019'>0.74195E+03</wgt>
<wgt id='3020'>0.74207E+03</wgt>
<wgt id='3021'>0.74197E+03</wgt>
<wgt id='3022'>0.74080E+03</wgt>
<wgt id='3023'>0.74018E+03</wgt>
<wgt id='3024'>0.74063E+03</wgt>
<wgt id='3025'>0.74220E+03</wgt>
<wgt id='3026'>0.74183E+03</wgt>
<wgt id='3027'>0.74205E+03</wgt>
<wgt id='3028'>0.73967E+03</wgt>
<wgt id='3029'>0.74134E+03</wgt>
<wgt id='3030'>0.74492E+03</wgt>
<wgt id='3031'>0.74229E+03</wgt>
<wgt id='3032'>0.74075E+03</wgt>
<wgt id='3033'>0.74088E+03</wgt>
<wgt id='3034'>0.74186E+03</wgt>
<wgt id='3035'>0.73618E+03</wgt>
<wgt id='3036'>0.74109E+03</wgt>
<wgt id='3037'>0.74489E+03</wgt>
<wgt id='3038'>0.74120E+03</wgt>
<wgt id='3039'>0.73946E+03</wgt>
<wgt id='3040'>0.74500E+03</wgt>
<wgt id='3041'>0.74403E+03</wgt>
<wgt id='3042'>0.74120E+03</wgt>
<wgt id='3043'>0.74109E+03</wgt>
<wgt id='3044'>0.74081E+03</wgt>
<wgt id='3045'>0.74014E+03</wgt>
<wgt id='3046'>0.74624E+03</wgt>
<wgt id='3047'>0.74267E+03</wgt>
<wgt id='3048'>0.74058E+03</wgt>
<wgt id='3049'>0.74196E+03</wgt>
<wgt id='3050'>0.73764E+03</wgt>
<wgt id='3051'>0.74312E+03</wgt>
<wgt id='3052'>0.73953E+03</wgt>
<wgt id='3053'>0.74215E+03</wgt>
<wgt id='3054'>0.74298E+03</wgt>
<wgt id='3055'>0.74004E+03</wgt>
<wgt id='3056'>0.74077E+03</wgt>
<wgt id='3057'>0.74263E+03</wgt>
<wgt id='3058'>0.74029E+03</wgt>
<wgt id='3059'>0.74102E+03</wgt>
<wgt id='3060'>0.74328E+03</wgt>
<wgt id='3061'>0.74212E+03</wgt>
<wgt id='3062'>0.74245E+03</wgt>
<wgt id='3063'>0.74028E+03</wgt>
<wgt id='3064'>0.74220E+03</wgt>
<wgt id='3065'>0.74031E+03</wgt>
<wgt id='3066'>0.74194E+03</wgt>
<wgt id='3067'>0.74005E+03</wgt>
<wgt id='3068'>0.74163E+03</wgt>
<wgt id='3069'>0.74072E+03</wgt>
<wgt id='3070'>0.74100E+03</wgt>
<wgt id='3071'>0.74117E+03</wgt>
<wgt id='3072'>0.74229E+03</wgt>
<wgt id='3073'>0.74154E+03</wgt>
<wgt id='3074'>0.74330E+03</wgt>
<wgt id='3075'>0.74223E+03</wgt>
<wgt id='3076'>0.74221E+03</wgt>
<wgt id='3077'>0.74175E+03</wgt>
<wgt id='3078'>0.74225E+03</wgt>
<wgt id='3079'>0.74030E+03</wgt>
<wgt id='3080'>0.74079E+03</wgt>
<wgt id='3081'>0.74125E+03</wgt>
<wgt id='3082'>0.74068E+03</wgt>
<wgt id='3083'>0.74170E+03</wgt>
<wgt id='3084'>0.74150E+03</wgt>
<wgt id='3085'>0.74177E+03</wgt>
<wgt id='3086'>0.74163E+03</wgt>
<wgt id='3087'>0.74094E+03</wgt>
<wgt id='3088'>0.74106E+03</wgt>
<wgt id='3089'>0.74136E+03</wgt>
<wgt id='3090'>0.74099E+03</wgt>
<wgt id='3091'>0.74086E+03</wgt>
<wgt id='3092'>0.74172E+03</wgt>
<wgt id='3093'>0.74195E+03</wgt>
<wgt id='3094'>0.74169E+03</wgt>
<wgt id='3095'>0.74178E+03</wgt>
<wgt id='3096'>0.74130E+03</wgt>
<wgt id='3097'>0.74145E+03</wgt>
<wgt id='3098'>0.74169E+03</wgt>
<wgt id='3099'>0.74195E+03</wgt>
<wgt id='3100'>0.74181E+03</wgt>
<wgt id='3101'>0.72501E+03</wgt>
<wgt id='3102'>0.76269E+03</wgt>
<wgt id='5000'>0.74730E+03</wgt>
<wgt id='5001'>0.74879E+03</wgt>
<wgt id='5002'>0.75106E+03</wgt>
<wgt id='5003'>0.74627E+03</wgt>
<wgt id='5004'>0.75455E+03</wgt>
<wgt id='5005'>0.75710E+03</wgt>
<wgt id='5006'>0.75652E+03</wgt>
<wgt id='5007'>0.75199E+03</wgt>
<wgt id='5008'>0.75200E+03</wgt>
<wgt id='5009'>0.74587E+03</wgt>
<wgt id='5010'>0.74795E+03</wgt>
<wgt id='5011'>0.76062E+03</wgt>
<wgt id='5012'>0.73465E+03</wgt>
<wgt id='5013'>0.76940E+03</wgt>
<wgt id='5014'>0.72909E+03</wgt>
<wgt id='5015'>0.73522E+03</wgt>
<wgt id='5016'>0.78049E+03</wgt>
<wgt id='5017'>0.73943E+03</wgt>
<wgt id='5018'>0.75535E+03</wgt>
<wgt id='5019'>0.73793E+03</wgt>
<wgt id='5020'>0.75456E+03</wgt>
<wgt id='5021'>0.73961E+03</wgt>
<wgt id='5022'>0.75215E+03</wgt>
<wgt id='5023'>0.74117E+03</wgt>
<wgt id='5024'>0.75442E+03</wgt>
<wgt id='5025'>0.74991E+03</wgt>
<wgt id='5026'>0.74516E+03</wgt>
<wgt id='5027'>0.74110E+03</wgt>
<wgt id='5028'>0.75773E+03</wgt>
<wgt id='5029'>0.76672E+03</wgt>
<wgt id='5030'>0.73523E+03</wgt>
<wgt id='5031'>0.75421E+03</wgt>
<wgt id='5032'>0.73720E+03</wgt>
<wgt id='5033'>0.73967E+03</wgt>
<wgt id='5034'>0.75499E+03</wgt>
<wgt id='5035'>0.74409E+03</wgt>
<wgt id='5036'>0.74971E+03</wgt>
<wgt id='5037'>0.73302E+03</wgt>
<wgt id='5038'>0.76405E+03</wgt>
<wgt id='5039'>0.76123E+03</wgt>
<wgt id='5040'>0.74030E+03</wgt>
<wgt id='5041'>0.75527E+03</wgt>
<wgt id='5042'>0.74640E+03</wgt>
<wgt id='5043'>0.74545E+03</wgt>
<wgt id='5044'>0.76265E+03</wgt>
<wgt id='5045'>0.73434E+03</wgt>
<wgt id='5046'>0.75007E+03</wgt>
<wgt id='5047'>0.73152E+03</wgt>
<wgt id='5048'>0.74819E+03</wgt>
<wgt id='5049'>0.74654E+03</wgt>
<wgt id='5050'>0.74460E+03</wgt>
<wgt id='5051'>0.74680E+03</wgt>
<wgt id='5052'>0.74508E+03</wgt>
<wgt id='5053'>0.72293E+03</wgt>
<wgt id='5054'>0.74387E+03</wgt>
<wgt id='5055'>0.74417E+03</wgt>
<wgt id='5056'>0.75205E+03</wgt>
<wgt id='5060'>0.72322E+03</wgt>
<wgt id='5070'>0.77413E+03</wgt>
<wgt id='4000'>0.76869E+03</wgt>
<wgt id='4001'>0.76620E+03</wgt>
<wgt id='4002'>0.76809E+03</wgt>
<wgt id='4003'>0.76429E+03</wgt>
<wgt id='4004'>0.77348E+03</wgt>
<wgt id='4005'>0.76473E+03</wgt>
<wgt id='4006'>0.77030E+03</wgt>
<wgt id='4007'>0.76118E+03</wgt>
<wgt id='4008'>0.77084E+03</wgt>
<wgt id='4009'>0.78158E+03</wgt>
<wgt id='4010'>0.76700E+03</wgt>
<wgt id='4011'>0.77232E+03</wgt>
<wgt id='4012'>0.76497E+03</wgt>
<wgt id='4013'>0.78986E+03</wgt>
<wgt id='4014'>0.75760E+03</wgt>
<wgt id='4015'>0.78610E+03</wgt>
<wgt id='4016'>0.75757E+03</wgt>
<wgt id='4017'>0.75548E+03</wgt>
<wgt id='4018'>0.78455E+03</wgt>
<wgt id='4019'>0.75433E+03</wgt>
<wgt id='4020'>0.78366E+03</wgt>
<wgt id='4021'>0.76617E+03</wgt>
<wgt id='4022'>0.77388E+03</wgt>
<wgt id='4023'>0.78049E+03</wgt>
<wgt id='4024'>0.75686E+03</wgt>
<wgt id='4025'>0.77402E+03</wgt>
<wgt id='4026'>0.76348E+03</wgt>
<wgt id='4027'>0.77647E+03</wgt>
<wgt id='4028'>0.75781E+03</wgt>
<wgt id='4029'>0.77713E+03</wgt>
<wgt id='4030'>0.76574E+03</wgt>
<wgt id='4031'>0.76805E+03</wgt>
<wgt id='4032'>0.76955E+03</wgt>
<wgt id='4033'>0.77007E+03</wgt>
<wgt id='4034'>0.76574E+03</wgt>
<wgt id='4035'>0.74926E+03</wgt>
<wgt id='4036'>0.78652E+03</wgt>
<wgt id='4037'>0.75295E+03</wgt>
<wgt id='4038'>0.79218E+03</wgt>
<wgt id='4039'>0.75956E+03</wgt>
<wgt id='4040'>0.77763E+03</wgt>
<wgt id='4041'>0.76792E+03</wgt>
<wgt id='4042'>0.76679E+03</wgt>
<wgt id='4043'>0.75355E+03</wgt>
<wgt id='4044'>0.77555E+03</wgt>
<wgt id='4045'>0.79635E+03</wgt>
<wgt id='4046'>0.76252E+03</wgt>
<wgt id='4047'>0.76874E+03</wgt>
<wgt id='4048'>0.78427E+03</wgt>
<wgt id='4049'>0.78369E+03</wgt>
<wgt id='4050'>0.77523E+03</wgt>
<wgt id='4051'>0.77251E+03</wgt>
<wgt id='4052'>0.76907E+03</wgt>
<wgt id='4053'>0.73652E+03</wgt>
<wgt id='4054'>0.77468E+03</wgt>
<wgt id='4055'>0.76614E+03</wgt>
<wgt id='4056'>0.77167E+03</wgt>
<wgt id='4060'>0.74646E+03</wgt>
<wgt id='4070'>0.79424E+03</wgt>
<wgt id='4080'>0.93056E+03</wgt>
<wgt id='6000'>0.74601E+03</wgt>
<wgt id='6001'>0.74661E+03</wgt>
<wgt id='6002'>0.74530E+03</wgt>
<wgt id='6003'>0.74638E+03</wgt>
<wgt id='6004'>0.74576E+03</wgt>
<wgt id='6005'>0.74944E+03</wgt>
<wgt id='6006'>0.74281E+03</wgt>
<wgt id='6007'>0.74405E+03</wgt>
<wgt id='6008'>0.74812E+03</wgt>
<wgt id='6009'>0.74778E+03</wgt>
<wgt id='6010'>0.74423E+03</wgt>
<wgt id='6011'>0.74684E+03</wgt>
<wgt id='6012'>0.74415E+03</wgt>
<wgt id='6013'>0.74559E+03</wgt>
<wgt id='6014'>0.74670E+03</wgt>
<wgt id='6015'>0.74535E+03</wgt>
<wgt id='6016'>0.74636E+03</wgt>
<wgt id='6017'>0.74206E+03</wgt>
<wgt id='6018'>0.75064E+03</wgt>
<wgt id='6019'>0.74574E+03</wgt>
<wgt id='6020'>0.74620E+03</wgt>
<wgt id='6021'>0.74379E+03</wgt>
<wgt id='6022'>0.74887E+03</wgt>
<wgt id='6023'>0.74022E+03</wgt>
<wgt id='6024'>0.74982E+03</wgt>
<wgt id='6025'>0.75413E+03</wgt>
<wgt id='6026'>0.73700E+03</wgt>
<wgt id='6027'>0.74630E+03</wgt>
<wgt id='6028'>0.74604E+03</wgt>
<wgt id='6029'>0.73962E+03</wgt>
<wgt id='6030'>0.75379E+03</wgt>
<wgt id='6031'>0.73257E+03</wgt>
<wgt id='6032'>0.76155E+03</wgt>
<wgt id='6033'>0.75159E+03</wgt>
<wgt id='6034'>0.74059E+03</wgt>
<wgt id='6035'>0.74851E+03</wgt>
<wgt id='6036'>0.74055E+03</wgt>
<wgt id='6037'>0.74651E+03</wgt>
<wgt id='6038'>0.74561E+03</wgt>
<wgt id='6039'>0.74263E+03</wgt>
<wgt id='6040'>0.74986E+03</wgt>
<wgt id='6041'>0.73779E+03</wgt>
<wgt id='6042'>0.75547E+03</wgt>
<wgt id='6043'>0.75288E+03</wgt>
<wgt id='6044'>0.74405E+03</wgt>
<wgt id='6045'>0.74417E+03</wgt>
<wgt id='6046'>0.75060E+03</wgt>
<wgt id='6047'>0.74041E+03</wgt>
<wgt id='6048'>0.75673E+03</wgt>
<wgt id='6049'>0.74161E+03</wgt>
<wgt id='6050'>0.74846E+03</wgt>
<wgt id='7000'>0.71940E+03</wgt>
<wgt id='7001'>0.71944E+03</wgt>
<wgt id='7002'>0.71941E+03</wgt>
<wgt id='7003'>0.72202E+03</wgt>
<wgt id='7004'>0.71685E+03</wgt>
<wgt id='7005'>0.72093E+03</wgt>
<wgt id='7006'>0.71885E+03</wgt>
<wgt id='7007'>0.71900E+03</wgt>
<wgt id='7008'>0.71987E+03</wgt>
<wgt id='7009'>0.72053E+03</wgt>
<wgt id='7010'>0.71835E+03</wgt>
<wgt id='7011'>0.71575E+03</wgt>
<wgt id='7012'>0.72101E+03</wgt>
<wgt id='7013'>0.71914E+03</wgt>
<wgt id='7014'>0.71978E+03</wgt>
<wgt id='7015'>0.71875E+03</wgt>
<wgt id='7016'>0.72017E+03</wgt>
<wgt id='7017'>0.71481E+03</wgt>
<wgt id='7018'>0.72198E+03</wgt>
<wgt id='7019'>0.71923E+03</wgt>
<wgt id='7020'>0.71968E+03</wgt>
<wgt id='7021'>0.71963E+03</wgt>
<wgt id='7022'>0.71929E+03</wgt>
<wgt id='7023'>0.72182E+03</wgt>
<wgt id='7024'>0.71697E+03</wgt>
<wgt id='7025'>0.72060E+03</wgt>
<wgt id='7026'>0.71637E+03</wgt>
<wgt id='7027'>0.71874E+03</wgt>
<wgt id='7028'>0.71989E+03</wgt>
<wgt id='7029'>0.72585E+03</wgt>
<wgt id='7030'>0.70332E+03</wgt>
<wgt id='7031'>0.71337E+03</wgt>
<wgt id='7032'>0.73239E+03</wgt>
<wgt id='7033'>0.72189E+03</wgt>
<wgt id='7034'>0.71504E+03</wgt>
<wgt id='7035'>0.71045E+03</wgt>
<wgt id='7036'>0.72379E+03</wgt>
<wgt id='7037'>0.71911E+03</wgt>
<wgt id='7038'>0.72043E+03</wgt>
<wgt id='7039'>0.71488E+03</wgt>
<wgt id='7040'>0.72288E+03</wgt>
<wgt id='7041'>0.72718E+03</wgt>
<wgt id='7042'>0.70808E+03</wgt>
<wgt id='7043'>0.72029E+03</wgt>
<wgt id='7044'>0.71471E+03</wgt>
<wgt id='7045'>0.72008E+03</wgt>
<wgt id='7046'>0.71878E+03</wgt>
<wgt id='7047'>0.71972E+03</wgt>
<wgt id='7048'>0.71928E+03</wgt>
<wgt id='7049'>0.72505E+03</wgt>
<wgt id='7050'>0.71534E+03</wgt>
<wgt id='7060'>0.10845E+04</wgt>
<wgt id='8000'>0.68693E+03</wgt>
<wgt id='8001'>0.68684E+03</wgt>
<wgt id='8002'>0.68713E+03</wgt>
<wgt id='8003'>0.68692E+03</wgt>
<wgt id='8004'>0.68691E+03</wgt>
<wgt id='8005'>0.68556E+03</wgt>
<wgt id='8006'>0.68770E+03</wgt>
<wgt id='8007'>0.68815E+03</wgt>
<wgt id='8008'>0.68829E+03</wgt>
<wgt id='8009'>0.68970E+03</wgt>
<wgt id='8010'>0.68620E+03</wgt>
<wgt id='8011'>0.68726E+03</wgt>
<wgt id='8012'>0.68474E+03</wgt>
<wgt id='8013'>0.68560E+03</wgt>
<wgt id='8014'>0.68856E+03</wgt>
<wgt id='8015'>0.68642E+03</wgt>
<wgt id='8016'>0.68816E+03</wgt>
<wgt id='8017'>0.68825E+03</wgt>
<wgt id='8018'>0.68983E+03</wgt>
<wgt id='8019'>0.68458E+03</wgt>
<wgt id='8020'>0.69097E+03</wgt>
<wgt id='8021'>0.68521E+03</wgt>
<wgt id='8022'>0.69424E+03</wgt>
<wgt id='8023'>0.68348E+03</wgt>
<wgt id='8024'>0.68062E+03</wgt>
<wgt id='8025'>0.68154E+03</wgt>
<wgt id='8026'>0.68641E+03</wgt>
<wgt id='8027'>0.68861E+03</wgt>
<wgt id='8028'>0.68698E+03</wgt>
<wgt id='8029'>0.70781E+03</wgt>
<wgt id='8500'>0.75545E+03</wgt>
<wgt id='8501'>0.74617E+03</wgt>
<wgt id='8502'>0.75462E+03</wgt>
<wgt id='8503'>0.75809E+03</wgt>
<wgt id='8504'>0.75235E+03</wgt>
<wgt id='8505'>0.75707E+03</wgt>
<wgt id='8506'>0.75304E+03</wgt>
<wgt id='8507'>0.75496E+03</wgt>
<wgt id='8508'>0.75113E+03</wgt>
<wgt id='8509'>0.75586E+03</wgt>
<wgt id='8510'>0.74889E+03</wgt>
<wgt id='8511'>0.75048E+03</wgt>
<wgt id='8512'>0.76391E+03</wgt>
<wgt id='8513'>0.76015E+03</wgt>
<wgt id='8514'>0.76136E+03</wgt>
<wgt id='8515'>0.75804E+03</wgt>
<wgt id='8516'>0.75347E+03</wgt>
<wgt id='8517'>0.76294E+03</wgt>
<wgt id='8518'>0.75281E+03</wgt>
<wgt id='8519'>0.75218E+03</wgt>
<wgt id='8520'>0.74288E+03</wgt>
<wgt id='8521'>0.74694E+03</wgt>
<wgt id='8522'>0.76642E+03</wgt>
<wgt id='8523'>0.74833E+03</wgt>
<wgt id='8524'>0.75496E+03</wgt>
<wgt id='8525'>0.75764E+03</wgt>
<wgt id='8526'>0.75630E+03</wgt>
<wgt id='8527'>0.75561E+03</wgt>
<wgt id='8528'>0.75403E+03</wgt>
<wgt id='8529'>0.75236E+03</wgt>
<wgt id='8530'>0.75631E+03</wgt>
<wgt id='8531'>0.75590E+03</wgt>
<wgt id='8532'>0.75518E+03</wgt>
<wgt id='8533'>0.75331E+03</wgt>
<wgt id='8534'>0.75590E+03</wgt>
<wgt id='8535'>0.75787E+03</wgt>
<wgt id='8536'>0.75440E+03</wgt>
<wgt id='8537'>0.75552E+03</wgt>
<wgt id='8538'>0.75492E+03</wgt>
<wgt id='8539'>0.75566E+03</wgt>
<wgt id='8540'>0.75635E+03</wgt>
<wgt id='8541'>0.75581E+03</wgt>
<wgt id='8542'>0.75498E+03</wgt>
<wgt id='8543'>0.75465E+03</wgt>
<wgt id='8544'>0.75661E+03</wgt>
<wgt id='8545'>0.75595E+03</wgt>
<wgt id='8546'>0.75679E+03</wgt>
<wgt id='8547'>0.75459E+03</wgt>
<wgt id='8548'>0.75451E+03</wgt>
<wgt id='8549'>0.75632E+03</wgt>
<wgt id='8550'>0.75470E+03</wgt>
<wgt id='8551'>0.75567E+03</wgt>
<wgt id='8552'>0.75497E+03</wgt>
<wgt id='8553'>0.75422E+03</wgt>
<wgt id='8554'>0.75533E+03</wgt>
<wgt id='8555'>0.75535E+03</wgt>
<wgt id='8556'>0.75503E+03</wgt>
<wgt id='8557'>0.75576E+03</wgt>
<wgt id='8558'>0.75597E+03</wgt>
<wgt id='8559'>0.75539E+03</wgt>
<wgt id='8560'>0.75477E+03</wgt>
<wgt id='8561'>0.75610E+03</wgt>
<wgt id='8562'>0.75528E+03</wgt>
<wgt id='8563'>0.75545E+03</wgt>
<wgt id='8564'>0.75525E+03</wgt>
<wgt id='8565'>0.75584E+03</wgt>
<wgt id='8566'>0.75615E+03</wgt>
<wgt id='8567'>0.75575E+03</wgt>
<wgt id='8568'>0.75595E+03</wgt>
<wgt id='8569'>0.75576E+03</wgt>
<wgt id='8570'>0.75522E+03</wgt>
<wgt id='8571'>0.75456E+03</wgt>
<wgt id='8572'>0.75504E+03</wgt>
<wgt id='8573'>0.75474E+03</wgt>
<wgt id='8574'>0.75536E+03</wgt>
<wgt id='8575'>0.75514E+03</wgt>
<wgt id='8576'>0.75549E+03</wgt>
<wgt id='8577'>0.75482E+03</wgt>
<wgt id='8578'>0.75569E+03</wgt>
<wgt id='8579'>0.75617E+03</wgt>
<wgt id='8580'>0.75494E+03</wgt>
<wgt id='8581'>0.75582E+03</wgt>
<wgt id='8582'>0.75499E+03</wgt>
<wgt id='8583'>0.75584E+03</wgt>
<wgt id='8584'>0.75617E+03</wgt>
<wgt id='8585'>0.75580E+03</wgt>
<wgt id='8586'>0.75653E+03</wgt>
<wgt id='8587'>0.75564E+03</wgt>
<wgt id='8588'>0.75541E+03</wgt>
<wgt id='8589'>0.75546E+03</wgt>
<wgt id='8590'>0.75536E+03</wgt>
<wgt id='8591'>0.75497E+03</wgt>
<wgt id='8592'>0.75530E+03</wgt>
<wgt id='8593'>0.75509E+03</wgt>
<wgt id='8594'>0.75536E+03</wgt>
<wgt id='8595'>0.75539E+03</wgt>
<wgt id='8596'>0.75521E+03</wgt>
<wgt id='8597'>0.75576E+03</wgt>
<wgt id='8598'>0.75574E+03</wgt>
<wgt id='8599'>0.75562E+03</wgt>
<wgt id='8600'>0.75544E+03</wgt>
<wgt id='8601'>0.74051E+03</wgt>
<wgt id='8602'>0.77259E+03</wgt>
<wgt id='9000'>0.72588E+03</wgt>
<wgt id='9001'>0.72984E+03</wgt>
<wgt id='9002'>0.72307E+03</wgt>
<wgt id='9003'>0.73041E+03</wgt>
<wgt id='9004'>0.73066E+03</wgt>
<wgt id='9005'>0.73092E+03</wgt>
<wgt id='9006'>0.72983E+03</wgt>
<wgt id='9007'>0.72445E+03</wgt>
<wgt id='9008'>0.72424E+03</wgt>
<wgt id='9009'>0.72935E+03</wgt>
<wgt id='9010'>0.72950E+03</wgt>
<wgt id='9011'>0.72453E+03</wgt>
<wgt id='9012'>0.72848E+03</wgt>
<wgt id='9013'>0.73915E+03</wgt>
<wgt id='9014'>0.72601E+03</wgt>
<wgt id='9015'>0.71530E+03</wgt>
<wgt id='9016'>0.71903E+03</wgt>
<wgt id='9017'>0.72653E+03</wgt>
<wgt id='9018'>0.73250E+03</wgt>
<wgt id='9019'>0.73133E+03</wgt>
<wgt id='9020'>0.72846E+03</wgt>
<wgt id='9021'>0.71040E+03</wgt>
<wgt id='9022'>0.72759E+03</wgt>
<wgt id='9023'>0.71602E+03</wgt>
<wgt id='9024'>0.72168E+03</wgt>
<wgt id='9025'>0.72700E+03</wgt>
<wgt id='9026'>0.72360E+03</wgt>
<wgt id='9027'>0.72543E+03</wgt>
<wgt id='9028'>0.72673E+03</wgt>
<wgt id='9029'>0.72814E+03</wgt>
<wgt id='9030'>0.72566E+03</wgt>
<wgt id='9031'>0.72369E+03</wgt>
<wgt id='9032'>0.72635E+03</wgt>
<wgt id='9033'>0.72668E+03</wgt>
<wgt id='9034'>0.72781E+03</wgt>
<wgt id='9035'>0.72758E+03</wgt>
<wgt id='9036'>0.72668E+03</wgt>
<wgt id='9037'>0.72631E+03</wgt>
<wgt id='9038'>0.72667E+03</wgt>
<wgt id='9039'>0.72531E+03</wgt>
<wgt id='9040'>0.72501E+03</wgt>
<wgt id='9041'>0.72591E+03</wgt>
<wgt id='9042'>0.72623E+03</wgt>
<wgt id='9043'>0.72430E+03</wgt>
<wgt id='9044'>0.72628E+03</wgt>
<wgt id='9045'>0.72584E+03</wgt>
<wgt id='9046'>0.72470E+03</wgt>
<wgt id='9047'>0.72640E+03</wgt>
<wgt id='9048'>0.72644E+03</wgt>
<wgt id='9049'>0.72531E+03</wgt>
<wgt id='9050'>0.72571E+03</wgt>
<wgt id='9051'>0.72660E+03</wgt>
<wgt id='9052'>0.72690E+03</wgt>
<wgt id='9053'>0.72612E+03</wgt>
<wgt id='9054'>0.72522E+03</wgt>
<wgt id='9055'>0.72517E+03</wgt>
<wgt id='9056'>0.72608E+03</wgt>
<wgt id='9057'>0.72563E+03</wgt>
<wgt id='9058'>0.72505E+03</wgt>
<wgt id='9059'>0.72546E+03</wgt>
<wgt id='9060'>0.72577E+03</wgt>
<wgt id='9061'>0.72561E+03</wgt>
<wgt id='9062'>0.72613E+03</wgt>
<wgt id='9063'>0.72599E+03</wgt>
<wgt id='9064'>0.72651E+03</wgt>
<wgt id='9065'>0.72545E+03</wgt>
<wgt id='9066'>0.72540E+03</wgt>
<wgt id='9067'>0.72588E+03</wgt>
<wgt id='9068'>0.72597E+03</wgt>
<wgt id='9069'>0.72672E+03</wgt>
<wgt id='9070'>0.72582E+03</wgt>
<wgt id='9071'>0.72624E+03</wgt>
<wgt id='9072'>0.72629E+03</wgt>
<wgt id='9073'>0.72571E+03</wgt>
<wgt id='9074'>0.72610E+03</wgt>
<wgt id='9075'>0.72557E+03</wgt>
<wgt id='9076'>0.72595E+03</wgt>
<wgt id='9077'>0.72616E+03</wgt>
<wgt id='9078'>0.72624E+03</wgt>
<wgt id='9079'>0.72549E+03</wgt>
<wgt id='9080'>0.72658E+03</wgt>
<wgt id='9081'>0.72601E+03</wgt>
<wgt id='9082'>0.72596E+03</wgt>
<wgt id='9083'>0.72570E+03</wgt>
<wgt id='9084'>0.72537E+03</wgt>
<wgt id='9085'>0.72535E+03</wgt>
<wgt id='9086'>0.72615E+03</wgt>
<wgt id='9087'>0.72483E+03</wgt>
<wgt id='9088'>0.72543E+03</wgt>
<wgt id='9089'>0.72552E+03</wgt>
<wgt id='9090'>0.72604E+03</wgt>
<wgt id='9091'>0.72567E+03</wgt>
<wgt id='9092'>0.72572E+03</wgt>
<wgt id='9093'>0.72564E+03</wgt>
<wgt id='9094'>0.72562E+03</wgt>
<wgt id='9095'>0.72592E+03</wgt>
<wgt id='9096'>0.72565E+03</wgt>
<wgt id='9097'>0.72600E+03</wgt>
<wgt id='9098'>0.72579E+03</wgt>
<wgt id='9099'>0.72566E+03</wgt>
<wgt id='9100'>0.72585E+03</wgt>
<wgt id='9101'>0.70906E+03</wgt>
<wgt id='9102'>0.74367E+03</wgt>
<wgt id='10000'>0.75539E+03</wgt>
<wgt id='10001'>0.75090E+03</wgt>
<wgt id='10002'>0.74847E+03</wgt>
<wgt id='10003'>0.75425E+03</wgt>
<wgt id='10004'>0.75613E+03</wgt>
<wgt id='10005'>0.74690E+03</wgt>
<wgt id='10006'>0.74570E+03</wgt>
<wgt id='10007'>0.75440E+03</wgt>
<wgt id='10008'>0.75050E+03</wgt>
<wgt id='10009'>0.75110E+03</wgt>
<wgt id='10010'>0.75300E+03</wgt>
<wgt id='10011'>0.74882E+03</wgt>
<wgt id='10012'>0.74972E+03</wgt>
<wgt id='10013'>0.75635E+03</wgt>
<wgt id='10014'>0.75653E+03</wgt>
<wgt id='10015'>0.75910E+03</wgt>
<wgt id='10016'>0.75676E+03</wgt>
<wgt id='10017'>0.75604E+03</wgt>
<wgt id='10018'>0.75792E+03</wgt>
<wgt id='10019'>0.73542E+03</wgt>
<wgt id='10020'>0.75590E+03</wgt>
<wgt id='10021'>0.75479E+03</wgt>
<wgt id='10022'>0.76279E+03</wgt>
<wgt id='10023'>0.75580E+03</wgt>
<wgt id='10024'>0.75501E+03</wgt>
<wgt id='10025'>0.75501E+03</wgt>
<wgt id='10026'>0.75536E+03</wgt>
<wgt id='10027'>0.75516E+03</wgt>
<wgt id='10028'>0.75586E+03</wgt>
<wgt id='10029'>0.75630E+03</wgt>
<wgt id='10030'>0.75515E+03</wgt>
<wgt id='10031'>0.74051E+03</wgt>
<wgt id='10032'>0.77259E+03</wgt>
<wgt id='11000'>0.72581E+03</wgt>
<wgt id='11001'>0.71967E+03</wgt>
<wgt id='11002'>0.71973E+03</wgt>
<wgt id='11003'>0.72677E+03</wgt>
<wgt id='11004'>0.71389E+03</wgt>
<wgt id='11005'>0.73938E+03</wgt>
<wgt id='11006'>0.72641E+03</wgt>
<wgt id='11007'>0.72835E+03</wgt>
<wgt id='11008'>0.72663E+03</wgt>
<wgt id='11009'>0.72767E+03</wgt>
<wgt id='11010'>0.72438E+03</wgt>
<wgt id='11011'>0.72456E+03</wgt>
<wgt id='11012'>0.72316E+03</wgt>
<wgt id='11013'>0.72605E+03</wgt>
<wgt id='11014'>0.72436E+03</wgt>
<wgt id='11015'>0.71951E+03</wgt>
<wgt id='11016'>0.72857E+03</wgt>
<wgt id='11017'>0.72860E+03</wgt>
<wgt id='11018'>0.72645E+03</wgt>
<wgt id='11019'>0.72898E+03</wgt>
<wgt id='11020'>0.72655E+03</wgt>
<wgt id='11021'>0.72882E+03</wgt>
<wgt id='11022'>0.72222E+03</wgt>
<wgt id='11023'>0.72631E+03</wgt>
<wgt id='11024'>0.72022E+03</wgt>
<wgt id='11025'>0.72266E+03</wgt>
<wgt id='11026'>0.72584E+03</wgt>
<wgt id='11027'>0.73052E+03</wgt>
<wgt id='11028'>0.72456E+03</wgt>
<wgt id='11029'>0.70689E+03</wgt>
<wgt id='11030'>0.72589E+03</wgt>
<wgt id='11031'>0.70906E+03</wgt>
<wgt id='11032'>0.74367E+03</wgt>
<wgt id='12000'>0.59088E+03</wgt>
<wgt id='12001'>0.59022E+03</wgt>
<wgt id='12002'>0.59155E+03</wgt>
<wgt id='12003'>0.59141E+03</wgt>
<wgt id='12004'>0.59035E+03</wgt>
<wgt id='12005'>0.59092E+03</wgt>
<wgt id='12006'>0.59085E+03</wgt>
<wgt id='12007'>0.59307E+03</wgt>
<wgt id='12008'>0.58874E+03</wgt>
<wgt id='12009'>0.59004E+03</wgt>
<wgt id='12010'>0.59178E+03</wgt>
<wgt id='12011'>0.58773E+03</wgt>
<wgt id='12012'>0.59428E+03</wgt>
<wgt id='12013'>0.59089E+03</wgt>
<wgt id='12014'>0.59090E+03</wgt>
<wgt id='12015'>0.59468E+03</wgt>
<wgt id='12016'>0.58688E+03</wgt>
<wgt id='12017'>0.59263E+03</wgt>
<wgt id='12018'>0.58948E+03</wgt>
<wgt id='12019'>0.59781E+03</wgt>
<wgt id='12020'>0.58414E+03</wgt>
<wgt id='12021'>0.59159E+03</wgt>
<wgt id='12022'>0.59019E+03</wgt>
<wgt id='12023'>0.58393E+03</wgt>
<wgt id='12024'>0.59825E+03</wgt>
<wgt id='12025'>0.58353E+03</wgt>
<wgt id='12026'>0.59836E+03</wgt>
<wgt id='12027'>0.60168E+03</wgt>
<wgt id='12028'>0.58169E+03</wgt>
<wgt id='12050'>0.59088E+03</wgt>
<wgt id='12051'>0.59385E+03</wgt>
<wgt id='12052'>0.58577E+03</wgt>
<wgt id='12053'>0.59395E+03</wgt>
<wgt id='12054'>0.58737E+03</wgt>
<wgt id='12055'>0.58048E+03</wgt>
<wgt id='12056'>0.61151E+03</wgt>
<wgt id='12057'>0.59170E+03</wgt>
<wgt id='12058'>0.59016E+03</wgt>
<wgt id='12059'>0.59572E+03</wgt>
<wgt id='12060'>0.58585E+03</wgt>
<wgt id='12061'>0.58697E+03</wgt>
<wgt id='12062'>0.58993E+03</wgt>
<wgt id='12063'>0.60355E+03</wgt>
<wgt id='13000'>0.67889E+03</wgt>
<wgt id='13001'>0.67690E+03</wgt>
<wgt id='13002'>0.67817E+03</wgt>
<wgt id='13003'>0.67771E+03</wgt>
<wgt id='13004'>0.67736E+03</wgt>
<wgt id='13005'>0.67802E+03</wgt>
<wgt id='13006'>0.67705E+03</wgt>
<wgt id='13007'>0.68095E+03</wgt>
<wgt id='13008'>0.67420E+03</wgt>
<wgt id='13009'>0.67469E+03</wgt>
<wgt id='13010'>0.68047E+03</wgt>
<wgt id='13011'>0.67974E+03</wgt>
<wgt id='13012'>0.67540E+03</wgt>
<wgt id='13013'>0.67742E+03</wgt>
<wgt id='13014'>0.67762E+03</wgt>
<wgt id='13015'>0.67969E+03</wgt>
<wgt id='13016'>0.67455E+03</wgt>
<wgt id='13017'>0.67560E+03</wgt>
<wgt id='13018'>0.67955E+03</wgt>
<wgt id='13019'>0.68243E+03</wgt>
<wgt id='13020'>0.67282E+03</wgt>
<wgt id='13021'>0.69029E+03</wgt>
<wgt id='13022'>0.66541E+03</wgt>
<wgt id='13023'>0.66593E+03</wgt>
<wgt id='13024'>0.68922E+03</wgt>
<wgt id='13025'>0.66301E+03</wgt>
<wgt id='13026'>0.69147E+03</wgt>
<wgt id='13027'>0.67110E+03</wgt>
<wgt id='13028'>0.68475E+03</wgt>
<wgt id='13050'>0.67889E+03</wgt>
<wgt id='13051'>0.68001E+03</wgt>
<wgt id='13052'>0.67007E+03</wgt>
<wgt id='13053'>0.68019E+03</wgt>
<wgt id='13054'>0.67639E+03</wgt>
<wgt id='13055'>0.64411E+03</wgt>
<wgt id='13056'>0.69665E+03</wgt>
<wgt id='13057'>0.67824E+03</wgt>
<wgt id='13058'>0.67787E+03</wgt>
<wgt id='13059'>0.68570E+03</wgt>
<wgt id='13060'>0.63876E+03</wgt>
<wgt id='13061'>0.68282E+03</wgt>
<wgt id='13062'>0.67203E+03</wgt>
<wgt id='13063'>0.69694E+03</wgt>
<wgt id='14000'>0.76565E+03</wgt>
<wgt id='14001'>0.76556E+03</wgt>
<wgt id='14002'>0.76549E+03</wgt>
<wgt id='14003'>0.76540E+03</wgt>
<wgt id='14004'>0.76532E+03</wgt>
<wgt id='14005'>0.76523E+03</wgt>
<wgt id='14006'>0.76515E+03</wgt>
<wgt id='14007'>0.76507E+03</wgt>
<wgt id='14008'>0.76498E+03</wgt>
<wgt id='14009'>0.76489E+03</wgt>
<wgt id='14010'>0.76482E+03</wgt>
<wgt id='14011'>0.76473E+03</wgt>
<wgt id='14012'>0.76465E+03</wgt>
<wgt id='14013'>0.76456E+03</wgt>
<wgt id='14014'>0.76448E+03</wgt>
<wgt id='14015'>0.76440E+03</wgt>
<wgt id='14016'>0.76431E+03</wgt>
<wgt id='14017'>0.76423E+03</wgt>
<wgt id='14018'>0.76415E+03</wgt>
<wgt id='14019'>0.76406E+03</wgt>
<wgt id='14020'>0.76398E+03</wgt>
<wgt id='14021'>0.76389E+03</wgt>
<wgt id='14022'>0.76381E+03</wgt>
<wgt id='14023'>0.76373E+03</wgt>
<wgt id='14024'>0.76364E+03</wgt>
<wgt id='14025'>0.76356E+03</wgt>
<wgt id='14026'>0.76348E+03</wgt>
<wgt id='14027'>0.76339E+03</wgt>
<wgt id='14028'>0.76331E+03</wgt>
<wgt id='14029'>0.76322E+03</wgt>
<wgt id='14030'>0.76314E+03</wgt>
<wgt id='15000'>0.71720E+03</wgt>
<wgt id='15001'>0.72121E+03</wgt>
<wgt id='15002'>0.71444E+03</wgt>
<wgt id='15003'>0.72170E+03</wgt>
<wgt id='15004'>0.72197E+03</wgt>
<wgt id='15005'>0.72220E+03</wgt>
<wgt id='15006'>0.72106E+03</wgt>
<wgt id='15007'>0.71572E+03</wgt>
<wgt id='15008'>0.71557E+03</wgt>
<wgt id='15009'>0.72064E+03</wgt>
<wgt id='15010'>0.72081E+03</wgt>
<wgt id='15011'>0.71579E+03</wgt>
<wgt id='15012'>0.71973E+03</wgt>
<wgt id='15013'>0.73029E+03</wgt>
<wgt id='15014'>0.71732E+03</wgt>
<wgt id='15015'>0.70684E+03</wgt>
<wgt id='15016'>0.71035E+03</wgt>
<wgt id='15017'>0.71789E+03</wgt>
<wgt id='15018'>0.72379E+03</wgt>
<wgt id='15019'>0.72256E+03</wgt>
<wgt id='15020'>0.71971E+03</wgt>
<wgt id='15021'>0.70190E+03</wgt>
<wgt id='15022'>0.71894E+03</wgt>
<wgt id='15023'>0.70739E+03</wgt>
<wgt id='15024'>0.71307E+03</wgt>
<wgt id='15025'>0.71840E+03</wgt>
<wgt id='15026'>0.71501E+03</wgt>
<wgt id='15027'>0.71669E+03</wgt>
<wgt id='15028'>0.71802E+03</wgt>
<wgt id='15029'>0.71949E+03</wgt>
<wgt id='15030'>0.71701E+03</wgt>
<wgt id='15031'>0.71496E+03</wgt>
<wgt id='15032'>0.71771E+03</wgt>
<wgt id='15033'>0.71802E+03</wgt>
<wgt id='15034'>0.71911E+03</wgt>
<wgt id='15035'>0.71892E+03</wgt>
<wgt id='15036'>0.71799E+03</wgt>
<wgt id='15037'>0.71764E+03</wgt>
<wgt id='15038'>0.71800E+03</wgt>
<wgt id='15039'>0.71667E+03</wgt>
<wgt id='15040'>0.71635E+03</wgt>
<wgt id='15041'>0.71724E+03</wgt>
<wgt id='15042'>0.71755E+03</wgt>
<wgt id='15043'>0.71560E+03</wgt>
<wgt id='15044'>0.71762E+03</wgt>
<wgt id='15045'>0.71717E+03</wgt>
<wgt id='15046'>0.71602E+03</wgt>
<wgt id='15047'>0.71773E+03</wgt>
<wgt id='15048'>0.71774E+03</wgt>
<wgt id='15049'>0.71665E+03</wgt>
<wgt id='15050'>0.71703E+03</wgt>
<wgt id='15051'>0.71793E+03</wgt>
<wgt id='15052'>0.71821E+03</wgt>
<wgt id='15053'>0.71745E+03</wgt>
<wgt id='15054'>0.71655E+03</wgt>
<wgt id='15055'>0.71650E+03</wgt>
<wgt id='15056'>0.71742E+03</wgt>
<wgt id='15057'>0.71696E+03</wgt>
<wgt id='15058'>0.71636E+03</wgt>
<wgt id='15059'>0.71678E+03</wgt>
<wgt id='15060'>0.71709E+03</wgt>
<wgt id='15061'>0.71694E+03</wgt>
<wgt id='15062'>0.71746E+03</wgt>
<wgt id='15063'>0.71733E+03</wgt>
<wgt id='15064'>0.71781E+03</wgt>
<wgt id='15065'>0.71678E+03</wgt>
<wgt id='15066'>0.71674E+03</wgt>
<wgt id='15067'>0.71721E+03</wgt>
<wgt id='15068'>0.71729E+03</wgt>
<wgt id='15069'>0.71805E+03</wgt>
<wgt id='15070'>0.71715E+03</wgt>
<wgt id='15071'>0.71756E+03</wgt>
<wgt id='15072'>0.71762E+03</wgt>
<wgt id='15073'>0.71704E+03</wgt>
<wgt id='15074'>0.71743E+03</wgt>
<wgt id='15075'>0.71690E+03</wgt>
<wgt id='15076'>0.71727E+03</wgt>
<wgt id='15077'>0.71749E+03</wgt>
<wgt id='15078'>0.71756E+03</wgt>
<wgt id='15079'>0.71682E+03</wgt>
<wgt id='15080'>0.71791E+03</wgt>
<wgt id='15081'>0.71732E+03</wgt>
<wgt id='15082'>0.71729E+03</wgt>
<wgt id='15083'>0.71702E+03</wgt>
<wgt id='15084'>0.71671E+03</wgt>
<wgt id='15085'>0.71668E+03</wgt>
<wgt id='15086'>0.71745E+03</wgt>
<wgt id='15087'>0.71617E+03</wgt>
<wgt id='15088'>0.71676E+03</wgt>
<wgt id='15089'>0.71685E+03</wgt>
<wgt id='15090'>0.71738E+03</wgt>
<wgt id='15091'>0.71701E+03</wgt>
<wgt id='15092'>0.71706E+03</wgt>
<wgt id='15093'>0.71697E+03</wgt>
<wgt id='15094'>0.71696E+03</wgt>
<wgt id='15095'>0.71725E+03</wgt>
<wgt id='15096'>0.71698E+03</wgt>
<wgt id='15097'>0.71733E+03</wgt>
<wgt id='15098'>0.71712E+03</wgt>
<wgt id='15099'>0.71698E+03</wgt>
<wgt id='15100'>0.71717E+03</wgt>
<wgt id='15101'>0.71719E+03</wgt>
<wgt id='15102'>0.71715E+03</wgt>
<wgt id='15103'>0.71721E+03</wgt>
<wgt id='15104'>0.71721E+03</wgt>
<wgt id='15105'>0.71723E+03</wgt>
<wgt id='15106'>0.71721E+03</wgt>
<wgt id='15107'>0.71717E+03</wgt>
<wgt id='1500'>0.75140E+03</wgt>
<wgt id='1501'>0.71982E+03</wgt>
<wgt id='1502'>0.77028E+03</wgt>
<wgt id='1503'>0.74035E+03</wgt>
<wgt id='1504'>0.71591E+03</wgt>
<wgt id='1505'>0.72018E+03</wgt>
<wgt id='1506'>0.74970E+03</wgt>
<wgt id='1507'>0.75744E+03</wgt>
<wgt id='1508'>0.76505E+03</wgt>
<wgt id='1509'>0.73251E+03</wgt>
<wgt id='1510'>0.75905E+03</wgt>
<wgt id='1511'>0.77885E+03</wgt>
<wgt id='1512'>0.75382E+03</wgt>
<wgt id='1513'>0.78468E+03</wgt>
<wgt id='1514'>0.79627E+03</wgt>
<wgt id='1515'>0.77737E+03</wgt>
<wgt id='1516'>0.75657E+03</wgt>
<wgt id='1517'>0.79563E+03</wgt>
<wgt id='1518'>0.76383E+03</wgt>
<wgt id='1519'>0.73631E+03</wgt>
<wgt id='1520'>0.73023E+03</wgt>
<wgt id='1521'>0.74181E+03</wgt>
<wgt id='1522'>0.73701E+03</wgt>
<wgt id='1523'>0.75176E+03</wgt>
<wgt id='1524'>0.70143E+03</wgt>
<wgt id='1525'>0.75414E+03</wgt>
<wgt id='1526'>0.71275E+03</wgt>
<wgt id='1527'>0.80680E+03</wgt>
<wgt id='1528'>0.76617E+03</wgt>
<wgt id='1529'>0.75272E+03</wgt>
<wgt id='1530'>0.72516E+03</wgt>
<wgt id='1531'>0.73296E+03</wgt>
<wgt id='1532'>0.75291E+03</wgt>
<wgt id='1533'>0.75032E+03</wgt>
<wgt id='1534'>0.70219E+03</wgt>
<wgt id='1535'>0.79537E+03</wgt>
<wgt id='1536'>0.75454E+03</wgt>
<wgt id='1537'>0.78144E+03</wgt>
<wgt id='1538'>0.75449E+03</wgt>
<wgt id='1539'>0.72924E+03</wgt>
<wgt id='1540'>0.73894E+03</wgt>
<wgt id='1541'>0.73527E+03</wgt>
<wgt id='1542'>0.73741E+03</wgt>
<wgt id='1543'>0.71783E+03</wgt>
<wgt id='1544'>0.72258E+03</wgt>
<wgt id='1545'>0.75452E+03</wgt>
<wgt id='1546'>0.72042E+03</wgt>
<wgt id='1547'>0.75946E+03</wgt>
<wgt id='1548'>0.75231E+03</wgt>
<wgt id='1549'>0.77849E+03</wgt>
<wgt id='1550'>0.75727E+03</wgt>
<wgt id='1551'>0.73761E+03</wgt>
<wgt id='1552'>0.74890E+03</wgt>
<wgt id='1553'>0.69978E+03</wgt>
<wgt id='1554'>0.76342E+03</wgt>
<wgt id='1555'>0.74985E+03</wgt>
<wgt id='1556'>0.77094E+03</wgt>
<wgt id='1557'>0.76441E+03</wgt>
<wgt id='1558'>0.75648E+03</wgt>
<wgt id='1559'>0.75066E+03</wgt>
<wgt id='1560'>0.74652E+03</wgt>
<wgt id='1561'>0.76106E+03</wgt>
<wgt id='1562'>0.73781E+03</wgt>
<wgt id='1563'>0.74314E+03</wgt>
<wgt id='1564'>0.78685E+03</wgt>
<wgt id='1565'>0.73220E+03</wgt>
<wgt id='1566'>0.74756E+03</wgt>
<wgt id='1567'>0.76037E+03</wgt>
<wgt id='1568'>0.75728E+03</wgt>
<wgt id='1569'>0.76035E+03</wgt>
<wgt id='1570'>0.76367E+03</wgt>
<wgt id='1571'>0.73296E+03</wgt>
<wgt id='1572'>0.73943E+03</wgt>
<wgt id='1573'>0.76214E+03</wgt>
<wgt id='1574'>0.72658E+03</wgt>
<wgt id='1575'>0.76352E+03</wgt>
<wgt id='1576'>0.71216E+03</wgt>
<wgt id='1577'>0.73812E+03</wgt>
<wgt id='1578'>0.76946E+03</wgt>
<wgt id='1579'>0.75015E+03</wgt>
<wgt id='1580'>0.75768E+03</wgt>
<wgt id='1581'>0.74572E+03</wgt>
<wgt id='1582'>0.75356E+03</wgt>
<wgt id='1583'>0.72797E+03</wgt>
<wgt id='1584'>0.76317E+03</wgt>
<wgt id='1585'>0.75923E+03</wgt>
<wgt id='1586'>0.76577E+03</wgt>
<wgt id='1587'>0.77015E+03</wgt>
<wgt id='1588'>0.76788E+03</wgt>
<wgt id='1589'>0.75515E+03</wgt>
<wgt id='1590'>0.74603E+03</wgt>
<wgt id='1591'>0.74398E+03</wgt>
<wgt id='1592'>0.73771E+03</wgt>
<wgt id='1593'>0.76882E+03</wgt>
<wgt id='1594'>0.74433E+03</wgt>
<wgt id='1595'>0.81033E+03</wgt>
<wgt id='1596'>0.74269E+03</wgt>
<wgt id='1597'>0.74763E+03</wgt>
<wgt id='1598'>0.74238E+03</wgt>
<wgt id='1599'>0.77233E+03</wgt>
<wgt id='1600'>0.79517E+03</wgt>
<wgt id='1601'>0.73822E+03</wgt>
<wgt id='1602'>0.76043E+03</wgt>
<wgt id='1700'>0.70865E+03</wgt>
<wgt id='1800'>0.76934E+03</wgt>
<wgt id='1850'>0.88875E+03</wgt>
<wgt id='1900'>0.82319E+03</wgt>
<wgt id='1950'>0.86727E+03</wgt>
</rwgt>
</event>
<event>
     13 322222  6.87070E+02  8.09008E+01 -1.00000E+00  1.26415E-01
       2    -1     0     0   502     0  0.000000000E+00  0.000000000E+00  5.310217904E+02  5.310217904E+02  0.000000000E+00  0.00000E+00  9.000E+00
      21    -1     0     0   512   513  0.000000000E+00  0.000000000E+00 -1.686916693E+02  1.686916693E+02  0.000000000E+00  0.00000E+00  9.000E+00
       6     2     1     2   502     0  1.410977693E+02  2.556958387E+01 -6.656047870E+00  2.243635409E+02  1.724305988E+02  0.00000E+00  9.000E+00
      -6     2     1     2     0   513 -6.243891251E+01 -6.656247014E+00  1.319169172E+02  2.248568645E+02  1.709257531E+02  0.00000E+00  9.000E+00
       2     1     1     2   512     0 -7.865885679E+01 -1.891333686E+01  2.370692518E+02  2.504930542E+02  1.000000000E-01  0.00000E+00  9.000E+00
      24     2     3     3     0     0  7.571194993E+01 -3.719882367E+01 -4.454138716E+01  1.260095003E+02  8.233108260E+01  0.00000E+00  9.000E+00
       5     1     3     3   502     0  6.538581937E+01  6.276840754E+01  3.788533929E+01  9.835404055E+01  4.800000000E+00  0.00000E+00 -1.000E+00
     -24     2     4     4     0     0  9.105501735E+00 -3.244477756E+01  1.188287005E+02  1.475393831E+02  8.069718552E+01  0.00000E+00  9.000E+00
      -5     1     4     4     0   513 -7.154441424E+01  2.578853055E+01  1.308821664E+01  7.731748142E+01  4.800000000E+00  0.00000E+00  1.000E+00
     -11     1     6     6     0     0  8.686491981E+01 -1.053346214E+01 -2.459787319E+01  9.089292318E+01  5.100000000E-04  0.00000E+00  1.000E+00
      12     1     6     6     0     0 -1.115296988E+01 -2.666536153E+01 -1.994351397E+01  3.511657717E+01  0.000000000E+00  0.00000E+00 -1.000E+00
       3     1     8     8   514     0  3.929184810E+01  4.190885153E+00  4.664593165E+01  6.113342609E+01  2.000000000E-01  0.00000E+00 -1.000E+00
      -4     1     8     8     0   514 -3.018634636E+01 -3.663566272E+01  7.218276887E+01  8.640595703E+01  1.500000000E+00  0.00000E+00  1.000E+00
#rwgt            1           1   770.50777643447975                2       10240           0
<rwgt>
<wgt id='1001'>0.68707E+03</wgt>
<wgt id='1002'>0.57518E+03</wgt>
<wgt id='1003'>0.80506E+03</wgt>
<wgt id='1004'>0.64700E+03</wgt>
<wgt id='1005'>0.55511E+03</wgt>
<wgt id='1006'>0.74348E+03</wgt>
<wgt id='1007'>0.71093E+03</wgt>
<wgt id='1008'>0.57169E+03</wgt>
<wgt id='1009'>0.85853E+03</wgt>
<wgt id='2000'>0.68707E+03</wgt>
<wgt id='2001'>0.68627E+03</wgt>
<wgt id='2002'>0.68774E+03</wgt>
<wgt id='2003'>0.68775E+03</wgt>
<wgt id='2004'>0.68872E+03</wgt>
<wgt id='2005'>0.68604E+03</wgt>
<wgt id='2006'>0.68490E+03</wgt>
<wgt id='2007'>0.68411E+03</wgt>
<wgt id='2008'>0.68385E+03</wgt>
<wgt id='2009'>0.68840E+03</wgt>
<wgt id='2010'>0.68732E+03</wgt>
<wgt id='2011'>0.68588E+03</wgt>
<wgt id='2012'>0.68793E+03</wgt>
<wgt id='2013'>0.68771E+03</wgt>
<wgt id='2014'>0.68973E+03</wgt>
<wgt id='2015'>0.68866E+03</wgt>
<wgt id='2016'>0.68772E+03</wgt>
<wgt id='2017'>0.68687E+03</wgt>
<wgt id='2018'>0.68893E+03</wgt>
<wgt id='2019'>0.68717E+03</wgt>
<wgt id='2020'>0.69054E+03</wgt>
<wgt id='2021'>0.68540E+03</wgt>
<wgt id='2022'>0.68974E+03</wgt>
<wgt id='2023'>0.68886E+03</wgt>
<wgt id='2024'>0.68666E+03</wgt>
<wgt id='2025'>0.69045E+03</wgt>
<wgt id='2026'>0.68969E+03</wgt>
<wgt id='2027'>0.68587E+03</wgt>
<wgt id='2028'>0.68506E+03</wgt>
<wgt id='2029'>0.68903E+03</wgt>
<wgt id='2030'>0.68745E+03</wgt>
<wgt id='2031'>0.68795E+03</wgt>
<wgt id='2032'>0.68653E+03</wgt>
<wgt id='2033'>0.68707E+03</wgt>
<wgt id='2034'>0.68808E+03</wgt>
<wgt id='2035'>0.68682E+03</wgt>
<wgt id='2036'>0.68724E+03</wgt>
<wgt id='2037'>0.68737E+03</wgt>
<wgt id='2038'>0.68680E+03</wgt>
<wgt id='2039'>0.68676E+03</wgt>
<wgt id='2040'>0.68740E+03</wgt>
<wgt id='2041'>0.68698E+03</wgt>
<wgt id='2042'>0.68625E+03</wgt>
<wgt id='2043'>0.68703E+03</wgt>
<wgt id='2044'>0.68763E+03</wgt>
<wgt id='2045'>0.68682E+03</wgt>
<wgt id='2046'>0.68831E+03</wgt>
<wgt id='2047'>0.68823E+03</wgt>
<wgt id='2048'>0.68734E+03</wgt>
<wgt id='2049'>0.68712E+03</wgt>
<wgt id='2050'>0.68757E+03</wgt>
<wgt id='2051'>0.68752E+03</wgt>
<wgt id='2052'>0.68690E+03</wgt>
<wgt id='2053'>0.68720E+03</wgt>
<wgt id='2054'>0.68704E+03</wgt>
<wgt id='2055'>0.68710E+03</wgt>
<wgt id='2056'>0.68684E+03</wgt>
<wgt id='2057'>0.68704E+03</wgt>
<wgt id='2058'>0.68718E+03</wgt>
<wgt id='2059'>0.68691E+03</wgt>
<wgt id='2060'>0.68722E+03</wgt>
<wgt id='2061'>0.68668E+03</wgt>
<wgt id='2062'>0.68701E+03</wgt>
<wgt id='2063'>0.68736E+03</wgt>
<wgt id='2064'>0.68668E+03</wgt>
<wgt id='2065'>0.68749E+03</wgt>
<wgt id='2066'>0.68687E+03</wgt>
<wgt id='2067'>0.68716E+03</wgt>
<wgt id='2068'>0.68736E+03</wgt>
<wgt id='2069'>0.68738E+03</wgt>
<wgt id='2070'>0.68685E+03</wgt>
<wgt id='2071'>0.68671E+03</wgt>
<wgt id='2072'>0.68710E+03</wgt>
<wgt id='2073'>0.68718E+03</wgt>
<wgt id='2074'>0.68718E+03</wgt>
<wgt id='2075'>0.68694E+03</wgt>
<wgt id='2076'>0.68695E+03</wgt>
<wgt id='2077'>0.68691E+03</wgt>
<wgt id='2078'>0.68707E+03</wgt>
<wgt id='2079'>0.68721E+03</wgt>
<wgt id='2080'>0.68701E+03</wgt>
<wgt id='2081'>0.68721E+03</wgt>
<wgt id='2082'>0.68721E+03</wgt>
<wgt id='2083'>0.68695E+03</wgt>
<wgt id='2084'>0.68719E+03</wgt>
<wgt id='2085'>0.68682E+03</wgt>
<wgt id='2086'>0.68672E+03</wgt>
<wgt id='2087'>0.68718E+03</wgt>
<wgt id='2088'>0.68713E+03</wgt>
<wgt id='2089'>0.68719E+03</wgt>
<wgt id='2090'>0.68695E+03</wgt>
<wgt id='2091'>0.68721E+03</wgt>
<wgt id='2092'>0.68708E+03</wgt>
<wgt id='2093'>0.68698E+03</wgt>
<wgt id='2094'>0.68718E+03</wgt>
<wgt id='2095'>0.68695E+03</wgt>
<wgt id='2096'>0.68713E+03</wgt>
<wgt id='2097'>0.68691E+03</wgt>
<wgt id='2098'>0.68698E+03</wgt>
<wgt id='2099'>0.68707E+03</wgt>
<wgt id='2100'>0.68703E+03</wgt>
<wgt id='2101'>0.67103E+03</wgt>
<wgt id='2102'>0.70097E+03</wgt>
<wgt id='2104'>0.61808E+03</wgt>
<wgt id='2105'>0.63063E+03</wgt>
<wgt id='2106'>0.64683E+03</wgt>
<wgt id='2107'>0.66128E+03</wgt>
<wgt id='2108'>0.68098E+03</wgt>
<wgt id='2109'>0.69562E+03</wgt>
<wgt id='2110'>0.71186E+03</wgt>
<wgt id='2111'>0.72579E+03</wgt>
<wgt id='3000'>0.71335E+03</wgt>
<wgt id='3001'>0.71417E+03</wgt>
<wgt id='3002'>0.71310E+03</wgt>
<wgt id='3003'>0.71421E+03</wgt>
<wgt id='3004'>0.71498E+03</wgt>
<wgt id='3005'>0.71551E+03</wgt>
<wgt id='3006'>0.71317E+03</wgt>
<wgt id='3007'>0.71563E+03</wgt>
<wgt id='3008'>0.71265E+03</wgt>
<wgt id='3009'>0.71560E+03</wgt>
<wgt id='3010'>0.71172E+03</wgt>
<wgt id='3011'>0.71226E+03</wgt>
<wgt id='3012'>0.71549E+03</wgt>
<wgt id='3013'>0.71284E+03</wgt>
<wgt id='3014'>0.71521E+03</wgt>
<wgt id='3015'>0.71249E+03</wgt>
<wgt id='3016'>0.71395E+03</wgt>
<wgt id='3017'>0.71509E+03</wgt>
<wgt id='3018'>0.71558E+03</wgt>
<wgt id='3019'>0.71079E+03</wgt>
<wgt id='3020'>0.71087E+03</wgt>
<wgt id='3021'>0.71026E+03</wgt>
<wgt id='3022'>0.71312E+03</wgt>
<wgt id='3023'>0.71144E+03</wgt>
<wgt id='3024'>0.71064E+03</wgt>
<wgt id='3025'>0.71342E+03</wgt>
<wgt id='3026'>0.71516E+03</wgt>
<wgt id='3027'>0.71355E+03</wgt>
<wgt id='3028'>0.71011E+03</wgt>
<wgt id='3029'>0.71231E+03</wgt>
<wgt id='3030'>0.71526E+03</wgt>
<wgt id='3031'>0.71429E+03</wgt>
<wgt id='3032'>0.71441E+03</wgt>
<wgt id='3033'>0.71478E+03</wgt>
<wgt id='3034'>0.71399E+03</wgt>
<wgt id='3035'>0.71478E+03</wgt>
<wgt id='3036'>0.71372E+03</wgt>
<wgt id='3037'>0.71370E+03</wgt>
<wgt id='3038'>0.71346E+03</wgt>
<wgt id='3039'>0.71322E+03</wgt>
<wgt id='3040'>0.71349E+03</wgt>
<wgt id='3041'>0.71351E+03</wgt>
<wgt id='3042'>0.71228E+03</wgt>
<wgt id='3043'>0.71259E+03</wgt>
<wgt id='3044'>0.71320E+03</wgt>
<wgt id='3045'>0.71368E+03</wgt>
<wgt id='3046'>0.71368E+03</wgt>
<wgt id='3047'>0.71316E+03</wgt>
<wgt id='3048'>0.71357E+03</wgt>
<wgt id='3049'>0.71329E+03</wgt>
<wgt id='3050'>0.71288E+03</wgt>
<wgt id='3051'>0.71456E+03</wgt>
<wgt id='3052'>0.71329E+03</wgt>
<wgt id='3053'>0.71256E+03</wgt>
<wgt id='3054'>0.71294E+03</wgt>
<wgt id='3055'>0.71305E+03</wgt>
<wgt id='3056'>0.71358E+03</wgt>
<wgt id='3057'>0.71303E+03</wgt>
<wgt id='3058'>0.71298E+03</wgt>
<wgt id='3059'>0.71334E+03</wgt>
<wgt id='3060'>0.71324E+03</wgt>
<wgt id='3061'>0.71340E+03</wgt>
<wgt id='3062'>0.71377E+03</wgt>
<wgt id='3063'>0.71332E+03</wgt>
<wgt id='3064'>0.71309E+03</wgt>
<wgt id='3065'>0.71337E+03</wgt>
<wgt id='3066'>0.71344E+03</wgt>
<wgt id='3067'>0.71278E+03</wgt>
<wgt id='3068'>0.71346E+03</wgt>
<wgt id='3069'>0.71293E+03</wgt>
<wgt id='3070'>0.71321E+03</wgt>
<wgt id='3071'>0.71332E+03</wgt>
<wgt id='3072'>0.71363E+03</wgt>
<wgt id='3073'>0.71308E+03</wgt>
<wgt id='3074'>0.71367E+03</wgt>
<wgt id='3075'>0.71322E+03</wgt>
<wgt id='3076'>0.71312E+03</wgt>
<wgt id='3077'>0.71355E+03</wgt>
<wgt id='3078'>0.71351E+03</wgt>
<wgt id='3079'>0.71346E+03</wgt>
<wgt id='3080'>0.71310E+03</wgt>
<wgt id='3081'>0.71353E+03</wgt>
<wgt id='3082'>0.71344E+03</wgt>
<wgt id='3083'>0.71318E+03</wgt>
<wgt id='3084'>0.71347E+03</wgt>
<wgt id='3085'>0.71318E+03</wgt>
<wgt id='3086'>0.71356E+03</wgt>
<wgt id='3087'>0.71375E+03</wgt>
<wgt id='3088'>0.71343E+03</wgt>
<wgt id='3089'>0.71335E+03</wgt>
<wgt id='3090'>0.71358E+03</wgt>
<wgt id='3091'>0.71345E+03</wgt>
<wgt id='3092'>0.71340E+03</wgt>
<wgt id='3093'>0.71330E+03</wgt>
<wgt id='3094'>0.71341E+03</wgt>
<wgt id='3095'>0.71333E+03</wgt>
<wgt id='3096'>0.71329E+03</wgt>
<wgt id='3097'>0.71324E+03</wgt>
<wgt id='3098'>0.71333E+03</wgt>
<wgt id='3099'>0.71345E+03</wgt>
<wgt id='3100'>0.71343E+03</wgt>
<wgt id='3101'>0.69829E+03</wgt>
<wgt id='3102'>0.72885E+03</wgt>
<wgt id='5000'>0.67241E+03</wgt>
<wgt id='5001'>0.67150E+03</wgt>
<wgt id='5002'>0.67311E+03</wgt>
<wgt id='5003'>0.67035E+03</wgt>
<wgt id='5004'>0.67078E+03</wgt>
<wgt id='5005'>0.65490E+03</wgt>
<wgt id='5006'>0.66324E+03</wgt>
<wgt id='5007'>0.66751E+03</wgt>
<wgt id='5008'>0.66979E+03</wgt>
<wgt id='5009'>0.67355E+03</wgt>
<wgt id='5010'>0.66913E+03</wgt>
<wgt id='5011'>0.67281E+03</wgt>
<wgt id='5012'>0.67253E+03</wgt>
<wgt id='5013'>0.67305E+03</wgt>
<wgt id='5014'>0.68036E+03</wgt>
<wgt id='5015'>0.67474E+03</wgt>
<wgt id='5016'>0.66518E+03</wgt>
<wgt id='5017'>0.66322E+03</wgt>
<wgt id='5018'>0.68216E+03</wgt>
<wgt id='5019'>0.68240E+03</wgt>
<wgt id='5020'>0.66302E+03</wgt>
<wgt id='5021'>0.67249E+03</wgt>
<wgt id='5022'>0.67234E+03</wgt>
<wgt id='5023'>0.66923E+03</wgt>
<wgt id='5024'>0.67577E+03</wgt>
<wgt id='5025'>0.67637E+03</wgt>
<wgt id='5026'>0.66914E+03</wgt>
<wgt id='5027'>0.67695E+03</wgt>
<wgt id='5028'>0.66471E+03</wgt>
<wgt id='5029'>0.66423E+03</wgt>
<wgt id='5030'>0.67743E+03</wgt>
<wgt id='5031'>0.66645E+03</wgt>
<wgt id='5032'>0.68110E+03</wgt>
<wgt id='5033'>0.67194E+03</wgt>
<wgt id='5034'>0.67263E+03</wgt>
<wgt id='5035'>0.67662E+03</wgt>
<wgt id='5036'>0.66809E+03</wgt>
<wgt id='5037'>0.65719E+03</wgt>
<wgt id='5038'>0.68933E+03</wgt>
<wgt id='5039'>0.68870E+03</wgt>
<wgt id='5040'>0.66353E+03</wgt>
<wgt id='5041'>0.66956E+03</wgt>
<wgt id='5042'>0.67229E+03</wgt>
<wgt id='5043'>0.67808E+03</wgt>
<wgt id='5044'>0.66371E+03</wgt>
<wgt id='5045'>0.69229E+03</wgt>
<wgt id='5046'>0.65107E+03</wgt>
<wgt id='5047'>0.68134E+03</wgt>
<wgt id='5048'>0.66390E+03</wgt>
<wgt id='5049'>0.67410E+03</wgt>
<wgt id='5050'>0.67200E+03</wgt>
<wgt id='5051'>0.67314E+03</wgt>
<wgt id='5052'>0.67259E+03</wgt>
<wgt id='5053'>0.66702E+03</wgt>
<wgt id='5054'>0.67464E+03</wgt>
<wgt id='5055'>0.66686E+03</wgt>
<wgt id='5056'>0.68278E+03</wgt>
<wgt id='5060'>0.65567E+03</wgt>
<wgt id='5070'>0.68818E+03</wgt>
<wgt id='4000'>0.67972E+03</wgt>
<wgt id='4001'>0.68002E+03</wgt>
<wgt id='4002'>0.68113E+03</wgt>
<wgt id='4003'>0.67942E+03</wgt>
<wgt id='4004'>0.66833E+03</wgt>
<wgt id='4005'>0.67912E+03</wgt>
<wgt id='4006'>0.68143E+03</wgt>
<wgt id='4007'>0.68767E+03</wgt>
<wgt id='4008'>0.66895E+03</wgt>
<wgt id='4009'>0.67472E+03</wgt>
<wgt id='4010'>0.68004E+03</wgt>
<wgt id='4011'>0.69609E+03</wgt>
<wgt id='4012'>0.66852E+03</wgt>
<wgt id='4013'>0.66936E+03</wgt>
<wgt id='4014'>0.68536E+03</wgt>
<wgt id='4015'>0.69345E+03</wgt>
<wgt id='4016'>0.67023E+03</wgt>
<wgt id='4017'>0.66748E+03</wgt>
<wgt id='4018'>0.69417E+03</wgt>
<wgt id='4019'>0.69054E+03</wgt>
<wgt id='4020'>0.66823E+03</wgt>
<wgt id='4021'>0.68250E+03</wgt>
<wgt id='4022'>0.67401E+03</wgt>
<wgt id='4023'>0.67670E+03</wgt>
<wgt id='4024'>0.68272E+03</wgt>
<wgt id='4025'>0.68919E+03</wgt>
<wgt id='4026'>0.67037E+03</wgt>
<wgt id='4027'>0.67973E+03</wgt>
<wgt id='4028'>0.67981E+03</wgt>
<wgt id='4029'>0.67730E+03</wgt>
<wgt id='4030'>0.68060E+03</wgt>
<wgt id='4031'>0.68254E+03</wgt>
<wgt id='4032'>0.67605E+03</wgt>
<wgt id='4033'>0.67436E+03</wgt>
<wgt id='4034'>0.69147E+03</wgt>
<wgt id='4035'>0.67573E+03</wgt>
<wgt id='4036'>0.68399E+03</wgt>
<wgt id='4037'>0.68208E+03</wgt>
<wgt id='4038'>0.67590E+03</wgt>
<wgt id='4039'>0.68031E+03</wgt>
<wgt id='4040'>0.67955E+03</wgt>
<wgt id='4041'>0.68015E+03</wgt>
<wgt id='4042'>0.68037E+03</wgt>
<wgt id='4043'>0.68142E+03</wgt>
<wgt id='4044'>0.68347E+03</wgt>
<wgt id='4045'>0.67255E+03</wgt>
<wgt id='4046'>0.68163E+03</wgt>
<wgt id='4047'>0.67358E+03</wgt>
<wgt id='4048'>0.66986E+03</wgt>
<wgt id='4049'>0.66813E+03</wgt>
<wgt id='4050'>0.67090E+03</wgt>
<wgt id='4051'>0.68005E+03</wgt>
<wgt id='4052'>0.67932E+03</wgt>
<wgt id='4053'>0.66309E+03</wgt>
<wgt id='4054'>0.68927E+03</wgt>
<wgt id='4055'>0.67292E+03</wgt>
<wgt id='4056'>0.69046E+03</wgt>
<wgt id='4060'>0.66342E+03</wgt>
<wgt id='4070'>0.69571E+03</wgt>
<wgt id='4080'>0.59279E+03</wgt>
<wgt id='6000'>0.70252E+03</wgt>
<wgt id='6001'>0.70273E+03</wgt>
<wgt id='6002'>0.70228E+03</wgt>
<wgt id='6003'>0.70325E+03</wgt>
<wgt id='6004'>0.70202E+03</wgt>
<wgt id='6005'>0.70630E+03</wgt>
<wgt id='6006'>0.69902E+03</wgt>
<wgt id='6007'>0.69918E+03</wgt>
<wgt id='6008'>0.70628E+03</wgt>
<wgt id='6009'>0.70342E+03</wgt>
<wgt id='6010'>0.70163E+03</wgt>
<wgt id='6011'>0.70347E+03</wgt>
<wgt id='6012'>0.70045E+03</wgt>
<wgt id='6013'>0.70216E+03</wgt>
<wgt id='6014'>0.70318E+03</wgt>
<wgt id='6015'>0.70077E+03</wgt>
<wgt id='6016'>0.70351E+03</wgt>
<wgt id='6017'>0.69970E+03</wgt>
<wgt id='6018'>0.70587E+03</wgt>
<wgt id='6019'>0.70346E+03</wgt>
<wgt id='6020'>0.70172E+03</wgt>
<wgt id='6021'>0.70147E+03</wgt>
<wgt id='6022'>0.70392E+03</wgt>
<wgt id='6023'>0.69828E+03</wgt>
<wgt id='6024'>0.70544E+03</wgt>
<wgt id='6025'>0.69967E+03</wgt>
<wgt id='6026'>0.70549E+03</wgt>
<wgt id='6027'>0.70344E+03</wgt>
<wgt id='6028'>0.70227E+03</wgt>
<wgt id='6029'>0.70237E+03</wgt>
<wgt id='6030'>0.70277E+03</wgt>
<wgt id='6031'>0.69729E+03</wgt>
<wgt id='6032'>0.70827E+03</wgt>
<wgt id='6033'>0.70551E+03</wgt>
<wgt id='6034'>0.69959E+03</wgt>
<wgt id='6035'>0.70326E+03</wgt>
<wgt id='6036'>0.70083E+03</wgt>
<wgt id='6037'>0.70353E+03</wgt>
<wgt id='6038'>0.70256E+03</wgt>
<wgt id='6039'>0.70119E+03</wgt>
<wgt id='6040'>0.70402E+03</wgt>
<wgt id='6041'>0.69798E+03</wgt>
<wgt id='6042'>0.70772E+03</wgt>
<wgt id='6043'>0.70911E+03</wgt>
<wgt id='6044'>0.69861E+03</wgt>
<wgt id='6045'>0.70175E+03</wgt>
<wgt id='6046'>0.70400E+03</wgt>
<wgt id='6047'>0.71080E+03</wgt>
<wgt id='6048'>0.68815E+03</wgt>
<wgt id='6049'>0.70656E+03</wgt>
<wgt id='6050'>0.70024E+03</wgt>
<wgt id='7000'>0.67190E+03</wgt>
<wgt id='7001'>0.67146E+03</wgt>
<wgt id='7002'>0.67250E+03</wgt>
<wgt id='7003'>0.67408E+03</wgt>
<wgt id='7004'>0.66977E+03</wgt>
<wgt id='7005'>0.67398E+03</wgt>
<wgt id='7006'>0.67109E+03</wgt>
<wgt id='7007'>0.67040E+03</wgt>
<wgt id='7008'>0.67343E+03</wgt>
<wgt id='7009'>0.67245E+03</wgt>
<wgt id='7010'>0.67140E+03</wgt>
<wgt id='7011'>0.66888E+03</wgt>
<wgt id='7012'>0.67322E+03</wgt>
<wgt id='7013'>0.67197E+03</wgt>
<wgt id='7014'>0.67186E+03</wgt>
<wgt id='7015'>0.67124E+03</wgt>
<wgt id='7016'>0.67263E+03</wgt>
<wgt id='7017'>0.67371E+03</wgt>
<wgt id='7018'>0.67090E+03</wgt>
<wgt id='7019'>0.67172E+03</wgt>
<wgt id='7020'>0.67218E+03</wgt>
<wgt id='7021'>0.67059E+03</wgt>
<wgt id='7022'>0.67283E+03</wgt>
<wgt id='7023'>0.67932E+03</wgt>
<wgt id='7024'>0.66498E+03</wgt>
<wgt id='7025'>0.67447E+03</wgt>
<wgt id='7026'>0.66557E+03</wgt>
<wgt id='7027'>0.67345E+03</wgt>
<wgt id='7028'>0.67034E+03</wgt>
<wgt id='7029'>0.67173E+03</wgt>
<wgt id='7030'>0.67277E+03</wgt>
<wgt id='7031'>0.66983E+03</wgt>
<wgt id='7032'>0.67606E+03</wgt>
<wgt id='7033'>0.67205E+03</wgt>
<wgt id='7034'>0.67151E+03</wgt>
<wgt id='7035'>0.66962E+03</wgt>
<wgt id='7036'>0.67280E+03</wgt>
<wgt id='7037'>0.67187E+03</wgt>
<wgt id='7038'>0.67163E+03</wgt>
<wgt id='7039'>0.67026E+03</wgt>
<wgt id='7040'>0.67316E+03</wgt>
<wgt id='7041'>0.67107E+03</wgt>
<wgt id='7042'>0.67231E+03</wgt>
<wgt id='7043'>0.67256E+03</wgt>
<wgt id='7044'>0.66815E+03</wgt>
<wgt id='7045'>0.66101E+03</wgt>
<wgt id='7046'>0.67847E+03</wgt>
<wgt id='7047'>0.67556E+03</wgt>
<wgt id='7048'>0.66997E+03</wgt>
<wgt id='7049'>0.66650E+03</wgt>
<wgt id='7050'>0.67439E+03</wgt>
<wgt id='7060'>0.80009E+03</wgt>
<wgt id='8000'>0.67397E+03</wgt>
<wgt id='8001'>0.67389E+03</wgt>
<wgt id='8002'>0.67417E+03</wgt>
<wgt id='8003'>0.67401E+03</wgt>
<wgt id='8004'>0.67395E+03</wgt>
<wgt id='8005'>0.67271E+03</wgt>
<wgt id='8006'>0.67448E+03</wgt>
<wgt id='8007'>0.67508E+03</wgt>
<wgt id='8008'>0.67563E+03</wgt>
<wgt id='8009'>0.67697E+03</wgt>
<wgt id='8010'>0.67327E+03</wgt>
<wgt id='8011'>0.67385E+03</wgt>
<wgt id='8012'>0.67141E+03</wgt>
<wgt id='8013'>0.67277E+03</wgt>
<wgt id='8014'>0.67540E+03</wgt>
<wgt id='8015'>0.67348E+03</wgt>
<wgt id='8016'>0.67445E+03</wgt>
<wgt id='8017'>0.67434E+03</wgt>
<wgt id='8018'>0.67535E+03</wgt>
<wgt id='8019'>0.67495E+03</wgt>
<wgt id='8020'>0.67268E+03</wgt>
<wgt id='8021'>0.67353E+03</wgt>
<wgt id='8022'>0.67172E+03</wgt>
<wgt id='8023'>0.67369E+03</wgt>
<wgt id='8024'>0.67283E+03</wgt>
<wgt id='8025'>0.67471E+03</wgt>
<wgt id='8026'>0.67525E+03</wgt>
<wgt id='8027'>0.67391E+03</wgt>
<wgt id='8028'>0.67434E+03</wgt>
<wgt id='8029'>0.67031E+03</wgt>
<wgt id='8500'>0.70038E+03</wgt>
<wgt id='8501'>0.69734E+03</wgt>
<wgt id='8502'>0.70748E+03</wgt>
<wgt id='8503'>0.70358E+03</wgt>
<wgt id='8504'>0.69751E+03</wgt>
<wgt id='8505'>0.69740E+03</wgt>
<wgt id='8506'>0.70408E+03</wgt>
<wgt id='8507'>0.69346E+03</wgt>
<wgt id='8508'>0.69307E+03</wgt>
<wgt id='8509'>0.70330E+03</wgt>
<wgt id='8510'>0.71125E+03</wgt>
<wgt id='8511'>0.69975E+03</wgt>
<wgt id='8512'>0.69478E+03</wgt>
<wgt id='8513'>0.70130E+03</wgt>
<wgt id='8514'>0.68980E+03</wgt>
<wgt id='8515'>0.70388E+03</wgt>
<wgt id='8516'>0.70006E+03</wgt>
<wgt id='8517'>0.69669E+03</wgt>
<wgt id='8518'>0.69677E+03</wgt>
<wgt id='8519'>0.69667E+03</wgt>
<wgt id='8520'>0.69923E+03</wgt>
<wgt id='8521'>0.69690E+03</wgt>
<wgt id='8522'>0.70220E+03</wgt>
<wgt id='8523'>0.69818E+03</wgt>
<wgt id='8524'>0.69993E+03</wgt>
<wgt id='8525'>0.70084E+03</wgt>
<wgt id='8526'>0.69940E+03</wgt>
<wgt id='8527'>0.69995E+03</wgt>
<wgt id='8528'>0.69937E+03</wgt>
<wgt id='8529'>0.69985E+03</wgt>
<wgt id='8530'>0.70059E+03</wgt>
<wgt id='8531'>0.70002E+03</wgt>
<wgt id='8532'>0.70030E+03</wgt>
<wgt id='8533'>0.69913E+03</wgt>
<wgt id='8534'>0.70062E+03</wgt>
<wgt id='8535'>0.70201E+03</wgt>
<wgt id='8536'>0.70021E+03</wgt>
<wgt id='8537'>0.70055E+03</wgt>
<wgt id='8538'>0.70002E+03</wgt>
<wgt id='8539'>0.70088E+03</wgt>
<wgt id='8540'>0.70072E+03</wgt>
<wgt id='8541'>0.70120E+03</wgt>
<wgt id='8542'>0.70115E+03</wgt>
<wgt id='8543'>0.69976E+03</wgt>
<wgt id='8544'>0.70157E+03</wgt>
<wgt id='8545'>0.70061E+03</wgt>
<wgt id='8546'>0.70079E+03</wgt>
<wgt id='8547'>0.69982E+03</wgt>
<wgt id='8548'>0.70000E+03</wgt>
<wgt id='8549'>0.70040E+03</wgt>
<wgt id='8550'>0.69998E+03</wgt>
<wgt id='8551'>0.69947E+03</wgt>
<wgt id='8552'>0.70006E+03</wgt>
<wgt id='8553'>0.69957E+03</wgt>
<wgt id='8554'>0.69976E+03</wgt>
<wgt id='8555'>0.70038E+03</wgt>
<wgt id='8556'>0.70031E+03</wgt>
<wgt id='8557'>0.70036E+03</wgt>
<wgt id='8558'>0.70137E+03</wgt>
<wgt id='8559'>0.70005E+03</wgt>
<wgt id='8560'>0.69935E+03</wgt>
<wgt id='8561'>0.70063E+03</wgt>
<wgt id='8562'>0.69979E+03</wgt>
<wgt id='8563'>0.70033E+03</wgt>
<wgt id='8564'>0.70009E+03</wgt>
<wgt id='8565'>0.70036E+03</wgt>
<wgt id='8566'>0.70036E+03</wgt>
<wgt id='8567'>0.70026E+03</wgt>
<wgt id='8568'>0.70089E+03</wgt>
<wgt id='8569'>0.70073E+03</wgt>
<wgt id='8570'>0.70015E+03</wgt>
<wgt id='8571'>0.70008E+03</wgt>
<wgt id='8572'>0.70011E+03</wgt>
<wgt id='8573'>0.70014E+03</wgt>
<wgt id='8574'>0.70006E+03</wgt>
<wgt id='8575'>0.70043E+03</wgt>
<wgt id='8576'>0.70029E+03</wgt>
<wgt id='8577'>0.70024E+03</wgt>
<wgt id='8578'>0.70016E+03</wgt>
<wgt id='8579'>0.70072E+03</wgt>
<wgt id='8580'>0.70048E+03</wgt>
<wgt id='8581'>0.70079E+03</wgt>
<wgt id='8582'>0.70001E+03</wgt>
<wgt id='8583'>0.70061E+03</wgt>
<wgt id='8584'>0.70060E+03</wgt>
<wgt id='8585'>0.70056E+03</wgt>
<wgt id='8586'>0.70072E+03</wgt>
<wgt id='8587'>0.70046E+03</wgt>
<wgt id='8588'>0.70033E+03</wgt>
<wgt id='8589'>0.70036E+03</wgt>
<wgt id='8590'>0.70049E+03</wgt>
<wgt id='8591'>0.70015E+03</wgt>
<wgt id='8592'>0.70030E+03</wgt>
<wgt id='8593'>0.70031E+03</wgt>
<wgt id='8594'>0.70044E+03</wgt>
<wgt id='8595'>0.70033E+03</wgt>
<wgt id='8596'>0.70033E+03</wgt>
<wgt id='8597'>0.70050E+03</wgt>
<wgt id='8598'>0.70047E+03</wgt>
<wgt id='8599'>0.70036E+03</wgt>
<wgt id='8600'>0.70038E+03</wgt>
<wgt id='8601'>0.69157E+03</wgt>
<wgt id='8602'>0.70837E+03</wgt>
<wgt id='9000'>0.67605E+03</wgt>
<wgt id='9001'>0.67568E+03</wgt>
<wgt id='9002'>0.67867E+03</wgt>
<wgt id='9003'>0.67145E+03</wgt>
<wgt id='9004'>0.67590E+03</wgt>
<wgt id='9005'>0.68066E+03</wgt>
<wgt id='9006'>0.67405E+03</wgt>
<wgt id='9007'>0.67027E+03</wgt>
<wgt id='9008'>0.67463E+03</wgt>
<wgt id='9009'>0.67655E+03</wgt>
<wgt id='9010'>0.67185E+03</wgt>
<wgt id='9011'>0.68387E+03</wgt>
<wgt id='9012'>0.67842E+03</wgt>
<wgt id='9013'>0.66852E+03</wgt>
<wgt id='9014'>0.67332E+03</wgt>
<wgt id='9015'>0.67456E+03</wgt>
<wgt id='9016'>0.68519E+03</wgt>
<wgt id='9017'>0.67268E+03</wgt>
<wgt id='9018'>0.67511E+03</wgt>
<wgt id='9019'>0.67620E+03</wgt>
<wgt id='9020'>0.68196E+03</wgt>
<wgt id='9021'>0.67466E+03</wgt>
<wgt id='9022'>0.67732E+03</wgt>
<wgt id='9023'>0.67354E+03</wgt>
<wgt id='9024'>0.67478E+03</wgt>
<wgt id='9025'>0.67672E+03</wgt>
<wgt id='9026'>0.67610E+03</wgt>
<wgt id='9027'>0.67517E+03</wgt>
<wgt id='9028'>0.67649E+03</wgt>
<wgt id='9029'>0.67696E+03</wgt>
<wgt id='9030'>0.67651E+03</wgt>
<wgt id='9031'>0.67582E+03</wgt>
<wgt id='9032'>0.67695E+03</wgt>
<wgt id='9033'>0.67679E+03</wgt>
<wgt id='9034'>0.67548E+03</wgt>
<wgt id='9035'>0.67672E+03</wgt>
<wgt id='9036'>0.67621E+03</wgt>
<wgt id='9037'>0.67689E+03</wgt>
<wgt id='9038'>0.67650E+03</wgt>
<wgt id='9039'>0.67617E+03</wgt>
<wgt id='9040'>0.67534E+03</wgt>
<wgt id='9041'>0.67617E+03</wgt>
<wgt id='9042'>0.67573E+03</wgt>
<wgt id='9043'>0.67547E+03</wgt>
<wgt id='9044'>0.67598E+03</wgt>
<wgt id='9045'>0.67591E+03</wgt>
<wgt id='9046'>0.67520E+03</wgt>
<wgt id='9047'>0.67601E+03</wgt>
<wgt id='9048'>0.67649E+03</wgt>
<wgt id='9049'>0.67562E+03</wgt>
<wgt id='9050'>0.67627E+03</wgt>
<wgt id='9051'>0.67640E+03</wgt>
<wgt id='9052'>0.67634E+03</wgt>
<wgt id='9053'>0.67576E+03</wgt>
<wgt id='9054'>0.67578E+03</wgt>
<wgt id='9055'>0.67596E+03</wgt>
<wgt id='9056'>0.67688E+03</wgt>
<wgt id='9057'>0.67622E+03</wgt>
<wgt id='9058'>0.67513E+03</wgt>
<wgt id='9059'>0.67568E+03</wgt>
<wgt id='9060'>0.67567E+03</wgt>
<wgt id='9061'>0.67619E+03</wgt>
<wgt id='9062'>0.67611E+03</wgt>
<wgt id='9063'>0.67633E+03</wgt>
<wgt id='9064'>0.67584E+03</wgt>
<wgt id='9065'>0.67611E+03</wgt>
<wgt id='9066'>0.67627E+03</wgt>
<wgt id='9067'>0.67644E+03</wgt>
<wgt id='9068'>0.67623E+03</wgt>
<wgt id='9069'>0.67656E+03</wgt>
<wgt id='9070'>0.67580E+03</wgt>
<wgt id='9071'>0.67678E+03</wgt>
<wgt id='9072'>0.67664E+03</wgt>
<wgt id='9073'>0.67582E+03</wgt>
<wgt id='9074'>0.67605E+03</wgt>
<wgt id='9075'>0.67604E+03</wgt>
<wgt id='9076'>0.67603E+03</wgt>
<wgt id='9077'>0.67605E+03</wgt>
<wgt id='9078'>0.67597E+03</wgt>
<wgt id='9079'>0.67605E+03</wgt>
<wgt id='9080'>0.67679E+03</wgt>
<wgt id='9081'>0.67599E+03</wgt>
<wgt id='9082'>0.67641E+03</wgt>
<wgt id='9083'>0.67583E+03</wgt>
<wgt id='9084'>0.67595E+03</wgt>
<wgt id='9085'>0.67580E+03</wgt>
<wgt id='9086'>0.67605E+03</wgt>
<wgt id='9087'>0.67558E+03</wgt>
<wgt id='9088'>0.67589E+03</wgt>
<wgt id='9089'>0.67581E+03</wgt>
<wgt id='9090'>0.67613E+03</wgt>
<wgt id='9091'>0.67604E+03</wgt>
<wgt id='9092'>0.67593E+03</wgt>
<wgt id='9093'>0.67594E+03</wgt>
<wgt id='9094'>0.67602E+03</wgt>
<wgt id='9095'>0.67617E+03</wgt>
<wgt id='9096'>0.67594E+03</wgt>
<wgt id='9097'>0.67610E+03</wgt>
<wgt id='9098'>0.67599E+03</wgt>
<wgt id='9099'>0.67596E+03</wgt>
<wgt id='9100'>0.67604E+03</wgt>
<wgt id='9101'>0.66858E+03</wgt>
<wgt id='9102'>0.68280E+03</wgt>
<wgt id='10000'>0.70043E+03</wgt>
<wgt id='10001'>0.70517E+03</wgt>
<wgt id='10002'>0.69493E+03</wgt>
<wgt id='10003'>0.70040E+03</wgt>
<wgt id='10004'>0.68913E+03</wgt>
<wgt id='10005'>0.71214E+03</wgt>
<wgt id='10006'>0.69756E+03</wgt>
<wgt id='10007'>0.70026E+03</wgt>
<wgt id='10008'>0.70247E+03</wgt>
<wgt id='10009'>0.69757E+03</wgt>
<wgt id='10010'>0.70270E+03</wgt>
<wgt id='10011'>0.69661E+03</wgt>
<wgt id='10012'>0.70055E+03</wgt>
<wgt id='10013'>0.70136E+03</wgt>
<wgt id='10014'>0.69905E+03</wgt>
<wgt id='10015'>0.70003E+03</wgt>
<wgt id='10016'>0.69736E+03</wgt>
<wgt id='10017'>0.70670E+03</wgt>
<wgt id='10018'>0.70157E+03</wgt>
<wgt id='10019'>0.69837E+03</wgt>
<wgt id='10020'>0.69844E+03</wgt>
<wgt id='10021'>0.69987E+03</wgt>
<wgt id='10022'>0.69878E+03</wgt>
<wgt id='10023'>0.70077E+03</wgt>
<wgt id='10024'>0.69984E+03</wgt>
<wgt id='10025'>0.69967E+03</wgt>
<wgt id='10026'>0.70315E+03</wgt>
<wgt id='10027'>0.70228E+03</wgt>
<wgt id='10028'>0.70934E+03</wgt>
<wgt id='10029'>0.70076E+03</wgt>
<wgt id='10030'>0.70014E+03</wgt>
<wgt id='10031'>0.69157E+03</wgt>
<wgt id='10032'>0.70837E+03</wgt>
<wgt id='11000'>0.67609E+03</wgt>
<wgt id='11001'>0.66511E+03</wgt>
<wgt id='11002'>0.67910E+03</wgt>
<wgt id='11003'>0.67589E+03</wgt>
<wgt id='11004'>0.67893E+03</wgt>
<wgt id='11005'>0.67017E+03</wgt>
<wgt id='11006'>0.67664E+03</wgt>
<wgt id='11007'>0.67468E+03</wgt>
<wgt id='11008'>0.67557E+03</wgt>
<wgt id='11009'>0.67412E+03</wgt>
<wgt id='11010'>0.67045E+03</wgt>
<wgt id='11011'>0.67337E+03</wgt>
<wgt id='11012'>0.67646E+03</wgt>
<wgt id='11013'>0.67744E+03</wgt>
<wgt id='11014'>0.67457E+03</wgt>
<wgt id='11015'>0.67515E+03</wgt>
<wgt id='11016'>0.67507E+03</wgt>
<wgt id='11017'>0.68101E+03</wgt>
<wgt id='11018'>0.67561E+03</wgt>
<wgt id='11019'>0.67583E+03</wgt>
<wgt id='11020'>0.67827E+03</wgt>
<wgt id='11021'>0.67721E+03</wgt>
<wgt id='11022'>0.68668E+03</wgt>
<wgt id='11023'>0.67658E+03</wgt>
<wgt id='11024'>0.67606E+03</wgt>
<wgt id='11025'>0.67654E+03</wgt>
<wgt id='11026'>0.67614E+03</wgt>
<wgt id='11027'>0.67602E+03</wgt>
<wgt id='11028'>0.67634E+03</wgt>
<wgt id='11029'>0.67628E+03</wgt>
<wgt id='11030'>0.67599E+03</wgt>
<wgt id='11031'>0.66858E+03</wgt>
<wgt id='11032'>0.68280E+03</wgt>
<wgt id='12000'>0.69047E+03</wgt>
<wgt id='12001'>0.68950E+03</wgt>
<wgt id='12002'>0.69144E+03</wgt>
<wgt id='12003'>0.69111E+03</wgt>
<wgt id='12004'>0.68983E+03</wgt>
<wgt id='12005'>0.69189E+03</wgt>
<wgt id='12006'>0.68905E+03</wgt>
<wgt id='12007'>0.69403E+03</wgt>
<wgt id='12008'>0.68699E+03</wgt>
<wgt id='12009'>0.69016E+03</wgt>
<wgt id='12010'>0.69078E+03</wgt>
<wgt id='12011'>0.68617E+03</wgt>
<wgt id='12012'>0.69528E+03</wgt>
<wgt id='12013'>0.68725E+03</wgt>
<wgt id='12014'>0.69373E+03</wgt>
<wgt id='12015'>0.69143E+03</wgt>
<wgt id='12016'>0.68804E+03</wgt>
<wgt id='12017'>0.69441E+03</wgt>
<wgt id='12018'>0.68770E+03</wgt>
<wgt id='12019'>0.68848E+03</wgt>
<wgt id='12020'>0.69172E+03</wgt>
<wgt id='12021'>0.69125E+03</wgt>
<wgt id='12022'>0.68943E+03</wgt>
<wgt id='12023'>0.68485E+03</wgt>
<wgt id='12024'>0.69383E+03</wgt>
<wgt id='12025'>0.68967E+03</wgt>
<wgt id='12026'>0.69202E+03</wgt>
<wgt id='12027'>0.69738E+03</wgt>
<wgt id='12028'>0.68416E+03</wgt>
<wgt id='12050'>0.69047E+03</wgt>
<wgt id='12051'>0.68975E+03</wgt>
<wgt id='12052'>0.68472E+03</wgt>
<wgt id='12053'>0.68973E+03</wgt>
<wgt id='12054'>0.68578E+03</wgt>
<wgt id='12055'>0.68944E+03</wgt>
<wgt id='12056'>0.68818E+03</wgt>
<wgt id='12057'>0.68672E+03</wgt>
<wgt id='12058'>0.68939E+03</wgt>
<wgt id='12059'>0.69080E+03</wgt>
<wgt id='12060'>0.68531E+03</wgt>
<wgt id='12061'>0.68595E+03</wgt>
<wgt id='12062'>0.68609E+03</wgt>
<wgt id='12063'>0.68178E+03</wgt>
<wgt id='13000'>0.66839E+03</wgt>
<wgt id='13001'>0.66426E+03</wgt>
<wgt id='13002'>0.66565E+03</wgt>
<wgt id='13003'>0.66480E+03</wgt>
<wgt id='13004'>0.66512E+03</wgt>
<wgt id='13005'>0.66619E+03</wgt>
<wgt id='13006'>0.66373E+03</wgt>
<wgt id='13007'>0.66925E+03</wgt>
<wgt id='13008'>0.66078E+03</wgt>
<wgt id='13009'>0.66229E+03</wgt>
<wgt id='13010'>0.66772E+03</wgt>
<wgt id='13011'>0.66741E+03</wgt>
<wgt id='13012'>0.66251E+03</wgt>
<wgt id='13013'>0.66308E+03</wgt>
<wgt id='13014'>0.66676E+03</wgt>
<wgt id='13015'>0.66372E+03</wgt>
<wgt id='13016'>0.66422E+03</wgt>
<wgt id='13017'>0.66505E+03</wgt>
<wgt id='13018'>0.66483E+03</wgt>
<wgt id='13019'>0.66251E+03</wgt>
<wgt id='13020'>0.66738E+03</wgt>
<wgt id='13021'>0.66449E+03</wgt>
<wgt id='13022'>0.66511E+03</wgt>
<wgt id='13023'>0.66316E+03</wgt>
<wgt id='13024'>0.66704E+03</wgt>
<wgt id='13025'>0.65820E+03</wgt>
<wgt id='13026'>0.67108E+03</wgt>
<wgt id='13027'>0.66248E+03</wgt>
<wgt id='13028'>0.66786E+03</wgt>
<wgt id='13050'>0.66840E+03</wgt>
<wgt id='13051'>0.66715E+03</wgt>
<wgt id='13052'>0.65813E+03</wgt>
<wgt id='13053'>0.66684E+03</wgt>
<wgt id='13054'>0.66321E+03</wgt>
<wgt id='13055'>0.65968E+03</wgt>
<wgt id='13056'>0.65996E+03</wgt>
<wgt id='13057'>0.66375E+03</wgt>
<wgt id='13058'>0.66799E+03</wgt>
<wgt id='13059'>0.66623E+03</wgt>
<wgt id='13060'>0.65499E+03</wgt>
<wgt id='13061'>0.66304E+03</wgt>
<wgt id='13062'>0.66916E+03</wgt>
<wgt id='13063'>0.66405E+03</wgt>
<wgt id='14000'>0.67943E+03</wgt>
<wgt id='14001'>0.67934E+03</wgt>
<wgt id='14002'>0.67925E+03</wgt>
<wgt id='14003'>0.67916E+03</wgt>
<wgt id='14004'>0.67906E+03</wgt>
<wgt id='14005'>0.67898E+03</wgt>
<wgt id='14006'>0.67889E+03</wgt>
<wgt id='14007'>0.67879E+03</wgt>
<wgt id='14008'>0.67871E+03</wgt>
<wgt id='14009'>0.67862E+03</wgt>
<wgt id='14010'>0.67853E+03</wgt>
<wgt id='14011'>0.67844E+03</wgt>
<wgt id='14012'>0.67835E+03</wgt>
<wgt id='14013'>0.67826E+03</wgt>
<wgt id='14014'>0.67817E+03</wgt>
<wgt id='14015'>0.67808E+03</wgt>
<wgt id='14016'>0.67799E+03</wgt>
<wgt id='14017'>0.67790E+03</wgt>
<wgt id='14018'>0.67781E+03</wgt>
<wgt id='14019'>0.67772E+03</wgt>
<wgt id='14020'>0.67763E+03</wgt>
<wgt id='14021'>0.67754E+03</wgt>
<wgt id='14022'>0.67745E+03</wgt>
<wgt id='14023'>0.67736E+03</wgt>
<wgt id='14024'>0.67727E+03</wgt>
<wgt id='14025'>0.67718E+03</wgt>
<wgt id='14026'>0.67709E+03</wgt>
<wgt id='14027'>0.67700E+03</wgt>
<wgt id='14028'>0.67691E+03</wgt>
<wgt id='14029'>0.67682E+03</wgt>
<wgt id='14030'>0.67673E+03</wgt>
<wgt id='15000'>0.66830E+03</wgt>
<wgt id='15001'>0.66789E+03</wgt>
<wgt id='15002'>0.67085E+03</wgt>
<wgt id='15003'>0.66380E+03</wgt>
<wgt id='15004'>0.66816E+03</wgt>
<wgt id='15005'>0.67287E+03</wgt>
<wgt id='15006'>0.66638E+03</wgt>
<wgt id='15007'>0.66261E+03</wgt>
<wgt id='15008'>0.66690E+03</wgt>
<wgt id='15009'>0.66881E+03</wgt>
<wgt id='15010'>0.66417E+03</wgt>
<wgt id='15011'>0.67607E+03</wgt>
<wgt id='15012'>0.67065E+03</wgt>
<wgt id='15013'>0.66092E+03</wgt>
<wgt id='15014'>0.66555E+03</wgt>
<wgt id='15015'>0.66669E+03</wgt>
<wgt id='15016'>0.67736E+03</wgt>
<wgt id='15017'>0.66495E+03</wgt>
<wgt id='15018'>0.66737E+03</wgt>
<wgt id='15019'>0.66849E+03</wgt>
<wgt id='15020'>0.67419E+03</wgt>
<wgt id='15021'>0.66686E+03</wgt>
<wgt id='15022'>0.66957E+03</wgt>
<wgt id='15023'>0.66579E+03</wgt>
<wgt id='15024'>0.66699E+03</wgt>
<wgt id='15025'>0.66893E+03</wgt>
<wgt id='15026'>0.66831E+03</wgt>
<wgt id='15027'>0.66747E+03</wgt>
<wgt id='15028'>0.66876E+03</wgt>
<wgt id='15029'>0.66918E+03</wgt>
<wgt id='15030'>0.66875E+03</wgt>
<wgt id='15031'>0.66812E+03</wgt>
<wgt id='15032'>0.66917E+03</wgt>
<wgt id='15033'>0.66903E+03</wgt>
<wgt id='15034'>0.66773E+03</wgt>
<wgt id='15035'>0.66896E+03</wgt>
<wgt id='15036'>0.66845E+03</wgt>
<wgt id='15037'>0.66915E+03</wgt>
<wgt id='15038'>0.66874E+03</wgt>
<wgt id='15039'>0.66840E+03</wgt>
<wgt id='15040'>0.66759E+03</wgt>
<wgt id='15041'>0.66839E+03</wgt>
<wgt id='15042'>0.66796E+03</wgt>
<wgt id='15043'>0.66775E+03</wgt>
<wgt id='15044'>0.66823E+03</wgt>
<wgt id='15045'>0.66815E+03</wgt>
<wgt id='15046'>0.66746E+03</wgt>
<wgt id='15047'>0.66824E+03</wgt>
<wgt id='15048'>0.66874E+03</wgt>
<wgt id='15049'>0.66786E+03</wgt>
<wgt id='15050'>0.66852E+03</wgt>
<wgt id='15051'>0.66864E+03</wgt>
<wgt id='15052'>0.66858E+03</wgt>
<wgt id='15053'>0.66802E+03</wgt>
<wgt id='15054'>0.66804E+03</wgt>
<wgt id='15055'>0.66821E+03</wgt>
<wgt id='15056'>0.66911E+03</wgt>
<wgt id='15057'>0.66846E+03</wgt>
<wgt id='15058'>0.66741E+03</wgt>
<wgt id='15059'>0.66794E+03</wgt>
<wgt id='15060'>0.66793E+03</wgt>
<wgt id='15061'>0.66844E+03</wgt>
<wgt id='15062'>0.66835E+03</wgt>
<wgt id='15063'>0.66858E+03</wgt>
<wgt id='15064'>0.66809E+03</wgt>
<wgt id='15065'>0.66835E+03</wgt>
<wgt id='15066'>0.66851E+03</wgt>
<wgt id='15067'>0.66868E+03</wgt>
<wgt id='15068'>0.66848E+03</wgt>
<wgt id='15069'>0.66880E+03</wgt>
<wgt id='15070'>0.66804E+03</wgt>
<wgt id='15071'>0.66903E+03</wgt>
<wgt id='15072'>0.66888E+03</wgt>
<wgt id='15073'>0.66806E+03</wgt>
<wgt id='15074'>0.66830E+03</wgt>
<wgt id='15075'>0.66828E+03</wgt>
<wgt id='15076'>0.66829E+03</wgt>
<wgt id='15077'>0.66830E+03</wgt>
<wgt id='15078'>0.66823E+03</wgt>
<wgt id='15079'>0.66829E+03</wgt>
<wgt id='15080'>0.66902E+03</wgt>
<wgt id='15081'>0.66825E+03</wgt>
<wgt id='15082'>0.66865E+03</wgt>
<wgt id='15083'>0.66808E+03</wgt>
<wgt id='15084'>0.66819E+03</wgt>
<wgt id='15085'>0.66805E+03</wgt>
<wgt id='15086'>0.66831E+03</wgt>
<wgt id='15087'>0.66783E+03</wgt>
<wgt id='15088'>0.66813E+03</wgt>
<wgt id='15089'>0.66805E+03</wgt>
<wgt id='15090'>0.66838E+03</wgt>
<wgt id='15091'>0.66828E+03</wgt>
<wgt id='15092'>0.66818E+03</wgt>
<wgt id='15093'>0.66819E+03</wgt>
<wgt id='15094'>0.66826E+03</wgt>
<wgt id='15095'>0.66842E+03</wgt>
<wgt id='15096'>0.66819E+03</wgt>
<wgt id='15097'>0.66835E+03</wgt>
<wgt id='15098'>0.66824E+03</wgt>
<wgt id='15099'>0.66821E+03</wgt>
<wgt id='15100'>0.66829E+03</wgt>
<wgt id='15101'>0.66829E+03</wgt>
<wgt id='15102'>0.66825E+03</wgt>
<wgt id='15103'>0.66831E+03</wgt>
<wgt id='15104'>0.66831E+03</wgt>
<wgt id='15105'>0.66832E+03</wgt>
<wgt id='15106'>0.66830E+03</wgt>
<wgt id='15107'>0.66826E+03</wgt>
<wgt id='1500'>0.71989E+03</wgt>
<wgt id='1501'>0.69604E+03</wgt>
<wgt id='1502'>0.71394E+03</wgt>
<wgt id='1503'>0.72306E+03</wgt>
<wgt id='1504'>0.71006E+03</wgt>
<wgt id='1505'>0.66212E+03</wgt>
<wgt id='1506'>0.73666E+03</wgt>
<wgt id='1507'>0.72108E+03</wgt>
<wgt id='1508'>0.72933E+03</wgt>
<wgt id='1509'>0.72860E+03</wgt>
<wgt id='1510'>0.68657E+03</wgt>
<wgt id='1511'>0.66740E+03</wgt>
<wgt id='1512'>0.73030E+03</wgt>
<wgt id='1513'>0.73003E+03</wgt>
<wgt id='1514'>0.69876E+03</wgt>
<wgt id='1515'>0.73282E+03</wgt>
<wgt id='1516'>0.73284E+03</wgt>
<wgt id='1517'>0.71492E+03</wgt>
<wgt id='1518'>0.72679E+03</wgt>
<wgt id='1519'>0.73987E+03</wgt>
<wgt id='1520'>0.75327E+03</wgt>
<wgt id='1521'>0.72639E+03</wgt>
<wgt id='1522'>0.70377E+03</wgt>
<wgt id='1523'>0.76934E+03</wgt>
<wgt id='1524'>0.71761E+03</wgt>
<wgt id='1525'>0.71929E+03</wgt>
<wgt id='1526'>0.72182E+03</wgt>
<wgt id='1527'>0.71865E+03</wgt>
<wgt id='1528'>0.70841E+03</wgt>
<wgt id='1529'>0.72661E+03</wgt>
<wgt id='1530'>0.74342E+03</wgt>
<wgt id='1531'>0.71167E+03</wgt>
<wgt id='1532'>0.69392E+03</wgt>
<wgt id='1533'>0.70911E+03</wgt>
<wgt id='1534'>0.71742E+03</wgt>
<wgt id='1535'>0.73540E+03</wgt>
<wgt id='1536'>0.73239E+03</wgt>
<wgt id='1537'>0.73289E+03</wgt>
<wgt id='1538'>0.73774E+03</wgt>
<wgt id='1539'>0.71194E+03</wgt>
<wgt id='1540'>0.71856E+03</wgt>
<wgt id='1541'>0.73449E+03</wgt>
<wgt id='1542'>0.71371E+03</wgt>
<wgt id='1543'>0.71467E+03</wgt>
<wgt id='1544'>0.71517E+03</wgt>
<wgt id='1545'>0.70845E+03</wgt>
<wgt id='1546'>0.73824E+03</wgt>
<wgt id='1547'>0.71080E+03</wgt>
<wgt id='1548'>0.71888E+03</wgt>
<wgt id='1549'>0.71281E+03</wgt>
<wgt id='1550'>0.70981E+03</wgt>
<wgt id='1551'>0.71048E+03</wgt>
<wgt id='1552'>0.70153E+03</wgt>
<wgt id='1553'>0.72739E+03</wgt>
<wgt id='1554'>0.71897E+03</wgt>
<wgt id='1555'>0.70879E+03</wgt>
<wgt id='1556'>0.70968E+03</wgt>
<wgt id='1557'>0.74151E+03</wgt>
<wgt id='1558'>0.70109E+03</wgt>
<wgt id='1559'>0.73550E+03</wgt>
<wgt id='1560'>0.72002E+03</wgt>
<wgt id='1561'>0.72594E+03</wgt>
<wgt id='1562'>0.72432E+03</wgt>
<wgt id='1563'>0.71867E+03</wgt>
<wgt id='1564'>0.70321E+03</wgt>
<wgt id='1565'>0.72471E+03</wgt>
<wgt id='1566'>0.71488E+03</wgt>
<wgt id='1567'>0.77446E+03</wgt>
<wgt id='1568'>0.71206E+03</wgt>
<wgt id='1569'>0.69108E+03</wgt>
<wgt id='1570'>0.69877E+03</wgt>
<wgt id='1571'>0.71849E+03</wgt>
<wgt id='1572'>0.72474E+03</wgt>
<wgt id='1573'>0.68259E+03</wgt>
<wgt id='1574'>0.72209E+03</wgt>
<wgt id='1575'>0.71709E+03</wgt>
<wgt id='1576'>0.69050E+03</wgt>
<wgt id='1577'>0.71377E+03</wgt>
<wgt id='1578'>0.73598E+03</wgt>
<wgt id='1579'>0.71850E+03</wgt>
<wgt id='1580'>0.71603E+03</wgt>
<wgt id='1581'>0.72011E+03</wgt>
<wgt id='1582'>0.70128E+03</wgt>
<wgt id='1583'>0.74775E+03</wgt>
<wgt id='1584'>0.71844E+03</wgt>
<wgt id='1585'>0.70426E+03</wgt>
<wgt id='1586'>0.71001E+03</wgt>
<wgt id='1587'>0.71197E+03</wgt>
<wgt id='1588'>0.71953E+03</wgt>
<wgt id='1589'>0.75453E+03</wgt>
<wgt id='1590'>0.70608E+03</wgt>
<wgt id='1591'>0.71862E+03</wgt>
<wgt id='1592'>0.72391E+03</wgt>
<wgt id='1593'>0.72544E+03</wgt>
<wgt id='1594'>0.72830E+03</wgt>
<wgt id='1595'>0.70183E+03</wgt>
<wgt id='1596'>0.73373E+03</wgt>
<wgt id='1597'>0.71957E+03</wgt>
<wgt id='1598'>0.73977E+03</wgt>
<wgt id='1599'>0.73709E+03</wgt>
<wgt id='1600'>0.73101E+03</wgt>
<wgt id='1601'>0.71334E+03</wgt>
<wgt id='1602'>0.72254E+03</wgt>
<wgt id='1700'>0.68507E+03</wgt>
<wgt id='1800'>0.68452E+03</wgt>
<wgt id='1850'>0.78321E+03</wgt>
<wgt id='1900'>0.73494E+03</wgt>
<wgt id='1950'>0.75472E+03</wgt>
</rwgt>
</event>
<event>
     13 322222  6.87070E+02  1.21002E+02 -1.00000E+00  1.18722E-01
      21    -1     0     0   504   505  0.000000000E+00  0.000000000E+00  9.242828301E+02  9.242828301E+02  0.000000000E+00  0.00000E+00  9.000E+00
      21    -1     0     0   502   503  0.000000000E+00  0.000000000E+00 -4.306369532E+02  4.306369532E+02  0.000000000E+00  0.00000E+00  9.000E+00
       6     2     1     2   502     0 -1.073236426E+02  2.450817468E+01 -2.621080423E+02  3.331391200E+02  1.736721986E+02  0.00000E+00  9.000E+00
      -6     2     1     2     0   505  2.587825709E+01  6.498006337E+01 -6.077693058E+01  1.963328307E+02  1.730914565E+02  0.00000E+00  9.000E+00
      21     1     1     2   504   503  8.144538554E+01 -8.948823804E+01  8.165308498E+02  8.254478325E+02  1.078959322E-05  0.00000E+00  9.000E+00
      24     2     3     3     0     0 -8.934255694E+01 -5.016632610E+01 -1.650910633E+02  2.093048165E+02  7.781191608E+01  0.00000E+00  9.000E+00
       5     1     3     3   502     0 -1.798108569E+01  7.467450077E+01 -9.701697902E+01  1.238343035E+02  4.800000000E+00  0.00000E+00 -1.000E+00
     -24     2     4     4     0     0  6.122196243E+01  8.640110438E+01 -7.478217539E+01  1.524326555E+02  8.018766227E+01  0.00000E+00  9.000E+00
      -5     1     4     4     0   505 -3.534370534E+01 -2.142104101E+01  1.400524481E+01  4.390017525E+01  4.800000000E+00  0.00000E+00  1.000E+00
      -3     1     6     6     0   506 -4.477089940E+01 -5.849716190E+01 -1.380899281E+02  1.565094873E+02  2.000000000E-01  0.00000E+00  1.000E+00
       4     1     6     6   506     0 -4.457165754E+01  8.330835809E+00 -2.700113518E+01  5.279532917E+01  1.500000000E+00  0.00000E+00 -1.000E+00
       1     1     8     8   515     0  1.980757671E+01  7.776064660E+01 -7.541689558E+01  1.101216436E+02  1.000000000E-01  0.00000E+00 -1.000E+00
      -2     1     8     8     0   515  4.141438572E+01  8.640457783E+00  6.347201943E-01  4.231101186E+01  1.000000000E-01  0.00000E+00  1.000E+00
#rwgt            1           1   637.03521873307852                2       10557           0
<rwgt>
<wgt id='1001'>0.68707E+03</wgt>
<wgt id='1002'>0.60231E+03</wgt>
<wgt id='1003'>0.80422E+03</wgt>
<wgt id='1004'>0.65002E+03</wgt>
<wgt id='1005'>0.57929E+03</wgt>
<wgt id='1006'>0.74535E+03</wgt>
<wgt id='1007'>0.70496E+03</wgt>
<wgt id='1008'>0.60142E+03</wgt>
<wgt id='1009'>0.85233E+03</wgt>
<wgt id='2000'>0.68707E+03</wgt>
<wgt id='2001'>0.68653E+03</wgt>
<wgt id='2002'>0.68786E+03</wgt>
<wgt id='2003'>0.68753E+03</wgt>
<wgt id='2004'>0.68874E+03</wgt>
<wgt id='2005'>0.68652E+03</wgt>
<wgt id='2006'>0.68540E+03</wgt>
<wgt id='2007'>0.68613E+03</wgt>
<wgt id='2008'>0.68565E+03</wgt>
<wgt id='2009'>0.68805E+03</wgt>
<wgt id='2010'>0.68716E+03</wgt>
<wgt id='2011'>0.68535E+03</wgt>
<wgt id='2012'>0.68654E+03</wgt>
<wgt id='2013'>0.68550E+03</wgt>
<wgt id='2014'>0.68715E+03</wgt>
<wgt id='2015'>0.68716E+03</wgt>
<wgt id='2016'>0.68757E+03</wgt>
<wgt id='2017'>0.68651E+03</wgt>
<wgt id='2018'>0.68654E+03</wgt>
<wgt id='2019'>0.68732E+03</wgt>
<wgt id='2020'>0.68674E+03</wgt>
<wgt id='2021'>0.68726E+03</wgt>
<wgt id='2022'>0.68596E+03</wgt>
<wgt id='2023'>0.68772E+03</wgt>
<wgt id='2024'>0.68557E+03</wgt>
<wgt id='2025'>0.68647E+03</wgt>
<wgt id='2026'>0.68826E+03</wgt>
<wgt id='2027'>0.68582E+03</wgt>
<wgt id='2028'>0.68584E+03</wgt>
<wgt id='2029'>0.69167E+03</wgt>
<wgt id='2030'>0.68734E+03</wgt>
<wgt id='2031'>0.68762E+03</wgt>
<wgt id='2032'>0.68741E+03</wgt>
<wgt id='2033'>0.68787E+03</wgt>
<wgt id='2034'>0.68896E+03</wgt>
<wgt id='2035'>0.68629E+03</wgt>
<wgt id='2036'>0.68613E+03</wgt>
<wgt id='2037'>0.68923E+03</wgt>
<wgt id='2038'>0.68709E+03</wgt>
<wgt id='2039'>0.68573E+03</wgt>
<wgt id='2040'>0.68581E+03</wgt>
<wgt id='2041'>0.68549E+03</wgt>
<wgt id='2042'>0.68554E+03</wgt>
<wgt id='2043'>0.68875E+03</wgt>
<wgt id='2044'>0.68874E+03</wgt>
<wgt id='2045'>0.68650E+03</wgt>
<wgt id='2046'>0.68753E+03</wgt>
<wgt id='2047'>0.68761E+03</wgt>
<wgt id='2048'>0.68696E+03</wgt>
<wgt id='2049'>0.68742E+03</wgt>
<wgt id='2050'>0.68706E+03</wgt>
<wgt id='2051'>0.68839E+03</wgt>
<wgt id='2052'>0.68692E+03</wgt>
<wgt id='2053'>0.68737E+03</wgt>
<wgt id='2054'>0.68721E+03</wgt>
<wgt id='2055'>0.68662E+03</wgt>
<wgt id='2056'>0.68747E+03</wgt>
<wgt id='2057'>0.68764E+03</wgt>
<wgt id='2058'>0.68733E+03</wgt>
<wgt id='2059'>0.68667E+03</wgt>
<wgt id='2060'>0.68719E+03</wgt>
<wgt id='2061'>0.68645E+03</wgt>
<wgt id='2062'>0.68673E+03</wgt>
<wgt id='2063'>0.68754E+03</wgt>
<wgt id='2064'>0.68692E+03</wgt>
<wgt id='2065'>0.68775E+03</wgt>
<wgt id='2066'>0.68718E+03</wgt>
<wgt id='2067'>0.68696E+03</wgt>
<wgt id='2068'>0.68726E+03</wgt>
<wgt id='2069'>0.68708E+03</wgt>
<wgt id='2070'>0.68673E+03</wgt>
<wgt id='2071'>0.68689E+03</wgt>
<wgt id='2072'>0.68720E+03</wgt>
<wgt id='2073'>0.68722E+03</wgt>
<wgt id='2074'>0.68691E+03</wgt>
<wgt id='2075'>0.68702E+03</wgt>
<wgt id='2076'>0.68677E+03</wgt>
<wgt id='2077'>0.68687E+03</wgt>
<wgt id='2078'>0.68723E+03</wgt>
<wgt id='2079'>0.68709E+03</wgt>
<wgt id='2080'>0.68725E+03</wgt>
<wgt id='2081'>0.68733E+03</wgt>
<wgt id='2082'>0.68727E+03</wgt>
<wgt id='2083'>0.68731E+03</wgt>
<wgt id='2084'>0.68701E+03</wgt>
<wgt id='2085'>0.68747E+03</wgt>
<wgt id='2086'>0.68709E+03</wgt>
<wgt id='2087'>0.68692E+03</wgt>
<wgt id='2088'>0.68705E+03</wgt>
<wgt id='2089'>0.68695E+03</wgt>
<wgt id='2090'>0.68704E+03</wgt>
<wgt id='2091'>0.68704E+03</wgt>
<wgt id='2092'>0.68719E+03</wgt>
<wgt id='2093'>0.68705E+03</wgt>
<wgt id='2094'>0.68706E+03</wgt>
<wgt id='2095'>0.68710E+03</wgt>
<wgt id='2096'>0.68685E+03</wgt>
<wgt id='2097'>0.68734E+03</wgt>
<wgt id='2098'>0.68687E+03</wgt>
<wgt id='2099'>0.68719E+03</wgt>
<wgt id='2100'>0.68721E+03</wgt>
<wgt id='2101'>0.67155E+03</wgt>
<wgt id='2102'>0.70341E+03</wgt>
<wgt id='2104'>0.61055E+03</wgt>
<wgt id='2105'>0.62618E+03</wgt>
<wgt id='2106'>0.64096E+03</wgt>
<wgt id='2107'>0.65529E+03</wgt>
<wgt id='2108'>0.67988E+03</wgt>
<wgt id='2109'>0.69568E+03</wgt>
<wgt id='2110'>0.71805E+03</wgt>
<wgt id='2111'>0.73303E+03</wgt>
<wgt id='3000'>0.71441E+03</wgt>
<wgt id='3001'>0.71524E+03</wgt>
<wgt id='3002'>0.71367E+03</wgt>
<wgt id='3003'>0.71407E+03</wgt>
<wgt id='3004'>0.71607E+03</wgt>
<wgt id='3005'>0.71480E+03</wgt>
<wgt id='3006'>0.71399E+03</wgt>
<wgt id='3007'>0.71523E+03</wgt>
<wgt id='3008'>0.71440E+03</wgt>
<wgt id='3009'>0.71591E+03</wgt>
<wgt id='3010'>0.71342E+03</wgt>
<wgt id='3011'>0.71320E+03</wgt>
<wgt id='3012'>0.71462E+03</wgt>
<wgt id='3013'>0.71507E+03</wgt>
<wgt id='3014'>0.71429E+03</wgt>
<wgt id='3015'>0.71365E+03</wgt>
<wgt id='3016'>0.71449E+03</wgt>
<wgt id='3017'>0.71427E+03</wgt>
<wgt id='3018'>0.71494E+03</wgt>
<wgt id='3019'>0.71499E+03</wgt>
<wgt id='3020'>0.71506E+03</wgt>
<wgt id='3021'>0.71514E+03</wgt>
<wgt id='3022'>0.71446E+03</wgt>
<wgt id='3023'>0.71431E+03</wgt>
<wgt id='3024'>0.71419E+03</wgt>
<wgt id='3025'>0.71507E+03</wgt>
<wgt id='3026'>0.71363E+03</wgt>
<wgt id='3027'>0.71484E+03</wgt>
<wgt id='3028'>0.71359E+03</wgt>
<wgt id='3029'>0.71216E+03</wgt>
<wgt id='3030'>0.71847E+03</wgt>
<wgt id='3031'>0.71667E+03</wgt>
<wgt id='3032'>0.71406E+03</wgt>
<wgt id='3033'>0.71504E+03</wgt>
<wgt id='3034'>0.71447E+03</wgt>
<wgt id='3035'>0.71689E+03</wgt>
<wgt id='3036'>0.71565E+03</wgt>
<wgt id='3037'>0.71439E+03</wgt>
<wgt id='3038'>0.71494E+03</wgt>
<wgt id='3039'>0.71584E+03</wgt>
<wgt id='3040'>0.71399E+03</wgt>
<wgt id='3041'>0.71459E+03</wgt>
<wgt id='3042'>0.71216E+03</wgt>
<wgt id='3043'>0.71203E+03</wgt>
<wgt id='3044'>0.71543E+03</wgt>
<wgt id='3045'>0.71603E+03</wgt>
<wgt id='3046'>0.71452E+03</wgt>
<wgt id='3047'>0.71370E+03</wgt>
<wgt id='3048'>0.71585E+03</wgt>
<wgt id='3049'>0.71392E+03</wgt>
<wgt id='3050'>0.71516E+03</wgt>
<wgt id='3051'>0.71490E+03</wgt>
<wgt id='3052'>0.71416E+03</wgt>
<wgt id='3053'>0.71412E+03</wgt>
<wgt id='3054'>0.71419E+03</wgt>
<wgt id='3055'>0.71285E+03</wgt>
<wgt id='3056'>0.71443E+03</wgt>
<wgt id='3057'>0.71380E+03</wgt>
<wgt id='3058'>0.71380E+03</wgt>
<wgt id='3059'>0.71442E+03</wgt>
<wgt id='3060'>0.71484E+03</wgt>
<wgt id='3061'>0.71421E+03</wgt>
<wgt id='3062'>0.71499E+03</wgt>
<wgt id='3063'>0.71443E+03</wgt>
<wgt id='3064'>0.71413E+03</wgt>
<wgt id='3065'>0.71417E+03</wgt>
<wgt id='3066'>0.71475E+03</wgt>
<wgt id='3067'>0.71363E+03</wgt>
<wgt id='3068'>0.71475E+03</wgt>
<wgt id='3069'>0.71429E+03</wgt>
<wgt id='3070'>0.71464E+03</wgt>
<wgt id='3071'>0.71417E+03</wgt>
<wgt id='3072'>0.71442E+03</wgt>
<wgt id='3073'>0.71416E+03</wgt>
<wgt id='3074'>0.71461E+03</wgt>
<wgt id='3075'>0.71457E+03</wgt>
<wgt id='3076'>0.71453E+03</wgt>
<wgt id='3077'>0.71444E+03</wgt>
<wgt id='3078'>0.71453E+03</wgt>
<wgt id='3079'>0.71436E+03</wgt>
<wgt id='3080'>0.71462E+03</wgt>
<wgt id='3081'>0.71451E+03</wgt>
<wgt id='3082'>0.71415E+03</wgt>
<wgt id='3083'>0.71455E+03</wgt>
<wgt id='3084'>0.71426E+03</wgt>
<wgt id='3085'>0.71456E+03</wgt>
<wgt id='3086'>0.71434E+03</wgt>
<wgt id='3087'>0.71413E+03</wgt>
<wgt id='3088'>0.71429E+03</wgt>
<wgt id='3089'>0.71445E+03</wgt>
<wgt id='3090'>0.71462E+03</wgt>
<wgt id='3091'>0.71427E+03</wgt>
<wgt id='3092'>0.71454E+03</wgt>
<wgt id='3093'>0.71432E+03</wgt>
<wgt id='3094'>0.71438E+03</wgt>
<wgt id='3095'>0.71459E+03</wgt>
<wgt id='3096'>0.71426E+03</wgt>
<wgt id='3097'>0.71424E+03</wgt>
<wgt id='3098'>0.71427E+03</wgt>
<wgt id='3099'>0.71461E+03</wgt>
<wgt id='3100'>0.71427E+03</wgt>
<wgt id='3101'>0.69671E+03</wgt>
<wgt id='3102'>0.73099E+03</wgt>
<wgt id='5000'>0.67782E+03</wgt>
<wgt id='5001'>0.67909E+03</wgt>
<wgt id='5002'>0.67904E+03</wgt>
<wgt id='5003'>0.67846E+03</wgt>
<wgt id='5004'>0.67406E+03</wgt>
<wgt id='5005'>0.67095E+03</wgt>
<wgt id='5006'>0.65858E+03</wgt>
<wgt id='5007'>0.66897E+03</wgt>
<wgt id='5008'>0.68189E+03</wgt>
<wgt id='5009'>0.67242E+03</wgt>
<wgt id='5010'>0.67847E+03</wgt>
<wgt id='5011'>0.68028E+03</wgt>
<wgt id='5012'>0.67665E+03</wgt>
<wgt id='5013'>0.68673E+03</wgt>
<wgt id='5014'>0.68726E+03</wgt>
<wgt id='5015'>0.67759E+03</wgt>
<wgt id='5016'>0.67823E+03</wgt>
<wgt id='5017'>0.66712E+03</wgt>
<wgt id='5018'>0.68912E+03</wgt>
<wgt id='5019'>0.68540E+03</wgt>
<wgt id='5020'>0.67052E+03</wgt>
<wgt id='5021'>0.67688E+03</wgt>
<wgt id='5022'>0.67840E+03</wgt>
<wgt id='5023'>0.67495E+03</wgt>
<wgt id='5024'>0.68096E+03</wgt>
<wgt id='5025'>0.68092E+03</wgt>
<wgt id='5026'>0.67524E+03</wgt>
<wgt id='5027'>0.68017E+03</wgt>
<wgt id='5028'>0.67381E+03</wgt>
<wgt id='5029'>0.67442E+03</wgt>
<wgt id='5030'>0.67994E+03</wgt>
<wgt id='5031'>0.67456E+03</wgt>
<wgt id='5032'>0.68267E+03</wgt>
<wgt id='5033'>0.67742E+03</wgt>
<wgt id='5034'>0.67818E+03</wgt>
<wgt id='5035'>0.68375E+03</wgt>
<wgt id='5036'>0.67228E+03</wgt>
<wgt id='5037'>0.66112E+03</wgt>
<wgt id='5038'>0.69669E+03</wgt>
<wgt id='5039'>0.69301E+03</wgt>
<wgt id='5040'>0.66953E+03</wgt>
<wgt id='5041'>0.68066E+03</wgt>
<wgt id='5042'>0.67645E+03</wgt>
<wgt id='5043'>0.68234E+03</wgt>
<wgt id='5044'>0.67765E+03</wgt>
<wgt id='5045'>0.68049E+03</wgt>
<wgt id='5046'>0.66158E+03</wgt>
<wgt id='5047'>0.67796E+03</wgt>
<wgt id='5048'>0.67259E+03</wgt>
<wgt id='5049'>0.67846E+03</wgt>
<wgt id='5050'>0.67697E+03</wgt>
<wgt id='5051'>0.67771E+03</wgt>
<wgt id='5052'>0.67770E+03</wgt>
<wgt id='5053'>0.65729E+03</wgt>
<wgt id='5054'>0.66589E+03</wgt>
<wgt id='5055'>0.67159E+03</wgt>
<wgt id='5056'>0.69039E+03</wgt>
<wgt id='5060'>0.65996E+03</wgt>
<wgt id='5070'>0.69632E+03</wgt>
<wgt id='4000'>0.68564E+03</wgt>
<wgt id='4001'>0.68497E+03</wgt>
<wgt id='4002'>0.68655E+03</wgt>
<wgt id='4003'>0.67245E+03</wgt>
<wgt id='4004'>0.67970E+03</wgt>
<wgt id='4005'>0.68452E+03</wgt>
<wgt id='4006'>0.68751E+03</wgt>
<wgt id='4007'>0.68617E+03</wgt>
<wgt id='4008'>0.67836E+03</wgt>
<wgt id='4009'>0.68645E+03</wgt>
<wgt id='4010'>0.68434E+03</wgt>
<wgt id='4011'>0.69819E+03</wgt>
<wgt id='4012'>0.67607E+03</wgt>
<wgt id='4013'>0.68422E+03</wgt>
<wgt id='4014'>0.68817E+03</wgt>
<wgt id='4015'>0.70025E+03</wgt>
<wgt id='4016'>0.67562E+03</wgt>
<wgt id='4017'>0.67318E+03</wgt>
<wgt id='4018'>0.70038E+03</wgt>
<wgt id='4019'>0.69144E+03</wgt>
<wgt id='4020'>0.67970E+03</wgt>
<wgt id='4021'>0.68808E+03</wgt>
<wgt id='4022'>0.68111E+03</wgt>
<wgt id='4023'>0.68414E+03</wgt>
<wgt id='4024'>0.68728E+03</wgt>
<wgt id='4025'>0.69897E+03</wgt>
<wgt id='4026'>0.67283E+03</wgt>
<wgt id='4027'>0.68679E+03</wgt>
<wgt id='4028'>0.68416E+03</wgt>
<wgt id='4029'>0.68540E+03</wgt>
<wgt id='4030'>0.68579E+03</wgt>
<wgt id='4031'>0.68823E+03</wgt>
<wgt id='4032'>0.68229E+03</wgt>
<wgt id='4033'>0.68063E+03</wgt>
<wgt id='4034'>0.69670E+03</wgt>
<wgt id='4035'>0.67720E+03</wgt>
<wgt id='4036'>0.69430E+03</wgt>
<wgt id='4037'>0.68458E+03</wgt>
<wgt id='4038'>0.68741E+03</wgt>
<wgt id='4039'>0.68547E+03</wgt>
<wgt id='4040'>0.68691E+03</wgt>
<wgt id='4041'>0.68328E+03</wgt>
<wgt id='4042'>0.68878E+03</wgt>
<wgt id='4043'>0.68269E+03</wgt>
<wgt id='4044'>0.69519E+03</wgt>
<wgt id='4045'>0.68325E+03</wgt>
<wgt id='4046'>0.68898E+03</wgt>
<wgt id='4047'>0.68644E+03</wgt>
<wgt id='4048'>0.66962E+03</wgt>
<wgt id='4049'>0.67088E+03</wgt>
<wgt id='4050'>0.68535E+03</wgt>
<wgt id='4051'>0.68714E+03</wgt>
<wgt id='4052'>0.68661E+03</wgt>
<wgt id='4053'>0.66292E+03</wgt>
<wgt id='4054'>0.69391E+03</wgt>
<wgt id='4055'>0.67995E+03</wgt>
<wgt id='4056'>0.69613E+03</wgt>
<wgt id='4060'>0.66873E+03</wgt>
<wgt id='4070'>0.70338E+03</wgt>
<wgt id='4080'>0.63690E+03</wgt>
<wgt id='6000'>0.70211E+03</wgt>
<wgt id='6001'>0.70242E+03</wgt>
<wgt id='6002'>0.70172E+03</wgt>
<wgt id='6003'>0.70288E+03</wgt>
<wgt id='6004'>0.70158E+03</wgt>
<wgt id='6005'>0.70602E+03</wgt>
<wgt id='6006'>0.69847E+03</wgt>
<wgt id='6007'>0.69945E+03</wgt>
<wgt id='6008'>0.70507E+03</wgt>
<wgt id='6009'>0.70276E+03</wgt>
<wgt id='6010'>0.70143E+03</wgt>
<wgt id='6011'>0.70277E+03</wgt>
<wgt id='6012'>0.70066E+03</wgt>
<wgt id='6013'>0.70189E+03</wgt>
<wgt id='6014'>0.70250E+03</wgt>
<wgt id='6015'>0.70101E+03</wgt>
<wgt id='6016'>0.70275E+03</wgt>
<wgt id='6017'>0.69930E+03</wgt>
<wgt id='6018'>0.70542E+03</wgt>
<wgt id='6019'>0.70270E+03</wgt>
<wgt id='6020'>0.70159E+03</wgt>
<wgt id='6021'>0.70048E+03</wgt>
<wgt id='6022'>0.70421E+03</wgt>
<wgt id='6023'>0.69786E+03</wgt>
<wgt id='6024'>0.70494E+03</wgt>
<wgt id='6025'>0.70251E+03</wgt>
<wgt id='6026'>0.70172E+03</wgt>
<wgt id='6027'>0.70273E+03</wgt>
<wgt id='6028'>0.70173E+03</wgt>
<wgt id='6029'>0.70029E+03</wgt>
<wgt id='6030'>0.70433E+03</wgt>
<wgt id='6031'>0.69529E+03</wgt>
<wgt id='6032'>0.70978E+03</wgt>
<wgt id='6033'>0.70525E+03</wgt>
<wgt id='6034'>0.69903E+03</wgt>
<wgt id='6035'>0.70324E+03</wgt>
<wgt id='6036'>0.69946E+03</wgt>
<wgt id='6037'>0.70231E+03</wgt>
<wgt id='6038'>0.70201E+03</wgt>
<wgt id='6039'>0.70041E+03</wgt>
<wgt id='6040'>0.70399E+03</wgt>
<wgt id='6041'>0.69685E+03</wgt>
<wgt id='6042'>0.70802E+03</wgt>
<wgt id='6043'>0.70777E+03</wgt>
<wgt id='6044'>0.69899E+03</wgt>
<wgt id='6045'>0.70130E+03</wgt>
<wgt id='6046'>0.70414E+03</wgt>
<wgt id='6047'>0.71024E+03</wgt>
<wgt id='6048'>0.69066E+03</wgt>
<wgt id='6049'>0.70559E+03</wgt>
<wgt id='6050'>0.70027E+03</wgt>
<wgt id='7000'>0.67557E+03</wgt>
<wgt id='7001'>0.67526E+03</wgt>
<wgt id='7002'>0.67598E+03</wgt>
<wgt id='7003'>0.67777E+03</wgt>
<wgt id='7004'>0.67343E+03</wgt>
<wgt id='7005'>0.67766E+03</wgt>
<wgt id='7006'>0.67473E+03</wgt>
<wgt id='7007'>0.67489E+03</wgt>
<wgt id='7008'>0.67629E+03</wgt>
<wgt id='7009'>0.67607E+03</wgt>
<wgt id='7010'>0.67512E+03</wgt>
<wgt id='7011'>0.67360E+03</wgt>
<wgt id='7012'>0.67643E+03</wgt>
<wgt id='7013'>0.67553E+03</wgt>
<wgt id='7014'>0.67564E+03</wgt>
<wgt id='7015'>0.67532E+03</wgt>
<wgt id='7016'>0.67584E+03</wgt>
<wgt id='7017'>0.67595E+03</wgt>
<wgt id='7018'>0.67534E+03</wgt>
<wgt id='7019'>0.67551E+03</wgt>
<wgt id='7020'>0.67568E+03</wgt>
<wgt id='7021'>0.67477E+03</wgt>
<wgt id='7022'>0.67611E+03</wgt>
<wgt id='7023'>0.68183E+03</wgt>
<wgt id='7024'>0.66969E+03</wgt>
<wgt id='7025'>0.67757E+03</wgt>
<wgt id='7026'>0.67059E+03</wgt>
<wgt id='7027'>0.67622E+03</wgt>
<wgt id='7028'>0.67452E+03</wgt>
<wgt id='7029'>0.67724E+03</wgt>
<wgt id='7030'>0.67180E+03</wgt>
<wgt id='7031'>0.67261E+03</wgt>
<wgt id='7032'>0.68175E+03</wgt>
<wgt id='7033'>0.67645E+03</wgt>
<wgt id='7034'>0.67380E+03</wgt>
<wgt id='7035'>0.67163E+03</wgt>
<wgt id='7036'>0.67731E+03</wgt>
<wgt id='7037'>0.67519E+03</wgt>
<wgt id='7038'>0.67583E+03</wgt>
<wgt id='7039'>0.67323E+03</wgt>
<wgt id='7040'>0.67736E+03</wgt>
<wgt id='7041'>0.67646E+03</wgt>
<wgt id='7042'>0.67383E+03</wgt>
<wgt id='7043'>0.67626E+03</wgt>
<wgt id='7044'>0.67168E+03</wgt>
<wgt id='7045'>0.66621E+03</wgt>
<wgt id='7046'>0.68178E+03</wgt>
<wgt id='7047'>0.67956E+03</wgt>
<wgt id='7048'>0.67375E+03</wgt>
<wgt id='7049'>0.67119E+03</wgt>
<wgt id='7050'>0.67804E+03</wgt>
<wgt id='7060'>0.81050E+03</wgt>
<wgt id='8000'>0.67455E+03</wgt>
<wgt id='8001'>0.67449E+03</wgt>
<wgt id='8002'>0.67475E+03</wgt>
<wgt id='8003'>0.67456E+03</wgt>
<wgt id='8004'>0.67453E+03</wgt>
<wgt id='8005'>0.67335E+03</wgt>
<wgt id='8006'>0.67527E+03</wgt>
<wgt id='8007'>0.67597E+03</wgt>
<wgt id='8008'>0.67605E+03</wgt>
<wgt id='8009'>0.67739E+03</wgt>
<wgt id='8010'>0.67375E+03</wgt>
<wgt id='8011'>0.67475E+03</wgt>
<wgt id='8012'>0.67195E+03</wgt>
<wgt id='8013'>0.67323E+03</wgt>
<wgt id='8014'>0.67621E+03</wgt>
<wgt id='8015'>0.67423E+03</wgt>
<wgt id='8016'>0.67525E+03</wgt>
<wgt id='8017'>0.67507E+03</wgt>
<wgt id='8018'>0.67631E+03</wgt>
<wgt id='8019'>0.67494E+03</wgt>
<wgt id='8020'>0.67426E+03</wgt>
<wgt id='8021'>0.67401E+03</wgt>
<wgt id='8022'>0.67384E+03</wgt>
<wgt id='8023'>0.67395E+03</wgt>
<wgt id='8024'>0.67251E+03</wgt>
<wgt id='8025'>0.67415E+03</wgt>
<wgt id='8026'>0.67538E+03</wgt>
<wgt id='8027'>0.67497E+03</wgt>
<wgt id='8028'>0.67514E+03</wgt>
<wgt id='8029'>0.67357E+03</wgt>
<wgt id='8500'>0.70608E+03</wgt>
<wgt id='8501'>0.70152E+03</wgt>
<wgt id='8502'>0.71113E+03</wgt>
<wgt id='8503'>0.70816E+03</wgt>
<wgt id='8504'>0.70262E+03</wgt>
<wgt id='8505'>0.70496E+03</wgt>
<wgt id='8506'>0.71080E+03</wgt>
<wgt id='8507'>0.69836E+03</wgt>
<wgt id='8508'>0.69455E+03</wgt>
<wgt id='8509'>0.71101E+03</wgt>
<wgt id='8510'>0.71454E+03</wgt>
<wgt id='8511'>0.70525E+03</wgt>
<wgt id='8512'>0.70552E+03</wgt>
<wgt id='8513'>0.70580E+03</wgt>
<wgt id='8514'>0.69654E+03</wgt>
<wgt id='8515'>0.71128E+03</wgt>
<wgt id='8516'>0.70424E+03</wgt>
<wgt id='8517'>0.70407E+03</wgt>
<wgt id='8518'>0.70070E+03</wgt>
<wgt id='8519'>0.69976E+03</wgt>
<wgt id='8520'>0.70480E+03</wgt>
<wgt id='8521'>0.70457E+03</wgt>
<wgt id='8522'>0.70844E+03</wgt>
<wgt id='8523'>0.70325E+03</wgt>
<wgt id='8524'>0.70876E+03</wgt>
<wgt id='8525'>0.70652E+03</wgt>
<wgt id='8526'>0.70587E+03</wgt>
<wgt id='8527'>0.70611E+03</wgt>
<wgt id='8528'>0.70504E+03</wgt>
<wgt id='8529'>0.70526E+03</wgt>
<wgt id='8530'>0.70640E+03</wgt>
<wgt id='8531'>0.70593E+03</wgt>
<wgt id='8532'>0.70600E+03</wgt>
<wgt id='8533'>0.70481E+03</wgt>
<wgt id='8534'>0.70646E+03</wgt>
<wgt id='8535'>0.70792E+03</wgt>
<wgt id='8536'>0.70582E+03</wgt>
<wgt id='8537'>0.70594E+03</wgt>
<wgt id='8538'>0.70615E+03</wgt>
<wgt id='8539'>0.70638E+03</wgt>
<wgt id='8540'>0.70671E+03</wgt>
<wgt id='8541'>0.70658E+03</wgt>
<wgt id='8542'>0.70632E+03</wgt>
<wgt id='8543'>0.70515E+03</wgt>
<wgt id='8544'>0.70691E+03</wgt>
<wgt id='8545'>0.70653E+03</wgt>
<wgt id='8546'>0.70680E+03</wgt>
<wgt id='8547'>0.70553E+03</wgt>
<wgt id='8548'>0.70559E+03</wgt>
<wgt id='8549'>0.70631E+03</wgt>
<wgt id='8550'>0.70546E+03</wgt>
<wgt id='8551'>0.70565E+03</wgt>
<wgt id='8552'>0.70561E+03</wgt>
<wgt id='8553'>0.70508E+03</wgt>
<wgt id='8554'>0.70558E+03</wgt>
<wgt id='8555'>0.70614E+03</wgt>
<wgt id='8556'>0.70576E+03</wgt>
<wgt id='8557'>0.70624E+03</wgt>
<wgt id='8558'>0.70680E+03</wgt>
<wgt id='8559'>0.70596E+03</wgt>
<wgt id='8560'>0.70512E+03</wgt>
<wgt id='8561'>0.70651E+03</wgt>
<wgt id='8562'>0.70584E+03</wgt>
<wgt id='8563'>0.70621E+03</wgt>
<wgt id='8564'>0.70571E+03</wgt>
<wgt id='8565'>0.70635E+03</wgt>
<wgt id='8566'>0.70654E+03</wgt>
<wgt id='8567'>0.70603E+03</wgt>
<wgt id='8568'>0.70662E+03</wgt>
<wgt id='8569'>0.70645E+03</wgt>
<wgt id='8570'>0.70574E+03</wgt>
<wgt id='8571'>0.70547E+03</wgt>
<wgt id='8572'>0.70573E+03</wgt>
<wgt id='8573'>0.70560E+03</wgt>
<wgt id='8574'>0.70568E+03</wgt>
<wgt id='8575'>0.70565E+03</wgt>
<wgt id='8576'>0.70629E+03</wgt>
<wgt id='8577'>0.70586E+03</wgt>
<wgt id='8578'>0.70591E+03</wgt>
<wgt id='8579'>0.70683E+03</wgt>
<wgt id='8580'>0.70601E+03</wgt>
<wgt id='8581'>0.70650E+03</wgt>
<wgt id='8582'>0.70556E+03</wgt>
<wgt id='8583'>0.70614E+03</wgt>
<wgt id='8584'>0.70652E+03</wgt>
<wgt id='8585'>0.70621E+03</wgt>
<wgt id='8586'>0.70684E+03</wgt>
<wgt id='8587'>0.70614E+03</wgt>
<wgt id='8588'>0.70607E+03</wgt>
<wgt id='8589'>0.70615E+03</wgt>
<wgt id='8590'>0.70620E+03</wgt>
<wgt id='8591'>0.70571E+03</wgt>
<wgt id='8592'>0.70607E+03</wgt>
<wgt id='8593'>0.70584E+03</wgt>
<wgt id='8594'>0.70598E+03</wgt>
<wgt id='8595'>0.70593E+03</wgt>
<wgt id='8596'>0.70605E+03</wgt>
<wgt id='8597'>0.70620E+03</wgt>
<wgt id='8598'>0.70619E+03</wgt>
<wgt id='8599'>0.70609E+03</wgt>
<wgt id='8600'>0.70618E+03</wgt>
<wgt id='8601'>0.69654E+03</wgt>
<wgt id='8602'>0.71561E+03</wgt>
<wgt id='9000'>0.68124E+03</wgt>
<wgt id='9001'>0.68117E+03</wgt>
<wgt id='9002'>0.68346E+03</wgt>
<wgt id='9003'>0.67767E+03</wgt>
<wgt id='9004'>0.68209E+03</wgt>
<wgt id='9005'>0.68500E+03</wgt>
<wgt id='9006'>0.68091E+03</wgt>
<wgt id='9007'>0.67781E+03</wgt>
<wgt id='9008'>0.68008E+03</wgt>
<wgt id='9009'>0.68129E+03</wgt>
<wgt id='9010'>0.67746E+03</wgt>
<wgt id='9011'>0.68613E+03</wgt>
<wgt id='9012'>0.68504E+03</wgt>
<wgt id='9013'>0.67860E+03</wgt>
<wgt id='9014'>0.68268E+03</wgt>
<wgt id='9015'>0.67992E+03</wgt>
<wgt id='9016'>0.68764E+03</wgt>
<wgt id='9017'>0.67598E+03</wgt>
<wgt id='9018'>0.68215E+03</wgt>
<wgt id='9019'>0.68307E+03</wgt>
<wgt id='9020'>0.68672E+03</wgt>
<wgt id='9021'>0.68165E+03</wgt>
<wgt id='9022'>0.68301E+03</wgt>
<wgt id='9023'>0.67661E+03</wgt>
<wgt id='9024'>0.67887E+03</wgt>
<wgt id='9025'>0.68507E+03</wgt>
<wgt id='9026'>0.68152E+03</wgt>
<wgt id='9027'>0.68016E+03</wgt>
<wgt id='9028'>0.68207E+03</wgt>
<wgt id='9029'>0.68135E+03</wgt>
<wgt id='9030'>0.68090E+03</wgt>
<wgt id='9031'>0.68055E+03</wgt>
<wgt id='9032'>0.68179E+03</wgt>
<wgt id='9033'>0.68201E+03</wgt>
<wgt id='9034'>0.68154E+03</wgt>
<wgt id='9035'>0.68187E+03</wgt>
<wgt id='9036'>0.68155E+03</wgt>
<wgt id='9037'>0.68155E+03</wgt>
<wgt id='9038'>0.68162E+03</wgt>
<wgt id='9039'>0.68143E+03</wgt>
<wgt id='9040'>0.68092E+03</wgt>
<wgt id='9041'>0.68122E+03</wgt>
<wgt id='9042'>0.68139E+03</wgt>
<wgt id='9043'>0.68022E+03</wgt>
<wgt id='9044'>0.68173E+03</wgt>
<wgt id='9045'>0.68142E+03</wgt>
<wgt id='9046'>0.68025E+03</wgt>
<wgt id='9047'>0.68147E+03</wgt>
<wgt id='9048'>0.68148E+03</wgt>
<wgt id='9049'>0.68075E+03</wgt>
<wgt id='9050'>0.68134E+03</wgt>
<wgt id='9051'>0.68187E+03</wgt>
<wgt id='9052'>0.68182E+03</wgt>
<wgt id='9053'>0.68113E+03</wgt>
<wgt id='9054'>0.68096E+03</wgt>
<wgt id='9055'>0.68084E+03</wgt>
<wgt id='9056'>0.68166E+03</wgt>
<wgt id='9057'>0.68141E+03</wgt>
<wgt id='9058'>0.68046E+03</wgt>
<wgt id='9059'>0.68078E+03</wgt>
<wgt id='9060'>0.68085E+03</wgt>
<wgt id='9061'>0.68126E+03</wgt>
<wgt id='9062'>0.68132E+03</wgt>
<wgt id='9063'>0.68147E+03</wgt>
<wgt id='9064'>0.68135E+03</wgt>
<wgt id='9065'>0.68118E+03</wgt>
<wgt id='9066'>0.68129E+03</wgt>
<wgt id='9067'>0.68127E+03</wgt>
<wgt id='9068'>0.68153E+03</wgt>
<wgt id='9069'>0.68167E+03</wgt>
<wgt id='9070'>0.68109E+03</wgt>
<wgt id='9071'>0.68165E+03</wgt>
<wgt id='9072'>0.68174E+03</wgt>
<wgt id='9073'>0.68116E+03</wgt>
<wgt id='9074'>0.68144E+03</wgt>
<wgt id='9075'>0.68112E+03</wgt>
<wgt id='9076'>0.68118E+03</wgt>
<wgt id='9077'>0.68151E+03</wgt>
<wgt id='9078'>0.68116E+03</wgt>
<wgt id='9079'>0.68099E+03</wgt>
<wgt id='9080'>0.68214E+03</wgt>
<wgt id='9081'>0.68092E+03</wgt>
<wgt id='9082'>0.68141E+03</wgt>
<wgt id='9083'>0.68099E+03</wgt>
<wgt id='9084'>0.68093E+03</wgt>
<wgt id='9085'>0.68082E+03</wgt>
<wgt id='9086'>0.68147E+03</wgt>
<wgt id='9087'>0.68036E+03</wgt>
<wgt id='9088'>0.68109E+03</wgt>
<wgt id='9089'>0.68101E+03</wgt>
<wgt id='9090'>0.68142E+03</wgt>
<wgt id='9091'>0.68102E+03</wgt>
<wgt id='9092'>0.68105E+03</wgt>
<wgt id='9093'>0.68099E+03</wgt>
<wgt id='9094'>0.68108E+03</wgt>
<wgt id='9095'>0.68122E+03</wgt>
<wgt id='9096'>0.68117E+03</wgt>
<wgt id='9097'>0.68128E+03</wgt>
<wgt id='9098'>0.68124E+03</wgt>
<wgt id='9099'>0.68090E+03</wgt>
<wgt id='9100'>0.68133E+03</wgt>
<wgt id='9101'>0.67229E+03</wgt>
<wgt id='9102'>0.69069E+03</wgt>
<wgt id='10000'>0.70610E+03</wgt>
<wgt id='10001'>0.71068E+03</wgt>
<wgt id='10002'>0.69872E+03</wgt>
<wgt id='10003'>0.70578E+03</wgt>
<wgt id='10004'>0.69228E+03</wgt>
<wgt id='10005'>0.70982E+03</wgt>
<wgt id='10006'>0.70188E+03</wgt>
<wgt id='10007'>0.70616E+03</wgt>
<wgt id='10008'>0.70899E+03</wgt>
<wgt id='10009'>0.70212E+03</wgt>
<wgt id='10010'>0.70888E+03</wgt>
<wgt id='10011'>0.70106E+03</wgt>
<wgt id='10012'>0.70555E+03</wgt>
<wgt id='10013'>0.70716E+03</wgt>
<wgt id='10014'>0.70469E+03</wgt>
<wgt id='10015'>0.70574E+03</wgt>
<wgt id='10016'>0.70246E+03</wgt>
<wgt id='10017'>0.71254E+03</wgt>
<wgt id='10018'>0.70779E+03</wgt>
<wgt id='10019'>0.70375E+03</wgt>
<wgt id='10020'>0.70341E+03</wgt>
<wgt id='10021'>0.70489E+03</wgt>
<wgt id='10022'>0.70568E+03</wgt>
<wgt id='10023'>0.70703E+03</wgt>
<wgt id='10024'>0.70523E+03</wgt>
<wgt id='10025'>0.70540E+03</wgt>
<wgt id='10026'>0.71005E+03</wgt>
<wgt id='10027'>0.70817E+03</wgt>
<wgt id='10028'>0.71822E+03</wgt>
<wgt id='10029'>0.70646E+03</wgt>
<wgt id='10030'>0.70580E+03</wgt>
<wgt id='10031'>0.69654E+03</wgt>
<wgt id='10032'>0.71561E+03</wgt>
<wgt id='11000'>0.68125E+03</wgt>
<wgt id='11001'>0.66707E+03</wgt>
<wgt id='11002'>0.68326E+03</wgt>
<wgt id='11003'>0.68101E+03</wgt>
<wgt id='11004'>0.68355E+03</wgt>
<wgt id='11005'>0.68123E+03</wgt>
<wgt id='11006'>0.68146E+03</wgt>
<wgt id='11007'>0.68027E+03</wgt>
<wgt id='11008'>0.68149E+03</wgt>
<wgt id='11009'>0.67951E+03</wgt>
<wgt id='11010'>0.67868E+03</wgt>
<wgt id='11011'>0.67978E+03</wgt>
<wgt id='11012'>0.68160E+03</wgt>
<wgt id='11013'>0.68258E+03</wgt>
<wgt id='11014'>0.68045E+03</wgt>
<wgt id='11015'>0.68110E+03</wgt>
<wgt id='11016'>0.68137E+03</wgt>
<wgt id='11017'>0.68318E+03</wgt>
<wgt id='11018'>0.68117E+03</wgt>
<wgt id='11019'>0.68086E+03</wgt>
<wgt id='11020'>0.68247E+03</wgt>
<wgt id='11021'>0.68211E+03</wgt>
<wgt id='11022'>0.68733E+03</wgt>
<wgt id='11023'>0.68126E+03</wgt>
<wgt id='11024'>0.68185E+03</wgt>
<wgt id='11025'>0.68125E+03</wgt>
<wgt id='11026'>0.68124E+03</wgt>
<wgt id='11027'>0.68124E+03</wgt>
<wgt id='11028'>0.68155E+03</wgt>
<wgt id='11029'>0.68101E+03</wgt>
<wgt id='11030'>0.68138E+03</wgt>
<wgt id='11031'>0.67229E+03</wgt>
<wgt id='11032'>0.69069E+03</wgt>
<wgt id='12000'>0.67522E+03</wgt>
<wgt id='12001'>0.67430E+03</wgt>
<wgt id='12002'>0.67613E+03</wgt>
<wgt id='12003'>0.67565E+03</wgt>
<wgt id='12004'>0.67478E+03</wgt>
<wgt id='12005'>0.67623E+03</wgt>
<wgt id='12006'>0.67421E+03</wgt>
<wgt id='12007'>0.67875E+03</wgt>
<wgt id='12008'>0.67175E+03</wgt>
<wgt id='12009'>0.67461E+03</wgt>
<wgt id='12010'>0.67585E+03</wgt>
<wgt id='12011'>0.67063E+03</wgt>
<wgt id='12012'>0.68030E+03</wgt>
<wgt id='12013'>0.67338E+03</wgt>
<wgt id='12014'>0.67709E+03</wgt>
<wgt id='12015'>0.67690E+03</wgt>
<wgt id='12016'>0.67233E+03</wgt>
<wgt id='12017'>0.67837E+03</wgt>
<wgt id='12018'>0.67327E+03</wgt>
<wgt id='12019'>0.67620E+03</wgt>
<wgt id='12020'>0.67370E+03</wgt>
<wgt id='12021'>0.67657E+03</wgt>
<wgt id='12022'>0.67380E+03</wgt>
<wgt id='12023'>0.66945E+03</wgt>
<wgt id='12024'>0.67970E+03</wgt>
<wgt id='12025'>0.67266E+03</wgt>
<wgt id='12026'>0.67805E+03</wgt>
<wgt id='12027'>0.68379E+03</wgt>
<wgt id='12028'>0.66736E+03</wgt>
<wgt id='12050'>0.67522E+03</wgt>
<wgt id='12051'>0.67647E+03</wgt>
<wgt id='12052'>0.67013E+03</wgt>
<wgt id='12053'>0.67652E+03</wgt>
<wgt id='12054'>0.67143E+03</wgt>
<wgt id='12055'>0.67367E+03</wgt>
<wgt id='12056'>0.67775E+03</wgt>
<wgt id='12057'>0.67359E+03</wgt>
<wgt id='12058'>0.67490E+03</wgt>
<wgt id='12059'>0.67791E+03</wgt>
<wgt id='12060'>0.67046E+03</wgt>
<wgt id='12061'>0.67055E+03</wgt>
<wgt id='12062'>0.67282E+03</wgt>
<wgt id='12063'>0.67129E+03</wgt>
<wgt id='13000'>0.67487E+03</wgt>
<wgt id='13001'>0.67190E+03</wgt>
<wgt id='13002'>0.67334E+03</wgt>
<wgt id='13003'>0.67238E+03</wgt>
<wgt id='13004'>0.67286E+03</wgt>
<wgt id='13005'>0.67345E+03</wgt>
<wgt id='13006'>0.67179E+03</wgt>
<wgt id='13007'>0.67680E+03</wgt>
<wgt id='13008'>0.66856E+03</wgt>
<wgt id='13009'>0.66974E+03</wgt>
<wgt id='13010'>0.67561E+03</wgt>
<wgt id='13011'>0.67513E+03</wgt>
<wgt id='13012'>0.67014E+03</wgt>
<wgt id='13013'>0.67179E+03</wgt>
<wgt id='13014'>0.67339E+03</wgt>
<wgt id='13015'>0.67223E+03</wgt>
<wgt id='13016'>0.67113E+03</wgt>
<wgt id='13017'>0.67282E+03</wgt>
<wgt id='13018'>0.67247E+03</wgt>
<wgt id='13019'>0.67204E+03</wgt>
<wgt id='13020'>0.67332E+03</wgt>
<wgt id='13021'>0.67424E+03</wgt>
<wgt id='13022'>0.67087E+03</wgt>
<wgt id='13023'>0.66949E+03</wgt>
<wgt id='13024'>0.67577E+03</wgt>
<wgt id='13025'>0.66445E+03</wgt>
<wgt id='13026'>0.68011E+03</wgt>
<wgt id='13027'>0.66953E+03</wgt>
<wgt id='13028'>0.67620E+03</wgt>
<wgt id='13050'>0.67487E+03</wgt>
<wgt id='13051'>0.67520E+03</wgt>
<wgt id='13052'>0.66686E+03</wgt>
<wgt id='13053'>0.67482E+03</wgt>
<wgt id='13054'>0.67065E+03</wgt>
<wgt id='13055'>0.66260E+03</wgt>
<wgt id='13056'>0.67000E+03</wgt>
<wgt id='13057'>0.67185E+03</wgt>
<wgt id='13058'>0.67519E+03</wgt>
<wgt id='13059'>0.67559E+03</wgt>
<wgt id='13060'>0.65711E+03</wgt>
<wgt id='13061'>0.67209E+03</wgt>
<wgt id='13062'>0.67534E+03</wgt>
<wgt id='13063'>0.67577E+03</wgt>
<wgt id='14000'>0.68344E+03</wgt>
<wgt id='14001'>0.68336E+03</wgt>
<wgt id='14002'>0.68328E+03</wgt>
<wgt id='14003'>0.68319E+03</wgt>
<wgt id='14004'>0.68311E+03</wgt>
<wgt id='14005'>0.68303E+03</wgt>
<wgt id='14006'>0.68294E+03</wgt>
<wgt id='14007'>0.68286E+03</wgt>
<wgt id='14008'>0.68278E+03</wgt>
<wgt id='14009'>0.68270E+03</wgt>
<wgt id='14010'>0.68261E+03</wgt>
<wgt id='14011'>0.68253E+03</wgt>
<wgt id='14012'>0.68245E+03</wgt>
<wgt id='14013'>0.68236E+03</wgt>
<wgt id='14014'>0.68228E+03</wgt>
<wgt id='14015'>0.68220E+03</wgt>
<wgt id='14016'>0.68211E+03</wgt>
<wgt id='14017'>0.68203E+03</wgt>
<wgt id='14018'>0.68195E+03</wgt>
<wgt id='14019'>0.68187E+03</wgt>
<wgt id='14020'>0.68178E+03</wgt>
<wgt id='14021'>0.68170E+03</wgt>
<wgt id='14022'>0.68162E+03</wgt>
<wgt id='14023'>0.68154E+03</wgt>
<wgt id='14024'>0.68145E+03</wgt>
<wgt id='14025'>0.68137E+03</wgt>
<wgt id='14026'>0.68129E+03</wgt>
<wgt id='14027'>0.68121E+03</wgt>
<wgt id='14028'>0.68112E+03</wgt>
<wgt id='14029'>0.68104E+03</wgt>
<wgt id='14030'>0.68096E+03</wgt>
<wgt id='15000'>0.67304E+03</wgt>
<wgt id='15001'>0.67289E+03</wgt>
<wgt id='15002'>0.67507E+03</wgt>
<wgt id='15003'>0.66969E+03</wgt>
<wgt id='15004'>0.67391E+03</wgt>
<wgt id='15005'>0.67681E+03</wgt>
<wgt id='15006'>0.67288E+03</wgt>
<wgt id='15007'>0.66968E+03</wgt>
<wgt id='15008'>0.67189E+03</wgt>
<wgt id='15009'>0.67316E+03</wgt>
<wgt id='15010'>0.66941E+03</wgt>
<wgt id='15011'>0.67796E+03</wgt>
<wgt id='15012'>0.67683E+03</wgt>
<wgt id='15013'>0.67064E+03</wgt>
<wgt id='15014'>0.67430E+03</wgt>
<wgt id='15015'>0.67137E+03</wgt>
<wgt id='15016'>0.67945E+03</wgt>
<wgt id='15017'>0.66785E+03</wgt>
<wgt id='15018'>0.67394E+03</wgt>
<wgt id='15019'>0.67495E+03</wgt>
<wgt id='15020'>0.67864E+03</wgt>
<wgt id='15021'>0.67327E+03</wgt>
<wgt id='15022'>0.67480E+03</wgt>
<wgt id='15023'>0.66849E+03</wgt>
<wgt id='15024'>0.67061E+03</wgt>
<wgt id='15025'>0.67676E+03</wgt>
<wgt id='15026'>0.67319E+03</wgt>
<wgt id='15027'>0.67207E+03</wgt>
<wgt id='15028'>0.67395E+03</wgt>
<wgt id='15029'>0.67310E+03</wgt>
<wgt id='15030'>0.67262E+03</wgt>
<wgt id='15031'>0.67254E+03</wgt>
<wgt id='15032'>0.67358E+03</wgt>
<wgt id='15033'>0.67381E+03</wgt>
<wgt id='15034'>0.67328E+03</wgt>
<wgt id='15035'>0.67364E+03</wgt>
<wgt id='15036'>0.67335E+03</wgt>
<wgt id='15037'>0.67339E+03</wgt>
<wgt id='15038'>0.67341E+03</wgt>
<wgt id='15039'>0.67319E+03</wgt>
<wgt id='15040'>0.67271E+03</wgt>
<wgt id='15041'>0.67295E+03</wgt>
<wgt id='15042'>0.67315E+03</wgt>
<wgt id='15043'>0.67216E+03</wgt>
<wgt id='15044'>0.67352E+03</wgt>
<wgt id='15045'>0.67319E+03</wgt>
<wgt id='15046'>0.67210E+03</wgt>
<wgt id='15047'>0.67320E+03</wgt>
<wgt id='15048'>0.67330E+03</wgt>
<wgt id='15049'>0.67251E+03</wgt>
<wgt id='15050'>0.67317E+03</wgt>
<wgt id='15051'>0.67367E+03</wgt>
<wgt id='15052'>0.67360E+03</wgt>
<wgt id='15053'>0.67297E+03</wgt>
<wgt id='15054'>0.67278E+03</wgt>
<wgt id='15055'>0.67266E+03</wgt>
<wgt id='15056'>0.67341E+03</wgt>
<wgt id='15057'>0.67319E+03</wgt>
<wgt id='15058'>0.67235E+03</wgt>
<wgt id='15059'>0.67262E+03</wgt>
<wgt id='15060'>0.67268E+03</wgt>
<wgt id='15061'>0.67307E+03</wgt>
<wgt id='15062'>0.67310E+03</wgt>
<wgt id='15063'>0.67327E+03</wgt>
<wgt id='15064'>0.67315E+03</wgt>
<wgt id='15065'>0.67298E+03</wgt>
<wgt id='15066'>0.67309E+03</wgt>
<wgt id='15067'>0.67305E+03</wgt>
<wgt id='15068'>0.67334E+03</wgt>
<wgt id='15069'>0.67344E+03</wgt>
<wgt id='15070'>0.67288E+03</wgt>
<wgt id='15071'>0.67348E+03</wgt>
<wgt id='15072'>0.67353E+03</wgt>
<wgt id='15073'>0.67294E+03</wgt>
<wgt id='15074'>0.67324E+03</wgt>
<wgt id='15075'>0.67291E+03</wgt>
<wgt id='15076'>0.67303E+03</wgt>
<wgt id='15077'>0.67331E+03</wgt>
<wgt id='15078'>0.67301E+03</wgt>
<wgt id='15079'>0.67280E+03</wgt>
<wgt id='15080'>0.67389E+03</wgt>
<wgt id='15081'>0.67275E+03</wgt>
<wgt id='15082'>0.67323E+03</wgt>
<wgt id='15083'>0.67278E+03</wgt>
<wgt id='15084'>0.67272E+03</wgt>
<wgt id='15085'>0.67265E+03</wgt>
<wgt id='15086'>0.67330E+03</wgt>
<wgt id='15087'>0.67216E+03</wgt>
<wgt id='15088'>0.67288E+03</wgt>
<wgt id='15089'>0.67280E+03</wgt>
<wgt id='15090'>0.67321E+03</wgt>
<wgt id='15091'>0.67282E+03</wgt>
<wgt id='15092'>0.67284E+03</wgt>
<wgt id='15093'>0.67279E+03</wgt>
<wgt id='15094'>0.67287E+03</wgt>
<wgt id='15095'>0.67303E+03</wgt>
<wgt id='15096'>0.67298E+03</wgt>
<wgt id='15097'>0.67309E+03</wgt>
<wgt id='15098'>0.67305E+03</wgt>
<wgt id='15099'>0.67271E+03</wgt>
<wgt id='15100'>0.67313E+03</wgt>
<wgt id='15101'>0.67303E+03</wgt>
<wgt id='15102'>0.67299E+03</wgt>
<wgt id='15103'>0.67304E+03</wgt>
<wgt id='15104'>0.67305E+03</wgt>
<wgt id='15105'>0.67306E+03</wgt>
<wgt id='15106'>0.67304E+03</wgt>
<wgt id='15107'>0.67300E+03</wgt>
<wgt id='1500'>0.72906E+03</wgt>
<wgt id='1501'>0.72263E+03</wgt>
<wgt id='1502'>0.73610E+03</wgt>
<wgt id='1503'>0.75450E+03</wgt>
<wgt id='1504'>0.71158E+03</wgt>
<wgt id='1505'>0.70064E+03</wgt>
<wgt id='1506'>0.73485E+03</wgt>
<wgt id='1507'>0.72641E+03</wgt>
<wgt id='1508'>0.73295E+03</wgt>
<wgt id='1509'>0.74312E+03</wgt>
<wgt id='1510'>0.72756E+03</wgt>
<wgt id='1511'>0.69171E+03</wgt>
<wgt id='1512'>0.73332E+03</wgt>
<wgt id='1513'>0.72153E+03</wgt>
<wgt id='1514'>0.72718E+03</wgt>
<wgt id='1515'>0.73677E+03</wgt>
<wgt id='1516'>0.74113E+03</wgt>
<wgt id='1517'>0.74695E+03</wgt>
<wgt id='1518'>0.74472E+03</wgt>
<wgt id='1519'>0.73086E+03</wgt>
<wgt id='1520'>0.76317E+03</wgt>
<wgt id='1521'>0.72322E+03</wgt>
<wgt id='1522'>0.71731E+03</wgt>
<wgt id='1523'>0.76024E+03</wgt>
<wgt id='1524'>0.72876E+03</wgt>
<wgt id='1525'>0.72214E+03</wgt>
<wgt id='1526'>0.72257E+03</wgt>
<wgt id='1527'>0.74273E+03</wgt>
<wgt id='1528'>0.72311E+03</wgt>
<wgt id='1529'>0.74764E+03</wgt>
<wgt id='1530'>0.74790E+03</wgt>
<wgt id='1531'>0.71486E+03</wgt>
<wgt id='1532'>0.70932E+03</wgt>
<wgt id='1533'>0.71757E+03</wgt>
<wgt id='1534'>0.71702E+03</wgt>
<wgt id='1535'>0.75584E+03</wgt>
<wgt id='1536'>0.72873E+03</wgt>
<wgt id='1537'>0.73695E+03</wgt>
<wgt id='1538'>0.72706E+03</wgt>
<wgt id='1539'>0.71787E+03</wgt>
<wgt id='1540'>0.71943E+03</wgt>
<wgt id='1541'>0.72793E+03</wgt>
<wgt id='1542'>0.71828E+03</wgt>
<wgt id='1543'>0.72100E+03</wgt>
<wgt id='1544'>0.73657E+03</wgt>
<wgt id='1545'>0.73295E+03</wgt>
<wgt id='1546'>0.73349E+03</wgt>
<wgt id='1547'>0.72566E+03</wgt>
<wgt id='1548'>0.72867E+03</wgt>
<wgt id='1549'>0.73096E+03</wgt>
<wgt id='1550'>0.71907E+03</wgt>
<wgt id='1551'>0.72496E+03</wgt>
<wgt id='1552'>0.72540E+03</wgt>
<wgt id='1553'>0.73487E+03</wgt>
<wgt id='1554'>0.71676E+03</wgt>
<wgt id='1555'>0.71874E+03</wgt>
<wgt id='1556'>0.73313E+03</wgt>
<wgt id='1557'>0.72984E+03</wgt>
<wgt id='1558'>0.71948E+03</wgt>
<wgt id='1559'>0.75139E+03</wgt>
<wgt id='1560'>0.72391E+03</wgt>
<wgt id='1561'>0.72826E+03</wgt>
<wgt id='1562'>0.74374E+03</wgt>
<wgt id='1563'>0.71833E+03</wgt>
<wgt id='1564'>0.73287E+03</wgt>
<wgt id='1565'>0.73896E+03</wgt>
<wgt id='1566'>0.72306E+03</wgt>
<wgt id='1567'>0.77577E+03</wgt>
<wgt id='1568'>0.72211E+03</wgt>
<wgt id='1569'>0.70725E+03</wgt>
<wgt id='1570'>0.71441E+03</wgt>
<wgt id='1571'>0.72229E+03</wgt>
<wgt id='1572'>0.72825E+03</wgt>
<wgt id='1573'>0.71009E+03</wgt>
<wgt id='1574'>0.73252E+03</wgt>
<wgt id='1575'>0.72457E+03</wgt>
<wgt id='1576'>0.70810E+03</wgt>
<wgt id='1577'>0.71228E+03</wgt>
<wgt id='1578'>0.72938E+03</wgt>
<wgt id='1579'>0.72555E+03</wgt>
<wgt id='1580'>0.71642E+03</wgt>
<wgt id='1581'>0.72351E+03</wgt>
<wgt id='1582'>0.71026E+03</wgt>
<wgt id='1583'>0.75283E+03</wgt>
<wgt id='1584'>0.72632E+03</wgt>
<wgt id='1585'>0.73047E+03</wgt>
<wgt id='1586'>0.72332E+03</wgt>
<wgt id='1587'>0.73893E+03</wgt>
<wgt id='1588'>0.73119E+03</wgt>
<wgt id='1589'>0.74971E+03</wgt>
<wgt id='1590'>0.71808E+03</wgt>
<wgt id='1591'>0.72060E+03</wgt>
<wgt id='1592'>0.72662E+03</wgt>
<wgt id='1593'>0.73346E+03</wgt>
<wgt id='1594'>0.74160E+03</wgt>
<wgt id='1595'>0.72805E+03</wgt>
<wgt id='1596'>0.73596E+03</wgt>
<wgt id='1597'>0.73657E+03</wgt>
<wgt id='1598'>0.73156E+03</wgt>
<wgt id='1599'>0.73754E+03</wgt>
<wgt id='1600'>0.74717E+03</wgt>
<wgt id='1601'>0.72184E+03</wgt>
<wgt id='1602'>0.73267E+03</wgt>
<wgt id='1700'>0.69004E+03</wgt>
<wgt id='1800'>0.69999E+03</wgt>
<wgt id='1850'>0.79887E+03</wgt>
<wgt id='1900'>0.76260E+03</wgt>
<wgt id='1950'>0.77172E+03</wgt>
</rwgt>
</event>
<event>
     13 322222  6.87070E+02  5.38314E+01 -1.00000E+00  1.35314E-01
      21    -1     0     0   504   505  0.000000000E+00  0.000000000E+00  8.359482895E+02  8.359482895E+02  0.000000000E+00  0.00000E+00  9.000E+00
      21    -1     0     0   502   503  0.000000000E+00  0.000000000E+00 -8.580001539E+02  8.580001539E+02  0.000000000E+00  0.00000E+00  9.000E+00
       6     2     1     2   502     0 -3.721406017E+00  4.934414959E+01 -5.001286168E+02  5.312729211E+02  1.722602376E+02  0.00000E+00  9.000E+00
      -6     2     1     2     0   505 -2.803989696E+01 -5.881015343E+00 -3.172982518E+02  3.654809277E+02  1.791013840E+02  0.00000E+00  9.000E+00
      21     1     1     2   504   503  3.176130298E+01 -4.346313424E+01  7.953750042E+02  7.971945946E+02  1.078959322E-05  0.00000E+00  9.000E+00
      24     2     3     3     0     0 -1.544596706E+01  7.906409385E+01 -2.003438393E+02  2.297522863E+02  7.847770569E+01  0.00000E+00  9.000E+00
       5     1     3     3   502     0  1.172456105E+01 -2.971994427E+01 -2.997847775E+02  3.015206348E+02  4.800000000E+00  0.00000E+00 -1.000E+00
     -24     2     4     4     0     0 -2.220409112E+01  1.873563786E+01 -5.704125310E+01  1.039531441E+02  8.190546878E+01  0.00000E+00  9.000E+00
      -5     1     4     4     0   505 -5.835805842E+00 -2.461665320E+01 -2.602569987E+02  2.615277836E+02  4.800000000E+00  0.00000E+00  1.000E+00
      -3     1     6     6     0   507 -9.335642337E+00  4.675498319E+01 -3.016510483E+01  5.641946667E+01  2.000000000E-01  0.00000E+00  1.000E+00
       4     1     6     6   507     0 -6.110324725E+00  3.230911067E+01 -1.701787345E+02  1.733328196E+02  1.500000000E+00  0.00000E+00 -1.000E+00
       3     1     8     8   516     0 -1.934337347E+01 -2.611216231E+01 -1.553142732E+00  3.253403403E+01  2.000000000E-01  0.00000E+00 -1.000E+00
      -4     1     8     8     0   516 -2.860717650E+00  4.484780017E+01 -5.548811037E+01  7.141911003E+01  1.500000000E+00  0.00000E+00  1.000E+00
#rwgt            1           1   599.61874649473873                2       10738           0
<rwgt>
<wgt id='1001'>0.68707E+03</wgt>
<wgt id='1002'>0.78725E+03</wgt>
<wgt id='1003'>0.57717E+03</wgt>
<wgt id='1004'>0.58197E+03</wgt>
<wgt id='1005'>0.65606E+03</wgt>
<wgt id='1006'>0.50028E+03</wgt>
<wgt id='1007'>0.82418E+03</wgt>
<wgt id='1008'>0.96331E+03</wgt>
<wgt id='1009'>0.67227E+03</wgt>
<wgt id='2000'>0.68707E+03</wgt>
<wgt id='2001'>0.68663E+03</wgt>
<wgt id='2002'>0.68836E+03</wgt>
<wgt id='2003'>0.68736E+03</wgt>
<wgt id='2004'>0.68854E+03</wgt>
<wgt id='2005'>0.68691E+03</wgt>
<wgt id='2006'>0.68550E+03</wgt>
<wgt id='2007'>0.68780E+03</wgt>
<wgt id='2008'>0.68797E+03</wgt>
<wgt id='2009'>0.68720E+03</wgt>
<wgt id='2010'>0.68592E+03</wgt>
<wgt id='2011'>0.68735E+03</wgt>
<wgt id='2012'>0.68751E+03</wgt>
<wgt id='2013'>0.68678E+03</wgt>
<wgt id='2014'>0.68535E+03</wgt>
<wgt id='2015'>0.68615E+03</wgt>
<wgt id='2016'>0.68683E+03</wgt>
<wgt id='2017'>0.68646E+03</wgt>
<wgt id='2018'>0.68538E+03</wgt>
<wgt id='2019'>0.68733E+03</wgt>
<wgt id='2020'>0.68428E+03</wgt>
<wgt id='2021'>0.68877E+03</wgt>
<wgt id='2022'>0.68365E+03</wgt>
<wgt id='2023'>0.68702E+03</wgt>
<wgt id='2024'>0.68573E+03</wgt>
<wgt id='2025'>0.68413E+03</wgt>
<wgt id='2026'>0.68651E+03</wgt>
<wgt id='2027'>0.68566E+03</wgt>
<wgt id='2028'>0.68682E+03</wgt>
<wgt id='2029'>0.69305E+03</wgt>
<wgt id='2030'>0.68816E+03</wgt>
<wgt id='2031'>0.68698E+03</wgt>
<wgt id='2032'>0.68957E+03</wgt>
<wgt id='2033'>0.68842E+03</wgt>
<wgt id='2034'>0.68569E+03</wgt>
<wgt id='2035'>0.68576E+03</wgt>
<wgt id='2036'>0.68548E+03</wgt>
<wgt id='2037'>0.68712E+03</wgt>
<wgt id='2038'>0.68728E+03</wgt>
<wgt id='2039'>0.68911E+03</wgt>
<wgt id='2040'>0.68731E+03</wgt>
<wgt id='2041'>0.68559E+03</wgt>
<wgt id='2042'>0.68288E+03</wgt>
<wgt id='2043'>0.68939E+03</wgt>
<wgt id='2044'>0.68807E+03</wgt>
<wgt id='2045'>0.68660E+03</wgt>
<wgt id='2046'>0.68835E+03</wgt>
<wgt id='2047'>0.68830E+03</wgt>
<wgt id='2048'>0.68646E+03</wgt>
<wgt id='2049'>0.68715E+03</wgt>
<wgt id='2050'>0.68808E+03</wgt>
<wgt id='2051'>0.68785E+03</wgt>
<wgt id='2052'>0.68626E+03</wgt>
<wgt id='2053'>0.68693E+03</wgt>
<wgt id='2054'>0.68743E+03</wgt>
<wgt id='2055'>0.68756E+03</wgt>
<wgt id='2056'>0.68718E+03</wgt>
<wgt id='2057'>0.68641E+03</wgt>
<wgt id='2058'>0.68721E+03</wgt>
<wgt id='2059'>0.68694E+03</wgt>
<wgt id='2060'>0.68762E+03</wgt>
<wgt id='2061'>0.68647E+03</wgt>
<wgt id='2062'>0.68654E+03</wgt>
<wgt id='2063'>0.68716E+03</wgt>
<wgt id='2064'>0.68640E+03</wgt>
<wgt id='2065'>0.68734E+03</wgt>
<wgt id='2066'>0.68668E+03</wgt>
<wgt id='2067'>0.68700E+03</wgt>
<wgt id='2068'>0.68737E+03</wgt>
<wgt id='2069'>0.68738E+03</wgt>
<wgt id='2070'>0.68697E+03</wgt>
<wgt id='2071'>0.68674E+03</wgt>
<wgt id='2072'>0.68712E+03</wgt>
<wgt id='2073'>0.68717E+03</wgt>
<wgt id='2074'>0.68743E+03</wgt>
<wgt id='2075'>0.68674E+03</wgt>
<wgt id='2076'>0.68744E+03</wgt>
<wgt id='2077'>0.68678E+03</wgt>
<wgt id='2078'>0.68687E+03</wgt>
<wgt id='2079'>0.68717E+03</wgt>
<wgt id='2080'>0.68745E+03</wgt>
<wgt id='2081'>0.68739E+03</wgt>
<wgt id='2082'>0.68730E+03</wgt>
<wgt id='2083'>0.68726E+03</wgt>
<wgt id='2084'>0.68714E+03</wgt>
<wgt id='2085'>0.68724E+03</wgt>
<wgt id='2086'>0.68687E+03</wgt>
<wgt id='2087'>0.68682E+03</wgt>
<wgt id='2088'>0.68708E+03</wgt>
<wgt id='2089'>0.68661E+03</wgt>
<wgt id='2090'>0.68702E+03</wgt>
<wgt id='2091'>0.68725E+03</wgt>
<wgt id='2092'>0.68715E+03</wgt>
<wgt id='2093'>0.68702E+03</wgt>
<wgt id='2094'>0.68733E+03</wgt>
<wgt id='2095'>0.68732E+03</wgt>
<wgt id='2096'>0.68687E+03</wgt>
<wgt id='2097'>0.68733E+03</wgt>
<wgt id='2098'>0.68702E+03</wgt>
<wgt id='2099'>0.68681E+03</wgt>
<wgt id='2100'>0.68720E+03</wgt>
<wgt id='2101'>0.67097E+03</wgt>
<wgt id='2102'>0.70758E+03</wgt>
<wgt id='2104'>0.59115E+03</wgt>
<wgt id='2105'>0.61061E+03</wgt>
<wgt id='2106'>0.62911E+03</wgt>
<wgt id='2107'>0.64508E+03</wgt>
<wgt id='2108'>0.67720E+03</wgt>
<wgt id='2109'>0.69872E+03</wgt>
<wgt id='2110'>0.72847E+03</wgt>
<wgt id='2111'>0.75002E+03</wgt>
<wgt id='3000'>0.72801E+03</wgt>
<wgt id='3001'>0.72945E+03</wgt>
<wgt id='3002'>0.72670E+03</wgt>
<wgt id='3003'>0.72775E+03</wgt>
<wgt id='3004'>0.73001E+03</wgt>
<wgt id='3005'>0.72807E+03</wgt>
<wgt id='3006'>0.72796E+03</wgt>
<wgt id='3007'>0.72729E+03</wgt>
<wgt id='3008'>0.72732E+03</wgt>
<wgt id='3009'>0.72659E+03</wgt>
<wgt id='3010'>0.72612E+03</wgt>
<wgt id='3011'>0.72825E+03</wgt>
<wgt id='3012'>0.72924E+03</wgt>
<wgt id='3013'>0.72725E+03</wgt>
<wgt id='3014'>0.72724E+03</wgt>
<wgt id='3015'>0.72799E+03</wgt>
<wgt id='3016'>0.72860E+03</wgt>
<wgt id='3017'>0.72745E+03</wgt>
<wgt id='3018'>0.72757E+03</wgt>
<wgt id='3019'>0.72933E+03</wgt>
<wgt id='3020'>0.73027E+03</wgt>
<wgt id='3021'>0.73037E+03</wgt>
<wgt id='3022'>0.72771E+03</wgt>
<wgt id='3023'>0.72811E+03</wgt>
<wgt id='3024'>0.72915E+03</wgt>
<wgt id='3025'>0.72836E+03</wgt>
<wgt id='3026'>0.72594E+03</wgt>
<wgt id='3027'>0.72878E+03</wgt>
<wgt id='3028'>0.72892E+03</wgt>
<wgt id='3029'>0.72690E+03</wgt>
<wgt id='3030'>0.73178E+03</wgt>
<wgt id='3031'>0.73002E+03</wgt>
<wgt id='3032'>0.72563E+03</wgt>
<wgt id='3033'>0.72575E+03</wgt>
<wgt id='3034'>0.72751E+03</wgt>
<wgt id='3035'>0.72522E+03</wgt>
<wgt id='3036'>0.72895E+03</wgt>
<wgt id='3037'>0.73034E+03</wgt>
<wgt id='3038'>0.72844E+03</wgt>
<wgt id='3039'>0.73031E+03</wgt>
<wgt id='3040'>0.73035E+03</wgt>
<wgt id='3041'>0.72834E+03</wgt>
<wgt id='3042'>0.72479E+03</wgt>
<wgt id='3043'>0.72489E+03</wgt>
<wgt id='3044'>0.72974E+03</wgt>
<wgt id='3045'>0.72961E+03</wgt>
<wgt id='3046'>0.72964E+03</wgt>
<wgt id='3047'>0.72691E+03</wgt>
<wgt id='3048'>0.73022E+03</wgt>
<wgt id='3049'>0.72745E+03</wgt>
<wgt id='3050'>0.72728E+03</wgt>
<wgt id='3051'>0.73016E+03</wgt>
<wgt id='3052'>0.72736E+03</wgt>
<wgt id='3053'>0.72717E+03</wgt>
<wgt id='3054'>0.72773E+03</wgt>
<wgt id='3055'>0.72805E+03</wgt>
<wgt id='3056'>0.72801E+03</wgt>
<wgt id='3057'>0.72704E+03</wgt>
<wgt id='3058'>0.72801E+03</wgt>
<wgt id='3059'>0.72745E+03</wgt>
<wgt id='3060'>0.72819E+03</wgt>
<wgt id='3061'>0.72724E+03</wgt>
<wgt id='3062'>0.72805E+03</wgt>
<wgt id='3063'>0.72822E+03</wgt>
<wgt id='3064'>0.72757E+03</wgt>
<wgt id='3065'>0.72776E+03</wgt>
<wgt id='3066'>0.72813E+03</wgt>
<wgt id='3067'>0.72750E+03</wgt>
<wgt id='3068'>0.72817E+03</wgt>
<wgt id='3069'>0.72776E+03</wgt>
<wgt id='3070'>0.72813E+03</wgt>
<wgt id='3071'>0.72793E+03</wgt>
<wgt id='3072'>0.72774E+03</wgt>
<wgt id='3073'>0.72758E+03</wgt>
<wgt id='3074'>0.72877E+03</wgt>
<wgt id='3075'>0.72791E+03</wgt>
<wgt id='3076'>0.72799E+03</wgt>
<wgt id='3077'>0.72827E+03</wgt>
<wgt id='3078'>0.72819E+03</wgt>
<wgt id='3079'>0.72779E+03</wgt>
<wgt id='3080'>0.72792E+03</wgt>
<wgt id='3081'>0.72798E+03</wgt>
<wgt id='3082'>0.72796E+03</wgt>
<wgt id='3083'>0.72772E+03</wgt>
<wgt id='3084'>0.72768E+03</wgt>
<wgt id='3085'>0.72831E+03</wgt>
<wgt id='3086'>0.72728E+03</wgt>
<wgt id='3087'>0.72777E+03</wgt>
<wgt id='3088'>0.72793E+03</wgt>
<wgt id='3089'>0.72797E+03</wgt>
<wgt id='3090'>0.72826E+03</wgt>
<wgt id='3091'>0.72825E+03</wgt>
<wgt id='3092'>0.72804E+03</wgt>
<wgt id='3093'>0.72807E+03</wgt>
<wgt id='3094'>0.72838E+03</wgt>
<wgt id='3095'>0.72794E+03</wgt>
<wgt id='3096'>0.72799E+03</wgt>
<wgt id='3097'>0.72792E+03</wgt>
<wgt id='3098'>0.72786E+03</wgt>
<wgt id='3099'>0.72809E+03</wgt>
<wgt id='3100'>0.72819E+03</wgt>
<wgt id='3101'>0.70781E+03</wgt>
<wgt id='3102'>0.75089E+03</wgt>
<wgt id='5000'>0.70647E+03</wgt>
<wgt id='5001'>0.70735E+03</wgt>
<wgt id='5002'>0.70846E+03</wgt>
<wgt id='5003'>0.70650E+03</wgt>
<wgt id='5004'>0.70787E+03</wgt>
<wgt id='5005'>0.70804E+03</wgt>
<wgt id='5006'>0.69811E+03</wgt>
<wgt id='5007'>0.70262E+03</wgt>
<wgt id='5008'>0.71152E+03</wgt>
<wgt id='5009'>0.70114E+03</wgt>
<wgt id='5010'>0.70804E+03</wgt>
<wgt id='5011'>0.71336E+03</wgt>
<wgt id='5012'>0.70021E+03</wgt>
<wgt id='5013'>0.72562E+03</wgt>
<wgt id='5014'>0.69845E+03</wgt>
<wgt id='5015'>0.70206E+03</wgt>
<wgt id='5016'>0.71776E+03</wgt>
<wgt id='5017'>0.69840E+03</wgt>
<wgt id='5018'>0.71491E+03</wgt>
<wgt id='5019'>0.70406E+03</wgt>
<wgt id='5020'>0.70785E+03</wgt>
<wgt id='5021'>0.70278E+03</wgt>
<wgt id='5022'>0.70876E+03</wgt>
<wgt id='5023'>0.70192E+03</wgt>
<wgt id='5024'>0.71155E+03</wgt>
<wgt id='5025'>0.70916E+03</wgt>
<wgt id='5026'>0.70426E+03</wgt>
<wgt id='5027'>0.70608E+03</wgt>
<wgt id='5028'>0.70695E+03</wgt>
<wgt id='5029'>0.71177E+03</wgt>
<wgt id='5030'>0.70297E+03</wgt>
<wgt id='5031'>0.70664E+03</wgt>
<wgt id='5032'>0.70603E+03</wgt>
<wgt id='5033'>0.70222E+03</wgt>
<wgt id='5034'>0.71072E+03</wgt>
<wgt id='5035'>0.70639E+03</wgt>
<wgt id='5036'>0.70619E+03</wgt>
<wgt id='5037'>0.69350E+03</wgt>
<wgt id='5038'>0.72141E+03</wgt>
<wgt id='5039'>0.72104E+03</wgt>
<wgt id='5040'>0.69893E+03</wgt>
<wgt id='5041'>0.70777E+03</wgt>
<wgt id='5042'>0.70704E+03</wgt>
<wgt id='5043'>0.71388E+03</wgt>
<wgt id='5044'>0.70807E+03</wgt>
<wgt id='5045'>0.69345E+03</wgt>
<wgt id='5046'>0.70300E+03</wgt>
<wgt id='5047'>0.69137E+03</wgt>
<wgt id='5048'>0.71036E+03</wgt>
<wgt id='5049'>0.70549E+03</wgt>
<wgt id='5050'>0.70667E+03</wgt>
<wgt id='5051'>0.70700E+03</wgt>
<wgt id='5052'>0.70454E+03</wgt>
<wgt id='5053'>0.68028E+03</wgt>
<wgt id='5054'>0.69895E+03</wgt>
<wgt id='5055'>0.70148E+03</wgt>
<wgt id='5056'>0.71431E+03</wgt>
<wgt id='5060'>0.68502E+03</wgt>
<wgt id='5070'>0.72926E+03</wgt>
<wgt id='4000'>0.72876E+03</wgt>
<wgt id='4001'>0.72690E+03</wgt>
<wgt id='4002'>0.72987E+03</wgt>
<wgt id='4003'>0.71614E+03</wgt>
<wgt id='4004'>0.72966E+03</wgt>
<wgt id='4005'>0.72993E+03</wgt>
<wgt id='4006'>0.72807E+03</wgt>
<wgt id='4007'>0.72146E+03</wgt>
<wgt id='4008'>0.72971E+03</wgt>
<wgt id='4009'>0.73099E+03</wgt>
<wgt id='4010'>0.73399E+03</wgt>
<wgt id='4011'>0.73504E+03</wgt>
<wgt id='4012'>0.72330E+03</wgt>
<wgt id='4013'>0.73000E+03</wgt>
<wgt id='4014'>0.73002E+03</wgt>
<wgt id='4015'>0.74284E+03</wgt>
<wgt id='4016'>0.71953E+03</wgt>
<wgt id='4017'>0.71653E+03</wgt>
<wgt id='4018'>0.74335E+03</wgt>
<wgt id='4019'>0.72703E+03</wgt>
<wgt id='4020'>0.73019E+03</wgt>
<wgt id='4021'>0.72885E+03</wgt>
<wgt id='4022'>0.72851E+03</wgt>
<wgt id='4023'>0.73243E+03</wgt>
<wgt id='4024'>0.72491E+03</wgt>
<wgt id='4025'>0.73676E+03</wgt>
<wgt id='4026'>0.72093E+03</wgt>
<wgt id='4027'>0.73263E+03</wgt>
<wgt id='4028'>0.72339E+03</wgt>
<wgt id='4029'>0.73238E+03</wgt>
<wgt id='4030'>0.72752E+03</wgt>
<wgt id='4031'>0.72983E+03</wgt>
<wgt id='4032'>0.72740E+03</wgt>
<wgt id='4033'>0.72716E+03</wgt>
<wgt id='4034'>0.73232E+03</wgt>
<wgt id='4035'>0.71572E+03</wgt>
<wgt id='4036'>0.74123E+03</wgt>
<wgt id='4037'>0.72268E+03</wgt>
<wgt id='4038'>0.73746E+03</wgt>
<wgt id='4039'>0.72452E+03</wgt>
<wgt id='4040'>0.73321E+03</wgt>
<wgt id='4041'>0.72516E+03</wgt>
<wgt id='4042'>0.73162E+03</wgt>
<wgt id='4043'>0.71437E+03</wgt>
<wgt id='4044'>0.74155E+03</wgt>
<wgt id='4045'>0.74324E+03</wgt>
<wgt id='4046'>0.72606E+03</wgt>
<wgt id='4047'>0.72883E+03</wgt>
<wgt id='4048'>0.72702E+03</wgt>
<wgt id='4049'>0.72784E+03</wgt>
<wgt id='4050'>0.73077E+03</wgt>
<wgt id='4051'>0.73112E+03</wgt>
<wgt id='4052'>0.72889E+03</wgt>
<wgt id='4053'>0.69958E+03</wgt>
<wgt id='4054'>0.73418E+03</wgt>
<wgt id='4055'>0.72558E+03</wgt>
<wgt id='4056'>0.73406E+03</wgt>
<wgt id='4060'>0.70741E+03</wgt>
<wgt id='4070'>0.75169E+03</wgt>
<wgt id='4080'>0.79256E+03</wgt>
<wgt id='6000'>0.73003E+03</wgt>
<wgt id='6001'>0.73054E+03</wgt>
<wgt id='6002'>0.72939E+03</wgt>
<wgt id='6003'>0.73041E+03</wgt>
<wgt id='6004'>0.72967E+03</wgt>
<wgt id='6005'>0.73327E+03</wgt>
<wgt id='6006'>0.72694E+03</wgt>
<wgt id='6007'>0.72760E+03</wgt>
<wgt id='6008'>0.73266E+03</wgt>
<wgt id='6009'>0.73160E+03</wgt>
<wgt id='6010'>0.72835E+03</wgt>
<wgt id='6011'>0.73088E+03</wgt>
<wgt id='6012'>0.72795E+03</wgt>
<wgt id='6013'>0.72952E+03</wgt>
<wgt id='6014'>0.73078E+03</wgt>
<wgt id='6015'>0.72886E+03</wgt>
<wgt id='6016'>0.73056E+03</wgt>
<wgt id='6017'>0.72640E+03</wgt>
<wgt id='6018'>0.73411E+03</wgt>
<wgt id='6019'>0.73002E+03</wgt>
<wgt id='6020'>0.72990E+03</wgt>
<wgt id='6021'>0.72827E+03</wgt>
<wgt id='6022'>0.73220E+03</wgt>
<wgt id='6023'>0.72504E+03</wgt>
<wgt id='6024'>0.73336E+03</wgt>
<wgt id='6025'>0.73371E+03</wgt>
<wgt id='6026'>0.72543E+03</wgt>
<wgt id='6027'>0.73069E+03</wgt>
<wgt id='6028'>0.72985E+03</wgt>
<wgt id='6029'>0.72707E+03</wgt>
<wgt id='6030'>0.73357E+03</wgt>
<wgt id='6031'>0.72153E+03</wgt>
<wgt id='6032'>0.73953E+03</wgt>
<wgt id='6033'>0.73380E+03</wgt>
<wgt id='6034'>0.72622E+03</wgt>
<wgt id='6035'>0.73148E+03</wgt>
<wgt id='6036'>0.72682E+03</wgt>
<wgt id='6037'>0.73083E+03</wgt>
<wgt id='6038'>0.72965E+03</wgt>
<wgt id='6039'>0.72769E+03</wgt>
<wgt id='6040'>0.73256E+03</wgt>
<wgt id='6041'>0.72423E+03</wgt>
<wgt id='6042'>0.73660E+03</wgt>
<wgt id='6043'>0.73726E+03</wgt>
<wgt id='6044'>0.72693E+03</wgt>
<wgt id='6045'>0.72871E+03</wgt>
<wgt id='6046'>0.73310E+03</wgt>
<wgt id='6047'>0.73111E+03</wgt>
<wgt id='6048'>0.72971E+03</wgt>
<wgt id='6049'>0.72969E+03</wgt>
<wgt id='6050'>0.73023E+03</wgt>
<wgt id='7000'>0.69230E+03</wgt>
<wgt id='7001'>0.69218E+03</wgt>
<wgt id='7002'>0.69237E+03</wgt>
<wgt id='7003'>0.69466E+03</wgt>
<wgt id='7004'>0.68996E+03</wgt>
<wgt id='7005'>0.69389E+03</wgt>
<wgt id='7006'>0.69168E+03</wgt>
<wgt id='7007'>0.69144E+03</wgt>
<wgt id='7008'>0.69316E+03</wgt>
<wgt id='7009'>0.69329E+03</wgt>
<wgt id='7010'>0.69140E+03</wgt>
<wgt id='7011'>0.68866E+03</wgt>
<wgt id='7012'>0.69392E+03</wgt>
<wgt id='7013'>0.69218E+03</wgt>
<wgt id='7014'>0.69248E+03</wgt>
<wgt id='7015'>0.69150E+03</wgt>
<wgt id='7016'>0.69314E+03</wgt>
<wgt id='7017'>0.68980E+03</wgt>
<wgt id='7018'>0.69364E+03</wgt>
<wgt id='7019'>0.69210E+03</wgt>
<wgt id='7020'>0.69254E+03</wgt>
<wgt id='7021'>0.69185E+03</wgt>
<wgt id='7022'>0.69262E+03</wgt>
<wgt id='7023'>0.69601E+03</wgt>
<wgt id='7024'>0.68857E+03</wgt>
<wgt id='7025'>0.69386E+03</wgt>
<wgt id='7026'>0.68848E+03</wgt>
<wgt id='7027'>0.69267E+03</wgt>
<wgt id='7028'>0.69187E+03</wgt>
<wgt id='7029'>0.69518E+03</wgt>
<wgt id='7030'>0.68506E+03</wgt>
<wgt id='7031'>0.68872E+03</wgt>
<wgt id='7032'>0.69983E+03</wgt>
<wgt id='7033'>0.69350E+03</wgt>
<wgt id='7034'>0.69011E+03</wgt>
<wgt id='7035'>0.68727E+03</wgt>
<wgt id='7036'>0.69469E+03</wgt>
<wgt id='7037'>0.69216E+03</wgt>
<wgt id='7038'>0.69268E+03</wgt>
<wgt id='7039'>0.68935E+03</wgt>
<wgt id='7040'>0.69449E+03</wgt>
<wgt id='7041'>0.69518E+03</wgt>
<wgt id='7042'>0.68770E+03</wgt>
<wgt id='7043'>0.69292E+03</wgt>
<wgt id='7044'>0.68859E+03</wgt>
<wgt id='7045'>0.68723E+03</wgt>
<wgt id='7046'>0.69567E+03</wgt>
<wgt id='7047'>0.69454E+03</wgt>
<wgt id='7048'>0.69130E+03</wgt>
<wgt id='7049'>0.69219E+03</wgt>
<wgt id='7050'>0.69215E+03</wgt>
<wgt id='7060'>0.10076E+04</wgt>
<wgt id='8000'>0.68988E+03</wgt>
<wgt id='8001'>0.68977E+03</wgt>
<wgt id='8002'>0.69009E+03</wgt>
<wgt id='8003'>0.68990E+03</wgt>
<wgt id='8004'>0.68986E+03</wgt>
<wgt id='8005'>0.68851E+03</wgt>
<wgt id='8006'>0.69049E+03</wgt>
<wgt id='8007'>0.69090E+03</wgt>
<wgt id='8008'>0.69134E+03</wgt>
<wgt id='8009'>0.69272E+03</wgt>
<wgt id='8010'>0.68923E+03</wgt>
<wgt id='8011'>0.69002E+03</wgt>
<wgt id='8012'>0.68769E+03</wgt>
<wgt id='8013'>0.68863E+03</wgt>
<wgt id='8014'>0.69131E+03</wgt>
<wgt id='8015'>0.68940E+03</wgt>
<wgt id='8016'>0.69074E+03</wgt>
<wgt id='8017'>0.69059E+03</wgt>
<wgt id='8018'>0.69192E+03</wgt>
<wgt id='8019'>0.68924E+03</wgt>
<wgt id='8020'>0.69115E+03</wgt>
<wgt id='8021'>0.68887E+03</wgt>
<wgt id='8022'>0.69222E+03</wgt>
<wgt id='8023'>0.68813E+03</wgt>
<wgt id='8024'>0.68636E+03</wgt>
<wgt id='8025'>0.68770E+03</wgt>
<wgt id='8026'>0.69026E+03</wgt>
<wgt id='8027'>0.69070E+03</wgt>
<wgt id='8028'>0.69021E+03</wgt>
<wgt id='8029'>0.69689E+03</wgt>
<wgt id='8500'>0.73145E+03</wgt>
<wgt id='8501'>0.72505E+03</wgt>
<wgt id='8502'>0.73301E+03</wgt>
<wgt id='8503'>0.73381E+03</wgt>
<wgt id='8504'>0.72810E+03</wgt>
<wgt id='8505'>0.73192E+03</wgt>
<wgt id='8506'>0.73167E+03</wgt>
<wgt id='8507'>0.72974E+03</wgt>
<wgt id='8508'>0.72704E+03</wgt>
<wgt id='8509'>0.73291E+03</wgt>
<wgt id='8510'>0.73229E+03</wgt>
<wgt id='8511'>0.72907E+03</wgt>
<wgt id='8512'>0.73577E+03</wgt>
<wgt id='8513'>0.73178E+03</wgt>
<wgt id='8514'>0.73117E+03</wgt>
<wgt id='8515'>0.73529E+03</wgt>
<wgt id='8516'>0.72970E+03</wgt>
<wgt id='8517'>0.73413E+03</wgt>
<wgt id='8518'>0.72478E+03</wgt>
<wgt id='8519'>0.72301E+03</wgt>
<wgt id='8520'>0.72826E+03</wgt>
<wgt id='8521'>0.72688E+03</wgt>
<wgt id='8522'>0.73604E+03</wgt>
<wgt id='8523'>0.72756E+03</wgt>
<wgt id='8524'>0.73316E+03</wgt>
<wgt id='8525'>0.73248E+03</wgt>
<wgt id='8526'>0.73195E+03</wgt>
<wgt id='8527'>0.73229E+03</wgt>
<wgt id='8528'>0.73010E+03</wgt>
<wgt id='8529'>0.73039E+03</wgt>
<wgt id='8530'>0.73067E+03</wgt>
<wgt id='8531'>0.73135E+03</wgt>
<wgt id='8532'>0.73115E+03</wgt>
<wgt id='8533'>0.73029E+03</wgt>
<wgt id='8534'>0.73190E+03</wgt>
<wgt id='8535'>0.73352E+03</wgt>
<wgt id='8536'>0.73066E+03</wgt>
<wgt id='8537'>0.73166E+03</wgt>
<wgt id='8538'>0.73131E+03</wgt>
<wgt id='8539'>0.73185E+03</wgt>
<wgt id='8540'>0.73217E+03</wgt>
<wgt id='8541'>0.73213E+03</wgt>
<wgt id='8542'>0.73164E+03</wgt>
<wgt id='8543'>0.73014E+03</wgt>
<wgt id='8544'>0.73260E+03</wgt>
<wgt id='8545'>0.73173E+03</wgt>
<wgt id='8546'>0.73258E+03</wgt>
<wgt id='8547'>0.73088E+03</wgt>
<wgt id='8548'>0.73097E+03</wgt>
<wgt id='8549'>0.73139E+03</wgt>
<wgt id='8550'>0.73116E+03</wgt>
<wgt id='8551'>0.73138E+03</wgt>
<wgt id='8552'>0.73097E+03</wgt>
<wgt id='8553'>0.73062E+03</wgt>
<wgt id='8554'>0.73115E+03</wgt>
<wgt id='8555'>0.73145E+03</wgt>
<wgt id='8556'>0.73124E+03</wgt>
<wgt id='8557'>0.73167E+03</wgt>
<wgt id='8558'>0.73228E+03</wgt>
<wgt id='8559'>0.73126E+03</wgt>
<wgt id='8560'>0.73079E+03</wgt>
<wgt id='8561'>0.73177E+03</wgt>
<wgt id='8562'>0.73103E+03</wgt>
<wgt id='8563'>0.73151E+03</wgt>
<wgt id='8564'>0.73132E+03</wgt>
<wgt id='8565'>0.73177E+03</wgt>
<wgt id='8566'>0.73186E+03</wgt>
<wgt id='8567'>0.73160E+03</wgt>
<wgt id='8568'>0.73195E+03</wgt>
<wgt id='8569'>0.73185E+03</wgt>
<wgt id='8570'>0.73131E+03</wgt>
<wgt id='8571'>0.73086E+03</wgt>
<wgt id='8572'>0.73086E+03</wgt>
<wgt id='8573'>0.73108E+03</wgt>
<wgt id='8574'>0.73135E+03</wgt>
<wgt id='8575'>0.73129E+03</wgt>
<wgt id='8576'>0.73150E+03</wgt>
<wgt id='8577'>0.73096E+03</wgt>
<wgt id='8578'>0.73148E+03</wgt>
<wgt id='8579'>0.73201E+03</wgt>
<wgt id='8580'>0.73119E+03</wgt>
<wgt id='8581'>0.73180E+03</wgt>
<wgt id='8582'>0.73103E+03</wgt>
<wgt id='8583'>0.73175E+03</wgt>
<wgt id='8584'>0.73195E+03</wgt>
<wgt id='8585'>0.73174E+03</wgt>
<wgt id='8586'>0.73219E+03</wgt>
<wgt id='8587'>0.73160E+03</wgt>
<wgt id='8588'>0.73142E+03</wgt>
<wgt id='8589'>0.73142E+03</wgt>
<wgt id='8590'>0.73145E+03</wgt>
<wgt id='8591'>0.73109E+03</wgt>
<wgt id='8592'>0.73137E+03</wgt>
<wgt id='8593'>0.73121E+03</wgt>
<wgt id='8594'>0.73139E+03</wgt>
<wgt id='8595'>0.73145E+03</wgt>
<wgt id='8596'>0.73130E+03</wgt>
<wgt id='8597'>0.73165E+03</wgt>
<wgt id='8598'>0.73169E+03</wgt>
<wgt id='8599'>0.73156E+03</wgt>
<wgt id='8600'>0.73146E+03</wgt>
<wgt id='8601'>0.71721E+03</wgt>
<wgt id='8602'>0.74655E+03</wgt>
<wgt id='9000'>0.69824E+03</wgt>
<wgt id='9001'>0.70018E+03</wgt>
<wgt id='9002'>0.69809E+03</wgt>
<wgt id='9003'>0.69820E+03</wgt>
<wgt id='9004'>0.70087E+03</wgt>
<wgt id='9005'>0.70183E+03</wgt>
<wgt id='9006'>0.70105E+03</wgt>
<wgt id='9007'>0.69820E+03</wgt>
<wgt id='9008'>0.69829E+03</wgt>
<wgt id='9009'>0.69934E+03</wgt>
<wgt id='9010'>0.69868E+03</wgt>
<wgt id='9011'>0.70021E+03</wgt>
<wgt id='9012'>0.69871E+03</wgt>
<wgt id='9013'>0.70388E+03</wgt>
<wgt id='9014'>0.69823E+03</wgt>
<wgt id='9015'>0.69223E+03</wgt>
<wgt id='9016'>0.69714E+03</wgt>
<wgt id='9017'>0.69543E+03</wgt>
<wgt id='9018'>0.70282E+03</wgt>
<wgt id='9019'>0.70193E+03</wgt>
<wgt id='9020'>0.70587E+03</wgt>
<wgt id='9021'>0.69291E+03</wgt>
<wgt id='9022'>0.69910E+03</wgt>
<wgt id='9023'>0.69342E+03</wgt>
<wgt id='9024'>0.69527E+03</wgt>
<wgt id='9025'>0.70243E+03</wgt>
<wgt id='9026'>0.69791E+03</wgt>
<wgt id='9027'>0.69649E+03</wgt>
<wgt id='9028'>0.69906E+03</wgt>
<wgt id='9029'>0.69867E+03</wgt>
<wgt id='9030'>0.69690E+03</wgt>
<wgt id='9031'>0.69745E+03</wgt>
<wgt id='9032'>0.69928E+03</wgt>
<wgt id='9033'>0.69908E+03</wgt>
<wgt id='9034'>0.69870E+03</wgt>
<wgt id='9035'>0.69911E+03</wgt>
<wgt id='9036'>0.69855E+03</wgt>
<wgt id='9037'>0.69861E+03</wgt>
<wgt id='9038'>0.69878E+03</wgt>
<wgt id='9039'>0.69827E+03</wgt>
<wgt id='9040'>0.69752E+03</wgt>
<wgt id='9041'>0.69820E+03</wgt>
<wgt id='9042'>0.69849E+03</wgt>
<wgt id='9043'>0.69711E+03</wgt>
<wgt id='9044'>0.69865E+03</wgt>
<wgt id='9045'>0.69840E+03</wgt>
<wgt id='9046'>0.69720E+03</wgt>
<wgt id='9047'>0.69850E+03</wgt>
<wgt id='9048'>0.69853E+03</wgt>
<wgt id='9049'>0.69795E+03</wgt>
<wgt id='9050'>0.69825E+03</wgt>
<wgt id='9051'>0.69873E+03</wgt>
<wgt id='9052'>0.69887E+03</wgt>
<wgt id='9053'>0.69844E+03</wgt>
<wgt id='9054'>0.69802E+03</wgt>
<wgt id='9055'>0.69794E+03</wgt>
<wgt id='9056'>0.69868E+03</wgt>
<wgt id='9057'>0.69833E+03</wgt>
<wgt id='9058'>0.69737E+03</wgt>
<wgt id='9059'>0.69783E+03</wgt>
<wgt id='9060'>0.69816E+03</wgt>
<wgt id='9061'>0.69818E+03</wgt>
<wgt id='9062'>0.69845E+03</wgt>
<wgt id='9063'>0.69834E+03</wgt>
<wgt id='9064'>0.69831E+03</wgt>
<wgt id='9065'>0.69797E+03</wgt>
<wgt id='9066'>0.69804E+03</wgt>
<wgt id='9067'>0.69826E+03</wgt>
<wgt id='9068'>0.69825E+03</wgt>
<wgt id='9069'>0.69895E+03</wgt>
<wgt id='9070'>0.69805E+03</wgt>
<wgt id='9071'>0.69863E+03</wgt>
<wgt id='9072'>0.69880E+03</wgt>
<wgt id='9073'>0.69816E+03</wgt>
<wgt id='9074'>0.69841E+03</wgt>
<wgt id='9075'>0.69829E+03</wgt>
<wgt id='9076'>0.69817E+03</wgt>
<wgt id='9077'>0.69848E+03</wgt>
<wgt id='9078'>0.69842E+03</wgt>
<wgt id='9079'>0.69815E+03</wgt>
<wgt id='9080'>0.69889E+03</wgt>
<wgt id='9081'>0.69831E+03</wgt>
<wgt id='9082'>0.69844E+03</wgt>
<wgt id='9083'>0.69806E+03</wgt>
<wgt id='9084'>0.69782E+03</wgt>
<wgt id='9085'>0.69772E+03</wgt>
<wgt id='9086'>0.69845E+03</wgt>
<wgt id='9087'>0.69754E+03</wgt>
<wgt id='9088'>0.69787E+03</wgt>
<wgt id='9089'>0.69795E+03</wgt>
<wgt id='9090'>0.69834E+03</wgt>
<wgt id='9091'>0.69810E+03</wgt>
<wgt id='9092'>0.69815E+03</wgt>
<wgt id='9093'>0.69807E+03</wgt>
<wgt id='9094'>0.69809E+03</wgt>
<wgt id='9095'>0.69835E+03</wgt>
<wgt id='9096'>0.69805E+03</wgt>
<wgt id='9097'>0.69829E+03</wgt>
<wgt id='9098'>0.69819E+03</wgt>
<wgt id='9099'>0.69801E+03</wgt>
<wgt id='9100'>0.69828E+03</wgt>
<wgt id='9101'>0.68428E+03</wgt>
<wgt id='9102'>0.71234E+03</wgt>
<wgt id='10000'>0.73164E+03</wgt>
<wgt id='10001'>0.73223E+03</wgt>
<wgt id='10002'>0.72645E+03</wgt>
<wgt id='10003'>0.73173E+03</wgt>
<wgt id='10004'>0.72813E+03</wgt>
<wgt id='10005'>0.72981E+03</wgt>
<wgt id='10006'>0.72676E+03</wgt>
<wgt id='10007'>0.73137E+03</wgt>
<wgt id='10008'>0.73186E+03</wgt>
<wgt id='10009'>0.72771E+03</wgt>
<wgt id='10010'>0.73215E+03</wgt>
<wgt id='10011'>0.72636E+03</wgt>
<wgt id='10012'>0.72806E+03</wgt>
<wgt id='10013'>0.73210E+03</wgt>
<wgt id='10014'>0.73205E+03</wgt>
<wgt id='10015'>0.73376E+03</wgt>
<wgt id='10016'>0.73074E+03</wgt>
<wgt id='10017'>0.73236E+03</wgt>
<wgt id='10018'>0.73381E+03</wgt>
<wgt id='10019'>0.72120E+03</wgt>
<wgt id='10020'>0.72998E+03</wgt>
<wgt id='10021'>0.73099E+03</wgt>
<wgt id='10022'>0.73180E+03</wgt>
<wgt id='10023'>0.73275E+03</wgt>
<wgt id='10024'>0.73172E+03</wgt>
<wgt id='10025'>0.73089E+03</wgt>
<wgt id='10026'>0.73424E+03</wgt>
<wgt id='10027'>0.73239E+03</wgt>
<wgt id='10028'>0.73956E+03</wgt>
<wgt id='10029'>0.73230E+03</wgt>
<wgt id='10030'>0.73131E+03</wgt>
<wgt id='10031'>0.71721E+03</wgt>
<wgt id='10032'>0.74655E+03</wgt>
<wgt id='11000'>0.69841E+03</wgt>
<wgt id='11001'>0.68746E+03</wgt>
<wgt id='11002'>0.69606E+03</wgt>
<wgt id='11003'>0.69852E+03</wgt>
<wgt id='11004'>0.69304E+03</wgt>
<wgt id='11005'>0.70104E+03</wgt>
<wgt id='11006'>0.69848E+03</wgt>
<wgt id='11007'>0.69920E+03</wgt>
<wgt id='11008'>0.69861E+03</wgt>
<wgt id='11009'>0.69865E+03</wgt>
<wgt id='11010'>0.69965E+03</wgt>
<wgt id='11011'>0.69725E+03</wgt>
<wgt id='11012'>0.69757E+03</wgt>
<wgt id='11013'>0.69941E+03</wgt>
<wgt id='11014'>0.69782E+03</wgt>
<wgt id='11015'>0.69581E+03</wgt>
<wgt id='11016'>0.69979E+03</wgt>
<wgt id='11017'>0.69969E+03</wgt>
<wgt id='11018'>0.69908E+03</wgt>
<wgt id='11019'>0.69953E+03</wgt>
<wgt id='11020'>0.69801E+03</wgt>
<wgt id='11021'>0.70006E+03</wgt>
<wgt id='11022'>0.69894E+03</wgt>
<wgt id='11023'>0.69829E+03</wgt>
<wgt id='11024'>0.69528E+03</wgt>
<wgt id='11025'>0.69656E+03</wgt>
<wgt id='11026'>0.69838E+03</wgt>
<wgt id='11027'>0.70017E+03</wgt>
<wgt id='11028'>0.69740E+03</wgt>
<wgt id='11029'>0.68915E+03</wgt>
<wgt id='11030'>0.69871E+03</wgt>
<wgt id='11031'>0.68428E+03</wgt>
<wgt id='11032'>0.71234E+03</wgt>
<wgt id='12000'>0.64882E+03</wgt>
<wgt id='12001'>0.64801E+03</wgt>
<wgt id='12002'>0.64963E+03</wgt>
<wgt id='12003'>0.64953E+03</wgt>
<wgt id='12004'>0.64811E+03</wgt>
<wgt id='12005'>0.64939E+03</wgt>
<wgt id='12006'>0.64826E+03</wgt>
<wgt id='12007'>0.65146E+03</wgt>
<wgt id='12008'>0.64624E+03</wgt>
<wgt id='12009'>0.64816E+03</wgt>
<wgt id='12010'>0.64952E+03</wgt>
<wgt id='12011'>0.64482E+03</wgt>
<wgt id='12012'>0.65313E+03</wgt>
<wgt id='12013'>0.64756E+03</wgt>
<wgt id='12014'>0.65010E+03</wgt>
<wgt id='12015'>0.65235E+03</wgt>
<wgt id='12016'>0.64471E+03</wgt>
<wgt id='12017'>0.65122E+03</wgt>
<wgt id='12018'>0.64693E+03</wgt>
<wgt id='12019'>0.65266E+03</wgt>
<wgt id='12020'>0.64482E+03</wgt>
<wgt id='12021'>0.64958E+03</wgt>
<wgt id='12022'>0.64790E+03</wgt>
<wgt id='12023'>0.64165E+03</wgt>
<wgt id='12024'>0.65515E+03</wgt>
<wgt id='12025'>0.64352E+03</wgt>
<wgt id='12026'>0.65447E+03</wgt>
<wgt id='12027'>0.65884E+03</wgt>
<wgt id='12028'>0.63989E+03</wgt>
<wgt id='12050'>0.64882E+03</wgt>
<wgt id='12051'>0.65139E+03</wgt>
<wgt id='12052'>0.64422E+03</wgt>
<wgt id='12053'>0.65142E+03</wgt>
<wgt id='12054'>0.64569E+03</wgt>
<wgt id='12055'>0.64346E+03</wgt>
<wgt id='12056'>0.66075E+03</wgt>
<wgt id='12057'>0.64897E+03</wgt>
<wgt id='12058'>0.64883E+03</wgt>
<wgt id='12059'>0.65296E+03</wgt>
<wgt id='12060'>0.64461E+03</wgt>
<wgt id='12061'>0.64407E+03</wgt>
<wgt id='12062'>0.64874E+03</wgt>
<wgt id='12063'>0.65612E+03</wgt>
<wgt id='13000'>0.68963E+03</wgt>
<wgt id='13001'>0.68787E+03</wgt>
<wgt id='13002'>0.68918E+03</wgt>
<wgt id='13003'>0.68870E+03</wgt>
<wgt id='13004'>0.68835E+03</wgt>
<wgt id='13005'>0.68936E+03</wgt>
<wgt id='13006'>0.68769E+03</wgt>
<wgt id='13007'>0.69223E+03</wgt>
<wgt id='13008'>0.68492E+03</wgt>
<wgt id='13009'>0.68586E+03</wgt>
<wgt id='13010'>0.69128E+03</wgt>
<wgt id='13011'>0.69077E+03</wgt>
<wgt id='13012'>0.68633E+03</wgt>
<wgt id='13013'>0.68765E+03</wgt>
<wgt id='13014'>0.68937E+03</wgt>
<wgt id='13015'>0.68947E+03</wgt>
<wgt id='13016'>0.68648E+03</wgt>
<wgt id='13017'>0.68773E+03</wgt>
<wgt id='13018'>0.68933E+03</wgt>
<wgt id='13019'>0.68996E+03</wgt>
<wgt id='13020'>0.68718E+03</wgt>
<wgt id='13021'>0.69446E+03</wgt>
<wgt id='13022'>0.68249E+03</wgt>
<wgt id='13023'>0.68157E+03</wgt>
<wgt id='13024'>0.69550E+03</wgt>
<wgt id='13025'>0.67748E+03</wgt>
<wgt id='13026'>0.69878E+03</wgt>
<wgt id='13027'>0.68385E+03</wgt>
<wgt id='13028'>0.69385E+03</wgt>
<wgt id='13050'>0.68963E+03</wgt>
<wgt id='13051'>0.69065E+03</wgt>
<wgt id='13052'>0.68189E+03</wgt>
<wgt id='13053'>0.69034E+03</wgt>
<wgt id='13054'>0.68729E+03</wgt>
<wgt id='13055'>0.66805E+03</wgt>
<wgt id='13056'>0.69489E+03</wgt>
<wgt id='13057'>0.68825E+03</wgt>
<wgt id='13058'>0.69041E+03</wgt>
<wgt id='13059'>0.69290E+03</wgt>
<wgt id='13060'>0.66289E+03</wgt>
<wgt id='13061'>0.68992E+03</wgt>
<wgt id='13062'>0.68867E+03</wgt>
<wgt id='13063'>0.69837E+03</wgt>
<wgt id='14000'>0.72693E+03</wgt>
<wgt id='14001'>0.72684E+03</wgt>
<wgt id='14002'>0.72676E+03</wgt>
<wgt id='14003'>0.72667E+03</wgt>
<wgt id='14004'>0.72659E+03</wgt>
<wgt id='14005'>0.72650E+03</wgt>
<wgt id='14006'>0.72641E+03</wgt>
<wgt id='14007'>0.72633E+03</wgt>
<wgt id='14008'>0.72624E+03</wgt>
<wgt id='14009'>0.72616E+03</wgt>
<wgt id='14010'>0.72607E+03</wgt>
<wgt id='14011'>0.72598E+03</wgt>
<wgt id='14012'>0.72589E+03</wgt>
<wgt id='14013'>0.72581E+03</wgt>
<wgt id='14014'>0.72572E+03</wgt>
<wgt id='14015'>0.72564E+03</wgt>
<wgt id='14016'>0.72555E+03</wgt>
<wgt id='14017'>0.72546E+03</wgt>
<wgt id='14018'>0.72538E+03</wgt>
<wgt id='14019'>0.72529E+03</wgt>
<wgt id='14020'>0.72521E+03</wgt>
<wgt id='14021'>0.72512E+03</wgt>
<wgt id='14022'>0.72504E+03</wgt>
<wgt id='14023'>0.72494E+03</wgt>
<wgt id='14024'>0.72486E+03</wgt>
<wgt id='14025'>0.72477E+03</wgt>
<wgt id='14026'>0.72469E+03</wgt>
<wgt id='14027'>0.72460E+03</wgt>
<wgt id='14028'>0.72451E+03</wgt>
<wgt id='14029'>0.72443E+03</wgt>
<wgt id='14030'>0.72434E+03</wgt>
<wgt id='15000'>0.68984E+03</wgt>
<wgt id='15001'>0.69175E+03</wgt>
<wgt id='15002'>0.68959E+03</wgt>
<wgt id='15003'>0.68993E+03</wgt>
<wgt id='15004'>0.69248E+03</wgt>
<wgt id='15005'>0.69344E+03</wgt>
<wgt id='15006'>0.69268E+03</wgt>
<wgt id='15007'>0.68977E+03</wgt>
<wgt id='15008'>0.68988E+03</wgt>
<wgt id='15009'>0.69098E+03</wgt>
<wgt id='15010'>0.69035E+03</wgt>
<wgt id='15011'>0.69179E+03</wgt>
<wgt id='15012'>0.69032E+03</wgt>
<wgt id='15013'>0.69552E+03</wgt>
<wgt id='15014'>0.68974E+03</wgt>
<wgt id='15015'>0.68372E+03</wgt>
<wgt id='15016'>0.68878E+03</wgt>
<wgt id='15017'>0.68707E+03</wgt>
<wgt id='15018'>0.69436E+03</wgt>
<wgt id='15019'>0.69352E+03</wgt>
<wgt id='15020'>0.69745E+03</wgt>
<wgt id='15021'>0.68449E+03</wgt>
<wgt id='15022'>0.69074E+03</wgt>
<wgt id='15023'>0.68505E+03</wgt>
<wgt id='15024'>0.68686E+03</wgt>
<wgt id='15025'>0.69395E+03</wgt>
<wgt id='15026'>0.68946E+03</wgt>
<wgt id='15027'>0.68815E+03</wgt>
<wgt id='15028'>0.69069E+03</wgt>
<wgt id='15029'>0.69026E+03</wgt>
<wgt id='15030'>0.68852E+03</wgt>
<wgt id='15031'>0.68912E+03</wgt>
<wgt id='15032'>0.69087E+03</wgt>
<wgt id='15033'>0.69070E+03</wgt>
<wgt id='15034'>0.69027E+03</wgt>
<wgt id='15035'>0.69070E+03</wgt>
<wgt id='15036'>0.69014E+03</wgt>
<wgt id='15037'>0.69024E+03</wgt>
<wgt id='15038'>0.69037E+03</wgt>
<wgt id='15039'>0.68987E+03</wgt>
<wgt id='15040'>0.68912E+03</wgt>
<wgt id='15041'>0.68976E+03</wgt>
<wgt id='15042'>0.69005E+03</wgt>
<wgt id='15043'>0.68877E+03</wgt>
<wgt id='15044'>0.69025E+03</wgt>
<wgt id='15045'>0.68997E+03</wgt>
<wgt id='15046'>0.68883E+03</wgt>
<wgt id='15047'>0.69005E+03</wgt>
<wgt id='15048'>0.69014E+03</wgt>
<wgt id='15049'>0.68952E+03</wgt>
<wgt id='15050'>0.68986E+03</wgt>
<wgt id='15051'>0.69033E+03</wgt>
<wgt id='15052'>0.69045E+03</wgt>
<wgt id='15053'>0.69007E+03</wgt>
<wgt id='15054'>0.68962E+03</wgt>
<wgt id='15055'>0.68955E+03</wgt>
<wgt id='15056'>0.69025E+03</wgt>
<wgt id='15057'>0.68991E+03</wgt>
<wgt id='15058'>0.68901E+03</wgt>
<wgt id='15059'>0.68945E+03</wgt>
<wgt id='15060'>0.68978E+03</wgt>
<wgt id='15061'>0.68979E+03</wgt>
<wgt id='15062'>0.69004E+03</wgt>
<wgt id='15063'>0.68996E+03</wgt>
<wgt id='15064'>0.68990E+03</wgt>
<wgt id='15065'>0.68958E+03</wgt>
<wgt id='15066'>0.68965E+03</wgt>
<wgt id='15067'>0.68986E+03</wgt>
<wgt id='15068'>0.68986E+03</wgt>
<wgt id='15069'>0.69054E+03</wgt>
<wgt id='15070'>0.68965E+03</wgt>
<wgt id='15071'>0.69025E+03</wgt>
<wgt id='15072'>0.69040E+03</wgt>
<wgt id='15073'>0.68974E+03</wgt>
<wgt id='15074'>0.69001E+03</wgt>
<wgt id='15075'>0.68988E+03</wgt>
<wgt id='15076'>0.68979E+03</wgt>
<wgt id='15077'>0.69009E+03</wgt>
<wgt id='15078'>0.69005E+03</wgt>
<wgt id='15079'>0.68975E+03</wgt>
<wgt id='15080'>0.69046E+03</wgt>
<wgt id='15081'>0.68992E+03</wgt>
<wgt id='15082'>0.69004E+03</wgt>
<wgt id='15083'>0.68966E+03</wgt>
<wgt id='15084'>0.68943E+03</wgt>
<wgt id='15085'>0.68934E+03</wgt>
<wgt id='15086'>0.69006E+03</wgt>
<wgt id='15087'>0.68914E+03</wgt>
<wgt id='15088'>0.68947E+03</wgt>
<wgt id='15089'>0.68955E+03</wgt>
<wgt id='15090'>0.68995E+03</wgt>
<wgt id='15091'>0.68970E+03</wgt>
<wgt id='15092'>0.68975E+03</wgt>
<wgt id='15093'>0.68968E+03</wgt>
<wgt id='15094'>0.68969E+03</wgt>
<wgt id='15095'>0.68995E+03</wgt>
<wgt id='15096'>0.68964E+03</wgt>
<wgt id='15097'>0.68989E+03</wgt>
<wgt id='15098'>0.68979E+03</wgt>
<wgt id='15099'>0.68960E+03</wgt>
<wgt id='15100'>0.68988E+03</wgt>
<wgt id='15101'>0.68983E+03</wgt>
<wgt id='15102'>0.68978E+03</wgt>
<wgt id='15103'>0.68985E+03</wgt>
<wgt id='15104'>0.68985E+03</wgt>
<wgt id='15105'>0.68986E+03</wgt>
<wgt id='15106'>0.68984E+03</wgt>
<wgt id='15107'>0.68980E+03</wgt>
<wgt id='1500'>0.73563E+03</wgt>
<wgt id='1501'>0.71014E+03</wgt>
<wgt id='1502'>0.75432E+03</wgt>
<wgt id='1503'>0.75527E+03</wgt>
<wgt id='1504'>0.70144E+03</wgt>
<wgt id='1505'>0.70511E+03</wgt>
<wgt id='1506'>0.71906E+03</wgt>
<wgt id='1507'>0.74242E+03</wgt>
<wgt id='1508'>0.74090E+03</wgt>
<wgt id='1509'>0.73490E+03</wgt>
<wgt id='1510'>0.75707E+03</wgt>
<wgt id='1511'>0.73837E+03</wgt>
<wgt id='1512'>0.72756E+03</wgt>
<wgt id='1513'>0.72670E+03</wgt>
<wgt id='1514'>0.76205E+03</wgt>
<wgt id='1515'>0.73710E+03</wgt>
<wgt id='1516'>0.75178E+03</wgt>
<wgt id='1517'>0.75652E+03</wgt>
<wgt id='1518'>0.74690E+03</wgt>
<wgt id='1519'>0.72166E+03</wgt>
<wgt id='1520'>0.74466E+03</wgt>
<wgt id='1521'>0.71192E+03</wgt>
<wgt id='1522'>0.73740E+03</wgt>
<wgt id='1523'>0.74798E+03</wgt>
<wgt id='1524'>0.72392E+03</wgt>
<wgt id='1525'>0.73417E+03</wgt>
<wgt id='1526'>0.70801E+03</wgt>
<wgt id='1527'>0.76290E+03</wgt>
<wgt id='1528'>0.74012E+03</wgt>
<wgt id='1529'>0.74775E+03</wgt>
<wgt id='1530'>0.73375E+03</wgt>
<wgt id='1531'>0.72148E+03</wgt>
<wgt id='1532'>0.72916E+03</wgt>
<wgt id='1533'>0.73422E+03</wgt>
<wgt id='1534'>0.71514E+03</wgt>
<wgt id='1535'>0.77514E+03</wgt>
<wgt id='1536'>0.73613E+03</wgt>
<wgt id='1537'>0.73857E+03</wgt>
<wgt id='1538'>0.73787E+03</wgt>
<wgt id='1539'>0.71289E+03</wgt>
<wgt id='1540'>0.73059E+03</wgt>
<wgt id='1541'>0.71931E+03</wgt>
<wgt id='1542'>0.72320E+03</wgt>
<wgt id='1543'>0.72112E+03</wgt>
<wgt id='1544'>0.73632E+03</wgt>
<wgt id='1545'>0.76037E+03</wgt>
<wgt id='1546'>0.72724E+03</wgt>
<wgt id='1547'>0.73246E+03</wgt>
<wgt id='1548'>0.72953E+03</wgt>
<wgt id='1549'>0.75522E+03</wgt>
<wgt id='1550'>0.73709E+03</wgt>
<wgt id='1551'>0.72944E+03</wgt>
<wgt id='1552'>0.74490E+03</wgt>
<wgt id='1553'>0.73675E+03</wgt>
<wgt id='1554'>0.71619E+03</wgt>
<wgt id='1555'>0.73253E+03</wgt>
<wgt id='1556'>0.74454E+03</wgt>
<wgt id='1557'>0.73237E+03</wgt>
<wgt id='1558'>0.73525E+03</wgt>
<wgt id='1559'>0.74921E+03</wgt>
<wgt id='1560'>0.73156E+03</wgt>
<wgt id='1561'>0.73774E+03</wgt>
<wgt id='1562'>0.74956E+03</wgt>
<wgt id='1563'>0.72134E+03</wgt>
<wgt id='1564'>0.75933E+03</wgt>
<wgt id='1565'>0.72892E+03</wgt>
<wgt id='1566'>0.73687E+03</wgt>
<wgt id='1567'>0.76264E+03</wgt>
<wgt id='1568'>0.73398E+03</wgt>
<wgt id='1569'>0.72811E+03</wgt>
<wgt id='1570'>0.72988E+03</wgt>
<wgt id='1571'>0.73449E+03</wgt>
<wgt id='1572'>0.72146E+03</wgt>
<wgt id='1573'>0.73479E+03</wgt>
<wgt id='1574'>0.73333E+03</wgt>
<wgt id='1575'>0.73984E+03</wgt>
<wgt id='1576'>0.71378E+03</wgt>
<wgt id='1577'>0.71799E+03</wgt>
<wgt id='1578'>0.72389E+03</wgt>
<wgt id='1579'>0.73344E+03</wgt>
<wgt id='1580'>0.72915E+03</wgt>
<wgt id='1581'>0.73793E+03</wgt>
<wgt id='1582'>0.73191E+03</wgt>
<wgt id='1583'>0.72597E+03</wgt>
<wgt id='1584'>0.74389E+03</wgt>
<wgt id='1585'>0.74357E+03</wgt>
<wgt id='1586'>0.74060E+03</wgt>
<wgt id='1587'>0.75594E+03</wgt>
<wgt id='1588'>0.74174E+03</wgt>
<wgt id='1589'>0.72177E+03</wgt>
<wgt id='1590'>0.72975E+03</wgt>
<wgt id='1591'>0.71774E+03</wgt>
<wgt id='1592'>0.73363E+03</wgt>
<wgt id='1593'>0.74225E+03</wgt>
<wgt id='1594'>0.75548E+03</wgt>
<wgt id='1595'>0.76184E+03</wgt>
<wgt id='1596'>0.73039E+03</wgt>
<wgt id='1597'>0.73788E+03</wgt>
<wgt id='1598'>0.73679E+03</wgt>
<wgt id='1599'>0.73492E+03</wgt>
<wgt id='1600'>0.75550E+03</wgt>
<wgt id='1601'>0.72413E+03</wgt>
<wgt id='1602'>0.74114E+03</wgt>
<wgt id='1700'>0.69494E+03</wgt>
<wgt id='1800'>0.77332E+03</wgt>
<wgt id='1850'>0.90813E+03</wgt>
<wgt id='1900'>0.82205E+03</wgt>
<wgt id='1950'>0.88321E+03</wgt>
</rwgt>
</event>
<event>
     13 322222  6.87070E+02  3.02516E+01 -1.00000E+00  1.50355E-01
      21    -1     0     0   503   504  0.000000000E+00  0.000000000E+00  4.082160452E+02  4.082160452E+02  0.000000000E+00  0.00000E+00  9.000E+00
      21    -1     0     0   504   505  0.000000000E+00  0.000000000E+00 -2.605538338E+02  2.605538338E+02  0.000000000E+00  0.00000E+00  9.000E+00
       6     2     1     2   502     0  5.256627014E+01 -6.872421924E+01  8.188017920E+01  2.105869697E+02  1.736556276E+02  0.00000E+00  9.000E+00
      -6     2     1     2     0   505 -3.311993358E+01  9.189752386E+01 -1.445828409E+02  2.456539892E+02  1.729150070E+02  0.00000E+00  9.000E+00
      21     1     1     2   503   502 -1.944633657E+01 -2.317330462E+01  2.103648731E+02  2.125289201E+02  0.000000000E+00  0.00000E+00  9.000E+00
      24     2     3     3     0     0  8.778112479E-01 -5.316119532E+01 -1.640798587E+01  9.834834943E+01  8.109434379E+01  0.00000E+00  9.000E+00
       5     1     3     3   502     0  5.168845889E+01 -1.556302392E+01  9.828816506E+01  1.122386203E+02  4.800000000E+00  0.00000E+00 -1.000E+00
     -24     2     4     4     0     0 -4.918887894E+01  6.124613774E+01 -1.190410569E+01  1.084519293E+02  7.382057998E+01  0.00000E+00  9.000E+00
      -5     1     4     4     0   505  1.606894536E+01  3.065138612E+01 -1.326787352E+02  1.372020599E+02  4.800000000E+00  0.00000E+00  1.000E+00
      -3     1     6     6     0   508 -3.060286993E+01 -3.160582552E+00  1.168057165E+01  3.290897574E+01  2.000000000E-01  0.00000E+00  1.000E+00
       4     1     6     6   508     0  3.148068118E+01 -5.000061277E+01 -2.808855752E+01  6.543937369E+01  1.500000000E+00  0.00000E+00 -1.000E+00
       1     1     8     8   517     0 -6.222266361E+01  2.647968690E+01 -1.986175661E+01  7.047930945E+01  1.000000000E-01  0.00000E+00 -1.000E+00
      -2     1     8     8     0   517  1.303378467E+01  3.476645085E+01  7.957650926E+00  3.797261981E+01  1.000000000E-01  0.00000E+00  1.000E+00
#rwgt            1           1   577.66179173439912                2       10826           0
<rwgt>
<wgt id='1001'>0.68707E+03</wgt>
<wgt id='1002'>0.71282E+03</wgt>
<wgt id='1003'>0.65713E+03</wgt>
<wgt id='1004'>0.58691E+03</wgt>
<wgt id='1005'>0.60350E+03</wgt>
<wgt id='1006'>0.56711E+03</wgt>
<wgt id='1007'>0.81560E+03</wgt>
<wgt id='1008'>0.85562E+03</wgt>
<wgt id='1009'>0.76998E+03</wgt>
<wgt id='2000'>0.68707E+03</wgt>
<wgt id='2001'>0.68618E+03</wgt>
<wgt id='2002'>0.68812E+03</wgt>
<wgt id='2003'>0.68817E+03</wgt>
<wgt id='2004'>0.68846E+03</wgt>
<wgt id='2005'>0.68584E+03</wgt>
<wgt id='2006'>0.68491E+03</wgt>
<wgt id='2007'>0.68357E+03</wgt>
<wgt id='2008'>0.68346E+03</wgt>
<wgt id='2009'>0.68867E+03</wgt>
<wgt id='2010'>0.68749E+03</wgt>
<wgt id='2011'>0.68605E+03</wgt>
<wgt id='2012'>0.68832E+03</wgt>
<wgt id='2013'>0.68863E+03</wgt>
<wgt id='2014'>0.69052E+03</wgt>
<wgt id='2015'>0.68909E+03</wgt>
<wgt id='2016'>0.68759E+03</wgt>
<wgt id='2017'>0.68699E+03</wgt>
<wgt id='2018'>0.68965E+03</wgt>
<wgt id='2019'>0.68698E+03</wgt>
<wgt id='2020'>0.69136E+03</wgt>
<wgt id='2021'>0.68490E+03</wgt>
<wgt id='2022'>0.69038E+03</wgt>
<wgt id='2023'>0.68914E+03</wgt>
<wgt id='2024'>0.68695E+03</wgt>
<wgt id='2025'>0.69085E+03</wgt>
<wgt id='2026'>0.68970E+03</wgt>
<wgt id='2027'>0.68591E+03</wgt>
<wgt id='2028'>0.68524E+03</wgt>
<wgt id='2029'>0.68821E+03</wgt>
<wgt id='2030'>0.68742E+03</wgt>
<wgt id='2031'>0.68801E+03</wgt>
<wgt id='2032'>0.68682E+03</wgt>
<wgt id='2033'>0.68727E+03</wgt>
<wgt id='2034'>0.68758E+03</wgt>
<wgt id='2035'>0.68695E+03</wgt>
<wgt id='2036'>0.68722E+03</wgt>
<wgt id='2037'>0.68735E+03</wgt>
<wgt id='2038'>0.68727E+03</wgt>
<wgt id='2039'>0.68707E+03</wgt>
<wgt id='2040'>0.68713E+03</wgt>
<wgt id='2041'>0.68678E+03</wgt>
<wgt id='2042'>0.68609E+03</wgt>
<wgt id='2043'>0.68762E+03</wgt>
<wgt id='2044'>0.68759E+03</wgt>
<wgt id='2045'>0.68702E+03</wgt>
<wgt id='2046'>0.68761E+03</wgt>
<wgt id='2047'>0.68755E+03</wgt>
<wgt id='2048'>0.68703E+03</wgt>
<wgt id='2049'>0.68707E+03</wgt>
<wgt id='2050'>0.68752E+03</wgt>
<wgt id='2051'>0.68732E+03</wgt>
<wgt id='2052'>0.68662E+03</wgt>
<wgt id='2053'>0.68691E+03</wgt>
<wgt id='2054'>0.68716E+03</wgt>
<wgt id='2055'>0.68718E+03</wgt>
<wgt id='2056'>0.68710E+03</wgt>
<wgt id='2057'>0.68691E+03</wgt>
<wgt id='2058'>0.68723E+03</wgt>
<wgt id='2059'>0.68697E+03</wgt>
<wgt id='2060'>0.68717E+03</wgt>
<wgt id='2061'>0.68698E+03</wgt>
<wgt id='2062'>0.68718E+03</wgt>
<wgt id='2063'>0.68696E+03</wgt>
<wgt id='2064'>0.68694E+03</wgt>
<wgt id='2065'>0.68723E+03</wgt>
<wgt id='2066'>0.68701E+03</wgt>
<wgt id='2067'>0.68705E+03</wgt>
<wgt id='2068'>0.68722E+03</wgt>
<wgt id='2069'>0.68706E+03</wgt>
<wgt id='2070'>0.68691E+03</wgt>
<wgt id='2071'>0.68674E+03</wgt>
<wgt id='2072'>0.68710E+03</wgt>
<wgt id='2073'>0.68706E+03</wgt>
<wgt id='2074'>0.68679E+03</wgt>
<wgt id='2075'>0.68707E+03</wgt>
<wgt id='2076'>0.68699E+03</wgt>
<wgt id='2077'>0.68693E+03</wgt>
<wgt id='2078'>0.68713E+03</wgt>
<wgt id='2079'>0.68718E+03</wgt>
<wgt id='2080'>0.68710E+03</wgt>
<wgt id='2081'>0.68714E+03</wgt>
<wgt id='2082'>0.68717E+03</wgt>
<wgt id='2083'>0.68706E+03</wgt>
<wgt id='2084'>0.68709E+03</wgt>
<wgt id='2085'>0.68700E+03</wgt>
<wgt id='2086'>0.68709E+03</wgt>
<wgt id='2087'>0.68705E+03</wgt>
<wgt id='2088'>0.68712E+03</wgt>
<wgt id='2089'>0.68710E+03</wgt>
<wgt id='2090'>0.68710E+03</wgt>
<wgt id='2091'>0.68706E+03</wgt>
<wgt id='2092'>0.68712E+03</wgt>
<wgt id='2093'>0.68704E+03</wgt>
<wgt id='2094'>0.68711E+03</wgt>
<wgt id='2095'>0.68707E+03</wgt>
<wgt id='2096'>0.68701E+03</wgt>
<wgt id='2097'>0.68718E+03</wgt>
<wgt id='2098'>0.68697E+03</wgt>
<wgt id='2099'>0.68711E+03</wgt>
<wgt id='2100'>0.68705E+03</wgt>
<wgt id='2101'>0.66694E+03</wgt>
<wgt id='2102'>0.70499E+03</wgt>
<wgt id='2104'>0.59996E+03</wgt>
<wgt id='2105'>0.61606E+03</wgt>
<wgt id='2106'>0.63613E+03</wgt>
<wgt id='2107'>0.65484E+03</wgt>
<wgt id='2108'>0.67938E+03</wgt>
<wgt id='2109'>0.69784E+03</wgt>
<wgt id='2110'>0.71937E+03</wgt>
<wgt id='2111'>0.73742E+03</wgt>
<wgt id='3000'>0.71687E+03</wgt>
<wgt id='3001'>0.71810E+03</wgt>
<wgt id='3002'>0.71620E+03</wgt>
<wgt id='3003'>0.71815E+03</wgt>
<wgt id='3004'>0.71836E+03</wgt>
<wgt id='3005'>0.71957E+03</wgt>
<wgt id='3006'>0.71696E+03</wgt>
<wgt id='3007'>0.71967E+03</wgt>
<wgt id='3008'>0.71596E+03</wgt>
<wgt id='3009'>0.71936E+03</wgt>
<wgt id='3010'>0.71504E+03</wgt>
<wgt id='3011'>0.71587E+03</wgt>
<wgt id='3012'>0.71949E+03</wgt>
<wgt id='3013'>0.71566E+03</wgt>
<wgt id='3014'>0.71931E+03</wgt>
<wgt id='3015'>0.71599E+03</wgt>
<wgt id='3016'>0.71755E+03</wgt>
<wgt id='3017'>0.71935E+03</wgt>
<wgt id='3018'>0.71935E+03</wgt>
<wgt id='3019'>0.71327E+03</wgt>
<wgt id='3020'>0.71372E+03</wgt>
<wgt id='3021'>0.71289E+03</wgt>
<wgt id='3022'>0.71658E+03</wgt>
<wgt id='3023'>0.71454E+03</wgt>
<wgt id='3024'>0.71373E+03</wgt>
<wgt id='3025'>0.71683E+03</wgt>
<wgt id='3026'>0.71890E+03</wgt>
<wgt id='3027'>0.71711E+03</wgt>
<wgt id='3028'>0.71360E+03</wgt>
<wgt id='3029'>0.71610E+03</wgt>
<wgt id='3030'>0.71818E+03</wgt>
<wgt id='3031'>0.71744E+03</wgt>
<wgt id='3032'>0.71771E+03</wgt>
<wgt id='3033'>0.71769E+03</wgt>
<wgt id='3034'>0.71742E+03</wgt>
<wgt id='3035'>0.71748E+03</wgt>
<wgt id='3036'>0.71709E+03</wgt>
<wgt id='3037'>0.71695E+03</wgt>
<wgt id='3038'>0.71685E+03</wgt>
<wgt id='3039'>0.71699E+03</wgt>
<wgt id='3040'>0.71702E+03</wgt>
<wgt id='3041'>0.71687E+03</wgt>
<wgt id='3042'>0.71599E+03</wgt>
<wgt id='3043'>0.71603E+03</wgt>
<wgt id='3044'>0.71728E+03</wgt>
<wgt id='3045'>0.71745E+03</wgt>
<wgt id='3046'>0.71719E+03</wgt>
<wgt id='3047'>0.71660E+03</wgt>
<wgt id='3048'>0.71734E+03</wgt>
<wgt id='3049'>0.71663E+03</wgt>
<wgt id='3050'>0.71679E+03</wgt>
<wgt id='3051'>0.71778E+03</wgt>
<wgt id='3052'>0.71673E+03</wgt>
<wgt id='3053'>0.71676E+03</wgt>
<wgt id='3054'>0.71672E+03</wgt>
<wgt id='3055'>0.71710E+03</wgt>
<wgt id='3056'>0.71705E+03</wgt>
<wgt id='3057'>0.71668E+03</wgt>
<wgt id='3058'>0.71667E+03</wgt>
<wgt id='3059'>0.71694E+03</wgt>
<wgt id='3060'>0.71700E+03</wgt>
<wgt id='3061'>0.71725E+03</wgt>
<wgt id='3062'>0.71692E+03</wgt>
<wgt id='3063'>0.71694E+03</wgt>
<wgt id='3064'>0.71685E+03</wgt>
<wgt id='3065'>0.71696E+03</wgt>
<wgt id='3066'>0.71701E+03</wgt>
<wgt id='3067'>0.71658E+03</wgt>
<wgt id='3068'>0.71684E+03</wgt>
<wgt id='3069'>0.71656E+03</wgt>
<wgt id='3070'>0.71656E+03</wgt>
<wgt id='3071'>0.71686E+03</wgt>
<wgt id='3072'>0.71708E+03</wgt>
<wgt id='3073'>0.71692E+03</wgt>
<wgt id='3074'>0.71704E+03</wgt>
<wgt id='3075'>0.71703E+03</wgt>
<wgt id='3076'>0.71690E+03</wgt>
<wgt id='3077'>0.71681E+03</wgt>
<wgt id='3078'>0.71708E+03</wgt>
<wgt id='3079'>0.71676E+03</wgt>
<wgt id='3080'>0.71675E+03</wgt>
<wgt id='3081'>0.71681E+03</wgt>
<wgt id='3082'>0.71678E+03</wgt>
<wgt id='3083'>0.71682E+03</wgt>
<wgt id='3084'>0.71674E+03</wgt>
<wgt id='3085'>0.71693E+03</wgt>
<wgt id='3086'>0.71688E+03</wgt>
<wgt id='3087'>0.71681E+03</wgt>
<wgt id='3088'>0.71679E+03</wgt>
<wgt id='3089'>0.71687E+03</wgt>
<wgt id='3090'>0.71691E+03</wgt>
<wgt id='3091'>0.71688E+03</wgt>
<wgt id='3092'>0.71682E+03</wgt>
<wgt id='3093'>0.71686E+03</wgt>
<wgt id='3094'>0.71698E+03</wgt>
<wgt id='3095'>0.71691E+03</wgt>
<wgt id='3096'>0.71682E+03</wgt>
<wgt id='3097'>0.71676E+03</wgt>
<wgt id='3098'>0.71683E+03</wgt>
<wgt id='3099'>0.71695E+03</wgt>
<wgt id='3100'>0.71692E+03</wgt>
<wgt id='3101'>0.69776E+03</wgt>
<wgt id='3102'>0.73719E+03</wgt>
<wgt id='5000'>0.66942E+03</wgt>
<wgt id='5001'>0.66908E+03</wgt>
<wgt id='5002'>0.67065E+03</wgt>
<wgt id='5003'>0.66722E+03</wgt>
<wgt id='5004'>0.66821E+03</wgt>
<wgt id='5005'>0.65181E+03</wgt>
<wgt id='5006'>0.66376E+03</wgt>
<wgt id='5007'>0.66624E+03</wgt>
<wgt id='5008'>0.66608E+03</wgt>
<wgt id='5009'>0.67172E+03</wgt>
<wgt id='5010'>0.66613E+03</wgt>
<wgt id='5011'>0.66956E+03</wgt>
<wgt id='5012'>0.67018E+03</wgt>
<wgt id='5013'>0.66569E+03</wgt>
<wgt id='5014'>0.67938E+03</wgt>
<wgt id='5015'>0.67227E+03</wgt>
<wgt id='5016'>0.66133E+03</wgt>
<wgt id='5017'>0.66109E+03</wgt>
<wgt id='5018'>0.67815E+03</wgt>
<wgt id='5019'>0.67863E+03</wgt>
<wgt id='5020'>0.66075E+03</wgt>
<wgt id='5021'>0.66998E+03</wgt>
<wgt id='5022'>0.66906E+03</wgt>
<wgt id='5023'>0.66727E+03</wgt>
<wgt id='5024'>0.67169E+03</wgt>
<wgt id='5025'>0.67226E+03</wgt>
<wgt id='5026'>0.66707E+03</wgt>
<wgt id='5027'>0.67404E+03</wgt>
<wgt id='5028'>0.66165E+03</wgt>
<wgt id='5029'>0.66040E+03</wgt>
<wgt id='5030'>0.67502E+03</wgt>
<wgt id='5031'>0.66332E+03</wgt>
<wgt id='5032'>0.67846E+03</wgt>
<wgt id='5033'>0.66815E+03</wgt>
<wgt id='5034'>0.67033E+03</wgt>
<wgt id='5035'>0.67238E+03</wgt>
<wgt id='5036'>0.66616E+03</wgt>
<wgt id='5037'>0.65541E+03</wgt>
<wgt id='5038'>0.68487E+03</wgt>
<wgt id='5039'>0.68536E+03</wgt>
<wgt id='5040'>0.66071E+03</wgt>
<wgt id='5041'>0.66750E+03</wgt>
<wgt id='5042'>0.66881E+03</wgt>
<wgt id='5043'>0.67381E+03</wgt>
<wgt id='5044'>0.66124E+03</wgt>
<wgt id='5045'>0.69339E+03</wgt>
<wgt id='5046'>0.64837E+03</wgt>
<wgt id='5047'>0.68134E+03</wgt>
<wgt id='5048'>0.65982E+03</wgt>
<wgt id='5049'>0.67093E+03</wgt>
<wgt id='5050'>0.66804E+03</wgt>
<wgt id='5051'>0.66958E+03</wgt>
<wgt id='5052'>0.66945E+03</wgt>
<wgt id='5053'>0.66685E+03</wgt>
<wgt id='5054'>0.67514E+03</wgt>
<wgt id='5055'>0.66411E+03</wgt>
<wgt id='5056'>0.67977E+03</wgt>
<wgt id='5060'>0.64954E+03</wgt>
<wgt id='5070'>0.68830E+03</wgt>
<wgt id='4000'>0.68219E+03</wgt>
<wgt id='4001'>0.68218E+03</wgt>
<wgt id='4002'>0.68286E+03</wgt>
<wgt id='4003'>0.68606E+03</wgt>
<wgt id='4004'>0.67028E+03</wgt>
<wgt id='4005'>0.68015E+03</wgt>
<wgt id='4006'>0.68406E+03</wgt>
<wgt id='4007'>0.69231E+03</wgt>
<wgt id='4008'>0.67048E+03</wgt>
<wgt id='4009'>0.67701E+03</wgt>
<wgt id='4010'>0.68220E+03</wgt>
<wgt id='4011'>0.69892E+03</wgt>
<wgt id='4012'>0.67072E+03</wgt>
<wgt id='4013'>0.67158E+03</wgt>
<wgt id='4014'>0.68871E+03</wgt>
<wgt id='4015'>0.69566E+03</wgt>
<wgt id='4016'>0.67282E+03</wgt>
<wgt id='4017'>0.67056E+03</wgt>
<wgt id='4018'>0.69591E+03</wgt>
<wgt id='4019'>0.69216E+03</wgt>
<wgt id='4020'>0.67174E+03</wgt>
<wgt id='4021'>0.68545E+03</wgt>
<wgt id='4022'>0.67584E+03</wgt>
<wgt id='4023'>0.67845E+03</wgt>
<wgt id='4024'>0.68595E+03</wgt>
<wgt id='4025'>0.68951E+03</wgt>
<wgt id='4026'>0.67482E+03</wgt>
<wgt id='4027'>0.68177E+03</wgt>
<wgt id='4028'>0.68286E+03</wgt>
<wgt id='4029'>0.67900E+03</wgt>
<wgt id='4030'>0.68333E+03</wgt>
<wgt id='4031'>0.68487E+03</wgt>
<wgt id='4032'>0.67871E+03</wgt>
<wgt id='4033'>0.67716E+03</wgt>
<wgt id='4034'>0.69317E+03</wgt>
<wgt id='4035'>0.68051E+03</wgt>
<wgt id='4036'>0.68402E+03</wgt>
<wgt id='4037'>0.68517E+03</wgt>
<wgt id='4038'>0.67788E+03</wgt>
<wgt id='4039'>0.68338E+03</wgt>
<wgt id='4040'>0.68191E+03</wgt>
<wgt id='4041'>0.68376E+03</wgt>
<wgt id='4042'>0.68137E+03</wgt>
<wgt id='4043'>0.68803E+03</wgt>
<wgt id='4044'>0.68232E+03</wgt>
<wgt id='4045'>0.67330E+03</wgt>
<wgt id='4046'>0.68436E+03</wgt>
<wgt id='4047'>0.67657E+03</wgt>
<wgt id='4048'>0.67455E+03</wgt>
<wgt id='4049'>0.67250E+03</wgt>
<wgt id='4050'>0.67311E+03</wgt>
<wgt id='4051'>0.68300E+03</wgt>
<wgt id='4052'>0.68243E+03</wgt>
<wgt id='4053'>0.66669E+03</wgt>
<wgt id='4054'>0.69196E+03</wgt>
<wgt id='4055'>0.67515E+03</wgt>
<wgt id='4056'>0.69324E+03</wgt>
<wgt id='4060'>0.66223E+03</wgt>
<wgt id='4070'>0.70185E+03</wgt>
<wgt id='4080'>0.59952E+03</wgt>
<wgt id='6000'>0.70315E+03</wgt>
<wgt id='6001'>0.70341E+03</wgt>
<wgt id='6002'>0.70287E+03</wgt>
<wgt id='6003'>0.70390E+03</wgt>
<wgt id='6004'>0.70264E+03</wgt>
<wgt id='6005'>0.70695E+03</wgt>
<wgt id='6006'>0.69960E+03</wgt>
<wgt id='6007'>0.70014E+03</wgt>
<wgt id='6008'>0.70653E+03</wgt>
<wgt id='6009'>0.70400E+03</wgt>
<wgt id='6010'>0.70229E+03</wgt>
<wgt id='6011'>0.70398E+03</wgt>
<wgt id='6012'>0.70127E+03</wgt>
<wgt id='6013'>0.70282E+03</wgt>
<wgt id='6014'>0.70372E+03</wgt>
<wgt id='6015'>0.70165E+03</wgt>
<wgt id='6016'>0.70398E+03</wgt>
<wgt id='6017'>0.70021E+03</wgt>
<wgt id='6018'>0.70661E+03</wgt>
<wgt id='6019'>0.70397E+03</wgt>
<wgt id='6020'>0.70243E+03</wgt>
<wgt id='6021'>0.70170E+03</wgt>
<wgt id='6022'>0.70505E+03</wgt>
<wgt id='6023'>0.69893E+03</wgt>
<wgt id='6024'>0.70600E+03</wgt>
<wgt id='6025'>0.69919E+03</wgt>
<wgt id='6026'>0.70724E+03</wgt>
<wgt id='6027'>0.70392E+03</wgt>
<wgt id='6028'>0.70290E+03</wgt>
<wgt id='6029'>0.70343E+03</wgt>
<wgt id='6030'>0.70291E+03</wgt>
<wgt id='6031'>0.69851E+03</wgt>
<wgt id='6032'>0.70828E+03</wgt>
<wgt id='6033'>0.70576E+03</wgt>
<wgt id='6034'>0.70058E+03</wgt>
<wgt id='6035'>0.70368E+03</wgt>
<wgt id='6036'>0.70202E+03</wgt>
<wgt id='6037'>0.70390E+03</wgt>
<wgt id='6038'>0.70292E+03</wgt>
<wgt id='6039'>0.70190E+03</wgt>
<wgt id='6040'>0.70457E+03</wgt>
<wgt id='6041'>0.69867E+03</wgt>
<wgt id='6042'>0.70819E+03</wgt>
<wgt id='6043'>0.70957E+03</wgt>
<wgt id='6044'>0.69946E+03</wgt>
<wgt id='6045'>0.70247E+03</wgt>
<wgt id='6046'>0.70484E+03</wgt>
<wgt id='6047'>0.71041E+03</wgt>
<wgt id='6048'>0.68942E+03</wgt>
<wgt id='6049'>0.70664E+03</wgt>
<wgt id='6050'>0.70110E+03</wgt>
<wgt id='7000'>0.67188E+03</wgt>
<wgt id='7001'>0.67147E+03</wgt>
<wgt id='7002'>0.67240E+03</wgt>
<wgt id='7003'>0.67407E+03</wgt>
<wgt id='7004'>0.66969E+03</wgt>
<wgt id='7005'>0.67398E+03</wgt>
<wgt id='7006'>0.67104E+03</wgt>
<wgt id='7007'>0.67069E+03</wgt>
<wgt id='7008'>0.67308E+03</wgt>
<wgt id='7009'>0.67245E+03</wgt>
<wgt id='7010'>0.67135E+03</wgt>
<wgt id='7011'>0.66907E+03</wgt>
<wgt id='7012'>0.67309E+03</wgt>
<wgt id='7013'>0.67187E+03</wgt>
<wgt id='7014'>0.67190E+03</wgt>
<wgt id='7015'>0.67134E+03</wgt>
<wgt id='7016'>0.67245E+03</wgt>
<wgt id='7017'>0.67314E+03</wgt>
<wgt id='7018'>0.67117E+03</wgt>
<wgt id='7019'>0.67171E+03</wgt>
<wgt id='7020'>0.67209E+03</wgt>
<wgt id='7021'>0.67067E+03</wgt>
<wgt id='7022'>0.67270E+03</wgt>
<wgt id='7023'>0.67984E+03</wgt>
<wgt id='7024'>0.66442E+03</wgt>
<wgt id='7025'>0.67449E+03</wgt>
<wgt id='7026'>0.66542E+03</wgt>
<wgt id='7027'>0.67322E+03</wgt>
<wgt id='7028'>0.67049E+03</wgt>
<wgt id='7029'>0.67167E+03</wgt>
<wgt id='7030'>0.67296E+03</wgt>
<wgt id='7031'>0.66984E+03</wgt>
<wgt id='7032'>0.67608E+03</wgt>
<wgt id='7033'>0.67208E+03</wgt>
<wgt id='7034'>0.67146E+03</wgt>
<wgt id='7035'>0.66990E+03</wgt>
<wgt id='7036'>0.67271E+03</wgt>
<wgt id='7037'>0.67180E+03</wgt>
<wgt id='7038'>0.67168E+03</wgt>
<wgt id='7039'>0.67020E+03</wgt>
<wgt id='7040'>0.67315E+03</wgt>
<wgt id='7041'>0.67161E+03</wgt>
<wgt id='7042'>0.67144E+03</wgt>
<wgt id='7043'>0.67254E+03</wgt>
<wgt id='7044'>0.66802E+03</wgt>
<wgt id='7045'>0.66206E+03</wgt>
<wgt id='7046'>0.67739E+03</wgt>
<wgt id='7047'>0.67516E+03</wgt>
<wgt id='7048'>0.67026E+03</wgt>
<wgt id='7049'>0.66751E+03</wgt>
<wgt id='7050'>0.67346E+03</wgt>
<wgt id='7060'>0.85548E+03</wgt>
<wgt id='8000'>0.67033E+03</wgt>
<wgt id='8001'>0.67023E+03</wgt>
<wgt id='8002'>0.67054E+03</wgt>
<wgt id='8003'>0.67036E+03</wgt>
<wgt id='8004'>0.67031E+03</wgt>
<wgt id='8005'>0.66898E+03</wgt>
<wgt id='8006'>0.67080E+03</wgt>
<wgt id='8007'>0.67127E+03</wgt>
<wgt id='8008'>0.67184E+03</wgt>
<wgt id='8009'>0.67318E+03</wgt>
<wgt id='8010'>0.66971E+03</wgt>
<wgt id='8011'>0.67034E+03</wgt>
<wgt id='8012'>0.66805E+03</wgt>
<wgt id='8013'>0.66921E+03</wgt>
<wgt id='8014'>0.67156E+03</wgt>
<wgt id='8015'>0.66993E+03</wgt>
<wgt id='8016'>0.67082E+03</wgt>
<wgt id='8017'>0.67056E+03</wgt>
<wgt id='8018'>0.67153E+03</wgt>
<wgt id='8019'>0.67134E+03</wgt>
<wgt id='8020'>0.66895E+03</wgt>
<wgt id='8021'>0.67004E+03</wgt>
<wgt id='8022'>0.66773E+03</wgt>
<wgt id='8023'>0.67032E+03</wgt>
<wgt id='8024'>0.66962E+03</wgt>
<wgt id='8025'>0.67130E+03</wgt>
<wgt id='8026'>0.67156E+03</wgt>
<wgt id='8027'>0.67020E+03</wgt>
<wgt id='8028'>0.67093E+03</wgt>
<wgt id='8029'>0.66657E+03</wgt>
<wgt id='8500'>0.70330E+03</wgt>
<wgt id='8501'>0.70064E+03</wgt>
<wgt id='8502'>0.71102E+03</wgt>
<wgt id='8503'>0.70679E+03</wgt>
<wgt id='8504'>0.70065E+03</wgt>
<wgt id='8505'>0.70006E+03</wgt>
<wgt id='8506'>0.70678E+03</wgt>
<wgt id='8507'>0.69671E+03</wgt>
<wgt id='8508'>0.69708E+03</wgt>
<wgt id='8509'>0.70570E+03</wgt>
<wgt id='8510'>0.71498E+03</wgt>
<wgt id='8511'>0.70289E+03</wgt>
<wgt id='8512'>0.69663E+03</wgt>
<wgt id='8513'>0.70487E+03</wgt>
<wgt id='8514'>0.69284E+03</wgt>
<wgt id='8515'>0.70648E+03</wgt>
<wgt id='8516'>0.70323E+03</wgt>
<wgt id='8517'>0.70004E+03</wgt>
<wgt id='8518'>0.70081E+03</wgt>
<wgt id='8519'>0.70106E+03</wgt>
<wgt id='8520'>0.70176E+03</wgt>
<wgt id='8521'>0.70003E+03</wgt>
<wgt id='8522'>0.70525E+03</wgt>
<wgt id='8523'>0.70117E+03</wgt>
<wgt id='8524'>0.70309E+03</wgt>
<wgt id='8525'>0.70338E+03</wgt>
<wgt id='8526'>0.70298E+03</wgt>
<wgt id='8527'>0.70324E+03</wgt>
<wgt id='8528'>0.70225E+03</wgt>
<wgt id='8529'>0.70252E+03</wgt>
<wgt id='8530'>0.70338E+03</wgt>
<wgt id='8531'>0.70315E+03</wgt>
<wgt id='8532'>0.70322E+03</wgt>
<wgt id='8533'>0.70232E+03</wgt>
<wgt id='8534'>0.70363E+03</wgt>
<wgt id='8535'>0.70473E+03</wgt>
<wgt id='8536'>0.70290E+03</wgt>
<wgt id='8537'>0.70343E+03</wgt>
<wgt id='8538'>0.70314E+03</wgt>
<wgt id='8539'>0.70363E+03</wgt>
<wgt id='8540'>0.70374E+03</wgt>
<wgt id='8541'>0.70389E+03</wgt>
<wgt id='8542'>0.70387E+03</wgt>
<wgt id='8543'>0.70261E+03</wgt>
<wgt id='8544'>0.70424E+03</wgt>
<wgt id='8545'>0.70371E+03</wgt>
<wgt id='8546'>0.70401E+03</wgt>
<wgt id='8547'>0.70276E+03</wgt>
<wgt id='8548'>0.70287E+03</wgt>
<wgt id='8549'>0.70341E+03</wgt>
<wgt id='8550'>0.70287E+03</wgt>
<wgt id='8551'>0.70270E+03</wgt>
<wgt id='8552'>0.70302E+03</wgt>
<wgt id='8553'>0.70253E+03</wgt>
<wgt id='8554'>0.70284E+03</wgt>
<wgt id='8555'>0.70335E+03</wgt>
<wgt id='8556'>0.70316E+03</wgt>
<wgt id='8557'>0.70336E+03</wgt>
<wgt id='8558'>0.70417E+03</wgt>
<wgt id='8559'>0.70305E+03</wgt>
<wgt id='8560'>0.70241E+03</wgt>
<wgt id='8561'>0.70350E+03</wgt>
<wgt id='8562'>0.70286E+03</wgt>
<wgt id='8563'>0.70330E+03</wgt>
<wgt id='8564'>0.70306E+03</wgt>
<wgt id='8565'>0.70343E+03</wgt>
<wgt id='8566'>0.70353E+03</wgt>
<wgt id='8567'>0.70326E+03</wgt>
<wgt id='8568'>0.70373E+03</wgt>
<wgt id='8569'>0.70358E+03</wgt>
<wgt id='8570'>0.70307E+03</wgt>
<wgt id='8571'>0.70283E+03</wgt>
<wgt id='8572'>0.70299E+03</wgt>
<wgt id='8573'>0.70301E+03</wgt>
<wgt id='8574'>0.70307E+03</wgt>
<wgt id='8575'>0.70318E+03</wgt>
<wgt id='8576'>0.70333E+03</wgt>
<wgt id='8577'>0.70302E+03</wgt>
<wgt id='8578'>0.70323E+03</wgt>
<wgt id='8579'>0.70383E+03</wgt>
<wgt id='8580'>0.70329E+03</wgt>
<wgt id='8581'>0.70359E+03</wgt>
<wgt id='8582'>0.70292E+03</wgt>
<wgt id='8583'>0.70350E+03</wgt>
<wgt id='8584'>0.70368E+03</wgt>
<wgt id='8585'>0.70346E+03</wgt>
<wgt id='8586'>0.70392E+03</wgt>
<wgt id='8587'>0.70335E+03</wgt>
<wgt id='8588'>0.70326E+03</wgt>
<wgt id='8589'>0.70330E+03</wgt>
<wgt id='8590'>0.70331E+03</wgt>
<wgt id='8591'>0.70302E+03</wgt>
<wgt id='8592'>0.70325E+03</wgt>
<wgt id='8593'>0.70312E+03</wgt>
<wgt id='8594'>0.70324E+03</wgt>
<wgt id='8595'>0.70326E+03</wgt>
<wgt id='8596'>0.70322E+03</wgt>
<wgt id='8597'>0.70344E+03</wgt>
<wgt id='8598'>0.70345E+03</wgt>
<wgt id='8599'>0.70337E+03</wgt>
<wgt id='8600'>0.70331E+03</wgt>
<wgt id='8601'>0.69106E+03</wgt>
<wgt id='8602'>0.71452E+03</wgt>
<wgt id='9000'>0.67633E+03</wgt>
<wgt id='9001'>0.67600E+03</wgt>
<wgt id='9002'>0.67972E+03</wgt>
<wgt id='9003'>0.67104E+03</wgt>
<wgt id='9004'>0.67578E+03</wgt>
<wgt id='9005'>0.68094E+03</wgt>
<wgt id='9006'>0.67351E+03</wgt>
<wgt id='9007'>0.67072E+03</wgt>
<wgt id='9008'>0.67461E+03</wgt>
<wgt id='9009'>0.67650E+03</wgt>
<wgt id='9010'>0.67188E+03</wgt>
<wgt id='9011'>0.68457E+03</wgt>
<wgt id='9012'>0.67808E+03</wgt>
<wgt id='9013'>0.66744E+03</wgt>
<wgt id='9014'>0.67321E+03</wgt>
<wgt id='9015'>0.67572E+03</wgt>
<wgt id='9016'>0.68564E+03</wgt>
<wgt id='9017'>0.67377E+03</wgt>
<wgt id='9018'>0.67521E+03</wgt>
<wgt id='9019'>0.67611E+03</wgt>
<wgt id='9020'>0.68009E+03</wgt>
<wgt id='9021'>0.67443E+03</wgt>
<wgt id='9022'>0.67768E+03</wgt>
<wgt id='9023'>0.67343E+03</wgt>
<wgt id='9024'>0.67534E+03</wgt>
<wgt id='9025'>0.67736E+03</wgt>
<wgt id='9026'>0.67631E+03</wgt>
<wgt id='9027'>0.67523E+03</wgt>
<wgt id='9028'>0.67677E+03</wgt>
<wgt id='9029'>0.67727E+03</wgt>
<wgt id='9030'>0.67620E+03</wgt>
<wgt id='9031'>0.67571E+03</wgt>
<wgt id='9032'>0.67700E+03</wgt>
<wgt id='9033'>0.67700E+03</wgt>
<wgt id='9034'>0.67628E+03</wgt>
<wgt id='9035'>0.67702E+03</wgt>
<wgt id='9036'>0.67648E+03</wgt>
<wgt id='9037'>0.67689E+03</wgt>
<wgt id='9038'>0.67669E+03</wgt>
<wgt id='9039'>0.67640E+03</wgt>
<wgt id='9040'>0.67588E+03</wgt>
<wgt id='9041'>0.67631E+03</wgt>
<wgt id='9042'>0.67643E+03</wgt>
<wgt id='9043'>0.67569E+03</wgt>
<wgt id='9044'>0.67659E+03</wgt>
<wgt id='9045'>0.67657E+03</wgt>
<wgt id='9046'>0.67548E+03</wgt>
<wgt id='9047'>0.67635E+03</wgt>
<wgt id='9048'>0.67664E+03</wgt>
<wgt id='9049'>0.67592E+03</wgt>
<wgt id='9050'>0.67646E+03</wgt>
<wgt id='9051'>0.67674E+03</wgt>
<wgt id='9052'>0.67666E+03</wgt>
<wgt id='9053'>0.67631E+03</wgt>
<wgt id='9054'>0.67599E+03</wgt>
<wgt id='9055'>0.67609E+03</wgt>
<wgt id='9056'>0.67693E+03</wgt>
<wgt id='9057'>0.67640E+03</wgt>
<wgt id='9058'>0.67559E+03</wgt>
<wgt id='9059'>0.67595E+03</wgt>
<wgt id='9060'>0.67601E+03</wgt>
<wgt id='9061'>0.67641E+03</wgt>
<wgt id='9062'>0.67645E+03</wgt>
<wgt id='9063'>0.67662E+03</wgt>
<wgt id='9064'>0.67623E+03</wgt>
<wgt id='9065'>0.67624E+03</wgt>
<wgt id='9066'>0.67639E+03</wgt>
<wgt id='9067'>0.67659E+03</wgt>
<wgt id='9068'>0.67657E+03</wgt>
<wgt id='9069'>0.67681E+03</wgt>
<wgt id='9070'>0.67620E+03</wgt>
<wgt id='9071'>0.67682E+03</wgt>
<wgt id='9072'>0.67683E+03</wgt>
<wgt id='9073'>0.67615E+03</wgt>
<wgt id='9074'>0.67645E+03</wgt>
<wgt id='9075'>0.67630E+03</wgt>
<wgt id='9076'>0.67624E+03</wgt>
<wgt id='9077'>0.67648E+03</wgt>
<wgt id='9078'>0.67634E+03</wgt>
<wgt id='9079'>0.67620E+03</wgt>
<wgt id='9080'>0.67700E+03</wgt>
<wgt id='9081'>0.67627E+03</wgt>
<wgt id='9082'>0.67655E+03</wgt>
<wgt id='9083'>0.67608E+03</wgt>
<wgt id='9084'>0.67605E+03</wgt>
<wgt id='9085'>0.67603E+03</wgt>
<wgt id='9086'>0.67650E+03</wgt>
<wgt id='9087'>0.67572E+03</wgt>
<wgt id='9088'>0.67610E+03</wgt>
<wgt id='9089'>0.67610E+03</wgt>
<wgt id='9090'>0.67645E+03</wgt>
<wgt id='9091'>0.67619E+03</wgt>
<wgt id='9092'>0.67627E+03</wgt>
<wgt id='9093'>0.67619E+03</wgt>
<wgt id='9094'>0.67621E+03</wgt>
<wgt id='9095'>0.67640E+03</wgt>
<wgt id='9096'>0.67619E+03</wgt>
<wgt id='9097'>0.67640E+03</wgt>
<wgt id='9098'>0.67629E+03</wgt>
<wgt id='9099'>0.67616E+03</wgt>
<wgt id='9100'>0.67633E+03</wgt>
<wgt id='9101'>0.66565E+03</wgt>
<wgt id='9102'>0.68622E+03</wgt>
<wgt id='10000'>0.70311E+03</wgt>
<wgt id='10001'>0.70796E+03</wgt>
<wgt id='10002'>0.69766E+03</wgt>
<wgt id='10003'>0.70267E+03</wgt>
<wgt id='10004'>0.69218E+03</wgt>
<wgt id='10005'>0.71665E+03</wgt>
<wgt id='10006'>0.70022E+03</wgt>
<wgt id='10007'>0.70286E+03</wgt>
<wgt id='10008'>0.70441E+03</wgt>
<wgt id='10009'>0.70044E+03</wgt>
<wgt id='10010'>0.70506E+03</wgt>
<wgt id='10011'>0.69967E+03</wgt>
<wgt id='10012'>0.70349E+03</wgt>
<wgt id='10013'>0.70396E+03</wgt>
<wgt id='10014'>0.70178E+03</wgt>
<wgt id='10015'>0.70252E+03</wgt>
<wgt id='10016'>0.70041E+03</wgt>
<wgt id='10017'>0.70932E+03</wgt>
<wgt id='10018'>0.70397E+03</wgt>
<wgt id='10019'>0.70172E+03</wgt>
<wgt id='10020'>0.70155E+03</wgt>
<wgt id='10021'>0.70254E+03</wgt>
<wgt id='10022'>0.70285E+03</wgt>
<wgt id='10023'>0.70326E+03</wgt>
<wgt id='10024'>0.70218E+03</wgt>
<wgt id='10025'>0.70260E+03</wgt>
<wgt id='10026'>0.70555E+03</wgt>
<wgt id='10027'>0.70475E+03</wgt>
<wgt id='10028'>0.71064E+03</wgt>
<wgt id='10029'>0.70350E+03</wgt>
<wgt id='10030'>0.70287E+03</wgt>
<wgt id='10031'>0.69106E+03</wgt>
<wgt id='10032'>0.71452E+03</wgt>
<wgt id='11000'>0.67615E+03</wgt>
<wgt id='11001'>0.66705E+03</wgt>
<wgt id='11002'>0.67987E+03</wgt>
<wgt id='11003'>0.67573E+03</wgt>
<wgt id='11004'>0.68036E+03</wgt>
<wgt id='11005'>0.67102E+03</wgt>
<wgt id='11006'>0.67662E+03</wgt>
<wgt id='11007'>0.67456E+03</wgt>
<wgt id='11008'>0.67563E+03</wgt>
<wgt id='11009'>0.67343E+03</wgt>
<wgt id='11010'>0.67051E+03</wgt>
<wgt id='11011'>0.67331E+03</wgt>
<wgt id='11012'>0.67682E+03</wgt>
<wgt id='11013'>0.67781E+03</wgt>
<wgt id='11014'>0.67437E+03</wgt>
<wgt id='11015'>0.67554E+03</wgt>
<wgt id='11016'>0.67546E+03</wgt>
<wgt id='11017'>0.68129E+03</wgt>
<wgt id='11018'>0.67553E+03</wgt>
<wgt id='11019'>0.67555E+03</wgt>
<wgt id='11020'>0.67878E+03</wgt>
<wgt id='11021'>0.67758E+03</wgt>
<wgt id='11022'>0.68874E+03</wgt>
<wgt id='11023'>0.67667E+03</wgt>
<wgt id='11024'>0.67675E+03</wgt>
<wgt id='11025'>0.67670E+03</wgt>
<wgt id='11026'>0.67621E+03</wgt>
<wgt id='11027'>0.67603E+03</wgt>
<wgt id='11028'>0.67674E+03</wgt>
<wgt id='11029'>0.67648E+03</wgt>
<wgt id='11030'>0.67609E+03</wgt>
<wgt id='11031'>0.66565E+03</wgt>
<wgt id='11032'>0.68622E+03</wgt>
<wgt id='12000'>0.70234E+03</wgt>
<wgt id='12001'>0.70131E+03</wgt>
<wgt id='12002'>0.70336E+03</wgt>
<wgt id='12003'>0.70305E+03</wgt>
<wgt id='12004'>0.70163E+03</wgt>
<wgt id='12005'>0.70360E+03</wgt>
<wgt id='12006'>0.70108E+03</wgt>
<wgt id='12007'>0.70603E+03</wgt>
<wgt id='12008'>0.69874E+03</wgt>
<wgt id='12009'>0.70205E+03</wgt>
<wgt id='12010'>0.70264E+03</wgt>
<wgt id='12011'>0.69860E+03</wgt>
<wgt id='12012'>0.70657E+03</wgt>
<wgt id='12013'>0.69962E+03</wgt>
<wgt id='12014'>0.70510E+03</wgt>
<wgt id='12015'>0.70253E+03</wgt>
<wgt id='12016'>0.70067E+03</wgt>
<wgt id='12017'>0.70583E+03</wgt>
<wgt id='12018'>0.70002E+03</wgt>
<wgt id='12019'>0.70065E+03</wgt>
<wgt id='12020'>0.70342E+03</wgt>
<wgt id='12021'>0.70411E+03</wgt>
<wgt id='12022'>0.70037E+03</wgt>
<wgt id='12023'>0.69782E+03</wgt>
<wgt id='12024'>0.70482E+03</wgt>
<wgt id='12025'>0.70231E+03</wgt>
<wgt id='12026'>0.70291E+03</wgt>
<wgt id='12027'>0.70761E+03</wgt>
<wgt id='12028'>0.69768E+03</wgt>
<wgt id='12050'>0.70234E+03</wgt>
<wgt id='12051'>0.70199E+03</wgt>
<wgt id='12052'>0.69726E+03</wgt>
<wgt id='12053'>0.70204E+03</wgt>
<wgt id='12054'>0.69822E+03</wgt>
<wgt id='12055'>0.70197E+03</wgt>
<wgt id='12056'>0.69881E+03</wgt>
<wgt id='12057'>0.69860E+03</wgt>
<wgt id='12058'>0.70196E+03</wgt>
<wgt id='12059'>0.70248E+03</wgt>
<wgt id='12060'>0.69815E+03</wgt>
<wgt id='12061'>0.69908E+03</wgt>
<wgt id='12062'>0.69823E+03</wgt>
<wgt id='12063'>0.69335E+03</wgt>
<wgt id='13000'>0.66427E+03</wgt>
<wgt id='13001'>0.66062E+03</wgt>
<wgt id='13002'>0.66204E+03</wgt>
<wgt id='13003'>0.66126E+03</wgt>
<wgt id='13004'>0.66140E+03</wgt>
<wgt id='13005'>0.66240E+03</wgt>
<wgt id='13006'>0.66025E+03</wgt>
<wgt id='13007'>0.66553E+03</wgt>
<wgt id='13008'>0.65724E+03</wgt>
<wgt id='13009'>0.65910E+03</wgt>
<wgt id='13010'>0.66364E+03</wgt>
<wgt id='13011'>0.66356E+03</wgt>
<wgt id='13012'>0.65911E+03</wgt>
<wgt id='13013'>0.65999E+03</wgt>
<wgt id='13014'>0.66260E+03</wgt>
<wgt id='13015'>0.66003E+03</wgt>
<wgt id='13016'>0.66073E+03</wgt>
<wgt id='13017'>0.66162E+03</wgt>
<wgt id='13018'>0.66103E+03</wgt>
<wgt id='13019'>0.65960E+03</wgt>
<wgt id='13020'>0.66311E+03</wgt>
<wgt id='13021'>0.65975E+03</wgt>
<wgt id='13022'>0.66261E+03</wgt>
<wgt id='13023'>0.66013E+03</wgt>
<wgt id='13024'>0.66261E+03</wgt>
<wgt id='13025'>0.65541E+03</wgt>
<wgt id='13026'>0.66643E+03</wgt>
<wgt id='13027'>0.65926E+03</wgt>
<wgt id='13028'>0.66387E+03</wgt>
<wgt id='13050'>0.66427E+03</wgt>
<wgt id='13051'>0.66349E+03</wgt>
<wgt id='13052'>0.65666E+03</wgt>
<wgt id='13053'>0.66328E+03</wgt>
<wgt id='13054'>0.65956E+03</wgt>
<wgt id='13055'>0.65699E+03</wgt>
<wgt id='13056'>0.65685E+03</wgt>
<wgt id='13057'>0.65991E+03</wgt>
<wgt id='13058'>0.66452E+03</wgt>
<wgt id='13059'>0.66223E+03</wgt>
<wgt id='13060'>0.65347E+03</wgt>
<wgt id='13061'>0.65939E+03</wgt>
<wgt id='13062'>0.66576E+03</wgt>
<wgt id='13063'>0.66027E+03</wgt>
<wgt id='14000'>0.68214E+03</wgt>
<wgt id='14001'>0.68205E+03</wgt>
<wgt id='14002'>0.68197E+03</wgt>
<wgt id='14003'>0.68188E+03</wgt>
<wgt id='14004'>0.68179E+03</wgt>
<wgt id='14005'>0.68171E+03</wgt>
<wgt id='14006'>0.68162E+03</wgt>
<wgt id='14007'>0.68154E+03</wgt>
<wgt id='14008'>0.68145E+03</wgt>
<wgt id='14009'>0.68137E+03</wgt>
<wgt id='14010'>0.68128E+03</wgt>
<wgt id='14011'>0.68119E+03</wgt>
<wgt id='14012'>0.68111E+03</wgt>
<wgt id='14013'>0.68102E+03</wgt>
<wgt id='14014'>0.68094E+03</wgt>
<wgt id='14015'>0.68085E+03</wgt>
<wgt id='14016'>0.68077E+03</wgt>
<wgt id='14017'>0.68068E+03</wgt>
<wgt id='14018'>0.68059E+03</wgt>
<wgt id='14019'>0.68051E+03</wgt>
<wgt id='14020'>0.68042E+03</wgt>
<wgt id='14021'>0.68034E+03</wgt>
<wgt id='14022'>0.68025E+03</wgt>
<wgt id='14023'>0.68017E+03</wgt>
<wgt id='14024'>0.68008E+03</wgt>
<wgt id='14025'>0.67999E+03</wgt>
<wgt id='14026'>0.67991E+03</wgt>
<wgt id='14027'>0.67982E+03</wgt>
<wgt id='14028'>0.67974E+03</wgt>
<wgt id='14029'>0.67965E+03</wgt>
<wgt id='14030'>0.67957E+03</wgt>
<wgt id='15000'>0.66786E+03</wgt>
<wgt id='15001'>0.66746E+03</wgt>
<wgt id='15002'>0.67117E+03</wgt>
<wgt id='15003'>0.66265E+03</wgt>
<wgt id='15004'>0.66730E+03</wgt>
<wgt id='15005'>0.67242E+03</wgt>
<wgt id='15006'>0.66513E+03</wgt>
<wgt id='15007'>0.66236E+03</wgt>
<wgt id='15008'>0.66615E+03</wgt>
<wgt id='15009'>0.66804E+03</wgt>
<wgt id='15010'>0.66345E+03</wgt>
<wgt id='15011'>0.67610E+03</wgt>
<wgt id='15012'>0.66961E+03</wgt>
<wgt id='15013'>0.65912E+03</wgt>
<wgt id='15014'>0.66472E+03</wgt>
<wgt id='15015'>0.66711E+03</wgt>
<wgt id='15016'>0.67715E+03</wgt>
<wgt id='15017'>0.66531E+03</wgt>
<wgt id='15018'>0.66673E+03</wgt>
<wgt id='15019'>0.66770E+03</wgt>
<wgt id='15020'>0.67164E+03</wgt>
<wgt id='15021'>0.66588E+03</wgt>
<wgt id='15022'>0.66919E+03</wgt>
<wgt id='15023'>0.66498E+03</wgt>
<wgt id='15024'>0.66683E+03</wgt>
<wgt id='15025'>0.66885E+03</wgt>
<wgt id='15026'>0.66777E+03</wgt>
<wgt id='15027'>0.66681E+03</wgt>
<wgt id='15028'>0.66833E+03</wgt>
<wgt id='15029'>0.66876E+03</wgt>
<wgt id='15030'>0.66767E+03</wgt>
<wgt id='15031'>0.66731E+03</wgt>
<wgt id='15032'>0.66851E+03</wgt>
<wgt id='15033'>0.66850E+03</wgt>
<wgt id='15034'>0.66780E+03</wgt>
<wgt id='15035'>0.66853E+03</wgt>
<wgt id='15036'>0.66800E+03</wgt>
<wgt id='15037'>0.66842E+03</wgt>
<wgt id='15038'>0.66821E+03</wgt>
<wgt id='15039'>0.66790E+03</wgt>
<wgt id='15040'>0.66741E+03</wgt>
<wgt id='15041'>0.66782E+03</wgt>
<wgt id='15042'>0.66795E+03</wgt>
<wgt id='15043'>0.66727E+03</wgt>
<wgt id='15044'>0.66811E+03</wgt>
<wgt id='15045'>0.66808E+03</wgt>
<wgt id='15046'>0.66703E+03</wgt>
<wgt id='15047'>0.66786E+03</wgt>
<wgt id='15048'>0.66817E+03</wgt>
<wgt id='15049'>0.66744E+03</wgt>
<wgt id='15050'>0.66799E+03</wgt>
<wgt id='15051'>0.66825E+03</wgt>
<wgt id='15052'>0.66818E+03</wgt>
<wgt id='15053'>0.66784E+03</wgt>
<wgt id='15054'>0.66752E+03</wgt>
<wgt id='15055'>0.66763E+03</wgt>
<wgt id='15056'>0.66843E+03</wgt>
<wgt id='15057'>0.66792E+03</wgt>
<wgt id='15058'>0.66715E+03</wgt>
<wgt id='15059'>0.66749E+03</wgt>
<wgt id='15060'>0.66754E+03</wgt>
<wgt id='15061'>0.66794E+03</wgt>
<wgt id='15062'>0.66796E+03</wgt>
<wgt id='15063'>0.66814E+03</wgt>
<wgt id='15064'>0.66777E+03</wgt>
<wgt id='15065'>0.66776E+03</wgt>
<wgt id='15066'>0.66791E+03</wgt>
<wgt id='15067'>0.66810E+03</wgt>
<wgt id='15068'>0.66810E+03</wgt>
<wgt id='15069'>0.66832E+03</wgt>
<wgt id='15070'>0.66773E+03</wgt>
<wgt id='15071'>0.66835E+03</wgt>
<wgt id='15072'>0.66835E+03</wgt>
<wgt id='15073'>0.66766E+03</wgt>
<wgt id='15074'>0.66797E+03</wgt>
<wgt id='15075'>0.66783E+03</wgt>
<wgt id='15076'>0.66778E+03</wgt>
<wgt id='15077'>0.66801E+03</wgt>
<wgt id='15078'>0.66788E+03</wgt>
<wgt id='15079'>0.66772E+03</wgt>
<wgt id='15080'>0.66850E+03</wgt>
<wgt id='15081'>0.66780E+03</wgt>
<wgt id='15082'>0.66808E+03</wgt>
<wgt id='15083'>0.66760E+03</wgt>
<wgt id='15084'>0.66757E+03</wgt>
<wgt id='15085'>0.66757E+03</wgt>
<wgt id='15086'>0.66804E+03</wgt>
<wgt id='15087'>0.66724E+03</wgt>
<wgt id='15088'>0.66762E+03</wgt>
<wgt id='15089'>0.66761E+03</wgt>
<wgt id='15090'>0.66797E+03</wgt>
<wgt id='15091'>0.66770E+03</wgt>
<wgt id='15092'>0.66779E+03</wgt>
<wgt id='15093'>0.66772E+03</wgt>
<wgt id='15094'>0.66773E+03</wgt>
<wgt id='15095'>0.66793E+03</wgt>
<wgt id='15096'>0.66772E+03</wgt>
<wgt id='15097'>0.66792E+03</wgt>
<wgt id='15098'>0.66781E+03</wgt>
<wgt id='15099'>0.66769E+03</wgt>
<wgt id='15100'>0.66786E+03</wgt>
<wgt id='15101'>0.66785E+03</wgt>
<wgt id='15102'>0.66781E+03</wgt>
<wgt id='15103'>0.66787E+03</wgt>
<wgt id='15104'>0.66787E+03</wgt>
<wgt id='15105'>0.66788E+03</wgt>
<wgt id='15106'>0.66786E+03</wgt>
<wgt id='15107'>0.66782E+03</wgt>
<wgt id='1500'>0.72192E+03</wgt>
<wgt id='1501'>0.68921E+03</wgt>
<wgt id='1502'>0.71476E+03</wgt>
<wgt id='1503'>0.72183E+03</wgt>
<wgt id='1504'>0.71592E+03</wgt>
<wgt id='1505'>0.65240E+03</wgt>
<wgt id='1506'>0.73953E+03</wgt>
<wgt id='1507'>0.72235E+03</wgt>
<wgt id='1508'>0.73709E+03</wgt>
<wgt id='1509'>0.73057E+03</wgt>
<wgt id='1510'>0.68562E+03</wgt>
<wgt id='1511'>0.67171E+03</wgt>
<wgt id='1512'>0.73715E+03</wgt>
<wgt id='1513'>0.73706E+03</wgt>
<wgt id='1514'>0.69886E+03</wgt>
<wgt id='1515'>0.73520E+03</wgt>
<wgt id='1516'>0.73212E+03</wgt>
<wgt id='1517'>0.72035E+03</wgt>
<wgt id='1518'>0.72920E+03</wgt>
<wgt id='1519'>0.74072E+03</wgt>
<wgt id='1520'>0.75040E+03</wgt>
<wgt id='1521'>0.72663E+03</wgt>
<wgt id='1522'>0.70261E+03</wgt>
<wgt id='1523'>0.77287E+03</wgt>
<wgt id='1524'>0.71701E+03</wgt>
<wgt id='1525'>0.72293E+03</wgt>
<wgt id='1526'>0.72279E+03</wgt>
<wgt id='1527'>0.72317E+03</wgt>
<wgt id='1528'>0.71252E+03</wgt>
<wgt id='1529'>0.72581E+03</wgt>
<wgt id='1530'>0.74100E+03</wgt>
<wgt id='1531'>0.71299E+03</wgt>
<wgt id='1532'>0.69708E+03</wgt>
<wgt id='1533'>0.71249E+03</wgt>
<wgt id='1534'>0.71746E+03</wgt>
<wgt id='1535'>0.73944E+03</wgt>
<wgt id='1536'>0.73913E+03</wgt>
<wgt id='1537'>0.73574E+03</wgt>
<wgt id='1538'>0.74473E+03</wgt>
<wgt id='1539'>0.71270E+03</wgt>
<wgt id='1540'>0.72283E+03</wgt>
<wgt id='1541'>0.73375E+03</wgt>
<wgt id='1542'>0.71650E+03</wgt>
<wgt id='1543'>0.71892E+03</wgt>
<wgt id='1544'>0.71357E+03</wgt>
<wgt id='1545'>0.70771E+03</wgt>
<wgt id='1546'>0.73916E+03</wgt>
<wgt id='1547'>0.71687E+03</wgt>
<wgt id='1548'>0.72157E+03</wgt>
<wgt id='1549'>0.71454E+03</wgt>
<wgt id='1550'>0.71607E+03</wgt>
<wgt id='1551'>0.71678E+03</wgt>
<wgt id='1552'>0.70671E+03</wgt>
<wgt id='1553'>0.72568E+03</wgt>
<wgt id='1554'>0.72757E+03</wgt>
<wgt id='1555'>0.71416E+03</wgt>
<wgt id='1556'>0.71058E+03</wgt>
<wgt id='1557'>0.74658E+03</wgt>
<wgt id='1558'>0.70666E+03</wgt>
<wgt id='1559'>0.73160E+03</wgt>
<wgt id='1560'>0.72218E+03</wgt>
<wgt id='1561'>0.72687E+03</wgt>
<wgt id='1562'>0.72209E+03</wgt>
<wgt id='1563'>0.72764E+03</wgt>
<wgt id='1564'>0.70414E+03</wgt>
<wgt id='1565'>0.73441E+03</wgt>
<wgt id='1566'>0.71551E+03</wgt>
<wgt id='1567'>0.77646E+03</wgt>
<wgt id='1568'>0.71236E+03</wgt>
<wgt id='1569'>0.70014E+03</wgt>
<wgt id='1570'>0.70991E+03</wgt>
<wgt id='1571'>0.72319E+03</wgt>
<wgt id='1572'>0.72733E+03</wgt>
<wgt id='1573'>0.68734E+03</wgt>
<wgt id='1574'>0.72503E+03</wgt>
<wgt id='1575'>0.72010E+03</wgt>
<wgt id='1576'>0.69379E+03</wgt>
<wgt id='1577'>0.71588E+03</wgt>
<wgt id='1578'>0.74322E+03</wgt>
<wgt id='1579'>0.72071E+03</wgt>
<wgt id='1580'>0.71803E+03</wgt>
<wgt id='1581'>0.72150E+03</wgt>
<wgt id='1582'>0.70800E+03</wgt>
<wgt id='1583'>0.75039E+03</wgt>
<wgt id='1584'>0.72103E+03</wgt>
<wgt id='1585'>0.70562E+03</wgt>
<wgt id='1586'>0.71361E+03</wgt>
<wgt id='1587'>0.71550E+03</wgt>
<wgt id='1588'>0.72352E+03</wgt>
<wgt id='1589'>0.75914E+03</wgt>
<wgt id='1590'>0.70967E+03</wgt>
<wgt id='1591'>0.72352E+03</wgt>
<wgt id='1592'>0.72868E+03</wgt>
<wgt id='1593'>0.72653E+03</wgt>
<wgt id='1594'>0.73013E+03</wgt>
<wgt id='1595'>0.70495E+03</wgt>
<wgt id='1596'>0.73873E+03</wgt>
<wgt id='1597'>0.72541E+03</wgt>
<wgt id='1598'>0.74360E+03</wgt>
<wgt id='1599'>0.74555E+03</wgt>
<wgt id='1600'>0.73251E+03</wgt>
<wgt id='1601'>0.71331E+03</wgt>
<wgt id='1602'>0.72828E+03</wgt>
<wgt id='1700'>0.68597E+03</wgt>
<wgt id='1800'>0.69852E+03</wgt>
<wgt id='1850'>0.82882E+03</wgt>
<wgt id='1900'>0.74431E+03</wgt>
<wgt id='1950'>0.80018E+03</wgt>
</rwgt>
</event>
</LesHouchesEvents>
