<LesHouchesEvents version="3.0">
<header>
<!--
#*********************************************************************
#                                                                    *
#                        MadGraph5_aMC@NLO                           *
#                                                                    *
#                           Going Beyond                             *
#                                                                    *
#                   http://madgraph.hep.uiuc.edu                     *
#                   http://madgraph.phys.ucl.ac.be                   *
#                   http://amcatnlo.cern.ch                          *
#                                                                    *
#                     The MadGraph5_aMC@NLO team                     *
#                                                                    *
#....................................................................*
#                                                                    *
# This file contains all the information necessary to reproduce      *
# the events generated:                                              *
#                                                                    *
# 1. software version                                                *
# 2. proc_card          : code generation info including model       *
# 3. param_card         : model primary parameters in the LH format  *
# 4. run_card           : running parameters (collider and cuts)     *
# 5. pythia_card        : present only if pythia has been run        *
# 6. pgs_card           : present only if pgs has been run           *
# 7. delphes_cards      : present only if delphes has been run       *
#                                                                    *
#                                                                    *
#*********************************************************************
-->
<MGVersion>
#2.6.1
</MGVersion>
<MG5ProcCard>
<![CDATA[
#************************************************************
#*                     MadGraph5_aMC@NLO                    *
#*                                                          *
#*                *                       *                 *
#*                  *        * *        *                   *
#*                    * * * * 5 * * * *                     *
#*                  *        * *        *                   *
#*                *                       *                 *
#*                                                          *
#*                                                          *
#*         VERSION 2.6.1                 2017-12-12         *
#*                                                          *
#*    The MadGraph5_aMC@NLO Development Team - Find us at   *
#*    https://server06.fynu.ucl.ac.be/projects/madgraph     *
#*                                                          *
#************************************************************
#*                                                          *
#*               Command File for MadGraph5_aMC@NLO         *
#*                                                          *
#*     run as ./bin/mg5_aMC  filename                       *
#*                                                          *
#************************************************************
set loop_color_flows False
set gauge unitary
set max_npoint_for_channel 0
set group_subprocesses Auto
set ignore_six_quark_processes False
set loop_optimized_output True
set complex_mass_scheme False
import model sm-ckm_no_b_mass
define p = 21 2 4 1 3 -2 -4 -1 -3 5 -5 # pass to 5 flavors
define j = p
define p = g u c d s u~ c~ d~ s~
define j = g u c d s u~ c~ d~ s~
define l+ = e+ mu+
define l- = e- mu-
define vl = ve vm vt
define vl~ = ve~ vm~ vt~
define p = p b b~
define j = j b b~
define ell+ = e+ mu+ ta+
define ell- = e- mu- ta-
generate p p > w+, w+ > ell+ vl $$ t t~ h @0
add process p p > w+ j, w+ > ell+ vl $$ t t~ h @1
add process p p > w+ j j, w+ > ell+ vl $$ t t~ h @2
add process p p > w+ j j j, w+ > ell+ vl $$ t t~ h @3
add process p p > w+ j j j j, w+ > ell+ vl $$ t t~ h @4
add process p p > w-, w- > ell- vl~ $$ t t~ h @5
add process p p > w- j, w- > ell- vl~ $$ t t~ h @6
add process p p > w- j j, w- > ell- vl~ $$ t t~ h @7
add process p p > w- j j j, w- > ell- vl~ $$ t t~ h @8
add process p p > w- j j j j, w- > ell- vl~ $$ t t~ h @9
output WJetsToLNu_incl -nojpeg
]]>
</MG5ProcCard>
<MGProcCard>
<![CDATA[
#*********************************************************************
#                        MadGraph/MadEvent                           *
#                   http://madgraph.hep.uiuc.edu                     *
#                                                                    *
#                          proc_card.dat                             *
#*********************************************************************
#                                                                    *
#            This Files is generated by MADGRAPH 5                   *
#                                                                    *
# WARNING: This Files is generated for MADEVENT (compatibility issue)*
#          This files is NOT a valid MG4 proc_card.dat               *
#          Running this in MG4 will NEVER reproduce the result of MG5*
#                                                                    *
#*********************************************************************
#*********************************************************************
# Process(es) requested : mg2 input                                  *
#*********************************************************************
# Begin PROCESS # This is TAG. Do not modify this line
p p > w+ , w+ > ell+ vl $$ t t~ h @0           #Process
# Be carefull the coupling are here in MG5 convention
          
end_coup           # End the couplings input

done               # this tells MG there are no more procs
# End PROCESS  # This is TAG. Do not modify this line
#*********************************************************************
# Model information                                                  *
#*********************************************************************
# Begin MODEL  # This is TAG. Do not modify this line
sm-ckm_no_b_mass
# End   MODEL  # This is TAG. Do not modify this line
#*********************************************************************
# Start multiparticle definitions                                    *
#*********************************************************************
# Begin MULTIPARTICLES # This is TAG. Do not modify this line

# End  MULTIPARTICLES # This is TAG. Do not modify this line
]]>
</MGProcCard>
<MGRunCard>
<![CDATA[
#*********************************************************************
#                       MadGraph5_aMC@NLO                            *
#                                                                    *
#                     run_card.dat MadEvent                          *
#                                                                    *
#  This file is used to set the parameters of the run.               *
#                                                                    *
#  Some notation/conventions:                                        *
#                                                                    *
#   Lines starting with a '# ' are info or comments                  *
#                                                                    *
#   mind the format:   value    = variable     ! comment             *
#*********************************************************************
#
#*******************                                                 
# Running parameters
#*******************                                                 
#                                                                    
#*********************************************************************
# Tag name for the run (one word)                                    *
#*********************************************************************
  wjets	= run_tag ! name of the run 
#*********************************************************************
# Number of events and rnd seed                                      *
# Warning: Do not generate more than 1M events in a single run       *
# If you want to run Pythia, avoid more than 50k events in a run.    *
#*********************************************************************
  1500	= nevents ! Number of unweighted events requested 
 10 = iseed ! rnd seed (0=assigned automatically=default))
#*********************************************************************
# Collider type and energy                                           *
# lpp: 0=No PDF, 1=proton, -1=antiproton, 2=photon from proton,      *
#                                         3=photon from electron     *
#*********************************************************************
  1	= lpp1 ! beam 1 type 
  1	= lpp2 ! beam 2 type
  6500.0	= ebeam1 ! beam 1 total energy in GeV
  6500.0	= ebeam2 ! beam 2 total energy in GeV
#*********************************************************************
# Beam polarization from -100 (left-handed) to 100 (right-handed)    *
#*********************************************************************
  0.0	= polbeam1 ! beam polarization for beam 1
  0.0	= polbeam2 ! beam polarization for beam 2
#*********************************************************************
# PDF CHOICE: this automatically fixes also alpha_s and its evol.    *
#*********************************************************************
  lhapdf	= pdlabel ! PDF set                                     
  306000	= lhaid ! if pdlabel=lhapdf, this is the lhapdf number
#*********************************************************************
# Renormalization and factorization scales                           *
#*********************************************************************
  False	= fixed_ren_scale ! if .true. use fixed ren scale
  False	= fixed_fac_scale ! if .true. use fixed fac scale
  91.188	= scale ! fixed ren scale
  91.188	= dsqrt_q2fact1 ! fixed fact scale for pdf1
  91.188	= dsqrt_q2fact2 ! fixed fact scale for pdf2
  -1	= dynamical_scale_choice ! Choose one of the preselected dynamical choices
  1.0	= scalefact ! scale factor for event-by-event scales
#*********************************************************************
# Type and output format
#*********************************************************************
  True	= gridpack !True = setting up the grid pack
  -1.0	= time_of_flight ! threshold (in mm) below which the invariant livetime is not written (-1 means not written)
  3.0	= lhe_version ! Change the way clustering information pass to shower.        
  True	= clusinfo ! include clustering tag in output
  sum	= event_norm ! average/sum. Normalization of the weight in the LHEF

#*********************************************************************
# Matching parameter (MLM only)
#*********************************************************************
  1	= ickkw ! 0 no matching, 1 MLM
  1.0	= alpsfact ! scale factor for QCD emission vx
  False	= chcluster ! cluster only according to channel diag
  5	= asrwgtflavor ! highest quark flavor for a_s reweight
  True	= auto_ptj_mjj ! Automatic setting of ptj and mjj if xqcut >0
                                   ! (turn off for VBF and single top processes) 
  10.0	= xqcut ! minimum kt jet measure between partons
#*********************************************************************
#
#*********************************************************************
# handling of the helicities:
#  0: sum over all helicities
#  1: importance sampling over helicities
#*********************************************************************
  0	= nhel ! using helicities importance sampling or not.
#*********************************************************************
# Generation bias, check the wiki page below for more information:   *
#  'cp3.irmp.ucl.ac.be/projects/madgraph/wiki/LOEventGenerationBias' *
#*********************************************************************
  None	= bias_module ! Bias type of bias, [None, ptj_bias, -custom_folder-]
  {}	= bias_parameters ! Specifies the parameters of the module.
#
#*******************************                                                 
# Parton level cuts definition *
#*******************************                                     
#                                                                    
#
#*********************************************************************
# BW cutoff (M+/-bwcutoff*Gamma) ! Define on/off-shell for "$" and decay  
#*********************************************************************
  15.0	= bwcutoff ! (M+/-bwcutoff*Gamma)
#*********************************************************************
# Apply pt/E/eta/dr/mij/kt_durham cuts on decay products or not
# (note that etmiss/ptll/ptheavy/ht/sorted cuts always apply)
#*********************************************************************
  False	= cut_decays ! Cut decay products 
#*********************************************************************
# Standard Cuts                                                      *
#*********************************************************************
# Minimum and maximum pt's (for max, -1 means no cut)                *
#*********************************************************************
  0.01	= ptj ! minimum pt for the jets 
  0.0	= ptb ! minimum pt for the b 
  0.0	= pta ! minimum pt for the photons 
  0.0	= ptl ! minimum pt for the charged leptons 
  0.0	= misset ! minimum missing Et (sum of neutrino's momenta)
  -1.0	= ptjmax ! maximum pt for the jets
  -1.0	= ptbmax ! maximum pt for the b
  -1.0	= ptamax ! maximum pt for the photons
  -1.0	= ptlmax ! maximum pt for the charged leptons
  -1.0	= missetmax ! maximum missing Et (sum of neutrino's momenta)
  {}	= pt_min_pdg ! pt cut for other particles (use pdg code). Applied on particle and anti-particle
  {}	= pt_max_pdg ! pt cut for other particles (syntax e.g. {6: 100, 25: 50}) 
#*********************************************************************
# Minimum and maximum E's (in the center of mass frame)              *
#*********************************************************************
  0.0	= ej ! minimum E for the jets 
  0.0	= eb ! minimum E for the b 
  0.0	= ea ! minimum E for the photons 
  0.0	= el ! minimum E for the charged leptons 
  -1.0	= ejmax ! maximum E for the jets
  -1.0	= ebmax ! maximum E for the b
  -1.0	= eamax ! maximum E for the photons
  -1.0	= elmax ! maximum E for the charged leptons
  {}	= e_min_pdg ! E cut for other particles (use pdg code). Applied on particle and anti-particle
  {}	= e_max_pdg ! E cut for other particles (syntax e.g. {6: 100, 25: 50}) 
#*********************************************************************
# Maximum and minimum absolute rapidity (for max, -1 means no cut)   *
#*********************************************************************
  5.0	= etaj ! max rap for the jets 
  -1.0	= etab ! max rap for the b
  -1.0	= etaa ! max rap for the photons 
  -1.0	= etal ! max rap for the charged leptons 
  0.0	= etajmin ! min rap for the jets
  0.0	= etabmin ! min rap for the b
  0.0	= etaamin ! min rap for the photons
  0.0	= etalmin ! main rap for the charged leptons
  {}	= eta_min_pdg ! rap cut for other particles (use pdg code). Applied on particle and anti-particle
  {}	= eta_max_pdg ! rap cut for other particles (syntax e.g. {6: 2.5, 23: 5})
#*********************************************************************
# Minimum and maximum DeltaR distance                                *
#*********************************************************************
  0.0	= drjj ! min distance between jets 
  0.0	= drbb ! min distance between b's 
  0.0	= drll ! min distance between leptons 
  0.0	= draa ! min distance between gammas 
  0.0	= drbj ! min distance between b and jet 
  0.1	= draj ! min distance between gamma and jet 
  0.0	= drjl ! min distance between jet and lepton 
  0.0	= drab ! min distance between gamma and b 
  0.0	= drbl ! min distance between b and lepton 
  0.1	= dral ! min distance between gamma and lepton 
  -1.0	= drjjmax ! max distance between jets
  -1.0	= drbbmax ! max distance between b's
  -1.0	= drllmax ! max distance between leptons
  -1.0	= draamax ! max distance between gammas
  -1.0	= drbjmax ! max distance between b and jet
  -1.0	= drajmax ! max distance between gamma and jet
  -1.0	= drjlmax ! max distance between jet and lepton
  -1.0	= drabmax ! max distance between gamma and b
  -1.0	= drblmax ! max distance between b and lepton
  -1.0	= dralmax ! maxdistance between gamma and lepton
#*********************************************************************
# Minimum and maximum invariant mass for pairs                       *
# WARNING: for four lepton final state mmll cut require to have      *
#          different lepton masses for each flavor!                  *           
#*********************************************************************
  0.0	= mmjj ! min invariant mass of a jet pair 
  0.0	= mmbb ! min invariant mass of a b pair 
  0.0	= mmaa ! min invariant mass of gamma gamma pair
  0.0	= mmll ! min invariant mass of l+l- (same flavour) lepton pair
  -1.0	= mmjjmax ! max invariant mass of a jet pair
  -1.0	= mmbbmax ! max invariant mass of a b pair
  -1.0	= mmaamax ! max invariant mass of gamma gamma pair
  -1.0	= mmllmax ! max invariant mass of l+l- (same flavour) lepton pair
  {}	= mxx_min_pdg ! min invariant mass of a pair of particles X/X~ (e.g. {6:250})
  {'default': False}	= mxx_only_part_antipart ! if True the invariant mass is applied only 
                       ! to pairs of particle/antiparticle and not to pairs of the same pdg codes.  
#*********************************************************************
# Minimum and maximum invariant mass for all letpons                 *
#*********************************************************************
  0.0	= mmnl ! min invariant mass for all letpons (l+- and vl) 
  -1.0	= mmnlmax ! max invariant mass for all letpons (l+- and vl) 
#*********************************************************************
# Minimum and maximum pt for 4-momenta sum of leptons                *
#*********************************************************************
  0.0	= ptllmin ! Minimum pt for 4-momenta sum of leptons(l and vl)
  -1.0	= ptllmax ! Maximum pt for 4-momenta sum of leptons(l and vl)
#*********************************************************************
# Inclusive cuts                                                     *
#*********************************************************************
  0.0	= ptheavy ! minimum pt for at least one heavy final state
  0.0	= xptj ! minimum pt for at least one jet  
  0.0	= xptb ! minimum pt for at least one b 
  0.0	= xpta ! minimum pt for at least one photon 
  0.0	= xptl ! minimum pt for at least one charged lepton 
#*********************************************************************
# Control the pt's of the jets sorted by pt                          *
#*********************************************************************
  0.0	= ptj1min ! minimum pt for the leading jet in pt
  0.0	= ptj2min ! minimum pt for the second jet in pt
  0.0	= ptj3min ! minimum pt for the third jet in pt
  0.0	= ptj4min ! minimum pt for the fourth jet in pt
  -1.0	= ptj1max ! maximum pt for the leading jet in pt 
  -1.0	= ptj2max ! maximum pt for the second jet in pt
  -1.0	= ptj3max ! maximum pt for the third jet in pt
  -1.0	= ptj4max ! maximum pt for the fourth jet in pt
  0	= cutuse ! reject event if fails any (0) / all (1) jet pt cuts
#*********************************************************************
# Control the pt's of leptons sorted by pt                           *
#*********************************************************************
  0.0	= ptl1min ! minimum pt for the leading lepton in pt
  0.0	= ptl2min ! minimum pt for the second lepton in pt
  0.0	= ptl3min ! minimum pt for the third lepton in pt
  0.0	= ptl4min ! minimum pt for the fourth lepton in pt
  -1.0	= ptl1max ! maximum pt for the leading lepton in pt 
  -1.0	= ptl2max ! maximum pt for the second lepton in pt
  -1.0	= ptl3max ! maximum pt for the third lepton in pt
  -1.0	= ptl4max ! maximum pt for the fourth lepton in pt
#*********************************************************************
# Control the Ht(k)=Sum of k leading jets                            *
#*********************************************************************
  0.0	= htjmin ! minimum jet HT=Sum(jet pt)
  -1.0	= htjmax ! maximum jet HT=Sum(jet pt)
  0.0	= ihtmin !inclusive Ht for all partons (including b)
  -1.0	= ihtmax !inclusive Ht for all partons (including b)
  0.0	= ht2min ! minimum Ht for the two leading jets
  0.0	= ht3min ! minimum Ht for the three leading jets
  0.0	= ht4min ! minimum Ht for the four leading jets
  -1.0	= ht2max ! maximum Ht for the two leading jets
  -1.0	= ht3max ! maximum Ht for the three leading jets
  -1.0	= ht4max ! maximum Ht for the four leading jets
#***********************************************************************
# Photon-isolation cuts, according to hep-ph/9801442                   *
# When ptgmin=0, all the other parameters are ignored                  *
# When ptgmin>0, pta and draj are not going to be used                 *
#***********************************************************************
  0.0	= ptgmin ! Min photon transverse momentum
  0.4	= r0gamma ! Radius of isolation code
  1.0	= xn ! n parameter of eq.(3.4) in hep-ph/9801442
  1.0	= epsgamma ! epsilon_gamma parameter of eq.(3.4) in hep-ph/9801442
  True	= isoem ! isolate photons from EM energy (photons and leptons)
#*********************************************************************
# WBF cuts                                                           *
#*********************************************************************
  0.0	= xetamin ! minimum rapidity for two jets in the WBF case  
  0.0	= deltaeta ! minimum rapidity for two jets in the WBF case 
#***********************************************************************
# Turn on either the ktdurham or ptlund cut to activate                *
# CKKW(L) merging with Pythia8 [arXiv:1410.3012, arXiv:1109.4829]      *
#***********************************************************************
  -1.0	= ktdurham 
  0.4	= dparameter 
  -1.0	= ptlund 
  21, 1, 2, 3, 4, 5, 6	= pdgs_for_merging_cut ! PDGs for two cuts above   
#*********************************************************************
# maximal pdg code for quark to be considered as a light jet         *
# (otherwise b cuts are applied)                                     *
#*********************************************************************
  5	= maxjetflavor ! Maximum jet pdg code
#*********************************************************************
#
#*********************************************************************
# Store info for systematics studies                                 *
# WARNING: Do not use for interference type of computation           *
#*********************************************************************
  True	= use_syst ! Enable systematics studies
#
#**************************************
# Parameter of the systematics study
#  will be used by SysCalc (if installed)
#**************************************                                  
#
  0.5 1 2	= sys_scalefact # factorization/renormalization scale factor
  None	= sys_alpsfact # \alpha_s emission scale factors
  auto	= sys_matchscale # variation of merging scale
# PDF sets and number of members (0 or none for all members).
  NNPDF23_lo_as_0130_qed	= sys_pdf # list of pdf sets
# MSTW2008nlo68cl.LHgrid 1  = sys_pdf
#
#********************************************************************* 
#  Additional parameter
#*********************************************************************
  False	= pdfwgt # hidden parameter
  0.0	= ptonium # hidden parameter
  1	= highestmult # hidden parameter
  1	= ktscheme # hidden parameter
  -1.0	= etaonium # hidden parameter
]]>
</MGRunCard>
<slha>
######################################################################
## PARAM_CARD AUTOMATICALY GENERATED BY MG5 FOLLOWING UFO MODEL   ####
######################################################################
##                                                                  ##
##  Width set on Auto will be computed following the information    ##
##        present in the decay.py files of the model.               ##
##        See  arXiv:1402.1178 for more details.                    ##
##                                                                  ##
######################################################################

###################################
## INFORMATION FOR MASS
###################################
Block mass 
    6 1.730000e+02 # MT 
   15 1.777000e+00 # MTA 
   23 9.118800e+01 # MZ 
   25 1.250000e+02 # MH 
## Dependent parameters, given by model restrictions.
## Those values should be edited following the 
## analytical expression. MG5 ignores those values 
## but they are important for interfacing the output of MG5
## to external program such as Pythia.
  1 0.000000 # d : 0.0 
  2 0.000000 # u : 0.0 
  3 0.000000 # s : 0.0 
  4 0.000000 # c : 0.0 
  5 0.000000 # b : 0.0 
  11 0.000000 # e- : 0.0 
  12 0.000000 # ve : 0.0 
  13 0.000000 # mu- : 0.0 
  14 0.000000 # vm : 0.0 
  16 0.000000 # vt : 0.0 
  21 0.000000 # g : 0.0 
  22 0.000000 # a : 0.0 
  24 80.419002 # w+ : cmath.sqrt(MZ__exp__2/2. + cmath.sqrt(MZ__exp__4/4. - (aEW*cmath.pi*MZ__exp__2)/(Gf*sqrt__2))) 

###################################
## INFORMATION FOR SMINPUTS
###################################
Block sminputs 
    1 1.325070e+02 # aEWM1 
    2 1.166390e-05 # Gf 
    3 1.180000e-01 # aS 

###################################
## INFORMATION FOR WOLFENSTEIN
###################################
Block wolfenstein 
    1 2.253000e-01 # lamWS 
    2 8.080000e-01 # AWS 
    3 1.320000e-01 # rhoWS 
    4 3.410000e-01 # etaWS 

###################################
## INFORMATION FOR YUKAWA
###################################
Block yukawa 
    6 1.730000e+02 # ymt 
   15 1.777000e+00 # ymtau 

###################################
## INFORMATION FOR DECAY
###################################
DECAY   6 1.491500e+00 # WT 
DECAY  15 2.270000e-12 # WTau 
DECAY  23 2.441404e+00 # WZ 
DECAY  24 2.047600e+00 # WW 
DECAY  25 6.382339e-03 # WH 
## Dependent parameters, given by model restrictions.
## Those values should be edited following the 
## analytical expression. MG5 ignores those values 
## but they are important for interfacing the output of MG5
## to external program such as Pythia.
DECAY  1 0.000000 # d : 0.0 
DECAY  2 0.000000 # u : 0.0 
DECAY  3 0.000000 # s : 0.0 
DECAY  4 0.000000 # c : 0.0 
DECAY  5 0.000000 # b : 0.0 
DECAY  11 0.000000 # e- : 0.0 
DECAY  12 0.000000 # ve : 0.0 
DECAY  13 0.000000 # mu- : 0.0 
DECAY  14 0.000000 # vm : 0.0 
DECAY  16 0.000000 # vt : 0.0 
DECAY  21 0.000000 # g : 0.0 
DECAY  22 0.000000 # a : 0.0
</slha>
<initrwgt>
<weightgroup name="NNPDF31_nnlo_hessian_pdfas" combine="symmhessian+as"> # 306000: Hessian conversion of NNPDF31_nnlo_as_0118_1000, mem=0 central value ; Alphas(MZ)=0.118; mem=1-100 ; PDF eig.; mem=101 ; central value Alphas(MZ)=0.116; mem=102 ; central value Alphas(MZ)=0.120
<weight id="1001" MUR="1.0" MUF="1.0" PDF="306000" >  </weight>
<weightgroup name="Central scale variation" combine="envelope">
</weightgroup> PDF 
<weight id="1002" MUR="1.0" MUF="1.0" DYN_SCALE="1" PDF="306000" > dyn_scale_choice=sum pt  </weight>
<weight id="1003" MUR="1.0" MUF="1.0" DYN_SCALE="2" PDF="306000" > dyn_scale_choice=HT  </weight>
<weight id="1004" MUR="1.0" MUF="1.0" DYN_SCALE="3" PDF="306000" > dyn_scale_choice=HT/2  </weight>
<weight id="1005" MUR="1.0" MUF="1.0" DYN_SCALE="4" PDF="306000" > dyn_scale_choice=sqrts  </weight>
<weight id="1006" MUR="2.0" MUF="1.0" PDF="306000" > MUR=2.0  </weight>
<weight id="1007" MUR="2.0" MUF="1.0" DYN_SCALE="1" PDF="306000" > MUR=2.0 dyn_scale_choice=sum pt  </weight>
<weight id="1008" MUR="2.0" MUF="1.0" DYN_SCALE="2" PDF="306000" > MUR=2.0 dyn_scale_choice=HT  </weight>
<weight id="1009" MUR="2.0" MUF="1.0" DYN_SCALE="3" PDF="306000" > MUR=2.0 dyn_scale_choice=HT/2  </weight>
<weight id="1010" MUR="2.0" MUF="1.0" DYN_SCALE="4" PDF="306000" > MUR=2.0 dyn_scale_choice=sqrts  </weight>
<weight id="1011" MUR="0.5" MUF="1.0" PDF="306000" > MUR=0.5  </weight>
<weight id="1012" MUR="0.5" MUF="1.0" DYN_SCALE="1" PDF="306000" > MUR=0.5 dyn_scale_choice=sum pt  </weight>
<weight id="1013" MUR="0.5" MUF="1.0" DYN_SCALE="2" PDF="306000" > MUR=0.5 dyn_scale_choice=HT  </weight>
<weight id="1014" MUR="0.5" MUF="1.0" DYN_SCALE="3" PDF="306000" > MUR=0.5 dyn_scale_choice=HT/2  </weight>
<weight id="1015" MUR="0.5" MUF="1.0" DYN_SCALE="4" PDF="306000" > MUR=0.5 dyn_scale_choice=sqrts  </weight>
<weight id="1016" MUR="1.0" MUF="2.0" PDF="306000" > MUF=2.0  </weight>
<weight id="1017" MUR="1.0" MUF="2.0" DYN_SCALE="1" PDF="306000" > MUF=2.0 dyn_scale_choice=sum pt  </weight>
<weight id="1018" MUR="1.0" MUF="2.0" DYN_SCALE="2" PDF="306000" > MUF=2.0 dyn_scale_choice=HT  </weight>
<weight id="1019" MUR="1.0" MUF="2.0" DYN_SCALE="3" PDF="306000" > MUF=2.0 dyn_scale_choice=HT/2  </weight>
<weight id="1020" MUR="1.0" MUF="2.0" DYN_SCALE="4" PDF="306000" > MUF=2.0 dyn_scale_choice=sqrts  </weight>
<weight id="1021" MUR="2.0" MUF="2.0" PDF="306000" > MUR=2.0 MUF=2.0  </weight>
<weight id="1022" MUR="2.0" MUF="2.0" DYN_SCALE="1" PDF="306000" > MUR=2.0 MUF=2.0 dyn_scale_choice=sum pt  </weight>
<weight id="1023" MUR="2.0" MUF="2.0" DYN_SCALE="2" PDF="306000" > MUR=2.0 MUF=2.0 dyn_scale_choice=HT  </weight>
<weight id="1024" MUR="2.0" MUF="2.0" DYN_SCALE="3" PDF="306000" > MUR=2.0 MUF=2.0 dyn_scale_choice=HT/2  </weight>
<weight id="1025" MUR="2.0" MUF="2.0" DYN_SCALE="4" PDF="306000" > MUR=2.0 MUF=2.0 dyn_scale_choice=sqrts  </weight>
<weight id="1026" MUR="0.5" MUF="2.0" PDF="306000" > MUR=0.5 MUF=2.0  </weight>
<weight id="1027" MUR="0.5" MUF="2.0" DYN_SCALE="1" PDF="306000" > MUR=0.5 MUF=2.0 dyn_scale_choice=sum pt  </weight>
<weight id="1028" MUR="0.5" MUF="2.0" DYN_SCALE="2" PDF="306000" > MUR=0.5 MUF=2.0 dyn_scale_choice=HT  </weight>
<weight id="1029" MUR="0.5" MUF="2.0" DYN_SCALE="3" PDF="306000" > MUR=0.5 MUF=2.0 dyn_scale_choice=HT/2  </weight>
<weight id="1030" MUR="0.5" MUF="2.0" DYN_SCALE="4" PDF="306000" > MUR=0.5 MUF=2.0 dyn_scale_choice=sqrts  </weight>
<weight id="1031" MUR="1.0" MUF="0.5" PDF="306000" > MUF=0.5  </weight>
<weight id="1032" MUR="1.0" MUF="0.5" DYN_SCALE="1" PDF="306000" > MUF=0.5 dyn_scale_choice=sum pt  </weight>
<weight id="1033" MUR="1.0" MUF="0.5" DYN_SCALE="2" PDF="306000" > MUF=0.5 dyn_scale_choice=HT  </weight>
<weight id="1034" MUR="1.0" MUF="0.5" DYN_SCALE="3" PDF="306000" > MUF=0.5 dyn_scale_choice=HT/2  </weight>
<weight id="1035" MUR="1.0" MUF="0.5" DYN_SCALE="4" PDF="306000" > MUF=0.5 dyn_scale_choice=sqrts  </weight>
<weight id="1036" MUR="2.0" MUF="0.5" PDF="306000" > MUR=2.0 MUF=0.5  </weight>
<weight id="1037" MUR="2.0" MUF="0.5" DYN_SCALE="1" PDF="306000" > MUR=2.0 MUF=0.5 dyn_scale_choice=sum pt  </weight>
<weight id="1038" MUR="2.0" MUF="0.5" DYN_SCALE="2" PDF="306000" > MUR=2.0 MUF=0.5 dyn_scale_choice=HT  </weight>
<weight id="1039" MUR="2.0" MUF="0.5" DYN_SCALE="3" PDF="306000" > MUR=2.0 MUF=0.5 dyn_scale_choice=HT/2  </weight>
<weight id="1040" MUR="2.0" MUF="0.5" DYN_SCALE="4" PDF="306000" > MUR=2.0 MUF=0.5 dyn_scale_choice=sqrts  </weight>
<weight id="1041" MUR="0.5" MUF="0.5" PDF="306000" > MUR=0.5 MUF=0.5  </weight>
<weight id="1042" MUR="0.5" MUF="0.5" DYN_SCALE="1" PDF="306000" > MUR=0.5 MUF=0.5 dyn_scale_choice=sum pt  </weight>
<weight id="1043" MUR="0.5" MUF="0.5" DYN_SCALE="2" PDF="306000" > MUR=0.5 MUF=0.5 dyn_scale_choice=HT  </weight>
<weight id="1044" MUR="0.5" MUF="0.5" DYN_SCALE="3" PDF="306000" > MUR=0.5 MUF=0.5 dyn_scale_choice=HT/2  </weight>
<weight id="1045" MUR="0.5" MUF="0.5" DYN_SCALE="4" PDF="306000" > MUR=0.5 MUF=0.5 dyn_scale_choice=sqrts  </weight>
</weightgroup> # scale
<weightgroup name="NNPDF31_nnlo_hessian_pdfas" combine="symmhessian+as"> # 306000: Hessian conversion of NNPDF31_nnlo_as_0118_1000, mem=0 central value ; Alphas(MZ)=0.118; mem=1-100 ; PDF eig.; mem=101 ; central value Alphas(MZ)=0.116; mem=102 ; central value Alphas(MZ)=0.120
<weight id="1046" MUR="1.0" MUF="1.0" PDF="306000" >  </weight>
<weight id="1047" MUR="1.0" MUF="1.0" PDF="306001" > PDF=306000 MemberID=1 </weight>
<weight id="1048" MUR="1.0" MUF="1.0" PDF="306002" > PDF=306000 MemberID=2 </weight>
<weight id="1049" MUR="1.0" MUF="1.0" PDF="306003" > PDF=306000 MemberID=3 </weight>
<weight id="1050" MUR="1.0" MUF="1.0" PDF="306004" > PDF=306000 MemberID=4 </weight>
<weight id="1051" MUR="1.0" MUF="1.0" PDF="306005" > PDF=306000 MemberID=5 </weight>
<weight id="1052" MUR="1.0" MUF="1.0" PDF="306006" > PDF=306000 MemberID=6 </weight>
<weight id="1053" MUR="1.0" MUF="1.0" PDF="306007" > PDF=306000 MemberID=7 </weight>
<weight id="1054" MUR="1.0" MUF="1.0" PDF="306008" > PDF=306000 MemberID=8 </weight>
<weight id="1055" MUR="1.0" MUF="1.0" PDF="306009" > PDF=306000 MemberID=9 </weight>
<weight id="1056" MUR="1.0" MUF="1.0" PDF="306010" > PDF=306000 MemberID=10 </weight>
<weight id="1057" MUR="1.0" MUF="1.0" PDF="306011" > PDF=306000 MemberID=11 </weight>
<weight id="1058" MUR="1.0" MUF="1.0" PDF="306012" > PDF=306000 MemberID=12 </weight>
<weight id="1059" MUR="1.0" MUF="1.0" PDF="306013" > PDF=306000 MemberID=13 </weight>
<weight id="1060" MUR="1.0" MUF="1.0" PDF="306014" > PDF=306000 MemberID=14 </weight>
<weight id="1061" MUR="1.0" MUF="1.0" PDF="306015" > PDF=306000 MemberID=15 </weight>
<weight id="1062" MUR="1.0" MUF="1.0" PDF="306016" > PDF=306000 MemberID=16 </weight>
<weight id="1063" MUR="1.0" MUF="1.0" PDF="306017" > PDF=306000 MemberID=17 </weight>
<weight id="1064" MUR="1.0" MUF="1.0" PDF="306018" > PDF=306000 MemberID=18 </weight>
<weight id="1065" MUR="1.0" MUF="1.0" PDF="306019" > PDF=306000 MemberID=19 </weight>
<weight id="1066" MUR="1.0" MUF="1.0" PDF="306020" > PDF=306000 MemberID=20 </weight>
<weight id="1067" MUR="1.0" MUF="1.0" PDF="306021" > PDF=306000 MemberID=21 </weight>
<weight id="1068" MUR="1.0" MUF="1.0" PDF="306022" > PDF=306000 MemberID=22 </weight>
<weight id="1069" MUR="1.0" MUF="1.0" PDF="306023" > PDF=306000 MemberID=23 </weight>
<weight id="1070" MUR="1.0" MUF="1.0" PDF="306024" > PDF=306000 MemberID=24 </weight>
<weight id="1071" MUR="1.0" MUF="1.0" PDF="306025" > PDF=306000 MemberID=25 </weight>
<weight id="1072" MUR="1.0" MUF="1.0" PDF="306026" > PDF=306000 MemberID=26 </weight>
<weight id="1073" MUR="1.0" MUF="1.0" PDF="306027" > PDF=306000 MemberID=27 </weight>
<weight id="1074" MUR="1.0" MUF="1.0" PDF="306028" > PDF=306000 MemberID=28 </weight>
<weight id="1075" MUR="1.0" MUF="1.0" PDF="306029" > PDF=306000 MemberID=29 </weight>
<weight id="1076" MUR="1.0" MUF="1.0" PDF="306030" > PDF=306000 MemberID=30 </weight>
<weight id="1077" MUR="1.0" MUF="1.0" PDF="306031" > PDF=306000 MemberID=31 </weight>
<weight id="1078" MUR="1.0" MUF="1.0" PDF="306032" > PDF=306000 MemberID=32 </weight>
<weight id="1079" MUR="1.0" MUF="1.0" PDF="306033" > PDF=306000 MemberID=33 </weight>
<weight id="1080" MUR="1.0" MUF="1.0" PDF="306034" > PDF=306000 MemberID=34 </weight>
<weight id="1081" MUR="1.0" MUF="1.0" PDF="306035" > PDF=306000 MemberID=35 </weight>
<weight id="1082" MUR="1.0" MUF="1.0" PDF="306036" > PDF=306000 MemberID=36 </weight>
<weight id="1083" MUR="1.0" MUF="1.0" PDF="306037" > PDF=306000 MemberID=37 </weight>
<weight id="1084" MUR="1.0" MUF="1.0" PDF="306038" > PDF=306000 MemberID=38 </weight>
<weight id="1085" MUR="1.0" MUF="1.0" PDF="306039" > PDF=306000 MemberID=39 </weight>
<weight id="1086" MUR="1.0" MUF="1.0" PDF="306040" > PDF=306000 MemberID=40 </weight>
<weight id="1087" MUR="1.0" MUF="1.0" PDF="306041" > PDF=306000 MemberID=41 </weight>
<weight id="1088" MUR="1.0" MUF="1.0" PDF="306042" > PDF=306000 MemberID=42 </weight>
<weight id="1089" MUR="1.0" MUF="1.0" PDF="306043" > PDF=306000 MemberID=43 </weight>
<weight id="1090" MUR="1.0" MUF="1.0" PDF="306044" > PDF=306000 MemberID=44 </weight>
<weight id="1091" MUR="1.0" MUF="1.0" PDF="306045" > PDF=306000 MemberID=45 </weight>
<weight id="1092" MUR="1.0" MUF="1.0" PDF="306046" > PDF=306000 MemberID=46 </weight>
<weight id="1093" MUR="1.0" MUF="1.0" PDF="306047" > PDF=306000 MemberID=47 </weight>
<weight id="1094" MUR="1.0" MUF="1.0" PDF="306048" > PDF=306000 MemberID=48 </weight>
<weight id="1095" MUR="1.0" MUF="1.0" PDF="306049" > PDF=306000 MemberID=49 </weight>
<weight id="1096" MUR="1.0" MUF="1.0" PDF="306050" > PDF=306000 MemberID=50 </weight>
<weight id="1097" MUR="1.0" MUF="1.0" PDF="306051" > PDF=306000 MemberID=51 </weight>
<weight id="1098" MUR="1.0" MUF="1.0" PDF="306052" > PDF=306000 MemberID=52 </weight>
<weight id="1099" MUR="1.0" MUF="1.0" PDF="306053" > PDF=306000 MemberID=53 </weight>
<weight id="1100" MUR="1.0" MUF="1.0" PDF="306054" > PDF=306000 MemberID=54 </weight>
<weight id="1101" MUR="1.0" MUF="1.0" PDF="306055" > PDF=306000 MemberID=55 </weight>
<weight id="1102" MUR="1.0" MUF="1.0" PDF="306056" > PDF=306000 MemberID=56 </weight>
<weight id="1103" MUR="1.0" MUF="1.0" PDF="306057" > PDF=306000 MemberID=57 </weight>
<weight id="1104" MUR="1.0" MUF="1.0" PDF="306058" > PDF=306000 MemberID=58 </weight>
<weight id="1105" MUR="1.0" MUF="1.0" PDF="306059" > PDF=306000 MemberID=59 </weight>
<weight id="1106" MUR="1.0" MUF="1.0" PDF="306060" > PDF=306000 MemberID=60 </weight>
<weight id="1107" MUR="1.0" MUF="1.0" PDF="306061" > PDF=306000 MemberID=61 </weight>
<weight id="1108" MUR="1.0" MUF="1.0" PDF="306062" > PDF=306000 MemberID=62 </weight>
<weight id="1109" MUR="1.0" MUF="1.0" PDF="306063" > PDF=306000 MemberID=63 </weight>
<weight id="1110" MUR="1.0" MUF="1.0" PDF="306064" > PDF=306000 MemberID=64 </weight>
<weight id="1111" MUR="1.0" MUF="1.0" PDF="306065" > PDF=306000 MemberID=65 </weight>
<weight id="1112" MUR="1.0" MUF="1.0" PDF="306066" > PDF=306000 MemberID=66 </weight>
<weight id="1113" MUR="1.0" MUF="1.0" PDF="306067" > PDF=306000 MemberID=67 </weight>
<weight id="1114" MUR="1.0" MUF="1.0" PDF="306068" > PDF=306000 MemberID=68 </weight>
<weight id="1115" MUR="1.0" MUF="1.0" PDF="306069" > PDF=306000 MemberID=69 </weight>
<weight id="1116" MUR="1.0" MUF="1.0" PDF="306070" > PDF=306000 MemberID=70 </weight>
<weight id="1117" MUR="1.0" MUF="1.0" PDF="306071" > PDF=306000 MemberID=71 </weight>
<weight id="1118" MUR="1.0" MUF="1.0" PDF="306072" > PDF=306000 MemberID=72 </weight>
<weight id="1119" MUR="1.0" MUF="1.0" PDF="306073" > PDF=306000 MemberID=73 </weight>
<weight id="1120" MUR="1.0" MUF="1.0" PDF="306074" > PDF=306000 MemberID=74 </weight>
<weight id="1121" MUR="1.0" MUF="1.0" PDF="306075" > PDF=306000 MemberID=75 </weight>
<weight id="1122" MUR="1.0" MUF="1.0" PDF="306076" > PDF=306000 MemberID=76 </weight>
<weight id="1123" MUR="1.0" MUF="1.0" PDF="306077" > PDF=306000 MemberID=77 </weight>
<weight id="1124" MUR="1.0" MUF="1.0" PDF="306078" > PDF=306000 MemberID=78 </weight>
<weight id="1125" MUR="1.0" MUF="1.0" PDF="306079" > PDF=306000 MemberID=79 </weight>
<weight id="1126" MUR="1.0" MUF="1.0" PDF="306080" > PDF=306000 MemberID=80 </weight>
<weight id="1127" MUR="1.0" MUF="1.0" PDF="306081" > PDF=306000 MemberID=81 </weight>
<weight id="1128" MUR="1.0" MUF="1.0" PDF="306082" > PDF=306000 MemberID=82 </weight>
<weight id="1129" MUR="1.0" MUF="1.0" PDF="306083" > PDF=306000 MemberID=83 </weight>
<weight id="1130" MUR="1.0" MUF="1.0" PDF="306084" > PDF=306000 MemberID=84 </weight>
<weight id="1131" MUR="1.0" MUF="1.0" PDF="306085" > PDF=306000 MemberID=85 </weight>
<weight id="1132" MUR="1.0" MUF="1.0" PDF="306086" > PDF=306000 MemberID=86 </weight>
<weight id="1133" MUR="1.0" MUF="1.0" PDF="306087" > PDF=306000 MemberID=87 </weight>
<weight id="1134" MUR="1.0" MUF="1.0" PDF="306088" > PDF=306000 MemberID=88 </weight>
<weight id="1135" MUR="1.0" MUF="1.0" PDF="306089" > PDF=306000 MemberID=89 </weight>
<weight id="1136" MUR="1.0" MUF="1.0" PDF="306090" > PDF=306000 MemberID=90 </weight>
<weight id="1137" MUR="1.0" MUF="1.0" PDF="306091" > PDF=306000 MemberID=91 </weight>
<weight id="1138" MUR="1.0" MUF="1.0" PDF="306092" > PDF=306000 MemberID=92 </weight>
<weight id="1139" MUR="1.0" MUF="1.0" PDF="306093" > PDF=306000 MemberID=93 </weight>
<weight id="1140" MUR="1.0" MUF="1.0" PDF="306094" > PDF=306000 MemberID=94 </weight>
<weight id="1141" MUR="1.0" MUF="1.0" PDF="306095" > PDF=306000 MemberID=95 </weight>
<weight id="1142" MUR="1.0" MUF="1.0" PDF="306096" > PDF=306000 MemberID=96 </weight>
<weight id="1143" MUR="1.0" MUF="1.0" PDF="306097" > PDF=306000 MemberID=97 </weight>
<weight id="1144" MUR="1.0" MUF="1.0" PDF="306098" > PDF=306000 MemberID=98 </weight>
<weight id="1145" MUR="1.0" MUF="1.0" PDF="306099" > PDF=306000 MemberID=99 </weight>
<weight id="1146" MUR="1.0" MUF="1.0" PDF="306100" > PDF=306000 MemberID=100 </weight>
<weight id="1147" MUR="1.0" MUF="1.0" PDF="306101" > PDF=306000 MemberID=101 </weight>
<weight id="1148" MUR="1.0" MUF="1.0" PDF="306102" > PDF=306000 MemberID=102 </weight>
</weightgroup> # PDFSET -> PDF
<weight id="1149" MUR="1.0" MUF="1.0" PDF="322500" > PDF=322500 MemberID=0 </weight>
<weight id="1150" MUR="1.0" MUF="1.0" PDF="322700" > PDF=322700 MemberID=0 </weight>
<weight id="1151" MUR="1.0" MUF="1.0" PDF="322900" > PDF=322900 MemberID=0 </weight>
<weight id="1152" MUR="1.0" MUF="1.0" PDF="323100" > PDF=323100 MemberID=0 </weight>
<weight id="1153" MUR="1.0" MUF="1.0" PDF="323300" > PDF=323300 MemberID=0 </weight>
<weight id="1154" MUR="1.0" MUF="1.0" PDF="323500" > PDF=323500 MemberID=0 </weight>
<weight id="1155" MUR="1.0" MUF="1.0" PDF="323700" > PDF=323700 MemberID=0 </weight>
<weight id="1156" MUR="1.0" MUF="1.0" PDF="323900" > PDF=323900 MemberID=0 </weight>
<weightgroup name="NNPDF31_nlo_hessian_pdfas" combine="symmhessian+as"> # 305800: Hessian conversion of NNPDF31_nlo_as_0118_1000, mem=0 ; central value Alphas(MZ)=0.118; mem=1-100 ; PDF eig.; mem=101 ; central value Alphas(MZ)=0.116; mem=102 ; central value Alphas(MZ)=0.120
<weight id="1157" MUR="1.0" MUF="1.0" PDF="305800" > PDF=305800 MemberID=0 </weight>
<weight id="1158" MUR="1.0" MUF="1.0" PDF="305801" > PDF=305800 MemberID=1 </weight>
<weight id="1159" MUR="1.0" MUF="1.0" PDF="305802" > PDF=305800 MemberID=2 </weight>
<weight id="1160" MUR="1.0" MUF="1.0" PDF="305803" > PDF=305800 MemberID=3 </weight>
<weight id="1161" MUR="1.0" MUF="1.0" PDF="305804" > PDF=305800 MemberID=4 </weight>
<weight id="1162" MUR="1.0" MUF="1.0" PDF="305805" > PDF=305800 MemberID=5 </weight>
<weight id="1163" MUR="1.0" MUF="1.0" PDF="305806" > PDF=305800 MemberID=6 </weight>
<weight id="1164" MUR="1.0" MUF="1.0" PDF="305807" > PDF=305800 MemberID=7 </weight>
<weight id="1165" MUR="1.0" MUF="1.0" PDF="305808" > PDF=305800 MemberID=8 </weight>
<weight id="1166" MUR="1.0" MUF="1.0" PDF="305809" > PDF=305800 MemberID=9 </weight>
<weight id="1167" MUR="1.0" MUF="1.0" PDF="305810" > PDF=305800 MemberID=10 </weight>
<weight id="1168" MUR="1.0" MUF="1.0" PDF="305811" > PDF=305800 MemberID=11 </weight>
<weight id="1169" MUR="1.0" MUF="1.0" PDF="305812" > PDF=305800 MemberID=12 </weight>
<weight id="1170" MUR="1.0" MUF="1.0" PDF="305813" > PDF=305800 MemberID=13 </weight>
<weight id="1171" MUR="1.0" MUF="1.0" PDF="305814" > PDF=305800 MemberID=14 </weight>
<weight id="1172" MUR="1.0" MUF="1.0" PDF="305815" > PDF=305800 MemberID=15 </weight>
<weight id="1173" MUR="1.0" MUF="1.0" PDF="305816" > PDF=305800 MemberID=16 </weight>
<weight id="1174" MUR="1.0" MUF="1.0" PDF="305817" > PDF=305800 MemberID=17 </weight>
<weight id="1175" MUR="1.0" MUF="1.0" PDF="305818" > PDF=305800 MemberID=18 </weight>
<weight id="1176" MUR="1.0" MUF="1.0" PDF="305819" > PDF=305800 MemberID=19 </weight>
<weight id="1177" MUR="1.0" MUF="1.0" PDF="305820" > PDF=305800 MemberID=20 </weight>
<weight id="1178" MUR="1.0" MUF="1.0" PDF="305821" > PDF=305800 MemberID=21 </weight>
<weight id="1179" MUR="1.0" MUF="1.0" PDF="305822" > PDF=305800 MemberID=22 </weight>
<weight id="1180" MUR="1.0" MUF="1.0" PDF="305823" > PDF=305800 MemberID=23 </weight>
<weight id="1181" MUR="1.0" MUF="1.0" PDF="305824" > PDF=305800 MemberID=24 </weight>
<weight id="1182" MUR="1.0" MUF="1.0" PDF="305825" > PDF=305800 MemberID=25 </weight>
<weight id="1183" MUR="1.0" MUF="1.0" PDF="305826" > PDF=305800 MemberID=26 </weight>
<weight id="1184" MUR="1.0" MUF="1.0" PDF="305827" > PDF=305800 MemberID=27 </weight>
<weight id="1185" MUR="1.0" MUF="1.0" PDF="305828" > PDF=305800 MemberID=28 </weight>
<weight id="1186" MUR="1.0" MUF="1.0" PDF="305829" > PDF=305800 MemberID=29 </weight>
<weight id="1187" MUR="1.0" MUF="1.0" PDF="305830" > PDF=305800 MemberID=30 </weight>
<weight id="1188" MUR="1.0" MUF="1.0" PDF="305831" > PDF=305800 MemberID=31 </weight>
<weight id="1189" MUR="1.0" MUF="1.0" PDF="305832" > PDF=305800 MemberID=32 </weight>
<weight id="1190" MUR="1.0" MUF="1.0" PDF="305833" > PDF=305800 MemberID=33 </weight>
<weight id="1191" MUR="1.0" MUF="1.0" PDF="305834" > PDF=305800 MemberID=34 </weight>
<weight id="1192" MUR="1.0" MUF="1.0" PDF="305835" > PDF=305800 MemberID=35 </weight>
<weight id="1193" MUR="1.0" MUF="1.0" PDF="305836" > PDF=305800 MemberID=36 </weight>
<weight id="1194" MUR="1.0" MUF="1.0" PDF="305837" > PDF=305800 MemberID=37 </weight>
<weight id="1195" MUR="1.0" MUF="1.0" PDF="305838" > PDF=305800 MemberID=38 </weight>
<weight id="1196" MUR="1.0" MUF="1.0" PDF="305839" > PDF=305800 MemberID=39 </weight>
<weight id="1197" MUR="1.0" MUF="1.0" PDF="305840" > PDF=305800 MemberID=40 </weight>
<weight id="1198" MUR="1.0" MUF="1.0" PDF="305841" > PDF=305800 MemberID=41 </weight>
<weight id="1199" MUR="1.0" MUF="1.0" PDF="305842" > PDF=305800 MemberID=42 </weight>
<weight id="1200" MUR="1.0" MUF="1.0" PDF="305843" > PDF=305800 MemberID=43 </weight>
<weight id="1201" MUR="1.0" MUF="1.0" PDF="305844" > PDF=305800 MemberID=44 </weight>
<weight id="1202" MUR="1.0" MUF="1.0" PDF="305845" > PDF=305800 MemberID=45 </weight>
<weight id="1203" MUR="1.0" MUF="1.0" PDF="305846" > PDF=305800 MemberID=46 </weight>
<weight id="1204" MUR="1.0" MUF="1.0" PDF="305847" > PDF=305800 MemberID=47 </weight>
<weight id="1205" MUR="1.0" MUF="1.0" PDF="305848" > PDF=305800 MemberID=48 </weight>
<weight id="1206" MUR="1.0" MUF="1.0" PDF="305849" > PDF=305800 MemberID=49 </weight>
<weight id="1207" MUR="1.0" MUF="1.0" PDF="305850" > PDF=305800 MemberID=50 </weight>
<weight id="1208" MUR="1.0" MUF="1.0" PDF="305851" > PDF=305800 MemberID=51 </weight>
<weight id="1209" MUR="1.0" MUF="1.0" PDF="305852" > PDF=305800 MemberID=52 </weight>
<weight id="1210" MUR="1.0" MUF="1.0" PDF="305853" > PDF=305800 MemberID=53 </weight>
<weight id="1211" MUR="1.0" MUF="1.0" PDF="305854" > PDF=305800 MemberID=54 </weight>
<weight id="1212" MUR="1.0" MUF="1.0" PDF="305855" > PDF=305800 MemberID=55 </weight>
<weight id="1213" MUR="1.0" MUF="1.0" PDF="305856" > PDF=305800 MemberID=56 </weight>
<weight id="1214" MUR="1.0" MUF="1.0" PDF="305857" > PDF=305800 MemberID=57 </weight>
<weight id="1215" MUR="1.0" MUF="1.0" PDF="305858" > PDF=305800 MemberID=58 </weight>
<weight id="1216" MUR="1.0" MUF="1.0" PDF="305859" > PDF=305800 MemberID=59 </weight>
<weight id="1217" MUR="1.0" MUF="1.0" PDF="305860" > PDF=305800 MemberID=60 </weight>
<weight id="1218" MUR="1.0" MUF="1.0" PDF="305861" > PDF=305800 MemberID=61 </weight>
<weight id="1219" MUR="1.0" MUF="1.0" PDF="305862" > PDF=305800 MemberID=62 </weight>
<weight id="1220" MUR="1.0" MUF="1.0" PDF="305863" > PDF=305800 MemberID=63 </weight>
<weight id="1221" MUR="1.0" MUF="1.0" PDF="305864" > PDF=305800 MemberID=64 </weight>
<weight id="1222" MUR="1.0" MUF="1.0" PDF="305865" > PDF=305800 MemberID=65 </weight>
<weight id="1223" MUR="1.0" MUF="1.0" PDF="305866" > PDF=305800 MemberID=66 </weight>
<weight id="1224" MUR="1.0" MUF="1.0" PDF="305867" > PDF=305800 MemberID=67 </weight>
<weight id="1225" MUR="1.0" MUF="1.0" PDF="305868" > PDF=305800 MemberID=68 </weight>
<weight id="1226" MUR="1.0" MUF="1.0" PDF="305869" > PDF=305800 MemberID=69 </weight>
<weight id="1227" MUR="1.0" MUF="1.0" PDF="305870" > PDF=305800 MemberID=70 </weight>
<weight id="1228" MUR="1.0" MUF="1.0" PDF="305871" > PDF=305800 MemberID=71 </weight>
<weight id="1229" MUR="1.0" MUF="1.0" PDF="305872" > PDF=305800 MemberID=72 </weight>
<weight id="1230" MUR="1.0" MUF="1.0" PDF="305873" > PDF=305800 MemberID=73 </weight>
<weight id="1231" MUR="1.0" MUF="1.0" PDF="305874" > PDF=305800 MemberID=74 </weight>
<weight id="1232" MUR="1.0" MUF="1.0" PDF="305875" > PDF=305800 MemberID=75 </weight>
<weight id="1233" MUR="1.0" MUF="1.0" PDF="305876" > PDF=305800 MemberID=76 </weight>
<weight id="1234" MUR="1.0" MUF="1.0" PDF="305877" > PDF=305800 MemberID=77 </weight>
<weight id="1235" MUR="1.0" MUF="1.0" PDF="305878" > PDF=305800 MemberID=78 </weight>
<weight id="1236" MUR="1.0" MUF="1.0" PDF="305879" > PDF=305800 MemberID=79 </weight>
<weight id="1237" MUR="1.0" MUF="1.0" PDF="305880" > PDF=305800 MemberID=80 </weight>
<weight id="1238" MUR="1.0" MUF="1.0" PDF="305881" > PDF=305800 MemberID=81 </weight>
<weight id="1239" MUR="1.0" MUF="1.0" PDF="305882" > PDF=305800 MemberID=82 </weight>
<weight id="1240" MUR="1.0" MUF="1.0" PDF="305883" > PDF=305800 MemberID=83 </weight>
<weight id="1241" MUR="1.0" MUF="1.0" PDF="305884" > PDF=305800 MemberID=84 </weight>
<weight id="1242" MUR="1.0" MUF="1.0" PDF="305885" > PDF=305800 MemberID=85 </weight>
<weight id="1243" MUR="1.0" MUF="1.0" PDF="305886" > PDF=305800 MemberID=86 </weight>
<weight id="1244" MUR="1.0" MUF="1.0" PDF="305887" > PDF=305800 MemberID=87 </weight>
<weight id="1245" MUR="1.0" MUF="1.0" PDF="305888" > PDF=305800 MemberID=88 </weight>
<weight id="1246" MUR="1.0" MUF="1.0" PDF="305889" > PDF=305800 MemberID=89 </weight>
<weight id="1247" MUR="1.0" MUF="1.0" PDF="305890" > PDF=305800 MemberID=90 </weight>
<weight id="1248" MUR="1.0" MUF="1.0" PDF="305891" > PDF=305800 MemberID=91 </weight>
<weight id="1249" MUR="1.0" MUF="1.0" PDF="305892" > PDF=305800 MemberID=92 </weight>
<weight id="1250" MUR="1.0" MUF="1.0" PDF="305893" > PDF=305800 MemberID=93 </weight>
<weight id="1251" MUR="1.0" MUF="1.0" PDF="305894" > PDF=305800 MemberID=94 </weight>
<weight id="1252" MUR="1.0" MUF="1.0" PDF="305895" > PDF=305800 MemberID=95 </weight>
<weight id="1253" MUR="1.0" MUF="1.0" PDF="305896" > PDF=305800 MemberID=96 </weight>
<weight id="1254" MUR="1.0" MUF="1.0" PDF="305897" > PDF=305800 MemberID=97 </weight>
<weight id="1255" MUR="1.0" MUF="1.0" PDF="305898" > PDF=305800 MemberID=98 </weight>
<weight id="1256" MUR="1.0" MUF="1.0" PDF="305899" > PDF=305800 MemberID=99 </weight>
<weight id="1257" MUR="1.0" MUF="1.0" PDF="305900" > PDF=305800 MemberID=100 </weight>
<weight id="1258" MUR="1.0" MUF="1.0" PDF="305901" > PDF=305800 MemberID=101 </weight>
<weight id="1259" MUR="1.0" MUF="1.0" PDF="305902" > PDF=305800 MemberID=102 </weight>
</weightgroup> # PDFSET -> PDFSET
<weightgroup name="CT14nnlo" combine="hessian"> # 13000: CT14nnlo, 3-loop PDF evolution with HOPPET and HOPPET alphas_s running solution. This set has 57 member PDFs. mem=0 --.gt. central value; mem=1-56 --.gt. eigenvector sets 90%
<weight id="1260" MUR="1.0" MUF="1.0" PDF="13000" > PDF=13000 MemberID=0 </weight>
<weight id="1261" MUR="1.0" MUF="1.0" PDF="13001" > PDF=13000 MemberID=1 </weight>
<weight id="1262" MUR="1.0" MUF="1.0" PDF="13002" > PDF=13000 MemberID=2 </weight>
<weight id="1263" MUR="1.0" MUF="1.0" PDF="13003" > PDF=13000 MemberID=3 </weight>
<weight id="1264" MUR="1.0" MUF="1.0" PDF="13004" > PDF=13000 MemberID=4 </weight>
<weight id="1265" MUR="1.0" MUF="1.0" PDF="13005" > PDF=13000 MemberID=5 </weight>
<weight id="1266" MUR="1.0" MUF="1.0" PDF="13006" > PDF=13000 MemberID=6 </weight>
<weight id="1267" MUR="1.0" MUF="1.0" PDF="13007" > PDF=13000 MemberID=7 </weight>
<weight id="1268" MUR="1.0" MUF="1.0" PDF="13008" > PDF=13000 MemberID=8 </weight>
<weight id="1269" MUR="1.0" MUF="1.0" PDF="13009" > PDF=13000 MemberID=9 </weight>
<weight id="1270" MUR="1.0" MUF="1.0" PDF="13010" > PDF=13000 MemberID=10 </weight>
<weight id="1271" MUR="1.0" MUF="1.0" PDF="13011" > PDF=13000 MemberID=11 </weight>
<weight id="1272" MUR="1.0" MUF="1.0" PDF="13012" > PDF=13000 MemberID=12 </weight>
<weight id="1273" MUR="1.0" MUF="1.0" PDF="13013" > PDF=13000 MemberID=13 </weight>
<weight id="1274" MUR="1.0" MUF="1.0" PDF="13014" > PDF=13000 MemberID=14 </weight>
<weight id="1275" MUR="1.0" MUF="1.0" PDF="13015" > PDF=13000 MemberID=15 </weight>
<weight id="1276" MUR="1.0" MUF="1.0" PDF="13016" > PDF=13000 MemberID=16 </weight>
<weight id="1277" MUR="1.0" MUF="1.0" PDF="13017" > PDF=13000 MemberID=17 </weight>
<weight id="1278" MUR="1.0" MUF="1.0" PDF="13018" > PDF=13000 MemberID=18 </weight>
<weight id="1279" MUR="1.0" MUF="1.0" PDF="13019" > PDF=13000 MemberID=19 </weight>
<weight id="1280" MUR="1.0" MUF="1.0" PDF="13020" > PDF=13000 MemberID=20 </weight>
<weight id="1281" MUR="1.0" MUF="1.0" PDF="13021" > PDF=13000 MemberID=21 </weight>
<weight id="1282" MUR="1.0" MUF="1.0" PDF="13022" > PDF=13000 MemberID=22 </weight>
<weight id="1283" MUR="1.0" MUF="1.0" PDF="13023" > PDF=13000 MemberID=23 </weight>
<weight id="1284" MUR="1.0" MUF="1.0" PDF="13024" > PDF=13000 MemberID=24 </weight>
<weight id="1285" MUR="1.0" MUF="1.0" PDF="13025" > PDF=13000 MemberID=25 </weight>
<weight id="1286" MUR="1.0" MUF="1.0" PDF="13026" > PDF=13000 MemberID=26 </weight>
<weight id="1287" MUR="1.0" MUF="1.0" PDF="13027" > PDF=13000 MemberID=27 </weight>
<weight id="1288" MUR="1.0" MUF="1.0" PDF="13028" > PDF=13000 MemberID=28 </weight>
<weight id="1289" MUR="1.0" MUF="1.0" PDF="13029" > PDF=13000 MemberID=29 </weight>
<weight id="1290" MUR="1.0" MUF="1.0" PDF="13030" > PDF=13000 MemberID=30 </weight>
<weight id="1291" MUR="1.0" MUF="1.0" PDF="13031" > PDF=13000 MemberID=31 </weight>
<weight id="1292" MUR="1.0" MUF="1.0" PDF="13032" > PDF=13000 MemberID=32 </weight>
<weight id="1293" MUR="1.0" MUF="1.0" PDF="13033" > PDF=13000 MemberID=33 </weight>
<weight id="1294" MUR="1.0" MUF="1.0" PDF="13034" > PDF=13000 MemberID=34 </weight>
<weight id="1295" MUR="1.0" MUF="1.0" PDF="13035" > PDF=13000 MemberID=35 </weight>
<weight id="1296" MUR="1.0" MUF="1.0" PDF="13036" > PDF=13000 MemberID=36 </weight>
<weight id="1297" MUR="1.0" MUF="1.0" PDF="13037" > PDF=13000 MemberID=37 </weight>
<weight id="1298" MUR="1.0" MUF="1.0" PDF="13038" > PDF=13000 MemberID=38 </weight>
<weight id="1299" MUR="1.0" MUF="1.0" PDF="13039" > PDF=13000 MemberID=39 </weight>
<weight id="1300" MUR="1.0" MUF="1.0" PDF="13040" > PDF=13000 MemberID=40 </weight>
<weight id="1301" MUR="1.0" MUF="1.0" PDF="13041" > PDF=13000 MemberID=41 </weight>
<weight id="1302" MUR="1.0" MUF="1.0" PDF="13042" > PDF=13000 MemberID=42 </weight>
<weight id="1303" MUR="1.0" MUF="1.0" PDF="13043" > PDF=13000 MemberID=43 </weight>
<weight id="1304" MUR="1.0" MUF="1.0" PDF="13044" > PDF=13000 MemberID=44 </weight>
<weight id="1305" MUR="1.0" MUF="1.0" PDF="13045" > PDF=13000 MemberID=45 </weight>
<weight id="1306" MUR="1.0" MUF="1.0" PDF="13046" > PDF=13000 MemberID=46 </weight>
<weight id="1307" MUR="1.0" MUF="1.0" PDF="13047" > PDF=13000 MemberID=47 </weight>
<weight id="1308" MUR="1.0" MUF="1.0" PDF="13048" > PDF=13000 MemberID=48 </weight>
<weight id="1309" MUR="1.0" MUF="1.0" PDF="13049" > PDF=13000 MemberID=49 </weight>
<weight id="1310" MUR="1.0" MUF="1.0" PDF="13050" > PDF=13000 MemberID=50 </weight>
<weight id="1311" MUR="1.0" MUF="1.0" PDF="13051" > PDF=13000 MemberID=51 </weight>
<weight id="1312" MUR="1.0" MUF="1.0" PDF="13052" > PDF=13000 MemberID=52 </weight>
<weight id="1313" MUR="1.0" MUF="1.0" PDF="13053" > PDF=13000 MemberID=53 </weight>
<weight id="1314" MUR="1.0" MUF="1.0" PDF="13054" > PDF=13000 MemberID=54 </weight>
<weight id="1315" MUR="1.0" MUF="1.0" PDF="13055" > PDF=13000 MemberID=55 </weight>
<weight id="1316" MUR="1.0" MUF="1.0" PDF="13056" > PDF=13000 MemberID=56 </weight>
</weightgroup> # PDFSET -> PDF
<weight id="1317" MUR="1.0" MUF="1.0" PDF="13065" > PDF=13065 MemberID=0 </weight>
<weight id="1318" MUR="1.0" MUF="1.0" PDF="13069" > PDF=13069 MemberID=0 </weight>
<weightgroup name="CT14nlo" combine="hessian"> # 13100: CT14nlo, 2-loop PDF evolution with HOPPET and HOPPET alphas_s running solution. This set has 57 member PDFs. mem=0 --.gt. central value; mem=1-56 --.gt. eigenvector sets 90%
<weight id="1319" MUR="1.0" MUF="1.0" PDF="13100" > PDF=13100 MemberID=0 </weight>
<weight id="1320" MUR="1.0" MUF="1.0" PDF="13101" > PDF=13100 MemberID=1 </weight>
<weight id="1321" MUR="1.0" MUF="1.0" PDF="13102" > PDF=13100 MemberID=2 </weight>
<weight id="1322" MUR="1.0" MUF="1.0" PDF="13103" > PDF=13100 MemberID=3 </weight>
<weight id="1323" MUR="1.0" MUF="1.0" PDF="13104" > PDF=13100 MemberID=4 </weight>
<weight id="1324" MUR="1.0" MUF="1.0" PDF="13105" > PDF=13100 MemberID=5 </weight>
<weight id="1325" MUR="1.0" MUF="1.0" PDF="13106" > PDF=13100 MemberID=6 </weight>
<weight id="1326" MUR="1.0" MUF="1.0" PDF="13107" > PDF=13100 MemberID=7 </weight>
<weight id="1327" MUR="1.0" MUF="1.0" PDF="13108" > PDF=13100 MemberID=8 </weight>
<weight id="1328" MUR="1.0" MUF="1.0" PDF="13109" > PDF=13100 MemberID=9 </weight>
<weight id="1329" MUR="1.0" MUF="1.0" PDF="13110" > PDF=13100 MemberID=10 </weight>
<weight id="1330" MUR="1.0" MUF="1.0" PDF="13111" > PDF=13100 MemberID=11 </weight>
<weight id="1331" MUR="1.0" MUF="1.0" PDF="13112" > PDF=13100 MemberID=12 </weight>
<weight id="1332" MUR="1.0" MUF="1.0" PDF="13113" > PDF=13100 MemberID=13 </weight>
<weight id="1333" MUR="1.0" MUF="1.0" PDF="13114" > PDF=13100 MemberID=14 </weight>
<weight id="1334" MUR="1.0" MUF="1.0" PDF="13115" > PDF=13100 MemberID=15 </weight>
<weight id="1335" MUR="1.0" MUF="1.0" PDF="13116" > PDF=13100 MemberID=16 </weight>
<weight id="1336" MUR="1.0" MUF="1.0" PDF="13117" > PDF=13100 MemberID=17 </weight>
<weight id="1337" MUR="1.0" MUF="1.0" PDF="13118" > PDF=13100 MemberID=18 </weight>
<weight id="1338" MUR="1.0" MUF="1.0" PDF="13119" > PDF=13100 MemberID=19 </weight>
<weight id="1339" MUR="1.0" MUF="1.0" PDF="13120" > PDF=13100 MemberID=20 </weight>
<weight id="1340" MUR="1.0" MUF="1.0" PDF="13121" > PDF=13100 MemberID=21 </weight>
<weight id="1341" MUR="1.0" MUF="1.0" PDF="13122" > PDF=13100 MemberID=22 </weight>
<weight id="1342" MUR="1.0" MUF="1.0" PDF="13123" > PDF=13100 MemberID=23 </weight>
<weight id="1343" MUR="1.0" MUF="1.0" PDF="13124" > PDF=13100 MemberID=24 </weight>
<weight id="1344" MUR="1.0" MUF="1.0" PDF="13125" > PDF=13100 MemberID=25 </weight>
<weight id="1345" MUR="1.0" MUF="1.0" PDF="13126" > PDF=13100 MemberID=26 </weight>
<weight id="1346" MUR="1.0" MUF="1.0" PDF="13127" > PDF=13100 MemberID=27 </weight>
<weight id="1347" MUR="1.0" MUF="1.0" PDF="13128" > PDF=13100 MemberID=28 </weight>
<weight id="1348" MUR="1.0" MUF="1.0" PDF="13129" > PDF=13100 MemberID=29 </weight>
<weight id="1349" MUR="1.0" MUF="1.0" PDF="13130" > PDF=13100 MemberID=30 </weight>
<weight id="1350" MUR="1.0" MUF="1.0" PDF="13131" > PDF=13100 MemberID=31 </weight>
<weight id="1351" MUR="1.0" MUF="1.0" PDF="13132" > PDF=13100 MemberID=32 </weight>
<weight id="1352" MUR="1.0" MUF="1.0" PDF="13133" > PDF=13100 MemberID=33 </weight>
<weight id="1353" MUR="1.0" MUF="1.0" PDF="13134" > PDF=13100 MemberID=34 </weight>
<weight id="1354" MUR="1.0" MUF="1.0" PDF="13135" > PDF=13100 MemberID=35 </weight>
<weight id="1355" MUR="1.0" MUF="1.0" PDF="13136" > PDF=13100 MemberID=36 </weight>
<weight id="1356" MUR="1.0" MUF="1.0" PDF="13137" > PDF=13100 MemberID=37 </weight>
<weight id="1357" MUR="1.0" MUF="1.0" PDF="13138" > PDF=13100 MemberID=38 </weight>
<weight id="1358" MUR="1.0" MUF="1.0" PDF="13139" > PDF=13100 MemberID=39 </weight>
<weight id="1359" MUR="1.0" MUF="1.0" PDF="13140" > PDF=13100 MemberID=40 </weight>
<weight id="1360" MUR="1.0" MUF="1.0" PDF="13141" > PDF=13100 MemberID=41 </weight>
<weight id="1361" MUR="1.0" MUF="1.0" PDF="13142" > PDF=13100 MemberID=42 </weight>
<weight id="1362" MUR="1.0" MUF="1.0" PDF="13143" > PDF=13100 MemberID=43 </weight>
<weight id="1363" MUR="1.0" MUF="1.0" PDF="13144" > PDF=13100 MemberID=44 </weight>
<weight id="1364" MUR="1.0" MUF="1.0" PDF="13145" > PDF=13100 MemberID=45 </weight>
<weight id="1365" MUR="1.0" MUF="1.0" PDF="13146" > PDF=13100 MemberID=46 </weight>
<weight id="1366" MUR="1.0" MUF="1.0" PDF="13147" > PDF=13100 MemberID=47 </weight>
<weight id="1367" MUR="1.0" MUF="1.0" PDF="13148" > PDF=13100 MemberID=48 </weight>
<weight id="1368" MUR="1.0" MUF="1.0" PDF="13149" > PDF=13100 MemberID=49 </weight>
<weight id="1369" MUR="1.0" MUF="1.0" PDF="13150" > PDF=13100 MemberID=50 </weight>
<weight id="1370" MUR="1.0" MUF="1.0" PDF="13151" > PDF=13100 MemberID=51 </weight>
<weight id="1371" MUR="1.0" MUF="1.0" PDF="13152" > PDF=13100 MemberID=52 </weight>
<weight id="1372" MUR="1.0" MUF="1.0" PDF="13153" > PDF=13100 MemberID=53 </weight>
<weight id="1373" MUR="1.0" MUF="1.0" PDF="13154" > PDF=13100 MemberID=54 </weight>
<weight id="1374" MUR="1.0" MUF="1.0" PDF="13155" > PDF=13100 MemberID=55 </weight>
<weight id="1375" MUR="1.0" MUF="1.0" PDF="13156" > PDF=13100 MemberID=56 </weight>
</weightgroup> # PDFSET -> PDF
<weight id="1376" MUR="1.0" MUF="1.0" PDF="13163" > PDF=13163 MemberID=0 </weight>
<weight id="1377" MUR="1.0" MUF="1.0" PDF="13167" > PDF=13167 MemberID=0 </weight>
<weight id="1378" MUR="1.0" MUF="1.0" PDF="13200" > PDF=13200 MemberID=0 </weight>
<weightgroup name="MMHT2014nlo68clas118" combine="hessian"> # 25200: MMHT 2014 NLO (68% C.L.) alpha_S=0.118. mem=0 ; central value; mem=1-50 ; 25 eigenvector sets (+/- directions). See Section 6 of arXiv:0901.0002 for error calculation. Web address: www.hep.ucl.ac.uk/mmht
<weight id="1379" MUR="1.0" MUF="1.0" PDF="25200" > PDF=25200 MemberID=0 </weight>
<weight id="1380" MUR="1.0" MUF="1.0" PDF="25201" > PDF=25200 MemberID=1 </weight>
<weight id="1381" MUR="1.0" MUF="1.0" PDF="25202" > PDF=25200 MemberID=2 </weight>
<weight id="1382" MUR="1.0" MUF="1.0" PDF="25203" > PDF=25200 MemberID=3 </weight>
<weight id="1383" MUR="1.0" MUF="1.0" PDF="25204" > PDF=25200 MemberID=4 </weight>
<weight id="1384" MUR="1.0" MUF="1.0" PDF="25205" > PDF=25200 MemberID=5 </weight>
<weight id="1385" MUR="1.0" MUF="1.0" PDF="25206" > PDF=25200 MemberID=6 </weight>
<weight id="1386" MUR="1.0" MUF="1.0" PDF="25207" > PDF=25200 MemberID=7 </weight>
<weight id="1387" MUR="1.0" MUF="1.0" PDF="25208" > PDF=25200 MemberID=8 </weight>
<weight id="1388" MUR="1.0" MUF="1.0" PDF="25209" > PDF=25200 MemberID=9 </weight>
<weight id="1389" MUR="1.0" MUF="1.0" PDF="25210" > PDF=25200 MemberID=10 </weight>
<weight id="1390" MUR="1.0" MUF="1.0" PDF="25211" > PDF=25200 MemberID=11 </weight>
<weight id="1391" MUR="1.0" MUF="1.0" PDF="25212" > PDF=25200 MemberID=12 </weight>
<weight id="1392" MUR="1.0" MUF="1.0" PDF="25213" > PDF=25200 MemberID=13 </weight>
<weight id="1393" MUR="1.0" MUF="1.0" PDF="25214" > PDF=25200 MemberID=14 </weight>
<weight id="1394" MUR="1.0" MUF="1.0" PDF="25215" > PDF=25200 MemberID=15 </weight>
<weight id="1395" MUR="1.0" MUF="1.0" PDF="25216" > PDF=25200 MemberID=16 </weight>
<weight id="1396" MUR="1.0" MUF="1.0" PDF="25217" > PDF=25200 MemberID=17 </weight>
<weight id="1397" MUR="1.0" MUF="1.0" PDF="25218" > PDF=25200 MemberID=18 </weight>
<weight id="1398" MUR="1.0" MUF="1.0" PDF="25219" > PDF=25200 MemberID=19 </weight>
<weight id="1399" MUR="1.0" MUF="1.0" PDF="25220" > PDF=25200 MemberID=20 </weight>
<weight id="1400" MUR="1.0" MUF="1.0" PDF="25221" > PDF=25200 MemberID=21 </weight>
<weight id="1401" MUR="1.0" MUF="1.0" PDF="25222" > PDF=25200 MemberID=22 </weight>
<weight id="1402" MUR="1.0" MUF="1.0" PDF="25223" > PDF=25200 MemberID=23 </weight>
<weight id="1403" MUR="1.0" MUF="1.0" PDF="25224" > PDF=25200 MemberID=24 </weight>
<weight id="1404" MUR="1.0" MUF="1.0" PDF="25225" > PDF=25200 MemberID=25 </weight>
<weight id="1405" MUR="1.0" MUF="1.0" PDF="25226" > PDF=25200 MemberID=26 </weight>
<weight id="1406" MUR="1.0" MUF="1.0" PDF="25227" > PDF=25200 MemberID=27 </weight>
<weight id="1407" MUR="1.0" MUF="1.0" PDF="25228" > PDF=25200 MemberID=28 </weight>
<weight id="1408" MUR="1.0" MUF="1.0" PDF="25229" > PDF=25200 MemberID=29 </weight>
<weight id="1409" MUR="1.0" MUF="1.0" PDF="25230" > PDF=25200 MemberID=30 </weight>
<weight id="1410" MUR="1.0" MUF="1.0" PDF="25231" > PDF=25200 MemberID=31 </weight>
<weight id="1411" MUR="1.0" MUF="1.0" PDF="25232" > PDF=25200 MemberID=32 </weight>
<weight id="1412" MUR="1.0" MUF="1.0" PDF="25233" > PDF=25200 MemberID=33 </weight>
<weight id="1413" MUR="1.0" MUF="1.0" PDF="25234" > PDF=25200 MemberID=34 </weight>
<weight id="1414" MUR="1.0" MUF="1.0" PDF="25235" > PDF=25200 MemberID=35 </weight>
<weight id="1415" MUR="1.0" MUF="1.0" PDF="25236" > PDF=25200 MemberID=36 </weight>
<weight id="1416" MUR="1.0" MUF="1.0" PDF="25237" > PDF=25200 MemberID=37 </weight>
<weight id="1417" MUR="1.0" MUF="1.0" PDF="25238" > PDF=25200 MemberID=38 </weight>
<weight id="1418" MUR="1.0" MUF="1.0" PDF="25239" > PDF=25200 MemberID=39 </weight>
<weight id="1419" MUR="1.0" MUF="1.0" PDF="25240" > PDF=25200 MemberID=40 </weight>
<weight id="1420" MUR="1.0" MUF="1.0" PDF="25241" > PDF=25200 MemberID=41 </weight>
<weight id="1421" MUR="1.0" MUF="1.0" PDF="25242" > PDF=25200 MemberID=42 </weight>
<weight id="1422" MUR="1.0" MUF="1.0" PDF="25243" > PDF=25200 MemberID=43 </weight>
<weight id="1423" MUR="1.0" MUF="1.0" PDF="25244" > PDF=25200 MemberID=44 </weight>
<weight id="1424" MUR="1.0" MUF="1.0" PDF="25245" > PDF=25200 MemberID=45 </weight>
<weight id="1425" MUR="1.0" MUF="1.0" PDF="25246" > PDF=25200 MemberID=46 </weight>
<weight id="1426" MUR="1.0" MUF="1.0" PDF="25247" > PDF=25200 MemberID=47 </weight>
<weight id="1427" MUR="1.0" MUF="1.0" PDF="25248" > PDF=25200 MemberID=48 </weight>
<weight id="1428" MUR="1.0" MUF="1.0" PDF="25249" > PDF=25200 MemberID=49 </weight>
<weight id="1429" MUR="1.0" MUF="1.0" PDF="25250" > PDF=25200 MemberID=50 </weight>
</weightgroup> # PDFSET -> PDFSET
<weightgroup name="MMHT2014nnlo68cl" combine="hessian"> # 25300: MMHT 2014 NNLO (68% C.L.). mem=0 ; central value; mem=1-50 ; 25 eigenvector sets (+/- directions). See Section 6 of arXiv:0901.0002 for error calculation. Web address: www.hep.ucl.ac.uk/mmht
<weight id="1430" MUR="1.0" MUF="1.0" PDF="25300" > PDF=25300 MemberID=0 </weight>
<weight id="1431" MUR="1.0" MUF="1.0" PDF="25301" > PDF=25300 MemberID=1 </weight>
<weight id="1432" MUR="1.0" MUF="1.0" PDF="25302" > PDF=25300 MemberID=2 </weight>
<weight id="1433" MUR="1.0" MUF="1.0" PDF="25303" > PDF=25300 MemberID=3 </weight>
<weight id="1434" MUR="1.0" MUF="1.0" PDF="25304" > PDF=25300 MemberID=4 </weight>
<weight id="1435" MUR="1.0" MUF="1.0" PDF="25305" > PDF=25300 MemberID=5 </weight>
<weight id="1436" MUR="1.0" MUF="1.0" PDF="25306" > PDF=25300 MemberID=6 </weight>
<weight id="1437" MUR="1.0" MUF="1.0" PDF="25307" > PDF=25300 MemberID=7 </weight>
<weight id="1438" MUR="1.0" MUF="1.0" PDF="25308" > PDF=25300 MemberID=8 </weight>
<weight id="1439" MUR="1.0" MUF="1.0" PDF="25309" > PDF=25300 MemberID=9 </weight>
<weight id="1440" MUR="1.0" MUF="1.0" PDF="25310" > PDF=25300 MemberID=10 </weight>
<weight id="1441" MUR="1.0" MUF="1.0" PDF="25311" > PDF=25300 MemberID=11 </weight>
<weight id="1442" MUR="1.0" MUF="1.0" PDF="25312" > PDF=25300 MemberID=12 </weight>
<weight id="1443" MUR="1.0" MUF="1.0" PDF="25313" > PDF=25300 MemberID=13 </weight>
<weight id="1444" MUR="1.0" MUF="1.0" PDF="25314" > PDF=25300 MemberID=14 </weight>
<weight id="1445" MUR="1.0" MUF="1.0" PDF="25315" > PDF=25300 MemberID=15 </weight>
<weight id="1446" MUR="1.0" MUF="1.0" PDF="25316" > PDF=25300 MemberID=16 </weight>
<weight id="1447" MUR="1.0" MUF="1.0" PDF="25317" > PDF=25300 MemberID=17 </weight>
<weight id="1448" MUR="1.0" MUF="1.0" PDF="25318" > PDF=25300 MemberID=18 </weight>
<weight id="1449" MUR="1.0" MUF="1.0" PDF="25319" > PDF=25300 MemberID=19 </weight>
<weight id="1450" MUR="1.0" MUF="1.0" PDF="25320" > PDF=25300 MemberID=20 </weight>
<weight id="1451" MUR="1.0" MUF="1.0" PDF="25321" > PDF=25300 MemberID=21 </weight>
<weight id="1452" MUR="1.0" MUF="1.0" PDF="25322" > PDF=25300 MemberID=22 </weight>
<weight id="1453" MUR="1.0" MUF="1.0" PDF="25323" > PDF=25300 MemberID=23 </weight>
<weight id="1454" MUR="1.0" MUF="1.0" PDF="25324" > PDF=25300 MemberID=24 </weight>
<weight id="1455" MUR="1.0" MUF="1.0" PDF="25325" > PDF=25300 MemberID=25 </weight>
<weight id="1456" MUR="1.0" MUF="1.0" PDF="25326" > PDF=25300 MemberID=26 </weight>
<weight id="1457" MUR="1.0" MUF="1.0" PDF="25327" > PDF=25300 MemberID=27 </weight>
<weight id="1458" MUR="1.0" MUF="1.0" PDF="25328" > PDF=25300 MemberID=28 </weight>
<weight id="1459" MUR="1.0" MUF="1.0" PDF="25329" > PDF=25300 MemberID=29 </weight>
<weight id="1460" MUR="1.0" MUF="1.0" PDF="25330" > PDF=25300 MemberID=30 </weight>
<weight id="1461" MUR="1.0" MUF="1.0" PDF="25331" > PDF=25300 MemberID=31 </weight>
<weight id="1462" MUR="1.0" MUF="1.0" PDF="25332" > PDF=25300 MemberID=32 </weight>
<weight id="1463" MUR="1.0" MUF="1.0" PDF="25333" > PDF=25300 MemberID=33 </weight>
<weight id="1464" MUR="1.0" MUF="1.0" PDF="25334" > PDF=25300 MemberID=34 </weight>
<weight id="1465" MUR="1.0" MUF="1.0" PDF="25335" > PDF=25300 MemberID=35 </weight>
<weight id="1466" MUR="1.0" MUF="1.0" PDF="25336" > PDF=25300 MemberID=36 </weight>
<weight id="1467" MUR="1.0" MUF="1.0" PDF="25337" > PDF=25300 MemberID=37 </weight>
<weight id="1468" MUR="1.0" MUF="1.0" PDF="25338" > PDF=25300 MemberID=38 </weight>
<weight id="1469" MUR="1.0" MUF="1.0" PDF="25339" > PDF=25300 MemberID=39 </weight>
<weight id="1470" MUR="1.0" MUF="1.0" PDF="25340" > PDF=25300 MemberID=40 </weight>
<weight id="1471" MUR="1.0" MUF="1.0" PDF="25341" > PDF=25300 MemberID=41 </weight>
<weight id="1472" MUR="1.0" MUF="1.0" PDF="25342" > PDF=25300 MemberID=42 </weight>
<weight id="1473" MUR="1.0" MUF="1.0" PDF="25343" > PDF=25300 MemberID=43 </weight>
<weight id="1474" MUR="1.0" MUF="1.0" PDF="25344" > PDF=25300 MemberID=44 </weight>
<weight id="1475" MUR="1.0" MUF="1.0" PDF="25345" > PDF=25300 MemberID=45 </weight>
<weight id="1476" MUR="1.0" MUF="1.0" PDF="25346" > PDF=25300 MemberID=46 </weight>
<weight id="1477" MUR="1.0" MUF="1.0" PDF="25347" > PDF=25300 MemberID=47 </weight>
<weight id="1478" MUR="1.0" MUF="1.0" PDF="25348" > PDF=25300 MemberID=48 </weight>
<weight id="1479" MUR="1.0" MUF="1.0" PDF="25349" > PDF=25300 MemberID=49 </weight>
<weight id="1480" MUR="1.0" MUF="1.0" PDF="25350" > PDF=25300 MemberID=50 </weight>
</weightgroup> # PDFSET -> PDF
<weight id="1481" MUR="1.0" MUF="1.0" PDF="25000" > PDF=25000 MemberID=0 </weight>
<weightgroup name="ABMP16als118_5_nnlo" combine="symmhessian"> # 42780: NNLO 5-flavour PDFs with different alphas_s for the ABMP16 set
<weight id="1482" MUR="1.0" MUF="1.0" PDF="42780" > PDF=42780 MemberID=0 </weight>
<weight id="1483" MUR="1.0" MUF="1.0" PDF="42781" > PDF=42780 MemberID=1 </weight>
<weight id="1484" MUR="1.0" MUF="1.0" PDF="42782" > PDF=42780 MemberID=2 </weight>
<weight id="1485" MUR="1.0" MUF="1.0" PDF="42783" > PDF=42780 MemberID=3 </weight>
<weight id="1486" MUR="1.0" MUF="1.0" PDF="42784" > PDF=42780 MemberID=4 </weight>
<weight id="1487" MUR="1.0" MUF="1.0" PDF="42785" > PDF=42780 MemberID=5 </weight>
<weight id="1488" MUR="1.0" MUF="1.0" PDF="42786" > PDF=42780 MemberID=6 </weight>
<weight id="1489" MUR="1.0" MUF="1.0" PDF="42787" > PDF=42780 MemberID=7 </weight>
<weight id="1490" MUR="1.0" MUF="1.0" PDF="42788" > PDF=42780 MemberID=8 </weight>
<weight id="1491" MUR="1.0" MUF="1.0" PDF="42789" > PDF=42780 MemberID=9 </weight>
<weight id="1492" MUR="1.0" MUF="1.0" PDF="42790" > PDF=42780 MemberID=10 </weight>
<weight id="1493" MUR="1.0" MUF="1.0" PDF="42791" > PDF=42780 MemberID=11 </weight>
<weight id="1494" MUR="1.0" MUF="1.0" PDF="42792" > PDF=42780 MemberID=12 </weight>
<weight id="1495" MUR="1.0" MUF="1.0" PDF="42793" > PDF=42780 MemberID=13 </weight>
<weight id="1496" MUR="1.0" MUF="1.0" PDF="42794" > PDF=42780 MemberID=14 </weight>
<weight id="1497" MUR="1.0" MUF="1.0" PDF="42795" > PDF=42780 MemberID=15 </weight>
<weight id="1498" MUR="1.0" MUF="1.0" PDF="42796" > PDF=42780 MemberID=16 </weight>
<weight id="1499" MUR="1.0" MUF="1.0" PDF="42797" > PDF=42780 MemberID=17 </weight>
<weight id="1500" MUR="1.0" MUF="1.0" PDF="42798" > PDF=42780 MemberID=18 </weight>
<weight id="1501" MUR="1.0" MUF="1.0" PDF="42799" > PDF=42780 MemberID=19 </weight>
<weight id="1502" MUR="1.0" MUF="1.0" PDF="42800" > PDF=42780 MemberID=20 </weight>
<weight id="1503" MUR="1.0" MUF="1.0" PDF="42801" > PDF=42780 MemberID=21 </weight>
<weight id="1504" MUR="1.0" MUF="1.0" PDF="42802" > PDF=42780 MemberID=22 </weight>
<weight id="1505" MUR="1.0" MUF="1.0" PDF="42803" > PDF=42780 MemberID=23 </weight>
<weight id="1506" MUR="1.0" MUF="1.0" PDF="42804" > PDF=42780 MemberID=24 </weight>
<weight id="1507" MUR="1.0" MUF="1.0" PDF="42805" > PDF=42780 MemberID=25 </weight>
<weight id="1508" MUR="1.0" MUF="1.0" PDF="42806" > PDF=42780 MemberID=26 </weight>
<weight id="1509" MUR="1.0" MUF="1.0" PDF="42807" > PDF=42780 MemberID=27 </weight>
<weight id="1510" MUR="1.0" MUF="1.0" PDF="42808" > PDF=42780 MemberID=28 </weight>
<weight id="1511" MUR="1.0" MUF="1.0" PDF="42809" > PDF=42780 MemberID=29 </weight>
</weightgroup> # PDFSET -> PDFSET
<weightgroup name="PDF4LHC15_nlo_100_pdfas" combine="symmhessian+as"> # 90200: PDF4LHC15_nlo_100_pdfas. mem=0 ; alphas(MZ)=0.118 central value; mem=1-100 ; PDF symmetric eigenvectors; mem=101 ; alphas(MZ)=0.1165 central value; mem=102 ; alphas(MZ)=0.1195
<weight id="1512" MUR="1.0" MUF="1.0" PDF="90200" > PDF=90200 MemberID=0 </weight>
<weight id="1513" MUR="1.0" MUF="1.0" PDF="90201" > PDF=90200 MemberID=1 </weight>
<weight id="1514" MUR="1.0" MUF="1.0" PDF="90202" > PDF=90200 MemberID=2 </weight>
<weight id="1515" MUR="1.0" MUF="1.0" PDF="90203" > PDF=90200 MemberID=3 </weight>
<weight id="1516" MUR="1.0" MUF="1.0" PDF="90204" > PDF=90200 MemberID=4 </weight>
<weight id="1517" MUR="1.0" MUF="1.0" PDF="90205" > PDF=90200 MemberID=5 </weight>
<weight id="1518" MUR="1.0" MUF="1.0" PDF="90206" > PDF=90200 MemberID=6 </weight>
<weight id="1519" MUR="1.0" MUF="1.0" PDF="90207" > PDF=90200 MemberID=7 </weight>
<weight id="1520" MUR="1.0" MUF="1.0" PDF="90208" > PDF=90200 MemberID=8 </weight>
<weight id="1521" MUR="1.0" MUF="1.0" PDF="90209" > PDF=90200 MemberID=9 </weight>
<weight id="1522" MUR="1.0" MUF="1.0" PDF="90210" > PDF=90200 MemberID=10 </weight>
<weight id="1523" MUR="1.0" MUF="1.0" PDF="90211" > PDF=90200 MemberID=11 </weight>
<weight id="1524" MUR="1.0" MUF="1.0" PDF="90212" > PDF=90200 MemberID=12 </weight>
<weight id="1525" MUR="1.0" MUF="1.0" PDF="90213" > PDF=90200 MemberID=13 </weight>
<weight id="1526" MUR="1.0" MUF="1.0" PDF="90214" > PDF=90200 MemberID=14 </weight>
<weight id="1527" MUR="1.0" MUF="1.0" PDF="90215" > PDF=90200 MemberID=15 </weight>
<weight id="1528" MUR="1.0" MUF="1.0" PDF="90216" > PDF=90200 MemberID=16 </weight>
<weight id="1529" MUR="1.0" MUF="1.0" PDF="90217" > PDF=90200 MemberID=17 </weight>
<weight id="1530" MUR="1.0" MUF="1.0" PDF="90218" > PDF=90200 MemberID=18 </weight>
<weight id="1531" MUR="1.0" MUF="1.0" PDF="90219" > PDF=90200 MemberID=19 </weight>
<weight id="1532" MUR="1.0" MUF="1.0" PDF="90220" > PDF=90200 MemberID=20 </weight>
<weight id="1533" MUR="1.0" MUF="1.0" PDF="90221" > PDF=90200 MemberID=21 </weight>
<weight id="1534" MUR="1.0" MUF="1.0" PDF="90222" > PDF=90200 MemberID=22 </weight>
<weight id="1535" MUR="1.0" MUF="1.0" PDF="90223" > PDF=90200 MemberID=23 </weight>
<weight id="1536" MUR="1.0" MUF="1.0" PDF="90224" > PDF=90200 MemberID=24 </weight>
<weight id="1537" MUR="1.0" MUF="1.0" PDF="90225" > PDF=90200 MemberID=25 </weight>
<weight id="1538" MUR="1.0" MUF="1.0" PDF="90226" > PDF=90200 MemberID=26 </weight>
<weight id="1539" MUR="1.0" MUF="1.0" PDF="90227" > PDF=90200 MemberID=27 </weight>
<weight id="1540" MUR="1.0" MUF="1.0" PDF="90228" > PDF=90200 MemberID=28 </weight>
<weight id="1541" MUR="1.0" MUF="1.0" PDF="90229" > PDF=90200 MemberID=29 </weight>
<weight id="1542" MUR="1.0" MUF="1.0" PDF="90230" > PDF=90200 MemberID=30 </weight>
<weight id="1543" MUR="1.0" MUF="1.0" PDF="90231" > PDF=90200 MemberID=31 </weight>
<weight id="1544" MUR="1.0" MUF="1.0" PDF="90232" > PDF=90200 MemberID=32 </weight>
<weight id="1545" MUR="1.0" MUF="1.0" PDF="90233" > PDF=90200 MemberID=33 </weight>
<weight id="1546" MUR="1.0" MUF="1.0" PDF="90234" > PDF=90200 MemberID=34 </weight>
<weight id="1547" MUR="1.0" MUF="1.0" PDF="90235" > PDF=90200 MemberID=35 </weight>
<weight id="1548" MUR="1.0" MUF="1.0" PDF="90236" > PDF=90200 MemberID=36 </weight>
<weight id="1549" MUR="1.0" MUF="1.0" PDF="90237" > PDF=90200 MemberID=37 </weight>
<weight id="1550" MUR="1.0" MUF="1.0" PDF="90238" > PDF=90200 MemberID=38 </weight>
<weight id="1551" MUR="1.0" MUF="1.0" PDF="90239" > PDF=90200 MemberID=39 </weight>
<weight id="1552" MUR="1.0" MUF="1.0" PDF="90240" > PDF=90200 MemberID=40 </weight>
<weight id="1553" MUR="1.0" MUF="1.0" PDF="90241" > PDF=90200 MemberID=41 </weight>
<weight id="1554" MUR="1.0" MUF="1.0" PDF="90242" > PDF=90200 MemberID=42 </weight>
<weight id="1555" MUR="1.0" MUF="1.0" PDF="90243" > PDF=90200 MemberID=43 </weight>
<weight id="1556" MUR="1.0" MUF="1.0" PDF="90244" > PDF=90200 MemberID=44 </weight>
<weight id="1557" MUR="1.0" MUF="1.0" PDF="90245" > PDF=90200 MemberID=45 </weight>
<weight id="1558" MUR="1.0" MUF="1.0" PDF="90246" > PDF=90200 MemberID=46 </weight>
<weight id="1559" MUR="1.0" MUF="1.0" PDF="90247" > PDF=90200 MemberID=47 </weight>
<weight id="1560" MUR="1.0" MUF="1.0" PDF="90248" > PDF=90200 MemberID=48 </weight>
<weight id="1561" MUR="1.0" MUF="1.0" PDF="90249" > PDF=90200 MemberID=49 </weight>
<weight id="1562" MUR="1.0" MUF="1.0" PDF="90250" > PDF=90200 MemberID=50 </weight>
<weight id="1563" MUR="1.0" MUF="1.0" PDF="90251" > PDF=90200 MemberID=51 </weight>
<weight id="1564" MUR="1.0" MUF="1.0" PDF="90252" > PDF=90200 MemberID=52 </weight>
<weight id="1565" MUR="1.0" MUF="1.0" PDF="90253" > PDF=90200 MemberID=53 </weight>
<weight id="1566" MUR="1.0" MUF="1.0" PDF="90254" > PDF=90200 MemberID=54 </weight>
<weight id="1567" MUR="1.0" MUF="1.0" PDF="90255" > PDF=90200 MemberID=55 </weight>
<weight id="1568" MUR="1.0" MUF="1.0" PDF="90256" > PDF=90200 MemberID=56 </weight>
<weight id="1569" MUR="1.0" MUF="1.0" PDF="90257" > PDF=90200 MemberID=57 </weight>
<weight id="1570" MUR="1.0" MUF="1.0" PDF="90258" > PDF=90200 MemberID=58 </weight>
<weight id="1571" MUR="1.0" MUF="1.0" PDF="90259" > PDF=90200 MemberID=59 </weight>
<weight id="1572" MUR="1.0" MUF="1.0" PDF="90260" > PDF=90200 MemberID=60 </weight>
<weight id="1573" MUR="1.0" MUF="1.0" PDF="90261" > PDF=90200 MemberID=61 </weight>
<weight id="1574" MUR="1.0" MUF="1.0" PDF="90262" > PDF=90200 MemberID=62 </weight>
<weight id="1575" MUR="1.0" MUF="1.0" PDF="90263" > PDF=90200 MemberID=63 </weight>
<weight id="1576" MUR="1.0" MUF="1.0" PDF="90264" > PDF=90200 MemberID=64 </weight>
<weight id="1577" MUR="1.0" MUF="1.0" PDF="90265" > PDF=90200 MemberID=65 </weight>
<weight id="1578" MUR="1.0" MUF="1.0" PDF="90266" > PDF=90200 MemberID=66 </weight>
<weight id="1579" MUR="1.0" MUF="1.0" PDF="90267" > PDF=90200 MemberID=67 </weight>
<weight id="1580" MUR="1.0" MUF="1.0" PDF="90268" > PDF=90200 MemberID=68 </weight>
<weight id="1581" MUR="1.0" MUF="1.0" PDF="90269" > PDF=90200 MemberID=69 </weight>
<weight id="1582" MUR="1.0" MUF="1.0" PDF="90270" > PDF=90200 MemberID=70 </weight>
<weight id="1583" MUR="1.0" MUF="1.0" PDF="90271" > PDF=90200 MemberID=71 </weight>
<weight id="1584" MUR="1.0" MUF="1.0" PDF="90272" > PDF=90200 MemberID=72 </weight>
<weight id="1585" MUR="1.0" MUF="1.0" PDF="90273" > PDF=90200 MemberID=73 </weight>
<weight id="1586" MUR="1.0" MUF="1.0" PDF="90274" > PDF=90200 MemberID=74 </weight>
<weight id="1587" MUR="1.0" MUF="1.0" PDF="90275" > PDF=90200 MemberID=75 </weight>
<weight id="1588" MUR="1.0" MUF="1.0" PDF="90276" > PDF=90200 MemberID=76 </weight>
<weight id="1589" MUR="1.0" MUF="1.0" PDF="90277" > PDF=90200 MemberID=77 </weight>
<weight id="1590" MUR="1.0" MUF="1.0" PDF="90278" > PDF=90200 MemberID=78 </weight>
<weight id="1591" MUR="1.0" MUF="1.0" PDF="90279" > PDF=90200 MemberID=79 </weight>
<weight id="1592" MUR="1.0" MUF="1.0" PDF="90280" > PDF=90200 MemberID=80 </weight>
<weight id="1593" MUR="1.0" MUF="1.0" PDF="90281" > PDF=90200 MemberID=81 </weight>
<weight id="1594" MUR="1.0" MUF="1.0" PDF="90282" > PDF=90200 MemberID=82 </weight>
<weight id="1595" MUR="1.0" MUF="1.0" PDF="90283" > PDF=90200 MemberID=83 </weight>
<weight id="1596" MUR="1.0" MUF="1.0" PDF="90284" > PDF=90200 MemberID=84 </weight>
<weight id="1597" MUR="1.0" MUF="1.0" PDF="90285" > PDF=90200 MemberID=85 </weight>
<weight id="1598" MUR="1.0" MUF="1.0" PDF="90286" > PDF=90200 MemberID=86 </weight>
<weight id="1599" MUR="1.0" MUF="1.0" PDF="90287" > PDF=90200 MemberID=87 </weight>
<weight id="1600" MUR="1.0" MUF="1.0" PDF="90288" > PDF=90200 MemberID=88 </weight>
<weight id="1601" MUR="1.0" MUF="1.0" PDF="90289" > PDF=90200 MemberID=89 </weight>
<weight id="1602" MUR="1.0" MUF="1.0" PDF="90290" > PDF=90200 MemberID=90 </weight>
<weight id="1603" MUR="1.0" MUF="1.0" PDF="90291" > PDF=90200 MemberID=91 </weight>
<weight id="1604" MUR="1.0" MUF="1.0" PDF="90292" > PDF=90200 MemberID=92 </weight>
<weight id="1605" MUR="1.0" MUF="1.0" PDF="90293" > PDF=90200 MemberID=93 </weight>
<weight id="1606" MUR="1.0" MUF="1.0" PDF="90294" > PDF=90200 MemberID=94 </weight>
<weight id="1607" MUR="1.0" MUF="1.0" PDF="90295" > PDF=90200 MemberID=95 </weight>
<weight id="1608" MUR="1.0" MUF="1.0" PDF="90296" > PDF=90200 MemberID=96 </weight>
<weight id="1609" MUR="1.0" MUF="1.0" PDF="90297" > PDF=90200 MemberID=97 </weight>
<weight id="1610" MUR="1.0" MUF="1.0" PDF="90298" > PDF=90200 MemberID=98 </weight>
<weight id="1611" MUR="1.0" MUF="1.0" PDF="90299" > PDF=90200 MemberID=99 </weight>
<weight id="1612" MUR="1.0" MUF="1.0" PDF="90300" > PDF=90200 MemberID=100 </weight>
<weight id="1613" MUR="1.0" MUF="1.0" PDF="90301" > PDF=90200 MemberID=101 </weight>
<weight id="1614" MUR="1.0" MUF="1.0" PDF="90302" > PDF=90200 MemberID=102 </weight>
</weightgroup> # PDFSET -> PDFSET
<weightgroup name="PDF4LHC15_nnlo_100_pdfas" combine="symmhessian+as"> # 91200: PDF4LHC15_nnlo_100_pdfas. mem=0 ; alphas(MZ)=0.118 central value; mem=1-100 ; PDF symmetric eigenvectors; mem=101 ; alphas(MZ)=0.1165 central value; mem=102 ; alphas(MZ)=0.1195
<weight id="1615" MUR="1.0" MUF="1.0" PDF="91200" > PDF=91200 MemberID=0 </weight>
<weight id="1616" MUR="1.0" MUF="1.0" PDF="91201" > PDF=91200 MemberID=1 </weight>
<weight id="1617" MUR="1.0" MUF="1.0" PDF="91202" > PDF=91200 MemberID=2 </weight>
<weight id="1618" MUR="1.0" MUF="1.0" PDF="91203" > PDF=91200 MemberID=3 </weight>
<weight id="1619" MUR="1.0" MUF="1.0" PDF="91204" > PDF=91200 MemberID=4 </weight>
<weight id="1620" MUR="1.0" MUF="1.0" PDF="91205" > PDF=91200 MemberID=5 </weight>
<weight id="1621" MUR="1.0" MUF="1.0" PDF="91206" > PDF=91200 MemberID=6 </weight>
<weight id="1622" MUR="1.0" MUF="1.0" PDF="91207" > PDF=91200 MemberID=7 </weight>
<weight id="1623" MUR="1.0" MUF="1.0" PDF="91208" > PDF=91200 MemberID=8 </weight>
<weight id="1624" MUR="1.0" MUF="1.0" PDF="91209" > PDF=91200 MemberID=9 </weight>
<weight id="1625" MUR="1.0" MUF="1.0" PDF="91210" > PDF=91200 MemberID=10 </weight>
<weight id="1626" MUR="1.0" MUF="1.0" PDF="91211" > PDF=91200 MemberID=11 </weight>
<weight id="1627" MUR="1.0" MUF="1.0" PDF="91212" > PDF=91200 MemberID=12 </weight>
<weight id="1628" MUR="1.0" MUF="1.0" PDF="91213" > PDF=91200 MemberID=13 </weight>
<weight id="1629" MUR="1.0" MUF="1.0" PDF="91214" > PDF=91200 MemberID=14 </weight>
<weight id="1630" MUR="1.0" MUF="1.0" PDF="91215" > PDF=91200 MemberID=15 </weight>
<weight id="1631" MUR="1.0" MUF="1.0" PDF="91216" > PDF=91200 MemberID=16 </weight>
<weight id="1632" MUR="1.0" MUF="1.0" PDF="91217" > PDF=91200 MemberID=17 </weight>
<weight id="1633" MUR="1.0" MUF="1.0" PDF="91218" > PDF=91200 MemberID=18 </weight>
<weight id="1634" MUR="1.0" MUF="1.0" PDF="91219" > PDF=91200 MemberID=19 </weight>
<weight id="1635" MUR="1.0" MUF="1.0" PDF="91220" > PDF=91200 MemberID=20 </weight>
<weight id="1636" MUR="1.0" MUF="1.0" PDF="91221" > PDF=91200 MemberID=21 </weight>
<weight id="1637" MUR="1.0" MUF="1.0" PDF="91222" > PDF=91200 MemberID=22 </weight>
<weight id="1638" MUR="1.0" MUF="1.0" PDF="91223" > PDF=91200 MemberID=23 </weight>
<weight id="1639" MUR="1.0" MUF="1.0" PDF="91224" > PDF=91200 MemberID=24 </weight>
<weight id="1640" MUR="1.0" MUF="1.0" PDF="91225" > PDF=91200 MemberID=25 </weight>
<weight id="1641" MUR="1.0" MUF="1.0" PDF="91226" > PDF=91200 MemberID=26 </weight>
<weight id="1642" MUR="1.0" MUF="1.0" PDF="91227" > PDF=91200 MemberID=27 </weight>
<weight id="1643" MUR="1.0" MUF="1.0" PDF="91228" > PDF=91200 MemberID=28 </weight>
<weight id="1644" MUR="1.0" MUF="1.0" PDF="91229" > PDF=91200 MemberID=29 </weight>
<weight id="1645" MUR="1.0" MUF="1.0" PDF="91230" > PDF=91200 MemberID=30 </weight>
<weight id="1646" MUR="1.0" MUF="1.0" PDF="91231" > PDF=91200 MemberID=31 </weight>
<weight id="1647" MUR="1.0" MUF="1.0" PDF="91232" > PDF=91200 MemberID=32 </weight>
<weight id="1648" MUR="1.0" MUF="1.0" PDF="91233" > PDF=91200 MemberID=33 </weight>
<weight id="1649" MUR="1.0" MUF="1.0" PDF="91234" > PDF=91200 MemberID=34 </weight>
<weight id="1650" MUR="1.0" MUF="1.0" PDF="91235" > PDF=91200 MemberID=35 </weight>
<weight id="1651" MUR="1.0" MUF="1.0" PDF="91236" > PDF=91200 MemberID=36 </weight>
<weight id="1652" MUR="1.0" MUF="1.0" PDF="91237" > PDF=91200 MemberID=37 </weight>
<weight id="1653" MUR="1.0" MUF="1.0" PDF="91238" > PDF=91200 MemberID=38 </weight>
<weight id="1654" MUR="1.0" MUF="1.0" PDF="91239" > PDF=91200 MemberID=39 </weight>
<weight id="1655" MUR="1.0" MUF="1.0" PDF="91240" > PDF=91200 MemberID=40 </weight>
<weight id="1656" MUR="1.0" MUF="1.0" PDF="91241" > PDF=91200 MemberID=41 </weight>
<weight id="1657" MUR="1.0" MUF="1.0" PDF="91242" > PDF=91200 MemberID=42 </weight>
<weight id="1658" MUR="1.0" MUF="1.0" PDF="91243" > PDF=91200 MemberID=43 </weight>
<weight id="1659" MUR="1.0" MUF="1.0" PDF="91244" > PDF=91200 MemberID=44 </weight>
<weight id="1660" MUR="1.0" MUF="1.0" PDF="91245" > PDF=91200 MemberID=45 </weight>
<weight id="1661" MUR="1.0" MUF="1.0" PDF="91246" > PDF=91200 MemberID=46 </weight>
<weight id="1662" MUR="1.0" MUF="1.0" PDF="91247" > PDF=91200 MemberID=47 </weight>
<weight id="1663" MUR="1.0" MUF="1.0" PDF="91248" > PDF=91200 MemberID=48 </weight>
<weight id="1664" MUR="1.0" MUF="1.0" PDF="91249" > PDF=91200 MemberID=49 </weight>
<weight id="1665" MUR="1.0" MUF="1.0" PDF="91250" > PDF=91200 MemberID=50 </weight>
<weight id="1666" MUR="1.0" MUF="1.0" PDF="91251" > PDF=91200 MemberID=51 </weight>
<weight id="1667" MUR="1.0" MUF="1.0" PDF="91252" > PDF=91200 MemberID=52 </weight>
<weight id="1668" MUR="1.0" MUF="1.0" PDF="91253" > PDF=91200 MemberID=53 </weight>
<weight id="1669" MUR="1.0" MUF="1.0" PDF="91254" > PDF=91200 MemberID=54 </weight>
<weight id="1670" MUR="1.0" MUF="1.0" PDF="91255" > PDF=91200 MemberID=55 </weight>
<weight id="1671" MUR="1.0" MUF="1.0" PDF="91256" > PDF=91200 MemberID=56 </weight>
<weight id="1672" MUR="1.0" MUF="1.0" PDF="91257" > PDF=91200 MemberID=57 </weight>
<weight id="1673" MUR="1.0" MUF="1.0" PDF="91258" > PDF=91200 MemberID=58 </weight>
<weight id="1674" MUR="1.0" MUF="1.0" PDF="91259" > PDF=91200 MemberID=59 </weight>
<weight id="1675" MUR="1.0" MUF="1.0" PDF="91260" > PDF=91200 MemberID=60 </weight>
<weight id="1676" MUR="1.0" MUF="1.0" PDF="91261" > PDF=91200 MemberID=61 </weight>
<weight id="1677" MUR="1.0" MUF="1.0" PDF="91262" > PDF=91200 MemberID=62 </weight>
<weight id="1678" MUR="1.0" MUF="1.0" PDF="91263" > PDF=91200 MemberID=63 </weight>
<weight id="1679" MUR="1.0" MUF="1.0" PDF="91264" > PDF=91200 MemberID=64 </weight>
<weight id="1680" MUR="1.0" MUF="1.0" PDF="91265" > PDF=91200 MemberID=65 </weight>
<weight id="1681" MUR="1.0" MUF="1.0" PDF="91266" > PDF=91200 MemberID=66 </weight>
<weight id="1682" MUR="1.0" MUF="1.0" PDF="91267" > PDF=91200 MemberID=67 </weight>
<weight id="1683" MUR="1.0" MUF="1.0" PDF="91268" > PDF=91200 MemberID=68 </weight>
<weight id="1684" MUR="1.0" MUF="1.0" PDF="91269" > PDF=91200 MemberID=69 </weight>
<weight id="1685" MUR="1.0" MUF="1.0" PDF="91270" > PDF=91200 MemberID=70 </weight>
<weight id="1686" MUR="1.0" MUF="1.0" PDF="91271" > PDF=91200 MemberID=71 </weight>
<weight id="1687" MUR="1.0" MUF="1.0" PDF="91272" > PDF=91200 MemberID=72 </weight>
<weight id="1688" MUR="1.0" MUF="1.0" PDF="91273" > PDF=91200 MemberID=73 </weight>
<weight id="1689" MUR="1.0" MUF="1.0" PDF="91274" > PDF=91200 MemberID=74 </weight>
<weight id="1690" MUR="1.0" MUF="1.0" PDF="91275" > PDF=91200 MemberID=75 </weight>
<weight id="1691" MUR="1.0" MUF="1.0" PDF="91276" > PDF=91200 MemberID=76 </weight>
<weight id="1692" MUR="1.0" MUF="1.0" PDF="91277" > PDF=91200 MemberID=77 </weight>
<weight id="1693" MUR="1.0" MUF="1.0" PDF="91278" > PDF=91200 MemberID=78 </weight>
<weight id="1694" MUR="1.0" MUF="1.0" PDF="91279" > PDF=91200 MemberID=79 </weight>
<weight id="1695" MUR="1.0" MUF="1.0" PDF="91280" > PDF=91200 MemberID=80 </weight>
<weight id="1696" MUR="1.0" MUF="1.0" PDF="91281" > PDF=91200 MemberID=81 </weight>
<weight id="1697" MUR="1.0" MUF="1.0" PDF="91282" > PDF=91200 MemberID=82 </weight>
<weight id="1698" MUR="1.0" MUF="1.0" PDF="91283" > PDF=91200 MemberID=83 </weight>
<weight id="1699" MUR="1.0" MUF="1.0" PDF="91284" > PDF=91200 MemberID=84 </weight>
<weight id="1700" MUR="1.0" MUF="1.0" PDF="91285" > PDF=91200 MemberID=85 </weight>
<weight id="1701" MUR="1.0" MUF="1.0" PDF="91286" > PDF=91200 MemberID=86 </weight>
<weight id="1702" MUR="1.0" MUF="1.0" PDF="91287" > PDF=91200 MemberID=87 </weight>
<weight id="1703" MUR="1.0" MUF="1.0" PDF="91288" > PDF=91200 MemberID=88 </weight>
<weight id="1704" MUR="1.0" MUF="1.0" PDF="91289" > PDF=91200 MemberID=89 </weight>
<weight id="1705" MUR="1.0" MUF="1.0" PDF="91290" > PDF=91200 MemberID=90 </weight>
<weight id="1706" MUR="1.0" MUF="1.0" PDF="91291" > PDF=91200 MemberID=91 </weight>
<weight id="1707" MUR="1.0" MUF="1.0" PDF="91292" > PDF=91200 MemberID=92 </weight>
<weight id="1708" MUR="1.0" MUF="1.0" PDF="91293" > PDF=91200 MemberID=93 </weight>
<weight id="1709" MUR="1.0" MUF="1.0" PDF="91294" > PDF=91200 MemberID=94 </weight>
<weight id="1710" MUR="1.0" MUF="1.0" PDF="91295" > PDF=91200 MemberID=95 </weight>
<weight id="1711" MUR="1.0" MUF="1.0" PDF="91296" > PDF=91200 MemberID=96 </weight>
<weight id="1712" MUR="1.0" MUF="1.0" PDF="91297" > PDF=91200 MemberID=97 </weight>
<weight id="1713" MUR="1.0" MUF="1.0" PDF="91298" > PDF=91200 MemberID=98 </weight>
<weight id="1714" MUR="1.0" MUF="1.0" PDF="91299" > PDF=91200 MemberID=99 </weight>
<weight id="1715" MUR="1.0" MUF="1.0" PDF="91300" > PDF=91200 MemberID=100 </weight>
<weight id="1716" MUR="1.0" MUF="1.0" PDF="91301" > PDF=91200 MemberID=101 </weight>
<weight id="1717" MUR="1.0" MUF="1.0" PDF="91302" > PDF=91200 MemberID=102 </weight>
</weightgroup> # PDFSET -> PDFSET
<weightgroup name="PDF4LHC15_nlo_30_pdfas" combine="symmhessian+as"> # 90400: PDF4LHC15_nlo_30_pdfas. mem=0 ; alphas(MZ)=0.118 central value; mem=1-30 ; PDF symmetric eigenvectors; mem=31 ; alphas(MZ)=0.1165 central value; mem=32 ; alphas(MZ)=0.1195
<weight id="1718" MUR="1.0" MUF="1.0" PDF="90400" > PDF=90400 MemberID=0 </weight>
<weight id="1719" MUR="1.0" MUF="1.0" PDF="90401" > PDF=90400 MemberID=1 </weight>
<weight id="1720" MUR="1.0" MUF="1.0" PDF="90402" > PDF=90400 MemberID=2 </weight>
<weight id="1721" MUR="1.0" MUF="1.0" PDF="90403" > PDF=90400 MemberID=3 </weight>
<weight id="1722" MUR="1.0" MUF="1.0" PDF="90404" > PDF=90400 MemberID=4 </weight>
<weight id="1723" MUR="1.0" MUF="1.0" PDF="90405" > PDF=90400 MemberID=5 </weight>
<weight id="1724" MUR="1.0" MUF="1.0" PDF="90406" > PDF=90400 MemberID=6 </weight>
<weight id="1725" MUR="1.0" MUF="1.0" PDF="90407" > PDF=90400 MemberID=7 </weight>
<weight id="1726" MUR="1.0" MUF="1.0" PDF="90408" > PDF=90400 MemberID=8 </weight>
<weight id="1727" MUR="1.0" MUF="1.0" PDF="90409" > PDF=90400 MemberID=9 </weight>
<weight id="1728" MUR="1.0" MUF="1.0" PDF="90410" > PDF=90400 MemberID=10 </weight>
<weight id="1729" MUR="1.0" MUF="1.0" PDF="90411" > PDF=90400 MemberID=11 </weight>
<weight id="1730" MUR="1.0" MUF="1.0" PDF="90412" > PDF=90400 MemberID=12 </weight>
<weight id="1731" MUR="1.0" MUF="1.0" PDF="90413" > PDF=90400 MemberID=13 </weight>
<weight id="1732" MUR="1.0" MUF="1.0" PDF="90414" > PDF=90400 MemberID=14 </weight>
<weight id="1733" MUR="1.0" MUF="1.0" PDF="90415" > PDF=90400 MemberID=15 </weight>
<weight id="1734" MUR="1.0" MUF="1.0" PDF="90416" > PDF=90400 MemberID=16 </weight>
<weight id="1735" MUR="1.0" MUF="1.0" PDF="90417" > PDF=90400 MemberID=17 </weight>
<weight id="1736" MUR="1.0" MUF="1.0" PDF="90418" > PDF=90400 MemberID=18 </weight>
<weight id="1737" MUR="1.0" MUF="1.0" PDF="90419" > PDF=90400 MemberID=19 </weight>
<weight id="1738" MUR="1.0" MUF="1.0" PDF="90420" > PDF=90400 MemberID=20 </weight>
<weight id="1739" MUR="1.0" MUF="1.0" PDF="90421" > PDF=90400 MemberID=21 </weight>
<weight id="1740" MUR="1.0" MUF="1.0" PDF="90422" > PDF=90400 MemberID=22 </weight>
<weight id="1741" MUR="1.0" MUF="1.0" PDF="90423" > PDF=90400 MemberID=23 </weight>
<weight id="1742" MUR="1.0" MUF="1.0" PDF="90424" > PDF=90400 MemberID=24 </weight>
<weight id="1743" MUR="1.0" MUF="1.0" PDF="90425" > PDF=90400 MemberID=25 </weight>
<weight id="1744" MUR="1.0" MUF="1.0" PDF="90426" > PDF=90400 MemberID=26 </weight>
<weight id="1745" MUR="1.0" MUF="1.0" PDF="90427" > PDF=90400 MemberID=27 </weight>
<weight id="1746" MUR="1.0" MUF="1.0" PDF="90428" > PDF=90400 MemberID=28 </weight>
<weight id="1747" MUR="1.0" MUF="1.0" PDF="90429" > PDF=90400 MemberID=29 </weight>
<weight id="1748" MUR="1.0" MUF="1.0" PDF="90430" > PDF=90400 MemberID=30 </weight>
<weight id="1749" MUR="1.0" MUF="1.0" PDF="90431" > PDF=90400 MemberID=31 </weight>
<weight id="1750" MUR="1.0" MUF="1.0" PDF="90432" > PDF=90400 MemberID=32 </weight>
</weightgroup> # PDFSET -> PDFSET
<weightgroup name="PDF4LHC15_nnlo_30_pdfas" combine="symmhessian+as"> # 91400: PDF4LHC15_nnlo_30_pdfas. mem=0 ; alphas(MZ)=0.118 central value; mem=1-30 ; PDF symmetric eigenvectors; mem=31 ; alphas(MZ)=0.1165 central value; mem=32 ; alphas(MZ)=0.1195
<weight id="1751" MUR="1.0" MUF="1.0" PDF="91400" > PDF=91400 MemberID=0 </weight>
<weight id="1752" MUR="1.0" MUF="1.0" PDF="91401" > PDF=91400 MemberID=1 </weight>
<weight id="1753" MUR="1.0" MUF="1.0" PDF="91402" > PDF=91400 MemberID=2 </weight>
<weight id="1754" MUR="1.0" MUF="1.0" PDF="91403" > PDF=91400 MemberID=3 </weight>
<weight id="1755" MUR="1.0" MUF="1.0" PDF="91404" > PDF=91400 MemberID=4 </weight>
<weight id="1756" MUR="1.0" MUF="1.0" PDF="91405" > PDF=91400 MemberID=5 </weight>
<weight id="1757" MUR="1.0" MUF="1.0" PDF="91406" > PDF=91400 MemberID=6 </weight>
<weight id="1758" MUR="1.0" MUF="1.0" PDF="91407" > PDF=91400 MemberID=7 </weight>
<weight id="1759" MUR="1.0" MUF="1.0" PDF="91408" > PDF=91400 MemberID=8 </weight>
<weight id="1760" MUR="1.0" MUF="1.0" PDF="91409" > PDF=91400 MemberID=9 </weight>
<weight id="1761" MUR="1.0" MUF="1.0" PDF="91410" > PDF=91400 MemberID=10 </weight>
<weight id="1762" MUR="1.0" MUF="1.0" PDF="91411" > PDF=91400 MemberID=11 </weight>
<weight id="1763" MUR="1.0" MUF="1.0" PDF="91412" > PDF=91400 MemberID=12 </weight>
<weight id="1764" MUR="1.0" MUF="1.0" PDF="91413" > PDF=91400 MemberID=13 </weight>
<weight id="1765" MUR="1.0" MUF="1.0" PDF="91414" > PDF=91400 MemberID=14 </weight>
<weight id="1766" MUR="1.0" MUF="1.0" PDF="91415" > PDF=91400 MemberID=15 </weight>
<weight id="1767" MUR="1.0" MUF="1.0" PDF="91416" > PDF=91400 MemberID=16 </weight>
<weight id="1768" MUR="1.0" MUF="1.0" PDF="91417" > PDF=91400 MemberID=17 </weight>
<weight id="1769" MUR="1.0" MUF="1.0" PDF="91418" > PDF=91400 MemberID=18 </weight>
<weight id="1770" MUR="1.0" MUF="1.0" PDF="91419" > PDF=91400 MemberID=19 </weight>
<weight id="1771" MUR="1.0" MUF="1.0" PDF="91420" > PDF=91400 MemberID=20 </weight>
<weight id="1772" MUR="1.0" MUF="1.0" PDF="91421" > PDF=91400 MemberID=21 </weight>
<weight id="1773" MUR="1.0" MUF="1.0" PDF="91422" > PDF=91400 MemberID=22 </weight>
<weight id="1774" MUR="1.0" MUF="1.0" PDF="91423" > PDF=91400 MemberID=23 </weight>
<weight id="1775" MUR="1.0" MUF="1.0" PDF="91424" > PDF=91400 MemberID=24 </weight>
<weight id="1776" MUR="1.0" MUF="1.0" PDF="91425" > PDF=91400 MemberID=25 </weight>
<weight id="1777" MUR="1.0" MUF="1.0" PDF="91426" > PDF=91400 MemberID=26 </weight>
<weight id="1778" MUR="1.0" MUF="1.0" PDF="91427" > PDF=91400 MemberID=27 </weight>
<weight id="1779" MUR="1.0" MUF="1.0" PDF="91428" > PDF=91400 MemberID=28 </weight>
<weight id="1780" MUR="1.0" MUF="1.0" PDF="91429" > PDF=91400 MemberID=29 </weight>
<weight id="1781" MUR="1.0" MUF="1.0" PDF="91430" > PDF=91400 MemberID=30 </weight>
<weight id="1782" MUR="1.0" MUF="1.0" PDF="91431" > PDF=91400 MemberID=31 </weight>
<weight id="1783" MUR="1.0" MUF="1.0" PDF="91432" > PDF=91400 MemberID=32 </weight>
</weightgroup> # PDFSET -> PDFSET
<weightgroup name="HERAPDF20_NLO_EIG" combine="hessian"> # 61100: HERAPDF20 NLO (Q2min=3.5) fit and experimental uncertainty variations. The 28 error PDFs should be treated two by two as the up and down excursions along 14 eigenvectors, such that the symmetric error is calculated as the quadrature sum of [Sum i=1,14 of (var i+1 - var i)/2 ], or if asymmetric errors are desired according to Eqn 43 of Campbell, Huston and Stirling hep-ph/0611148. mem=0 ; central; mem=1-28 ; error eigenvectors.
<weight id="1784" MUR="1.0" MUF="1.0" PDF="61100" > PDF=61100 MemberID=0 </weight>
<weight id="1785" MUR="1.0" MUF="1.0" PDF="61101" > PDF=61100 MemberID=1 </weight>
<weight id="1786" MUR="1.0" MUF="1.0" PDF="61102" > PDF=61100 MemberID=2 </weight>
<weight id="1787" MUR="1.0" MUF="1.0" PDF="61103" > PDF=61100 MemberID=3 </weight>
<weight id="1788" MUR="1.0" MUF="1.0" PDF="61104" > PDF=61100 MemberID=4 </weight>
<weight id="1789" MUR="1.0" MUF="1.0" PDF="61105" > PDF=61100 MemberID=5 </weight>
<weight id="1790" MUR="1.0" MUF="1.0" PDF="61106" > PDF=61100 MemberID=6 </weight>
<weight id="1791" MUR="1.0" MUF="1.0" PDF="61107" > PDF=61100 MemberID=7 </weight>
<weight id="1792" MUR="1.0" MUF="1.0" PDF="61108" > PDF=61100 MemberID=8 </weight>
<weight id="1793" MUR="1.0" MUF="1.0" PDF="61109" > PDF=61100 MemberID=9 </weight>
<weight id="1794" MUR="1.0" MUF="1.0" PDF="61110" > PDF=61100 MemberID=10 </weight>
<weight id="1795" MUR="1.0" MUF="1.0" PDF="61111" > PDF=61100 MemberID=11 </weight>
<weight id="1796" MUR="1.0" MUF="1.0" PDF="61112" > PDF=61100 MemberID=12 </weight>
<weight id="1797" MUR="1.0" MUF="1.0" PDF="61113" > PDF=61100 MemberID=13 </weight>
<weight id="1798" MUR="1.0" MUF="1.0" PDF="61114" > PDF=61100 MemberID=14 </weight>
<weight id="1799" MUR="1.0" MUF="1.0" PDF="61115" > PDF=61100 MemberID=15 </weight>
<weight id="1800" MUR="1.0" MUF="1.0" PDF="61116" > PDF=61100 MemberID=16 </weight>
<weight id="1801" MUR="1.0" MUF="1.0" PDF="61117" > PDF=61100 MemberID=17 </weight>
<weight id="1802" MUR="1.0" MUF="1.0" PDF="61118" > PDF=61100 MemberID=18 </weight>
<weight id="1803" MUR="1.0" MUF="1.0" PDF="61119" > PDF=61100 MemberID=19 </weight>
<weight id="1804" MUR="1.0" MUF="1.0" PDF="61120" > PDF=61100 MemberID=20 </weight>
<weight id="1805" MUR="1.0" MUF="1.0" PDF="61121" > PDF=61100 MemberID=21 </weight>
<weight id="1806" MUR="1.0" MUF="1.0" PDF="61122" > PDF=61100 MemberID=22 </weight>
<weight id="1807" MUR="1.0" MUF="1.0" PDF="61123" > PDF=61100 MemberID=23 </weight>
<weight id="1808" MUR="1.0" MUF="1.0" PDF="61124" > PDF=61100 MemberID=24 </weight>
<weight id="1809" MUR="1.0" MUF="1.0" PDF="61125" > PDF=61100 MemberID=25 </weight>
<weight id="1810" MUR="1.0" MUF="1.0" PDF="61126" > PDF=61100 MemberID=26 </weight>
<weight id="1811" MUR="1.0" MUF="1.0" PDF="61127" > PDF=61100 MemberID=27 </weight>
<weight id="1812" MUR="1.0" MUF="1.0" PDF="61128" > PDF=61100 MemberID=28 </weight>
</weightgroup> # PDFSET -> PDFSET
<weightgroup name="HERAPDF20_NLO_VAR" combine="custom"> # 61130: HERAPDF20 NLO variations of fit parameters. Member 0 is the central fit. The 1-10 variations are considered as model errors and should be treated one by one, by taking the difference between the variation and the central value, and then adding in quadrature all positive (negative) differences to obtain the positive (negative) model error. Variations 11 to 13 are the maximal parametrisation variations; the largest positive (negative) difference between the variation and the central value is taken as the positive (negative) parametrisation error and added in quadrature to the model errors to form the parametrisation envelope. mem=0 ; central (fs=0.4,mb=4.5,mc=1.47,q20=1.9,q2min=3.5,a_s(MZ)=0.118); mem=1 ; fs=0.3;                mem=2 ; fs=0.5; mem=3 ; fs=hermesfs-03;        mem=4 ; fs=hermesfs-05 mem=5 ; q2cut=2.5;             mem=6 ; q2cut=5.; mem=7 ; mb=4.25;               mem=8 ; mb=4.75; mem=9 ; mc=1.41;               mem=10 ; mc=1.53; mem=11 ; par2(Q0 1.6, mc1.47); mem=12 ; par3 (Q0 2.2, mc1.53); mem=13 ; par4(Duv);
<weight id="1813" MUR="1.0" MUF="1.0" PDF="61130" > PDF=61130 MemberID=0 </weight>
<weight id="1814" MUR="1.0" MUF="1.0" PDF="61131" > PDF=61130 MemberID=1 </weight>
<weight id="1815" MUR="1.0" MUF="1.0" PDF="61132" > PDF=61130 MemberID=2 </weight>
<weight id="1816" MUR="1.0" MUF="1.0" PDF="61133" > PDF=61130 MemberID=3 </weight>
<weight id="1817" MUR="1.0" MUF="1.0" PDF="61134" > PDF=61130 MemberID=4 </weight>
<weight id="1818" MUR="1.0" MUF="1.0" PDF="61135" > PDF=61130 MemberID=5 </weight>
<weight id="1819" MUR="1.0" MUF="1.0" PDF="61136" > PDF=61130 MemberID=6 </weight>
<weight id="1820" MUR="1.0" MUF="1.0" PDF="61137" > PDF=61130 MemberID=7 </weight>
<weight id="1821" MUR="1.0" MUF="1.0" PDF="61138" > PDF=61130 MemberID=8 </weight>
<weight id="1822" MUR="1.0" MUF="1.0" PDF="61139" > PDF=61130 MemberID=9 </weight>
<weight id="1823" MUR="1.0" MUF="1.0" PDF="61140" > PDF=61130 MemberID=10 </weight>
<weight id="1824" MUR="1.0" MUF="1.0" PDF="61141" > PDF=61130 MemberID=11 </weight>
<weight id="1825" MUR="1.0" MUF="1.0" PDF="61142" > PDF=61130 MemberID=12 </weight>
<weight id="1826" MUR="1.0" MUF="1.0" PDF="61143" > PDF=61130 MemberID=13 </weight>
</weightgroup> # PDFSET -> PDFSET
<weightgroup name="HERAPDF20_NNLO_EIG" combine="hessian"> # 61200: HERAPDF20 NNLO (Q2min=3.5) fit and experimental uncertainty variations. The 28 error PDFs should be treated two by two as the up and down excursions along 14 eigenvectors, such that the symmetric error is calculated as the quadrature sum of [Sum i=1,14 of (var i+1 - var i)/2 ], or if asymmetric errors are desired according to Eqn 43 of Campbell, Huston and Stirling hep-ph/0611148. mem=0 ; central; mem=1-28 ; error eigenvectors.
<weight id="1827" MUR="1.0" MUF="1.0" PDF="61200" > PDF=61200 MemberID=0 </weight>
<weight id="1828" MUR="1.0" MUF="1.0" PDF="61201" > PDF=61200 MemberID=1 </weight>
<weight id="1829" MUR="1.0" MUF="1.0" PDF="61202" > PDF=61200 MemberID=2 </weight>
<weight id="1830" MUR="1.0" MUF="1.0" PDF="61203" > PDF=61200 MemberID=3 </weight>
<weight id="1831" MUR="1.0" MUF="1.0" PDF="61204" > PDF=61200 MemberID=4 </weight>
<weight id="1832" MUR="1.0" MUF="1.0" PDF="61205" > PDF=61200 MemberID=5 </weight>
<weight id="1833" MUR="1.0" MUF="1.0" PDF="61206" > PDF=61200 MemberID=6 </weight>
<weight id="1834" MUR="1.0" MUF="1.0" PDF="61207" > PDF=61200 MemberID=7 </weight>
<weight id="1835" MUR="1.0" MUF="1.0" PDF="61208" > PDF=61200 MemberID=8 </weight>
<weight id="1836" MUR="1.0" MUF="1.0" PDF="61209" > PDF=61200 MemberID=9 </weight>
<weight id="1837" MUR="1.0" MUF="1.0" PDF="61210" > PDF=61200 MemberID=10 </weight>
<weight id="1838" MUR="1.0" MUF="1.0" PDF="61211" > PDF=61200 MemberID=11 </weight>
<weight id="1839" MUR="1.0" MUF="1.0" PDF="61212" > PDF=61200 MemberID=12 </weight>
<weight id="1840" MUR="1.0" MUF="1.0" PDF="61213" > PDF=61200 MemberID=13 </weight>
<weight id="1841" MUR="1.0" MUF="1.0" PDF="61214" > PDF=61200 MemberID=14 </weight>
<weight id="1842" MUR="1.0" MUF="1.0" PDF="61215" > PDF=61200 MemberID=15 </weight>
<weight id="1843" MUR="1.0" MUF="1.0" PDF="61216" > PDF=61200 MemberID=16 </weight>
<weight id="1844" MUR="1.0" MUF="1.0" PDF="61217" > PDF=61200 MemberID=17 </weight>
<weight id="1845" MUR="1.0" MUF="1.0" PDF="61218" > PDF=61200 MemberID=18 </weight>
<weight id="1846" MUR="1.0" MUF="1.0" PDF="61219" > PDF=61200 MemberID=19 </weight>
<weight id="1847" MUR="1.0" MUF="1.0" PDF="61220" > PDF=61200 MemberID=20 </weight>
<weight id="1848" MUR="1.0" MUF="1.0" PDF="61221" > PDF=61200 MemberID=21 </weight>
<weight id="1849" MUR="1.0" MUF="1.0" PDF="61222" > PDF=61200 MemberID=22 </weight>
<weight id="1850" MUR="1.0" MUF="1.0" PDF="61223" > PDF=61200 MemberID=23 </weight>
<weight id="1851" MUR="1.0" MUF="1.0" PDF="61224" > PDF=61200 MemberID=24 </weight>
<weight id="1852" MUR="1.0" MUF="1.0" PDF="61225" > PDF=61200 MemberID=25 </weight>
<weight id="1853" MUR="1.0" MUF="1.0" PDF="61226" > PDF=61200 MemberID=26 </weight>
<weight id="1854" MUR="1.0" MUF="1.0" PDF="61227" > PDF=61200 MemberID=27 </weight>
<weight id="1855" MUR="1.0" MUF="1.0" PDF="61228" > PDF=61200 MemberID=28 </weight>
</weightgroup> # PDFSET -> PDFSET
<weightgroup name="HERAPDF20_NNLO_VAR" combine="custom"> # 61230: HERAPDF20 NNLO variations of fit parameters. Member 0 is the central fit. The 1-10 variations are considered as model errors and should be treated one by one, by taking the difference between the variation and the central value, and then adding in quadrature all positive (negative) differences to obtain the positive (negative) model error. Variations 11 to 13 are the maximal parametrisation variations; the largest positive (negative) difference between the variation and the central value is taken as the positive (negative) parametrisation error and added in quadrature to the model errors to form the parametrisation envelope. mem=0 ; central (fs=0.4,mb=4.5,mc=1.43,q20=1.9,q2min=3.5,a_s(MZ)=0.118); mem=1 ; fs=0.3;                mem=2 ; fs=0.5; mem=3 ; fs=hermesfs-03;        mem=4 ; fs=hermesfs-05 mem=5 ; q2cut=2.5;             mem=6 ; q2cut=5.; mem=7 ; mb=4.25;               mem=8 ; mb=4.75; mem=9 ; mc=1.37;               mem=10 ; mc=1.49; mem=11 ; par2(Q0 1.6, mc1.43); mem=12 ; par3 (Q0 2.2, mc1.49); mem=13 ; par4(Duv);
<weight id="1856" MUR="1.0" MUF="1.0" PDF="61230" > PDF=61230 MemberID=0 </weight>
<weight id="1857" MUR="1.0" MUF="1.0" PDF="61231" > PDF=61230 MemberID=1 </weight>
<weight id="1858" MUR="1.0" MUF="1.0" PDF="61232" > PDF=61230 MemberID=2 </weight>
<weight id="1859" MUR="1.0" MUF="1.0" PDF="61233" > PDF=61230 MemberID=3 </weight>
<weight id="1860" MUR="1.0" MUF="1.0" PDF="61234" > PDF=61230 MemberID=4 </weight>
<weight id="1861" MUR="1.0" MUF="1.0" PDF="61235" > PDF=61230 MemberID=5 </weight>
<weight id="1862" MUR="1.0" MUF="1.0" PDF="61236" > PDF=61230 MemberID=6 </weight>
<weight id="1863" MUR="1.0" MUF="1.0" PDF="61237" > PDF=61230 MemberID=7 </weight>
<weight id="1864" MUR="1.0" MUF="1.0" PDF="61238" > PDF=61230 MemberID=8 </weight>
<weight id="1865" MUR="1.0" MUF="1.0" PDF="61239" > PDF=61230 MemberID=9 </weight>
<weight id="1866" MUR="1.0" MUF="1.0" PDF="61240" > PDF=61230 MemberID=10 </weight>
<weight id="1867" MUR="1.0" MUF="1.0" PDF="61241" > PDF=61230 MemberID=11 </weight>
<weight id="1868" MUR="1.0" MUF="1.0" PDF="61242" > PDF=61230 MemberID=12 </weight>
<weight id="1869" MUR="1.0" MUF="1.0" PDF="61243" > PDF=61230 MemberID=13 </weight>
</weightgroup> # PDFSET -> PDFSET
<weightgroup name="CT14qed_inc_proton" combine="unknown"> # 13400: CT14qed_inc, NLO QCD + LO QED (inclusive photon) sets for the proton, based on CT14nlo with the initial photon PDF defined by the sum of the inelastic photon PDF and the elastic photon PDF, obtained from the equivalent photon approximation, at the initial scale Q0. The initial inelastic photon PDF is defined by the radiative ansatz and parametrized by its initial inelastic momentum fraction. (m=0 ; p=0.00%, mem=1 ; p=0.01%, mem=2 ; p=0.02%, etc., up to mem=30 ; p=0.30%). A limit of p=0.14% was found at the 90% CL in the Reference
<weight id="1870" MUR="1.0" MUF="1.0" PDF="13400" > PDF=13400 MemberID=0 </weight>
<weight id="1871" MUR="1.0" MUF="1.0" PDF="13401" > PDF=13400 MemberID=1 </weight>
<weight id="1872" MUR="1.0" MUF="1.0" PDF="13402" > PDF=13400 MemberID=2 </weight>
<weight id="1873" MUR="1.0" MUF="1.0" PDF="13403" > PDF=13400 MemberID=3 </weight>
<weight id="1874" MUR="1.0" MUF="1.0" PDF="13404" > PDF=13400 MemberID=4 </weight>
<weight id="1875" MUR="1.0" MUF="1.0" PDF="13405" > PDF=13400 MemberID=5 </weight>
<weight id="1876" MUR="1.0" MUF="1.0" PDF="13406" > PDF=13400 MemberID=6 </weight>
<weight id="1877" MUR="1.0" MUF="1.0" PDF="13407" > PDF=13400 MemberID=7 </weight>
<weight id="1878" MUR="1.0" MUF="1.0" PDF="13408" > PDF=13400 MemberID=8 </weight>
<weight id="1879" MUR="1.0" MUF="1.0" PDF="13409" > PDF=13400 MemberID=9 </weight>
<weight id="1880" MUR="1.0" MUF="1.0" PDF="13410" > PDF=13400 MemberID=10 </weight>
<weight id="1881" MUR="1.0" MUF="1.0" PDF="13411" > PDF=13400 MemberID=11 </weight>
<weight id="1882" MUR="1.0" MUF="1.0" PDF="13412" > PDF=13400 MemberID=12 </weight>
<weight id="1883" MUR="1.0" MUF="1.0" PDF="13413" > PDF=13400 MemberID=13 </weight>
<weight id="1884" MUR="1.0" MUF="1.0" PDF="13414" > PDF=13400 MemberID=14 </weight>
<weight id="1885" MUR="1.0" MUF="1.0" PDF="13415" > PDF=13400 MemberID=15 </weight>
<weight id="1886" MUR="1.0" MUF="1.0" PDF="13416" > PDF=13400 MemberID=16 </weight>
<weight id="1887" MUR="1.0" MUF="1.0" PDF="13417" > PDF=13400 MemberID=17 </weight>
<weight id="1888" MUR="1.0" MUF="1.0" PDF="13418" > PDF=13400 MemberID=18 </weight>
<weight id="1889" MUR="1.0" MUF="1.0" PDF="13419" > PDF=13400 MemberID=19 </weight>
<weight id="1890" MUR="1.0" MUF="1.0" PDF="13420" > PDF=13400 MemberID=20 </weight>
<weight id="1891" MUR="1.0" MUF="1.0" PDF="13421" > PDF=13400 MemberID=21 </weight>
<weight id="1892" MUR="1.0" MUF="1.0" PDF="13422" > PDF=13400 MemberID=22 </weight>
<weight id="1893" MUR="1.0" MUF="1.0" PDF="13423" > PDF=13400 MemberID=23 </weight>
<weight id="1894" MUR="1.0" MUF="1.0" PDF="13424" > PDF=13400 MemberID=24 </weight>
<weight id="1895" MUR="1.0" MUF="1.0" PDF="13425" > PDF=13400 MemberID=25 </weight>
<weight id="1896" MUR="1.0" MUF="1.0" PDF="13426" > PDF=13400 MemberID=26 </weight>
<weight id="1897" MUR="1.0" MUF="1.0" PDF="13427" > PDF=13400 MemberID=27 </weight>
<weight id="1898" MUR="1.0" MUF="1.0" PDF="13428" > PDF=13400 MemberID=28 </weight>
<weight id="1899" MUR="1.0" MUF="1.0" PDF="13429" > PDF=13400 MemberID=29 </weight>
<weight id="1900" MUR="1.0" MUF="1.0" PDF="13430" > PDF=13400 MemberID=30 </weight>
</weightgroup> # PDFSET -> PDFSET
<weightgroup name="LUXqed17_plus_PDF4LHC15_nnlo_100" combine="symmhessian"> # 82200: LUXqed17_plus_PDF4LHC15_nnlo_100: this set combines QCD partons from PDF4LHC15_nnlo_100 with the LUXqed photon determination.
PDF4LHC15_nnlo_100 description:
  PDF4LHC15_nnlo_100. mem=0 ; alphas(MZ)=0.118 central value; mem=1-100
  ; PDF symmetric eigenvectors
LUXqed description:
  Determination of the low Q^2 photon component from A1, CLAS and Hermes GD11-P
  fits. High-Q^2 part from the input QCD PDF with standard coefficient functions.
  Photon generated at scale 100.0 GeV, other partons matched at scale
  10.0 GeV, photon momentum absorbed by adjusting g(x) -.gt. g(x) -
  0.00699 * x^{0.000} g(x) at scale 10.0 GeV
Members:
  0 is central
  1-100 map to original PDF members
  101 replacement of CLAS resonance fit with Christy-Bosted fit
  102 rescale-R-0.5
  103 rescale R in high-Q^2 region with a higher-twist component
  104 use the A1 elastic fit result without the two-photon exchange corrections
  105 use the lower edge of the elastic fit error band
  106 lower the transition from Hermes GD11-P to the PDF-based F2,FL determinations to 5 GeV^2
  107 extremum of absolute variation obtained by adding the NNLO QCD contribution for each of three scale choices (mu_M/mu = 0.5, 1.0, 2.0)
Versioning info:
  DataVersion, below, is (10000 * PDF4LHC15_nnlo_100.DataVersion + 1 * LUXqed_version)
LUXqed version history for this PDF:
  This version corresponds to the long LUXqed17 paper.
<weight id="1901" MUR="1.0" MUF="1.0" PDF="82200" > PDF=82200 MemberID=0 </weight>
<weight id="1902" MUR="1.0" MUF="1.0" PDF="82201" > PDF=82200 MemberID=1 </weight>
<weight id="1903" MUR="1.0" MUF="1.0" PDF="82202" > PDF=82200 MemberID=2 </weight>
<weight id="1904" MUR="1.0" MUF="1.0" PDF="82203" > PDF=82200 MemberID=3 </weight>
<weight id="1905" MUR="1.0" MUF="1.0" PDF="82204" > PDF=82200 MemberID=4 </weight>
<weight id="1906" MUR="1.0" MUF="1.0" PDF="82205" > PDF=82200 MemberID=5 </weight>
<weight id="1907" MUR="1.0" MUF="1.0" PDF="82206" > PDF=82200 MemberID=6 </weight>
<weight id="1908" MUR="1.0" MUF="1.0" PDF="82207" > PDF=82200 MemberID=7 </weight>
<weight id="1909" MUR="1.0" MUF="1.0" PDF="82208" > PDF=82200 MemberID=8 </weight>
<weight id="1910" MUR="1.0" MUF="1.0" PDF="82209" > PDF=82200 MemberID=9 </weight>
<weight id="1911" MUR="1.0" MUF="1.0" PDF="82210" > PDF=82200 MemberID=10 </weight>
<weight id="1912" MUR="1.0" MUF="1.0" PDF="82211" > PDF=82200 MemberID=11 </weight>
<weight id="1913" MUR="1.0" MUF="1.0" PDF="82212" > PDF=82200 MemberID=12 </weight>
<weight id="1914" MUR="1.0" MUF="1.0" PDF="82213" > PDF=82200 MemberID=13 </weight>
<weight id="1915" MUR="1.0" MUF="1.0" PDF="82214" > PDF=82200 MemberID=14 </weight>
<weight id="1916" MUR="1.0" MUF="1.0" PDF="82215" > PDF=82200 MemberID=15 </weight>
<weight id="1917" MUR="1.0" MUF="1.0" PDF="82216" > PDF=82200 MemberID=16 </weight>
<weight id="1918" MUR="1.0" MUF="1.0" PDF="82217" > PDF=82200 MemberID=17 </weight>
<weight id="1919" MUR="1.0" MUF="1.0" PDF="82218" > PDF=82200 MemberID=18 </weight>
<weight id="1920" MUR="1.0" MUF="1.0" PDF="82219" > PDF=82200 MemberID=19 </weight>
<weight id="1921" MUR="1.0" MUF="1.0" PDF="82220" > PDF=82200 MemberID=20 </weight>
<weight id="1922" MUR="1.0" MUF="1.0" PDF="82221" > PDF=82200 MemberID=21 </weight>
<weight id="1923" MUR="1.0" MUF="1.0" PDF="82222" > PDF=82200 MemberID=22 </weight>
<weight id="1924" MUR="1.0" MUF="1.0" PDF="82223" > PDF=82200 MemberID=23 </weight>
<weight id="1925" MUR="1.0" MUF="1.0" PDF="82224" > PDF=82200 MemberID=24 </weight>
<weight id="1926" MUR="1.0" MUF="1.0" PDF="82225" > PDF=82200 MemberID=25 </weight>
<weight id="1927" MUR="1.0" MUF="1.0" PDF="82226" > PDF=82200 MemberID=26 </weight>
<weight id="1928" MUR="1.0" MUF="1.0" PDF="82227" > PDF=82200 MemberID=27 </weight>
<weight id="1929" MUR="1.0" MUF="1.0" PDF="82228" > PDF=82200 MemberID=28 </weight>
<weight id="1930" MUR="1.0" MUF="1.0" PDF="82229" > PDF=82200 MemberID=29 </weight>
<weight id="1931" MUR="1.0" MUF="1.0" PDF="82230" > PDF=82200 MemberID=30 </weight>
<weight id="1932" MUR="1.0" MUF="1.0" PDF="82231" > PDF=82200 MemberID=31 </weight>
<weight id="1933" MUR="1.0" MUF="1.0" PDF="82232" > PDF=82200 MemberID=32 </weight>
<weight id="1934" MUR="1.0" MUF="1.0" PDF="82233" > PDF=82200 MemberID=33 </weight>
<weight id="1935" MUR="1.0" MUF="1.0" PDF="82234" > PDF=82200 MemberID=34 </weight>
<weight id="1936" MUR="1.0" MUF="1.0" PDF="82235" > PDF=82200 MemberID=35 </weight>
<weight id="1937" MUR="1.0" MUF="1.0" PDF="82236" > PDF=82200 MemberID=36 </weight>
<weight id="1938" MUR="1.0" MUF="1.0" PDF="82237" > PDF=82200 MemberID=37 </weight>
<weight id="1939" MUR="1.0" MUF="1.0" PDF="82238" > PDF=82200 MemberID=38 </weight>
<weight id="1940" MUR="1.0" MUF="1.0" PDF="82239" > PDF=82200 MemberID=39 </weight>
<weight id="1941" MUR="1.0" MUF="1.0" PDF="82240" > PDF=82200 MemberID=40 </weight>
<weight id="1942" MUR="1.0" MUF="1.0" PDF="82241" > PDF=82200 MemberID=41 </weight>
<weight id="1943" MUR="1.0" MUF="1.0" PDF="82242" > PDF=82200 MemberID=42 </weight>
<weight id="1944" MUR="1.0" MUF="1.0" PDF="82243" > PDF=82200 MemberID=43 </weight>
<weight id="1945" MUR="1.0" MUF="1.0" PDF="82244" > PDF=82200 MemberID=44 </weight>
<weight id="1946" MUR="1.0" MUF="1.0" PDF="82245" > PDF=82200 MemberID=45 </weight>
<weight id="1947" MUR="1.0" MUF="1.0" PDF="82246" > PDF=82200 MemberID=46 </weight>
<weight id="1948" MUR="1.0" MUF="1.0" PDF="82247" > PDF=82200 MemberID=47 </weight>
<weight id="1949" MUR="1.0" MUF="1.0" PDF="82248" > PDF=82200 MemberID=48 </weight>
<weight id="1950" MUR="1.0" MUF="1.0" PDF="82249" > PDF=82200 MemberID=49 </weight>
<weight id="1951" MUR="1.0" MUF="1.0" PDF="82250" > PDF=82200 MemberID=50 </weight>
<weight id="1952" MUR="1.0" MUF="1.0" PDF="82251" > PDF=82200 MemberID=51 </weight>
<weight id="1953" MUR="1.0" MUF="1.0" PDF="82252" > PDF=82200 MemberID=52 </weight>
<weight id="1954" MUR="1.0" MUF="1.0" PDF="82253" > PDF=82200 MemberID=53 </weight>
<weight id="1955" MUR="1.0" MUF="1.0" PDF="82254" > PDF=82200 MemberID=54 </weight>
<weight id="1956" MUR="1.0" MUF="1.0" PDF="82255" > PDF=82200 MemberID=55 </weight>
<weight id="1957" MUR="1.0" MUF="1.0" PDF="82256" > PDF=82200 MemberID=56 </weight>
<weight id="1958" MUR="1.0" MUF="1.0" PDF="82257" > PDF=82200 MemberID=57 </weight>
<weight id="1959" MUR="1.0" MUF="1.0" PDF="82258" > PDF=82200 MemberID=58 </weight>
<weight id="1960" MUR="1.0" MUF="1.0" PDF="82259" > PDF=82200 MemberID=59 </weight>
<weight id="1961" MUR="1.0" MUF="1.0" PDF="82260" > PDF=82200 MemberID=60 </weight>
<weight id="1962" MUR="1.0" MUF="1.0" PDF="82261" > PDF=82200 MemberID=61 </weight>
<weight id="1963" MUR="1.0" MUF="1.0" PDF="82262" > PDF=82200 MemberID=62 </weight>
<weight id="1964" MUR="1.0" MUF="1.0" PDF="82263" > PDF=82200 MemberID=63 </weight>
<weight id="1965" MUR="1.0" MUF="1.0" PDF="82264" > PDF=82200 MemberID=64 </weight>
<weight id="1966" MUR="1.0" MUF="1.0" PDF="82265" > PDF=82200 MemberID=65 </weight>
<weight id="1967" MUR="1.0" MUF="1.0" PDF="82266" > PDF=82200 MemberID=66 </weight>
<weight id="1968" MUR="1.0" MUF="1.0" PDF="82267" > PDF=82200 MemberID=67 </weight>
<weight id="1969" MUR="1.0" MUF="1.0" PDF="82268" > PDF=82200 MemberID=68 </weight>
<weight id="1970" MUR="1.0" MUF="1.0" PDF="82269" > PDF=82200 MemberID=69 </weight>
<weight id="1971" MUR="1.0" MUF="1.0" PDF="82270" > PDF=82200 MemberID=70 </weight>
<weight id="1972" MUR="1.0" MUF="1.0" PDF="82271" > PDF=82200 MemberID=71 </weight>
<weight id="1973" MUR="1.0" MUF="1.0" PDF="82272" > PDF=82200 MemberID=72 </weight>
<weight id="1974" MUR="1.0" MUF="1.0" PDF="82273" > PDF=82200 MemberID=73 </weight>
<weight id="1975" MUR="1.0" MUF="1.0" PDF="82274" > PDF=82200 MemberID=74 </weight>
<weight id="1976" MUR="1.0" MUF="1.0" PDF="82275" > PDF=82200 MemberID=75 </weight>
<weight id="1977" MUR="1.0" MUF="1.0" PDF="82276" > PDF=82200 MemberID=76 </weight>
<weight id="1978" MUR="1.0" MUF="1.0" PDF="82277" > PDF=82200 MemberID=77 </weight>
<weight id="1979" MUR="1.0" MUF="1.0" PDF="82278" > PDF=82200 MemberID=78 </weight>
<weight id="1980" MUR="1.0" MUF="1.0" PDF="82279" > PDF=82200 MemberID=79 </weight>
<weight id="1981" MUR="1.0" MUF="1.0" PDF="82280" > PDF=82200 MemberID=80 </weight>
<weight id="1982" MUR="1.0" MUF="1.0" PDF="82281" > PDF=82200 MemberID=81 </weight>
<weight id="1983" MUR="1.0" MUF="1.0" PDF="82282" > PDF=82200 MemberID=82 </weight>
<weight id="1984" MUR="1.0" MUF="1.0" PDF="82283" > PDF=82200 MemberID=83 </weight>
<weight id="1985" MUR="1.0" MUF="1.0" PDF="82284" > PDF=82200 MemberID=84 </weight>
<weight id="1986" MUR="1.0" MUF="1.0" PDF="82285" > PDF=82200 MemberID=85 </weight>
<weight id="1987" MUR="1.0" MUF="1.0" PDF="82286" > PDF=82200 MemberID=86 </weight>
<weight id="1988" MUR="1.0" MUF="1.0" PDF="82287" > PDF=82200 MemberID=87 </weight>
<weight id="1989" MUR="1.0" MUF="1.0" PDF="82288" > PDF=82200 MemberID=88 </weight>
<weight id="1990" MUR="1.0" MUF="1.0" PDF="82289" > PDF=82200 MemberID=89 </weight>
<weight id="1991" MUR="1.0" MUF="1.0" PDF="82290" > PDF=82200 MemberID=90 </weight>
<weight id="1992" MUR="1.0" MUF="1.0" PDF="82291" > PDF=82200 MemberID=91 </weight>
<weight id="1993" MUR="1.0" MUF="1.0" PDF="82292" > PDF=82200 MemberID=92 </weight>
<weight id="1994" MUR="1.0" MUF="1.0" PDF="82293" > PDF=82200 MemberID=93 </weight>
<weight id="1995" MUR="1.0" MUF="1.0" PDF="82294" > PDF=82200 MemberID=94 </weight>
<weight id="1996" MUR="1.0" MUF="1.0" PDF="82295" > PDF=82200 MemberID=95 </weight>
<weight id="1997" MUR="1.0" MUF="1.0" PDF="82296" > PDF=82200 MemberID=96 </weight>
<weight id="1998" MUR="1.0" MUF="1.0" PDF="82297" > PDF=82200 MemberID=97 </weight>
<weight id="1999" MUR="1.0" MUF="1.0" PDF="82298" > PDF=82200 MemberID=98 </weight>
<weight id="2000" MUR="1.0" MUF="1.0" PDF="82299" > PDF=82200 MemberID=99 </weight>
<weight id="2001" MUR="1.0" MUF="1.0" PDF="82300" > PDF=82200 MemberID=100 </weight>
<weight id="2002" MUR="1.0" MUF="1.0" PDF="82301" > PDF=82200 MemberID=101 </weight>
<weight id="2003" MUR="1.0" MUF="1.0" PDF="82302" > PDF=82200 MemberID=102 </weight>
<weight id="2004" MUR="1.0" MUF="1.0" PDF="82303" > PDF=82200 MemberID=103 </weight>
<weight id="2005" MUR="1.0" MUF="1.0" PDF="82304" > PDF=82200 MemberID=104 </weight>
<weight id="2006" MUR="1.0" MUF="1.0" PDF="82305" > PDF=82200 MemberID=105 </weight>
<weight id="2007" MUR="1.0" MUF="1.0" PDF="82306" > PDF=82200 MemberID=106 </weight>
<weight id="2008" MUR="1.0" MUF="1.0" PDF="82307" > PDF=82200 MemberID=107 </weight>
</weightgroup> # PDFSET -> PDFSET
<weightgroup name="NNPDF30_nlo_nf_5_pdfas" combine="replicas+as"> # 292200: NNPDF3.0 NLO global fit; mem=0 to mem=100 with alphas(MZ)=0.118, mem=0 ; average on replicas 1-100; mem=1-100 ; PDF replicas with  alphas(MZ)=0.118; mem=101 ; central value for alphas=0.117; mem=102 ; central value for alphas=0.119 
<weight id="2009" MUR="1.0" MUF="1.0" PDF="292200" > PDF=292200 MemberID=0 </weight>
<weight id="2010" MUR="1.0" MUF="1.0" PDF="292201" > PDF=292200 MemberID=1 </weight>
<weight id="2011" MUR="1.0" MUF="1.0" PDF="292202" > PDF=292200 MemberID=2 </weight>
<weight id="2012" MUR="1.0" MUF="1.0" PDF="292203" > PDF=292200 MemberID=3 </weight>
<weight id="2013" MUR="1.0" MUF="1.0" PDF="292204" > PDF=292200 MemberID=4 </weight>
<weight id="2014" MUR="1.0" MUF="1.0" PDF="292205" > PDF=292200 MemberID=5 </weight>
<weight id="2015" MUR="1.0" MUF="1.0" PDF="292206" > PDF=292200 MemberID=6 </weight>
<weight id="2016" MUR="1.0" MUF="1.0" PDF="292207" > PDF=292200 MemberID=7 </weight>
<weight id="2017" MUR="1.0" MUF="1.0" PDF="292208" > PDF=292200 MemberID=8 </weight>
<weight id="2018" MUR="1.0" MUF="1.0" PDF="292209" > PDF=292200 MemberID=9 </weight>
<weight id="2019" MUR="1.0" MUF="1.0" PDF="292210" > PDF=292200 MemberID=10 </weight>
<weight id="2020" MUR="1.0" MUF="1.0" PDF="292211" > PDF=292200 MemberID=11 </weight>
<weight id="2021" MUR="1.0" MUF="1.0" PDF="292212" > PDF=292200 MemberID=12 </weight>
<weight id="2022" MUR="1.0" MUF="1.0" PDF="292213" > PDF=292200 MemberID=13 </weight>
<weight id="2023" MUR="1.0" MUF="1.0" PDF="292214" > PDF=292200 MemberID=14 </weight>
<weight id="2024" MUR="1.0" MUF="1.0" PDF="292215" > PDF=292200 MemberID=15 </weight>
<weight id="2025" MUR="1.0" MUF="1.0" PDF="292216" > PDF=292200 MemberID=16 </weight>
<weight id="2026" MUR="1.0" MUF="1.0" PDF="292217" > PDF=292200 MemberID=17 </weight>
<weight id="2027" MUR="1.0" MUF="1.0" PDF="292218" > PDF=292200 MemberID=18 </weight>
<weight id="2028" MUR="1.0" MUF="1.0" PDF="292219" > PDF=292200 MemberID=19 </weight>
<weight id="2029" MUR="1.0" MUF="1.0" PDF="292220" > PDF=292200 MemberID=20 </weight>
<weight id="2030" MUR="1.0" MUF="1.0" PDF="292221" > PDF=292200 MemberID=21 </weight>
<weight id="2031" MUR="1.0" MUF="1.0" PDF="292222" > PDF=292200 MemberID=22 </weight>
<weight id="2032" MUR="1.0" MUF="1.0" PDF="292223" > PDF=292200 MemberID=23 </weight>
<weight id="2033" MUR="1.0" MUF="1.0" PDF="292224" > PDF=292200 MemberID=24 </weight>
<weight id="2034" MUR="1.0" MUF="1.0" PDF="292225" > PDF=292200 MemberID=25 </weight>
<weight id="2035" MUR="1.0" MUF="1.0" PDF="292226" > PDF=292200 MemberID=26 </weight>
<weight id="2036" MUR="1.0" MUF="1.0" PDF="292227" > PDF=292200 MemberID=27 </weight>
<weight id="2037" MUR="1.0" MUF="1.0" PDF="292228" > PDF=292200 MemberID=28 </weight>
<weight id="2038" MUR="1.0" MUF="1.0" PDF="292229" > PDF=292200 MemberID=29 </weight>
<weight id="2039" MUR="1.0" MUF="1.0" PDF="292230" > PDF=292200 MemberID=30 </weight>
<weight id="2040" MUR="1.0" MUF="1.0" PDF="292231" > PDF=292200 MemberID=31 </weight>
<weight id="2041" MUR="1.0" MUF="1.0" PDF="292232" > PDF=292200 MemberID=32 </weight>
<weight id="2042" MUR="1.0" MUF="1.0" PDF="292233" > PDF=292200 MemberID=33 </weight>
<weight id="2043" MUR="1.0" MUF="1.0" PDF="292234" > PDF=292200 MemberID=34 </weight>
<weight id="2044" MUR="1.0" MUF="1.0" PDF="292235" > PDF=292200 MemberID=35 </weight>
<weight id="2045" MUR="1.0" MUF="1.0" PDF="292236" > PDF=292200 MemberID=36 </weight>
<weight id="2046" MUR="1.0" MUF="1.0" PDF="292237" > PDF=292200 MemberID=37 </weight>
<weight id="2047" MUR="1.0" MUF="1.0" PDF="292238" > PDF=292200 MemberID=38 </weight>
<weight id="2048" MUR="1.0" MUF="1.0" PDF="292239" > PDF=292200 MemberID=39 </weight>
<weight id="2049" MUR="1.0" MUF="1.0" PDF="292240" > PDF=292200 MemberID=40 </weight>
<weight id="2050" MUR="1.0" MUF="1.0" PDF="292241" > PDF=292200 MemberID=41 </weight>
<weight id="2051" MUR="1.0" MUF="1.0" PDF="292242" > PDF=292200 MemberID=42 </weight>
<weight id="2052" MUR="1.0" MUF="1.0" PDF="292243" > PDF=292200 MemberID=43 </weight>
<weight id="2053" MUR="1.0" MUF="1.0" PDF="292244" > PDF=292200 MemberID=44 </weight>
<weight id="2054" MUR="1.0" MUF="1.0" PDF="292245" > PDF=292200 MemberID=45 </weight>
<weight id="2055" MUR="1.0" MUF="1.0" PDF="292246" > PDF=292200 MemberID=46 </weight>
<weight id="2056" MUR="1.0" MUF="1.0" PDF="292247" > PDF=292200 MemberID=47 </weight>
<weight id="2057" MUR="1.0" MUF="1.0" PDF="292248" > PDF=292200 MemberID=48 </weight>
<weight id="2058" MUR="1.0" MUF="1.0" PDF="292249" > PDF=292200 MemberID=49 </weight>
<weight id="2059" MUR="1.0" MUF="1.0" PDF="292250" > PDF=292200 MemberID=50 </weight>
<weight id="2060" MUR="1.0" MUF="1.0" PDF="292251" > PDF=292200 MemberID=51 </weight>
<weight id="2061" MUR="1.0" MUF="1.0" PDF="292252" > PDF=292200 MemberID=52 </weight>
<weight id="2062" MUR="1.0" MUF="1.0" PDF="292253" > PDF=292200 MemberID=53 </weight>
<weight id="2063" MUR="1.0" MUF="1.0" PDF="292254" > PDF=292200 MemberID=54 </weight>
<weight id="2064" MUR="1.0" MUF="1.0" PDF="292255" > PDF=292200 MemberID=55 </weight>
<weight id="2065" MUR="1.0" MUF="1.0" PDF="292256" > PDF=292200 MemberID=56 </weight>
<weight id="2066" MUR="1.0" MUF="1.0" PDF="292257" > PDF=292200 MemberID=57 </weight>
<weight id="2067" MUR="1.0" MUF="1.0" PDF="292258" > PDF=292200 MemberID=58 </weight>
<weight id="2068" MUR="1.0" MUF="1.0" PDF="292259" > PDF=292200 MemberID=59 </weight>
<weight id="2069" MUR="1.0" MUF="1.0" PDF="292260" > PDF=292200 MemberID=60 </weight>
<weight id="2070" MUR="1.0" MUF="1.0" PDF="292261" > PDF=292200 MemberID=61 </weight>
<weight id="2071" MUR="1.0" MUF="1.0" PDF="292262" > PDF=292200 MemberID=62 </weight>
<weight id="2072" MUR="1.0" MUF="1.0" PDF="292263" > PDF=292200 MemberID=63 </weight>
<weight id="2073" MUR="1.0" MUF="1.0" PDF="292264" > PDF=292200 MemberID=64 </weight>
<weight id="2074" MUR="1.0" MUF="1.0" PDF="292265" > PDF=292200 MemberID=65 </weight>
<weight id="2075" MUR="1.0" MUF="1.0" PDF="292266" > PDF=292200 MemberID=66 </weight>
<weight id="2076" MUR="1.0" MUF="1.0" PDF="292267" > PDF=292200 MemberID=67 </weight>
<weight id="2077" MUR="1.0" MUF="1.0" PDF="292268" > PDF=292200 MemberID=68 </weight>
<weight id="2078" MUR="1.0" MUF="1.0" PDF="292269" > PDF=292200 MemberID=69 </weight>
<weight id="2079" MUR="1.0" MUF="1.0" PDF="292270" > PDF=292200 MemberID=70 </weight>
<weight id="2080" MUR="1.0" MUF="1.0" PDF="292271" > PDF=292200 MemberID=71 </weight>
<weight id="2081" MUR="1.0" MUF="1.0" PDF="292272" > PDF=292200 MemberID=72 </weight>
<weight id="2082" MUR="1.0" MUF="1.0" PDF="292273" > PDF=292200 MemberID=73 </weight>
<weight id="2083" MUR="1.0" MUF="1.0" PDF="292274" > PDF=292200 MemberID=74 </weight>
<weight id="2084" MUR="1.0" MUF="1.0" PDF="292275" > PDF=292200 MemberID=75 </weight>
<weight id="2085" MUR="1.0" MUF="1.0" PDF="292276" > PDF=292200 MemberID=76 </weight>
<weight id="2086" MUR="1.0" MUF="1.0" PDF="292277" > PDF=292200 MemberID=77 </weight>
<weight id="2087" MUR="1.0" MUF="1.0" PDF="292278" > PDF=292200 MemberID=78 </weight>
<weight id="2088" MUR="1.0" MUF="1.0" PDF="292279" > PDF=292200 MemberID=79 </weight>
<weight id="2089" MUR="1.0" MUF="1.0" PDF="292280" > PDF=292200 MemberID=80 </weight>
<weight id="2090" MUR="1.0" MUF="1.0" PDF="292281" > PDF=292200 MemberID=81 </weight>
<weight id="2091" MUR="1.0" MUF="1.0" PDF="292282" > PDF=292200 MemberID=82 </weight>
<weight id="2092" MUR="1.0" MUF="1.0" PDF="292283" > PDF=292200 MemberID=83 </weight>
<weight id="2093" MUR="1.0" MUF="1.0" PDF="292284" > PDF=292200 MemberID=84 </weight>
<weight id="2094" MUR="1.0" MUF="1.0" PDF="292285" > PDF=292200 MemberID=85 </weight>
<weight id="2095" MUR="1.0" MUF="1.0" PDF="292286" > PDF=292200 MemberID=86 </weight>
<weight id="2096" MUR="1.0" MUF="1.0" PDF="292287" > PDF=292200 MemberID=87 </weight>
<weight id="2097" MUR="1.0" MUF="1.0" PDF="292288" > PDF=292200 MemberID=88 </weight>
<weight id="2098" MUR="1.0" MUF="1.0" PDF="292289" > PDF=292200 MemberID=89 </weight>
<weight id="2099" MUR="1.0" MUF="1.0" PDF="292290" > PDF=292200 MemberID=90 </weight>
<weight id="2100" MUR="1.0" MUF="1.0" PDF="292291" > PDF=292200 MemberID=91 </weight>
<weight id="2101" MUR="1.0" MUF="1.0" PDF="292292" > PDF=292200 MemberID=92 </weight>
<weight id="2102" MUR="1.0" MUF="1.0" PDF="292293" > PDF=292200 MemberID=93 </weight>
<weight id="2103" MUR="1.0" MUF="1.0" PDF="292294" > PDF=292200 MemberID=94 </weight>
<weight id="2104" MUR="1.0" MUF="1.0" PDF="292295" > PDF=292200 MemberID=95 </weight>
<weight id="2105" MUR="1.0" MUF="1.0" PDF="292296" > PDF=292200 MemberID=96 </weight>
<weight id="2106" MUR="1.0" MUF="1.0" PDF="292297" > PDF=292200 MemberID=97 </weight>
<weight id="2107" MUR="1.0" MUF="1.0" PDF="292298" > PDF=292200 MemberID=98 </weight>
<weight id="2108" MUR="1.0" MUF="1.0" PDF="292299" > PDF=292200 MemberID=99 </weight>
<weight id="2109" MUR="1.0" MUF="1.0" PDF="292300" > PDF=292200 MemberID=100 </weight>
<weight id="2110" MUR="1.0" MUF="1.0" PDF="292301" > PDF=292200 MemberID=101 </weight>
<weight id="2111" MUR="1.0" MUF="1.0" PDF="292302" > PDF=292200 MemberID=102 </weight>
</weightgroup> # PDFSET -> PDF
<weight id="2112" MUR="1.0" MUF="1.0" PDF="292600" > PDF=292600 MemberID=0 </weight>
<weight id="2113" MUR="1.0" MUF="1.0" PDF="315000" > PDF=315000 MemberID=0 </weight>
<weight id="2114" MUR="1.0" MUF="1.0" PDF="315200" > PDF=315200 MemberID=0 </weight>
<weight id="2115" MUR="1.0" MUF="1.0" PDF="262000" > PDF=262000 MemberID=0 </weight>
<weight id="2116" MUR="1.0" MUF="1.0" PDF="263000" > PDF=263000 MemberID=0 </weight>
</initrwgt>
<MGGenerationInfo>
#  Number of Events        : 40
#  Integrated weight (pb)  : 119084.2267430000
</MGGenerationInfo>
</header>
<init>
2212 2212 6.500000e+03 6.500000e+03 0 0 306000 306000 -3 9
5.895635E+03 3.488459E+02 3.616439E+03 8
5.575705E+03 3.011632E+02 1.209634E+04 7
1.612536E+04 5.640592E+02 1.209634E+04 6
2.073497E+04 2.070209E+02 1.209634E+04 5
3.929128E+03 8.398050E+02 3.616439E+03 4
5.438182E+03 4.102816E+02 1.209634E+04 3
5.601593E+03 2.679874E+02 3.616439E+03 2
1.693820E+04 4.156747E+02 3.616439E+03 1
3.117317E+04 2.677157E+02 1.209634E+04 0
<generator name='MadGraph5_aMC@NLO' version='2.6.1'>please cite 1405.0301 </generator>
</init>
<event>
 7      7 +2.9771057E+03 7.32394500e+01 7.54677100e-03 1.22047700e-01
        1 -1    0    0  503    0 -0.0000000000e+00 +0.0000000000e+00 +5.3070619232e+02 5.3070619232e+02 0.0000000000e+00 0.0000e+00 -1.0000e+00
       21 -1    0    0  501  502 +0.0000000000e+00 -0.0000000000e+00 -6.5465516668e+00 6.5465516668e+00 0.0000000000e+00 0.0000e+00 -1.0000e+00
      -24  2    1    2    0    0 +2.1396050702e+00 +2.7040518105e+01 +3.7150052598e+02 3.7872463125e+02 6.8439301448e+01 0.0000e+00 0.0000e+00
       13  1    3    3    0    0 +1.9903258430e+01 +4.3950034946e+01 +2.7202701165e+02 2.7627240241e+02 0.0000000000e+00 0.0000e+00 -1.0000e+00
      -14  1    3    3    0    0 -1.7763653360e+01 -1.6909516841e+01 +9.9473514334e+01 1.0245222884e+02 0.0000000000e+00 0.0000e+00 1.0000e+00
       21  1    1    2  503  502 +1.4500632123e+01 -5.6937897644e+00 +5.0868913942e+01 5.3200883258e+01 0.0000000000e+00 0.0000e+00 1.0000e+00
        2  1    1    2  501    0 -1.6640237194e+01 -2.1346728341e+01 +1.0179020073e+02 1.0532722948e+02 0.0000000000e+00 0.0000e+00 -1.0000e+00
<scales pt_clust_4="13000.00000" pt_clust_5="13000.00000" pt_clust_6="15.57843" pt_clust_7="26.07832"></scales>
<mgrwt>
<rscale>  0 0.73239447E+02</rscale>
<asrwt>  2 0.15578433E+02 0.26078316E+02</asrwt>
<pdfrwt beam="1">  1       21 0.10071622E-02 0.73239447E+02</pdfrwt>
<pdfrwt beam="2">  1        1 0.81647072E-01 0.73239447E+02</pdfrwt>
<totfact> 0.31659944E+04</totfact>
</mgrwt>
<clustering>
<clus scale="   15.578">  2  6  1 -1</clus>
<clus scale="   26.078">  2  7  1 -1</clus>
<clus scale="   68.439">  4  5 -1 -1</clus>
<clus scale="   73.239">  2  4  1 -1</clus>
</clustering>
<rwgt>
<wgt id='1001'> +2.9771057E+03 </wgt>
<wgt id='1002'> +3.1685826E+03 </wgt>
<wgt id='1003'> +3.1685826E+03 </wgt>
<wgt id='1004'> +2.8671929E+03 </wgt>
<wgt id='1005'> +3.1769375E+03 </wgt>
<wgt id='1006'> +2.9771057E+03 </wgt>
<wgt id='1007'> +3.1685826E+03 </wgt>
<wgt id='1008'> +3.1685826E+03 </wgt>
<wgt id='1009'> +2.8671929E+03 </wgt>
<wgt id='1010'> +3.1769375E+03 </wgt>
<wgt id='1011'> +2.9771057E+03 </wgt>
<wgt id='1012'> +3.1685826E+03 </wgt>
<wgt id='1013'> +3.1685826E+03 </wgt>
<wgt id='1014'> +2.8671929E+03 </wgt>
<wgt id='1015'> +3.1769375E+03 </wgt>
<wgt id='1016'> +3.2599601E+03 </wgt>
<wgt id='1017'> +3.4192679E+03 </wgt>
<wgt id='1018'> +3.4192679E+03 </wgt>
<wgt id='1019'> +3.1685826E+03 </wgt>
<wgt id='1020'> +3.4262185E+03 </wgt>
<wgt id='1021'> +3.2599601E+03 </wgt>
<wgt id='1022'> +3.4192679E+03 </wgt>
<wgt id='1023'> +3.4192679E+03 </wgt>
<wgt id='1024'> +3.1685826E+03 </wgt>
<wgt id='1025'> +3.4262185E+03 </wgt>
<wgt id='1026'> +3.2599601E+03 </wgt>
<wgt id='1027'> +3.4192679E+03 </wgt>
<wgt id='1028'> +3.4192679E+03 </wgt>
<wgt id='1029'> +3.1685826E+03 </wgt>
<wgt id='1030'> +3.4262185E+03 </wgt>
<wgt id='1031'> +2.6376253E+03 </wgt>
<wgt id='1032'> +2.8671929E+03 </wgt>
<wgt id='1033'> +2.8671929E+03 </wgt>
<wgt id='1034'> +2.5061840E+03 </wgt>
<wgt id='1035'> +2.8772322E+03 </wgt>
<wgt id='1036'> +2.6376253E+03 </wgt>
<wgt id='1037'> +2.8671929E+03 </wgt>
<wgt id='1038'> +2.8671929E+03 </wgt>
<wgt id='1039'> +2.5061840E+03 </wgt>
<wgt id='1040'> +2.8772322E+03 </wgt>
<wgt id='1041'> +2.6376253E+03 </wgt>
<wgt id='1042'> +2.8671929E+03 </wgt>
<wgt id='1043'> +2.8671929E+03 </wgt>
<wgt id='1044'> +2.5061840E+03 </wgt>
<wgt id='1045'> +2.8772322E+03 </wgt>
<wgt id='1046'> +2.9771057E+03 </wgt>
<wgt id='1047'> +2.9768413E+03 </wgt>
<wgt id='1048'> +2.9759137E+03 </wgt>
<wgt id='1049'> +2.9727858E+03 </wgt>
<wgt id='1050'> +2.9704315E+03 </wgt>
<wgt id='1051'> +2.9821173E+03 </wgt>
<wgt id='1052'> +2.9849147E+03 </wgt>
<wgt id='1053'> +2.9824762E+03 </wgt>
<wgt id='1054'> +2.9856124E+03 </wgt>
<wgt id='1055'> +2.9713217E+03 </wgt>
<wgt id='1056'> +2.9726106E+03 </wgt>
<wgt id='1057'> +2.9737565E+03 </wgt>
<wgt id='1058'> +2.9766597E+03 </wgt>
<wgt id='1059'> +2.9764704E+03 </wgt>
<wgt id='1060'> +2.9774704E+03 </wgt>
<wgt id='1061'> +2.9827090E+03 </wgt>
<wgt id='1062'> +2.9811838E+03 </wgt>
<wgt id='1063'> +2.9750385E+03 </wgt>
<wgt id='1064'> +2.9758985E+03 </wgt>
<wgt id='1065'> +2.9703279E+03 </wgt>
<wgt id='1066'> +2.9747617E+03 </wgt>
<wgt id='1067'> +2.9793032E+03 </wgt>
<wgt id='1068'> +2.9819778E+03 </wgt>
<wgt id='1069'> +2.9650317E+03 </wgt>
<wgt id='1070'> +2.9950670E+03 </wgt>
<wgt id='1071'> +2.9751013E+03 </wgt>
<wgt id='1072'> +2.9693663E+03 </wgt>
<wgt id='1073'> +2.9906925E+03 </wgt>
<wgt id='1074'> +2.9859186E+03 </wgt>
<wgt id='1075'> +2.9415382E+03 </wgt>
<wgt id='1076'> +2.9769580E+03 </wgt>
<wgt id='1077'> +2.9744784E+03 </wgt>
<wgt id='1078'> +2.9719695E+03 </wgt>
<wgt id='1079'> +2.9681645E+03 </wgt>
<wgt id='1080'> +2.9766270E+03 </wgt>
<wgt id='1081'> +2.9826492E+03 </wgt>
<wgt id='1082'> +2.9758547E+03 </wgt>
<wgt id='1083'> +2.9851426E+03 </wgt>
<wgt id='1084'> +2.9739953E+03 </wgt>
<wgt id='1085'> +2.9797544E+03 </wgt>
<wgt id='1086'> +2.9755015E+03 </wgt>
<wgt id='1087'> +2.9741530E+03 </wgt>
<wgt id='1088'> +2.9750996E+03 </wgt>
<wgt id='1089'> +2.9741880E+03 </wgt>
<wgt id='1090'> +2.9837107E+03 </wgt>
<wgt id='1091'> +2.9688325E+03 </wgt>
<wgt id='1092'> +2.9826600E+03 </wgt>
<wgt id='1093'> +2.9870468E+03 </wgt>
<wgt id='1094'> +2.9730962E+03 </wgt>
<wgt id='1095'> +2.9858590E+03 </wgt>
<wgt id='1096'> +2.9783897E+03 </wgt>
<wgt id='1097'> +2.9784701E+03 </wgt>
<wgt id='1098'> +2.9747954E+03 </wgt>
<wgt id='1099'> +2.9726911E+03 </wgt>
<wgt id='1100'> +2.9763149E+03 </wgt>
<wgt id='1101'> +2.9692848E+03 </wgt>
<wgt id='1102'> +2.9827587E+03 </wgt>
<wgt id='1103'> +2.9743465E+03 </wgt>
<wgt id='1104'> +2.9768997E+03 </wgt>
<wgt id='1105'> +2.9794635E+03 </wgt>
<wgt id='1106'> +2.9789456E+03 </wgt>
<wgt id='1107'> +2.9742891E+03 </wgt>
<wgt id='1108'> +2.9815134E+03 </wgt>
<wgt id='1109'> +2.9781359E+03 </wgt>
<wgt id='1110'> +2.9729394E+03 </wgt>
<wgt id='1111'> +2.9798681E+03 </wgt>
<wgt id='1112'> +2.9760631E+03 </wgt>
<wgt id='1113'> +2.9789282E+03 </wgt>
<wgt id='1114'> +2.9798988E+03 </wgt>
<wgt id='1115'> +2.9747966E+03 </wgt>
<wgt id='1116'> +2.9746743E+03 </wgt>
<wgt id='1117'> +2.9732200E+03 </wgt>
<wgt id='1118'> +2.9821602E+03 </wgt>
<wgt id='1119'> +2.9722953E+03 </wgt>
<wgt id='1120'> +2.9794361E+03 </wgt>
<wgt id='1121'> +2.9755925E+03 </wgt>
<wgt id='1122'> +2.9747983E+03 </wgt>
<wgt id='1123'> +2.9778472E+03 </wgt>
<wgt id='1124'> +2.9759292E+03 </wgt>
<wgt id='1125'> +2.9779028E+03 </wgt>
<wgt id='1126'> +2.9802439E+03 </wgt>
<wgt id='1127'> +2.9761345E+03 </wgt>
<wgt id='1128'> +2.9774839E+03 </wgt>
<wgt id='1129'> +2.9750193E+03 </wgt>
<wgt id='1130'> +2.9747011E+03 </wgt>
<wgt id='1131'> +2.9774387E+03 </wgt>
<wgt id='1132'> +2.9772356E+03 </wgt>
<wgt id='1133'> +2.9760853E+03 </wgt>
<wgt id='1134'> +2.9759947E+03 </wgt>
<wgt id='1135'> +2.9769659E+03 </wgt>
<wgt id='1136'> +2.9783798E+03 </wgt>
<wgt id='1137'> +2.9795523E+03 </wgt>
<wgt id='1138'> +2.9746536E+03 </wgt>
<wgt id='1139'> +2.9754624E+03 </wgt>
<wgt id='1140'> +2.9758628E+03 </wgt>
<wgt id='1141'> +2.9765522E+03 </wgt>
<wgt id='1142'> +2.9760530E+03 </wgt>
<wgt id='1143'> +2.9804201E+03 </wgt>
<wgt id='1144'> +2.9765563E+03 </wgt>
<wgt id='1145'> +2.9757429E+03 </wgt>
<wgt id='1146'> +2.9791477E+03 </wgt>
<wgt id='1147'> +2.8701217E+03 </wgt>
<wgt id='1148'> +3.0847426E+03 </wgt>
<wgt id='1149'> +2.4799706E+03 </wgt>
<wgt id='1150'> +2.5749033E+03 </wgt>
<wgt id='1151'> +2.6655221E+03 </wgt>
<wgt id='1152'> +2.7758035E+03 </wgt>
<wgt id='1153'> +2.9362885E+03 </wgt>
<wgt id='1154'> +3.0278930E+03 </wgt>
<wgt id='1155'> +3.1962840E+03 </wgt>
<wgt id='1156'> +3.2906986E+03 </wgt>
<wgt id='1157'> +2.9997966E+03 </wgt>
<wgt id='1158'> +2.9998163E+03 </wgt>
<wgt id='1159'> +2.9991444E+03 </wgt>
<wgt id='1160'> +2.9977314E+03 </wgt>
<wgt id='1161'> +2.9950237E+03 </wgt>
<wgt id='1162'> +2.9968725E+03 </wgt>
<wgt id='1163'> +2.9960943E+03 </wgt>
<wgt id='1164'> +2.9954728E+03 </wgt>
<wgt id='1165'> +3.0103710E+03 </wgt>
<wgt id='1166'> +2.9939400E+03 </wgt>
<wgt id='1167'> +2.9998559E+03 </wgt>
<wgt id='1168'> +2.9996307E+03 </wgt>
<wgt id='1169'> +2.9983366E+03 </wgt>
<wgt id='1170'> +3.0029540E+03 </wgt>
<wgt id='1171'> +2.9983878E+03 </wgt>
<wgt id='1172'> +3.0003257E+03 </wgt>
<wgt id='1173'> +3.0069583E+03 </wgt>
<wgt id='1174'> +2.9984151E+03 </wgt>
<wgt id='1175'> +3.0010634E+03 </wgt>
<wgt id='1176'> +2.9946119E+03 </wgt>
<wgt id='1177'> +2.9955157E+03 </wgt>
<wgt id='1178'> +3.0057248E+03 </wgt>
<wgt id='1179'> +2.9989578E+03 </wgt>
<wgt id='1180'> +2.9988333E+03 </wgt>
<wgt id='1181'> +3.0126210E+03 </wgt>
<wgt id='1182'> +2.9947217E+03 </wgt>
<wgt id='1183'> +3.0010370E+03 </wgt>
<wgt id='1184'> +2.9889498E+03 </wgt>
<wgt id='1185'> +3.0097311E+03 </wgt>
<wgt id='1186'> +3.0139766E+03 </wgt>
<wgt id='1187'> +2.9677016E+03 </wgt>
<wgt id='1188'> +2.9851571E+03 </wgt>
<wgt id='1189'> +3.0107628E+03 </wgt>
<wgt id='1190'> +2.9990952E+03 </wgt>
<wgt id='1191'> +2.9947694E+03 </wgt>
<wgt id='1192'> +3.0065542E+03 </wgt>
<wgt id='1193'> +3.0007852E+03 </wgt>
<wgt id='1194'> +2.9907245E+03 </wgt>
<wgt id='1195'> +3.0007444E+03 </wgt>
<wgt id='1196'> +3.0018822E+03 </wgt>
<wgt id='1197'> +2.9966613E+03 </wgt>
<wgt id='1198'> +3.0091746E+03 </wgt>
<wgt id='1199'> +2.9964438E+03 </wgt>
<wgt id='1200'> +2.9982382E+03 </wgt>
<wgt id='1201'> +3.0020244E+03 </wgt>
<wgt id='1202'> +2.9989253E+03 </wgt>
<wgt id='1203'> +3.0022962E+03 </wgt>
<wgt id='1204'> +3.0047093E+03 </wgt>
<wgt id='1205'> +3.0022752E+03 </wgt>
<wgt id='1206'> +2.9920688E+03 </wgt>
<wgt id='1207'> +3.0010075E+03 </wgt>
<wgt id='1208'> +3.0090887E+03 </wgt>
<wgt id='1209'> +3.0018450E+03 </wgt>
<wgt id='1210'> +2.9953648E+03 </wgt>
<wgt id='1211'> +2.9954312E+03 </wgt>
<wgt id='1212'> +2.9992999E+03 </wgt>
<wgt id='1213'> +2.9863897E+03 </wgt>
<wgt id='1214'> +3.0019851E+03 </wgt>
<wgt id='1215'> +2.9964644E+03 </wgt>
<wgt id='1216'> +3.0040756E+03 </wgt>
<wgt id='1217'> +2.9989236E+03 </wgt>
<wgt id='1218'> +2.9997909E+03 </wgt>
<wgt id='1219'> +2.9970664E+03 </wgt>
<wgt id='1220'> +3.0013808E+03 </wgt>
<wgt id='1221'> +2.9963616E+03 </wgt>
<wgt id='1222'> +2.9999915E+03 </wgt>
<wgt id='1223'> +3.0060322E+03 </wgt>
<wgt id='1224'> +2.9965904E+03 </wgt>
<wgt id='1225'> +3.0018150E+03 </wgt>
<wgt id='1226'> +3.0001340E+03 </wgt>
<wgt id='1227'> +2.9976874E+03 </wgt>
<wgt id='1228'> +2.9995160E+03 </wgt>
<wgt id='1229'> +2.9974806E+03 </wgt>
<wgt id='1230'> +2.9974747E+03 </wgt>
<wgt id='1231'> +3.0011603E+03 </wgt>
<wgt id='1232'> +3.0041159E+03 </wgt>
<wgt id='1233'> +3.0025317E+03 </wgt>
<wgt id='1234'> +2.9978220E+03 </wgt>
<wgt id='1235'> +2.9988646E+03 </wgt>
<wgt id='1236'> +2.9997233E+03 </wgt>
<wgt id='1237'> +3.0002017E+03 </wgt>
<wgt id='1238'> +2.9948442E+03 </wgt>
<wgt id='1239'> +2.9983428E+03 </wgt>
<wgt id='1240'> +2.9971021E+03 </wgt>
<wgt id='1241'> +3.0034204E+03 </wgt>
<wgt id='1242'> +2.9978272E+03 </wgt>
<wgt id='1243'> +2.9993861E+03 </wgt>
<wgt id='1244'> +2.9995015E+03 </wgt>
<wgt id='1245'> +2.9989578E+03 </wgt>
<wgt id='1246'> +2.9999051E+03 </wgt>
<wgt id='1247'> +3.0008040E+03 </wgt>
<wgt id='1248'> +3.0007845E+03 </wgt>
<wgt id='1249'> +2.9991328E+03 </wgt>
<wgt id='1250'> +2.9993120E+03 </wgt>
<wgt id='1251'> +2.9990184E+03 </wgt>
<wgt id='1252'> +3.0010402E+03 </wgt>
<wgt id='1253'> +3.0004648E+03 </wgt>
<wgt id='1254'> +2.9967824E+03 </wgt>
<wgt id='1255'> +2.9979286E+03 </wgt>
<wgt id='1256'> +3.0016238E+03 </wgt>
<wgt id='1257'> +3.0017409E+03 </wgt>
<wgt id='1258'> +2.8936253E+03 </wgt>
<wgt id='1259'> +3.1136613E+03 </wgt>
<wgt id='1260'> +2.9280749E+03 </wgt>
<wgt id='1261'> +2.9038930E+03 </wgt>
<wgt id='1262'> +2.9048021E+03 </wgt>
<wgt id='1263'> +2.9009603E+03 </wgt>
<wgt id='1264'> +2.9346309E+03 </wgt>
<wgt id='1265'> +2.9697820E+03 </wgt>
<wgt id='1266'> +2.9389884E+03 </wgt>
<wgt id='1267'> +2.9640024E+03 </wgt>
<wgt id='1268'> +2.9402197E+03 </wgt>
<wgt id='1269'> +2.9882592E+03 </wgt>
<wgt id='1270'> +2.8899512E+03 </wgt>
<wgt id='1271'> +2.9423457E+03 </wgt>
<wgt id='1272'> +2.8887101E+03 </wgt>
<wgt id='1273'> +2.8918247E+03 </wgt>
<wgt id='1274'> +2.9104129E+03 </wgt>
<wgt id='1275'> +2.9403822E+03 </wgt>
<wgt id='1276'> +2.8792666E+03 </wgt>
<wgt id='1277'> +2.9670275E+03 </wgt>
<wgt id='1278'> +2.8885814E+03 </wgt>
<wgt id='1279'> +2.9005298E+03 </wgt>
<wgt id='1280'> +2.9561986E+03 </wgt>
<wgt id='1281'> +2.9607003E+03 </wgt>
<wgt id='1282'> +2.9082286E+03 </wgt>
<wgt id='1283'> +2.9323681E+03 </wgt>
<wgt id='1284'> +2.9231823E+03 </wgt>
<wgt id='1285'> +2.9166298E+03 </wgt>
<wgt id='1286'> +2.9375331E+03 </wgt>
<wgt id='1287'> +2.9455747E+03 </wgt>
<wgt id='1288'> +2.8984290E+03 </wgt>
<wgt id='1289'> +2.9055806E+03 </wgt>
<wgt id='1290'> +2.9406342E+03 </wgt>
<wgt id='1291'> +2.9013745E+03 </wgt>
<wgt id='1292'> +2.9664700E+03 </wgt>
<wgt id='1293'> +2.9375998E+03 </wgt>
<wgt id='1294'> +2.9187747E+03 </wgt>
<wgt id='1295'> +2.8943277E+03 </wgt>
<wgt id='1296'> +2.9590631E+03 </wgt>
<wgt id='1297'> +2.9951544E+03 </wgt>
<wgt id='1298'> +2.8534830E+03 </wgt>
<wgt id='1299'> +2.9473293E+03 </wgt>
<wgt id='1300'> +2.8981553E+03 </wgt>
<wgt id='1301'> +2.9195952E+03 </wgt>
<wgt id='1302'> +2.9259898E+03 </wgt>
<wgt id='1303'> +2.9444640E+03 </wgt>
<wgt id='1304'> +2.8814457E+03 </wgt>
<wgt id='1305'> +2.9040291E+03 </wgt>
<wgt id='1306'> +2.9898574E+03 </wgt>
<wgt id='1307'> +2.9309097E+03 </wgt>
<wgt id='1308'> +2.9570716E+03 </wgt>
<wgt id='1309'> +2.9249187E+03 </wgt>
<wgt id='1310'> +2.9633365E+03 </wgt>
<wgt id='1311'> +2.9244772E+03 </wgt>
<wgt id='1312'> +2.9822463E+03 </wgt>
<wgt id='1313'> +2.9527872E+03 </wgt>
<wgt id='1314'> +2.9742360E+03 </wgt>
<wgt id='1315'> +2.9382481E+03 </wgt>
<wgt id='1316'> +2.9260432E+03 </wgt>
<wgt id='1317'> +2.8224487E+03 </wgt>
<wgt id='1318'> +3.0324018E+03 </wgt>
<wgt id='1319'> +3.0267271E+03 </wgt>
<wgt id='1320'> +3.0848445E+03 </wgt>
<wgt id='1321'> +3.0304317E+03 </wgt>
<wgt id='1322'> +3.0283468E+03 </wgt>
<wgt id='1323'> +3.0548380E+03 </wgt>
<wgt id='1324'> +3.0532333E+03 </wgt>
<wgt id='1325'> +3.0139143E+03 </wgt>
<wgt id='1326'> +3.0281521E+03 </wgt>
<wgt id='1327'> +3.0301272E+03 </wgt>
<wgt id='1328'> +2.9981370E+03 </wgt>
<wgt id='1329'> +3.0312852E+03 </wgt>
<wgt id='1330'> +3.0053236E+03 </wgt>
<wgt id='1331'> +3.0506856E+03 </wgt>
<wgt id='1332'> +2.9270816E+03 </wgt>
<wgt id='1333'> +3.0794216E+03 </wgt>
<wgt id='1334'> +3.0296264E+03 </wgt>
<wgt id='1335'> +3.0036719E+03 </wgt>
<wgt id='1336'> +3.0712185E+03 </wgt>
<wgt id='1337'> +2.9746022E+03 </wgt>
<wgt id='1338'> +3.0438886E+03 </wgt>
<wgt id='1339'> +3.0076167E+03 </wgt>
<wgt id='1340'> +3.0216313E+03 </wgt>
<wgt id='1341'> +3.0357832E+03 </wgt>
<wgt id='1342'> +3.0256998E+03 </wgt>
<wgt id='1343'> +3.0367182E+03 </wgt>
<wgt id='1344'> +2.9696407E+03 </wgt>
<wgt id='1345'> +3.0809101E+03 </wgt>
<wgt id='1346'> +3.0106575E+03 </wgt>
<wgt id='1347'> +3.0520916E+03 </wgt>
<wgt id='1348'> +3.0308752E+03 </wgt>
<wgt id='1349'> +3.0252354E+03 </wgt>
<wgt id='1350'> +3.0272267E+03 </wgt>
<wgt id='1351'> +3.0260062E+03 </wgt>
<wgt id='1352'> +3.0256809E+03 </wgt>
<wgt id='1353'> +3.0305978E+03 </wgt>
<wgt id='1354'> +3.1162883E+03 </wgt>
<wgt id='1355'> +2.9444945E+03 </wgt>
<wgt id='1356'> +3.0330331E+03 </wgt>
<wgt id='1357'> +3.0052924E+03 </wgt>
<wgt id='1358'> +2.9846248E+03 </wgt>
<wgt id='1359'> +3.0429686E+03 </wgt>
<wgt id='1360'> +3.0719384E+03 </wgt>
<wgt id='1361'> +3.0066667E+03 </wgt>
<wgt id='1362'> +2.9956636E+03 </wgt>
<wgt id='1363'> +3.0264960E+03 </wgt>
<wgt id='1364'> +3.0246238E+03 </wgt>
<wgt id='1365'> +2.9992662E+03 </wgt>
<wgt id='1366'> +3.0216377E+03 </wgt>
<wgt id='1367'> +3.0597549E+03 </wgt>
<wgt id='1368'> +3.0266717E+03 </wgt>
<wgt id='1369'> +3.0475109E+03 </wgt>
<wgt id='1370'> +3.0037797E+03 </wgt>
<wgt id='1371'> +3.0025297E+03 </wgt>
<wgt id='1372'> +2.9832780E+03 </wgt>
<wgt id='1373'> +2.9751370E+03 </wgt>
<wgt id='1374'> +3.0394942E+03 </wgt>
<wgt id='1375'> +3.0173410E+03 </wgt>
<wgt id='1376'> +2.9065845E+03 </wgt>
<wgt id='1377'> +3.1433562E+03 </wgt>
<wgt id='1378'> +3.2318084E+03 </wgt>
<wgt id='1379'> +2.9204726E+03 </wgt>
<wgt id='1380'> +2.9193146E+03 </wgt>
<wgt id='1381'> +2.9216121E+03 </wgt>
<wgt id='1382'> +2.9221556E+03 </wgt>
<wgt id='1383'> +2.9193208E+03 </wgt>
<wgt id='1384'> +2.9080851E+03 </wgt>
<wgt id='1385'> +2.9320502E+03 </wgt>
<wgt id='1386'> +2.9163982E+03 </wgt>
<wgt id='1387'> +2.9248183E+03 </wgt>
<wgt id='1388'> +2.9281226E+03 </wgt>
<wgt id='1389'> +2.9129954E+03 </wgt>
<wgt id='1390'> +2.9210606E+03 </wgt>
<wgt id='1391'> +2.9190279E+03 </wgt>
<wgt id='1392'> +2.9276211E+03 </wgt>
<wgt id='1393'> +2.9074523E+03 </wgt>
<wgt id='1394'> +2.9076810E+03 </wgt>
<wgt id='1395'> +2.9276297E+03 </wgt>
<wgt id='1396'> +2.9099297E+03 </wgt>
<wgt id='1397'> +2.9327373E+03 </wgt>
<wgt id='1398'> +2.9046269E+03 </wgt>
<wgt id='1399'> +2.9341180E+03 </wgt>
<wgt id='1400'> +2.9401592E+03 </wgt>
<wgt id='1401'> +2.8944589E+03 </wgt>
<wgt id='1402'> +2.9350990E+03 </wgt>
<wgt id='1403'> +2.9118293E+03 </wgt>
<wgt id='1404'> +2.9233428E+03 </wgt>
<wgt id='1405'> +2.9051093E+03 </wgt>
<wgt id='1406'> +2.9122580E+03 </wgt>
<wgt id='1407'> +2.9274542E+03 </wgt>
<wgt id='1408'> +2.9386121E+03 </wgt>
<wgt id='1409'> +2.8979161E+03 </wgt>
<wgt id='1410'> +2.9649389E+03 </wgt>
<wgt id='1411'> +2.8684148E+03 </wgt>
<wgt id='1412'> +2.9165343E+03 </wgt>
<wgt id='1413'> +2.9208041E+03 </wgt>
<wgt id='1414'> +2.9214325E+03 </wgt>
<wgt id='1415'> +2.9224226E+03 </wgt>
<wgt id='1416'> +2.9210810E+03 </wgt>
<wgt id='1417'> +2.9201226E+03 </wgt>
<wgt id='1418'> +2.9125381E+03 </wgt>
<wgt id='1419'> +2.9280535E+03 </wgt>
<wgt id='1420'> +2.8905579E+03 </wgt>
<wgt id='1421'> +2.9582527E+03 </wgt>
<wgt id='1422'> +2.9382983E+03 </wgt>
<wgt id='1423'> +2.9137913E+03 </wgt>
<wgt id='1424'> +2.9094429E+03 </wgt>
<wgt id='1425'> +2.9493273E+03 </wgt>
<wgt id='1426'> +2.9110621E+03 </wgt>
<wgt id='1427'> +2.9306793E+03 </wgt>
<wgt id='1428'> +2.9141349E+03 </wgt>
<wgt id='1429'> +2.9213185E+03 </wgt>
<wgt id='1430'> +2.9317551E+03 </wgt>
<wgt id='1431'> +2.9320831E+03 </wgt>
<wgt id='1432'> +2.9312422E+03 </wgt>
<wgt id='1433'> +2.9282002E+03 </wgt>
<wgt id='1434'> +2.9353639E+03 </wgt>
<wgt id='1435'> +2.9334570E+03 </wgt>
<wgt id='1436'> +2.9310955E+03 </wgt>
<wgt id='1437'> +2.9172032E+03 </wgt>
<wgt id='1438'> +2.9461802E+03 </wgt>
<wgt id='1439'> +2.9360811E+03 </wgt>
<wgt id='1440'> +2.9275982E+03 </wgt>
<wgt id='1441'> +2.9147184E+03 </wgt>
<wgt id='1442'> +2.9390042E+03 </wgt>
<wgt id='1443'> +2.9400228E+03 </wgt>
<wgt id='1444'> +2.9217824E+03 </wgt>
<wgt id='1445'> +2.9281300E+03 </wgt>
<wgt id='1446'> +2.9356001E+03 </wgt>
<wgt id='1447'> +2.9069749E+03 </wgt>
<wgt id='1448'> +2.9449159E+03 </wgt>
<wgt id='1449'> +2.9327799E+03 </wgt>
<wgt id='1450'> +2.9304430E+03 </wgt>
<wgt id='1451'> +2.9084567E+03 </wgt>
<wgt id='1452'> +2.9475422E+03 </wgt>
<wgt id='1453'> +2.9054694E+03 </wgt>
<wgt id='1454'> +2.9533710E+03 </wgt>
<wgt id='1455'> +2.9272964E+03 </wgt>
<wgt id='1456'> +2.9436117E+03 </wgt>
<wgt id='1457'> +2.9272123E+03 </wgt>
<wgt id='1458'> +2.9403487E+03 </wgt>
<wgt id='1459'> +2.9152527E+03 </wgt>
<wgt id='1460'> +2.9706850E+03 </wgt>
<wgt id='1461'> +2.9481115E+03 </wgt>
<wgt id='1462'> +2.8981272E+03 </wgt>
<wgt id='1463'> +2.9221413E+03 </wgt>
<wgt id='1464'> +2.9484378E+03 </wgt>
<wgt id='1465'> +2.9387480E+03 </wgt>
<wgt id='1466'> +2.9290598E+03 </wgt>
<wgt id='1467'> +2.9364822E+03 </wgt>
<wgt id='1468'> +2.9130269E+03 </wgt>
<wgt id='1469'> +2.9246362E+03 </wgt>
<wgt id='1470'> +2.9355859E+03 </wgt>
<wgt id='1471'> +2.9594508E+03 </wgt>
<wgt id='1472'> +2.8876289E+03 </wgt>
<wgt id='1473'> +2.9328818E+03 </wgt>
<wgt id='1474'> +2.9250405E+03 </wgt>
<wgt id='1475'> +2.9322667E+03 </wgt>
<wgt id='1476'> +2.9379710E+03 </wgt>
<wgt id='1477'> +2.9467733E+03 </wgt>
<wgt id='1478'> +2.9257082E+03 </wgt>
<wgt id='1479'> +2.9370640E+03 </wgt>
<wgt id='1480'> +2.9323096E+03 </wgt>
<wgt id='1481'> +4.5658915E+03 </wgt>
<wgt id='1482'> +2.9125435E+03 </wgt>
<wgt id='1483'> +2.9116149E+03 </wgt>
<wgt id='1484'> +2.9130067E+03 </wgt>
<wgt id='1485'> +2.9109905E+03 </wgt>
<wgt id='1486'> +2.9125610E+03 </wgt>
<wgt id='1487'> +2.9118942E+03 </wgt>
<wgt id='1488'> +2.9034647E+03 </wgt>
<wgt id='1489'> +2.9094784E+03 </wgt>
<wgt id='1490'> +2.9150423E+03 </wgt>
<wgt id='1491'> +2.9033294E+03 </wgt>
<wgt id='1492'> +2.9170304E+03 </wgt>
<wgt id='1493'> +2.9143689E+03 </wgt>
<wgt id='1494'> +2.9219296E+03 </wgt>
<wgt id='1495'> +2.9145316E+03 </wgt>
<wgt id='1496'> +2.9082788E+03 </wgt>
<wgt id='1497'> +2.9036476E+03 </wgt>
<wgt id='1498'> +2.9049203E+03 </wgt>
<wgt id='1499'> +2.9078724E+03 </wgt>
<wgt id='1500'> +2.9064765E+03 </wgt>
<wgt id='1501'> +2.9169445E+03 </wgt>
<wgt id='1502'> +2.9064031E+03 </wgt>
<wgt id='1503'> +2.9046774E+03 </wgt>
<wgt id='1504'> +2.9068011E+03 </wgt>
<wgt id='1505'> +2.9366816E+03 </wgt>
<wgt id='1506'> +2.9291192E+03 </wgt>
<wgt id='1507'> +2.9147472E+03 </wgt>
<wgt id='1508'> +2.9161707E+03 </wgt>
<wgt id='1509'> +2.9278140E+03 </wgt>
<wgt id='1510'> +2.8880367E+03 </wgt>
<wgt id='1511'> +2.8842603E+03 </wgt>
<wgt id='1512'> +2.9459858E+03 </wgt>
<wgt id='1513'> +2.9407351E+03 </wgt>
<wgt id='1514'> +2.9224204E+03 </wgt>
<wgt id='1515'> +2.9495018E+03 </wgt>
<wgt id='1516'> +2.9514424E+03 </wgt>
<wgt id='1517'> +2.9598839E+03 </wgt>
<wgt id='1518'> +2.9145161E+03 </wgt>
<wgt id='1519'> +2.9834338E+03 </wgt>
<wgt id='1520'> +2.9917073E+03 </wgt>
<wgt id='1521'> +2.9393160E+03 </wgt>
<wgt id='1522'> +2.9391176E+03 </wgt>
<wgt id='1523'> +2.9338894E+03 </wgt>
<wgt id='1524'> +2.9319099E+03 </wgt>
<wgt id='1525'> +2.9467940E+03 </wgt>
<wgt id='1526'> +2.9447729E+03 </wgt>
<wgt id='1527'> +2.9383493E+03 </wgt>
<wgt id='1528'> +2.9355536E+03 </wgt>
<wgt id='1529'> +2.9435497E+03 </wgt>
<wgt id='1530'> +2.9713441E+03 </wgt>
<wgt id='1531'> +2.9344993E+03 </wgt>
<wgt id='1532'> +2.9488680E+03 </wgt>
<wgt id='1533'> +2.9501778E+03 </wgt>
<wgt id='1534'> +2.9469158E+03 </wgt>
<wgt id='1535'> +2.9713522E+03 </wgt>
<wgt id='1536'> +2.9357872E+03 </wgt>
<wgt id='1537'> +2.9529127E+03 </wgt>
<wgt id='1538'> +2.9366914E+03 </wgt>
<wgt id='1539'> +2.9493664E+03 </wgt>
<wgt id='1540'> +2.9465900E+03 </wgt>
<wgt id='1541'> +2.9378085E+03 </wgt>
<wgt id='1542'> +2.9340951E+03 </wgt>
<wgt id='1543'> +2.9410691E+03 </wgt>
<wgt id='1544'> +2.9618935E+03 </wgt>
<wgt id='1545'> +2.9429381E+03 </wgt>
<wgt id='1546'> +2.9321240E+03 </wgt>
<wgt id='1547'> +2.9586265E+03 </wgt>
<wgt id='1548'> +2.9399313E+03 </wgt>
<wgt id='1549'> +2.9481449E+03 </wgt>
<wgt id='1550'> +2.9357941E+03 </wgt>
<wgt id='1551'> +2.9346642E+03 </wgt>
<wgt id='1552'> +2.9448088E+03 </wgt>
<wgt id='1553'> +2.9395875E+03 </wgt>
<wgt id='1554'> +2.9547177E+03 </wgt>
<wgt id='1555'> +2.9451403E+03 </wgt>
<wgt id='1556'> +2.9426671E+03 </wgt>
<wgt id='1557'> +2.9509039E+03 </wgt>
<wgt id='1558'> +2.9456685E+03 </wgt>
<wgt id='1559'> +2.9551105E+03 </wgt>
<wgt id='1560'> +2.9410489E+03 </wgt>
<wgt id='1561'> +2.9459095E+03 </wgt>
<wgt id='1562'> +2.9495249E+03 </wgt>
<wgt id='1563'> +2.9339994E+03 </wgt>
<wgt id='1564'> +2.9471560E+03 </wgt>
<wgt id='1565'> +2.9486660E+03 </wgt>
<wgt id='1566'> +2.9402842E+03 </wgt>
<wgt id='1567'> +2.9463355E+03 </wgt>
<wgt id='1568'> +2.9451588E+03 </wgt>
<wgt id='1569'> +2.9407356E+03 </wgt>
<wgt id='1570'> +2.9524377E+03 </wgt>
<wgt id='1571'> +2.9519615E+03 </wgt>
<wgt id='1572'> +2.9399468E+03 </wgt>
<wgt id='1573'> +2.9457246E+03 </wgt>
<wgt id='1574'> +2.9405429E+03 </wgt>
<wgt id='1575'> +2.9508109E+03 </wgt>
<wgt id='1576'> +2.9459301E+03 </wgt>
<wgt id='1577'> +2.9499529E+03 </wgt>
<wgt id='1578'> +2.9443136E+03 </wgt>
<wgt id='1579'> +2.9475602E+03 </wgt>
<wgt id='1580'> +2.9467357E+03 </wgt>
<wgt id='1581'> +2.9467519E+03 </wgt>
<wgt id='1582'> +2.9460936E+03 </wgt>
<wgt id='1583'> +2.9445406E+03 </wgt>
<wgt id='1584'> +2.9465496E+03 </wgt>
<wgt id='1585'> +2.9429578E+03 </wgt>
<wgt id='1586'> +2.9449939E+03 </wgt>
<wgt id='1587'> +2.9475885E+03 </wgt>
<wgt id='1588'> +2.9461676E+03 </wgt>
<wgt id='1589'> +2.9452417E+03 </wgt>
<wgt id='1590'> +2.9450857E+03 </wgt>
<wgt id='1591'> +2.9477504E+03 </wgt>
<wgt id='1592'> +2.9459131E+03 </wgt>
<wgt id='1593'> +2.9456306E+03 </wgt>
<wgt id='1594'> +2.9421089E+03 </wgt>
<wgt id='1595'> +2.9476766E+03 </wgt>
<wgt id='1596'> +2.9451472E+03 </wgt>
<wgt id='1597'> +2.9438561E+03 </wgt>
<wgt id='1598'> +2.9463239E+03 </wgt>
<wgt id='1599'> +2.9432258E+03 </wgt>
<wgt id='1600'> +2.9463114E+03 </wgt>
<wgt id='1601'> +2.9478705E+03 </wgt>
<wgt id='1602'> +2.9461093E+03 </wgt>
<wgt id='1603'> +2.9453375E+03 </wgt>
<wgt id='1604'> +2.9455518E+03 </wgt>
<wgt id='1605'> +2.9441214E+03 </wgt>
<wgt id='1606'> +2.9463293E+03 </wgt>
<wgt id='1607'> +2.9446247E+03 </wgt>
<wgt id='1608'> +2.9447857E+03 </wgt>
<wgt id='1609'> +2.9466776E+03 </wgt>
<wgt id='1610'> +2.9463569E+03 </wgt>
<wgt id='1611'> +2.9462644E+03 </wgt>
<wgt id='1612'> +2.9456616E+03 </wgt>
<wgt id='1613'> +2.8574632E+03 </wgt>
<wgt id='1614'> +3.0295043E+03 </wgt>
<wgt id='1615'> +2.9252495E+03 </wgt>
<wgt id='1616'> +2.9319244E+03 </wgt>
<wgt id='1617'> +2.9179046E+03 </wgt>
<wgt id='1618'> +2.9296488E+03 </wgt>
<wgt id='1619'> +2.9252561E+03 </wgt>
<wgt id='1620'> +2.9192740E+03 </wgt>
<wgt id='1621'> +2.9401213E+03 </wgt>
<wgt id='1622'> +2.9518635E+03 </wgt>
<wgt id='1623'> +2.9347173E+03 </wgt>
<wgt id='1624'> +2.9170142E+03 </wgt>
<wgt id='1625'> +2.9337198E+03 </wgt>
<wgt id='1626'> +2.9357810E+03 </wgt>
<wgt id='1627'> +2.9056756E+03 </wgt>
<wgt id='1628'> +2.9210303E+03 </wgt>
<wgt id='1629'> +2.9047027E+03 </wgt>
<wgt id='1630'> +2.9469131E+03 </wgt>
<wgt id='1631'> +2.9198647E+03 </wgt>
<wgt id='1632'> +2.9289752E+03 </wgt>
<wgt id='1633'> +2.9280929E+03 </wgt>
<wgt id='1634'> +2.9061521E+03 </wgt>
<wgt id='1635'> +2.9287150E+03 </wgt>
<wgt id='1636'> +2.9287928E+03 </wgt>
<wgt id='1637'> +2.9009312E+03 </wgt>
<wgt id='1638'> +2.9292252E+03 </wgt>
<wgt id='1639'> +2.9332283E+03 </wgt>
<wgt id='1640'> +2.9180292E+03 </wgt>
<wgt id='1641'> +2.9139641E+03 </wgt>
<wgt id='1642'> +2.9333905E+03 </wgt>
<wgt id='1643'> +2.9238520E+03 </wgt>
<wgt id='1644'> +2.9105866E+03 </wgt>
<wgt id='1645'> +2.9236138E+03 </wgt>
<wgt id='1646'> +2.9236320E+03 </wgt>
<wgt id='1647'> +2.9386983E+03 </wgt>
<wgt id='1648'> +2.9301940E+03 </wgt>
<wgt id='1649'> +2.9221875E+03 </wgt>
<wgt id='1650'> +2.9309872E+03 </wgt>
<wgt id='1651'> +2.9183900E+03 </wgt>
<wgt id='1652'> +2.9418490E+03 </wgt>
<wgt id='1653'> +2.9410046E+03 </wgt>
<wgt id='1654'> +2.9203889E+03 </wgt>
<wgt id='1655'> +2.9258389E+03 </wgt>
<wgt id='1656'> +2.9106097E+03 </wgt>
<wgt id='1657'> +2.9193331E+03 </wgt>
<wgt id='1658'> +2.9296331E+03 </wgt>
<wgt id='1659'> +2.9289427E+03 </wgt>
<wgt id='1660'> +2.9238680E+03 </wgt>
<wgt id='1661'> +2.9243878E+03 </wgt>
<wgt id='1662'> +2.9177518E+03 </wgt>
<wgt id='1663'> +2.9202152E+03 </wgt>
<wgt id='1664'> +2.9198918E+03 </wgt>
<wgt id='1665'> +2.9267277E+03 </wgt>
<wgt id='1666'> +2.9268207E+03 </wgt>
<wgt id='1667'> +2.9233455E+03 </wgt>
<wgt id='1668'> +2.9206176E+03 </wgt>
<wgt id='1669'> +2.9267532E+03 </wgt>
<wgt id='1670'> +2.9185623E+03 </wgt>
<wgt id='1671'> +2.9317501E+03 </wgt>
<wgt id='1672'> +2.9288846E+03 </wgt>
<wgt id='1673'> +2.9244196E+03 </wgt>
<wgt id='1674'> +2.9256999E+03 </wgt>
<wgt id='1675'> +2.9208972E+03 </wgt>
<wgt id='1676'> +2.9320583E+03 </wgt>
<wgt id='1677'> +2.9213663E+03 </wgt>
<wgt id='1678'> +2.9278861E+03 </wgt>
<wgt id='1679'> +2.9221878E+03 </wgt>
<wgt id='1680'> +2.9203279E+03 </wgt>
<wgt id='1681'> +2.9229131E+03 </wgt>
<wgt id='1682'> +2.9241095E+03 </wgt>
<wgt id='1683'> +2.9261569E+03 </wgt>
<wgt id='1684'> +2.9237821E+03 </wgt>
<wgt id='1685'> +2.9234496E+03 </wgt>
<wgt id='1686'> +2.9289109E+03 </wgt>
<wgt id='1687'> +2.9234196E+03 </wgt>
<wgt id='1688'> +2.9246293E+03 </wgt>
<wgt id='1689'> +2.9234688E+03 </wgt>
<wgt id='1690'> +2.9267080E+03 </wgt>
<wgt id='1691'> +2.9260636E+03 </wgt>
<wgt id='1692'> +2.9261030E+03 </wgt>
<wgt id='1693'> +2.9254016E+03 </wgt>
<wgt id='1694'> +2.9247831E+03 </wgt>
<wgt id='1695'> +2.9282649E+03 </wgt>
<wgt id='1696'> +2.9231720E+03 </wgt>
<wgt id='1697'> +2.9254707E+03 </wgt>
<wgt id='1698'> +2.9231233E+03 </wgt>
<wgt id='1699'> +2.9232291E+03 </wgt>
<wgt id='1700'> +2.9264215E+03 </wgt>
<wgt id='1701'> +2.9263526E+03 </wgt>
<wgt id='1702'> +2.9225678E+03 </wgt>
<wgt id='1703'> +2.9254604E+03 </wgt>
<wgt id='1704'> +2.9239857E+03 </wgt>
<wgt id='1705'> +2.9271879E+03 </wgt>
<wgt id='1706'> +2.9243241E+03 </wgt>
<wgt id='1707'> +2.9236487E+03 </wgt>
<wgt id='1708'> +2.9257575E+03 </wgt>
<wgt id='1709'> +2.9251781E+03 </wgt>
<wgt id='1710'> +2.9251798E+03 </wgt>
<wgt id='1711'> +2.9263422E+03 </wgt>
<wgt id='1712'> +2.9258375E+03 </wgt>
<wgt id='1713'> +2.9256169E+03 </wgt>
<wgt id='1714'> +2.9244481E+03 </wgt>
<wgt id='1715'> +2.9255340E+03 </wgt>
<wgt id='1716'> +2.8450569E+03 </wgt>
<wgt id='1717'> +3.0032311E+03 </wgt>
<wgt id='1718'> +2.9482419E+03 </wgt>
<wgt id='1719'> +2.9294293E+03 </wgt>
<wgt id='1720'> +2.9186614E+03 </wgt>
<wgt id='1721'> +2.9474108E+03 </wgt>
<wgt id='1722'> +2.9883899E+03 </wgt>
<wgt id='1723'> +2.9601736E+03 </wgt>
<wgt id='1724'> +2.9780325E+03 </wgt>
<wgt id='1725'> +2.9449676E+03 </wgt>
<wgt id='1726'> +2.9478004E+03 </wgt>
<wgt id='1727'> +2.9589337E+03 </wgt>
<wgt id='1728'> +2.9458824E+03 </wgt>
<wgt id='1729'> +2.9606198E+03 </wgt>
<wgt id='1730'> +2.9521133E+03 </wgt>
<wgt id='1731'> +2.9435354E+03 </wgt>
<wgt id='1732'> +2.9387541E+03 </wgt>
<wgt id='1733'> +2.9578266E+03 </wgt>
<wgt id='1734'> +2.9622233E+03 </wgt>
<wgt id='1735'> +2.8999982E+03 </wgt>
<wgt id='1736'> +2.9445913E+03 </wgt>
<wgt id='1737'> +2.9528849E+03 </wgt>
<wgt id='1738'> +2.9536023E+03 </wgt>
<wgt id='1739'> +2.9470337E+03 </wgt>
<wgt id='1740'> +2.9411008E+03 </wgt>
<wgt id='1741'> +2.9500617E+03 </wgt>
<wgt id='1742'> +2.9413809E+03 </wgt>
<wgt id='1743'> +2.9503130E+03 </wgt>
<wgt id='1744'> +2.9064583E+03 </wgt>
<wgt id='1745'> +2.9495606E+03 </wgt>
<wgt id='1746'> +2.9478840E+03 </wgt>
<wgt id='1747'> +2.9501116E+03 </wgt>
<wgt id='1748'> +2.9478299E+03 </wgt>
<wgt id='1749'> +2.8574632E+03 </wgt>
<wgt id='1750'> +3.0295043E+03 </wgt>
<wgt id='1751'> +2.9256457E+03 </wgt>
<wgt id='1752'> +2.9488345E+03 </wgt>
<wgt id='1753'> +2.9465476E+03 </wgt>
<wgt id='1754'> +2.9231255E+03 </wgt>
<wgt id='1755'> +2.9111930E+03 </wgt>
<wgt id='1756'> +2.9017417E+03 </wgt>
<wgt id='1757'> +2.9274242E+03 </wgt>
<wgt id='1758'> +2.9250856E+03 </wgt>
<wgt id='1759'> +2.9227898E+03 </wgt>
<wgt id='1760'> +2.9119506E+03 </wgt>
<wgt id='1761'> +2.9612420E+03 </wgt>
<wgt id='1762'> +2.9354596E+03 </wgt>
<wgt id='1763'> +2.9266312E+03 </wgt>
<wgt id='1764'> +2.9215344E+03 </wgt>
<wgt id='1765'> +2.9207842E+03 </wgt>
<wgt id='1766'> +2.9111623E+03 </wgt>
<wgt id='1767'> +2.9212105E+03 </wgt>
<wgt id='1768'> +2.9179654E+03 </wgt>
<wgt id='1769'> +2.9268460E+03 </wgt>
<wgt id='1770'> +2.9367569E+03 </wgt>
<wgt id='1771'> +2.9224310E+03 </wgt>
<wgt id='1772'> +2.8835505E+03 </wgt>
<wgt id='1773'> +2.9348116E+03 </wgt>
<wgt id='1774'> +2.9242913E+03 </wgt>
<wgt id='1775'> +2.9220682E+03 </wgt>
<wgt id='1776'> +2.9251284E+03 </wgt>
<wgt id='1777'> +2.9261453E+03 </wgt>
<wgt id='1778'> +2.9256354E+03 </wgt>
<wgt id='1779'> +2.9223650E+03 </wgt>
<wgt id='1780'> +2.9240524E+03 </wgt>
<wgt id='1781'> +2.9251670E+03 </wgt>
<wgt id='1782'> +2.8450569E+03 </wgt>
<wgt id='1783'> +3.0032311E+03 </wgt>
<wgt id='1784'> +3.0481146E+03 </wgt>
<wgt id='1785'> +3.0486172E+03 </wgt>
<wgt id='1786'> +3.0476069E+03 </wgt>
<wgt id='1787'> +3.0522464E+03 </wgt>
<wgt id='1788'> +3.0439732E+03 </wgt>
<wgt id='1789'> +3.0495052E+03 </wgt>
<wgt id='1790'> +3.0467172E+03 </wgt>
<wgt id='1791'> +3.0379289E+03 </wgt>
<wgt id='1792'> +3.0582263E+03 </wgt>
<wgt id='1793'> +3.0307063E+03 </wgt>
<wgt id='1794'> +3.0641648E+03 </wgt>
<wgt id='1795'> +3.0603328E+03 </wgt>
<wgt id='1796'> +3.0340210E+03 </wgt>
<wgt id='1797'> +3.0496942E+03 </wgt>
<wgt id='1798'> +3.0464024E+03 </wgt>
<wgt id='1799'> +3.0679843E+03 </wgt>
<wgt id='1800'> +3.0327983E+03 </wgt>
<wgt id='1801'> +3.0623921E+03 </wgt>
<wgt id='1802'> +3.0284253E+03 </wgt>
<wgt id='1803'> +2.9900487E+03 </wgt>
<wgt id='1804'> +3.1055133E+03 </wgt>
<wgt id='1805'> +2.9949228E+03 </wgt>
<wgt id='1806'> +3.0971656E+03 </wgt>
<wgt id='1807'> +3.0116149E+03 </wgt>
<wgt id='1808'> +3.0722746E+03 </wgt>
<wgt id='1809'> +3.0810472E+03 </wgt>
<wgt id='1810'> +3.0177855E+03 </wgt>
<wgt id='1811'> +3.0410629E+03 </wgt>
<wgt id='1812'> +3.0571655E+03 </wgt>
<wgt id='1813'> +3.0481146E+03 </wgt>
<wgt id='1814'> +3.1224528E+03 </wgt>
<wgt id='1815'> +2.9745271E+03 </wgt>
<wgt id='1816'> +3.3279898E+03 </wgt>
<wgt id='1817'> +3.3157335E+03 </wgt>
<wgt id='1818'> +3.0806640E+03 </wgt>
<wgt id='1819'> +3.0364709E+03 </wgt>
<wgt id='1820'> +3.0436609E+03 </wgt>
<wgt id='1821'> +3.0514419E+03 </wgt>
<wgt id='1822'> +3.0359176E+03 </wgt>
<wgt id='1823'> +3.0601933E+03 </wgt>
<wgt id='1824'> +3.0394166E+03 </wgt>
<wgt id='1825'> +3.0669041E+03 </wgt>
<wgt id='1826'> +3.0970270E+03 </wgt>
<wgt id='1827'> +3.0592787E+03 </wgt>
<wgt id='1828'> +3.0596649E+03 </wgt>
<wgt id='1829'> +3.0577929E+03 </wgt>
<wgt id='1830'> +3.0633790E+03 </wgt>
<wgt id='1831'> +3.0540637E+03 </wgt>
<wgt id='1832'> +3.0632729E+03 </wgt>
<wgt id='1833'> +3.0541885E+03 </wgt>
<wgt id='1834'> +3.0520997E+03 </wgt>
<wgt id='1835'> +3.0651656E+03 </wgt>
<wgt id='1836'> +3.0614814E+03 </wgt>
<wgt id='1837'> +3.0556849E+03 </wgt>
<wgt id='1838'> +3.0422568E+03 </wgt>
<wgt id='1839'> +3.0738419E+03 </wgt>
<wgt id='1840'> +3.0584456E+03 </wgt>
<wgt id='1841'> +3.0592103E+03 </wgt>
<wgt id='1842'> +3.0608442E+03 </wgt>
<wgt id='1843'> +3.0644051E+03 </wgt>
<wgt id='1844'> +3.0368425E+03 </wgt>
<wgt id='1845'> +3.0797342E+03 </wgt>
<wgt id='1846'> +3.0047689E+03 </wgt>
<wgt id='1847'> +3.1096575E+03 </wgt>
<wgt id='1848'> +3.0599555E+03 </wgt>
<wgt id='1849'> +3.0535531E+03 </wgt>
<wgt id='1850'> +3.0854057E+03 </wgt>
<wgt id='1851'> +3.0334385E+03 </wgt>
<wgt id='1852'> +3.0759452E+03 </wgt>
<wgt id='1853'> +3.0433769E+03 </wgt>
<wgt id='1854'> +3.0639933E+03 </wgt>
<wgt id='1855'> +3.0586166E+03 </wgt>
<wgt id='1856'> +3.0544807E+03 </wgt>
<wgt id='1857'> +3.1165293E+03 </wgt>
<wgt id='1858'> +2.9572544E+03 </wgt>
<wgt id='1859'> +3.2709418E+03 </wgt>
<wgt id='1860'> +3.2316395E+03 </wgt>
<wgt id='1861'> +3.1629834E+03 </wgt>
<wgt id='1862'> +3.0102413E+03 </wgt>
<wgt id='1863'> +3.0499369E+03 </wgt>
<wgt id='1864'> +3.0557533E+03 </wgt>
<wgt id='1865'> +3.0028142E+03 </wgt>
<wgt id='1866'> +3.1515307E+03 </wgt>
<wgt id='1867'> +3.0050603E+03 </wgt>
<wgt id='1868'> +3.0678519E+03 </wgt>
<wgt id='1869'> +2.9586861E+03 </wgt>
<wgt id='1870'> +3.0070856E+03 </wgt>
<wgt id='1871'> +3.0062832E+03 </wgt>
<wgt id='1872'> +3.0054829E+03 </wgt>
<wgt id='1873'> +3.0046818E+03 </wgt>
<wgt id='1874'> +3.0038898E+03 </wgt>
<wgt id='1875'> +3.0030933E+03 </wgt>
<wgt id='1876'> +3.0022888E+03 </wgt>
<wgt id='1877'> +3.0014978E+03 </wgt>
<wgt id='1878'> +3.0006907E+03 </wgt>
<wgt id='1879'> +2.9998948E+03 </wgt>
<wgt id='1880'> +2.9990910E+03 </wgt>
<wgt id='1881'> +2.9982997E+03 </wgt>
<wgt id='1882'> +2.9975035E+03 </wgt>
<wgt id='1883'> +2.9967000E+03 </wgt>
<wgt id='1884'> +2.9959094E+03 </wgt>
<wgt id='1885'> +2.9951029E+03 </wgt>
<wgt id='1886'> +2.9943082E+03 </wgt>
<wgt id='1887'> +2.9935135E+03 </wgt>
<wgt id='1888'> +2.9927146E+03 </wgt>
<wgt id='1889'> +2.9919189E+03 </wgt>
<wgt id='1890'> +2.9911257E+03 </wgt>
<wgt id='1891'> +2.9903270E+03 </wgt>
<wgt id='1892'> +2.9895276E+03 </wgt>
<wgt id='1893'> +2.9887253E+03 </wgt>
<wgt id='1894'> +2.9879360E+03 </wgt>
<wgt id='1895'> +2.9871342E+03 </wgt>
<wgt id='1896'> +2.9863387E+03 </wgt>
<wgt id='1897'> +2.9855460E+03 </wgt>
<wgt id='1898'> +2.9847483E+03 </wgt>
<wgt id='1899'> +2.9839534E+03 </wgt>
<wgt id='1900'> +2.9831547E+03 </wgt>
<wgt id='1901'> +2.9062040E+03 </wgt>
<wgt id='1902'> +2.9127603E+03 </wgt>
<wgt id='1903'> +2.8989357E+03 </wgt>
<wgt id='1904'> +2.9105325E+03 </wgt>
<wgt id='1905'> +2.9061730E+03 </wgt>
<wgt id='1906'> +2.9002419E+03 </wgt>
<wgt id='1907'> +2.9210187E+03 </wgt>
<wgt id='1908'> +2.9326992E+03 </wgt>
<wgt id='1909'> +2.9155980E+03 </wgt>
<wgt id='1910'> +2.8980098E+03 </wgt>
<wgt id='1911'> +2.9145614E+03 </wgt>
<wgt id='1912'> +2.9167710E+03 </wgt>
<wgt id='1913'> +2.8868177E+03 </wgt>
<wgt id='1914'> +2.9019701E+03 </wgt>
<wgt id='1915'> +2.8857968E+03 </wgt>
<wgt id='1916'> +2.9276678E+03 </wgt>
<wgt id='1917'> +2.9009654E+03 </wgt>
<wgt id='1918'> +2.9098515E+03 </wgt>
<wgt id='1919'> +2.9090326E+03 </wgt>
<wgt id='1920'> +2.8873144E+03 </wgt>
<wgt id='1921'> +2.9096839E+03 </wgt>
<wgt id='1922'> +2.9096410E+03 </wgt>
<wgt id='1923'> +2.8820659E+03 </wgt>
<wgt id='1924'> +2.9100437E+03 </wgt>
<wgt id='1925'> +2.9140418E+03 </wgt>
<wgt id='1926'> +2.8990315E+03 </wgt>
<wgt id='1927'> +2.8949329E+03 </wgt>
<wgt id='1928'> +2.9143323E+03 </wgt>
<wgt id='1929'> +2.9048457E+03 </wgt>
<wgt id='1930'> +2.8916303E+03 </wgt>
<wgt id='1931'> +2.9045452E+03 </wgt>
<wgt id='1932'> +2.9045853E+03 </wgt>
<wgt id='1933'> +2.9195516E+03 </wgt>
<wgt id='1934'> +2.9111067E+03 </wgt>
<wgt id='1935'> +2.9031684E+03 </wgt>
<wgt id='1936'> +2.9119004E+03 </wgt>
<wgt id='1937'> +2.8994041E+03 </wgt>
<wgt id='1938'> +2.9227019E+03 </wgt>
<wgt id='1939'> +2.9218865E+03 </wgt>
<wgt id='1940'> +2.9013422E+03 </wgt>
<wgt id='1941'> +2.9067913E+03 </wgt>
<wgt id='1942'> +2.8916541E+03 </wgt>
<wgt id='1943'> +2.9003457E+03 </wgt>
<wgt id='1944'> +2.9105603E+03 </wgt>
<wgt id='1945'> +2.9098849E+03 </wgt>
<wgt id='1946'> +2.9048302E+03 </wgt>
<wgt id='1947'> +2.9053562E+03 </wgt>
<wgt id='1948'> +2.8987492E+03 </wgt>
<wgt id='1949'> +2.9012116E+03 </wgt>
<wgt id='1950'> +2.9008759E+03 </wgt>
<wgt id='1951'> +2.9076672E+03 </wgt>
<wgt id='1952'> +2.9077676E+03 </wgt>
<wgt id='1953'> +2.9043148E+03 </wgt>
<wgt id='1954'> +2.9015869E+03 </wgt>
<wgt id='1955'> +2.9076940E+03 </wgt>
<wgt id='1956'> +2.8995626E+03 </wgt>
<wgt id='1957'> +2.9126412E+03 </wgt>
<wgt id='1958'> +2.9098138E+03 </wgt>
<wgt id='1959'> +2.9053729E+03 </wgt>
<wgt id='1960'> +2.9066638E+03 </wgt>
<wgt id='1961'> +2.9018982E+03 </wgt>
<wgt id='1962'> +2.9129643E+03 </wgt>
<wgt id='1963'> +2.9023425E+03 </wgt>
<wgt id='1964'> +2.9088136E+03 </wgt>
<wgt id='1965'> +2.9031805E+03 </wgt>
<wgt id='1966'> +2.9012859E+03 </wgt>
<wgt id='1967'> +2.9038627E+03 </wgt>
<wgt id='1968'> +2.9050588E+03 </wgt>
<wgt id='1969'> +2.9071127E+03 </wgt>
<wgt id='1970'> +2.9047443E+03 </wgt>
<wgt id='1971'> +2.9044145E+03 </wgt>
<wgt id='1972'> +2.9098524E+03 </wgt>
<wgt id='1973'> +2.9043744E+03 </wgt>
<wgt id='1974'> +2.9055786E+03 </wgt>
<wgt id='1975'> +2.9044394E+03 </wgt>
<wgt id='1976'> +2.9076600E+03 </wgt>
<wgt id='1977'> +2.9070177E+03 </wgt>
<wgt id='1978'> +2.9070548E+03 </wgt>
<wgt id='1979'> +2.9063586E+03 </wgt>
<wgt id='1980'> +2.9057354E+03 </wgt>
<wgt id='1981'> +2.9091968E+03 </wgt>
<wgt id='1982'> +2.9041443E+03 </wgt>
<wgt id='1983'> +2.9064270E+03 </wgt>
<wgt id='1984'> +2.9040943E+03 </wgt>
<wgt id='1985'> +2.9041937E+03 </wgt>
<wgt id='1986'> +2.9073615E+03 </wgt>
<wgt id='1987'> +2.9073081E+03 </wgt>
<wgt id='1988'> +2.9035329E+03 </wgt>
<wgt id='1989'> +2.9064157E+03 </wgt>
<wgt id='1990'> +2.9049429E+03 </wgt>
<wgt id='1991'> +2.9081375E+03 </wgt>
<wgt id='1992'> +2.9052784E+03 </wgt>
<wgt id='1993'> +2.9045974E+03 </wgt>
<wgt id='1994'> +2.9067147E+03 </wgt>
<wgt id='1995'> +2.9061213E+03 </wgt>
<wgt id='1996'> +2.9061324E+03 </wgt>
<wgt id='1997'> +2.9072859E+03 </wgt>
<wgt id='1998'> +2.9067969E+03 </wgt>
<wgt id='1999'> +2.9065668E+03 </wgt>
<wgt id='2000'> +2.9054091E+03 </wgt>
<wgt id='2001'> +2.9064797E+03 </wgt>
<wgt id='2002'> +2.9061851E+03 </wgt>
<wgt id='2003'> +2.9060790E+03 </wgt>
<wgt id='2004'> +2.9062240E+03 </wgt>
<wgt id='2005'> +2.9062272E+03 </wgt>
<wgt id='2006'> +2.9062619E+03 </wgt>
<wgt id='2007'> +2.9062124E+03 </wgt>
<wgt id='2008'> +2.9061206E+03 </wgt>
<wgt id='2009'> +2.8905990E+03 </wgt>
<wgt id='2010'> +2.7725519E+03 </wgt>
<wgt id='2011'> +2.8649126E+03 </wgt>
<wgt id='2012'> +2.8855229E+03 </wgt>
<wgt id='2013'> +2.9537975E+03 </wgt>
<wgt id='2014'> +2.7080116E+03 </wgt>
<wgt id='2015'> +2.9130783E+03 </wgt>
<wgt id='2016'> +2.9341045E+03 </wgt>
<wgt id='2017'> +2.8911137E+03 </wgt>
<wgt id='2018'> +2.8856622E+03 </wgt>
<wgt id='2019'> +2.9543591E+03 </wgt>
<wgt id='2020'> +3.0368346E+03 </wgt>
<wgt id='2021'> +2.8396434E+03 </wgt>
<wgt id='2022'> +2.9150723E+03 </wgt>
<wgt id='2023'> +2.9009640E+03 </wgt>
<wgt id='2024'> +2.8939440E+03 </wgt>
<wgt id='2025'> +2.8092783E+03 </wgt>
<wgt id='2026'> +2.7990386E+03 </wgt>
<wgt id='2027'> +2.6742873E+03 </wgt>
<wgt id='2028'> +2.9074619E+03 </wgt>
<wgt id='2029'> +2.9019561E+03 </wgt>
<wgt id='2030'> +3.0185297E+03 </wgt>
<wgt id='2031'> +2.9845642E+03 </wgt>
<wgt id='2032'> +2.9699302E+03 </wgt>
<wgt id='2033'> +2.8916157E+03 </wgt>
<wgt id='2034'> +2.8524710E+03 </wgt>
<wgt id='2035'> +2.8667346E+03 </wgt>
<wgt id='2036'> +2.7496377E+03 </wgt>
<wgt id='2037'> +2.8789843E+03 </wgt>
<wgt id='2038'> +2.8746682E+03 </wgt>
<wgt id='2039'> +2.8716884E+03 </wgt>
<wgt id='2040'> +2.9066121E+03 </wgt>
<wgt id='2041'> +3.0145995E+03 </wgt>
<wgt id='2042'> +2.9586108E+03 </wgt>
<wgt id='2043'> +2.9060202E+03 </wgt>
<wgt id='2044'> +2.9227595E+03 </wgt>
<wgt id='2045'> +2.8042002E+03 </wgt>
<wgt id='2046'> +2.8139843E+03 </wgt>
<wgt id='2047'> +2.8891159E+03 </wgt>
<wgt id='2048'> +2.8323982E+03 </wgt>
<wgt id='2049'> +2.9219321E+03 </wgt>
<wgt id='2050'> +2.9763181E+03 </wgt>
<wgt id='2051'> +2.9135380E+03 </wgt>
<wgt id='2052'> +2.9396815E+03 </wgt>
<wgt id='2053'> +2.9110259E+03 </wgt>
<wgt id='2054'> +2.9837060E+03 </wgt>
<wgt id='2055'> +2.8788428E+03 </wgt>
<wgt id='2056'> +2.8790485E+03 </wgt>
<wgt id='2057'> +2.8669630E+03 </wgt>
<wgt id='2058'> +2.8230037E+03 </wgt>
<wgt id='2059'> +2.9202198E+03 </wgt>
<wgt id='2060'> +2.9507712E+03 </wgt>
<wgt id='2061'> +2.9150044E+03 </wgt>
<wgt id='2062'> +2.8597626E+03 </wgt>
<wgt id='2063'> +2.9466719E+03 </wgt>
<wgt id='2064'> +2.9286629E+03 </wgt>
<wgt id='2065'> +2.7933543E+03 </wgt>
<wgt id='2066'> +2.8118062E+03 </wgt>
<wgt id='2067'> +2.9432017E+03 </wgt>
<wgt id='2068'> +2.8211364E+03 </wgt>
<wgt id='2069'> +2.9374477E+03 </wgt>
<wgt id='2070'> +2.8727782E+03 </wgt>
<wgt id='2071'> +2.8790579E+03 </wgt>
<wgt id='2072'> +2.8451300E+03 </wgt>
<wgt id='2073'> +2.7112473E+03 </wgt>
<wgt id='2074'> +2.9187535E+03 </wgt>
<wgt id='2075'> +2.8794829E+03 </wgt>
<wgt id='2076'> +3.1345967E+03 </wgt>
<wgt id='2077'> +2.9043788E+03 </wgt>
<wgt id='2078'> +2.8599849E+03 </wgt>
<wgt id='2079'> +2.9364207E+03 </wgt>
<wgt id='2080'> +2.9364739E+03 </wgt>
<wgt id='2081'> +2.8825833E+03 </wgt>
<wgt id='2082'> +2.9043422E+03 </wgt>
<wgt id='2083'> +2.9346558E+03 </wgt>
<wgt id='2084'> +2.8739394E+03 </wgt>
<wgt id='2085'> +3.0156494E+03 </wgt>
<wgt id='2086'> +2.9223384E+03 </wgt>
<wgt id='2087'> +2.9582950E+03 </wgt>
<wgt id='2088'> +2.9065141E+03 </wgt>
<wgt id='2089'> +2.9021170E+03 </wgt>
<wgt id='2090'> +2.9662534E+03 </wgt>
<wgt id='2091'> +2.9202304E+03 </wgt>
<wgt id='2092'> +2.8706422E+03 </wgt>
<wgt id='2093'> +2.8728437E+03 </wgt>
<wgt id='2094'> +2.8977809E+03 </wgt>
<wgt id='2095'> +2.8732791E+03 </wgt>
<wgt id='2096'> +2.9853272E+03 </wgt>
<wgt id='2097'> +2.9177405E+03 </wgt>
<wgt id='2098'> +2.8174565E+03 </wgt>
<wgt id='2099'> +2.8932263E+03 </wgt>
<wgt id='2100'> +2.8856282E+03 </wgt>
<wgt id='2101'> +2.8981676E+03 </wgt>
<wgt id='2102'> +2.8275770E+03 </wgt>
<wgt id='2103'> +2.9511367E+03 </wgt>
<wgt id='2104'> +2.7605480E+03 </wgt>
<wgt id='2105'> +2.9029071E+03 </wgt>
<wgt id='2106'> +2.7837858E+03 </wgt>
<wgt id='2107'> +2.9138824E+03 </wgt>
<wgt id='2108'> +2.8696085E+03 </wgt>
<wgt id='2109'> +2.7094329E+03 </wgt>
<wgt id='2110'> +2.8401905E+03 </wgt>
<wgt id='2111'> +2.9499524E+03 </wgt>
<wgt id='2112'> +2.9175008E+03 </wgt>
<wgt id='2113'> +3.4740472E+03 </wgt>
<wgt id='2114'> +4.4249034E+03 </wgt>
<wgt id='2115'> +3.2983631E+03 </wgt>
<wgt id='2116'> +4.4994832E+03 </wgt>
</rwgt>
</event>
<event>
 5      0 +2.9771057E+03 7.91557500e+01 7.54677100e-03 1.20582100e-01
        2 -1    0    0  501    0 +0.0000000000e+00 +0.0000000000e+00 +8.6630630803e+00 8.6630630803e+00 0.0000000000e+00 0.0000e+00 -1.0000e+00
       -1 -1    0    0    0  501 -0.0000000000e+00 -0.0000000000e+00 -1.8081460866e+02 1.8081460866e+02 0.0000000000e+00 0.0000e+00 1.0000e+00
       24  2    1    2    0    0 +0.0000000000e+00 +0.0000000000e+00 -1.7215154558e+02 1.8947767174e+02 7.9155754325e+01 0.0000e+00 0.0000e+00
      -11  1    3    3    0    0 +3.8479017389e+01 +3.8658307410e+00 -1.0622140499e+02 1.1304232086e+02 0.0000000000e+00 0.0000e+00 1.0000e+00
       12  1    3    3    0    0 -3.8479017389e+01 -3.8658307410e+00 -6.5930140588e+01 7.6435350882e+01 0.0000000000e+00 0.0000e+00 -1.0000e+00
<scales pt_clust_4="13000.00000" pt_clust_5="13000.00000"></scales>
<mgrwt>
<rscale>  0 0.79155754E+02</rscale>
<asrwt>0</asrwt>
<pdfrwt beam="1">  1        2 0.13327789E-02 0.79155754E+02</pdfrwt>
<pdfrwt beam="2">  1       -1 0.27817632E-01 0.79155754E+02</pdfrwt>
<totfact> 0.12917826E+05</totfact>
</mgrwt>
<clustering>
<clus scale="   79.156">  4  5 -1 -1</clus>
<clus scale="   79.156">  1  4  2 -1</clus>
</clustering>
<rwgt>
<wgt id='1001'> +2.9771057E+03 </wgt>
<wgt id='1002'> +2.9656458E+03 </wgt>
<wgt id='1003'> +2.9656458E+03 </wgt>
<wgt id='1004'> +2.6066518E+03 </wgt>
<wgt id='1005'> +2.9771057E+03 </wgt>
<wgt id='1006'> +2.9771057E+03 </wgt>
<wgt id='1007'> +2.9656458E+03 </wgt>
<wgt id='1008'> +2.9656458E+03 </wgt>
<wgt id='1009'> +2.6066518E+03 </wgt>
<wgt id='1010'> +2.9771057E+03 </wgt>
<wgt id='1011'> +2.9771057E+03 </wgt>
<wgt id='1012'> +2.9656458E+03 </wgt>
<wgt id='1013'> +2.9656458E+03 </wgt>
<wgt id='1014'> +2.6066518E+03 </wgt>
<wgt id='1015'> +2.9771057E+03 </wgt>
<wgt id='1016'> +3.3041390E+03 </wgt>
<wgt id='1017'> +3.2937056E+03 </wgt>
<wgt id='1018'> +3.2937056E+03 </wgt>
<wgt id='1019'> +2.9656458E+03 </wgt>
<wgt id='1020'> +3.3041390E+03 </wgt>
<wgt id='1021'> +3.3041390E+03 </wgt>
<wgt id='1022'> +3.2937056E+03 </wgt>
<wgt id='1023'> +3.2937056E+03 </wgt>
<wgt id='1024'> +2.9656458E+03 </wgt>
<wgt id='1025'> +3.3041390E+03 </wgt>
<wgt id='1026'> +3.3041390E+03 </wgt>
<wgt id='1027'> +3.2937056E+03 </wgt>
<wgt id='1028'> +3.2937056E+03 </wgt>
<wgt id='1029'> +2.9656458E+03 </wgt>
<wgt id='1030'> +3.3041390E+03 </wgt>
<wgt id='1031'> +2.6191430E+03 </wgt>
<wgt id='1032'> +2.6066518E+03 </wgt>
<wgt id='1033'> +2.6066518E+03 </wgt>
<wgt id='1034'> +2.2163183E+03 </wgt>
<wgt id='1035'> +2.6191430E+03 </wgt>
<wgt id='1036'> +2.6191430E+03 </wgt>
<wgt id='1037'> +2.6066518E+03 </wgt>
<wgt id='1038'> +2.6066518E+03 </wgt>
<wgt id='1039'> +2.2163183E+03 </wgt>
<wgt id='1040'> +2.6191430E+03 </wgt>
<wgt id='1041'> +2.6191430E+03 </wgt>
<wgt id='1042'> +2.6066518E+03 </wgt>
<wgt id='1043'> +2.6066518E+03 </wgt>
<wgt id='1044'> +2.2163183E+03 </wgt>
<wgt id='1045'> +2.6191430E+03 </wgt>
<wgt id='1046'> +2.9771057E+03 </wgt>
<wgt id='1047'> +2.9715545E+03 </wgt>
<wgt id='1048'> +2.9834528E+03 </wgt>
<wgt id='1049'> +2.9750686E+03 </wgt>
<wgt id='1050'> +2.9968629E+03 </wgt>
<wgt id='1051'> +2.9816765E+03 </wgt>
<wgt id='1052'> +2.9694069E+03 </wgt>
<wgt id='1053'> +2.9821860E+03 </wgt>
<wgt id='1054'> +2.9786852E+03 </wgt>
<wgt id='1055'> +3.0019545E+03 </wgt>
<wgt id='1056'> +2.9565508E+03 </wgt>
<wgt id='1057'> +2.9703973E+03 </wgt>
<wgt id='1058'> +2.9974947E+03 </wgt>
<wgt id='1059'> +2.9695541E+03 </wgt>
<wgt id='1060'> +3.0038708E+03 </wgt>
<wgt id='1061'> +2.9828938E+03 </wgt>
<wgt id='1062'> +3.0007724E+03 </wgt>
<wgt id='1063'> +2.9625294E+03 </wgt>
<wgt id='1064'> +2.9658606E+03 </wgt>
<wgt id='1065'> +2.9878765E+03 </wgt>
<wgt id='1066'> +2.9793557E+03 </wgt>
<wgt id='1067'> +3.0006733E+03 </wgt>
<wgt id='1068'> +2.9825884E+03 </wgt>
<wgt id='1069'> +2.9631302E+03 </wgt>
<wgt id='1070'> +2.9699626E+03 </wgt>
<wgt id='1071'> +2.9879749E+03 </wgt>
<wgt id='1072'> +2.9494700E+03 </wgt>
<wgt id='1073'> +2.9696400E+03 </wgt>
<wgt id='1074'> +2.9795001E+03 </wgt>
<wgt id='1075'> +2.9773602E+03 </wgt>
<wgt id='1076'> +2.9532831E+03 </wgt>
<wgt id='1077'> +2.9959414E+03 </wgt>
<wgt id='1078'> +2.9839546E+03 </wgt>
<wgt id='1079'> +2.9955659E+03 </wgt>
<wgt id='1080'> +2.9720332E+03 </wgt>
<wgt id='1081'> +3.0082903E+03 </wgt>
<wgt id='1082'> +2.9852068E+03 </wgt>
<wgt id='1083'> +2.9508945E+03 </wgt>
<wgt id='1084'> +2.9905884E+03 </wgt>
<wgt id='1085'> +2.9654841E+03 </wgt>
<wgt id='1086'> +2.9759541E+03 </wgt>
<wgt id='1087'> +2.9753553E+03 </wgt>
<wgt id='1088'> +2.9824363E+03 </wgt>
<wgt id='1089'> +2.9778974E+03 </wgt>
<wgt id='1090'> +2.9829886E+03 </wgt>
<wgt id='1091'> +2.9703645E+03 </wgt>
<wgt id='1092'> +2.9678908E+03 </wgt>
<wgt id='1093'> +2.9683868E+03 </wgt>
<wgt id='1094'> +2.9809660E+03 </wgt>
<wgt id='1095'> +2.9826103E+03 </wgt>
<wgt id='1096'> +2.9834968E+03 </wgt>
<wgt id='1097'> +2.9793847E+03 </wgt>
<wgt id='1098'> +2.9762563E+03 </wgt>
<wgt id='1099'> +2.9789033E+03 </wgt>
<wgt id='1100'> +2.9805299E+03 </wgt>
<wgt id='1101'> +2.9805104E+03 </wgt>
<wgt id='1102'> +2.9765079E+03 </wgt>
<wgt id='1103'> +2.9737789E+03 </wgt>
<wgt id='1104'> +2.9763956E+03 </wgt>
<wgt id='1105'> +2.9788135E+03 </wgt>
<wgt id='1106'> +2.9746691E+03 </wgt>
<wgt id='1107'> +2.9751321E+03 </wgt>
<wgt id='1108'> +2.9789894E+03 </wgt>
<wgt id='1109'> +2.9771185E+03 </wgt>
<wgt id='1110'> +2.9726108E+03 </wgt>
<wgt id='1111'> +2.9827602E+03 </wgt>
<wgt id='1112'> +2.9749630E+03 </wgt>
<wgt id='1113'> +2.9743310E+03 </wgt>
<wgt id='1114'> +2.9779129E+03 </wgt>
<wgt id='1115'> +2.9709948E+03 </wgt>
<wgt id='1116'> +2.9817413E+03 </wgt>
<wgt id='1117'> +2.9690313E+03 </wgt>
<wgt id='1118'> +2.9788226E+03 </wgt>
<wgt id='1119'> +2.9738577E+03 </wgt>
<wgt id='1120'> +2.9771977E+03 </wgt>
<wgt id='1121'> +2.9725395E+03 </wgt>
<wgt id='1122'> +2.9725257E+03 </wgt>
<wgt id='1123'> +2.9738552E+03 </wgt>
<wgt id='1124'> +2.9720081E+03 </wgt>
<wgt id='1125'> +2.9804228E+03 </wgt>
<wgt id='1126'> +2.9747784E+03 </wgt>
<wgt id='1127'> +2.9795523E+03 </wgt>
<wgt id='1128'> +2.9741166E+03 </wgt>
<wgt id='1129'> +2.9770875E+03 </wgt>
<wgt id='1130'> +2.9750560E+03 </wgt>
<wgt id='1131'> +2.9756794E+03 </wgt>
<wgt id='1132'> +2.9743829E+03 </wgt>
<wgt id='1133'> +2.9759413E+03 </wgt>
<wgt id='1134'> +2.9751877E+03 </wgt>
<wgt id='1135'> +2.9760417E+03 </wgt>
<wgt id='1136'> +2.9778475E+03 </wgt>
<wgt id='1137'> +2.9769358E+03 </wgt>
<wgt id='1138'> +2.9744208E+03 </wgt>
<wgt id='1139'> +2.9749770E+03 </wgt>
<wgt id='1140'> +2.9796532E+03 </wgt>
<wgt id='1141'> +2.9767043E+03 </wgt>
<wgt id='1142'> +2.9772996E+03 </wgt>
<wgt id='1143'> +2.9809803E+03 </wgt>
<wgt id='1144'> +2.9784391E+03 </wgt>
<wgt id='1145'> +2.9786493E+03 </wgt>
<wgt id='1146'> +2.9777035E+03 </wgt>
<wgt id='1147'> +2.9818181E+03 </wgt>
<wgt id='1148'> +2.9893440E+03 </wgt>
<wgt id='1149'> +2.9988441E+03 </wgt>
<wgt id='1150'> +2.9738316E+03 </wgt>
<wgt id='1151'> +2.9731319E+03 </wgt>
<wgt id='1152'> +2.9816802E+03 </wgt>
<wgt id='1153'> +2.9700281E+03 </wgt>
<wgt id='1154'> +2.9810453E+03 </wgt>
<wgt id='1155'> +2.9838030E+03 </wgt>
<wgt id='1156'> +2.9913607E+03 </wgt>
<wgt id='1157'> +2.9418276E+03 </wgt>
<wgt id='1158'> +2.9385971E+03 </wgt>
<wgt id='1159'> +2.9444803E+03 </wgt>
<wgt id='1160'> +2.9375034E+03 </wgt>
<wgt id='1161'> +2.9659569E+03 </wgt>
<wgt id='1162'> +2.9390025E+03 </wgt>
<wgt id='1163'> +2.9311979E+03 </wgt>
<wgt id='1164'> +2.9358883E+03 </wgt>
<wgt id='1165'> +2.9291206E+03 </wgt>
<wgt id='1166'> +2.9416927E+03 </wgt>
<wgt id='1167'> +2.9129087E+03 </wgt>
<wgt id='1168'> +2.9406305E+03 </wgt>
<wgt id='1169'> +2.9523872E+03 </wgt>
<wgt id='1170'> +2.9448211E+03 </wgt>
<wgt id='1171'> +2.9614197E+03 </wgt>
<wgt id='1172'> +2.9187158E+03 </wgt>
<wgt id='1173'> +2.9530660E+03 </wgt>
<wgt id='1174'> +2.9333612E+03 </wgt>
<wgt id='1175'> +2.9499234E+03 </wgt>
<wgt id='1176'> +2.9408030E+03 </wgt>
<wgt id='1177'> +2.9303050E+03 </wgt>
<wgt id='1178'> +2.9600993E+03 </wgt>
<wgt id='1179'> +2.9471957E+03 </wgt>
<wgt id='1180'> +2.9472643E+03 </wgt>
<wgt id='1181'> +2.9439093E+03 </wgt>
<wgt id='1182'> +2.9255918E+03 </wgt>
<wgt id='1183'> +2.9346425E+03 </wgt>
<wgt id='1184'> +2.9604259E+03 </wgt>
<wgt id='1185'> +2.9383352E+03 </wgt>
<wgt id='1186'> +2.9497299E+03 </wgt>
<wgt id='1187'> +2.9393898E+03 </wgt>
<wgt id='1188'> +2.9619717E+03 </wgt>
<wgt id='1189'> +2.9182699E+03 </wgt>
<wgt id='1190'> +2.9592566E+03 </wgt>
<wgt id='1191'> +2.9432903E+03 </wgt>
<wgt id='1192'> +2.9334803E+03 </wgt>
<wgt id='1193'> +2.9203599E+03 </wgt>
<wgt id='1194'> +2.9380724E+03 </wgt>
<wgt id='1195'> +2.9204450E+03 </wgt>
<wgt id='1196'> +2.9370665E+03 </wgt>
<wgt id='1197'> +2.9413945E+03 </wgt>
<wgt id='1198'> +2.9196715E+03 </wgt>
<wgt id='1199'> +2.9396342E+03 </wgt>
<wgt id='1200'> +2.9600483E+03 </wgt>
<wgt id='1201'> +2.9313765E+03 </wgt>
<wgt id='1202'> +2.9416140E+03 </wgt>
<wgt id='1203'> +2.9349405E+03 </wgt>
<wgt id='1204'> +2.9493642E+03 </wgt>
<wgt id='1205'> +2.9549596E+03 </wgt>
<wgt id='1206'> +2.9370778E+03 </wgt>
<wgt id='1207'> +2.9492168E+03 </wgt>
<wgt id='1208'> +2.9492748E+03 </wgt>
<wgt id='1209'> +2.9434586E+03 </wgt>
<wgt id='1210'> +2.9448391E+03 </wgt>
<wgt id='1211'> +2.9484366E+03 </wgt>
<wgt id='1212'> +2.9403699E+03 </wgt>
<wgt id='1213'> +2.9418781E+03 </wgt>
<wgt id='1214'> +2.9395557E+03 </wgt>
<wgt id='1215'> +2.9443762E+03 </wgt>
<wgt id='1216'> +2.9440685E+03 </wgt>
<wgt id='1217'> +2.9407454E+03 </wgt>
<wgt id='1218'> +2.9443870E+03 </wgt>
<wgt id='1219'> +2.9455873E+03 </wgt>
<wgt id='1220'> +2.9449474E+03 </wgt>
<wgt id='1221'> +2.9404373E+03 </wgt>
<wgt id='1222'> +2.9439312E+03 </wgt>
<wgt id='1223'> +2.9469062E+03 </wgt>
<wgt id='1224'> +2.9383566E+03 </wgt>
<wgt id='1225'> +2.9367884E+03 </wgt>
<wgt id='1226'> +2.9415906E+03 </wgt>
<wgt id='1227'> +2.9414479E+03 </wgt>
<wgt id='1228'> +2.9390037E+03 </wgt>
<wgt id='1229'> +2.9449658E+03 </wgt>
<wgt id='1230'> +2.9366848E+03 </wgt>
<wgt id='1231'> +2.9446858E+03 </wgt>
<wgt id='1232'> +2.9490430E+03 </wgt>
<wgt id='1233'> +2.9385897E+03 </wgt>
<wgt id='1234'> +2.9438480E+03 </wgt>
<wgt id='1235'> +2.9417703E+03 </wgt>
<wgt id='1236'> +2.9484922E+03 </wgt>
<wgt id='1237'> +2.9382262E+03 </wgt>
<wgt id='1238'> +2.9391848E+03 </wgt>
<wgt id='1239'> +2.9399507E+03 </wgt>
<wgt id='1240'> +2.9411525E+03 </wgt>
<wgt id='1241'> +2.9446230E+03 </wgt>
<wgt id='1242'> +2.9390667E+03 </wgt>
<wgt id='1243'> +2.9400041E+03 </wgt>
<wgt id='1244'> +2.9384322E+03 </wgt>
<wgt id='1245'> +2.9415488E+03 </wgt>
<wgt id='1246'> +2.9435595E+03 </wgt>
<wgt id='1247'> +2.9414466E+03 </wgt>
<wgt id='1248'> +2.9437139E+03 </wgt>
<wgt id='1249'> +2.9455506E+03 </wgt>
<wgt id='1250'> +2.9442723E+03 </wgt>
<wgt id='1251'> +2.9430715E+03 </wgt>
<wgt id='1252'> +2.9429890E+03 </wgt>
<wgt id='1253'> +2.9435910E+03 </wgt>
<wgt id='1254'> +2.9404137E+03 </wgt>
<wgt id='1255'> +2.9391769E+03 </wgt>
<wgt id='1256'> +2.9416204E+03 </wgt>
<wgt id='1257'> +2.9454758E+03 </wgt>
<wgt id='1258'> +2.9472875E+03 </wgt>
<wgt id='1259'> +2.9522637E+03 </wgt>
<wgt id='1260'> +2.8407735E+03 </wgt>
<wgt id='1261'> +2.7740529E+03 </wgt>
<wgt id='1262'> +2.7831346E+03 </wgt>
<wgt id='1263'> +2.8324381E+03 </wgt>
<wgt id='1264'> +2.8423128E+03 </wgt>
<wgt id='1265'> +2.8411218E+03 </wgt>
<wgt id='1266'> +2.8524476E+03 </wgt>
<wgt id='1267'> +2.8018778E+03 </wgt>
<wgt id='1268'> +2.8156271E+03 </wgt>
<wgt id='1269'> +2.8735513E+03 </wgt>
<wgt id='1270'> +2.8194456E+03 </wgt>
<wgt id='1271'> +2.8520622E+03 </wgt>
<wgt id='1272'> +2.7824174E+03 </wgt>
<wgt id='1273'> +2.7892993E+03 </wgt>
<wgt id='1274'> +2.8448162E+03 </wgt>
<wgt id='1275'> +2.8545228E+03 </wgt>
<wgt id='1276'> +2.7749928E+03 </wgt>
<wgt id='1277'> +2.8731915E+03 </wgt>
<wgt id='1278'> +2.8056919E+03 </wgt>
<wgt id='1279'> +2.8758389E+03 </wgt>
<wgt id='1280'> +2.8108721E+03 </wgt>
<wgt id='1281'> +2.8123508E+03 </wgt>
<wgt id='1282'> +2.8579123E+03 </wgt>
<wgt id='1283'> +2.9126990E+03 </wgt>
<wgt id='1284'> +2.7608510E+03 </wgt>
<wgt id='1285'> +2.8436661E+03 </wgt>
<wgt id='1286'> +2.8355994E+03 </wgt>
<wgt id='1287'> +2.8465366E+03 </wgt>
<wgt id='1288'> +2.8302513E+03 </wgt>
<wgt id='1289'> +2.8976190E+03 </wgt>
<wgt id='1290'> +2.8021719E+03 </wgt>
<wgt id='1291'> +2.8430730E+03 </wgt>
<wgt id='1292'> +2.8345404E+03 </wgt>
<wgt id='1293'> +2.9198462E+03 </wgt>
<wgt id='1294'> +2.7659072E+03 </wgt>
<wgt id='1295'> +2.8433044E+03 </wgt>
<wgt id='1296'> +2.8388989E+03 </wgt>
<wgt id='1297'> +2.9129646E+03 </wgt>
<wgt id='1298'> +2.7622285E+03 </wgt>
<wgt id='1299'> +2.9418089E+03 </wgt>
<wgt id='1300'> +2.7272222E+03 </wgt>
<wgt id='1301'> +2.8069306E+03 </wgt>
<wgt id='1302'> +2.8816552E+03 </wgt>
<wgt id='1303'> +2.8575072E+03 </wgt>
<wgt id='1304'> +2.7921860E+03 </wgt>
<wgt id='1305'> +2.7758254E+03 </wgt>
<wgt id='1306'> +2.9142154E+03 </wgt>
<wgt id='1307'> +2.8344068E+03 </wgt>
<wgt id='1308'> +2.8702942E+03 </wgt>
<wgt id='1309'> +2.8663805E+03 </wgt>
<wgt id='1310'> +2.8162754E+03 </wgt>
<wgt id='1311'> +2.8565922E+03 </wgt>
<wgt id='1312'> +2.8586241E+03 </wgt>
<wgt id='1313'> +2.8527614E+03 </wgt>
<wgt id='1314'> +2.8379434E+03 </wgt>
<wgt id='1315'> +2.7513812E+03 </wgt>
<wgt id='1316'> +2.9748544E+03 </wgt>
<wgt id='1317'> +2.8151789E+03 </wgt>
<wgt id='1318'> +2.8677462E+03 </wgt>
<wgt id='1319'> +2.7775566E+03 </wgt>
<wgt id='1320'> +2.7917499E+03 </wgt>
<wgt id='1321'> +2.8055169E+03 </wgt>
<wgt id='1322'> +2.8012753E+03 </wgt>
<wgt id='1323'> +2.7938906E+03 </wgt>
<wgt id='1324'> +2.7876590E+03 </wgt>
<wgt id='1325'> +2.7783833E+03 </wgt>
<wgt id='1326'> +2.7834277E+03 </wgt>
<wgt id='1327'> +2.8529076E+03 </wgt>
<wgt id='1328'> +2.7347331E+03 </wgt>
<wgt id='1329'> +2.8101852E+03 </wgt>
<wgt id='1330'> +2.6877131E+03 </wgt>
<wgt id='1331'> +2.8554051E+03 </wgt>
<wgt id='1332'> +2.7251464E+03 </wgt>
<wgt id='1333'> +2.7771244E+03 </wgt>
<wgt id='1334'> +2.8608724E+03 </wgt>
<wgt id='1335'> +2.6655592E+03 </wgt>
<wgt id='1336'> +2.8729835E+03 </wgt>
<wgt id='1337'> +2.6693923E+03 </wgt>
<wgt id='1338'> +2.7971940E+03 </wgt>
<wgt id='1339'> +2.7526669E+03 </wgt>
<wgt id='1340'> +2.7910615E+03 </wgt>
<wgt id='1341'> +2.7465086E+03 </wgt>
<wgt id='1342'> +2.7802137E+03 </wgt>
<wgt id='1343'> +2.7674319E+03 </wgt>
<wgt id='1344'> +2.7391962E+03 </wgt>
<wgt id='1345'> +2.8139835E+03 </wgt>
<wgt id='1346'> +2.7778168E+03 </wgt>
<wgt id='1347'> +2.7735004E+03 </wgt>
<wgt id='1348'> +2.7748085E+03 </wgt>
<wgt id='1349'> +2.7781296E+03 </wgt>
<wgt id='1350'> +2.8176475E+03 </wgt>
<wgt id='1351'> +2.7261794E+03 </wgt>
<wgt id='1352'> +2.7784503E+03 </wgt>
<wgt id='1353'> +2.7743822E+03 </wgt>
<wgt id='1354'> +2.7671159E+03 </wgt>
<wgt id='1355'> +2.7929699E+03 </wgt>
<wgt id='1356'> +2.7997967E+03 </wgt>
<wgt id='1357'> +2.7205630E+03 </wgt>
<wgt id='1358'> +2.7251829E+03 </wgt>
<wgt id='1359'> +2.7881399E+03 </wgt>
<wgt id='1360'> +2.7800842E+03 </wgt>
<wgt id='1361'> +2.7824172E+03 </wgt>
<wgt id='1362'> +2.8070221E+03 </wgt>
<wgt id='1363'> +2.7286979E+03 </wgt>
<wgt id='1364'> +2.7612551E+03 </wgt>
<wgt id='1365'> +2.7362298E+03 </wgt>
<wgt id='1366'> +2.7078383E+03 </wgt>
<wgt id='1367'> +2.7920807E+03 </wgt>
<wgt id='1368'> +2.7473532E+03 </wgt>
<wgt id='1369'> +2.7863609E+03 </wgt>
<wgt id='1370'> +2.7312868E+03 </wgt>
<wgt id='1371'> +2.7083416E+03 </wgt>
<wgt id='1372'> +2.7640444E+03 </wgt>
<wgt id='1373'> +2.7544279E+03 </wgt>
<wgt id='1374'> +2.7199187E+03 </wgt>
<wgt id='1375'> +2.8757661E+03 </wgt>
<wgt id='1376'> +2.7525645E+03 </wgt>
<wgt id='1377'> +2.7998257E+03 </wgt>
<wgt id='1378'> +2.6200777E+03 </wgt>
<wgt id='1379'> +2.6978809E+03 </wgt>
<wgt id='1380'> +2.6941579E+03 </wgt>
<wgt id='1381'> +2.7018045E+03 </wgt>
<wgt id='1382'> +2.6821344E+03 </wgt>
<wgt id='1383'> +2.7086505E+03 </wgt>
<wgt id='1384'> +2.6821728E+03 </wgt>
<wgt id='1385'> +2.7125367E+03 </wgt>
<wgt id='1386'> +2.6934993E+03 </wgt>
<wgt id='1387'> +2.7026369E+03 </wgt>
<wgt id='1388'> +2.6938478E+03 </wgt>
<wgt id='1389'> +2.7016948E+03 </wgt>
<wgt id='1390'> +2.6971495E+03 </wgt>
<wgt id='1391'> +2.6995191E+03 </wgt>
<wgt id='1392'> +2.7008649E+03 </wgt>
<wgt id='1393'> +2.6925513E+03 </wgt>
<wgt id='1394'> +2.6847305E+03 </wgt>
<wgt id='1395'> +2.7051938E+03 </wgt>
<wgt id='1396'> +2.7016957E+03 </wgt>
<wgt id='1397'> +2.6937895E+03 </wgt>
<wgt id='1398'> +2.6957259E+03 </wgt>
<wgt id='1399'> +2.6996153E+03 </wgt>
<wgt id='1400'> +2.7002909E+03 </wgt>
<wgt id='1401'> +2.6948480E+03 </wgt>
<wgt id='1402'> +2.6901032E+03 </wgt>
<wgt id='1403'> +2.7040028E+03 </wgt>
<wgt id='1404'> +2.6965898E+03 </wgt>
<wgt id='1405'> +2.6873799E+03 </wgt>
<wgt id='1406'> +2.7050250E+03 </wgt>
<wgt id='1407'> +2.6995949E+03 </wgt>
<wgt id='1408'> +2.6960895E+03 </wgt>
<wgt id='1409'> +2.6993911E+03 </wgt>
<wgt id='1410'> +2.7431232E+03 </wgt>
<wgt id='1411'> +2.6474384E+03 </wgt>
<wgt id='1412'> +2.6961781E+03 </wgt>
<wgt id='1413'> +2.6984605E+03 </wgt>
<wgt id='1414'> +2.6990433E+03 </wgt>
<wgt id='1415'> +2.7021872E+03 </wgt>
<wgt id='1416'> +2.6944452E+03 </wgt>
<wgt id='1417'> +2.7045945E+03 </wgt>
<wgt id='1418'> +2.6957877E+03 </wgt>
<wgt id='1419'> +2.6994977E+03 </wgt>
<wgt id='1420'> +2.6202084E+03 </wgt>
<wgt id='1421'> +2.7693115E+03 </wgt>
<wgt id='1422'> +2.7394997E+03 </wgt>
<wgt id='1423'> +2.6596086E+03 </wgt>
<wgt id='1424'> +2.6758634E+03 </wgt>
<wgt id='1425'> +2.7533971E+03 </wgt>
<wgt id='1426'> +2.7018961E+03 </wgt>
<wgt id='1427'> +2.6845926E+03 </wgt>
<wgt id='1428'> +2.7111769E+03 </wgt>
<wgt id='1429'> +2.6939716E+03 </wgt>
<wgt id='1430'> +2.8188421E+03 </wgt>
<wgt id='1431'> +2.8134485E+03 </wgt>
<wgt id='1432'> +2.8257063E+03 </wgt>
<wgt id='1433'> +2.8188463E+03 </wgt>
<wgt id='1434'> +2.8186967E+03 </wgt>
<wgt id='1435'> +2.7951114E+03 </wgt>
<wgt id='1436'> +2.8285337E+03 </wgt>
<wgt id='1437'> +2.8011712E+03 </wgt>
<wgt id='1438'> +2.8364274E+03 </wgt>
<wgt id='1439'> +2.8149550E+03 </wgt>
<wgt id='1440'> +2.8223973E+03 </wgt>
<wgt id='1441'> +2.8213259E+03 </wgt>
<wgt id='1442'> +2.8178727E+03 </wgt>
<wgt id='1443'> +2.8254417E+03 </wgt>
<wgt id='1444'> +2.8108141E+03 </wgt>
<wgt id='1445'> +2.8143926E+03 </wgt>
<wgt id='1446'> +2.8236662E+03 </wgt>
<wgt id='1447'> +2.8048585E+03 </wgt>
<wgt id='1448'> +2.8262662E+03 </wgt>
<wgt id='1449'> +2.8240563E+03 </wgt>
<wgt id='1450'> +2.8115551E+03 </wgt>
<wgt id='1451'> +2.8216986E+03 </wgt>
<wgt id='1452'> +2.8166925E+03 </wgt>
<wgt id='1453'> +2.8004036E+03 </wgt>
<wgt id='1454'> +2.8340560E+03 </wgt>
<wgt id='1455'> +2.8200621E+03 </wgt>
<wgt id='1456'> +2.8165764E+03 </wgt>
<wgt id='1457'> +2.8268224E+03 </wgt>
<wgt id='1458'> +2.8203693E+03 </wgt>
<wgt id='1459'> +2.8087902E+03 </wgt>
<wgt id='1460'> +2.8410539E+03 </wgt>
<wgt id='1461'> +2.8446233E+03 </wgt>
<wgt id='1462'> +2.7685845E+03 </wgt>
<wgt id='1463'> +2.8098924E+03 </wgt>
<wgt id='1464'> +2.8390827E+03 </wgt>
<wgt id='1465'> +2.8191353E+03 </wgt>
<wgt id='1466'> +2.8211057E+03 </wgt>
<wgt id='1467'> +2.8151285E+03 </wgt>
<wgt id='1468'> +2.8282841E+03 </wgt>
<wgt id='1469'> +2.8192015E+03 </wgt>
<wgt id='1470'> +2.8177794E+03 </wgt>
<wgt id='1471'> +2.8721354E+03 </wgt>
<wgt id='1472'> +2.7174856E+03 </wgt>
<wgt id='1473'> +2.8228073E+03 </wgt>
<wgt id='1474'> +2.8064273E+03 </wgt>
<wgt id='1475'> +2.7879445E+03 </wgt>
<wgt id='1476'> +2.8426066E+03 </wgt>
<wgt id='1477'> +2.8625433E+03 </wgt>
<wgt id='1478'> +2.7997893E+03 </wgt>
<wgt id='1479'> +2.8272593E+03 </wgt>
<wgt id='1480'> +2.8078203E+03 </wgt>
<wgt id='1481'> +2.5915580E+03 </wgt>
<wgt id='1482'> +2.8207010E+03 </wgt>
<wgt id='1483'> +2.8202807E+03 </wgt>
<wgt id='1484'> +2.8175527E+03 </wgt>
<wgt id='1485'> +2.8192760E+03 </wgt>
<wgt id='1486'> +2.8208150E+03 </wgt>
<wgt id='1487'> +2.8262022E+03 </wgt>
<wgt id='1488'> +2.8013135E+03 </wgt>
<wgt id='1489'> +2.8280483E+03 </wgt>
<wgt id='1490'> +2.8156333E+03 </wgt>
<wgt id='1491'> +2.8103964E+03 </wgt>
<wgt id='1492'> +2.8159232E+03 </wgt>
<wgt id='1493'> +2.8192315E+03 </wgt>
<wgt id='1494'> +2.8217035E+03 </wgt>
<wgt id='1495'> +2.8261980E+03 </wgt>
<wgt id='1496'> +2.8151649E+03 </wgt>
<wgt id='1497'> +2.8251585E+03 </wgt>
<wgt id='1498'> +2.8129287E+03 </wgt>
<wgt id='1499'> +2.8200715E+03 </wgt>
<wgt id='1500'> +2.8161737E+03 </wgt>
<wgt id='1501'> +2.8247991E+03 </wgt>
<wgt id='1502'> +2.8270378E+03 </wgt>
<wgt id='1503'> +2.8100597E+03 </wgt>
<wgt id='1504'> +2.8163349E+03 </wgt>
<wgt id='1505'> +2.8128691E+03 </wgt>
<wgt id='1506'> +2.8231661E+03 </wgt>
<wgt id='1507'> +2.8147613E+03 </wgt>
<wgt id='1508'> +2.8282839E+03 </wgt>
<wgt id='1509'> +2.8055041E+03 </wgt>
<wgt id='1510'> +2.8389070E+03 </wgt>
<wgt id='1511'> +2.8060293E+03 </wgt>
<wgt id='1512'> +2.7359175E+03 </wgt>
<wgt id='1513'> +2.7256389E+03 </wgt>
<wgt id='1514'> +2.7078388E+03 </wgt>
<wgt id='1515'> +2.7888910E+03 </wgt>
<wgt id='1516'> +2.7238105E+03 </wgt>
<wgt id='1517'> +2.7464776E+03 </wgt>
<wgt id='1518'> +2.7051515E+03 </wgt>
<wgt id='1519'> +2.7651920E+03 </wgt>
<wgt id='1520'> +2.7487057E+03 </wgt>
<wgt id='1521'> +2.7243013E+03 </wgt>
<wgt id='1522'> +2.7479434E+03 </wgt>
<wgt id='1523'> +2.7020959E+03 </wgt>
<wgt id='1524'> +2.7275734E+03 </wgt>
<wgt id='1525'> +2.7466895E+03 </wgt>
<wgt id='1526'> +2.7234342E+03 </wgt>
<wgt id='1527'> +2.7348808E+03 </wgt>
<wgt id='1528'> +2.7117424E+03 </wgt>
<wgt id='1529'> +2.7466548E+03 </wgt>
<wgt id='1530'> +2.7779103E+03 </wgt>
<wgt id='1531'> +2.7185121E+03 </wgt>
<wgt id='1532'> +2.7374355E+03 </wgt>
<wgt id='1533'> +2.7333337E+03 </wgt>
<wgt id='1534'> +2.7236441E+03 </wgt>
<wgt id='1535'> +2.7541150E+03 </wgt>
<wgt id='1536'> +2.7370028E+03 </wgt>
<wgt id='1537'> +2.7251344E+03 </wgt>
<wgt id='1538'> +2.7302231E+03 </wgt>
<wgt id='1539'> +2.7562607E+03 </wgt>
<wgt id='1540'> +2.7228068E+03 </wgt>
<wgt id='1541'> +2.7379875E+03 </wgt>
<wgt id='1542'> +2.7668073E+03 </wgt>
<wgt id='1543'> +2.7295320E+03 </wgt>
<wgt id='1544'> +2.7366888E+03 </wgt>
<wgt id='1545'> +2.7535278E+03 </wgt>
<wgt id='1546'> +2.7578715E+03 </wgt>
<wgt id='1547'> +2.7429037E+03 </wgt>
<wgt id='1548'> +2.7292708E+03 </wgt>
<wgt id='1549'> +2.7494930E+03 </wgt>
<wgt id='1550'> +2.7220655E+03 </wgt>
<wgt id='1551'> +2.7422919E+03 </wgt>
<wgt id='1552'> +2.7445396E+03 </wgt>
<wgt id='1553'> +2.7339089E+03 </wgt>
<wgt id='1554'> +2.7409030E+03 </wgt>
<wgt id='1555'> +2.7303159E+03 </wgt>
<wgt id='1556'> +2.7519111E+03 </wgt>
<wgt id='1557'> +2.7383410E+03 </wgt>
<wgt id='1558'> +2.7354649E+03 </wgt>
<wgt id='1559'> +2.7295925E+03 </wgt>
<wgt id='1560'> +2.7288758E+03 </wgt>
<wgt id='1561'> +2.7383252E+03 </wgt>
<wgt id='1562'> +2.7379250E+03 </wgt>
<wgt id='1563'> +2.7325014E+03 </wgt>
<wgt id='1564'> +2.7353723E+03 </wgt>
<wgt id='1565'> +2.7378637E+03 </wgt>
<wgt id='1566'> +2.7354828E+03 </wgt>
<wgt id='1567'> +2.7307882E+03 </wgt>
<wgt id='1568'> +2.7361584E+03 </wgt>
<wgt id='1569'> +2.7406399E+03 </wgt>
<wgt id='1570'> +2.7389110E+03 </wgt>
<wgt id='1571'> +2.7358082E+03 </wgt>
<wgt id='1572'> +2.7318848E+03 </wgt>
<wgt id='1573'> +2.7284951E+03 </wgt>
<wgt id='1574'> +2.7368123E+03 </wgt>
<wgt id='1575'> +2.7396427E+03 </wgt>
<wgt id='1576'> +2.7357624E+03 </wgt>
<wgt id='1577'> +2.7355768E+03 </wgt>
<wgt id='1578'> +2.7406441E+03 </wgt>
<wgt id='1579'> +2.7376939E+03 </wgt>
<wgt id='1580'> +2.7356480E+03 </wgt>
<wgt id='1581'> +2.7352766E+03 </wgt>
<wgt id='1582'> +2.7323155E+03 </wgt>
<wgt id='1583'> +2.7340521E+03 </wgt>
<wgt id='1584'> +2.7358924E+03 </wgt>
<wgt id='1585'> +2.7346711E+03 </wgt>
<wgt id='1586'> +2.7354105E+03 </wgt>
<wgt id='1587'> +2.7365647E+03 </wgt>
<wgt id='1588'> +2.7344257E+03 </wgt>
<wgt id='1589'> +2.7365187E+03 </wgt>
<wgt id='1590'> +2.7363162E+03 </wgt>
<wgt id='1591'> +2.7356568E+03 </wgt>
<wgt id='1592'> +2.7353666E+03 </wgt>
<wgt id='1593'> +2.7370602E+03 </wgt>
<wgt id='1594'> +2.7350181E+03 </wgt>
<wgt id='1595'> +2.7361249E+03 </wgt>
<wgt id='1596'> +2.7367954E+03 </wgt>
<wgt id='1597'> +2.7373897E+03 </wgt>
<wgt id='1598'> +2.7357587E+03 </wgt>
<wgt id='1599'> +2.7352160E+03 </wgt>
<wgt id='1600'> +2.7368950E+03 </wgt>
<wgt id='1601'> +2.7346468E+03 </wgt>
<wgt id='1602'> +2.7362792E+03 </wgt>
<wgt id='1603'> +2.7355136E+03 </wgt>
<wgt id='1604'> +2.7354868E+03 </wgt>
<wgt id='1605'> +2.7371242E+03 </wgt>
<wgt id='1606'> +2.7360218E+03 </wgt>
<wgt id='1607'> +2.7351104E+03 </wgt>
<wgt id='1608'> +2.7357361E+03 </wgt>
<wgt id='1609'> +2.7368461E+03 </wgt>
<wgt id='1610'> +2.7361562E+03 </wgt>
<wgt id='1611'> +2.7352251E+03 </wgt>
<wgt id='1612'> +2.7360952E+03 </wgt>
<wgt id='1613'> +2.7108658E+03 </wgt>
<wgt id='1614'> +2.7517496E+03 </wgt>
<wgt id='1615'> +2.8306894E+03 </wgt>
<wgt id='1616'> +2.8298278E+03 </wgt>
<wgt id='1617'> +2.8205940E+03 </wgt>
<wgt id='1618'> +2.8459097E+03 </wgt>
<wgt id='1619'> +2.8656630E+03 </wgt>
<wgt id='1620'> +2.8593509E+03 </wgt>
<wgt id='1621'> +2.8529450E+03 </wgt>
<wgt id='1622'> +2.8510494E+03 </wgt>
<wgt id='1623'> +2.8374611E+03 </wgt>
<wgt id='1624'> +2.8408680E+03 </wgt>
<wgt id='1625'> +2.8170105E+03 </wgt>
<wgt id='1626'> +2.8755399E+03 </wgt>
<wgt id='1627'> +2.8267602E+03 </wgt>
<wgt id='1628'> +2.8362157E+03 </wgt>
<wgt id='1629'> +2.8180720E+03 </wgt>
<wgt id='1630'> +2.8390377E+03 </wgt>
<wgt id='1631'> +2.8275490E+03 </wgt>
<wgt id='1632'> +2.8298356E+03 </wgt>
<wgt id='1633'> +2.8561600E+03 </wgt>
<wgt id='1634'> +2.7859012E+03 </wgt>
<wgt id='1635'> +2.8305669E+03 </wgt>
<wgt id='1636'> +2.8393581E+03 </wgt>
<wgt id='1637'> +2.8027968E+03 </wgt>
<wgt id='1638'> +2.8403357E+03 </wgt>
<wgt id='1639'> +2.8508035E+03 </wgt>
<wgt id='1640'> +2.8279366E+03 </wgt>
<wgt id='1641'> +2.8160312E+03 </wgt>
<wgt id='1642'> +2.8349881E+03 </wgt>
<wgt id='1643'> +2.8358778E+03 </wgt>
<wgt id='1644'> +2.8196772E+03 </wgt>
<wgt id='1645'> +2.8248855E+03 </wgt>
<wgt id='1646'> +2.8258382E+03 </wgt>
<wgt id='1647'> +2.8222260E+03 </wgt>
<wgt id='1648'> +2.7957567E+03 </wgt>
<wgt id='1649'> +2.8092975E+03 </wgt>
<wgt id='1650'> +2.8503802E+03 </wgt>
<wgt id='1651'> +2.8272600E+03 </wgt>
<wgt id='1652'> +2.8323337E+03 </wgt>
<wgt id='1653'> +2.8143284E+03 </wgt>
<wgt id='1654'> +2.8279755E+03 </wgt>
<wgt id='1655'> +2.8066055E+03 </wgt>
<wgt id='1656'> +2.8259748E+03 </wgt>
<wgt id='1657'> +2.8293333E+03 </wgt>
<wgt id='1658'> +2.8294072E+03 </wgt>
<wgt id='1659'> +2.8375403E+03 </wgt>
<wgt id='1660'> +2.8225828E+03 </wgt>
<wgt id='1661'> +2.8255001E+03 </wgt>
<wgt id='1662'> +2.8333664E+03 </wgt>
<wgt id='1663'> +2.8388457E+03 </wgt>
<wgt id='1664'> +2.8294424E+03 </wgt>
<wgt id='1665'> +2.8450186E+03 </wgt>
<wgt id='1666'> +2.8332975E+03 </wgt>
<wgt id='1667'> +2.8280050E+03 </wgt>
<wgt id='1668'> +2.8362413E+03 </wgt>
<wgt id='1669'> +2.8248075E+03 </wgt>
<wgt id='1670'> +2.8350297E+03 </wgt>
<wgt id='1671'> +2.8298615E+03 </wgt>
<wgt id='1672'> +2.8283777E+03 </wgt>
<wgt id='1673'> +2.8264200E+03 </wgt>
<wgt id='1674'> +2.8298679E+03 </wgt>
<wgt id='1675'> +2.8286341E+03 </wgt>
<wgt id='1676'> +2.8318725E+03 </wgt>
<wgt id='1677'> +2.8297783E+03 </wgt>
<wgt id='1678'> +2.8344193E+03 </wgt>
<wgt id='1679'> +2.8335756E+03 </wgt>
<wgt id='1680'> +2.8249948E+03 </wgt>
<wgt id='1681'> +2.8316616E+03 </wgt>
<wgt id='1682'> +2.8301615E+03 </wgt>
<wgt id='1683'> +2.8335303E+03 </wgt>
<wgt id='1684'> +2.8324280E+03 </wgt>
<wgt id='1685'> +2.8294987E+03 </wgt>
<wgt id='1686'> +2.8334287E+03 </wgt>
<wgt id='1687'> +2.8317012E+03 </wgt>
<wgt id='1688'> +2.8297377E+03 </wgt>
<wgt id='1689'> +2.8318828E+03 </wgt>
<wgt id='1690'> +2.8314846E+03 </wgt>
<wgt id='1691'> +2.8296577E+03 </wgt>
<wgt id='1692'> +2.8310131E+03 </wgt>
<wgt id='1693'> +2.8293562E+03 </wgt>
<wgt id='1694'> +2.8316028E+03 </wgt>
<wgt id='1695'> +2.8314876E+03 </wgt>
<wgt id='1696'> +2.8307226E+03 </wgt>
<wgt id='1697'> +2.8312845E+03 </wgt>
<wgt id='1698'> +2.8321536E+03 </wgt>
<wgt id='1699'> +2.8307849E+03 </wgt>
<wgt id='1700'> +2.8293914E+03 </wgt>
<wgt id='1701'> +2.8295844E+03 </wgt>
<wgt id='1702'> +2.8296727E+03 </wgt>
<wgt id='1703'> +2.8293419E+03 </wgt>
<wgt id='1704'> +2.8299745E+03 </wgt>
<wgt id='1705'> +2.8315097E+03 </wgt>
<wgt id='1706'> +2.8293195E+03 </wgt>
<wgt id='1707'> +2.8299331E+03 </wgt>
<wgt id='1708'> +2.8298142E+03 </wgt>
<wgt id='1709'> +2.8319702E+03 </wgt>
<wgt id='1710'> +2.8303889E+03 </wgt>
<wgt id='1711'> +2.8314827E+03 </wgt>
<wgt id='1712'> +2.8313345E+03 </wgt>
<wgt id='1713'> +2.8305420E+03 </wgt>
<wgt id='1714'> +2.8296348E+03 </wgt>
<wgt id='1715'> +2.8301753E+03 </wgt>
<wgt id='1716'> +2.8146978E+03 </wgt>
<wgt id='1717'> +2.8482722E+03 </wgt>
<wgt id='1718'> +2.7359600E+03 </wgt>
<wgt id='1719'> +2.7486326E+03 </wgt>
<wgt id='1720'> +2.6756680E+03 </wgt>
<wgt id='1721'> +2.7315651E+03 </wgt>
<wgt id='1722'> +2.7797606E+03 </wgt>
<wgt id='1723'> +2.7497012E+03 </wgt>
<wgt id='1724'> +2.7432293E+03 </wgt>
<wgt id='1725'> +2.7414585E+03 </wgt>
<wgt id='1726'> +2.7383001E+03 </wgt>
<wgt id='1727'> +2.7508001E+03 </wgt>
<wgt id='1728'> +2.7354744E+03 </wgt>
<wgt id='1729'> +2.7057215E+03 </wgt>
<wgt id='1730'> +2.7279145E+03 </wgt>
<wgt id='1731'> +2.7301542E+03 </wgt>
<wgt id='1732'> +2.7180184E+03 </wgt>
<wgt id='1733'> +2.7371628E+03 </wgt>
<wgt id='1734'> +2.7460641E+03 </wgt>
<wgt id='1735'> +2.6986392E+03 </wgt>
<wgt id='1736'> +2.7346532E+03 </wgt>
<wgt id='1737'> +2.7430989E+03 </wgt>
<wgt id='1738'> +2.8068243E+03 </wgt>
<wgt id='1739'> +2.7324041E+03 </wgt>
<wgt id='1740'> +2.7350135E+03 </wgt>
<wgt id='1741'> +2.7376565E+03 </wgt>
<wgt id='1742'> +2.7374567E+03 </wgt>
<wgt id='1743'> +2.7343955E+03 </wgt>
<wgt id='1744'> +2.7384584E+03 </wgt>
<wgt id='1745'> +2.7287048E+03 </wgt>
<wgt id='1746'> +2.7379285E+03 </wgt>
<wgt id='1747'> +2.7234709E+03 </wgt>
<wgt id='1748'> +2.7367720E+03 </wgt>
<wgt id='1749'> +2.7108658E+03 </wgt>
<wgt id='1750'> +2.7517496E+03 </wgt>
<wgt id='1751'> +2.8307433E+03 </wgt>
<wgt id='1752'> +2.8298354E+03 </wgt>
<wgt id='1753'> +2.8644625E+03 </wgt>
<wgt id='1754'> +2.8273799E+03 </wgt>
<wgt id='1755'> +2.7718165E+03 </wgt>
<wgt id='1756'> +2.8054389E+03 </wgt>
<wgt id='1757'> +2.8275290E+03 </wgt>
<wgt id='1758'> +2.8260787E+03 </wgt>
<wgt id='1759'> +2.8262933E+03 </wgt>
<wgt id='1760'> +2.7963793E+03 </wgt>
<wgt id='1761'> +2.8386919E+03 </wgt>
<wgt id='1762'> +2.9136153E+03 </wgt>
<wgt id='1763'> +2.8322537E+03 </wgt>
<wgt id='1764'> +2.8395265E+03 </wgt>
<wgt id='1765'> +2.8275618E+03 </wgt>
<wgt id='1766'> +2.8337194E+03 </wgt>
<wgt id='1767'> +2.8314521E+03 </wgt>
<wgt id='1768'> +2.8396316E+03 </wgt>
<wgt id='1769'> +2.8312653E+03 </wgt>
<wgt id='1770'> +2.8282354E+03 </wgt>
<wgt id='1771'> +2.8340898E+03 </wgt>
<wgt id='1772'> +2.8322520E+03 </wgt>
<wgt id='1773'> +2.8469523E+03 </wgt>
<wgt id='1774'> +2.8308125E+03 </wgt>
<wgt id='1775'> +2.8270828E+03 </wgt>
<wgt id='1776'> +2.8323546E+03 </wgt>
<wgt id='1777'> +2.8239537E+03 </wgt>
<wgt id='1778'> +2.8326655E+03 </wgt>
<wgt id='1779'> +2.8280173E+03 </wgt>
<wgt id='1780'> +2.8313933E+03 </wgt>
<wgt id='1781'> +2.8346194E+03 </wgt>
<wgt id='1782'> +2.8146978E+03 </wgt>
<wgt id='1783'> +2.8482722E+03 </wgt>
<wgt id='1784'> +2.5153779E+03 </wgt>
<wgt id='1785'> +2.5221316E+03 </wgt>
<wgt id='1786'> +2.5086712E+03 </wgt>
<wgt id='1787'> +2.5134134E+03 </wgt>
<wgt id='1788'> +2.5173281E+03 </wgt>
<wgt id='1789'> +2.5203431E+03 </wgt>
<wgt id='1790'> +2.5104194E+03 </wgt>
<wgt id='1791'> +2.5034127E+03 </wgt>
<wgt id='1792'> +2.5269668E+03 </wgt>
<wgt id='1793'> +2.5275028E+03 </wgt>
<wgt id='1794'> +2.5032705E+03 </wgt>
<wgt id='1795'> +2.5233745E+03 </wgt>
<wgt id='1796'> +2.5065928E+03 </wgt>
<wgt id='1797'> +2.5167995E+03 </wgt>
<wgt id='1798'> +2.5138527E+03 </wgt>
<wgt id='1799'> +2.5110891E+03 </wgt>
<wgt id='1800'> +2.5208589E+03 </wgt>
<wgt id='1801'> +2.5077254E+03 </wgt>
<wgt id='1802'> +2.5200625E+03 </wgt>
<wgt id='1803'> +2.5123258E+03 </wgt>
<wgt id='1804'> +2.5191875E+03 </wgt>
<wgt id='1805'> +2.5009565E+03 </wgt>
<wgt id='1806'> +2.5269737E+03 </wgt>
<wgt id='1807'> +2.5339612E+03 </wgt>
<wgt id='1808'> +2.4872687E+03 </wgt>
<wgt id='1809'> +2.5178831E+03 </wgt>
<wgt id='1810'> +2.5164643E+03 </wgt>
<wgt id='1811'> +2.5198100E+03 </wgt>
<wgt id='1812'> +2.5119281E+03 </wgt>
<wgt id='1813'> +2.5153779E+03 </wgt>
<wgt id='1814'> +2.6364722E+03 </wgt>
<wgt id='1815'> +2.3769804E+03 </wgt>
<wgt id='1816'> +2.7848687E+03 </wgt>
<wgt id='1817'> +2.6468155E+03 </wgt>
<wgt id='1818'> +2.5193359E+03 </wgt>
<wgt id='1819'> +2.5238231E+03 </wgt>
<wgt id='1820'> +2.5140600E+03 </wgt>
<wgt id='1821'> +2.5157003E+03 </wgt>
<wgt id='1822'> +2.4860652E+03 </wgt>
<wgt id='1823'> +2.5423119E+03 </wgt>
<wgt id='1824'> +2.4919646E+03 </wgt>
<wgt id='1825'> +2.5587347E+03 </wgt>
<wgt id='1826'> +2.4472616E+03 </wgt>
<wgt id='1827'> +2.5848634E+03 </wgt>
<wgt id='1828'> +2.5919698E+03 </wgt>
<wgt id='1829'> +2.5776451E+03 </wgt>
<wgt id='1830'> +2.5807291E+03 </wgt>
<wgt id='1831'> +2.5888394E+03 </wgt>
<wgt id='1832'> +2.5881919E+03 </wgt>
<wgt id='1833'> +2.5813914E+03 </wgt>
<wgt id='1834'> +2.5689650E+03 </wgt>
<wgt id='1835'> +2.5999877E+03 </wgt>
<wgt id='1836'> +2.5960176E+03 </wgt>
<wgt id='1837'> +2.5733525E+03 </wgt>
<wgt id='1838'> +2.5863044E+03 </wgt>
<wgt id='1839'> +2.5832646E+03 </wgt>
<wgt id='1840'> +2.5808721E+03 </wgt>
<wgt id='1841'> +2.5888266E+03 </wgt>
<wgt id='1842'> +2.5839727E+03 </wgt>
<wgt id='1843'> +2.5883226E+03 </wgt>
<wgt id='1844'> +2.5868985E+03 </wgt>
<wgt id='1845'> +2.5821359E+03 </wgt>
<wgt id='1846'> +2.5797220E+03 </wgt>
<wgt id='1847'> +2.5896452E+03 </wgt>
<wgt id='1848'> +2.5861777E+03 </wgt>
<wgt id='1849'> +2.5795788E+03 </wgt>
<wgt id='1850'> +2.6160082E+03 </wgt>
<wgt id='1851'> +2.5545788E+03 </wgt>
<wgt id='1852'> +2.6406223E+03 </wgt>
<wgt id='1853'> +2.5280445E+03 </wgt>
<wgt id='1854'> +2.6290164E+03 </wgt>
<wgt id='1855'> +2.5455313E+03 </wgt>
<wgt id='1856'> +2.5848634E+03 </wgt>
<wgt id='1857'> +2.7293277E+03 </wgt>
<wgt id='1858'> +2.4307360E+03 </wgt>
<wgt id='1859'> +2.8768190E+03 </wgt>
<wgt id='1860'> +2.6865736E+03 </wgt>
<wgt id='1861'> +2.6699600E+03 </wgt>
<wgt id='1862'> +2.5774112E+03 </wgt>
<wgt id='1863'> +2.5802999E+03 </wgt>
<wgt id='1864'> +2.5741411E+03 </wgt>
<wgt id='1865'> +2.5735770E+03 </wgt>
<wgt id='1866'> +2.6958675E+03 </wgt>
<wgt id='1867'> +2.6077187E+03 </wgt>
<wgt id='1868'> +2.5628648E+03 </wgt>
<wgt id='1869'> +2.5644882E+03 </wgt>
<wgt id='1870'> +2.7448288E+03 </wgt>
<wgt id='1871'> +2.7433583E+03 </wgt>
<wgt id='1872'> +2.7418895E+03 </wgt>
<wgt id='1873'> +2.7404192E+03 </wgt>
<wgt id='1874'> +2.7389491E+03 </wgt>
<wgt id='1875'> +2.7374840E+03 </wgt>
<wgt id='1876'> +2.7360137E+03 </wgt>
<wgt id='1877'> +2.7345481E+03 </wgt>
<wgt id='1878'> +2.7330807E+03 </wgt>
<wgt id='1879'> +2.7316173E+03 </wgt>
<wgt id='1880'> +2.7301460E+03 </wgt>
<wgt id='1881'> +2.7286839E+03 </wgt>
<wgt id='1882'> +2.7272141E+03 </wgt>
<wgt id='1883'> +2.7257479E+03 </wgt>
<wgt id='1884'> +2.7242867E+03 </wgt>
<wgt id='1885'> +2.7228172E+03 </wgt>
<wgt id='1886'> +2.7213575E+03 </wgt>
<wgt id='1887'> +2.7198906E+03 </wgt>
<wgt id='1888'> +2.7184316E+03 </wgt>
<wgt id='1889'> +2.7169655E+03 </wgt>
<wgt id='1890'> +2.7155053E+03 </wgt>
<wgt id='1891'> +2.7140419E+03 </wgt>
<wgt id='1892'> +2.7125775E+03 </wgt>
<wgt id='1893'> +2.7111181E+03 </wgt>
<wgt id='1894'> +2.7096559E+03 </wgt>
<wgt id='1895'> +2.7081967E+03 </wgt>
<wgt id='1896'> +2.7067350E+03 </wgt>
<wgt id='1897'> +2.7052767E+03 </wgt>
<wgt id='1898'> +2.7038143E+03 </wgt>
<wgt id='1899'> +2.7023600E+03 </wgt>
<wgt id='1900'> +2.7008966E+03 </wgt>
<wgt id='1901'> +2.8159205E+03 </wgt>
<wgt id='1902'> +2.8137906E+03 </wgt>
<wgt id='1903'> +2.8055029E+03 </wgt>
<wgt id='1904'> +2.8311730E+03 </wgt>
<wgt id='1905'> +2.8504486E+03 </wgt>
<wgt id='1906'> +2.8443715E+03 </wgt>
<wgt id='1907'> +2.8390096E+03 </wgt>
<wgt id='1908'> +2.8371027E+03 </wgt>
<wgt id='1909'> +2.8227305E+03 </wgt>
<wgt id='1910'> +2.8261781E+03 </wgt>
<wgt id='1911'> +2.8020683E+03 </wgt>
<wgt id='1912'> +2.8618216E+03 </wgt>
<wgt id='1913'> +2.8126176E+03 </wgt>
<wgt id='1914'> +2.8220136E+03 </wgt>
<wgt id='1915'> +2.8032312E+03 </wgt>
<wgt id='1916'> +2.8224202E+03 </wgt>
<wgt id='1917'> +2.8140571E+03 </wgt>
<wgt id='1918'> +2.8145159E+03 </wgt>
<wgt id='1919'> +2.8409626E+03 </wgt>
<wgt id='1920'> +2.7721076E+03 </wgt>
<wgt id='1921'> +2.8167494E+03 </wgt>
<wgt id='1922'> +2.8240987E+03 </wgt>
<wgt id='1923'> +2.7878962E+03 </wgt>
<wgt id='1924'> +2.8259660E+03 </wgt>
<wgt id='1925'> +2.8353895E+03 </wgt>
<wgt id='1926'> +2.8122100E+03 </wgt>
<wgt id='1927'> +2.8003947E+03 </wgt>
<wgt id='1928'> +2.8212770E+03 </wgt>
<wgt id='1929'> +2.8215268E+03 </wgt>
<wgt id='1930'> +2.8044399E+03 </wgt>
<wgt id='1931'> +2.8097139E+03 </wgt>
<wgt id='1932'> +2.8122068E+03 </wgt>
<wgt id='1933'> +2.8070630E+03 </wgt>
<wgt id='1934'> +2.7807606E+03 </wgt>
<wgt id='1935'> +2.7946127E+03 </wgt>
<wgt id='1936'> +2.8352696E+03 </wgt>
<wgt id='1937'> +2.8126060E+03 </wgt>
<wgt id='1938'> +2.8175788E+03 </wgt>
<wgt id='1939'> +2.7995023E+03 </wgt>
<wgt id='1940'> +2.8128573E+03 </wgt>
<wgt id='1941'> +2.7919906E+03 </wgt>
<wgt id='1942'> +2.8109711E+03 </wgt>
<wgt id='1943'> +2.8144098E+03 </wgt>
<wgt id='1944'> +2.8152156E+03 </wgt>
<wgt id='1945'> +2.8226087E+03 </wgt>
<wgt id='1946'> +2.8077423E+03 </wgt>
<wgt id='1947'> +2.8110570E+03 </wgt>
<wgt id='1948'> +2.8183703E+03 </wgt>
<wgt id='1949'> +2.8242139E+03 </wgt>
<wgt id='1950'> +2.8145747E+03 </wgt>
<wgt id='1951'> +2.8302762E+03 </wgt>
<wgt id='1952'> +2.8184178E+03 </wgt>
<wgt id='1953'> +2.8132299E+03 </wgt>
<wgt id='1954'> +2.8214495E+03 </wgt>
<wgt id='1955'> +2.8102054E+03 </wgt>
<wgt id='1956'> +2.8203560E+03 </wgt>
<wgt id='1957'> +2.8147568E+03 </wgt>
<wgt id='1958'> +2.8136565E+03 </wgt>
<wgt id='1959'> +2.8119789E+03 </wgt>
<wgt id='1960'> +2.8152833E+03 </wgt>
<wgt id='1961'> +2.8140704E+03 </wgt>
<wgt id='1962'> +2.8171678E+03 </wgt>
<wgt id='1963'> +2.8149535E+03 </wgt>
<wgt id='1964'> +2.8195037E+03 </wgt>
<wgt id='1965'> +2.8189125E+03 </wgt>
<wgt id='1966'> +2.8101857E+03 </wgt>
<wgt id='1967'> +2.8168471E+03 </wgt>
<wgt id='1968'> +2.8152242E+03 </wgt>
<wgt id='1969'> +2.8187858E+03 </wgt>
<wgt id='1970'> +2.8174750E+03 </wgt>
<wgt id='1971'> +2.8146975E+03 </wgt>
<wgt id='1972'> +2.8187410E+03 </wgt>
<wgt id='1973'> +2.8168193E+03 </wgt>
<wgt id='1974'> +2.8148617E+03 </wgt>
<wgt id='1975'> +2.8170949E+03 </wgt>
<wgt id='1976'> +2.8167425E+03 </wgt>
<wgt id='1977'> +2.8151004E+03 </wgt>
<wgt id='1978'> +2.8162574E+03 </wgt>
<wgt id='1979'> +2.8147367E+03 </wgt>
<wgt id='1980'> +2.8168328E+03 </wgt>
<wgt id='1981'> +2.8165318E+03 </wgt>
<wgt id='1982'> +2.8161339E+03 </wgt>
<wgt id='1983'> +2.8165815E+03 </wgt>
<wgt id='1984'> +2.8173356E+03 </wgt>
<wgt id='1985'> +2.8159431E+03 </wgt>
<wgt id='1986'> +2.8147034E+03 </wgt>
<wgt id='1987'> +2.8150574E+03 </wgt>
<wgt id='1988'> +2.8148184E+03 </wgt>
<wgt id='1989'> +2.8145063E+03 </wgt>
<wgt id='1990'> +2.8150955E+03 </wgt>
<wgt id='1991'> +2.8166852E+03 </wgt>
<wgt id='1992'> +2.8144226E+03 </wgt>
<wgt id='1993'> +2.8150613E+03 </wgt>
<wgt id='1994'> +2.8151029E+03 </wgt>
<wgt id='1995'> +2.8170179E+03 </wgt>
<wgt id='1996'> +2.8156254E+03 </wgt>
<wgt id='1997'> +2.8167809E+03 </wgt>
<wgt id='1998'> +2.8165798E+03 </wgt>
<wgt id='1999'> +2.8157216E+03 </wgt>
<wgt id='2000'> +2.8149412E+03 </wgt>
<wgt id='2001'> +2.8154701E+03 </wgt>
<wgt id='2002'> +2.8159101E+03 </wgt>
<wgt id='2003'> +2.8158553E+03 </wgt>
<wgt id='2004'> +2.8159306E+03 </wgt>
<wgt id='2005'> +2.8159328E+03 </wgt>
<wgt id='2006'> +2.8159508E+03 </wgt>
<wgt id='2007'> +2.8159249E+03 </wgt>
<wgt id='2008'> +2.8158784E+03 </wgt>
<wgt id='2009'> +2.7286642E+03 </wgt>
<wgt id='2010'> +2.4442728E+03 </wgt>
<wgt id='2011'> +2.7376201E+03 </wgt>
<wgt id='2012'> +2.7732518E+03 </wgt>
<wgt id='2013'> +2.7770570E+03 </wgt>
<wgt id='2014'> +2.6108673E+03 </wgt>
<wgt id='2015'> +2.6433433E+03 </wgt>
<wgt id='2016'> +2.7370279E+03 </wgt>
<wgt id='2017'> +2.7134069E+03 </wgt>
<wgt id='2018'> +2.7717692E+03 </wgt>
<wgt id='2019'> +2.6910480E+03 </wgt>
<wgt id='2020'> +2.4481186E+03 </wgt>
<wgt id='2021'> +2.8034887E+03 </wgt>
<wgt id='2022'> +2.8697879E+03 </wgt>
<wgt id='2023'> +2.7443501E+03 </wgt>
<wgt id='2024'> +2.7049666E+03 </wgt>
<wgt id='2025'> +2.7831211E+03 </wgt>
<wgt id='2026'> +2.6538448E+03 </wgt>
<wgt id='2027'> +2.6404071E+03 </wgt>
<wgt id='2028'> +2.7295165E+03 </wgt>
<wgt id='2029'> +2.9148075E+03 </wgt>
<wgt id='2030'> +2.7907987E+03 </wgt>
<wgt id='2031'> +2.6332735E+03 </wgt>
<wgt id='2032'> +2.8461096E+03 </wgt>
<wgt id='2033'> +2.9382685E+03 </wgt>
<wgt id='2034'> +2.7974049E+03 </wgt>
<wgt id='2035'> +2.7309973E+03 </wgt>
<wgt id='2036'> +2.7262215E+03 </wgt>
<wgt id='2037'> +2.7717475E+03 </wgt>
<wgt id='2038'> +2.7173209E+03 </wgt>
<wgt id='2039'> +2.8042401E+03 </wgt>
<wgt id='2040'> +2.9209557E+03 </wgt>
<wgt id='2041'> +2.6441363E+03 </wgt>
<wgt id='2042'> +2.7761998E+03 </wgt>
<wgt id='2043'> +2.7974027E+03 </wgt>
<wgt id='2044'> +2.8507974E+03 </wgt>
<wgt id='2045'> +2.7653227E+03 </wgt>
<wgt id='2046'> +2.7548061E+03 </wgt>
<wgt id='2047'> +2.6158423E+03 </wgt>
<wgt id='2048'> +2.5859512E+03 </wgt>
<wgt id='2049'> +2.7872216E+03 </wgt>
<wgt id='2050'> +2.6522444E+03 </wgt>
<wgt id='2051'> +2.6954343E+03 </wgt>
<wgt id='2052'> +2.7505139E+03 </wgt>
<wgt id='2053'> +2.6962041E+03 </wgt>
<wgt id='2054'> +2.7446482E+03 </wgt>
<wgt id='2055'> +2.6576050E+03 </wgt>
<wgt id='2056'> +2.6329730E+03 </wgt>
<wgt id='2057'> +2.7177110E+03 </wgt>
<wgt id='2058'> +2.8019246E+03 </wgt>
<wgt id='2059'> +2.7762539E+03 </wgt>
<wgt id='2060'> +2.7219312E+03 </wgt>
<wgt id='2061'> +2.7505628E+03 </wgt>
<wgt id='2062'> +2.8142676E+03 </wgt>
<wgt id='2063'> +2.7332545E+03 </wgt>
<wgt id='2064'> +2.7847585E+03 </wgt>
<wgt id='2065'> +2.6162506E+03 </wgt>
<wgt id='2066'> +2.7360430E+03 </wgt>
<wgt id='2067'> +2.7079072E+03 </wgt>
<wgt id='2068'> +2.8397746E+03 </wgt>
<wgt id='2069'> +2.7669803E+03 </wgt>
<wgt id='2070'> +2.7435663E+03 </wgt>
<wgt id='2071'> +2.7532659E+03 </wgt>
<wgt id='2072'> +2.7963449E+03 </wgt>
<wgt id='2073'> +2.5326420E+03 </wgt>
<wgt id='2074'> +2.7974396E+03 </wgt>
<wgt id='2075'> +2.8277269E+03 </wgt>
<wgt id='2076'> +2.6189813E+03 </wgt>
<wgt id='2077'> +2.7323576E+03 </wgt>
<wgt id='2078'> +2.7380872E+03 </wgt>
<wgt id='2079'> +2.8091786E+03 </wgt>
<wgt id='2080'> +2.6777093E+03 </wgt>
<wgt id='2081'> +2.6932800E+03 </wgt>
<wgt id='2082'> +2.4614977E+03 </wgt>
<wgt id='2083'> +2.8322013E+03 </wgt>
<wgt id='2084'> +2.6884254E+03 </wgt>
<wgt id='2085'> +2.6537297E+03 </wgt>
<wgt id='2086'> +2.7282185E+03 </wgt>
<wgt id='2087'> +2.7027120E+03 </wgt>
<wgt id='2088'> +2.6579732E+03 </wgt>
<wgt id='2089'> +2.8123272E+03 </wgt>
<wgt id='2090'> +2.7789912E+03 </wgt>
<wgt id='2091'> +2.8337546E+03 </wgt>
<wgt id='2092'> +2.6171167E+03 </wgt>
<wgt id='2093'> +2.7538428E+03 </wgt>
<wgt id='2094'> +2.7383877E+03 </wgt>
<wgt id='2095'> +2.6895686E+03 </wgt>
<wgt id='2096'> +2.7523935E+03 </wgt>
<wgt id='2097'> +2.6520718E+03 </wgt>
<wgt id='2098'> +2.6875037E+03 </wgt>
<wgt id='2099'> +2.8271695E+03 </wgt>
<wgt id='2100'> +2.7192192E+03 </wgt>
<wgt id='2101'> +2.8373378E+03 </wgt>
<wgt id='2102'> +2.7264265E+03 </wgt>
<wgt id='2103'> +2.6472531E+03 </wgt>
<wgt id='2104'> +2.6031587E+03 </wgt>
<wgt id='2105'> +2.6890870E+03 </wgt>
<wgt id='2106'> +2.8116565E+03 </wgt>
<wgt id='2107'> +2.8281638E+03 </wgt>
<wgt id='2108'> +2.7772711E+03 </wgt>
<wgt id='2109'> +2.6319275E+03 </wgt>
<wgt id='2110'> +2.7223205E+03 </wgt>
<wgt id='2111'> +2.7342596E+03 </wgt>
<wgt id='2112'> +2.8301327E+03 </wgt>
<wgt id='2113'> +3.4374948E+03 </wgt>
<wgt id='2114'> +3.3030472E+03 </wgt>
<wgt id='2115'> +2.6781149E+03 </wgt>
<wgt id='2116'> +2.8424740E+03 </wgt>
</rwgt>
</event>
<event>
 7      7 +2.9771057E+03 1.81636000e+02 7.54677100e-03 1.06898000e-01
       21 -1    0    0  503  502 +0.0000000000e+00 +0.0000000000e+00 +1.0579198197e+01 1.0579198197e+01 0.0000000000e+00 0.0000e+00 -1.0000e+00
        1 -1    0    0  502    0 -0.0000000000e+00 -0.0000000000e+00 -1.1493034565e+03 1.1493034565e+03 0.0000000000e+00 0.0000e+00 -1.0000e+00
      -24  2    1    2    0    0 +2.0312141261e+01 +7.5428357974e+01 -8.6082088254e+02 8.6813780730e+02 8.0923670001e+01 0.0000e+00 0.0000e+00
       15  1    3    3    0    0 +8.2146056447e+00 +7.1334536770e+01 -8.4383353069e+02 8.4688504599e+02 1.7770000000e+00 0.0000e+00 -1.0000e+00
      -16  1    3    3    0    0 +1.2097535616e+01 +4.0938212043e+00 -1.6987351855e+01 2.1252761305e+01 0.0000000000e+00 0.0000e+00 1.0000e+00
       21  1    1    2  503  501 -9.2093012316e+00 -1.4450308656e+01 -1.9262483951e+01 2.5781115906e+01 0.0000000000e+00 0.0000e+00 -1.0000e+00
        2  1    1    2  501    0 -1.1102840029e+01 -6.0978049318e+01 -2.5864089185e+02 2.6596373154e+02 0.0000000000e+00 0.0000e+00 -1.0000e+00
<scales pt_clust_4="13000.00000" pt_clust_5="13000.00000" pt_clust_6="17.13542" pt_clust_7="13000.00000"></scales>
<mgrwt>
<rscale>  1 0.18163600E+03</rscale>
<asrwt>  1 0.17135421E+02</asrwt>
<pdfrwt beam="1">  1       21 0.16275697E-02 0.18163600E+03</pdfrwt>
<pdfrwt beam="2">  1        1 0.17681584E+00 0.18163600E+03</pdfrwt>
<totfact> 0.36778434E+03</totfact>
</mgrwt>
<clustering>
<clus scale="   17.135">  1  6  2 -1</clus>
<clus scale="   80.924">  4  5 -1 -1</clus>
<clus scale="   69.992">  4  7 -1 -1</clus>
<clus scale="  181.636">  1  4  2 -1</clus>
</clustering>
<rwgt>
<wgt id='1001'> +2.9771057E+03 </wgt>
<wgt id='1002'> +3.0058410E+03 </wgt>
<wgt id='1003'> +3.0058043E+03 </wgt>
<wgt id='1004'> +3.1941806E+03 </wgt>
<wgt id='1005'> +2.9236113E+03 </wgt>
<wgt id='1006'> +2.7206519E+03 </wgt>
<wgt id='1007'> +2.7433627E+03 </wgt>
<wgt id='1008'> +2.7433337E+03 </wgt>
<wgt id='1009'> +2.8872646E+03 </wgt>
<wgt id='1010'> +2.6779239E+03 </wgt>
<wgt id='1011'> +3.2883735E+03 </wgt>
<wgt id='1012'> +3.3253687E+03 </wgt>
<wgt id='1013'> +3.3253210E+03 </wgt>
<wgt id='1014'> +3.5763528E+03 </wgt>
<wgt id='1015'> +3.2202030E+03 </wgt>
<wgt id='1016'> +3.0496430E+03 </wgt>
<wgt id='1017'> +3.0845344E+03 </wgt>
<wgt id='1018'> +3.0844894E+03 </wgt>
<wgt id='1019'> +3.3253210E+03 </wgt>
<wgt id='1020'> +2.9855871E+03 </wgt>
<wgt id='1021'> +2.7869405E+03 </wgt>
<wgt id='1022'> +2.8151841E+03 </wgt>
<wgt id='1023'> +2.8151479E+03 </wgt>
<wgt id='1024'> +3.0058043E+03 </wgt>
<wgt id='1025'> +2.7346913E+03 </wgt>
<wgt id='1026'> +3.3684949E+03 </wgt>
<wgt id='1027'> +3.4124271E+03 </wgt>
<wgt id='1028'> +3.4123705E+03 </wgt>
<wgt id='1029'> +3.7231838E+03 </wgt>
<wgt id='1030'> +3.2884660E+03 </wgt>
<wgt id='1031'> +2.8668975E+03 </wgt>
<wgt id='1032'> +2.8872902E+03 </wgt>
<wgt id='1033'> +2.8872646E+03 </wgt>
<wgt id='1034'> +3.0039747E+03 </wgt>
<wgt id='1035'> +2.8274961E+03 </wgt>
<wgt id='1036'> +2.6199372E+03 </wgt>
<wgt id='1037'> +2.6351641E+03 </wgt>
<wgt id='1038'> +2.6351449E+03 </wgt>
<wgt id='1039'> +2.7153348E+03 </wgt>
<wgt id='1040'> +2.5898856E+03 </wgt>
<wgt id='1041'> +3.1666425E+03 </wgt>
<wgt id='1042'> +3.1942156E+03 </wgt>
<wgt id='1043'> +3.1941806E+03 </wgt>
<wgt id='1044'> +3.3633895E+03 </wgt>
<wgt id='1045'> +3.1143371E+03 </wgt>
<wgt id='1046'> +2.9771057E+03 </wgt>
<wgt id='1047'> +2.9708250E+03 </wgt>
<wgt id='1048'> +2.9834075E+03 </wgt>
<wgt id='1049'> +2.9840208E+03 </wgt>
<wgt id='1050'> +2.9708135E+03 </wgt>
<wgt id='1051'> +2.9753186E+03 </wgt>
<wgt id='1052'> +2.9848418E+03 </wgt>
<wgt id='1053'> +2.9763993E+03 </wgt>
<wgt id='1054'> +2.9864103E+03 </wgt>
<wgt id='1055'> +2.9655776E+03 </wgt>
<wgt id='1056'> +2.9775730E+03 </wgt>
<wgt id='1057'> +2.9815006E+03 </wgt>
<wgt id='1058'> +2.9764365E+03 </wgt>
<wgt id='1059'> +2.9822803E+03 </wgt>
<wgt id='1060'> +2.9732362E+03 </wgt>
<wgt id='1061'> +2.9803638E+03 </wgt>
<wgt id='1062'> +2.9778315E+03 </wgt>
<wgt id='1063'> +2.9766981E+03 </wgt>
<wgt id='1064'> +2.9791566E+03 </wgt>
<wgt id='1065'> +2.9691896E+03 </wgt>
<wgt id='1066'> +2.9736605E+03 </wgt>
<wgt id='1067'> +2.9718056E+03 </wgt>
<wgt id='1068'> +2.9824772E+03 </wgt>
<wgt id='1069'> +2.9677761E+03 </wgt>
<wgt id='1070'> +2.9938074E+03 </wgt>
<wgt id='1071'> +2.9776075E+03 </wgt>
<wgt id='1072'> +2.9782826E+03 </wgt>
<wgt id='1073'> +2.9955021E+03 </wgt>
<wgt id='1074'> +2.9891587E+03 </wgt>
<wgt id='1075'> +2.9321900E+03 </wgt>
<wgt id='1076'> +2.9580853E+03 </wgt>
<wgt id='1077'> +2.9696823E+03 </wgt>
<wgt id='1078'> +2.9627101E+03 </wgt>
<wgt id='1079'> +2.9764825E+03 </wgt>
<wgt id='1080'> +2.9787677E+03 </wgt>
<wgt id='1081'> +2.9778465E+03 </wgt>
<wgt id='1082'> +2.9780257E+03 </wgt>
<wgt id='1083'> +2.9854128E+03 </wgt>
<wgt id='1084'> +2.9759637E+03 </wgt>
<wgt id='1085'> +2.9762932E+03 </wgt>
<wgt id='1086'> +2.9773417E+03 </wgt>
<wgt id='1087'> +2.9756174E+03 </wgt>
<wgt id='1088'> +2.9745808E+03 </wgt>
<wgt id='1089'> +2.9796500E+03 </wgt>
<wgt id='1090'> +2.9829854E+03 </wgt>
<wgt id='1091'> +2.9726775E+03 </wgt>
<wgt id='1092'> +2.9739111E+03 </wgt>
<wgt id='1093'> +2.9764636E+03 </wgt>
<wgt id='1094'> +2.9689004E+03 </wgt>
<wgt id='1095'> +2.9818121E+03 </wgt>
<wgt id='1096'> +2.9923248E+03 </wgt>
<wgt id='1097'> +2.9938531E+03 </wgt>
<wgt id='1098'> +2.9735030E+03 </wgt>
<wgt id='1099'> +2.9806113E+03 </wgt>
<wgt id='1100'> +2.9833162E+03 </wgt>
<wgt id='1101'> +2.9807283E+03 </wgt>
<wgt id='1102'> +2.9726291E+03 </wgt>
<wgt id='1103'> +2.9714905E+03 </wgt>
<wgt id='1104'> +2.9751431E+03 </wgt>
<wgt id='1105'> +2.9722687E+03 </wgt>
<wgt id='1106'> +2.9696791E+03 </wgt>
<wgt id='1107'> +2.9753250E+03 </wgt>
<wgt id='1108'> +2.9655867E+03 </wgt>
<wgt id='1109'> +2.9744715E+03 </wgt>
<wgt id='1110'> +2.9867377E+03 </wgt>
<wgt id='1111'> +2.9742377E+03 </wgt>
<wgt id='1112'> +2.9779368E+03 </wgt>
<wgt id='1113'> +2.9736209E+03 </wgt>
<wgt id='1114'> +2.9707731E+03 </wgt>
<wgt id='1115'> +2.9807644E+03 </wgt>
<wgt id='1116'> +2.9753555E+03 </wgt>
<wgt id='1117'> +2.9746472E+03 </wgt>
<wgt id='1118'> +2.9741656E+03 </wgt>
<wgt id='1119'> +2.9835628E+03 </wgt>
<wgt id='1120'> +2.9781797E+03 </wgt>
<wgt id='1121'> +2.9799540E+03 </wgt>
<wgt id='1122'> +2.9782745E+03 </wgt>
<wgt id='1123'> +2.9744053E+03 </wgt>
<wgt id='1124'> +2.9750097E+03 </wgt>
<wgt id='1125'> +2.9821872E+03 </wgt>
<wgt id='1126'> +2.9734550E+03 </wgt>
<wgt id='1127'> +2.9755012E+03 </wgt>
<wgt id='1128'> +2.9737632E+03 </wgt>
<wgt id='1129'> +2.9736667E+03 </wgt>
<wgt id='1130'> +2.9742392E+03 </wgt>
<wgt id='1131'> +2.9768696E+03 </wgt>
<wgt id='1132'> +2.9769181E+03 </wgt>
<wgt id='1133'> +2.9791765E+03 </wgt>
<wgt id='1134'> +2.9794514E+03 </wgt>
<wgt id='1135'> +2.9756691E+03 </wgt>
<wgt id='1136'> +2.9763019E+03 </wgt>
<wgt id='1137'> +2.9782378E+03 </wgt>
<wgt id='1138'> +2.9812943E+03 </wgt>
<wgt id='1139'> +2.9736049E+03 </wgt>
<wgt id='1140'> +2.9795215E+03 </wgt>
<wgt id='1141'> +2.9782363E+03 </wgt>
<wgt id='1142'> +2.9798245E+03 </wgt>
<wgt id='1143'> +2.9779560E+03 </wgt>
<wgt id='1144'> +2.9744004E+03 </wgt>
<wgt id='1145'> +2.9765728E+03 </wgt>
<wgt id='1146'> +2.9763863E+03 </wgt>
<wgt id='1147'> +2.8852295E+03 </wgt>
<wgt id='1148'> +3.0537650E+03 </wgt>
<wgt id='1149'> +2.5420611E+03 </wgt>
<wgt id='1150'> +2.6123588E+03 </wgt>
<wgt id='1151'> +2.7136964E+03 </wgt>
<wgt id='1152'> +2.8085431E+03 </wgt>
<wgt id='1153'> +2.9317172E+03 </wgt>
<wgt id='1154'> +3.0157289E+03 </wgt>
<wgt id='1155'> +3.1530224E+03 </wgt>
<wgt id='1156'> +3.2205852E+03 </wgt>
<wgt id='1157'> +2.9620960E+03 </wgt>
<wgt id='1158'> +2.9714797E+03 </wgt>
<wgt id='1159'> +2.9488473E+03 </wgt>
<wgt id='1160'> +2.9693537E+03 </wgt>
<wgt id='1161'> +2.9551012E+03 </wgt>
<wgt id='1162'> +2.9666135E+03 </wgt>
<wgt id='1163'> +2.9690545E+03 </wgt>
<wgt id='1164'> +2.9649008E+03 </wgt>
<wgt id='1165'> +2.9681217E+03 </wgt>
<wgt id='1166'> +2.9559791E+03 </wgt>
<wgt id='1167'> +2.9677097E+03 </wgt>
<wgt id='1168'> +2.9648346E+03 </wgt>
<wgt id='1169'> +2.9577838E+03 </wgt>
<wgt id='1170'> +2.9599560E+03 </wgt>
<wgt id='1171'> +2.9602115E+03 </wgt>
<wgt id='1172'> +2.9660991E+03 </wgt>
<wgt id='1173'> +2.9698194E+03 </wgt>
<wgt id='1174'> +2.9579226E+03 </wgt>
<wgt id='1175'> +2.9586684E+03 </wgt>
<wgt id='1176'> +2.9570012E+03 </wgt>
<wgt id='1177'> +2.9586898E+03 </wgt>
<wgt id='1178'> +2.9635954E+03 </wgt>
<wgt id='1179'> +2.9615204E+03 </wgt>
<wgt id='1180'> +2.9604786E+03 </wgt>
<wgt id='1181'> +2.9662753E+03 </wgt>
<wgt id='1182'> +2.9583282E+03 </wgt>
<wgt id='1183'> +2.9628103E+03 </wgt>
<wgt id='1184'> +2.9532442E+03 </wgt>
<wgt id='1185'> +2.9737664E+03 </wgt>
<wgt id='1186'> +2.9710227E+03 </wgt>
<wgt id='1187'> +2.9157846E+03 </wgt>
<wgt id='1188'> +2.9534539E+03 </wgt>
<wgt id='1189'> +2.9719746E+03 </wgt>
<wgt id='1190'> +2.9642424E+03 </wgt>
<wgt id='1191'> +2.9570302E+03 </wgt>
<wgt id='1192'> +2.9729232E+03 </wgt>
<wgt id='1193'> +2.9615088E+03 </wgt>
<wgt id='1194'> +2.9536643E+03 </wgt>
<wgt id='1195'> +2.9589918E+03 </wgt>
<wgt id='1196'> +2.9632587E+03 </wgt>
<wgt id='1197'> +2.9544307E+03 </wgt>
<wgt id='1198'> +2.9695169E+03 </wgt>
<wgt id='1199'> +2.9613505E+03 </wgt>
<wgt id='1200'> +2.9618123E+03 </wgt>
<wgt id='1201'> +2.9639608E+03 </wgt>
<wgt id='1202'> +2.9688829E+03 </wgt>
<wgt id='1203'> +2.9574823E+03 </wgt>
<wgt id='1204'> +2.9596523E+03 </wgt>
<wgt id='1205'> +2.9722572E+03 </wgt>
<wgt id='1206'> +2.9511293E+03 </wgt>
<wgt id='1207'> +2.9594734E+03 </wgt>
<wgt id='1208'> +2.9811028E+03 </wgt>
<wgt id='1209'> +2.9645668E+03 </wgt>
<wgt id='1210'> +2.9751269E+03 </wgt>
<wgt id='1211'> +2.9728383E+03 </wgt>
<wgt id='1212'> +2.9560878E+03 </wgt>
<wgt id='1213'> +2.9670152E+03 </wgt>
<wgt id='1214'> +2.9587272E+03 </wgt>
<wgt id='1215'> +2.9624977E+03 </wgt>
<wgt id='1216'> +2.9542343E+03 </wgt>
<wgt id='1217'> +2.9709732E+03 </wgt>
<wgt id='1218'> +2.9642518E+03 </wgt>
<wgt id='1219'> +2.9686437E+03 </wgt>
<wgt id='1220'> +2.9600646E+03 </wgt>
<wgt id='1221'> +2.9696045E+03 </wgt>
<wgt id='1222'> +2.9560238E+03 </wgt>
<wgt id='1223'> +2.9588259E+03 </wgt>
<wgt id='1224'> +2.9645628E+03 </wgt>
<wgt id='1225'> +2.9588638E+03 </wgt>
<wgt id='1226'> +2.9590927E+03 </wgt>
<wgt id='1227'> +2.9677872E+03 </wgt>
<wgt id='1228'> +2.9673334E+03 </wgt>
<wgt id='1229'> +2.9656654E+03 </wgt>
<wgt id='1230'> +2.9645306E+03 </wgt>
<wgt id='1231'> +2.9588099E+03 </wgt>
<wgt id='1232'> +2.9596767E+03 </wgt>
<wgt id='1233'> +2.9575714E+03 </wgt>
<wgt id='1234'> +2.9654592E+03 </wgt>
<wgt id='1235'> +2.9587619E+03 </wgt>
<wgt id='1236'> +2.9622565E+03 </wgt>
<wgt id='1237'> +2.9610756E+03 </wgt>
<wgt id='1238'> +2.9613459E+03 </wgt>
<wgt id='1239'> +2.9654681E+03 </wgt>
<wgt id='1240'> +2.9621684E+03 </wgt>
<wgt id='1241'> +2.9634602E+03 </wgt>
<wgt id='1242'> +2.9625349E+03 </wgt>
<wgt id='1243'> +2.9624938E+03 </wgt>
<wgt id='1244'> +2.9597210E+03 </wgt>
<wgt id='1245'> +2.9651922E+03 </wgt>
<wgt id='1246'> +2.9650238E+03 </wgt>
<wgt id='1247'> +2.9607936E+03 </wgt>
<wgt id='1248'> +2.9641405E+03 </wgt>
<wgt id='1249'> +2.9620818E+03 </wgt>
<wgt id='1250'> +2.9637369E+03 </wgt>
<wgt id='1251'> +2.9619644E+03 </wgt>
<wgt id='1252'> +2.9661405E+03 </wgt>
<wgt id='1253'> +2.9614111E+03 </wgt>
<wgt id='1254'> +2.9636298E+03 </wgt>
<wgt id='1255'> +2.9605952E+03 </wgt>
<wgt id='1256'> +2.9643507E+03 </wgt>
<wgt id='1257'> +2.9617852E+03 </wgt>
<wgt id='1258'> +2.8744349E+03 </wgt>
<wgt id='1259'> +3.0581736E+03 </wgt>
<wgt id='1260'> +2.8429952E+03 </wgt>
<wgt id='1261'> +2.8354439E+03 </wgt>
<wgt id='1262'> +2.8562646E+03 </wgt>
<wgt id='1263'> +2.8435177E+03 </wgt>
<wgt id='1264'> +2.8575882E+03 </wgt>
<wgt id='1265'> +2.8336805E+03 </wgt>
<wgt id='1266'> +2.8781478E+03 </wgt>
<wgt id='1267'> +2.8480977E+03 </wgt>
<wgt id='1268'> +2.9098867E+03 </wgt>
<wgt id='1269'> +2.8630148E+03 </wgt>
<wgt id='1270'> +2.8219690E+03 </wgt>
<wgt id='1271'> +2.8565122E+03 </wgt>
<wgt id='1272'> +2.8138738E+03 </wgt>
<wgt id='1273'> +2.8228410E+03 </wgt>
<wgt id='1274'> +2.8137844E+03 </wgt>
<wgt id='1275'> +2.8605596E+03 </wgt>
<wgt id='1276'> +2.7936428E+03 </wgt>
<wgt id='1277'> +2.8647502E+03 </wgt>
<wgt id='1278'> +2.8204229E+03 </wgt>
<wgt id='1279'> +2.8138600E+03 </wgt>
<wgt id='1280'> +2.8716124E+03 </wgt>
<wgt id='1281'> +2.8829254E+03 </wgt>
<wgt id='1282'> +2.8194786E+03 </wgt>
<wgt id='1283'> +2.8474928E+03 </wgt>
<wgt id='1284'> +2.8372610E+03 </wgt>
<wgt id='1285'> +2.8430784E+03 </wgt>
<wgt id='1286'> +2.8431909E+03 </wgt>
<wgt id='1287'> +2.8610607E+03 </wgt>
<wgt id='1288'> +2.8123865E+03 </wgt>
<wgt id='1289'> +2.8052413E+03 </wgt>
<wgt id='1290'> +2.8658666E+03 </wgt>
<wgt id='1291'> +2.8268985E+03 </wgt>
<wgt id='1292'> +2.8663408E+03 </wgt>
<wgt id='1293'> +2.8560300E+03 </wgt>
<wgt id='1294'> +2.8301507E+03 </wgt>
<wgt id='1295'> +2.8142565E+03 </wgt>
<wgt id='1296'> +2.8688217E+03 </wgt>
<wgt id='1297'> +2.8913782E+03 </wgt>
<wgt id='1298'> +2.7885022E+03 </wgt>
<wgt id='1299'> +2.8432620E+03 </wgt>
<wgt id='1300'> +2.8336273E+03 </wgt>
<wgt id='1301'> +2.7969818E+03 </wgt>
<wgt id='1302'> +2.8600607E+03 </wgt>
<wgt id='1303'> +2.8690203E+03 </wgt>
<wgt id='1304'> +2.7955760E+03 </wgt>
<wgt id='1305'> +2.8201052E+03 </wgt>
<wgt id='1306'> +2.8963906E+03 </wgt>
<wgt id='1307'> +2.8955004E+03 </wgt>
<wgt id='1308'> +2.8306350E+03 </wgt>
<wgt id='1309'> +2.8475801E+03 </wgt>
<wgt id='1310'> +2.8559151E+03 </wgt>
<wgt id='1311'> +2.8123351E+03 </wgt>
<wgt id='1312'> +2.8289427E+03 </wgt>
<wgt id='1313'> +2.8667331E+03 </wgt>
<wgt id='1314'> +2.9088222E+03 </wgt>
<wgt id='1315'> +2.8534018E+03 </wgt>
<wgt id='1316'> +2.8397140E+03 </wgt>
<wgt id='1317'> +2.7756313E+03 </wgt>
<wgt id='1318'> +2.9045479E+03 </wgt>
<wgt id='1319'> +2.9503755E+03 </wgt>
<wgt id='1320'> +2.9297701E+03 </wgt>
<wgt id='1321'> +2.9198472E+03 </wgt>
<wgt id='1322'> +2.9770195E+03 </wgt>
<wgt id='1323'> +2.9628496E+03 </wgt>
<wgt id='1324'> +2.9631046E+03 </wgt>
<wgt id='1325'> +2.9427001E+03 </wgt>
<wgt id='1326'> +2.9646480E+03 </wgt>
<wgt id='1327'> +2.9562481E+03 </wgt>
<wgt id='1328'> +2.9511842E+03 </wgt>
<wgt id='1329'> +2.9370941E+03 </wgt>
<wgt id='1330'> +2.8923105E+03 </wgt>
<wgt id='1331'> +2.9890022E+03 </wgt>
<wgt id='1332'> +2.8421538E+03 </wgt>
<wgt id='1333'> +3.0438386E+03 </wgt>
<wgt id='1334'> +2.9324686E+03 </wgt>
<wgt id='1335'> +2.9512699E+03 </wgt>
<wgt id='1336'> +2.9776582E+03 </wgt>
<wgt id='1337'> +2.9169177E+03 </wgt>
<wgt id='1338'> +2.9842854E+03 </wgt>
<wgt id='1339'> +2.9145326E+03 </wgt>
<wgt id='1340'> +2.9607161E+03 </wgt>
<wgt id='1341'> +2.9368777E+03 </wgt>
<wgt id='1342'> +2.9252113E+03 </wgt>
<wgt id='1343'> +2.9758032E+03 </wgt>
<wgt id='1344'> +2.9087882E+03 </wgt>
<wgt id='1345'> +2.9897627E+03 </wgt>
<wgt id='1346'> +2.9297657E+03 </wgt>
<wgt id='1347'> +2.9795491E+03 </wgt>
<wgt id='1348'> +2.9550350E+03 </wgt>
<wgt id='1349'> +2.9484782E+03 </wgt>
<wgt id='1350'> +2.9448691E+03 </wgt>
<wgt id='1351'> +2.9575030E+03 </wgt>
<wgt id='1352'> +2.9489096E+03 </wgt>
<wgt id='1353'> +2.9540111E+03 </wgt>
<wgt id='1354'> +3.0071053E+03 </wgt>
<wgt id='1355'> +2.8942878E+03 </wgt>
<wgt id='1356'> +2.9479448E+03 </wgt>
<wgt id='1357'> +2.9457564E+03 </wgt>
<wgt id='1358'> +2.9182430E+03 </wgt>
<wgt id='1359'> +2.9660691E+03 </wgt>
<wgt id='1360'> +2.9342000E+03 </wgt>
<wgt id='1361'> +2.9615947E+03 </wgt>
<wgt id='1362'> +2.9499760E+03 </wgt>
<wgt id='1363'> +2.9444692E+03 </wgt>
<wgt id='1364'> +2.9438064E+03 </wgt>
<wgt id='1365'> +2.9525652E+03 </wgt>
<wgt id='1366'> +2.9407208E+03 </wgt>
<wgt id='1367'> +3.0143283E+03 </wgt>
<wgt id='1368'> +2.9620237E+03 </wgt>
<wgt id='1369'> +2.9782299E+03 </wgt>
<wgt id='1370'> +2.9588143E+03 </wgt>
<wgt id='1371'> +2.9309367E+03 </wgt>
<wgt id='1372'> +2.8954485E+03 </wgt>
<wgt id='1373'> +2.9313684E+03 </wgt>
<wgt id='1374'> +2.9662997E+03 </wgt>
<wgt id='1375'> +2.9459338E+03 </wgt>
<wgt id='1376'> +2.8681754E+03 </wgt>
<wgt id='1377'> +3.0258972E+03 </wgt>
<wgt id='1378'> +3.1295727E+03 </wgt>
<wgt id='1379'> +3.0033567E+03 </wgt>
<wgt id='1380'> +3.0046035E+03 </wgt>
<wgt id='1381'> +3.0019016E+03 </wgt>
<wgt id='1382'> +3.0046973E+03 </wgt>
<wgt id='1383'> +3.0024404E+03 </wgt>
<wgt id='1384'> +3.0009349E+03 </wgt>
<wgt id='1385'> +3.0056020E+03 </wgt>
<wgt id='1386'> +2.9970019E+03 </wgt>
<wgt id='1387'> +3.0103636E+03 </wgt>
<wgt id='1388'> +3.0151725E+03 </wgt>
<wgt id='1389'> +2.9918005E+03 </wgt>
<wgt id='1390'> +3.0005918E+03 </wgt>
<wgt id='1391'> +3.0091879E+03 </wgt>
<wgt id='1392'> +3.0167232E+03 </wgt>
<wgt id='1393'> +2.9794418E+03 </wgt>
<wgt id='1394'> +3.0194185E+03 </wgt>
<wgt id='1395'> +2.9941445E+03 </wgt>
<wgt id='1396'> +3.0027788E+03 </wgt>
<wgt id='1397'> +3.0040655E+03 </wgt>
<wgt id='1398'> +2.9898552E+03 </wgt>
<wgt id='1399'> +3.0149704E+03 </wgt>
<wgt id='1400'> +3.0151358E+03 </wgt>
<wgt id='1401'> +2.9876446E+03 </wgt>
<wgt id='1402'> +3.0241463E+03 </wgt>
<wgt id='1403'> +2.9902419E+03 </wgt>
<wgt id='1404'> +2.9994092E+03 </wgt>
<wgt id='1405'> +2.9988163E+03 </wgt>
<wgt id='1406'> +2.9879131E+03 </wgt>
<wgt id='1407'> +2.9960273E+03 </wgt>
<wgt id='1408'> +3.0260186E+03 </wgt>
<wgt id='1409'> +2.9754360E+03 </wgt>
<wgt id='1410'> +3.0430929E+03 </wgt>
<wgt id='1411'> +2.9576165E+03 </wgt>
<wgt id='1412'> +2.9891196E+03 </wgt>
<wgt id='1413'> +3.0167720E+03 </wgt>
<wgt id='1414'> +3.0025733E+03 </wgt>
<wgt id='1415'> +3.0089105E+03 </wgt>
<wgt id='1416'> +3.0125848E+03 </wgt>
<wgt id='1417'> +2.9991604E+03 </wgt>
<wgt id='1418'> +2.9938143E+03 </wgt>
<wgt id='1419'> +3.0119602E+03 </wgt>
<wgt id='1420'> +2.9781620E+03 </wgt>
<wgt id='1421'> +3.0303443E+03 </wgt>
<wgt id='1422'> +3.0165204E+03 </wgt>
<wgt id='1423'> +2.9978599E+03 </wgt>
<wgt id='1424'> +2.9900290E+03 </wgt>
<wgt id='1425'> +3.0369225E+03 </wgt>
<wgt id='1426'> +2.9850316E+03 </wgt>
<wgt id='1427'> +3.0079563E+03 </wgt>
<wgt id='1428'> +3.0013400E+03 </wgt>
<wgt id='1429'> +2.9867660E+03 </wgt>
<wgt id='1430'> +2.9875553E+03 </wgt>
<wgt id='1431'> +2.9886714E+03 </wgt>
<wgt id='1432'> +2.9859784E+03 </wgt>
<wgt id='1433'> +2.9899564E+03 </wgt>
<wgt id='1434'> +2.9850961E+03 </wgt>
<wgt id='1435'> +2.9902913E+03 </wgt>
<wgt id='1436'> +2.9863621E+03 </wgt>
<wgt id='1437'> +2.9788612E+03 </wgt>
<wgt id='1438'> +2.9960596E+03 </wgt>
<wgt id='1439'> +2.9980918E+03 </wgt>
<wgt id='1440'> +2.9773870E+03 </wgt>
<wgt id='1441'> +2.9829824E+03 </wgt>
<wgt id='1442'> +2.9894462E+03 </wgt>
<wgt id='1443'> +2.9874435E+03 </wgt>
<wgt id='1444'> +2.9875590E+03 </wgt>
<wgt id='1445'> +3.0060974E+03 </wgt>
<wgt id='1446'> +2.9672052E+03 </wgt>
<wgt id='1447'> +2.9704017E+03 </wgt>
<wgt id='1448'> +2.9967229E+03 </wgt>
<wgt id='1449'> +2.9866811E+03 </wgt>
<wgt id='1450'> +2.9887991E+03 </wgt>
<wgt id='1451'> +2.9660683E+03 </wgt>
<wgt id='1452'> +3.0022041E+03 </wgt>
<wgt id='1453'> +2.9619304E+03 </wgt>
<wgt id='1454'> +3.0097801E+03 </wgt>
<wgt id='1455'> +2.9798863E+03 </wgt>
<wgt id='1456'> +3.0073913E+03 </wgt>
<wgt id='1457'> +2.9828892E+03 </wgt>
<wgt id='1458'> +2.9693742E+03 </wgt>
<wgt id='1459'> +2.9681389E+03 </wgt>
<wgt id='1460'> +3.0364829E+03 </wgt>
<wgt id='1461'> +3.0057725E+03 </wgt>
<wgt id='1462'> +2.9464162E+03 </wgt>
<wgt id='1463'> +2.9844210E+03 </wgt>
<wgt id='1464'> +2.9930789E+03 </wgt>
<wgt id='1465'> +2.9979197E+03 </wgt>
<wgt id='1466'> +2.9815702E+03 </wgt>
<wgt id='1467'> +2.9872875E+03 </wgt>
<wgt id='1468'> +2.9699215E+03 </wgt>
<wgt id='1469'> +2.9776107E+03 </wgt>
<wgt id='1470'> +2.9924892E+03 </wgt>
<wgt id='1471'> +3.0056387E+03 </wgt>
<wgt id='1472'> +2.9493814E+03 </wgt>
<wgt id='1473'> +2.9798760E+03 </wgt>
<wgt id='1474'> +2.9883121E+03 </wgt>
<wgt id='1475'> +2.9798705E+03 </wgt>
<wgt id='1476'> +2.9934276E+03 </wgt>
<wgt id='1477'> +3.0066059E+03 </wgt>
<wgt id='1478'> +2.9791713E+03 </wgt>
<wgt id='1479'> +2.9899724E+03 </wgt>
<wgt id='1480'> +2.9858881E+03 </wgt>
<wgt id='1481'> +4.4730883E+03 </wgt>
<wgt id='1482'> +2.9123375E+03 </wgt>
<wgt id='1483'> +2.9116941E+03 </wgt>
<wgt id='1484'> +2.9126872E+03 </wgt>
<wgt id='1485'> +2.9117640E+03 </wgt>
<wgt id='1486'> +2.9122929E+03 </wgt>
<wgt id='1487'> +2.9101269E+03 </wgt>
<wgt id='1488'> +2.9076295E+03 </wgt>
<wgt id='1489'> +2.9096937E+03 </wgt>
<wgt id='1490'> +2.9167186E+03 </wgt>
<wgt id='1491'> +2.8986229E+03 </wgt>
<wgt id='1492'> +2.9196944E+03 </wgt>
<wgt id='1493'> +2.9164361E+03 </wgt>
<wgt id='1494'> +2.9246908E+03 </wgt>
<wgt id='1495'> +2.9125979E+03 </wgt>
<wgt id='1496'> +2.9096189E+03 </wgt>
<wgt id='1497'> +2.9091451E+03 </wgt>
<wgt id='1498'> +2.9045299E+03 </wgt>
<wgt id='1499'> +2.9069936E+03 </wgt>
<wgt id='1500'> +2.9047362E+03 </wgt>
<wgt id='1501'> +2.9186262E+03 </wgt>
<wgt id='1502'> +2.9045794E+03 </wgt>
<wgt id='1503'> +2.9064981E+03 </wgt>
<wgt id='1504'> +2.9068764E+03 </wgt>
<wgt id='1505'> +2.9257191E+03 </wgt>
<wgt id='1506'> +2.9263314E+03 </wgt>
<wgt id='1507'> +2.9170543E+03 </wgt>
<wgt id='1508'> +2.9227157E+03 </wgt>
<wgt id='1509'> +2.9276331E+03 </wgt>
<wgt id='1510'> +2.8863954E+03 </wgt>
<wgt id='1511'> +2.8845569E+03 </wgt>
<wgt id='1512'> +2.9509986E+03 </wgt>
<wgt id='1513'> +2.9557659E+03 </wgt>
<wgt id='1514'> +2.9491808E+03 </wgt>
<wgt id='1515'> +2.9544096E+03 </wgt>
<wgt id='1516'> +2.9533569E+03 </wgt>
<wgt id='1517'> +2.9472089E+03 </wgt>
<wgt id='1518'> +2.9375002E+03 </wgt>
<wgt id='1519'> +2.9715693E+03 </wgt>
<wgt id='1520'> +3.0008204E+03 </wgt>
<wgt id='1521'> +2.9486522E+03 </wgt>
<wgt id='1522'> +2.9686636E+03 </wgt>
<wgt id='1523'> +2.9514259E+03 </wgt>
<wgt id='1524'> +2.9426642E+03 </wgt>
<wgt id='1525'> +2.9256890E+03 </wgt>
<wgt id='1526'> +2.9568508E+03 </wgt>
<wgt id='1527'> +2.9437616E+03 </wgt>
<wgt id='1528'> +2.9495859E+03 </wgt>
<wgt id='1529'> +2.9477881E+03 </wgt>
<wgt id='1530'> +2.9660287E+03 </wgt>
<wgt id='1531'> +2.9446927E+03 </wgt>
<wgt id='1532'> +2.9705162E+03 </wgt>
<wgt id='1533'> +2.9491114E+03 </wgt>
<wgt id='1534'> +2.9434271E+03 </wgt>
<wgt id='1535'> +2.9847311E+03 </wgt>
<wgt id='1536'> +2.9354813E+03 </wgt>
<wgt id='1537'> +2.9361418E+03 </wgt>
<wgt id='1538'> +2.9403465E+03 </wgt>
<wgt id='1539'> +2.9605184E+03 </wgt>
<wgt id='1540'> +2.9497065E+03 </wgt>
<wgt id='1541'> +2.9408365E+03 </wgt>
<wgt id='1542'> +2.9493858E+03 </wgt>
<wgt id='1543'> +2.9377057E+03 </wgt>
<wgt id='1544'> +2.9670435E+03 </wgt>
<wgt id='1545'> +2.9519816E+03 </wgt>
<wgt id='1546'> +2.9320118E+03 </wgt>
<wgt id='1547'> +2.9748867E+03 </wgt>
<wgt id='1548'> +2.9471664E+03 </wgt>
<wgt id='1549'> +2.9564824E+03 </wgt>
<wgt id='1550'> +2.9367825E+03 </wgt>
<wgt id='1551'> +2.9404846E+03 </wgt>
<wgt id='1552'> +2.9352088E+03 </wgt>
<wgt id='1553'> +2.9589957E+03 </wgt>
<wgt id='1554'> +2.9461932E+03 </wgt>
<wgt id='1555'> +2.9480526E+03 </wgt>
<wgt id='1556'> +2.9544438E+03 </wgt>
<wgt id='1557'> +2.9448989E+03 </wgt>
<wgt id='1558'> +2.9643396E+03 </wgt>
<wgt id='1559'> +2.9411439E+03 </wgt>
<wgt id='1560'> +2.9537241E+03 </wgt>
<wgt id='1561'> +2.9455189E+03 </wgt>
<wgt id='1562'> +2.9433498E+03 </wgt>
<wgt id='1563'> +2.9439509E+03 </wgt>
<wgt id='1564'> +2.9486236E+03 </wgt>
<wgt id='1565'> +2.9489150E+03 </wgt>
<wgt id='1566'> +2.9601761E+03 </wgt>
<wgt id='1567'> +2.9526252E+03 </wgt>
<wgt id='1568'> +2.9506979E+03 </wgt>
<wgt id='1569'> +2.9527446E+03 </wgt>
<wgt id='1570'> +2.9612472E+03 </wgt>
<wgt id='1571'> +2.9546121E+03 </wgt>
<wgt id='1572'> +2.9474728E+03 </wgt>
<wgt id='1573'> +2.9530783E+03 </wgt>
<wgt id='1574'> +2.9482660E+03 </wgt>
<wgt id='1575'> +2.9518224E+03 </wgt>
<wgt id='1576'> +2.9527028E+03 </wgt>
<wgt id='1577'> +2.9482867E+03 </wgt>
<wgt id='1578'> +2.9531524E+03 </wgt>
<wgt id='1579'> +2.9481001E+03 </wgt>
<wgt id='1580'> +2.9527306E+03 </wgt>
<wgt id='1581'> +2.9491848E+03 </wgt>
<wgt id='1582'> +2.9500639E+03 </wgt>
<wgt id='1583'> +2.9499923E+03 </wgt>
<wgt id='1584'> +2.9485473E+03 </wgt>
<wgt id='1585'> +2.9532710E+03 </wgt>
<wgt id='1586'> +2.9519590E+03 </wgt>
<wgt id='1587'> +2.9493740E+03 </wgt>
<wgt id='1588'> +2.9498567E+03 </wgt>
<wgt id='1589'> +2.9503743E+03 </wgt>
<wgt id='1590'> +2.9504651E+03 </wgt>
<wgt id='1591'> +2.9523171E+03 </wgt>
<wgt id='1592'> +2.9500395E+03 </wgt>
<wgt id='1593'> +2.9530057E+03 </wgt>
<wgt id='1594'> +2.9493664E+03 </wgt>
<wgt id='1595'> +2.9529371E+03 </wgt>
<wgt id='1596'> +2.9523954E+03 </wgt>
<wgt id='1597'> +2.9531455E+03 </wgt>
<wgt id='1598'> +2.9528994E+03 </wgt>
<wgt id='1599'> +2.9517414E+03 </wgt>
<wgt id='1600'> +2.9500789E+03 </wgt>
<wgt id='1601'> +2.9503260E+03 </wgt>
<wgt id='1602'> +2.9514650E+03 </wgt>
<wgt id='1603'> +2.9517675E+03 </wgt>
<wgt id='1604'> +2.9523454E+03 </wgt>
<wgt id='1605'> +2.9505350E+03 </wgt>
<wgt id='1606'> +2.9523451E+03 </wgt>
<wgt id='1607'> +2.9521859E+03 </wgt>
<wgt id='1608'> +2.9502815E+03 </wgt>
<wgt id='1609'> +2.9512106E+03 </wgt>
<wgt id='1610'> +2.9519994E+03 </wgt>
<wgt id='1611'> +2.9524704E+03 </wgt>
<wgt id='1612'> +2.9507808E+03 </wgt>
<wgt id='1613'> +2.8831319E+03 </wgt>
<wgt id='1614'> +3.0080117E+03 </wgt>
<wgt id='1615'> +2.9102856E+03 </wgt>
<wgt id='1616'> +2.9279026E+03 </wgt>
<wgt id='1617'> +2.9190545E+03 </wgt>
<wgt id='1618'> +2.8939915E+03 </wgt>
<wgt id='1619'> +2.9106383E+03 </wgt>
<wgt id='1620'> +2.9057566E+03 </wgt>
<wgt id='1621'> +2.9066136E+03 </wgt>
<wgt id='1622'> +2.9267232E+03 </wgt>
<wgt id='1623'> +2.9190358E+03 </wgt>
<wgt id='1624'> +2.8951834E+03 </wgt>
<wgt id='1625'> +2.9106799E+03 </wgt>
<wgt id='1626'> +2.9122198E+03 </wgt>
<wgt id='1627'> +2.8882100E+03 </wgt>
<wgt id='1628'> +2.8882191E+03 </wgt>
<wgt id='1629'> +2.9030468E+03 </wgt>
<wgt id='1630'> +2.9533422E+03 </wgt>
<wgt id='1631'> +2.8931855E+03 </wgt>
<wgt id='1632'> +2.9202536E+03 </wgt>
<wgt id='1633'> +2.9122024E+03 </wgt>
<wgt id='1634'> +2.8882326E+03 </wgt>
<wgt id='1635'> +2.9040340E+03 </wgt>
<wgt id='1636'> +2.9273887E+03 </wgt>
<wgt id='1637'> +2.8853006E+03 </wgt>
<wgt id='1638'> +2.9177205E+03 </wgt>
<wgt id='1639'> +2.9338229E+03 </wgt>
<wgt id='1640'> +2.9187744E+03 </wgt>
<wgt id='1641'> +2.9118836E+03 </wgt>
<wgt id='1642'> +2.9053877E+03 </wgt>
<wgt id='1643'> +2.8988695E+03 </wgt>
<wgt id='1644'> +2.8997361E+03 </wgt>
<wgt id='1645'> +2.9168129E+03 </wgt>
<wgt id='1646'> +2.8921555E+03 </wgt>
<wgt id='1647'> +2.9270304E+03 </wgt>
<wgt id='1648'> +2.9056429E+03 </wgt>
<wgt id='1649'> +2.9022009E+03 </wgt>
<wgt id='1650'> +2.9136985E+03 </wgt>
<wgt id='1651'> +2.9105933E+03 </wgt>
<wgt id='1652'> +2.9276513E+03 </wgt>
<wgt id='1653'> +2.9308398E+03 </wgt>
<wgt id='1654'> +2.9183501E+03 </wgt>
<wgt id='1655'> +2.9154639E+03 </wgt>
<wgt id='1656'> +2.9028763E+03 </wgt>
<wgt id='1657'> +2.9040795E+03 </wgt>
<wgt id='1658'> +2.9074048E+03 </wgt>
<wgt id='1659'> +2.8987602E+03 </wgt>
<wgt id='1660'> +2.9177424E+03 </wgt>
<wgt id='1661'> +2.8923952E+03 </wgt>
<wgt id='1662'> +2.9246455E+03 </wgt>
<wgt id='1663'> +2.9159748E+03 </wgt>
<wgt id='1664'> +2.9044332E+03 </wgt>
<wgt id='1665'> +2.9086076E+03 </wgt>
<wgt id='1666'> +2.9085340E+03 </wgt>
<wgt id='1667'> +2.9059860E+03 </wgt>
<wgt id='1668'> +2.9171756E+03 </wgt>
<wgt id='1669'> +2.9085126E+03 </wgt>
<wgt id='1670'> +2.9057873E+03 </wgt>
<wgt id='1671'> +2.9105647E+03 </wgt>
<wgt id='1672'> +2.9171323E+03 </wgt>
<wgt id='1673'> +2.9064194E+03 </wgt>
<wgt id='1674'> +2.9009590E+03 </wgt>
<wgt id='1675'> +2.9085005E+03 </wgt>
<wgt id='1676'> +2.9108669E+03 </wgt>
<wgt id='1677'> +2.9123732E+03 </wgt>
<wgt id='1678'> +2.9119181E+03 </wgt>
<wgt id='1679'> +2.9127532E+03 </wgt>
<wgt id='1680'> +2.9108687E+03 </wgt>
<wgt id='1681'> +2.9115740E+03 </wgt>
<wgt id='1682'> +2.9110803E+03 </wgt>
<wgt id='1683'> +2.9080388E+03 </wgt>
<wgt id='1684'> +2.9117131E+03 </wgt>
<wgt id='1685'> +2.9112952E+03 </wgt>
<wgt id='1686'> +2.9148009E+03 </wgt>
<wgt id='1687'> +2.9113860E+03 </wgt>
<wgt id='1688'> +2.9111155E+03 </wgt>
<wgt id='1689'> +2.9119348E+03 </wgt>
<wgt id='1690'> +2.9110080E+03 </wgt>
<wgt id='1691'> +2.9094422E+03 </wgt>
<wgt id='1692'> +2.9101042E+03 </wgt>
<wgt id='1693'> +2.9106905E+03 </wgt>
<wgt id='1694'> +2.9124736E+03 </wgt>
<wgt id='1695'> +2.9121618E+03 </wgt>
<wgt id='1696'> +2.9118086E+03 </wgt>
<wgt id='1697'> +2.9110722E+03 </wgt>
<wgt id='1698'> +2.9100995E+03 </wgt>
<wgt id='1699'> +2.9107168E+03 </wgt>
<wgt id='1700'> +2.9084365E+03 </wgt>
<wgt id='1701'> +2.9105327E+03 </wgt>
<wgt id='1702'> +2.9088202E+03 </wgt>
<wgt id='1703'> +2.9083027E+03 </wgt>
<wgt id='1704'> +2.9102233E+03 </wgt>
<wgt id='1705'> +2.9112880E+03 </wgt>
<wgt id='1706'> +2.9092362E+03 </wgt>
<wgt id='1707'> +2.9107702E+03 </wgt>
<wgt id='1708'> +2.9103882E+03 </wgt>
<wgt id='1709'> +2.9093189E+03 </wgt>
<wgt id='1710'> +2.9112750E+03 </wgt>
<wgt id='1711'> +2.9091404E+03 </wgt>
<wgt id='1712'> +2.9102103E+03 </wgt>
<wgt id='1713'> +2.9104813E+03 </wgt>
<wgt id='1714'> +2.9099585E+03 </wgt>
<wgt id='1715'> +2.9104788E+03 </wgt>
<wgt id='1716'> +2.8506915E+03 </wgt>
<wgt id='1717'> +2.9606498E+03 </wgt>
<wgt id='1718'> +2.9522804E+03 </wgt>
<wgt id='1719'> +2.9604645E+03 </wgt>
<wgt id='1720'> +2.9508278E+03 </wgt>
<wgt id='1721'> +2.9529105E+03 </wgt>
<wgt id='1722'> +2.9791758E+03 </wgt>
<wgt id='1723'> +2.9809512E+03 </wgt>
<wgt id='1724'> +3.0309618E+03 </wgt>
<wgt id='1725'> +2.9492084E+03 </wgt>
<wgt id='1726'> +2.9530259E+03 </wgt>
<wgt id='1727'> +2.9533040E+03 </wgt>
<wgt id='1728'> +2.9535740E+03 </wgt>
<wgt id='1729'> +2.9575520E+03 </wgt>
<wgt id='1730'> +2.9487331E+03 </wgt>
<wgt id='1731'> +2.9496120E+03 </wgt>
<wgt id='1732'> +2.9501439E+03 </wgt>
<wgt id='1733'> +2.9558363E+03 </wgt>
<wgt id='1734'> +2.9565678E+03 </wgt>
<wgt id='1735'> +2.9219643E+03 </wgt>
<wgt id='1736'> +2.9484307E+03 </wgt>
<wgt id='1737'> +2.9520326E+03 </wgt>
<wgt id='1738'> +2.9553032E+03 </wgt>
<wgt id='1739'> +2.9519277E+03 </wgt>
<wgt id='1740'> +2.9516130E+03 </wgt>
<wgt id='1741'> +2.9529260E+03 </wgt>
<wgt id='1742'> +2.9506393E+03 </wgt>
<wgt id='1743'> +2.9527965E+03 </wgt>
<wgt id='1744'> +2.9418375E+03 </wgt>
<wgt id='1745'> +2.9522994E+03 </wgt>
<wgt id='1746'> +2.9539082E+03 </wgt>
<wgt id='1747'> +2.9552173E+03 </wgt>
<wgt id='1748'> +2.9525859E+03 </wgt>
<wgt id='1749'> +2.8831319E+03 </wgt>
<wgt id='1750'> +3.0080117E+03 </wgt>
<wgt id='1751'> +2.9103725E+03 </wgt>
<wgt id='1752'> +2.9456414E+03 </wgt>
<wgt id='1753'> +2.9423285E+03 </wgt>
<wgt id='1754'> +2.9063633E+03 </wgt>
<wgt id='1755'> +2.9247915E+03 </wgt>
<wgt id='1756'> +2.8871962E+03 </wgt>
<wgt id='1757'> +2.9109777E+03 </wgt>
<wgt id='1758'> +2.9005192E+03 </wgt>
<wgt id='1759'> +2.9234152E+03 </wgt>
<wgt id='1760'> +2.8791187E+03 </wgt>
<wgt id='1761'> +2.9340129E+03 </wgt>
<wgt id='1762'> +2.9123988E+03 </wgt>
<wgt id='1763'> +2.9129774E+03 </wgt>
<wgt id='1764'> +2.9184761E+03 </wgt>
<wgt id='1765'> +2.9124349E+03 </wgt>
<wgt id='1766'> +2.9192681E+03 </wgt>
<wgt id='1767'> +2.9146968E+03 </wgt>
<wgt id='1768'> +2.8938025E+03 </wgt>
<wgt id='1769'> +2.9108042E+03 </wgt>
<wgt id='1770'> +2.9177461E+03 </wgt>
<wgt id='1771'> +2.9002628E+03 </wgt>
<wgt id='1772'> +2.8789489E+03 </wgt>
<wgt id='1773'> +2.9239468E+03 </wgt>
<wgt id='1774'> +2.9072796E+03 </wgt>
<wgt id='1775'> +2.9112602E+03 </wgt>
<wgt id='1776'> +2.9029605E+03 </wgt>
<wgt id='1777'> +2.9001018E+03 </wgt>
<wgt id='1778'> +2.9171734E+03 </wgt>
<wgt id='1779'> +2.8931417E+03 </wgt>
<wgt id='1780'> +2.9218482E+03 </wgt>
<wgt id='1781'> +2.9047780E+03 </wgt>
<wgt id='1782'> +2.8506915E+03 </wgt>
<wgt id='1783'> +2.9606498E+03 </wgt>
<wgt id='1784'> +3.0957580E+03 </wgt>
<wgt id='1785'> +3.0952222E+03 </wgt>
<wgt id='1786'> +3.0962874E+03 </wgt>
<wgt id='1787'> +3.0991200E+03 </wgt>
<wgt id='1788'> +3.0923919E+03 </wgt>
<wgt id='1789'> +3.0965208E+03 </wgt>
<wgt id='1790'> +3.0949911E+03 </wgt>
<wgt id='1791'> +3.0896219E+03 </wgt>
<wgt id='1792'> +3.1018917E+03 </wgt>
<wgt id='1793'> +3.0366493E+03 </wgt>
<wgt id='1794'> +3.1541914E+03 </wgt>
<wgt id='1795'> +3.1233509E+03 </wgt>
<wgt id='1796'> +3.0671488E+03 </wgt>
<wgt id='1797'> +3.0998455E+03 </wgt>
<wgt id='1798'> +3.0916034E+03 </wgt>
<wgt id='1799'> +3.1004638E+03 </wgt>
<wgt id='1800'> +3.0927350E+03 </wgt>
<wgt id='1801'> +3.0873379E+03 </wgt>
<wgt id='1802'> +3.1002177E+03 </wgt>
<wgt id='1803'> +3.0457229E+03 </wgt>
<wgt id='1804'> +3.1438324E+03 </wgt>
<wgt id='1805'> +3.0479512E+03 </wgt>
<wgt id='1806'> +3.1402406E+03 </wgt>
<wgt id='1807'> +3.0247673E+03 </wgt>
<wgt id='1808'> +3.1652145E+03 </wgt>
<wgt id='1809'> +3.1483888E+03 </wgt>
<wgt id='1810'> +3.0453702E+03 </wgt>
<wgt id='1811'> +3.0666014E+03 </wgt>
<wgt id='1812'> +3.1277167E+03 </wgt>
<wgt id='1813'> +3.0957580E+03 </wgt>
<wgt id='1814'> +3.1416720E+03 </wgt>
<wgt id='1815'> +3.0540588E+03 </wgt>
<wgt id='1816'> +3.3114518E+03 </wgt>
<wgt id='1817'> +3.2818266E+03 </wgt>
<wgt id='1818'> +3.1319652E+03 </wgt>
<wgt id='1819'> +3.0735874E+03 </wgt>
<wgt id='1820'> +3.0882736E+03 </wgt>
<wgt id='1821'> +3.0986462E+03 </wgt>
<wgt id='1822'> +3.0855450E+03 </wgt>
<wgt id='1823'> +3.1026697E+03 </wgt>
<wgt id='1824'> +3.0868528E+03 </wgt>
<wgt id='1825'> +3.1055173E+03 </wgt>
<wgt id='1826'> +3.2757770E+03 </wgt>
<wgt id='1827'> +3.1964597E+03 </wgt>
<wgt id='1828'> +3.1953241E+03 </wgt>
<wgt id='1829'> +3.1956061E+03 </wgt>
<wgt id='1830'> +3.1992935E+03 </wgt>
<wgt id='1831'> +3.1916356E+03 </wgt>
<wgt id='1832'> +3.1986632E+03 </wgt>
<wgt id='1833'> +3.1922703E+03 </wgt>
<wgt id='1834'> +3.1943145E+03 </wgt>
<wgt id='1835'> +3.1965795E+03 </wgt>
<wgt id='1836'> +3.1865899E+03 </wgt>
<wgt id='1837'> +3.2042040E+03 </wgt>
<wgt id='1838'> +3.1336203E+03 </wgt>
<wgt id='1839'> +3.2565787E+03 </wgt>
<wgt id='1840'> +3.2068716E+03 </wgt>
<wgt id='1841'> +3.1841531E+03 </wgt>
<wgt id='1842'> +3.1932004E+03 </wgt>
<wgt id='1843'> +3.2020052E+03 </wgt>
<wgt id='1844'> +3.1891776E+03 </wgt>
<wgt id='1845'> +3.2009459E+03 </wgt>
<wgt id='1846'> +3.1403046E+03 </wgt>
<wgt id='1847'> +3.2473654E+03 </wgt>
<wgt id='1848'> +3.1917699E+03 </wgt>
<wgt id='1849'> +3.1961117E+03 </wgt>
<wgt id='1850'> +3.2295857E+03 </wgt>
<wgt id='1851'> +3.1636017E+03 </wgt>
<wgt id='1852'> +3.1822356E+03 </wgt>
<wgt id='1853'> +3.2155974E+03 </wgt>
<wgt id='1854'> +3.1581593E+03 </wgt>
<wgt id='1855'> +3.2393430E+03 </wgt>
<wgt id='1856'> +3.1928541E+03 </wgt>
<wgt id='1857'> +3.2179510E+03 </wgt>
<wgt id='1858'> +3.1645446E+03 </wgt>
<wgt id='1859'> +3.2990072E+03 </wgt>
<wgt id='1860'> +3.2586547E+03 </wgt>
<wgt id='1861'> +3.3030002E+03 </wgt>
<wgt id='1862'> +3.1045107E+03 </wgt>
<wgt id='1863'> +3.1877447E+03 </wgt>
<wgt id='1864'> +3.2074224E+03 </wgt>
<wgt id='1865'> +3.0939941E+03 </wgt>
<wgt id='1866'> +3.2740702E+03 </wgt>
<wgt id='1867'> +3.0768679E+03 </wgt>
<wgt id='1868'> +3.2514268E+03 </wgt>
<wgt id='1869'> +3.0798050E+03 </wgt>
<wgt id='1870'> +2.9322148E+03 </wgt>
<wgt id='1871'> +2.9316970E+03 </wgt>
<wgt id='1872'> +2.9311614E+03 </wgt>
<wgt id='1873'> +2.9306244E+03 </wgt>
<wgt id='1874'> +2.9301031E+03 </wgt>
<wgt id='1875'> +2.9295737E+03 </wgt>
<wgt id='1876'> +2.9290527E+03 </wgt>
<wgt id='1877'> +2.9285312E+03 </wgt>
<wgt id='1878'> +2.9279833E+03 </wgt>
<wgt id='1879'> +2.9274606E+03 </wgt>
<wgt id='1880'> +2.9269329E+03 </wgt>
<wgt id='1881'> +2.9264082E+03 </wgt>
<wgt id='1882'> +2.9258835E+03 </wgt>
<wgt id='1883'> +2.9253435E+03 </wgt>
<wgt id='1884'> +2.9248188E+03 </wgt>
<wgt id='1885'> +2.9242943E+03 </wgt>
<wgt id='1886'> +2.9237649E+03 </wgt>
<wgt id='1887'> +2.9232412E+03 </wgt>
<wgt id='1888'> +2.9227061E+03 </wgt>
<wgt id='1889'> +2.9221807E+03 </wgt>
<wgt id='1890'> +2.9216535E+03 </wgt>
<wgt id='1891'> +2.9211238E+03 </wgt>
<wgt id='1892'> +2.9205989E+03 </wgt>
<wgt id='1893'> +2.9200650E+03 </wgt>
<wgt id='1894'> +2.9195551E+03 </wgt>
<wgt id='1895'> +2.9190119E+03 </wgt>
<wgt id='1896'> +2.9184924E+03 </wgt>
<wgt id='1897'> +2.9179637E+03 </wgt>
<wgt id='1898'> +2.9174311E+03 </wgt>
<wgt id='1899'> +2.9169106E+03 </wgt>
<wgt id='1900'> +2.9163743E+03 </wgt>
<wgt id='1901'> +2.8873220E+03 </wgt>
<wgt id='1902'> +2.9040060E+03 </wgt>
<wgt id='1903'> +2.8957404E+03 </wgt>
<wgt id='1904'> +2.8712809E+03 </wgt>
<wgt id='1905'> +2.8875179E+03 </wgt>
<wgt id='1906'> +2.8828390E+03 </wgt>
<wgt id='1907'> +2.8842935E+03 </wgt>
<wgt id='1908'> +2.9041561E+03 </wgt>
<wgt id='1909'> +2.8960345E+03 </wgt>
<wgt id='1910'> +2.8724438E+03 </wgt>
<wgt id='1911'> +2.8876208E+03 </wgt>
<wgt id='1912'> +2.8900455E+03 </wgt>
<wgt id='1913'> +2.8657755E+03 </wgt>
<wgt id='1914'> +2.8658301E+03 </wgt>
<wgt id='1915'> +2.8799636E+03 </wgt>
<wgt id='1916'> +2.9287645E+03 </wgt>
<wgt id='1917'> +2.8711947E+03 </wgt>
<wgt id='1918'> +2.8968543E+03 </wgt>
<wgt id='1919'> +2.8890027E+03 </wgt>
<wgt id='1920'> +2.8659670E+03 </wgt>
<wgt id='1921'> +2.8818070E+03 </wgt>
<wgt id='1922'> +2.9038876E+03 </wgt>
<wgt id='1923'> +2.8624399E+03 </wgt>
<wgt id='1924'> +2.8949154E+03 </wgt>
<wgt id='1925'> +2.9102940E+03 </wgt>
<wgt id='1926'> +2.8951300E+03 </wgt>
<wgt id='1927'> +2.8883010E+03 </wgt>
<wgt id='1928'> +2.8831301E+03 </wgt>
<wgt id='1929'> +2.8762861E+03 </wgt>
<wgt id='1930'> +2.8765470E+03 </wgt>
<wgt id='1931'> +2.8935086E+03 </wgt>
<wgt id='1932'> +2.8700567E+03 </wgt>
<wgt id='1933'> +2.9036885E+03 </wgt>
<wgt id='1934'> +2.8825082E+03 </wgt>
<wgt id='1935'> +2.8792804E+03 </wgt>
<wgt id='1936'> +2.8905870E+03 </wgt>
<wgt id='1937'> +2.8876530E+03 </wgt>
<wgt id='1938'> +2.9045902E+03 </wgt>
<wgt id='1939'> +2.9076076E+03 </wgt>
<wgt id='1940'> +2.8951017E+03 </wgt>
<wgt id='1941'> +2.8924823E+03 </wgt>
<wgt id='1942'> +2.8797807E+03 </wgt>
<wgt id='1943'> +2.8810601E+03 </wgt>
<wgt id='1944'> +2.8848463E+03 </wgt>
<wgt id='1945'> +2.8758353E+03 </wgt>
<wgt id='1946'> +2.8946156E+03 </wgt>
<wgt id='1947'> +2.8697616E+03 </wgt>
<wgt id='1948'> +2.9014385E+03 </wgt>
<wgt id='1949'> +2.8930976E+03 </wgt>
<wgt id='1950'> +2.8814295E+03 </wgt>
<wgt id='1951'> +2.8856993E+03 </wgt>
<wgt id='1952'> +2.8855111E+03 </wgt>
<wgt id='1953'> +2.8830319E+03 </wgt>
<wgt id='1954'> +2.8941945E+03 </wgt>
<wgt id='1955'> +2.8856464E+03 </wgt>
<wgt id='1956'> +2.8829522E+03 </wgt>
<wgt id='1957'> +2.8873744E+03 </wgt>
<wgt id='1958'> +2.8941074E+03 </wgt>
<wgt id='1959'> +2.8837001E+03 </wgt>
<wgt id='1960'> +2.8782108E+03 </wgt>
<wgt id='1961'> +2.8856895E+03 </wgt>
<wgt id='1962'> +2.8879400E+03 </wgt>
<wgt id='1963'> +2.8893529E+03 </wgt>
<wgt id='1964'> +2.8888243E+03 </wgt>
<wgt id='1965'> +2.8898415E+03 </wgt>
<wgt id='1966'> +2.8878588E+03 </wgt>
<wgt id='1967'> +2.8885698E+03 </wgt>
<wgt id='1968'> +2.8880094E+03 </wgt>
<wgt id='1969'> +2.8851291E+03 </wgt>
<wgt id='1970'> +2.8886286E+03 </wgt>
<wgt id='1971'> +2.8882747E+03 </wgt>
<wgt id='1972'> +2.8918830E+03 </wgt>
<wgt id='1973'> +2.8883276E+03 </wgt>
<wgt id='1974'> +2.8880628E+03 </wgt>
<wgt id='1975'> +2.8889461E+03 </wgt>
<wgt id='1976'> +2.8880530E+03 </wgt>
<wgt id='1977'> +2.8866292E+03 </wgt>
<wgt id='1978'> +2.8871714E+03 </wgt>
<wgt id='1979'> +2.8878440E+03 </wgt>
<wgt id='1980'> +2.8894952E+03 </wgt>
<wgt id='1981'> +2.8890581E+03 </wgt>
<wgt id='1982'> +2.8889508E+03 </wgt>
<wgt id='1983'> +2.8881411E+03 </wgt>
<wgt id='1984'> +2.8871352E+03 </wgt>
<wgt id='1985'> +2.8876968E+03 </wgt>
<wgt id='1986'> +2.8855354E+03 </wgt>
<wgt id='1987'> +2.8877372E+03 </wgt>
<wgt id='1988'> +2.8858089E+03 </wgt>
<wgt id='1989'> +2.8852829E+03 </wgt>
<wgt id='1990'> +2.8871943E+03 </wgt>
<wgt id='1991'> +2.8883028E+03 </wgt>
<wgt id='1992'> +2.8861839E+03 </wgt>
<wgt id='1993'> +2.8877175E+03 </wgt>
<wgt id='1994'> +2.8874655E+03 </wgt>
<wgt id='1995'> +2.8862430E+03 </wgt>
<wgt id='1996'> +2.8883089E+03 </wgt>
<wgt id='1997'> +2.8862415E+03 </wgt>
<wgt id='1998'> +2.8872553E+03 </wgt>
<wgt id='1999'> +2.8874930E+03 </wgt>
<wgt id='2000'> +2.8870525E+03 </wgt>
<wgt id='2001'> +2.8875400E+03 </wgt>
<wgt id='2002'> +2.8873043E+03 </wgt>
<wgt id='2003'> +2.8872058E+03 </wgt>
<wgt id='2004'> +2.8873402E+03 </wgt>
<wgt id='2005'> +2.8873434E+03 </wgt>
<wgt id='2006'> +2.8873756E+03 </wgt>
<wgt id='2007'> +2.8873296E+03 </wgt>
<wgt id='2008'> +2.8872445E+03 </wgt>
<wgt id='2009'> +2.8943338E+03 </wgt>
<wgt id='2010'> +2.7292886E+03 </wgt>
<wgt id='2011'> +2.9143729E+03 </wgt>
<wgt id='2012'> +2.9308631E+03 </wgt>
<wgt id='2013'> +2.9327203E+03 </wgt>
<wgt id='2014'> +2.7622332E+03 </wgt>
<wgt id='2015'> +2.8698972E+03 </wgt>
<wgt id='2016'> +2.9231976E+03 </wgt>
<wgt id='2017'> +2.9962912E+03 </wgt>
<wgt id='2018'> +2.8993174E+03 </wgt>
<wgt id='2019'> +2.9973610E+03 </wgt>
<wgt id='2020'> +2.9661306E+03 </wgt>
<wgt id='2021'> +2.8798738E+03 </wgt>
<wgt id='2022'> +2.7676652E+03 </wgt>
<wgt id='2023'> +2.8751331E+03 </wgt>
<wgt id='2024'> +2.9110338E+03 </wgt>
<wgt id='2025'> +2.9649123E+03 </wgt>
<wgt id='2026'> +2.7913854E+03 </wgt>
<wgt id='2027'> +2.6587645E+03 </wgt>
<wgt id='2028'> +2.9167218E+03 </wgt>
<wgt id='2029'> +2.9372759E+03 </wgt>
<wgt id='2030'> +2.9635223E+03 </wgt>
<wgt id='2031'> +2.9763882E+03 </wgt>
<wgt id='2032'> +3.0746686E+03 </wgt>
<wgt id='2033'> +2.8631632E+03 </wgt>
<wgt id='2034'> +2.8421151E+03 </wgt>
<wgt id='2035'> +2.8197121E+03 </wgt>
<wgt id='2036'> +2.8064836E+03 </wgt>
<wgt id='2037'> +2.7820099E+03 </wgt>
<wgt id='2038'> +2.8545127E+03 </wgt>
<wgt id='2039'> +2.9329377E+03 </wgt>
<wgt id='2040'> +2.9283720E+03 </wgt>
<wgt id='2041'> +2.9384718E+03 </wgt>
<wgt id='2042'> +2.9349361E+03 </wgt>
<wgt id='2043'> +2.9278829E+03 </wgt>
<wgt id='2044'> +3.0209759E+03 </wgt>
<wgt id='2045'> +2.9079054E+03 </wgt>
<wgt id='2046'> +2.8367887E+03 </wgt>
<wgt id='2047'> +2.8917947E+03 </wgt>
<wgt id='2048'> +2.8825857E+03 </wgt>
<wgt id='2049'> +2.9421481E+03 </wgt>
<wgt id='2050'> +2.8919738E+03 </wgt>
<wgt id='2051'> +2.9171043E+03 </wgt>
<wgt id='2052'> +2.9227856E+03 </wgt>
<wgt id='2053'> +2.9053980E+03 </wgt>
<wgt id='2054'> +2.9859969E+03 </wgt>
<wgt id='2055'> +2.8165643E+03 </wgt>
<wgt id='2056'> +2.9078237E+03 </wgt>
<wgt id='2057'> +2.8788910E+03 </wgt>
<wgt id='2058'> +2.9068031E+03 </wgt>
<wgt id='2059'> +2.8866405E+03 </wgt>
<wgt id='2060'> +2.9274256E+03 </wgt>
<wgt id='2061'> +2.9117950E+03 </wgt>
<wgt id='2062'> +2.9190067E+03 </wgt>
<wgt id='2063'> +2.8848094E+03 </wgt>
<wgt id='2064'> +2.8950574E+03 </wgt>
<wgt id='2065'> +2.7103831E+03 </wgt>
<wgt id='2066'> +2.7833005E+03 </wgt>
<wgt id='2067'> +2.8460815E+03 </wgt>
<wgt id='2068'> +2.9241137E+03 </wgt>
<wgt id='2069'> +2.9571114E+03 </wgt>
<wgt id='2070'> +2.7232959E+03 </wgt>
<wgt id='2071'> +2.8748552E+03 </wgt>
<wgt id='2072'> +2.8687604E+03 </wgt>
<wgt id='2073'> +2.6397365E+03 </wgt>
<wgt id='2074'> +2.9175628E+03 </wgt>
<wgt id='2075'> +2.8299545E+03 </wgt>
<wgt id='2076'> +3.2153919E+03 </wgt>
<wgt id='2077'> +2.8308100E+03 </wgt>
<wgt id='2078'> +3.0011158E+03 </wgt>
<wgt id='2079'> +2.8317275E+03 </wgt>
<wgt id='2080'> +2.9081562E+03 </wgt>
<wgt id='2081'> +2.9313453E+03 </wgt>
<wgt id='2082'> +2.9009549E+03 </wgt>
<wgt id='2083'> +2.9654501E+03 </wgt>
<wgt id='2084'> +2.8692238E+03 </wgt>
<wgt id='2085'> +3.0427399E+03 </wgt>
<wgt id='2086'> +2.9724570E+03 </wgt>
<wgt id='2087'> +3.0475837E+03 </wgt>
<wgt id='2088'> +2.8518010E+03 </wgt>
<wgt id='2089'> +2.9146709E+03 </wgt>
<wgt id='2090'> +2.9621354E+03 </wgt>
<wgt id='2091'> +3.0064129E+03 </wgt>
<wgt id='2092'> +2.8465770E+03 </wgt>
<wgt id='2093'> +2.8961209E+03 </wgt>
<wgt id='2094'> +2.8211352E+03 </wgt>
<wgt id='2095'> +2.9613980E+03 </wgt>
<wgt id='2096'> +2.8681924E+03 </wgt>
<wgt id='2097'> +2.8637098E+03 </wgt>
<wgt id='2098'> +2.7742274E+03 </wgt>
<wgt id='2099'> +2.9506177E+03 </wgt>
<wgt id='2100'> +2.9674363E+03 </wgt>
<wgt id='2101'> +2.9805060E+03 </wgt>
<wgt id='2102'> +2.8195300E+03 </wgt>
<wgt id='2103'> +3.0146714E+03 </wgt>
<wgt id='2104'> +2.7774252E+03 </wgt>
<wgt id='2105'> +2.9857874E+03 </wgt>
<wgt id='2106'> +2.8063197E+03 </wgt>
<wgt id='2107'> +2.9172222E+03 </wgt>
<wgt id='2108'> +2.8442453E+03 </wgt>
<wgt id='2109'> +2.7135462E+03 </wgt>
<wgt id='2110'> +2.8403500E+03 </wgt>
<wgt id='2111'> +2.9298499E+03 </wgt>
<wgt id='2112'> +2.8963936E+03 </wgt>
<wgt id='2113'> +3.3164207E+03 </wgt>
<wgt id='2114'> +4.0905651E+03 </wgt>
<wgt id='2115'> +3.2208616E+03 </wgt>
<wgt id='2116'> +4.1333066E+03 </wgt>
</rwgt>
</event>
<event>
 5      5 +2.9771057E+03 8.30407500e+01 7.54677100e-03 1.19695900e-01
       -2 -1    0    0    0  501 -0.0000000000e+00 +0.0000000000e+00 +3.0879359477e+00 3.0879359477e+00 0.0000000000e+00 0.0000e+00 1.0000e+00
        1 -1    0    0  501    0 +0.0000000000e+00 -0.0000000000e+00 -5.5828276626e+02 5.5828276626e+02 0.0000000000e+00 0.0000e+00 -1.0000e+00
      -24  2    1    2    0    0 +0.0000000000e+00 +0.0000000000e+00 -5.5519483031e+02 5.6137070220e+02 8.3040747177e+01 0.0000e+00 0.0000e+00
       11  1    3    3    0    0 +2.5669957750e+01 +1.9645620876e+01 -4.5375751192e+02 4.5490743759e+02 0.0000000000e+00 0.0000e+00 -1.0000e+00
      -12  1    3    3    0    0 -2.5669957750e+01 -1.9645620876e+01 -1.0143731839e+02 1.0646326461e+02 0.0000000000e+00 0.0000e+00 1.0000e+00
<scales pt_clust_4="13000.00000" pt_clust_5="13000.00000"></scales>
<mgrwt>
<rscale>  0 0.83040747E+02</rscale>
<asrwt>0</asrwt>
<pdfrwt beam="1">  1        1 0.85889679E-01 0.83040747E+02</pdfrwt>
<pdfrwt beam="2">  1       -2 0.47506694E-03 0.83040747E+02</pdfrwt>
<totfact> 0.18538401E+05</totfact>
</mgrwt>
<clustering>
<clus scale="   83.041">  4  5 -1 -1</clus>
<clus scale="   83.041">  2  4  1 -1</clus>
</clustering>
<rwgt>
<wgt id='1001'> +2.9771057E+03 </wgt>
<wgt id='1002'> +2.8600257E+03 </wgt>
<wgt id='1003'> +2.8600257E+03 </wgt>
<wgt id='1004'> +2.5155138E+03 </wgt>
<wgt id='1005'> +2.9771057E+03 </wgt>
<wgt id='1006'> +2.9771057E+03 </wgt>
<wgt id='1007'> +2.8600257E+03 </wgt>
<wgt id='1008'> +2.8600257E+03 </wgt>
<wgt id='1009'> +2.5155138E+03 </wgt>
<wgt id='1010'> +2.9771057E+03 </wgt>
<wgt id='1011'> +2.9771057E+03 </wgt>
<wgt id='1012'> +2.8600257E+03 </wgt>
<wgt id='1013'> +2.8600257E+03 </wgt>
<wgt id='1014'> +2.5155138E+03 </wgt>
<wgt id='1015'> +2.9771057E+03 </wgt>
<wgt id='1016'> +3.2808817E+03 </wgt>
<wgt id='1017'> +3.1744749E+03 </wgt>
<wgt id='1018'> +3.1744749E+03 </wgt>
<wgt id='1019'> +2.8600257E+03 </wgt>
<wgt id='1020'> +3.2808817E+03 </wgt>
<wgt id='1021'> +3.2808817E+03 </wgt>
<wgt id='1022'> +3.1744749E+03 </wgt>
<wgt id='1023'> +3.1744749E+03 </wgt>
<wgt id='1024'> +2.8600257E+03 </wgt>
<wgt id='1025'> +3.2808817E+03 </wgt>
<wgt id='1026'> +3.2808817E+03 </wgt>
<wgt id='1027'> +3.1744749E+03 </wgt>
<wgt id='1028'> +3.1744749E+03 </wgt>
<wgt id='1029'> +2.8600257E+03 </wgt>
<wgt id='1030'> +3.2808817E+03 </wgt>
<wgt id='1031'> +2.6435227E+03 </wgt>
<wgt id='1032'> +2.5155138E+03 </wgt>
<wgt id='1033'> +2.5155138E+03 </wgt>
<wgt id='1034'> +2.1400264E+03 </wgt>
<wgt id='1035'> +2.6435227E+03 </wgt>
<wgt id='1036'> +2.6435227E+03 </wgt>
<wgt id='1037'> +2.5155138E+03 </wgt>
<wgt id='1038'> +2.5155138E+03 </wgt>
<wgt id='1039'> +2.1400264E+03 </wgt>
<wgt id='1040'> +2.6435227E+03 </wgt>
<wgt id='1041'> +2.6435227E+03 </wgt>
<wgt id='1042'> +2.5155138E+03 </wgt>
<wgt id='1043'> +2.5155138E+03 </wgt>
<wgt id='1044'> +2.1400264E+03 </wgt>
<wgt id='1045'> +2.6435227E+03 </wgt>
<wgt id='1046'> +2.9771057E+03 </wgt>
<wgt id='1047'> +2.9767929E+03 </wgt>
<wgt id='1048'> +2.9717056E+03 </wgt>
<wgt id='1049'> +2.9696961E+03 </wgt>
<wgt id='1050'> +2.9905586E+03 </wgt>
<wgt id='1051'> +2.9796416E+03 </wgt>
<wgt id='1052'> +2.9759509E+03 </wgt>
<wgt id='1053'> +2.9778770E+03 </wgt>
<wgt id='1054'> +2.9723367E+03 </wgt>
<wgt id='1055'> +2.9867118E+03 </wgt>
<wgt id='1056'> +2.9713529E+03 </wgt>
<wgt id='1057'> +2.9658353E+03 </wgt>
<wgt id='1058'> +2.9810849E+03 </wgt>
<wgt id='1059'> +2.9745000E+03 </wgt>
<wgt id='1060'> +2.9816349E+03 </wgt>
<wgt id='1061'> +2.9781834E+03 </wgt>
<wgt id='1062'> +2.9802985E+03 </wgt>
<wgt id='1063'> +2.9715572E+03 </wgt>
<wgt id='1064'> +2.9759819E+03 </wgt>
<wgt id='1065'> +2.9802121E+03 </wgt>
<wgt id='1066'> +2.9763769E+03 </wgt>
<wgt id='1067'> +2.9892306E+03 </wgt>
<wgt id='1068'> +2.9819158E+03 </wgt>
<wgt id='1069'> +2.9693400E+03 </wgt>
<wgt id='1070'> +2.9923580E+03 </wgt>
<wgt id='1071'> +2.9801915E+03 </wgt>
<wgt id='1072'> +2.9604160E+03 </wgt>
<wgt id='1073'> +2.9854458E+03 </wgt>
<wgt id='1074'> +2.9869479E+03 </wgt>
<wgt id='1075'> +2.9393492E+03 </wgt>
<wgt id='1076'> +2.9763142E+03 </wgt>
<wgt id='1077'> +2.9743915E+03 </wgt>
<wgt id='1078'> +2.9701908E+03 </wgt>
<wgt id='1079'> +2.9698558E+03 </wgt>
<wgt id='1080'> +2.9769806E+03 </wgt>
<wgt id='1081'> +2.9806049E+03 </wgt>
<wgt id='1082'> +2.9749950E+03 </wgt>
<wgt id='1083'> +2.9863313E+03 </wgt>
<wgt id='1084'> +2.9734693E+03 </wgt>
<wgt id='1085'> +2.9793512E+03 </wgt>
<wgt id='1086'> +2.9751476E+03 </wgt>
<wgt id='1087'> +2.9743241E+03 </wgt>
<wgt id='1088'> +2.9754321E+03 </wgt>
<wgt id='1089'> +2.9753897E+03 </wgt>
<wgt id='1090'> +2.9816598E+03 </wgt>
<wgt id='1091'> +2.9681141E+03 </wgt>
<wgt id='1092'> +2.9809143E+03 </wgt>
<wgt id='1093'> +2.9885801E+03 </wgt>
<wgt id='1094'> +2.9716827E+03 </wgt>
<wgt id='1095'> +2.9871125E+03 </wgt>
<wgt id='1096'> +2.9801772E+03 </wgt>
<wgt id='1097'> +2.9779981E+03 </wgt>
<wgt id='1098'> +2.9755042E+03 </wgt>
<wgt id='1099'> +2.9728272E+03 </wgt>
<wgt id='1100'> +2.9767247E+03 </wgt>
<wgt id='1101'> +2.9703505E+03 </wgt>
<wgt id='1102'> +2.9826315E+03 </wgt>
<wgt id='1103'> +2.9742249E+03 </wgt>
<wgt id='1104'> +2.9778888E+03 </wgt>
<wgt id='1105'> +2.9788866E+03 </wgt>
<wgt id='1106'> +2.9773592E+03 </wgt>
<wgt id='1107'> +2.9755286E+03 </wgt>
<wgt id='1108'> +2.9804275E+03 </wgt>
<wgt id='1109'> +2.9787266E+03 </wgt>
<wgt id='1110'> +2.9724199E+03 </wgt>
<wgt id='1111'> +2.9796498E+03 </wgt>
<wgt id='1112'> +2.9768952E+03 </wgt>
<wgt id='1113'> +2.9779813E+03 </wgt>
<wgt id='1114'> +2.9801285E+03 </wgt>
<wgt id='1115'> +2.9747841E+03 </wgt>
<wgt id='1116'> +2.9750216E+03 </wgt>
<wgt id='1117'> +2.9728225E+03 </wgt>
<wgt id='1118'> +2.9822682E+03 </wgt>
<wgt id='1119'> +2.9721447E+03 </wgt>
<wgt id='1120'> +2.9799655E+03 </wgt>
<wgt id='1121'> +2.9751540E+03 </wgt>
<wgt id='1122'> +2.9746172E+03 </wgt>
<wgt id='1123'> +2.9781271E+03 </wgt>
<wgt id='1124'> +2.9765640E+03 </wgt>
<wgt id='1125'> +2.9779690E+03 </wgt>
<wgt id='1126'> +2.9802720E+03 </wgt>
<wgt id='1127'> +2.9757567E+03 </wgt>
<wgt id='1128'> +2.9768436E+03 </wgt>
<wgt id='1129'> +2.9755416E+03 </wgt>
<wgt id='1130'> +2.9752896E+03 </wgt>
<wgt id='1131'> +2.9771689E+03 </wgt>
<wgt id='1132'> +2.9778221E+03 </wgt>
<wgt id='1133'> +2.9758655E+03 </wgt>
<wgt id='1134'> +2.9765421E+03 </wgt>
<wgt id='1135'> +2.9771874E+03 </wgt>
<wgt id='1136'> +2.9782262E+03 </wgt>
<wgt id='1137'> +2.9802697E+03 </wgt>
<wgt id='1138'> +2.9748970E+03 </wgt>
<wgt id='1139'> +2.9758911E+03 </wgt>
<wgt id='1140'> +2.9759302E+03 </wgt>
<wgt id='1141'> +2.9761717E+03 </wgt>
<wgt id='1142'> +2.9752765E+03 </wgt>
<wgt id='1143'> +2.9799303E+03 </wgt>
<wgt id='1144'> +2.9763154E+03 </wgt>
<wgt id='1145'> +2.9750784E+03 </wgt>
<wgt id='1146'> +2.9796505E+03 </wgt>
<wgt id='1147'> +2.9532437E+03 </wgt>
<wgt id='1148'> +3.0028000E+03 </wgt>
<wgt id='1149'> +2.8792366E+03 </wgt>
<wgt id='1150'> +2.8941222E+03 </wgt>
<wgt id='1151'> +2.9081774E+03 </wgt>
<wgt id='1152'> +2.9459355E+03 </wgt>
<wgt id='1153'> +2.9817039E+03 </wgt>
<wgt id='1154'> +2.9928706E+03 </wgt>
<wgt id='1155'> +3.0210746E+03 </wgt>
<wgt id='1156'> +3.0294024E+03 </wgt>
<wgt id='1157'> +2.9385791E+03 </wgt>
<wgt id='1158'> +2.9307022E+03 </wgt>
<wgt id='1159'> +2.9495394E+03 </wgt>
<wgt id='1160'> +2.9302021E+03 </wgt>
<wgt id='1161'> +2.9531746E+03 </wgt>
<wgt id='1162'> +2.9340617E+03 </wgt>
<wgt id='1163'> +2.9286779E+03 </wgt>
<wgt id='1164'> +2.9388235E+03 </wgt>
<wgt id='1165'> +2.9391590E+03 </wgt>
<wgt id='1166'> +2.9467172E+03 </wgt>
<wgt id='1167'> +2.9294376E+03 </wgt>
<wgt id='1168'> +2.9308656E+03 </wgt>
<wgt id='1169'> +2.9416014E+03 </wgt>
<wgt id='1170'> +2.9457084E+03 </wgt>
<wgt id='1171'> +2.9436134E+03 </wgt>
<wgt id='1172'> +2.9319488E+03 </wgt>
<wgt id='1173'> +2.9386938E+03 </wgt>
<wgt id='1174'> +2.9393246E+03 </wgt>
<wgt id='1175'> +2.9454153E+03 </wgt>
<wgt id='1176'> +2.9411646E+03 </wgt>
<wgt id='1177'> +2.9355928E+03 </wgt>
<wgt id='1178'> +2.9453559E+03 </wgt>
<wgt id='1179'> +2.9403125E+03 </wgt>
<wgt id='1180'> +2.9412209E+03 </wgt>
<wgt id='1181'> +2.9487696E+03 </wgt>
<wgt id='1182'> +2.9286075E+03 </wgt>
<wgt id='1183'> +2.9372058E+03 </wgt>
<wgt id='1184'> +2.9358632E+03 </wgt>
<wgt id='1185'> +2.9453618E+03 </wgt>
<wgt id='1186'> +2.9581050E+03 </wgt>
<wgt id='1187'> +2.9066261E+03 </wgt>
<wgt id='1188'> +2.9239291E+03 </wgt>
<wgt id='1189'> +2.9465213E+03 </wgt>
<wgt id='1190'> +2.9390701E+03 </wgt>
<wgt id='1191'> +2.9352253E+03 </wgt>
<wgt id='1192'> +2.9466340E+03 </wgt>
<wgt id='1193'> +2.9413410E+03 </wgt>
<wgt id='1194'> +2.9308846E+03 </wgt>
<wgt id='1195'> +2.9395577E+03 </wgt>
<wgt id='1196'> +2.9411638E+03 </wgt>
<wgt id='1197'> +2.9360611E+03 </wgt>
<wgt id='1198'> +2.9510114E+03 </wgt>
<wgt id='1199'> +2.9370517E+03 </wgt>
<wgt id='1200'> +2.9371248E+03 </wgt>
<wgt id='1201'> +2.9416898E+03 </wgt>
<wgt id='1202'> +2.9368128E+03 </wgt>
<wgt id='1203'> +2.9399293E+03 </wgt>
<wgt id='1204'> +2.9438411E+03 </wgt>
<wgt id='1205'> +2.9424156E+03 </wgt>
<wgt id='1206'> +2.9294726E+03 </wgt>
<wgt id='1207'> +2.9384969E+03 </wgt>
<wgt id='1208'> +2.9470696E+03 </wgt>
<wgt id='1209'> +2.9422768E+03 </wgt>
<wgt id='1210'> +2.9345660E+03 </wgt>
<wgt id='1211'> +2.9350853E+03 </wgt>
<wgt id='1212'> +2.9386099E+03 </wgt>
<wgt id='1213'> +2.9251070E+03 </wgt>
<wgt id='1214'> +2.9388934E+03 </wgt>
<wgt id='1215'> +2.9348857E+03 </wgt>
<wgt id='1216'> +2.9428505E+03 </wgt>
<wgt id='1217'> +2.9397620E+03 </wgt>
<wgt id='1218'> +2.9380008E+03 </wgt>
<wgt id='1219'> +2.9367478E+03 </wgt>
<wgt id='1220'> +2.9395742E+03 </wgt>
<wgt id='1221'> +2.9357924E+03 </wgt>
<wgt id='1222'> +2.9394245E+03 </wgt>
<wgt id='1223'> +2.9438204E+03 </wgt>
<wgt id='1224'> +2.9364005E+03 </wgt>
<wgt id='1225'> +2.9394765E+03 </wgt>
<wgt id='1226'> +2.9390081E+03 </wgt>
<wgt id='1227'> +2.9357382E+03 </wgt>
<wgt id='1228'> +2.9374603E+03 </wgt>
<wgt id='1229'> +2.9355330E+03 </wgt>
<wgt id='1230'> +2.9350407E+03 </wgt>
<wgt id='1231'> +2.9402756E+03 </wgt>
<wgt id='1232'> +2.9427843E+03 </wgt>
<wgt id='1233'> +2.9415446E+03 </wgt>
<wgt id='1234'> +2.9364980E+03 </wgt>
<wgt id='1235'> +2.9379936E+03 </wgt>
<wgt id='1236'> +2.9386773E+03 </wgt>
<wgt id='1237'> +2.9390054E+03 </wgt>
<wgt id='1238'> +2.9335596E+03 </wgt>
<wgt id='1239'> +2.9376697E+03 </wgt>
<wgt id='1240'> +2.9362595E+03 </wgt>
<wgt id='1241'> +2.9411589E+03 </wgt>
<wgt id='1242'> +2.9369892E+03 </wgt>
<wgt id='1243'> +2.9386488E+03 </wgt>
<wgt id='1244'> +2.9386298E+03 </wgt>
<wgt id='1245'> +2.9381942E+03 </wgt>
<wgt id='1246'> +2.9394014E+03 </wgt>
<wgt id='1247'> +2.9394775E+03 </wgt>
<wgt id='1248'> +2.9388715E+03 </wgt>
<wgt id='1249'> +2.9379562E+03 </wgt>
<wgt id='1250'> +2.9370601E+03 </wgt>
<wgt id='1251'> +2.9376611E+03 </wgt>
<wgt id='1252'> +2.9397157E+03 </wgt>
<wgt id='1253'> +2.9398016E+03 </wgt>
<wgt id='1254'> +2.9362878E+03 </wgt>
<wgt id='1255'> +2.9362021E+03 </wgt>
<wgt id='1256'> +2.9406000E+03 </wgt>
<wgt id='1257'> +2.9401469E+03 </wgt>
<wgt id='1258'> +2.9202728E+03 </wgt>
<wgt id='1259'> +2.9675541E+03 </wgt>
<wgt id='1260'> +3.0367433E+03 </wgt>
<wgt id='1261'> +3.0040359E+03 </wgt>
<wgt id='1262'> +2.9987004E+03 </wgt>
<wgt id='1263'> +3.0490159E+03 </wgt>
<wgt id='1264'> +3.0585942E+03 </wgt>
<wgt id='1265'> +3.0921340E+03 </wgt>
<wgt id='1266'> +3.0587532E+03 </wgt>
<wgt id='1267'> +3.0761160E+03 </wgt>
<wgt id='1268'> +3.0329937E+03 </wgt>
<wgt id='1269'> +3.0919046E+03 </wgt>
<wgt id='1270'> +3.0017306E+03 </wgt>
<wgt id='1271'> +3.0527542E+03 </wgt>
<wgt id='1272'> +2.9853023E+03 </wgt>
<wgt id='1273'> +2.9956705E+03 </wgt>
<wgt id='1274'> +3.0252359E+03 </wgt>
<wgt id='1275'> +3.0465301E+03 </wgt>
<wgt id='1276'> +2.9891794E+03 </wgt>
<wgt id='1277'> +3.0466411E+03 </wgt>
<wgt id='1278'> +3.0286764E+03 </wgt>
<wgt id='1279'> +3.0389559E+03 </wgt>
<wgt id='1280'> +3.0427291E+03 </wgt>
<wgt id='1281'> +3.0632045E+03 </wgt>
<wgt id='1282'> +3.0204334E+03 </wgt>
<wgt id='1283'> +3.0534654E+03 </wgt>
<wgt id='1284'> +3.0172421E+03 </wgt>
<wgt id='1285'> +3.0496090E+03 </wgt>
<wgt id='1286'> +3.0221801E+03 </wgt>
<wgt id='1287'> +3.0489546E+03 </wgt>
<wgt id='1288'> +3.0145087E+03 </wgt>
<wgt id='1289'> +3.0079679E+03 </wgt>
<wgt id='1290'> +3.0535902E+03 </wgt>
<wgt id='1291'> +3.0200128E+03 </wgt>
<wgt id='1292'> +3.0600057E+03 </wgt>
<wgt id='1293'> +3.0637536E+03 </wgt>
<wgt id='1294'> +3.0112942E+03 </wgt>
<wgt id='1295'> +3.0317464E+03 </wgt>
<wgt id='1296'> +3.0469955E+03 </wgt>
<wgt id='1297'> +3.1105858E+03 </wgt>
<wgt id='1298'> +2.9544832E+03 </wgt>
<wgt id='1299'> +3.0774204E+03 </wgt>
<wgt id='1300'> +2.9782732E+03 </wgt>
<wgt id='1301'> +3.0506760E+03 </wgt>
<wgt id='1302'> +3.0356043E+03 </wgt>
<wgt id='1303'> +3.0444032E+03 </wgt>
<wgt id='1304'> +3.0035093E+03 </wgt>
<wgt id='1305'> +3.0016686E+03 </wgt>
<wgt id='1306'> +3.1114440E+03 </wgt>
<wgt id='1307'> +3.0292402E+03 </wgt>
<wgt id='1308'> +3.0768120E+03 </wgt>
<wgt id='1309'> +3.0460364E+03 </wgt>
<wgt id='1310'> +3.0570287E+03 </wgt>
<wgt id='1311'> +3.0438955E+03 </wgt>
<wgt id='1312'> +3.0852688E+03 </wgt>
<wgt id='1313'> +3.1130964E+03 </wgt>
<wgt id='1314'> +3.0936629E+03 </wgt>
<wgt id='1315'> +2.9683449E+03 </wgt>
<wgt id='1316'> +3.0823014E+03 </wgt>
<wgt id='1317'> +3.0054807E+03 </wgt>
<wgt id='1318'> +3.0655544E+03 </wgt>
<wgt id='1319'> +2.9434478E+03 </wgt>
<wgt id='1320'> +2.9961100E+03 </wgt>
<wgt id='1321'> +2.9588441E+03 </wgt>
<wgt id='1322'> +2.9601081E+03 </wgt>
<wgt id='1323'> +2.9855610E+03 </wgt>
<wgt id='1324'> +2.9580213E+03 </wgt>
<wgt id='1325'> +2.9437535E+03 </wgt>
<wgt id='1326'> +2.9578508E+03 </wgt>
<wgt id='1327'> +2.9783670E+03 </wgt>
<wgt id='1328'> +2.9141245E+03 </wgt>
<wgt id='1329'> +2.9628442E+03 </wgt>
<wgt id='1330'> +2.9288034E+03 </wgt>
<wgt id='1331'> +2.9656918E+03 </wgt>
<wgt id='1332'> +2.8589020E+03 </wgt>
<wgt id='1333'> +2.9818412E+03 </wgt>
<wgt id='1334'> +2.9712341E+03 </wgt>
<wgt id='1335'> +2.8904890E+03 </wgt>
<wgt id='1336'> +3.0086829E+03 </wgt>
<wgt id='1337'> +2.8667179E+03 </wgt>
<wgt id='1338'> +2.9658909E+03 </wgt>
<wgt id='1339'> +2.9201608E+03 </wgt>
<wgt id='1340'> +2.9453003E+03 </wgt>
<wgt id='1341'> +2.9410428E+03 </wgt>
<wgt id='1342'> +2.9461957E+03 </wgt>
<wgt id='1343'> +2.9478205E+03 </wgt>
<wgt id='1344'> +2.9025349E+03 </wgt>
<wgt id='1345'> +2.9849799E+03 </wgt>
<wgt id='1346'> +2.9201327E+03 </wgt>
<wgt id='1347'> +2.9769075E+03 </wgt>
<wgt id='1348'> +2.9463352E+03 </wgt>
<wgt id='1349'> +2.9422290E+03 </wgt>
<wgt id='1350'> +2.9443535E+03 </wgt>
<wgt id='1351'> +2.9423103E+03 </wgt>
<wgt id='1352'> +2.9311531E+03 </wgt>
<wgt id='1353'> +2.9700707E+03 </wgt>
<wgt id='1354'> +2.9865750E+03 </wgt>
<wgt id='1355'> +2.9059190E+03 </wgt>
<wgt id='1356'> +2.9470239E+03 </wgt>
<wgt id='1357'> +2.9210761E+03 </wgt>
<wgt id='1358'> +2.8926826E+03 </wgt>
<wgt id='1359'> +2.9612787E+03 </wgt>
<wgt id='1360'> +2.9996356E+03 </wgt>
<wgt id='1361'> +2.9100331E+03 </wgt>
<wgt id='1362'> +2.9176221E+03 </wgt>
<wgt id='1363'> +2.9487196E+03 </wgt>
<wgt id='1364'> +2.9518623E+03 </wgt>
<wgt id='1365'> +2.9451275E+03 </wgt>
<wgt id='1366'> +2.9449540E+03 </wgt>
<wgt id='1367'> +2.9693274E+03 </wgt>
<wgt id='1368'> +2.9570940E+03 </wgt>
<wgt id='1369'> +2.9718870E+03 </wgt>
<wgt id='1370'> +2.9073529E+03 </wgt>
<wgt id='1371'> +2.9134706E+03 </wgt>
<wgt id='1372'> +2.9460397E+03 </wgt>
<wgt id='1373'> +2.8891393E+03 </wgt>
<wgt id='1374'> +2.8745909E+03 </wgt>
<wgt id='1375'> +2.9797056E+03 </wgt>
<wgt id='1376'> +2.9080435E+03 </wgt>
<wgt id='1377'> +2.9739470E+03 </wgt>
<wgt id='1378'> +2.6212716E+03 </wgt>
<wgt id='1379'> +2.7753118E+03 </wgt>
<wgt id='1380'> +2.7849155E+03 </wgt>
<wgt id='1381'> +2.7649845E+03 </wgt>
<wgt id='1382'> +2.7703853E+03 </wgt>
<wgt id='1383'> +2.7786048E+03 </wgt>
<wgt id='1384'> +2.7587440E+03 </wgt>
<wgt id='1385'> +2.7905356E+03 </wgt>
<wgt id='1386'> +2.7718066E+03 </wgt>
<wgt id='1387'> +2.7791340E+03 </wgt>
<wgt id='1388'> +2.7818479E+03 </wgt>
<wgt id='1389'> +2.7691141E+03 </wgt>
<wgt id='1390'> +2.7758917E+03 </wgt>
<wgt id='1391'> +2.7739823E+03 </wgt>
<wgt id='1392'> +2.7831521E+03 </wgt>
<wgt id='1393'> +2.7611764E+03 </wgt>
<wgt id='1394'> +2.7679436E+03 </wgt>
<wgt id='1395'> +2.7793333E+03 </wgt>
<wgt id='1396'> +2.7790567E+03 </wgt>
<wgt id='1397'> +2.7711738E+03 </wgt>
<wgt id='1398'> +2.7799100E+03 </wgt>
<wgt id='1399'> +2.7711175E+03 </wgt>
<wgt id='1400'> +2.7962895E+03 </wgt>
<wgt id='1401'> +2.7477980E+03 </wgt>
<wgt id='1402'> +2.8000174E+03 </wgt>
<wgt id='1403'> +2.7602052E+03 </wgt>
<wgt id='1404'> +2.7839672E+03 </wgt>
<wgt id='1405'> +2.7499640E+03 </wgt>
<wgt id='1406'> +2.7712777E+03 </wgt>
<wgt id='1407'> +2.7803823E+03 </wgt>
<wgt id='1408'> +2.7888169E+03 </wgt>
<wgt id='1409'> +2.7574573E+03 </wgt>
<wgt id='1410'> +2.8146995E+03 </wgt>
<wgt id='1411'> +2.7275087E+03 </wgt>
<wgt id='1412'> +2.7664162E+03 </wgt>
<wgt id='1413'> +2.7805034E+03 </wgt>
<wgt id='1414'> +2.7749084E+03 </wgt>
<wgt id='1415'> +2.7824531E+03 </wgt>
<wgt id='1416'> +2.7715647E+03 </wgt>
<wgt id='1417'> +2.7792932E+03 </wgt>
<wgt id='1418'> +2.7695295E+03 </wgt>
<wgt id='1419'> +2.7804583E+03 </wgt>
<wgt id='1420'> +2.7035072E+03 </wgt>
<wgt id='1421'> +2.8320423E+03 </wgt>
<wgt id='1422'> +2.7987888E+03 </wgt>
<wgt id='1423'> +2.7547756E+03 </wgt>
<wgt id='1424'> +2.7584792E+03 </wgt>
<wgt id='1425'> +2.8163748E+03 </wgt>
<wgt id='1426'> +2.7786888E+03 </wgt>
<wgt id='1427'> +2.7776927E+03 </wgt>
<wgt id='1428'> +2.7733498E+03 </wgt>
<wgt id='1429'> +2.7739530E+03 </wgt>
<wgt id='1430'> +2.9806197E+03 </wgt>
<wgt id='1431'> +2.9904580E+03 </wgt>
<wgt id='1432'> +2.9681123E+03 </wgt>
<wgt id='1433'> +2.9792838E+03 </wgt>
<wgt id='1434'> +2.9819778E+03 </wgt>
<wgt id='1435'> +2.9716754E+03 </wgt>
<wgt id='1436'> +2.9843454E+03 </wgt>
<wgt id='1437'> +2.9622961E+03 </wgt>
<wgt id='1438'> +2.9991232E+03 </wgt>
<wgt id='1439'> +2.9829947E+03 </wgt>
<wgt id='1440'> +2.9784234E+03 </wgt>
<wgt id='1441'> +2.9697212E+03 </wgt>
<wgt id='1442'> +2.9853894E+03 </wgt>
<wgt id='1443'> +2.9884083E+03 </wgt>
<wgt id='1444'> +2.9712732E+03 </wgt>
<wgt id='1445'> +2.9804888E+03 </wgt>
<wgt id='1446'> +2.9808292E+03 </wgt>
<wgt id='1447'> +2.9762005E+03 </wgt>
<wgt id='1448'> +2.9825023E+03 </wgt>
<wgt id='1449'> +2.9713906E+03 </wgt>
<wgt id='1450'> +2.9933213E+03 </wgt>
<wgt id='1451'> +2.9690978E+03 </wgt>
<wgt id='1452'> +2.9880849E+03 </wgt>
<wgt id='1453'> +2.9434116E+03 </wgt>
<wgt id='1454'> +3.0111689E+03 </wgt>
<wgt id='1455'> +2.9712070E+03 </wgt>
<wgt id='1456'> +3.0053069E+03 </wgt>
<wgt id='1457'> +2.9785393E+03 </wgt>
<wgt id='1458'> +2.9903246E+03 </wgt>
<wgt id='1459'> +2.9656807E+03 </wgt>
<wgt id='1460'> +3.0113658E+03 </wgt>
<wgt id='1461'> +2.9969640E+03 </wgt>
<wgt id='1462'> +2.9472109E+03 </wgt>
<wgt id='1463'> +2.9721558E+03 </wgt>
<wgt id='1464'> +2.9965757E+03 </wgt>
<wgt id='1465'> +2.9962242E+03 </wgt>
<wgt id='1466'> +2.9749967E+03 </wgt>
<wgt id='1467'> +2.9849883E+03 </wgt>
<wgt id='1468'> +2.9636978E+03 </wgt>
<wgt id='1469'> +2.9755962E+03 </wgt>
<wgt id='1470'> +2.9826571E+03 </wgt>
<wgt id='1471'> +3.0289094E+03 </wgt>
<wgt id='1472'> +2.8910187E+03 </wgt>
<wgt id='1473'> +2.9839233E+03 </wgt>
<wgt id='1474'> +2.9581434E+03 </wgt>
<wgt id='1475'> +2.9697116E+03 </wgt>
<wgt id='1476'> +3.0056657E+03 </wgt>
<wgt id='1477'> +3.0119314E+03 </wgt>
<wgt id='1478'> +2.9692435E+03 </wgt>
<wgt id='1479'> +2.9928694E+03 </wgt>
<wgt id='1480'> +2.9856235E+03 </wgt>
<wgt id='1481'> +2.6733646E+03 </wgt>
<wgt id='1482'> +2.9528182E+03 </wgt>
<wgt id='1483'> +2.9524096E+03 </wgt>
<wgt id='1484'> +2.9487984E+03 </wgt>
<wgt id='1485'> +2.9522639E+03 </wgt>
<wgt id='1486'> +2.9528401E+03 </wgt>
<wgt id='1487'> +2.9525329E+03 </wgt>
<wgt id='1488'> +2.9400504E+03 </wgt>
<wgt id='1489'> +2.9545878E+03 </wgt>
<wgt id='1490'> +2.9493027E+03 </wgt>
<wgt id='1491'> +2.9400580E+03 </wgt>
<wgt id='1492'> +2.9533294E+03 </wgt>
<wgt id='1493'> +2.9521234E+03 </wgt>
<wgt id='1494'> +2.9556549E+03 </wgt>
<wgt id='1495'> +2.9572237E+03 </wgt>
<wgt id='1496'> +2.9433718E+03 </wgt>
<wgt id='1497'> +2.9454928E+03 </wgt>
<wgt id='1498'> +2.9428485E+03 </wgt>
<wgt id='1499'> +2.9499371E+03 </wgt>
<wgt id='1500'> +2.9443395E+03 </wgt>
<wgt id='1501'> +2.9570450E+03 </wgt>
<wgt id='1502'> +2.9455007E+03 </wgt>
<wgt id='1503'> +2.9347001E+03 </wgt>
<wgt id='1504'> +2.9510255E+03 </wgt>
<wgt id='1505'> +2.9718353E+03 </wgt>
<wgt id='1506'> +2.9668015E+03 </wgt>
<wgt id='1507'> +2.9486241E+03 </wgt>
<wgt id='1508'> +2.9518445E+03 </wgt>
<wgt id='1509'> +2.9688268E+03 </wgt>
<wgt id='1510'> +2.9269898E+03 </wgt>
<wgt id='1511'> +2.9265293E+03 </wgt>
<wgt id='1512'> +2.8400662E+03 </wgt>
<wgt id='1513'> +2.8329785E+03 </wgt>
<wgt id='1514'> +2.8013150E+03 </wgt>
<wgt id='1515'> +2.8781455E+03 </wgt>
<wgt id='1516'> +2.8362283E+03 </wgt>
<wgt id='1517'> +2.8566771E+03 </wgt>
<wgt id='1518'> +2.8014621E+03 </wgt>
<wgt id='1519'> +2.8721251E+03 </wgt>
<wgt id='1520'> +2.8636715E+03 </wgt>
<wgt id='1521'> +2.8271510E+03 </wgt>
<wgt id='1522'> +2.8239109E+03 </wgt>
<wgt id='1523'> +2.8155417E+03 </wgt>
<wgt id='1524'> +2.8250755E+03 </wgt>
<wgt id='1525'> +2.8588655E+03 </wgt>
<wgt id='1526'> +2.8367943E+03 </wgt>
<wgt id='1527'> +2.8278049E+03 </wgt>
<wgt id='1528'> +2.8253398E+03 </wgt>
<wgt id='1529'> +2.8323305E+03 </wgt>
<wgt id='1530'> +2.8775258E+03 </wgt>
<wgt id='1531'> +2.8233884E+03 </wgt>
<wgt id='1532'> +2.8412311E+03 </wgt>
<wgt id='1533'> +2.8465782E+03 </wgt>
<wgt id='1534'> +2.8351793E+03 </wgt>
<wgt id='1535'> +2.8626395E+03 </wgt>
<wgt id='1536'> +2.8338368E+03 </wgt>
<wgt id='1537'> +2.8560564E+03 </wgt>
<wgt id='1538'> +2.8327524E+03 </wgt>
<wgt id='1539'> +2.8444385E+03 </wgt>
<wgt id='1540'> +2.8445000E+03 </wgt>
<wgt id='1541'> +2.8323989E+03 </wgt>
<wgt id='1542'> +2.8314770E+03 </wgt>
<wgt id='1543'> +2.8359428E+03 </wgt>
<wgt id='1544'> +2.8536821E+03 </wgt>
<wgt id='1545'> +2.8394644E+03 </wgt>
<wgt id='1546'> +2.8265313E+03 </wgt>
<wgt id='1547'> +2.8498375E+03 </wgt>
<wgt id='1548'> +2.8359300E+03 </wgt>
<wgt id='1549'> +2.8415621E+03 </wgt>
<wgt id='1550'> +2.8324996E+03 </wgt>
<wgt id='1551'> +2.8290663E+03 </wgt>
<wgt id='1552'> +2.8397896E+03 </wgt>
<wgt id='1553'> +2.8357031E+03 </wgt>
<wgt id='1554'> +2.8480529E+03 </wgt>
<wgt id='1555'> +2.8392941E+03 </wgt>
<wgt id='1556'> +2.8369420E+03 </wgt>
<wgt id='1557'> +2.8428052E+03 </wgt>
<wgt id='1558'> +2.8386540E+03 </wgt>
<wgt id='1559'> +2.8475789E+03 </wgt>
<wgt id='1560'> +2.8362726E+03 </wgt>
<wgt id='1561'> +2.8397384E+03 </wgt>
<wgt id='1562'> +2.8405808E+03 </wgt>
<wgt id='1563'> +2.8291669E+03 </wgt>
<wgt id='1564'> +2.8400544E+03 </wgt>
<wgt id='1565'> +2.8426716E+03 </wgt>
<wgt id='1566'> +2.8341095E+03 </wgt>
<wgt id='1567'> +2.8411257E+03 </wgt>
<wgt id='1568'> +2.8390857E+03 </wgt>
<wgt id='1569'> +2.8366287E+03 </wgt>
<wgt id='1570'> +2.8459860E+03 </wgt>
<wgt id='1571'> +2.8471603E+03 </wgt>
<wgt id='1572'> +2.8350142E+03 </wgt>
<wgt id='1573'> +2.8415045E+03 </wgt>
<wgt id='1574'> +2.8363508E+03 </wgt>
<wgt id='1575'> +2.8447946E+03 </wgt>
<wgt id='1576'> +2.8400972E+03 </wgt>
<wgt id='1577'> +2.8447567E+03 </wgt>
<wgt id='1578'> +2.8407371E+03 </wgt>
<wgt id='1579'> +2.8423849E+03 </wgt>
<wgt id='1580'> +2.8411863E+03 </wgt>
<wgt id='1581'> +2.8406337E+03 </wgt>
<wgt id='1582'> +2.8394652E+03 </wgt>
<wgt id='1583'> +2.8383842E+03 </wgt>
<wgt id='1584'> +2.8408924E+03 </wgt>
<wgt id='1585'> +2.8381182E+03 </wgt>
<wgt id='1586'> +2.8375817E+03 </wgt>
<wgt id='1587'> +2.8417196E+03 </wgt>
<wgt id='1588'> +2.8403357E+03 </wgt>
<wgt id='1589'> +2.8384748E+03 </wgt>
<wgt id='1590'> +2.8384453E+03 </wgt>
<wgt id='1591'> +2.8411636E+03 </wgt>
<wgt id='1592'> +2.8401831E+03 </wgt>
<wgt id='1593'> +2.8403096E+03 </wgt>
<wgt id='1594'> +2.8374896E+03 </wgt>
<wgt id='1595'> +2.8409200E+03 </wgt>
<wgt id='1596'> +2.8396596E+03 </wgt>
<wgt id='1597'> +2.8380754E+03 </wgt>
<wgt id='1598'> +2.8408587E+03 </wgt>
<wgt id='1599'> +2.8379624E+03 </wgt>
<wgt id='1600'> +2.8407649E+03 </wgt>
<wgt id='1601'> +2.8415808E+03 </wgt>
<wgt id='1602'> +2.8409712E+03 </wgt>
<wgt id='1603'> +2.8388991E+03 </wgt>
<wgt id='1604'> +2.8394241E+03 </wgt>
<wgt id='1605'> +2.8390475E+03 </wgt>
<wgt id='1606'> +2.8394620E+03 </wgt>
<wgt id='1607'> +2.8380421E+03 </wgt>
<wgt id='1608'> +2.8399463E+03 </wgt>
<wgt id='1609'> +2.8404937E+03 </wgt>
<wgt id='1610'> +2.8400492E+03 </wgt>
<wgt id='1611'> +2.8400443E+03 </wgt>
<wgt id='1612'> +2.8399867E+03 </wgt>
<wgt id='1613'> +2.8148110E+03 </wgt>
<wgt id='1614'> +2.8639882E+03 </wgt>
<wgt id='1615'> +2.9804344E+03 </wgt>
<wgt id='1616'> +2.9919925E+03 </wgt>
<wgt id='1617'> +2.9567592E+03 </wgt>
<wgt id='1618'> +3.0085913E+03 </wgt>
<wgt id='1619'> +3.0096093E+03 </wgt>
<wgt id='1620'> +3.0019833E+03 </wgt>
<wgt id='1621'> +3.0097584E+03 </wgt>
<wgt id='1622'> +2.9953030E+03 </wgt>
<wgt id='1623'> +2.9851249E+03 </wgt>
<wgt id='1624'> +2.9859063E+03 </wgt>
<wgt id='1625'> +2.9910361E+03 </wgt>
<wgt id='1626'> +2.9970696E+03 </wgt>
<wgt id='1627'> +2.9738392E+03 </wgt>
<wgt id='1628'> +2.9940717E+03 </wgt>
<wgt id='1629'> +2.9534623E+03 </wgt>
<wgt id='1630'> +2.9919681E+03 </wgt>
<wgt id='1631'> +2.9695765E+03 </wgt>
<wgt id='1632'> +2.9908805E+03 </wgt>
<wgt id='1633'> +2.9843905E+03 </wgt>
<wgt id='1634'> +2.9442201E+03 </wgt>
<wgt id='1635'> +2.9865509E+03 </wgt>
<wgt id='1636'> +2.9883271E+03 </wgt>
<wgt id='1637'> +2.9589844E+03 </wgt>
<wgt id='1638'> +2.9855802E+03 </wgt>
<wgt id='1639'> +2.9903571E+03 </wgt>
<wgt id='1640'> +2.9760501E+03 </wgt>
<wgt id='1641'> +2.9657560E+03 </wgt>
<wgt id='1642'> +2.9891629E+03 </wgt>
<wgt id='1643'> +2.9832559E+03 </wgt>
<wgt id='1644'> +2.9682829E+03 </wgt>
<wgt id='1645'> +2.9798666E+03 </wgt>
<wgt id='1646'> +2.9783919E+03 </wgt>
<wgt id='1647'> +2.9953352E+03 </wgt>
<wgt id='1648'> +2.9831559E+03 </wgt>
<wgt id='1649'> +2.9787138E+03 </wgt>
<wgt id='1650'> +2.9839452E+03 </wgt>
<wgt id='1651'> +2.9742062E+03 </wgt>
<wgt id='1652'> +2.9974787E+03 </wgt>
<wgt id='1653'> +2.9982690E+03 </wgt>
<wgt id='1654'> +2.9747316E+03 </wgt>
<wgt id='1655'> +2.9839573E+03 </wgt>
<wgt id='1656'> +2.9676523E+03 </wgt>
<wgt id='1657'> +2.9751001E+03 </wgt>
<wgt id='1658'> +2.9843870E+03 </wgt>
<wgt id='1659'> +2.9826514E+03 </wgt>
<wgt id='1660'> +2.9797364E+03 </wgt>
<wgt id='1661'> +2.9790387E+03 </wgt>
<wgt id='1662'> +2.9735015E+03 </wgt>
<wgt id='1663'> +2.9754355E+03 </wgt>
<wgt id='1664'> +2.9751805E+03 </wgt>
<wgt id='1665'> +2.9820905E+03 </wgt>
<wgt id='1666'> +2.9821082E+03 </wgt>
<wgt id='1667'> +2.9774753E+03 </wgt>
<wgt id='1668'> +2.9762947E+03 </wgt>
<wgt id='1669'> +2.9821272E+03 </wgt>
<wgt id='1670'> +2.9740351E+03 </wgt>
<wgt id='1671'> +2.9868386E+03 </wgt>
<wgt id='1672'> +2.9841933E+03 </wgt>
<wgt id='1673'> +2.9798622E+03 </wgt>
<wgt id='1674'> +2.9801393E+03 </wgt>
<wgt id='1675'> +2.9760897E+03 </wgt>
<wgt id='1676'> +2.9871605E+03 </wgt>
<wgt id='1677'> +2.9757432E+03 </wgt>
<wgt id='1678'> +2.9837749E+03 </wgt>
<wgt id='1679'> +2.9778076E+03 </wgt>
<wgt id='1680'> +2.9746005E+03 </wgt>
<wgt id='1681'> +2.9779078E+03 </wgt>
<wgt id='1682'> +2.9787999E+03 </wgt>
<wgt id='1683'> +2.9810610E+03 </wgt>
<wgt id='1684'> +2.9789127E+03 </wgt>
<wgt id='1685'> +2.9781438E+03 </wgt>
<wgt id='1686'> +2.9839701E+03 </wgt>
<wgt id='1687'> +2.9789405E+03 </wgt>
<wgt id='1688'> +2.9803783E+03 </wgt>
<wgt id='1689'> +2.9784829E+03 </wgt>
<wgt id='1690'> +2.9817575E+03 </wgt>
<wgt id='1691'> +2.9812232E+03 </wgt>
<wgt id='1692'> +2.9815973E+03 </wgt>
<wgt id='1693'> +2.9801287E+03 </wgt>
<wgt id='1694'> +2.9803989E+03 </wgt>
<wgt id='1695'> +2.9834897E+03 </wgt>
<wgt id='1696'> +2.9786249E+03 </wgt>
<wgt id='1697'> +2.9802434E+03 </wgt>
<wgt id='1698'> +2.9784374E+03 </wgt>
<wgt id='1699'> +2.9784217E+03 </wgt>
<wgt id='1700'> +2.9818402E+03 </wgt>
<wgt id='1701'> +2.9810509E+03 </wgt>
<wgt id='1702'> +2.9780001E+03 </wgt>
<wgt id='1703'> +2.9811437E+03 </wgt>
<wgt id='1704'> +2.9794499E+03 </wgt>
<wgt id='1705'> +2.9822950E+03 </wgt>
<wgt id='1706'> +2.9794071E+03 </wgt>
<wgt id='1707'> +2.9788452E+03 </wgt>
<wgt id='1708'> +2.9805990E+03 </wgt>
<wgt id='1709'> +2.9802587E+03 </wgt>
<wgt id='1710'> +2.9805826E+03 </wgt>
<wgt id='1711'> +2.9815217E+03 </wgt>
<wgt id='1712'> +2.9808068E+03 </wgt>
<wgt id='1713'> +2.9805397E+03 </wgt>
<wgt id='1714'> +2.9794211E+03 </wgt>
<wgt id='1715'> +2.9808151E+03 </wgt>
<wgt id='1716'> +2.9594921E+03 </wgt>
<wgt id='1717'> +3.0008212E+03 </wgt>
<wgt id='1718'> +2.8401051E+03 </wgt>
<wgt id='1719'> +2.8096679E+03 </wgt>
<wgt id='1720'> +2.7935104E+03 </wgt>
<wgt id='1721'> +2.8392511E+03 </wgt>
<wgt id='1722'> +2.8978545E+03 </wgt>
<wgt id='1723'> +2.8447707E+03 </wgt>
<wgt id='1724'> +2.8570992E+03 </wgt>
<wgt id='1725'> +2.8385755E+03 </wgt>
<wgt id='1726'> +2.8423578E+03 </wgt>
<wgt id='1727'> +2.8619952E+03 </wgt>
<wgt id='1728'> +2.8361106E+03 </wgt>
<wgt id='1729'> +2.8201884E+03 </wgt>
<wgt id='1730'> +2.8503388E+03 </wgt>
<wgt id='1731'> +2.8361786E+03 </wgt>
<wgt id='1732'> +2.8268894E+03 </wgt>
<wgt id='1733'> +2.8506987E+03 </wgt>
<wgt id='1734'> +2.8559848E+03 </wgt>
<wgt id='1735'> +2.7977667E+03 </wgt>
<wgt id='1736'> +2.8383020E+03 </wgt>
<wgt id='1737'> +2.8476429E+03 </wgt>
<wgt id='1738'> +2.8532142E+03 </wgt>
<wgt id='1739'> +2.8346029E+03 </wgt>
<wgt id='1740'> +2.8299609E+03 </wgt>
<wgt id='1741'> +2.8431077E+03 </wgt>
<wgt id='1742'> +2.8281212E+03 </wgt>
<wgt id='1743'> +2.8434473E+03 </wgt>
<wgt id='1744'> +2.8012507E+03 </wgt>
<wgt id='1745'> +2.8408388E+03 </wgt>
<wgt id='1746'> +2.8365207E+03 </wgt>
<wgt id='1747'> +2.8232269E+03 </wgt>
<wgt id='1748'> +2.8410499E+03 </wgt>
<wgt id='1749'> +2.8148110E+03 </wgt>
<wgt id='1750'> +2.8639882E+03 </wgt>
<wgt id='1751'> +2.9804314E+03 </wgt>
<wgt id='1752'> +2.9955710E+03 </wgt>
<wgt id='1753'> +3.0054548E+03 </wgt>
<wgt id='1754'> +2.9815739E+03 </wgt>
<wgt id='1755'> +2.9071319E+03 </wgt>
<wgt id='1756'> +2.9640987E+03 </wgt>
<wgt id='1757'> +2.9821033E+03 </wgt>
<wgt id='1758'> +2.9809854E+03 </wgt>
<wgt id='1759'> +2.9803165E+03 </wgt>
<wgt id='1760'> +2.9659541E+03 </wgt>
<wgt id='1761'> +2.9949269E+03 </wgt>
<wgt id='1762'> +2.9936033E+03 </wgt>
<wgt id='1763'> +2.9808845E+03 </wgt>
<wgt id='1764'> +2.9761099E+03 </wgt>
<wgt id='1765'> +2.9763075E+03 </wgt>
<wgt id='1766'> +2.9663282E+03 </wgt>
<wgt id='1767'> +2.9760050E+03 </wgt>
<wgt id='1768'> +2.9694315E+03 </wgt>
<wgt id='1769'> +2.9813908E+03 </wgt>
<wgt id='1770'> +2.9903861E+03 </wgt>
<wgt id='1771'> +2.9777650E+03 </wgt>
<wgt id='1772'> +2.9362885E+03 </wgt>
<wgt id='1773'> +2.9849378E+03 </wgt>
<wgt id='1774'> +2.9795892E+03 </wgt>
<wgt id='1775'> +2.9780549E+03 </wgt>
<wgt id='1776'> +2.9814262E+03 </wgt>
<wgt id='1777'> +2.9808422E+03 </wgt>
<wgt id='1778'> +2.9815956E+03 </wgt>
<wgt id='1779'> +2.9781044E+03 </wgt>
<wgt id='1780'> +2.9786503E+03 </wgt>
<wgt id='1781'> +2.9817669E+03 </wgt>
<wgt id='1782'> +2.9594921E+03 </wgt>
<wgt id='1783'> +3.0008212E+03 </wgt>
<wgt id='1784'> +2.9422372E+03 </wgt>
<wgt id='1785'> +2.9470778E+03 </wgt>
<wgt id='1786'> +2.9374305E+03 </wgt>
<wgt id='1787'> +2.9447362E+03 </wgt>
<wgt id='1788'> +2.9397297E+03 </wgt>
<wgt id='1789'> +2.9426592E+03 </wgt>
<wgt id='1790'> +2.9418030E+03 </wgt>
<wgt id='1791'> +2.9289695E+03 </wgt>
<wgt id='1792'> +2.9552003E+03 </wgt>
<wgt id='1793'> +2.9242170E+03 </wgt>
<wgt id='1794'> +2.9588817E+03 </wgt>
<wgt id='1795'> +2.9560625E+03 </wgt>
<wgt id='1796'> +2.9255256E+03 </wgt>
<wgt id='1797'> +2.9461585E+03 </wgt>
<wgt id='1798'> +2.9380675E+03 </wgt>
<wgt id='1799'> +2.9617638E+03 </wgt>
<wgt id='1800'> +2.9310667E+03 </wgt>
<wgt id='1801'> +2.9512883E+03 </wgt>
<wgt id='1802'> +2.9262770E+03 </wgt>
<wgt id='1803'> +2.8857121E+03 </wgt>
<wgt id='1804'> +2.9989847E+03 </wgt>
<wgt id='1805'> +2.8879784E+03 </wgt>
<wgt id='1806'> +2.9923553E+03 </wgt>
<wgt id='1807'> +2.9019920E+03 </wgt>
<wgt id='1808'> +2.9712540E+03 </wgt>
<wgt id='1809'> +2.9750636E+03 </wgt>
<wgt id='1810'> +2.9119939E+03 </wgt>
<wgt id='1811'> +2.9354864E+03 </wgt>
<wgt id='1812'> +2.9505581E+03 </wgt>
<wgt id='1813'> +2.9422372E+03 </wgt>
<wgt id='1814'> +3.0375107E+03 </wgt>
<wgt id='1815'> +2.8434370E+03 </wgt>
<wgt id='1816'> +3.2432040E+03 </wgt>
<wgt id='1817'> +3.1795067E+03 </wgt>
<wgt id='1818'> +2.9783249E+03 </wgt>
<wgt id='1819'> +2.9287310E+03 </wgt>
<wgt id='1820'> +2.9393150E+03 </wgt>
<wgt id='1821'> +2.9444010E+03 </wgt>
<wgt id='1822'> +2.9231496E+03 </wgt>
<wgt id='1823'> +2.9610141E+03 </wgt>
<wgt id='1824'> +2.9321971E+03 </wgt>
<wgt id='1825'> +2.9691704E+03 </wgt>
<wgt id='1826'> +2.9992542E+03 </wgt>
<wgt id='1827'> +3.1617041E+03 </wgt>
<wgt id='1828'> +3.1665780E+03 </wgt>
<wgt id='1829'> +3.1560464E+03 </wgt>
<wgt id='1830'> +3.1647031E+03 </wgt>
<wgt id='1831'> +3.1578748E+03 </wgt>
<wgt id='1832'> +3.1638367E+03 </wgt>
<wgt id='1833'> +3.1587633E+03 </wgt>
<wgt id='1834'> +3.1487473E+03 </wgt>
<wgt id='1835'> +3.1732293E+03 </wgt>
<wgt id='1836'> +3.1640715E+03 </wgt>
<wgt id='1837'> +3.1579378E+03 </wgt>
<wgt id='1838'> +3.1409263E+03 </wgt>
<wgt id='1839'> +3.1802261E+03 </wgt>
<wgt id='1840'> +3.1628567E+03 </wgt>
<wgt id='1841'> +3.1600566E+03 </wgt>
<wgt id='1842'> +3.1654980E+03 </wgt>
<wgt id='1843'> +3.1692683E+03 </wgt>
<wgt id='1844'> +3.1401106E+03 </wgt>
<wgt id='1845'> +3.1815042E+03 </wgt>
<wgt id='1846'> +3.1031258E+03 </wgt>
<wgt id='1847'> +3.2162802E+03 </wgt>
<wgt id='1848'> +3.1640986E+03 </wgt>
<wgt id='1849'> +3.1543246E+03 </wgt>
<wgt id='1850'> +3.1894946E+03 </wgt>
<wgt id='1851'> +3.1345093E+03 </wgt>
<wgt id='1852'> +3.1746319E+03 </wgt>
<wgt id='1853'> +3.1502666E+03 </wgt>
<wgt id='1854'> +3.1623056E+03 </wgt>
<wgt id='1855'> +3.1655886E+03 </wgt>
<wgt id='1856'> +3.1617041E+03 </wgt>
<wgt id='1857'> +3.2510101E+03 </wgt>
<wgt id='1858'> +3.0314516E+03 </wgt>
<wgt id='1859'> +3.4138642E+03 </wgt>
<wgt id='1860'> +3.3163207E+03 </wgt>
<wgt id='1861'> +3.2823045E+03 </wgt>
<wgt id='1862'> +3.0938174E+03 </wgt>
<wgt id='1863'> +3.1583449E+03 </wgt>
<wgt id='1864'> +3.1631277E+03 </wgt>
<wgt id='1865'> +3.0911343E+03 </wgt>
<wgt id='1866'> +3.2689288E+03 </wgt>
<wgt id='1867'> +3.0982943E+03 </wgt>
<wgt id='1868'> +3.1915794E+03 </wgt>
<wgt id='1869'> +3.0576095E+03 </wgt>
<wgt id='1870'> +2.9170811E+03 </wgt>
<wgt id='1871'> +2.9160602E+03 </wgt>
<wgt id='1872'> +2.9150398E+03 </wgt>
<wgt id='1873'> +2.9140177E+03 </wgt>
<wgt id='1874'> +2.9130054E+03 </wgt>
<wgt id='1875'> +2.9119843E+03 </wgt>
<wgt id='1876'> +2.9109580E+03 </wgt>
<wgt id='1877'> +2.9099450E+03 </wgt>
<wgt id='1878'> +2.9089239E+03 </wgt>
<wgt id='1879'> +2.9079052E+03 </wgt>
<wgt id='1880'> +2.9068850E+03 </wgt>
<wgt id='1881'> +2.9058671E+03 </wgt>
<wgt id='1882'> +2.9048533E+03 </wgt>
<wgt id='1883'> +2.9038300E+03 </wgt>
<wgt id='1884'> +2.9028101E+03 </wgt>
<wgt id='1885'> +2.9017976E+03 </wgt>
<wgt id='1886'> +2.9007794E+03 </wgt>
<wgt id='1887'> +2.8997543E+03 </wgt>
<wgt id='1888'> +2.8987437E+03 </wgt>
<wgt id='1889'> +2.8977248E+03 </wgt>
<wgt id='1890'> +2.8967138E+03 </wgt>
<wgt id='1891'> +2.8956902E+03 </wgt>
<wgt id='1892'> +2.8946727E+03 </wgt>
<wgt id='1893'> +2.8936622E+03 </wgt>
<wgt id='1894'> +2.8926455E+03 </wgt>
<wgt id='1895'> +2.8916219E+03 </wgt>
<wgt id='1896'> +2.8906131E+03 </wgt>
<wgt id='1897'> +2.8895951E+03 </wgt>
<wgt id='1898'> +2.8885799E+03 </wgt>
<wgt id='1899'> +2.8875637E+03 </wgt>
<wgt id='1900'> +2.8865480E+03 </wgt>
<wgt id='1901'> +2.9676346E+03 </wgt>
<wgt id='1902'> +2.9786707E+03 </wgt>
<wgt id='1903'> +2.9438847E+03 </wgt>
<wgt id='1904'> +2.9957519E+03 </wgt>
<wgt id='1905'> +2.9966525E+03 </wgt>
<wgt id='1906'> +2.9891604E+03 </wgt>
<wgt id='1907'> +2.9972242E+03 </wgt>
<wgt id='1908'> +2.9827700E+03 </wgt>
<wgt id='1909'> +2.9723204E+03 </wgt>
<wgt id='1910'> +2.9731609E+03 </wgt>
<wgt id='1911'> +2.9780987E+03 </wgt>
<wgt id='1912'> +2.9847363E+03 </wgt>
<wgt id='1913'> +2.9613198E+03 </wgt>
<wgt id='1914'> +2.9814351E+03 </wgt>
<wgt id='1915'> +2.9406940E+03 </wgt>
<wgt id='1916'> +2.9783547E+03 </wgt>
<wgt id='1917'> +2.9573209E+03 </wgt>
<wgt id='1918'> +2.9778460E+03 </wgt>
<wgt id='1919'> +2.9714748E+03 </wgt>
<wgt id='1920'> +2.9318387E+03 </wgt>
<wgt id='1921'> +2.9741346E+03 </wgt>
<wgt id='1922'> +2.9752748E+03 </wgt>
<wgt id='1923'> +2.9462134E+03 </wgt>
<wgt id='1924'> +2.9729032E+03 </wgt>
<wgt id='1925'> +2.9773262E+03 </wgt>
<wgt id='1926'> +2.9629161E+03 </wgt>
<wgt id='1927'> +2.9526496E+03 </wgt>
<wgt id='1928'> +2.9767330E+03 </wgt>
<wgt id='1929'> +2.9706205E+03 </wgt>
<wgt id='1930'> +2.9553734E+03 </wgt>
<wgt id='1931'> +2.9669066E+03 </wgt>
<wgt id='1932'> +2.9660442E+03 </wgt>
<wgt id='1933'> +2.9823263E+03 </wgt>
<wgt id='1934'> +2.9701834E+03 </wgt>
<wgt id='1935'> +2.9659187E+03 </wgt>
<wgt id='1936'> +2.9710357E+03 </wgt>
<wgt id='1937'> +2.9614492E+03 </wgt>
<wgt id='1938'> +2.9846159E+03 </wgt>
<wgt id='1939'> +2.9853247E+03 </wgt>
<wgt id='1940'> +2.9617913E+03 </wgt>
<wgt id='1941'> +2.9711285E+03 </wgt>
<wgt id='1942'> +2.9548277E+03 </wgt>
<wgt id='1943'> +2.9622540E+03 </wgt>
<wgt id='1944'> +2.9717760E+03 </wgt>
<wgt id='1945'> +2.9697680E+03 </wgt>
<wgt id='1946'> +2.9668963E+03 </wgt>
<wgt id='1947'> +2.9663174E+03 </wgt>
<wgt id='1948'> +2.9607008E+03 </wgt>
<wgt id='1949'> +2.9627623E+03 </wgt>
<wgt id='1950'> +2.9623732E+03 </wgt>
<wgt id='1951'> +2.9693316E+03 </wgt>
<wgt id='1952'> +2.9692558E+03 </wgt>
<wgt id='1953'> +2.9646542E+03 </wgt>
<wgt id='1954'> +2.9635772E+03 </wgt>
<wgt id='1955'> +2.9693774E+03 </wgt>
<wgt id='1956'> +2.9613274E+03 </wgt>
<wgt id='1957'> +2.9738496E+03 </wgt>
<wgt id='1958'> +2.9714103E+03 </wgt>
<wgt id='1959'> +2.9671884E+03 </wgt>
<wgt id='1960'> +2.9673573E+03 </wgt>
<wgt id='1961'> +2.9633726E+03 </wgt>
<wgt id='1962'> +2.9743369E+03 </wgt>
<wgt id='1963'> +2.9629434E+03 </wgt>
<wgt id='1964'> +2.9708930E+03 </wgt>
<wgt id='1965'> +2.9651092E+03 </wgt>
<wgt id='1966'> +2.9618482E+03 </wgt>
<wgt id='1967'> +2.9651215E+03 </wgt>
<wgt id='1968'> +2.9659345E+03 </wgt>
<wgt id='1969'> +2.9682297E+03 </wgt>
<wgt id='1970'> +2.9660637E+03 </wgt>
<wgt id='1971'> +2.9653509E+03 </wgt>
<wgt id='1972'> +2.9711748E+03 </wgt>
<wgt id='1973'> +2.9661446E+03 </wgt>
<wgt id='1974'> +2.9675428E+03 </wgt>
<wgt id='1975'> +2.9657198E+03 </wgt>
<wgt id='1976'> +2.9689683E+03 </wgt>
<wgt id='1977'> +2.9685172E+03 </wgt>
<wgt id='1978'> +2.9688034E+03 </wgt>
<wgt id='1979'> +2.9673735E+03 </wgt>
<wgt id='1980'> +2.9675891E+03 </wgt>
<wgt id='1981'> +2.9705765E+03 </wgt>
<wgt id='1982'> +2.9659354E+03 </wgt>
<wgt id='1983'> +2.9674774E+03 </wgt>
<wgt id='1984'> +2.9656657E+03 </wgt>
<wgt id='1985'> +2.9656034E+03 </wgt>
<wgt id='1986'> +2.9690532E+03 </wgt>
<wgt id='1987'> +2.9683149E+03 </wgt>
<wgt id='1988'> +2.9651922E+03 </wgt>
<wgt id='1989'> +2.9682910E+03 </wgt>
<wgt id='1990'> +2.9665965E+03 </wgt>
<wgt id='1991'> +2.9694332E+03 </wgt>
<wgt id='1992'> +2.9665753E+03 </wgt>
<wgt id='1993'> +2.9660410E+03 </wgt>
<wgt id='1994'> +2.9678037E+03 </wgt>
<wgt id='1995'> +2.9673873E+03 </wgt>
<wgt id='1996'> +2.9677742E+03 </wgt>
<wgt id='1997'> +2.9687279E+03 </wgt>
<wgt id='1998'> +2.9680068E+03 </wgt>
<wgt id='1999'> +2.9677151E+03 </wgt>
<wgt id='2000'> +2.9666600E+03 </wgt>
<wgt id='2001'> +2.9680547E+03 </wgt>
<wgt id='2002'> +2.9676253E+03 </wgt>
<wgt id='2003'> +2.9675746E+03 </wgt>
<wgt id='2004'> +2.9676437E+03 </wgt>
<wgt id='2005'> +2.9676457E+03 </wgt>
<wgt id='2006'> +2.9676624E+03 </wgt>
<wgt id='2007'> +2.9676386E+03 </wgt>
<wgt id='2008'> +2.9675970E+03 </wgt>
<wgt id='2009'> +2.8019219E+03 </wgt>
<wgt id='2010'> +2.7053277E+03 </wgt>
<wgt id='2011'> +2.7929271E+03 </wgt>
<wgt id='2012'> +2.8223793E+03 </wgt>
<wgt id='2013'> +2.8991068E+03 </wgt>
<wgt id='2014'> +2.6839712E+03 </wgt>
<wgt id='2015'> +2.8505264E+03 </wgt>
<wgt id='2016'> +2.8132445E+03 </wgt>
<wgt id='2017'> +2.7900313E+03 </wgt>
<wgt id='2018'> +2.7776802E+03 </wgt>
<wgt id='2019'> +2.8659197E+03 </wgt>
<wgt id='2020'> +2.6541889E+03 </wgt>
<wgt id='2021'> +2.7923482E+03 </wgt>
<wgt id='2022'> +2.8789442E+03 </wgt>
<wgt id='2023'> +2.7959922E+03 </wgt>
<wgt id='2024'> +2.7813532E+03 </wgt>
<wgt id='2025'> +2.7008806E+03 </wgt>
<wgt id='2026'> +2.7097720E+03 </wgt>
<wgt id='2027'> +2.5702633E+03 </wgt>
<wgt id='2028'> +2.8382937E+03 </wgt>
<wgt id='2029'> +2.8290582E+03 </wgt>
<wgt id='2030'> +2.9578072E+03 </wgt>
<wgt id='2031'> +2.8053089E+03 </wgt>
<wgt id='2032'> +2.8575493E+03 </wgt>
<wgt id='2033'> +2.8592207E+03 </wgt>
<wgt id='2034'> +2.7540383E+03 </wgt>
<wgt id='2035'> +2.8213168E+03 </wgt>
<wgt id='2036'> +2.6729031E+03 </wgt>
<wgt id='2037'> +2.8051431E+03 </wgt>
<wgt id='2038'> +2.8047254E+03 </wgt>
<wgt id='2039'> +2.7811260E+03 </wgt>
<wgt id='2040'> +2.8943658E+03 </wgt>
<wgt id='2041'> +2.8189000E+03 </wgt>
<wgt id='2042'> +2.9216087E+03 </wgt>
<wgt id='2043'> +2.8497560E+03 </wgt>
<wgt id='2044'> +2.8469858E+03 </wgt>
<wgt id='2045'> +2.7384470E+03 </wgt>
<wgt id='2046'> +2.7087315E+03 </wgt>
<wgt id='2047'> +2.7098016E+03 </wgt>
<wgt id='2048'> +2.7799063E+03 </wgt>
<wgt id='2049'> +2.8276019E+03 </wgt>
<wgt id='2050'> +2.9213557E+03 </wgt>
<wgt id='2051'> +2.8288465E+03 </wgt>
<wgt id='2052'> +2.8185613E+03 </wgt>
<wgt id='2053'> +2.8103418E+03 </wgt>
<wgt id='2054'> +2.9103890E+03 </wgt>
<wgt id='2055'> +2.8146554E+03 </wgt>
<wgt id='2056'> +2.7945987E+03 </wgt>
<wgt id='2057'> +2.8011515E+03 </wgt>
<wgt id='2058'> +2.8207567E+03 </wgt>
<wgt id='2059'> +2.8563618E+03 </wgt>
<wgt id='2060'> +2.8699024E+03 </wgt>
<wgt id='2061'> +2.8205886E+03 </wgt>
<wgt id='2062'> +2.7788694E+03 </wgt>
<wgt id='2063'> +2.8428535E+03 </wgt>
<wgt id='2064'> +2.8408806E+03 </wgt>
<wgt id='2065'> +2.7006576E+03 </wgt>
<wgt id='2066'> +2.7609593E+03 </wgt>
<wgt id='2067'> +2.8589923E+03 </wgt>
<wgt id='2068'> +2.7737783E+03 </wgt>
<wgt id='2069'> +2.8534342E+03 </wgt>
<wgt id='2070'> +2.8023592E+03 </wgt>
<wgt id='2071'> +2.7850925E+03 </wgt>
<wgt id='2072'> +2.8113666E+03 </wgt>
<wgt id='2073'> +2.5679269E+03 </wgt>
<wgt id='2074'> +2.8513875E+03 </wgt>
<wgt id='2075'> +2.7842180E+03 </wgt>
<wgt id='2076'> +2.9407393E+03 </wgt>
<wgt id='2077'> +2.8568080E+03 </wgt>
<wgt id='2078'> +2.7708923E+03 </wgt>
<wgt id='2079'> +2.8302742E+03 </wgt>
<wgt id='2080'> +2.8285199E+03 </wgt>
<wgt id='2081'> +2.7494913E+03 </wgt>
<wgt id='2082'> +2.7700390E+03 </wgt>
<wgt id='2083'> +2.8865686E+03 </wgt>
<wgt id='2084'> +2.7892454E+03 </wgt>
<wgt id='2085'> +2.7638799E+03 </wgt>
<wgt id='2086'> +2.7611705E+03 </wgt>
<wgt id='2087'> +2.8314137E+03 </wgt>
<wgt id='2088'> +2.7812740E+03 </wgt>
<wgt id='2089'> +2.8071740E+03 </wgt>
<wgt id='2090'> +2.8777894E+03 </wgt>
<wgt id='2091'> +2.9026513E+03 </wgt>
<wgt id='2092'> +2.7773752E+03 </wgt>
<wgt id='2093'> +2.7945007E+03 </wgt>
<wgt id='2094'> +2.8192403E+03 </wgt>
<wgt id='2095'> +2.7750455E+03 </wgt>
<wgt id='2096'> +2.9012128E+03 </wgt>
<wgt id='2097'> +2.8294625E+03 </wgt>
<wgt id='2098'> +2.6858722E+03 </wgt>
<wgt id='2099'> +2.8322180E+03 </wgt>
<wgt id='2100'> +2.8340029E+03 </wgt>
<wgt id='2101'> +2.7857233E+03 </wgt>
<wgt id='2102'> +2.7381500E+03 </wgt>
<wgt id='2103'> +2.8251186E+03 </wgt>
<wgt id='2104'> +2.6785059E+03 </wgt>
<wgt id='2105'> +2.8120493E+03 </wgt>
<wgt id='2106'> +2.7553252E+03 </wgt>
<wgt id='2107'> +2.8700776E+03 </wgt>
<wgt id='2108'> +2.8071132E+03 </wgt>
<wgt id='2109'> +2.6525431E+03 </wgt>
<wgt id='2110'> +2.7990741E+03 </wgt>
<wgt id='2111'> +2.8198305E+03 </wgt>
<wgt id='2112'> +2.9318762E+03 </wgt>
<wgt id='2113'> +2.9982168E+03 </wgt>
<wgt id='2114'> +3.0268453E+03 </wgt>
<wgt id='2115'> +2.6168560E+03 </wgt>
<wgt id='2116'> +2.9688354E+03 </wgt>
</rwgt>
</event>
<event>
 5      0 +2.9771057E+03 8.56016400e+01 7.54677100e-03 1.19140800e-01
        2 -1    0    0  501    0 +0.0000000000e+00 +0.0000000000e+00 +1.0455100556e+02 1.0455100556e+02 0.0000000000e+00 0.0000e+00 -1.0000e+00
       -1 -1    0    0    0  501 -0.0000000000e+00 -0.0000000000e+00 -1.7521689082e+01 1.7521689082e+01 0.0000000000e+00 0.0000e+00 1.0000e+00
       24  2    1    2    0    0 +0.0000000000e+00 +0.0000000000e+00 +8.7029316483e+01 1.2207269465e+02 8.5601640468e+01 0.0000e+00 0.0000e+00
      -15  1    3    3    0    0 -3.2995296242e+01 +1.6174300136e+01 +1.2288987696e+01 3.8787556079e+01 1.7770000000e+00 0.0000e+00 1.0000e+00
       16  1    3    3    0    0 +3.2995296242e+01 -1.6174300136e+01 +7.4740328786e+01 8.3285138567e+01 0.0000000000e+00 0.0000e+00 -1.0000e+00
<scales pt_clust_4="13000.00000" pt_clust_5="13000.00000"></scales>
<mgrwt>
<rscale>  0 0.85601640E+02</rscale>
<asrwt>0</asrwt>
<pdfrwt beam="1">  1        2 0.16084770E-01 0.85601640E+02</pdfrwt>
<pdfrwt beam="2">  1       -1 0.26956445E-02 0.85601640E+02</pdfrwt>
<totfact> 0.16590998E+05</totfact>
</mgrwt>
<clustering>
<clus scale="   85.602">  4  5 -1 -1</clus>
<clus scale="   85.602">  1  4  2 -1</clus>
</clustering>
<rwgt>
<wgt id='1001'> +2.9771057E+03 </wgt>
<wgt id='1002'> +2.9000428E+03 </wgt>
<wgt id='1003'> +2.9000728E+03 </wgt>
<wgt id='1004'> +2.5313238E+03 </wgt>
<wgt id='1005'> +2.9771057E+03 </wgt>
<wgt id='1006'> +2.9771057E+03 </wgt>
<wgt id='1007'> +2.9000428E+03 </wgt>
<wgt id='1008'> +2.9000728E+03 </wgt>
<wgt id='1009'> +2.5313238E+03 </wgt>
<wgt id='1010'> +2.9771057E+03 </wgt>
<wgt id='1011'> +2.9771057E+03 </wgt>
<wgt id='1012'> +2.9000428E+03 </wgt>
<wgt id='1013'> +2.9000728E+03 </wgt>
<wgt id='1014'> +2.5313238E+03 </wgt>
<wgt id='1015'> +2.9771057E+03 </wgt>
<wgt id='1016'> +3.3106945E+03 </wgt>
<wgt id='1017'> +3.2399216E+03 </wgt>
<wgt id='1018'> +3.2399492E+03 </wgt>
<wgt id='1019'> +2.9000728E+03 </wgt>
<wgt id='1020'> +3.3106945E+03 </wgt>
<wgt id='1021'> +3.3106945E+03 </wgt>
<wgt id='1022'> +3.2399216E+03 </wgt>
<wgt id='1023'> +3.2399492E+03 </wgt>
<wgt id='1024'> +2.9000728E+03 </wgt>
<wgt id='1025'> +3.3106945E+03 </wgt>
<wgt id='1026'> +3.3106945E+03 </wgt>
<wgt id='1027'> +3.2399216E+03 </wgt>
<wgt id='1028'> +3.2399492E+03 </wgt>
<wgt id='1029'> +2.9000728E+03 </wgt>
<wgt id='1030'> +3.3106945E+03 </wgt>
<wgt id='1031'> +2.6146663E+03 </wgt>
<wgt id='1032'> +2.5312913E+03 </wgt>
<wgt id='1033'> +2.5313238E+03 </wgt>
<wgt id='1034'> +2.1335355E+03 </wgt>
<wgt id='1035'> +2.6146663E+03 </wgt>
<wgt id='1036'> +2.6146663E+03 </wgt>
<wgt id='1037'> +2.5312913E+03 </wgt>
<wgt id='1038'> +2.5313238E+03 </wgt>
<wgt id='1039'> +2.1335355E+03 </wgt>
<wgt id='1040'> +2.6146663E+03 </wgt>
<wgt id='1041'> +2.6146663E+03 </wgt>
<wgt id='1042'> +2.5312913E+03 </wgt>
<wgt id='1043'> +2.5313238E+03 </wgt>
<wgt id='1044'> +2.1335355E+03 </wgt>
<wgt id='1045'> +2.6146663E+03 </wgt>
<wgt id='1046'> +2.9771057E+03 </wgt>
<wgt id='1047'> +2.9757717E+03 </wgt>
<wgt id='1048'> +2.9788802E+03 </wgt>
<wgt id='1049'> +2.9772044E+03 </wgt>
<wgt id='1050'> +2.9907390E+03 </wgt>
<wgt id='1051'> +2.9756843E+03 </wgt>
<wgt id='1052'> +2.9656152E+03 </wgt>
<wgt id='1053'> +2.9739797E+03 </wgt>
<wgt id='1054'> +2.9679748E+03 </wgt>
<wgt id='1055'> +2.9886867E+03 </wgt>
<wgt id='1056'> +2.9595029E+03 </wgt>
<wgt id='1057'> +2.9624362E+03 </wgt>
<wgt id='1058'> +2.9891353E+03 </wgt>
<wgt id='1059'> +2.9683493E+03 </wgt>
<wgt id='1060'> +2.9843063E+03 </wgt>
<wgt id='1061'> +2.9959432E+03 </wgt>
<wgt id='1062'> +2.9972515E+03 </wgt>
<wgt id='1063'> +2.9629062E+03 </wgt>
<wgt id='1064'> +2.9674084E+03 </wgt>
<wgt id='1065'> +2.9674409E+03 </wgt>
<wgt id='1066'> +2.9713360E+03 </wgt>
<wgt id='1067'> +2.9945297E+03 </wgt>
<wgt id='1068'> +2.9827720E+03 </wgt>
<wgt id='1069'> +2.9609708E+03 </wgt>
<wgt id='1070'> +2.9993452E+03 </wgt>
<wgt id='1071'> +2.9839856E+03 </wgt>
<wgt id='1072'> +2.9613341E+03 </wgt>
<wgt id='1073'> +2.9763358E+03 </wgt>
<wgt id='1074'> +2.9755534E+03 </wgt>
<wgt id='1075'> +2.9717480E+03 </wgt>
<wgt id='1076'> +2.9937205E+03 </wgt>
<wgt id='1077'> +2.9806549E+03 </wgt>
<wgt id='1078'> +2.9763720E+03 </wgt>
<wgt id='1079'> +2.9766954E+03 </wgt>
<wgt id='1080'> +2.9752029E+03 </wgt>
<wgt id='1081'> +2.9726241E+03 </wgt>
<wgt id='1082'> +2.9785418E+03 </wgt>
<wgt id='1083'> +2.9732677E+03 </wgt>
<wgt id='1084'> +2.9789914E+03 </wgt>
<wgt id='1085'> +2.9725769E+03 </wgt>
<wgt id='1086'> +2.9772026E+03 </wgt>
<wgt id='1087'> +2.9766127E+03 </wgt>
<wgt id='1088'> +2.9768847E+03 </wgt>
<wgt id='1089'> +2.9761288E+03 </wgt>
<wgt id='1090'> +2.9819881E+03 </wgt>
<wgt id='1091'> +2.9813022E+03 </wgt>
<wgt id='1092'> +2.9815500E+03 </wgt>
<wgt id='1093'> +2.9754668E+03 </wgt>
<wgt id='1094'> +2.9825160E+03 </wgt>
<wgt id='1095'> +2.9720037E+03 </wgt>
<wgt id='1096'> +2.9774118E+03 </wgt>
<wgt id='1097'> +2.9785932E+03 </wgt>
<wgt id='1098'> +2.9750316E+03 </wgt>
<wgt id='1099'> +2.9780463E+03 </wgt>
<wgt id='1100'> +2.9767931E+03 </wgt>
<wgt id='1101'> +2.9800298E+03 </wgt>
<wgt id='1102'> +2.9745517E+03 </wgt>
<wgt id='1103'> +2.9817802E+03 </wgt>
<wgt id='1104'> +2.9818818E+03 </wgt>
<wgt id='1105'> +2.9738498E+03 </wgt>
<wgt id='1106'> +2.9761822E+03 </wgt>
<wgt id='1107'> +2.9776235E+03 </wgt>
<wgt id='1108'> +2.9766799E+03 </wgt>
<wgt id='1109'> +2.9753287E+03 </wgt>
<wgt id='1110'> +2.9726953E+03 </wgt>
<wgt id='1111'> +2.9765322E+03 </wgt>
<wgt id='1112'> +2.9795080E+03 </wgt>
<wgt id='1113'> +2.9757149E+03 </wgt>
<wgt id='1114'> +2.9786929E+03 </wgt>
<wgt id='1115'> +2.9799163E+03 </wgt>
<wgt id='1116'> +2.9768605E+03 </wgt>
<wgt id='1117'> +2.9766036E+03 </wgt>
<wgt id='1118'> +2.9788853E+03 </wgt>
<wgt id='1119'> +2.9777079E+03 </wgt>
<wgt id='1120'> +2.9771057E+03 </wgt>
<wgt id='1121'> +2.9797561E+03 </wgt>
<wgt id='1122'> +2.9781093E+03 </wgt>
<wgt id='1123'> +2.9789914E+03 </wgt>
<wgt id='1124'> +2.9802006E+03 </wgt>
<wgt id='1125'> +2.9765251E+03 </wgt>
<wgt id='1126'> +2.9794526E+03 </wgt>
<wgt id='1127'> +2.9771623E+03 </wgt>
<wgt id='1128'> +2.9784357E+03 </wgt>
<wgt id='1129'> +2.9780084E+03 </wgt>
<wgt id='1130'> +2.9739554E+03 </wgt>
<wgt id='1131'> +2.9764931E+03 </wgt>
<wgt id='1132'> +2.9775878E+03 </wgt>
<wgt id='1133'> +2.9772085E+03 </wgt>
<wgt id='1134'> +2.9764855E+03 </wgt>
<wgt id='1135'> +2.9772541E+03 </wgt>
<wgt id='1136'> +2.9768408E+03 </wgt>
<wgt id='1137'> +2.9788464E+03 </wgt>
<wgt id='1138'> +2.9748687E+03 </wgt>
<wgt id='1139'> +2.9755330E+03 </wgt>
<wgt id='1140'> +2.9752278E+03 </wgt>
<wgt id='1141'> +2.9774899E+03 </wgt>
<wgt id='1142'> +2.9780296E+03 </wgt>
<wgt id='1143'> +2.9768992E+03 </wgt>
<wgt id='1144'> +2.9777096E+03 </wgt>
<wgt id='1145'> +2.9770281E+03 </wgt>
<wgt id='1146'> +2.9765608E+03 </wgt>
<wgt id='1147'> +2.9588416E+03 </wgt>
<wgt id='1148'> +2.9961866E+03 </wgt>
<wgt id='1149'> +2.9323613E+03 </wgt>
<wgt id='1150'> +2.9333022E+03 </wgt>
<wgt id='1151'> +2.9319032E+03 </wgt>
<wgt id='1152'> +2.9479365E+03 </wgt>
<wgt id='1153'> +2.9799774E+03 </wgt>
<wgt id='1154'> +2.9889547E+03 </wgt>
<wgt id='1155'> +3.0126298E+03 </wgt>
<wgt id='1156'> +3.0174739E+03 </wgt>
<wgt id='1157'> +2.9366833E+03 </wgt>
<wgt id='1158'> +2.9370859E+03 </wgt>
<wgt id='1159'> +2.9414240E+03 </wgt>
<wgt id='1160'> +2.9335940E+03 </wgt>
<wgt id='1161'> +2.9535007E+03 </wgt>
<wgt id='1162'> +2.9386702E+03 </wgt>
<wgt id='1163'> +2.9265234E+03 </wgt>
<wgt id='1164'> +2.9440678E+03 </wgt>
<wgt id='1165'> +2.9397649E+03 </wgt>
<wgt id='1166'> +2.9441610E+03 </wgt>
<wgt id='1167'> +2.9154149E+03 </wgt>
<wgt id='1168'> +2.9315043E+03 </wgt>
<wgt id='1169'> +2.9435000E+03 </wgt>
<wgt id='1170'> +2.9469591E+03 </wgt>
<wgt id='1171'> +2.9426496E+03 </wgt>
<wgt id='1172'> +2.9206181E+03 </wgt>
<wgt id='1173'> +2.9590434E+03 </wgt>
<wgt id='1174'> +2.9256822E+03 </wgt>
<wgt id='1175'> +2.9476539E+03 </wgt>
<wgt id='1176'> +2.9391895E+03 </wgt>
<wgt id='1177'> +2.9229254E+03 </wgt>
<wgt id='1178'> +2.9575751E+03 </wgt>
<wgt id='1179'> +2.9359080E+03 </wgt>
<wgt id='1180'> +2.9221917E+03 </wgt>
<wgt id='1181'> +2.9585923E+03 </wgt>
<wgt id='1182'> +2.9256664E+03 </wgt>
<wgt id='1183'> +2.9407393E+03 </wgt>
<wgt id='1184'> +2.9347213E+03 </wgt>
<wgt id='1185'> +2.9332072E+03 </wgt>
<wgt id='1186'> +2.9599947E+03 </wgt>
<wgt id='1187'> +2.9391171E+03 </wgt>
<wgt id='1188'> +2.9297335E+03 </wgt>
<wgt id='1189'> +2.9379646E+03 </wgt>
<wgt id='1190'> +2.9349593E+03 </wgt>
<wgt id='1191'> +2.9420302E+03 </wgt>
<wgt id='1192'> +2.9406603E+03 </wgt>
<wgt id='1193'> +2.9368083E+03 </wgt>
<wgt id='1194'> +2.9355019E+03 </wgt>
<wgt id='1195'> +2.9385309E+03 </wgt>
<wgt id='1196'> +2.9337907E+03 </wgt>
<wgt id='1197'> +2.9359154E+03 </wgt>
<wgt id='1198'> +2.9292043E+03 </wgt>
<wgt id='1199'> +2.9330021E+03 </wgt>
<wgt id='1200'> +2.9383931E+03 </wgt>
<wgt id='1201'> +2.9361335E+03 </wgt>
<wgt id='1202'> +2.9384558E+03 </wgt>
<wgt id='1203'> +2.9380603E+03 </wgt>
<wgt id='1204'> +2.9339942E+03 </wgt>
<wgt id='1205'> +2.9351362E+03 </wgt>
<wgt id='1206'> +2.9411124E+03 </wgt>
<wgt id='1207'> +2.9379636E+03 </wgt>
<wgt id='1208'> +2.9364588E+03 </wgt>
<wgt id='1209'> +2.9330767E+03 </wgt>
<wgt id='1210'> +2.9328850E+03 </wgt>
<wgt id='1211'> +2.9351091E+03 </wgt>
<wgt id='1212'> +2.9357330E+03 </wgt>
<wgt id='1213'> +2.9434983E+03 </wgt>
<wgt id='1214'> +2.9344279E+03 </wgt>
<wgt id='1215'> +2.9326138E+03 </wgt>
<wgt id='1216'> +2.9371054E+03 </wgt>
<wgt id='1217'> +2.9403834E+03 </wgt>
<wgt id='1218'> +2.9373094E+03 </wgt>
<wgt id='1219'> +2.9387369E+03 </wgt>
<wgt id='1220'> +2.9366319E+03 </wgt>
<wgt id='1221'> +2.9373914E+03 </wgt>
<wgt id='1222'> +2.9377231E+03 </wgt>
<wgt id='1223'> +2.9364687E+03 </wgt>
<wgt id='1224'> +2.9368654E+03 </wgt>
<wgt id='1225'> +2.9359600E+03 </wgt>
<wgt id='1226'> +2.9358369E+03 </wgt>
<wgt id='1227'> +2.9316037E+03 </wgt>
<wgt id='1228'> +2.9362496E+03 </wgt>
<wgt id='1229'> +2.9355275E+03 </wgt>
<wgt id='1230'> +2.9362066E+03 </wgt>
<wgt id='1231'> +2.9369656E+03 </wgt>
<wgt id='1232'> +2.9325193E+03 </wgt>
<wgt id='1233'> +2.9373508E+03 </wgt>
<wgt id='1234'> +2.9348332E+03 </wgt>
<wgt id='1235'> +2.9353528E+03 </wgt>
<wgt id='1236'> +2.9352659E+03 </wgt>
<wgt id='1237'> +2.9392087E+03 </wgt>
<wgt id='1238'> +2.9330218E+03 </wgt>
<wgt id='1239'> +2.9375398E+03 </wgt>
<wgt id='1240'> +2.9384809E+03 </wgt>
<wgt id='1241'> +2.9380783E+03 </wgt>
<wgt id='1242'> +2.9369976E+03 </wgt>
<wgt id='1243'> +2.9362735E+03 </wgt>
<wgt id='1244'> +2.9368822E+03 </wgt>
<wgt id='1245'> +2.9350483E+03 </wgt>
<wgt id='1246'> +2.9352819E+03 </wgt>
<wgt id='1247'> +2.9379609E+03 </wgt>
<wgt id='1248'> +2.9368088E+03 </wgt>
<wgt id='1249'> +2.9358204E+03 </wgt>
<wgt id='1250'> +2.9387174E+03 </wgt>
<wgt id='1251'> +2.9341591E+03 </wgt>
<wgt id='1252'> +2.9353717E+03 </wgt>
<wgt id='1253'> +2.9373220E+03 </wgt>
<wgt id='1254'> +2.9367168E+03 </wgt>
<wgt id='1255'> +2.9379444E+03 </wgt>
<wgt id='1256'> +2.9365418E+03 </wgt>
<wgt id='1257'> +2.9392847E+03 </wgt>
<wgt id='1258'> +2.9238572E+03 </wgt>
<wgt id='1259'> +2.9545937E+03 </wgt>
<wgt id='1260'> +2.8871536E+03 </wgt>
<wgt id='1261'> +2.8425416E+03 </wgt>
<wgt id='1262'> +2.8443454E+03 </wgt>
<wgt id='1263'> +2.8907282E+03 </wgt>
<wgt id='1264'> +2.8906500E+03 </wgt>
<wgt id='1265'> +2.8979970E+03 </wgt>
<wgt id='1266'> +2.9008313E+03 </wgt>
<wgt id='1267'> +2.8786220E+03 </wgt>
<wgt id='1268'> +2.8407231E+03 </wgt>
<wgt id='1269'> +2.9438256E+03 </wgt>
<wgt id='1270'> +2.8521407E+03 </wgt>
<wgt id='1271'> +2.8835165E+03 </wgt>
<wgt id='1272'> +2.8591469E+03 </wgt>
<wgt id='1273'> +2.8505335E+03 </wgt>
<wgt id='1274'> +2.8602258E+03 </wgt>
<wgt id='1275'> +2.9037214E+03 </wgt>
<wgt id='1276'> +2.8218910E+03 </wgt>
<wgt id='1277'> +2.8988109E+03 </wgt>
<wgt id='1278'> +2.8720364E+03 </wgt>
<wgt id='1279'> +2.9131177E+03 </wgt>
<wgt id='1280'> +2.8669069E+03 </wgt>
<wgt id='1281'> +2.8932310E+03 </wgt>
<wgt id='1282'> +2.8830457E+03 </wgt>
<wgt id='1283'> +2.8520794E+03 </wgt>
<wgt id='1284'> +2.9252542E+03 </wgt>
<wgt id='1285'> +2.8656891E+03 </wgt>
<wgt id='1286'> +2.9048713E+03 </wgt>
<wgt id='1287'> +2.8475011E+03 </wgt>
<wgt id='1288'> +2.9487558E+03 </wgt>
<wgt id='1289'> +2.8662281E+03 </wgt>
<wgt id='1290'> +2.8988242E+03 </wgt>
<wgt id='1291'> +2.8992704E+03 </wgt>
<wgt id='1292'> +2.8660827E+03 </wgt>
<wgt id='1293'> +2.9731235E+03 </wgt>
<wgt id='1294'> +2.8047618E+03 </wgt>
<wgt id='1295'> +2.8971122E+03 </wgt>
<wgt id='1296'> +2.8821373E+03 </wgt>
<wgt id='1297'> +2.9478181E+03 </wgt>
<wgt id='1298'> +2.8192007E+03 </wgt>
<wgt id='1299'> +2.9472813E+03 </wgt>
<wgt id='1300'> +2.8146353E+03 </wgt>
<wgt id='1301'> +2.9264633E+03 </wgt>
<wgt id='1302'> +2.8800502E+03 </wgt>
<wgt id='1303'> +2.9092199E+03 </wgt>
<wgt id='1304'> +2.8293299E+03 </wgt>
<wgt id='1305'> +2.8880500E+03 </wgt>
<wgt id='1306'> +2.9201468E+03 </wgt>
<wgt id='1307'> +2.8986638E+03 </wgt>
<wgt id='1308'> +2.9035233E+03 </wgt>
<wgt id='1309'> +2.8662170E+03 </wgt>
<wgt id='1310'> +2.9582606E+03 </wgt>
<wgt id='1311'> +2.8746389E+03 </wgt>
<wgt id='1312'> +2.9230049E+03 </wgt>
<wgt id='1313'> +2.9202482E+03 </wgt>
<wgt id='1314'> +2.9257644E+03 </wgt>
<wgt id='1315'> +2.8362822E+03 </wgt>
<wgt id='1316'> +2.9638885E+03 </wgt>
<wgt id='1317'> +2.8503964E+03 </wgt>
<wgt id='1318'> +2.9256662E+03 </wgt>
<wgt id='1319'> +2.7731937E+03 </wgt>
<wgt id='1320'> +2.8048851E+03 </wgt>
<wgt id='1321'> +2.7433689E+03 </wgt>
<wgt id='1322'> +2.8008784E+03 </wgt>
<wgt id='1323'> +2.7883734E+03 </wgt>
<wgt id='1324'> +2.8407270E+03 </wgt>
<wgt id='1325'> +2.7487684E+03 </wgt>
<wgt id='1326'> +2.8081092E+03 </wgt>
<wgt id='1327'> +2.7969905E+03 </wgt>
<wgt id='1328'> +2.7520164E+03 </wgt>
<wgt id='1329'> +2.7821213E+03 </wgt>
<wgt id='1330'> +2.7537715E+03 </wgt>
<wgt id='1331'> +2.7944427E+03 </wgt>
<wgt id='1332'> +2.6962605E+03 </wgt>
<wgt id='1333'> +2.8006979E+03 </wgt>
<wgt id='1334'> +2.8182099E+03 </wgt>
<wgt id='1335'> +2.7063296E+03 </wgt>
<wgt id='1336'> +2.8551147E+03 </wgt>
<wgt id='1337'> +2.6833928E+03 </wgt>
<wgt id='1338'> +2.7838102E+03 </wgt>
<wgt id='1339'> +2.7583583E+03 </wgt>
<wgt id='1340'> +2.7810776E+03 </wgt>
<wgt id='1341'> +2.7542755E+03 </wgt>
<wgt id='1342'> +2.8379693E+03 </wgt>
<wgt id='1343'> +2.7046809E+03 </wgt>
<wgt id='1344'> +2.7974994E+03 </wgt>
<wgt id='1345'> +2.7570972E+03 </wgt>
<wgt id='1346'> +2.7660583E+03 </wgt>
<wgt id='1347'> +2.7807803E+03 </wgt>
<wgt id='1348'> +2.7380995E+03 </wgt>
<wgt id='1349'> +2.7850376E+03 </wgt>
<wgt id='1350'> +2.7493401E+03 </wgt>
<wgt id='1351'> +2.8036329E+03 </wgt>
<wgt id='1352'> +2.7624210E+03 </wgt>
<wgt id='1353'> +2.7951101E+03 </wgt>
<wgt id='1354'> +2.8167851E+03 </wgt>
<wgt id='1355'> +2.7345842E+03 </wgt>
<wgt id='1356'> +2.7823180E+03 </wgt>
<wgt id='1357'> +2.7428533E+03 </wgt>
<wgt id='1358'> +2.7479124E+03 </wgt>
<wgt id='1359'> +2.7723619E+03 </wgt>
<wgt id='1360'> +2.7715440E+03 </wgt>
<wgt id='1361'> +2.7807180E+03 </wgt>
<wgt id='1362'> +2.7784473E+03 </wgt>
<wgt id='1363'> +2.7580583E+03 </wgt>
<wgt id='1364'> +2.7562041E+03 </wgt>
<wgt id='1365'> +2.7535226E+03 </wgt>
<wgt id='1366'> +2.7329828E+03 </wgt>
<wgt id='1367'> +2.7894463E+03 </wgt>
<wgt id='1368'> +2.7606440E+03 </wgt>
<wgt id='1369'> +2.7711399E+03 </wgt>
<wgt id='1370'> +2.7313124E+03 </wgt>
<wgt id='1371'> +2.7371382E+03 </wgt>
<wgt id='1372'> +2.7346431E+03 </wgt>
<wgt id='1373'> +2.7493680E+03 </wgt>
<wgt id='1374'> +2.7303274E+03 </wgt>
<wgt id='1375'> +2.8311317E+03 </wgt>
<wgt id='1376'> +2.7428663E+03 </wgt>
<wgt id='1377'> +2.7998973E+03 </wgt>
<wgt id='1378'> +2.4671022E+03 </wgt>
<wgt id='1379'> +2.7558260E+03 </wgt>
<wgt id='1380'> +2.7559082E+03 </wgt>
<wgt id='1381'> +2.7555174E+03 </wgt>
<wgt id='1382'> +2.7377166E+03 </wgt>
<wgt id='1383'> +2.7680061E+03 </wgt>
<wgt id='1384'> +2.7486001E+03 </wgt>
<wgt id='1385'> +2.7625477E+03 </wgt>
<wgt id='1386'> +2.7482535E+03 </wgt>
<wgt id='1387'> +2.7639991E+03 </wgt>
<wgt id='1388'> +2.7565353E+03 </wgt>
<wgt id='1389'> +2.7549245E+03 </wgt>
<wgt id='1390'> +2.7580588E+03 </wgt>
<wgt id='1391'> +2.7508287E+03 </wgt>
<wgt id='1392'> +2.7523307E+03 </wgt>
<wgt id='1393'> +2.7618074E+03 </wgt>
<wgt id='1394'> +2.7555366E+03 </wgt>
<wgt id='1395'> +2.7558438E+03 </wgt>
<wgt id='1396'> +2.7621773E+03 </wgt>
<wgt id='1397'> +2.7485137E+03 </wgt>
<wgt id='1398'> +2.7688227E+03 </wgt>
<wgt id='1399'> +2.7443620E+03 </wgt>
<wgt id='1400'> +2.7574492E+03 </wgt>
<wgt id='1401'> +2.7538113E+03 </wgt>
<wgt id='1402'> +2.7725496E+03 </wgt>
<wgt id='1403'> +2.7446474E+03 </wgt>
<wgt id='1404'> +2.7487002E+03 </wgt>
<wgt id='1405'> +2.7540090E+03 </wgt>
<wgt id='1406'> +2.7695374E+03 </wgt>
<wgt id='1407'> +2.7516819E+03 </wgt>
<wgt id='1408'> +2.7671065E+03 </wgt>
<wgt id='1409'> +2.7418412E+03 </wgt>
<wgt id='1410'> +2.7676219E+03 </wgt>
<wgt id='1411'> +2.7419623E+03 </wgt>
<wgt id='1412'> +2.7500184E+03 </wgt>
<wgt id='1413'> +2.7609586E+03 </wgt>
<wgt id='1414'> +2.7446467E+03 </wgt>
<wgt id='1415'> +2.7919638E+03 </wgt>
<wgt id='1416'> +2.7490458E+03 </wgt>
<wgt id='1417'> +2.7643267E+03 </wgt>
<wgt id='1418'> +2.7581777E+03 </wgt>
<wgt id='1419'> +2.7525566E+03 </wgt>
<wgt id='1420'> +2.7012146E+03 </wgt>
<wgt id='1421'> +2.7907930E+03 </wgt>
<wgt id='1422'> +2.7881992E+03 </wgt>
<wgt id='1423'> +2.7229385E+03 </wgt>
<wgt id='1424'> +2.7426849E+03 </wgt>
<wgt id='1425'> +2.7870570E+03 </wgt>
<wgt id='1426'> +2.7507706E+03 </wgt>
<wgt id='1427'> +2.7435542E+03 </wgt>
<wgt id='1428'> +2.7526226E+03 </wgt>
<wgt id='1429'> +2.7548891E+03 </wgt>
<wgt id='1430'> +2.9341372E+03 </wgt>
<wgt id='1431'> +2.9320593E+03 </wgt>
<wgt id='1432'> +2.9369919E+03 </wgt>
<wgt id='1433'> +2.9422381E+03 </wgt>
<wgt id='1434'> +2.9261372E+03 </wgt>
<wgt id='1435'> +2.9085773E+03 </wgt>
<wgt id='1436'> +2.9445172E+03 </wgt>
<wgt id='1437'> +2.9175426E+03 </wgt>
<wgt id='1438'> +2.9506194E+03 </wgt>
<wgt id='1439'> +2.9330770E+03 </wgt>
<wgt id='1440'> +2.9352457E+03 </wgt>
<wgt id='1441'> +2.9273604E+03 </wgt>
<wgt id='1442'> +2.9370882E+03 </wgt>
<wgt id='1443'> +2.9332785E+03 </wgt>
<wgt id='1444'> +2.9353715E+03 </wgt>
<wgt id='1445'> +2.9289993E+03 </wgt>
<wgt id='1446'> +2.9398683E+03 </wgt>
<wgt id='1447'> +2.9450055E+03 </wgt>
<wgt id='1448'> +2.9278842E+03 </wgt>
<wgt id='1449'> +2.9264673E+03 </wgt>
<wgt id='1450'> +2.9444579E+03 </wgt>
<wgt id='1451'> +2.9407506E+03 </wgt>
<wgt id='1452'> +2.9294381E+03 </wgt>
<wgt id='1453'> +2.9313672E+03 </wgt>
<wgt id='1454'> +2.9352716E+03 </wgt>
<wgt id='1455'> +2.9282570E+03 </wgt>
<wgt id='1456'> +2.9481144E+03 </wgt>
<wgt id='1457'> +2.9463559E+03 </wgt>
<wgt id='1458'> +2.9303126E+03 </wgt>
<wgt id='1459'> +2.9245574E+03 </wgt>
<wgt id='1460'> +2.9565547E+03 </wgt>
<wgt id='1461'> +2.9372351E+03 </wgt>
<wgt id='1462'> +2.9297448E+03 </wgt>
<wgt id='1463'> +2.9249824E+03 </wgt>
<wgt id='1464'> +2.9542181E+03 </wgt>
<wgt id='1465'> +2.9741067E+03 </wgt>
<wgt id='1466'> +2.9187884E+03 </wgt>
<wgt id='1467'> +2.9321951E+03 </wgt>
<wgt id='1468'> +2.9404469E+03 </wgt>
<wgt id='1469'> +2.9387745E+03 </wgt>
<wgt id='1470'> +2.9302675E+03 </wgt>
<wgt id='1471'> +2.9623237E+03 </wgt>
<wgt id='1472'> +2.8638930E+03 </wgt>
<wgt id='1473'> +2.9391270E+03 </wgt>
<wgt id='1474'> +2.9014628E+03 </wgt>
<wgt id='1475'> +2.9008990E+03 </wgt>
<wgt id='1476'> +2.9519701E+03 </wgt>
<wgt id='1477'> +2.9575207E+03 </wgt>
<wgt id='1478'> +2.9233689E+03 </wgt>
<wgt id='1479'> +2.9390536E+03 </wgt>
<wgt id='1480'> +2.9225803E+03 </wgt>
<wgt id='1481'> +2.4208236E+03 </wgt>
<wgt id='1482'> +2.8135587E+03 </wgt>
<wgt id='1483'> +2.8131113E+03 </wgt>
<wgt id='1484'> +2.8120274E+03 </wgt>
<wgt id='1485'> +2.8152097E+03 </wgt>
<wgt id='1486'> +2.8136501E+03 </wgt>
<wgt id='1487'> +2.8181934E+03 </wgt>
<wgt id='1488'> +2.8002274E+03 </wgt>
<wgt id='1489'> +2.8174385E+03 </wgt>
<wgt id='1490'> +2.8087272E+03 </wgt>
<wgt id='1491'> +2.8075486E+03 </wgt>
<wgt id='1492'> +2.8185702E+03 </wgt>
<wgt id='1493'> +2.8127407E+03 </wgt>
<wgt id='1494'> +2.8123292E+03 </wgt>
<wgt id='1495'> +2.8173480E+03 </wgt>
<wgt id='1496'> +2.8098394E+03 </wgt>
<wgt id='1497'> +2.8184572E+03 </wgt>
<wgt id='1498'> +2.8098193E+03 </wgt>
<wgt id='1499'> +2.8133471E+03 </wgt>
<wgt id='1500'> +2.8155139E+03 </wgt>
<wgt id='1501'> +2.8174220E+03 </wgt>
<wgt id='1502'> +2.8073830E+03 </wgt>
<wgt id='1503'> +2.8074575E+03 </wgt>
<wgt id='1504'> +2.8102416E+03 </wgt>
<wgt id='1505'> +2.8146429E+03 </wgt>
<wgt id='1506'> +2.8176460E+03 </wgt>
<wgt id='1507'> +2.8180656E+03 </wgt>
<wgt id='1508'> +2.8132703E+03 </wgt>
<wgt id='1509'> +2.8169276E+03 </wgt>
<wgt id='1510'> +2.8114052E+03 </wgt>
<wgt id='1511'> +2.8007979E+03 </wgt>
<wgt id='1512'> +2.7525313E+03 </wgt>
<wgt id='1513'> +2.7492151E+03 </wgt>
<wgt id='1514'> +2.7469870E+03 </wgt>
<wgt id='1515'> +2.7861291E+03 </wgt>
<wgt id='1516'> +2.7425409E+03 </wgt>
<wgt id='1517'> +2.7502114E+03 </wgt>
<wgt id='1518'> +2.7300306E+03 </wgt>
<wgt id='1519'> +2.7637151E+03 </wgt>
<wgt id='1520'> +2.7707658E+03 </wgt>
<wgt id='1521'> +2.7544345E+03 </wgt>
<wgt id='1522'> +2.7622536E+03 </wgt>
<wgt id='1523'> +2.7245082E+03 </wgt>
<wgt id='1524'> +2.7369861E+03 </wgt>
<wgt id='1525'> +2.7358335E+03 </wgt>
<wgt id='1526'> +2.7469548E+03 </wgt>
<wgt id='1527'> +2.7411366E+03 </wgt>
<wgt id='1528'> +2.7411258E+03 </wgt>
<wgt id='1529'> +2.7558393E+03 </wgt>
<wgt id='1530'> +2.7836330E+03 </wgt>
<wgt id='1531'> +2.7391155E+03 </wgt>
<wgt id='1532'> +2.7737187E+03 </wgt>
<wgt id='1533'> +2.7517678E+03 </wgt>
<wgt id='1534'> +2.7574615E+03 </wgt>
<wgt id='1535'> +2.7576151E+03 </wgt>
<wgt id='1536'> +2.7473931E+03 </wgt>
<wgt id='1537'> +2.7561945E+03 </wgt>
<wgt id='1538'> +2.7503219E+03 </wgt>
<wgt id='1539'> +2.7507679E+03 </wgt>
<wgt id='1540'> +2.7353698E+03 </wgt>
<wgt id='1541'> +2.7512628E+03 </wgt>
<wgt id='1542'> +2.7445475E+03 </wgt>
<wgt id='1543'> +2.7552484E+03 </wgt>
<wgt id='1544'> +2.7499665E+03 </wgt>
<wgt id='1545'> +2.7345670E+03 </wgt>
<wgt id='1546'> +2.7594791E+03 </wgt>
<wgt id='1547'> +2.7561221E+03 </wgt>
<wgt id='1548'> +2.7510841E+03 </wgt>
<wgt id='1549'> +2.7519096E+03 </wgt>
<wgt id='1550'> +2.7534242E+03 </wgt>
<wgt id='1551'> +2.7575149E+03 </wgt>
<wgt id='1552'> +2.7499599E+03 </wgt>
<wgt id='1553'> +2.7539957E+03 </wgt>
<wgt id='1554'> +2.7527461E+03 </wgt>
<wgt id='1555'> +2.7509008E+03 </wgt>
<wgt id='1556'> +2.7506396E+03 </wgt>
<wgt id='1557'> +2.7558312E+03 </wgt>
<wgt id='1558'> +2.7563564E+03 </wgt>
<wgt id='1559'> +2.7480367E+03 </wgt>
<wgt id='1560'> +2.7521700E+03 </wgt>
<wgt id='1561'> +2.7516049E+03 </wgt>
<wgt id='1562'> +2.7545613E+03 </wgt>
<wgt id='1563'> +2.7500086E+03 </wgt>
<wgt id='1564'> +2.7573827E+03 </wgt>
<wgt id='1565'> +2.7505840E+03 </wgt>
<wgt id='1566'> +2.7514105E+03 </wgt>
<wgt id='1567'> +2.7557485E+03 </wgt>
<wgt id='1568'> +2.7495646E+03 </wgt>
<wgt id='1569'> +2.7517400E+03 </wgt>
<wgt id='1570'> +2.7548189E+03 </wgt>
<wgt id='1571'> +2.7538933E+03 </wgt>
<wgt id='1572'> +2.7513014E+03 </wgt>
<wgt id='1573'> +2.7537976E+03 </wgt>
<wgt id='1574'> +2.7528825E+03 </wgt>
<wgt id='1575'> +2.7519249E+03 </wgt>
<wgt id='1576'> +2.7539423E+03 </wgt>
<wgt id='1577'> +2.7538997E+03 </wgt>
<wgt id='1578'> +2.7538537E+03 </wgt>
<wgt id='1579'> +2.7550338E+03 </wgt>
<wgt id='1580'> +2.7531397E+03 </wgt>
<wgt id='1581'> +2.7529238E+03 </wgt>
<wgt id='1582'> +2.7515803E+03 </wgt>
<wgt id='1583'> +2.7524543E+03 </wgt>
<wgt id='1584'> +2.7539157E+03 </wgt>
<wgt id='1585'> +2.7531594E+03 </wgt>
<wgt id='1586'> +2.7520848E+03 </wgt>
<wgt id='1587'> +2.7550062E+03 </wgt>
<wgt id='1588'> +2.7524552E+03 </wgt>
<wgt id='1589'> +2.7529920E+03 </wgt>
<wgt id='1590'> +2.7519423E+03 </wgt>
<wgt id='1591'> +2.7534596E+03 </wgt>
<wgt id='1592'> +2.7527151E+03 </wgt>
<wgt id='1593'> +2.7527594E+03 </wgt>
<wgt id='1594'> +2.7522544E+03 </wgt>
<wgt id='1595'> +2.7546454E+03 </wgt>
<wgt id='1596'> +2.7527139E+03 </wgt>
<wgt id='1597'> +2.7537062E+03 </wgt>
<wgt id='1598'> +2.7533282E+03 </wgt>
<wgt id='1599'> +2.7536942E+03 </wgt>
<wgt id='1600'> +2.7521040E+03 </wgt>
<wgt id='1601'> +2.7525992E+03 </wgt>
<wgt id='1602'> +2.7515306E+03 </wgt>
<wgt id='1603'> +2.7520974E+03 </wgt>
<wgt id='1604'> +2.7529014E+03 </wgt>
<wgt id='1605'> +2.7527636E+03 </wgt>
<wgt id='1606'> +2.7526647E+03 </wgt>
<wgt id='1607'> +2.7520491E+03 </wgt>
<wgt id='1608'> +2.7523297E+03 </wgt>
<wgt id='1609'> +2.7526179E+03 </wgt>
<wgt id='1610'> +2.7522057E+03 </wgt>
<wgt id='1611'> +2.7524146E+03 </wgt>
<wgt id='1612'> +2.7531124E+03 </wgt>
<wgt id='1613'> +2.7299090E+03 </wgt>
<wgt id='1614'> +2.7750512E+03 </wgt>
<wgt id='1615'> +2.8995705E+03 </wgt>
<wgt id='1616'> +2.9130443E+03 </wgt>
<wgt id='1617'> +2.8961283E+03 </wgt>
<wgt id='1618'> +2.9026646E+03 </wgt>
<wgt id='1619'> +2.9160086E+03 </wgt>
<wgt id='1620'> +2.9282430E+03 </wgt>
<wgt id='1621'> +2.9090257E+03 </wgt>
<wgt id='1622'> +2.8998360E+03 </wgt>
<wgt id='1623'> +2.8990954E+03 </wgt>
<wgt id='1624'> +2.8935416E+03 </wgt>
<wgt id='1625'> +2.9024687E+03 </wgt>
<wgt id='1626'> +2.9243017E+03 </wgt>
<wgt id='1627'> +2.8946083E+03 </wgt>
<wgt id='1628'> +2.9042186E+03 </wgt>
<wgt id='1629'> +2.8775251E+03 </wgt>
<wgt id='1630'> +2.9508517E+03 </wgt>
<wgt id='1631'> +2.8871940E+03 </wgt>
<wgt id='1632'> +2.8997555E+03 </wgt>
<wgt id='1633'> +2.9091557E+03 </wgt>
<wgt id='1634'> +2.8657009E+03 </wgt>
<wgt id='1635'> +2.9045878E+03 </wgt>
<wgt id='1636'> +2.9032196E+03 </wgt>
<wgt id='1637'> +2.8781207E+03 </wgt>
<wgt id='1638'> +2.9061917E+03 </wgt>
<wgt id='1639'> +2.8867461E+03 </wgt>
<wgt id='1640'> +2.8995545E+03 </wgt>
<wgt id='1641'> +2.8944060E+03 </wgt>
<wgt id='1642'> +2.8929480E+03 </wgt>
<wgt id='1643'> +2.9079273E+03 </wgt>
<wgt id='1644'> +2.9056970E+03 </wgt>
<wgt id='1645'> +2.9010944E+03 </wgt>
<wgt id='1646'> +2.9039474E+03 </wgt>
<wgt id='1647'> +2.9018470E+03 </wgt>
<wgt id='1648'> +2.9214738E+03 </wgt>
<wgt id='1649'> +2.9040773E+03 </wgt>
<wgt id='1650'> +2.9115637E+03 </wgt>
<wgt id='1651'> +2.9043097E+03 </wgt>
<wgt id='1652'> +2.8975432E+03 </wgt>
<wgt id='1653'> +2.8983546E+03 </wgt>
<wgt id='1654'> +2.9052388E+03 </wgt>
<wgt id='1655'> +2.8985705E+03 </wgt>
<wgt id='1656'> +2.9000221E+03 </wgt>
<wgt id='1657'> +2.8968627E+03 </wgt>
<wgt id='1658'> +2.9008751E+03 </wgt>
<wgt id='1659'> +2.8944633E+03 </wgt>
<wgt id='1660'> +2.8989515E+03 </wgt>
<wgt id='1661'> +2.8915161E+03 </wgt>
<wgt id='1662'> +2.8939871E+03 </wgt>
<wgt id='1663'> +2.8969793E+03 </wgt>
<wgt id='1664'> +2.8982247E+03 </wgt>
<wgt id='1665'> +2.8983689E+03 </wgt>
<wgt id='1666'> +2.8983856E+03 </wgt>
<wgt id='1667'> +2.9008645E+03 </wgt>
<wgt id='1668'> +2.9003351E+03 </wgt>
<wgt id='1669'> +2.8963013E+03 </wgt>
<wgt id='1670'> +2.9001400E+03 </wgt>
<wgt id='1671'> +2.9025391E+03 </wgt>
<wgt id='1672'> +2.9008914E+03 </wgt>
<wgt id='1673'> +2.8997824E+03 </wgt>
<wgt id='1674'> +2.8998198E+03 </wgt>
<wgt id='1675'> +2.9028891E+03 </wgt>
<wgt id='1676'> +2.8988151E+03 </wgt>
<wgt id='1677'> +2.8986394E+03 </wgt>
<wgt id='1678'> +2.9018003E+03 </wgt>
<wgt id='1679'> +2.8995909E+03 </wgt>
<wgt id='1680'> +2.8962343E+03 </wgt>
<wgt id='1681'> +2.8989628E+03 </wgt>
<wgt id='1682'> +2.9003351E+03 </wgt>
<wgt id='1683'> +2.9024771E+03 </wgt>
<wgt id='1684'> +2.8992818E+03 </wgt>
<wgt id='1685'> +2.8989500E+03 </wgt>
<wgt id='1686'> +2.9007191E+03 </wgt>
<wgt id='1687'> +2.9003738E+03 </wgt>
<wgt id='1688'> +2.8988326E+03 </wgt>
<wgt id='1689'> +2.8993588E+03 </wgt>
<wgt id='1690'> +2.8992574E+03 </wgt>
<wgt id='1691'> +2.9005753E+03 </wgt>
<wgt id='1692'> +2.8988301E+03 </wgt>
<wgt id='1693'> +2.8998080E+03 </wgt>
<wgt id='1694'> +2.9010228E+03 </wgt>
<wgt id='1695'> +2.9012906E+03 </wgt>
<wgt id='1696'> +2.9005766E+03 </wgt>
<wgt id='1697'> +2.9003337E+03 </wgt>
<wgt id='1698'> +2.9000560E+03 </wgt>
<wgt id='1699'> +2.8994523E+03 </wgt>
<wgt id='1700'> +2.8986918E+03 </wgt>
<wgt id='1701'> +2.8999948E+03 </wgt>
<wgt id='1702'> +2.8983898E+03 </wgt>
<wgt id='1703'> +2.8987324E+03 </wgt>
<wgt id='1704'> +2.9001902E+03 </wgt>
<wgt id='1705'> +2.8996918E+03 </wgt>
<wgt id='1706'> +2.8995225E+03 </wgt>
<wgt id='1707'> +2.8992365E+03 </wgt>
<wgt id='1708'> +2.8992719E+03 </wgt>
<wgt id='1709'> +2.8992156E+03 </wgt>
<wgt id='1710'> +2.8985419E+03 </wgt>
<wgt id='1711'> +2.8989849E+03 </wgt>
<wgt id='1712'> +2.8999113E+03 </wgt>
<wgt id='1713'> +2.9007151E+03 </wgt>
<wgt id='1714'> +2.8988299E+03 </wgt>
<wgt id='1715'> +2.8985624E+03 </wgt>
<wgt id='1716'> +2.8625996E+03 </wgt>
<wgt id='1717'> +2.9216769E+03 </wgt>
<wgt id='1718'> +2.7523612E+03 </wgt>
<wgt id='1719'> +2.7614956E+03 </wgt>
<wgt id='1720'> +2.7285418E+03 </wgt>
<wgt id='1721'> +2.7540986E+03 </wgt>
<wgt id='1722'> +2.7944316E+03 </wgt>
<wgt id='1723'> +2.7747270E+03 </wgt>
<wgt id='1724'> +2.7640451E+03 </wgt>
<wgt id='1725'> +2.7550582E+03 </wgt>
<wgt id='1726'> +2.7576975E+03 </wgt>
<wgt id='1727'> +2.7677051E+03 </wgt>
<wgt id='1728'> +2.7549545E+03 </wgt>
<wgt id='1729'> +2.7338900E+03 </wgt>
<wgt id='1730'> +2.7512544E+03 </wgt>
<wgt id='1731'> +2.7539541E+03 </wgt>
<wgt id='1732'> +2.7014698E+03 </wgt>
<wgt id='1733'> +2.7578053E+03 </wgt>
<wgt id='1734'> +2.7545364E+03 </wgt>
<wgt id='1735'> +2.7412035E+03 </wgt>
<wgt id='1736'> +2.7533454E+03 </wgt>
<wgt id='1737'> +2.7537040E+03 </wgt>
<wgt id='1738'> +2.7570928E+03 </wgt>
<wgt id='1739'> +2.7525217E+03 </wgt>
<wgt id='1740'> +2.7500307E+03 </wgt>
<wgt id='1741'> +2.7539004E+03 </wgt>
<wgt id='1742'> +2.7489953E+03 </wgt>
<wgt id='1743'> +2.7522251E+03 </wgt>
<wgt id='1744'> +2.7480795E+03 </wgt>
<wgt id='1745'> +2.7549536E+03 </wgt>
<wgt id='1746'> +2.7547134E+03 </wgt>
<wgt id='1747'> +2.7546634E+03 </wgt>
<wgt id='1748'> +2.7530208E+03 </wgt>
<wgt id='1749'> +2.7299090E+03 </wgt>
<wgt id='1750'> +2.7750512E+03 </wgt>
<wgt id='1751'> +2.8994184E+03 </wgt>
<wgt id='1752'> +2.9087218E+03 </wgt>
<wgt id='1753'> +2.9695526E+03 </wgt>
<wgt id='1754'> +2.8984866E+03 </wgt>
<wgt id='1755'> +2.8662180E+03 </wgt>
<wgt id='1756'> +2.8872730E+03 </wgt>
<wgt id='1757'> +2.9018923E+03 </wgt>
<wgt id='1758'> +2.8979338E+03 </wgt>
<wgt id='1759'> +2.9030173E+03 </wgt>
<wgt id='1760'> +2.8904147E+03 </wgt>
<wgt id='1761'> +2.9037970E+03 </wgt>
<wgt id='1762'> +2.8977782E+03 </wgt>
<wgt id='1763'> +2.8995018E+03 </wgt>
<wgt id='1764'> +2.9042883E+03 </wgt>
<wgt id='1765'> +2.8974649E+03 </wgt>
<wgt id='1766'> +2.9027865E+03 </wgt>
<wgt id='1767'> +2.8973660E+03 </wgt>
<wgt id='1768'> +2.8985439E+03 </wgt>
<wgt id='1769'> +2.9006519E+03 </wgt>
<wgt id='1770'> +2.9084614E+03 </wgt>
<wgt id='1771'> +2.8713062E+03 </wgt>
<wgt id='1772'> +2.8930233E+03 </wgt>
<wgt id='1773'> +2.9107171E+03 </wgt>
<wgt id='1774'> +2.9008052E+03 </wgt>
<wgt id='1775'> +2.8977283E+03 </wgt>
<wgt id='1776'> +2.9013038E+03 </wgt>
<wgt id='1777'> +2.8979727E+03 </wgt>
<wgt id='1778'> +2.9011828E+03 </wgt>
<wgt id='1779'> +2.8998599E+03 </wgt>
<wgt id='1780'> +2.8945686E+03 </wgt>
<wgt id='1781'> +2.9113587E+03 </wgt>
<wgt id='1782'> +2.8625996E+03 </wgt>
<wgt id='1783'> +2.9216769E+03 </wgt>
<wgt id='1784'> +3.0991343E+03 </wgt>
<wgt id='1785'> +3.1057676E+03 </wgt>
<wgt id='1786'> +3.0925470E+03 </wgt>
<wgt id='1787'> +3.0984624E+03 </wgt>
<wgt id='1788'> +3.0997983E+03 </wgt>
<wgt id='1789'> +3.1049913E+03 </wgt>
<wgt id='1790'> +3.0932715E+03 </wgt>
<wgt id='1791'> +3.0890529E+03 </wgt>
<wgt id='1792'> +3.1088209E+03 </wgt>
<wgt id='1793'> +3.1093060E+03 </wgt>
<wgt id='1794'> +3.0889295E+03 </wgt>
<wgt id='1795'> +3.1087197E+03 </wgt>
<wgt id='1796'> +3.0888400E+03 </wgt>
<wgt id='1797'> +3.0959707E+03 </wgt>
<wgt id='1798'> +3.1021494E+03 </wgt>
<wgt id='1799'> +3.0947967E+03 </wgt>
<wgt id='1800'> +3.1032887E+03 </wgt>
<wgt id='1801'> +3.0946065E+03 </wgt>
<wgt id='1802'> +3.0999391E+03 </wgt>
<wgt id='1803'> +3.0916764E+03 </wgt>
<wgt id='1804'> +3.1074491E+03 </wgt>
<wgt id='1805'> +3.1082472E+03 </wgt>
<wgt id='1806'> +3.0865083E+03 </wgt>
<wgt id='1807'> +3.0875951E+03 </wgt>
<wgt id='1808'> +3.0982731E+03 </wgt>
<wgt id='1809'> +3.1044363E+03 </wgt>
<wgt id='1810'> +3.0980696E+03 </wgt>
<wgt id='1811'> +3.0869847E+03 </wgt>
<wgt id='1812'> +3.1100933E+03 </wgt>
<wgt id='1813'> +3.0991343E+03 </wgt>
<wgt id='1814'> +3.1572942E+03 </wgt>
<wgt id='1815'> +3.0285245E+03 </wgt>
<wgt id='1816'> +3.1749393E+03 </wgt>
<wgt id='1817'> +3.0668039E+03 </wgt>
<wgt id='1818'> +3.1079300E+03 </wgt>
<wgt id='1819'> +3.0915458E+03 </wgt>
<wgt id='1820'> +3.0929535E+03 </wgt>
<wgt id='1821'> +3.1052313E+03 </wgt>
<wgt id='1822'> +3.0664232E+03 </wgt>
<wgt id='1823'> +3.1315214E+03 </wgt>
<wgt id='1824'> +3.0937332E+03 </wgt>
<wgt id='1825'> +3.1357625E+03 </wgt>
<wgt id='1826'> +3.0125799E+03 </wgt>
<wgt id='1827'> +3.1682156E+03 </wgt>
<wgt id='1828'> +3.1760367E+03 </wgt>
<wgt id='1829'> +3.1611206E+03 </wgt>
<wgt id='1830'> +3.1648953E+03 </wgt>
<wgt id='1831'> +3.1722261E+03 </wgt>
<wgt id='1832'> +3.1734825E+03 </wgt>
<wgt id='1833'> +3.1636349E+03 </wgt>
<wgt id='1834'> +3.1562276E+03 </wgt>
<wgt id='1835'> +3.1802537E+03 </wgt>
<wgt id='1836'> +3.1786542E+03 </wgt>
<wgt id='1837'> +3.1582546E+03 </wgt>
<wgt id='1838'> +3.1678174E+03 </wgt>
<wgt id='1839'> +3.1692697E+03 </wgt>
<wgt id='1840'> +3.1622820E+03 </wgt>
<wgt id='1841'> +3.1748999E+03 </wgt>
<wgt id='1842'> +3.1664746E+03 </wgt>
<wgt id='1843'> +3.1725153E+03 </wgt>
<wgt id='1844'> +3.1664859E+03 </wgt>
<wgt id='1845'> +3.1699303E+03 </wgt>
<wgt id='1846'> +3.1687049E+03 </wgt>
<wgt id='1847'> +3.1681391E+03 </wgt>
<wgt id='1848'> +3.1467090E+03 </wgt>
<wgt id='1849'> +3.1863975E+03 </wgt>
<wgt id='1850'> +3.1668051E+03 </wgt>
<wgt id='1851'> +3.1706610E+03 </wgt>
<wgt id='1852'> +3.1661192E+03 </wgt>
<wgt id='1853'> +3.1648045E+03 </wgt>
<wgt id='1854'> +3.1695220E+03 </wgt>
<wgt id='1855'> +3.1678145E+03 </wgt>
<wgt id='1856'> +3.1682156E+03 </wgt>
<wgt id='1857'> +3.2361713E+03 </wgt>
<wgt id='1858'> +3.0810521E+03 </wgt>
<wgt id='1859'> +3.2554363E+03 </wgt>
<wgt id='1860'> +3.1285434E+03 </wgt>
<wgt id='1861'> +3.1684103E+03 </wgt>
<wgt id='1862'> +3.1565276E+03 </wgt>
<wgt id='1863'> +3.1619232E+03 </wgt>
<wgt id='1864'> +3.1776630E+03 </wgt>
<wgt id='1865'> +3.1233745E+03 </wgt>
<wgt id='1866'> +3.1979662E+03 </wgt>
<wgt id='1867'> +3.1467979E+03 </wgt>
<wgt id='1868'> +3.2127870E+03 </wgt>
<wgt id='1869'> +3.1337419E+03 </wgt>
<wgt id='1870'> +2.7508803E+03 </wgt>
<wgt id='1871'> +2.7498821E+03 </wgt>
<wgt id='1872'> +2.7488900E+03 </wgt>
<wgt id='1873'> +2.7478920E+03 </wgt>
<wgt id='1874'> +2.7468989E+03 </wgt>
<wgt id='1875'> +2.7459007E+03 </wgt>
<wgt id='1876'> +2.7449103E+03 </wgt>
<wgt id='1877'> +2.7439123E+03 </wgt>
<wgt id='1878'> +2.7429244E+03 </wgt>
<wgt id='1879'> +2.7419274E+03 </wgt>
<wgt id='1880'> +2.7409372E+03 </wgt>
<wgt id='1881'> +2.7399383E+03 </wgt>
<wgt id='1882'> +2.7389481E+03 </wgt>
<wgt id='1883'> +2.7379491E+03 </wgt>
<wgt id='1884'> +2.7369595E+03 </wgt>
<wgt id='1885'> +2.7359640E+03 </wgt>
<wgt id='1886'> +2.7349743E+03 </wgt>
<wgt id='1887'> +2.7339840E+03 </wgt>
<wgt id='1888'> +2.7329934E+03 </wgt>
<wgt id='1889'> +2.7319976E+03 </wgt>
<wgt id='1890'> +2.7310087E+03 </wgt>
<wgt id='1891'> +2.7300139E+03 </wgt>
<wgt id='1892'> +2.7290233E+03 </wgt>
<wgt id='1893'> +2.7280275E+03 </wgt>
<wgt id='1894'> +2.7270398E+03 </wgt>
<wgt id='1895'> +2.7260499E+03 </wgt>
<wgt id='1896'> +2.7250554E+03 </wgt>
<wgt id='1897'> +2.7240665E+03 </wgt>
<wgt id='1898'> +2.7230724E+03 </wgt>
<wgt id='1899'> +2.7220855E+03 </wgt>
<wgt id='1900'> +2.7210917E+03 </wgt>
<wgt id='1901'> +2.8873498E+03 </wgt>
<wgt id='1902'> +2.8997435E+03 </wgt>
<wgt id='1903'> +2.8836517E+03 </wgt>
<wgt id='1904'> +2.8904809E+03 </wgt>
<wgt id='1905'> +2.9034761E+03 </wgt>
<wgt id='1906'> +2.9158464E+03 </wgt>
<wgt id='1907'> +2.8975235E+03 </wgt>
<wgt id='1908'> +2.8883773E+03 </wgt>
<wgt id='1909'> +2.8869324E+03 </wgt>
<wgt id='1910'> +2.8814108E+03 </wgt>
<wgt id='1911'> +2.8900263E+03 </wgt>
<wgt id='1912'> +2.9130249E+03 </wgt>
<wgt id='1913'> +2.8829177E+03 </wgt>
<wgt id='1914'> +2.8924141E+03 </wgt>
<wgt id='1915'> +2.8652973E+03 </wgt>
<wgt id='1916'> +2.9371517E+03 </wgt>
<wgt id='1917'> +2.8760240E+03 </wgt>
<wgt id='1918'> +2.8871069E+03 </wgt>
<wgt id='1919'> +2.8966358E+03 </wgt>
<wgt id='1920'> +2.8542275E+03 </wgt>
<wgt id='1921'> +2.8931099E+03 </wgt>
<wgt id='1922'> +2.8905998E+03 </wgt>
<wgt id='1923'> +2.8657524E+03 </wgt>
<wgt id='1924'> +2.8943144E+03 </wgt>
<wgt id='1925'> +2.8741243E+03 </wgt>
<wgt id='1926'> +2.8865635E+03 </wgt>
<wgt id='1927'> +2.8814634E+03 </wgt>
<wgt id='1928'> +2.8815919E+03 </wgt>
<wgt id='1929'> +2.8960084E+03 </wgt>
<wgt id='1930'> +2.8930087E+03 </wgt>
<wgt id='1931'> +2.8885056E+03 </wgt>
<wgt id='1932'> +2.8925753E+03 </wgt>
<wgt id='1933'> +2.8893096E+03 </wgt>
<wgt id='1934'> +2.9088938E+03 </wgt>
<wgt id='1935'> +2.8918407E+03 </wgt>
<wgt id='1936'> +2.8990748E+03 </wgt>
<wgt id='1937'> +2.8921217E+03 </wgt>
<wgt id='1938'> +2.8853299E+03 </wgt>
<wgt id='1939'> +2.8860533E+03 </wgt>
<wgt id='1940'> +2.8926625E+03 </wgt>
<wgt id='1941'> +2.8863776E+03 </wgt>
<wgt id='1942'> +2.8876257E+03 </wgt>
<wgt id='1943'> +2.8845534E+03 </wgt>
<wgt id='1944'> +2.8890869E+03 </wgt>
<wgt id='1945'> +2.8821836E+03 </wgt>
<wgt id='1946'> +2.8866334E+03 </wgt>
<wgt id='1947'> +2.8795511E+03 </wgt>
<wgt id='1948'> +2.8816798E+03 </wgt>
<wgt id='1949'> +2.8849204E+03 </wgt>
<wgt id='1950'> +2.8859231E+03 </wgt>
<wgt id='1951'> +2.8862172E+03 </wgt>
<wgt id='1952'> +2.8860848E+03 </wgt>
<wgt id='1953'> +2.8885969E+03 </wgt>
<wgt id='1954'> +2.8881241E+03 </wgt>
<wgt id='1955'> +2.8842027E+03 </wgt>
<wgt id='1956'> +2.8880335E+03 </wgt>
<wgt id='1957'> +2.8900216E+03 </wgt>
<wgt id='1958'> +2.8886988E+03 </wgt>
<wgt id='1959'> +2.8878100E+03 </wgt>
<wgt id='1960'> +2.8877384E+03 </wgt>
<wgt id='1961'> +2.8907927E+03 </wgt>
<wgt id='1962'> +2.8866432E+03 </wgt>
<wgt id='1963'> +2.8863621E+03 </wgt>
<wgt id='1964'> +2.8894297E+03 </wgt>
<wgt id='1965'> +2.8874903E+03 </wgt>
<wgt id='1966'> +2.8839829E+03 </wgt>
<wgt id='1967'> +2.8867094E+03 </wgt>
<wgt id='1968'> +2.8879951E+03 </wgt>
<wgt id='1969'> +2.8902638E+03 </wgt>
<wgt id='1970'> +2.8869262E+03 </wgt>
<wgt id='1971'> +2.8867025E+03 </wgt>
<wgt id='1972'> +2.8885636E+03 </wgt>
<wgt id='1973'> +2.8880699E+03 </wgt>
<wgt id='1974'> +2.8865536E+03 </wgt>
<wgt id='1975'> +2.8871305E+03 </wgt>
<wgt id='1976'> +2.8870665E+03 </wgt>
<wgt id='1977'> +2.8885176E+03 </wgt>
<wgt id='1978'> +2.8866279E+03 </wgt>
<wgt id='1979'> +2.8876892E+03 </wgt>
<wgt id='1980'> +2.8887994E+03 </wgt>
<wgt id='1981'> +2.8889181E+03 </wgt>
<wgt id='1982'> +2.8885033E+03 </wgt>
<wgt id='1983'> +2.8881716E+03 </wgt>
<wgt id='1984'> +2.8878460E+03 </wgt>
<wgt id='1985'> +2.8871667E+03 </wgt>
<wgt id='1986'> +2.8865305E+03 </wgt>
<wgt id='1987'> +2.8879459E+03 </wgt>
<wgt id='1988'> +2.8861177E+03 </wgt>
<wgt id='1989'> +2.8864214E+03 </wgt>
<wgt id='1990'> +2.8878753E+03 </wgt>
<wgt id='1991'> +2.8874187E+03 </wgt>
<wgt id='1992'> +2.8871955E+03 </wgt>
<wgt id='1993'> +2.8869166E+03 </wgt>
<wgt id='1994'> +2.8870764E+03 </wgt>
<wgt id='1995'> +2.8868443E+03 </wgt>
<wgt id='1996'> +2.8863228E+03 </wgt>
<wgt id='1997'> +2.8868278E+03 </wgt>
<wgt id='1998'> +2.8876892E+03 </wgt>
<wgt id='1999'> +2.8884536E+03 </wgt>
<wgt id='2000'> +2.8866624E+03 </wgt>
<wgt id='2001'> +2.8863853E+03 </wgt>
<wgt id='2002'> +2.8873397E+03 </wgt>
<wgt id='2003'> +2.8872883E+03 </wgt>
<wgt id='2004'> +2.8873592E+03 </wgt>
<wgt id='2005'> +2.8873611E+03 </wgt>
<wgt id='2006'> +2.8873781E+03 </wgt>
<wgt id='2007'> +2.8873537E+03 </wgt>
<wgt id='2008'> +2.8873094E+03 </wgt>
<wgt id='2009'> +2.7331516E+03 </wgt>
<wgt id='2010'> +2.5496516E+03 </wgt>
<wgt id='2011'> +2.7802004E+03 </wgt>
<wgt id='2012'> +2.8144278E+03 </wgt>
<wgt id='2013'> +2.7880685E+03 </wgt>
<wgt id='2014'> +2.4522202E+03 </wgt>
<wgt id='2015'> +2.6198045E+03 </wgt>
<wgt id='2016'> +2.7794379E+03 </wgt>
<wgt id='2017'> +2.6980938E+03 </wgt>
<wgt id='2018'> +2.7144591E+03 </wgt>
<wgt id='2019'> +2.6395071E+03 </wgt>
<wgt id='2020'> +2.7631352E+03 </wgt>
<wgt id='2021'> +2.7034065E+03 </wgt>
<wgt id='2022'> +2.8066249E+03 </wgt>
<wgt id='2023'> +2.7416185E+03 </wgt>
<wgt id='2024'> +2.7403589E+03 </wgt>
<wgt id='2025'> +2.6620966E+03 </wgt>
<wgt id='2026'> +2.7061679E+03 </wgt>
<wgt id='2027'> +2.5991714E+03 </wgt>
<wgt id='2028'> +2.7754836E+03 </wgt>
<wgt id='2029'> +2.7570519E+03 </wgt>
<wgt id='2030'> +2.8411946E+03 </wgt>
<wgt id='2031'> +2.7711222E+03 </wgt>
<wgt id='2032'> +2.8276858E+03 </wgt>
<wgt id='2033'> +2.7679487E+03 </wgt>
<wgt id='2034'> +2.7722777E+03 </wgt>
<wgt id='2035'> +2.7097568E+03 </wgt>
<wgt id='2036'> +2.7186908E+03 </wgt>
<wgt id='2037'> +2.7562545E+03 </wgt>
<wgt id='2038'> +2.7351132E+03 </wgt>
<wgt id='2039'> +2.7718613E+03 </wgt>
<wgt id='2040'> +2.8364992E+03 </wgt>
<wgt id='2041'> +2.6155989E+03 </wgt>
<wgt id='2042'> +2.7722105E+03 </wgt>
<wgt id='2043'> +2.6807640E+03 </wgt>
<wgt id='2044'> +2.8214999E+03 </wgt>
<wgt id='2045'> +2.7491984E+03 </wgt>
<wgt id='2046'> +2.7248718E+03 </wgt>
<wgt id='2047'> +2.6303193E+03 </wgt>
<wgt id='2048'> +2.7324755E+03 </wgt>
<wgt id='2049'> +2.7687580E+03 </wgt>
<wgt id='2050'> +2.8212582E+03 </wgt>
<wgt id='2051'> +2.7923123E+03 </wgt>
<wgt id='2052'> +2.7510969E+03 </wgt>
<wgt id='2053'> +2.6964340E+03 </wgt>
<wgt id='2054'> +2.7634510E+03 </wgt>
<wgt id='2055'> +2.7170957E+03 </wgt>
<wgt id='2056'> +2.6913921E+03 </wgt>
<wgt id='2057'> +2.6991150E+03 </wgt>
<wgt id='2058'> +2.7101043E+03 </wgt>
<wgt id='2059'> +2.7985873E+03 </wgt>
<wgt id='2060'> +2.8114845E+03 </wgt>
<wgt id='2061'> +2.7043272E+03 </wgt>
<wgt id='2062'> +2.6499200E+03 </wgt>
<wgt id='2063'> +2.7632494E+03 </wgt>
<wgt id='2064'> +2.7424322E+03 </wgt>
<wgt id='2065'> +2.6743375E+03 </wgt>
<wgt id='2066'> +2.8103479E+03 </wgt>
<wgt id='2067'> +2.7779477E+03 </wgt>
<wgt id='2068'> +2.8011658E+03 </wgt>
<wgt id='2069'> +2.7737258E+03 </wgt>
<wgt id='2070'> +2.7216398E+03 </wgt>
<wgt id='2071'> +2.7644994E+03 </wgt>
<wgt id='2072'> +2.6607863E+03 </wgt>
<wgt id='2073'> +2.6611774E+03 </wgt>
<wgt id='2074'> +2.7663844E+03 </wgt>
<wgt id='2075'> +2.7551571E+03 </wgt>
<wgt id='2076'> +2.7923457E+03 </wgt>
<wgt id='2077'> +2.7640554E+03 </wgt>
<wgt id='2078'> +2.7279396E+03 </wgt>
<wgt id='2079'> +2.6947243E+03 </wgt>
<wgt id='2080'> +2.7453939E+03 </wgt>
<wgt id='2081'> +2.6279864E+03 </wgt>
<wgt id='2082'> +2.5249784E+03 </wgt>
<wgt id='2083'> +2.7458586E+03 </wgt>
<wgt id='2084'> +2.7794510E+03 </wgt>
<wgt id='2085'> +2.5949665E+03 </wgt>
<wgt id='2086'> +2.7009589E+03 </wgt>
<wgt id='2087'> +2.7765249E+03 </wgt>
<wgt id='2088'> +2.6963550E+03 </wgt>
<wgt id='2089'> +2.7962053E+03 </wgt>
<wgt id='2090'> +2.7978159E+03 </wgt>
<wgt id='2091'> +2.7793983E+03 </wgt>
<wgt id='2092'> +2.7125512E+03 </wgt>
<wgt id='2093'> +2.7501122E+03 </wgt>
<wgt id='2094'> +2.7502057E+03 </wgt>
<wgt id='2095'> +2.7458844E+03 </wgt>
<wgt id='2096'> +2.7818605E+03 </wgt>
<wgt id='2097'> +2.7880439E+03 </wgt>
<wgt id='2098'> +2.6869133E+03 </wgt>
<wgt id='2099'> +2.7936620E+03 </wgt>
<wgt id='2100'> +2.7839118E+03 </wgt>
<wgt id='2101'> +2.6856175E+03 </wgt>
<wgt id='2102'> +2.7032281E+03 </wgt>
<wgt id='2103'> +2.7744898E+03 </wgt>
<wgt id='2104'> +2.6951906E+03 </wgt>
<wgt id='2105'> +2.7261880E+03 </wgt>
<wgt id='2106'> +2.7643062E+03 </wgt>
<wgt id='2107'> +2.7926721E+03 </wgt>
<wgt id='2108'> +2.7789031E+03 </wgt>
<wgt id='2109'> +2.6897618E+03 </wgt>
<wgt id='2110'> +2.7202918E+03 </wgt>
<wgt id='2111'> +2.7412222E+03 </wgt>
<wgt id='2112'> +2.8662156E+03 </wgt>
<wgt id='2113'> +3.1665167E+03 </wgt>
<wgt id='2114'> +3.1011901E+03 </wgt>
<wgt id='2115'> +2.5855102E+03 </wgt>
<wgt id='2116'> +2.7993081E+03 </wgt>
</rwgt>
</event>
<event>
 7      7 +2.9771057E+03 1.04127300e+02 7.54677100e-03 1.15684200e-01
       21 -1    0    0  503  502 +0.0000000000e+00 +0.0000000000e+00 +1.7414368365e+01 1.7414368365e+01 0.0000000000e+00 0.0000e+00 -1.0000e+00
        3 -1    0    0  502    0 -0.0000000000e+00 -0.0000000000e+00 -9.7408111854e+02 9.7408111854e+02 0.0000000000e+00 0.0000e+00 -1.0000e+00
      -24  2    1    2    0    0 -6.0743645719e+01 +3.0277005890e+01 -8.7001024857e+02 8.7621933672e+02 7.8968385125e+01 0.0000e+00 0.0000e+00
       11  1    3    3    0    0 -7.6326354544e+01 +3.5474953874e+01 -6.2246452638e+02 6.2812918365e+02 0.0000000000e+00 0.0000e+00 -1.0000e+00
      -12  1    3    3    0    0 +1.5582708825e+01 -5.1979479841e+00 -2.4754572218e+02 2.4809015307e+02 0.0000000000e+00 0.0000e+00 1.0000e+00
       21  1    1    2  503  501 +1.4974227455e+01 -2.6055256840e+01 -3.3556325418e+01 4.5045875199e+01 0.0000000000e+00 0.0000e+00 -1.0000e+00
        4  1    1    2  501    0 +4.5769418265e+01 -4.2217490494e+00 -5.3100176191e+01 7.0230274988e+01 0.0000000000e+00 0.0000e+00 -1.0000e+00
<scales pt_clust_4="13000.00000" pt_clust_5="13000.00000" pt_clust_6="27.69047" pt_clust_7="76.02132"></scales>
<mgrwt>
<rscale>  0 0.10412729E+03</rscale>
<asrwt>  2 0.27690470E+02 0.76021323E+02</asrwt>
<pdfrwt beam="1">  1       21 0.26791327E-02 0.10412729E+03</pdfrwt>
<pdfrwt beam="2">  1        3 0.14985868E+00 0.10412729E+03</pdfrwt>
<totfact> 0.29883596E+02</totfact>
</mgrwt>
<clustering>
<clus scale="   27.690">  6  7 -1 -1</clus>
<clus scale="   76.021">  1  6  2 -1</clus>
<clus scale="   78.968">  4  5 -1 -1</clus>
<clus scale="  104.127">  1  4  2 -1</clus>
</clustering>
<rwgt>
<wgt id='1001'> +2.9771057E+03 </wgt>
<wgt id='1002'> +3.0454925E+03 </wgt>
<wgt id='1003'> +3.0454925E+03 </wgt>
<wgt id='1004'> +2.9502283E+03 </wgt>
<wgt id='1005'> +3.0807809E+03 </wgt>
<wgt id='1006'> +2.9771057E+03 </wgt>
<wgt id='1007'> +3.0454925E+03 </wgt>
<wgt id='1008'> +3.0454925E+03 </wgt>
<wgt id='1009'> +2.9502283E+03 </wgt>
<wgt id='1010'> +3.0807809E+03 </wgt>
<wgt id='1011'> +2.9771057E+03 </wgt>
<wgt id='1012'> +3.0454925E+03 </wgt>
<wgt id='1013'> +3.0454925E+03 </wgt>
<wgt id='1014'> +2.9502283E+03 </wgt>
<wgt id='1015'> +3.0807809E+03 </wgt>
<wgt id='1016'> +3.0618127E+03 </wgt>
<wgt id='1017'> +3.1013333E+03 </wgt>
<wgt id='1018'> +3.1013333E+03 </wgt>
<wgt id='1019'> +3.0454925E+03 </wgt>
<wgt id='1020'> +3.1194809E+03 </wgt>
<wgt id='1021'> +3.0618127E+03 </wgt>
<wgt id='1022'> +3.1013333E+03 </wgt>
<wgt id='1023'> +3.1013333E+03 </wgt>
<wgt id='1024'> +3.0454925E+03 </wgt>
<wgt id='1025'> +3.1194809E+03 </wgt>
<wgt id='1026'> +3.0618127E+03 </wgt>
<wgt id='1027'> +3.1013333E+03 </wgt>
<wgt id='1028'> +3.1013333E+03 </wgt>
<wgt id='1029'> +3.0454925E+03 </wgt>
<wgt id='1030'> +3.1194809E+03 </wgt>
<wgt id='1031'> +2.8428114E+03 </wgt>
<wgt id='1032'> +2.9502283E+03 </wgt>
<wgt id='1033'> +2.9502283E+03 </wgt>
<wgt id='1034'> +2.8017299E+03 </wgt>
<wgt id='1035'> +3.0092056E+03 </wgt>
<wgt id='1036'> +2.8428114E+03 </wgt>
<wgt id='1037'> +2.9502283E+03 </wgt>
<wgt id='1038'> +2.9502283E+03 </wgt>
<wgt id='1039'> +2.8017299E+03 </wgt>
<wgt id='1040'> +3.0092056E+03 </wgt>
<wgt id='1041'> +2.8428114E+03 </wgt>
<wgt id='1042'> +2.9502283E+03 </wgt>
<wgt id='1043'> +2.9502283E+03 </wgt>
<wgt id='1044'> +2.8017299E+03 </wgt>
<wgt id='1045'> +3.0092056E+03 </wgt>
<wgt id='1046'> +2.9771057E+03 </wgt>
<wgt id='1047'> +2.9838490E+03 </wgt>
<wgt id='1048'> +2.9627586E+03 </wgt>
<wgt id='1049'> +2.9633837E+03 </wgt>
<wgt id='1050'> +2.9540968E+03 </wgt>
<wgt id='1051'> +2.9833637E+03 </wgt>
<wgt id='1052'> +2.9605566E+03 </wgt>
<wgt id='1053'> +2.9762194E+03 </wgt>
<wgt id='1054'> +2.9646849E+03 </wgt>
<wgt id='1055'> +2.9428810E+03 </wgt>
<wgt id='1056'> +2.9896763E+03 </wgt>
<wgt id='1057'> +2.9902665E+03 </wgt>
<wgt id='1058'> +2.9753075E+03 </wgt>
<wgt id='1059'> +2.9693122E+03 </wgt>
<wgt id='1060'> +2.9384716E+03 </wgt>
<wgt id='1061'> +2.9893753E+03 </wgt>
<wgt id='1062'> +2.9566628E+03 </wgt>
<wgt id='1063'> +2.9634310E+03 </wgt>
<wgt id='1064'> +2.9872439E+03 </wgt>
<wgt id='1065'> +2.9611121E+03 </wgt>
<wgt id='1066'> +2.9555688E+03 </wgt>
<wgt id='1067'> +2.9738478E+03 </wgt>
<wgt id='1068'> +2.9512494E+03 </wgt>
<wgt id='1069'> +2.9991980E+03 </wgt>
<wgt id='1070'> +2.9451197E+03 </wgt>
<wgt id='1071'> +2.9514070E+03 </wgt>
<wgt id='1072'> +3.0253469E+03 </wgt>
<wgt id='1073'> +2.9475902E+03 </wgt>
<wgt id='1074'> +2.9515509E+03 </wgt>
<wgt id='1075'> +3.1129928E+03 </wgt>
<wgt id='1076'> +3.0347508E+03 </wgt>
<wgt id='1077'> +2.9925972E+03 </wgt>
<wgt id='1078'> +3.0292828E+03 </wgt>
<wgt id='1079'> +2.9804226E+03 </wgt>
<wgt id='1080'> +2.9814984E+03 </wgt>
<wgt id='1081'> +2.9514564E+03 </wgt>
<wgt id='1082'> +2.9445701E+03 </wgt>
<wgt id='1083'> +2.9550209E+03 </wgt>
<wgt id='1084'> +2.9971555E+03 </wgt>
<wgt id='1085'> +2.9814996E+03 </wgt>
<wgt id='1086'> +2.9631511E+03 </wgt>
<wgt id='1087'> +2.9714120E+03 </wgt>
<wgt id='1088'> +3.0094744E+03 </wgt>
<wgt id='1089'> +3.0191482E+03 </wgt>
<wgt id='1090'> +2.9167405E+03 </wgt>
<wgt id='1091'> +3.0564333E+03 </wgt>
<wgt id='1092'> +2.9184281E+03 </wgt>
<wgt id='1093'> +2.9018911E+03 </wgt>
<wgt id='1094'> +3.0035821E+03 </wgt>
<wgt id='1095'> +2.9009406E+03 </wgt>
<wgt id='1096'> +2.9355497E+03 </wgt>
<wgt id='1097'> +2.9206867E+03 </wgt>
<wgt id='1098'> +2.9803259E+03 </wgt>
<wgt id='1099'> +3.0078862E+03 </wgt>
<wgt id='1100'> +2.9770286E+03 </wgt>
<wgt id='1101'> +2.9738385E+03 </wgt>
<wgt id='1102'> +2.9458927E+03 </wgt>
<wgt id='1103'> +3.0306487E+03 </wgt>
<wgt id='1104'> +3.0511517E+03 </wgt>
<wgt id='1105'> +3.0543222E+03 </wgt>
<wgt id='1106'> +3.0313440E+03 </wgt>
<wgt id='1107'> +3.0021411E+03 </wgt>
<wgt id='1108'> +2.9998761E+03 </wgt>
<wgt id='1109'> +2.9476805E+03 </wgt>
<wgt id='1110'> +2.9581798E+03 </wgt>
<wgt id='1111'> +3.0402259E+03 </wgt>
<wgt id='1112'> +2.9211361E+03 </wgt>
<wgt id='1113'> +3.0457586E+03 </wgt>
<wgt id='1114'> +2.9976633E+03 </wgt>
<wgt id='1115'> +2.9709860E+03 </wgt>
<wgt id='1116'> +2.9767318E+03 </wgt>
<wgt id='1117'> +2.9823967E+03 </wgt>
<wgt id='1118'> +2.9381159E+03 </wgt>
<wgt id='1119'> +2.9456414E+03 </wgt>
<wgt id='1120'> +2.9951489E+03 </wgt>
<wgt id='1121'> +2.9894678E+03 </wgt>
<wgt id='1122'> +2.9682546E+03 </wgt>
<wgt id='1123'> +2.9617310E+03 </wgt>
<wgt id='1124'> +2.9670841E+03 </wgt>
<wgt id='1125'> +2.9767621E+03 </wgt>
<wgt id='1126'> +2.9521072E+03 </wgt>
<wgt id='1127'> +2.9922957E+03 </wgt>
<wgt id='1128'> +2.9927227E+03 </wgt>
<wgt id='1129'> +2.9844717E+03 </wgt>
<wgt id='1130'> +2.9780618E+03 </wgt>
<wgt id='1131'> +2.9590272E+03 </wgt>
<wgt id='1132'> +2.9711898E+03 </wgt>
<wgt id='1133'> +2.9981031E+03 </wgt>
<wgt id='1134'> +3.0043136E+03 </wgt>
<wgt id='1135'> +2.9720199E+03 </wgt>
<wgt id='1136'> +2.9618408E+03 </wgt>
<wgt id='1137'> +2.9978769E+03 </wgt>
<wgt id='1138'> +2.9873692E+03 </wgt>
<wgt id='1139'> +2.9559850E+03 </wgt>
<wgt id='1140'> +2.9571533E+03 </wgt>
<wgt id='1141'> +2.9905633E+03 </wgt>
<wgt id='1142'> +2.9755999E+03 </wgt>
<wgt id='1143'> +3.0019277E+03 </wgt>
<wgt id='1144'> +2.9594931E+03 </wgt>
<wgt id='1145'> +2.9719424E+03 </wgt>
<wgt id='1146'> +2.9532373E+03 </wgt>
<wgt id='1147'> +2.9042316E+03 </wgt>
<wgt id='1148'> +3.0872464E+03 </wgt>
<wgt id='1149'> +2.5197730E+03 </wgt>
<wgt id='1150'> +2.6016931E+03 </wgt>
<wgt id='1151'> +2.6626337E+03 </wgt>
<wgt id='1152'> +2.6973043E+03 </wgt>
<wgt id='1153'> +2.9007838E+03 </wgt>
<wgt id='1154'> +2.9979864E+03 </wgt>
<wgt id='1155'> +3.2085012E+03 </wgt>
<wgt id='1156'> +3.3382590E+03 </wgt>
<wgt id='1157'> +3.0404668E+03 </wgt>
<wgt id='1158'> +3.0446717E+03 </wgt>
<wgt id='1159'> +3.0559072E+03 </wgt>
<wgt id='1160'> +3.0252499E+03 </wgt>
<wgt id='1161'> +2.9974479E+03 </wgt>
<wgt id='1162'> +3.0416871E+03 </wgt>
<wgt id='1163'> +3.0262969E+03 </wgt>
<wgt id='1164'> +3.0323937E+03 </wgt>
<wgt id='1165'> +3.0896849E+03 </wgt>
<wgt id='1166'> +3.0205811E+03 </wgt>
<wgt id='1167'> +3.0765972E+03 </wgt>
<wgt id='1168'> +3.0578665E+03 </wgt>
<wgt id='1169'> +3.0411727E+03 </wgt>
<wgt id='1170'> +3.0542129E+03 </wgt>
<wgt id='1171'> +3.0135181E+03 </wgt>
<wgt id='1172'> +3.0848883E+03 </wgt>
<wgt id='1173'> +3.0355627E+03 </wgt>
<wgt id='1174'> +3.0289929E+03 </wgt>
<wgt id='1175'> +3.0274177E+03 </wgt>
<wgt id='1176'> +3.0685396E+03 </wgt>
<wgt id='1177'> +3.0661906E+03 </wgt>
<wgt id='1178'> +3.0288979E+03 </wgt>
<wgt id='1179'> +3.0299768E+03 </wgt>
<wgt id='1180'> +3.0190798E+03 </wgt>
<wgt id='1181'> +3.0496780E+03 </wgt>
<wgt id='1182'> +3.0755918E+03 </wgt>
<wgt id='1183'> +3.0639891E+03 </wgt>
<wgt id='1184'> +3.0457869E+03 </wgt>
<wgt id='1185'> +3.0343983E+03 </wgt>
<wgt id='1186'> +3.0098704E+03 </wgt>
<wgt id='1187'> +3.1797521E+03 </wgt>
<wgt id='1188'> +3.0706658E+03 </wgt>
<wgt id='1189'> +3.0044228E+03 </wgt>
<wgt id='1190'> +2.9988316E+03 </wgt>
<wgt id='1191'> +3.0422477E+03 </wgt>
<wgt id='1192'> +2.9817208E+03 </wgt>
<wgt id='1193'> +3.0419290E+03 </wgt>
<wgt id='1194'> +3.0727801E+03 </wgt>
<wgt id='1195'> +3.0290761E+03 </wgt>
<wgt id='1196'> +3.0359882E+03 </wgt>
<wgt id='1197'> +3.0563802E+03 </wgt>
<wgt id='1198'> +3.0036619E+03 </wgt>
<wgt id='1199'> +3.0441576E+03 </wgt>
<wgt id='1200'> +3.0257663E+03 </wgt>
<wgt id='1201'> +3.0032208E+03 </wgt>
<wgt id='1202'> +3.0297110E+03 </wgt>
<wgt id='1203'> +3.0144575E+03 </wgt>
<wgt id='1204'> +3.0265945E+03 </wgt>
<wgt id='1205'> +2.9845655E+03 </wgt>
<wgt id='1206'> +3.1246491E+03 </wgt>
<wgt id='1207'> +3.0765472E+03 </wgt>
<wgt id='1208'> +2.9300404E+03 </wgt>
<wgt id='1209'> +3.0008832E+03 </wgt>
<wgt id='1210'> +3.0447741E+03 </wgt>
<wgt id='1211'> +3.0161995E+03 </wgt>
<wgt id='1212'> +3.0610365E+03 </wgt>
<wgt id='1213'> +3.1181632E+03 </wgt>
<wgt id='1214'> +3.0044477E+03 </wgt>
<wgt id='1215'> +3.0879461E+03 </wgt>
<wgt id='1216'> +3.1483932E+03 </wgt>
<wgt id='1217'> +3.0210293E+03 </wgt>
<wgt id='1218'> +3.0634819E+03 </wgt>
<wgt id='1219'> +2.9956257E+03 </wgt>
<wgt id='1220'> +3.0864763E+03 </wgt>
<wgt id='1221'> +2.9631708E+03 </wgt>
<wgt id='1222'> +3.0569849E+03 </wgt>
<wgt id='1223'> +3.0006996E+03 </wgt>
<wgt id='1224'> +3.0301230E+03 </wgt>
<wgt id='1225'> +3.0574594E+03 </wgt>
<wgt id='1226'> +3.0338997E+03 </wgt>
<wgt id='1227'> +3.0368937E+03 </wgt>
<wgt id='1228'> +3.0016420E+03 </wgt>
<wgt id='1229'> +3.0434903E+03 </wgt>
<wgt id='1230'> +3.0347604E+03 </wgt>
<wgt id='1231'> +3.0368851E+03 </wgt>
<wgt id='1232'> +3.0583329E+03 </wgt>
<wgt id='1233'> +3.0304307E+03 </wgt>
<wgt id='1234'> +3.0670907E+03 </wgt>
<wgt id='1235'> +3.1006742E+03 </wgt>
<wgt id='1236'> +3.0287576E+03 </wgt>
<wgt id='1237'> +3.0037207E+03 </wgt>
<wgt id='1238'> +3.0572276E+03 </wgt>
<wgt id='1239'> +3.0479310E+03 </wgt>
<wgt id='1240'> +3.0327338E+03 </wgt>
<wgt id='1241'> +3.0542889E+03 </wgt>
<wgt id='1242'> +3.0440904E+03 </wgt>
<wgt id='1243'> +3.0207012E+03 </wgt>
<wgt id='1244'> +3.0279589E+03 </wgt>
<wgt id='1245'> +3.0281637E+03 </wgt>
<wgt id='1246'> +3.0576895E+03 </wgt>
<wgt id='1247'> +3.0206941E+03 </wgt>
<wgt id='1248'> +3.0555463E+03 </wgt>
<wgt id='1249'> +3.0274500E+03 </wgt>
<wgt id='1250'> +3.0482780E+03 </wgt>
<wgt id='1251'> +3.0358738E+03 </wgt>
<wgt id='1252'> +3.0386793E+03 </wgt>
<wgt id='1253'> +3.0237442E+03 </wgt>
<wgt id='1254'> +3.0240964E+03 </wgt>
<wgt id='1255'> +3.0444783E+03 </wgt>
<wgt id='1256'> +3.0669514E+03 </wgt>
<wgt id='1257'> +3.0547236E+03 </wgt>
<wgt id='1258'> +2.9095591E+03 </wgt>
<wgt id='1259'> +3.1423058E+03 </wgt>
<wgt id='1260'> +2.4411843E+03 </wgt>
<wgt id='1261'> +2.3799964E+03 </wgt>
<wgt id='1262'> +2.4384532E+03 </wgt>
<wgt id='1263'> +2.4585120E+03 </wgt>
<wgt id='1264'> +2.4265893E+03 </wgt>
<wgt id='1265'> +2.4133301E+03 </wgt>
<wgt id='1266'> +2.4992462E+03 </wgt>
<wgt id='1267'> +2.4765678E+03 </wgt>
<wgt id='1268'> +2.3480518E+03 </wgt>
<wgt id='1269'> +2.3796191E+03 </wgt>
<wgt id='1270'> +2.4895394E+03 </wgt>
<wgt id='1271'> +2.0363137E+03 </wgt>
<wgt id='1272'> +3.1098128E+03 </wgt>
<wgt id='1273'> +2.4885665E+03 </wgt>
<wgt id='1274'> +2.3803840E+03 </wgt>
<wgt id='1275'> +2.4230677E+03 </wgt>
<wgt id='1276'> +2.4839523E+03 </wgt>
<wgt id='1277'> +2.4707428E+03 </wgt>
<wgt id='1278'> +2.4098542E+03 </wgt>
<wgt id='1279'> +2.4223891E+03 </wgt>
<wgt id='1280'> +2.4549294E+03 </wgt>
<wgt id='1281'> +2.4305489E+03 </wgt>
<wgt id='1282'> +2.4478191E+03 </wgt>
<wgt id='1283'> +2.4296357E+03 </wgt>
<wgt id='1284'> +2.4541516E+03 </wgt>
<wgt id='1285'> +2.4712313E+03 </wgt>
<wgt id='1286'> +2.4164242E+03 </wgt>
<wgt id='1287'> +2.4139903E+03 </wgt>
<wgt id='1288'> +2.4860325E+03 </wgt>
<wgt id='1289'> +2.4870509E+03 </wgt>
<wgt id='1290'> +2.4120077E+03 </wgt>
<wgt id='1291'> +2.4590396E+03 </wgt>
<wgt id='1292'> +2.4129326E+03 </wgt>
<wgt id='1293'> +2.4252990E+03 </wgt>
<wgt id='1294'> +2.4561460E+03 </wgt>
<wgt id='1295'> +2.4411541E+03 </wgt>
<wgt id='1296'> +2.4406949E+03 </wgt>
<wgt id='1297'> +2.3962189E+03 </wgt>
<wgt id='1298'> +2.4926030E+03 </wgt>
<wgt id='1299'> +1.9971383E+03 </wgt>
<wgt id='1300'> +2.7852192E+03 </wgt>
<wgt id='1301'> +2.3995379E+03 </wgt>
<wgt id='1302'> +2.4654372E+03 </wgt>
<wgt id='1303'> +2.4625033E+03 </wgt>
<wgt id='1304'> +2.4441930E+03 </wgt>
<wgt id='1305'> +2.4034202E+03 </wgt>
<wgt id='1306'> +2.4622877E+03 </wgt>
<wgt id='1307'> +2.4481061E+03 </wgt>
<wgt id='1308'> +2.4181106E+03 </wgt>
<wgt id='1309'> +2.4171804E+03 </wgt>
<wgt id='1310'> +2.4921847E+03 </wgt>
<wgt id='1311'> +2.4763828E+03 </wgt>
<wgt id='1312'> +2.4211098E+03 </wgt>
<wgt id='1313'> +2.4809184E+03 </wgt>
<wgt id='1314'> +2.6050754E+03 </wgt>
<wgt id='1315'> +2.5757180E+03 </wgt>
<wgt id='1316'> +2.0293436E+03 </wgt>
<wgt id='1317'> +2.3308146E+03 </wgt>
<wgt id='1318'> +2.5381697E+03 </wgt>
<wgt id='1319'> +2.3583523E+03 </wgt>
<wgt id='1320'> +2.3623490E+03 </wgt>
<wgt id='1321'> +2.3779753E+03 </wgt>
<wgt id='1322'> +2.4179209E+03 </wgt>
<wgt id='1323'> +2.3244953E+03 </wgt>
<wgt id='1324'> +2.4302845E+03 </wgt>
<wgt id='1325'> +2.3203205E+03 </wgt>
<wgt id='1326'> +2.3280934E+03 </wgt>
<wgt id='1327'> +2.3811165E+03 </wgt>
<wgt id='1328'> +2.3816416E+03 </wgt>
<wgt id='1329'> +2.3484645E+03 </wgt>
<wgt id='1330'> +2.2443409E+03 </wgt>
<wgt id='1331'> +2.4445473E+03 </wgt>
<wgt id='1332'> +2.4941920E+03 </wgt>
<wgt id='1333'> +2.2455717E+03 </wgt>
<wgt id='1334'> +1.9961289E+03 </wgt>
<wgt id='1335'> +2.7195704E+03 </wgt>
<wgt id='1336'> +2.3113689E+03 </wgt>
<wgt id='1337'> +2.4113132E+03 </wgt>
<wgt id='1338'> +2.2727254E+03 </wgt>
<wgt id='1339'> +2.4474594E+03 </wgt>
<wgt id='1340'> +2.2849008E+03 </wgt>
<wgt id='1341'> +2.4994950E+03 </wgt>
<wgt id='1342'> +2.3634345E+03 </wgt>
<wgt id='1343'> +2.3512289E+03 </wgt>
<wgt id='1344'> +2.4288456E+03 </wgt>
<wgt id='1345'> +2.2996159E+03 </wgt>
<wgt id='1346'> +2.3243528E+03 </wgt>
<wgt id='1347'> +2.4093952E+03 </wgt>
<wgt id='1348'> +2.4523750E+03 </wgt>
<wgt id='1349'> +2.3262453E+03 </wgt>
<wgt id='1350'> +2.3127750E+03 </wgt>
<wgt id='1351'> +2.4189125E+03 </wgt>
<wgt id='1352'> +2.4043823E+03 </wgt>
<wgt id='1353'> +2.2599097E+03 </wgt>
<wgt id='1354'> +2.3101246E+03 </wgt>
<wgt id='1355'> +2.4040055E+03 </wgt>
<wgt id='1356'> +2.4997773E+03 </wgt>
<wgt id='1357'> +2.1958866E+03 </wgt>
<wgt id='1358'> +2.9883062E+03 </wgt>
<wgt id='1359'> +2.0128209E+03 </wgt>
<wgt id='1360'> +2.3592553E+03 </wgt>
<wgt id='1361'> +2.3571111E+03 </wgt>
<wgt id='1362'> +2.3213448E+03 </wgt>
<wgt id='1363'> +2.3691055E+03 </wgt>
<wgt id='1364'> +2.3231769E+03 </wgt>
<wgt id='1365'> +2.4059920E+03 </wgt>
<wgt id='1366'> +2.3735471E+03 </wgt>
<wgt id='1367'> +2.3473689E+03 </wgt>
<wgt id='1368'> +2.4401192E+03 </wgt>
<wgt id='1369'> +2.2608325E+03 </wgt>
<wgt id='1370'> +2.3402038E+03 </wgt>
<wgt id='1371'> +2.3199576E+03 </wgt>
<wgt id='1372'> +2.2591509E+03 </wgt>
<wgt id='1373'> +2.3812805E+03 </wgt>
<wgt id='1374'> +2.3783990E+03 </wgt>
<wgt id='1375'> +2.0868527E+03 </wgt>
<wgt id='1376'> +2.2498818E+03 </wgt>
<wgt id='1377'> +2.4668677E+03 </wgt>
<wgt id='1378'> +2.1737652E+03 </wgt>
<wgt id='1379'> +2.9471541E+03 </wgt>
<wgt id='1380'> +2.9489431E+03 </wgt>
<wgt id='1381'> +2.9452760E+03 </wgt>
<wgt id='1382'> +2.9450744E+03 </wgt>
<wgt id='1383'> +2.9485919E+03 </wgt>
<wgt id='1384'> +2.9518391E+03 </wgt>
<wgt id='1385'> +2.9428741E+03 </wgt>
<wgt id='1386'> +2.9278923E+03 </wgt>
<wgt id='1387'> +2.9688810E+03 </wgt>
<wgt id='1388'> +3.0034935E+03 </wgt>
<wgt id='1389'> +2.8928153E+03 </wgt>
<wgt id='1390'> +2.8920634E+03 </wgt>
<wgt id='1391'> +3.0663782E+03 </wgt>
<wgt id='1392'> +2.9120889E+03 </wgt>
<wgt id='1393'> +3.0099319E+03 </wgt>
<wgt id='1394'> +2.8928306E+03 </wgt>
<wgt id='1395'> +2.9780062E+03 </wgt>
<wgt id='1396'> +3.0557755E+03 </wgt>
<wgt id='1397'> +2.8200284E+03 </wgt>
<wgt id='1398'> +3.1697839E+03 </wgt>
<wgt id='1399'> +2.7553353E+03 </wgt>
<wgt id='1400'> +2.9037877E+03 </wgt>
<wgt id='1401'> +3.0043500E+03 </wgt>
<wgt id='1402'> +2.8516502E+03 </wgt>
<wgt id='1403'> +3.0104778E+03 </wgt>
<wgt id='1404'> +2.9319832E+03 </wgt>
<wgt id='1405'> +2.9565865E+03 </wgt>
<wgt id='1406'> +2.9746841E+03 </wgt>
<wgt id='1407'> +2.9324164E+03 </wgt>
<wgt id='1408'> +2.9215319E+03 </wgt>
<wgt id='1409'> +2.9781992E+03 </wgt>
<wgt id='1410'> +2.8907024E+03 </wgt>
<wgt id='1411'> +3.0102144E+03 </wgt>
<wgt id='1412'> +2.9373311E+03 </wgt>
<wgt id='1413'> +2.9567605E+03 </wgt>
<wgt id='1414'> +2.9535046E+03 </wgt>
<wgt id='1415'> +2.9374640E+03 </wgt>
<wgt id='1416'> +2.9806911E+03 </wgt>
<wgt id='1417'> +2.9245594E+03 </wgt>
<wgt id='1418'> +3.1745152E+03 </wgt>
<wgt id='1419'> +2.7197415E+03 </wgt>
<wgt id='1420'> +3.3730175E+03 </wgt>
<wgt id='1421'> +2.4298825E+03 </wgt>
<wgt id='1422'> +2.7406778E+03 </wgt>
<wgt id='1423'> +2.9847759E+03 </wgt>
<wgt id='1424'> +3.0830060E+03 </wgt>
<wgt id='1425'> +2.5121215E+03 </wgt>
<wgt id='1426'> +2.9148587E+03 </wgt>
<wgt id='1427'> +2.9986595E+03 </wgt>
<wgt id='1428'> +2.9235798E+03 </wgt>
<wgt id='1429'> +2.9596819E+03 </wgt>
<wgt id='1430'> +2.6283280E+03 </wgt>
<wgt id='1431'> +2.6283260E+03 </wgt>
<wgt id='1432'> +2.6282844E+03 </wgt>
<wgt id='1433'> +2.6358188E+03 </wgt>
<wgt id='1434'> +2.6207865E+03 </wgt>
<wgt id='1435'> +2.6271334E+03 </wgt>
<wgt id='1436'> +2.6287754E+03 </wgt>
<wgt id='1437'> +2.6107652E+03 </wgt>
<wgt id='1438'> +2.6457863E+03 </wgt>
<wgt id='1439'> +2.6961466E+03 </wgt>
<wgt id='1440'> +2.5632682E+03 </wgt>
<wgt id='1441'> +2.7576409E+03 </wgt>
<wgt id='1442'> +2.5712822E+03 </wgt>
<wgt id='1443'> +2.6348469E+03 </wgt>
<wgt id='1444'> +2.6202539E+03 </wgt>
<wgt id='1445'> +2.5689183E+03 </wgt>
<wgt id='1446'> +2.6927378E+03 </wgt>
<wgt id='1447'> +2.8347309E+03 </wgt>
<wgt id='1448'> +2.5115296E+03 </wgt>
<wgt id='1449'> +2.5202604E+03 </wgt>
<wgt id='1450'> +2.7742840E+03 </wgt>
<wgt id='1451'> +2.8571440E+03 </wgt>
<wgt id='1452'> +2.4686491E+03 </wgt>
<wgt id='1453'> +2.6379846E+03 </wgt>
<wgt id='1454'> +2.6174403E+03 </wgt>
<wgt id='1455'> +2.6536622E+03 </wgt>
<wgt id='1456'> +2.5648404E+03 </wgt>
<wgt id='1457'> +2.6519869E+03 </wgt>
<wgt id='1458'> +2.6118604E+03 </wgt>
<wgt id='1459'> +2.6499907E+03 </wgt>
<wgt id='1460'> +2.5697538E+03 </wgt>
<wgt id='1461'> +2.6139701E+03 </wgt>
<wgt id='1462'> +2.6597721E+03 </wgt>
<wgt id='1463'> +2.6507128E+03 </wgt>
<wgt id='1464'> +2.5876940E+03 </wgt>
<wgt id='1465'> +2.6185715E+03 </wgt>
<wgt id='1466'> +2.6346805E+03 </wgt>
<wgt id='1467'> +2.6236080E+03 </wgt>
<wgt id='1468'> +2.6378660E+03 </wgt>
<wgt id='1469'> +2.9324518E+03 </wgt>
<wgt id='1470'> +2.4345275E+03 </wgt>
<wgt id='1471'> +2.2608290E+03 </wgt>
<wgt id='1472'> +3.2651020E+03 </wgt>
<wgt id='1473'> +2.6115805E+03 </wgt>
<wgt id='1474'> +2.7087608E+03 </wgt>
<wgt id='1475'> +2.7561817E+03 </wgt>
<wgt id='1476'> +2.4995679E+03 </wgt>
<wgt id='1477'> +2.3198367E+03 </wgt>
<wgt id='1478'> +2.7061278E+03 </wgt>
<wgt id='1479'> +2.5836737E+03 </wgt>
<wgt id='1480'> +2.6519207E+03 </wgt>
<wgt id='1481'> +3.8556152E+03 </wgt>
<wgt id='1482'> +2.5517797E+03 </wgt>
<wgt id='1483'> +2.5512255E+03 </wgt>
<wgt id='1484'> +2.5513623E+03 </wgt>
<wgt id='1485'> +2.5487262E+03 </wgt>
<wgt id='1486'> +2.5520472E+03 </wgt>
<wgt id='1487'> +2.5703300E+03 </wgt>
<wgt id='1488'> +2.5718699E+03 </wgt>
<wgt id='1489'> +2.5263852E+03 </wgt>
<wgt id='1490'> +2.5587822E+03 </wgt>
<wgt id='1491'> +2.5478810E+03 </wgt>
<wgt id='1492'> +2.5353997E+03 </wgt>
<wgt id='1493'> +2.5495519E+03 </wgt>
<wgt id='1494'> +2.5186768E+03 </wgt>
<wgt id='1495'> +2.5591455E+03 </wgt>
<wgt id='1496'> +2.5321113E+03 </wgt>
<wgt id='1497'> +2.5582137E+03 </wgt>
<wgt id='1498'> +2.5435208E+03 </wgt>
<wgt id='1499'> +2.5504337E+03 </wgt>
<wgt id='1500'> +2.5522801E+03 </wgt>
<wgt id='1501'> +2.5625141E+03 </wgt>
<wgt id='1502'> +2.5473437E+03 </wgt>
<wgt id='1503'> +2.5937509E+03 </wgt>
<wgt id='1504'> +2.5779569E+03 </wgt>
<wgt id='1505'> +2.5535065E+03 </wgt>
<wgt id='1506'> +2.5525498E+03 </wgt>
<wgt id='1507'> +2.5509240E+03 </wgt>
<wgt id='1508'> +2.5431644E+03 </wgt>
<wgt id='1509'> +2.5560257E+03 </wgt>
<wgt id='1510'> +2.5524339E+03 </wgt>
<wgt id='1511'> +2.5652046E+03 </wgt>
<wgt id='1512'> +2.6595230E+03 </wgt>
<wgt id='1513'> +2.6689901E+03 </wgt>
<wgt id='1514'> +2.7469932E+03 </wgt>
<wgt id='1515'> +2.5253786E+03 </wgt>
<wgt id='1516'> +2.6911873E+03 </wgt>
<wgt id='1517'> +2.6310813E+03 </wgt>
<wgt id='1518'> +2.7903296E+03 </wgt>
<wgt id='1519'> +2.5975066E+03 </wgt>
<wgt id='1520'> +2.6543011E+03 </wgt>
<wgt id='1521'> +2.7034043E+03 </wgt>
<wgt id='1522'> +2.7212612E+03 </wgt>
<wgt id='1523'> +2.8119157E+03 </wgt>
<wgt id='1524'> +2.6618220E+03 </wgt>
<wgt id='1525'> +2.5374065E+03 </wgt>
<wgt id='1526'> +2.7269866E+03 </wgt>
<wgt id='1527'> +2.6386806E+03 </wgt>
<wgt id='1528'> +2.8503942E+03 </wgt>
<wgt id='1529'> +2.5968401E+03 </wgt>
<wgt id='1530'> +2.5180532E+03 </wgt>
<wgt id='1531'> +2.7835387E+03 </wgt>
<wgt id='1532'> +2.8022655E+03 </wgt>
<wgt id='1533'> +2.6889740E+03 </wgt>
<wgt id='1534'> +2.6161465E+03 </wgt>
<wgt id='1535'> +2.5067825E+03 </wgt>
<wgt id='1536'> +2.6963560E+03 </wgt>
<wgt id='1537'> +2.6761875E+03 </wgt>
<wgt id='1538'> +2.7128170E+03 </wgt>
<wgt id='1539'> +2.5619022E+03 </wgt>
<wgt id='1540'> +2.6359013E+03 </wgt>
<wgt id='1541'> +2.7253507E+03 </wgt>
<wgt id='1542'> +2.7287178E+03 </wgt>
<wgt id='1543'> +2.7078253E+03 </wgt>
<wgt id='1544'> +2.5843554E+03 </wgt>
<wgt id='1545'> +2.6453378E+03 </wgt>
<wgt id='1546'> +2.7242269E+03 </wgt>
<wgt id='1547'> +2.5408824E+03 </wgt>
<wgt id='1548'> +2.7449142E+03 </wgt>
<wgt id='1549'> +2.7077465E+03 </wgt>
<wgt id='1550'> +2.7424432E+03 </wgt>
<wgt id='1551'> +2.7212489E+03 </wgt>
<wgt id='1552'> +2.7041719E+03 </wgt>
<wgt id='1553'> +2.6556405E+03 </wgt>
<wgt id='1554'> +2.7094125E+03 </wgt>
<wgt id='1555'> +2.6673753E+03 </wgt>
<wgt id='1556'> +2.6890114E+03 </wgt>
<wgt id='1557'> +2.6245211E+03 </wgt>
<wgt id='1558'> +2.7032354E+03 </wgt>
<wgt id='1559'> +2.6673524E+03 </wgt>
<wgt id='1560'> +2.6939379E+03 </wgt>
<wgt id='1561'> +2.6756389E+03 </wgt>
<wgt id='1562'> +2.6351193E+03 </wgt>
<wgt id='1563'> +2.6883656E+03 </wgt>
<wgt id='1564'> +2.6339663E+03 </wgt>
<wgt id='1565'> +2.6387747E+03 </wgt>
<wgt id='1566'> +2.6740899E+03 </wgt>
<wgt id='1567'> +2.6227714E+03 </wgt>
<wgt id='1568'> +2.6255538E+03 </wgt>
<wgt id='1569'> +2.6551025E+03 </wgt>
<wgt id='1570'> +2.7564406E+03 </wgt>
<wgt id='1571'> +2.6616836E+03 </wgt>
<wgt id='1572'> +2.6177768E+03 </wgt>
<wgt id='1573'> +2.6898310E+03 </wgt>
<wgt id='1574'> +2.6168297E+03 </wgt>
<wgt id='1575'> +2.6972898E+03 </wgt>
<wgt id='1576'> +2.6733094E+03 </wgt>
<wgt id='1577'> +2.6859384E+03 </wgt>
<wgt id='1578'> +2.6429924E+03 </wgt>
<wgt id='1579'> +2.6604282E+03 </wgt>
<wgt id='1580'> +2.6460267E+03 </wgt>
<wgt id='1581'> +2.6409176E+03 </wgt>
<wgt id='1582'> +2.6649764E+03 </wgt>
<wgt id='1583'> +2.6643995E+03 </wgt>
<wgt id='1584'> +2.6452423E+03 </wgt>
<wgt id='1585'> +2.6582626E+03 </wgt>
<wgt id='1586'> +2.6540740E+03 </wgt>
<wgt id='1587'> +2.6630720E+03 </wgt>
<wgt id='1588'> +2.6474013E+03 </wgt>
<wgt id='1589'> +2.6465620E+03 </wgt>
<wgt id='1590'> +2.6606815E+03 </wgt>
<wgt id='1591'> +2.6646599E+03 </wgt>
<wgt id='1592'> +2.6625615E+03 </wgt>
<wgt id='1593'> +2.6519953E+03 </wgt>
<wgt id='1594'> +2.6430042E+03 </wgt>
<wgt id='1595'> +2.6790432E+03 </wgt>
<wgt id='1596'> +2.6534353E+03 </wgt>
<wgt id='1597'> +2.6564212E+03 </wgt>
<wgt id='1598'> +2.6619620E+03 </wgt>
<wgt id='1599'> +2.6658740E+03 </wgt>
<wgt id='1600'> +2.6732873E+03 </wgt>
<wgt id='1601'> +2.6624614E+03 </wgt>
<wgt id='1602'> +2.6723675E+03 </wgt>
<wgt id='1603'> +2.6578391E+03 </wgt>
<wgt id='1604'> +2.6679640E+03 </wgt>
<wgt id='1605'> +2.6449057E+03 </wgt>
<wgt id='1606'> +2.6590418E+03 </wgt>
<wgt id='1607'> +2.6545111E+03 </wgt>
<wgt id='1608'> +2.6571253E+03 </wgt>
<wgt id='1609'> +2.6625854E+03 </wgt>
<wgt id='1610'> +2.6714234E+03 </wgt>
<wgt id='1611'> +2.6665272E+03 </wgt>
<wgt id='1612'> +2.6635679E+03 </wgt>
<wgt id='1613'> +2.5590697E+03 </wgt>
<wgt id='1614'> +2.7956789E+03 </wgt>
<wgt id='1615'> +2.5996060E+03 </wgt>
<wgt id='1616'> +2.6034821E+03 </wgt>
<wgt id='1617'> +2.6544899E+03 </wgt>
<wgt id='1618'> +2.5620895E+03 </wgt>
<wgt id='1619'> +2.5022136E+03 </wgt>
<wgt id='1620'> +2.5008735E+03 </wgt>
<wgt id='1621'> +2.5271418E+03 </wgt>
<wgt id='1622'> +2.6087559E+03 </wgt>
<wgt id='1623'> +2.6162179E+03 </wgt>
<wgt id='1624'> +2.5564111E+03 </wgt>
<wgt id='1625'> +2.6230958E+03 </wgt>
<wgt id='1626'> +2.4521199E+03 </wgt>
<wgt id='1627'> +2.5665327E+03 </wgt>
<wgt id='1628'> +2.5524191E+03 </wgt>
<wgt id='1629'> +2.6472548E+03 </wgt>
<wgt id='1630'> +2.6357775E+03 </wgt>
<wgt id='1631'> +2.5931095E+03 </wgt>
<wgt id='1632'> +2.6676037E+03 </wgt>
<wgt id='1633'> +2.4660821E+03 </wgt>
<wgt id='1634'> +2.7162171E+03 </wgt>
<wgt id='1635'> +2.5930224E+03 </wgt>
<wgt id='1636'> +2.6523856E+03 </wgt>
<wgt id='1637'> +2.7254445E+03 </wgt>
<wgt id='1638'> +2.7434316E+03 </wgt>
<wgt id='1639'> +2.5101524E+03 </wgt>
<wgt id='1640'> +2.5950629E+03 </wgt>
<wgt id='1641'> +2.7007959E+03 </wgt>
<wgt id='1642'> +2.5318864E+03 </wgt>
<wgt id='1643'> +2.6181688E+03 </wgt>
<wgt id='1644'> +2.6801709E+03 </wgt>
<wgt id='1645'> +2.5828288E+03 </wgt>
<wgt id='1646'> +2.6829813E+03 </wgt>
<wgt id='1647'> +2.4805170E+03 </wgt>
<wgt id='1648'> +2.5979578E+03 </wgt>
<wgt id='1649'> +2.5626645E+03 </wgt>
<wgt id='1650'> +2.5746343E+03 </wgt>
<wgt id='1651'> +2.5764366E+03 </wgt>
<wgt id='1652'> +2.5362318E+03 </wgt>
<wgt id='1653'> +2.4923687E+03 </wgt>
<wgt id='1654'> +2.5691403E+03 </wgt>
<wgt id='1655'> +2.5966233E+03 </wgt>
<wgt id='1656'> +2.7372866E+03 </wgt>
<wgt id='1657'> +2.6209979E+03 </wgt>
<wgt id='1658'> +2.6678917E+03 </wgt>
<wgt id='1659'> +2.5929102E+03 </wgt>
<wgt id='1660'> +2.6248361E+03 </wgt>
<wgt id='1661'> +2.6367036E+03 </wgt>
<wgt id='1662'> +2.6290070E+03 </wgt>
<wgt id='1663'> +2.5789108E+03 </wgt>
<wgt id='1664'> +2.6248789E+03 </wgt>
<wgt id='1665'> +2.5863140E+03 </wgt>
<wgt id='1666'> +2.6024792E+03 </wgt>
<wgt id='1667'> +2.6473087E+03 </wgt>
<wgt id='1668'> +2.6180029E+03 </wgt>
<wgt id='1669'> +2.5850436E+03 </wgt>
<wgt id='1670'> +2.5495511E+03 </wgt>
<wgt id='1671'> +2.6555642E+03 </wgt>
<wgt id='1672'> +2.6104418E+03 </wgt>
<wgt id='1673'> +2.5278843E+03 </wgt>
<wgt id='1674'> +2.5653449E+03 </wgt>
<wgt id='1675'> +2.5923293E+03 </wgt>
<wgt id='1676'> +2.6172646E+03 </wgt>
<wgt id='1677'> +2.6148578E+03 </wgt>
<wgt id='1678'> +2.6182579E+03 </wgt>
<wgt id='1679'> +2.5811709E+03 </wgt>
<wgt id='1680'> +2.6022793E+03 </wgt>
<wgt id='1681'> +2.5660577E+03 </wgt>
<wgt id='1682'> +2.6010167E+03 </wgt>
<wgt id='1683'> +2.5850362E+03 </wgt>
<wgt id='1684'> +2.5875758E+03 </wgt>
<wgt id='1685'> +2.5933871E+03 </wgt>
<wgt id='1686'> +2.6476801E+03 </wgt>
<wgt id='1687'> +2.6042650E+03 </wgt>
<wgt id='1688'> +2.5960216E+03 </wgt>
<wgt id='1689'> +2.6102274E+03 </wgt>
<wgt id='1690'> +2.6074404E+03 </wgt>
<wgt id='1691'> +2.5965502E+03 </wgt>
<wgt id='1692'> +2.6055061E+03 </wgt>
<wgt id='1693'> +2.6091250E+03 </wgt>
<wgt id='1694'> +2.6187457E+03 </wgt>
<wgt id='1695'> +2.5988002E+03 </wgt>
<wgt id='1696'> +2.6090591E+03 </wgt>
<wgt id='1697'> +2.6053912E+03 </wgt>
<wgt id='1698'> +2.5870789E+03 </wgt>
<wgt id='1699'> +2.6147517E+03 </wgt>
<wgt id='1700'> +2.6010701E+03 </wgt>
<wgt id='1701'> +2.6174969E+03 </wgt>
<wgt id='1702'> +2.5870856E+03 </wgt>
<wgt id='1703'> +2.5959586E+03 </wgt>
<wgt id='1704'> +2.5945131E+03 </wgt>
<wgt id='1705'> +2.6051352E+03 </wgt>
<wgt id='1706'> +2.5924384E+03 </wgt>
<wgt id='1707'> +2.5963930E+03 </wgt>
<wgt id='1708'> +2.5983668E+03 </wgt>
<wgt id='1709'> +2.6006257E+03 </wgt>
<wgt id='1710'> +2.6028661E+03 </wgt>
<wgt id='1711'> +2.6150926E+03 </wgt>
<wgt id='1712'> +2.5929921E+03 </wgt>
<wgt id='1713'> +2.6162978E+03 </wgt>
<wgt id='1714'> +2.5769973E+03 </wgt>
<wgt id='1715'> +2.6090665E+03 </wgt>
<wgt id='1716'> +2.5063417E+03 </wgt>
<wgt id='1717'> +2.6754002E+03 </wgt>
<wgt id='1718'> +2.6595698E+03 </wgt>
<wgt id='1719'> +2.7339020E+03 </wgt>
<wgt id='1720'> +3.0732145E+03 </wgt>
<wgt id='1721'> +2.6802531E+03 </wgt>
<wgt id='1722'> +2.4972015E+03 </wgt>
<wgt id='1723'> +2.6701001E+03 </wgt>
<wgt id='1724'> +2.5576592E+03 </wgt>
<wgt id='1725'> +2.6524942E+03 </wgt>
<wgt id='1726'> +2.7176303E+03 </wgt>
<wgt id='1727'> +2.6206443E+03 </wgt>
<wgt id='1728'> +2.6981463E+03 </wgt>
<wgt id='1729'> +2.7028825E+03 </wgt>
<wgt id='1730'> +2.6896306E+03 </wgt>
<wgt id='1731'> +2.6861616E+03 </wgt>
<wgt id='1732'> +2.6362062E+03 </wgt>
<wgt id='1733'> +2.6214643E+03 </wgt>
<wgt id='1734'> +2.5999240E+03 </wgt>
<wgt id='1735'> +2.6956127E+03 </wgt>
<wgt id='1736'> +2.6972058E+03 </wgt>
<wgt id='1737'> +2.7307397E+03 </wgt>
<wgt id='1738'> +2.6255412E+03 </wgt>
<wgt id='1739'> +2.7668166E+03 </wgt>
<wgt id='1740'> +2.6512481E+03 </wgt>
<wgt id='1741'> +2.6453526E+03 </wgt>
<wgt id='1742'> +2.6951525E+03 </wgt>
<wgt id='1743'> +2.6614791E+03 </wgt>
<wgt id='1744'> +2.7559119E+03 </wgt>
<wgt id='1745'> +2.6772842E+03 </wgt>
<wgt id='1746'> +2.6688410E+03 </wgt>
<wgt id='1747'> +2.7406709E+03 </wgt>
<wgt id='1748'> +2.4519048E+03 </wgt>
<wgt id='1749'> +2.5590697E+03 </wgt>
<wgt id='1750'> +2.7956789E+03 </wgt>
<wgt id='1751'> +2.5992755E+03 </wgt>
<wgt id='1752'> +2.6883218E+03 </wgt>
<wgt id='1753'> +2.5501972E+03 </wgt>
<wgt id='1754'> +2.5997933E+03 </wgt>
<wgt id='1755'> +2.7935180E+03 </wgt>
<wgt id='1756'> +2.5651138E+03 </wgt>
<wgt id='1757'> +2.5846077E+03 </wgt>
<wgt id='1758'> +2.5970250E+03 </wgt>
<wgt id='1759'> +2.5521863E+03 </wgt>
<wgt id='1760'> +2.8120104E+03 </wgt>
<wgt id='1761'> +2.6211978E+03 </wgt>
<wgt id='1762'> +2.5018427E+03 </wgt>
<wgt id='1763'> +2.6247837E+03 </wgt>
<wgt id='1764'> +2.6048453E+03 </wgt>
<wgt id='1765'> +2.6845880E+03 </wgt>
<wgt id='1766'> +2.6888886E+03 </wgt>
<wgt id='1767'> +2.5990419E+03 </wgt>
<wgt id='1768'> +2.6195284E+03 </wgt>
<wgt id='1769'> +2.6060936E+03 </wgt>
<wgt id='1770'> +2.5254089E+03 </wgt>
<wgt id='1771'> +2.6067340E+03 </wgt>
<wgt id='1772'> +2.7604646E+03 </wgt>
<wgt id='1773'> +2.5039362E+03 </wgt>
<wgt id='1774'> +2.6069550E+03 </wgt>
<wgt id='1775'> +2.6631347E+03 </wgt>
<wgt id='1776'> +2.5889745E+03 </wgt>
<wgt id='1777'> +2.6383297E+03 </wgt>
<wgt id='1778'> +2.3405676E+03 </wgt>
<wgt id='1779'> +2.5957154E+03 </wgt>
<wgt id='1780'> +2.6375084E+03 </wgt>
<wgt id='1781'> +2.5878572E+03 </wgt>
<wgt id='1782'> +2.5063417E+03 </wgt>
<wgt id='1783'> +2.6754002E+03 </wgt>
<wgt id='1784'> +2.6373373E+03 </wgt>
<wgt id='1785'> +2.6418410E+03 </wgt>
<wgt id='1786'> +2.6328332E+03 </wgt>
<wgt id='1787'> +2.6314520E+03 </wgt>
<wgt id='1788'> +2.6431816E+03 </wgt>
<wgt id='1789'> +2.6420967E+03 </wgt>
<wgt id='1790'> +2.6325836E+03 </wgt>
<wgt id='1791'> +2.6131190E+03 </wgt>
<wgt id='1792'> +2.6613649E+03 </wgt>
<wgt id='1793'> +2.6544971E+03 </wgt>
<wgt id='1794'> +2.6202586E+03 </wgt>
<wgt id='1795'> +2.6471662E+03 </wgt>
<wgt id='1796'> +2.6274573E+03 </wgt>
<wgt id='1797'> +2.6460934E+03 </wgt>
<wgt id='1798'> +2.6284944E+03 </wgt>
<wgt id='1799'> +2.6467444E+03 </wgt>
<wgt id='1800'> +2.6282662E+03 </wgt>
<wgt id='1801'> +2.6358899E+03 </wgt>
<wgt id='1802'> +2.6368773E+03 </wgt>
<wgt id='1803'> +2.6698490E+03 </wgt>
<wgt id='1804'> +2.6059277E+03 </wgt>
<wgt id='1805'> +2.5463147E+03 </wgt>
<wgt id='1806'> +2.7309055E+03 </wgt>
<wgt id='1807'> +2.9272735E+03 </wgt>
<wgt id='1808'> +2.3923137E+03 </wgt>
<wgt id='1809'> +2.6416601E+03 </wgt>
<wgt id='1810'> +2.6362977E+03 </wgt>
<wgt id='1811'> +2.5876942E+03 </wgt>
<wgt id='1812'> +2.6946349E+03 </wgt>
<wgt id='1813'> +2.6373373E+03 </wgt>
<wgt id='1814'> +2.2897269E+03 </wgt>
<wgt id='1815'> +2.8985254E+03 </wgt>
<wgt id='1816'> +8.6898413E+02 </wgt>
<wgt id='1817'> +8.7142036E+02 </wgt>
<wgt id='1818'> +2.5208555E+03 </wgt>
<wgt id='1819'> +2.6145896E+03 </wgt>
<wgt id='1820'> +2.6329449E+03 </wgt>
<wgt id='1821'> +2.6265530E+03 </wgt>
<wgt id='1822'> +2.6470651E+03 </wgt>
<wgt id='1823'> +2.6119578E+03 </wgt>
<wgt id='1824'> +2.7246431E+03 </wgt>
<wgt id='1825'> +2.5500387E+03 </wgt>
<wgt id='1826'> +2.5114479E+03 </wgt>
<wgt id='1827'> +1.9521851E+03 </wgt>
<wgt id='1828'> +1.9516044E+03 </wgt>
<wgt id='1829'> +1.9495850E+03 </wgt>
<wgt id='1830'> +1.9481163E+03 </wgt>
<wgt id='1831'> +1.9530607E+03 </wgt>
<wgt id='1832'> +1.9539604E+03 </wgt>
<wgt id='1833'> +1.9472328E+03 </wgt>
<wgt id='1834'> +1.9412292E+03 </wgt>
<wgt id='1835'> +1.9598999E+03 </wgt>
<wgt id='1836'> +1.9535758E+03 </wgt>
<wgt id='1837'> +1.9477394E+03 </wgt>
<wgt id='1838'> +1.9556899E+03 </wgt>
<wgt id='1839'> +1.9456230E+03 </wgt>
<wgt id='1840'> +1.9480450E+03 </wgt>
<wgt id='1841'> +1.9531583E+03 </wgt>
<wgt id='1842'> +1.9555668E+03 </wgt>
<wgt id='1843'> +1.9453408E+03 </wgt>
<wgt id='1844'> +1.9417959E+03 </wgt>
<wgt id='1845'> +1.9593056E+03 </wgt>
<wgt id='1846'> +1.9571296E+03 </wgt>
<wgt id='1847'> +1.9443336E+03 </wgt>
<wgt id='1848'> +2.0021367E+03 </wgt>
<wgt id='1849'> +1.8993411E+03 </wgt>
<wgt id='1850'> +2.0378547E+03 </wgt>
<wgt id='1851'> +1.8775723E+03 </wgt>
<wgt id='1852'> +2.1942331E+03 </wgt>
<wgt id='1853'> +1.7742370E+03 </wgt>
<wgt id='1854'> +2.1109726E+03 </wgt>
<wgt id='1855'> +1.8229714E+03 </wgt>
<wgt id='1856'> +1.9510176E+03 </wgt>
<wgt id='1857'> +1.8194655E+03 </wgt>
<wgt id='1858'> +2.0495700E+03 </wgt>
<wgt id='1859'> +1.0839875E+03 </wgt>
<wgt id='1860'> +1.0840600E+03 </wgt>
<wgt id='1861'> +2.1715527E+03 </wgt>
<wgt id='1862'> +2.0854184E+03 </wgt>
<wgt id='1863'> +1.9479545E+03 </wgt>
<wgt id='1864'> +1.8896836E+03 </wgt>
<wgt id='1865'> +2.1544936E+03 </wgt>
<wgt id='1866'> +2.2516371E+03 </wgt>
<wgt id='1867'> +2.2212435E+03 </wgt>
<wgt id='1868'> +1.7050960E+03 </wgt>
<wgt id='1869'> +1.9811276E+03 </wgt>
<wgt id='1870'> +2.3350349E+03 </wgt>
<wgt id='1871'> +2.3341429E+03 </wgt>
<wgt id='1872'> +2.3332515E+03 </wgt>
<wgt id='1873'> +2.3323610E+03 </wgt>
<wgt id='1874'> +2.3314589E+03 </wgt>
<wgt id='1875'> +2.3305681E+03 </wgt>
<wgt id='1876'> +2.3296782E+03 </wgt>
<wgt id='1877'> +2.3287879E+03 </wgt>
<wgt id='1878'> +2.3278965E+03 </wgt>
<wgt id='1879'> +2.3270074E+03 </wgt>
<wgt id='1880'> +2.3261127E+03 </wgt>
<wgt id='1881'> +2.3252230E+03 </wgt>
<wgt id='1882'> +2.3243268E+03 </wgt>
<wgt id='1883'> +2.3234377E+03 </wgt>
<wgt id='1884'> +2.3225460E+03 </wgt>
<wgt id='1885'> +2.3216550E+03 </wgt>
<wgt id='1886'> +2.3207649E+03 </wgt>
<wgt id='1887'> +2.3198747E+03 </wgt>
<wgt id='1888'> +2.3189809E+03 </wgt>
<wgt id='1889'> +2.3180952E+03 </wgt>
<wgt id='1890'> +2.3171982E+03 </wgt>
<wgt id='1891'> +2.3163062E+03 </wgt>
<wgt id='1892'> +2.3154178E+03 </wgt>
<wgt id='1893'> +2.3145290E+03 </wgt>
<wgt id='1894'> +2.3136383E+03 </wgt>
<wgt id='1895'> +2.3127528E+03 </wgt>
<wgt id='1896'> +2.3118639E+03 </wgt>
<wgt id='1897'> +2.3109742E+03 </wgt>
<wgt id='1898'> +2.3100862E+03 </wgt>
<wgt id='1899'> +2.3091900E+03 </wgt>
<wgt id='1900'> +2.3083024E+03 </wgt>
<wgt id='1901'> +2.5762715E+03 </wgt>
<wgt id='1902'> +2.5794348E+03 </wgt>
<wgt id='1903'> +2.6310114E+03 </wgt>
<wgt id='1904'> +2.5386209E+03 </wgt>
<wgt id='1905'> +2.4793982E+03 </wgt>
<wgt id='1906'> +2.4781051E+03 </wgt>
<wgt id='1907'> +2.5045823E+03 </wgt>
<wgt id='1908'> +2.5858828E+03 </wgt>
<wgt id='1909'> +2.5929116E+03 </wgt>
<wgt id='1910'> +2.5332361E+03 </wgt>
<wgt id='1911'> +2.5991504E+03 </wgt>
<wgt id='1912'> +2.4304469E+03 </wgt>
<wgt id='1913'> +2.5436256E+03 </wgt>
<wgt id='1914'> +2.5292955E+03 </wgt>
<wgt id='1915'> +2.6238708E+03 </wgt>
<wgt id='1916'> +2.6117696E+03 </wgt>
<wgt id='1917'> +2.5704533E+03 </wgt>
<wgt id='1918'> +2.6433426E+03 </wgt>
<wgt id='1919'> +2.4436313E+03 </wgt>
<wgt id='1920'> +2.6924519E+03 </wgt>
<wgt id='1921'> +2.5699404E+03 </wgt>
<wgt id='1922'> +2.6287169E+03 </wgt>
<wgt id='1923'> +2.7009429E+03 </wgt>
<wgt id='1924'> +2.7190711E+03 </wgt>
<wgt id='1925'> +2.4871378E+03 </wgt>
<wgt id='1926'> +2.5715288E+03 </wgt>
<wgt id='1927'> +2.6762916E+03 </wgt>
<wgt id='1928'> +2.5094499E+03 </wgt>
<wgt id='1929'> +2.5947875E+03 </wgt>
<wgt id='1930'> +2.6559307E+03 </wgt>
<wgt id='1931'> +2.5595068E+03 </wgt>
<wgt id='1932'> +2.6593566E+03 </wgt>
<wgt id='1933'> +2.4579666E+03 </wgt>
<wgt id='1934'> +2.5744165E+03 </wgt>
<wgt id='1935'> +2.5396713E+03 </wgt>
<wgt id='1936'> +2.5513672E+03 </wgt>
<wgt id='1937'> +2.5532242E+03 </wgt>
<wgt id='1938'> +2.5131459E+03 </wgt>
<wgt id='1939'> +2.4696153E+03 </wgt>
<wgt id='1940'> +2.5458436E+03 </wgt>
<wgt id='1941'> +2.5733289E+03 </wgt>
<wgt id='1942'> +2.7130259E+03 </wgt>
<wgt id='1943'> +2.5976134E+03 </wgt>
<wgt id='1944'> +2.6442591E+03 </wgt>
<wgt id='1945'> +2.5695065E+03 </wgt>
<wgt id='1946'> +2.6014342E+03 </wgt>
<wgt id='1947'> +2.6131766E+03 </wgt>
<wgt id='1948'> +2.6055468E+03 </wgt>
<wgt id='1949'> +2.5556627E+03 </wgt>
<wgt id='1950'> +2.6013992E+03 </wgt>
<wgt id='1951'> +2.5631747E+03 </wgt>
<wgt id='1952'> +2.5791166E+03 </wgt>
<wgt id='1953'> +2.6236651E+03 </wgt>
<wgt id='1954'> +2.5943495E+03 </wgt>
<wgt id='1955'> +2.5617807E+03 </wgt>
<wgt id='1956'> +2.5265937E+03 </wgt>
<wgt id='1957'> +2.6315782E+03 </wgt>
<wgt id='1958'> +2.5871218E+03 </wgt>
<wgt id='1959'> +2.5051683E+03 </wgt>
<wgt id='1960'> +2.5422597E+03 </wgt>
<wgt id='1961'> +2.5690797E+03 </wgt>
<wgt id='1962'> +2.5937794E+03 </wgt>
<wgt id='1963'> +2.5914025E+03 </wgt>
<wgt id='1964'> +2.5946805E+03 </wgt>
<wgt id='1965'> +2.5581111E+03 </wgt>
<wgt id='1966'> +2.5789628E+03 </wgt>
<wgt id='1967'> +2.5429884E+03 </wgt>
<wgt id='1968'> +2.5775946E+03 </wgt>
<wgt id='1969'> +2.5619000E+03 </wgt>
<wgt id='1970'> +2.5642517E+03 </wgt>
<wgt id='1971'> +2.5701954E+03 </wgt>
<wgt id='1972'> +2.6239671E+03 </wgt>
<wgt id='1973'> +2.5808460E+03 </wgt>
<wgt id='1974'> +2.5725647E+03 </wgt>
<wgt id='1975'> +2.5868614E+03 </wgt>
<wgt id='1976'> +2.5841248E+03 </wgt>
<wgt id='1977'> +2.5733774E+03 </wgt>
<wgt id='1978'> +2.5822671E+03 </wgt>
<wgt id='1979'> +2.5855892E+03 </wgt>
<wgt id='1980'> +2.5953610E+03 </wgt>
<wgt id='1981'> +2.5755538E+03 </wgt>
<wgt id='1982'> +2.5855136E+03 </wgt>
<wgt id='1983'> +2.5818989E+03 </wgt>
<wgt id='1984'> +2.5639637E+03 </wgt>
<wgt id='1985'> +2.5912449E+03 </wgt>
<wgt id='1986'> +2.5776483E+03 </wgt>
<wgt id='1987'> +2.5940836E+03 </wgt>
<wgt id='1988'> +2.5638677E+03 </wgt>
<wgt id='1989'> +2.5725672E+03 </wgt>
<wgt id='1990'> +2.5711190E+03 </wgt>
<wgt id='1991'> +2.5817003E+03 </wgt>
<wgt id='1992'> +2.5690974E+03 </wgt>
<wgt id='1993'> +2.5729034E+03 </wgt>
<wgt id='1994'> +2.5750606E+03 </wgt>
<wgt id='1995'> +2.5771883E+03 </wgt>
<wgt id='1996'> +2.5794626E+03 </wgt>
<wgt id='1997'> +2.5916451E+03 </wgt>
<wgt id='1998'> +2.5696574E+03 </wgt>
<wgt id='1999'> +2.5927800E+03 </wgt>
<wgt id='2000'> +2.5538107E+03 </wgt>
<wgt id='2001'> +2.5856310E+03 </wgt>
<wgt id='2002'> +2.5762535E+03 </wgt>
<wgt id='2003'> +2.5761516E+03 </wgt>
<wgt id='2004'> +2.5762904E+03 </wgt>
<wgt id='2005'> +2.5762934E+03 </wgt>
<wgt id='2006'> +2.5763271E+03 </wgt>
<wgt id='2007'> +2.5762796E+03 </wgt>
<wgt id='2008'> +2.5761910E+03 </wgt>
<wgt id='2009'> +2.7054180E+03 </wgt>
<wgt id='2010'> +2.5047218E+03 </wgt>
<wgt id='2011'> +2.5146125E+03 </wgt>
<wgt id='2012'> +2.6946349E+03 </wgt>
<wgt id='2013'> +2.6302347E+03 </wgt>
<wgt id='2014'> +2.4606792E+03 </wgt>
<wgt id='2015'> +2.3117609E+03 </wgt>
<wgt id='2016'> +2.1471780E+03 </wgt>
<wgt id='2017'> +2.7004420E+03 </wgt>
<wgt id='2018'> +2.8577499E+03 </wgt>
<wgt id='2019'> +2.9953001E+03 </wgt>
<wgt id='2020'> +2.9389473E+03 </wgt>
<wgt id='2021'> +2.1081152E+03 </wgt>
<wgt id='2022'> +2.5847792E+03 </wgt>
<wgt id='2023'> +2.8170063E+03 </wgt>
<wgt id='2024'> +2.7602935E+03 </wgt>
<wgt id='2025'> +2.5766261E+03 </wgt>
<wgt id='2026'> +2.8006758E+03 </wgt>
<wgt id='2027'> +4.1097344E+03 </wgt>
<wgt id='2028'> +2.7740130E+03 </wgt>
<wgt id='2029'> +2.4864305E+03 </wgt>
<wgt id='2030'> +2.2000922E+03 </wgt>
<wgt id='2031'> +2.4646467E+03 </wgt>
<wgt id='2032'> +2.9646837E+03 </wgt>
<wgt id='2033'> +3.3225221E+03 </wgt>
<wgt id='2034'> +2.8765960E+03 </wgt>
<wgt id='2035'> +2.8664472E+03 </wgt>
<wgt id='2036'> +2.7579094E+03 </wgt>
<wgt id='2037'> +2.6012294E+03 </wgt>
<wgt id='2038'> +2.6851274E+03 </wgt>
<wgt id='2039'> +2.4140741E+03 </wgt>
<wgt id='2040'> +2.6945185E+03 </wgt>
<wgt id='2041'> +2.4441366E+03 </wgt>
<wgt id='2042'> +2.4824136E+03 </wgt>
<wgt id='2043'> +2.5710477E+03 </wgt>
<wgt id='2044'> +2.5316479E+03 </wgt>
<wgt id='2045'> +2.3965051E+03 </wgt>
<wgt id='2046'> +2.2993444E+03 </wgt>
<wgt id='2047'> +2.3449571E+03 </wgt>
<wgt id='2048'> +2.9143453E+03 </wgt>
<wgt id='2049'> +2.7101919E+03 </wgt>
<wgt id='2050'> +2.3614949E+03 </wgt>
<wgt id='2051'> +2.7132824E+03 </wgt>
<wgt id='2052'> +2.7450924E+03 </wgt>
<wgt id='2053'> +2.7280851E+03 </wgt>
<wgt id='2054'> +2.9565862E+03 </wgt>
<wgt id='2055'> +3.4959964E+03 </wgt>
<wgt id='2056'> +2.6559122E+03 </wgt>
<wgt id='2057'> +2.6360177E+03 </wgt>
<wgt id='2058'> +2.1496240E+03 </wgt>
<wgt id='2059'> +2.2383834E+03 </wgt>
<wgt id='2060'> +2.1926337E+03 </wgt>
<wgt id='2061'> +2.4225841E+03 </wgt>
<wgt id='2062'> +2.6983259E+03 </wgt>
<wgt id='2063'> +3.0030739E+03 </wgt>
<wgt id='2064'> +2.5850544E+03 </wgt>
<wgt id='2065'> +3.4801273E+03 </wgt>
<wgt id='2066'> +2.8762874E+03 </wgt>
<wgt id='2067'> +2.4322984E+03 </wgt>
<wgt id='2068'> +3.1161170E+03 </wgt>
<wgt id='2069'> +2.4636731E+03 </wgt>
<wgt id='2070'> +2.5234943E+03 </wgt>
<wgt id='2071'> +2.7304177E+03 </wgt>
<wgt id='2072'> +2.8198839E+03 </wgt>
<wgt id='2073'> +4.5245891E+03 </wgt>
<wgt id='2074'> +3.0137841E+03 </wgt>
<wgt id='2075'> +2.7190135E+03 </wgt>
<wgt id='2076'> +2.8558203E+03 </wgt>
<wgt id='2077'> +2.5664401E+03 </wgt>
<wgt id='2078'> +2.5827490E+03 </wgt>
<wgt id='2079'> +2.2893725E+03 </wgt>
<wgt id='2080'> +2.5030925E+03 </wgt>
<wgt id='2081'> +2.5119510E+03 </wgt>
<wgt id='2082'> +2.6687573E+03 </wgt>
<wgt id='2083'> +2.8480832E+03 </wgt>
<wgt id='2084'> +2.9221831E+03 </wgt>
<wgt id='2085'> +2.2309832E+03 </wgt>
<wgt id='2086'> +2.8031776E+03 </wgt>
<wgt id='2087'> +2.5232214E+03 </wgt>
<wgt id='2088'> +2.3280909E+03 </wgt>
<wgt id='2089'> +2.9366621E+03 </wgt>
<wgt id='2090'> +2.8564258E+03 </wgt>
<wgt id='2091'> +2.4953034E+03 </wgt>
<wgt id='2092'> +3.0930311E+03 </wgt>
<wgt id='2093'> +2.5706243E+03 </wgt>
<wgt id='2094'> +2.9054836E+03 </wgt>
<wgt id='2095'> +3.1322362E+03 </wgt>
<wgt id='2096'> +2.4942451E+03 </wgt>
<wgt id='2097'> +2.7144711E+03 </wgt>
<wgt id='2098'> +3.1626322E+03 </wgt>
<wgt id='2099'> +2.4099467E+03 </wgt>
<wgt id='2100'> +2.6691422E+03 </wgt>
<wgt id='2101'> +2.3956004E+03 </wgt>
<wgt id='2102'> +2.6133833E+03 </wgt>
<wgt id='2103'> +2.9797608E+03 </wgt>
<wgt id='2104'> +2.9154457E+03 </wgt>
<wgt id='2105'> +2.2630522E+03 </wgt>
<wgt id='2106'> +3.1915885E+03 </wgt>
<wgt id='2107'> +2.5969957E+03 </wgt>
<wgt id='2108'> +2.9140669E+03 </wgt>
<wgt id='2109'> +2.9519895E+03 </wgt>
<wgt id='2110'> +2.5867314E+03 </wgt>
<wgt id='2111'> +2.7691331E+03 </wgt>
<wgt id='2112'> +2.7212595E+03 </wgt>
<wgt id='2113'> +1.2337637E+03 </wgt>
<wgt id='2114'> +1.7438377E+03 </wgt>
<wgt id='2115'> +2.9246359E+03 </wgt>
<wgt id='2116'> +3.6066554E+03 </wgt>
</rwgt>
</event>
<event>
 8      3 +2.9771057E+03 2.80662000e+02 7.54677100e-03 1.00921800e-01
       21 -1    0    0  503  502 +0.0000000000e+00 +0.0000000000e+00 +6.3908829134e+02 6.3908829134e+02 0.0000000000e+00 0.0000e+00 1.0000e+00
       -3 -1    0    0    0  501 -0.0000000000e+00 -0.0000000000e+00 -3.7032315271e+02 3.7032315271e+02 0.0000000000e+00 0.0000e+00 1.0000e+00
       24  2    1    2    0    0 +5.9013691354e+01 -2.9764028716e+01 +1.5890331936e+02 1.9039997798e+02 8.1445524968e+01 0.0000e+00 0.0000e+00
      -15  1    3    3    0    0 +6.3897661797e+01 -5.1766675560e+01 +1.2128110764e+02 1.4654338839e+02 1.7770000000e+00 0.0000e+00 1.0000e+00
       16  1    3    3    0    0 -4.8839704435e+00 +2.2002646844e+01 +3.7622211721e+01 4.3856589587e+01 0.0000000000e+00 0.0000e+00 -1.0000e+00
       21  1    1    2  503  501 -2.4306022903e+01 -2.4181736138e+01 -3.3860174833e+02 3.4033319422e+02 0.0000000000e+00 0.0000e+00 1.0000e+00
       21  1    1    2  504  502 +4.2407062097e+00 -4.2200399274e+01 +4.3959010318e+01 6.1083973971e+01 0.0000000000e+00 0.0000e+00 1.0000e+00
       -4  1    1    2    0  504 -3.8948374660e+01 +9.6146164128e+01 +4.0450455728e+02 4.1759429788e+02 0.0000000000e+00 0.0000e+00 1.0000e+00
<scales pt_clust_4="13000.00000" pt_clust_5="13000.00000" pt_clust_6="34.28614" pt_clust_7="107.57511" pt_clust_8="13000.00000"></scales>
<mgrwt>
<rscale>  1 0.28066202E+03</rscale>
<asrwt>  2 0.34286136E+02 0.10757511E+03</asrwt>
<pdfrwt beam="1">  1       21 0.98321276E-01 0.28066202E+03</pdfrwt>
<pdfrwt beam="2">  1       -3 0.56972792E-01 0.28066202E+03</pdfrwt>
<totfact> 0.26426702E-01</totfact>
</mgrwt>
<clustering>
<clus scale="   34.286">  2  6  1 -1</clus>
<clus scale="   81.446">  4  5 -1 -1</clus>
<clus scale="  107.575">  7  8 -1 -1</clus>
<clus scale="  166.865">  4  7 -1 -1</clus>
<clus scale="  280.662">  1  4  2 -1</clus>
</clustering>
<rwgt>
<wgt id='1001'> +2.9771057E+03 </wgt>
<wgt id='1002'> +2.9660191E+03 </wgt>
<wgt id='1003'> +2.9659874E+03 </wgt>
<wgt id='1004'> +3.5015109E+03 </wgt>
<wgt id='1005'> +2.2652422E+03 </wgt>
<wgt id='1006'> +2.7343143E+03 </wgt>
<wgt id='1007'> +2.7246037E+03 </wgt>
<wgt id='1008'> +2.7245759E+03 </wgt>
<wgt id='1009'> +3.1901281E+03 </wgt>
<wgt id='1010'> +2.1048445E+03 </wgt>
<wgt id='1011'> +3.2683911E+03 </wgt>
<wgt id='1012'> +3.2555288E+03 </wgt>
<wgt id='1013'> +3.2554921E+03 </wgt>
<wgt id='1014'> +3.8821544E+03 </wgt>
<wgt id='1015'> +2.4526562E+03 </wgt>
<wgt id='1016'> +2.7732796E+03 </wgt>
<wgt id='1017'> +2.7630781E+03 </wgt>
<wgt id='1018'> +2.7630488E+03 </wgt>
<wgt id='1019'> +3.2554921E+03 </wgt>
<wgt id='1020'> +2.1189480E+03 </wgt>
<wgt id='1021'> +2.5471109E+03 </wgt>
<wgt id='1022'> +2.5381808E+03 </wgt>
<wgt id='1023'> +2.5381552E+03 </wgt>
<wgt id='1024'> +2.9659874E+03 </wgt>
<wgt id='1025'> +1.9689091E+03 </wgt>
<wgt id='1026'> +3.0446222E+03 </wgt>
<wgt id='1027'> +3.0327789E+03 </wgt>
<wgt id='1028'> +3.0327452E+03 </wgt>
<wgt id='1029'> +3.6093915E+03 </wgt>
<wgt id='1030'> +2.2942584E+03 </wgt>
<wgt id='1031'> +3.2022097E+03 </wgt>
<wgt id='1032'> +3.1901626E+03 </wgt>
<wgt id='1033'> +3.1901281E+03 </wgt>
<wgt id='1034'> +3.7702633E+03 </wgt>
<wgt id='1035'> +2.4276031E+03 </wgt>
<wgt id='1036'> +2.9410605E+03 </wgt>
<wgt id='1037'> +2.9305033E+03 </wgt>
<wgt id='1038'> +2.9304730E+03 </wgt>
<wgt id='1039'> +3.4349812E+03 </wgt>
<wgt id='1040'> +2.2557089E+03 </wgt>
<wgt id='1041'> +3.5155195E+03 </wgt>
<wgt id='1042'> +3.5015507E+03 </wgt>
<wgt id='1043'> +3.5015109E+03 </wgt>
<wgt id='1044'> +4.1801226E+03 </wgt>
<wgt id='1045'> +2.6284501E+03 </wgt>
<wgt id='1046'> +2.9771057E+03 </wgt>
<wgt id='1047'> +2.9795437E+03 </wgt>
<wgt id='1048'> +2.9828889E+03 </wgt>
<wgt id='1049'> +2.9703389E+03 </wgt>
<wgt id='1050'> +2.9732047E+03 </wgt>
<wgt id='1051'> +2.9741825E+03 </wgt>
<wgt id='1052'> +2.9753297E+03 </wgt>
<wgt id='1053'> +2.9699705E+03 </wgt>
<wgt id='1054'> +2.9711442E+03 </wgt>
<wgt id='1055'> +2.9668788E+03 </wgt>
<wgt id='1056'> +2.9860665E+03 </wgt>
<wgt id='1057'> +2.9671626E+03 </wgt>
<wgt id='1058'> +2.9629784E+03 </wgt>
<wgt id='1059'> +2.9671517E+03 </wgt>
<wgt id='1060'> +2.9799375E+03 </wgt>
<wgt id='1061'> +2.9779329E+03 </wgt>
<wgt id='1062'> +2.9751274E+03 </wgt>
<wgt id='1063'> +2.9858891E+03 </wgt>
<wgt id='1064'> +2.9726835E+03 </wgt>
<wgt id='1065'> +2.9735434E+03 </wgt>
<wgt id='1066'> +2.9700638E+03 </wgt>
<wgt id='1067'> +2.9627219E+03 </wgt>
<wgt id='1068'> +2.9664698E+03 </wgt>
<wgt id='1069'> +2.9781231E+03 </wgt>
<wgt id='1070'> +2.9723706E+03 </wgt>
<wgt id='1071'> +2.9644738E+03 </wgt>
<wgt id='1072'> +3.0051789E+03 </wgt>
<wgt id='1073'> +2.9851689E+03 </wgt>
<wgt id='1074'> +2.9649682E+03 </wgt>
<wgt id='1075'> +3.0327427E+03 </wgt>
<wgt id='1076'> +3.0147669E+03 </wgt>
<wgt id='1077'> +2.9563460E+03 </wgt>
<wgt id='1078'> +2.9769181E+03 </wgt>
<wgt id='1079'> +2.9790606E+03 </wgt>
<wgt id='1080'> +2.9924035E+03 </wgt>
<wgt id='1081'> +2.9157944E+03 </wgt>
<wgt id='1082'> +2.9547800E+03 </wgt>
<wgt id='1083'> +3.0188861E+03 </wgt>
<wgt id='1084'> +2.9543030E+03 </wgt>
<wgt id='1085'> +2.9787337E+03 </wgt>
<wgt id='1086'> +2.9856964E+03 </wgt>
<wgt id='1087'> +2.9769582E+03 </wgt>
<wgt id='1088'> +2.9604562E+03 </wgt>
<wgt id='1089'> +2.9573664E+03 </wgt>
<wgt id='1090'> +2.9528381E+03 </wgt>
<wgt id='1091'> +3.0290591E+03 </wgt>
<wgt id='1092'> +2.9734176E+03 </wgt>
<wgt id='1093'> +2.9439014E+03 </wgt>
<wgt id='1094'> +3.0053079E+03 </wgt>
<wgt id='1095'> +2.9734481E+03 </wgt>
<wgt id='1096'> +3.0205722E+03 </wgt>
<wgt id='1097'> +2.9701531E+03 </wgt>
<wgt id='1098'> +2.9869122E+03 </wgt>
<wgt id='1099'> +2.9785154E+03 </wgt>
<wgt id='1100'> +2.9596829E+03 </wgt>
<wgt id='1101'> +2.9737491E+03 </wgt>
<wgt id='1102'> +2.9509839E+03 </wgt>
<wgt id='1103'> +2.9844367E+03 </wgt>
<wgt id='1104'> +2.9668333E+03 </wgt>
<wgt id='1105'> +2.9835990E+03 </wgt>
<wgt id='1106'> +2.9766981E+03 </wgt>
<wgt id='1107'> +2.9574742E+03 </wgt>
<wgt id='1108'> +2.9814843E+03 </wgt>
<wgt id='1109'> +2.9772602E+03 </wgt>
<wgt id='1110'> +2.9798991E+03 </wgt>
<wgt id='1111'> +2.9730081E+03 </wgt>
<wgt id='1112'> +2.9860872E+03 </wgt>
<wgt id='1113'> +2.9621096E+03 </wgt>
<wgt id='1114'> +2.9782720E+03 </wgt>
<wgt id='1115'> +2.9712515E+03 </wgt>
<wgt id='1116'> +2.9798870E+03 </wgt>
<wgt id='1117'> +2.9508350E+03 </wgt>
<wgt id='1118'> +3.0031750E+03 </wgt>
<wgt id='1119'> +2.9737698E+03 </wgt>
<wgt id='1120'> +2.9902096E+03 </wgt>
<wgt id='1121'> +2.9886593E+03 </wgt>
<wgt id='1122'> +2.9687724E+03 </wgt>
<wgt id='1123'> +2.9737546E+03 </wgt>
<wgt id='1124'> +2.9739352E+03 </wgt>
<wgt id='1125'> +2.9889682E+03 </wgt>
<wgt id='1126'> +2.9980701E+03 </wgt>
<wgt id='1127'> +2.9664880E+03 </wgt>
<wgt id='1128'> +2.9736529E+03 </wgt>
<wgt id='1129'> +2.9667789E+03 </wgt>
<wgt id='1130'> +2.9807487E+03 </wgt>
<wgt id='1131'> +2.9717873E+03 </wgt>
<wgt id='1132'> +2.9820760E+03 </wgt>
<wgt id='1133'> +2.9723037E+03 </wgt>
<wgt id='1134'> +2.9710894E+03 </wgt>
<wgt id='1135'> +2.9687616E+03 </wgt>
<wgt id='1136'> +2.9595773E+03 </wgt>
<wgt id='1137'> +2.9708132E+03 </wgt>
<wgt id='1138'> +2.9774106E+03 </wgt>
<wgt id='1139'> +2.9691866E+03 </wgt>
<wgt id='1140'> +2.9818040E+03 </wgt>
<wgt id='1141'> +2.9658739E+03 </wgt>
<wgt id='1142'> +2.9726739E+03 </wgt>
<wgt id='1143'> +2.9922302E+03 </wgt>
<wgt id='1144'> +2.9669733E+03 </wgt>
<wgt id='1145'> +2.9746767E+03 </wgt>
<wgt id='1146'> +2.9775339E+03 </wgt>
<wgt id='1147'> +2.8262721E+03 </wgt>
<wgt id='1148'> +3.1654478E+03 </wgt>
<wgt id='1149'> +2.1772746E+03 </wgt>
<wgt id='1150'> +2.3180929E+03 </wgt>
<wgt id='1151'> +2.4591903E+03 </wgt>
<wgt id='1152'> +2.6194951E+03 </wgt>
<wgt id='1153'> +2.8945605E+03 </wgt>
<wgt id='1154'> +3.0609097E+03 </wgt>
<wgt id='1155'> +3.3423163E+03 </wgt>
<wgt id='1156'> +3.5252397E+03 </wgt>
<wgt id='1157'> +2.9060443E+03 </wgt>
<wgt id='1158'> +2.9042223E+03 </wgt>
<wgt id='1159'> +2.9096241E+03 </wgt>
<wgt id='1160'> +2.9080056E+03 </wgt>
<wgt id='1161'> +2.9004981E+03 </wgt>
<wgt id='1162'> +2.8930769E+03 </wgt>
<wgt id='1163'> +2.9090388E+03 </wgt>
<wgt id='1164'> +2.9097336E+03 </wgt>
<wgt id='1165'> +2.9054391E+03 </wgt>
<wgt id='1166'> +2.9124709E+03 </wgt>
<wgt id='1167'> +2.9135612E+03 </wgt>
<wgt id='1168'> +2.8977620E+03 </wgt>
<wgt id='1169'> +2.8936676E+03 </wgt>
<wgt id='1170'> +2.9158897E+03 </wgt>
<wgt id='1171'> +2.8987044E+03 </wgt>
<wgt id='1172'> +2.9007786E+03 </wgt>
<wgt id='1173'> +2.9058969E+03 </wgt>
<wgt id='1174'> +2.8957123E+03 </wgt>
<wgt id='1175'> +2.8992899E+03 </wgt>
<wgt id='1176'> +2.9083996E+03 </wgt>
<wgt id='1177'> +2.9067625E+03 </wgt>
<wgt id='1178'> +2.9143756E+03 </wgt>
<wgt id='1179'> +2.9036703E+03 </wgt>
<wgt id='1180'> +2.9030889E+03 </wgt>
<wgt id='1181'> +2.9115359E+03 </wgt>
<wgt id='1182'> +2.9121743E+03 </wgt>
<wgt id='1183'> +2.9065353E+03 </wgt>
<wgt id='1184'> +2.8873168E+03 </wgt>
<wgt id='1185'> +2.9068831E+03 </wgt>
<wgt id='1186'> +2.8855883E+03 </wgt>
<wgt id='1187'> +2.9250959E+03 </wgt>
<wgt id='1188'> +2.9046082E+03 </wgt>
<wgt id='1189'> +2.9152714E+03 </wgt>
<wgt id='1190'> +2.8972990E+03 </wgt>
<wgt id='1191'> +2.9006735E+03 </wgt>
<wgt id='1192'> +2.9215624E+03 </wgt>
<wgt id='1193'> +2.9355768E+03 </wgt>
<wgt id='1194'> +2.9251483E+03 </wgt>
<wgt id='1195'> +2.9284091E+03 </wgt>
<wgt id='1196'> +2.9156286E+03 </wgt>
<wgt id='1197'> +2.9195770E+03 </wgt>
<wgt id='1198'> +2.9191507E+03 </wgt>
<wgt id='1199'> +2.9092987E+03 </wgt>
<wgt id='1200'> +2.9034155E+03 </wgt>
<wgt id='1201'> +2.9237366E+03 </wgt>
<wgt id='1202'> +2.9115915E+03 </wgt>
<wgt id='1203'> +2.9275381E+03 </wgt>
<wgt id='1204'> +2.8910858E+03 </wgt>
<wgt id='1205'> +2.8770789E+03 </wgt>
<wgt id='1206'> +2.9189553E+03 </wgt>
<wgt id='1207'> +2.8974612E+03 </wgt>
<wgt id='1208'> +2.8909067E+03 </wgt>
<wgt id='1209'> +2.9021990E+03 </wgt>
<wgt id='1210'> +2.9300451E+03 </wgt>
<wgt id='1211'> +2.8832239E+03 </wgt>
<wgt id='1212'> +2.9052799E+03 </wgt>
<wgt id='1213'> +2.9426893E+03 </wgt>
<wgt id='1214'> +2.9073005E+03 </wgt>
<wgt id='1215'> +2.9440845E+03 </wgt>
<wgt id='1216'> +2.9040574E+03 </wgt>
<wgt id='1217'> +2.8917129E+03 </wgt>
<wgt id='1218'> +2.9082207E+03 </wgt>
<wgt id='1219'> +2.9319719E+03 </wgt>
<wgt id='1220'> +2.9118876E+03 </wgt>
<wgt id='1221'> +2.9095158E+03 </wgt>
<wgt id='1222'> +2.9170179E+03 </wgt>
<wgt id='1223'> +2.9088805E+03 </wgt>
<wgt id='1224'> +2.8855504E+03 </wgt>
<wgt id='1225'> +2.8783031E+03 </wgt>
<wgt id='1226'> +2.9110572E+03 </wgt>
<wgt id='1227'> +2.8997147E+03 </wgt>
<wgt id='1228'> +2.9156701E+03 </wgt>
<wgt id='1229'> +2.9033535E+03 </wgt>
<wgt id='1230'> +2.8868662E+03 </wgt>
<wgt id='1231'> +2.9160888E+03 </wgt>
<wgt id='1232'> +2.9111094E+03 </wgt>
<wgt id='1233'> +2.9189752E+03 </wgt>
<wgt id='1234'> +2.9016455E+03 </wgt>
<wgt id='1235'> +2.8931810E+03 </wgt>
<wgt id='1236'> +2.9140512E+03 </wgt>
<wgt id='1237'> +2.9029718E+03 </wgt>
<wgt id='1238'> +2.8903150E+03 </wgt>
<wgt id='1239'> +2.9038817E+03 </wgt>
<wgt id='1240'> +2.9077277E+03 </wgt>
<wgt id='1241'> +2.9032967E+03 </wgt>
<wgt id='1242'> +2.9001739E+03 </wgt>
<wgt id='1243'> +2.9105184E+03 </wgt>
<wgt id='1244'> +2.9083797E+03 </wgt>
<wgt id='1245'> +2.9131019E+03 </wgt>
<wgt id='1246'> +2.8766100E+03 </wgt>
<wgt id='1247'> +2.9042454E+03 </wgt>
<wgt id='1248'> +2.9196885E+03 </wgt>
<wgt id='1249'> +2.9168840E+03 </wgt>
<wgt id='1250'> +2.8994708E+03 </wgt>
<wgt id='1251'> +2.9179189E+03 </wgt>
<wgt id='1252'> +2.9252263E+03 </wgt>
<wgt id='1253'> +2.9112720E+03 </wgt>
<wgt id='1254'> +2.8908210E+03 </wgt>
<wgt id='1255'> +2.8917181E+03 </wgt>
<wgt id='1256'> +2.9219392E+03 </wgt>
<wgt id='1257'> +2.8994745E+03 </wgt>
<wgt id='1258'> +2.7504135E+03 </wgt>
<wgt id='1259'> +3.0764586E+03 </wgt>
<wgt id='1260'> +3.2656944E+03 </wgt>
<wgt id='1261'> +3.2251714E+03 </wgt>
<wgt id='1262'> +3.2749306E+03 </wgt>
<wgt id='1263'> +3.3370115E+03 </wgt>
<wgt id='1264'> +3.1867932E+03 </wgt>
<wgt id='1265'> +3.2259875E+03 </wgt>
<wgt id='1266'> +3.1819844E+03 </wgt>
<wgt id='1267'> +3.2220358E+03 </wgt>
<wgt id='1268'> +3.2465475E+03 </wgt>
<wgt id='1269'> +3.1947383E+03 </wgt>
<wgt id='1270'> +3.2926515E+03 </wgt>
<wgt id='1271'> +3.0571508E+03 </wgt>
<wgt id='1272'> +3.4999426E+03 </wgt>
<wgt id='1273'> +3.4186534E+03 </wgt>
<wgt id='1274'> +3.2444713E+03 </wgt>
<wgt id='1275'> +3.2274531E+03 </wgt>
<wgt id='1276'> +3.3696583E+03 </wgt>
<wgt id='1277'> +3.2156289E+03 </wgt>
<wgt id='1278'> +3.3169705E+03 </wgt>
<wgt id='1279'> +3.3064502E+03 </wgt>
<wgt id='1280'> +3.2243432E+03 </wgt>
<wgt id='1281'> +3.2400722E+03 </wgt>
<wgt id='1282'> +3.2818051E+03 </wgt>
<wgt id='1283'> +3.2430185E+03 </wgt>
<wgt id='1284'> +3.2909100E+03 </wgt>
<wgt id='1285'> +3.3118020E+03 </wgt>
<wgt id='1286'> +3.2278567E+03 </wgt>
<wgt id='1287'> +3.2365412E+03 </wgt>
<wgt id='1288'> +3.3145177E+03 </wgt>
<wgt id='1289'> +3.3219181E+03 </wgt>
<wgt id='1290'> +3.2315935E+03 </wgt>
<wgt id='1291'> +3.2752095E+03 </wgt>
<wgt id='1292'> +3.2511873E+03 </wgt>
<wgt id='1293'> +3.2582147E+03 </wgt>
<wgt id='1294'> +3.2736653E+03 </wgt>
<wgt id='1295'> +3.3438146E+03 </wgt>
<wgt id='1296'> +3.1990796E+03 </wgt>
<wgt id='1297'> +3.1634316E+03 </wgt>
<wgt id='1298'> +3.3839847E+03 </wgt>
<wgt id='1299'> +2.7982358E+03 </wgt>
<wgt id='1300'> +3.6611642E+03 </wgt>
<wgt id='1301'> +3.2316006E+03 </wgt>
<wgt id='1302'> +3.2910567E+03 </wgt>
<wgt id='1303'> +3.3011356E+03 </wgt>
<wgt id='1304'> +3.3087219E+03 </wgt>
<wgt id='1305'> +3.1853040E+03 </wgt>
<wgt id='1306'> +3.2071739E+03 </wgt>
<wgt id='1307'> +3.2617523E+03 </wgt>
<wgt id='1308'> +3.2020364E+03 </wgt>
<wgt id='1309'> +3.2451954E+03 </wgt>
<wgt id='1310'> +3.2991974E+03 </wgt>
<wgt id='1311'> +3.2840960E+03 </wgt>
<wgt id='1312'> +3.2515690E+03 </wgt>
<wgt id='1313'> +3.1651854E+03 </wgt>
<wgt id='1314'> +3.2489809E+03 </wgt>
<wgt id='1315'> +3.3207457E+03 </wgt>
<wgt id='1316'> +2.8533776E+03 </wgt>
<wgt id='1317'> +3.0631587E+03 </wgt>
<wgt id='1318'> +3.4760009E+03 </wgt>
<wgt id='1319'> +3.0776419E+03 </wgt>
<wgt id='1320'> +3.0748736E+03 </wgt>
<wgt id='1321'> +3.0855253E+03 </wgt>
<wgt id='1322'> +3.0346336E+03 </wgt>
<wgt id='1323'> +3.0205900E+03 </wgt>
<wgt id='1324'> +3.1308380E+03 </wgt>
<wgt id='1325'> +3.0541996E+03 </wgt>
<wgt id='1326'> +3.0163745E+03 </wgt>
<wgt id='1327'> +3.0860869E+03 </wgt>
<wgt id='1328'> +3.1429648E+03 </wgt>
<wgt id='1329'> +3.0215725E+03 </wgt>
<wgt id='1330'> +2.9904085E+03 </wgt>
<wgt id='1331'> +3.1357719E+03 </wgt>
<wgt id='1332'> +3.2514546E+03 </wgt>
<wgt id='1333'> +2.9619137E+03 </wgt>
<wgt id='1334'> +2.7200592E+03 </wgt>
<wgt id='1335'> +3.4603447E+03 </wgt>
<wgt id='1336'> +2.9912987E+03 </wgt>
<wgt id='1337'> +3.1775708E+03 </wgt>
<wgt id='1338'> +3.0046970E+03 </wgt>
<wgt id='1339'> +3.1572684E+03 </wgt>
<wgt id='1340'> +3.0084030E+03 </wgt>
<wgt id='1341'> +3.2131756E+03 </wgt>
<wgt id='1342'> +3.0916897E+03 </wgt>
<wgt id='1343'> +3.0615513E+03 </wgt>
<wgt id='1344'> +3.2194947E+03 </wgt>
<wgt id='1345'> +2.9511904E+03 </wgt>
<wgt id='1346'> +3.0905359E+03 </wgt>
<wgt id='1347'> +3.0585418E+03 </wgt>
<wgt id='1348'> +3.1432447E+03 </wgt>
<wgt id='1349'> +3.0552781E+03 </wgt>
<wgt id='1350'> +3.0705484E+03 </wgt>
<wgt id='1351'> +3.0860795E+03 </wgt>
<wgt id='1352'> +3.0674596E+03 </wgt>
<wgt id='1353'> +3.0984678E+03 </wgt>
<wgt id='1354'> +2.9673341E+03 </wgt>
<wgt id='1355'> +3.1892874E+03 </wgt>
<wgt id='1356'> +3.0869390E+03 </wgt>
<wgt id='1357'> +3.0581094E+03 </wgt>
<wgt id='1358'> +3.2830557E+03 </wgt>
<wgt id='1359'> +2.9065385E+03 </wgt>
<wgt id='1360'> +3.0281733E+03 </wgt>
<wgt id='1361'> +3.1315903E+03 </wgt>
<wgt id='1362'> +2.9664651E+03 </wgt>
<wgt id='1363'> +3.2011462E+03 </wgt>
<wgt id='1364'> +3.0056871E+03 </wgt>
<wgt id='1365'> +3.1820688E+03 </wgt>
<wgt id='1366'> +3.1096353E+03 </wgt>
<wgt id='1367'> +2.9663659E+03 </wgt>
<wgt id='1368'> +3.0648803E+03 </wgt>
<wgt id='1369'> +3.0066372E+03 </wgt>
<wgt id='1370'> +3.0731680E+03 </wgt>
<wgt id='1371'> +3.0552572E+03 </wgt>
<wgt id='1372'> +2.9444443E+03 </wgt>
<wgt id='1373'> +3.1285685E+03 </wgt>
<wgt id='1374'> +3.0574060E+03 </wgt>
<wgt id='1375'> +2.8133011E+03 </wgt>
<wgt id='1376'> +2.8955140E+03 </wgt>
<wgt id='1377'> +3.2747069E+03 </wgt>
<wgt id='1378'> +2.6967887E+03 </wgt>
<wgt id='1379'> +3.2178934E+03 </wgt>
<wgt id='1380'> +3.2154249E+03 </wgt>
<wgt id='1381'> +3.2203913E+03 </wgt>
<wgt id='1382'> +3.2104440E+03 </wgt>
<wgt id='1383'> +3.2228013E+03 </wgt>
<wgt id='1384'> +3.2310169E+03 </wgt>
<wgt id='1385'> +3.2057806E+03 </wgt>
<wgt id='1386'> +3.2148630E+03 </wgt>
<wgt id='1387'> +3.2212463E+03 </wgt>
<wgt id='1388'> +3.1873406E+03 </wgt>
<wgt id='1389'> +3.2475377E+03 </wgt>
<wgt id='1390'> +3.2473570E+03 </wgt>
<wgt id='1391'> +3.1535931E+03 </wgt>
<wgt id='1392'> +3.2459047E+03 </wgt>
<wgt id='1393'> +3.1678209E+03 </wgt>
<wgt id='1394'> +3.2465315E+03 </wgt>
<wgt id='1395'> +3.2014800E+03 </wgt>
<wgt id='1396'> +3.2854440E+03 </wgt>
<wgt id='1397'> +3.1392921E+03 </wgt>
<wgt id='1398'> +3.3876654E+03 </wgt>
<wgt id='1399'> +3.0709321E+03 </wgt>
<wgt id='1400'> +3.2238677E+03 </wgt>
<wgt id='1401'> +3.2101201E+03 </wgt>
<wgt id='1402'> +3.1987943E+03 </wgt>
<wgt id='1403'> +3.2306317E+03 </wgt>
<wgt id='1404'> +3.2417950E+03 </wgt>
<wgt id='1405'> +3.1948833E+03 </wgt>
<wgt id='1406'> +3.2247475E+03 </wgt>
<wgt id='1407'> +3.2118754E+03 </wgt>
<wgt id='1408'> +3.2075452E+03 </wgt>
<wgt id='1409'> +3.2308657E+03 </wgt>
<wgt id='1410'> +3.1535220E+03 </wgt>
<wgt id='1411'> +3.2913557E+03 </wgt>
<wgt id='1412'> +3.2459182E+03 </wgt>
<wgt id='1413'> +3.1906760E+03 </wgt>
<wgt id='1414'> +3.2306671E+03 </wgt>
<wgt id='1415'> +3.1856094E+03 </wgt>
<wgt id='1416'> +3.2361063E+03 </wgt>
<wgt id='1417'> +3.2039643E+03 </wgt>
<wgt id='1418'> +3.2493026E+03 </wgt>
<wgt id='1419'> +3.1884584E+03 </wgt>
<wgt id='1420'> +3.3167736E+03 </wgt>
<wgt id='1421'> +3.0379963E+03 </wgt>
<wgt id='1422'> +3.1038799E+03 </wgt>
<wgt id='1423'> +3.1885995E+03 </wgt>
<wgt id='1424'> +3.3311185E+03 </wgt>
<wgt id='1425'> +2.9714900E+03 </wgt>
<wgt id='1426'> +3.2335137E+03 </wgt>
<wgt id='1427'> +3.2193849E+03 </wgt>
<wgt id='1428'> +3.2279677E+03 </wgt>
<wgt id='1429'> +3.2140307E+03 </wgt>
<wgt id='1430'> +3.0767367E+03 </wgt>
<wgt id='1431'> +3.0711053E+03 </wgt>
<wgt id='1432'> +3.0839578E+03 </wgt>
<wgt id='1433'> +3.0856656E+03 </wgt>
<wgt id='1434'> +3.0679600E+03 </wgt>
<wgt id='1435'> +3.0663629E+03 </wgt>
<wgt id='1436'> +3.0810853E+03 </wgt>
<wgt id='1437'> +3.0840286E+03 </wgt>
<wgt id='1438'> +3.0694832E+03 </wgt>
<wgt id='1439'> +3.0462924E+03 </wgt>
<wgt id='1440'> +3.1059352E+03 </wgt>
<wgt id='1441'> +3.0115218E+03 </wgt>
<wgt id='1442'> +3.1048323E+03 </wgt>
<wgt id='1443'> +3.0736615E+03 </wgt>
<wgt id='1444'> +3.0805613E+03 </wgt>
<wgt id='1445'> +3.1220595E+03 </wgt>
<wgt id='1446'> +3.0281130E+03 </wgt>
<wgt id='1447'> +3.2566060E+03 </wgt>
<wgt id='1448'> +2.9763506E+03 </wgt>
<wgt id='1449'> +2.9542535E+03 </wgt>
<wgt id='1450'> +3.2408883E+03 </wgt>
<wgt id='1451'> +3.2105287E+03 </wgt>
<wgt id='1452'> +2.9830846E+03 </wgt>
<wgt id='1453'> +3.0523759E+03 </wgt>
<wgt id='1454'> +3.1006885E+03 </wgt>
<wgt id='1455'> +3.0801166E+03 </wgt>
<wgt id='1456'> +3.0682617E+03 </wgt>
<wgt id='1457'> +3.0803152E+03 </wgt>
<wgt id='1458'> +3.0690677E+03 </wgt>
<wgt id='1459'> +3.0955161E+03 </wgt>
<wgt id='1460'> +3.0316108E+03 </wgt>
<wgt id='1461'> +3.0426255E+03 </wgt>
<wgt id='1462'> +3.1477139E+03 </wgt>
<wgt id='1463'> +3.0898200E+03 </wgt>
<wgt id='1464'> +3.0511852E+03 </wgt>
<wgt id='1465'> +3.0326214E+03 </wgt>
<wgt id='1466'> +3.0962195E+03 </wgt>
<wgt id='1467'> +3.0794730E+03 </wgt>
<wgt id='1468'> +3.0714934E+03 </wgt>
<wgt id='1469'> +3.1182816E+03 </wgt>
<wgt id='1470'> +3.0525784E+03 </wgt>
<wgt id='1471'> +2.9572640E+03 </wgt>
<wgt id='1472'> +3.2502137E+03 </wgt>
<wgt id='1473'> +3.0739138E+03 </wgt>
<wgt id='1474'> +3.0827867E+03 </wgt>
<wgt id='1475'> +3.0832310E+03 </wgt>
<wgt id='1476'> +3.0526099E+03 </wgt>
<wgt id='1477'> +2.8930513E+03 </wgt>
<wgt id='1478'> +3.1733019E+03 </wgt>
<wgt id='1479'> +3.0318537E+03 </wgt>
<wgt id='1480'> +3.0984227E+03 </wgt>
<wgt id='1481'> +4.0443521E+03 </wgt>
<wgt id='1482'> +3.2987109E+03 </wgt>
<wgt id='1483'> +3.2981635E+03 </wgt>
<wgt id='1484'> +3.2985740E+03 </wgt>
<wgt id='1485'> +3.2952778E+03 </wgt>
<wgt id='1486'> +3.2989730E+03 </wgt>
<wgt id='1487'> +3.3179867E+03 </wgt>
<wgt id='1488'> +3.3254957E+03 </wgt>
<wgt id='1489'> +3.2841664E+03 </wgt>
<wgt id='1490'> +3.3088464E+03 </wgt>
<wgt id='1491'> +3.3005715E+03 </wgt>
<wgt id='1492'> +3.2830463E+03 </wgt>
<wgt id='1493'> +3.3003077E+03 </wgt>
<wgt id='1494'> +3.2693455E+03 </wgt>
<wgt id='1495'> +3.2982154E+03 </wgt>
<wgt id='1496'> +3.2995029E+03 </wgt>
<wgt id='1497'> +3.3047899E+03 </wgt>
<wgt id='1498'> +3.2982802E+03 </wgt>
<wgt id='1499'> +3.2982329E+03 </wgt>
<wgt id='1500'> +3.3106773E+03 </wgt>
<wgt id='1501'> +3.2991054E+03 </wgt>
<wgt id='1502'> +3.3039079E+03 </wgt>
<wgt id='1503'> +3.3080271E+03 </wgt>
<wgt id='1504'> +3.3231603E+03 </wgt>
<wgt id='1505'> +3.2912284E+03 </wgt>
<wgt id='1506'> +3.2821650E+03 </wgt>
<wgt id='1507'> +3.2875586E+03 </wgt>
<wgt id='1508'> +3.2931415E+03 </wgt>
<wgt id='1509'> +3.3076550E+03 </wgt>
<wgt id='1510'> +3.2975785E+03 </wgt>
<wgt id='1511'> +3.3240938E+03 </wgt>
<wgt id='1512'> +3.0501451E+03 </wgt>
<wgt id='1513'> +3.0401377E+03 </wgt>
<wgt id='1514'> +3.0600899E+03 </wgt>
<wgt id='1515'> +3.0039139E+03 </wgt>
<wgt id='1516'> +3.0567464E+03 </wgt>
<wgt id='1517'> +3.0155931E+03 </wgt>
<wgt id='1518'> +3.0864519E+03 </wgt>
<wgt id='1519'> +3.0244579E+03 </wgt>
<wgt id='1520'> +3.0622126E+03 </wgt>
<wgt id='1521'> +3.0386150E+03 </wgt>
<wgt id='1522'> +2.9705228E+03 </wgt>
<wgt id='1523'> +3.0967228E+03 </wgt>
<wgt id='1524'> +3.1025572E+03 </wgt>
<wgt id='1525'> +2.9959803E+03 </wgt>
<wgt id='1526'> +3.1606980E+03 </wgt>
<wgt id='1527'> +3.0142904E+03 </wgt>
<wgt id='1528'> +3.1986063E+03 </wgt>
<wgt id='1529'> +3.0082399E+03 </wgt>
<wgt id='1530'> +2.9437646E+03 </wgt>
<wgt id='1531'> +3.1159831E+03 </wgt>
<wgt id='1532'> +3.1273520E+03 </wgt>
<wgt id='1533'> +3.0114674E+03 </wgt>
<wgt id='1534'> +3.0242505E+03 </wgt>
<wgt id='1535'> +2.9569165E+03 </wgt>
<wgt id='1536'> +3.0523084E+03 </wgt>
<wgt id='1537'> +3.0648540E+03 </wgt>
<wgt id='1538'> +3.0630494E+03 </wgt>
<wgt id='1539'> +2.9876097E+03 </wgt>
<wgt id='1540'> +3.0298228E+03 </wgt>
<wgt id='1541'> +3.0757389E+03 </wgt>
<wgt id='1542'> +3.0445014E+03 </wgt>
<wgt id='1543'> +3.0469923E+03 </wgt>
<wgt id='1544'> +3.0330686E+03 </wgt>
<wgt id='1545'> +3.0270914E+03 </wgt>
<wgt id='1546'> +3.0507426E+03 </wgt>
<wgt id='1547'> +3.0453342E+03 </wgt>
<wgt id='1548'> +3.0685469E+03 </wgt>
<wgt id='1549'> +3.0699419E+03 </wgt>
<wgt id='1550'> +3.0282523E+03 </wgt>
<wgt id='1551'> +3.0197721E+03 </wgt>
<wgt id='1552'> +3.0473221E+03 </wgt>
<wgt id='1553'> +3.0492655E+03 </wgt>
<wgt id='1554'> +3.0515548E+03 </wgt>
<wgt id='1555'> +3.0375585E+03 </wgt>
<wgt id='1556'> +3.0673080E+03 </wgt>
<wgt id='1557'> +3.0376175E+03 </wgt>
<wgt id='1558'> +3.0718323E+03 </wgt>
<wgt id='1559'> +3.0637322E+03 </wgt>
<wgt id='1560'> +3.0473667E+03 </wgt>
<wgt id='1561'> +3.0568106E+03 </wgt>
<wgt id='1562'> +3.0540945E+03 </wgt>
<wgt id='1563'> +3.0233310E+03 </wgt>
<wgt id='1564'> +3.0681128E+03 </wgt>
<wgt id='1565'> +3.0220123E+03 </wgt>
<wgt id='1566'> +3.0314009E+03 </wgt>
<wgt id='1567'> +3.0791452E+03 </wgt>
<wgt id='1568'> +3.0656295E+03 </wgt>
<wgt id='1569'> +3.0550460E+03 </wgt>
<wgt id='1570'> +3.0469234E+03 </wgt>
<wgt id='1571'> +3.0415891E+03 </wgt>
<wgt id='1572'> +3.0361519E+03 </wgt>
<wgt id='1573'> +3.0411412E+03 </wgt>
<wgt id='1574'> +3.0384265E+03 </wgt>
<wgt id='1575'> +3.0432351E+03 </wgt>
<wgt id='1576'> +3.0418778E+03 </wgt>
<wgt id='1577'> +3.0416802E+03 </wgt>
<wgt id='1578'> +3.0623217E+03 </wgt>
<wgt id='1579'> +3.0463362E+03 </wgt>
<wgt id='1580'> +3.0475766E+03 </wgt>
<wgt id='1581'> +3.0461388E+03 </wgt>
<wgt id='1582'> +3.0417594E+03 </wgt>
<wgt id='1583'> +3.0314434E+03 </wgt>
<wgt id='1584'> +3.0380861E+03 </wgt>
<wgt id='1585'> +3.0475136E+03 </wgt>
<wgt id='1586'> +3.0438475E+03 </wgt>
<wgt id='1587'> +3.0459451E+03 </wgt>
<wgt id='1588'> +3.0568038E+03 </wgt>
<wgt id='1589'> +3.0524957E+03 </wgt>
<wgt id='1590'> +3.0542075E+03 </wgt>
<wgt id='1591'> +3.0562050E+03 </wgt>
<wgt id='1592'> +3.0573066E+03 </wgt>
<wgt id='1593'> +3.0540221E+03 </wgt>
<wgt id='1594'> +3.0522915E+03 </wgt>
<wgt id='1595'> +3.0497951E+03 </wgt>
<wgt id='1596'> +3.0499659E+03 </wgt>
<wgt id='1597'> +3.0575032E+03 </wgt>
<wgt id='1598'> +3.0540500E+03 </wgt>
<wgt id='1599'> +3.0474747E+03 </wgt>
<wgt id='1600'> +3.0498227E+03 </wgt>
<wgt id='1601'> +3.0488306E+03 </wgt>
<wgt id='1602'> +3.0458159E+03 </wgt>
<wgt id='1603'> +3.0479694E+03 </wgt>
<wgt id='1604'> +3.0520623E+03 </wgt>
<wgt id='1605'> +3.0499723E+03 </wgt>
<wgt id='1606'> +3.0523951E+03 </wgt>
<wgt id='1607'> +3.0463404E+03 </wgt>
<wgt id='1608'> +3.0482266E+03 </wgt>
<wgt id='1609'> +3.0552419E+03 </wgt>
<wgt id='1610'> +3.0490934E+03 </wgt>
<wgt id='1611'> +3.0524596E+03 </wgt>
<wgt id='1612'> +3.0497766E+03 </wgt>
<wgt id='1613'> +2.9226239E+03 </wgt>
<wgt id='1614'> +3.1993939E+03 </wgt>
<wgt id='1615'> +3.0492192E+03 </wgt>
<wgt id='1616'> +3.1028949E+03 </wgt>
<wgt id='1617'> +3.0152926E+03 </wgt>
<wgt id='1618'> +3.1051740E+03 </wgt>
<wgt id='1619'> +3.0512580E+03 </wgt>
<wgt id='1620'> +3.0391277E+03 </wgt>
<wgt id='1621'> +3.0452481E+03 </wgt>
<wgt id='1622'> +2.9758815E+03 </wgt>
<wgt id='1623'> +3.0351005E+03 </wgt>
<wgt id='1624'> +3.0811048E+03 </wgt>
<wgt id='1625'> +3.1081699E+03 </wgt>
<wgt id='1626'> +2.9458177E+03 </wgt>
<wgt id='1627'> +3.0811850E+03 </wgt>
<wgt id='1628'> +3.1425100E+03 </wgt>
<wgt id='1629'> +3.0392330E+03 </wgt>
<wgt id='1630'> +3.0041440E+03 </wgt>
<wgt id='1631'> +2.9920321E+03 </wgt>
<wgt id='1632'> +3.1331953E+03 </wgt>
<wgt id='1633'> +2.9581402E+03 </wgt>
<wgt id='1634'> +3.1187847E+03 </wgt>
<wgt id='1635'> +3.0680394E+03 </wgt>
<wgt id='1636'> +3.0476743E+03 </wgt>
<wgt id='1637'> +3.1672021E+03 </wgt>
<wgt id='1638'> +3.1131361E+03 </wgt>
<wgt id='1639'> +2.9894622E+03 </wgt>
<wgt id='1640'> +3.0422932E+03 </wgt>
<wgt id='1641'> +3.1246127E+03 </wgt>
<wgt id='1642'> +3.0101389E+03 </wgt>
<wgt id='1643'> +3.0724789E+03 </wgt>
<wgt id='1644'> +3.0892104E+03 </wgt>
<wgt id='1645'> +3.0546497E+03 </wgt>
<wgt id='1646'> +3.0844345E+03 </wgt>
<wgt id='1647'> +3.0297925E+03 </wgt>
<wgt id='1648'> +3.0757239E+03 </wgt>
<wgt id='1649'> +3.0265676E+03 </wgt>
<wgt id='1650'> +3.0484181E+03 </wgt>
<wgt id='1651'> +3.0418633E+03 </wgt>
<wgt id='1652'> +3.0977947E+03 </wgt>
<wgt id='1653'> +3.0517670E+03 </wgt>
<wgt id='1654'> +3.0298321E+03 </wgt>
<wgt id='1655'> +3.0655379E+03 </wgt>
<wgt id='1656'> +3.0325623E+03 </wgt>
<wgt id='1657'> +3.0440244E+03 </wgt>
<wgt id='1658'> +3.0810071E+03 </wgt>
<wgt id='1659'> +3.0622560E+03 </wgt>
<wgt id='1660'> +3.0531329E+03 </wgt>
<wgt id='1661'> +3.0230260E+03 </wgt>
<wgt id='1662'> +3.0524957E+03 </wgt>
<wgt id='1663'> +3.0370433E+03 </wgt>
<wgt id='1664'> +3.0271549E+03 </wgt>
<wgt id='1665'> +3.0343678E+03 </wgt>
<wgt id='1666'> +3.0443124E+03 </wgt>
<wgt id='1667'> +3.0527268E+03 </wgt>
<wgt id='1668'> +3.0421874E+03 </wgt>
<wgt id='1669'> +3.0388986E+03 </wgt>
<wgt id='1670'> +3.0689671E+03 </wgt>
<wgt id='1671'> +3.0407860E+03 </wgt>
<wgt id='1672'> +3.0477009E+03 </wgt>
<wgt id='1673'> +3.0385936E+03 </wgt>
<wgt id='1674'> +3.0495076E+03 </wgt>
<wgt id='1675'> +3.0427070E+03 </wgt>
<wgt id='1676'> +3.0519535E+03 </wgt>
<wgt id='1677'> +3.0497597E+03 </wgt>
<wgt id='1678'> +3.0381043E+03 </wgt>
<wgt id='1679'> +3.0541287E+03 </wgt>
<wgt id='1680'> +3.0389150E+03 </wgt>
<wgt id='1681'> +3.0599339E+03 </wgt>
<wgt id='1682'> +3.0508069E+03 </wgt>
<wgt id='1683'> +3.0684128E+03 </wgt>
<wgt id='1684'> +3.0692307E+03 </wgt>
<wgt id='1685'> +3.0571173E+03 </wgt>
<wgt id='1686'> +3.0524994E+03 </wgt>
<wgt id='1687'> +3.0602272E+03 </wgt>
<wgt id='1688'> +3.0317821E+03 </wgt>
<wgt id='1689'> +3.0606368E+03 </wgt>
<wgt id='1690'> +3.0492096E+03 </wgt>
<wgt id='1691'> +3.0429504E+03 </wgt>
<wgt id='1692'> +3.0545272E+03 </wgt>
<wgt id='1693'> +3.0412751E+03 </wgt>
<wgt id='1694'> +3.0444399E+03 </wgt>
<wgt id='1695'> +3.0607180E+03 </wgt>
<wgt id='1696'> +3.0425369E+03 </wgt>
<wgt id='1697'> +3.0533439E+03 </wgt>
<wgt id='1698'> +3.0481444E+03 </wgt>
<wgt id='1699'> +3.0455681E+03 </wgt>
<wgt id='1700'> +3.0512452E+03 </wgt>
<wgt id='1701'> +3.0481784E+03 </wgt>
<wgt id='1702'> +3.0491702E+03 </wgt>
<wgt id='1703'> +3.0414695E+03 </wgt>
<wgt id='1704'> +3.0507626E+03 </wgt>
<wgt id='1705'> +3.0544802E+03 </wgt>
<wgt id='1706'> +3.0459995E+03 </wgt>
<wgt id='1707'> +3.0532912E+03 </wgt>
<wgt id='1708'> +3.0475171E+03 </wgt>
<wgt id='1709'> +3.0483499E+03 </wgt>
<wgt id='1710'> +3.0523842E+03 </wgt>
<wgt id='1711'> +3.0489714E+03 </wgt>
<wgt id='1712'> +3.0506181E+03 </wgt>
<wgt id='1713'> +3.0514904E+03 </wgt>
<wgt id='1714'> +3.0479382E+03 </wgt>
<wgt id='1715'> +3.0491847E+03 </wgt>
<wgt id='1716'> +2.9157317E+03 </wgt>
<wgt id='1717'> +3.1870780E+03 </wgt>
<wgt id='1718'> +3.0491705E+03 </wgt>
<wgt id='1719'> +3.0136871E+03 </wgt>
<wgt id='1720'> +3.3311741E+03 </wgt>
<wgt id='1721'> +3.0475933E+03 </wgt>
<wgt id='1722'> +3.0613301E+03 </wgt>
<wgt id='1723'> +2.9963680E+03 </wgt>
<wgt id='1724'> +3.0181005E+03 </wgt>
<wgt id='1725'> +3.0597475E+03 </wgt>
<wgt id='1726'> +3.0456837E+03 </wgt>
<wgt id='1727'> +3.0308919E+03 </wgt>
<wgt id='1728'> +3.0353365E+03 </wgt>
<wgt id='1729'> +3.0228469E+03 </wgt>
<wgt id='1730'> +3.0292442E+03 </wgt>
<wgt id='1731'> +3.0556689E+03 </wgt>
<wgt id='1732'> +3.0603921E+03 </wgt>
<wgt id='1733'> +3.0720765E+03 </wgt>
<wgt id='1734'> +3.0554464E+03 </wgt>
<wgt id='1735'> +3.0694541E+03 </wgt>
<wgt id='1736'> +3.0573617E+03 </wgt>
<wgt id='1737'> +3.0102986E+03 </wgt>
<wgt id='1738'> +3.0102553E+03 </wgt>
<wgt id='1739'> +3.0969293E+03 </wgt>
<wgt id='1740'> +3.0438470E+03 </wgt>
<wgt id='1741'> +3.0526235E+03 </wgt>
<wgt id='1742'> +3.0449274E+03 </wgt>
<wgt id='1743'> +3.0466992E+03 </wgt>
<wgt id='1744'> +3.0523195E+03 </wgt>
<wgt id='1745'> +3.0657666E+03 </wgt>
<wgt id='1746'> +3.0707839E+03 </wgt>
<wgt id='1747'> +3.0420107E+03 </wgt>
<wgt id='1748'> +3.0513963E+03 </wgt>
<wgt id='1749'> +2.9226239E+03 </wgt>
<wgt id='1750'> +3.1993939E+03 </wgt>
<wgt id='1751'> +3.0477848E+03 </wgt>
<wgt id='1752'> +3.0838455E+03 </wgt>
<wgt id='1753'> +2.9769659E+03 </wgt>
<wgt id='1754'> +3.0632978E+03 </wgt>
<wgt id='1755'> +2.9761512E+03 </wgt>
<wgt id='1756'> +3.1006860E+03 </wgt>
<wgt id='1757'> +3.0635547E+03 </wgt>
<wgt id='1758'> +3.0739101E+03 </wgt>
<wgt id='1759'> +3.0668212E+03 </wgt>
<wgt id='1760'> +3.2230614E+03 </wgt>
<wgt id='1761'> +2.9875312E+03 </wgt>
<wgt id='1762'> +2.9332945E+03 </wgt>
<wgt id='1763'> +3.0398550E+03 </wgt>
<wgt id='1764'> +3.0473315E+03 </wgt>
<wgt id='1765'> +3.0690724E+03 </wgt>
<wgt id='1766'> +3.0401131E+03 </wgt>
<wgt id='1767'> +3.0585482E+03 </wgt>
<wgt id='1768'> +3.0598379E+03 </wgt>
<wgt id='1769'> +3.0632574E+03 </wgt>
<wgt id='1770'> +3.0509179E+03 </wgt>
<wgt id='1771'> +3.0809170E+03 </wgt>
<wgt id='1772'> +3.0684766E+03 </wgt>
<wgt id='1773'> +2.9462914E+03 </wgt>
<wgt id='1774'> +3.0469099E+03 </wgt>
<wgt id='1775'> +3.0118939E+03 </wgt>
<wgt id='1776'> +3.0537878E+03 </wgt>
<wgt id='1777'> +3.0923390E+03 </wgt>
<wgt id='1778'> +3.0155200E+03 </wgt>
<wgt id='1779'> +3.0077949E+03 </wgt>
<wgt id='1780'> +3.0597431E+03 </wgt>
<wgt id='1781'> +3.0548683E+03 </wgt>
<wgt id='1782'> +2.9157317E+03 </wgt>
<wgt id='1783'> +3.1870780E+03 </wgt>
<wgt id='1784'> +2.9880423E+03 </wgt>
<wgt id='1785'> +2.9901267E+03 </wgt>
<wgt id='1786'> +2.9859599E+03 </wgt>
<wgt id='1787'> +2.9807639E+03 </wgt>
<wgt id='1788'> +2.9953161E+03 </wgt>
<wgt id='1789'> +2.9924783E+03 </wgt>
<wgt id='1790'> +2.9836238E+03 </wgt>
<wgt id='1791'> +2.9872978E+03 </wgt>
<wgt id='1792'> +2.9887169E+03 </wgt>
<wgt id='1793'> +2.9908897E+03 </wgt>
<wgt id='1794'> +2.9852634E+03 </wgt>
<wgt id='1795'> +2.9741220E+03 </wgt>
<wgt id='1796'> +3.0042159E+03 </wgt>
<wgt id='1797'> +2.9913236E+03 </wgt>
<wgt id='1798'> +2.9848285E+03 </wgt>
<wgt id='1799'> +2.9996051E+03 </wgt>
<wgt id='1800'> +2.9727568E+03 </wgt>
<wgt id='1801'> +2.9902062E+03 </wgt>
<wgt id='1802'> +2.9917882E+03 </wgt>
<wgt id='1803'> +3.0148454E+03 </wgt>
<wgt id='1804'> +2.9593634E+03 </wgt>
<wgt id='1805'> +2.9502249E+03 </wgt>
<wgt id='1806'> +3.0279705E+03 </wgt>
<wgt id='1807'> +3.0332627E+03 </wgt>
<wgt id='1808'> +2.9500105E+03 </wgt>
<wgt id='1809'> +2.9636741E+03 </wgt>
<wgt id='1810'> +3.0126867E+03 </wgt>
<wgt id='1811'> +3.0417040E+03 </wgt>
<wgt id='1812'> +2.9391137E+03 </wgt>
<wgt id='1813'> +2.9880423E+03 </wgt>
<wgt id='1814'> +2.6461345E+03 </wgt>
<wgt id='1815'> +3.3084283E+03 </wgt>
<wgt id='1816'> +2.0702082E+03 </wgt>
<wgt id='1817'> +2.3293714E+03 </wgt>
<wgt id='1818'> +2.9311870E+03 </wgt>
<wgt id='1819'> +3.0404260E+03 </wgt>
<wgt id='1820'> +2.9825795E+03 </wgt>
<wgt id='1821'> +2.9627529E+03 </wgt>
<wgt id='1822'> +2.9907474E+03 </wgt>
<wgt id='1823'> +2.9507387E+03 </wgt>
<wgt id='1824'> +2.9571865E+03 </wgt>
<wgt id='1825'> +2.9620387E+03 </wgt>
<wgt id='1826'> +2.9196993E+03 </wgt>
<wgt id='1827'> +3.2022508E+03 </wgt>
<wgt id='1828'> +3.1807877E+03 </wgt>
<wgt id='1829'> +3.1799401E+03 </wgt>
<wgt id='1830'> +3.1720336E+03 </wgt>
<wgt id='1831'> +3.1887129E+03 </wgt>
<wgt id='1832'> +3.1815505E+03 </wgt>
<wgt id='1833'> +3.1791799E+03 </wgt>
<wgt id='1834'> +3.1801033E+03 </wgt>
<wgt id='1835'> +3.1806930E+03 </wgt>
<wgt id='1836'> +3.1705596E+03 </wgt>
<wgt id='1837'> +3.1906041E+03 </wgt>
<wgt id='1838'> +3.1902103E+03 </wgt>
<wgt id='1839'> +3.1708038E+03 </wgt>
<wgt id='1840'> +3.1799610E+03 </wgt>
<wgt id='1841'> +3.1804584E+03 </wgt>
<wgt id='1842'> +3.1844133E+03 </wgt>
<wgt id='1843'> +3.1674581E+03 </wgt>
<wgt id='1844'> +3.1816902E+03 </wgt>
<wgt id='1845'> +3.1795303E+03 </wgt>
<wgt id='1846'> +3.1825266E+03 </wgt>
<wgt id='1847'> +3.1790189E+03 </wgt>
<wgt id='1848'> +3.2459864E+03 </wgt>
<wgt id='1849'> +3.1175086E+03 </wgt>
<wgt id='1850'> +3.2092388E+03 </wgt>
<wgt id='1851'> +3.1554882E+03 </wgt>
<wgt id='1852'> +3.2546214E+03 </wgt>
<wgt id='1853'> +3.1208946E+03 </wgt>
<wgt id='1854'> +3.2439197E+03 </wgt>
<wgt id='1855'> +3.1263550E+03 </wgt>
<wgt id='1856'> +3.2005048E+03 </wgt>
<wgt id='1857'> +2.8842741E+03 </wgt>
<wgt id='1858'> +3.4799796E+03 </wgt>
<wgt id='1859'> +2.3527882E+03 </wgt>
<wgt id='1860'> +2.6077588E+03 </wgt>
<wgt id='1861'> +3.2425004E+03 </wgt>
<wgt id='1862'> +3.2187002E+03 </wgt>
<wgt id='1863'> +3.1820419E+03 </wgt>
<wgt id='1864'> +3.1470506E+03 </wgt>
<wgt id='1865'> +3.2914977E+03 </wgt>
<wgt id='1866'> +3.2307183E+03 </wgt>
<wgt id='1867'> +3.3095634E+03 </wgt>
<wgt id='1868'> +3.0380876E+03 </wgt>
<wgt id='1869'> +3.2167916E+03 </wgt>
<wgt id='1870'> +3.0598950E+03 </wgt>
<wgt id='1871'> +3.0590614E+03 </wgt>
<wgt id='1872'> +3.0582430E+03 </wgt>
<wgt id='1873'> +3.0574139E+03 </wgt>
<wgt id='1874'> +3.0565950E+03 </wgt>
<wgt id='1875'> +3.0557718E+03 </wgt>
<wgt id='1876'> +3.0549475E+03 </wgt>
<wgt id='1877'> +3.0541260E+03 </wgt>
<wgt id='1878'> +3.0533047E+03 </wgt>
<wgt id='1879'> +3.0524704E+03 </wgt>
<wgt id='1880'> +3.0516474E+03 </wgt>
<wgt id='1881'> +3.0508271E+03 </wgt>
<wgt id='1882'> +3.0499969E+03 </wgt>
<wgt id='1883'> +3.0491833E+03 </wgt>
<wgt id='1884'> +3.0483546E+03 </wgt>
<wgt id='1885'> +3.0475340E+03 </wgt>
<wgt id='1886'> +3.0467113E+03 </wgt>
<wgt id='1887'> +3.0458841E+03 </wgt>
<wgt id='1888'> +3.0450593E+03 </wgt>
<wgt id='1889'> +3.0442405E+03 </wgt>
<wgt id='1890'> +3.0434177E+03 </wgt>
<wgt id='1891'> +3.0425905E+03 </wgt>
<wgt id='1892'> +3.0417680E+03 </wgt>
<wgt id='1893'> +3.0409472E+03 </wgt>
<wgt id='1894'> +3.0401284E+03 </wgt>
<wgt id='1895'> +3.0393010E+03 </wgt>
<wgt id='1896'> +3.0384787E+03 </wgt>
<wgt id='1897'> +3.0376547E+03 </wgt>
<wgt id='1898'> +3.0368322E+03 </wgt>
<wgt id='1899'> +3.0360104E+03 </wgt>
<wgt id='1900'> +3.0351884E+03 </wgt>
<wgt id='1901'> +3.0224900E+03 </wgt>
<wgt id='1902'> +3.0751485E+03 </wgt>
<wgt id='1903'> +2.9879695E+03 </wgt>
<wgt id='1904'> +3.0788841E+03 </wgt>
<wgt id='1905'> +3.0246371E+03 </wgt>
<wgt id='1906'> +3.0127056E+03 </wgt>
<wgt id='1907'> +3.0193136E+03 </wgt>
<wgt id='1908'> +2.9498313E+03 </wgt>
<wgt id='1909'> +3.0084124E+03 </wgt>
<wgt id='1910'> +3.0544984E+03 </wgt>
<wgt id='1911'> +3.0814747E+03 </wgt>
<wgt id='1912'> +2.9206368E+03 </wgt>
<wgt id='1913'> +3.0545710E+03 </wgt>
<wgt id='1914'> +3.1160954E+03 </wgt>
<wgt id='1915'> +3.0117133E+03 </wgt>
<wgt id='1916'> +2.9757602E+03 </wgt>
<wgt id='1917'> +2.9663253E+03 </wgt>
<wgt id='1918'> +3.1057883E+03 </wgt>
<wgt id='1919'> +2.9318156E+03 </wgt>
<wgt id='1920'> +3.0920813E+03 </wgt>
<wgt id='1921'> +3.0419415E+03 </wgt>
<wgt id='1922'> +3.0204573E+03 </wgt>
<wgt id='1923'> +3.1398424E+03 </wgt>
<wgt id='1924'> +3.0864226E+03 </wgt>
<wgt id='1925'> +2.9626505E+03 </wgt>
<wgt id='1926'> +3.0146938E+03 </wgt>
<wgt id='1927'> +3.0968961E+03 </wgt>
<wgt id='1928'> +2.9843939E+03 </wgt>
<wgt id='1929'> +3.0459808E+03 </wgt>
<wgt id='1930'> +3.0619535E+03 </wgt>
<wgt id='1931'> +3.0276875E+03 </wgt>
<wgt id='1932'> +3.0585049E+03 </wgt>
<wgt id='1933'> +3.0030296E+03 </wgt>
<wgt id='1934'> +3.0488092E+03 </wgt>
<wgt id='1935'> +2.9998106E+03 </wgt>
<wgt id='1936'> +3.0215471E+03 </wgt>
<wgt id='1937'> +3.0151757E+03 </wgt>
<wgt id='1938'> +3.0710426E+03 </wgt>
<wgt id='1939'> +3.0250068E+03 </wgt>
<wgt id='1940'> +3.0029114E+03 </wgt>
<wgt id='1941'> +3.0387364E+03 </wgt>
<wgt id='1942'> +3.0053962E+03 </wgt>
<wgt id='1943'> +3.0169785E+03 </wgt>
<wgt id='1944'> +3.0545816E+03 </wgt>
<wgt id='1945'> +3.0354889E+03 </wgt>
<wgt id='1946'> +3.0260651E+03 </wgt>
<wgt id='1947'> +2.9967317E+03 </wgt>
<wgt id='1948'> +3.0252568E+03 </wgt>
<wgt id='1949'> +3.0105615E+03 </wgt>
<wgt id='1950'> +3.0006459E+03 </wgt>
<wgt id='1951'> +3.0078178E+03 </wgt>
<wgt id='1952'> +3.0174847E+03 </wgt>
<wgt id='1953'> +3.0258674E+03 </wgt>
<wgt id='1954'> +3.0157565E+03 </wgt>
<wgt id='1955'> +3.0124443E+03 </wgt>
<wgt id='1956'> +3.0423811E+03 </wgt>
<wgt id='1957'> +3.0138112E+03 </wgt>
<wgt id='1958'> +3.0207997E+03 </wgt>
<wgt id='1959'> +3.0122791E+03 </wgt>
<wgt id='1960'> +3.0228190E+03 </wgt>
<wgt id='1961'> +3.0160725E+03 </wgt>
<wgt id='1962'> +3.0253191E+03 </wgt>
<wgt id='1963'> +3.0229542E+03 </wgt>
<wgt id='1964'> +3.0115558E+03 </wgt>
<wgt id='1965'> +3.0273217E+03 </wgt>
<wgt id='1966'> +3.0122710E+03 </wgt>
<wgt id='1967'> +3.0329214E+03 </wgt>
<wgt id='1968'> +3.0238453E+03 </wgt>
<wgt id='1969'> +3.0414121E+03 </wgt>
<wgt id='1970'> +3.0422157E+03 </wgt>
<wgt id='1971'> +3.0303864E+03 </wgt>
<wgt id='1972'> +3.0257813E+03 </wgt>
<wgt id='1973'> +3.0335177E+03 </wgt>
<wgt id='1974'> +3.0050920E+03 </wgt>
<wgt id='1975'> +3.0336400E+03 </wgt>
<wgt id='1976'> +3.0225038E+03 </wgt>
<wgt id='1977'> +3.0164892E+03 </wgt>
<wgt id='1978'> +3.0275112E+03 </wgt>
<wgt id='1979'> +3.0148390E+03 </wgt>
<wgt id='1980'> +3.0178175E+03 </wgt>
<wgt id='1981'> +3.0336036E+03 </wgt>
<wgt id='1982'> +3.0163452E+03 </wgt>
<wgt id='1983'> +3.0265770E+03 </wgt>
<wgt id='1984'> +3.0213834E+03 </wgt>
<wgt id='1985'> +3.0189681E+03 </wgt>
<wgt id='1986'> +3.0245571E+03 </wgt>
<wgt id='1987'> +3.0218609E+03 </wgt>
<wgt id='1988'> +3.0222303E+03 </wgt>
<wgt id='1989'> +3.0148939E+03 </wgt>
<wgt id='1990'> +3.0238564E+03 </wgt>
<wgt id='1991'> +3.0276565E+03 </wgt>
<wgt id='1992'> +3.0193710E+03 </wgt>
<wgt id='1993'> +3.0262846E+03 </wgt>
<wgt id='1994'> +3.0207677E+03 </wgt>
<wgt id='1995'> +3.0215789E+03 </wgt>
<wgt id='1996'> +3.0254931E+03 </wgt>
<wgt id='1997'> +3.0223246E+03 </wgt>
<wgt id='1998'> +3.0237806E+03 </wgt>
<wgt id='1999'> +3.0246664E+03 </wgt>
<wgt id='2000'> +3.0212843E+03 </wgt>
<wgt id='2001'> +3.0226049E+03 </wgt>
<wgt id='2002'> +3.0224683E+03 </wgt>
<wgt id='2003'> +3.0223502E+03 </wgt>
<wgt id='2004'> +3.0225121E+03 </wgt>
<wgt id='2005'> +3.0225158E+03 </wgt>
<wgt id='2006'> +3.0225545E+03 </wgt>
<wgt id='2007'> +3.0224993E+03 </wgt>
<wgt id='2008'> +3.0223965E+03 </wgt>
<wgt id='2009'> +2.8695443E+03 </wgt>
<wgt id='2010'> +3.1183207E+03 </wgt>
<wgt id='2011'> +2.9582561E+03 </wgt>
<wgt id='2012'> +3.0178982E+03 </wgt>
<wgt id='2013'> +2.7118822E+03 </wgt>
<wgt id='2014'> +2.8753228E+03 </wgt>
<wgt id='2015'> +2.9673430E+03 </wgt>
<wgt id='2016'> +3.0071269E+03 </wgt>
<wgt id='2017'> +2.8374335E+03 </wgt>
<wgt id='2018'> +2.9096196E+03 </wgt>
<wgt id='2019'> +2.6718111E+03 </wgt>
<wgt id='2020'> +2.7405147E+03 </wgt>
<wgt id='2021'> +2.8069372E+03 </wgt>
<wgt id='2022'> +2.8228469E+03 </wgt>
<wgt id='2023'> +2.8959956E+03 </wgt>
<wgt id='2024'> +2.9695073E+03 </wgt>
<wgt id='2025'> +2.7340893E+03 </wgt>
<wgt id='2026'> +2.9758635E+03 </wgt>
<wgt id='2027'> +3.3413222E+03 </wgt>
<wgt id='2028'> +2.7214800E+03 </wgt>
<wgt id='2029'> +2.8090967E+03 </wgt>
<wgt id='2030'> +2.8266088E+03 </wgt>
<wgt id='2031'> +2.6495701E+03 </wgt>
<wgt id='2032'> +2.7205254E+03 </wgt>
<wgt id='2033'> +2.7698648E+03 </wgt>
<wgt id='2034'> +2.8045817E+03 </wgt>
<wgt id='2035'> +2.9087137E+03 </wgt>
<wgt id='2036'> +3.0027532E+03 </wgt>
<wgt id='2037'> +2.8118303E+03 </wgt>
<wgt id='2038'> +2.9902350E+03 </wgt>
<wgt id='2039'> +2.9307349E+03 </wgt>
<wgt id='2040'> +2.8570258E+03 </wgt>
<wgt id='2041'> +2.7032709E+03 </wgt>
<wgt id='2042'> +2.8606693E+03 </wgt>
<wgt id='2043'> +2.6487185E+03 </wgt>
<wgt id='2044'> +3.1267800E+03 </wgt>
<wgt id='2045'> +2.8666898E+03 </wgt>
<wgt id='2046'> +2.9883094E+03 </wgt>
<wgt id='2047'> +2.8739458E+03 </wgt>
<wgt id='2048'> +2.6578688E+03 </wgt>
<wgt id='2049'> +2.7810242E+03 </wgt>
<wgt id='2050'> +2.9599681E+03 </wgt>
<wgt id='2051'> +2.8010762E+03 </wgt>
<wgt id='2052'> +2.8197434E+03 </wgt>
<wgt id='2053'> +2.8983578E+03 </wgt>
<wgt id='2054'> +2.9869208E+03 </wgt>
<wgt id='2055'> +3.0085111E+03 </wgt>
<wgt id='2056'> +2.9394703E+03 </wgt>
<wgt id='2057'> +2.8006231E+03 </wgt>
<wgt id='2058'> +2.9873606E+03 </wgt>
<wgt id='2059'> +2.9449235E+03 </wgt>
<wgt id='2060'> +2.7317101E+03 </wgt>
<wgt id='2061'> +2.8280671E+03 </wgt>
<wgt id='2062'> +2.6458040E+03 </wgt>
<wgt id='2063'> +2.8957465E+03 </wgt>
<wgt id='2064'> +2.8025128E+03 </wgt>
<wgt id='2065'> +2.8943843E+03 </wgt>
<wgt id='2066'> +2.9816194E+03 </wgt>
<wgt id='2067'> +2.8810874E+03 </wgt>
<wgt id='2068'> +2.8055642E+03 </wgt>
<wgt id='2069'> +2.8151026E+03 </wgt>
<wgt id='2070'> +2.9043892E+03 </wgt>
<wgt id='2071'> +3.0215885E+03 </wgt>
<wgt id='2072'> +2.8125504E+03 </wgt>
<wgt id='2073'> +3.2935311E+03 </wgt>
<wgt id='2074'> +2.7688983E+03 </wgt>
<wgt id='2075'> +3.0189097E+03 </wgt>
<wgt id='2076'> +2.9163979E+03 </wgt>
<wgt id='2077'> +2.8015443E+03 </wgt>
<wgt id='2078'> +2.6737352E+03 </wgt>
<wgt id='2079'> +2.5724220E+03 </wgt>
<wgt id='2080'> +2.7812491E+03 </wgt>
<wgt id='2081'> +2.6354499E+03 </wgt>
<wgt id='2082'> +2.6986550E+03 </wgt>
<wgt id='2083'> +2.8464576E+03 </wgt>
<wgt id='2084'> +2.8300736E+03 </wgt>
<wgt id='2085'> +2.6192643E+03 </wgt>
<wgt id='2086'> +2.8007317E+03 </wgt>
<wgt id='2087'> +2.8705789E+03 </wgt>
<wgt id='2088'> +2.9411889E+03 </wgt>
<wgt id='2089'> +2.7931739E+03 </wgt>
<wgt id='2090'> +2.7712002E+03 </wgt>
<wgt id='2091'> +2.7414307E+03 </wgt>
<wgt id='2092'> +3.0568084E+03 </wgt>
<wgt id='2093'> +2.6968197E+03 </wgt>
<wgt id='2094'> +2.9861490E+03 </wgt>
<wgt id='2095'> +2.9798341E+03 </wgt>
<wgt id='2096'> +3.0888225E+03 </wgt>
<wgt id='2097'> +2.8417117E+03 </wgt>
<wgt id='2098'> +2.9731932E+03 </wgt>
<wgt id='2099'> +2.7952622E+03 </wgt>
<wgt id='2100'> +2.8864404E+03 </wgt>
<wgt id='2101'> +2.6682109E+03 </wgt>
<wgt id='2102'> +2.9425401E+03 </wgt>
<wgt id='2103'> +2.8987797E+03 </wgt>
<wgt id='2104'> +3.0889382E+03 </wgt>
<wgt id='2105'> +2.9236802E+03 </wgt>
<wgt id='2106'> +2.6466491E+03 </wgt>
<wgt id='2107'> +3.0344618E+03 </wgt>
<wgt id='2108'> +3.0247112E+03 </wgt>
<wgt id='2109'> +3.2467107E+03 </wgt>
<wgt id='2110'> +2.7989633E+03 </wgt>
<wgt id='2111'> +2.9374962E+03 </wgt>
<wgt id='2112'> +2.8291630E+03 </wgt>
<wgt id='2113'> +1.5019067E+03 </wgt>
<wgt id='2114'> +2.2661752E+03 </wgt>
<wgt id='2115'> +2.3737771E+03 </wgt>
<wgt id='2116'> +2.8651673E+03 </wgt>
</rwgt>
</event>
<event>
 7      7 +2.9771057E+03 8.08676000e+01 7.54677100e-03 1.20184800e-01
        1 -1    0    0  502    0 -0.0000000000e+00 +0.0000000000e+00 +6.6695792082e+02 6.6695792082e+02 0.0000000000e+00 0.0000e+00 -1.0000e+00
       21 -1    0    0  503  502 +0.0000000000e+00 -0.0000000000e+00 -1.0117107638e+01 1.0117107638e+01 0.0000000000e+00 0.0000e+00 -1.0000e+00
      -24  2    1    2    0    0 -2.4798889583e+01 -1.6577045083e+01 +5.8759791981e+02 5.9337635640e+02 7.7035067544e+01 0.0000e+00 0.0000e+00
       11  1    3    3    0    0 -5.0487120111e+01 -4.5863622642e+00 +4.5284338800e+02 4.5567216073e+02 0.0000000000e+00 0.0000e+00 -1.0000e+00
      -12  1    3    3    0    0 +2.5688230528e+01 -1.1990682818e+01 +1.3475453181e+02 1.3770419567e+02 0.0000000000e+00 0.0000e+00 1.0000e+00
       21  1    1    2  503  501 +2.1373647074e+00 +2.3269436882e+01 +3.3102111485e+01 4.0518943785e+01 0.0000000000e+00 0.0000e+00 -1.0000e+00
        2  1    1    2  501    0 +2.2661524875e+01 -6.6923917996e+00 +3.6140781891e+01 4.3179728268e+01 0.0000000000e+00 0.0000e+00 -1.0000e+00
<scales pt_clust_4="13000.00000" pt_clust_5="13000.00000" pt_clust_6="23.36739" pt_clust_7="24.60015"></scales>
<mgrwt>
<rscale>  0 0.80867603E+02</rscale>
<asrwt>  2 0.23367392E+02 0.24600155E+02</asrwt>
<pdfrwt beam="1">  1       21 0.15564786E-02 0.80867603E+02</pdfrwt>
<pdfrwt beam="2">  1        1 0.10260888E+00 0.80867603E+02</pdfrwt>
<totfact> 0.11490956E+04</totfact>
</mgrwt>
<clustering>
<clus scale="   23.367">  2  6  1 -1</clus>
<clus scale="   24.600">  2  7  1 -1</clus>
<clus scale="   77.035">  4  5 -1 -1</clus>
<clus scale="   80.868">  2  4  1 -1</clus>
</clustering>
<rwgt>
<wgt id='1001'> +2.9771057E+03 </wgt>
<wgt id='1002'> +3.1108720E+03 </wgt>
<wgt id='1003'> +3.1108720E+03 </wgt>
<wgt id='1004'> +2.8921245E+03 </wgt>
<wgt id='1005'> +3.1812020E+03 </wgt>
<wgt id='1006'> +2.9771057E+03 </wgt>
<wgt id='1007'> +3.1108720E+03 </wgt>
<wgt id='1008'> +3.1108720E+03 </wgt>
<wgt id='1009'> +2.8921245E+03 </wgt>
<wgt id='1010'> +3.1812020E+03 </wgt>
<wgt id='1011'> +2.9771057E+03 </wgt>
<wgt id='1012'> +3.1108720E+03 </wgt>
<wgt id='1013'> +3.1108720E+03 </wgt>
<wgt id='1014'> +2.8921245E+03 </wgt>
<wgt id='1015'> +3.1812020E+03 </wgt>
<wgt id='1016'> +3.1772279E+03 </wgt>
<wgt id='1017'> +3.2816996E+03 </wgt>
<wgt id='1018'> +3.2816996E+03 </wgt>
<wgt id='1019'> +3.1108720E+03 </wgt>
<wgt id='1020'> +3.3362960E+03 </wgt>
<wgt id='1021'> +3.1772279E+03 </wgt>
<wgt id='1022'> +3.2816996E+03 </wgt>
<wgt id='1023'> +3.2816996E+03 </wgt>
<wgt id='1024'> +3.1108720E+03 </wgt>
<wgt id='1025'> +3.3362960E+03 </wgt>
<wgt id='1026'> +3.1772279E+03 </wgt>
<wgt id='1027'> +3.2816996E+03 </wgt>
<wgt id='1028'> +3.2816996E+03 </wgt>
<wgt id='1029'> +3.1108720E+03 </wgt>
<wgt id='1030'> +3.3362960E+03 </wgt>
<wgt id='1031'> +2.7215425E+03 </wgt>
<wgt id='1032'> +2.8921245E+03 </wgt>
<wgt id='1033'> +2.8921245E+03 </wgt>
<wgt id='1034'> +2.6135790E+03 </wgt>
<wgt id='1035'> +2.9822013E+03 </wgt>
<wgt id='1036'> +2.7215425E+03 </wgt>
<wgt id='1037'> +2.8921245E+03 </wgt>
<wgt id='1038'> +2.8921245E+03 </wgt>
<wgt id='1039'> +2.6135790E+03 </wgt>
<wgt id='1040'> +2.9822013E+03 </wgt>
<wgt id='1041'> +2.7215425E+03 </wgt>
<wgt id='1042'> +2.8921245E+03 </wgt>
<wgt id='1043'> +2.8921245E+03 </wgt>
<wgt id='1044'> +2.6135790E+03 </wgt>
<wgt id='1045'> +2.9822013E+03 </wgt>
<wgt id='1046'> +2.9771057E+03 </wgt>
<wgt id='1047'> +2.9746448E+03 </wgt>
<wgt id='1048'> +2.9811772E+03 </wgt>
<wgt id='1049'> +2.9786835E+03 </wgt>
<wgt id='1050'> +2.9702971E+03 </wgt>
<wgt id='1051'> +2.9786968E+03 </wgt>
<wgt id='1052'> +2.9844050E+03 </wgt>
<wgt id='1053'> +2.9787490E+03 </wgt>
<wgt id='1054'> +2.9862486E+03 </wgt>
<wgt id='1055'> +2.9696045E+03 </wgt>
<wgt id='1056'> +2.9739145E+03 </wgt>
<wgt id='1057'> +2.9778888E+03 </wgt>
<wgt id='1058'> +2.9769176E+03 </wgt>
<wgt id='1059'> +2.9782636E+03 </wgt>
<wgt id='1060'> +2.9761251E+03 </wgt>
<wgt id='1061'> +2.9825392E+03 </wgt>
<wgt id='1062'> +2.9798366E+03 </wgt>
<wgt id='1063'> +2.9760636E+03 </wgt>
<wgt id='1064'> +2.9762915E+03 </wgt>
<wgt id='1065'> +2.9702713E+03 </wgt>
<wgt id='1066'> +2.9740144E+03 </wgt>
<wgt id='1067'> +2.9772647E+03 </wgt>
<wgt id='1068'> +2.9824417E+03 </wgt>
<wgt id='1069'> +2.9675394E+03 </wgt>
<wgt id='1070'> +2.9946594E+03 </wgt>
<wgt id='1071'> +2.9767904E+03 </wgt>
<wgt id='1072'> +2.9713465E+03 </wgt>
<wgt id='1073'> +2.9915758E+03 </wgt>
<wgt id='1074'> +2.9877561E+03 </wgt>
<wgt id='1075'> +2.9386111E+03 </wgt>
<wgt id='1076'> +2.9696454E+03 </wgt>
<wgt id='1077'> +2.9728885E+03 </wgt>
<wgt id='1078'> +2.9699282E+03 </wgt>
<wgt id='1079'> +2.9706611E+03 </wgt>
<wgt id='1080'> +2.9761877E+03 </wgt>
<wgt id='1081'> +2.9812392E+03 </wgt>
<wgt id='1082'> +2.9766252E+03 </wgt>
<wgt id='1083'> +2.9839868E+03 </wgt>
<wgt id='1084'> +2.9747181E+03 </wgt>
<wgt id='1085'> +2.9797696E+03 </wgt>
<wgt id='1086'> +2.9768165E+03 </wgt>
<wgt id='1087'> +2.9749192E+03 </wgt>
<wgt id='1088'> +2.9757661E+03 </wgt>
<wgt id='1089'> +2.9759177E+03 </wgt>
<wgt id='1090'> +2.9847451E+03 </wgt>
<wgt id='1091'> +2.9693080E+03 </wgt>
<wgt id='1092'> +2.9810755E+03 </wgt>
<wgt id='1093'> +2.9867379E+03 </wgt>
<wgt id='1094'> +2.9721614E+03 </wgt>
<wgt id='1095'> +2.9876584E+03 </wgt>
<wgt id='1096'> +2.9828589E+03 </wgt>
<wgt id='1097'> +2.9828175E+03 </wgt>
<wgt id='1098'> +2.9734735E+03 </wgt>
<wgt id='1099'> +2.9733773E+03 </wgt>
<wgt id='1100'> +2.9783850E+03 </wgt>
<wgt id='1101'> +2.9697948E+03 </wgt>
<wgt id='1102'> +2.9809251E+03 </wgt>
<wgt id='1103'> +2.9723288E+03 </wgt>
<wgt id='1104'> +2.9772122E+03 </wgt>
<wgt id='1105'> +2.9773865E+03 </wgt>
<wgt id='1106'> +2.9765910E+03 </wgt>
<wgt id='1107'> +2.9754577E+03 </wgt>
<wgt id='1108'> +2.9786200E+03 </wgt>
<wgt id='1109'> +2.9798068E+03 </wgt>
<wgt id='1110'> +2.9746347E+03 </wgt>
<wgt id='1111'> +2.9770419E+03 </wgt>
<wgt id='1112'> +2.9787908E+03 </wgt>
<wgt id='1113'> +2.9781965E+03 </wgt>
<wgt id='1114'> +2.9798912E+03 </wgt>
<wgt id='1115'> +2.9751316E+03 </wgt>
<wgt id='1116'> +2.9747311E+03 </wgt>
<wgt id='1117'> +2.9722203E+03 </wgt>
<wgt id='1118'> +2.9821926E+03 </wgt>
<wgt id='1119'> +2.9734312E+03 </wgt>
<wgt id='1120'> +2.9801523E+03 </wgt>
<wgt id='1121'> +2.9762974E+03 </wgt>
<wgt id='1122'> +2.9757978E+03 </wgt>
<wgt id='1123'> +2.9795147E+03 </wgt>
<wgt id='1124'> +2.9770825E+03 </wgt>
<wgt id='1125'> +2.9817595E+03 </wgt>
<wgt id='1126'> +2.9782479E+03 </wgt>
<wgt id='1127'> +2.9751990E+03 </wgt>
<wgt id='1128'> +2.9760242E+03 </wgt>
<wgt id='1129'> +2.9764205E+03 </wgt>
<wgt id='1130'> +2.9743467E+03 </wgt>
<wgt id='1131'> +2.9777729E+03 </wgt>
<wgt id='1132'> +2.9781325E+03 </wgt>
<wgt id='1133'> +2.9745402E+03 </wgt>
<wgt id='1134'> +2.9770262E+03 </wgt>
<wgt id='1135'> +2.9774517E+03 </wgt>
<wgt id='1136'> +2.9762765E+03 </wgt>
<wgt id='1137'> +2.9814888E+03 </wgt>
<wgt id='1138'> +2.9763255E+03 </wgt>
<wgt id='1139'> +2.9755108E+03 </wgt>
<wgt id='1140'> +2.9758953E+03 </wgt>
<wgt id='1141'> +2.9751732E+03 </wgt>
<wgt id='1142'> +2.9748360E+03 </wgt>
<wgt id='1143'> +2.9802638E+03 </wgt>
<wgt id='1144'> +2.9763722E+03 </wgt>
<wgt id='1145'> +2.9757021E+03 </wgt>
<wgt id='1146'> +2.9814080E+03 </wgt>
<wgt id='1147'> +2.8770181E+03 </wgt>
<wgt id='1148'> +3.0759162E+03 </wgt>
<wgt id='1149'> +2.4988103E+03 </wgt>
<wgt id='1150'> +2.5908229E+03 </wgt>
<wgt id='1151'> +2.6808211E+03 </wgt>
<wgt id='1152'> +2.7871997E+03 </wgt>
<wgt id='1153'> +2.9404819E+03 </wgt>
<wgt id='1154'> +3.0236332E+03 </wgt>
<wgt id='1155'> +3.1809955E+03 </wgt>
<wgt id='1156'> +3.2660608E+03 </wgt>
<wgt id='1157'> +2.9972244E+03 </wgt>
<wgt id='1158'> +3.0013429E+03 </wgt>
<wgt id='1159'> +2.9909162E+03 </wgt>
<wgt id='1160'> +3.0004104E+03 </wgt>
<wgt id='1161'> +2.9936112E+03 </wgt>
<wgt id='1162'> +2.9992603E+03 </wgt>
<wgt id='1163'> +2.9974309E+03 </wgt>
<wgt id='1164'> +2.9968582E+03 </wgt>
<wgt id='1165'> +3.0063032E+03 </wgt>
<wgt id='1166'> +2.9909571E+03 </wgt>
<wgt id='1167'> +2.9976857E+03 </wgt>
<wgt id='1168'> +2.9989079E+03 </wgt>
<wgt id='1169'> +2.9970204E+03 </wgt>
<wgt id='1170'> +2.9976628E+03 </wgt>
<wgt id='1171'> +2.9950827E+03 </wgt>
<wgt id='1172'> +3.0001040E+03 </wgt>
<wgt id='1173'> +3.0043645E+03 </wgt>
<wgt id='1174'> +2.9956791E+03 </wgt>
<wgt id='1175'> +2.9973620E+03 </wgt>
<wgt id='1176'> +2.9922731E+03 </wgt>
<wgt id='1177'> +2.9925733E+03 </wgt>
<wgt id='1178'> +3.0012226E+03 </wgt>
<wgt id='1179'> +2.9966443E+03 </wgt>
<wgt id='1180'> +2.9950569E+03 </wgt>
<wgt id='1181'> +3.0061466E+03 </wgt>
<wgt id='1182'> +2.9924680E+03 </wgt>
<wgt id='1183'> +2.9984011E+03 </wgt>
<wgt id='1184'> +2.9872870E+03 </wgt>
<wgt id='1185'> +3.0083356E+03 </wgt>
<wgt id='1186'> +3.0086979E+03 </wgt>
<wgt id='1187'> +2.9580831E+03 </wgt>
<wgt id='1188'> +2.9850154E+03 </wgt>
<wgt id='1189'> +3.0070420E+03 </wgt>
<wgt id='1190'> +2.9970019E+03 </wgt>
<wgt id='1191'> +2.9925972E+03 </wgt>
<wgt id='1192'> +3.0040261E+03 </wgt>
<wgt id='1193'> +2.9978720E+03 </wgt>
<wgt id='1194'> +2.9892931E+03 </wgt>
<wgt id='1195'> +2.9979985E+03 </wgt>
<wgt id='1196'> +2.9986384E+03 </wgt>
<wgt id='1197'> +2.9937948E+03 </wgt>
<wgt id='1198'> +3.0059323E+03 </wgt>
<wgt id='1199'> +2.9942489E+03 </wgt>
<wgt id='1200'> +2.9971801E+03 </wgt>
<wgt id='1201'> +3.0000055E+03 </wgt>
<wgt id='1202'> +2.9991109E+03 </wgt>
<wgt id='1203'> +2.9973084E+03 </wgt>
<wgt id='1204'> +2.9992158E+03 </wgt>
<wgt id='1205'> +3.0017104E+03 </wgt>
<wgt id='1206'> +2.9873266E+03 </wgt>
<wgt id='1207'> +2.9972929E+03 </wgt>
<wgt id='1208'> +3.0102895E+03 </wgt>
<wgt id='1209'> +3.0008770E+03 </wgt>
<wgt id='1210'> +2.9946033E+03 </wgt>
<wgt id='1211'> +2.9952257E+03 </wgt>
<wgt id='1212'> +2.9940626E+03 </wgt>
<wgt id='1213'> +2.9860616E+03 </wgt>
<wgt id='1214'> +2.9978749E+03 </wgt>
<wgt id='1215'> +2.9947286E+03 </wgt>
<wgt id='1216'> +2.9999654E+03 </wgt>
<wgt id='1217'> +2.9989308E+03 </wgt>
<wgt id='1218'> +2.9959811E+03 </wgt>
<wgt id='1219'> +2.9953739E+03 </wgt>
<wgt id='1220'> +2.9972842E+03 </wgt>
<wgt id='1221'> +2.9964664E+03 </wgt>
<wgt id='1222'> +2.9963460E+03 </wgt>
<wgt id='1223'> +3.0009068E+03 </wgt>
<wgt id='1224'> +2.9951032E+03 </wgt>
<wgt id='1225'> +2.9980031E+03 </wgt>
<wgt id='1226'> +2.9962375E+03 </wgt>
<wgt id='1227'> +2.9954384E+03 </wgt>
<wgt id='1228'> +2.9972828E+03 </wgt>
<wgt id='1229'> +2.9942752E+03 </wgt>
<wgt id='1230'> +2.9941317E+03 </wgt>
<wgt id='1231'> +2.9980770E+03 </wgt>
<wgt id='1232'> +3.0016144E+03 </wgt>
<wgt id='1233'> +2.9988874E+03 </wgt>
<wgt id='1234'> +2.9955560E+03 </wgt>
<wgt id='1235'> +2.9936370E+03 </wgt>
<wgt id='1236'> +2.9963884E+03 </wgt>
<wgt id='1237'> +2.9968727E+03 </wgt>
<wgt id='1238'> +2.9917488E+03 </wgt>
<wgt id='1239'> +2.9981875E+03 </wgt>
<wgt id='1240'> +2.9959902E+03 </wgt>
<wgt id='1241'> +3.0004929E+03 </wgt>
<wgt id='1242'> +2.9970905E+03 </wgt>
<wgt id='1243'> +2.9959363E+03 </wgt>
<wgt id='1244'> +2.9984890E+03 </wgt>
<wgt id='1245'> +2.9975594E+03 </wgt>
<wgt id='1246'> +2.9998776E+03 </wgt>
<wgt id='1247'> +2.9976394E+03 </wgt>
<wgt id='1248'> +2.9966751E+03 </wgt>
<wgt id='1249'> +2.9974543E+03 </wgt>
<wgt id='1250'> +2.9960044E+03 </wgt>
<wgt id='1251'> +2.9956269E+03 </wgt>
<wgt id='1252'> +2.9999142E+03 </wgt>
<wgt id='1253'> +2.9985736E+03 </wgt>
<wgt id='1254'> +2.9964615E+03 </wgt>
<wgt id='1255'> +2.9927464E+03 </wgt>
<wgt id='1256'> +3.0005049E+03 </wgt>
<wgt id='1257'> +2.9977556E+03 </wgt>
<wgt id='1258'> +2.8981533E+03 </wgt>
<wgt id='1259'> +3.1044836E+03 </wgt>
<wgt id='1260'> +2.9018022E+03 </wgt>
<wgt id='1261'> +2.8791044E+03 </wgt>
<wgt id='1262'> +2.8890404E+03 </wgt>
<wgt id='1263'> +2.8815732E+03 </wgt>
<wgt id='1264'> +2.9121339E+03 </wgt>
<wgt id='1265'> +2.9290544E+03 </wgt>
<wgt id='1266'> +2.9190917E+03 </wgt>
<wgt id='1267'> +2.9350981E+03 </wgt>
<wgt id='1268'> +2.9312508E+03 </wgt>
<wgt id='1269'> +2.9589667E+03 </wgt>
<wgt id='1270'> +2.8616334E+03 </wgt>
<wgt id='1271'> +2.9174451E+03 </wgt>
<wgt id='1272'> +2.8640296E+03 </wgt>
<wgt id='1273'> +2.8711529E+03 </wgt>
<wgt id='1274'> +2.8814920E+03 </wgt>
<wgt id='1275'> +2.9160088E+03 </wgt>
<wgt id='1276'> +2.8509837E+03 </wgt>
<wgt id='1277'> +2.9333541E+03 </wgt>
<wgt id='1278'> +2.8696316E+03 </wgt>
<wgt id='1279'> +2.8716838E+03 </wgt>
<wgt id='1280'> +2.9311528E+03 </wgt>
<wgt id='1281'> +2.9425128E+03 </wgt>
<wgt id='1282'> +2.8772758E+03 </wgt>
<wgt id='1283'> +2.9027653E+03 </wgt>
<wgt id='1284'> +2.9004607E+03 </wgt>
<wgt id='1285'> +2.8977553E+03 </wgt>
<wgt id='1286'> +2.9053264E+03 </wgt>
<wgt id='1287'> +2.9207581E+03 </wgt>
<wgt id='1288'> +2.8698593E+03 </wgt>
<wgt id='1289'> +2.8709402E+03 </wgt>
<wgt id='1290'> +2.9199563E+03 </wgt>
<wgt id='1291'> +2.8769127E+03 </wgt>
<wgt id='1292'> +2.9376756E+03 </wgt>
<wgt id='1293'> +2.9091439E+03 </wgt>
<wgt id='1294'> +2.8945738E+03 </wgt>
<wgt id='1295'> +2.8743125E+03 </wgt>
<wgt id='1296'> +2.9272462E+03 </wgt>
<wgt id='1297'> +2.9620685E+03 </wgt>
<wgt id='1298'> +2.8342490E+03 </wgt>
<wgt id='1299'> +2.9163856E+03 </wgt>
<wgt id='1300'> +2.8769504E+03 </wgt>
<wgt id='1301'> +2.8879038E+03 </wgt>
<wgt id='1302'> +2.8999741E+03 </wgt>
<wgt id='1303'> +2.9221076E+03 </wgt>
<wgt id='1304'> +2.8549648E+03 </wgt>
<wgt id='1305'> +2.8826879E+03 </wgt>
<wgt id='1306'> +2.9558843E+03 </wgt>
<wgt id='1307'> +2.9203377E+03 </wgt>
<wgt id='1308'> +2.9147772E+03 </wgt>
<wgt id='1309'> +2.9018249E+03 </wgt>
<wgt id='1310'> +2.9321053E+03 </wgt>
<wgt id='1311'> +2.8902203E+03 </wgt>
<wgt id='1312'> +2.9452959E+03 </wgt>
<wgt id='1313'> +2.9267217E+03 </wgt>
<wgt id='1314'> +2.9646736E+03 </wgt>
<wgt id='1315'> +2.9109317E+03 </wgt>
<wgt id='1316'> +2.8987969E+03 </wgt>
<wgt id='1317'> +2.8088503E+03 </wgt>
<wgt id='1318'> +2.9914621E+03 </wgt>
<wgt id='1319'> +2.9964817E+03 </wgt>
<wgt id='1320'> +3.0410336E+03 </wgt>
<wgt id='1321'> +2.9910174E+03 </wgt>
<wgt id='1322'> +3.0056328E+03 </wgt>
<wgt id='1323'> +3.0168372E+03 </wgt>
<wgt id='1324'> +3.0168529E+03 </wgt>
<wgt id='1325'> +2.9872050E+03 </wgt>
<wgt id='1326'> +3.0054843E+03 </wgt>
<wgt id='1327'> +2.9913206E+03 </wgt>
<wgt id='1328'> +2.9742822E+03 </wgt>
<wgt id='1329'> +2.9970335E+03 </wgt>
<wgt id='1330'> +2.9723064E+03 </wgt>
<wgt id='1331'> +3.0188315E+03 </wgt>
<wgt id='1332'> +2.8916728E+03 </wgt>
<wgt id='1333'> +3.0612713E+03 </wgt>
<wgt id='1334'> +2.9950210E+03 </wgt>
<wgt id='1335'> +2.9788004E+03 </wgt>
<wgt id='1336'> +3.0346188E+03 </wgt>
<wgt id='1337'> +2.9512160E+03 </wgt>
<wgt id='1338'> +3.0184808E+03 </wgt>
<wgt id='1339'> +2.9725665E+03 </wgt>
<wgt id='1340'> +2.9943742E+03 </wgt>
<wgt id='1341'> +3.0007808E+03 </wgt>
<wgt id='1342'> +2.9874433E+03 </wgt>
<wgt id='1343'> +3.0141343E+03 </wgt>
<wgt id='1344'> +2.9463621E+03 </wgt>
<wgt id='1345'> +3.0439415E+03 </wgt>
<wgt id='1346'> +2.9748926E+03 </wgt>
<wgt id='1347'> +3.0292680E+03 </wgt>
<wgt id='1348'> +3.0038376E+03 </wgt>
<wgt id='1349'> +2.9938566E+03 </wgt>
<wgt id='1350'> +2.9923841E+03 </wgt>
<wgt id='1351'> +3.0016910E+03 </wgt>
<wgt id='1352'> +2.9934470E+03 </wgt>
<wgt id='1353'> +3.0045233E+03 </wgt>
<wgt id='1354'> +3.0807838E+03 </wgt>
<wgt id='1355'> +2.9182046E+03 </wgt>
<wgt id='1356'> +3.0000439E+03 </wgt>
<wgt id='1357'> +2.9802279E+03 </wgt>
<wgt id='1358'> +2.9546995E+03 </wgt>
<wgt id='1359'> +3.0148631E+03 </wgt>
<wgt id='1360'> +3.0313519E+03 </wgt>
<wgt id='1361'> +2.9821323E+03 </wgt>
<wgt id='1362'> +2.9677734E+03 </wgt>
<wgt id='1363'> +3.0000607E+03 </wgt>
<wgt id='1364'> +2.9934955E+03 </wgt>
<wgt id='1365'> +2.9803490E+03 </wgt>
<wgt id='1366'> +2.9874302E+03 </wgt>
<wgt id='1367'> +3.0412059E+03 </wgt>
<wgt id='1368'> +3.0002546E+03 </wgt>
<wgt id='1369'> +3.0177215E+03 </wgt>
<wgt id='1370'> +2.9832660E+03 </wgt>
<wgt id='1371'> +2.9709491E+03 </wgt>
<wgt id='1372'> +2.9429100E+03 </wgt>
<wgt id='1373'> +2.9638400E+03 </wgt>
<wgt id='1374'> +3.0063258E+03 </wgt>
<wgt id='1375'> +2.9889419E+03 </wgt>
<wgt id='1376'> +2.8896367E+03 </wgt>
<wgt id='1377'> +3.0982980E+03 </wgt>
<wgt id='1378'> +3.1376172E+03 </wgt>
<wgt id='1379'> +2.9226520E+03 </wgt>
<wgt id='1380'> +2.9219971E+03 </wgt>
<wgt id='1381'> +2.9233295E+03 </wgt>
<wgt id='1382'> +2.9246834E+03 </wgt>
<wgt id='1383'> +2.9212398E+03 </wgt>
<wgt id='1384'> +2.9154307E+03 </wgt>
<wgt id='1385'> +2.9293864E+03 </wgt>
<wgt id='1386'> +2.9168193E+03 </wgt>
<wgt id='1387'> +2.9291078E+03 </wgt>
<wgt id='1388'> +2.9302877E+03 </wgt>
<wgt id='1389'> +2.9151988E+03 </wgt>
<wgt id='1390'> +2.9223793E+03 </wgt>
<wgt id='1391'> +2.9232933E+03 </wgt>
<wgt id='1392'> +2.9318511E+03 </wgt>
<wgt id='1393'> +2.9059724E+03 </wgt>
<wgt id='1394'> +2.9150499E+03 </wgt>
<wgt id='1395'> +2.9268785E+03 </wgt>
<wgt id='1396'> +2.9146798E+03 </wgt>
<wgt id='1397'> +2.9320004E+03 </wgt>
<wgt id='1398'> +2.9087117E+03 </wgt>
<wgt id='1399'> +2.9346568E+03 </wgt>
<wgt id='1400'> +2.9426885E+03 </wgt>
<wgt id='1401'> +2.8960776E+03 </wgt>
<wgt id='1402'> +2.9412128E+03 </wgt>
<wgt id='1403'> +2.9112922E+03 </wgt>
<wgt id='1404'> +2.9206633E+03 </wgt>
<wgt id='1405'> +2.9145274E+03 </wgt>
<wgt id='1406'> +2.9156379E+03 </wgt>
<wgt id='1407'> +2.9235815E+03 </wgt>
<wgt id='1408'> +2.9422864E+03 </wgt>
<wgt id='1409'> +2.8984228E+03 </wgt>
<wgt id='1410'> +2.9649662E+03 </wgt>
<wgt id='1411'> +2.8728858E+03 </wgt>
<wgt id='1412'> +2.9151875E+03 </wgt>
<wgt id='1413'> +2.9268574E+03 </wgt>
<wgt id='1414'> +2.9237563E+03 </wgt>
<wgt id='1415'> +2.9232707E+03 </wgt>
<wgt id='1416'> +2.9232626E+03 </wgt>
<wgt id='1417'> +2.9221506E+03 </wgt>
<wgt id='1418'> +2.9139591E+03 </wgt>
<wgt id='1419'> +2.9309193E+03 </wgt>
<wgt id='1420'> +2.8928886E+03 </wgt>
<wgt id='1421'> +2.9579576E+03 </wgt>
<wgt id='1422'> +2.9397558E+03 </wgt>
<wgt id='1423'> +2.9129235E+03 </wgt>
<wgt id='1424'> +2.9113205E+03 </wgt>
<wgt id='1425'> +2.9518903E+03 </wgt>
<wgt id='1426'> +2.9110055E+03 </wgt>
<wgt id='1427'> +2.9285654E+03 </wgt>
<wgt id='1428'> +2.9144113E+03 </wgt>
<wgt id='1429'> +2.9206181E+03 </wgt>
<wgt id='1430'> +2.9361251E+03 </wgt>
<wgt id='1431'> +2.9359491E+03 </wgt>
<wgt id='1432'> +2.9360350E+03 </wgt>
<wgt id='1433'> +2.9352356E+03 </wgt>
<wgt id='1434'> +2.9368423E+03 </wgt>
<wgt id='1435'> +2.9393468E+03 </wgt>
<wgt id='1436'> +2.9347254E+03 </wgt>
<wgt id='1437'> +2.9229495E+03 </wgt>
<wgt id='1438'> +2.9490477E+03 </wgt>
<wgt id='1439'> +2.9414304E+03 </wgt>
<wgt id='1440'> +2.9308479E+03 </wgt>
<wgt id='1441'> +2.9226761E+03 </wgt>
<wgt id='1442'> +2.9417533E+03 </wgt>
<wgt id='1443'> +2.9432974E+03 </wgt>
<wgt id='1444'> +2.9272049E+03 </wgt>
<wgt id='1445'> +2.9378255E+03 </wgt>
<wgt id='1446'> +2.9339438E+03 </wgt>
<wgt id='1447'> +2.9194707E+03 </wgt>
<wgt id='1448'> +2.9446735E+03 </wgt>
<wgt id='1449'> +2.9354343E+03 </wgt>
<wgt id='1450'> +2.9369658E+03 </wgt>
<wgt id='1451'> +2.9100740E+03 </wgt>
<wgt id='1452'> +2.9536885E+03 </wgt>
<wgt id='1453'> +2.9119021E+03 </wgt>
<wgt id='1454'> +2.9562865E+03 </wgt>
<wgt id='1455'> +2.9307076E+03 </wgt>
<wgt id='1456'> +2.9498660E+03 </wgt>
<wgt id='1457'> +2.9342534E+03 </wgt>
<wgt id='1458'> +2.9349947E+03 </wgt>
<wgt id='1459'> +2.9187119E+03 </wgt>
<wgt id='1460'> +2.9786798E+03 </wgt>
<wgt id='1461'> +2.9528743E+03 </wgt>
<wgt id='1462'> +2.9002967E+03 </wgt>
<wgt id='1463'> +2.9296842E+03 </wgt>
<wgt id='1464'> +2.9457094E+03 </wgt>
<wgt id='1465'> +2.9417567E+03 </wgt>
<wgt id='1466'> +2.9327875E+03 </wgt>
<wgt id='1467'> +2.9358994E+03 </wgt>
<wgt id='1468'> +2.9187670E+03 </wgt>
<wgt id='1469'> +2.9275620E+03 </wgt>
<wgt id='1470'> +2.9406492E+03 </wgt>
<wgt id='1471'> +2.9612506E+03 </wgt>
<wgt id='1472'> +2.8924176E+03 </wgt>
<wgt id='1473'> +2.9363648E+03 </wgt>
<wgt id='1474'> +2.9253201E+03 </wgt>
<wgt id='1475'> +2.9331658E+03 </wgt>
<wgt id='1476'> +2.9408208E+03 </wgt>
<wgt id='1477'> +2.9514670E+03 </wgt>
<wgt id='1478'> +2.9293815E+03 </wgt>
<wgt id='1479'> +2.9399552E+03 </wgt>
<wgt id='1480'> +2.9341552E+03 </wgt>
<wgt id='1481'> +4.4108403E+03 </wgt>
<wgt id='1482'> +2.9155446E+03 </wgt>
<wgt id='1483'> +2.9147091E+03 </wgt>
<wgt id='1484'> +2.9159990E+03 </wgt>
<wgt id='1485'> +2.9142567E+03 </wgt>
<wgt id='1486'> +2.9155503E+03 </wgt>
<wgt id='1487'> +2.9145055E+03 </wgt>
<wgt id='1488'> +2.9077787E+03 </wgt>
<wgt id='1489'> +2.9130118E+03 </wgt>
<wgt id='1490'> +2.9186336E+03 </wgt>
<wgt id='1491'> +2.9053618E+03 </wgt>
<wgt id='1492'> +2.9207734E+03 </wgt>
<wgt id='1493'> +2.9180698E+03 </wgt>
<wgt id='1494'> +2.9248973E+03 </wgt>
<wgt id='1495'> +2.9168316E+03 </wgt>
<wgt id='1496'> +2.9120463E+03 </wgt>
<wgt id='1497'> +2.9068031E+03 </wgt>
<wgt id='1498'> +2.9075458E+03 </wgt>
<wgt id='1499'> +2.9105049E+03 </wgt>
<wgt id='1500'> +2.9090319E+03 </wgt>
<wgt id='1501'> +2.9209592E+03 </wgt>
<wgt id='1502'> +2.9076081E+03 </wgt>
<wgt id='1503'> +2.9073957E+03 </wgt>
<wgt id='1504'> +2.9092677E+03 </wgt>
<wgt id='1505'> +2.9376449E+03 </wgt>
<wgt id='1506'> +2.9318880E+03 </wgt>
<wgt id='1507'> +2.9183041E+03 </wgt>
<wgt id='1508'> +2.9207241E+03 </wgt>
<wgt id='1509'> +2.9327368E+03 </wgt>
<wgt id='1510'> +2.8933016E+03 </wgt>
<wgt id='1511'> +2.8876449E+03 </wgt>
<wgt id='1512'> +2.9385393E+03 </wgt>
<wgt id='1513'> +2.9331779E+03 </wgt>
<wgt id='1514'> +2.9243044E+03 </wgt>
<wgt id='1515'> +2.9419657E+03 </wgt>
<wgt id='1516'> +2.9411284E+03 </wgt>
<wgt id='1517'> +2.9478570E+03 </wgt>
<wgt id='1518'> +2.9122073E+03 </wgt>
<wgt id='1519'> +2.9696132E+03 </wgt>
<wgt id='1520'> +2.9825795E+03 </wgt>
<wgt id='1521'> +2.9335500E+03 </wgt>
<wgt id='1522'> +2.9397553E+03 </wgt>
<wgt id='1523'> +2.9286287E+03 </wgt>
<wgt id='1524'> +2.9247705E+03 </wgt>
<wgt id='1525'> +2.9340230E+03 </wgt>
<wgt id='1526'> +2.9366235E+03 </wgt>
<wgt id='1527'> +2.9317058E+03 </wgt>
<wgt id='1528'> +2.9284894E+03 </wgt>
<wgt id='1529'> +2.9348857E+03 </wgt>
<wgt id='1530'> +2.9613929E+03 </wgt>
<wgt id='1531'> +2.9281349E+03 </wgt>
<wgt id='1532'> +2.9442403E+03 </wgt>
<wgt id='1533'> +2.9441788E+03 </wgt>
<wgt id='1534'> +2.9386911E+03 </wgt>
<wgt id='1535'> +2.9648646E+03 </wgt>
<wgt id='1536'> +2.9270732E+03 </wgt>
<wgt id='1537'> +2.9448999E+03 </wgt>
<wgt id='1538'> +2.9311162E+03 </wgt>
<wgt id='1539'> +2.9427688E+03 </wgt>
<wgt id='1540'> +2.9404346E+03 </wgt>
<wgt id='1541'> +2.9314996E+03 </wgt>
<wgt id='1542'> +2.9291238E+03 </wgt>
<wgt id='1543'> +2.9317524E+03 </wgt>
<wgt id='1544'> +2.9556350E+03 </wgt>
<wgt id='1545'> +2.9388681E+03 </wgt>
<wgt id='1546'> +2.9232540E+03 </wgt>
<wgt id='1547'> +2.9545715E+03 </wgt>
<wgt id='1548'> +2.9321607E+03 </wgt>
<wgt id='1549'> +2.9420479E+03 </wgt>
<wgt id='1550'> +2.9284837E+03 </wgt>
<wgt id='1551'> +2.9273114E+03 </wgt>
<wgt id='1552'> +2.9334784E+03 </wgt>
<wgt id='1553'> +2.9359622E+03 </wgt>
<wgt id='1554'> +2.9443323E+03 </wgt>
<wgt id='1555'> +2.9370525E+03 </wgt>
<wgt id='1556'> +2.9330499E+03 </wgt>
<wgt id='1557'> +2.9423538E+03 </wgt>
<wgt id='1558'> +2.9411097E+03 </wgt>
<wgt id='1559'> +2.9435266E+03 </wgt>
<wgt id='1560'> +2.9334188E+03 </wgt>
<wgt id='1561'> +2.9368827E+03 </wgt>
<wgt id='1562'> +2.9389633E+03 </wgt>
<wgt id='1563'> +2.9249864E+03 </wgt>
<wgt id='1564'> +2.9390108E+03 </wgt>
<wgt id='1565'> +2.9428054E+03 </wgt>
<wgt id='1566'> +2.9363299E+03 </wgt>
<wgt id='1567'> +2.9401816E+03 </wgt>
<wgt id='1568'> +2.9377551E+03 </wgt>
<wgt id='1569'> +2.9350924E+03 </wgt>
<wgt id='1570'> +2.9462026E+03 </wgt>
<wgt id='1571'> +2.9463488E+03 </wgt>
<wgt id='1572'> +2.9323234E+03 </wgt>
<wgt id='1573'> +2.9390709E+03 </wgt>
<wgt id='1574'> +2.9315350E+03 </wgt>
<wgt id='1575'> +2.9436612E+03 </wgt>
<wgt id='1576'> +2.9383835E+03 </wgt>
<wgt id='1577'> +2.9416347E+03 </wgt>
<wgt id='1578'> +2.9391051E+03 </wgt>
<wgt id='1579'> +2.9390150E+03 </wgt>
<wgt id='1580'> +2.9408466E+03 </wgt>
<wgt id='1581'> +2.9388691E+03 </wgt>
<wgt id='1582'> +2.9380822E+03 </wgt>
<wgt id='1583'> +2.9368733E+03 </wgt>
<wgt id='1584'> +2.9389889E+03 </wgt>
<wgt id='1585'> +2.9372917E+03 </wgt>
<wgt id='1586'> +2.9382767E+03 </wgt>
<wgt id='1587'> +2.9386256E+03 </wgt>
<wgt id='1588'> +2.9379914E+03 </wgt>
<wgt id='1589'> +2.9376264E+03 </wgt>
<wgt id='1590'> +2.9370286E+03 </wgt>
<wgt id='1591'> +2.9393463E+03 </wgt>
<wgt id='1592'> +2.9385198E+03 </wgt>
<wgt id='1593'> +2.9393256E+03 </wgt>
<wgt id='1594'> +2.9352723E+03 </wgt>
<wgt id='1595'> +2.9388801E+03 </wgt>
<wgt id='1596'> +2.9379444E+03 </wgt>
<wgt id='1597'> +2.9375184E+03 </wgt>
<wgt id='1598'> +2.9392889E+03 </wgt>
<wgt id='1599'> +2.9367512E+03 </wgt>
<wgt id='1600'> +2.9383470E+03 </wgt>
<wgt id='1601'> +2.9389542E+03 </wgt>
<wgt id='1602'> +2.9389805E+03 </wgt>
<wgt id='1603'> +2.9371893E+03 </wgt>
<wgt id='1604'> +2.9381056E+03 </wgt>
<wgt id='1605'> +2.9369398E+03 </wgt>
<wgt id='1606'> +2.9384969E+03 </wgt>
<wgt id='1607'> +2.9370392E+03 </wgt>
<wgt id='1608'> +2.9373599E+03 </wgt>
<wgt id='1609'> +2.9393062E+03 </wgt>
<wgt id='1610'> +2.9387859E+03 </wgt>
<wgt id='1611'> +2.9380918E+03 </wgt>
<wgt id='1612'> +2.9388851E+03 </wgt>
<wgt id='1613'> +2.8576369E+03 </wgt>
<wgt id='1614'> +3.0133150E+03 </wgt>
<wgt id='1615'> +2.9198726E+03 </wgt>
<wgt id='1616'> +2.9259728E+03 </wgt>
<wgt id='1617'> +2.9190474E+03 </wgt>
<wgt id='1618'> +2.9147536E+03 </wgt>
<wgt id='1619'> +2.9188347E+03 </wgt>
<wgt id='1620'> +2.9164046E+03 </wgt>
<wgt id='1621'> +2.9290409E+03 </wgt>
<wgt id='1622'> +2.9436609E+03 </wgt>
<wgt id='1623'> +2.9288607E+03 </wgt>
<wgt id='1624'> +2.9112221E+03 </wgt>
<wgt id='1625'> +2.9246962E+03 </wgt>
<wgt id='1626'> +2.9321380E+03 </wgt>
<wgt id='1627'> +2.9002827E+03 </wgt>
<wgt id='1628'> +2.9098778E+03 </wgt>
<wgt id='1629'> +2.9031460E+03 </wgt>
<wgt id='1630'> +2.9464076E+03 </wgt>
<wgt id='1631'> +2.9138363E+03 </wgt>
<wgt id='1632'> +2.9240191E+03 </wgt>
<wgt id='1633'> +2.9212969E+03 </wgt>
<wgt id='1634'> +2.9019196E+03 </wgt>
<wgt id='1635'> +2.9210635E+03 </wgt>
<wgt id='1636'> +2.9256526E+03 </wgt>
<wgt id='1637'> +2.8957515E+03 </wgt>
<wgt id='1638'> +2.9253088E+03 </wgt>
<wgt id='1639'> +2.9299555E+03 </wgt>
<wgt id='1640'> +2.9150300E+03 </wgt>
<wgt id='1641'> +2.9110380E+03 </wgt>
<wgt id='1642'> +2.9260417E+03 </wgt>
<wgt id='1643'> +2.9171525E+03 </wgt>
<wgt id='1644'> +2.9052951E+03 </wgt>
<wgt id='1645'> +2.9176718E+03 </wgt>
<wgt id='1646'> +2.9151100E+03 </wgt>
<wgt id='1647'> +2.9337134E+03 </wgt>
<wgt id='1648'> +2.9214681E+03 </wgt>
<wgt id='1649'> +2.9162340E+03 </wgt>
<wgt id='1650'> +2.9233054E+03 </wgt>
<wgt id='1651'> +2.9169955E+03 </wgt>
<wgt id='1652'> +2.9372024E+03 </wgt>
<wgt id='1653'> +2.9392584E+03 </wgt>
<wgt id='1654'> +2.9172733E+03 </wgt>
<wgt id='1655'> +2.9214258E+03 </wgt>
<wgt id='1656'> +2.9070755E+03 </wgt>
<wgt id='1657'> +2.9131974E+03 </wgt>
<wgt id='1658'> +2.9220896E+03 </wgt>
<wgt id='1659'> +2.9181217E+03 </wgt>
<wgt id='1660'> +2.9210052E+03 </wgt>
<wgt id='1661'> +2.9140140E+03 </wgt>
<wgt id='1662'> +2.9158099E+03 </wgt>
<wgt id='1663'> +2.9159079E+03 </wgt>
<wgt id='1664'> +2.9139742E+03 </wgt>
<wgt id='1665'> +2.9217743E+03 </wgt>
<wgt id='1666'> +2.9215661E+03 </wgt>
<wgt id='1667'> +2.9161614E+03 </wgt>
<wgt id='1668'> +2.9170070E+03 </wgt>
<wgt id='1669'> +2.9220022E+03 </wgt>
<wgt id='1670'> +2.9130773E+03 </wgt>
<wgt id='1671'> +2.9243814E+03 </wgt>
<wgt id='1672'> +2.9264692E+03 </wgt>
<wgt id='1673'> +2.9182834E+03 </wgt>
<wgt id='1674'> +2.9163411E+03 </wgt>
<wgt id='1675'> +2.9138742E+03 </wgt>
<wgt id='1676'> +2.9270567E+03 </wgt>
<wgt id='1677'> +2.9143064E+03 </wgt>
<wgt id='1678'> +2.9232321E+03 </wgt>
<wgt id='1679'> +2.9178653E+03 </wgt>
<wgt id='1680'> +2.9159825E+03 </wgt>
<wgt id='1681'> +2.9174587E+03 </wgt>
<wgt id='1682'> +2.9174190E+03 </wgt>
<wgt id='1683'> +2.9190008E+03 </wgt>
<wgt id='1684'> +2.9186752E+03 </wgt>
<wgt id='1685'> +2.9189413E+03 </wgt>
<wgt id='1686'> +2.9231639E+03 </wgt>
<wgt id='1687'> +2.9196708E+03 </wgt>
<wgt id='1688'> +2.9203375E+03 </wgt>
<wgt id='1689'> +2.9187390E+03 </wgt>
<wgt id='1690'> +2.9213825E+03 </wgt>
<wgt id='1691'> +2.9206050E+03 </wgt>
<wgt id='1692'> +2.9209587E+03 </wgt>
<wgt id='1693'> +2.9185184E+03 </wgt>
<wgt id='1694'> +2.9193260E+03 </wgt>
<wgt id='1695'> +2.9231464E+03 </wgt>
<wgt id='1696'> +2.9188817E+03 </wgt>
<wgt id='1697'> +2.9200436E+03 </wgt>
<wgt id='1698'> +2.9182457E+03 </wgt>
<wgt id='1699'> +2.9178082E+03 </wgt>
<wgt id='1700'> +2.9211177E+03 </wgt>
<wgt id='1701'> +2.9199193E+03 </wgt>
<wgt id='1702'> +2.9176228E+03 </wgt>
<wgt id='1703'> +2.9197973E+03 </wgt>
<wgt id='1704'> +2.9184510E+03 </wgt>
<wgt id='1705'> +2.9205767E+03 </wgt>
<wgt id='1706'> +2.9194665E+03 </wgt>
<wgt id='1707'> +2.9191854E+03 </wgt>
<wgt id='1708'> +2.9195120E+03 </wgt>
<wgt id='1709'> +2.9193904E+03 </wgt>
<wgt id='1710'> +2.9192654E+03 </wgt>
<wgt id='1711'> +2.9203112E+03 </wgt>
<wgt id='1712'> +2.9203653E+03 </wgt>
<wgt id='1713'> +2.9201261E+03 </wgt>
<wgt id='1714'> +2.9185244E+03 </wgt>
<wgt id='1715'> +2.9206286E+03 </wgt>
<wgt id='1716'> +2.8464605E+03 </wgt>
<wgt id='1717'> +2.9887819E+03 </wgt>
<wgt id='1718'> +2.9398501E+03 </wgt>
<wgt id='1719'> +2.9244277E+03 </wgt>
<wgt id='1720'> +2.9136513E+03 </wgt>
<wgt id='1721'> +2.9409578E+03 </wgt>
<wgt id='1722'> +2.9708368E+03 </wgt>
<wgt id='1723'> +2.9573113E+03 </wgt>
<wgt id='1724'> +2.9776511E+03 </wgt>
<wgt id='1725'> +2.9360739E+03 </wgt>
<wgt id='1726'> +2.9406618E+03 </wgt>
<wgt id='1727'> +2.9465981E+03 </wgt>
<wgt id='1728'> +2.9371613E+03 </wgt>
<wgt id='1729'> +2.9484107E+03 </wgt>
<wgt id='1730'> +2.9447104E+03 </wgt>
<wgt id='1731'> +2.9352551E+03 </wgt>
<wgt id='1732'> +2.9299321E+03 </wgt>
<wgt id='1733'> +2.9484976E+03 </wgt>
<wgt id='1734'> +2.9520924E+03 </wgt>
<wgt id='1735'> +2.8978560E+03 </wgt>
<wgt id='1736'> +2.9382917E+03 </wgt>
<wgt id='1737'> +2.9442226E+03 </wgt>
<wgt id='1738'> +2.9459771E+03 </wgt>
<wgt id='1739'> +2.9383446E+03 </wgt>
<wgt id='1740'> +2.9329891E+03 </wgt>
<wgt id='1741'> +2.9404457E+03 </wgt>
<wgt id='1742'> +2.9317039E+03 </wgt>
<wgt id='1743'> +2.9395033E+03 </wgt>
<wgt id='1744'> +2.8988417E+03 </wgt>
<wgt id='1745'> +2.9400169E+03 </wgt>
<wgt id='1746'> +2.9413206E+03 </wgt>
<wgt id='1747'> +2.9424948E+03 </wgt>
<wgt id='1748'> +2.9396670E+03 </wgt>
<wgt id='1749'> +2.8576369E+03 </wgt>
<wgt id='1750'> +3.0133150E+03 </wgt>
<wgt id='1751'> +2.9199255E+03 </wgt>
<wgt id='1752'> +2.9423979E+03 </wgt>
<wgt id='1753'> +2.9446882E+03 </wgt>
<wgt id='1754'> +2.9177316E+03 </wgt>
<wgt id='1755'> +2.9156103E+03 </wgt>
<wgt id='1756'> +2.8943902E+03 </wgt>
<wgt id='1757'> +2.9210731E+03 </wgt>
<wgt id='1758'> +2.9176967E+03 </wgt>
<wgt id='1759'> +2.9171304E+03 </wgt>
<wgt id='1760'> +2.9021842E+03 </wgt>
<wgt id='1761'> +2.9499088E+03 </wgt>
<wgt id='1762'> +2.9286205E+03 </wgt>
<wgt id='1763'> +2.9211027E+03 </wgt>
<wgt id='1764'> +2.9197284E+03 </wgt>
<wgt id='1765'> +2.9159283E+03 </wgt>
<wgt id='1766'> +2.9085264E+03 </wgt>
<wgt id='1767'> +2.9150165E+03 </wgt>
<wgt id='1768'> +2.9113875E+03 </wgt>
<wgt id='1769'> +2.9201824E+03 </wgt>
<wgt id='1770'> +2.9288258E+03 </wgt>
<wgt id='1771'> +2.9188940E+03 </wgt>
<wgt id='1772'> +2.8766617E+03 </wgt>
<wgt id='1773'> +2.9331213E+03 </wgt>
<wgt id='1774'> +2.9187552E+03 </wgt>
<wgt id='1775'> +2.9189029E+03 </wgt>
<wgt id='1776'> +2.9163174E+03 </wgt>
<wgt id='1777'> +2.9188613E+03 </wgt>
<wgt id='1778'> +2.9208332E+03 </wgt>
<wgt id='1779'> +2.9169871E+03 </wgt>
<wgt id='1780'> +2.9199949E+03 </wgt>
<wgt id='1781'> +2.9191190E+03 </wgt>
<wgt id='1782'> +2.8464605E+03 </wgt>
<wgt id='1783'> +2.9887819E+03 </wgt>
<wgt id='1784'> +3.0480888E+03 </wgt>
<wgt id='1785'> +3.0481638E+03 </wgt>
<wgt id='1786'> +3.0480085E+03 </wgt>
<wgt id='1787'> +3.0516961E+03 </wgt>
<wgt id='1788'> +3.0444733E+03 </wgt>
<wgt id='1789'> +3.0495163E+03 </wgt>
<wgt id='1790'> +3.0466561E+03 </wgt>
<wgt id='1791'> +3.0398171E+03 </wgt>
<wgt id='1792'> +3.0563189E+03 </wgt>
<wgt id='1793'> +3.0196884E+03 </wgt>
<wgt id='1794'> +3.0751857E+03 </wgt>
<wgt id='1795'> +3.0645554E+03 </wgt>
<wgt id='1796'> +3.0302333E+03 </wgt>
<wgt id='1797'> +3.0498645E+03 </wgt>
<wgt id='1798'> +3.0462200E+03 </wgt>
<wgt id='1799'> +3.0675182E+03 </wgt>
<wgt id='1800'> +3.0313743E+03 </wgt>
<wgt id='1801'> +3.0609693E+03 </wgt>
<wgt id='1802'> +3.0305439E+03 </wgt>
<wgt id='1803'> +2.9844328E+03 </wgt>
<wgt id='1804'> +3.1107364E+03 </wgt>
<wgt id='1805'> +2.9911240E+03 </wgt>
<wgt id='1806'> +3.1012745E+03 </wgt>
<wgt id='1807'> +2.9995239E+03 </wgt>
<wgt id='1808'> +3.0869796E+03 </wgt>
<wgt id='1809'> +3.0886317E+03 </wgt>
<wgt id='1810'> +3.0099568E+03 </wgt>
<wgt id='1811'> +3.0359341E+03 </wgt>
<wgt id='1812'> +3.0623389E+03 </wgt>
<wgt id='1813'> +3.0480888E+03 </wgt>
<wgt id='1814'> +3.1182314E+03 </wgt>
<wgt id='1815'> +2.9808880E+03 </wgt>
<wgt id='1816'> +3.3281171E+03 </wgt>
<wgt id='1817'> +3.3152265E+03 </wgt>
<wgt id='1818'> +3.0825994E+03 </wgt>
<wgt id='1819'> +3.0328170E+03 </wgt>
<wgt id='1820'> +3.0432122E+03 </wgt>
<wgt id='1821'> +3.0519796E+03 </wgt>
<wgt id='1822'> +3.0387526E+03 </wgt>
<wgt id='1823'> +3.0575419E+03 </wgt>
<wgt id='1824'> +3.0406775E+03 </wgt>
<wgt id='1825'> +3.0629153E+03 </wgt>
<wgt id='1826'> +3.1342895E+03 </wgt>
<wgt id='1827'> +3.1000149E+03 </wgt>
<wgt id='1828'> +3.0999573E+03 </wgt>
<wgt id='1829'> +3.0990986E+03 </wgt>
<wgt id='1830'> +3.1035304E+03 </wgt>
<wgt id='1831'> +3.0955173E+03 </wgt>
<wgt id='1832'> +3.1037101E+03 </wgt>
<wgt id='1833'> +3.0953500E+03 </wgt>
<wgt id='1834'> +3.0955333E+03 </wgt>
<wgt id='1835'> +3.1034162E+03 </wgt>
<wgt id='1836'> +3.0992293E+03 </wgt>
<wgt id='1837'> +3.0996270E+03 </wgt>
<wgt id='1838'> +3.0716072E+03 </wgt>
<wgt id='1839'> +3.1261020E+03 </wgt>
<wgt id='1840'> +3.1018575E+03 </wgt>
<wgt id='1841'> +3.0973192E+03 </wgt>
<wgt id='1842'> +3.0998985E+03 </wgt>
<wgt id='1843'> +3.1047386E+03 </wgt>
<wgt id='1844'> +3.0771782E+03 </wgt>
<wgt id='1845'> +3.1210376E+03 </wgt>
<wgt id='1846'> +3.0368745E+03 </wgt>
<wgt id='1847'> +3.1592720E+03 </wgt>
<wgt id='1848'> +3.1003036E+03 </wgt>
<wgt id='1849'> +3.0951555E+03 </wgt>
<wgt id='1850'> +3.1285397E+03 </wgt>
<wgt id='1851'> +3.0722709E+03 </wgt>
<wgt id='1852'> +3.1062399E+03 </wgt>
<wgt id='1853'> +3.0968309E+03 </wgt>
<wgt id='1854'> +3.0918148E+03 </wgt>
<wgt id='1855'> +3.1129424E+03 </wgt>
<wgt id='1856'> +3.0961006E+03 </wgt>
<wgt id='1857'> +3.1497387E+03 </wgt>
<wgt id='1858'> +3.0078815E+03 </wgt>
<wgt id='1859'> +3.2936288E+03 </wgt>
<wgt id='1860'> +3.2532082E+03 </wgt>
<wgt id='1861'> +3.2129421E+03 </wgt>
<wgt id='1862'> +3.0341141E+03 </wgt>
<wgt id='1863'> +3.0917114E+03 </wgt>
<wgt id='1864'> +3.1017709E+03 </wgt>
<wgt id='1865'> +3.0303943E+03 </wgt>
<wgt id='1866'> +3.1916858E+03 </wgt>
<wgt id='1867'> +3.0247033E+03 </wgt>
<wgt id='1868'> +3.1230363E+03 </wgt>
<wgt id='1869'> +2.9840941E+03 </wgt>
<wgt id='1870'> +2.9779804E+03 </wgt>
<wgt id='1871'> +2.9772642E+03 </wgt>
<wgt id='1872'> +2.9765458E+03 </wgt>
<wgt id='1873'> +2.9758310E+03 </wgt>
<wgt id='1874'> +2.9751107E+03 </wgt>
<wgt id='1875'> +2.9743952E+03 </wgt>
<wgt id='1876'> +2.9736807E+03 </wgt>
<wgt id='1877'> +2.9729623E+03 </wgt>
<wgt id='1878'> +2.9722471E+03 </wgt>
<wgt id='1879'> +2.9715309E+03 </wgt>
<wgt id='1880'> +2.9708127E+03 </wgt>
<wgt id='1881'> +2.9700909E+03 </wgt>
<wgt id='1882'> +2.9693776E+03 </wgt>
<wgt id='1883'> +2.9686718E+03 </wgt>
<wgt id='1884'> +2.9679556E+03 </wgt>
<wgt id='1885'> +2.9672401E+03 </wgt>
<wgt id='1886'> +2.9665227E+03 </wgt>
<wgt id='1887'> +2.9658075E+03 </wgt>
<wgt id='1888'> +2.9650913E+03 </wgt>
<wgt id='1889'> +2.9643773E+03 </wgt>
<wgt id='1890'> +2.9636623E+03 </wgt>
<wgt id='1891'> +2.9629446E+03 </wgt>
<wgt id='1892'> +2.9622243E+03 </wgt>
<wgt id='1893'> +2.9615218E+03 </wgt>
<wgt id='1894'> +2.9608042E+03 </wgt>
<wgt id='1895'> +2.9600909E+03 </wgt>
<wgt id='1896'> +2.9593774E+03 </wgt>
<wgt id='1897'> +2.9586600E+03 </wgt>
<wgt id='1898'> +2.9579465E+03 </wgt>
<wgt id='1899'> +2.9572315E+03 </wgt>
<wgt id='1900'> +2.9565171E+03 </wgt>
<wgt id='1901'> +2.8984061E+03 </wgt>
<wgt id='1902'> +2.9036602E+03 </wgt>
<wgt id='1903'> +2.8973217E+03 </wgt>
<wgt id='1904'> +2.8934269E+03 </wgt>
<wgt id='1905'> +2.8972255E+03 </wgt>
<wgt id='1906'> +2.8949723E+03 </wgt>
<wgt id='1907'> +2.9081259E+03 </wgt>
<wgt id='1908'> +2.9225821E+03 </wgt>
<wgt id='1909'> +2.9073647E+03 </wgt>
<wgt id='1910'> +2.8899350E+03 </wgt>
<wgt id='1911'> +2.9030806E+03 </wgt>
<wgt id='1912'> +2.9114094E+03 </wgt>
<wgt id='1913'> +2.8793254E+03 </wgt>
<wgt id='1914'> +2.8888413E+03 </wgt>
<wgt id='1915'> +2.8816500E+03 </wgt>
<wgt id='1916'> +2.9234922E+03 </wgt>
<wgt id='1917'> +2.8932714E+03 </wgt>
<wgt id='1918'> +2.9021621E+03 </wgt>
<wgt id='1919'> +2.8995960E+03 </wgt>
<wgt id='1920'> +2.8811300E+03 </wgt>
<wgt id='1921'> +2.9002643E+03 </wgt>
<wgt id='1922'> +2.9037325E+03 </wgt>
<wgt id='1923'> +2.8743775E+03 </wgt>
<wgt id='1924'> +2.9039885E+03 </wgt>
<wgt id='1925'> +2.9080260E+03 </wgt>
<wgt id='1926'> +2.8929740E+03 </wgt>
<wgt id='1927'> +2.8890241E+03 </wgt>
<wgt id='1928'> +2.9052196E+03 </wgt>
<wgt id='1929'> +2.8960010E+03 </wgt>
<wgt id='1930'> +2.8836391E+03 </wgt>
<wgt id='1931'> +2.8959333E+03 </wgt>
<wgt id='1932'> +2.8944163E+03 </wgt>
<wgt id='1933'> +2.9119038E+03 </wgt>
<wgt id='1934'> +2.8997676E+03 </wgt>
<wgt id='1935'> +2.8947892E+03 </wgt>
<wgt id='1936'> +2.9016713E+03 </wgt>
<wgt id='1937'> +2.8955735E+03 </wgt>
<wgt id='1938'> +2.9156527E+03 </wgt>
<wgt id='1939'> +2.9175441E+03 </wgt>
<wgt id='1940'> +2.8955568E+03 </wgt>
<wgt id='1941'> +2.8999431E+03 </wgt>
<wgt id='1942'> +2.8855362E+03 </wgt>
<wgt id='1943'> +2.8916433E+03 </wgt>
<wgt id='1944'> +2.9009657E+03 </wgt>
<wgt id='1945'> +2.8965737E+03 </wgt>
<wgt id='1946'> +2.8994496E+03 </wgt>
<wgt id='1947'> +2.8927466E+03 </wgt>
<wgt id='1948'> +2.8942477E+03 </wgt>
<wgt id='1949'> +2.8946127E+03 </wgt>
<wgt id='1950'> +2.8924830E+03 </wgt>
<wgt id='1951'> +2.9003721E+03 </wgt>
<wgt id='1952'> +2.9000154E+03 </wgt>
<wgt id='1953'> +2.8946735E+03 </wgt>
<wgt id='1954'> +2.8956321E+03 </wgt>
<wgt id='1955'> +2.9006238E+03 </wgt>
<wgt id='1956'> +2.8917496E+03 </wgt>
<wgt id='1957'> +2.9026319E+03 </wgt>
<wgt id='1958'> +2.9049953E+03 </wgt>
<wgt id='1959'> +2.8970463E+03 </wgt>
<wgt id='1960'> +2.8949521E+03 </wgt>
<wgt id='1961'> +2.8925682E+03 </wgt>
<wgt id='1962'> +2.9055732E+03 </wgt>
<wgt id='1963'> +2.8928207E+03 </wgt>
<wgt id='1964'> +2.9016720E+03 </wgt>
<wgt id='1965'> +2.8965275E+03 </wgt>
<wgt id='1966'> +2.8945428E+03 </wgt>
<wgt id='1967'> +2.8960042E+03 </wgt>
<wgt id='1968'> +2.8958420E+03 </wgt>
<wgt id='1969'> +2.8975560E+03 </wgt>
<wgt id='1970'> +2.8971081E+03 </wgt>
<wgt id='1971'> +2.8974777E+03 </wgt>
<wgt id='1972'> +2.9017282E+03 </wgt>
<wgt id='1973'> +2.8981609E+03 </wgt>
<wgt id='1974'> +2.8988060E+03 </wgt>
<wgt id='1975'> +2.8973190E+03 </wgt>
<wgt id='1976'> +2.8999170E+03 </wgt>
<wgt id='1977'> +2.8992904E+03 </wgt>
<wgt id='1978'> +2.8995028E+03 </wgt>
<wgt id='1979'> +2.8971538E+03 </wgt>
<wgt id='1980'> +2.8978343E+03 </wgt>
<wgt id='1981'> +2.9015133E+03 </wgt>
<wgt id='1982'> +2.8975570E+03 </wgt>
<wgt id='1983'> +2.8986273E+03 </wgt>
<wgt id='1984'> +2.8967896E+03 </wgt>
<wgt id='1985'> +2.8963040E+03 </wgt>
<wgt id='1986'> +2.8996864E+03 </wgt>
<wgt id='1987'> +2.8985877E+03 </wgt>
<wgt id='1988'> +2.8961418E+03 </wgt>
<wgt id='1989'> +2.8982643E+03 </wgt>
<wgt id='1990'> +2.8969213E+03 </wgt>
<wgt id='1991'> +2.8990383E+03 </wgt>
<wgt id='1992'> +2.8979259E+03 </wgt>
<wgt id='1993'> +2.8976727E+03 </wgt>
<wgt id='1994'> +2.8980539E+03 </wgt>
<wgt id='1995'> +2.8977992E+03 </wgt>
<wgt id='1996'> +2.8977937E+03 </wgt>
<wgt id='1997'> +2.8988518E+03 </wgt>
<wgt id='1998'> +2.8989035E+03 </wgt>
<wgt id='1999'> +2.8986239E+03 </wgt>
<wgt id='2000'> +2.8971041E+03 </wgt>
<wgt id='2001'> +2.8991946E+03 </wgt>
<wgt id='2002'> +2.8983874E+03 </wgt>
<wgt id='2003'> +2.8982833E+03 </wgt>
<wgt id='2004'> +2.8984255E+03 </wgt>
<wgt id='2005'> +2.8984287E+03 </wgt>
<wgt id='2006'> +2.8984629E+03 </wgt>
<wgt id='2007'> +2.8984144E+03 </wgt>
<wgt id='2008'> +2.8983241E+03 </wgt>
<wgt id='2009'> +2.8956981E+03 </wgt>
<wgt id='2010'> +2.7680290E+03 </wgt>
<wgt id='2011'> +2.8912119E+03 </wgt>
<wgt id='2012'> +2.8839728E+03 </wgt>
<wgt id='2013'> +2.9619331E+03 </wgt>
<wgt id='2014'> +2.7053848E+03 </wgt>
<wgt id='2015'> +2.8969299E+03 </wgt>
<wgt id='2016'> +2.9412945E+03 </wgt>
<wgt id='2017'> +2.9343703E+03 </wgt>
<wgt id='2018'> +2.8911198E+03 </wgt>
<wgt id='2019'> +2.9620215E+03 </wgt>
<wgt id='2020'> +3.0322844E+03 </wgt>
<wgt id='2021'> +2.8494543E+03 </wgt>
<wgt id='2022'> +2.8667511E+03 </wgt>
<wgt id='2023'> +2.8856777E+03 </wgt>
<wgt id='2024'> +2.9038612E+03 </wgt>
<wgt id='2025'> +2.8644300E+03 </wgt>
<wgt id='2026'> +2.7890921E+03 </wgt>
<wgt id='2027'> +2.6626908E+03 </wgt>
<wgt id='2028'> +2.9003563E+03 </wgt>
<wgt id='2029'> +2.9562242E+03 </wgt>
<wgt id='2030'> +2.9944037E+03 </wgt>
<wgt id='2031'> +3.0130433E+03 </wgt>
<wgt id='2032'> +2.9921316E+03 </wgt>
<wgt id='2033'> +2.8730881E+03 </wgt>
<wgt id='2034'> +2.8648156E+03 </wgt>
<wgt id='2035'> +2.8475641E+03 </wgt>
<wgt id='2036'> +2.7570756E+03 </wgt>
<wgt id='2037'> +2.8584275E+03 </wgt>
<wgt id='2038'> +2.8793510E+03 </wgt>
<wgt id='2039'> +2.8966289E+03 </wgt>
<wgt id='2040'> +2.9313701E+03 </wgt>
<wgt id='2041'> +3.0052924E+03 </wgt>
<wgt id='2042'> +2.9870224E+03 </wgt>
<wgt id='2043'> +2.9148567E+03 </wgt>
<wgt id='2044'> +2.9472584E+03 </wgt>
<wgt id='2045'> +2.8442320E+03 </wgt>
<wgt id='2046'> +2.8137940E+03 </wgt>
<wgt id='2047'> +2.9020193E+03 </wgt>
<wgt id='2048'> +2.8339005E+03 </wgt>
<wgt id='2049'> +2.9353941E+03 </wgt>
<wgt id='2050'> +2.9562626E+03 </wgt>
<wgt id='2051'> +2.9304356E+03 </wgt>
<wgt id='2052'> +2.9438805E+03 </wgt>
<wgt id='2053'> +2.9171503E+03 </wgt>
<wgt id='2054'> +2.9751358E+03 </wgt>
<wgt id='2055'> +2.8670240E+03 </wgt>
<wgt id='2056'> +2.8983025E+03 </wgt>
<wgt id='2057'> +2.8539961E+03 </wgt>
<wgt id='2058'> +2.8660819E+03 </wgt>
<wgt id='2059'> +2.9207894E+03 </wgt>
<wgt id='2060'> +2.9417220E+03 </wgt>
<wgt id='2061'> +2.9168188E+03 </wgt>
<wgt id='2062'> +2.8754811E+03 </wgt>
<wgt id='2063'> +2.9312596E+03 </wgt>
<wgt id='2064'> +2.9107867E+03 </wgt>
<wgt id='2065'> +2.7672407E+03 </wgt>
<wgt id='2066'> +2.8125674E+03 </wgt>
<wgt id='2067'> +2.9214512E+03 </wgt>
<wgt id='2068'> +2.8426517E+03 </wgt>
<wgt id='2069'> +2.9440624E+03 </wgt>
<wgt id='2070'> +2.8335262E+03 </wgt>
<wgt id='2071'> +2.8772672E+03 </wgt>
<wgt id='2072'> +2.8294473E+03 </wgt>
<wgt id='2073'> +2.6993992E+03 </wgt>
<wgt id='2074'> +2.9482864E+03 </wgt>
<wgt id='2075'> +2.8841852E+03 </wgt>
<wgt id='2076'> +3.1829848E+03 </wgt>
<wgt id='2077'> +2.8707598E+03 </wgt>
<wgt id='2078'> +2.8780254E+03 </wgt>
<wgt id='2079'> +2.9438101E+03 </wgt>
<wgt id='2080'> +2.9498581E+03 </wgt>
<wgt id='2081'> +2.8978828E+03 </wgt>
<wgt id='2082'> +2.9136461E+03 </wgt>
<wgt id='2083'> +2.9335906E+03 </wgt>
<wgt id='2084'> +2.8655139E+03 </wgt>
<wgt id='2085'> +3.0499607E+03 </wgt>
<wgt id='2086'> +2.9148585E+03 </wgt>
<wgt id='2087'> +2.9757498E+03 </wgt>
<wgt id='2088'> +2.9029435E+03 </wgt>
<wgt id='2089'> +2.9211817E+03 </wgt>
<wgt id='2090'> +2.9799020E+03 </wgt>
<wgt id='2091'> +2.9312764E+03 </wgt>
<wgt id='2092'> +2.9010531E+03 </wgt>
<wgt id='2093'> +2.8827391E+03 </wgt>
<wgt id='2094'> +2.8823751E+03 </wgt>
<wgt id='2095'> +2.8768254E+03 </wgt>
<wgt id='2096'> +2.9798641E+03 </wgt>
<wgt id='2097'> +2.8928303E+03 </wgt>
<wgt id='2098'> +2.8075323E+03 </wgt>
<wgt id='2099'> +2.8926477E+03 </wgt>
<wgt id='2100'> +2.8932512E+03 </wgt>
<wgt id='2101'> +2.9445492E+03 </wgt>
<wgt id='2102'> +2.8311999E+03 </wgt>
<wgt id='2103'> +2.9817442E+03 </wgt>
<wgt id='2104'> +2.7551076E+03 </wgt>
<wgt id='2105'> +2.9245200E+03 </wgt>
<wgt id='2106'> +2.7892393E+03 </wgt>
<wgt id='2107'> +2.9173715E+03 </wgt>
<wgt id='2108'> +2.8726712E+03 </wgt>
<wgt id='2109'> +2.7365945E+03 </wgt>
<wgt id='2110'> +2.8450670E+03 </wgt>
<wgt id='2111'> +2.9434800E+03 </wgt>
<wgt id='2112'> +2.9216958E+03 </wgt>
<wgt id='2113'> +3.4200641E+03 </wgt>
<wgt id='2114'> +4.2773220E+03 </wgt>
<wgt id='2115'> +3.2155155E+03 </wgt>
<wgt id='2116'> +4.2953621E+03 </wgt>
</rwgt>
</event>
<event>
 7      7 +2.9771057E+03 1.15670400e+02 7.54677100e-03 1.13912100e-01
       21 -1    0    0  501  502 +0.0000000000e+00 +0.0000000000e+00 +7.3324881822e+01 7.3324881822e+01 0.0000000000e+00 0.0000e+00 -1.0000e+00
        1 -1    0    0  503    0 -0.0000000000e+00 -0.0000000000e+00 -5.9775823043e+01 5.9775823043e+01 0.0000000000e+00 0.0000e+00 -1.0000e+00
      -24  2    1    2    0    0 -1.6294016103e+01 +5.3008120898e+00 +1.6444121503e+01 8.9683547422e+01 8.6481997992e+01 0.0000e+00 0.0000e+00
       15  1    3    3    0    0 -3.7449955072e+01 +1.0438990232e+01 +4.1227973156e+01 5.6695459708e+01 1.7770000000e+00 0.0000e+00 -1.0000e+00
      -16  1    3    3    0    0 +2.1155938969e+01 -5.1381781424e+00 -2.4783851653e+01 3.2988087714e+01 0.0000000000e+00 0.0000e+00 1.0000e+00
       21  1    1    2  503  502 -6.7351110518e+00 -1.4798284997e+01 +5.4466013481e+00 1.7146907184e+01 0.0000000000e+00 0.0000e+00 -1.0000e+00
        2  1    1    2  501    0 +2.3029127155e+01 +9.4974729073e+00 -8.3416640721e+00 2.6270250258e+01 0.0000000000e+00 0.0000e+00 -1.0000e+00
<scales pt_clust_4="13000.00000" pt_clust_5="13000.00000" pt_clust_6="16.25887" pt_clust_7="13000.00000"></scales>
<mgrwt>
<rscale>  1 0.11567037E+03</rscale>
<asrwt>  1 0.16258873E+02</asrwt>
<pdfrwt beam="1">  1       21 0.11280751E-01 0.11567037E+03</pdfrwt>
<pdfrwt beam="2">  1        1 0.91962804E-02 0.11567037E+03</pdfrwt>
<totfact> 0.95660472E+03</totfact>
</mgrwt>
<clustering>
<clus scale="   16.259">  1  6  2 -1</clus>
<clus scale="   86.482">  4  5 -1 -1</clus>
<clus scale="   23.251">  4  7 -1 -1</clus>
<clus scale="  115.670">  1  4  2 -1</clus>
</clustering>
<rwgt>
<wgt id='1001'> +2.9771057E+03 </wgt>
<wgt id='1002'> +2.9958390E+03 </wgt>
<wgt id='1003'> +2.9958088E+03 </wgt>
<wgt id='1004'> +3.0807361E+03 </wgt>
<wgt id='1005'> +2.9564683E+03 </wgt>
<wgt id='1006'> +2.7047151E+03 </wgt>
<wgt id='1007'> +2.7168159E+03 </wgt>
<wgt id='1008'> +2.7167967E+03 </wgt>
<wgt id='1009'> +2.7627892E+03 </wgt>
<wgt id='1010'> +2.6908981E+03 </wgt>
<wgt id='1011'> +3.3122889E+03 </wgt>
<wgt id='1012'> +3.3406186E+03 </wgt>
<wgt id='1013'> +3.3405720E+03 </wgt>
<wgt id='1014'> +3.4841690E+03 </wgt>
<wgt id='1015'> +3.2818344E+03 </wgt>
<wgt id='1016'> +3.1534186E+03 </wgt>
<wgt id='1017'> +3.1829745E+03 </wgt>
<wgt id='1018'> +3.1829258E+03 </wgt>
<wgt id='1019'> +3.3405720E+03 </wgt>
<wgt id='1020'> +3.1220396E+03 </wgt>
<wgt id='1021'> +2.8648964E+03 </wgt>
<wgt id='1022'> +2.8865221E+03 </wgt>
<wgt id='1023'> +2.8864864E+03 </wgt>
<wgt id='1024'> +2.9958088E+03 </wgt>
<wgt id='1025'> +2.8415966E+03 </wgt>
<wgt id='1026'> +3.5084523E+03 </wgt>
<wgt id='1027'> +3.5492906E+03 </wgt>
<wgt id='1028'> +3.5492227E+03 </wgt>
<wgt id='1029'> +3.7780315E+03 </wgt>
<wgt id='1030'> +3.4656271E+03 </wgt>
<wgt id='1031'> +2.7573505E+03 </wgt>
<wgt id='1032'> +2.7627968E+03 </wgt>
<wgt id='1033'> +2.7627892E+03 </wgt>
<wgt id='1034'> +2.7587019E+03 </wgt>
<wgt id='1035'> +2.7499397E+03 </wgt>
<wgt id='1036'> +2.5050666E+03 </wgt>
<wgt id='1037'> +2.5054784E+03 </wgt>
<wgt id='1038'> +2.5054791E+03 </wgt>
<wgt id='1039'> +2.4739905E+03 </wgt>
<wgt id='1040'> +2.5029212E+03 </wgt>
<wgt id='1041'> +3.0677923E+03 </wgt>
<wgt id='1042'> +3.0807563E+03 </wgt>
<wgt id='1043'> +3.0807361E+03 </wgt>
<wgt id='1044'> +3.1199636E+03 </wgt>
<wgt id='1045'> +3.0525767E+03 </wgt>
<wgt id='1046'> +2.9771057E+03 </wgt>
<wgt id='1047'> +2.9759194E+03 </wgt>
<wgt id='1048'> +2.9812793E+03 </wgt>
<wgt id='1049'> +2.9829032E+03 </wgt>
<wgt id='1050'> +2.9850151E+03 </wgt>
<wgt id='1051'> +2.9730162E+03 </wgt>
<wgt id='1052'> +2.9653689E+03 </wgt>
<wgt id='1053'> +2.9658203E+03 </wgt>
<wgt id='1054'> +2.9629087E+03 </wgt>
<wgt id='1055'> +2.9866985E+03 </wgt>
<wgt id='1056'> +2.9658215E+03 </wgt>
<wgt id='1057'> +2.9713153E+03 </wgt>
<wgt id='1058'> +2.9904757E+03 </wgt>
<wgt id='1059'> +2.9853193E+03 </wgt>
<wgt id='1060'> +2.9886773E+03 </wgt>
<wgt id='1061'> +2.9950451E+03 </wgt>
<wgt id='1062'> +2.9873884E+03 </wgt>
<wgt id='1063'> +2.9667427E+03 </wgt>
<wgt id='1064'> +2.9775177E+03 </wgt>
<wgt id='1065'> +2.9669231E+03 </wgt>
<wgt id='1066'> +2.9765211E+03 </wgt>
<wgt id='1067'> +2.9861435E+03 </wgt>
<wgt id='1068'> +2.9834264E+03 </wgt>
<wgt id='1069'> +2.9618019E+03 </wgt>
<wgt id='1070'> +2.9963815E+03 </wgt>
<wgt id='1071'> +2.9773606E+03 </wgt>
<wgt id='1072'> +2.9685773E+03 </wgt>
<wgt id='1073'> +2.9790419E+03 </wgt>
<wgt id='1074'> +2.9730433E+03 </wgt>
<wgt id='1075'> +2.9757784E+03 </wgt>
<wgt id='1076'> +3.0015204E+03 </wgt>
<wgt id='1077'> +2.9804403E+03 </wgt>
<wgt id='1078'> +2.9779211E+03 </wgt>
<wgt id='1079'> +2.9677520E+03 </wgt>
<wgt id='1080'> +2.9784007E+03 </wgt>
<wgt id='1081'> +2.9831367E+03 </wgt>
<wgt id='1082'> +2.9759706E+03 </wgt>
<wgt id='1083'> +2.9810251E+03 </wgt>
<wgt id='1084'> +2.9757318E+03 </wgt>
<wgt id='1085'> +2.9767360E+03 </wgt>
<wgt id='1086'> +2.9787276E+03 </wgt>
<wgt id='1087'> +2.9755458E+03 </wgt>
<wgt id='1088'> +2.9791115E+03 </wgt>
<wgt id='1089'> +2.9761082E+03 </wgt>
<wgt id='1090'> +2.9790603E+03 </wgt>
<wgt id='1091'> +2.9792666E+03 </wgt>
<wgt id='1092'> +2.9775745E+03 </wgt>
<wgt id='1093'> +2.9782169E+03 </wgt>
<wgt id='1094'> +2.9766021E+03 </wgt>
<wgt id='1095'> +2.9775610E+03 </wgt>
<wgt id='1096'> +2.9796992E+03 </wgt>
<wgt id='1097'> +2.9773685E+03 </wgt>
<wgt id='1098'> +2.9753169E+03 </wgt>
<wgt id='1099'> +2.9759711E+03 </wgt>
<wgt id='1100'> +2.9734649E+03 </wgt>
<wgt id='1101'> +2.9779513E+03 </wgt>
<wgt id='1102'> +2.9785088E+03 </wgt>
<wgt id='1103'> +2.9787500E+03 </wgt>
<wgt id='1104'> +2.9801132E+03 </wgt>
<wgt id='1105'> +2.9742522E+03 </wgt>
<wgt id='1106'> +2.9760562E+03 </wgt>
<wgt id='1107'> +2.9752888E+03 </wgt>
<wgt id='1108'> +2.9769922E+03 </wgt>
<wgt id='1109'> +2.9791137E+03 </wgt>
<wgt id='1110'> +2.9770089E+03 </wgt>
<wgt id='1111'> +2.9790773E+03 </wgt>
<wgt id='1112'> +2.9758549E+03 </wgt>
<wgt id='1113'> +2.9757134E+03 </wgt>
<wgt id='1114'> +2.9768261E+03 </wgt>
<wgt id='1115'> +2.9741616E+03 </wgt>
<wgt id='1116'> +2.9789232E+03 </wgt>
<wgt id='1117'> +2.9737501E+03 </wgt>
<wgt id='1118'> +2.9763208E+03 </wgt>
<wgt id='1119'> +2.9772314E+03 </wgt>
<wgt id='1120'> +2.9759863E+03 </wgt>
<wgt id='1121'> +2.9770035E+03 </wgt>
<wgt id='1122'> +2.9793035E+03 </wgt>
<wgt id='1123'> +2.9773230E+03 </wgt>
<wgt id='1124'> +2.9754193E+03 </wgt>
<wgt id='1125'> +2.9801324E+03 </wgt>
<wgt id='1126'> +2.9779363E+03 </wgt>
<wgt id='1127'> +2.9777697E+03 </wgt>
<wgt id='1128'> +2.9795307E+03 </wgt>
<wgt id='1129'> +2.9766976E+03 </wgt>
<wgt id='1130'> +2.9783714E+03 </wgt>
<wgt id='1131'> +2.9789542E+03 </wgt>
<wgt id='1132'> +2.9757254E+03 </wgt>
<wgt id='1133'> +2.9784802E+03 </wgt>
<wgt id='1134'> +2.9766855E+03 </wgt>
<wgt id='1135'> +2.9779804E+03 </wgt>
<wgt id='1136'> +2.9777564E+03 </wgt>
<wgt id='1137'> +2.9765805E+03 </wgt>
<wgt id='1138'> +2.9767355E+03 </wgt>
<wgt id='1139'> +2.9768719E+03 </wgt>
<wgt id='1140'> +2.9770707E+03 </wgt>
<wgt id='1141'> +2.9765881E+03 </wgt>
<wgt id='1142'> +2.9753755E+03 </wgt>
<wgt id='1143'> +2.9768672E+03 </wgt>
<wgt id='1144'> +2.9774776E+03 </wgt>
<wgt id='1145'> +2.9771549E+03 </wgt>
<wgt id='1146'> +2.9775127E+03 </wgt>
<wgt id='1147'> +2.8699792E+03 </wgt>
<wgt id='1148'> +3.0764465E+03 </wgt>
<wgt id='1149'> +2.5289862E+03 </wgt>
<wgt id='1150'> +2.6044112E+03 </wgt>
<wgt id='1151'> +2.6877301E+03 </wgt>
<wgt id='1152'> +2.7897881E+03 </wgt>
<wgt id='1153'> +2.9402471E+03 </wgt>
<wgt id='1154'> +3.0280623E+03 </wgt>
<wgt id='1155'> +3.1773441E+03 </wgt>
<wgt id='1156'> +3.2700511E+03 </wgt>
<wgt id='1157'> +2.9647245E+03 </wgt>
<wgt id='1158'> +2.9676779E+03 </wgt>
<wgt id='1159'> +2.9638880E+03 </wgt>
<wgt id='1160'> +2.9684207E+03 </wgt>
<wgt id='1161'> +2.9760806E+03 </wgt>
<wgt id='1162'> +2.9756172E+03 </wgt>
<wgt id='1163'> +2.9583912E+03 </wgt>
<wgt id='1164'> +2.9749549E+03 </wgt>
<wgt id='1165'> +2.9646953E+03 </wgt>
<wgt id='1166'> +2.9715951E+03 </wgt>
<wgt id='1167'> +2.9450446E+03 </wgt>
<wgt id='1168'> +2.9632907E+03 </wgt>
<wgt id='1169'> +2.9808589E+03 </wgt>
<wgt id='1170'> +2.9600968E+03 </wgt>
<wgt id='1171'> +2.9753115E+03 </wgt>
<wgt id='1172'> +2.9596184E+03 </wgt>
<wgt id='1173'> +2.9841210E+03 </wgt>
<wgt id='1174'> +2.9647905E+03 </wgt>
<wgt id='1175'> +2.9743861E+03 </wgt>
<wgt id='1176'> +2.9566989E+03 </wgt>
<wgt id='1177'> +2.9530355E+03 </wgt>
<wgt id='1178'> +2.9775462E+03 </wgt>
<wgt id='1179'> +2.9643662E+03 </wgt>
<wgt id='1180'> +2.9544558E+03 </wgt>
<wgt id='1181'> +2.9855647E+03 </wgt>
<wgt id='1182'> +2.9581230E+03 </wgt>
<wgt id='1183'> +2.9669704E+03 </wgt>
<wgt id='1184'> +2.9555929E+03 </wgt>
<wgt id='1185'> +2.9616592E+03 </wgt>
<wgt id='1186'> +2.9816955E+03 </wgt>
<wgt id='1187'> +2.9789319E+03 </wgt>
<wgt id='1188'> +2.9512056E+03 </wgt>
<wgt id='1189'> +2.9723177E+03 </wgt>
<wgt id='1190'> +2.9580681E+03 </wgt>
<wgt id='1191'> +2.9614071E+03 </wgt>
<wgt id='1192'> +2.9661432E+03 </wgt>
<wgt id='1193'> +2.9630679E+03 </wgt>
<wgt id='1194'> +2.9608096E+03 </wgt>
<wgt id='1195'> +2.9638604E+03 </wgt>
<wgt id='1196'> +2.9636379E+03 </wgt>
<wgt id='1197'> +2.9620544E+03 </wgt>
<wgt id='1198'> +2.9680013E+03 </wgt>
<wgt id='1199'> +2.9613464E+03 </wgt>
<wgt id='1200'> +2.9661151E+03 </wgt>
<wgt id='1201'> +2.9644304E+03 </wgt>
<wgt id='1202'> +2.9644752E+03 </wgt>
<wgt id='1203'> +2.9654506E+03 </wgt>
<wgt id='1204'> +2.9647521E+03 </wgt>
<wgt id='1205'> +2.9646569E+03 </wgt>
<wgt id='1206'> +2.9630096E+03 </wgt>
<wgt id='1207'> +2.9654654E+03 </wgt>
<wgt id='1208'> +2.9655828E+03 </wgt>
<wgt id='1209'> +2.9618012E+03 </wgt>
<wgt id='1210'> +2.9634566E+03 </wgt>
<wgt id='1211'> +2.9604594E+03 </wgt>
<wgt id='1212'> +2.9648424E+03 </wgt>
<wgt id='1213'> +2.9642040E+03 </wgt>
<wgt id='1214'> +2.9623677E+03 </wgt>
<wgt id='1215'> +2.9629953E+03 </wgt>
<wgt id='1216'> +2.9640428E+03 </wgt>
<wgt id='1217'> +2.9658308E+03 </wgt>
<wgt id='1218'> +2.9669819E+03 </wgt>
<wgt id='1219'> +2.9690146E+03 </wgt>
<wgt id='1220'> +2.9675699E+03 </wgt>
<wgt id='1221'> +2.9657986E+03 </wgt>
<wgt id='1222'> +2.9670668E+03 </wgt>
<wgt id='1223'> +2.9657516E+03 </wgt>
<wgt id='1224'> +2.9647366E+03 </wgt>
<wgt id='1225'> +2.9639212E+03 </wgt>
<wgt id='1226'> +2.9619902E+03 </wgt>
<wgt id='1227'> +2.9669745E+03 </wgt>
<wgt id='1228'> +2.9642385E+03 </wgt>
<wgt id='1229'> +2.9642751E+03 </wgt>
<wgt id='1230'> +2.9658623E+03 </wgt>
<wgt id='1231'> +2.9646268E+03 </wgt>
<wgt id='1232'> +2.9673792E+03 </wgt>
<wgt id='1233'> +2.9619939E+03 </wgt>
<wgt id='1234'> +2.9667353E+03 </wgt>
<wgt id='1235'> +2.9642340E+03 </wgt>
<wgt id='1236'> +2.9657826E+03 </wgt>
<wgt id='1237'> +2.9639980E+03 </wgt>
<wgt id='1238'> +2.9627204E+03 </wgt>
<wgt id='1239'> +2.9643445E+03 </wgt>
<wgt id='1240'> +2.9642542E+03 </wgt>
<wgt id='1241'> +2.9662202E+03 </wgt>
<wgt id='1242'> +2.9670757E+03 </wgt>
<wgt id='1243'> +2.9635082E+03 </wgt>
<wgt id='1244'> +2.9655668E+03 </wgt>
<wgt id='1245'> +2.9638503E+03 </wgt>
<wgt id='1246'> +2.9640603E+03 </wgt>
<wgt id='1247'> +2.9643473E+03 </wgt>
<wgt id='1248'> +2.9644907E+03 </wgt>
<wgt id='1249'> +2.9667267E+03 </wgt>
<wgt id='1250'> +2.9643384E+03 </wgt>
<wgt id='1251'> +2.9650103E+03 </wgt>
<wgt id='1252'> +2.9642367E+03 </wgt>
<wgt id='1253'> +2.9647201E+03 </wgt>
<wgt id='1254'> +2.9642761E+03 </wgt>
<wgt id='1255'> +2.9658350E+03 </wgt>
<wgt id='1256'> +2.9646837E+03 </wgt>
<wgt id='1257'> +2.9646876E+03 </wgt>
<wgt id='1258'> +2.8687215E+03 </wgt>
<wgt id='1259'> +3.0712670E+03 </wgt>
<wgt id='1260'> +2.9022605E+03 </wgt>
<wgt id='1261'> +2.8730591E+03 </wgt>
<wgt id='1262'> +2.8740034E+03 </wgt>
<wgt id='1263'> +2.8914149E+03 </wgt>
<wgt id='1264'> +2.9019637E+03 </wgt>
<wgt id='1265'> +2.8664029E+03 </wgt>
<wgt id='1266'> +2.9232490E+03 </wgt>
<wgt id='1267'> +2.9037675E+03 </wgt>
<wgt id='1268'> +2.8392565E+03 </wgt>
<wgt id='1269'> +2.9448302E+03 </wgt>
<wgt id='1270'> +2.8782890E+03 </wgt>
<wgt id='1271'> +2.9038238E+03 </wgt>
<wgt id='1272'> +2.8795578E+03 </wgt>
<wgt id='1273'> +2.8529578E+03 </wgt>
<wgt id='1274'> +2.8998185E+03 </wgt>
<wgt id='1275'> +2.9228297E+03 </wgt>
<wgt id='1276'> +2.8322153E+03 </wgt>
<wgt id='1277'> +2.9098301E+03 </wgt>
<wgt id='1278'> +2.8925901E+03 </wgt>
<wgt id='1279'> +2.9053955E+03 </wgt>
<wgt id='1280'> +2.8960943E+03 </wgt>
<wgt id='1281'> +2.9155616E+03 </wgt>
<wgt id='1282'> +2.8938251E+03 </wgt>
<wgt id='1283'> +2.9071695E+03 </wgt>
<wgt id='1284'> +2.8957761E+03 </wgt>
<wgt id='1285'> +2.9138179E+03 </wgt>
<wgt id='1286'> +2.8922953E+03 </wgt>
<wgt id='1287'> +2.9192142E+03 </wgt>
<wgt id='1288'> +2.8733315E+03 </wgt>
<wgt id='1289'> +2.8994671E+03 </wgt>
<wgt id='1290'> +2.9019086E+03 </wgt>
<wgt id='1291'> +2.8994255E+03 </wgt>
<wgt id='1292'> +2.9036466E+03 </wgt>
<wgt id='1293'> +2.9452425E+03 </wgt>
<wgt id='1294'> +2.8592898E+03 </wgt>
<wgt id='1295'> +2.8868371E+03 </wgt>
<wgt id='1296'> +2.9133589E+03 </wgt>
<wgt id='1297'> +2.9314304E+03 </wgt>
<wgt id='1298'> +2.8688731E+03 </wgt>
<wgt id='1299'> +2.9643514E+03 </wgt>
<wgt id='1300'> +2.8450646E+03 </wgt>
<wgt id='1301'> +2.9079411E+03 </wgt>
<wgt id='1302'> +2.9012480E+03 </wgt>
<wgt id='1303'> +2.9290923E+03 </wgt>
<wgt id='1304'> +2.8366912E+03 </wgt>
<wgt id='1305'> +2.9529233E+03 </wgt>
<wgt id='1306'> +2.8909138E+03 </wgt>
<wgt id='1307'> +2.9122388E+03 </wgt>
<wgt id='1308'> +2.9148425E+03 </wgt>
<wgt id='1309'> +2.8934205E+03 </wgt>
<wgt id='1310'> +2.9285620E+03 </wgt>
<wgt id='1311'> +2.9037544E+03 </wgt>
<wgt id='1312'> +2.9255566E+03 </wgt>
<wgt id='1313'> +2.9559005E+03 </wgt>
<wgt id='1314'> +2.9987929E+03 </wgt>
<wgt id='1315'> +2.8654179E+03 </wgt>
<wgt id='1316'> +2.9613518E+03 </wgt>
<wgt id='1317'> +2.7957916E+03 </wgt>
<wgt id='1318'> +3.0068439E+03 </wgt>
<wgt id='1319'> +2.9121659E+03 </wgt>
<wgt id='1320'> +2.9376702E+03 </wgt>
<wgt id='1321'> +2.9026065E+03 </wgt>
<wgt id='1322'> +2.9592750E+03 </wgt>
<wgt id='1323'> +2.8934926E+03 </wgt>
<wgt id='1324'> +2.9456880E+03 </wgt>
<wgt id='1325'> +2.8947136E+03 </wgt>
<wgt id='1326'> +2.9480950E+03 </wgt>
<wgt id='1327'> +2.9169947E+03 </wgt>
<wgt id='1328'> +2.8665444E+03 </wgt>
<wgt id='1329'> +2.9427368E+03 </wgt>
<wgt id='1330'> +2.9288391E+03 </wgt>
<wgt id='1331'> +2.9081488E+03 </wgt>
<wgt id='1332'> +2.8338355E+03 </wgt>
<wgt id='1333'> +2.9413253E+03 </wgt>
<wgt id='1334'> +2.9551533E+03 </wgt>
<wgt id='1335'> +2.8590403E+03 </wgt>
<wgt id='1336'> +2.9463330E+03 </wgt>
<wgt id='1337'> +2.8748304E+03 </wgt>
<wgt id='1338'> +2.9388292E+03 </wgt>
<wgt id='1339'> +2.8814447E+03 </wgt>
<wgt id='1340'> +2.9222503E+03 </wgt>
<wgt id='1341'> +2.8895799E+03 </wgt>
<wgt id='1342'> +2.9420422E+03 </wgt>
<wgt id='1343'> +2.8780449E+03 </wgt>
<wgt id='1344'> +2.8936004E+03 </wgt>
<wgt id='1345'> +2.9297404E+03 </wgt>
<wgt id='1346'> +2.8792489E+03 </wgt>
<wgt id='1347'> +2.9538297E+03 </wgt>
<wgt id='1348'> +2.9056483E+03 </wgt>
<wgt id='1349'> +2.9143389E+03 </wgt>
<wgt id='1350'> +2.9193584E+03 </wgt>
<wgt id='1351'> +2.9027660E+03 </wgt>
<wgt id='1352'> +2.9092448E+03 </wgt>
<wgt id='1353'> +2.9179324E+03 </wgt>
<wgt id='1354'> +2.9429974E+03 </wgt>
<wgt id='1355'> +2.8846100E+03 </wgt>
<wgt id='1356'> +2.9286707E+03 </wgt>
<wgt id='1357'> +2.8761055E+03 </wgt>
<wgt id='1358'> +2.8885863E+03 </wgt>
<wgt id='1359'> +2.9159662E+03 </wgt>
<wgt id='1360'> +2.9193589E+03 </wgt>
<wgt id='1361'> +2.9106806E+03 </wgt>
<wgt id='1362'> +2.9325404E+03 </wgt>
<wgt id='1363'> +2.8871896E+03 </wgt>
<wgt id='1364'> +2.8827966E+03 </wgt>
<wgt id='1365'> +2.8902700E+03 </wgt>
<wgt id='1366'> +2.8684488E+03 </wgt>
<wgt id='1367'> +2.9205344E+03 </wgt>
<wgt id='1368'> +2.9055843E+03 </wgt>
<wgt id='1369'> +2.8677469E+03 </wgt>
<wgt id='1370'> +2.8818319E+03 </wgt>
<wgt id='1371'> +2.8908370E+03 </wgt>
<wgt id='1372'> +2.8618391E+03 </wgt>
<wgt id='1373'> +2.9150482E+03 </wgt>
<wgt id='1374'> +2.8759817E+03 </wgt>
<wgt id='1375'> +2.9646113E+03 </wgt>
<wgt id='1376'> +2.8026585E+03 </wgt>
<wgt id='1377'> +3.0188389E+03 </wgt>
<wgt id='1378'> +2.7272217E+03 </wgt>
<wgt id='1379'> +2.9164351E+03 </wgt>
<wgt id='1380'> +2.9132087E+03 </wgt>
<wgt id='1381'> +2.9199265E+03 </wgt>
<wgt id='1382'> +2.9068132E+03 </wgt>
<wgt id='1383'> +2.9229153E+03 </wgt>
<wgt id='1384'> +2.9172623E+03 </wgt>
<wgt id='1385'> +2.9157346E+03 </wgt>
<wgt id='1386'> +2.9086649E+03 </wgt>
<wgt id='1387'> +2.9250720E+03 </wgt>
<wgt id='1388'> +2.9178018E+03 </wgt>
<wgt id='1389'> +2.9150307E+03 </wgt>
<wgt id='1390'> +2.9197965E+03 </wgt>
<wgt id='1391'> +2.9090730E+03 </wgt>
<wgt id='1392'> +2.9134772E+03 </wgt>
<wgt id='1393'> +2.9216985E+03 </wgt>
<wgt id='1394'> +2.9056175E+03 </wgt>
<wgt id='1395'> +2.9225218E+03 </wgt>
<wgt id='1396'> +2.9136992E+03 </wgt>
<wgt id='1397'> +2.9198344E+03 </wgt>
<wgt id='1398'> +2.9212129E+03 </wgt>
<wgt id='1399'> +2.9122910E+03 </wgt>
<wgt id='1400'> +2.9140549E+03 </wgt>
<wgt id='1401'> +2.9196745E+03 </wgt>
<wgt id='1402'> +2.9102337E+03 </wgt>
<wgt id='1403'> +2.9209961E+03 </wgt>
<wgt id='1404'> +2.8921217E+03 </wgt>
<wgt id='1405'> +2.9377475E+03 </wgt>
<wgt id='1406'> +2.9175990E+03 </wgt>
<wgt id='1407'> +2.9228191E+03 </wgt>
<wgt id='1408'> +2.9252320E+03 </wgt>
<wgt id='1409'> +2.9061789E+03 </wgt>
<wgt id='1410'> +2.9287335E+03 </wgt>
<wgt id='1411'> +2.9029405E+03 </wgt>
<wgt id='1412'> +2.9190232E+03 </wgt>
<wgt id='1413'> +2.9141703E+03 </wgt>
<wgt id='1414'> +2.9127817E+03 </wgt>
<wgt id='1415'> +2.9301984E+03 </wgt>
<wgt id='1416'> +2.9248557E+03 </wgt>
<wgt id='1417'> +2.9135508E+03 </wgt>
<wgt id='1418'> +2.9155983E+03 </wgt>
<wgt id='1419'> +2.9171811E+03 </wgt>
<wgt id='1420'> +2.8771771E+03 </wgt>
<wgt id='1421'> +2.9508827E+03 </wgt>
<wgt id='1422'> +2.9486074E+03 </wgt>
<wgt id='1423'> +2.8915040E+03 </wgt>
<wgt id='1424'> +2.9065926E+03 </wgt>
<wgt id='1425'> +2.9407415E+03 </wgt>
<wgt id='1426'> +2.9067684E+03 </wgt>
<wgt id='1427'> +2.9044438E+03 </wgt>
<wgt id='1428'> +2.9188377E+03 </wgt>
<wgt id='1429'> +2.9150049E+03 </wgt>
<wgt id='1430'> +2.9426356E+03 </wgt>
<wgt id='1431'> +2.9375846E+03 </wgt>
<wgt id='1432'> +2.9491685E+03 </wgt>
<wgt id='1433'> +2.9497998E+03 </wgt>
<wgt id='1434'> +2.9355576E+03 </wgt>
<wgt id='1435'> +2.9311905E+03 </wgt>
<wgt id='1436'> +2.9472503E+03 </wgt>
<wgt id='1437'> +2.9323992E+03 </wgt>
<wgt id='1438'> +2.9528133E+03 </wgt>
<wgt id='1439'> +2.9423351E+03 </wgt>
<wgt id='1440'> +2.9429479E+03 </wgt>
<wgt id='1441'> +2.9293879E+03 </wgt>
<wgt id='1442'> +2.9484152E+03 </wgt>
<wgt id='1443'> +2.9443003E+03 </wgt>
<wgt id='1444'> +2.9405842E+03 </wgt>
<wgt id='1445'> +2.9339005E+03 </wgt>
<wgt id='1446'> +2.9520968E+03 </wgt>
<wgt id='1447'> +2.9475530E+03 </wgt>
<wgt id='1448'> +2.9397681E+03 </wgt>
<wgt id='1449'> +2.9424562E+03 </wgt>
<wgt id='1450'> +2.9429199E+03 </wgt>
<wgt id='1451'> +2.9464403E+03 </wgt>
<wgt id='1452'> +2.9399960E+03 </wgt>
<wgt id='1453'> +2.9619075E+03 </wgt>
<wgt id='1454'> +2.9241934E+03 </wgt>
<wgt id='1455'> +2.9492069E+03 </wgt>
<wgt id='1456'> +2.9264788E+03 </wgt>
<wgt id='1457'> +2.9511547E+03 </wgt>
<wgt id='1458'> +2.9424968E+03 </wgt>
<wgt id='1459'> +2.9333804E+03 </wgt>
<wgt id='1460'> +2.9669571E+03 </wgt>
<wgt id='1461'> +2.9479916E+03 </wgt>
<wgt id='1462'> +2.9332930E+03 </wgt>
<wgt id='1463'> +2.9366432E+03 </wgt>
<wgt id='1464'> +2.9561186E+03 </wgt>
<wgt id='1465'> +2.9554757E+03 </wgt>
<wgt id='1466'> +2.9384600E+03 </wgt>
<wgt id='1467'> +2.9472934E+03 </wgt>
<wgt id='1468'> +2.9396748E+03 </wgt>
<wgt id='1469'> +2.9428945E+03 </wgt>
<wgt id='1470'> +2.9422369E+03 </wgt>
<wgt id='1471'> +2.9568670E+03 </wgt>
<wgt id='1472'> +2.9052523E+03 </wgt>
<wgt id='1473'> +2.9458597E+03 </wgt>
<wgt id='1474'> +2.9280345E+03 </wgt>
<wgt id='1475'> +2.9096531E+03 </wgt>
<wgt id='1476'> +2.9556515E+03 </wgt>
<wgt id='1477'> +2.9562367E+03 </wgt>
<wgt id='1478'> +2.9353577E+03 </wgt>
<wgt id='1479'> +2.9425391E+03 </wgt>
<wgt id='1480'> +2.9309163E+03 </wgt>
<wgt id='1481'> +3.6524234E+03 </wgt>
<wgt id='1482'> +2.8359051E+03 </wgt>
<wgt id='1483'> +2.8350713E+03 </wgt>
<wgt id='1484'> +2.8367072E+03 </wgt>
<wgt id='1485'> +2.8337590E+03 </wgt>
<wgt id='1486'> +2.8359378E+03 </wgt>
<wgt id='1487'> +2.8362142E+03 </wgt>
<wgt id='1488'> +2.8264557E+03 </wgt>
<wgt id='1489'> +2.8381704E+03 </wgt>
<wgt id='1490'> +2.8386983E+03 </wgt>
<wgt id='1491'> +2.8363001E+03 </wgt>
<wgt id='1492'> +2.8347447E+03 </wgt>
<wgt id='1493'> +2.8360740E+03 </wgt>
<wgt id='1494'> +2.8343159E+03 </wgt>
<wgt id='1495'> +2.8358027E+03 </wgt>
<wgt id='1496'> +2.8351781E+03 </wgt>
<wgt id='1497'> +2.8360252E+03 </wgt>
<wgt id='1498'> +2.8327273E+03 </wgt>
<wgt id='1499'> +2.8340277E+03 </wgt>
<wgt id='1500'> +2.8387640E+03 </wgt>
<wgt id='1501'> +2.8421629E+03 </wgt>
<wgt id='1502'> +2.8322924E+03 </wgt>
<wgt id='1503'> +2.8320236E+03 </wgt>
<wgt id='1504'> +2.8248151E+03 </wgt>
<wgt id='1505'> +2.8450013E+03 </wgt>
<wgt id='1506'> +2.8421501E+03 </wgt>
<wgt id='1507'> +2.8413298E+03 </wgt>
<wgt id='1508'> +2.8434643E+03 </wgt>
<wgt id='1509'> +2.8392486E+03 </wgt>
<wgt id='1510'> +2.8251681E+03 </wgt>
<wgt id='1511'> +2.8163768E+03 </wgt>
<wgt id='1512'> +2.8918449E+03 </wgt>
<wgt id='1513'> +2.8884686E+03 </wgt>
<wgt id='1514'> +2.9001126E+03 </wgt>
<wgt id='1515'> +2.9264783E+03 </wgt>
<wgt id='1516'> +2.8810775E+03 </wgt>
<wgt id='1517'> +2.8804051E+03 </wgt>
<wgt id='1518'> +2.8740770E+03 </wgt>
<wgt id='1519'> +2.9095830E+03 </wgt>
<wgt id='1520'> +2.9236423E+03 </wgt>
<wgt id='1521'> +2.8762485E+03 </wgt>
<wgt id='1522'> +2.9112477E+03 </wgt>
<wgt id='1523'> +2.8751008E+03 </wgt>
<wgt id='1524'> +2.8684299E+03 </wgt>
<wgt id='1525'> +2.8933592E+03 </wgt>
<wgt id='1526'> +2.8844232E+03 </wgt>
<wgt id='1527'> +2.8882693E+03 </wgt>
<wgt id='1528'> +2.8921791E+03 </wgt>
<wgt id='1529'> +2.8988808E+03 </wgt>
<wgt id='1530'> +2.9066955E+03 </wgt>
<wgt id='1531'> +2.8809338E+03 </wgt>
<wgt id='1532'> +2.9034938E+03 </wgt>
<wgt id='1533'> +2.8828156E+03 </wgt>
<wgt id='1534'> +2.8935965E+03 </wgt>
<wgt id='1535'> +2.8963249E+03 </wgt>
<wgt id='1536'> +2.8902695E+03 </wgt>
<wgt id='1537'> +2.8882890E+03 </wgt>
<wgt id='1538'> +2.8869895E+03 </wgt>
<wgt id='1539'> +2.8885723E+03 </wgt>
<wgt id='1540'> +2.8671021E+03 </wgt>
<wgt id='1541'> +2.8908794E+03 </wgt>
<wgt id='1542'> +2.8848721E+03 </wgt>
<wgt id='1543'> +2.8910105E+03 </wgt>
<wgt id='1544'> +2.8989495E+03 </wgt>
<wgt id='1545'> +2.8766019E+03 </wgt>
<wgt id='1546'> +2.8966978E+03 </wgt>
<wgt id='1547'> +2.8924963E+03 </wgt>
<wgt id='1548'> +2.8936117E+03 </wgt>
<wgt id='1549'> +2.8992067E+03 </wgt>
<wgt id='1550'> +2.8842421E+03 </wgt>
<wgt id='1551'> +2.8934446E+03 </wgt>
<wgt id='1552'> +2.8929305E+03 </wgt>
<wgt id='1553'> +2.8901804E+03 </wgt>
<wgt id='1554'> +2.8955300E+03 </wgt>
<wgt id='1555'> +2.8889540E+03 </wgt>
<wgt id='1556'> +2.8950279E+03 </wgt>
<wgt id='1557'> +2.8949201E+03 </wgt>
<wgt id='1558'> +2.8926703E+03 </wgt>
<wgt id='1559'> +2.8890492E+03 </wgt>
<wgt id='1560'> +2.8886673E+03 </wgt>
<wgt id='1561'> +2.8917870E+03 </wgt>
<wgt id='1562'> +2.8896370E+03 </wgt>
<wgt id='1563'> +2.8907964E+03 </wgt>
<wgt id='1564'> +2.8871711E+03 </wgt>
<wgt id='1565'> +2.8916081E+03 </wgt>
<wgt id='1566'> +2.8928138E+03 </wgt>
<wgt id='1567'> +2.8918259E+03 </wgt>
<wgt id='1568'> +2.8926839E+03 </wgt>
<wgt id='1569'> +2.8918431E+03 </wgt>
<wgt id='1570'> +2.8929150E+03 </wgt>
<wgt id='1571'> +2.8901304E+03 </wgt>
<wgt id='1572'> +2.8901181E+03 </wgt>
<wgt id='1573'> +2.8921045E+03 </wgt>
<wgt id='1574'> +2.8904565E+03 </wgt>
<wgt id='1575'> +2.8923605E+03 </wgt>
<wgt id='1576'> +2.8906569E+03 </wgt>
<wgt id='1577'> +2.8928864E+03 </wgt>
<wgt id='1578'> +2.8908806E+03 </wgt>
<wgt id='1579'> +2.8900450E+03 </wgt>
<wgt id='1580'> +2.8939834E+03 </wgt>
<wgt id='1581'> +2.8924215E+03 </wgt>
<wgt id='1582'> +2.8931074E+03 </wgt>
<wgt id='1583'> +2.8903017E+03 </wgt>
<wgt id='1584'> +2.8905355E+03 </wgt>
<wgt id='1585'> +2.8910733E+03 </wgt>
<wgt id='1586'> +2.8928623E+03 </wgt>
<wgt id='1587'> +2.8905117E+03 </wgt>
<wgt id='1588'> +2.8911124E+03 </wgt>
<wgt id='1589'> +2.8910949E+03 </wgt>
<wgt id='1590'> +2.8912901E+03 </wgt>
<wgt id='1591'> +2.8929873E+03 </wgt>
<wgt id='1592'> +2.8917464E+03 </wgt>
<wgt id='1593'> +2.8916561E+03 </wgt>
<wgt id='1594'> +2.8897184E+03 </wgt>
<wgt id='1595'> +2.8910083E+03 </wgt>
<wgt id='1596'> +2.8912355E+03 </wgt>
<wgt id='1597'> +2.8926745E+03 </wgt>
<wgt id='1598'> +2.8928202E+03 </wgt>
<wgt id='1599'> +2.8914959E+03 </wgt>
<wgt id='1600'> +2.8920248E+03 </wgt>
<wgt id='1601'> +2.8922662E+03 </wgt>
<wgt id='1602'> +2.8915574E+03 </wgt>
<wgt id='1603'> +2.8915084E+03 </wgt>
<wgt id='1604'> +2.8912916E+03 </wgt>
<wgt id='1605'> +2.8910654E+03 </wgt>
<wgt id='1606'> +2.8914695E+03 </wgt>
<wgt id='1607'> +2.8918697E+03 </wgt>
<wgt id='1608'> +2.8912850E+03 </wgt>
<wgt id='1609'> +2.8923812E+03 </wgt>
<wgt id='1610'> +2.8918210E+03 </wgt>
<wgt id='1611'> +2.8912872E+03 </wgt>
<wgt id='1612'> +2.8921744E+03 </wgt>
<wgt id='1613'> +2.8139520E+03 </wgt>
<wgt id='1614'> +2.9651939E+03 </wgt>
<wgt id='1615'> +2.9154590E+03 </wgt>
<wgt id='1616'> +2.9254885E+03 </wgt>
<wgt id='1617'> +2.9188335E+03 </wgt>
<wgt id='1618'> +2.9069500E+03 </wgt>
<wgt id='1619'> +2.9256068E+03 </wgt>
<wgt id='1620'> +2.9416083E+03 </wgt>
<wgt id='1621'> +2.9114259E+03 </wgt>
<wgt id='1622'> +2.9109843E+03 </wgt>
<wgt id='1623'> +2.9166802E+03 </wgt>
<wgt id='1624'> +2.9174245E+03 </wgt>
<wgt id='1625'> +2.9112081E+03 </wgt>
<wgt id='1626'> +2.9426157E+03 </wgt>
<wgt id='1627'> +2.8955341E+03 </wgt>
<wgt id='1628'> +2.8981954E+03 </wgt>
<wgt id='1629'> +2.8903660E+03 </wgt>
<wgt id='1630'> +2.9318252E+03 </wgt>
<wgt id='1631'> +2.9130805E+03 </wgt>
<wgt id='1632'> +2.9167654E+03 </wgt>
<wgt id='1633'> +2.9248210E+03 </wgt>
<wgt id='1634'> +2.8927698E+03 </wgt>
<wgt id='1635'> +2.9193690E+03 </wgt>
<wgt id='1636'> +2.9185620E+03 </wgt>
<wgt id='1637'> +2.8996960E+03 </wgt>
<wgt id='1638'> +2.9158126E+03 </wgt>
<wgt id='1639'> +2.9111640E+03 </wgt>
<wgt id='1640'> +2.9200008E+03 </wgt>
<wgt id='1641'> +2.9150886E+03 </wgt>
<wgt id='1642'> +2.9093905E+03 </wgt>
<wgt id='1643'> +2.9218413E+03 </wgt>
<wgt id='1644'> +2.9177614E+03 </wgt>
<wgt id='1645'> +2.9155328E+03 </wgt>
<wgt id='1646'> +2.9178488E+03 </wgt>
<wgt id='1647'> +2.9123227E+03 </wgt>
<wgt id='1648'> +2.9300857E+03 </wgt>
<wgt id='1649'> +2.9095108E+03 </wgt>
<wgt id='1650'> +2.9354328E+03 </wgt>
<wgt id='1651'> +2.9058644E+03 </wgt>
<wgt id='1652'> +2.9224536E+03 </wgt>
<wgt id='1653'> +2.9121960E+03 </wgt>
<wgt id='1654'> +2.9122902E+03 </wgt>
<wgt id='1655'> +2.9119599E+03 </wgt>
<wgt id='1656'> +2.9183038E+03 </wgt>
<wgt id='1657'> +2.9126916E+03 </wgt>
<wgt id='1658'> +2.9079199E+03 </wgt>
<wgt id='1659'> +2.9152038E+03 </wgt>
<wgt id='1660'> +2.9183555E+03 </wgt>
<wgt id='1661'> +2.9129572E+03 </wgt>
<wgt id='1662'> +2.9157331E+03 </wgt>
<wgt id='1663'> +2.9172952E+03 </wgt>
<wgt id='1664'> +2.9139456E+03 </wgt>
<wgt id='1665'> +2.9155813E+03 </wgt>
<wgt id='1666'> +2.9181387E+03 </wgt>
<wgt id='1667'> +2.9161168E+03 </wgt>
<wgt id='1668'> +2.9145690E+03 </wgt>
<wgt id='1669'> +2.9161127E+03 </wgt>
<wgt id='1670'> +2.9150214E+03 </wgt>
<wgt id='1671'> +2.9165446E+03 </wgt>
<wgt id='1672'> +2.9156079E+03 </wgt>
<wgt id='1673'> +2.9126109E+03 </wgt>
<wgt id='1674'> +2.9140190E+03 </wgt>
<wgt id='1675'> +2.9133557E+03 </wgt>
<wgt id='1676'> +2.9153832E+03 </wgt>
<wgt id='1677'> +2.9168525E+03 </wgt>
<wgt id='1678'> +2.9165603E+03 </wgt>
<wgt id='1679'> +2.9146325E+03 </wgt>
<wgt id='1680'> +2.9166593E+03 </wgt>
<wgt id='1681'> +2.9153869E+03 </wgt>
<wgt id='1682'> +2.9161917E+03 </wgt>
<wgt id='1683'> +2.9136166E+03 </wgt>
<wgt id='1684'> +2.9168852E+03 </wgt>
<wgt id='1685'> +2.9149923E+03 </wgt>
<wgt id='1686'> +2.9149749E+03 </wgt>
<wgt id='1687'> +2.9181089E+03 </wgt>
<wgt id='1688'> +2.9150807E+03 </wgt>
<wgt id='1689'> +2.9152636E+03 </wgt>
<wgt id='1690'> +2.9146089E+03 </wgt>
<wgt id='1691'> +2.9147135E+03 </wgt>
<wgt id='1692'> +2.9175352E+03 </wgt>
<wgt id='1693'> +2.9151553E+03 </wgt>
<wgt id='1694'> +2.9139144E+03 </wgt>
<wgt id='1695'> +2.9169918E+03 </wgt>
<wgt id='1696'> +2.9147046E+03 </wgt>
<wgt id='1697'> +2.9160492E+03 </wgt>
<wgt id='1698'> +2.9148269E+03 </wgt>
<wgt id='1699'> +2.9141034E+03 </wgt>
<wgt id='1700'> +2.9159790E+03 </wgt>
<wgt id='1701'> +2.9156524E+03 </wgt>
<wgt id='1702'> +2.9148193E+03 </wgt>
<wgt id='1703'> +2.9151309E+03 </wgt>
<wgt id='1704'> +2.9144986E+03 </wgt>
<wgt id='1705'> +2.9165247E+03 </wgt>
<wgt id='1706'> +2.9154395E+03 </wgt>
<wgt id='1707'> +2.9152028E+03 </wgt>
<wgt id='1708'> +2.9156512E+03 </wgt>
<wgt id='1709'> +2.9152466E+03 </wgt>
<wgt id='1710'> +2.9155591E+03 </wgt>
<wgt id='1711'> +2.9151882E+03 </wgt>
<wgt id='1712'> +2.9156615E+03 </wgt>
<wgt id='1713'> +2.9159935E+03 </wgt>
<wgt id='1714'> +2.9151713E+03 </wgt>
<wgt id='1715'> +2.9153221E+03 </wgt>
<wgt id='1716'> +2.8397113E+03 </wgt>
<wgt id='1717'> +2.9865996E+03 </wgt>
<wgt id='1718'> +2.8934488E+03 </wgt>
<wgt id='1719'> +2.9034867E+03 </wgt>
<wgt id='1720'> +2.8775150E+03 </wgt>
<wgt id='1721'> +2.8960500E+03 </wgt>
<wgt id='1722'> +2.9310682E+03 </wgt>
<wgt id='1723'> +2.9458792E+03 </wgt>
<wgt id='1724'> +2.8978966E+03 </wgt>
<wgt id='1725'> +2.8952536E+03 </wgt>
<wgt id='1726'> +2.8982769E+03 </wgt>
<wgt id='1727'> +2.8985269E+03 </wgt>
<wgt id='1728'> +2.8948428E+03 </wgt>
<wgt id='1729'> +2.8788485E+03 </wgt>
<wgt id='1730'> +2.8863525E+03 </wgt>
<wgt id='1731'> +2.8943986E+03 </wgt>
<wgt id='1732'> +2.8692748E+03 </wgt>
<wgt id='1733'> +2.8959722E+03 </wgt>
<wgt id='1734'> +2.9001363E+03 </wgt>
<wgt id='1735'> +2.8795592E+03 </wgt>
<wgt id='1736'> +2.8936258E+03 </wgt>
<wgt id='1737'> +2.8896621E+03 </wgt>
<wgt id='1738'> +2.9022224E+03 </wgt>
<wgt id='1739'> +2.8950136E+03 </wgt>
<wgt id='1740'> +2.8944409E+03 </wgt>
<wgt id='1741'> +2.8956611E+03 </wgt>
<wgt id='1742'> +2.8962759E+03 </wgt>
<wgt id='1743'> +2.8931818E+03 </wgt>
<wgt id='1744'> +2.8895018E+03 </wgt>
<wgt id='1745'> +2.8958511E+03 </wgt>
<wgt id='1746'> +2.8956390E+03 </wgt>
<wgt id='1747'> +2.8874254E+03 </wgt>
<wgt id='1748'> +2.8922785E+03 </wgt>
<wgt id='1749'> +2.8139520E+03 </wgt>
<wgt id='1750'> +2.9651939E+03 </wgt>
<wgt id='1751'> +2.9159032E+03 </wgt>
<wgt id='1752'> +2.9215223E+03 </wgt>
<wgt id='1753'> +2.9492067E+03 </wgt>
<wgt id='1754'> +2.9136953E+03 </wgt>
<wgt id='1755'> +2.8985195E+03 </wgt>
<wgt id='1756'> +2.8934419E+03 </wgt>
<wgt id='1757'> +2.9164725E+03 </wgt>
<wgt id='1758'> +2.9119080E+03 </wgt>
<wgt id='1759'> +2.9175175E+03 </wgt>
<wgt id='1760'> +2.8979604E+03 </wgt>
<wgt id='1761'> +2.9132132E+03 </wgt>
<wgt id='1762'> +2.9173720E+03 </wgt>
<wgt id='1763'> +2.9163571E+03 </wgt>
<wgt id='1764'> +2.9270693E+03 </wgt>
<wgt id='1765'> +2.9110198E+03 </wgt>
<wgt id='1766'> +2.9178394E+03 </wgt>
<wgt id='1767'> +2.9170750E+03 </wgt>
<wgt id='1768'> +2.9304223E+03 </wgt>
<wgt id='1769'> +2.9184289E+03 </wgt>
<wgt id='1770'> +2.9182120E+03 </wgt>
<wgt id='1771'> +2.9008660E+03 </wgt>
<wgt id='1772'> +2.9152271E+03 </wgt>
<wgt id='1773'> +2.9525785E+03 </wgt>
<wgt id='1774'> +2.9153015E+03 </wgt>
<wgt id='1775'> +2.9112580E+03 </wgt>
<wgt id='1776'> +2.9133771E+03 </wgt>
<wgt id='1777'> +2.9177095E+03 </wgt>
<wgt id='1778'> +2.9119380E+03 </wgt>
<wgt id='1779'> +2.9108534E+03 </wgt>
<wgt id='1780'> +2.9132735E+03 </wgt>
<wgt id='1781'> +2.9152928E+03 </wgt>
<wgt id='1782'> +2.8397113E+03 </wgt>
<wgt id='1783'> +2.9865996E+03 </wgt>
<wgt id='1784'> +2.9520222E+03 </wgt>
<wgt id='1785'> +2.9529376E+03 </wgt>
<wgt id='1786'> +2.9511106E+03 </wgt>
<wgt id='1787'> +2.9539727E+03 </wgt>
<wgt id='1788'> +2.9500678E+03 </wgt>
<wgt id='1789'> +2.9574434E+03 </wgt>
<wgt id='1790'> +2.9466099E+03 </wgt>
<wgt id='1791'> +2.9536077E+03 </wgt>
<wgt id='1792'> +2.9503755E+03 </wgt>
<wgt id='1793'> +2.9690658E+03 </wgt>
<wgt id='1794'> +2.9349509E+03 </wgt>
<wgt id='1795'> +2.9500696E+03 </wgt>
<wgt id='1796'> +2.9544578E+03 </wgt>
<wgt id='1797'> +2.9438674E+03 </wgt>
<wgt id='1798'> +2.9602374E+03 </wgt>
<wgt id='1799'> +2.9485230E+03 </wgt>
<wgt id='1800'> +2.9513693E+03 </wgt>
<wgt id='1801'> +2.9540101E+03 </wgt>
<wgt id='1802'> +2.9492571E+03 </wgt>
<wgt id='1803'> +2.9479237E+03 </wgt>
<wgt id='1804'> +2.9549636E+03 </wgt>
<wgt id='1805'> +2.9568513E+03 </wgt>
<wgt id='1806'> +2.9440569E+03 </wgt>
<wgt id='1807'> +2.9626820E+03 </wgt>
<wgt id='1808'> +2.9284977E+03 </wgt>
<wgt id='1809'> +2.9560502E+03 </wgt>
<wgt id='1810'> +2.9513193E+03 </wgt>
<wgt id='1811'> +2.9560081E+03 </wgt>
<wgt id='1812'> +2.9497582E+03 </wgt>
<wgt id='1813'> +2.9520222E+03 </wgt>
<wgt id='1814'> +3.0040387E+03 </wgt>
<wgt id='1815'> +2.8898353E+03 </wgt>
<wgt id='1816'> +3.0411756E+03 </wgt>
<wgt id='1817'> +2.9620914E+03 </wgt>
<wgt id='1818'> +2.9552872E+03 </wgt>
<wgt id='1819'> +2.9420442E+03 </wgt>
<wgt id='1820'> +2.9450899E+03 </wgt>
<wgt id='1821'> +2.9579266E+03 </wgt>
<wgt id='1822'> +2.9352519E+03 </wgt>
<wgt id='1823'> +2.9676551E+03 </wgt>
<wgt id='1824'> +2.9433853E+03 </wgt>
<wgt id='1825'> +2.9726960E+03 </wgt>
<wgt id='1826'> +2.8591240E+03 </wgt>
<wgt id='1827'> +2.8578146E+03 </wgt>
<wgt id='1828'> +2.8599248E+03 </wgt>
<wgt id='1829'> +2.8555351E+03 </wgt>
<wgt id='1830'> +2.8563347E+03 </wgt>
<wgt id='1831'> +2.8591220E+03 </wgt>
<wgt id='1832'> +2.8624618E+03 </wgt>
<wgt id='1833'> +2.8529984E+03 </wgt>
<wgt id='1834'> +2.8586175E+03 </wgt>
<wgt id='1835'> +2.8567012E+03 </wgt>
<wgt id='1836'> +2.8649591E+03 </wgt>
<wgt id='1837'> +2.8505508E+03 </wgt>
<wgt id='1838'> +2.8720116E+03 </wgt>
<wgt id='1839'> +2.8435842E+03 </wgt>
<wgt id='1840'> +2.8485452E+03 </wgt>
<wgt id='1841'> +2.8668604E+03 </wgt>
<wgt id='1842'> +2.8532504E+03 </wgt>
<wgt id='1843'> +2.8593664E+03 </wgt>
<wgt id='1844'> +2.8610479E+03 </wgt>
<wgt id='1845'> +2.8538408E+03 </wgt>
<wgt id='1846'> +2.8601397E+03 </wgt>
<wgt id='1847'> +2.8551374E+03 </wgt>
<wgt id='1848'> +2.8441788E+03 </wgt>
<wgt id='1849'> +2.8678618E+03 </wgt>
<wgt id='1850'> +2.8695199E+03 </wgt>
<wgt id='1851'> +2.8458999E+03 </wgt>
<wgt id='1852'> +2.8753445E+03 </wgt>
<wgt id='1853'> +2.8350412E+03 </wgt>
<wgt id='1854'> +2.8805129E+03 </wgt>
<wgt id='1855'> +2.8380818E+03 </wgt>
<wgt id='1856'> +2.8552833E+03 </wgt>
<wgt id='1857'> +2.9159160E+03 </wgt>
<wgt id='1858'> +2.7859689E+03 </wgt>
<wgt id='1859'> +2.9512108E+03 </wgt>
<wgt id='1860'> +2.8564989E+03 </wgt>
<wgt id='1861'> +2.8771889E+03 </wgt>
<wgt id='1862'> +2.8523560E+03 </wgt>
<wgt id='1863'> +2.8479828E+03 </wgt>
<wgt id='1864'> +2.8589625E+03 </wgt>
<wgt id='1865'> +2.8531788E+03 </wgt>
<wgt id='1866'> +2.8959501E+03 </wgt>
<wgt id='1867'> +2.8690375E+03 </wgt>
<wgt id='1868'> +2.8582392E+03 </wgt>
<wgt id='1869'> +2.8396626E+03 </wgt>
<wgt id='1870'> +2.8950358E+03 </wgt>
<wgt id='1871'> +2.8942068E+03 </wgt>
<wgt id='1872'> +2.8933698E+03 </wgt>
<wgt id='1873'> +2.8925330E+03 </wgt>
<wgt id='1874'> +2.8917041E+03 </wgt>
<wgt id='1875'> +2.8908678E+03 </wgt>
<wgt id='1876'> +2.8900315E+03 </wgt>
<wgt id='1877'> +2.8892028E+03 </wgt>
<wgt id='1878'> +2.8883663E+03 </wgt>
<wgt id='1879'> +2.8875381E+03 </wgt>
<wgt id='1880'> +2.8867023E+03 </wgt>
<wgt id='1881'> +2.8858662E+03 </wgt>
<wgt id='1882'> +2.8850385E+03 </wgt>
<wgt id='1883'> +2.8842025E+03 </wgt>
<wgt id='1884'> +2.8833667E+03 </wgt>
<wgt id='1885'> +2.8825390E+03 </wgt>
<wgt id='1886'> +2.8817034E+03 </wgt>
<wgt id='1887'> +2.8808725E+03 </wgt>
<wgt id='1888'> +2.8800406E+03 </wgt>
<wgt id='1889'> +2.8792053E+03 </wgt>
<wgt id='1890'> +2.8783781E+03 </wgt>
<wgt id='1891'> +2.8775431E+03 </wgt>
<wgt id='1892'> +2.8767082E+03 </wgt>
<wgt id='1893'> +2.8758815E+03 </wgt>
<wgt id='1894'> +2.8750462E+03 </wgt>
<wgt id='1895'> +2.8742161E+03 </wgt>
<wgt id='1896'> +2.8733852E+03 </wgt>
<wgt id='1897'> +2.8725508E+03 </wgt>
<wgt id='1898'> +2.8717207E+03 </wgt>
<wgt id='1899'> +2.8708898E+03 </wgt>
<wgt id='1900'> +2.8700557E+03 </wgt>
<wgt id='1901'> +2.8922921E+03 </wgt>
<wgt id='1902'> +2.9019034E+03 </wgt>
<wgt id='1903'> +2.8955772E+03 </wgt>
<wgt id='1904'> +2.8838513E+03 </wgt>
<wgt id='1905'> +2.9023068E+03 </wgt>
<wgt id='1906'> +2.9182443E+03 </wgt>
<wgt id='1907'> +2.8885767E+03 </wgt>
<wgt id='1908'> +2.8881467E+03 </wgt>
<wgt id='1909'> +2.8935143E+03 </wgt>
<wgt id='1910'> +2.8942123E+03 </wgt>
<wgt id='1911'> +2.8880027E+03 </wgt>
<wgt id='1912'> +2.9196028E+03 </wgt>
<wgt id='1913'> +2.8726894E+03 </wgt>
<wgt id='1914'> +2.8752702E+03 </wgt>
<wgt id='1915'> +2.8673898E+03 </wgt>
<wgt id='1916'> +2.9081060E+03 </wgt>
<wgt id='1917'> +2.8902791E+03 </wgt>
<wgt id='1918'> +2.8934153E+03 </wgt>
<wgt id='1919'> +2.9015549E+03 </wgt>
<wgt id='1920'> +2.8700348E+03 </wgt>
<wgt id='1921'> +2.8964460E+03 </wgt>
<wgt id='1922'> +2.8951733E+03 </wgt>
<wgt id='1923'> +2.8766113E+03 </wgt>
<wgt id='1924'> +2.8926487E+03 </wgt>
<wgt id='1925'> +2.8878600E+03 </wgt>
<wgt id='1926'> +2.8966163E+03 </wgt>
<wgt id='1927'> +2.8916386E+03 </wgt>
<wgt id='1928'> +2.8865457E+03 </wgt>
<wgt id='1929'> +2.8987497E+03 </wgt>
<wgt id='1930'> +2.8944411E+03 </wgt>
<wgt id='1931'> +2.8922347E+03 </wgt>
<wgt id='1932'> +2.8949287E+03 </wgt>
<wgt id='1933'> +2.8891115E+03 </wgt>
<wgt id='1934'> +2.9067027E+03 </wgt>
<wgt id='1935'> +2.8864094E+03 </wgt>
<wgt id='1936'> +2.9120842E+03 </wgt>
<wgt id='1937'> +2.8827201E+03 </wgt>
<wgt id='1938'> +2.8992212E+03 </wgt>
<wgt id='1939'> +2.8890192E+03 </wgt>
<wgt id='1940'> +2.8890219E+03 </wgt>
<wgt id='1941'> +2.8887883E+03 </wgt>
<wgt id='1942'> +2.8950813E+03 </wgt>
<wgt id='1943'> +2.8895237E+03 </wgt>
<wgt id='1944'> +2.8849662E+03 </wgt>
<wgt id='1945'> +2.8920263E+03 </wgt>
<wgt id='1946'> +2.8951625E+03 </wgt>
<wgt id='1947'> +2.8898752E+03 </wgt>
<wgt id='1948'> +2.8925576E+03 </wgt>
<wgt id='1949'> +2.8942022E+03 </wgt>
<wgt id='1950'> +2.8907708E+03 </wgt>
<wgt id='1951'> +2.8924442E+03 </wgt>
<wgt id='1952'> +2.8948923E+03 </wgt>
<wgt id='1953'> +2.8929851E+03 </wgt>
<wgt id='1954'> +2.8914060E+03 </wgt>
<wgt id='1955'> +2.8929054E+03 </wgt>
<wgt id='1956'> +2.8918995E+03 </wgt>
<wgt id='1957'> +2.8932970E+03 </wgt>
<wgt id='1958'> +2.8924971E+03 </wgt>
<wgt id='1959'> +2.8895260E+03 </wgt>
<wgt id='1960'> +2.8908766E+03 </wgt>
<wgt id='1961'> +2.8902956E+03 </wgt>
<wgt id='1962'> +2.8922419E+03 </wgt>
<wgt id='1963'> +2.8935893E+03 </wgt>
<wgt id='1964'> +2.8933201E+03 </wgt>
<wgt id='1965'> +2.8914892E+03 </wgt>
<wgt id='1966'> +2.8934335E+03 </wgt>
<wgt id='1967'> +2.8922278E+03 </wgt>
<wgt id='1968'> +2.8929704E+03 </wgt>
<wgt id='1969'> +2.8904880E+03 </wgt>
<wgt id='1970'> +2.8937198E+03 </wgt>
<wgt id='1971'> +2.8918557E+03 </wgt>
<wgt id='1972'> +2.8918171E+03 </wgt>
<wgt id='1973'> +2.8948940E+03 </wgt>
<wgt id='1974'> +2.8919118E+03 </wgt>
<wgt id='1975'> +2.8921050E+03 </wgt>
<wgt id='1976'> +2.8914393E+03 </wgt>
<wgt id='1977'> +2.8916034E+03 </wgt>
<wgt id='1978'> +2.8943228E+03 </wgt>
<wgt id='1979'> +2.8920322E+03 </wgt>
<wgt id='1980'> +2.8907824E+03 </wgt>
<wgt id='1981'> +2.8937909E+03 </wgt>
<wgt id='1982'> +2.8916315E+03 </wgt>
<wgt id='1983'> +2.8928889E+03 </wgt>
<wgt id='1984'> +2.8916800E+03 </wgt>
<wgt id='1985'> +2.8909301E+03 </wgt>
<wgt id='1986'> +2.8928072E+03 </wgt>
<wgt id='1987'> +2.8925724E+03 </wgt>
<wgt id='1988'> +2.8916029E+03 </wgt>
<wgt id='1989'> +2.8919477E+03 </wgt>
<wgt id='1990'> +2.8913393E+03 </wgt>
<wgt id='1991'> +2.8933090E+03 </wgt>
<wgt id='1992'> +2.8922443E+03 </wgt>
<wgt id='1993'> +2.8920132E+03 </wgt>
<wgt id='1994'> +2.8924840E+03 </wgt>
<wgt id='1995'> +2.8920373E+03 </wgt>
<wgt id='1996'> +2.8923642E+03 </wgt>
<wgt id='1997'> +2.8920447E+03 </wgt>
<wgt id='1998'> +2.8925020E+03 </wgt>
<wgt id='1999'> +2.8928123E+03 </wgt>
<wgt id='2000'> +2.8920039E+03 </wgt>
<wgt id='2001'> +2.8921754E+03 </wgt>
<wgt id='2002'> +2.8922697E+03 </wgt>
<wgt id='2003'> +2.8921466E+03 </wgt>
<wgt id='2004'> +2.8923149E+03 </wgt>
<wgt id='2005'> +2.8923189E+03 </wgt>
<wgt id='2006'> +2.8923592E+03 </wgt>
<wgt id='2007'> +2.8923017E+03 </wgt>
<wgt id='2008'> +2.8921951E+03 </wgt>
<wgt id='2009'> +2.8502131E+03 </wgt>
<wgt id='2010'> +2.6341792E+03 </wgt>
<wgt id='2011'> +2.9248338E+03 </wgt>
<wgt id='2012'> +2.8626392E+03 </wgt>
<wgt id='2013'> +2.8660260E+03 </wgt>
<wgt id='2014'> +2.5290049E+03 </wgt>
<wgt id='2015'> +2.7803793E+03 </wgt>
<wgt id='2016'> +2.8917474E+03 </wgt>
<wgt id='2017'> +2.8196403E+03 </wgt>
<wgt id='2018'> +2.8470109E+03 </wgt>
<wgt id='2019'> +2.7584686E+03 </wgt>
<wgt id='2020'> +2.8379031E+03 </wgt>
<wgt id='2021'> +2.8875085E+03 </wgt>
<wgt id='2022'> +2.8775359E+03 </wgt>
<wgt id='2023'> +2.8114714E+03 </wgt>
<wgt id='2024'> +2.8424813E+03 </wgt>
<wgt id='2025'> +2.8289184E+03 </wgt>
<wgt id='2026'> +2.7836827E+03 </wgt>
<wgt id='2027'> +2.7486680E+03 </wgt>
<wgt id='2028'> +2.8978784E+03 </wgt>
<wgt id='2029'> +2.8895021E+03 </wgt>
<wgt id='2030'> +2.9527249E+03 </wgt>
<wgt id='2031'> +2.8465034E+03 </wgt>
<wgt id='2032'> +2.9934101E+03 </wgt>
<wgt id='2033'> +2.8481723E+03 </wgt>
<wgt id='2034'> +2.9226918E+03 </wgt>
<wgt id='2035'> +2.7604954E+03 </wgt>
<wgt id='2036'> +2.8390736E+03 </wgt>
<wgt id='2037'> +2.8570066E+03 </wgt>
<wgt id='2038'> +2.8203297E+03 </wgt>
<wgt id='2039'> +2.9333573E+03 </wgt>
<wgt id='2040'> +2.8818725E+03 </wgt>
<wgt id='2041'> +2.7384237E+03 </wgt>
<wgt id='2042'> +2.9154029E+03 </wgt>
<wgt id='2043'> +2.8456420E+03 </wgt>
<wgt id='2044'> +2.9630955E+03 </wgt>
<wgt id='2045'> +2.8808361E+03 </wgt>
<wgt id='2046'> +2.8587432E+03 </wgt>
<wgt id='2047'> +2.7138285E+03 </wgt>
<wgt id='2048'> +2.8054098E+03 </wgt>
<wgt id='2049'> +2.9000014E+03 </wgt>
<wgt id='2050'> +2.9283225E+03 </wgt>
<wgt id='2051'> +2.9402089E+03 </wgt>
<wgt id='2052'> +2.8699063E+03 </wgt>
<wgt id='2053'> +2.8294239E+03 </wgt>
<wgt id='2054'> +2.9042905E+03 </wgt>
<wgt id='2055'> +2.8831483E+03 </wgt>
<wgt id='2056'> +2.8130136E+03 </wgt>
<wgt id='2057'> +2.8022874E+03 </wgt>
<wgt id='2058'> +2.9245168E+03 </wgt>
<wgt id='2059'> +2.8956220E+03 </wgt>
<wgt id='2060'> +2.8865452E+03 </wgt>
<wgt id='2061'> +2.7986143E+03 </wgt>
<wgt id='2062'> +2.7946169E+03 </wgt>
<wgt id='2063'> +2.8568009E+03 </wgt>
<wgt id='2064'> +2.8482203E+03 </wgt>
<wgt id='2065'> +2.7773868E+03 </wgt>
<wgt id='2066'> +2.9405995E+03 </wgt>
<wgt id='2067'> +2.8449159E+03 </wgt>
<wgt id='2068'> +2.8871918E+03 </wgt>
<wgt id='2069'> +2.8767159E+03 </wgt>
<wgt id='2070'> +2.8929300E+03 </wgt>
<wgt id='2071'> +2.8935175E+03 </wgt>
<wgt id='2072'> +2.9553015E+03 </wgt>
<wgt id='2073'> +2.8239136E+03 </wgt>
<wgt id='2074'> +2.9083861E+03 </wgt>
<wgt id='2075'> +2.8568014E+03 </wgt>
<wgt id='2076'> +2.8226650E+03 </wgt>
<wgt id='2077'> +2.8446307E+03 </wgt>
<wgt id='2078'> +2.7792177E+03 </wgt>
<wgt id='2079'> +2.8271522E+03 </wgt>
<wgt id='2080'> +2.9039848E+03 </wgt>
<wgt id='2081'> +2.7497327E+03 </wgt>
<wgt id='2082'> +2.6141342E+03 </wgt>
<wgt id='2083'> +2.8452167E+03 </wgt>
<wgt id='2084'> +2.9135698E+03 </wgt>
<wgt id='2085'> +2.7266032E+03 </wgt>
<wgt id='2086'> +2.8464758E+03 </wgt>
<wgt id='2087'> +2.9526671E+03 </wgt>
<wgt id='2088'> +2.8067285E+03 </wgt>
<wgt id='2089'> +2.8607727E+03 </wgt>
<wgt id='2090'> +2.8868736E+03 </wgt>
<wgt id='2091'> +2.8890295E+03 </wgt>
<wgt id='2092'> +2.8248200E+03 </wgt>
<wgt id='2093'> +2.8923792E+03 </wgt>
<wgt id='2094'> +2.8299865E+03 </wgt>
<wgt id='2095'> +2.8819370E+03 </wgt>
<wgt id='2096'> +2.8361234E+03 </wgt>
<wgt id='2097'> +2.9036872E+03 </wgt>
<wgt id='2098'> +2.8808218E+03 </wgt>
<wgt id='2099'> +2.8686287E+03 </wgt>
<wgt id='2100'> +2.8651036E+03 </wgt>
<wgt id='2101'> +2.8277759E+03 </wgt>
<wgt id='2102'> +2.8324255E+03 </wgt>
<wgt id='2103'> +2.8969710E+03 </wgt>
<wgt id='2104'> +2.7902434E+03 </wgt>
<wgt id='2105'> +2.8609981E+03 </wgt>
<wgt id='2106'> +2.8924316E+03 </wgt>
<wgt id='2107'> +2.9031485E+03 </wgt>
<wgt id='2108'> +2.9356218E+03 </wgt>
<wgt id='2109'> +2.8266898E+03 </wgt>
<wgt id='2110'> +2.7998565E+03 </wgt>
<wgt id='2111'> +2.8949216E+03 </wgt>
<wgt id='2112'> +2.8977733E+03 </wgt>
<wgt id='2113'> +3.2111666E+03 </wgt>
<wgt id='2114'> +3.8729169E+03 </wgt>
<wgt id='2115'> +2.8707173E+03 </wgt>
<wgt id='2116'> +3.5884010E+03 </wgt>
</rwgt>
</event>
<event>
 8      3 +2.9771057E+03 1.66298600e+02 7.54677100e-03 1.08199300e-01
       21 -1    0    0  504  502 +0.0000000000e+00 +0.0000000000e+00 +2.1632494477e+02 2.1632494477e+02 0.0000000000e+00 0.0000e+00 -1.0000e+00
        2 -1    0    0  503    0 -0.0000000000e+00 -0.0000000000e+00 -1.1742060878e+02 1.1742060878e+02 0.0000000000e+00 0.0000e+00 -1.0000e+00
       24  2    1    2    0    0 -1.0497062937e+01 -5.1496521314e+00 +4.4100264424e+01 9.2597123901e+01 8.0577210086e+01 0.0000e+00 0.0000e+00
      -15  1    3    3    0    0 -2.5040888749e+01 +3.2487670811e+01 +2.3123745789e+01 4.7120698344e+01 1.7770000000e+00 0.0000e+00 1.0000e+00
       16  1    3    3    0    0 +1.4543825812e+01 -3.7637322942e+01 +2.0976518634e+01 4.5476425558e+01 0.0000000000e+00 0.0000e+00 -1.0000e+00
       21  1    1    2  503  502 +3.9917669516e+00 -6.3869300274e+01 -7.1285885437e+01 9.5796133447e+01 0.0000000000e+00 0.0000e+00 -1.0000e+00
       21  1    1    2  504  501 +4.0828398916e+00 +3.6681363365e+01 +4.6204389784e+01 5.9135755979e+01 0.0000000000e+00 0.0000e+00 -1.0000e+00
        1  1    1    2  501    0 +2.4224560938e+00 +3.2337589041e+01 +7.9885567221e+01 8.6216540227e+01 0.0000000000e+00 0.0000e+00 -1.0000e+00
<scales pt_clust_4="13000.00000" pt_clust_5="13000.00000" pt_clust_6="63.99392" pt_clust_7="19.27111" pt_clust_8="13000.00000"></scales>
<mgrwt>
<rscale>  1 0.16629857E+03</rscale>
<asrwt>  2 0.19271108E+02 0.63993919E+02</asrwt>
<pdfrwt beam="1">  1       21 0.33280761E-01 0.16629857E+03</pdfrwt>
<pdfrwt beam="2">  1        2 0.18064709E-01 0.16629857E+03</pdfrwt>
<totfact> 0.77367169E+01</totfact>
</mgrwt>
<clustering>
<clus scale="   19.271">  7  8 -1 -1</clus>
<clus scale="   63.994">  2  6  1 -1</clus>
<clus scale="   80.577">  4  5 -1 -1</clus>
<clus scale="   55.390">  4  7 -1 -1</clus>
<clus scale="  166.299">  1  4  2 -1</clus>
</clustering>
<rwgt>
<wgt id='1001'> +2.9771057E+03 </wgt>
<wgt id='1002'> +2.8723557E+03 </wgt>
<wgt id='1003'> +2.8723382E+03 </wgt>
<wgt id='1004'> +3.1674975E+03 </wgt>
<wgt id='1005'> +2.7197909E+03 </wgt>
<wgt id='1006'> +2.7176731E+03 </wgt>
<wgt id='1007'> +2.6301618E+03 </wgt>
<wgt id='1008'> +2.6301473E+03 </wgt>
<wgt id='1009'> +2.8746696E+03 </wgt>
<wgt id='1010'> +2.5013906E+03 </wgt>
<wgt id='1011'> +3.2927765E+03 </wgt>
<wgt id='1012'> +3.1649497E+03 </wgt>
<wgt id='1013'> +3.1649288E+03 </wgt>
<wgt id='1014'> +3.5287060E+03 </wgt>
<wgt id='1015'> +2.9810140E+03 </wgt>
<wgt id='1016'> +2.9621544E+03 </wgt>
<wgt id='1017'> +2.8522795E+03 </wgt>
<wgt id='1018'> +2.8522613E+03 </wgt>
<wgt id='1019'> +3.1649288E+03 </wgt>
<wgt id='1020'> +2.6936069E+03 </wgt>
<wgt id='1021'> +2.7040247E+03 </wgt>
<wgt id='1022'> +2.6117784E+03 </wgt>
<wgt id='1023'> +2.6117632E+03 </wgt>
<wgt id='1024'> +2.8723382E+03 </wgt>
<wgt id='1025'> +2.4773091E+03 </wgt>
<wgt id='1026'> +3.2762397E+03 </wgt>
<wgt id='1027'> +3.1428285E+03 </wgt>
<wgt id='1028'> +3.1428066E+03 </wgt>
<wgt id='1029'> +3.5258441E+03 </wgt>
<wgt id='1030'> +2.9523151E+03 </wgt>
<wgt id='1031'> +2.9704987E+03 </wgt>
<wgt id='1032'> +2.8746854E+03 </wgt>
<wgt id='1033'> +2.8746696E+03 </wgt>
<wgt id='1034'> +3.1406479E+03 </wgt>
<wgt id='1035'> +2.7325294E+03 </wgt>
<wgt id='1036'> +2.7116420E+03 </wgt>
<wgt id='1037'> +2.6322954E+03 </wgt>
<wgt id='1038'> +2.6322821E+03 </wgt>
<wgt id='1039'> +2.8503022E+03 </wgt>
<wgt id='1040'> +2.5131063E+03 </wgt>
<wgt id='1041'> +3.2854688E+03 </wgt>
<wgt id='1042'> +3.1675169E+03 </wgt>
<wgt id='1043'> +3.1674975E+03 </wgt>
<wgt id='1044'> +3.4987945E+03 </wgt>
<wgt id='1045'> +2.9949762E+03 </wgt>
<wgt id='1046'> +2.9771057E+03 </wgt>
<wgt id='1047'> +2.9754055E+03 </wgt>
<wgt id='1048'> +2.9811757E+03 </wgt>
<wgt id='1049'> +2.9804172E+03 </wgt>
<wgt id='1050'> +2.9821818E+03 </wgt>
<wgt id='1051'> +2.9765325E+03 </wgt>
<wgt id='1052'> +2.9716894E+03 </wgt>
<wgt id='1053'> +2.9675020E+03 </wgt>
<wgt id='1054'> +2.9678564E+03 </wgt>
<wgt id='1055'> +2.9884494E+03 </wgt>
<wgt id='1056'> +2.9724268E+03 </wgt>
<wgt id='1057'> +2.9729283E+03 </wgt>
<wgt id='1058'> +2.9826374E+03 </wgt>
<wgt id='1059'> +2.9765238E+03 </wgt>
<wgt id='1060'> +2.9967248E+03 </wgt>
<wgt id='1061'> +2.9843476E+03 </wgt>
<wgt id='1062'> +2.9890748E+03 </wgt>
<wgt id='1063'> +2.9738971E+03 </wgt>
<wgt id='1064'> +2.9760988E+03 </wgt>
<wgt id='1065'> +2.9802112E+03 </wgt>
<wgt id='1066'> +2.9836664E+03 </wgt>
<wgt id='1067'> +2.9837092E+03 </wgt>
<wgt id='1068'> +2.9879193E+03 </wgt>
<wgt id='1069'> +2.9688834E+03 </wgt>
<wgt id='1070'> +2.9759378E+03 </wgt>
<wgt id='1071'> +2.9918842E+03 </wgt>
<wgt id='1072'> +2.9666386E+03 </wgt>
<wgt id='1073'> +2.9708312E+03 </wgt>
<wgt id='1074'> +2.9675384E+03 </wgt>
<wgt id='1075'> +2.9777155E+03 </wgt>
<wgt id='1076'> +2.9969909E+03 </wgt>
<wgt id='1077'> +2.9842017E+03 </wgt>
<wgt id='1078'> +2.9753272E+03 </wgt>
<wgt id='1079'> +2.9726839E+03 </wgt>
<wgt id='1080'> +2.9804292E+03 </wgt>
<wgt id='1081'> +2.9773594E+03 </wgt>
<wgt id='1082'> +2.9744781E+03 </wgt>
<wgt id='1083'> +2.9708698E+03 </wgt>
<wgt id='1084'> +2.9782016E+03 </wgt>
<wgt id='1085'> +2.9747720E+03 </wgt>
<wgt id='1086'> +2.9759890E+03 </wgt>
<wgt id='1087'> +2.9776309E+03 </wgt>
<wgt id='1088'> +2.9783394E+03 </wgt>
<wgt id='1089'> +2.9806008E+03 </wgt>
<wgt id='1090'> +2.9760070E+03 </wgt>
<wgt id='1091'> +2.9794320E+03 </wgt>
<wgt id='1092'> +2.9802205E+03 </wgt>
<wgt id='1093'> +2.9773464E+03 </wgt>
<wgt id='1094'> +2.9826253E+03 </wgt>
<wgt id='1095'> +2.9712971E+03 </wgt>
<wgt id='1096'> +2.9771049E+03 </wgt>
<wgt id='1097'> +2.9819325E+03 </wgt>
<wgt id='1098'> +2.9744506E+03 </wgt>
<wgt id='1099'> +2.9786587E+03 </wgt>
<wgt id='1100'> +2.9794600E+03 </wgt>
<wgt id='1101'> +2.9805245E+03 </wgt>
<wgt id='1102'> +2.9748466E+03 </wgt>
<wgt id='1103'> +2.9783596E+03 </wgt>
<wgt id='1104'> +2.9807086E+03 </wgt>
<wgt id='1105'> +2.9735500E+03 </wgt>
<wgt id='1106'> +2.9769600E+03 </wgt>
<wgt id='1107'> +2.9769285E+03 </wgt>
<wgt id='1108'> +2.9766297E+03 </wgt>
<wgt id='1109'> +2.9756309E+03 </wgt>
<wgt id='1110'> +2.9756957E+03 </wgt>
<wgt id='1111'> +2.9762425E+03 </wgt>
<wgt id='1112'> +2.9774200E+03 </wgt>
<wgt id='1113'> +2.9770313E+03 </wgt>
<wgt id='1114'> +2.9798819E+03 </wgt>
<wgt id='1115'> +2.9788501E+03 </wgt>
<wgt id='1116'> +2.9755315E+03 </wgt>
<wgt id='1117'> +2.9746962E+03 </wgt>
<wgt id='1118'> +2.9801770E+03 </wgt>
<wgt id='1119'> +2.9792070E+03 </wgt>
<wgt id='1120'> +2.9767018E+03 </wgt>
<wgt id='1121'> +2.9785169E+03 </wgt>
<wgt id='1122'> +2.9768987E+03 </wgt>
<wgt id='1123'> +2.9774453E+03 </wgt>
<wgt id='1124'> +2.9791679E+03 </wgt>
<wgt id='1125'> +2.9771460E+03 </wgt>
<wgt id='1126'> +2.9781770E+03 </wgt>
<wgt id='1127'> +2.9772105E+03 </wgt>
<wgt id='1128'> +2.9771593E+03 </wgt>
<wgt id='1129'> +2.9775858E+03 </wgt>
<wgt id='1130'> +2.9747934E+03 </wgt>
<wgt id='1131'> +2.9763444E+03 </wgt>
<wgt id='1132'> +2.9772484E+03 </wgt>
<wgt id='1133'> +2.9763708E+03 </wgt>
<wgt id='1134'> +2.9766858E+03 </wgt>
<wgt id='1135'> +2.9767466E+03 </wgt>
<wgt id='1136'> +2.9766348E+03 </wgt>
<wgt id='1137'> +2.9788898E+03 </wgt>
<wgt id='1138'> +2.9757247E+03 </wgt>
<wgt id='1139'> +2.9764163E+03 </wgt>
<wgt id='1140'> +2.9758273E+03 </wgt>
<wgt id='1141'> +2.9771593E+03 </wgt>
<wgt id='1142'> +2.9774549E+03 </wgt>
<wgt id='1143'> +2.9773250E+03 </wgt>
<wgt id='1144'> +2.9781263E+03 </wgt>
<wgt id='1145'> +2.9773798E+03 </wgt>
<wgt id='1146'> +2.9766284E+03 </wgt>
<wgt id='1147'> +2.8117227E+03 </wgt>
<wgt id='1148'> +3.1396846E+03 </wgt>
<wgt id='1149'> +2.2760066E+03 </wgt>
<wgt id='1150'> +2.4025801E+03 </wgt>
<wgt id='1151'> +2.5416183E+03 </wgt>
<wgt id='1152'> +2.6841846E+03 </wgt>
<wgt id='1153'> +2.9055575E+03 </wgt>
<wgt id='1154'> +3.0585778E+03 </wgt>
<wgt id='1155'> +3.2944435E+03 </wgt>
<wgt id='1156'> +3.4630584E+03 </wgt>
<wgt id='1157'> +2.9898444E+03 </wgt>
<wgt id='1158'> +2.9916408E+03 </wgt>
<wgt id='1159'> +2.9904092E+03 </wgt>
<wgt id='1160'> +2.9912534E+03 </wgt>
<wgt id='1161'> +2.9953409E+03 </wgt>
<wgt id='1162'> +2.9939031E+03 </wgt>
<wgt id='1163'> +2.9891019E+03 </wgt>
<wgt id='1164'> +2.9948145E+03 </wgt>
<wgt id='1165'> +2.9834663E+03 </wgt>
<wgt id='1166'> +2.9969121E+03 </wgt>
<wgt id='1167'> +2.9783867E+03 </wgt>
<wgt id='1168'> +2.9871228E+03 </wgt>
<wgt id='1169'> +2.9942147E+03 </wgt>
<wgt id='1170'> +2.9895939E+03 </wgt>
<wgt id='1171'> +3.0017293E+03 </wgt>
<wgt id='1172'> +2.9765529E+03 </wgt>
<wgt id='1173'> +2.9943025E+03 </wgt>
<wgt id='1174'> +2.9892473E+03 </wgt>
<wgt id='1175'> +2.9983288E+03 </wgt>
<wgt id='1176'> +2.9813915E+03 </wgt>
<wgt id='1177'> +2.9711969E+03 </wgt>
<wgt id='1178'> +2.9971056E+03 </wgt>
<wgt id='1179'> +2.9930626E+03 </wgt>
<wgt id='1180'> +2.9875833E+03 </wgt>
<wgt id='1181'> +2.9915591E+03 </wgt>
<wgt id='1182'> +2.9788873E+03 </wgt>
<wgt id='1183'> +2.9927611E+03 </wgt>
<wgt id='1184'> +2.9903297E+03 </wgt>
<wgt id='1185'> +2.9776437E+03 </wgt>
<wgt id='1186'> +3.0054354E+03 </wgt>
<wgt id='1187'> +3.0081271E+03 </wgt>
<wgt id='1188'> +2.9773742E+03 </wgt>
<wgt id='1189'> +2.9937586E+03 </wgt>
<wgt id='1190'> +2.9911185E+03 </wgt>
<wgt id='1191'> +2.9927980E+03 </wgt>
<wgt id='1192'> +2.9908220E+03 </wgt>
<wgt id='1193'> +2.9903568E+03 </wgt>
<wgt id='1194'> +2.9874206E+03 </wgt>
<wgt id='1195'> +2.9888388E+03 </wgt>
<wgt id='1196'> +2.9864364E+03 </wgt>
<wgt id='1197'> +2.9904939E+03 </wgt>
<wgt id='1198'> +2.9822453E+03 </wgt>
<wgt id='1199'> +2.9908185E+03 </wgt>
<wgt id='1200'> +2.9878878E+03 </wgt>
<wgt id='1201'> +2.9893682E+03 </wgt>
<wgt id='1202'> +2.9926007E+03 </wgt>
<wgt id='1203'> +2.9873724E+03 </wgt>
<wgt id='1204'> +2.9847559E+03 </wgt>
<wgt id='1205'> +2.9922108E+03 </wgt>
<wgt id='1206'> +2.9962857E+03 </wgt>
<wgt id='1207'> +2.9894479E+03 </wgt>
<wgt id='1208'> +2.9922942E+03 </wgt>
<wgt id='1209'> +2.9908609E+03 </wgt>
<wgt id='1210'> +2.9881730E+03 </wgt>
<wgt id='1211'> +2.9898183E+03 </wgt>
<wgt id='1212'> +2.9889835E+03 </wgt>
<wgt id='1213'> +2.9965550E+03 </wgt>
<wgt id='1214'> +2.9873323E+03 </wgt>
<wgt id='1215'> +2.9852593E+03 </wgt>
<wgt id='1216'> +2.9882830E+03 </wgt>
<wgt id='1217'> +2.9925029E+03 </wgt>
<wgt id='1218'> +2.9910863E+03 </wgt>
<wgt id='1219'> +2.9905003E+03 </wgt>
<wgt id='1220'> +2.9909935E+03 </wgt>
<wgt id='1221'> +2.9908269E+03 </wgt>
<wgt id='1222'> +2.9919194E+03 </wgt>
<wgt id='1223'> +2.9896800E+03 </wgt>
<wgt id='1224'> +2.9874773E+03 </wgt>
<wgt id='1225'> +2.9901006E+03 </wgt>
<wgt id='1226'> +2.9869006E+03 </wgt>
<wgt id='1227'> +2.9866665E+03 </wgt>
<wgt id='1228'> +2.9914370E+03 </wgt>
<wgt id='1229'> +2.9898013E+03 </wgt>
<wgt id='1230'> +2.9879289E+03 </wgt>
<wgt id='1231'> +2.9909300E+03 </wgt>
<wgt id='1232'> +2.9877197E+03 </wgt>
<wgt id='1233'> +2.9911360E+03 </wgt>
<wgt id='1234'> +2.9882331E+03 </wgt>
<wgt id='1235'> +2.9888516E+03 </wgt>
<wgt id='1236'> +2.9888565E+03 </wgt>
<wgt id='1237'> +2.9914323E+03 </wgt>
<wgt id='1238'> +2.9878558E+03 </wgt>
<wgt id='1239'> +2.9901754E+03 </wgt>
<wgt id='1240'> +2.9907683E+03 </wgt>
<wgt id='1241'> +2.9903440E+03 </wgt>
<wgt id='1242'> +2.9904087E+03 </wgt>
<wgt id='1243'> +2.9891036E+03 </wgt>
<wgt id='1244'> +2.9895375E+03 </wgt>
<wgt id='1245'> +2.9890699E+03 </wgt>
<wgt id='1246'> +2.9889372E+03 </wgt>
<wgt id='1247'> +2.9905596E+03 </wgt>
<wgt id='1248'> +2.9898186E+03 </wgt>
<wgt id='1249'> +2.9890957E+03 </wgt>
<wgt id='1250'> +2.9916580E+03 </wgt>
<wgt id='1251'> +2.9879993E+03 </wgt>
<wgt id='1252'> +2.9894799E+03 </wgt>
<wgt id='1253'> +2.9904877E+03 </wgt>
<wgt id='1254'> +2.9901304E+03 </wgt>
<wgt id='1255'> +2.9895776E+03 </wgt>
<wgt id='1256'> +2.9900654E+03 </wgt>
<wgt id='1257'> +2.9913679E+03 </wgt>
<wgt id='1258'> +2.8385009E+03 </wgt>
<wgt id='1259'> +3.1537428E+03 </wgt>
<wgt id='1260'> +2.9548277E+03 </wgt>
<wgt id='1261'> +2.9443919E+03 </wgt>
<wgt id='1262'> +2.9280633E+03 </wgt>
<wgt id='1263'> +2.9474617E+03 </wgt>
<wgt id='1264'> +2.9382737E+03 </wgt>
<wgt id='1265'> +2.9095121E+03 </wgt>
<wgt id='1266'> +2.9292206E+03 </wgt>
<wgt id='1267'> +2.9422480E+03 </wgt>
<wgt id='1268'> +2.9125996E+03 </wgt>
<wgt id='1269'> +2.9470303E+03 </wgt>
<wgt id='1270'> +2.9542631E+03 </wgt>
<wgt id='1271'> +2.9586214E+03 </wgt>
<wgt id='1272'> +2.9399301E+03 </wgt>
<wgt id='1273'> +2.9409027E+03 </wgt>
<wgt id='1274'> +2.9816298E+03 </wgt>
<wgt id='1275'> +2.9645301E+03 </wgt>
<wgt id='1276'> +2.9200931E+03 </wgt>
<wgt id='1277'> +2.9272275E+03 </wgt>
<wgt id='1278'> +2.9818803E+03 </wgt>
<wgt id='1279'> +2.9721021E+03 </wgt>
<wgt id='1280'> +2.9358239E+03 </wgt>
<wgt id='1281'> +2.9491680E+03 </wgt>
<wgt id='1282'> +2.9581540E+03 </wgt>
<wgt id='1283'> +2.9296983E+03 </wgt>
<wgt id='1284'> +2.9819586E+03 </wgt>
<wgt id='1285'> +2.9605689E+03 </wgt>
<wgt id='1286'> +2.9499851E+03 </wgt>
<wgt id='1287'> +2.9537916E+03 </wgt>
<wgt id='1288'> +2.9560445E+03 </wgt>
<wgt id='1289'> +2.9342514E+03 </wgt>
<wgt id='1290'> +2.9672509E+03 </wgt>
<wgt id='1291'> +2.9545875E+03 </wgt>
<wgt id='1292'> +2.9533658E+03 </wgt>
<wgt id='1293'> +2.9706390E+03 </wgt>
<wgt id='1294'> +2.9390125E+03 </wgt>
<wgt id='1295'> +2.9754372E+03 </wgt>
<wgt id='1296'> +2.9356978E+03 </wgt>
<wgt id='1297'> +2.9559320E+03 </wgt>
<wgt id='1298'> +2.9514702E+03 </wgt>
<wgt id='1299'> +3.0232987E+03 </wgt>
<wgt id='1300'> +2.8985850E+03 </wgt>
<wgt id='1301'> +2.9590198E+03 </wgt>
<wgt id='1302'> +2.9553222E+03 </wgt>
<wgt id='1303'> +2.9675103E+03 </wgt>
<wgt id='1304'> +2.9275672E+03 </wgt>
<wgt id='1305'> +2.9987952E+03 </wgt>
<wgt id='1306'> +2.9107020E+03 </wgt>
<wgt id='1307'> +2.9485082E+03 </wgt>
<wgt id='1308'> +2.9595027E+03 </wgt>
<wgt id='1309'> +2.9691460E+03 </wgt>
<wgt id='1310'> +2.9615270E+03 </wgt>
<wgt id='1311'> +2.9731673E+03 </wgt>
<wgt id='1312'> +2.9431913E+03 </wgt>
<wgt id='1313'> +2.9524163E+03 </wgt>
<wgt id='1314'> +2.9573440E+03 </wgt>
<wgt id='1315'> +2.9081998E+03 </wgt>
<wgt id='1316'> +3.0352752E+03 </wgt>
<wgt id='1317'> +2.7970800E+03 </wgt>
<wgt id='1318'> +3.1177916E+03 </wgt>
<wgt id='1319'> +2.9112615E+03 </wgt>
<wgt id='1320'> +2.9092204E+03 </wgt>
<wgt id='1321'> +2.9334929E+03 </wgt>
<wgt id='1322'> +2.9081095E+03 </wgt>
<wgt id='1323'> +2.8846733E+03 </wgt>
<wgt id='1324'> +2.9215319E+03 </wgt>
<wgt id='1325'> +2.9230241E+03 </wgt>
<wgt id='1326'> +2.9183144E+03 </wgt>
<wgt id='1327'> +2.9122964E+03 </wgt>
<wgt id='1328'> +2.8839763E+03 </wgt>
<wgt id='1329'> +2.9341778E+03 </wgt>
<wgt id='1330'> +2.9616375E+03 </wgt>
<wgt id='1331'> +2.8759819E+03 </wgt>
<wgt id='1332'> +2.8788037E+03 </wgt>
<wgt id='1333'> +2.9220335E+03 </wgt>
<wgt id='1334'> +2.9578633E+03 </wgt>
<wgt id='1335'> +2.8599078E+03 </wgt>
<wgt id='1336'> +2.9201979E+03 </wgt>
<wgt id='1337'> +2.9013548E+03 </wgt>
<wgt id='1338'> +2.9391627E+03 </wgt>
<wgt id='1339'> +2.8806980E+03 </wgt>
<wgt id='1340'> +2.9223165E+03 </wgt>
<wgt id='1341'> +2.8878241E+03 </wgt>
<wgt id='1342'> +2.9269839E+03 </wgt>
<wgt id='1343'> +2.8928008E+03 </wgt>
<wgt id='1344'> +2.9295580E+03 </wgt>
<wgt id='1345'> +2.8925205E+03 </wgt>
<wgt id='1346'> +2.9107348E+03 </wgt>
<wgt id='1347'> +2.9120261E+03 </wgt>
<wgt id='1348'> +2.8966798E+03 </wgt>
<wgt id='1349'> +2.9164597E+03 </wgt>
<wgt id='1350'> +2.9056510E+03 </wgt>
<wgt id='1351'> +2.9180978E+03 </wgt>
<wgt id='1352'> +2.9042280E+03 </wgt>
<wgt id='1353'> +2.9263272E+03 </wgt>
<wgt id='1354'> +2.8935505E+03 </wgt>
<wgt id='1355'> +2.9320637E+03 </wgt>
<wgt id='1356'> +2.9220965E+03 </wgt>
<wgt id='1357'> +2.8893325E+03 </wgt>
<wgt id='1358'> +2.8955014E+03 </wgt>
<wgt id='1359'> +2.9163467E+03 </wgt>
<wgt id='1360'> +2.9209070E+03 </wgt>
<wgt id='1361'> +2.9047655E+03 </wgt>
<wgt id='1362'> +2.9239318E+03 </wgt>
<wgt id='1363'> +2.9100570E+03 </wgt>
<wgt id='1364'> +2.8829571E+03 </wgt>
<wgt id='1365'> +2.9003738E+03 </wgt>
<wgt id='1366'> +2.8971469E+03 </wgt>
<wgt id='1367'> +2.8695997E+03 </wgt>
<wgt id='1368'> +2.8778765E+03 </wgt>
<wgt id='1369'> +2.8703771E+03 </wgt>
<wgt id='1370'> +2.8856427E+03 </wgt>
<wgt id='1371'> +2.9043924E+03 </wgt>
<wgt id='1372'> +2.8722946E+03 </wgt>
<wgt id='1373'> +2.9258648E+03 </wgt>
<wgt id='1374'> +2.8721881E+03 </wgt>
<wgt id='1375'> +2.9776730E+03 </wgt>
<wgt id='1376'> +2.7576599E+03 </wgt>
<wgt id='1377'> +3.0689705E+03 </wgt>
<wgt id='1378'> +2.6172675E+03 </wgt>
<wgt id='1379'> +2.9289048E+03 </wgt>
<wgt id='1380'> +2.9233714E+03 </wgt>
<wgt id='1381'> +2.9347697E+03 </wgt>
<wgt id='1382'> +2.9245591E+03 </wgt>
<wgt id='1383'> +2.9317728E+03 </wgt>
<wgt id='1384'> +2.9307859E+03 </wgt>
<wgt id='1385'> +2.9271214E+03 </wgt>
<wgt id='1386'> +2.9202669E+03 </wgt>
<wgt id='1387'> +2.9384140E+03 </wgt>
<wgt id='1388'> +2.9261623E+03 </wgt>
<wgt id='1389'> +2.9314964E+03 </wgt>
<wgt id='1390'> +2.9294310E+03 </wgt>
<wgt id='1391'> +2.9276129E+03 </wgt>
<wgt id='1392'> +2.9260927E+03 </wgt>
<wgt id='1393'> +2.9338882E+03 </wgt>
<wgt id='1394'> +2.9268852E+03 </wgt>
<wgt id='1395'> +2.9299771E+03 </wgt>
<wgt id='1396'> +2.9233805E+03 </wgt>
<wgt id='1397'> +2.9352391E+03 </wgt>
<wgt id='1398'> +2.9252665E+03 </wgt>
<wgt id='1399'> +2.9319899E+03 </wgt>
<wgt id='1400'> +2.9264783E+03 </wgt>
<wgt id='1401'> +2.9320925E+03 </wgt>
<wgt id='1402'> +2.9328946E+03 </wgt>
<wgt id='1403'> +2.9256726E+03 </wgt>
<wgt id='1404'> +2.9232869E+03 </wgt>
<wgt id='1405'> +2.9342002E+03 </wgt>
<wgt id='1406'> +2.9371349E+03 </wgt>
<wgt id='1407'> +2.9244036E+03 </wgt>
<wgt id='1408'> +2.9340171E+03 </wgt>
<wgt id='1409'> +2.9227893E+03 </wgt>
<wgt id='1410'> +2.9183528E+03 </wgt>
<wgt id='1411'> +2.9411286E+03 </wgt>
<wgt id='1412'> +2.9317819E+03 </wgt>
<wgt id='1413'> +2.9258822E+03 </wgt>
<wgt id='1414'> +2.9215489E+03 </wgt>
<wgt id='1415'> +2.9508554E+03 </wgt>
<wgt id='1416'> +2.9264274E+03 </wgt>
<wgt id='1417'> +2.9320883E+03 </wgt>
<wgt id='1418'> +2.9271362E+03 </wgt>
<wgt id='1419'> +2.9306744E+03 </wgt>
<wgt id='1420'> +2.9106656E+03 </wgt>
<wgt id='1421'> +2.9501429E+03 </wgt>
<wgt id='1422'> +2.9468486E+03 </wgt>
<wgt id='1423'> +2.9152318E+03 </wgt>
<wgt id='1424'> +2.9237354E+03 </wgt>
<wgt id='1425'> +2.9426826E+03 </wgt>
<wgt id='1426'> +2.9447672E+03 </wgt>
<wgt id='1427'> +2.8920410E+03 </wgt>
<wgt id='1428'> +2.9324378E+03 </wgt>
<wgt id='1429'> +2.9241429E+03 </wgt>
<wgt id='1430'> +2.9472070E+03 </wgt>
<wgt id='1431'> +2.9404942E+03 </wgt>
<wgt id='1432'> +2.9558818E+03 </wgt>
<wgt id='1433'> +2.9497262E+03 </wgt>
<wgt id='1434'> +2.9447229E+03 </wgt>
<wgt id='1435'> +2.9428069E+03 </wgt>
<wgt id='1436'> +2.9489930E+03 </wgt>
<wgt id='1437'> +2.9385270E+03 </wgt>
<wgt id='1438'> +2.9558553E+03 </wgt>
<wgt id='1439'> +2.9460985E+03 </wgt>
<wgt id='1440'> +2.9483305E+03 </wgt>
<wgt id='1441'> +2.9467770E+03 </wgt>
<wgt id='1442'> +2.9474305E+03 </wgt>
<wgt id='1443'> +2.9465722E+03 </wgt>
<wgt id='1444'> +2.9480032E+03 </wgt>
<wgt id='1445'> +2.9442282E+03 </wgt>
<wgt id='1446'> +2.9503856E+03 </wgt>
<wgt id='1447'> +2.9459698E+03 </wgt>
<wgt id='1448'> +2.9478198E+03 </wgt>
<wgt id='1449'> +2.9511589E+03 </wgt>
<wgt id='1450'> +2.9417720E+03 </wgt>
<wgt id='1451'> +2.9399394E+03 </wgt>
<wgt id='1452'> +2.9522428E+03 </wgt>
<wgt id='1453'> +2.9617089E+03 </wgt>
<wgt id='1454'> +2.9337154E+03 </wgt>
<wgt id='1455'> +2.9475043E+03 </wgt>
<wgt id='1456'> +2.9453065E+03 </wgt>
<wgt id='1457'> +2.9550514E+03 </wgt>
<wgt id='1458'> +2.9403352E+03 </wgt>
<wgt id='1459'> +2.9445627E+03 </wgt>
<wgt id='1460'> +2.9556852E+03 </wgt>
<wgt id='1461'> +2.9409633E+03 </wgt>
<wgt id='1462'> +2.9613532E+03 </wgt>
<wgt id='1463'> +2.9424683E+03 </wgt>
<wgt id='1464'> +2.9564371E+03 </wgt>
<wgt id='1465'> +2.9659751E+03 </wgt>
<wgt id='1466'> +2.9394720E+03 </wgt>
<wgt id='1467'> +2.9438748E+03 </wgt>
<wgt id='1468'> +2.9516290E+03 </wgt>
<wgt id='1469'> +2.9446301E+03 </wgt>
<wgt id='1470'> +2.9490063E+03 </wgt>
<wgt id='1471'> +2.9518687E+03 </wgt>
<wgt id='1472'> +2.9344232E+03 </wgt>
<wgt id='1473'> +2.9501862E+03 </wgt>
<wgt id='1474'> +2.9258050E+03 </wgt>
<wgt id='1475'> +2.9159606E+03 </wgt>
<wgt id='1476'> +2.9649468E+03 </wgt>
<wgt id='1477'> +2.9623739E+03 </wgt>
<wgt id='1478'> +2.9396192E+03 </wgt>
<wgt id='1479'> +2.9355787E+03 </wgt>
<wgt id='1480'> +2.9478968E+03 </wgt>
<wgt id='1481'> +3.8353426E+03 </wgt>
<wgt id='1482'> +2.9628841E+03 </wgt>
<wgt id='1483'> +2.9619959E+03 </wgt>
<wgt id='1484'> +2.9614802E+03 </wgt>
<wgt id='1485'> +2.9666733E+03 </wgt>
<wgt id='1486'> +2.9628843E+03 </wgt>
<wgt id='1487'> +2.9624413E+03 </wgt>
<wgt id='1488'> +2.9606582E+03 </wgt>
<wgt id='1489'> +2.9682775E+03 </wgt>
<wgt id='1490'> +2.9610810E+03 </wgt>
<wgt id='1491'> +2.9680611E+03 </wgt>
<wgt id='1492'> +2.9629023E+03 </wgt>
<wgt id='1493'> +2.9608125E+03 </wgt>
<wgt id='1494'> +2.9590919E+03 </wgt>
<wgt id='1495'> +2.9608138E+03 </wgt>
<wgt id='1496'> +2.9625504E+03 </wgt>
<wgt id='1497'> +2.9642276E+03 </wgt>
<wgt id='1498'> +2.9646719E+03 </wgt>
<wgt id='1499'> +2.9596024E+03 </wgt>
<wgt id='1500'> +2.9635845E+03 </wgt>
<wgt id='1501'> +2.9616146E+03 </wgt>
<wgt id='1502'> +2.9556960E+03 </wgt>
<wgt id='1503'> +2.9608130E+03 </wgt>
<wgt id='1504'> +2.9570799E+03 </wgt>
<wgt id='1505'> +2.9599115E+03 </wgt>
<wgt id='1506'> +2.9614615E+03 </wgt>
<wgt id='1507'> +2.9674943E+03 </wgt>
<wgt id='1508'> +2.9575557E+03 </wgt>
<wgt id='1509'> +2.9590119E+03 </wgt>
<wgt id='1510'> +2.9642916E+03 </wgt>
<wgt id='1511'> +2.9519531E+03 </wgt>
<wgt id='1512'> +2.9185192E+03 </wgt>
<wgt id='1513'> +2.9120323E+03 </wgt>
<wgt id='1514'> +2.9289233E+03 </wgt>
<wgt id='1515'> +2.9413415E+03 </wgt>
<wgt id='1516'> +2.9095972E+03 </wgt>
<wgt id='1517'> +2.9100087E+03 </wgt>
<wgt id='1518'> +2.9154511E+03 </wgt>
<wgt id='1519'> +2.9134361E+03 </wgt>
<wgt id='1520'> +2.9200454E+03 </wgt>
<wgt id='1521'> +2.9164804E+03 </wgt>
<wgt id='1522'> +2.9263974E+03 </wgt>
<wgt id='1523'> +2.9156416E+03 </wgt>
<wgt id='1524'> +2.9038455E+03 </wgt>
<wgt id='1525'> +2.9278657E+03 </wgt>
<wgt id='1526'> +2.9004754E+03 </wgt>
<wgt id='1527'> +2.9219353E+03 </wgt>
<wgt id='1528'> +2.9163977E+03 </wgt>
<wgt id='1529'> +2.9145897E+03 </wgt>
<wgt id='1530'> +2.9228230E+03 </wgt>
<wgt id='1531'> +2.9067415E+03 </wgt>
<wgt id='1532'> +2.9213062E+03 </wgt>
<wgt id='1533'> +2.8997799E+03 </wgt>
<wgt id='1534'> +2.9131890E+03 </wgt>
<wgt id='1535'> +2.9218346E+03 </wgt>
<wgt id='1536'> +2.9181434E+03 </wgt>
<wgt id='1537'> +2.9102005E+03 </wgt>
<wgt id='1538'> +2.9106565E+03 </wgt>
<wgt id='1539'> +2.9183742E+03 </wgt>
<wgt id='1540'> +2.9095682E+03 </wgt>
<wgt id='1541'> +2.9140229E+03 </wgt>
<wgt id='1542'> +2.9121044E+03 </wgt>
<wgt id='1543'> +2.9223404E+03 </wgt>
<wgt id='1544'> +2.9116570E+03 </wgt>
<wgt id='1545'> +2.8997637E+03 </wgt>
<wgt id='1546'> +2.9257781E+03 </wgt>
<wgt id='1547'> +2.9224728E+03 </wgt>
<wgt id='1548'> +2.9172581E+03 </wgt>
<wgt id='1549'> +2.9178227E+03 </wgt>
<wgt id='1550'> +2.9205893E+03 </wgt>
<wgt id='1551'> +2.9251609E+03 </wgt>
<wgt id='1552'> +2.9179098E+03 </wgt>
<wgt id='1553'> +2.9213210E+03 </wgt>
<wgt id='1554'> +2.9209392E+03 </wgt>
<wgt id='1555'> +2.9160083E+03 </wgt>
<wgt id='1556'> +2.9190766E+03 </wgt>
<wgt id='1557'> +2.9224442E+03 </wgt>
<wgt id='1558'> +2.9225538E+03 </wgt>
<wgt id='1559'> +2.9118652E+03 </wgt>
<wgt id='1560'> +2.9171591E+03 </wgt>
<wgt id='1561'> +2.9169613E+03 </wgt>
<wgt id='1562'> +2.9196294E+03 </wgt>
<wgt id='1563'> +2.9143862E+03 </wgt>
<wgt id='1564'> +2.9224137E+03 </wgt>
<wgt id='1565'> +2.9169224E+03 </wgt>
<wgt id='1566'> +2.9178478E+03 </wgt>
<wgt id='1567'> +2.9215408E+03 </wgt>
<wgt id='1568'> +2.9168377E+03 </wgt>
<wgt id='1569'> +2.9186863E+03 </wgt>
<wgt id='1570'> +2.9207721E+03 </wgt>
<wgt id='1571'> +2.9200426E+03 </wgt>
<wgt id='1572'> +2.9159662E+03 </wgt>
<wgt id='1573'> +2.9200114E+03 </wgt>
<wgt id='1574'> +2.9172002E+03 </wgt>
<wgt id='1575'> +2.9184284E+03 </wgt>
<wgt id='1576'> +2.9192209E+03 </wgt>
<wgt id='1577'> +2.9196238E+03 </wgt>
<wgt id='1578'> +2.9204475E+03 </wgt>
<wgt id='1579'> +2.9204076E+03 </wgt>
<wgt id='1580'> +2.9197042E+03 </wgt>
<wgt id='1581'> +2.9189245E+03 </wgt>
<wgt id='1582'> +2.9171707E+03 </wgt>
<wgt id='1583'> +2.9168773E+03 </wgt>
<wgt id='1584'> +2.9189681E+03 </wgt>
<wgt id='1585'> +2.9182236E+03 </wgt>
<wgt id='1586'> +2.9176863E+03 </wgt>
<wgt id='1587'> +2.9194616E+03 </wgt>
<wgt id='1588'> +2.9187254E+03 </wgt>
<wgt id='1589'> +2.9180225E+03 </wgt>
<wgt id='1590'> +2.9179049E+03 </wgt>
<wgt id='1591'> +2.9194323E+03 </wgt>
<wgt id='1592'> +2.9180924E+03 </wgt>
<wgt id='1593'> +2.9192381E+03 </wgt>
<wgt id='1594'> +2.9176836E+03 </wgt>
<wgt id='1595'> +2.9200850E+03 </wgt>
<wgt id='1596'> +2.9190008E+03 </wgt>
<wgt id='1597'> +2.9188861E+03 </wgt>
<wgt id='1598'> +2.9202356E+03 </wgt>
<wgt id='1599'> +2.9193757E+03 </wgt>
<wgt id='1600'> +2.9184077E+03 </wgt>
<wgt id='1601'> +2.9189654E+03 </wgt>
<wgt id='1602'> +2.9181269E+03 </wgt>
<wgt id='1603'> +2.9174555E+03 </wgt>
<wgt id='1604'> +2.9182529E+03 </wgt>
<wgt id='1605'> +2.9179359E+03 </wgt>
<wgt id='1606'> +2.9184412E+03 </wgt>
<wgt id='1607'> +2.9180907E+03 </wgt>
<wgt id='1608'> +2.9177210E+03 </wgt>
<wgt id='1609'> +2.9192083E+03 </wgt>
<wgt id='1610'> +2.9185571E+03 </wgt>
<wgt id='1611'> +2.9186258E+03 </wgt>
<wgt id='1612'> +2.9186361E+03 </wgt>
<wgt id='1613'> +2.8075117E+03 </wgt>
<wgt id='1614'> +3.0316598E+03 </wgt>
<wgt id='1615'> +2.9388902E+03 </wgt>
<wgt id='1616'> +2.9506639E+03 </wgt>
<wgt id='1617'> +2.9362703E+03 </wgt>
<wgt id='1618'> +2.9394814E+03 </wgt>
<wgt id='1619'> +2.9512832E+03 </wgt>
<wgt id='1620'> +2.9610879E+03 </wgt>
<wgt id='1621'> +2.9364975E+03 </wgt>
<wgt id='1622'> +2.9203690E+03 </wgt>
<wgt id='1623'> +2.9357220E+03 </wgt>
<wgt id='1624'> +2.9418680E+03 </wgt>
<wgt id='1625'> +2.9389409E+03 </wgt>
<wgt id='1626'> +2.9498800E+03 </wgt>
<wgt id='1627'> +2.9373328E+03 </wgt>
<wgt id='1628'> +2.9262704E+03 </wgt>
<wgt id='1629'> +2.9251914E+03 </wgt>
<wgt id='1630'> +2.9393610E+03 </wgt>
<wgt id='1631'> +2.9498495E+03 </wgt>
<wgt id='1632'> +2.9332406E+03 </wgt>
<wgt id='1633'> +2.9457436E+03 </wgt>
<wgt id='1634'> +2.9171552E+03 </wgt>
<wgt id='1635'> +2.9505574E+03 </wgt>
<wgt id='1636'> +2.9374086E+03 </wgt>
<wgt id='1637'> +2.9372521E+03 </wgt>
<wgt id='1638'> +2.9321176E+03 </wgt>
<wgt id='1639'> +2.9438756E+03 </wgt>
<wgt id='1640'> +2.9467495E+03 </wgt>
<wgt id='1641'> +2.9357522E+03 </wgt>
<wgt id='1642'> +2.9330659E+03 </wgt>
<wgt id='1643'> +2.9417250E+03 </wgt>
<wgt id='1644'> +2.9498924E+03 </wgt>
<wgt id='1645'> +2.9448332E+03 </wgt>
<wgt id='1646'> +2.9423592E+03 </wgt>
<wgt id='1647'> +2.9462767E+03 </wgt>
<wgt id='1648'> +2.9578072E+03 </wgt>
<wgt id='1649'> +2.9433686E+03 </wgt>
<wgt id='1650'> +2.9464147E+03 </wgt>
<wgt id='1651'> +2.9407548E+03 </wgt>
<wgt id='1652'> +2.9353671E+03 </wgt>
<wgt id='1653'> +2.9338165E+03 </wgt>
<wgt id='1654'> +2.9451376E+03 </wgt>
<wgt id='1655'> +2.9362691E+03 </wgt>
<wgt id='1656'> +2.9413861E+03 </wgt>
<wgt id='1657'> +2.9359216E+03 </wgt>
<wgt id='1658'> +2.9388885E+03 </wgt>
<wgt id='1659'> +2.9338589E+03 </wgt>
<wgt id='1660'> +2.9402564E+03 </wgt>
<wgt id='1661'> +2.9300898E+03 </wgt>
<wgt id='1662'> +2.9333789E+03 </wgt>
<wgt id='1663'> +2.9384841E+03 </wgt>
<wgt id='1664'> +2.9370791E+03 </wgt>
<wgt id='1665'> +2.9402200E+03 </wgt>
<wgt id='1666'> +2.9381130E+03 </wgt>
<wgt id='1667'> +2.9389060E+03 </wgt>
<wgt id='1668'> +2.9394036E+03 </wgt>
<wgt id='1669'> +2.9356021E+03 </wgt>
<wgt id='1670'> +2.9402343E+03 </wgt>
<wgt id='1671'> +2.9413233E+03 </wgt>
<wgt id='1672'> +2.9400799E+03 </wgt>
<wgt id='1673'> +2.9373906E+03 </wgt>
<wgt id='1674'> +2.9383559E+03 </wgt>
<wgt id='1675'> +2.9401147E+03 </wgt>
<wgt id='1676'> +2.9395213E+03 </wgt>
<wgt id='1677'> +2.9382629E+03 </wgt>
<wgt id='1678'> +2.9397115E+03 </wgt>
<wgt id='1679'> +2.9396702E+03 </wgt>
<wgt id='1680'> +2.9357422E+03 </wgt>
<wgt id='1681'> +2.9377209E+03 </wgt>
<wgt id='1682'> +2.9390780E+03 </wgt>
<wgt id='1683'> +2.9404755E+03 </wgt>
<wgt id='1684'> +2.9398481E+03 </wgt>
<wgt id='1685'> +2.9382540E+03 </wgt>
<wgt id='1686'> +2.9403620E+03 </wgt>
<wgt id='1687'> +2.9401681E+03 </wgt>
<wgt id='1688'> +2.9377741E+03 </wgt>
<wgt id='1689'> +2.9386896E+03 </wgt>
<wgt id='1690'> +2.9391905E+03 </wgt>
<wgt id='1691'> +2.9397465E+03 </wgt>
<wgt id='1692'> +2.9385080E+03 </wgt>
<wgt id='1693'> +2.9389158E+03 </wgt>
<wgt id='1694'> +2.9393433E+03 </wgt>
<wgt id='1695'> +2.9417211E+03 </wgt>
<wgt id='1696'> +2.9394415E+03 </wgt>
<wgt id='1697'> +2.9398407E+03 </wgt>
<wgt id='1698'> +2.9380743E+03 </wgt>
<wgt id='1699'> +2.9376929E+03 </wgt>
<wgt id='1700'> +2.9380517E+03 </wgt>
<wgt id='1701'> +2.9398159E+03 </wgt>
<wgt id='1702'> +2.9366653E+03 </wgt>
<wgt id='1703'> +2.9376641E+03 </wgt>
<wgt id='1704'> +2.9382791E+03 </wgt>
<wgt id='1705'> +2.9391718E+03 </wgt>
<wgt id='1706'> +2.9388902E+03 </wgt>
<wgt id='1707'> +2.9383318E+03 </wgt>
<wgt id='1708'> +2.9390571E+03 </wgt>
<wgt id='1709'> +2.9379240E+03 </wgt>
<wgt id='1710'> +2.9381930E+03 </wgt>
<wgt id='1711'> +2.9386382E+03 </wgt>
<wgt id='1712'> +2.9395166E+03 </wgt>
<wgt id='1713'> +2.9395382E+03 </wgt>
<wgt id='1714'> +2.9383055E+03 </wgt>
<wgt id='1715'> +2.9383677E+03 </wgt>
<wgt id='1716'> +2.8227578E+03 </wgt>
<wgt id='1717'> +3.0509777E+03 </wgt>
<wgt id='1718'> +2.9194045E+03 </wgt>
<wgt id='1719'> +2.9294497E+03 </wgt>
<wgt id='1720'> +2.9020764E+03 </wgt>
<wgt id='1721'> +2.9195721E+03 </wgt>
<wgt id='1722'> +2.9427877E+03 </wgt>
<wgt id='1723'> +2.9496622E+03 </wgt>
<wgt id='1724'> +2.9116287E+03 </wgt>
<wgt id='1725'> +2.9186575E+03 </wgt>
<wgt id='1726'> +2.9228708E+03 </wgt>
<wgt id='1727'> +2.9142018E+03 </wgt>
<wgt id='1728'> +2.9240925E+03 </wgt>
<wgt id='1729'> +2.9084474E+03 </wgt>
<wgt id='1730'> +2.9205336E+03 </wgt>
<wgt id='1731'> +2.9215705E+03 </wgt>
<wgt id='1732'> +2.9146899E+03 </wgt>
<wgt id='1733'> +2.9184111E+03 </wgt>
<wgt id='1734'> +2.9134544E+03 </wgt>
<wgt id='1735'> +2.9335522E+03 </wgt>
<wgt id='1736'> +2.9215531E+03 </wgt>
<wgt id='1737'> +2.9152761E+03 </wgt>
<wgt id='1738'> +2.9164267E+03 </wgt>
<wgt id='1739'> +2.9176246E+03 </wgt>
<wgt id='1740'> +2.9180863E+03 </wgt>
<wgt id='1741'> +2.9205617E+03 </wgt>
<wgt id='1742'> +2.9171616E+03 </wgt>
<wgt id='1743'> +2.9171065E+03 </wgt>
<wgt id='1744'> +2.9255830E+03 </wgt>
<wgt id='1745'> +2.9237270E+03 </wgt>
<wgt id='1746'> +2.9391514E+03 </wgt>
<wgt id='1747'> +2.9194475E+03 </wgt>
<wgt id='1748'> +2.9192386E+03 </wgt>
<wgt id='1749'> +2.8075117E+03 </wgt>
<wgt id='1750'> +3.0316598E+03 </wgt>
<wgt id='1751'> +2.9387849E+03 </wgt>
<wgt id='1752'> +2.9248776E+03 </wgt>
<wgt id='1753'> +2.9498205E+03 </wgt>
<wgt id='1754'> +2.9389441E+03 </wgt>
<wgt id='1755'> +2.9162465E+03 </wgt>
<wgt id='1756'> +2.9279545E+03 </wgt>
<wgt id='1757'> +2.9429726E+03 </wgt>
<wgt id='1758'> +2.9350813E+03 </wgt>
<wgt id='1759'> +2.9452511E+03 </wgt>
<wgt id='1760'> +2.9278317E+03 </wgt>
<wgt id='1761'> +2.9237186E+03 </wgt>
<wgt id='1762'> +2.9266511E+03 </wgt>
<wgt id='1763'> +2.9383571E+03 </wgt>
<wgt id='1764'> +2.9423432E+03 </wgt>
<wgt id='1765'> +2.9340937E+03 </wgt>
<wgt id='1766'> +2.9448243E+03 </wgt>
<wgt id='1767'> +2.9385274E+03 </wgt>
<wgt id='1768'> +2.9454999E+03 </wgt>
<wgt id='1769'> +2.9385666E+03 </wgt>
<wgt id='1770'> +2.9431411E+03 </wgt>
<wgt id='1771'> +2.9145021E+03 </wgt>
<wgt id='1772'> +2.9406234E+03 </wgt>
<wgt id='1773'> +2.9671446E+03 </wgt>
<wgt id='1774'> +2.9408560E+03 </wgt>
<wgt id='1775'> +2.9379237E+03 </wgt>
<wgt id='1776'> +2.9399953E+03 </wgt>
<wgt id='1777'> +2.9362521E+03 </wgt>
<wgt id='1778'> +2.9394632E+03 </wgt>
<wgt id='1779'> +2.9379535E+03 </wgt>
<wgt id='1780'> +2.9354554E+03 </wgt>
<wgt id='1781'> +2.9443471E+03 </wgt>
<wgt id='1782'> +2.8227578E+03 </wgt>
<wgt id='1783'> +3.0509777E+03 </wgt>
<wgt id='1784'> +3.0990454E+03 </wgt>
<wgt id='1785'> +3.0998537E+03 </wgt>
<wgt id='1786'> +3.0982377E+03 </wgt>
<wgt id='1787'> +3.0978390E+03 </wgt>
<wgt id='1788'> +3.1002428E+03 </wgt>
<wgt id='1789'> +3.1052591E+03 </wgt>
<wgt id='1790'> +3.0928361E+03 </wgt>
<wgt id='1791'> +3.1015632E+03 </wgt>
<wgt id='1792'> +3.0964949E+03 </wgt>
<wgt id='1793'> +3.1013685E+03 </wgt>
<wgt id='1794'> +3.0967048E+03 </wgt>
<wgt id='1795'> +3.0938932E+03 </wgt>
<wgt id='1796'> +3.1055227E+03 </wgt>
<wgt id='1797'> +3.0919560E+03 </wgt>
<wgt id='1798'> +3.1061532E+03 </wgt>
<wgt id='1799'> +3.0966313E+03 </wgt>
<wgt id='1800'> +3.0968808E+03 </wgt>
<wgt id='1801'> +3.1064284E+03 </wgt>
<wgt id='1802'> +3.0946377E+03 </wgt>
<wgt id='1803'> +3.0934138E+03 </wgt>
<wgt id='1804'> +3.1029252E+03 </wgt>
<wgt id='1805'> +3.1112060E+03 </wgt>
<wgt id='1806'> +3.0858873E+03 </wgt>
<wgt id='1807'> +3.0828175E+03 </wgt>
<wgt id='1808'> +3.1078281E+03 </wgt>
<wgt id='1809'> +3.0990260E+03 </wgt>
<wgt id='1810'> +3.1017345E+03 </wgt>
<wgt id='1811'> +3.1026579E+03 </wgt>
<wgt id='1812'> +3.0943520E+03 </wgt>
<wgt id='1813'> +3.0990454E+03 </wgt>
<wgt id='1814'> +3.1219089E+03 </wgt>
<wgt id='1815'> +3.0700003E+03 </wgt>
<wgt id='1816'> +3.1248204E+03 </wgt>
<wgt id='1817'> +3.0791280E+03 </wgt>
<wgt id='1818'> +3.1055252E+03 </wgt>
<wgt id='1819'> +3.0924018E+03 </wgt>
<wgt id='1820'> +3.0937022E+03 </wgt>
<wgt id='1821'> +3.1050182E+03 </wgt>
<wgt id='1822'> +3.0929624E+03 </wgt>
<wgt id='1823'> +3.1055392E+03 </wgt>
<wgt id='1824'> +3.0984776E+03 </wgt>
<wgt id='1825'> +3.1047511E+03 </wgt>
<wgt id='1826'> +3.0302919E+03 </wgt>
<wgt id='1827'> +3.0522641E+03 </wgt>
<wgt id='1828'> +3.0525307E+03 </wgt>
<wgt id='1829'> +3.0504936E+03 </wgt>
<wgt id='1830'> +3.0478739E+03 </wgt>
<wgt id='1831'> +3.0551563E+03 </wgt>
<wgt id='1832'> +3.0562773E+03 </wgt>
<wgt id='1833'> +3.0467410E+03 </wgt>
<wgt id='1834'> +3.0546045E+03 </wgt>
<wgt id='1835'> +3.0484188E+03 </wgt>
<wgt id='1836'> +3.0481946E+03 </wgt>
<wgt id='1837'> +3.0549911E+03 </wgt>
<wgt id='1838'> +3.0554415E+03 </wgt>
<wgt id='1839'> +3.0476116E+03 </wgt>
<wgt id='1840'> +3.0462121E+03 </wgt>
<wgt id='1841'> +3.0565739E+03 </wgt>
<wgt id='1842'> +3.0470130E+03 </wgt>
<wgt id='1843'> +3.0502024E+03 </wgt>
<wgt id='1844'> +3.0501114E+03 </wgt>
<wgt id='1845'> +3.0527805E+03 </wgt>
<wgt id='1846'> +3.0501493E+03 </wgt>
<wgt id='1847'> +3.0530475E+03 </wgt>
<wgt id='1848'> +3.0377827E+03 </wgt>
<wgt id='1849'> +3.0639763E+03 </wgt>
<wgt id='1850'> +3.0412603E+03 </wgt>
<wgt id='1851'> +3.0628937E+03 </wgt>
<wgt id='1852'> +3.0305439E+03 </wgt>
<wgt id='1853'> +3.0692917E+03 </wgt>
<wgt id='1854'> +3.0408168E+03 </wgt>
<wgt id='1855'> +3.0611600E+03 </wgt>
<wgt id='1856'> +3.0494663E+03 </wgt>
<wgt id='1857'> +3.0727757E+03 </wgt>
<wgt id='1858'> +3.0097978E+03 </wgt>
<wgt id='1859'> +3.0763090E+03 </wgt>
<wgt id='1860'> +3.0290785E+03 </wgt>
<wgt id='1861'> +3.0220482E+03 </wgt>
<wgt id='1862'> +3.0361972E+03 </wgt>
<wgt id='1863'> +3.0439023E+03 </wgt>
<wgt id='1864'> +3.0601288E+03 </wgt>
<wgt id='1865'> +3.0317983E+03 </wgt>
<wgt id='1866'> +3.0259829E+03 </wgt>
<wgt id='1867'> +3.0328197E+03 </wgt>
<wgt id='1868'> +3.0817304E+03 </wgt>
<wgt id='1869'> +3.0311449E+03 </wgt>
<wgt id='1870'> +2.8976023E+03 </wgt>
<wgt id='1871'> +2.8969860E+03 </wgt>
<wgt id='1872'> +2.8963616E+03 </wgt>
<wgt id='1873'> +2.8957458E+03 </wgt>
<wgt id='1874'> +2.8951288E+03 </wgt>
<wgt id='1875'> +2.8945083E+03 </wgt>
<wgt id='1876'> +2.8938879E+03 </wgt>
<wgt id='1877'> +2.8932706E+03 </wgt>
<wgt id='1878'> +2.8926502E+03 </wgt>
<wgt id='1879'> +2.8920297E+03 </wgt>
<wgt id='1880'> +2.8914156E+03 </wgt>
<wgt id='1881'> +2.8907883E+03 </wgt>
<wgt id='1882'> +2.8901728E+03 </wgt>
<wgt id='1883'> +2.8895535E+03 </wgt>
<wgt id='1884'> +2.8889365E+03 </wgt>
<wgt id='1885'> +2.8883138E+03 </wgt>
<wgt id='1886'> +2.8876990E+03 </wgt>
<wgt id='1887'> +2.8870791E+03 </wgt>
<wgt id='1888'> +2.8864618E+03 </wgt>
<wgt id='1889'> +2.8858404E+03 </wgt>
<wgt id='1890'> +2.8852253E+03 </wgt>
<wgt id='1891'> +2.8846031E+03 </wgt>
<wgt id='1892'> +2.8839896E+03 </wgt>
<wgt id='1893'> +2.8833679E+03 </wgt>
<wgt id='1894'> +2.8827482E+03 </wgt>
<wgt id='1895'> +2.8821299E+03 </wgt>
<wgt id='1896'> +2.8815129E+03 </wgt>
<wgt id='1897'> +2.8808934E+03 </wgt>
<wgt id='1898'> +2.8802752E+03 </wgt>
<wgt id='1899'> +2.8796577E+03 </wgt>
<wgt id='1900'> +2.8790409E+03 </wgt>
<wgt id='1901'> +2.9172310E+03 </wgt>
<wgt id='1902'> +2.9285078E+03 </wgt>
<wgt id='1903'> +2.9144765E+03 </wgt>
<wgt id='1904'> +2.9178884E+03 </wgt>
<wgt id='1905'> +2.9294399E+03 </wgt>
<wgt id='1906'> +2.9392537E+03 </wgt>
<wgt id='1907'> +2.9151784E+03 </wgt>
<wgt id='1908'> +2.8991415E+03 </wgt>
<wgt id='1909'> +2.9140970E+03 </wgt>
<wgt id='1910'> +2.9202322E+03 </wgt>
<wgt id='1911'> +2.9172340E+03 </wgt>
<wgt id='1912'> +2.9285652E+03 </wgt>
<wgt id='1913'> +2.9158528E+03 </wgt>
<wgt id='1914'> +2.9048949E+03 </wgt>
<wgt id='1915'> +2.9035194E+03 </wgt>
<wgt id='1916'> +2.9170390E+03 </wgt>
<wgt id='1917'> +2.9285381E+03 </wgt>
<wgt id='1918'> +2.9114756E+03 </wgt>
<wgt id='1919'> +2.9239409E+03 </wgt>
<wgt id='1920'> +2.8959474E+03 </wgt>
<wgt id='1921'> +2.9291462E+03 </wgt>
<wgt id='1922'> +2.9154971E+03 </wgt>
<wgt id='1923'> +2.9155481E+03 </wgt>
<wgt id='1924'> +2.9105947E+03 </wgt>
<wgt id='1925'> +2.9219870E+03 </wgt>
<wgt id='1926'> +2.9247725E+03 </wgt>
<wgt id='1927'> +2.9138011E+03 </wgt>
<wgt id='1928'> +2.9117707E+03 </wgt>
<wgt id='1929'> +2.9201925E+03 </wgt>
<wgt id='1930'> +2.9279723E+03 </wgt>
<wgt id='1931'> +2.9229478E+03 </wgt>
<wgt id='1932'> +2.9210515E+03 </wgt>
<wgt id='1933'> +2.9244703E+03 </wgt>
<wgt id='1934'> +2.9359356E+03 </wgt>
<wgt id='1935'> +2.9216700E+03 </wgt>
<wgt id='1936'> +2.9246012E+03 </wgt>
<wgt id='1937'> +2.9191035E+03 </wgt>
<wgt id='1938'> +2.9137330E+03 </wgt>
<wgt id='1939'> +2.9121659E+03 </wgt>
<wgt id='1940'> +2.9232867E+03 </wgt>
<wgt id='1941'> +2.9146330E+03 </wgt>
<wgt id='1942'> +2.9196358E+03 </wgt>
<wgt id='1943'> +2.9142648E+03 </wgt>
<wgt id='1944'> +2.9174048E+03 </wgt>
<wgt id='1945'> +2.9122129E+03 </wgt>
<wgt id='1946'> +2.9185290E+03 </wgt>
<wgt id='1947'> +2.9086059E+03 </wgt>
<wgt id='1948'> +2.9117119E+03 </wgt>
<wgt id='1949'> +2.9169079E+03 </wgt>
<wgt id='1950'> +2.9154006E+03 </wgt>
<wgt id='1951'> +2.9185928E+03 </wgt>
<wgt id='1952'> +2.9164250E+03 </wgt>
<wgt id='1953'> +2.9172214E+03 </wgt>
<wgt id='1954'> +2.9177703E+03 </wgt>
<wgt id='1955'> +2.9140096E+03 </wgt>
<wgt id='1956'> +2.9186100E+03 </wgt>
<wgt id='1957'> +2.9195320E+03 </wgt>
<wgt id='1958'> +2.9184089E+03 </wgt>
<wgt id='1959'> +2.9158510E+03 </wgt>
<wgt id='1960'> +2.9167474E+03 </wgt>
<wgt id='1961'> +2.9184781E+03 </wgt>
<wgt id='1962'> +2.9178785E+03 </wgt>
<wgt id='1963'> +2.9165862E+03 </wgt>
<wgt id='1964'> +2.9179967E+03 </wgt>
<wgt id='1965'> +2.9180511E+03 </wgt>
<wgt id='1966'> +2.9141051E+03 </wgt>
<wgt id='1967'> +2.9160632E+03 </wgt>
<wgt id='1968'> +2.9173683E+03 </wgt>
<wgt id='1969'> +2.9188268E+03 </wgt>
<wgt id='1970'> +2.9181239E+03 </wgt>
<wgt id='1971'> +2.9165847E+03 </wgt>
<wgt id='1972'> +2.9187328E+03 </wgt>
<wgt id='1973'> +2.9184650E+03 </wgt>
<wgt id='1974'> +2.9160834E+03 </wgt>
<wgt id='1975'> +2.9170415E+03 </wgt>
<wgt id='1976'> +2.9175421E+03 </wgt>
<wgt id='1977'> +2.9181591E+03 </wgt>
<wgt id='1978'> +2.9168559E+03 </wgt>
<wgt id='1979'> +2.9173149E+03 </wgt>
<wgt id='1980'> +2.9176652E+03 </wgt>
<wgt id='1981'> +2.9199794E+03 </wgt>
<wgt id='1982'> +2.9178379E+03 </wgt>
<wgt id='1983'> +2.9181973E+03 </wgt>
<wgt id='1984'> +2.9164097E+03 </wgt>
<wgt id='1985'> +2.9160086E+03 </wgt>
<wgt id='1986'> +2.9164193E+03 </wgt>
<wgt id='1987'> +2.9182305E+03 </wgt>
<wgt id='1988'> +2.9149847E+03 </wgt>
<wgt id='1989'> +2.9159711E+03 </wgt>
<wgt id='1990'> +2.9165808E+03 </wgt>
<wgt id='1991'> +2.9174889E+03 </wgt>
<wgt id='1992'> +2.9171843E+03 </wgt>
<wgt id='1993'> +2.9166430E+03 </wgt>
<wgt id='1994'> +2.9174070E+03 </wgt>
<wgt id='1995'> +2.9162118E+03 </wgt>
<wgt id='1996'> +2.9165461E+03 </wgt>
<wgt id='1997'> +2.9170063E+03 </wgt>
<wgt id='1998'> +2.9178483E+03 </wgt>
<wgt id='1999'> +2.9178581E+03 </wgt>
<wgt id='2000'> +2.9166782E+03 </wgt>
<wgt id='2001'> +2.9167336E+03 </wgt>
<wgt id='2002'> +2.9172108E+03 </wgt>
<wgt id='2003'> +2.9171020E+03 </wgt>
<wgt id='2004'> +2.9172512E+03 </wgt>
<wgt id='2005'> +2.9172549E+03 </wgt>
<wgt id='2006'> +2.9172906E+03 </wgt>
<wgt id='2007'> +2.9172396E+03 </wgt>
<wgt id='2008'> +2.9171454E+03 </wgt>
<wgt id='2009'> +2.9145449E+03 </wgt>
<wgt id='2010'> +2.7971571E+03 </wgt>
<wgt id='2011'> +2.9136166E+03 </wgt>
<wgt id='2012'> +2.9091057E+03 </wgt>
<wgt id='2013'> +2.9073352E+03 </wgt>
<wgt id='2014'> +2.7258565E+03 </wgt>
<wgt id='2015'> +2.9287180E+03 </wgt>
<wgt id='2016'> +2.9255072E+03 </wgt>
<wgt id='2017'> +2.8814130E+03 </wgt>
<wgt id='2018'> +2.9030033E+03 </wgt>
<wgt id='2019'> +2.8098444E+03 </wgt>
<wgt id='2020'> +2.9039816E+03 </wgt>
<wgt id='2021'> +2.9266213E+03 </wgt>
<wgt id='2022'> +2.9389869E+03 </wgt>
<wgt id='2023'> +2.9012394E+03 </wgt>
<wgt id='2024'> +2.9428438E+03 </wgt>
<wgt id='2025'> +2.8854532E+03 </wgt>
<wgt id='2026'> +2.9316822E+03 </wgt>
<wgt id='2027'> +2.8697550E+03 </wgt>
<wgt id='2028'> +2.9801418E+03 </wgt>
<wgt id='2029'> +2.9513228E+03 </wgt>
<wgt id='2030'> +2.9521214E+03 </wgt>
<wgt id='2031'> +2.8619900E+03 </wgt>
<wgt id='2032'> +3.0417139E+03 </wgt>
<wgt id='2033'> +2.9379626E+03 </wgt>
<wgt id='2034'> +2.9351355E+03 </wgt>
<wgt id='2035'> +2.8700264E+03 </wgt>
<wgt id='2036'> +2.8973945E+03 </wgt>
<wgt id='2037'> +2.9689181E+03 </wgt>
<wgt id='2038'> +2.9168476E+03 </wgt>
<wgt id='2039'> +2.9374591E+03 </wgt>
<wgt id='2040'> +2.9030451E+03 </wgt>
<wgt id='2041'> +2.8450737E+03 </wgt>
<wgt id='2042'> +2.8891115E+03 </wgt>
<wgt id='2043'> +2.8845844E+03 </wgt>
<wgt id='2044'> +2.9402987E+03 </wgt>
<wgt id='2045'> +2.9459894E+03 </wgt>
<wgt id='2046'> +2.9067221E+03 </wgt>
<wgt id='2047'> +2.9258069E+03 </wgt>
<wgt id='2048'> +2.8924159E+03 </wgt>
<wgt id='2049'> +2.9152983E+03 </wgt>
<wgt id='2050'> +3.0031615E+03 </wgt>
<wgt id='2051'> +2.9478176E+03 </wgt>
<wgt id='2052'> +2.9123719E+03 </wgt>
<wgt id='2053'> +2.8593435E+03 </wgt>
<wgt id='2054'> +2.8826386E+03 </wgt>
<wgt id='2055'> +2.9589952E+03 </wgt>
<wgt id='2056'> +2.8788974E+03 </wgt>
<wgt id='2057'> +2.9131782E+03 </wgt>
<wgt id='2058'> +2.8585015E+03 </wgt>
<wgt id='2059'> +2.9166152E+03 </wgt>
<wgt id='2060'> +2.9470930E+03 </wgt>
<wgt id='2061'> +2.8538209E+03 </wgt>
<wgt id='2062'> +2.9136045E+03 </wgt>
<wgt id='2063'> +2.9452728E+03 </wgt>
<wgt id='2064'> +2.9104946E+03 </wgt>
<wgt id='2065'> +2.8743923E+03 </wgt>
<wgt id='2066'> +2.9541167E+03 </wgt>
<wgt id='2067'> +2.9030862E+03 </wgt>
<wgt id='2068'> +2.9387541E+03 </wgt>
<wgt id='2069'> +2.9101923E+03 </wgt>
<wgt id='2070'> +2.8926135E+03 </wgt>
<wgt id='2071'> +2.9280488E+03 </wgt>
<wgt id='2072'> +2.9875484E+03 </wgt>
<wgt id='2073'> +2.8131332E+03 </wgt>
<wgt id='2074'> +2.9587218E+03 </wgt>
<wgt id='2075'> +2.9000698E+03 </wgt>
<wgt id='2076'> +3.0487038E+03 </wgt>
<wgt id='2077'> +2.8943161E+03 </wgt>
<wgt id='2078'> +2.9074580E+03 </wgt>
<wgt id='2079'> +2.8566697E+03 </wgt>
<wgt id='2080'> +2.9374495E+03 </wgt>
<wgt id='2081'> +2.9328889E+03 </wgt>
<wgt id='2082'> +2.8545452E+03 </wgt>
<wgt id='2083'> +2.9529459E+03 </wgt>
<wgt id='2084'> +2.9649278E+03 </wgt>
<wgt id='2085'> +2.8777180E+03 </wgt>
<wgt id='2086'> +2.9054009E+03 </wgt>
<wgt id='2087'> +2.9577501E+03 </wgt>
<wgt id='2088'> +2.9211487E+03 </wgt>
<wgt id='2089'> +2.8892353E+03 </wgt>
<wgt id='2090'> +2.9402904E+03 </wgt>
<wgt id='2091'> +2.8997979E+03 </wgt>
<wgt id='2092'> +2.9561678E+03 </wgt>
<wgt id='2093'> +2.9129412E+03 </wgt>
<wgt id='2094'> +2.9143874E+03 </wgt>
<wgt id='2095'> +2.9219968E+03 </wgt>
<wgt id='2096'> +2.9475442E+03 </wgt>
<wgt id='2097'> +2.9338724E+03 </wgt>
<wgt id='2098'> +2.9904560E+03 </wgt>
<wgt id='2099'> +2.9345406E+03 </wgt>
<wgt id='2100'> +2.8945098E+03 </wgt>
<wgt id='2101'> +2.8733399E+03 </wgt>
<wgt id='2102'> +2.8948701E+03 </wgt>
<wgt id='2103'> +2.9716323E+03 </wgt>
<wgt id='2104'> +2.8393293E+03 </wgt>
<wgt id='2105'> +2.9654380E+03 </wgt>
<wgt id='2106'> +2.9208474E+03 </wgt>
<wgt id='2107'> +2.9768832E+03 </wgt>
<wgt id='2108'> +2.9370640E+03 </wgt>
<wgt id='2109'> +2.8623114E+03 </wgt>
<wgt id='2110'> +2.8346467E+03 </wgt>
<wgt id='2111'> +2.9808454E+03 </wgt>
<wgt id='2112'> +2.9082820E+03 </wgt>
<wgt id='2113'> +2.8770710E+03 </wgt>
<wgt id='2114'> +3.8485182E+03 </wgt>
<wgt id='2115'> +2.8010580E+03 </wgt>
<wgt id='2116'> +3.6699220E+03 </wgt>
</rwgt>
</event>
<event>
 8      8 +2.9771057E+03 8.38267100e+01 7.54677100e-03 1.19523200e-01
       21 -1    0    0  502  503 +0.0000000000e+00 +0.0000000000e+00 +3.4947478570e+02 3.4947478570e+02 0.0000000000e+00 0.0000e+00 -1.0000e+00
        1 -1    0    0  503    0 -0.0000000000e+00 -0.0000000000e+00 -3.6373762284e+02 3.6373762284e+02 0.0000000000e+00 0.0000e+00 -1.0000e+00
      -24  2    1    2    0    0 +2.4464984959e+01 -1.1729339739e+01 -2.8623511320e+02 2.9829808553e+02 7.9467571410e+01 0.0000e+00 0.0000e+00
       15  1    3    3    0    0 +3.2353897677e+01 +1.9218691533e+01 -6.8001882119e+01 7.7740250192e+01 1.7770000000e+00 0.0000e+00 -1.0000e+00
      -16  1    3    3    0    0 -7.8889127181e+00 -3.0948031272e+01 -2.1823323108e+02 2.2055783534e+02 0.0000000000e+00 0.0000e+00 1.0000e+00
        2  1    1    2  501    0 -1.4097318325e-01 +1.4575062084e+01 +2.6946764326e+02 2.6986156279e+02 0.0000000000e+00 0.0000e+00 -1.0000e+00
        2  1    1    2  502    0 -1.0122201794e+01 -9.0536945566e+00 -6.9798315277e+01 7.1107194923e+01 0.0000000000e+00 0.0000e+00 -1.0000e+00
       -2  1    1    2    0  501 -1.4201809982e+01 +6.2079722110e+00 +7.2302948077e+01 7.3945565292e+01 0.0000000000e+00 0.0000e+00 1.0000e+00
<scales pt_clust_4="13000.00000" pt_clust_5="13000.00000" pt_clust_6="26.68000" pt_clust_7="13.58045" pt_clust_8="16.88317"></scales>
<mgrwt>
<rscale>  0 0.83826711E+02</rscale>
<asrwt>  3 0.13580447E+02 0.16883167E+02 0.26680004E+02</asrwt>
<pdfrwt beam="1">  1       21 0.53765352E-01 0.83826711E+02</pdfrwt>
<pdfrwt beam="2">  1        1 0.55959634E-01 0.83826711E+02</pdfrwt>
<totfact> 0.11136654E+01</totfact>
</mgrwt>
<clustering>
<clus scale="   13.580">  1  7  2 -1</clus>
<clus scale="   16.883">  1  8  2 -1</clus>
<clus scale="   26.680">  1  6  2 -1</clus>
<clus scale="   79.468">  4  5 -1 -1</clus>
<clus scale="   83.827">  1  4  2 -1</clus>
</clustering>
<rwgt>
<wgt id='1001'> +2.9771057E+03 </wgt>
<wgt id='1002'> +2.9056456E+03 </wgt>
<wgt id='1003'> +2.9055790E+03 </wgt>
<wgt id='1004'> +3.0723784E+03 </wgt>
<wgt id='1005'> +2.5096430E+03 </wgt>
<wgt id='1006'> +2.9771057E+03 </wgt>
<wgt id='1007'> +2.9056456E+03 </wgt>
<wgt id='1008'> +2.9055790E+03 </wgt>
<wgt id='1009'> +3.0723784E+03 </wgt>
<wgt id='1010'> +2.5096430E+03 </wgt>
<wgt id='1011'> +2.9771057E+03 </wgt>
<wgt id='1012'> +2.9056456E+03 </wgt>
<wgt id='1013'> +2.9055790E+03 </wgt>
<wgt id='1014'> +3.0723784E+03 </wgt>
<wgt id='1015'> +2.5096430E+03 </wgt>
<wgt id='1016'> +2.8149620E+03 </wgt>
<wgt id='1017'> +2.7475025E+03 </wgt>
<wgt id='1018'> +2.7474399E+03 </wgt>
<wgt id='1019'> +2.9055790E+03 </wgt>
<wgt id='1020'> +2.3805251E+03 </wgt>
<wgt id='1021'> +2.8149620E+03 </wgt>
<wgt id='1022'> +2.7475025E+03 </wgt>
<wgt id='1023'> +2.7474399E+03 </wgt>
<wgt id='1024'> +2.9055790E+03 </wgt>
<wgt id='1025'> +2.3805251E+03 </wgt>
<wgt id='1026'> +2.8149620E+03 </wgt>
<wgt id='1027'> +2.7475025E+03 </wgt>
<wgt id='1028'> +2.7474399E+03 </wgt>
<wgt id='1029'> +2.9055790E+03 </wgt>
<wgt id='1030'> +2.3805251E+03 </wgt>
<wgt id='1031'> +3.1462936E+03 </wgt>
<wgt id='1032'> +3.0724477E+03 </wgt>
<wgt id='1033'> +3.0723784E+03 </wgt>
<wgt id='1034'> +3.2423710E+03 </wgt>
<wgt id='1035'> +2.6498455E+03 </wgt>
<wgt id='1036'> +3.1462936E+03 </wgt>
<wgt id='1037'> +3.0724477E+03 </wgt>
<wgt id='1038'> +3.0723784E+03 </wgt>
<wgt id='1039'> +3.2423710E+03 </wgt>
<wgt id='1040'> +2.6498455E+03 </wgt>
<wgt id='1041'> +3.1462936E+03 </wgt>
<wgt id='1042'> +3.0724477E+03 </wgt>
<wgt id='1043'> +3.0723784E+03 </wgt>
<wgt id='1044'> +3.2423710E+03 </wgt>
<wgt id='1045'> +2.6498455E+03 </wgt>
<wgt id='1046'> +2.9771057E+03 </wgt>
<wgt id='1047'> +2.9770569E+03 </wgt>
<wgt id='1048'> +2.9763020E+03 </wgt>
<wgt id='1049'> +2.9770774E+03 </wgt>
<wgt id='1050'> +2.9787435E+03 </wgt>
<wgt id='1051'> +2.9760615E+03 </wgt>
<wgt id='1052'> +2.9754321E+03 </wgt>
<wgt id='1053'> +2.9692822E+03 </wgt>
<wgt id='1054'> +2.9666038E+03 </wgt>
<wgt id='1055'> +2.9808798E+03 </wgt>
<wgt id='1056'> +2.9757814E+03 </wgt>
<wgt id='1057'> +2.9610264E+03 </wgt>
<wgt id='1058'> +2.9703546E+03 </wgt>
<wgt id='1059'> +2.9667723E+03 </wgt>
<wgt id='1060'> +2.9809639E+03 </wgt>
<wgt id='1061'> +2.9835102E+03 </wgt>
<wgt id='1062'> +2.9879261E+03 </wgt>
<wgt id='1063'> +2.9721439E+03 </wgt>
<wgt id='1064'> +2.9729466E+03 </wgt>
<wgt id='1065'> +2.9713441E+03 </wgt>
<wgt id='1066'> +2.9768362E+03 </wgt>
<wgt id='1067'> +2.9816812E+03 </wgt>
<wgt id='1068'> +2.9875678E+03 </wgt>
<wgt id='1069'> +2.9642909E+03 </wgt>
<wgt id='1070'> +2.9906247E+03 </wgt>
<wgt id='1071'> +2.9832422E+03 </wgt>
<wgt id='1072'> +2.9771621E+03 </wgt>
<wgt id='1073'> +2.9865815E+03 </wgt>
<wgt id='1074'> +2.9767728E+03 </wgt>
<wgt id='1075'> +2.9525662E+03 </wgt>
<wgt id='1076'> +2.9863184E+03 </wgt>
<wgt id='1077'> +2.9799152E+03 </wgt>
<wgt id='1078'> +2.9705562E+03 </wgt>
<wgt id='1079'> +2.9663514E+03 </wgt>
<wgt id='1080'> +2.9839519E+03 </wgt>
<wgt id='1081'> +2.9844096E+03 </wgt>
<wgt id='1082'> +2.9767163E+03 </wgt>
<wgt id='1083'> +2.9909373E+03 </wgt>
<wgt id='1084'> +2.9743695E+03 </wgt>
<wgt id='1085'> +2.9759829E+03 </wgt>
<wgt id='1086'> +2.9762273E+03 </wgt>
<wgt id='1087'> +2.9750966E+03 </wgt>
<wgt id='1088'> +2.9707752E+03 </wgt>
<wgt id='1089'> +2.9741797E+03 </wgt>
<wgt id='1090'> +2.9838741E+03 </wgt>
<wgt id='1091'> +2.9672268E+03 </wgt>
<wgt id='1092'> +2.9817074E+03 </wgt>
<wgt id='1093'> +2.9856309E+03 </wgt>
<wgt id='1094'> +2.9711663E+03 </wgt>
<wgt id='1095'> +2.9806397E+03 </wgt>
<wgt id='1096'> +2.9743482E+03 </wgt>
<wgt id='1097'> +2.9770186E+03 </wgt>
<wgt id='1098'> +2.9770010E+03 </wgt>
<wgt id='1099'> +2.9752777E+03 </wgt>
<wgt id='1100'> +2.9748518E+03 </wgt>
<wgt id='1101'> +2.9699575E+03 </wgt>
<wgt id='1102'> +2.9820526E+03 </wgt>
<wgt id='1103'> +2.9785767E+03 </wgt>
<wgt id='1104'> +2.9781307E+03 </wgt>
<wgt id='1105'> +2.9816125E+03 </wgt>
<wgt id='1106'> +2.9807388E+03 </wgt>
<wgt id='1107'> +2.9716856E+03 </wgt>
<wgt id='1108'> +2.9803641E+03 </wgt>
<wgt id='1109'> +2.9755295E+03 </wgt>
<wgt id='1110'> +2.9730605E+03 </wgt>
<wgt id='1111'> +2.9829273E+03 </wgt>
<wgt id='1112'> +2.9721234E+03 </wgt>
<wgt id='1113'> +2.9792290E+03 </wgt>
<wgt id='1114'> +2.9784930E+03 </wgt>
<wgt id='1115'> +2.9752604E+03 </wgt>
<wgt id='1116'> +2.9744179E+03 </wgt>
<wgt id='1117'> +2.9745025E+03 </wgt>
<wgt id='1118'> +2.9804838E+03 </wgt>
<wgt id='1119'> +2.9760907E+03 </wgt>
<wgt id='1120'> +2.9781309E+03 </wgt>
<wgt id='1121'> +2.9750103E+03 </wgt>
<wgt id='1122'> +2.9754476E+03 </wgt>
<wgt id='1123'> +2.9734142E+03 </wgt>
<wgt id='1124'> +2.9751693E+03 </wgt>
<wgt id='1125'> +2.9753034E+03 </wgt>
<wgt id='1126'> +2.9792629E+03 </wgt>
<wgt id='1127'> +2.9782926E+03 </wgt>
<wgt id='1128'> +2.9785577E+03 </wgt>
<wgt id='1129'> +2.9747408E+03 </wgt>
<wgt id='1130'> +2.9750045E+03 </wgt>
<wgt id='1131'> +2.9780604E+03 </wgt>
<wgt id='1132'> +2.9755583E+03 </wgt>
<wgt id='1133'> +2.9786031E+03 </wgt>
<wgt id='1134'> +2.9747377E+03 </wgt>
<wgt id='1135'> +2.9741910E+03 </wgt>
<wgt id='1136'> +2.9788160E+03 </wgt>
<wgt id='1137'> +2.9770916E+03 </wgt>
<wgt id='1138'> +2.9759136E+03 </wgt>
<wgt id='1139'> +2.9768615E+03 </wgt>
<wgt id='1140'> +2.9764273E+03 </wgt>
<wgt id='1141'> +2.9788459E+03 </wgt>
<wgt id='1142'> +2.9787234E+03 </wgt>
<wgt id='1143'> +2.9794462E+03 </wgt>
<wgt id='1144'> +2.9762653E+03 </wgt>
<wgt id='1145'> +2.9756165E+03 </wgt>
<wgt id='1146'> +2.9768627E+03 </wgt>
<wgt id='1147'> +2.7770378E+03 </wgt>
<wgt id='1148'> +3.1797693E+03 </wgt>
<wgt id='1149'> +2.1359474E+03 </wgt>
<wgt id='1150'> +2.2824891E+03 </wgt>
<wgt id='1151'> +2.4503976E+03 </wgt>
<wgt id='1152'> +2.6234312E+03 </wgt>
<wgt id='1153'> +2.8911365E+03 </wgt>
<wgt id='1154'> +3.0718667E+03 </wgt>
<wgt id='1155'> +3.3825600E+03 </wgt>
<wgt id='1156'> +3.5826791E+03 </wgt>
<wgt id='1157'> +2.9694753E+03 </wgt>
<wgt id='1158'> +2.9680658E+03 </wgt>
<wgt id='1159'> +2.9724034E+03 </wgt>
<wgt id='1160'> +2.9703928E+03 </wgt>
<wgt id='1161'> +2.9705134E+03 </wgt>
<wgt id='1162'> +2.9750406E+03 </wgt>
<wgt id='1163'> +2.9654179E+03 </wgt>
<wgt id='1164'> +2.9784313E+03 </wgt>
<wgt id='1165'> +2.9788824E+03 </wgt>
<wgt id='1166'> +2.9811337E+03 </wgt>
<wgt id='1167'> +2.9689256E+03 </wgt>
<wgt id='1168'> +2.9616535E+03 </wgt>
<wgt id='1169'> +2.9640771E+03 </wgt>
<wgt id='1170'> +2.9806573E+03 </wgt>
<wgt id='1171'> +2.9699536E+03 </wgt>
<wgt id='1172'> +2.9621332E+03 </wgt>
<wgt id='1173'> +2.9773190E+03 </wgt>
<wgt id='1174'> +2.9636779E+03 </wgt>
<wgt id='1175'> +2.9743691E+03 </wgt>
<wgt id='1176'> +2.9675053E+03 </wgt>
<wgt id='1177'> +2.9593106E+03 </wgt>
<wgt id='1178'> +2.9766581E+03 </wgt>
<wgt id='1179'> +2.9693880E+03 </wgt>
<wgt id='1180'> +2.9668538E+03 </wgt>
<wgt id='1181'> +2.9774140E+03 </wgt>
<wgt id='1182'> +2.9640442E+03 </wgt>
<wgt id='1183'> +2.9760729E+03 </wgt>
<wgt id='1184'> +2.9581685E+03 </wgt>
<wgt id='1185'> +2.9673122E+03 </wgt>
<wgt id='1186'> +2.9804616E+03 </wgt>
<wgt id='1187'> +2.9557883E+03 </wgt>
<wgt id='1188'> +2.9548425E+03 </wgt>
<wgt id='1189'> +2.9863644E+03 </wgt>
<wgt id='1190'> +2.9730557E+03 </wgt>
<wgt id='1191'> +2.9652106E+03 </wgt>
<wgt id='1192'> +2.9821186E+03 </wgt>
<wgt id='1193'> +2.9722768E+03 </wgt>
<wgt id='1194'> +2.9589516E+03 </wgt>
<wgt id='1195'> +2.9691803E+03 </wgt>
<wgt id='1196'> +2.9691453E+03 </wgt>
<wgt id='1197'> +2.9667099E+03 </wgt>
<wgt id='1198'> +2.9808356E+03 </wgt>
<wgt id='1199'> +2.9622812E+03 </wgt>
<wgt id='1200'> +2.9629300E+03 </wgt>
<wgt id='1201'> +2.9670912E+03 </wgt>
<wgt id='1202'> +2.9674542E+03 </wgt>
<wgt id='1203'> +2.9757087E+03 </wgt>
<wgt id='1204'> +2.9766904E+03 </wgt>
<wgt id='1205'> +2.9738010E+03 </wgt>
<wgt id='1206'> +2.9650960E+03 </wgt>
<wgt id='1207'> +2.9723470E+03 </wgt>
<wgt id='1208'> +2.9752368E+03 </wgt>
<wgt id='1209'> +2.9670400E+03 </wgt>
<wgt id='1210'> +2.9639854E+03 </wgt>
<wgt id='1211'> +2.9656028E+03 </wgt>
<wgt id='1212'> +2.9692385E+03 </wgt>
<wgt id='1213'> +2.9588158E+03 </wgt>
<wgt id='1214'> +2.9698371E+03 </wgt>
<wgt id='1215'> +2.9660770E+03 </wgt>
<wgt id='1216'> +2.9725749E+03 </wgt>
<wgt id='1217'> +2.9664273E+03 </wgt>
<wgt id='1218'> +2.9714490E+03 </wgt>
<wgt id='1219'> +2.9686686E+03 </wgt>
<wgt id='1220'> +2.9759342E+03 </wgt>
<wgt id='1221'> +2.9653200E+03 </wgt>
<wgt id='1222'> +2.9682904E+03 </wgt>
<wgt id='1223'> +2.9753072E+03 </wgt>
<wgt id='1224'> +2.9650749E+03 </wgt>
<wgt id='1225'> +2.9717044E+03 </wgt>
<wgt id='1226'> +2.9703745E+03 </wgt>
<wgt id='1227'> +2.9712316E+03 </wgt>
<wgt id='1228'> +2.9705216E+03 </wgt>
<wgt id='1229'> +2.9698953E+03 </wgt>
<wgt id='1230'> +2.9679286E+03 </wgt>
<wgt id='1231'> +2.9719472E+03 </wgt>
<wgt id='1232'> +2.9717946E+03 </wgt>
<wgt id='1233'> +2.9714363E+03 </wgt>
<wgt id='1234'> +2.9702503E+03 </wgt>
<wgt id='1235'> +2.9718938E+03 </wgt>
<wgt id='1236'> +2.9702684E+03 </wgt>
<wgt id='1237'> +2.9706294E+03 </wgt>
<wgt id='1238'> +2.9685343E+03 </wgt>
<wgt id='1239'> +2.9670583E+03 </wgt>
<wgt id='1240'> +2.9673623E+03 </wgt>
<wgt id='1241'> +2.9722842E+03 </wgt>
<wgt id='1242'> +2.9667622E+03 </wgt>
<wgt id='1243'> +2.9695863E+03 </wgt>
<wgt id='1244'> +2.9660988E+03 </wgt>
<wgt id='1245'> +2.9697539E+03 </wgt>
<wgt id='1246'> +2.9692649E+03 </wgt>
<wgt id='1247'> +2.9718169E+03 </wgt>
<wgt id='1248'> +2.9714288E+03 </wgt>
<wgt id='1249'> +2.9687104E+03 </wgt>
<wgt id='1250'> +2.9711947E+03 </wgt>
<wgt id='1251'> +2.9697251E+03 </wgt>
<wgt id='1252'> +2.9689446E+03 </wgt>
<wgt id='1253'> +2.9680147E+03 </wgt>
<wgt id='1254'> +2.9658612E+03 </wgt>
<wgt id='1255'> +2.9705566E+03 </wgt>
<wgt id='1256'> +2.9707075E+03 </wgt>
<wgt id='1257'> +2.9719025E+03 </wgt>
<wgt id='1258'> +2.7794744E+03 </wgt>
<wgt id='1259'> +3.1651038E+03 </wgt>
<wgt id='1260'> +2.9377795E+03 </wgt>
<wgt id='1261'> +2.9232668E+03 </wgt>
<wgt id='1262'> +2.9194206E+03 </wgt>
<wgt id='1263'> +2.9132008E+03 </wgt>
<wgt id='1264'> +2.9228249E+03 </wgt>
<wgt id='1265'> +2.9340882E+03 </wgt>
<wgt id='1266'> +2.8667473E+03 </wgt>
<wgt id='1267'> +2.9371905E+03 </wgt>
<wgt id='1268'> +2.9368144E+03 </wgt>
<wgt id='1269'> +2.9666566E+03 </wgt>
<wgt id='1270'> +2.9081830E+03 </wgt>
<wgt id='1271'> +2.9548797E+03 </wgt>
<wgt id='1272'> +2.9081477E+03 </wgt>
<wgt id='1273'> +2.9566745E+03 </wgt>
<wgt id='1274'> +2.9753055E+03 </wgt>
<wgt id='1275'> +2.9395007E+03 </wgt>
<wgt id='1276'> +2.9235739E+03 </wgt>
<wgt id='1277'> +2.9238306E+03 </wgt>
<wgt id='1278'> +2.9517418E+03 </wgt>
<wgt id='1279'> +2.9843265E+03 </wgt>
<wgt id='1280'> +2.8952167E+03 </wgt>
<wgt id='1281'> +2.9415146E+03 </wgt>
<wgt id='1282'> +2.9356674E+03 </wgt>
<wgt id='1283'> +2.9484938E+03 </wgt>
<wgt id='1284'> +2.9261279E+03 </wgt>
<wgt id='1285'> +2.9395857E+03 </wgt>
<wgt id='1286'> +2.9359955E+03 </wgt>
<wgt id='1287'> +2.9449597E+03 </wgt>
<wgt id='1288'> +2.9259629E+03 </wgt>
<wgt id='1289'> +2.9532483E+03 </wgt>
<wgt id='1290'> +2.9277034E+03 </wgt>
<wgt id='1291'> +2.9163989E+03 </wgt>
<wgt id='1292'> +2.9695145E+03 </wgt>
<wgt id='1293'> +2.9721339E+03 </wgt>
<wgt id='1294'> +2.9061860E+03 </wgt>
<wgt id='1295'> +2.9676486E+03 </wgt>
<wgt id='1296'> +2.9101556E+03 </wgt>
<wgt id='1297'> +2.9323420E+03 </wgt>
<wgt id='1298'> +2.9412370E+03 </wgt>
<wgt id='1299'> +3.0041861E+03 </wgt>
<wgt id='1300'> +2.8768980E+03 </wgt>
<wgt id='1301'> +2.9406878E+03 </wgt>
<wgt id='1302'> +2.9397134E+03 </wgt>
<wgt id='1303'> +2.9494108E+03 </wgt>
<wgt id='1304'> +2.9348600E+03 </wgt>
<wgt id='1305'> +2.9451001E+03 </wgt>
<wgt id='1306'> +2.8923967E+03 </wgt>
<wgt id='1307'> +2.9616100E+03 </wgt>
<wgt id='1308'> +2.9047192E+03 </wgt>
<wgt id='1309'> +2.9386911E+03 </wgt>
<wgt id='1310'> +2.9566527E+03 </wgt>
<wgt id='1311'> +2.9371894E+03 </wgt>
<wgt id='1312'> +2.9951636E+03 </wgt>
<wgt id='1313'> +2.9269364E+03 </wgt>
<wgt id='1314'> +2.9320116E+03 </wgt>
<wgt id='1315'> +2.9298136E+03 </wgt>
<wgt id='1316'> +2.9927634E+03 </wgt>
<wgt id='1317'> +2.7413494E+03 </wgt>
<wgt id='1318'> +3.1460029E+03 </wgt>
<wgt id='1319'> +2.8895568E+03 </wgt>
<wgt id='1320'> +2.9459101E+03 </wgt>
<wgt id='1321'> +2.8977454E+03 </wgt>
<wgt id='1322'> +2.8491256E+03 </wgt>
<wgt id='1323'> +2.8658106E+03 </wgt>
<wgt id='1324'> +2.8978772E+03 </wgt>
<wgt id='1325'> +2.8933972E+03 </wgt>
<wgt id='1326'> +2.8995937E+03 </wgt>
<wgt id='1327'> +2.8544047E+03 </wgt>
<wgt id='1328'> +2.8952212E+03 </wgt>
<wgt id='1329'> +2.8590889E+03 </wgt>
<wgt id='1330'> +2.9163959E+03 </wgt>
<wgt id='1331'> +2.8753115E+03 </wgt>
<wgt id='1332'> +2.8728653E+03 </wgt>
<wgt id='1333'> +2.8907883E+03 </wgt>
<wgt id='1334'> +2.9427303E+03 </wgt>
<wgt id='1335'> +2.8280169E+03 </wgt>
<wgt id='1336'> +2.9060797E+03 </wgt>
<wgt id='1337'> +2.8692448E+03 </wgt>
<wgt id='1338'> +2.9176850E+03 </wgt>
<wgt id='1339'> +2.8612537E+03 </wgt>
<wgt id='1340'> +2.8983704E+03 </wgt>
<wgt id='1341'> +2.8722869E+03 </wgt>
<wgt id='1342'> +2.8943030E+03 </wgt>
<wgt id='1343'> +2.8935877E+03 </wgt>
<wgt id='1344'> +2.9168234E+03 </wgt>
<wgt id='1345'> +2.8609202E+03 </wgt>
<wgt id='1346'> +2.8944896E+03 </wgt>
<wgt id='1347'> +2.8867479E+03 </wgt>
<wgt id='1348'> +2.8972319E+03 </wgt>
<wgt id='1349'> +2.8872283E+03 </wgt>
<wgt id='1350'> +2.9117609E+03 </wgt>
<wgt id='1351'> +2.8610108E+03 </wgt>
<wgt id='1352'> +2.8667218E+03 </wgt>
<wgt id='1353'> +2.9411773E+03 </wgt>
<wgt id='1354'> +2.9002768E+03 </wgt>
<wgt id='1355'> +2.8839611E+03 </wgt>
<wgt id='1356'> +2.8928219E+03 </wgt>
<wgt id='1357'> +2.8792914E+03 </wgt>
<wgt id='1358'> +2.8636363E+03 </wgt>
<wgt id='1359'> +2.9025091E+03 </wgt>
<wgt id='1360'> +2.9136573E+03 </wgt>
<wgt id='1361'> +2.8923993E+03 </wgt>
<wgt id='1362'> +2.8666699E+03 </wgt>
<wgt id='1363'> +2.9148008E+03 </wgt>
<wgt id='1364'> +2.8882101E+03 </wgt>
<wgt id='1365'> +2.8704208E+03 </wgt>
<wgt id='1366'> +2.8828997E+03 </wgt>
<wgt id='1367'> +2.8414345E+03 </wgt>
<wgt id='1368'> +2.8293235E+03 </wgt>
<wgt id='1369'> +2.8904218E+03 </wgt>
<wgt id='1370'> +2.8708882E+03 </wgt>
<wgt id='1371'> +2.8780162E+03 </wgt>
<wgt id='1372'> +2.8356079E+03 </wgt>
<wgt id='1373'> +2.9024049E+03 </wgt>
<wgt id='1374'> +2.8831581E+03 </wgt>
<wgt id='1375'> +2.9304384E+03 </wgt>
<wgt id='1376'> +2.7004609E+03 </wgt>
<wgt id='1377'> +3.0880882E+03 </wgt>
<wgt id='1378'> +2.5177711E+03 </wgt>
<wgt id='1379'> +2.8577113E+03 </wgt>
<wgt id='1380'> +2.8520724E+03 </wgt>
<wgt id='1381'> +2.8637608E+03 </wgt>
<wgt id='1382'> +2.8596394E+03 </wgt>
<wgt id='1383'> +2.8563461E+03 </wgt>
<wgt id='1384'> +2.8609098E+03 </wgt>
<wgt id='1385'> +2.8546866E+03 </wgt>
<wgt id='1386'> +2.8507419E+03 </wgt>
<wgt id='1387'> +2.8654502E+03 </wgt>
<wgt id='1388'> +2.8527930E+03 </wgt>
<wgt id='1389'> +2.8625418E+03 </wgt>
<wgt id='1390'> +2.8548367E+03 </wgt>
<wgt id='1391'> +2.8638979E+03 </wgt>
<wgt id='1392'> +2.8645557E+03 </wgt>
<wgt id='1393'> +2.8452447E+03 </wgt>
<wgt id='1394'> +2.8444289E+03 </wgt>
<wgt id='1395'> +2.8652079E+03 </wgt>
<wgt id='1396'> +2.8515496E+03 </wgt>
<wgt id='1397'> +2.8649028E+03 </wgt>
<wgt id='1398'> +2.8425124E+03 </wgt>
<wgt id='1399'> +2.8707825E+03 </wgt>
<wgt id='1400'> +2.8729905E+03 </wgt>
<wgt id='1401'> +2.8369851E+03 </wgt>
<wgt id='1402'> +2.8664027E+03 </wgt>
<wgt id='1403'> +2.8519784E+03 </wgt>
<wgt id='1404'> +2.8640112E+03 </wgt>
<wgt id='1405'> +2.8516543E+03 </wgt>
<wgt id='1406'> +2.8388635E+03 </wgt>
<wgt id='1407'> +2.8708129E+03 </wgt>
<wgt id='1408'> +2.8574111E+03 </wgt>
<wgt id='1409'> +2.8576667E+03 </wgt>
<wgt id='1410'> +2.8696001E+03 </wgt>
<wgt id='1411'> +2.8436144E+03 </wgt>
<wgt id='1412'> +2.8676045E+03 </wgt>
<wgt id='1413'> +2.8458540E+03 </wgt>
<wgt id='1414'> +2.8615530E+03 </wgt>
<wgt id='1415'> +2.8471226E+03 </wgt>
<wgt id='1416'> +2.8606408E+03 </wgt>
<wgt id='1417'> +2.8530367E+03 </wgt>
<wgt id='1418'> +2.8482765E+03 </wgt>
<wgt id='1419'> +2.8676214E+03 </wgt>
<wgt id='1420'> +2.8064304E+03 </wgt>
<wgt id='1421'> +2.9220091E+03 </wgt>
<wgt id='1422'> +2.8619066E+03 </wgt>
<wgt id='1423'> +2.8528095E+03 </wgt>
<wgt id='1424'> +2.8455783E+03 </wgt>
<wgt id='1425'> +2.8894051E+03 </wgt>
<wgt id='1426'> +2.8786691E+03 </wgt>
<wgt id='1427'> +2.8292325E+03 </wgt>
<wgt id='1428'> +2.8701091E+03 </wgt>
<wgt id='1429'> +2.8522573E+03 </wgt>
<wgt id='1430'> +2.9376366E+03 </wgt>
<wgt id='1431'> +2.9311435E+03 </wgt>
<wgt id='1432'> +2.9461064E+03 </wgt>
<wgt id='1433'> +2.9371272E+03 </wgt>
<wgt id='1434'> +2.9383126E+03 </wgt>
<wgt id='1435'> +2.9425833E+03 </wgt>
<wgt id='1436'> +2.9356953E+03 </wgt>
<wgt id='1437'> +2.9317984E+03 </wgt>
<wgt id='1438'> +2.9436926E+03 </wgt>
<wgt id='1439'> +2.9355533E+03 </wgt>
<wgt id='1440'> +2.9398199E+03 </wgt>
<wgt id='1441'> +2.9446977E+03 </wgt>
<wgt id='1442'> +2.9347788E+03 </wgt>
<wgt id='1443'> +2.9457851E+03 </wgt>
<wgt id='1444'> +2.9279296E+03 </wgt>
<wgt id='1445'> +2.9381968E+03 </wgt>
<wgt id='1446'> +2.9370668E+03 </wgt>
<wgt id='1447'> +2.9354453E+03 </wgt>
<wgt id='1448'> +2.9388586E+03 </wgt>
<wgt id='1449'> +2.9458302E+03 </wgt>
<wgt id='1450'> +2.9266525E+03 </wgt>
<wgt id='1451'> +2.9123837E+03 </wgt>
<wgt id='1452'> +2.9550842E+03 </wgt>
<wgt id='1453'> +2.9344026E+03 </wgt>
<wgt id='1454'> +2.9407704E+03 </wgt>
<wgt id='1455'> +2.9382113E+03 </wgt>
<wgt id='1456'> +2.9362182E+03 </wgt>
<wgt id='1457'> +2.9200912E+03 </wgt>
<wgt id='1458'> +2.9526205E+03 </wgt>
<wgt id='1459'> +2.9348991E+03 </wgt>
<wgt id='1460'> +2.9471085E+03 </wgt>
<wgt id='1461'> +2.9394453E+03 </wgt>
<wgt id='1462'> +2.9342438E+03 </wgt>
<wgt id='1463'> +2.9290512E+03 </wgt>
<wgt id='1464'> +2.9503669E+03 </wgt>
<wgt id='1465'> +2.9269589E+03 </wgt>
<wgt id='1466'> +2.9411487E+03 </wgt>
<wgt id='1467'> +2.9490761E+03 </wgt>
<wgt id='1468'> +2.9115308E+03 </wgt>
<wgt id='1469'> +2.9269554E+03 </wgt>
<wgt id='1470'> +2.9451286E+03 </wgt>
<wgt id='1471'> +2.9727663E+03 </wgt>
<wgt id='1472'> +2.8824695E+03 </wgt>
<wgt id='1473'> +2.9398415E+03 </wgt>
<wgt id='1474'> +2.9314068E+03 </wgt>
<wgt id='1475'> +2.9055564E+03 </wgt>
<wgt id='1476'> +2.9624247E+03 </wgt>
<wgt id='1477'> +2.9634640E+03 </wgt>
<wgt id='1478'> +2.9260221E+03 </wgt>
<wgt id='1479'> +2.9217825E+03 </wgt>
<wgt id='1480'> +2.9450349E+03 </wgt>
<wgt id='1481'> +4.0228482E+03 </wgt>
<wgt id='1482'> +2.8304094E+03 </wgt>
<wgt id='1483'> +2.8295385E+03 </wgt>
<wgt id='1484'> +2.8310997E+03 </wgt>
<wgt id='1485'> +2.8284445E+03 </wgt>
<wgt id='1486'> +2.8304451E+03 </wgt>
<wgt id='1487'> +2.8316044E+03 </wgt>
<wgt id='1488'> +2.8255827E+03 </wgt>
<wgt id='1489'> +2.8387290E+03 </wgt>
<wgt id='1490'> +2.8348104E+03 </wgt>
<wgt id='1491'> +2.8265956E+03 </wgt>
<wgt id='1492'> +2.8288847E+03 </wgt>
<wgt id='1493'> +2.8335927E+03 </wgt>
<wgt id='1494'> +2.8288519E+03 </wgt>
<wgt id='1495'> +2.8256039E+03 </wgt>
<wgt id='1496'> +2.8352469E+03 </wgt>
<wgt id='1497'> +2.8235468E+03 </wgt>
<wgt id='1498'> +2.8254161E+03 </wgt>
<wgt id='1499'> +2.8250106E+03 </wgt>
<wgt id='1500'> +2.8335403E+03 </wgt>
<wgt id='1501'> +2.8339488E+03 </wgt>
<wgt id='1502'> +2.8298308E+03 </wgt>
<wgt id='1503'> +2.8212789E+03 </wgt>
<wgt id='1504'> +2.8293165E+03 </wgt>
<wgt id='1505'> +2.8516301E+03 </wgt>
<wgt id='1506'> +2.8345251E+03 </wgt>
<wgt id='1507'> +2.8265868E+03 </wgt>
<wgt id='1508'> +2.8328712E+03 </wgt>
<wgt id='1509'> +2.8470463E+03 </wgt>
<wgt id='1510'> +2.8025632E+03 </wgt>
<wgt id='1511'> +2.8111512E+03 </wgt>
<wgt id='1512'> +2.8977025E+03 </wgt>
<wgt id='1513'> +2.8823228E+03 </wgt>
<wgt id='1514'> +2.8984346E+03 </wgt>
<wgt id='1515'> +2.9061767E+03 </wgt>
<wgt id='1516'> +2.8905860E+03 </wgt>
<wgt id='1517'> +2.8981081E+03 </wgt>
<wgt id='1518'> +2.8927485E+03 </wgt>
<wgt id='1519'> +2.8843067E+03 </wgt>
<wgt id='1520'> +2.8757138E+03 </wgt>
<wgt id='1521'> +2.9138418E+03 </wgt>
<wgt id='1522'> +2.9024352E+03 </wgt>
<wgt id='1523'> +2.8803974E+03 </wgt>
<wgt id='1524'> +2.8907473E+03 </wgt>
<wgt id='1525'> +2.9026500E+03 </wgt>
<wgt id='1526'> +2.8678738E+03 </wgt>
<wgt id='1527'> +2.9075063E+03 </wgt>
<wgt id='1528'> +2.8758154E+03 </wgt>
<wgt id='1529'> +2.8908561E+03 </wgt>
<wgt id='1530'> +2.9157940E+03 </wgt>
<wgt id='1531'> +2.8767148E+03 </wgt>
<wgt id='1532'> +2.8887919E+03 </wgt>
<wgt id='1533'> +2.9005051E+03 </wgt>
<wgt id='1534'> +2.9033211E+03 </wgt>
<wgt id='1535'> +2.9154064E+03 </wgt>
<wgt id='1536'> +2.8915863E+03 </wgt>
<wgt id='1537'> +2.9039753E+03 </wgt>
<wgt id='1538'> +2.8867992E+03 </wgt>
<wgt id='1539'> +2.8973771E+03 </wgt>
<wgt id='1540'> +2.8994002E+03 </wgt>
<wgt id='1541'> +2.8870606E+03 </wgt>
<wgt id='1542'> +2.8889166E+03 </wgt>
<wgt id='1543'> +2.8944640E+03 </wgt>
<wgt id='1544'> +2.9092696E+03 </wgt>
<wgt id='1545'> +2.8888240E+03 </wgt>
<wgt id='1546'> +2.8892997E+03 </wgt>
<wgt id='1547'> +2.9046369E+03 </wgt>
<wgt id='1548'> +2.8947142E+03 </wgt>
<wgt id='1549'> +2.9000099E+03 </wgt>
<wgt id='1550'> +2.8878444E+03 </wgt>
<wgt id='1551'> +2.8886964E+03 </wgt>
<wgt id='1552'> +2.9037553E+03 </wgt>
<wgt id='1553'> +2.8901111E+03 </wgt>
<wgt id='1554'> +2.9090134E+03 </wgt>
<wgt id='1555'> +2.8958376E+03 </wgt>
<wgt id='1556'> +2.9032947E+03 </wgt>
<wgt id='1557'> +2.9020420E+03 </wgt>
<wgt id='1558'> +2.8953984E+03 </wgt>
<wgt id='1559'> +2.9061110E+03 </wgt>
<wgt id='1560'> +2.8962922E+03 </wgt>
<wgt id='1561'> +2.9003416E+03 </wgt>
<wgt id='1562'> +2.9012828E+03 </wgt>
<wgt id='1563'> +2.8909837E+03 </wgt>
<wgt id='1564'> +2.8954045E+03 </wgt>
<wgt id='1565'> +2.8945818E+03 </wgt>
<wgt id='1566'> +2.8897168E+03 </wgt>
<wgt id='1567'> +2.8971539E+03 </wgt>
<wgt id='1568'> +2.8953651E+03 </wgt>
<wgt id='1569'> +2.8936600E+03 </wgt>
<wgt id='1570'> +2.9042791E+03 </wgt>
<wgt id='1571'> +2.9003015E+03 </wgt>
<wgt id='1572'> +2.8923370E+03 </wgt>
<wgt id='1573'> +2.8992068E+03 </wgt>
<wgt id='1574'> +2.8971474E+03 </wgt>
<wgt id='1575'> +2.9008419E+03 </wgt>
<wgt id='1576'> +2.8982672E+03 </wgt>
<wgt id='1577'> +2.9003248E+03 </wgt>
<wgt id='1578'> +2.8964086E+03 </wgt>
<wgt id='1579'> +2.8987855E+03 </wgt>
<wgt id='1580'> +2.8981399E+03 </wgt>
<wgt id='1581'> +2.8991572E+03 </wgt>
<wgt id='1582'> +2.8960042E+03 </wgt>
<wgt id='1583'> +2.8969513E+03 </wgt>
<wgt id='1584'> +2.8971996E+03 </wgt>
<wgt id='1585'> +2.8946572E+03 </wgt>
<wgt id='1586'> +2.8942691E+03 </wgt>
<wgt id='1587'> +2.8980626E+03 </wgt>
<wgt id='1588'> +2.8998205E+03 </wgt>
<wgt id='1589'> +2.8964704E+03 </wgt>
<wgt id='1590'> +2.8976203E+03 </wgt>
<wgt id='1591'> +2.9001129E+03 </wgt>
<wgt id='1592'> +2.8973246E+03 </wgt>
<wgt id='1593'> +2.8985571E+03 </wgt>
<wgt id='1594'> +2.8957972E+03 </wgt>
<wgt id='1595'> +2.8994778E+03 </wgt>
<wgt id='1596'> +2.8996631E+03 </wgt>
<wgt id='1597'> +2.8958944E+03 </wgt>
<wgt id='1598'> +2.8993264E+03 </wgt>
<wgt id='1599'> +2.8963833E+03 </wgt>
<wgt id='1600'> +2.8980836E+03 </wgt>
<wgt id='1601'> +2.8988557E+03 </wgt>
<wgt id='1602'> +2.8976743E+03 </wgt>
<wgt id='1603'> +2.8968643E+03 </wgt>
<wgt id='1604'> +2.8976235E+03 </wgt>
<wgt id='1605'> +2.8964326E+03 </wgt>
<wgt id='1606'> +2.8978618E+03 </wgt>
<wgt id='1607'> +2.8972886E+03 </wgt>
<wgt id='1608'> +2.8975282E+03 </wgt>
<wgt id='1609'> +2.8984962E+03 </wgt>
<wgt id='1610'> +2.8983371E+03 </wgt>
<wgt id='1611'> +2.8983434E+03 </wgt>
<wgt id='1612'> +2.8970916E+03 </wgt>
<wgt id='1613'> +2.7646013E+03 </wgt>
<wgt id='1614'> +3.0316966E+03 </wgt>
<wgt id='1615'> +2.9363637E+03 </wgt>
<wgt id='1616'> +2.9399776E+03 </wgt>
<wgt id='1617'> +2.9350363E+03 </wgt>
<wgt id='1618'> +2.9327431E+03 </wgt>
<wgt id='1619'> +2.9426241E+03 </wgt>
<wgt id='1620'> +2.9557624E+03 </wgt>
<wgt id='1621'> +2.9396576E+03 </wgt>
<wgt id='1622'> +2.9213117E+03 </wgt>
<wgt id='1623'> +2.9299148E+03 </wgt>
<wgt id='1624'> +2.9321586E+03 </wgt>
<wgt id='1625'> +2.9322622E+03 </wgt>
<wgt id='1626'> +2.9515556E+03 </wgt>
<wgt id='1627'> +2.9533525E+03 </wgt>
<wgt id='1628'> +2.9371419E+03 </wgt>
<wgt id='1629'> +2.9318871E+03 </wgt>
<wgt id='1630'> +2.9501067E+03 </wgt>
<wgt id='1631'> +2.9484695E+03 </wgt>
<wgt id='1632'> +2.9216150E+03 </wgt>
<wgt id='1633'> +2.9435596E+03 </wgt>
<wgt id='1634'> +2.9211058E+03 </wgt>
<wgt id='1635'> +2.9493074E+03 </wgt>
<wgt id='1636'> +2.9400239E+03 </wgt>
<wgt id='1637'> +2.9159492E+03 </wgt>
<wgt id='1638'> +2.9258665E+03 </wgt>
<wgt id='1639'> +2.9425355E+03 </wgt>
<wgt id='1640'> +2.9306484E+03 </wgt>
<wgt id='1641'> +2.9250857E+03 </wgt>
<wgt id='1642'> +2.9444883E+03 </wgt>
<wgt id='1643'> +2.9338086E+03 </wgt>
<wgt id='1644'> +2.9240878E+03 </wgt>
<wgt id='1645'> +2.9401882E+03 </wgt>
<wgt id='1646'> +2.9346021E+03 </wgt>
<wgt id='1647'> +2.9494829E+03 </wgt>
<wgt id='1648'> +2.9447288E+03 </wgt>
<wgt id='1649'> +2.9354403E+03 </wgt>
<wgt id='1650'> +2.9451318E+03 </wgt>
<wgt id='1651'> +2.9223064E+03 </wgt>
<wgt id='1652'> +2.9499251E+03 </wgt>
<wgt id='1653'> +2.9451192E+03 </wgt>
<wgt id='1654'> +2.9273763E+03 </wgt>
<wgt id='1655'> +2.9345786E+03 </wgt>
<wgt id='1656'> +2.9236549E+03 </wgt>
<wgt id='1657'> +2.9329413E+03 </wgt>
<wgt id='1658'> +2.9396951E+03 </wgt>
<wgt id='1659'> +2.9454176E+03 </wgt>
<wgt id='1660'> +2.9350212E+03 </wgt>
<wgt id='1661'> +2.9390035E+03 </wgt>
<wgt id='1662'> +2.9306962E+03 </wgt>
<wgt id='1663'> +2.9329941E+03 </wgt>
<wgt id='1664'> +2.9341335E+03 </wgt>
<wgt id='1665'> +2.9367565E+03 </wgt>
<wgt id='1666'> +2.9372845E+03 </wgt>
<wgt id='1667'> +2.9375964E+03 </wgt>
<wgt id='1668'> +2.9316895E+03 </wgt>
<wgt id='1669'> +2.9362135E+03 </wgt>
<wgt id='1670'> +2.9299830E+03 </wgt>
<wgt id='1671'> +2.9451886E+03 </wgt>
<wgt id='1672'> +2.9377339E+03 </wgt>
<wgt id='1673'> +2.9342421E+03 </wgt>
<wgt id='1674'> +2.9373606E+03 </wgt>
<wgt id='1675'> +2.9340527E+03 </wgt>
<wgt id='1676'> +2.9402404E+03 </wgt>
<wgt id='1677'> +2.9372580E+03 </wgt>
<wgt id='1678'> +2.9376765E+03 </wgt>
<wgt id='1679'> +2.9353085E+03 </wgt>
<wgt id='1680'> +2.9324273E+03 </wgt>
<wgt id='1681'> +2.9361935E+03 </wgt>
<wgt id='1682'> +2.9377804E+03 </wgt>
<wgt id='1683'> +2.9386495E+03 </wgt>
<wgt id='1684'> +2.9359886E+03 </wgt>
<wgt id='1685'> +2.9351277E+03 </wgt>
<wgt id='1686'> +2.9400352E+03 </wgt>
<wgt id='1687'> +2.9343157E+03 </wgt>
<wgt id='1688'> +2.9355342E+03 </wgt>
<wgt id='1689'> +2.9365456E+03 </wgt>
<wgt id='1690'> +2.9377720E+03 </wgt>
<wgt id='1691'> +2.9371197E+03 </wgt>
<wgt id='1692'> +2.9360758E+03 </wgt>
<wgt id='1693'> +2.9374522E+03 </wgt>
<wgt id='1694'> +2.9360107E+03 </wgt>
<wgt id='1695'> +2.9393266E+03 </wgt>
<wgt id='1696'> +2.9340555E+03 </wgt>
<wgt id='1697'> +2.9374890E+03 </wgt>
<wgt id='1698'> +2.9341161E+03 </wgt>
<wgt id='1699'> +2.9347529E+03 </wgt>
<wgt id='1700'> +2.9353301E+03 </wgt>
<wgt id='1701'> +2.9373399E+03 </wgt>
<wgt id='1702'> +2.9331001E+03 </wgt>
<wgt id='1703'> +2.9355352E+03 </wgt>
<wgt id='1704'> +2.9346099E+03 </wgt>
<wgt id='1705'> +2.9379913E+03 </wgt>
<wgt id='1706'> +2.9350103E+03 </wgt>
<wgt id='1707'> +2.9351155E+03 </wgt>
<wgt id='1708'> +2.9367993E+03 </wgt>
<wgt id='1709'> +2.9360858E+03 </wgt>
<wgt id='1710'> +2.9369286E+03 </wgt>
<wgt id='1711'> +2.9366748E+03 </wgt>
<wgt id='1712'> +2.9367768E+03 </wgt>
<wgt id='1713'> +2.9359062E+03 </wgt>
<wgt id='1714'> +2.9363833E+03 </wgt>
<wgt id='1715'> +2.9368238E+03 </wgt>
<wgt id='1716'> +2.7998445E+03 </wgt>
<wgt id='1717'> +3.0769973E+03 </wgt>
<wgt id='1718'> +2.9012851E+03 </wgt>
<wgt id='1719'> +2.8975332E+03 </wgt>
<wgt id='1720'> +2.8451455E+03 </wgt>
<wgt id='1721'> +2.8979383E+03 </wgt>
<wgt id='1722'> +2.8855708E+03 </wgt>
<wgt id='1723'> +2.9022002E+03 </wgt>
<wgt id='1724'> +2.9100218E+03 </wgt>
<wgt id='1725'> +2.9003185E+03 </wgt>
<wgt id='1726'> +2.9087150E+03 </wgt>
<wgt id='1727'> +2.8969581E+03 </wgt>
<wgt id='1728'> +2.9101888E+03 </wgt>
<wgt id='1729'> +2.8914196E+03 </wgt>
<wgt id='1730'> +2.9090172E+03 </wgt>
<wgt id='1731'> +2.9027738E+03 </wgt>
<wgt id='1732'> +2.8881881E+03 </wgt>
<wgt id='1733'> +2.9046433E+03 </wgt>
<wgt id='1734'> +2.8993623E+03 </wgt>
<wgt id='1735'> +2.9132630E+03 </wgt>
<wgt id='1736'> +2.9002117E+03 </wgt>
<wgt id='1737'> +2.9016059E+03 </wgt>
<wgt id='1738'> +2.9007282E+03 </wgt>
<wgt id='1739'> +2.8996631E+03 </wgt>
<wgt id='1740'> +2.8939606E+03 </wgt>
<wgt id='1741'> +2.9056502E+03 </wgt>
<wgt id='1742'> +2.8956512E+03 </wgt>
<wgt id='1743'> +2.9029231E+03 </wgt>
<wgt id='1744'> +2.8797399E+03 </wgt>
<wgt id='1745'> +2.9104915E+03 </wgt>
<wgt id='1746'> +2.9254838E+03 </wgt>
<wgt id='1747'> +2.9037802E+03 </wgt>
<wgt id='1748'> +2.9002396E+03 </wgt>
<wgt id='1749'> +2.7646013E+03 </wgt>
<wgt id='1750'> +3.0316966E+03 </wgt>
<wgt id='1751'> +2.9367323E+03 </wgt>
<wgt id='1752'> +2.9115830E+03 </wgt>
<wgt id='1753'> +2.9626098E+03 </wgt>
<wgt id='1754'> +2.9338980E+03 </wgt>
<wgt id='1755'> +2.9279647E+03 </wgt>
<wgt id='1756'> +2.9288886E+03 </wgt>
<wgt id='1757'> +2.9397362E+03 </wgt>
<wgt id='1758'> +2.9368352E+03 </wgt>
<wgt id='1759'> +2.9417774E+03 </wgt>
<wgt id='1760'> +2.9216142E+03 </wgt>
<wgt id='1761'> +2.9195443E+03 </wgt>
<wgt id='1762'> +2.9482985E+03 </wgt>
<wgt id='1763'> +2.9356227E+03 </wgt>
<wgt id='1764'> +2.9316801E+03 </wgt>
<wgt id='1765'> +2.9307257E+03 </wgt>
<wgt id='1766'> +2.9228620E+03 </wgt>
<wgt id='1767'> +2.9357488E+03 </wgt>
<wgt id='1768'> +2.9325627E+03 </wgt>
<wgt id='1769'> +2.9381528E+03 </wgt>
<wgt id='1770'> +2.9466559E+03 </wgt>
<wgt id='1771'> +2.9310142E+03 </wgt>
<wgt id='1772'> +2.9034969E+03 </wgt>
<wgt id='1773'> +2.9499036E+03 </wgt>
<wgt id='1774'> +2.9366832E+03 </wgt>
<wgt id='1775'> +2.9341127E+03 </wgt>
<wgt id='1776'> +2.9358692E+03 </wgt>
<wgt id='1777'> +2.9384747E+03 </wgt>
<wgt id='1778'> +2.9371784E+03 </wgt>
<wgt id='1779'> +2.9328370E+03 </wgt>
<wgt id='1780'> +2.9369249E+03 </wgt>
<wgt id='1781'> +2.9351307E+03 </wgt>
<wgt id='1782'> +2.7998445E+03 </wgt>
<wgt id='1783'> +3.0769973E+03 </wgt>
<wgt id='1784'> +2.7377765E+03 </wgt>
<wgt id='1785'> +2.7376695E+03 </wgt>
<wgt id='1786'> +2.7378800E+03 </wgt>
<wgt id='1787'> +2.7355385E+03 </wgt>
<wgt id='1788'> +2.7400076E+03 </wgt>
<wgt id='1789'> +2.7414679E+03 </wgt>
<wgt id='1790'> +2.7340963E+03 </wgt>
<wgt id='1791'> +2.7410139E+03 </wgt>
<wgt id='1792'> +2.7345709E+03 </wgt>
<wgt id='1793'> +2.7285179E+03 </wgt>
<wgt id='1794'> +2.7459386E+03 </wgt>
<wgt id='1795'> +2.7325873E+03 </wgt>
<wgt id='1796'> +2.7441616E+03 </wgt>
<wgt id='1797'> +2.7358518E+03 </wgt>
<wgt id='1798'> +2.7397517E+03 </wgt>
<wgt id='1799'> +2.7538405E+03 </wgt>
<wgt id='1800'> +2.7181305E+03 </wgt>
<wgt id='1801'> +2.7572830E+03 </wgt>
<wgt id='1802'> +2.7218569E+03 </wgt>
<wgt id='1803'> +2.7001423E+03 </wgt>
<wgt id='1804'> +2.7711549E+03 </wgt>
<wgt id='1805'> +2.6972118E+03 </wgt>
<wgt id='1806'> +2.7774808E+03 </wgt>
<wgt id='1807'> +2.7124967E+03 </wgt>
<wgt id='1808'> +2.7566394E+03 </wgt>
<wgt id='1809'> +2.7494091E+03 </wgt>
<wgt id='1810'> +2.7261772E+03 </wgt>
<wgt id='1811'> +2.7648935E+03 </wgt>
<wgt id='1812'> +2.7125452E+03 </wgt>
<wgt id='1813'> +2.7377765E+03 </wgt>
<wgt id='1814'> +2.8183882E+03 </wgt>
<wgt id='1815'> +2.6507634E+03 </wgt>
<wgt id='1816'> +2.9752470E+03 </wgt>
<wgt id='1817'> +2.9237112E+03 </wgt>
<wgt id='1818'> +2.7527450E+03 </wgt>
<wgt id='1819'> +2.7456850E+03 </wgt>
<wgt id='1820'> +2.7387247E+03 </wgt>
<wgt id='1821'> +2.7372122E+03 </wgt>
<wgt id='1822'> +2.7457538E+03 </wgt>
<wgt id='1823'> +2.7291698E+03 </wgt>
<wgt id='1824'> +2.7217325E+03 </wgt>
<wgt id='1825'> +2.7407463E+03 </wgt>
<wgt id='1826'> +2.7321105E+03 </wgt>
<wgt id='1827'> +2.8590734E+03 </wgt>
<wgt id='1828'> +2.8578867E+03 </wgt>
<wgt id='1829'> +2.8587993E+03 </wgt>
<wgt id='1830'> +2.8549217E+03 </wgt>
<wgt id='1831'> +2.8617739E+03 </wgt>
<wgt id='1832'> +2.8605441E+03 </wgt>
<wgt id='1833'> +2.8561466E+03 </wgt>
<wgt id='1834'> +2.8626163E+03 </wgt>
<wgt id='1835'> +2.8541901E+03 </wgt>
<wgt id='1836'> +2.8520794E+03 </wgt>
<wgt id='1837'> +2.8648007E+03 </wgt>
<wgt id='1838'> +2.8604789E+03 </wgt>
<wgt id='1839'> +2.8552233E+03 </wgt>
<wgt id='1840'> +2.8565435E+03 </wgt>
<wgt id='1841'> +2.8598714E+03 </wgt>
<wgt id='1842'> +2.8562487E+03 </wgt>
<wgt id='1843'> +2.8546297E+03 </wgt>
<wgt id='1844'> +2.8461020E+03 </wgt>
<wgt id='1845'> +2.8704435E+03 </wgt>
<wgt id='1846'> +2.8197832E+03 </wgt>
<wgt id='1847'> +2.8948407E+03 </wgt>
<wgt id='1848'> +2.8764413E+03 </wgt>
<wgt id='1849'> +2.8400111E+03 </wgt>
<wgt id='1850'> +2.8743504E+03 </wgt>
<wgt id='1851'> +2.8440076E+03 </wgt>
<wgt id='1852'> +2.8632904E+03 </wgt>
<wgt id='1853'> +2.8561909E+03 </wgt>
<wgt id='1854'> +2.8664922E+03 </wgt>
<wgt id='1855'> +2.8528571E+03 </wgt>
<wgt id='1856'> +2.8515992E+03 </wgt>
<wgt id='1857'> +2.9305701E+03 </wgt>
<wgt id='1858'> +2.7369367E+03 </wgt>
<wgt id='1859'> +3.0668409E+03 </wgt>
<wgt id='1860'> +2.9977373E+03 </wgt>
<wgt id='1861'> +2.9157795E+03 </wgt>
<wgt id='1862'> +2.8058630E+03 </wgt>
<wgt id='1863'> +2.8505644E+03 </wgt>
<wgt id='1864'> +2.8484798E+03 </wgt>
<wgt id='1865'> +2.8443257E+03 </wgt>
<wgt id='1866'> +2.8854548E+03 </wgt>
<wgt id='1867'> +2.8366320E+03 </wgt>
<wgt id='1868'> +2.8412645E+03 </wgt>
<wgt id='1869'> +2.7987265E+03 </wgt>
<wgt id='1870'> +2.8780161E+03 </wgt>
<wgt id='1871'> +2.8773112E+03 </wgt>
<wgt id='1872'> +2.8766133E+03 </wgt>
<wgt id='1873'> +2.8759117E+03 </wgt>
<wgt id='1874'> +2.8752147E+03 </wgt>
<wgt id='1875'> +2.8745150E+03 </wgt>
<wgt id='1876'> +2.8738134E+03 </wgt>
<wgt id='1877'> +2.8731123E+03 </wgt>
<wgt id='1878'> +2.8724183E+03 </wgt>
<wgt id='1879'> +2.8717192E+03 </wgt>
<wgt id='1880'> +2.8710163E+03 </wgt>
<wgt id='1881'> +2.8703149E+03 </wgt>
<wgt id='1882'> +2.8696207E+03 </wgt>
<wgt id='1883'> +2.8689201E+03 </wgt>
<wgt id='1884'> +2.8682195E+03 </wgt>
<wgt id='1885'> +2.8675214E+03 </wgt>
<wgt id='1886'> +2.8668249E+03 </wgt>
<wgt id='1887'> +2.8661222E+03 </wgt>
<wgt id='1888'> +2.8654221E+03 </wgt>
<wgt id='1889'> +2.8647226E+03 </wgt>
<wgt id='1890'> +2.8640297E+03 </wgt>
<wgt id='1891'> +2.8633279E+03 </wgt>
<wgt id='1892'> +2.8626274E+03 </wgt>
<wgt id='1893'> +2.8619281E+03 </wgt>
<wgt id='1894'> +2.8612331E+03 </wgt>
<wgt id='1895'> +2.8605348E+03 </wgt>
<wgt id='1896'> +2.8598347E+03 </wgt>
<wgt id='1897'> +2.8591326E+03 </wgt>
<wgt id='1898'> +2.8584374E+03 </wgt>
<wgt id='1899'> +2.8577410E+03 </wgt>
<wgt id='1900'> +2.8570396E+03 </wgt>
<wgt id='1901'> +2.9155807E+03 </wgt>
<wgt id='1902'> +2.9189120E+03 </wgt>
<wgt id='1903'> +2.9139744E+03 </wgt>
<wgt id='1904'> +2.9122470E+03 </wgt>
<wgt id='1905'> +2.9218118E+03 </wgt>
<wgt id='1906'> +2.9349786E+03 </wgt>
<wgt id='1907'> +2.9191686E+03 </wgt>
<wgt id='1908'> +2.9007092E+03 </wgt>
<wgt id='1909'> +2.9091348E+03 </wgt>
<wgt id='1910'> +2.9115209E+03 </wgt>
<wgt id='1911'> +2.9116024E+03 </wgt>
<wgt id='1912'> +2.9310014E+03 </wgt>
<wgt id='1913'> +2.9325955E+03 </wgt>
<wgt id='1914'> +2.9166121E+03 </wgt>
<wgt id='1915'> +2.9108220E+03 </wgt>
<wgt id='1916'> +2.9284576E+03 </wgt>
<wgt id='1917'> +2.9279476E+03 </wgt>
<wgt id='1918'> +2.9009043E+03 </wgt>
<wgt id='1919'> +2.9226470E+03 </wgt>
<wgt id='1920'> +2.9006250E+03 </wgt>
<wgt id='1921'> +2.9287846E+03 </wgt>
<wgt id='1922'> +2.9188402E+03 </wgt>
<wgt id='1923'> +2.8952860E+03 </wgt>
<wgt id='1924'> +2.9051988E+03 </wgt>
<wgt id='1925'> +2.9215644E+03 </wgt>
<wgt id='1926'> +2.9096061E+03 </wgt>
<wgt id='1927'> +2.9040563E+03 </wgt>
<wgt id='1928'> +2.9239430E+03 </wgt>
<wgt id='1929'> +2.9131600E+03 </wgt>
<wgt id='1930'> +2.9032769E+03 </wgt>
<wgt id='1931'> +2.9192630E+03 </wgt>
<wgt id='1932'> +2.9141984E+03 </wgt>
<wgt id='1933'> +2.9285881E+03 </wgt>
<wgt id='1934'> +2.9238520E+03 </wgt>
<wgt id='1935'> +2.9146044E+03 </wgt>
<wgt id='1936'> +2.9242481E+03 </wgt>
<wgt id='1937'> +2.9015837E+03 </wgt>
<wgt id='1938'> +2.9290955E+03 </wgt>
<wgt id='1939'> +2.9242031E+03 </wgt>
<wgt id='1940'> +2.9064747E+03 </wgt>
<wgt id='1941'> +2.9137646E+03 </wgt>
<wgt id='1942'> +2.9028089E+03 </wgt>
<wgt id='1943'> +2.9120645E+03 </wgt>
<wgt id='1944'> +2.9191229E+03 </wgt>
<wgt id='1945'> +2.9245512E+03 </wgt>
<wgt id='1946'> +2.9141763E+03 </wgt>
<wgt id='1947'> +2.9182815E+03 </wgt>
<wgt id='1948'> +2.9098618E+03 </wgt>
<wgt id='1949'> +2.9123113E+03 </wgt>
<wgt id='1950'> +2.9133413E+03 </wgt>
<wgt id='1951'> +2.9160231E+03 </wgt>
<wgt id='1952'> +2.9164580E+03 </wgt>
<wgt id='1953'> +2.9167563E+03 </wgt>
<wgt id='1954'> +2.9110622E+03 </wgt>
<wgt id='1955'> +2.9154930E+03 </wgt>
<wgt id='1956'> +2.9092922E+03 </wgt>
<wgt id='1957'> +2.9242334E+03 </wgt>
<wgt id='1958'> +2.9169243E+03 </wgt>
<wgt id='1959'> +2.9136259E+03 </wgt>
<wgt id='1960'> +2.9165616E+03 </wgt>
<wgt id='1961'> +2.9133532E+03 </wgt>
<wgt id='1962'> +2.9194056E+03 </wgt>
<wgt id='1963'> +2.9164833E+03 </wgt>
<wgt id='1964'> +2.9168720E+03 </wgt>
<wgt id='1965'> +2.9146002E+03 </wgt>
<wgt id='1966'> +2.9117269E+03 </wgt>
<wgt id='1967'> +2.9154739E+03 </wgt>
<wgt id='1968'> +2.9169478E+03 </wgt>
<wgt id='1969'> +2.9178694E+03 </wgt>
<wgt id='1970'> +2.9151537E+03 </wgt>
<wgt id='1971'> +2.9143706E+03 </wgt>
<wgt id='1972'> +2.9192852E+03 </wgt>
<wgt id='1973'> +2.9135567E+03 </wgt>
<wgt id='1974'> +2.9147125E+03 </wgt>
<wgt id='1975'> +2.9158319E+03 </wgt>
<wgt id='1976'> +2.9169899E+03 </wgt>
<wgt id='1977'> +2.9164442E+03 </wgt>
<wgt id='1978'> +2.9152818E+03 </wgt>
<wgt id='1979'> +2.9167477E+03 </wgt>
<wgt id='1980'> +2.9152207E+03 </wgt>
<wgt id='1981'> +2.9184032E+03 </wgt>
<wgt id='1982'> +2.9133808E+03 </wgt>
<wgt id='1983'> +2.9167490E+03 </wgt>
<wgt id='1984'> +2.9133361E+03 </wgt>
<wgt id='1985'> +2.9139653E+03 </wgt>
<wgt id='1986'> +2.9145618E+03 </wgt>
<wgt id='1987'> +2.9165928E+03 </wgt>
<wgt id='1988'> +2.9123437E+03 </wgt>
<wgt id='1989'> +2.9146960E+03 </wgt>
<wgt id='1990'> +2.9137758E+03 </wgt>
<wgt id='1991'> +2.9171403E+03 </wgt>
<wgt id='1992'> +2.9142131E+03 </wgt>
<wgt id='1993'> +2.9143515E+03 </wgt>
<wgt id='1994'> +2.9160106E+03 </wgt>
<wgt id='1995'> +2.9152394E+03 </wgt>
<wgt id='1996'> +2.9161604E+03 </wgt>
<wgt id='1997'> +2.9158611E+03 </wgt>
<wgt id='1998'> +2.9159830E+03 </wgt>
<wgt id='1999'> +2.9151020E+03 </wgt>
<wgt id='2000'> +2.9156238E+03 </wgt>
<wgt id='2001'> +2.9160703E+03 </wgt>
<wgt id='2002'> +2.9155620E+03 </wgt>
<wgt id='2003'> +2.9154581E+03 </wgt>
<wgt id='2004'> +2.9156001E+03 </wgt>
<wgt id='2005'> +2.9156032E+03 </wgt>
<wgt id='2006'> +2.9156374E+03 </wgt>
<wgt id='2007'> +2.9155888E+03 </wgt>
<wgt id='2008'> +2.9154987E+03 </wgt>
<wgt id='2009'> +2.9455338E+03 </wgt>
<wgt id='2010'> +2.9890820E+03 </wgt>
<wgt id='2011'> +2.9602599E+03 </wgt>
<wgt id='2012'> +2.9716201E+03 </wgt>
<wgt id='2013'> +2.9791797E+03 </wgt>
<wgt id='2014'> +2.8756198E+03 </wgt>
<wgt id='2015'> +2.9976081E+03 </wgt>
<wgt id='2016'> +3.0253540E+03 </wgt>
<wgt id='2017'> +2.9265856E+03 </wgt>
<wgt id='2018'> +2.9677665E+03 </wgt>
<wgt id='2019'> +2.9545941E+03 </wgt>
<wgt id='2020'> +2.9271904E+03 </wgt>
<wgt id='2021'> +2.9408061E+03 </wgt>
<wgt id='2022'> +3.0153196E+03 </wgt>
<wgt id='2023'> +2.9155194E+03 </wgt>
<wgt id='2024'> +2.9992449E+03 </wgt>
<wgt id='2025'> +2.8654234E+03 </wgt>
<wgt id='2026'> +2.8992644E+03 </wgt>
<wgt id='2027'> +2.8246642E+03 </wgt>
<wgt id='2028'> +3.0206047E+03 </wgt>
<wgt id='2029'> +2.9741706E+03 </wgt>
<wgt id='2030'> +3.0807016E+03 </wgt>
<wgt id='2031'> +2.9387192E+03 </wgt>
<wgt id='2032'> +3.0595536E+03 </wgt>
<wgt id='2033'> +2.9187495E+03 </wgt>
<wgt id='2034'> +2.8915152E+03 </wgt>
<wgt id='2035'> +2.9580380E+03 </wgt>
<wgt id='2036'> +2.8897604E+03 </wgt>
<wgt id='2037'> +2.9031160E+03 </wgt>
<wgt id='2038'> +2.9749251E+03 </wgt>
<wgt id='2039'> +2.9653797E+03 </wgt>
<wgt id='2040'> +2.8891265E+03 </wgt>
<wgt id='2041'> +2.9875981E+03 </wgt>
<wgt id='2042'> +2.9346990E+03 </wgt>
<wgt id='2043'> +2.9000533E+03 </wgt>
<wgt id='2044'> +2.9572633E+03 </wgt>
<wgt id='2045'> +2.8429970E+03 </wgt>
<wgt id='2046'> +2.9183900E+03 </wgt>
<wgt id='2047'> +2.9648865E+03 </wgt>
<wgt id='2048'> +2.9163221E+03 </wgt>
<wgt id='2049'> +2.9125915E+03 </wgt>
<wgt id='2050'> +3.0920575E+03 </wgt>
<wgt id='2051'> +2.9547119E+03 </wgt>
<wgt id='2052'> +2.9316014E+03 </wgt>
<wgt id='2053'> +2.9209474E+03 </wgt>
<wgt id='2054'> +2.9561357E+03 </wgt>
<wgt id='2055'> +2.9768858E+03 </wgt>
<wgt id='2056'> +2.9257046E+03 </wgt>
<wgt id='2057'> +2.9637729E+03 </wgt>
<wgt id='2058'> +2.8612940E+03 </wgt>
<wgt id='2059'> +2.9484928E+03 </wgt>
<wgt id='2060'> +2.9647952E+03 </wgt>
<wgt id='2061'> +2.9229746E+03 </wgt>
<wgt id='2062'> +2.9265666E+03 </wgt>
<wgt id='2063'> +3.0161903E+03 </wgt>
<wgt id='2064'> +2.9323330E+03 </wgt>
<wgt id='2065'> +2.8918669E+03 </wgt>
<wgt id='2066'> +2.9062734E+03 </wgt>
<wgt id='2067'> +2.9343185E+03 </wgt>
<wgt id='2068'> +2.9176617E+03 </wgt>
<wgt id='2069'> +2.9719910E+03 </wgt>
<wgt id='2070'> +2.9363051E+03 </wgt>
<wgt id='2071'> +2.9628511E+03 </wgt>
<wgt id='2072'> +2.8765936E+03 </wgt>
<wgt id='2073'> +2.7983378E+03 </wgt>
<wgt id='2074'> +2.9432557E+03 </wgt>
<wgt id='2075'> +2.8699844E+03 </wgt>
<wgt id='2076'> +3.2392978E+03 </wgt>
<wgt id='2077'> +2.9704910E+03 </wgt>
<wgt id='2078'> +2.8761236E+03 </wgt>
<wgt id='2079'> +2.8824117E+03 </wgt>
<wgt id='2080'> +2.9299000E+03 </wgt>
<wgt id='2081'> +2.9307369E+03 </wgt>
<wgt id='2082'> +2.9970176E+03 </wgt>
<wgt id='2083'> +2.9533989E+03 </wgt>
<wgt id='2084'> +2.9742489E+03 </wgt>
<wgt id='2085'> +2.8892392E+03 </wgt>
<wgt id='2086'> +2.9342696E+03 </wgt>
<wgt id='2087'> +3.0059975E+03 </wgt>
<wgt id='2088'> +2.9785566E+03 </wgt>
<wgt id='2089'> +2.9154365E+03 </wgt>
<wgt id='2090'> +2.9624318E+03 </wgt>
<wgt id='2091'> +2.9432237E+03 </wgt>
<wgt id='2092'> +2.9870970E+03 </wgt>
<wgt id='2093'> +2.9184407E+03 </wgt>
<wgt id='2094'> +2.9519477E+03 </wgt>
<wgt id='2095'> +2.9226882E+03 </wgt>
<wgt id='2096'> +2.9966995E+03 </wgt>
<wgt id='2097'> +3.0121479E+03 </wgt>
<wgt id='2098'> +2.9915080E+03 </wgt>
<wgt id='2099'> +2.9277769E+03 </wgt>
<wgt id='2100'> +2.9749511E+03 </wgt>
<wgt id='2101'> +2.9228612E+03 </wgt>
<wgt id='2102'> +2.9211547E+03 </wgt>
<wgt id='2103'> +2.9967128E+03 </wgt>
<wgt id='2104'> +2.8047814E+03 </wgt>
<wgt id='2105'> +2.9771610E+03 </wgt>
<wgt id='2106'> +2.9067211E+03 </wgt>
<wgt id='2107'> +2.9640480E+03 </wgt>
<wgt id='2108'> +2.9682742E+03 </wgt>
<wgt id='2109'> +2.8729140E+03 </wgt>
<wgt id='2110'> +2.8640758E+03 </wgt>
<wgt id='2111'> +3.0370156E+03 </wgt>
<wgt id='2112'> +2.9370148E+03 </wgt>
<wgt id='2113'> +2.7051922E+03 </wgt>
<wgt id='2114'> +3.8800572E+03 </wgt>
<wgt id='2115'> +2.7344956E+03 </wgt>
<wgt id='2116'> +3.8219328E+03 </wgt>
</rwgt>
</event>
<event>
 5      5 +2.9771057E+03 7.98994000e+01 7.54677100e-03 1.20408100e-01
        1 -1    0    0  501    0 +0.0000000000e+00 +0.0000000000e+00 +4.3046679340e+02 4.3046679340e+02 0.0000000000e+00 0.0000e+00 -1.0000e+00
       -2 -1    0    0    0  501 -0.0000000000e+00 -0.0000000000e+00 -3.7075529123e+00 3.7075529123e+00 0.0000000000e+00 0.0000e+00 1.0000e+00
      -24  2    1    2    0    0 +0.0000000000e+00 +0.0000000000e+00 +4.2675924049e+02 4.3417434631e+02 7.9899397082e+01 0.0000e+00 0.0000e+00
       15  1    3    3    0    0 +2.2794335937e+01 -2.2498929089e+01 +8.3907444379e+01 8.9829841991e+01 1.7770000000e+00 0.0000e+00 -1.0000e+00
      -16  1    3    3    0    0 -2.2794335937e+01 +2.2498929089e+01 +3.4285179611e+02 3.4434450432e+02 0.0000000000e+00 0.0000e+00 1.0000e+00
<scales pt_clust_4="13000.00000" pt_clust_5="13000.00000"></scales>
<mgrwt>
<rscale>  0 0.79899397E+02</rscale>
<asrwt>0</asrwt>
<pdfrwt beam="1">  1        1 0.66225621E-01 0.79899397E+02</pdfrwt>
<pdfrwt beam="2">  1       -2 0.57039310E-03 0.79899397E+02</pdfrwt>
<totfact> 0.20287122E+05</totfact>
</mgrwt>
<clustering>
<clus scale="   79.899">  4  5 -1 -1</clus>
<clus scale="   79.899">  1  4  2 -1</clus>
</clustering>
<rwgt>
<wgt id='1001'> +2.9771057E+03 </wgt>
<wgt id='1002'> +2.8688402E+03 </wgt>
<wgt id='1003'> +2.8691731E+03 </wgt>
<wgt id='1004'> +2.5104461E+03 </wgt>
<wgt id='1005'> +2.9771057E+03 </wgt>
<wgt id='1006'> +2.9771057E+03 </wgt>
<wgt id='1007'> +2.8688402E+03 </wgt>
<wgt id='1008'> +2.8691731E+03 </wgt>
<wgt id='1009'> +2.5104461E+03 </wgt>
<wgt id='1010'> +2.9771057E+03 </wgt>
<wgt id='1011'> +2.9771057E+03 </wgt>
<wgt id='1012'> +2.8688402E+03 </wgt>
<wgt id='1013'> +2.8691731E+03 </wgt>
<wgt id='1014'> +2.5104461E+03 </wgt>
<wgt id='1015'> +2.9771057E+03 </wgt>
<wgt id='1016'> +3.2974766E+03 </wgt>
<wgt id='1017'> +3.1984447E+03 </wgt>
<wgt id='1018'> +3.1987497E+03 </wgt>
<wgt id='1019'> +2.8691731E+03 </wgt>
<wgt id='1020'> +3.2974766E+03 </wgt>
<wgt id='1021'> +3.2974766E+03 </wgt>
<wgt id='1022'> +3.1984447E+03 </wgt>
<wgt id='1023'> +3.1987497E+03 </wgt>
<wgt id='1024'> +2.8691731E+03 </wgt>
<wgt id='1025'> +3.2974766E+03 </wgt>
<wgt id='1026'> +3.2974766E+03 </wgt>
<wgt id='1027'> +3.1984447E+03 </wgt>
<wgt id='1028'> +3.1987497E+03 </wgt>
<wgt id='1029'> +2.8691731E+03 </wgt>
<wgt id='1030'> +3.2974766E+03 </wgt>
<wgt id='1031'> +2.6276637E+03 </wgt>
<wgt id='1032'> +2.5100845E+03 </wgt>
<wgt id='1033'> +2.5104461E+03 </wgt>
<wgt id='1034'> +2.1221879E+03 </wgt>
<wgt id='1035'> +2.6276637E+03 </wgt>
<wgt id='1036'> +2.6276637E+03 </wgt>
<wgt id='1037'> +2.5100845E+03 </wgt>
<wgt id='1038'> +2.5104461E+03 </wgt>
<wgt id='1039'> +2.1221879E+03 </wgt>
<wgt id='1040'> +2.6276637E+03 </wgt>
<wgt id='1041'> +2.6276637E+03 </wgt>
<wgt id='1042'> +2.5100845E+03 </wgt>
<wgt id='1043'> +2.5104461E+03 </wgt>
<wgt id='1044'> +2.1221879E+03 </wgt>
<wgt id='1045'> +2.6276637E+03 </wgt>
<wgt id='1046'> +2.9771057E+03 </wgt>
<wgt id='1047'> +2.9768928E+03 </wgt>
<wgt id='1048'> +2.9740452E+03 </wgt>
<wgt id='1049'> +2.9710485E+03 </wgt>
<wgt id='1050'> +2.9908597E+03 </wgt>
<wgt id='1051'> +2.9796455E+03 </wgt>
<wgt id='1052'> +2.9746862E+03 </wgt>
<wgt id='1053'> +2.9782688E+03 </wgt>
<wgt id='1054'> +2.9718470E+03 </wgt>
<wgt id='1055'> +2.9878377E+03 </wgt>
<wgt id='1056'> +2.9689693E+03 </wgt>
<wgt id='1057'> +2.9656007E+03 </wgt>
<wgt id='1058'> +2.9818766E+03 </wgt>
<wgt id='1059'> +2.9735906E+03 </wgt>
<wgt id='1060'> +2.9831487E+03 </wgt>
<wgt id='1061'> +2.9785933E+03 </wgt>
<wgt id='1062'> +2.9830921E+03 </wgt>
<wgt id='1063'> +2.9698867E+03 </wgt>
<wgt id='1064'> +2.9747379E+03 </wgt>
<wgt id='1065'> +2.9800931E+03 </wgt>
<wgt id='1066'> +2.9766946E+03 </wgt>
<wgt id='1067'> +2.9914019E+03 </wgt>
<wgt id='1068'> +2.9829817E+03 </wgt>
<wgt id='1069'> +2.9665985E+03 </wgt>
<wgt id='1070'> +2.9917871E+03 </wgt>
<wgt id='1071'> +2.9797272E+03 </wgt>
<wgt id='1072'> +2.9583123E+03 </wgt>
<wgt id='1073'> +2.9841040E+03 </wgt>
<wgt id='1074'> +2.9852246E+03 </wgt>
<wgt id='1075'> +2.9420703E+03 </wgt>
<wgt id='1076'> +2.9840040E+03 </wgt>
<wgt id='1077'> +2.9759126E+03 </wgt>
<wgt id='1078'> +2.9715933E+03 </wgt>
<wgt id='1079'> +2.9684126E+03 </wgt>
<wgt id='1080'> +2.9775852E+03 </wgt>
<wgt id='1081'> +2.9819477E+03 </wgt>
<wgt id='1082'> +2.9751360E+03 </wgt>
<wgt id='1083'> +2.9881735E+03 </wgt>
<wgt id='1084'> +2.9740867E+03 </wgt>
<wgt id='1085'> +2.9785311E+03 </wgt>
<wgt id='1086'> +2.9736167E+03 </wgt>
<wgt id='1087'> +2.9745128E+03 </wgt>
<wgt id='1088'> +2.9731688E+03 </wgt>
<wgt id='1089'> +2.9748481E+03 </wgt>
<wgt id='1090'> +2.9801313E+03 </wgt>
<wgt id='1091'> +2.9675803E+03 </wgt>
<wgt id='1092'> +2.9805417E+03 </wgt>
<wgt id='1093'> +2.9871615E+03 </wgt>
<wgt id='1094'> +2.9713774E+03 </wgt>
<wgt id='1095'> +2.9840380E+03 </wgt>
<wgt id='1096'> +2.9762143E+03 </wgt>
<wgt id='1097'> +2.9744380E+03 </wgt>
<wgt id='1098'> +2.9770692E+03 </wgt>
<wgt id='1099'> +2.9736381E+03 </wgt>
<wgt id='1100'> +2.9753055E+03 </wgt>
<wgt id='1101'> +2.9704344E+03 </wgt>
<wgt id='1102'> +2.9832250E+03 </wgt>
<wgt id='1103'> +2.9762187E+03 </wgt>
<wgt id='1104'> +2.9777913E+03 </wgt>
<wgt id='1105'> +2.9806787E+03 </wgt>
<wgt id='1106'> +2.9785917E+03 </wgt>
<wgt id='1107'> +2.9744888E+03 </wgt>
<wgt id='1108'> +2.9808591E+03 </wgt>
<wgt id='1109'> +2.9767403E+03 </wgt>
<wgt id='1110'> +2.9721391E+03 </wgt>
<wgt id='1111'> +2.9821202E+03 </wgt>
<wgt id='1112'> +2.9742790E+03 </wgt>
<wgt id='1113'> +2.9787439E+03 </wgt>
<wgt id='1114'> +2.9786819E+03 </wgt>
<wgt id='1115'> +2.9748092E+03 </wgt>
<wgt id='1116'> +2.9752669E+03 </wgt>
<wgt id='1117'> +2.9739253E+03 </wgt>
<wgt id='1118'> +2.9811093E+03 </wgt>
<wgt id='1119'> +2.9735938E+03 </wgt>
<wgt id='1120'> +2.9787466E+03 </wgt>
<wgt id='1121'> +2.9746330E+03 </wgt>
<wgt id='1122'> +2.9743758E+03 </wgt>
<wgt id='1123'> +2.9750593E+03 </wgt>
<wgt id='1124'> +2.9758096E+03 </wgt>
<wgt id='1125'> +2.9748592E+03 </wgt>
<wgt id='1126'> +2.9804406E+03 </wgt>
<wgt id='1127'> +2.9770396E+03 </wgt>
<wgt id='1128'> +2.9777138E+03 </wgt>
<wgt id='1129'> +2.9751553E+03 </wgt>
<wgt id='1130'> +2.9752689E+03 </wgt>
<wgt id='1131'> +2.9776087E+03 </wgt>
<wgt id='1132'> +2.9765864E+03 </wgt>
<wgt id='1133'> +2.9778273E+03 </wgt>
<wgt id='1134'> +2.9754328E+03 </wgt>
<wgt id='1135'> +2.9757281E+03 </wgt>
<wgt id='1136'> +2.9791922E+03 </wgt>
<wgt id='1137'> +2.9781723E+03 </wgt>
<wgt id='1138'> +2.9746280E+03 </wgt>
<wgt id='1139'> +2.9765463E+03 </wgt>
<wgt id='1140'> +2.9760582E+03 </wgt>
<wgt id='1141'> +2.9775954E+03 </wgt>
<wgt id='1142'> +2.9773712E+03 </wgt>
<wgt id='1143'> +2.9794597E+03 </wgt>
<wgt id='1144'> +2.9760613E+03 </wgt>
<wgt id='1145'> +2.9750376E+03 </wgt>
<wgt id='1146'> +2.9769969E+03 </wgt>
<wgt id='1147'> +2.9505466E+03 </wgt>
<wgt id='1148'> +3.0028299E+03 </wgt>
<wgt id='1149'> +2.8871767E+03 </wgt>
<wgt id='1150'> +2.8977961E+03 </wgt>
<wgt id='1151'> +2.9113932E+03 </wgt>
<wgt id='1152'> +2.9461466E+03 </wgt>
<wgt id='1153'> +2.9791985E+03 </wgt>
<wgt id='1154'> +2.9923742E+03 </wgt>
<wgt id='1155'> +3.0197726E+03 </wgt>
<wgt id='1156'> +3.0272275E+03 </wgt>
<wgt id='1157'> +2.9280535E+03 </wgt>
<wgt id='1158'> +2.9219343E+03 </wgt>
<wgt id='1159'> +2.9373194E+03 </wgt>
<wgt id='1160'> +2.9213924E+03 </wgt>
<wgt id='1161'> +2.9424365E+03 </wgt>
<wgt id='1162'> +2.9249364E+03 </wgt>
<wgt id='1163'> +2.9176225E+03 </wgt>
<wgt id='1164'> +2.9273132E+03 </wgt>
<wgt id='1165'> +2.9280681E+03 </wgt>
<wgt id='1166'> +2.9344549E+03 </wgt>
<wgt id='1167'> +2.9173743E+03 </wgt>
<wgt id='1168'> +2.9212401E+03 </wgt>
<wgt id='1169'> +2.9306898E+03 </wgt>
<wgt id='1170'> +2.9346616E+03 </wgt>
<wgt id='1171'> +2.9340395E+03 </wgt>
<wgt id='1172'> +2.9190719E+03 </wgt>
<wgt id='1173'> +2.9292269E+03 </wgt>
<wgt id='1174'> +2.9269281E+03 </wgt>
<wgt id='1175'> +2.9349615E+03 </wgt>
<wgt id='1176'> +2.9307976E+03 </wgt>
<wgt id='1177'> +2.9230322E+03 </wgt>
<wgt id='1178'> +2.9369109E+03 </wgt>
<wgt id='1179'> +2.9301899E+03 </wgt>
<wgt id='1180'> +2.9319533E+03 </wgt>
<wgt id='1181'> +2.9404132E+03 </wgt>
<wgt id='1182'> +2.9169778E+03 </wgt>
<wgt id='1183'> +2.9270871E+03 </wgt>
<wgt id='1184'> +2.9258049E+03 </wgt>
<wgt id='1185'> +2.9327433E+03 </wgt>
<wgt id='1186'> +2.9508664E+03 </wgt>
<wgt id='1187'> +2.9037311E+03 </wgt>
<wgt id='1188'> +2.9107687E+03 </wgt>
<wgt id='1189'> +2.9368630E+03 </wgt>
<wgt id='1190'> +2.9276703E+03 </wgt>
<wgt id='1191'> +2.9250534E+03 </wgt>
<wgt id='1192'> +2.9362047E+03 </wgt>
<wgt id='1193'> +2.9313443E+03 </wgt>
<wgt id='1194'> +2.9192945E+03 </wgt>
<wgt id='1195'> +2.9284298E+03 </wgt>
<wgt id='1196'> +2.9309929E+03 </wgt>
<wgt id='1197'> +2.9253559E+03 </wgt>
<wgt id='1198'> +2.9399713E+03 </wgt>
<wgt id='1199'> +2.9256445E+03 </wgt>
<wgt id='1200'> +2.9242089E+03 </wgt>
<wgt id='1201'> +2.9284773E+03 </wgt>
<wgt id='1202'> +2.9241143E+03 </wgt>
<wgt id='1203'> +2.9319455E+03 </wgt>
<wgt id='1204'> +2.9356440E+03 </wgt>
<wgt id='1205'> +2.9314142E+03 </wgt>
<wgt id='1206'> +2.9213684E+03 </wgt>
<wgt id='1207'> +2.9289289E+03 </wgt>
<wgt id='1208'> +2.9323812E+03 </wgt>
<wgt id='1209'> +2.9298135E+03 </wgt>
<wgt id='1210'> +2.9236197E+03 </wgt>
<wgt id='1211'> +2.9242964E+03 </wgt>
<wgt id='1212'> +2.9306205E+03 </wgt>
<wgt id='1213'> +2.9146897E+03 </wgt>
<wgt id='1214'> +2.9286477E+03 </wgt>
<wgt id='1215'> +2.9242122E+03 </wgt>
<wgt id='1216'> +2.9326301E+03 </wgt>
<wgt id='1217'> +2.9268268E+03 </wgt>
<wgt id='1218'> +2.9292017E+03 </wgt>
<wgt id='1219'> +2.9265397E+03 </wgt>
<wgt id='1220'> +2.9311542E+03 </wgt>
<wgt id='1221'> +2.9244981E+03 </wgt>
<wgt id='1222'> +2.9288361E+03 </wgt>
<wgt id='1223'> +2.9338857E+03 </wgt>
<wgt id='1224'> +2.9252751E+03 </wgt>
<wgt id='1225'> +2.9296280E+03 </wgt>
<wgt id='1226'> +2.9292856E+03 </wgt>
<wgt id='1227'> +2.9266443E+03 </wgt>
<wgt id='1228'> +2.9271823E+03 </wgt>
<wgt id='1229'> +2.9270690E+03 </wgt>
<wgt id='1230'> +2.9253120E+03 </wgt>
<wgt id='1231'> +2.9298274E+03 </wgt>
<wgt id='1232'> +2.9315625E+03 </wgt>
<wgt id='1233'> +2.9311222E+03 </wgt>
<wgt id='1234'> +2.9267174E+03 </wgt>
<wgt id='1235'> +2.9301527E+03 </wgt>
<wgt id='1236'> +2.9293613E+03 </wgt>
<wgt id='1237'> +2.9292520E+03 </wgt>
<wgt id='1238'> +2.9250956E+03 </wgt>
<wgt id='1239'> +2.9257867E+03 </wgt>
<wgt id='1240'> +2.9251992E+03 </wgt>
<wgt id='1241'> +2.9302843E+03 </wgt>
<wgt id='1242'> +2.9251473E+03 </wgt>
<wgt id='1243'> +2.9286713E+03 </wgt>
<wgt id='1244'> +2.9256535E+03 </wgt>
<wgt id='1245'> +2.9279567E+03 </wgt>
<wgt id='1246'> +2.9274408E+03 </wgt>
<wgt id='1247'> +2.9302689E+03 </wgt>
<wgt id='1248'> +2.9294476E+03 </wgt>
<wgt id='1249'> +2.9268184E+03 </wgt>
<wgt id='1250'> +2.9277577E+03 </wgt>
<wgt id='1251'> +2.9276841E+03 </wgt>
<wgt id='1252'> +2.9276761E+03 </wgt>
<wgt id='1253'> +2.9279343E+03 </wgt>
<wgt id='1254'> +2.9247486E+03 </wgt>
<wgt id='1255'> +2.9283053E+03 </wgt>
<wgt id='1256'> +2.9290322E+03 </wgt>
<wgt id='1257'> +2.9305618E+03 </wgt>
<wgt id='1258'> +2.9101199E+03 </wgt>
<wgt id='1259'> +2.9566216E+03 </wgt>
<wgt id='1260'> +3.0362629E+03 </wgt>
<wgt id='1261'> +3.0027066E+03 </wgt>
<wgt id='1262'> +2.9891728E+03 </wgt>
<wgt id='1263'> +3.0422327E+03 </wgt>
<wgt id='1264'> +3.0521971E+03 </wgt>
<wgt id='1265'> +3.0881191E+03 </wgt>
<wgt id='1266'> +3.0538659E+03 </wgt>
<wgt id='1267'> +3.0749871E+03 </wgt>
<wgt id='1268'> +3.0084376E+03 </wgt>
<wgt id='1269'> +3.0910309E+03 </wgt>
<wgt id='1270'> +3.0045465E+03 </wgt>
<wgt id='1271'> +3.0494463E+03 </wgt>
<wgt id='1272'> +2.9860218E+03 </wgt>
<wgt id='1273'> +2.9911529E+03 </wgt>
<wgt id='1274'> +3.0312261E+03 </wgt>
<wgt id='1275'> +3.0448508E+03 </wgt>
<wgt id='1276'> +2.9899211E+03 </wgt>
<wgt id='1277'> +3.0476506E+03 </wgt>
<wgt id='1278'> +3.0263692E+03 </wgt>
<wgt id='1279'> +3.0469536E+03 </wgt>
<wgt id='1280'> +3.0340820E+03 </wgt>
<wgt id='1281'> +3.0483680E+03 </wgt>
<wgt id='1282'> +3.0285580E+03 </wgt>
<wgt id='1283'> +3.0603280E+03 </wgt>
<wgt id='1284'> +3.0087919E+03 </wgt>
<wgt id='1285'> +3.0442434E+03 </wgt>
<wgt id='1286'> +3.0255227E+03 </wgt>
<wgt id='1287'> +3.0464013E+03 </wgt>
<wgt id='1288'> +3.0174669E+03 </wgt>
<wgt id='1289'> +3.0190660E+03 </wgt>
<wgt id='1290'> +3.0455309E+03 </wgt>
<wgt id='1291'> +3.0182886E+03 </wgt>
<wgt id='1292'> +3.0612746E+03 </wgt>
<wgt id='1293'> +3.0707014E+03 </wgt>
<wgt id='1294'> +3.0037896E+03 </wgt>
<wgt id='1295'> +3.0305370E+03 </wgt>
<wgt id='1296'> +3.0462528E+03 </wgt>
<wgt id='1297'> +3.1106214E+03 </wgt>
<wgt id='1298'> +2.9534666E+03 </wgt>
<wgt id='1299'> +3.0888093E+03 </wgt>
<wgt id='1300'> +2.9680632E+03 </wgt>
<wgt id='1301'> +3.0465621E+03 </wgt>
<wgt id='1302'> +3.0408722E+03 </wgt>
<wgt id='1303'> +3.0409745E+03 </wgt>
<wgt id='1304'> +3.0039047E+03 </wgt>
<wgt id='1305'> +3.0070197E+03 </wgt>
<wgt id='1306'> +3.1026892E+03 </wgt>
<wgt id='1307'> +3.0170761E+03 </wgt>
<wgt id='1308'> +3.0846429E+03 </wgt>
<wgt id='1309'> +3.0447275E+03 </wgt>
<wgt id='1310'> +3.0556357E+03 </wgt>
<wgt id='1311'> +3.0525416E+03 </wgt>
<wgt id='1312'> +3.0892265E+03 </wgt>
<wgt id='1313'> +3.0948461E+03 </wgt>
<wgt id='1314'> +3.0801845E+03 </wgt>
<wgt id='1315'> +2.9646888E+03 </wgt>
<wgt id='1316'> +3.0950360E+03 </wgt>
<wgt id='1317'> +3.0023379E+03 </wgt>
<wgt id='1318'> +3.0683298E+03 </wgt>
<wgt id='1319'> +2.9281856E+03 </wgt>
<wgt id='1320'> +2.9876588E+03 </wgt>
<wgt id='1321'> +2.9528423E+03 </wgt>
<wgt id='1322'> +2.9471153E+03 </wgt>
<wgt id='1323'> +2.9643594E+03 </wgt>
<wgt id='1324'> +2.9454081E+03 </wgt>
<wgt id='1325'> +2.9269704E+03 </wgt>
<wgt id='1326'> +2.9373966E+03 </wgt>
<wgt id='1327'> +2.9700202E+03 </wgt>
<wgt id='1328'> +2.8931864E+03 </wgt>
<wgt id='1329'> +2.9522565E+03 </wgt>
<wgt id='1330'> +2.9206573E+03 </wgt>
<wgt id='1331'> +2.9478547E+03 </wgt>
<wgt id='1332'> +2.8523637E+03 </wgt>
<wgt id='1333'> +2.9539575E+03 </wgt>
<wgt id='1334'> +2.9641147E+03 </wgt>
<wgt id='1335'> +2.8668084E+03 </wgt>
<wgt id='1336'> +2.9976488E+03 </wgt>
<wgt id='1337'> +2.8471709E+03 </wgt>
<wgt id='1338'> +2.9503490E+03 </wgt>
<wgt id='1339'> +2.9047263E+03 </wgt>
<wgt id='1340'> +2.9305768E+03 </wgt>
<wgt id='1341'> +2.9236694E+03 </wgt>
<wgt id='1342'> +2.9368932E+03 </wgt>
<wgt id='1343'> +2.9257911E+03 </wgt>
<wgt id='1344'> +2.8875065E+03 </wgt>
<wgt id='1345'> +2.9691460E+03 </wgt>
<wgt id='1346'> +2.9117620E+03 </wgt>
<wgt id='1347'> +2.9520320E+03 </wgt>
<wgt id='1348'> +2.9253688E+03 </wgt>
<wgt id='1349'> +2.9289657E+03 </wgt>
<wgt id='1350'> +2.9371903E+03 </wgt>
<wgt id='1351'> +2.9166356E+03 </wgt>
<wgt id='1352'> +2.9165710E+03 </wgt>
<wgt id='1353'> +2.9532480E+03 </wgt>
<wgt id='1354'> +2.9642503E+03 </wgt>
<wgt id='1355'> +2.8983194E+03 </wgt>
<wgt id='1356'> +2.9371099E+03 </wgt>
<wgt id='1357'> +2.8974950E+03 </wgt>
<wgt id='1358'> +2.8805216E+03 </wgt>
<wgt id='1359'> +2.9422730E+03 </wgt>
<wgt id='1360'> +2.9902911E+03 </wgt>
<wgt id='1361'> +2.8908930E+03 </wgt>
<wgt id='1362'> +2.9083363E+03 </wgt>
<wgt id='1363'> +2.9244915E+03 </wgt>
<wgt id='1364'> +2.9364142E+03 </wgt>
<wgt id='1365'> +2.9172228E+03 </wgt>
<wgt id='1366'> +2.9259132E+03 </wgt>
<wgt id='1367'> +2.9430227E+03 </wgt>
<wgt id='1368'> +2.9381401E+03 </wgt>
<wgt id='1369'> +2.9437067E+03 </wgt>
<wgt id='1370'> +2.8839572E+03 </wgt>
<wgt id='1371'> +2.9004398E+03 </wgt>
<wgt id='1372'> +2.9254163E+03 </wgt>
<wgt id='1373'> +2.8786982E+03 </wgt>
<wgt id='1374'> +2.8596268E+03 </wgt>
<wgt id='1375'> +2.9736446E+03 </wgt>
<wgt id='1376'> +2.8918232E+03 </wgt>
<wgt id='1377'> +2.9599670E+03 </wgt>
<wgt id='1378'> +2.5883297E+03 </wgt>
<wgt id='1379'> +2.7561397E+03 </wgt>
<wgt id='1380'> +2.7635655E+03 </wgt>
<wgt id='1381'> +2.7480893E+03 </wgt>
<wgt id='1382'> +2.7498670E+03 </wgt>
<wgt id='1383'> +2.7603181E+03 </wgt>
<wgt id='1384'> +2.7400284E+03 </wgt>
<wgt id='1385'> +2.7708989E+03 </wgt>
<wgt id='1386'> +2.7523804E+03 </wgt>
<wgt id='1387'> +2.7601503E+03 </wgt>
<wgt id='1388'> +2.7600746E+03 </wgt>
<wgt id='1389'> +2.7523522E+03 </wgt>
<wgt id='1390'> +2.7568868E+03 </wgt>
<wgt id='1391'> +2.7544562E+03 </wgt>
<wgt id='1392'> +2.7622018E+03 </wgt>
<wgt id='1393'> +2.7453152E+03 </wgt>
<wgt id='1394'> +2.7453302E+03 </wgt>
<wgt id='1395'> +2.7620854E+03 </wgt>
<wgt id='1396'> +2.7589826E+03 </wgt>
<wgt id='1397'> +2.7529272E+03 </wgt>
<wgt id='1398'> +2.7603085E+03 </wgt>
<wgt id='1399'> +2.7522349E+03 </wgt>
<wgt id='1400'> +2.7751038E+03 </wgt>
<wgt id='1401'> +2.7311363E+03 </wgt>
<wgt id='1402'> +2.7761934E+03 </wgt>
<wgt id='1403'> +2.7438494E+03 </wgt>
<wgt id='1404'> +2.7638767E+03 </wgt>
<wgt id='1405'> +2.7321389E+03 </wgt>
<wgt id='1406'> +2.7488325E+03 </wgt>
<wgt id='1407'> +2.7669403E+03 </wgt>
<wgt id='1408'> +2.7687272E+03 </wgt>
<wgt id='1409'> +2.7396168E+03 </wgt>
<wgt id='1410'> +2.7946890E+03 </wgt>
<wgt id='1411'> +2.7098132E+03 </wgt>
<wgt id='1412'> +2.7513254E+03 </wgt>
<wgt id='1413'> +2.7574415E+03 </wgt>
<wgt id='1414'> +2.7548593E+03 </wgt>
<wgt id='1415'> +2.7653645E+03 </wgt>
<wgt id='1416'> +2.7543904E+03 </wgt>
<wgt id='1417'> +2.7585626E+03 </wgt>
<wgt id='1418'> +2.7514377E+03 </wgt>
<wgt id='1419'> +2.7603043E+03 </wgt>
<wgt id='1420'> +2.6813206E+03 </wgt>
<wgt id='1421'> +2.8180909E+03 </wgt>
<wgt id='1422'> +2.7778210E+03 </wgt>
<wgt id='1423'> +2.7369529E+03 </wgt>
<wgt id='1424'> +2.7391002E+03 </wgt>
<wgt id='1425'> +2.7979159E+03 </wgt>
<wgt id='1426'> +2.7582217E+03 </wgt>
<wgt id='1427'> +2.7603135E+03 </wgt>
<wgt id='1428'> +2.7561513E+03 </wgt>
<wgt id='1429'> +2.7563536E+03 </wgt>
<wgt id='1430'> +2.9716178E+03 </wgt>
<wgt id='1431'> +2.9789357E+03 </wgt>
<wgt id='1432'> +2.9623732E+03 </wgt>
<wgt id='1433'> +2.9706446E+03 </wgt>
<wgt id='1434'> +2.9725991E+03 </wgt>
<wgt id='1435'> +2.9609576E+03 </wgt>
<wgt id='1436'> +2.9760061E+03 </wgt>
<wgt id='1437'> +2.9529255E+03 </wgt>
<wgt id='1438'> +2.9903884E+03 </wgt>
<wgt id='1439'> +2.9719223E+03 </wgt>
<wgt id='1440'> +2.9714016E+03 </wgt>
<wgt id='1441'> +2.9619830E+03 </wgt>
<wgt id='1442'> +2.9758972E+03 </wgt>
<wgt id='1443'> +2.9796882E+03 </wgt>
<wgt id='1444'> +2.9619478E+03 </wgt>
<wgt id='1445'> +2.9678792E+03 </wgt>
<wgt id='1446'> +2.9757120E+03 </wgt>
<wgt id='1447'> +2.9659430E+03 </wgt>
<wgt id='1448'> +2.9742758E+03 </wgt>
<wgt id='1449'> +2.9645935E+03 </wgt>
<wgt id='1450'> +2.9811928E+03 </wgt>
<wgt id='1451'> +2.9631571E+03 </wgt>
<wgt id='1452'> +2.9770028E+03 </wgt>
<wgt id='1453'> +2.9394200E+03 </wgt>
<wgt id='1454'> +2.9977238E+03 </wgt>
<wgt id='1455'> +2.9644057E+03 </wgt>
<wgt id='1456'> +2.9905029E+03 </wgt>
<wgt id='1457'> +2.9651677E+03 </wgt>
<wgt id='1458'> +2.9890966E+03 </wgt>
<wgt id='1459'> +2.9574351E+03 </wgt>
<wgt id='1460'> +3.0011029E+03 </wgt>
<wgt id='1461'> +2.9859933E+03 </wgt>
<wgt id='1462'> +2.9432954E+03 </wgt>
<wgt id='1463'> +2.9596957E+03 </wgt>
<wgt id='1464'> +2.9946752E+03 </wgt>
<wgt id='1465'> +2.9887560E+03 </wgt>
<wgt id='1466'> +2.9659069E+03 </wgt>
<wgt id='1467'> +2.9822797E+03 </wgt>
<wgt id='1468'> +2.9509475E+03 </wgt>
<wgt id='1469'> +2.9683598E+03 </wgt>
<wgt id='1470'> +2.9727897E+03 </wgt>
<wgt id='1471'> +3.0229023E+03 </wgt>
<wgt id='1472'> +2.8779527E+03 </wgt>
<wgt id='1473'> +2.9752570E+03 </wgt>
<wgt id='1474'> +2.9531349E+03 </wgt>
<wgt id='1475'> +2.9580886E+03 </wgt>
<wgt id='1476'> +2.9958130E+03 </wgt>
<wgt id='1477'> +3.0012857E+03 </wgt>
<wgt id='1478'> +2.9605251E+03 </wgt>
<wgt id='1479'> +2.9829011E+03 </wgt>
<wgt id='1480'> +2.9741943E+03 </wgt>
<wgt id='1481'> +2.6058477E+03 </wgt>
<wgt id='1482'> +2.9218050E+03 </wgt>
<wgt id='1483'> +2.9213858E+03 </wgt>
<wgt id='1484'> +2.9178605E+03 </wgt>
<wgt id='1485'> +2.9212159E+03 </wgt>
<wgt id='1486'> +2.9218427E+03 </wgt>
<wgt id='1487'> +2.9223589E+03 </wgt>
<wgt id='1488'> +2.9082410E+03 </wgt>
<wgt id='1489'> +2.9244020E+03 </wgt>
<wgt id='1490'> +2.9176734E+03 </wgt>
<wgt id='1491'> +2.9103811E+03 </wgt>
<wgt id='1492'> +2.9209578E+03 </wgt>
<wgt id='1493'> +2.9205519E+03 </wgt>
<wgt id='1494'> +2.9238219E+03 </wgt>
<wgt id='1495'> +2.9263797E+03 </wgt>
<wgt id='1496'> +2.9130372E+03 </wgt>
<wgt id='1497'> +2.9153028E+03 </wgt>
<wgt id='1498'> +2.9126233E+03 </wgt>
<wgt id='1499'> +2.9193907E+03 </wgt>
<wgt id='1500'> +2.9144786E+03 </wgt>
<wgt id='1501'> +2.9254369E+03 </wgt>
<wgt id='1502'> +2.9160520E+03 </wgt>
<wgt id='1503'> +2.9047260E+03 </wgt>
<wgt id='1504'> +2.9196213E+03 </wgt>
<wgt id='1505'> +2.9423812E+03 </wgt>
<wgt id='1506'> +2.9354333E+03 </wgt>
<wgt id='1507'> +2.9177631E+03 </wgt>
<wgt id='1508'> +2.9193576E+03 </wgt>
<wgt id='1509'> +2.9349739E+03 </wgt>
<wgt id='1510'> +2.8929424E+03 </wgt>
<wgt id='1511'> +2.8967468E+03 </wgt>
<wgt id='1512'> +2.8178488E+03 </wgt>
<wgt id='1513'> +2.8085718E+03 </wgt>
<wgt id='1514'> +2.7807397E+03 </wgt>
<wgt id='1515'> +2.8592586E+03 </wgt>
<wgt id='1516'> +2.8128566E+03 </wgt>
<wgt id='1517'> +2.8322509E+03 </wgt>
<wgt id='1518'> +2.7780467E+03 </wgt>
<wgt id='1519'> +2.8518773E+03 </wgt>
<wgt id='1520'> +2.8435070E+03 </wgt>
<wgt id='1521'> +2.8025307E+03 </wgt>
<wgt id='1522'> +2.7991987E+03 </wgt>
<wgt id='1523'> +2.7917045E+03 </wgt>
<wgt id='1524'> +2.8035994E+03 </wgt>
<wgt id='1525'> +2.8399185E+03 </wgt>
<wgt id='1526'> +2.8157505E+03 </wgt>
<wgt id='1527'> +2.8062546E+03 </wgt>
<wgt id='1528'> +2.8031923E+03 </wgt>
<wgt id='1529'> +2.8123284E+03 </wgt>
<wgt id='1530'> +2.8564755E+03 </wgt>
<wgt id='1531'> +2.8007022E+03 </wgt>
<wgt id='1532'> +2.8177098E+03 </wgt>
<wgt id='1533'> +2.8204087E+03 </wgt>
<wgt id='1534'> +2.8112140E+03 </wgt>
<wgt id='1535'> +2.8393026E+03 </wgt>
<wgt id='1536'> +2.8131964E+03 </wgt>
<wgt id='1537'> +2.8309205E+03 </wgt>
<wgt id='1538'> +2.8085294E+03 </wgt>
<wgt id='1539'> +2.8220733E+03 </wgt>
<wgt id='1540'> +2.8200865E+03 </wgt>
<wgt id='1541'> +2.8087233E+03 </wgt>
<wgt id='1542'> +2.8082524E+03 </wgt>
<wgt id='1543'> +2.8149310E+03 </wgt>
<wgt id='1544'> +2.8284115E+03 </wgt>
<wgt id='1545'> +2.8127411E+03 </wgt>
<wgt id='1546'> +2.8071661E+03 </wgt>
<wgt id='1547'> +2.8242361E+03 </wgt>
<wgt id='1548'> +2.8146680E+03 </wgt>
<wgt id='1549'> +2.8192968E+03 </wgt>
<wgt id='1550'> +2.8095075E+03 </wgt>
<wgt id='1551'> +2.8071733E+03 </wgt>
<wgt id='1552'> +2.8211839E+03 </wgt>
<wgt id='1553'> +2.8108599E+03 </wgt>
<wgt id='1554'> +2.8281054E+03 </wgt>
<wgt id='1555'> +2.8171509E+03 </wgt>
<wgt id='1556'> +2.8191609E+03 </wgt>
<wgt id='1557'> +2.8208096E+03 </wgt>
<wgt id='1558'> +2.8146198E+03 </wgt>
<wgt id='1559'> +2.8262711E+03 </wgt>
<wgt id='1560'> +2.8152048E+03 </wgt>
<wgt id='1561'> +2.8190827E+03 </wgt>
<wgt id='1562'> +2.8206031E+03 </wgt>
<wgt id='1563'> +2.8098262E+03 </wgt>
<wgt id='1564'> +2.8174033E+03 </wgt>
<wgt id='1565'> +2.8181069E+03 </wgt>
<wgt id='1566'> +2.8100470E+03 </wgt>
<wgt id='1567'> +2.8180466E+03 </wgt>
<wgt id='1568'> +2.8163661E+03 </wgt>
<wgt id='1569'> +2.8138799E+03 </wgt>
<wgt id='1570'> +2.8234480E+03 </wgt>
<wgt id='1571'> +2.8218350E+03 </wgt>
<wgt id='1572'> +2.8132807E+03 </wgt>
<wgt id='1573'> +2.8189371E+03 </wgt>
<wgt id='1574'> +2.8169692E+03 </wgt>
<wgt id='1575'> +2.8218153E+03 </wgt>
<wgt id='1576'> +2.8186884E+03 </wgt>
<wgt id='1577'> +2.8216624E+03 </wgt>
<wgt id='1578'> +2.8169549E+03 </wgt>
<wgt id='1579'> +2.8198497E+03 </wgt>
<wgt id='1580'> +2.8180113E+03 </wgt>
<wgt id='1581'> +2.8186181E+03 </wgt>
<wgt id='1582'> +2.8168247E+03 </wgt>
<wgt id='1583'> +2.8170268E+03 </wgt>
<wgt id='1584'> +2.8184482E+03 </wgt>
<wgt id='1585'> +2.8153265E+03 </wgt>
<wgt id='1586'> +2.8150957E+03 </wgt>
<wgt id='1587'> +2.8193440E+03 </wgt>
<wgt id='1588'> +2.8191936E+03 </wgt>
<wgt id='1589'> +2.8169674E+03 </wgt>
<wgt id='1590'> +2.8173276E+03 </wgt>
<wgt id='1591'> +2.8192686E+03 </wgt>
<wgt id='1592'> +2.8178731E+03 </wgt>
<wgt id='1593'> +2.8179730E+03 </wgt>
<wgt id='1594'> +2.8158209E+03 </wgt>
<wgt id='1595'> +2.8195477E+03 </wgt>
<wgt id='1596'> +2.8182999E+03 </wgt>
<wgt id='1597'> +2.8157149E+03 </wgt>
<wgt id='1598'> +2.8183867E+03 </wgt>
<wgt id='1599'> +2.8157185E+03 </wgt>
<wgt id='1600'> +2.8182990E+03 </wgt>
<wgt id='1601'> +2.8194500E+03 </wgt>
<wgt id='1602'> +2.8182478E+03 </wgt>
<wgt id='1603'> +2.8173448E+03 </wgt>
<wgt id='1604'> +2.8175473E+03 </wgt>
<wgt id='1605'> +2.8167290E+03 </wgt>
<wgt id='1606'> +2.8178843E+03 </wgt>
<wgt id='1607'> +2.8167644E+03 </wgt>
<wgt id='1608'> +2.8179572E+03 </wgt>
<wgt id='1609'> +2.8181426E+03 </wgt>
<wgt id='1610'> +2.8180523E+03 </wgt>
<wgt id='1611'> +2.8183873E+03 </wgt>
<wgt id='1612'> +2.8173034E+03 </wgt>
<wgt id='1613'> +2.7921508E+03 </wgt>
<wgt id='1614'> +2.8419662E+03 </wgt>
<wgt id='1615'> +2.9695146E+03 </wgt>
<wgt id='1616'> +2.9828039E+03 </wgt>
<wgt id='1617'> +2.9457088E+03 </wgt>
<wgt id='1618'> +2.9984040E+03 </wgt>
<wgt id='1619'> +2.9999865E+03 </wgt>
<wgt id='1620'> +2.9957033E+03 </wgt>
<wgt id='1621'> +2.9984261E+03 </wgt>
<wgt id='1622'> +2.9814213E+03 </wgt>
<wgt id='1623'> +2.9737316E+03 </wgt>
<wgt id='1624'> +2.9748960E+03 </wgt>
<wgt id='1625'> +2.9817437E+03 </wgt>
<wgt id='1626'> +2.9858723E+03 </wgt>
<wgt id='1627'> +2.9611248E+03 </wgt>
<wgt id='1628'> +2.9867566E+03 </wgt>
<wgt id='1629'> +2.9403434E+03 </wgt>
<wgt id='1630'> +2.9777124E+03 </wgt>
<wgt id='1631'> +2.9569050E+03 </wgt>
<wgt id='1632'> +2.9793121E+03 </wgt>
<wgt id='1633'> +2.9765618E+03 </wgt>
<wgt id='1634'> +2.9302482E+03 </wgt>
<wgt id='1635'> +2.9766932E+03 </wgt>
<wgt id='1636'> +2.9765910E+03 </wgt>
<wgt id='1637'> +2.9483358E+03 </wgt>
<wgt id='1638'> +2.9729838E+03 </wgt>
<wgt id='1639'> +2.9796529E+03 </wgt>
<wgt id='1640'> +2.9650710E+03 </wgt>
<wgt id='1641'> +2.9542900E+03 </wgt>
<wgt id='1642'> +2.9780317E+03 </wgt>
<wgt id='1643'> +2.9729990E+03 </wgt>
<wgt id='1644'> +2.9588375E+03 </wgt>
<wgt id='1645'> +2.9719266E+03 </wgt>
<wgt id='1646'> +2.9699817E+03 </wgt>
<wgt id='1647'> +2.9849351E+03 </wgt>
<wgt id='1648'> +2.9753185E+03 </wgt>
<wgt id='1649'> +2.9686801E+03 </wgt>
<wgt id='1650'> +2.9765049E+03 </wgt>
<wgt id='1651'> +2.9581009E+03 </wgt>
<wgt id='1652'> +2.9847475E+03 </wgt>
<wgt id='1653'> +2.9817641E+03 </wgt>
<wgt id='1654'> +2.9611668E+03 </wgt>
<wgt id='1655'> +2.9710191E+03 </wgt>
<wgt id='1656'> +2.9564282E+03 </wgt>
<wgt id='1657'> +2.9653380E+03 </wgt>
<wgt id='1658'> +2.9742821E+03 </wgt>
<wgt id='1659'> +2.9767114E+03 </wgt>
<wgt id='1660'> +2.9674055E+03 </wgt>
<wgt id='1661'> +2.9719416E+03 </wgt>
<wgt id='1662'> +2.9620065E+03 </wgt>
<wgt id='1663'> +2.9647347E+03 </wgt>
<wgt id='1664'> +2.9660748E+03 </wgt>
<wgt id='1665'> +2.9706383E+03 </wgt>
<wgt id='1666'> +2.9704115E+03 </wgt>
<wgt id='1667'> +2.9682353E+03 </wgt>
<wgt id='1668'> +2.9652413E+03 </wgt>
<wgt id='1669'> +2.9700049E+03 </wgt>
<wgt id='1670'> +2.9638638E+03 </wgt>
<wgt id='1671'> +2.9781187E+03 </wgt>
<wgt id='1672'> +2.9707624E+03 </wgt>
<wgt id='1673'> +2.9692224E+03 </wgt>
<wgt id='1674'> +2.9709195E+03 </wgt>
<wgt id='1675'> +2.9669931E+03 </wgt>
<wgt id='1676'> +2.9744516E+03 </wgt>
<wgt id='1677'> +2.9681466E+03 </wgt>
<wgt id='1678'> +2.9723306E+03 </wgt>
<wgt id='1679'> +2.9675220E+03 </wgt>
<wgt id='1680'> +2.9642865E+03 </wgt>
<wgt id='1681'> +2.9682508E+03 </wgt>
<wgt id='1682'> +2.9697420E+03 </wgt>
<wgt id='1683'> +2.9715622E+03 </wgt>
<wgt id='1684'> +2.9681823E+03 </wgt>
<wgt id='1685'> +2.9673377E+03 </wgt>
<wgt id='1686'> +2.9727918E+03 </wgt>
<wgt id='1687'> +2.9671781E+03 </wgt>
<wgt id='1688'> +2.9688037E+03 </wgt>
<wgt id='1689'> +2.9685583E+03 </wgt>
<wgt id='1690'> +2.9707795E+03 </wgt>
<wgt id='1691'> +2.9704103E+03 </wgt>
<wgt id='1692'> +2.9698061E+03 </wgt>
<wgt id='1693'> +2.9703712E+03 </wgt>
<wgt id='1694'> +2.9696748E+03 </wgt>
<wgt id='1695'> +2.9718145E+03 </wgt>
<wgt id='1696'> +2.9672290E+03 </wgt>
<wgt id='1697'> +2.9697591E+03 </wgt>
<wgt id='1698'> +2.9673973E+03 </wgt>
<wgt id='1699'> +2.9680605E+03 </wgt>
<wgt id='1700'> +2.9699626E+03 </wgt>
<wgt id='1701'> +2.9700234E+03 </wgt>
<wgt id='1702'> +2.9671966E+03 </wgt>
<wgt id='1703'> +2.9700220E+03 </wgt>
<wgt id='1704'> +2.9684945E+03 </wgt>
<wgt id='1705'> +2.9716397E+03 </wgt>
<wgt id='1706'> +2.9683256E+03 </wgt>
<wgt id='1707'> +2.9681358E+03 </wgt>
<wgt id='1708'> +2.9701050E+03 </wgt>
<wgt id='1709'> +2.9696657E+03 </wgt>
<wgt id='1710'> +2.9701660E+03 </wgt>
<wgt id='1711'> +2.9702670E+03 </wgt>
<wgt id='1712'> +2.9697847E+03 </wgt>
<wgt id='1713'> +2.9692292E+03 </wgt>
<wgt id='1714'> +2.9692344E+03 </wgt>
<wgt id='1715'> +2.9698759E+03 </wgt>
<wgt id='1716'> +2.9468457E+03 </wgt>
<wgt id='1717'> +2.9914092E+03 </wgt>
<wgt id='1718'> +2.8178659E+03 </wgt>
<wgt id='1719'> +2.7879716E+03 </wgt>
<wgt id='1720'> +2.7688524E+03 </wgt>
<wgt id='1721'> +2.8151709E+03 </wgt>
<wgt id='1722'> +2.8822278E+03 </wgt>
<wgt id='1723'> +2.8241601E+03 </wgt>
<wgt id='1724'> +2.8283398E+03 </wgt>
<wgt id='1725'> +2.8176329E+03 </wgt>
<wgt id='1726'> +2.8198726E+03 </wgt>
<wgt id='1727'> +2.8377211E+03 </wgt>
<wgt id='1728'> +2.8154343E+03 </wgt>
<wgt id='1729'> +2.7966826E+03 </wgt>
<wgt id='1730'> +2.8266434E+03 </wgt>
<wgt id='1731'> +2.8143322E+03 </wgt>
<wgt id='1732'> +2.8055825E+03 </wgt>
<wgt id='1733'> +2.8288719E+03 </wgt>
<wgt id='1734'> +2.8340636E+03 </wgt>
<wgt id='1735'> +2.7774317E+03 </wgt>
<wgt id='1736'> +2.8150330E+03 </wgt>
<wgt id='1737'> +2.8247240E+03 </wgt>
<wgt id='1738'> +2.8319007E+03 </wgt>
<wgt id='1739'> +2.8133827E+03 </wgt>
<wgt id='1740'> +2.8087583E+03 </wgt>
<wgt id='1741'> +2.8223569E+03 </wgt>
<wgt id='1742'> +2.8083901E+03 </wgt>
<wgt id='1743'> +2.8230777E+03 </wgt>
<wgt id='1744'> +2.7833096E+03 </wgt>
<wgt id='1745'> +2.8199294E+03 </wgt>
<wgt id='1746'> +2.8120983E+03 </wgt>
<wgt id='1747'> +2.8026695E+03 </wgt>
<wgt id='1748'> +2.8189534E+03 </wgt>
<wgt id='1749'> +2.7921508E+03 </wgt>
<wgt id='1750'> +2.8419662E+03 </wgt>
<wgt id='1751'> +2.9695339E+03 </wgt>
<wgt id='1752'> +2.9844785E+03 </wgt>
<wgt id='1753'> +2.9933158E+03 </wgt>
<wgt id='1754'> +2.9691826E+03 </wgt>
<wgt id='1755'> +2.8912036E+03 </wgt>
<wgt id='1756'> +2.9538075E+03 </wgt>
<wgt id='1757'> +2.9711099E+03 </wgt>
<wgt id='1758'> +2.9709757E+03 </wgt>
<wgt id='1759'> +2.9704703E+03 </wgt>
<wgt id='1760'> +2.9552648E+03 </wgt>
<wgt id='1761'> +2.9806117E+03 </wgt>
<wgt id='1762'> +2.9833894E+03 </wgt>
<wgt id='1763'> +2.9692631E+03 </wgt>
<wgt id='1764'> +2.9649258E+03 </wgt>
<wgt id='1765'> +2.9646140E+03 </wgt>
<wgt id='1766'> +2.9545642E+03 </wgt>
<wgt id='1767'> +2.9667834E+03 </wgt>
<wgt id='1768'> +2.9604239E+03 </wgt>
<wgt id='1769'> +2.9722104E+03 </wgt>
<wgt id='1770'> +2.9803903E+03 </wgt>
<wgt id='1771'> +2.9614741E+03 </wgt>
<wgt id='1772'> +2.9313219E+03 </wgt>
<wgt id='1773'> +2.9751650E+03 </wgt>
<wgt id='1774'> +2.9679671E+03 </wgt>
<wgt id='1775'> +2.9649137E+03 </wgt>
<wgt id='1776'> +2.9696417E+03 </wgt>
<wgt id='1777'> +2.9714271E+03 </wgt>
<wgt id='1778'> +2.9708457E+03 </wgt>
<wgt id='1779'> +2.9651816E+03 </wgt>
<wgt id='1780'> +2.9663424E+03 </wgt>
<wgt id='1781'> +2.9715499E+03 </wgt>
<wgt id='1782'> +2.9468457E+03 </wgt>
<wgt id='1783'> +2.9914092E+03 </wgt>
<wgt id='1784'> +2.9005735E+03 </wgt>
<wgt id='1785'> +2.9056709E+03 </wgt>
<wgt id='1786'> +2.8955138E+03 </wgt>
<wgt id='1787'> +2.9024705E+03 </wgt>
<wgt id='1788'> +2.8986680E+03 </wgt>
<wgt id='1789'> +2.9016724E+03 </wgt>
<wgt id='1790'> +2.8994664E+03 </wgt>
<wgt id='1791'> +2.8878712E+03 </wgt>
<wgt id='1792'> +2.9129642E+03 </wgt>
<wgt id='1793'> +2.8932699E+03 </wgt>
<wgt id='1794'> +2.9065588E+03 </wgt>
<wgt id='1795'> +2.9110413E+03 </wgt>
<wgt id='1796'> +2.8875491E+03 </wgt>
<wgt id='1797'> +2.9032151E+03 </wgt>
<wgt id='1798'> +2.8977064E+03 </wgt>
<wgt id='1799'> +2.9178518E+03 </wgt>
<wgt id='1800'> +2.8904429E+03 </wgt>
<wgt id='1801'> +2.9100261E+03 </wgt>
<wgt id='1802'> +2.8848081E+03 </wgt>
<wgt id='1803'> +2.8523685E+03 </wgt>
<wgt id='1804'> +2.9486700E+03 </wgt>
<wgt id='1805'> +2.8534353E+03 </wgt>
<wgt id='1806'> +2.9435288E+03 </wgt>
<wgt id='1807'> +2.8735956E+03 </wgt>
<wgt id='1808'> +2.9147488E+03 </wgt>
<wgt id='1809'> +2.9257898E+03 </wgt>
<wgt id='1810'> +2.8778492E+03 </wgt>
<wgt id='1811'> +2.8983492E+03 </wgt>
<wgt id='1812'> +2.9041416E+03 </wgt>
<wgt id='1813'> +2.9005735E+03 </wgt>
<wgt id='1814'> +2.9986429E+03 </wgt>
<wgt id='1815'> +2.7964992E+03 </wgt>
<wgt id='1816'> +3.1848631E+03 </wgt>
<wgt id='1817'> +3.1116116E+03 </wgt>
<wgt id='1818'> +2.9295831E+03 </wgt>
<wgt id='1819'> +2.8917561E+03 </wgt>
<wgt id='1820'> +2.8979454E+03 </wgt>
<wgt id='1821'> +2.9023364E+03 </wgt>
<wgt id='1822'> +2.8803341E+03 </wgt>
<wgt id='1823'> +2.9200953E+03 </wgt>
<wgt id='1824'> +2.8895979E+03 </wgt>
<wgt id='1825'> +2.9291450E+03 </wgt>
<wgt id='1826'> +2.9188375E+03 </wgt>
<wgt id='1827'> +3.0805674E+03 </wgt>
<wgt id='1828'> +3.0856729E+03 </wgt>
<wgt id='1829'> +3.0746374E+03 </wgt>
<wgt id='1830'> +3.0823394E+03 </wgt>
<wgt id='1831'> +3.0779253E+03 </wgt>
<wgt id='1832'> +3.0828371E+03 </wgt>
<wgt id='1833'> +3.0774494E+03 </wgt>
<wgt id='1834'> +3.0673643E+03 </wgt>
<wgt id='1835'> +3.0923082E+03 </wgt>
<wgt id='1836'> +3.0861084E+03 </wgt>
<wgt id='1837'> +3.0736653E+03 </wgt>
<wgt id='1838'> +3.0713498E+03 </wgt>
<wgt id='1839'> +3.0876172E+03 </wgt>
<wgt id='1840'> +3.0785692E+03 </wgt>
<wgt id='1841'> +3.0819906E+03 </wgt>
<wgt id='1842'> +3.0838588E+03 </wgt>
<wgt id='1843'> +3.0868758E+03 </wgt>
<wgt id='1844'> +3.0617503E+03 </wgt>
<wgt id='1845'> +3.0975889E+03 </wgt>
<wgt id='1846'> +3.0344092E+03 </wgt>
<wgt id='1847'> +3.1227412E+03 </wgt>
<wgt id='1848'> +3.0827221E+03 </wgt>
<wgt id='1849'> +3.0734424E+03 </wgt>
<wgt id='1850'> +3.1061567E+03 </wgt>
<wgt id='1851'> +3.0552164E+03 </wgt>
<wgt id='1852'> +3.1034799E+03 </wgt>
<wgt id='1853'> +3.0571597E+03 </wgt>
<wgt id='1854'> +3.0938527E+03 </wgt>
<wgt id='1855'> +3.0708765E+03 </wgt>
<wgt id='1856'> +3.0805674E+03 </wgt>
<wgt id='1857'> +3.1783363E+03 </wgt>
<wgt id='1858'> +2.9444644E+03 </wgt>
<wgt id='1859'> +3.3382539E+03 </wgt>
<wgt id='1860'> +3.2336153E+03 </wgt>
<wgt id='1861'> +3.1866189E+03 </wgt>
<wgt id='1862'> +3.0327988E+03 </wgt>
<wgt id='1863'> +3.0769379E+03 </wgt>
<wgt id='1864'> +3.0782332E+03 </wgt>
<wgt id='1865'> +3.0295690E+03 </wgt>
<wgt id='1866'> +3.1840010E+03 </wgt>
<wgt id='1867'> +3.0432012E+03 </wgt>
<wgt id='1868'> +3.0938801E+03 </wgt>
<wgt id='1869'> +2.9962997E+03 </wgt>
<wgt id='1870'> +2.9015548E+03 </wgt>
<wgt id='1871'> +2.9004705E+03 </wgt>
<wgt id='1872'> +2.8993948E+03 </wgt>
<wgt id='1873'> +2.8983065E+03 </wgt>
<wgt id='1874'> +2.8972334E+03 </wgt>
<wgt id='1875'> +2.8961468E+03 </wgt>
<wgt id='1876'> +2.8950726E+03 </wgt>
<wgt id='1877'> +2.8939875E+03 </wgt>
<wgt id='1878'> +2.8929145E+03 </wgt>
<wgt id='1879'> +2.8918279E+03 </wgt>
<wgt id='1880'> +2.8907560E+03 </wgt>
<wgt id='1881'> +2.8896705E+03 </wgt>
<wgt id='1882'> +2.8885949E+03 </wgt>
<wgt id='1883'> +2.8875137E+03 </wgt>
<wgt id='1884'> +2.8864380E+03 </wgt>
<wgt id='1885'> +2.8853576E+03 </wgt>
<wgt id='1886'> +2.8842819E+03 </wgt>
<wgt id='1887'> +2.8832011E+03 </wgt>
<wgt id='1888'> +2.8821280E+03 </wgt>
<wgt id='1889'> +2.8810512E+03 </wgt>
<wgt id='1890'> +2.8799740E+03 </wgt>
<wgt id='1891'> +2.8788980E+03 </wgt>
<wgt id='1892'> +2.8778179E+03 </wgt>
<wgt id='1893'> +2.8767461E+03 </wgt>
<wgt id='1894'> +2.8756662E+03 </wgt>
<wgt id='1895'> +2.8745922E+03 </wgt>
<wgt id='1896'> +2.8735108E+03 </wgt>
<wgt id='1897'> +2.8724412E+03 </wgt>
<wgt id='1898'> +2.8713592E+03 </wgt>
<wgt id='1899'> +2.8702913E+03 </wgt>
<wgt id='1900'> +2.8692092E+03 </wgt>
<wgt id='1901'> +2.9572958E+03 </wgt>
<wgt id='1902'> +2.9698700E+03 </wgt>
<wgt id='1903'> +2.9333772E+03 </wgt>
<wgt id='1904'> +2.9861608E+03 </wgt>
<wgt id='1905'> +2.9875551E+03 </wgt>
<wgt id='1906'> +2.9834122E+03 </wgt>
<wgt id='1907'> +2.9865908E+03 </wgt>
<wgt id='1908'> +2.9695771E+03 </wgt>
<wgt id='1909'> +2.9615122E+03 </wgt>
<wgt id='1910'> +2.9627574E+03 </wgt>
<wgt id='1911'> +2.9693336E+03 </wgt>
<wgt id='1912'> +2.9743095E+03 </wgt>
<wgt id='1913'> +2.9492761E+03 </wgt>
<wgt id='1914'> +2.9747603E+03 </wgt>
<wgt id='1915'> +2.9281448E+03 </wgt>
<wgt id='1916'> +2.9645238E+03 </wgt>
<wgt id='1917'> +2.9454024E+03 </wgt>
<wgt id='1918'> +2.9667974E+03 </wgt>
<wgt id='1919'> +2.9641683E+03 </wgt>
<wgt id='1920'> +2.9185562E+03 </wgt>
<wgt id='1921'> +2.9649437E+03 </wgt>
<wgt id='1922'> +2.9640331E+03 </wgt>
<wgt id='1923'> +2.9361030E+03 </wgt>
<wgt id='1924'> +2.9609717E+03 </wgt>
<wgt id='1925'> +2.9671203E+03 </wgt>
<wgt id='1926'> +2.9524464E+03 </wgt>
<wgt id='1927'> +2.9416568E+03 </wgt>
<wgt id='1928'> +2.9662879E+03 </wgt>
<wgt id='1929'> +2.9610199E+03 </wgt>
<wgt id='1930'> +2.9464091E+03 </wgt>
<wgt id='1931'> +2.9594021E+03 </wgt>
<wgt id='1932'> +2.9583143E+03 </wgt>
<wgt id='1933'> +2.9724696E+03 </wgt>
<wgt id='1934'> +2.9628889E+03 </wgt>
<wgt id='1935'> +2.9564577E+03 </wgt>
<wgt id='1936'> +2.9641137E+03 </wgt>
<wgt id='1937'> +2.9460167E+03 </wgt>
<wgt id='1938'> +2.9725208E+03 </wgt>
<wgt id='1939'> +2.9695041E+03 </wgt>
<wgt id='1940'> +2.9488213E+03 </wgt>
<wgt id='1941'> +2.9588194E+03 </wgt>
<wgt id='1942'> +2.9441404E+03 </wgt>
<wgt id='1943'> +2.9530662E+03 </wgt>
<wgt id='1944'> +2.9623109E+03 </wgt>
<wgt id='1945'> +2.9643863E+03 </wgt>
<wgt id='1946'> +2.9551329E+03 </wgt>
<wgt id='1947'> +2.9598280E+03 </wgt>
<wgt id='1948'> +2.9497132E+03 </wgt>
<wgt id='1949'> +2.9526100E+03 </wgt>
<wgt id='1950'> +2.9537732E+03 </wgt>
<wgt id='1951'> +2.9584627E+03 </wgt>
<wgt id='1952'> +2.9581598E+03 </wgt>
<wgt id='1953'> +2.9559933E+03 </wgt>
<wgt id='1954'> +2.9530378E+03 </wgt>
<wgt id='1955'> +2.9578563E+03 </wgt>
<wgt id='1956'> +2.9517260E+03 </wgt>
<wgt id='1957'> +2.9656706E+03 </wgt>
<wgt id='1958'> +2.9585630E+03 </wgt>
<wgt id='1959'> +2.9571593E+03 </wgt>
<wgt id='1960'> +2.9588018E+03 </wgt>
<wgt id='1961'> +2.9548411E+03 </wgt>
<wgt id='1962'> +2.9622671E+03 </wgt>
<wgt id='1963'> +2.9558332E+03 </wgt>
<wgt id='1964'> +2.9600155E+03 </wgt>
<wgt id='1965'> +2.9553482E+03 </wgt>
<wgt id='1966'> +2.9520395E+03 </wgt>
<wgt id='1967'> +2.9559766E+03 </wgt>
<wgt id='1968'> +2.9574263E+03 </wgt>
<wgt id='1969'> +2.9593213E+03 </wgt>
<wgt id='1970'> +2.9558950E+03 </wgt>
<wgt id='1971'> +2.9550740E+03 </wgt>
<wgt id='1972'> +2.9605957E+03 </wgt>
<wgt id='1973'> +2.9549365E+03 </wgt>
<wgt id='1974'> +2.9565364E+03 </wgt>
<wgt id='1975'> +2.9562989E+03 </wgt>
<wgt id='1976'> +2.9585665E+03 </wgt>
<wgt id='1977'> +2.9582915E+03 </wgt>
<wgt id='1978'> +2.9576254E+03 </wgt>
<wgt id='1979'> +2.9582075E+03 </wgt>
<wgt id='1980'> +2.9574486E+03 </wgt>
<wgt id='1981'> +2.9595158E+03 </wgt>
<wgt id='1982'> +2.9551080E+03 </wgt>
<wgt id='1983'> +2.9575580E+03 </wgt>
<wgt id='1984'> +2.9551948E+03 </wgt>
<wgt id='1985'> +2.9557936E+03 </wgt>
<wgt id='1986'> +2.9577997E+03 </wgt>
<wgt id='1987'> +2.9579329E+03 </wgt>
<wgt id='1988'> +2.9549373E+03 </wgt>
<wgt id='1989'> +2.9577617E+03 </wgt>
<wgt id='1990'> +2.9562313E+03 </wgt>
<wgt id='1991'> +2.9593958E+03 </wgt>
<wgt id='1992'> +2.9560507E+03 </wgt>
<wgt id='1993'> +2.9558620E+03 </wgt>
<wgt id='1994'> +2.9579047E+03 </wgt>
<wgt id='1995'> +2.9573646E+03 </wgt>
<wgt id='1996'> +2.9579355E+03 </wgt>
<wgt id='1997'> +2.9580990E+03 </wgt>
<wgt id='1998'> +2.9575671E+03 </wgt>
<wgt id='1999'> +2.9570086E+03 </wgt>
<wgt id='2000'> +2.9570520E+03 </wgt>
<wgt id='2001'> +2.9576790E+03 </wgt>
<wgt id='2002'> +2.9572863E+03 </wgt>
<wgt id='2003'> +2.9572359E+03 </wgt>
<wgt id='2004'> +2.9573049E+03 </wgt>
<wgt id='2005'> +2.9573069E+03 </wgt>
<wgt id='2006'> +2.9573234E+03 </wgt>
<wgt id='2007'> +2.9572997E+03 </wgt>
<wgt id='2008'> +2.9572579E+03 </wgt>
<wgt id='2009'> +2.7697522E+03 </wgt>
<wgt id='2010'> +2.6697162E+03 </wgt>
<wgt id='2011'> +2.7765264E+03 </wgt>
<wgt id='2012'> +2.8058581E+03 </wgt>
<wgt id='2013'> +2.8519443E+03 </wgt>
<wgt id='2014'> +2.6458754E+03 </wgt>
<wgt id='2015'> +2.8174713E+03 </wgt>
<wgt id='2016'> +2.8169732E+03 </wgt>
<wgt id='2017'> +2.7273409E+03 </wgt>
<wgt id='2018'> +2.7410069E+03 </wgt>
<wgt id='2019'> +2.8291461E+03 </wgt>
<wgt id='2020'> +2.6395396E+03 </wgt>
<wgt id='2021'> +2.7769558E+03 </wgt>
<wgt id='2022'> +2.8919844E+03 </wgt>
<wgt id='2023'> +2.7704048E+03 </wgt>
<wgt id='2024'> +2.7555939E+03 </wgt>
<wgt id='2025'> +2.6432632E+03 </wgt>
<wgt id='2026'> +2.6929992E+03 </wgt>
<wgt id='2027'> +2.5613825E+03 </wgt>
<wgt id='2028'> +2.8237524E+03 </wgt>
<wgt id='2029'> +2.7403218E+03 </wgt>
<wgt id='2030'> +2.9376759E+03 </wgt>
<wgt id='2031'> +2.7432037E+03 </wgt>
<wgt id='2032'> +2.8371965E+03 </wgt>
<wgt id='2033'> +2.8292867E+03 </wgt>
<wgt id='2034'> +2.7294715E+03 </wgt>
<wgt id='2035'> +2.7974054E+03 </wgt>
<wgt id='2036'> +2.6608905E+03 </wgt>
<wgt id='2037'> +2.7811726E+03 </wgt>
<wgt id='2038'> +2.7636331E+03 </wgt>
<wgt id='2039'> +2.7470756E+03 </wgt>
<wgt id='2040'> +2.8418419E+03 </wgt>
<wgt id='2041'> +2.7719459E+03 </wgt>
<wgt id='2042'> +2.8697433E+03 </wgt>
<wgt id='2043'> +2.8070220E+03 </wgt>
<wgt id='2044'> +2.8003509E+03 </wgt>
<wgt id='2045'> +2.6916519E+03 </wgt>
<wgt id='2046'> +2.6997922E+03 </wgt>
<wgt id='2047'> +2.6643668E+03 </wgt>
<wgt id='2048'> +2.7289112E+03 </wgt>
<wgt id='2049'> +2.7873473E+03 </wgt>
<wgt id='2050'> +2.9057495E+03 </wgt>
<wgt id='2051'> +2.8015249E+03 </wgt>
<wgt id='2052'> +2.7828247E+03 </wgt>
<wgt id='2053'> +2.7595320E+03 </wgt>
<wgt id='2054'> +2.8726215E+03 </wgt>
<wgt id='2055'> +2.7908056E+03 </wgt>
<wgt id='2056'> +2.7469209E+03 </wgt>
<wgt id='2057'> +2.7780985E+03 </wgt>
<wgt id='2058'> +2.7709164E+03 </wgt>
<wgt id='2059'> +2.8300120E+03 </wgt>
<wgt id='2060'> +2.8341694E+03 </wgt>
<wgt id='2061'> +2.7842871E+03 </wgt>
<wgt id='2062'> +2.7623089E+03 </wgt>
<wgt id='2063'> +2.8259743E+03 </wgt>
<wgt id='2064'> +2.8104683E+03 </wgt>
<wgt id='2065'> +2.6916376E+03 </wgt>
<wgt id='2066'> +2.7424305E+03 </wgt>
<wgt id='2067'> +2.8252044E+03 </wgt>
<wgt id='2068'> +2.7429226E+03 </wgt>
<wgt id='2069'> +2.8081850E+03 </wgt>
<wgt id='2070'> +2.7877257E+03 </wgt>
<wgt id='2071'> +2.7632069E+03 </wgt>
<wgt id='2072'> +2.8009636E+03 </wgt>
<wgt id='2073'> +2.5556946E+03 </wgt>
<wgt id='2074'> +2.7924104E+03 </wgt>
<wgt id='2075'> +2.7522878E+03 </wgt>
<wgt id='2076'> +2.8739077E+03 </wgt>
<wgt id='2077'> +2.8402830E+03 </wgt>
<wgt id='2078'> +2.7323156E+03 </wgt>
<wgt id='2079'> +2.7773218E+03 </wgt>
<wgt id='2080'> +2.7870839E+03 </wgt>
<wgt id='2081'> +2.7047067E+03 </wgt>
<wgt id='2082'> +2.7129508E+03 </wgt>
<wgt id='2083'> +2.8475970E+03 </wgt>
<wgt id='2084'> +2.7779626E+03 </wgt>
<wgt id='2085'> +2.6786183E+03 </wgt>
<wgt id='2086'> +2.7458374E+03 </wgt>
<wgt id='2087'> +2.8005428E+03 </wgt>
<wgt id='2088'> +2.7518553E+03 </wgt>
<wgt id='2089'> +2.7651188E+03 </wgt>
<wgt id='2090'> +2.8295005E+03 </wgt>
<wgt id='2091'> +2.8748326E+03 </wgt>
<wgt id='2092'> +2.7161988E+03 </wgt>
<wgt id='2093'> +2.7651752E+03 </wgt>
<wgt id='2094'> +2.7886733E+03 </wgt>
<wgt id='2095'> +2.7554105E+03 </wgt>
<wgt id='2096'> +2.8607844E+03 </wgt>
<wgt id='2097'> +2.8241253E+03 </wgt>
<wgt id='2098'> +2.6721626E+03 </wgt>
<wgt id='2099'> +2.8113792E+03 </wgt>
<wgt id='2100'> +2.8027918E+03 </wgt>
<wgt id='2101'> +2.7335629E+03 </wgt>
<wgt id='2102'> +2.7061384E+03 </wgt>
<wgt id='2103'> +2.7906521E+03 </wgt>
<wgt id='2104'> +2.6574565E+03 </wgt>
<wgt id='2105'> +2.7756675E+03 </wgt>
<wgt id='2106'> +2.7432004E+03 </wgt>
<wgt id='2107'> +2.8480640E+03 </wgt>
<wgt id='2108'> +2.7888115E+03 </wgt>
<wgt id='2109'> +2.6330046E+03 </wgt>
<wgt id='2110'> +2.7670995E+03 </wgt>
<wgt id='2111'> +2.7884505E+03 </wgt>
<wgt id='2112'> +2.9100466E+03 </wgt>
<wgt id='2113'> +2.9985835E+03 </wgt>
<wgt id='2114'> +3.0196357E+03 </wgt>
<wgt id='2115'> +2.6035459E+03 </wgt>
<wgt id='2116'> +2.9398458E+03 </wgt>
</rwgt>
</event>
<event>
 5      0 +2.9771057E+03 8.84202200e+01 7.54677100e-03 1.18554400e-01
        2 -1    0    0  501    0 +0.0000000000e+00 +0.0000000000e+00 +1.3965304517e+02 1.3965304517e+02 0.0000000000e+00 0.0000e+00 -1.0000e+00
       -1 -1    0    0    0  501 -0.0000000000e+00 -0.0000000000e+00 -1.3995640104e+01 1.3995640104e+01 0.0000000000e+00 0.0000e+00 1.0000e+00
       24  2    1    2    0    0 +0.0000000000e+00 +0.0000000000e+00 +1.2565740506e+02 1.5364868527e+02 8.8420218492e+01 0.0000e+00 0.0000e+00
      -15  1    3    3    0    0 -1.0731236621e+01 -4.2666642225e+01 +7.0092931797e+01 8.2775471095e+01 1.7770000000e+00 0.0000e+00 1.0000e+00
       16  1    3    3    0    0 +1.0731236621e+01 +4.2666642225e+01 +5.5564473266e+01 7.0873214175e+01 0.0000000000e+00 0.0000e+00 -1.0000e+00
<scales pt_clust_4="13000.00000" pt_clust_5="13000.00000"></scales>
<mgrwt>
<rscale>  0 0.88420218E+02</rscale>
<asrwt>0</asrwt>
<pdfrwt beam="1">  1        2 0.21485083E-01 0.88420218E+02</pdfrwt>
<pdfrwt beam="2">  1       -1 0.21531755E-02 0.88420218E+02</pdfrwt>
<totfact> 0.16433032E+05</totfact>
</mgrwt>
<clustering>
<clus scale="   88.420">  4  5 -1 -1</clus>
<clus scale="   88.420">  1  4  2 -1</clus>
</clustering>
<rwgt>
<wgt id='1001'> +2.9771057E+03 </wgt>
<wgt id='1002'> +2.9747777E+03 </wgt>
<wgt id='1003'> +2.9749209E+03 </wgt>
<wgt id='1004'> +2.6207843E+03 </wgt>
<wgt id='1005'> +2.9771057E+03 </wgt>
<wgt id='1006'> +2.9771057E+03 </wgt>
<wgt id='1007'> +2.9747777E+03 </wgt>
<wgt id='1008'> +2.9749209E+03 </wgt>
<wgt id='1009'> +2.6207843E+03 </wgt>
<wgt id='1010'> +2.9771057E+03 </wgt>
<wgt id='1011'> +2.9771057E+03 </wgt>
<wgt id='1012'> +2.9747777E+03 </wgt>
<wgt id='1013'> +2.9749209E+03 </wgt>
<wgt id='1014'> +2.6207843E+03 </wgt>
<wgt id='1015'> +2.9771057E+03 </wgt>
<wgt id='1016'> +3.3024487E+03 </wgt>
<wgt id='1017'> +3.3003091E+03 </wgt>
<wgt id='1018'> +3.3004408E+03 </wgt>
<wgt id='1019'> +2.9749209E+03 </wgt>
<wgt id='1020'> +3.3024487E+03 </wgt>
<wgt id='1021'> +3.3024487E+03 </wgt>
<wgt id='1022'> +3.3003091E+03 </wgt>
<wgt id='1023'> +3.3004408E+03 </wgt>
<wgt id='1024'> +2.9749209E+03 </wgt>
<wgt id='1025'> +3.3024487E+03 </wgt>
<wgt id='1026'> +3.3024487E+03 </wgt>
<wgt id='1027'> +3.3003091E+03 </wgt>
<wgt id='1028'> +3.3004408E+03 </wgt>
<wgt id='1029'> +2.9749209E+03 </wgt>
<wgt id='1030'> +3.3024487E+03 </wgt>
<wgt id='1031'> +2.6231549E+03 </wgt>
<wgt id='1032'> +2.6206289E+03 </wgt>
<wgt id='1033'> +2.6207843E+03 </wgt>
<wgt id='1034'> +2.2375556E+03 </wgt>
<wgt id='1035'> +2.6231549E+03 </wgt>
<wgt id='1036'> +2.6231549E+03 </wgt>
<wgt id='1037'> +2.6206289E+03 </wgt>
<wgt id='1038'> +2.6207843E+03 </wgt>
<wgt id='1039'> +2.2375556E+03 </wgt>
<wgt id='1040'> +2.6231549E+03 </wgt>
<wgt id='1041'> +2.6231549E+03 </wgt>
<wgt id='1042'> +2.6206289E+03 </wgt>
<wgt id='1043'> +2.6207843E+03 </wgt>
<wgt id='1044'> +2.2375556E+03 </wgt>
<wgt id='1045'> +2.6231549E+03 </wgt>
<wgt id='1046'> +2.9771057E+03 </wgt>
<wgt id='1047'> +2.9748953E+03 </wgt>
<wgt id='1048'> +2.9788654E+03 </wgt>
<wgt id='1049'> +2.9774057E+03 </wgt>
<wgt id='1050'> +2.9891484E+03 </wgt>
<wgt id='1051'> +2.9760114E+03 </wgt>
<wgt id='1052'> +2.9670480E+03 </wgt>
<wgt id='1053'> +2.9745302E+03 </wgt>
<wgt id='1054'> +2.9690472E+03 </wgt>
<wgt id='1055'> +2.9866159E+03 </wgt>
<wgt id='1056'> +2.9606646E+03 </wgt>
<wgt id='1057'> +2.9645438E+03 </wgt>
<wgt id='1058'> +2.9874592E+03 </wgt>
<wgt id='1059'> +2.9690449E+03 </wgt>
<wgt id='1060'> +2.9809656E+03 </wgt>
<wgt id='1061'> +2.9948442E+03 </wgt>
<wgt id='1062'> +2.9954309E+03 </wgt>
<wgt id='1063'> +2.9637734E+03 </wgt>
<wgt id='1064'> +2.9685603E+03 </wgt>
<wgt id='1065'> +2.9668730E+03 </wgt>
<wgt id='1066'> +2.9710638E+03 </wgt>
<wgt id='1067'> +2.9929446E+03 </wgt>
<wgt id='1068'> +2.9826908E+03 </wgt>
<wgt id='1069'> +2.9632069E+03 </wgt>
<wgt id='1070'> +2.9994550E+03 </wgt>
<wgt id='1071'> +2.9834556E+03 </wgt>
<wgt id='1072'> +2.9625068E+03 </wgt>
<wgt id='1073'> +2.9763176E+03 </wgt>
<wgt id='1074'> +2.9758012E+03 </wgt>
<wgt id='1075'> +2.9696124E+03 </wgt>
<wgt id='1076'> +2.9952019E+03 </wgt>
<wgt id='1077'> +2.9810346E+03 </wgt>
<wgt id='1078'> +2.9754569E+03 </wgt>
<wgt id='1079'> +2.9757334E+03 </wgt>
<wgt id='1080'> +2.9762918E+03 </wgt>
<wgt id='1081'> +2.9735359E+03 </wgt>
<wgt id='1082'> +2.9782140E+03 </wgt>
<wgt id='1083'> +2.9731731E+03 </wgt>
<wgt id='1084'> +2.9791448E+03 </wgt>
<wgt id='1085'> +2.9726485E+03 </wgt>
<wgt id='1086'> +2.9774019E+03 </wgt>
<wgt id='1087'> +2.9757594E+03 </wgt>
<wgt id='1088'> +2.9757466E+03 </wgt>
<wgt id='1089'> +2.9781456E+03 </wgt>
<wgt id='1090'> +2.9804092E+03 </wgt>
<wgt id='1091'> +2.9794085E+03 </wgt>
<wgt id='1092'> +2.9803854E+03 </wgt>
<wgt id='1093'> +2.9755169E+03 </wgt>
<wgt id='1094'> +2.9823297E+03 </wgt>
<wgt id='1095'> +2.9695325E+03 </wgt>
<wgt id='1096'> +2.9765023E+03 </wgt>
<wgt id='1097'> +2.9775702E+03 </wgt>
<wgt id='1098'> +2.9757619E+03 </wgt>
<wgt id='1099'> +2.9794839E+03 </wgt>
<wgt id='1100'> +2.9774992E+03 </wgt>
<wgt id='1101'> +2.9825335E+03 </wgt>
<wgt id='1102'> +2.9725047E+03 </wgt>
<wgt id='1103'> +2.9817237E+03 </wgt>
<wgt id='1104'> +2.9812080E+03 </wgt>
<wgt id='1105'> +2.9739640E+03 </wgt>
<wgt id='1106'> +2.9762872E+03 </wgt>
<wgt id='1107'> +2.9787314E+03 </wgt>
<wgt id='1108'> +2.9763954E+03 </wgt>
<wgt id='1109'> +2.9756533E+03 </wgt>
<wgt id='1110'> +2.9739844E+03 </wgt>
<wgt id='1111'> +2.9756506E+03 </wgt>
<wgt id='1112'> +2.9791518E+03 </wgt>
<wgt id='1113'> +2.9752368E+03 </wgt>
<wgt id='1114'> +2.9788964E+03 </wgt>
<wgt id='1115'> +2.9805523E+03 </wgt>
<wgt id='1116'> +2.9761532E+03 </wgt>
<wgt id='1117'> +2.9762084E+03 </wgt>
<wgt id='1118'> +2.9793139E+03 </wgt>
<wgt id='1119'> +2.9800864E+03 </wgt>
<wgt id='1120'> +2.9764848E+03 </wgt>
<wgt id='1121'> +2.9797250E+03 </wgt>
<wgt id='1122'> +2.9785072E+03 </wgt>
<wgt id='1123'> +2.9788011E+03 </wgt>
<wgt id='1124'> +2.9800704E+03 </wgt>
<wgt id='1125'> +2.9772255E+03 </wgt>
<wgt id='1126'> +2.9778413E+03 </wgt>
<wgt id='1127'> +2.9771755E+03 </wgt>
<wgt id='1128'> +2.9773267E+03 </wgt>
<wgt id='1129'> +2.9792448E+03 </wgt>
<wgt id='1130'> +2.9738055E+03 </wgt>
<wgt id='1131'> +2.9759070E+03 </wgt>
<wgt id='1132'> +2.9764175E+03 </wgt>
<wgt id='1133'> +2.9759844E+03 </wgt>
<wgt id='1134'> +2.9768232E+03 </wgt>
<wgt id='1135'> +2.9769021E+03 </wgt>
<wgt id='1136'> +2.9759125E+03 </wgt>
<wgt id='1137'> +2.9794424E+03 </wgt>
<wgt id='1138'> +2.9758417E+03 </wgt>
<wgt id='1139'> +2.9763830E+03 </wgt>
<wgt id='1140'> +2.9748473E+03 </wgt>
<wgt id='1141'> +2.9767030E+03 </wgt>
<wgt id='1142'> +2.9782680E+03 </wgt>
<wgt id='1143'> +2.9769214E+03 </wgt>
<wgt id='1144'> +2.9787399E+03 </wgt>
<wgt id='1145'> +2.9772093E+03 </wgt>
<wgt id='1146'> +2.9770070E+03 </wgt>
<wgt id='1147'> +2.9581414E+03 </wgt>
<wgt id='1148'> +2.9956339E+03 </wgt>
<wgt id='1149'> +2.9239023E+03 </wgt>
<wgt id='1150'> +2.9266049E+03 </wgt>
<wgt id='1151'> +2.9283947E+03 </wgt>
<wgt id='1152'> +2.9441440E+03 </wgt>
<wgt id='1153'> +2.9815295E+03 </wgt>
<wgt id='1154'> +2.9879193E+03 </wgt>
<wgt id='1155'> +3.0158484E+03 </wgt>
<wgt id='1156'> +3.0192015E+03 </wgt>
<wgt id='1157'> +2.9343132E+03 </wgt>
<wgt id='1158'> +2.9357814E+03 </wgt>
<wgt id='1159'> +2.9382801E+03 </wgt>
<wgt id='1160'> +2.9312347E+03 </wgt>
<wgt id='1161'> +2.9497711E+03 </wgt>
<wgt id='1162'> +2.9361964E+03 </wgt>
<wgt id='1163'> +2.9254773E+03 </wgt>
<wgt id='1164'> +2.9412364E+03 </wgt>
<wgt id='1165'> +2.9381933E+03 </wgt>
<wgt id='1166'> +2.9407563E+03 </wgt>
<wgt id='1167'> +2.9162749E+03 </wgt>
<wgt id='1168'> +2.9298090E+03 </wgt>
<wgt id='1169'> +2.9394178E+03 </wgt>
<wgt id='1170'> +2.9443728E+03 </wgt>
<wgt id='1171'> +2.9379811E+03 </wgt>
<wgt id='1172'> +2.9204003E+03 </wgt>
<wgt id='1173'> +2.9552870E+03 </wgt>
<wgt id='1174'> +2.9236206E+03 </wgt>
<wgt id='1175'> +2.9441388E+03 </wgt>
<wgt id='1176'> +2.9373946E+03 </wgt>
<wgt id='1177'> +2.9220619E+03 </wgt>
<wgt id='1178'> +2.9522887E+03 </wgt>
<wgt id='1179'> +2.9327530E+03 </wgt>
<wgt id='1180'> +2.9201336E+03 </wgt>
<wgt id='1181'> +2.9549960E+03 </wgt>
<wgt id='1182'> +2.9246612E+03 </wgt>
<wgt id='1183'> +2.9383109E+03 </wgt>
<wgt id='1184'> +2.9320515E+03 </wgt>
<wgt id='1185'> +2.9308944E+03 </wgt>
<wgt id='1186'> +2.9575714E+03 </wgt>
<wgt id='1187'> +2.9370932E+03 </wgt>
<wgt id='1188'> +2.9252728E+03 </wgt>
<wgt id='1189'> +2.9371001E+03 </wgt>
<wgt id='1190'> +2.9311737E+03 </wgt>
<wgt id='1191'> +2.9390062E+03 </wgt>
<wgt id='1192'> +2.9388966E+03 </wgt>
<wgt id='1193'> +2.9345940E+03 </wgt>
<wgt id='1194'> +2.9322244E+03 </wgt>
<wgt id='1195'> +2.9359928E+03 </wgt>
<wgt id='1196'> +2.9318484E+03 </wgt>
<wgt id='1197'> +2.9334976E+03 </wgt>
<wgt id='1198'> +2.9275810E+03 </wgt>
<wgt id='1199'> +2.9306673E+03 </wgt>
<wgt id='1200'> +2.9350190E+03 </wgt>
<wgt id='1201'> +2.9339379E+03 </wgt>
<wgt id='1202'> +2.9357707E+03 </wgt>
<wgt id='1203'> +2.9349316E+03 </wgt>
<wgt id='1204'> +2.9323221E+03 </wgt>
<wgt id='1205'> +2.9352359E+03 </wgt>
<wgt id='1206'> +2.9398969E+03 </wgt>
<wgt id='1207'> +2.9346396E+03 </wgt>
<wgt id='1208'> +2.9320689E+03 </wgt>
<wgt id='1209'> +2.9308058E+03 </wgt>
<wgt id='1210'> +2.9303756E+03 </wgt>
<wgt id='1211'> +2.9350132E+03 </wgt>
<wgt id='1212'> +2.9341041E+03 </wgt>
<wgt id='1213'> +2.9432396E+03 </wgt>
<wgt id='1214'> +2.9315779E+03 </wgt>
<wgt id='1215'> +2.9305487E+03 </wgt>
<wgt id='1216'> +2.9334657E+03 </wgt>
<wgt id='1217'> +2.9371484E+03 </wgt>
<wgt id='1218'> +2.9347889E+03 </wgt>
<wgt id='1219'> +2.9363780E+03 </wgt>
<wgt id='1220'> +2.9338462E+03 </wgt>
<wgt id='1221'> +2.9351328E+03 </wgt>
<wgt id='1222'> +2.9358758E+03 </wgt>
<wgt id='1223'> +2.9320817E+03 </wgt>
<wgt id='1224'> +2.9336415E+03 </wgt>
<wgt id='1225'> +2.9335060E+03 </wgt>
<wgt id='1226'> +2.9321036E+03 </wgt>
<wgt id='1227'> +2.9297972E+03 </wgt>
<wgt id='1228'> +2.9350073E+03 </wgt>
<wgt id='1229'> +2.9349396E+03 </wgt>
<wgt id='1230'> +2.9327023E+03 </wgt>
<wgt id='1231'> +2.9343077E+03 </wgt>
<wgt id='1232'> +2.9290664E+03 </wgt>
<wgt id='1233'> +2.9341504E+03 </wgt>
<wgt id='1234'> +2.9330493E+03 </wgt>
<wgt id='1235'> +2.9330246E+03 </wgt>
<wgt id='1236'> +2.9321550E+03 </wgt>
<wgt id='1237'> +2.9365395E+03 </wgt>
<wgt id='1238'> +2.9321213E+03 </wgt>
<wgt id='1239'> +2.9358657E+03 </wgt>
<wgt id='1240'> +2.9370927E+03 </wgt>
<wgt id='1241'> +2.9345465E+03 </wgt>
<wgt id='1242'> +2.9352633E+03 </wgt>
<wgt id='1243'> +2.9328375E+03 </wgt>
<wgt id='1244'> +2.9346820E+03 </wgt>
<wgt id='1245'> +2.9329739E+03 </wgt>
<wgt id='1246'> +2.9336867E+03 </wgt>
<wgt id='1247'> +2.9357286E+03 </wgt>
<wgt id='1248'> +2.9338412E+03 </wgt>
<wgt id='1249'> +2.9339597E+03 </wgt>
<wgt id='1250'> +2.9360180E+03 </wgt>
<wgt id='1251'> +2.9319366E+03 </wgt>
<wgt id='1252'> +2.9340169E+03 </wgt>
<wgt id='1253'> +2.9355032E+03 </wgt>
<wgt id='1254'> +2.9345738E+03 </wgt>
<wgt id='1255'> +2.9342033E+03 </wgt>
<wgt id='1256'> +2.9353261E+03 </wgt>
<wgt id='1257'> +2.9360827E+03 </wgt>
<wgt id='1258'> +2.9200009E+03 </wgt>
<wgt id='1259'> +2.9539243E+03 </wgt>
<wgt id='1260'> +2.8854668E+03 </wgt>
<wgt id='1261'> +2.8458318E+03 </wgt>
<wgt id='1262'> +2.8481974E+03 </wgt>
<wgt id='1263'> +2.8898861E+03 </wgt>
<wgt id='1264'> +2.8868724E+03 </wgt>
<wgt id='1265'> +2.8953292E+03 </wgt>
<wgt id='1266'> +2.8999994E+03 </wgt>
<wgt id='1267'> +2.8787780E+03 </wgt>
<wgt id='1268'> +2.8411200E+03 </wgt>
<wgt id='1269'> +2.9400843E+03 </wgt>
<wgt id='1270'> +2.8521276E+03 </wgt>
<wgt id='1271'> +2.8814660E+03 </wgt>
<wgt id='1272'> +2.8592936E+03 </wgt>
<wgt id='1273'> +2.8539961E+03 </wgt>
<wgt id='1274'> +2.8569427E+03 </wgt>
<wgt id='1275'> +2.9021360E+03 </wgt>
<wgt id='1276'> +2.8212257E+03 </wgt>
<wgt id='1277'> +2.8994747E+03 </wgt>
<wgt id='1278'> +2.8690215E+03 </wgt>
<wgt id='1279'> +2.9142036E+03 </wgt>
<wgt id='1280'> +2.8649566E+03 </wgt>
<wgt id='1281'> +2.8895476E+03 </wgt>
<wgt id='1282'> +2.8825730E+03 </wgt>
<wgt id='1283'> +2.8512741E+03 </wgt>
<wgt id='1284'> +2.9227585E+03 </wgt>
<wgt id='1285'> +2.8662577E+03 </wgt>
<wgt id='1286'> +2.9015574E+03 </wgt>
<wgt id='1287'> +2.8418894E+03 </wgt>
<wgt id='1288'> +2.9531901E+03 </wgt>
<wgt id='1289'> +2.8598791E+03 </wgt>
<wgt id='1290'> +2.9001953E+03 </wgt>
<wgt id='1291'> +2.8946239E+03 </wgt>
<wgt id='1292'> +2.8688170E+03 </wgt>
<wgt id='1293'> +2.9666155E+03 </wgt>
<wgt id='1294'> +2.8078434E+03 </wgt>
<wgt id='1295'> +2.8839319E+03 </wgt>
<wgt id='1296'> +2.8895831E+03 </wgt>
<wgt id='1297'> +2.9492557E+03 </wgt>
<wgt id='1298'> +2.8142889E+03 </wgt>
<wgt id='1299'> +2.9402938E+03 </wgt>
<wgt id='1300'> +2.8182854E+03 </wgt>
<wgt id='1301'> +2.9169353E+03 </wgt>
<wgt id='1302'> +2.8810931E+03 </wgt>
<wgt id='1303'> +2.9065895E+03 </wgt>
<wgt id='1304'> +2.8301731E+03 </wgt>
<wgt id='1305'> +2.8889755E+03 </wgt>
<wgt id='1306'> +2.9163673E+03 </wgt>
<wgt id='1307'> +2.8934384E+03 </wgt>
<wgt id='1308'> +2.9071404E+03 </wgt>
<wgt id='1309'> +2.8693180E+03 </wgt>
<wgt id='1310'> +2.9568732E+03 </wgt>
<wgt id='1311'> +2.8745202E+03 </wgt>
<wgt id='1312'> +2.9195147E+03 </wgt>
<wgt id='1313'> +2.9119825E+03 </wgt>
<wgt id='1314'> +2.9198745E+03 </wgt>
<wgt id='1315'> +2.8354605E+03 </wgt>
<wgt id='1316'> +2.9613850E+03 </wgt>
<wgt id='1317'> +2.8495850E+03 </wgt>
<wgt id='1318'> +2.9224419E+03 </wgt>
<wgt id='1319'> +2.7705836E+03 </wgt>
<wgt id='1320'> +2.8008262E+03 </wgt>
<wgt id='1321'> +2.7422157E+03 </wgt>
<wgt id='1322'> +2.8001852E+03 </wgt>
<wgt id='1323'> +2.7843642E+03 </wgt>
<wgt id='1324'> +2.8375686E+03 </wgt>
<wgt id='1325'> +2.7509273E+03 </wgt>
<wgt id='1326'> +2.7959475E+03 </wgt>
<wgt id='1327'> +2.7967523E+03 </wgt>
<wgt id='1328'> +2.7507922E+03 </wgt>
<wgt id='1329'> +2.7814740E+03 </wgt>
<wgt id='1330'> +2.7542679E+03 </wgt>
<wgt id='1331'> +2.7911119E+03 </wgt>
<wgt id='1332'> +2.6961938E+03 </wgt>
<wgt id='1333'> +2.7975494E+03 </wgt>
<wgt id='1334'> +2.8086852E+03 </wgt>
<wgt id='1335'> +2.7107350E+03 </wgt>
<wgt id='1336'> +2.8493999E+03 </wgt>
<wgt id='1337'> +2.6840050E+03 </wgt>
<wgt id='1338'> +2.7828338E+03 </wgt>
<wgt id='1339'> +2.7545212E+03 </wgt>
<wgt id='1340'> +2.7777199E+03 </wgt>
<wgt id='1341'> +2.7538174E+03 </wgt>
<wgt id='1342'> +2.8337647E+03 </wgt>
<wgt id='1343'> +2.7043215E+03 </wgt>
<wgt id='1344'> +2.7875019E+03 </wgt>
<wgt id='1345'> +2.7607063E+03 </wgt>
<wgt id='1346'> +2.7674421E+03 </wgt>
<wgt id='1347'> +2.7733450E+03 </wgt>
<wgt id='1348'> +2.7294223E+03 </wgt>
<wgt id='1349'> +2.7845141E+03 </wgt>
<wgt id='1350'> +2.7462944E+03 </wgt>
<wgt id='1351'> +2.8016141E+03 </wgt>
<wgt id='1352'> +2.7567734E+03 </wgt>
<wgt id='1353'> +2.7991384E+03 </wgt>
<wgt id='1354'> +2.8151149E+03 </wgt>
<wgt id='1355'> +2.7309278E+03 </wgt>
<wgt id='1356'> +2.7799070E+03 </wgt>
<wgt id='1357'> +2.7410409E+03 </wgt>
<wgt id='1358'> +2.7490828E+03 </wgt>
<wgt id='1359'> +2.7677498E+03 </wgt>
<wgt id='1360'> +2.7670468E+03 </wgt>
<wgt id='1361'> +2.7801644E+03 </wgt>
<wgt id='1362'> +2.7736777E+03 </wgt>
<wgt id='1363'> +2.7575303E+03 </wgt>
<wgt id='1364'> +2.7556612E+03 </wgt>
<wgt id='1365'> +2.7509611E+03 </wgt>
<wgt id='1366'> +2.7311144E+03 </wgt>
<wgt id='1367'> +2.7871366E+03 </wgt>
<wgt id='1368'> +2.7604788E+03 </wgt>
<wgt id='1369'> +2.7680167E+03 </wgt>
<wgt id='1370'> +2.7330618E+03 </wgt>
<wgt id='1371'> +2.7394847E+03 </wgt>
<wgt id='1372'> +2.7324084E+03 </wgt>
<wgt id='1373'> +2.7482432E+03 </wgt>
<wgt id='1374'> +2.7284232E+03 </wgt>
<wgt id='1375'> +2.8284917E+03 </wgt>
<wgt id='1376'> +2.7395018E+03 </wgt>
<wgt id='1377'> +2.7978125E+03 </wgt>
<wgt id='1378'> +2.4632189E+03 </wgt>
<wgt id='1379'> +2.7618665E+03 </wgt>
<wgt id='1380'> +2.7625187E+03 </wgt>
<wgt id='1381'> +2.7608863E+03 </wgt>
<wgt id='1382'> +2.7459277E+03 </wgt>
<wgt id='1383'> +2.7725741E+03 </wgt>
<wgt id='1384'> +2.7538195E+03 </wgt>
<wgt id='1385'> +2.7693394E+03 </wgt>
<wgt id='1386'> +2.7546134E+03 </wgt>
<wgt id='1387'> +2.7696937E+03 </wgt>
<wgt id='1388'> +2.7616708E+03 </wgt>
<wgt id='1389'> +2.7618784E+03 </wgt>
<wgt id='1390'> +2.7639550E+03 </wgt>
<wgt id='1391'> +2.7571814E+03 </wgt>
<wgt id='1392'> +2.7576993E+03 </wgt>
<wgt id='1393'> +2.7690235E+03 </wgt>
<wgt id='1394'> +2.7617265E+03 </wgt>
<wgt id='1395'> +2.7617869E+03 </wgt>
<wgt id='1396'> +2.7685365E+03 </wgt>
<wgt id='1397'> +2.7540217E+03 </wgt>
<wgt id='1398'> +2.7727278E+03 </wgt>
<wgt id='1399'> +2.7521581E+03 </wgt>
<wgt id='1400'> +2.7621633E+03 </wgt>
<wgt id='1401'> +2.7616063E+03 </wgt>
<wgt id='1402'> +2.7821822E+03 </wgt>
<wgt id='1403'> +2.7482503E+03 </wgt>
<wgt id='1404'> +2.7580871E+03 </wgt>
<wgt id='1405'> +2.7556728E+03 </wgt>
<wgt id='1406'> +2.7765971E+03 </wgt>
<wgt id='1407'> +2.7570936E+03 </wgt>
<wgt id='1408'> +2.7749608E+03 </wgt>
<wgt id='1409'> +2.7456965E+03 </wgt>
<wgt id='1410'> +2.7725668E+03 </wgt>
<wgt id='1411'> +2.7491834E+03 </wgt>
<wgt id='1412'> +2.7556387E+03 </wgt>
<wgt id='1413'> +2.7676047E+03 </wgt>
<wgt id='1414'> +2.7497261E+03 </wgt>
<wgt id='1415'> +2.8004668E+03 </wgt>
<wgt id='1416'> +2.7548835E+03 </wgt>
<wgt id='1417'> +2.7705374E+03 </wgt>
<wgt id='1418'> +2.7641793E+03 </wgt>
<wgt id='1419'> +2.7585209E+03 </wgt>
<wgt id='1420'> +2.7126558E+03 </wgt>
<wgt id='1421'> +2.7931127E+03 </wgt>
<wgt id='1422'> +2.7903895E+03 </wgt>
<wgt id='1423'> +2.7334344E+03 </wgt>
<wgt id='1424'> +2.7495773E+03 </wgt>
<wgt id='1425'> +2.7911958E+03 </wgt>
<wgt id='1426'> +2.7587680E+03 </wgt>
<wgt id='1427'> +2.7507415E+03 </wgt>
<wgt id='1428'> +2.7578394E+03 </wgt>
<wgt id='1429'> +2.7614024E+03 </wgt>
<wgt id='1430'> +2.9402456E+03 </wgt>
<wgt id='1431'> +2.9389385E+03 </wgt>
<wgt id='1432'> +2.9421521E+03 </wgt>
<wgt id='1433'> +2.9469222E+03 </wgt>
<wgt id='1434'> +2.9337129E+03 </wgt>
<wgt id='1435'> +2.9177777E+03 </wgt>
<wgt id='1436'> +2.9493581E+03 </wgt>
<wgt id='1437'> +2.9233516E+03 </wgt>
<wgt id='1438'> +2.9570183E+03 </wgt>
<wgt id='1439'> +2.9386285E+03 </wgt>
<wgt id='1440'> +2.9419471E+03 </wgt>
<wgt id='1441'> +2.9346271E+03 </wgt>
<wgt id='1442'> +2.9427184E+03 </wgt>
<wgt id='1443'> +2.9391835E+03 </wgt>
<wgt id='1444'> +2.9417650E+03 </wgt>
<wgt id='1445'> +2.9345254E+03 </wgt>
<wgt id='1446'> +2.9466854E+03 </wgt>
<wgt id='1447'> +2.9476883E+03 </wgt>
<wgt id='1448'> +2.9358436E+03 </wgt>
<wgt id='1449'> +2.9349739E+03 </wgt>
<wgt id='1450'> +2.9471981E+03 </wgt>
<wgt id='1451'> +2.9468873E+03 </wgt>
<wgt id='1452'> +2.9355107E+03 </wgt>
<wgt id='1453'> +2.9363366E+03 </wgt>
<wgt id='1454'> +2.9420678E+03 </wgt>
<wgt id='1455'> +2.9321461E+03 </wgt>
<wgt id='1456'> +2.9596355E+03 </wgt>
<wgt id='1457'> +2.9535206E+03 </wgt>
<wgt id='1458'> +2.9358840E+03 </wgt>
<wgt id='1459'> +2.9303588E+03 </wgt>
<wgt id='1460'> +2.9631343E+03 </wgt>
<wgt id='1461'> +2.9419622E+03 </wgt>
<wgt id='1462'> +2.9387274E+03 </wgt>
<wgt id='1463'> +2.9309536E+03 </wgt>
<wgt id='1464'> +2.9609790E+03 </wgt>
<wgt id='1465'> +2.9835505E+03 </wgt>
<wgt id='1466'> +2.9235521E+03 </wgt>
<wgt id='1467'> +2.9382955E+03 </wgt>
<wgt id='1468'> +2.9467823E+03 </wgt>
<wgt id='1469'> +2.9448251E+03 </wgt>
<wgt id='1470'> +2.9363850E+03 </wgt>
<wgt id='1471'> +2.9653884E+03 </wgt>
<wgt id='1472'> +2.8777325E+03 </wgt>
<wgt id='1473'> +2.9452455E+03 </wgt>
<wgt id='1474'> +2.9070819E+03 </wgt>
<wgt id='1475'> +2.9120887E+03 </wgt>
<wgt id='1476'> +2.9566652E+03 </wgt>
<wgt id='1477'> +2.9626496E+03 </wgt>
<wgt id='1478'> +2.9301195E+03 </wgt>
<wgt id='1479'> +2.9450760E+03 </wgt>
<wgt id='1480'> +2.9309244E+03 </wgt>
<wgt id='1481'> +2.4226960E+03 </wgt>
<wgt id='1482'> +2.8166978E+03 </wgt>
<wgt id='1483'> +2.8162552E+03 </wgt>
<wgt id='1484'> +2.8154302E+03 </wgt>
<wgt id='1485'> +2.8182386E+03 </wgt>
<wgt id='1486'> +2.8167848E+03 </wgt>
<wgt id='1487'> +2.8210856E+03 </wgt>
<wgt id='1488'> +2.8040571E+03 </wgt>
<wgt id='1489'> +2.8199540E+03 </wgt>
<wgt id='1490'> +2.8119756E+03 </wgt>
<wgt id='1491'> +2.8108198E+03 </wgt>
<wgt id='1492'> +2.8226549E+03 </wgt>
<wgt id='1493'> +2.8156346E+03 </wgt>
<wgt id='1494'> +2.8153576E+03 </wgt>
<wgt id='1495'> +2.8202288E+03 </wgt>
<wgt id='1496'> +2.8128549E+03 </wgt>
<wgt id='1497'> +2.8212449E+03 </wgt>
<wgt id='1498'> +2.8141164E+03 </wgt>
<wgt id='1499'> +2.8164363E+03 </wgt>
<wgt id='1500'> +2.8189856E+03 </wgt>
<wgt id='1501'> +2.8195839E+03 </wgt>
<wgt id='1502'> +2.8092126E+03 </wgt>
<wgt id='1503'> +2.8113692E+03 </wgt>
<wgt id='1504'> +2.8127117E+03 </wgt>
<wgt id='1505'> +2.8186226E+03 </wgt>
<wgt id='1506'> +2.8211519E+03 </wgt>
<wgt id='1507'> +2.8229682E+03 </wgt>
<wgt id='1508'> +2.8154921E+03 </wgt>
<wgt id='1509'> +2.8198773E+03 </wgt>
<wgt id='1510'> +2.8130603E+03 </wgt>
<wgt id='1511'> +2.8029918E+03 </wgt>
<wgt id='1512'> +2.7541540E+03 </wgt>
<wgt id='1513'> +2.7503322E+03 </wgt>
<wgt id='1514'> +2.7491939E+03 </wgt>
<wgt id='1515'> +2.7850445E+03 </wgt>
<wgt id='1516'> +2.7450789E+03 </wgt>
<wgt id='1517'> +2.7523689E+03 </wgt>
<wgt id='1518'> +2.7337584E+03 </wgt>
<wgt id='1519'> +2.7641363E+03 </wgt>
<wgt id='1520'> +2.7734728E+03 </wgt>
<wgt id='1521'> +2.7581719E+03 </wgt>
<wgt id='1522'> +2.7640818E+03 </wgt>
<wgt id='1523'> +2.7303017E+03 </wgt>
<wgt id='1524'> +2.7388386E+03 </wgt>
<wgt id='1525'> +2.7358292E+03 </wgt>
<wgt id='1526'> +2.7499186E+03 </wgt>
<wgt id='1527'> +2.7425224E+03 </wgt>
<wgt id='1528'> +2.7440001E+03 </wgt>
<wgt id='1529'> +2.7554996E+03 </wgt>
<wgt id='1530'> +2.7844330E+03 </wgt>
<wgt id='1531'> +2.7416326E+03 </wgt>
<wgt id='1532'> +2.7748925E+03 </wgt>
<wgt id='1533'> +2.7528192E+03 </wgt>
<wgt id='1534'> +2.7580631E+03 </wgt>
<wgt id='1535'> +2.7602775E+03 </wgt>
<wgt id='1536'> +2.7485403E+03 </wgt>
<wgt id='1537'> +2.7575684E+03 </wgt>
<wgt id='1538'> +2.7506298E+03 </wgt>
<wgt id='1539'> +2.7529855E+03 </wgt>
<wgt id='1540'> +2.7402848E+03 </wgt>
<wgt id='1541'> +2.7514469E+03 </wgt>
<wgt id='1542'> +2.7445015E+03 </wgt>
<wgt id='1543'> +2.7574435E+03 </wgt>
<wgt id='1544'> +2.7508439E+03 </wgt>
<wgt id='1545'> +2.7348017E+03 </wgt>
<wgt id='1546'> +2.7597593E+03 </wgt>
<wgt id='1547'> +2.7567612E+03 </wgt>
<wgt id='1548'> +2.7532329E+03 </wgt>
<wgt id='1549'> +2.7517869E+03 </wgt>
<wgt id='1550'> +2.7567473E+03 </wgt>
<wgt id='1551'> +2.7599553E+03 </wgt>
<wgt id='1552'> +2.7532559E+03 </wgt>
<wgt id='1553'> +2.7563638E+03 </wgt>
<wgt id='1554'> +2.7547196E+03 </wgt>
<wgt id='1555'> +2.7528356E+03 </wgt>
<wgt id='1556'> +2.7537063E+03 </wgt>
<wgt id='1557'> +2.7563911E+03 </wgt>
<wgt id='1558'> +2.7567364E+03 </wgt>
<wgt id='1559'> +2.7475468E+03 </wgt>
<wgt id='1560'> +2.7538885E+03 </wgt>
<wgt id='1561'> +2.7531094E+03 </wgt>
<wgt id='1562'> +2.7561562E+03 </wgt>
<wgt id='1563'> +2.7520316E+03 </wgt>
<wgt id='1564'> +2.7597597E+03 </wgt>
<wgt id='1565'> +2.7529970E+03 </wgt>
<wgt id='1566'> +2.7528250E+03 </wgt>
<wgt id='1567'> +2.7582372E+03 </wgt>
<wgt id='1568'> +2.7515663E+03 </wgt>
<wgt id='1569'> +2.7534593E+03 </wgt>
<wgt id='1570'> +2.7571496E+03 </wgt>
<wgt id='1571'> +2.7555673E+03 </wgt>
<wgt id='1572'> +2.7523839E+03 </wgt>
<wgt id='1573'> +2.7554306E+03 </wgt>
<wgt id='1574'> +2.7547625E+03 </wgt>
<wgt id='1575'> +2.7534684E+03 </wgt>
<wgt id='1576'> +2.7562293E+03 </wgt>
<wgt id='1577'> +2.7549710E+03 </wgt>
<wgt id='1578'> +2.7554004E+03 </wgt>
<wgt id='1579'> +2.7568910E+03 </wgt>
<wgt id='1580'> +2.7545873E+03 </wgt>
<wgt id='1581'> +2.7547574E+03 </wgt>
<wgt id='1582'> +2.7523683E+03 </wgt>
<wgt id='1583'> +2.7537270E+03 </wgt>
<wgt id='1584'> +2.7559734E+03 </wgt>
<wgt id='1585'> +2.7547998E+03 </wgt>
<wgt id='1586'> +2.7540351E+03 </wgt>
<wgt id='1587'> +2.7553989E+03 </wgt>
<wgt id='1588'> +2.7543157E+03 </wgt>
<wgt id='1589'> +2.7546837E+03 </wgt>
<wgt id='1590'> +2.7536366E+03 </wgt>
<wgt id='1591'> +2.7547348E+03 </wgt>
<wgt id='1592'> +2.7539897E+03 </wgt>
<wgt id='1593'> +2.7547950E+03 </wgt>
<wgt id='1594'> +2.7537764E+03 </wgt>
<wgt id='1595'> +2.7554809E+03 </wgt>
<wgt id='1596'> +2.7541957E+03 </wgt>
<wgt id='1597'> +2.7545396E+03 </wgt>
<wgt id='1598'> +2.7550502E+03 </wgt>
<wgt id='1599'> +2.7553564E+03 </wgt>
<wgt id='1600'> +2.7539842E+03 </wgt>
<wgt id='1601'> +2.7538870E+03 </wgt>
<wgt id='1602'> +2.7535060E+03 </wgt>
<wgt id='1603'> +2.7538949E+03 </wgt>
<wgt id='1604'> +2.7537725E+03 </wgt>
<wgt id='1605'> +2.7544103E+03 </wgt>
<wgt id='1606'> +2.7540355E+03 </wgt>
<wgt id='1607'> +2.7542381E+03 </wgt>
<wgt id='1608'> +2.7534619E+03 </wgt>
<wgt id='1609'> +2.7547579E+03 </wgt>
<wgt id='1610'> +2.7539539E+03 </wgt>
<wgt id='1611'> +2.7536612E+03 </wgt>
<wgt id='1612'> +2.7548863E+03 </wgt>
<wgt id='1613'> +2.7304642E+03 </wgt>
<wgt id='1614'> +2.7783237E+03 </wgt>
<wgt id='1615'> +2.8999275E+03 </wgt>
<wgt id='1616'> +2.9150019E+03 </wgt>
<wgt id='1617'> +2.8965950E+03 </wgt>
<wgt id='1618'> +2.9024322E+03 </wgt>
<wgt id='1619'> +2.9150887E+03 </wgt>
<wgt id='1620'> +2.9271098E+03 </wgt>
<wgt id='1621'> +2.9089491E+03 </wgt>
<wgt id='1622'> +2.9012032E+03 </wgt>
<wgt id='1623'> +2.9001022E+03 </wgt>
<wgt id='1624'> +2.8913897E+03 </wgt>
<wgt id='1625'> +2.9049562E+03 </wgt>
<wgt id='1626'> +2.9196002E+03 </wgt>
<wgt id='1627'> +2.8926861E+03 </wgt>
<wgt id='1628'> +2.9024117E+03 </wgt>
<wgt id='1629'> +2.8785961E+03 </wgt>
<wgt id='1630'> +2.9529520E+03 </wgt>
<wgt id='1631'> +2.8859768E+03 </wgt>
<wgt id='1632'> +2.9013425E+03 </wgt>
<wgt id='1633'> +2.9082910E+03 </wgt>
<wgt id='1634'> +2.8667287E+03 </wgt>
<wgt id='1635'> +2.9063460E+03 </wgt>
<wgt id='1636'> +2.9035400E+03 </wgt>
<wgt id='1637'> +2.8793834E+03 </wgt>
<wgt id='1638'> +2.9062016E+03 </wgt>
<wgt id='1639'> +2.8883382E+03 </wgt>
<wgt id='1640'> +2.9009651E+03 </wgt>
<wgt id='1641'> +2.8940918E+03 </wgt>
<wgt id='1642'> +2.8932851E+03 </wgt>
<wgt id='1643'> +2.9067591E+03 </wgt>
<wgt id='1644'> +2.9061108E+03 </wgt>
<wgt id='1645'> +2.9035406E+03 </wgt>
<wgt id='1646'> +2.9038941E+03 </wgt>
<wgt id='1647'> +2.9050150E+03 </wgt>
<wgt id='1648'> +2.9233689E+03 </wgt>
<wgt id='1649'> +2.9062526E+03 </wgt>
<wgt id='1650'> +2.9094704E+03 </wgt>
<wgt id='1651'> +2.9022728E+03 </wgt>
<wgt id='1652'> +2.8947557E+03 </wgt>
<wgt id='1653'> +2.8990132E+03 </wgt>
<wgt id='1654'> +2.9056036E+03 </wgt>
<wgt id='1655'> +2.9000143E+03 </wgt>
<wgt id='1656'> +2.9024832E+03 </wgt>
<wgt id='1657'> +2.8981323E+03 </wgt>
<wgt id='1658'> +2.9010033E+03 </wgt>
<wgt id='1659'> +2.8945350E+03 </wgt>
<wgt id='1660'> +2.8981518E+03 </wgt>
<wgt id='1661'> +2.8917749E+03 </wgt>
<wgt id='1662'> +2.8943867E+03 </wgt>
<wgt id='1663'> +2.8982686E+03 </wgt>
<wgt id='1664'> +2.8991244E+03 </wgt>
<wgt id='1665'> +2.8994250E+03 </wgt>
<wgt id='1666'> +2.8975249E+03 </wgt>
<wgt id='1667'> +2.8997442E+03 </wgt>
<wgt id='1668'> +2.9016590E+03 </wgt>
<wgt id='1669'> +2.8956454E+03 </wgt>
<wgt id='1670'> +2.9017727E+03 </wgt>
<wgt id='1671'> +2.9039756E+03 </wgt>
<wgt id='1672'> +2.9013316E+03 </wgt>
<wgt id='1673'> +2.9004361E+03 </wgt>
<wgt id='1674'> +2.8990289E+03 </wgt>
<wgt id='1675'> +2.9024211E+03 </wgt>
<wgt id='1676'> +2.8997968E+03 </wgt>
<wgt id='1677'> +2.8997091E+03 </wgt>
<wgt id='1678'> +2.9015623E+03 </wgt>
<wgt id='1679'> +2.9008254E+03 </wgt>
<wgt id='1680'> +2.8970613E+03 </wgt>
<wgt id='1681'> +2.8992129E+03 </wgt>
<wgt id='1682'> +2.9007298E+03 </wgt>
<wgt id='1683'> +2.9029232E+03 </wgt>
<wgt id='1684'> +2.8995574E+03 </wgt>
<wgt id='1685'> +2.8997464E+03 </wgt>
<wgt id='1686'> +2.9009638E+03 </wgt>
<wgt id='1687'> +2.9005316E+03 </wgt>
<wgt id='1688'> +2.8990670E+03 </wgt>
<wgt id='1689'> +2.8997869E+03 </wgt>
<wgt id='1690'> +2.9000412E+03 </wgt>
<wgt id='1691'> +2.9009311E+03 </wgt>
<wgt id='1692'> +2.8986925E+03 </wgt>
<wgt id='1693'> +2.9000693E+03 </wgt>
<wgt id='1694'> +2.9005400E+03 </wgt>
<wgt id='1695'> +2.9014442E+03 </wgt>
<wgt id='1696'> +2.9005225E+03 </wgt>
<wgt id='1697'> +2.9008775E+03 </wgt>
<wgt id='1698'> +2.9000852E+03 </wgt>
<wgt id='1699'> +2.8993424E+03 </wgt>
<wgt id='1700'> +2.8993126E+03 </wgt>
<wgt id='1701'> +2.9001145E+03 </wgt>
<wgt id='1702'> +2.8988881E+03 </wgt>
<wgt id='1703'> +2.8987281E+03 </wgt>
<wgt id='1704'> +2.9000515E+03 </wgt>
<wgt id='1705'> +2.8996352E+03 </wgt>
<wgt id='1706'> +2.9005192E+03 </wgt>
<wgt id='1707'> +2.8993239E+03 </wgt>
<wgt id='1708'> +2.8997528E+03 </wgt>
<wgt id='1709'> +2.8991567E+03 </wgt>
<wgt id='1710'> +2.8992806E+03 </wgt>
<wgt id='1711'> +2.8998231E+03 </wgt>
<wgt id='1712'> +2.9002456E+03 </wgt>
<wgt id='1713'> +2.9008566E+03 </wgt>
<wgt id='1714'> +2.8991244E+03 </wgt>
<wgt id='1715'> +2.8992608E+03 </wgt>
<wgt id='1716'> +2.8608908E+03 </wgt>
<wgt id='1717'> +2.9215846E+03 </wgt>
<wgt id='1718'> +2.7542367E+03 </wgt>
<wgt id='1719'> +2.7637664E+03 </wgt>
<wgt id='1720'> +2.7337235E+03 </wgt>
<wgt id='1721'> +2.7563447E+03 </wgt>
<wgt id='1722'> +2.7964947E+03 </wgt>
<wgt id='1723'> +2.7760520E+03 </wgt>
<wgt id='1724'> +2.7675792E+03 </wgt>
<wgt id='1725'> +2.7564876E+03 </wgt>
<wgt id='1726'> +2.7598049E+03 </wgt>
<wgt id='1727'> +2.7681613E+03 </wgt>
<wgt id='1728'> +2.7576993E+03 </wgt>
<wgt id='1729'> +2.7376156E+03 </wgt>
<wgt id='1730'> +2.7539007E+03 </wgt>
<wgt id='1731'> +2.7558588E+03 </wgt>
<wgt id='1732'> +2.7064530E+03 </wgt>
<wgt id='1733'> +2.7590229E+03 </wgt>
<wgt id='1734'> +2.7542510E+03 </wgt>
<wgt id='1735'> +2.7442458E+03 </wgt>
<wgt id='1736'> +2.7550508E+03 </wgt>
<wgt id='1737'> +2.7563716E+03 </wgt>
<wgt id='1738'> +2.7559672E+03 </wgt>
<wgt id='1739'> +2.7545287E+03 </wgt>
<wgt id='1740'> +2.7517808E+03 </wgt>
<wgt id='1741'> +2.7554981E+03 </wgt>
<wgt id='1742'> +2.7509686E+03 </wgt>
<wgt id='1743'> +2.7546597E+03 </wgt>
<wgt id='1744'> +2.7504584E+03 </wgt>
<wgt id='1745'> +2.7577028E+03 </wgt>
<wgt id='1746'> +2.7566351E+03 </wgt>
<wgt id='1747'> +2.7600393E+03 </wgt>
<wgt id='1748'> +2.7542331E+03 </wgt>
<wgt id='1749'> +2.7304642E+03 </wgt>
<wgt id='1750'> +2.7783237E+03 </wgt>
<wgt id='1751'> +2.8999760E+03 </wgt>
<wgt id='1752'> +2.9124838E+03 </wgt>
<wgt id='1753'> +2.9688361E+03 </wgt>
<wgt id='1754'> +2.8991943E+03 </wgt>
<wgt id='1755'> +2.8692878E+03 </wgt>
<wgt id='1756'> +2.8875457E+03 </wgt>
<wgt id='1757'> +2.9021828E+03 </wgt>
<wgt id='1758'> +2.8978367E+03 </wgt>
<wgt id='1759'> +2.9048222E+03 </wgt>
<wgt id='1760'> +2.8908899E+03 </wgt>
<wgt id='1761'> +2.9068179E+03 </wgt>
<wgt id='1762'> +2.8938605E+03 </wgt>
<wgt id='1763'> +2.8998321E+03 </wgt>
<wgt id='1764'> +2.9035375E+03 </wgt>
<wgt id='1765'> +2.8985136E+03 </wgt>
<wgt id='1766'> +2.9042113E+03 </wgt>
<wgt id='1767'> +2.8991272E+03 </wgt>
<wgt id='1768'> +2.8971914E+03 </wgt>
<wgt id='1769'> +2.9011952E+03 </wgt>
<wgt id='1770'> +2.9091989E+03 </wgt>
<wgt id='1771'> +2.8663995E+03 </wgt>
<wgt id='1772'> +2.8942764E+03 </wgt>
<wgt id='1773'> +2.9103462E+03 </wgt>
<wgt id='1774'> +2.9011619E+03 </wgt>
<wgt id='1775'> +2.8992561E+03 </wgt>
<wgt id='1776'> +2.8999632E+03 </wgt>
<wgt id='1777'> +2.8986159E+03 </wgt>
<wgt id='1778'> +2.9011730E+03 </wgt>
<wgt id='1779'> +2.8997275E+03 </wgt>
<wgt id='1780'> +2.8954382E+03 </wgt>
<wgt id='1781'> +2.9076675E+03 </wgt>
<wgt id='1782'> +2.8608908E+03 </wgt>
<wgt id='1783'> +2.9215846E+03 </wgt>
<wgt id='1784'> +3.1288538E+03 </wgt>
<wgt id='1785'> +3.1353275E+03 </wgt>
<wgt id='1786'> +3.1224260E+03 </wgt>
<wgt id='1787'> +3.1283221E+03 </wgt>
<wgt id='1788'> +3.1293735E+03 </wgt>
<wgt id='1789'> +3.1339491E+03 </wgt>
<wgt id='1790'> +3.1237456E+03 </wgt>
<wgt id='1791'> +3.1181614E+03 </wgt>
<wgt id='1792'> +3.1391572E+03 </wgt>
<wgt id='1793'> +3.1393512E+03 </wgt>
<wgt id='1794'> +3.1183160E+03 </wgt>
<wgt id='1795'> +3.1378160E+03 </wgt>
<wgt id='1796'> +3.1189834E+03 </wgt>
<wgt id='1797'> +3.1247948E+03 </wgt>
<wgt id='1798'> +3.1327382E+03 </wgt>
<wgt id='1799'> +3.1242383E+03 </wgt>
<wgt id='1800'> +3.1342725E+03 </wgt>
<wgt id='1801'> +3.1239245E+03 </wgt>
<wgt id='1802'> +3.1297559E+03 </wgt>
<wgt id='1803'> +3.1227881E+03 </wgt>
<wgt id='1804'> +3.1359636E+03 </wgt>
<wgt id='1805'> +3.1388190E+03 </wgt>
<wgt id='1806'> +3.1154508E+03 </wgt>
<wgt id='1807'> +3.1159148E+03 </wgt>
<wgt id='1808'> +3.1296845E+03 </wgt>
<wgt id='1809'> +3.1368067E+03 </wgt>
<wgt id='1810'> +3.1251455E+03 </wgt>
<wgt id='1811'> +3.1150861E+03 </wgt>
<wgt id='1812'> +3.1407484E+03 </wgt>
<wgt id='1813'> +3.1288538E+03 </wgt>
<wgt id='1814'> +3.1812919E+03 </wgt>
<wgt id='1815'> +3.0652756E+03 </wgt>
<wgt id='1816'> +3.1961255E+03 </wgt>
<wgt id='1817'> +3.0979058E+03 </wgt>
<wgt id='1818'> +3.1395159E+03 </wgt>
<wgt id='1819'> +3.1201728E+03 </wgt>
<wgt id='1820'> +3.1227201E+03 </wgt>
<wgt id='1821'> +3.1349908E+03 </wgt>
<wgt id='1822'> +3.0973687E+03 </wgt>
<wgt id='1823'> +3.1602504E+03 </wgt>
<wgt id='1824'> +3.1246854E+03 </wgt>
<wgt id='1825'> +3.1636493E+03 </wgt>
<wgt id='1826'> +3.0355035E+03 </wgt>
<wgt id='1827'> +3.1957657E+03 </wgt>
<wgt id='1828'> +3.2033066E+03 </wgt>
<wgt id='1829'> +3.1890631E+03 </wgt>
<wgt id='1830'> +3.1931832E+03 </wgt>
<wgt id='1831'> +3.1991491E+03 </wgt>
<wgt id='1832'> +3.2007413E+03 </wgt>
<wgt id='1833'> +3.1915822E+03 </wgt>
<wgt id='1834'> +3.1835658E+03 </wgt>
<wgt id='1835'> +3.2081438E+03 </wgt>
<wgt id='1836'> +3.2060666E+03 </wgt>
<wgt id='1837'> +3.1860308E+03 </wgt>
<wgt id='1838'> +3.1956031E+03 </wgt>
<wgt id='1839'> +3.1966916E+03 </wgt>
<wgt id='1840'> +3.1889036E+03 </wgt>
<wgt id='1841'> +3.2035168E+03 </wgt>
<wgt id='1842'> +3.1944413E+03 </wgt>
<wgt id='1843'> +3.2007454E+03 </wgt>
<wgt id='1844'> +3.1941392E+03 </wgt>
<wgt id='1845'> +3.1974858E+03 </wgt>
<wgt id='1846'> +3.1977850E+03 </wgt>
<wgt id='1847'> +3.1942700E+03 </wgt>
<wgt id='1848'> +3.1734175E+03 </wgt>
<wgt id='1849'> +3.2150201E+03 </wgt>
<wgt id='1850'> +3.1949508E+03 </wgt>
<wgt id='1851'> +3.1978333E+03 </wgt>
<wgt id='1852'> +3.1911309E+03 </wgt>
<wgt id='1853'> +3.1950092E+03 </wgt>
<wgt id='1854'> +3.1944508E+03 </wgt>
<wgt id='1855'> +3.1971906E+03 </wgt>
<wgt id='1856'> +3.1957657E+03 </wgt>
<wgt id='1857'> +3.2559886E+03 </wgt>
<wgt id='1858'> +3.1173651E+03 </wgt>
<wgt id='1859'> +3.2720252E+03 </wgt>
<wgt id='1860'> +3.1590140E+03 </wgt>
<wgt id='1861'> +3.1944584E+03 </wgt>
<wgt id='1862'> +3.1834603E+03 </wgt>
<wgt id='1863'> +3.1896638E+03 </wgt>
<wgt id='1864'> +3.2060585E+03 </wgt>
<wgt id='1865'> +3.1487464E+03 </wgt>
<wgt id='1866'> +3.2228715E+03 </wgt>
<wgt id='1867'> +3.1707209E+03 </wgt>
<wgt id='1868'> +3.2428893E+03 </wgt>
<wgt id='1869'> +3.1525453E+03 </wgt>
<wgt id='1870'> +2.7487014E+03 </wgt>
<wgt id='1871'> +2.7477512E+03 </wgt>
<wgt id='1872'> +2.7468039E+03 </wgt>
<wgt id='1873'> +2.7458642E+03 </wgt>
<wgt id='1874'> +2.7449156E+03 </wgt>
<wgt id='1875'> +2.7439662E+03 </wgt>
<wgt id='1876'> +2.7430184E+03 </wgt>
<wgt id='1877'> +2.7420713E+03 </wgt>
<wgt id='1878'> +2.7411247E+03 </wgt>
<wgt id='1879'> +2.7401817E+03 </wgt>
<wgt id='1880'> +2.7392355E+03 </wgt>
<wgt id='1881'> +2.7382912E+03 </wgt>
<wgt id='1882'> +2.7373489E+03 </wgt>
<wgt id='1883'> +2.7364034E+03 </wgt>
<wgt id='1884'> +2.7354575E+03 </wgt>
<wgt id='1885'> +2.7345077E+03 </wgt>
<wgt id='1886'> +2.7335619E+03 </wgt>
<wgt id='1887'> +2.7326222E+03 </wgt>
<wgt id='1888'> +2.7316759E+03 </wgt>
<wgt id='1889'> +2.7307307E+03 </wgt>
<wgt id='1890'> +2.7297887E+03 </wgt>
<wgt id='1891'> +2.7288472E+03 </wgt>
<wgt id='1892'> +2.7279021E+03 </wgt>
<wgt id='1893'> +2.7269600E+03 </wgt>
<wgt id='1894'> +2.7260138E+03 </wgt>
<wgt id='1895'> +2.7250689E+03 </wgt>
<wgt id='1896'> +2.7241296E+03 </wgt>
<wgt id='1897'> +2.7231822E+03 </wgt>
<wgt id='1898'> +2.7222420E+03 </wgt>
<wgt id='1899'> +2.7213001E+03 </wgt>
<wgt id='1900'> +2.7203594E+03 </wgt>
<wgt id='1901'> +2.8890642E+03 </wgt>
<wgt id='1902'> +2.9032916E+03 </wgt>
<wgt id='1903'> +2.8855818E+03 </wgt>
<wgt id='1904'> +2.8915595E+03 </wgt>
<wgt id='1905'> +2.9039886E+03 </wgt>
<wgt id='1906'> +2.9160742E+03 </wgt>
<wgt id='1907'> +2.8986154E+03 </wgt>
<wgt id='1908'> +2.8909731E+03 </wgt>
<wgt id='1909'> +2.8892732E+03 </wgt>
<wgt id='1910'> +2.8805921E+03 </wgt>
<wgt id='1911'> +2.8938172E+03 </wgt>
<wgt id='1912'> +2.9095006E+03 </wgt>
<wgt id='1913'> +2.8822512E+03 </wgt>
<wgt id='1914'> +2.8918130E+03 </wgt>
<wgt id='1915'> +2.8677677E+03 </wgt>
<wgt id='1916'> +2.9409457E+03 </wgt>
<wgt id='1917'> +2.8759495E+03 </wgt>
<wgt id='1918'> +2.8901544E+03 </wgt>
<wgt id='1919'> +2.8971881E+03 </wgt>
<wgt id='1920'> +2.8564262E+03 </wgt>
<wgt id='1921'> +2.8960045E+03 </wgt>
<wgt id='1922'> +2.8923735E+03 </wgt>
<wgt id='1923'> +2.8683786E+03 </wgt>
<wgt id='1924'> +2.8955829E+03 </wgt>
<wgt id='1925'> +2.8771469E+03 </wgt>
<wgt id='1926'> +2.8895178E+03 </wgt>
<wgt id='1927'> +2.8827060E+03 </wgt>
<wgt id='1928'> +2.8830497E+03 </wgt>
<wgt id='1929'> +2.8961348E+03 </wgt>
<wgt id='1930'> +2.8949182E+03 </wgt>
<wgt id='1931'> +2.8923499E+03 </wgt>
<wgt id='1932'> +2.8936764E+03 </wgt>
<wgt id='1933'> +2.8938893E+03 </wgt>
<wgt id='1934'> +2.9121885E+03 </wgt>
<wgt id='1935'> +2.8953571E+03 </wgt>
<wgt id='1936'> +2.8983784E+03 </wgt>
<wgt id='1937'> +2.8914293E+03 </wgt>
<wgt id='1938'> +2.8839226E+03 </wgt>
<wgt id='1939'> +2.8881124E+03 </wgt>
<wgt id='1940'> +2.8944502E+03 </wgt>
<wgt id='1941'> +2.8892114E+03 </wgt>
<wgt id='1942'> +2.8914910E+03 </wgt>
<wgt id='1943'> +2.8872524E+03 </wgt>
<wgt id='1944'> +2.8904137E+03 </wgt>
<wgt id='1945'> +2.8836021E+03 </wgt>
<wgt id='1946'> +2.8872072E+03 </wgt>
<wgt id='1947'> +2.8811321E+03 </wgt>
<wgt id='1948'> +2.8834615E+03 </wgt>
<wgt id='1949'> +2.8875150E+03 </wgt>
<wgt id='1950'> +2.8882863E+03 </wgt>
<wgt id='1951'> +2.8885882E+03 </wgt>
<wgt id='1952'> +2.8865782E+03 </wgt>
<wgt id='1953'> +2.8888175E+03 </wgt>
<wgt id='1954'> +2.8908067E+03 </wgt>
<wgt id='1955'> +2.8849105E+03 </wgt>
<wgt id='1956'> +2.8909697E+03 </wgt>
<wgt id='1957'> +2.8929022E+03 </wgt>
<wgt id='1958'> +2.8904498E+03 </wgt>
<wgt id='1959'> +2.8897501E+03 </wgt>
<wgt id='1960'> +2.8882587E+03 </wgt>
<wgt id='1961'> +2.8916093E+03 </wgt>
<wgt id='1962'> +2.8889786E+03 </wgt>
<wgt id='1963'> +2.8888435E+03 </wgt>
<wgt id='1964'> +2.8905701E+03 </wgt>
<wgt id='1965'> +2.8901025E+03 </wgt>
<wgt id='1966'> +2.8862209E+03 </wgt>
<wgt id='1967'> +2.8883262E+03 </wgt>
<wgt id='1968'> +2.8897810E+03 </wgt>
<wgt id='1969'> +2.8920567E+03 </wgt>
<wgt id='1970'> +2.8885695E+03 </wgt>
<wgt id='1971'> +2.8888289E+03 </wgt>
<wgt id='1972'> +2.8901525E+03 </wgt>
<wgt id='1973'> +2.8895871E+03 </wgt>
<wgt id='1974'> +2.8881448E+03 </wgt>
<wgt id='1975'> +2.8889562E+03 </wgt>
<wgt id='1976'> +2.8892283E+03 </wgt>
<wgt id='1977'> +2.8902047E+03 </wgt>
<wgt id='1978'> +2.8878484E+03 </wgt>
<wgt id='1979'> +2.8892701E+03 </wgt>
<wgt id='1980'> +2.8896763E+03 </wgt>
<wgt id='1981'> +2.8904590E+03 </wgt>
<wgt id='1982'> +2.8897355E+03 </wgt>
<wgt id='1983'> +2.8900412E+03 </wgt>
<wgt id='1984'> +2.8892077E+03 </wgt>
<wgt id='1985'> +2.8884335E+03 </wgt>
<wgt id='1986'> +2.8884615E+03 </wgt>
<wgt id='1987'> +2.8893482E+03 </wgt>
<wgt id='1988'> +2.8880030E+03 </wgt>
<wgt id='1989'> +2.8877823E+03 </wgt>
<wgt id='1990'> +2.8890908E+03 </wgt>
<wgt id='1991'> +2.8887243E+03 </wgt>
<wgt id='1992'> +2.8896024E+03 </wgt>
<wgt id='1993'> +2.8884203E+03 </wgt>
<wgt id='1994'> +2.8889219E+03 </wgt>
<wgt id='1995'> +2.8881995E+03 </wgt>
<wgt id='1996'> +2.8884421E+03 </wgt>
<wgt id='1997'> +2.8890024E+03 </wgt>
<wgt id='1998'> +2.8893963E+03 </wgt>
<wgt id='1999'> +2.8899267E+03 </wgt>
<wgt id='2000'> +2.8883218E+03 </wgt>
<wgt id='2001'> +2.8884520E+03 </wgt>
<wgt id='2002'> +2.8890545E+03 </wgt>
<wgt id='2003'> +2.8890042E+03 </wgt>
<wgt id='2004'> +2.8890735E+03 </wgt>
<wgt id='2005'> +2.8890754E+03 </wgt>
<wgt id='2006'> +2.8890919E+03 </wgt>
<wgt id='2007'> +2.8890682E+03 </wgt>
<wgt id='2008'> +2.8890247E+03 </wgt>
<wgt id='2009'> +2.7350844E+03 </wgt>
<wgt id='2010'> +2.5610850E+03 </wgt>
<wgt id='2011'> +2.7760940E+03 </wgt>
<wgt id='2012'> +2.8028705E+03 </wgt>
<wgt id='2013'> +2.7885421E+03 </wgt>
<wgt id='2014'> +2.4511726E+03 </wgt>
<wgt id='2015'> +2.6177184E+03 </wgt>
<wgt id='2016'> +2.7829106E+03 </wgt>
<wgt id='2017'> +2.7115084E+03 </wgt>
<wgt id='2018'> +2.7156799E+03 </wgt>
<wgt id='2019'> +2.6607078E+03 </wgt>
<wgt id='2020'> +2.7684943E+03 </wgt>
<wgt id='2021'> +2.6953199E+03 </wgt>
<wgt id='2022'> +2.7886252E+03 </wgt>
<wgt id='2023'> +2.7551587E+03 </wgt>
<wgt id='2024'> +2.7487422E+03 </wgt>
<wgt id='2025'> +2.6562958E+03 </wgt>
<wgt id='2026'> +2.7214047E+03 </wgt>
<wgt id='2027'> +2.6003283E+03 </wgt>
<wgt id='2028'> +2.7817207E+03 </wgt>
<wgt id='2029'> +2.7287362E+03 </wgt>
<wgt id='2030'> +2.8418151E+03 </wgt>
<wgt id='2031'> +2.7660053E+03 </wgt>
<wgt id='2032'> +2.8321301E+03 </wgt>
<wgt id='2033'> +2.7527419E+03 </wgt>
<wgt id='2034'> +2.7672966E+03 </wgt>
<wgt id='2035'> +2.7260317E+03 </wgt>
<wgt id='2036'> +2.7053439E+03 </wgt>
<wgt id='2037'> +2.7641095E+03 </wgt>
<wgt id='2038'> +2.7277212E+03 </wgt>
<wgt id='2039'> +2.7574790E+03 </wgt>
<wgt id='2040'> +2.8298550E+03 </wgt>
<wgt id='2041'> +2.6345109E+03 </wgt>
<wgt id='2042'> +2.7749874E+03 </wgt>
<wgt id='2043'> +2.6813490E+03 </wgt>
<wgt id='2044'> +2.8020930E+03 </wgt>
<wgt id='2045'> +2.7446921E+03 </wgt>
<wgt id='2046'> +2.7156094E+03 </wgt>
<wgt id='2047'> +2.6406427E+03 </wgt>
<wgt id='2048'> +2.7186385E+03 </wgt>
<wgt id='2049'> +2.7695713E+03 </wgt>
<wgt id='2050'> +2.8327319E+03 </wgt>
<wgt id='2051'> +2.7911963E+03 </wgt>
<wgt id='2052'> +2.7492297E+03 </wgt>
<wgt id='2053'> +2.7004621E+03 </wgt>
<wgt id='2054'> +2.7730678E+03 </wgt>
<wgt id='2055'> +2.7143503E+03 </wgt>
<wgt id='2056'> +2.7014358E+03 </wgt>
<wgt id='2057'> +2.7075648E+03 </wgt>
<wgt id='2058'> +2.6828210E+03 </wgt>
<wgt id='2059'> +2.7987638E+03 </wgt>
<wgt id='2060'> +2.8183856E+03 </wgt>
<wgt id='2061'> +2.7002565E+03 </wgt>
<wgt id='2062'> +2.6689798E+03 </wgt>
<wgt id='2063'> +2.7731530E+03 </wgt>
<wgt id='2064'> +2.7458430E+03 </wgt>
<wgt id='2065'> +2.6891752E+03 </wgt>
<wgt id='2066'> +2.8042977E+03 </wgt>
<wgt id='2067'> +2.7829583E+03 </wgt>
<wgt id='2068'> +2.7963122E+03 </wgt>
<wgt id='2069'> +2.7698913E+03 </wgt>
<wgt id='2070'> +2.7180245E+03 </wgt>
<wgt id='2071'> +2.7588216E+03 </wgt>
<wgt id='2072'> +2.6593025E+03 </wgt>
<wgt id='2073'> +2.6713516E+03 </wgt>
<wgt id='2074'> +2.7691374E+03 </wgt>
<wgt id='2075'> +2.7502797E+03 </wgt>
<wgt id='2076'> +2.8398964E+03 </wgt>
<wgt id='2077'> +2.7660874E+03 </wgt>
<wgt id='2078'> +2.7380457E+03 </wgt>
<wgt id='2079'> +2.6960556E+03 </wgt>
<wgt id='2080'> +2.7521636E+03 </wgt>
<wgt id='2081'> +2.6382666E+03 </wgt>
<wgt id='2082'> +2.5671182E+03 </wgt>
<wgt id='2083'> +2.7392568E+03 </wgt>
<wgt id='2084'> +2.7824871E+03 </wgt>
<wgt id='2085'> +2.6034953E+03 </wgt>
<wgt id='2086'> +2.7022162E+03 </wgt>
<wgt id='2087'> +2.7786291E+03 </wgt>
<wgt id='2088'> +2.6994211E+03 </wgt>
<wgt id='2089'> +2.7969608E+03 </wgt>
<wgt id='2090'> +2.8061212E+03 </wgt>
<wgt id='2091'> +2.7768365E+03 </wgt>
<wgt id='2092'> +2.7121135E+03 </wgt>
<wgt id='2093'> +2.7555109E+03 </wgt>
<wgt id='2094'> +2.7494193E+03 </wgt>
<wgt id='2095'> +2.7519263E+03 </wgt>
<wgt id='2096'> +2.7967507E+03 </wgt>
<wgt id='2097'> +2.7925461E+03 </wgt>
<wgt id='2098'> +2.6870531E+03 </wgt>
<wgt id='2099'> +2.8029858E+03 </wgt>
<wgt id='2100'> +2.7737790E+03 </wgt>
<wgt id='2101'> +2.6753157E+03 </wgt>
<wgt id='2102'> +2.6965334E+03 </wgt>
<wgt id='2103'> +2.7874726E+03 </wgt>
<wgt id='2104'> +2.6968593E+03 </wgt>
<wgt id='2105'> +2.7442403E+03 </wgt>
<wgt id='2106'> +2.7726732E+03 </wgt>
<wgt id='2107'> +2.7914308E+03 </wgt>
<wgt id='2108'> +2.7760006E+03 </wgt>
<wgt id='2109'> +2.6710803E+03 </wgt>
<wgt id='2110'> +2.7200773E+03 </wgt>
<wgt id='2111'> +2.7442022E+03 </wgt>
<wgt id='2112'> +2.8640028E+03 </wgt>
<wgt id='2113'> +3.1030574E+03 </wgt>
<wgt id='2114'> +3.0547125E+03 </wgt>
<wgt id='2115'> +2.5779921E+03 </wgt>
<wgt id='2116'> +2.8004484E+03 </wgt>
</rwgt>
</event>
<event>
 5      0 +2.9771057E+03 8.06469800e+01 7.54677100e-03 1.20235400e-01
       -3 -1    0    0    0  501 -0.0000000000e+00 +0.0000000000e+00 +3.1752833466e+02 3.1752833466e+02 0.0000000000e+00 0.0000e+00 1.0000e+00
        4 -1    0    0  501    0 +0.0000000000e+00 -0.0000000000e+00 -5.1207523021e+00 5.1207523021e+00 0.0000000000e+00 0.0000e+00 -1.0000e+00
       24  2    1    2    0    0 +0.0000000000e+00 +0.0000000000e+00 +3.1240758236e+02 3.2264908696e+02 8.0646982602e+01 0.0000e+00 0.0000e+00
      -11  1    3    3    0    0 +2.5598731336e+01 +1.2387007203e+01 +2.7057587569e+02 2.7206623734e+02 0.0000000000e+00 0.0000e+00 1.0000e+00
       12  1    3    3    0    0 -2.5598731336e+01 -1.2387007203e+01 +4.1831706669e+01 5.0582849626e+01 0.0000000000e+00 0.0000e+00 -1.0000e+00
<scales pt_clust_4="13000.00000" pt_clust_5="13000.00000"></scales>
<mgrwt>
<rscale>  0 0.80646983E+02</rscale>
<asrwt>0</asrwt>
<pdfrwt beam="1">  1        4 0.78780830E-03 0.80646983E+02</pdfrwt>
<pdfrwt beam="2">  1       -3 0.48850497E-01 0.80646983E+02</pdfrwt>
<totfact> 0.44724870E+04</totfact>
</mgrwt>
<clustering>
<clus scale="   80.647">  4  5 -1 -1</clus>
<clus scale="   80.647">  2  4  1 -1</clus>
</clustering>
<rwgt>
<wgt id='1001'> +2.9771057E+03 </wgt>
<wgt id='1002'> +2.7269720E+03 </wgt>
<wgt id='1003'> +2.7269720E+03 </wgt>
<wgt id='1004'> +2.2037419E+03 </wgt>
<wgt id='1005'> +2.9771057E+03 </wgt>
<wgt id='1006'> +2.9771057E+03 </wgt>
<wgt id='1007'> +2.7269720E+03 </wgt>
<wgt id='1008'> +2.7269720E+03 </wgt>
<wgt id='1009'> +2.2037419E+03 </wgt>
<wgt id='1010'> +2.9771057E+03 </wgt>
<wgt id='1011'> +2.9771057E+03 </wgt>
<wgt id='1012'> +2.7269720E+03 </wgt>
<wgt id='1013'> +2.7269720E+03 </wgt>
<wgt id='1014'> +2.2037419E+03 </wgt>
<wgt id='1015'> +2.9771057E+03 </wgt>
<wgt id='1016'> +3.4447821E+03 </wgt>
<wgt id='1017'> +3.2139751E+03 </wgt>
<wgt id='1018'> +3.2139751E+03 </wgt>
<wgt id='1019'> +2.7269720E+03 </wgt>
<wgt id='1020'> +3.4447821E+03 </wgt>
<wgt id='1021'> +3.4447821E+03 </wgt>
<wgt id='1022'> +3.2139751E+03 </wgt>
<wgt id='1023'> +3.2139751E+03 </wgt>
<wgt id='1024'> +2.7269720E+03 </wgt>
<wgt id='1025'> +3.4447821E+03 </wgt>
<wgt id='1026'> +3.4447821E+03 </wgt>
<wgt id='1027'> +3.2139751E+03 </wgt>
<wgt id='1028'> +3.2139751E+03 </wgt>
<wgt id='1029'> +2.7269720E+03 </wgt>
<wgt id='1030'> +3.4447821E+03 </wgt>
<wgt id='1031'> +2.4716721E+03 </wgt>
<wgt id='1032'> +2.2037419E+03 </wgt>
<wgt id='1033'> +2.2037419E+03 </wgt>
<wgt id='1034'> +1.6499469E+03 </wgt>
<wgt id='1035'> +2.4716721E+03 </wgt>
<wgt id='1036'> +2.4716721E+03 </wgt>
<wgt id='1037'> +2.2037419E+03 </wgt>
<wgt id='1038'> +2.2037419E+03 </wgt>
<wgt id='1039'> +1.6499469E+03 </wgt>
<wgt id='1040'> +2.4716721E+03 </wgt>
<wgt id='1041'> +2.4716721E+03 </wgt>
<wgt id='1042'> +2.2037419E+03 </wgt>
<wgt id='1043'> +2.2037419E+03 </wgt>
<wgt id='1044'> +1.6499469E+03 </wgt>
<wgt id='1045'> +2.4716721E+03 </wgt>
<wgt id='1046'> +2.9771057E+03 </wgt>
<wgt id='1047'> +2.9775462E+03 </wgt>
<wgt id='1048'> +2.9757617E+03 </wgt>
<wgt id='1049'> +2.9616769E+03 </wgt>
<wgt id='1050'> +2.9703015E+03 </wgt>
<wgt id='1051'> +2.9802472E+03 </wgt>
<wgt id='1052'> +2.9860062E+03 </wgt>
<wgt id='1053'> +2.9858625E+03 </wgt>
<wgt id='1054'> +2.9927063E+03 </wgt>
<wgt id='1055'> +2.9587985E+03 </wgt>
<wgt id='1056'> +2.9784067E+03 </wgt>
<wgt id='1057'> +2.9904298E+03 </wgt>
<wgt id='1058'> +2.9722984E+03 </wgt>
<wgt id='1059'> +2.9887733E+03 </wgt>
<wgt id='1060'> +2.9863606E+03 </wgt>
<wgt id='1061'> +2.9779201E+03 </wgt>
<wgt id='1062'> +2.9634730E+03 </wgt>
<wgt id='1063'> +2.9943209E+03 </wgt>
<wgt id='1064'> +2.9839113E+03 </wgt>
<wgt id='1065'> +2.9682773E+03 </wgt>
<wgt id='1066'> +2.9785776E+03 </wgt>
<wgt id='1067'> +2.9443763E+03 </wgt>
<wgt id='1068'> +2.9743062E+03 </wgt>
<wgt id='1069'> +2.9813940E+03 </wgt>
<wgt id='1070'> +2.9749303E+03 </wgt>
<wgt id='1071'> +2.9676347E+03 </wgt>
<wgt id='1072'> +3.0184078E+03 </wgt>
<wgt id='1073'> +2.9947100E+03 </wgt>
<wgt id='1074'> +2.9718892E+03 </wgt>
<wgt id='1075'> +3.0040094E+03 </wgt>
<wgt id='1076'> +3.0101721E+03 </wgt>
<wgt id='1077'> +2.9462509E+03 </wgt>
<wgt id='1078'> +2.9727690E+03 </wgt>
<wgt id='1079'> +2.9676421E+03 </wgt>
<wgt id='1080'> +2.9851821E+03 </wgt>
<wgt id='1081'> +2.9154225E+03 </wgt>
<wgt id='1082'> +2.9640825E+03 </wgt>
<wgt id='1083'> +3.0224545E+03 </wgt>
<wgt id='1084'> +2.9548441E+03 </wgt>
<wgt id='1085'> +2.9865418E+03 </wgt>
<wgt id='1086'> +2.9934439E+03 </wgt>
<wgt id='1087'> +2.9908671E+03 </wgt>
<wgt id='1088'> +2.9662009E+03 </wgt>
<wgt id='1089'> +2.9511216E+03 </wgt>
<wgt id='1090'> +2.9488223E+03 </wgt>
<wgt id='1091'> +3.0272378E+03 </wgt>
<wgt id='1092'> +2.9703286E+03 </wgt>
<wgt id='1093'> +2.9386233E+03 </wgt>
<wgt id='1094'> +3.0149425E+03 </wgt>
<wgt id='1095'> +2.9805150E+03 </wgt>
<wgt id='1096'> +3.0126604E+03 </wgt>
<wgt id='1097'> +2.9738410E+03 </wgt>
<wgt id='1098'> +2.9864612E+03 </wgt>
<wgt id='1099'> +2.9738702E+03 </wgt>
<wgt id='1100'> +2.9603141E+03 </wgt>
<wgt id='1101'> +2.9692706E+03 </wgt>
<wgt id='1102'> +2.9578429E+03 </wgt>
<wgt id='1103'> +2.9793656E+03 </wgt>
<wgt id='1104'> +2.9694486E+03 </wgt>
<wgt id='1105'> +2.9818136E+03 </wgt>
<wgt id='1106'> +2.9642624E+03 </wgt>
<wgt id='1107'> +2.9555271E+03 </wgt>
<wgt id='1108'> +2.9813772E+03 </wgt>
<wgt id='1109'> +2.9722042E+03 </wgt>
<wgt id='1110'> +2.9786192E+03 </wgt>
<wgt id='1111'> +2.9724775E+03 </wgt>
<wgt id='1112'> +2.9828196E+03 </wgt>
<wgt id='1113'> +2.9725678E+03 </wgt>
<wgt id='1114'> +2.9798167E+03 </wgt>
<wgt id='1115'> +2.9686171E+03 </wgt>
<wgt id='1116'> +2.9763891E+03 </wgt>
<wgt id='1117'> +2.9519883E+03 </wgt>
<wgt id='1118'> +3.0072529E+03 </wgt>
<wgt id='1119'> +2.9744289E+03 </wgt>
<wgt id='1120'> +2.9892797E+03 </wgt>
<wgt id='1121'> +2.9853060E+03 </wgt>
<wgt id='1122'> +2.9740352E+03 </wgt>
<wgt id='1123'> +2.9797088E+03 </wgt>
<wgt id='1124'> +2.9773721E+03 </wgt>
<wgt id='1125'> +2.9837380E+03 </wgt>
<wgt id='1126'> +2.9946372E+03 </wgt>
<wgt id='1127'> +2.9616750E+03 </wgt>
<wgt id='1128'> +2.9691787E+03 </wgt>
<wgt id='1129'> +2.9768947E+03 </wgt>
<wgt id='1130'> +2.9845111E+03 </wgt>
<wgt id='1131'> +2.9700963E+03 </wgt>
<wgt id='1132'> +2.9743583E+03 </wgt>
<wgt id='1133'> +2.9678537E+03 </wgt>
<wgt id='1134'> +2.9721692E+03 </wgt>
<wgt id='1135'> +2.9714450E+03 </wgt>
<wgt id='1136'> +2.9661470E+03 </wgt>
<wgt id='1137'> +2.9682136E+03 </wgt>
<wgt id='1138'> +2.9830379E+03 </wgt>
<wgt id='1139'> +2.9724981E+03 </wgt>
<wgt id='1140'> +2.9733063E+03 </wgt>
<wgt id='1141'> +2.9697023E+03 </wgt>
<wgt id='1142'> +2.9761292E+03 </wgt>
<wgt id='1143'> +2.9853329E+03 </wgt>
<wgt id='1144'> +2.9708024E+03 </wgt>
<wgt id='1145'> +2.9743937E+03 </wgt>
<wgt id='1146'> +2.9759533E+03 </wgt>
<wgt id='1147'> +2.9223850E+03 </wgt>
<wgt id='1148'> +3.0487316E+03 </wgt>
<wgt id='1149'> +2.5877604E+03 </wgt>
<wgt id='1150'> +2.6494357E+03 </wgt>
<wgt id='1151'> +2.7027643E+03 </wgt>
<wgt id='1152'> +2.8051909E+03 </wgt>
<wgt id='1153'> +2.9318426E+03 </wgt>
<wgt id='1154'> +3.0112567E+03 </wgt>
<wgt id='1155'> +3.1197997E+03 </wgt>
<wgt id='1156'> +3.1885225E+03 </wgt>
<wgt id='1157'> +2.7951652E+03 </wgt>
<wgt id='1158'> +2.7914298E+03 </wgt>
<wgt id='1159'> +2.7989865E+03 </wgt>
<wgt id='1160'> +2.7934044E+03 </wgt>
<wgt id='1161'> +2.7868792E+03 </wgt>
<wgt id='1162'> +2.7762428E+03 </wgt>
<wgt id='1163'> +2.7981054E+03 </wgt>
<wgt id='1164'> +2.7827943E+03 </wgt>
<wgt id='1165'> +2.7915895E+03 </wgt>
<wgt id='1166'> +2.7739733E+03 </wgt>
<wgt id='1167'> +2.7976633E+03 </wgt>
<wgt id='1168'> +2.8003435E+03 </wgt>
<wgt id='1169'> +2.7901856E+03 </wgt>
<wgt id='1170'> +2.7871829E+03 </wgt>
<wgt id='1171'> +2.7929906E+03 </wgt>
<wgt id='1172'> +2.8004268E+03 </wgt>
<wgt id='1173'> +2.7946601E+03 </wgt>
<wgt id='1174'> +2.7942085E+03 </wgt>
<wgt id='1175'> +2.7808586E+03 </wgt>
<wgt id='1176'> +2.7855165E+03 </wgt>
<wgt id='1177'> +2.7965609E+03 </wgt>
<wgt id='1178'> +2.7814154E+03 </wgt>
<wgt id='1179'> +2.7925939E+03 </wgt>
<wgt id='1180'> +2.7925073E+03 </wgt>
<wgt id='1181'> +2.7889944E+03 </wgt>
<wgt id='1182'> +2.8115276E+03 </wgt>
<wgt id='1183'> +2.8044679E+03 </wgt>
<wgt id='1184'> +2.7690944E+03 </wgt>
<wgt id='1185'> +2.8000074E+03 </wgt>
<wgt id='1186'> +2.7726392E+03 </wgt>
<wgt id='1187'> +2.7846508E+03 </wgt>
<wgt id='1188'> +2.7854307E+03 </wgt>
<wgt id='1189'> +2.8125700E+03 </wgt>
<wgt id='1190'> +2.7778609E+03 </wgt>
<wgt id='1191'> +2.7944761E+03 </wgt>
<wgt id='1192'> +2.7952899E+03 </wgt>
<wgt id='1193'> +2.8226328E+03 </wgt>
<wgt id='1194'> +2.8118902E+03 </wgt>
<wgt id='1195'> +2.8218535E+03 </wgt>
<wgt id='1196'> +2.7961636E+03 </wgt>
<wgt id='1197'> +2.8074094E+03 </wgt>
<wgt id='1198'> +2.8129276E+03 </wgt>
<wgt id='1199'> +2.8098884E+03 </wgt>
<wgt id='1200'> +2.7956696E+03 </wgt>
<wgt id='1201'> +2.8075080E+03 </wgt>
<wgt id='1202'> +2.7923052E+03 </wgt>
<wgt id='1203'> +2.8105148E+03 </wgt>
<wgt id='1204'> +2.7797258E+03 </wgt>
<wgt id='1205'> +2.7530449E+03 </wgt>
<wgt id='1206'> +2.8104744E+03 </wgt>
<wgt id='1207'> +2.7998172E+03 </wgt>
<wgt id='1208'> +2.7815586E+03 </wgt>
<wgt id='1209'> +2.7984617E+03 </wgt>
<wgt id='1210'> +2.8204401E+03 </wgt>
<wgt id='1211'> +2.7676471E+03 </wgt>
<wgt id='1212'> +2.7908067E+03 </wgt>
<wgt id='1213'> +2.8297264E+03 </wgt>
<wgt id='1214'> +2.7937047E+03 </wgt>
<wgt id='1215'> +2.8235676E+03 </wgt>
<wgt id='1216'> +2.7907777E+03 </wgt>
<wgt id='1217'> +2.7830064E+03 </wgt>
<wgt id='1218'> +2.7979675E+03 </wgt>
<wgt id='1219'> +2.8210267E+03 </wgt>
<wgt id='1220'> +2.8112708E+03 </wgt>
<wgt id='1221'> +2.8033347E+03 </wgt>
<wgt id='1222'> +2.7996325E+03 </wgt>
<wgt id='1223'> +2.8016850E+03 </wgt>
<wgt id='1224'> +2.7852149E+03 </wgt>
<wgt id='1225'> +2.7783566E+03 </wgt>
<wgt id='1226'> +2.7968462E+03 </wgt>
<wgt id='1227'> +2.7864590E+03 </wgt>
<wgt id='1228'> +2.8067373E+03 </wgt>
<wgt id='1229'> +2.7890091E+03 </wgt>
<wgt id='1230'> +2.7704910E+03 </wgt>
<wgt id='1231'> +2.7997105E+03 </wgt>
<wgt id='1232'> +2.7965998E+03 </wgt>
<wgt id='1233'> +2.8076914E+03 </wgt>
<wgt id='1234'> +2.7844541E+03 </wgt>
<wgt id='1235'> +2.7810768E+03 </wgt>
<wgt id='1236'> +2.7977868E+03 </wgt>
<wgt id='1237'> +2.7893839E+03 </wgt>
<wgt id='1238'> +2.7805069E+03 </wgt>
<wgt id='1239'> +2.8001556E+03 </wgt>
<wgt id='1240'> +2.7955093E+03 </wgt>
<wgt id='1241'> +2.7867744E+03 </wgt>
<wgt id='1242'> +2.7908365E+03 </wgt>
<wgt id='1243'> +2.7958958E+03 </wgt>
<wgt id='1244'> +2.8007946E+03 </wgt>
<wgt id='1245'> +2.8022681E+03 </wgt>
<wgt id='1246'> +2.7752770E+03 </wgt>
<wgt id='1247'> +2.7914103E+03 </wgt>
<wgt id='1248'> +2.8086756E+03 </wgt>
<wgt id='1249'> +2.8046927E+03 </wgt>
<wgt id='1250'> +2.7898029E+03 </wgt>
<wgt id='1251'> +2.8005917E+03 </wgt>
<wgt id='1252'> +2.8106002E+03 </wgt>
<wgt id='1253'> +2.7952991E+03 </wgt>
<wgt id='1254'> +2.7834823E+03 </wgt>
<wgt id='1255'> +2.7876602E+03 </wgt>
<wgt id='1256'> +2.8062610E+03 </wgt>
<wgt id='1257'> +2.7907200E+03 </wgt>
<wgt id='1258'> +2.7331927E+03 </wgt>
<wgt id='1259'> +2.8682060E+03 </wgt>
<wgt id='1260'> +3.0725748E+03 </wgt>
<wgt id='1261'> +3.0178411E+03 </wgt>
<wgt id='1262'> +3.0541079E+03 </wgt>
<wgt id='1263'> +3.1257159E+03 </wgt>
<wgt id='1264'> +3.0000937E+03 </wgt>
<wgt id='1265'> +3.0394359E+03 </wgt>
<wgt id='1266'> +3.0955771E+03 </wgt>
<wgt id='1267'> +3.0684260E+03 </wgt>
<wgt id='1268'> +3.0172442E+03 </wgt>
<wgt id='1269'> +3.0697450E+03 </wgt>
<wgt id='1270'> +3.0775948E+03 </wgt>
<wgt id='1271'> +2.8676453E+03 </wgt>
<wgt id='1272'> +3.2614137E+03 </wgt>
<wgt id='1273'> +3.0584460E+03 </wgt>
<wgt id='1274'> +3.0358385E+03 </wgt>
<wgt id='1275'> +3.0749512E+03 </wgt>
<wgt id='1276'> +3.0512721E+03 </wgt>
<wgt id='1277'> +3.1039686E+03 </wgt>
<wgt id='1278'> +3.0400236E+03 </wgt>
<wgt id='1279'> +3.0469652E+03 </wgt>
<wgt id='1280'> +3.0988999E+03 </wgt>
<wgt id='1281'> +3.0774993E+03 </wgt>
<wgt id='1282'> +3.0691567E+03 </wgt>
<wgt id='1283'> +3.0577945E+03 </wgt>
<wgt id='1284'> +3.0877135E+03 </wgt>
<wgt id='1285'> +3.0815009E+03 </wgt>
<wgt id='1286'> +3.0649200E+03 </wgt>
<wgt id='1287'> +3.0832212E+03 </wgt>
<wgt id='1288'> +3.0530385E+03 </wgt>
<wgt id='1289'> +3.0406000E+03 </wgt>
<wgt id='1290'> +3.0907205E+03 </wgt>
<wgt id='1291'> +3.0464008E+03 </wgt>
<wgt id='1292'> +3.1085745E+03 </wgt>
<wgt id='1293'> +3.0412413E+03 </wgt>
<wgt id='1294'> +3.0997005E+03 </wgt>
<wgt id='1295'> +3.0406700E+03 </wgt>
<wgt id='1296'> +3.1014313E+03 </wgt>
<wgt id='1297'> +3.0781978E+03 </wgt>
<wgt id='1298'> +3.0663566E+03 </wgt>
<wgt id='1299'> +2.5815199E+03 </wgt>
<wgt id='1300'> +3.4912663E+03 </wgt>
<wgt id='1301'> +2.9929505E+03 </wgt>
<wgt id='1302'> +3.1032374E+03 </wgt>
<wgt id='1303'> +3.1037141E+03 </wgt>
<wgt id='1304'> +3.0066851E+03 </wgt>
<wgt id='1305'> +3.0602155E+03 </wgt>
<wgt id='1306'> +3.1146067E+03 </wgt>
<wgt id='1307'> +3.0831248E+03 </wgt>
<wgt id='1308'> +3.0967576E+03 </wgt>
<wgt id='1309'> +3.0512155E+03 </wgt>
<wgt id='1310'> +3.1240449E+03 </wgt>
<wgt id='1311'> +3.1003190E+03 </wgt>
<wgt id='1312'> +3.0633140E+03 </wgt>
<wgt id='1313'> +3.0545019E+03 </wgt>
<wgt id='1314'> +3.1116057E+03 </wgt>
<wgt id='1315'> +3.1432238E+03 </wgt>
<wgt id='1316'> +2.6262966E+03 </wgt>
<wgt id='1317'> +2.9980137E+03 </wgt>
<wgt id='1318'> +3.1355735E+03 </wgt>
<wgt id='1319'> +3.0140885E+03 </wgt>
<wgt id='1320'> +3.0224985E+03 </wgt>
<wgt id='1321'> +3.0306920E+03 </wgt>
<wgt id='1322'> +3.0745079E+03 </wgt>
<wgt id='1323'> +2.9895105E+03 </wgt>
<wgt id='1324'> +3.0940723E+03 </wgt>
<wgt id='1325'> +2.9672035E+03 </wgt>
<wgt id='1326'> +2.9706168E+03 </wgt>
<wgt id='1327'> +3.0712939E+03 </wgt>
<wgt id='1328'> +2.9878695E+03 </wgt>
<wgt id='1329'> +3.0062552E+03 </wgt>
<wgt id='1330'> +2.9003155E+03 </wgt>
<wgt id='1331'> +3.1071319E+03 </wgt>
<wgt id='1332'> +3.0184777E+03 </wgt>
<wgt id='1333'> +2.9783595E+03 </wgt>
<wgt id='1334'> +2.5939336E+03 </wgt>
<wgt id='1335'> +3.4592551E+03 </wgt>
<wgt id='1336'> +2.9619843E+03 </wgt>
<wgt id='1337'> +3.0727490E+03 </wgt>
<wgt id='1338'> +2.9642282E+03 </wgt>
<wgt id='1339'> +3.0646170E+03 </wgt>
<wgt id='1340'> +2.9374177E+03 </wgt>
<wgt id='1341'> +3.1620667E+03 </wgt>
<wgt id='1342'> +3.0097450E+03 </wgt>
<wgt id='1343'> +3.0132008E+03 </wgt>
<wgt id='1344'> +3.0119283E+03 </wgt>
<wgt id='1345'> +3.0187456E+03 </wgt>
<wgt id='1346'> +3.0021796E+03 </wgt>
<wgt id='1347'> +3.0274147E+03 </wgt>
<wgt id='1348'> +3.0366741E+03 </wgt>
<wgt id='1349'> +3.0059570E+03 </wgt>
<wgt id='1350'> +3.0012407E+03 </wgt>
<wgt id='1351'> +3.0298679E+03 </wgt>
<wgt id='1352'> +3.0277330E+03 </wgt>
<wgt id='1353'> +2.9827411E+03 </wgt>
<wgt id='1354'> +3.0379601E+03 </wgt>
<wgt id='1355'> +2.9914876E+03 </wgt>
<wgt id='1356'> +3.0552530E+03 </wgt>
<wgt id='1357'> +2.9343490E+03 </wgt>
<wgt id='1358'> +3.1757054E+03 </wgt>
<wgt id='1359'> +2.8469163E+03 </wgt>
<wgt id='1360'> +3.0096456E+03 </wgt>
<wgt id='1361'> +3.0242176E+03 </wgt>
<wgt id='1362'> +2.9522907E+03 </wgt>
<wgt id='1363'> +3.0587790E+03 </wgt>
<wgt id='1364'> +2.8593115E+03 </wgt>
<wgt id='1365'> +3.1029075E+03 </wgt>
<wgt id='1366'> +3.0262058E+03 </wgt>
<wgt id='1367'> +2.9692647E+03 </wgt>
<wgt id='1368'> +3.0443872E+03 </wgt>
<wgt id='1369'> +2.9192097E+03 </wgt>
<wgt id='1370'> +2.9846478E+03 </wgt>
<wgt id='1371'> +2.9807383E+03 </wgt>
<wgt id='1372'> +2.9312885E+03 </wgt>
<wgt id='1373'> +2.9781702E+03 </wgt>
<wgt id='1374'> +3.0134779E+03 </wgt>
<wgt id='1375'> +2.7066846E+03 </wgt>
<wgt id='1376'> +2.9312301E+03 </wgt>
<wgt id='1377'> +3.0912379E+03 </wgt>
<wgt id='1378'> +2.1414133E+03 </wgt>
<wgt id='1379'> +3.0834965E+03 </wgt>
<wgt id='1380'> +3.0839484E+03 </wgt>
<wgt id='1381'> +3.0830145E+03 </wgt>
<wgt id='1382'> +3.0739661E+03 </wgt>
<wgt id='1383'> +3.0899940E+03 </wgt>
<wgt id='1384'> +3.0691011E+03 </wgt>
<wgt id='1385'> +3.0969788E+03 </wgt>
<wgt id='1386'> +3.0839039E+03 </wgt>
<wgt id='1387'> +3.0829818E+03 </wgt>
<wgt id='1388'> +3.0757458E+03 </wgt>
<wgt id='1389'> +3.0908357E+03 </wgt>
<wgt id='1390'> +3.1148178E+03 </wgt>
<wgt id='1391'> +3.0158851E+03 </wgt>
<wgt id='1392'> +3.1025474E+03 </wgt>
<wgt id='1393'> +3.0493799E+03 </wgt>
<wgt id='1394'> +3.1000643E+03 </wgt>
<wgt id='1395'> +3.0739748E+03 </wgt>
<wgt id='1396'> +3.1418935E+03 </wgt>
<wgt id='1397'> +3.0150901E+03 </wgt>
<wgt id='1398'> +3.2507506E+03 </wgt>
<wgt id='1399'> +2.9390811E+03 </wgt>
<wgt id='1400'> +3.0874373E+03 </wgt>
<wgt id='1401'> +3.0784317E+03 </wgt>
<wgt id='1402'> +3.0597043E+03 </wgt>
<wgt id='1403'> +3.1010985E+03 </wgt>
<wgt id='1404'> +3.0790441E+03 </wgt>
<wgt id='1405'> +3.0705567E+03 </wgt>
<wgt id='1406'> +3.1034808E+03 </wgt>
<wgt id='1407'> +3.0791033E+03 </wgt>
<wgt id='1408'> +3.1081719E+03 </wgt>
<wgt id='1409'> +3.0541792E+03 </wgt>
<wgt id='1410'> +3.0791872E+03 </wgt>
<wgt id='1411'> +3.0853136E+03 </wgt>
<wgt id='1412'> +3.0922770E+03 </wgt>
<wgt id='1413'> +3.0739054E+03 </wgt>
<wgt id='1414'> +3.0867757E+03 </wgt>
<wgt id='1415'> +3.0852048E+03 </wgt>
<wgt id='1416'> +3.1043128E+03 </wgt>
<wgt id='1417'> +3.0732774E+03 </wgt>
<wgt id='1418'> +3.1126917E+03 </wgt>
<wgt id='1419'> +3.0544051E+03 </wgt>
<wgt id='1420'> +3.2204570E+03 </wgt>
<wgt id='1421'> +2.8695037E+03 </wgt>
<wgt id='1422'> +2.9990569E+03 </wgt>
<wgt id='1423'> +3.0540624E+03 </wgt>
<wgt id='1424'> +3.1925502E+03 </wgt>
<wgt id='1425'> +2.8329694E+03 </wgt>
<wgt id='1426'> +3.0732664E+03 </wgt>
<wgt id='1427'> +3.1040562E+03 </wgt>
<wgt id='1428'> +3.0859929E+03 </wgt>
<wgt id='1429'> +3.0821965E+03 </wgt>
<wgt id='1430'> +2.9140986E+03 </wgt>
<wgt id='1431'> +2.9149362E+03 </wgt>
<wgt id='1432'> +2.9127064E+03 </wgt>
<wgt id='1433'> +2.9149335E+03 </wgt>
<wgt id='1434'> +2.9133507E+03 </wgt>
<wgt id='1435'> +2.8958189E+03 </wgt>
<wgt id='1436'> +2.9215065E+03 </wgt>
<wgt id='1437'> +2.9060462E+03 </wgt>
<wgt id='1438'> +2.9220177E+03 </wgt>
<wgt id='1439'> +2.8973703E+03 </wgt>
<wgt id='1440'> +2.9300659E+03 </wgt>
<wgt id='1441'> +2.8244340E+03 </wgt>
<wgt id='1442'> +2.9531355E+03 </wgt>
<wgt id='1443'> +2.9119952E+03 </wgt>
<wgt id='1444'> +2.9168178E+03 </wgt>
<wgt id='1445'> +2.9373278E+03 </wgt>
<wgt id='1446'> +2.8889911E+03 </wgt>
<wgt id='1447'> +3.0545589E+03 </wgt>
<wgt id='1448'> +2.8333066E+03 </wgt>
<wgt id='1449'> +2.7905875E+03 </wgt>
<wgt id='1450'> +3.0811575E+03 </wgt>
<wgt id='1451'> +3.0572138E+03 </wgt>
<wgt id='1452'> +2.8142383E+03 </wgt>
<wgt id='1453'> +2.8758775E+03 </wgt>
<wgt id='1454'> +2.9467967E+03 </wgt>
<wgt id='1455'> +2.9174414E+03 </wgt>
<wgt id='1456'> +2.9064643E+03 </wgt>
<wgt id='1457'> +2.9350453E+03 </wgt>
<wgt id='1458'> +2.9087395E+03 </wgt>
<wgt id='1459'> +2.9048413E+03 </wgt>
<wgt id='1460'> +2.9314654E+03 </wgt>
<wgt id='1461'> +2.9052429E+03 </wgt>
<wgt id='1462'> +2.9334516E+03 </wgt>
<wgt id='1463'> +2.9170075E+03 </wgt>
<wgt id='1464'> +2.9131655E+03 </wgt>
<wgt id='1465'> +2.9125955E+03 </wgt>
<wgt id='1466'> +2.9185758E+03 </wgt>
<wgt id='1467'> +2.9190906E+03 </wgt>
<wgt id='1468'> +2.9139306E+03 </wgt>
<wgt id='1469'> +2.9529112E+03 </wgt>
<wgt id='1470'> +2.8891476E+03 </wgt>
<wgt id='1471'> +2.7789219E+03 </wgt>
<wgt id='1472'> +3.1122584E+03 </wgt>
<wgt id='1473'> +2.9088125E+03 </wgt>
<wgt id='1474'> +2.9347578E+03 </wgt>
<wgt id='1475'> +2.9482118E+03 </wgt>
<wgt id='1476'> +2.8765119E+03 </wgt>
<wgt id='1477'> +2.7234098E+03 </wgt>
<wgt id='1478'> +3.0084200E+03 </wgt>
<wgt id='1479'> +2.8881500E+03 </wgt>
<wgt id='1480'> +2.9317525E+03 </wgt>
<wgt id='1481'> +2.7181466E+03 </wgt>
<wgt id='1482'> +3.2759561E+03 </wgt>
<wgt id='1483'> +3.2751509E+03 </wgt>
<wgt id='1484'> +3.2758443E+03 </wgt>
<wgt id='1485'> +3.2726903E+03 </wgt>
<wgt id='1486'> +3.2761988E+03 </wgt>
<wgt id='1487'> +3.2921201E+03 </wgt>
<wgt id='1488'> +3.2946397E+03 </wgt>
<wgt id='1489'> +3.2422709E+03 </wgt>
<wgt id='1490'> +3.2839199E+03 </wgt>
<wgt id='1491'> +3.2753229E+03 </wgt>
<wgt id='1492'> +3.2673942E+03 </wgt>
<wgt id='1493'> +3.2741422E+03 </wgt>
<wgt id='1494'> +3.2635815E+03 </wgt>
<wgt id='1495'> +3.2803036E+03 </wgt>
<wgt id='1496'> +3.2618364E+03 </wgt>
<wgt id='1497'> +3.2794435E+03 </wgt>
<wgt id='1498'> +3.2735630E+03 </wgt>
<wgt id='1499'> +3.2765636E+03 </wgt>
<wgt id='1500'> +3.2734830E+03 </wgt>
<wgt id='1501'> +3.2809393E+03 </wgt>
<wgt id='1502'> +3.2666380E+03 </wgt>
<wgt id='1503'> +3.2883711E+03 </wgt>
<wgt id='1504'> +3.2716158E+03 </wgt>
<wgt id='1505'> +3.2800150E+03 </wgt>
<wgt id='1506'> +3.2867604E+03 </wgt>
<wgt id='1507'> +3.2864580E+03 </wgt>
<wgt id='1508'> +3.2749253E+03 </wgt>
<wgt id='1509'> +3.2718064E+03 </wgt>
<wgt id='1510'> +3.2769638E+03 </wgt>
<wgt id='1511'> +3.2487360E+03 </wgt>
<wgt id='1512'> +2.9260177E+03 </wgt>
<wgt id='1513'> +2.9334766E+03 </wgt>
<wgt id='1514'> +2.9113137E+03 </wgt>
<wgt id='1515'> +2.8763059E+03 </wgt>
<wgt id='1516'> +2.9509972E+03 </wgt>
<wgt id='1517'> +2.9098922E+03 </wgt>
<wgt id='1518'> +2.9347514E+03 </wgt>
<wgt id='1519'> +2.9641801E+03 </wgt>
<wgt id='1520'> +3.0142516E+03 </wgt>
<wgt id='1521'> +2.8889647E+03 </wgt>
<wgt id='1522'> +2.8766405E+03 </wgt>
<wgt id='1523'> +2.9824256E+03 </wgt>
<wgt id='1524'> +2.9366703E+03 </wgt>
<wgt id='1525'> +2.8793958E+03 </wgt>
<wgt id='1526'> +3.0317381E+03 </wgt>
<wgt id='1527'> +2.8732660E+03 </wgt>
<wgt id='1528'> +3.0821689E+03 </wgt>
<wgt id='1529'> +2.8671744E+03 </wgt>
<wgt id='1530'> +2.8447228E+03 </wgt>
<wgt id='1531'> +3.0153401E+03 </wgt>
<wgt id='1532'> +3.0145809E+03 </wgt>
<wgt id='1533'> +2.8993429E+03 </wgt>
<wgt id='1534'> +2.8867735E+03 </wgt>
<wgt id='1535'> +2.8411140E+03 </wgt>
<wgt id='1536'> +2.9199844E+03 </wgt>
<wgt id='1537'> +2.9476935E+03 </wgt>
<wgt id='1538'> +2.9420266E+03 </wgt>
<wgt id='1539'> +2.8621939E+03 </wgt>
<wgt id='1540'> +2.9070064E+03 </wgt>
<wgt id='1541'> +2.9516624E+03 </wgt>
<wgt id='1542'> +2.9252695E+03 </wgt>
<wgt id='1543'> +2.9186307E+03 </wgt>
<wgt id='1544'> +2.9125003E+03 </wgt>
<wgt id='1545'> +2.9091582E+03 </wgt>
<wgt id='1546'> +2.9291359E+03 </wgt>
<wgt id='1547'> +2.9293982E+03 </wgt>
<wgt id='1548'> +2.9411177E+03 </wgt>
<wgt id='1549'> +2.9410860E+03 </wgt>
<wgt id='1550'> +2.9005721E+03 </wgt>
<wgt id='1551'> +2.8997069E+03 </wgt>
<wgt id='1552'> +2.9247614E+03 </wgt>
<wgt id='1553'> +2.9267900E+03 </wgt>
<wgt id='1554'> +2.9296244E+03 </wgt>
<wgt id='1555'> +2.9146961E+03 </wgt>
<wgt id='1556'> +2.9429374E+03 </wgt>
<wgt id='1557'> +2.9216515E+03 </wgt>
<wgt id='1558'> +2.9378521E+03 </wgt>
<wgt id='1559'> +2.9426289E+03 </wgt>
<wgt id='1560'> +2.9219405E+03 </wgt>
<wgt id='1561'> +2.9324285E+03 </wgt>
<wgt id='1562'> +2.9275752E+03 </wgt>
<wgt id='1563'> +2.9054857E+03 </wgt>
<wgt id='1564'> +2.9391945E+03 </wgt>
<wgt id='1565'> +2.9031719E+03 </wgt>
<wgt id='1566'> +2.9064297E+03 </wgt>
<wgt id='1567'> +2.9549156E+03 </wgt>
<wgt id='1568'> +2.9471130E+03 </wgt>
<wgt id='1569'> +2.9310140E+03 </wgt>
<wgt id='1570'> +2.9224783E+03 </wgt>
<wgt id='1571'> +2.9202443E+03 </wgt>
<wgt id='1572'> +2.9198262E+03 </wgt>
<wgt id='1573'> +2.9172589E+03 </wgt>
<wgt id='1574'> +2.9156253E+03 </wgt>
<wgt id='1575'> +2.9186522E+03 </wgt>
<wgt id='1576'> +2.9226426E+03 </wgt>
<wgt id='1577'> +2.9214456E+03 </wgt>
<wgt id='1578'> +2.9351876E+03 </wgt>
<wgt id='1579'> +2.9256508E+03 </wgt>
<wgt id='1580'> +2.9199518E+03 </wgt>
<wgt id='1581'> +2.9174592E+03 </wgt>
<wgt id='1582'> +2.9192614E+03 </wgt>
<wgt id='1583'> +2.9122792E+03 </wgt>
<wgt id='1584'> +2.9210461E+03 </wgt>
<wgt id='1585'> +2.9291528E+03 </wgt>
<wgt id='1586'> +2.9210428E+03 </wgt>
<wgt id='1587'> +2.9237763E+03 </wgt>
<wgt id='1588'> +2.9300101E+03 </wgt>
<wgt id='1589'> +2.9274457E+03 </wgt>
<wgt id='1590'> +2.9317421E+03 </wgt>
<wgt id='1591'> +2.9331360E+03 </wgt>
<wgt id='1592'> +2.9279313E+03 </wgt>
<wgt id='1593'> +2.9280608E+03 </wgt>
<wgt id='1594'> +2.9312586E+03 </wgt>
<wgt id='1595'> +2.9271222E+03 </wgt>
<wgt id='1596'> +2.9217892E+03 </wgt>
<wgt id='1597'> +2.9263020E+03 </wgt>
<wgt id='1598'> +2.9285859E+03 </wgt>
<wgt id='1599'> +2.9302934E+03 </wgt>
<wgt id='1600'> +2.9276496E+03 </wgt>
<wgt id='1601'> +2.9249563E+03 </wgt>
<wgt id='1602'> +2.9226736E+03 </wgt>
<wgt id='1603'> +2.9223049E+03 </wgt>
<wgt id='1604'> +2.9261684E+03 </wgt>
<wgt id='1605'> +2.9263282E+03 </wgt>
<wgt id='1606'> +2.9272430E+03 </wgt>
<wgt id='1607'> +2.9212205E+03 </wgt>
<wgt id='1608'> +2.9253154E+03 </wgt>
<wgt id='1609'> +2.9292266E+03 </wgt>
<wgt id='1610'> +2.9264646E+03 </wgt>
<wgt id='1611'> +2.9257762E+03 </wgt>
<wgt id='1612'> +2.9266499E+03 </wgt>
<wgt id='1613'> +2.8631342E+03 </wgt>
<wgt id='1614'> +2.9975572E+03 </wgt>
<wgt id='1615'> +2.8904057E+03 </wgt>
<wgt id='1616'> +2.9375433E+03 </wgt>
<wgt id='1617'> +2.8535836E+03 </wgt>
<wgt id='1618'> +2.9439035E+03 </wgt>
<wgt id='1619'> +2.8773285E+03 </wgt>
<wgt id='1620'> +2.8468334E+03 </wgt>
<wgt id='1621'> +2.8904643E+03 </wgt>
<wgt id='1622'> +2.8705008E+03 </wgt>
<wgt id='1623'> +2.8971284E+03 </wgt>
<wgt id='1624'> +2.9115800E+03 </wgt>
<wgt id='1625'> +2.9516559E+03 </wgt>
<wgt id='1626'> +2.8064839E+03 </wgt>
<wgt id='1627'> +2.8696859E+03 </wgt>
<wgt id='1628'> +2.9349102E+03 </wgt>
<wgt id='1629'> +2.8471611E+03 </wgt>
<wgt id='1630'> +2.8612159E+03 </wgt>
<wgt id='1631'> +2.8428867E+03 </wgt>
<wgt id='1632'> +2.9914239E+03 </wgt>
<wgt id='1633'> +2.7831311E+03 </wgt>
<wgt id='1634'> +2.9418357E+03 </wgt>
<wgt id='1635'> +2.8940477E+03 </wgt>
<wgt id='1636'> +2.9070610E+03 </wgt>
<wgt id='1637'> +3.0011637E+03 </wgt>
<wgt id='1638'> +2.9791207E+03 </wgt>
<wgt id='1639'> +2.8384086E+03 </wgt>
<wgt id='1640'> +2.8670025E+03 </wgt>
<wgt id='1641'> +2.9636271E+03 </wgt>
<wgt id='1642'> +2.8587196E+03 </wgt>
<wgt id='1643'> +2.9123003E+03 </wgt>
<wgt id='1644'> +2.9257286E+03 </wgt>
<wgt id='1645'> +2.8971943E+03 </wgt>
<wgt id='1646'> +2.9271429E+03 </wgt>
<wgt id='1647'> +2.8742649E+03 </wgt>
<wgt id='1648'> +2.9118210E+03 </wgt>
<wgt id='1649'> +2.8676179E+03 </wgt>
<wgt id='1650'> +2.8922405E+03 </wgt>
<wgt id='1651'> +2.8834901E+03 </wgt>
<wgt id='1652'> +2.9392416E+03 </wgt>
<wgt id='1653'> +2.8942003E+03 </wgt>
<wgt id='1654'> +2.8698758E+03 </wgt>
<wgt id='1655'> +2.9012284E+03 </wgt>
<wgt id='1656'> +2.8690369E+03 </wgt>
<wgt id='1657'> +2.8808308E+03 </wgt>
<wgt id='1658'> +2.9123313E+03 </wgt>
<wgt id='1659'> +2.9018096E+03 </wgt>
<wgt id='1660'> +2.8925711E+03 </wgt>
<wgt id='1661'> +2.8681670E+03 </wgt>
<wgt id='1662'> +2.8884307E+03 </wgt>
<wgt id='1663'> +2.8836887E+03 </wgt>
<wgt id='1664'> +2.8783207E+03 </wgt>
<wgt id='1665'> +2.8753965E+03 </wgt>
<wgt id='1666'> +2.8820123E+03 </wgt>
<wgt id='1667'> +2.8910549E+03 </wgt>
<wgt id='1668'> +2.8794881E+03 </wgt>
<wgt id='1669'> +2.8825992E+03 </wgt>
<wgt id='1670'> +2.9150464E+03 </wgt>
<wgt id='1671'> +2.8821909E+03 </wgt>
<wgt id='1672'> +2.8835915E+03 </wgt>
<wgt id='1673'> +2.8826172E+03 </wgt>
<wgt id='1674'> +2.8901963E+03 </wgt>
<wgt id='1675'> +2.8856771E+03 </wgt>
<wgt id='1676'> +2.8946605E+03 </wgt>
<wgt id='1677'> +2.8926973E+03 </wgt>
<wgt id='1678'> +2.8836796E+03 </wgt>
<wgt id='1679'> +2.8924808E+03 </wgt>
<wgt id='1680'> +2.8815706E+03 </wgt>
<wgt id='1681'> +2.8939970E+03 </wgt>
<wgt id='1682'> +2.8861099E+03 </wgt>
<wgt id='1683'> +2.9067326E+03 </wgt>
<wgt id='1684'> +2.9033828E+03 </wgt>
<wgt id='1685'> +2.9038205E+03 </wgt>
<wgt id='1686'> +2.8908719E+03 </wgt>
<wgt id='1687'> +2.8986854E+03 </wgt>
<wgt id='1688'> +2.8750144E+03 </wgt>
<wgt id='1689'> +2.8968175E+03 </wgt>
<wgt id='1690'> +2.8922744E+03 </wgt>
<wgt id='1691'> +2.8860018E+03 </wgt>
<wgt id='1692'> +2.8882473E+03 </wgt>
<wgt id='1693'> +2.8836249E+03 </wgt>
<wgt id='1694'> +2.8879832E+03 </wgt>
<wgt id='1695'> +2.8969506E+03 </wgt>
<wgt id='1696'> +2.8916884E+03 </wgt>
<wgt id='1697'> +2.8899806E+03 </wgt>
<wgt id='1698'> +2.8898029E+03 </wgt>
<wgt id='1699'> +2.8897510E+03 </wgt>
<wgt id='1700'> +2.8933821E+03 </wgt>
<wgt id='1701'> +2.8912586E+03 </wgt>
<wgt id='1702'> +2.8898275E+03 </wgt>
<wgt id='1703'> +2.8852711E+03 </wgt>
<wgt id='1704'> +2.8910061E+03 </wgt>
<wgt id='1705'> +2.8947183E+03 </wgt>
<wgt id='1706'> +2.8889134E+03 </wgt>
<wgt id='1707'> +2.8911318E+03 </wgt>
<wgt id='1708'> +2.8884734E+03 </wgt>
<wgt id='1709'> +2.8913131E+03 </wgt>
<wgt id='1710'> +2.8912002E+03 </wgt>
<wgt id='1711'> +2.8919745E+03 </wgt>
<wgt id='1712'> +2.8899504E+03 </wgt>
<wgt id='1713'> +2.8921812E+03 </wgt>
<wgt id='1714'> +2.8907080E+03 </wgt>
<wgt id='1715'> +2.8926424E+03 </wgt>
<wgt id='1716'> +2.8398138E+03 </wgt>
<wgt id='1717'> +2.9372080E+03 </wgt>
<wgt id='1718'> +2.9259289E+03 </wgt>
<wgt id='1719'> +2.8795308E+03 </wgt>
<wgt id='1720'> +3.2216832E+03 </wgt>
<wgt id='1721'> +2.9262462E+03 </wgt>
<wgt id='1722'> +2.9822606E+03 </wgt>
<wgt id='1723'> +2.9301474E+03 </wgt>
<wgt id='1724'> +2.9102406E+03 </wgt>
<wgt id='1725'> +2.9264562E+03 </wgt>
<wgt id='1726'> +2.9238079E+03 </wgt>
<wgt id='1727'> +2.9316218E+03 </wgt>
<wgt id='1728'> +2.9103296E+03 </wgt>
<wgt id='1729'> +2.9359346E+03 </wgt>
<wgt id='1730'> +2.9139124E+03 </wgt>
<wgt id='1731'> +2.9215199E+03 </wgt>
<wgt id='1732'> +2.9359430E+03 </wgt>
<wgt id='1733'> +2.9490252E+03 </wgt>
<wgt id='1734'> +2.9417227E+03 </wgt>
<wgt id='1735'> +2.8651131E+03 </wgt>
<wgt id='1736'> +2.9283794E+03 </wgt>
<wgt id='1737'> +2.9234286E+03 </wgt>
<wgt id='1738'> +2.9049255E+03 </wgt>
<wgt id='1739'> +2.9647978E+03 </wgt>
<wgt id='1740'> +2.9182540E+03 </wgt>
<wgt id='1741'> +2.9255170E+03 </wgt>
<wgt id='1742'> +2.9164022E+03 </wgt>
<wgt id='1743'> +2.9290904E+03 </wgt>
<wgt id='1744'> +2.9152402E+03 </wgt>
<wgt id='1745'> +2.9384990E+03 </wgt>
<wgt id='1746'> +2.9104641E+03 </wgt>
<wgt id='1747'> +2.9201693E+03 </wgt>
<wgt id='1748'> +2.9304532E+03 </wgt>
<wgt id='1749'> +2.8631342E+03 </wgt>
<wgt id='1750'> +2.9975572E+03 </wgt>
<wgt id='1751'> +2.8903239E+03 </wgt>
<wgt id='1752'> +2.9881666E+03 </wgt>
<wgt id='1753'> +2.8232910E+03 </wgt>
<wgt id='1754'> +2.9004448E+03 </wgt>
<wgt id='1755'> +2.8325003E+03 </wgt>
<wgt id='1756'> +2.8845722E+03 </wgt>
<wgt id='1757'> +2.9041618E+03 </wgt>
<wgt id='1758'> +2.9085071E+03 </wgt>
<wgt id='1759'> +2.8875004E+03 </wgt>
<wgt id='1760'> +3.0449163E+03 </wgt>
<wgt id='1761'> +2.8941825E+03 </wgt>
<wgt id='1762'> +2.7776633E+03 </wgt>
<wgt id='1763'> +2.8855142E+03 </wgt>
<wgt id='1764'> +2.8880555E+03 </wgt>
<wgt id='1765'> +2.9120430E+03 </wgt>
<wgt id='1766'> +2.8815237E+03 </wgt>
<wgt id='1767'> +2.8892719E+03 </wgt>
<wgt id='1768'> +2.9106085E+03 </wgt>
<wgt id='1769'> +2.9000386E+03 </wgt>
<wgt id='1770'> +2.8887960E+03 </wgt>
<wgt id='1771'> +2.9337470E+03 </wgt>
<wgt id='1772'> +2.9108279E+03 </wgt>
<wgt id='1773'> +2.8124460E+03 </wgt>
<wgt id='1774'> +2.8903965E+03 </wgt>
<wgt id='1775'> +2.8637455E+03 </wgt>
<wgt id='1776'> +2.9040849E+03 </wgt>
<wgt id='1777'> +2.9362765E+03 </wgt>
<wgt id='1778'> +2.8540225E+03 </wgt>
<wgt id='1779'> +2.8591146E+03 </wgt>
<wgt id='1780'> +2.9319346E+03 </wgt>
<wgt id='1781'> +2.8948054E+03 </wgt>
<wgt id='1782'> +2.8398138E+03 </wgt>
<wgt id='1783'> +2.9372080E+03 </wgt>
<wgt id='1784'> +3.3626254E+03 </wgt>
<wgt id='1785'> +3.3649703E+03 </wgt>
<wgt id='1786'> +3.3602752E+03 </wgt>
<wgt id='1787'> +3.3662784E+03 </wgt>
<wgt id='1788'> +3.3589351E+03 </wgt>
<wgt id='1789'> +3.3672212E+03 </wgt>
<wgt id='1790'> +3.3580198E+03 </wgt>
<wgt id='1791'> +3.3461304E+03 </wgt>
<wgt id='1792'> +3.3789493E+03 </wgt>
<wgt id='1793'> +3.3783362E+03 </wgt>
<wgt id='1794'> +3.3470368E+03 </wgt>
<wgt id='1795'> +3.3639134E+03 </wgt>
<wgt id='1796'> +3.3593495E+03 </wgt>
<wgt id='1797'> +3.3631527E+03 </wgt>
<wgt id='1798'> +3.3619266E+03 </wgt>
<wgt id='1799'> +3.3625225E+03 </wgt>
<wgt id='1800'> +3.3689915E+03 </wgt>
<wgt id='1801'> +3.3567550E+03 </wgt>
<wgt id='1802'> +3.3628215E+03 </wgt>
<wgt id='1803'> +3.3685890E+03 </wgt>
<wgt id='1804'> +3.3586627E+03 </wgt>
<wgt id='1805'> +3.3350080E+03 </wgt>
<wgt id='1806'> +3.3861932E+03 </wgt>
<wgt id='1807'> +3.4139999E+03 </wgt>
<wgt id='1808'> +3.2993975E+03 </wgt>
<wgt id='1809'> +3.3647259E+03 </wgt>
<wgt id='1810'> +3.3659044E+03 </wgt>
<wgt id='1811'> +3.3681720E+03 </wgt>
<wgt id='1812'> +3.3604349E+03 </wgt>
<wgt id='1813'> +3.3626254E+03 </wgt>
<wgt id='1814'> +2.9595805E+03 </wgt>
<wgt id='1815'> +3.8052029E+03 </wgt>
<wgt id='1816'> +2.4282252E+03 </wgt>
<wgt id='1817'> +2.8561574E+03 </wgt>
<wgt id='1818'> +3.3625058E+03 </wgt>
<wgt id='1819'> +3.3732570E+03 </wgt>
<wgt id='1820'> +3.3582045E+03 </wgt>
<wgt id='1821'> +3.3640734E+03 </wgt>
<wgt id='1822'> +3.3628969E+03 </wgt>
<wgt id='1823'> +3.3588303E+03 </wgt>
<wgt id='1824'> +3.3608268E+03 </wgt>
<wgt id='1825'> +3.3558636E+03 </wgt>
<wgt id='1826'> +3.2593821E+03 </wgt>
<wgt id='1827'> +3.2155792E+03 </wgt>
<wgt id='1828'> +3.2177255E+03 </wgt>
<wgt id='1829'> +3.2123158E+03 </wgt>
<wgt id='1830'> +3.2184827E+03 </wgt>
<wgt id='1831'> +3.2115077E+03 </wgt>
<wgt id='1832'> +3.2221422E+03 </wgt>
<wgt id='1833'> +3.2079092E+03 </wgt>
<wgt id='1834'> +3.1999342E+03 </wgt>
<wgt id='1835'> +3.2297341E+03 </wgt>
<wgt id='1836'> +3.2244405E+03 </wgt>
<wgt id='1837'> +3.2052759E+03 </wgt>
<wgt id='1838'> +3.2205969E+03 </wgt>
<wgt id='1839'> +3.2094407E+03 </wgt>
<wgt id='1840'> +3.2091479E+03 </wgt>
<wgt id='1841'> +3.2212482E+03 </wgt>
<wgt id='1842'> +3.2193206E+03 </wgt>
<wgt id='1843'> +3.2205734E+03 </wgt>
<wgt id='1844'> +3.2146064E+03 </wgt>
<wgt id='1845'> +3.2146123E+03 </wgt>
<wgt id='1846'> +3.2122952E+03 </wgt>
<wgt id='1847'> +3.2173659E+03 </wgt>
<wgt id='1848'> +3.2251860E+03 </wgt>
<wgt id='1849'> +3.1992707E+03 </wgt>
<wgt id='1850'> +3.2639269E+03 </wgt>
<wgt id='1851'> +3.1683617E+03 </wgt>
<wgt id='1852'> +3.3188311E+03 </wgt>
<wgt id='1853'> +3.1157349E+03 </wgt>
<wgt id='1854'> +3.2933111E+03 </wgt>
<wgt id='1855'> +3.1475105E+03 </wgt>
<wgt id='1856'> +3.2155792E+03 </wgt>
<wgt id='1857'> +2.8698777E+03 </wgt>
<wgt id='1858'> +3.5994808E+03 </wgt>
<wgt id='1859'> +2.4091864E+03 </wgt>
<wgt id='1860'> +2.7897681E+03 </wgt>
<wgt id='1861'> +3.3415365E+03 </wgt>
<wgt id='1862'> +3.2507457E+03 </wgt>
<wgt id='1863'> +3.2073477E+03 </wgt>
<wgt id='1864'> +3.1941967E+03 </wgt>
<wgt id='1865'> +3.2917957E+03 </wgt>
<wgt id='1866'> +3.3536306E+03 </wgt>
<wgt id='1867'> +3.3101565E+03 </wgt>
<wgt id='1868'> +3.0943291E+03 </wgt>
<wgt id='1869'> +3.1976342E+03 </wgt>
<wgt id='1870'> +2.9828292E+03 </wgt>
<wgt id='1871'> +2.9818364E+03 </wgt>
<wgt id='1872'> +2.9808664E+03 </wgt>
<wgt id='1873'> +2.9798972E+03 </wgt>
<wgt id='1874'> +2.9789232E+03 </wgt>
<wgt id='1875'> +2.9779344E+03 </wgt>
<wgt id='1876'> +2.9769553E+03 </wgt>
<wgt id='1877'> +2.9759866E+03 </wgt>
<wgt id='1878'> +2.9750196E+03 </wgt>
<wgt id='1879'> +2.9740449E+03 </wgt>
<wgt id='1880'> +2.9730574E+03 </wgt>
<wgt id='1881'> +2.9720912E+03 </wgt>
<wgt id='1882'> +2.9711118E+03 </wgt>
<wgt id='1883'> +2.9701438E+03 </wgt>
<wgt id='1884'> +2.9691556E+03 </wgt>
<wgt id='1885'> +2.9681898E+03 </wgt>
<wgt id='1886'> +2.9672159E+03 </wgt>
<wgt id='1887'> +2.9662373E+03 </wgt>
<wgt id='1888'> +2.9652725E+03 </wgt>
<wgt id='1889'> +2.9642915E+03 </wgt>
<wgt id='1890'> +2.9633190E+03 </wgt>
<wgt id='1891'> +2.9623465E+03 </wgt>
<wgt id='1892'> +2.9613685E+03 </wgt>
<wgt id='1893'> +2.9604028E+03 </wgt>
<wgt id='1894'> +2.9594223E+03 </wgt>
<wgt id='1895'> +2.9584500E+03 </wgt>
<wgt id='1896'> +2.9574790E+03 </wgt>
<wgt id='1897'> +2.9565122E+03 </wgt>
<wgt id='1898'> +2.9555230E+03 </wgt>
<wgt id='1899'> +2.9545574E+03 </wgt>
<wgt id='1900'> +2.9535851E+03 </wgt>
<wgt id='1901'> +2.8712069E+03 </wgt>
<wgt id='1902'> +2.9169927E+03 </wgt>
<wgt id='1903'> +2.8342232E+03 </wgt>
<wgt id='1904'> +2.9245607E+03 </wgt>
<wgt id='1905'> +2.8580243E+03 </wgt>
<wgt id='1906'> +2.8278563E+03 </wgt>
<wgt id='1907'> +2.8720532E+03 </wgt>
<wgt id='1908'> +2.8521423E+03 </wgt>
<wgt id='1909'> +2.8779369E+03 </wgt>
<wgt id='1910'> +2.8923932E+03 </wgt>
<wgt id='1911'> +2.9319673E+03 </wgt>
<wgt id='1912'> +2.7889021E+03 </wgt>
<wgt id='1913'> +2.8511296E+03 </wgt>
<wgt id='1914'> +2.9160397E+03 </wgt>
<wgt id='1915'> +2.8279843E+03 </wgt>
<wgt id='1916'> +2.8405763E+03 </wgt>
<wgt id='1917'> +2.8249646E+03 </wgt>
<wgt id='1918'> +2.9712464E+03 </wgt>
<wgt id='1919'> +2.7642113E+03 </wgt>
<wgt id='1920'> +2.9231099E+03 </wgt>
<wgt id='1921'> +2.8756054E+03 </wgt>
<wgt id='1922'> +2.8874139E+03 </wgt>
<wgt id='1923'> +2.9813165E+03 </wgt>
<wgt id='1924'> +2.9599421E+03 </wgt>
<wgt id='1925'> +2.8189607E+03 </wgt>
<wgt id='1926'> +2.8470456E+03 </wgt>
<wgt id='1927'> +2.9434102E+03 </wgt>
<wgt id='1928'> +2.8405462E+03 </wgt>
<wgt id='1929'> +2.8933527E+03 </wgt>
<wgt id='1930'> +2.9059386E+03 </wgt>
<wgt id='1931'> +2.8776040E+03 </wgt>
<wgt id='1932'> +2.9087414E+03 </wgt>
<wgt id='1933'> +2.8547983E+03 </wgt>
<wgt id='1934'> +2.8922320E+03 </wgt>
<wgt id='1935'> +2.8484699E+03 </wgt>
<wgt id='1936'> +2.8727877E+03 </wgt>
<wgt id='1937'> +2.8643940E+03 </wgt>
<wgt id='1938'> +2.9199030E+03 </wgt>
<wgt id='1939'> +2.8749007E+03 </wgt>
<wgt id='1940'> +2.8503906E+03 </wgt>
<wgt id='1941'> +2.8820022E+03 </wgt>
<wgt id='1942'> +2.8496594E+03 </wgt>
<wgt id='1943'> +2.8615257E+03 </wgt>
<wgt id='1944'> +2.8934626E+03 </wgt>
<wgt id='1945'> +2.8824934E+03 </wgt>
<wgt id='1946'> +2.8732489E+03 </wgt>
<wgt id='1947'> +2.8493403E+03 </wgt>
<wgt id='1948'> +2.8690177E+03 </wgt>
<wgt id='1949'> +2.8647011E+03 </wgt>
<wgt id='1950'> +2.8592426E+03 </wgt>
<wgt id='1951'> +2.8563211E+03 </wgt>
<wgt id='1952'> +2.8627214E+03 </wgt>
<wgt id='1953'> +2.8718227E+03 </wgt>
<wgt id='1954'> +2.8603705E+03 </wgt>
<wgt id='1955'> +2.8636004E+03 </wgt>
<wgt id='1956'> +2.8959197E+03 </wgt>
<wgt id='1957'> +2.8626970E+03 </wgt>
<wgt id='1958'> +2.8643813E+03 </wgt>
<wgt id='1959'> +2.8637013E+03 </wgt>
<wgt id='1960'> +2.8711002E+03 </wgt>
<wgt id='1961'> +2.8665995E+03 </wgt>
<wgt id='1962'> +2.8754894E+03 </wgt>
<wgt id='1963'> +2.8734402E+03 </wgt>
<wgt id='1964'> +2.8644213E+03 </wgt>
<wgt id='1965'> +2.8733808E+03 </wgt>
<wgt id='1966'> +2.8623802E+03 </wgt>
<wgt id='1967'> +2.8746152E+03 </wgt>
<wgt id='1968'> +2.8667398E+03 </wgt>
<wgt id='1969'> +2.8873679E+03 </wgt>
<wgt id='1970'> +2.8839796E+03 </wgt>
<wgt id='1971'> +2.8845665E+03 </wgt>
<wgt id='1972'> +2.8716844E+03 </wgt>
<wgt id='1973'> +2.8794118E+03 </wgt>
<wgt id='1974'> +2.8558343E+03 </wgt>
<wgt id='1975'> +2.8775039E+03 </wgt>
<wgt id='1976'> +2.8731132E+03 </wgt>
<wgt id='1977'> +2.8670126E+03 </wgt>
<wgt id='1978'> +2.8689622E+03 </wgt>
<wgt id='1979'> +2.8645831E+03 </wgt>
<wgt id='1980'> +2.8688311E+03 </wgt>
<wgt id='1981'> +2.8775299E+03 </wgt>
<wgt id='1982'> +2.8728093E+03 </wgt>
<wgt id='1983'> +2.8708021E+03 </wgt>
<wgt id='1984'> +2.8706233E+03 </wgt>
<wgt id='1985'> +2.8705638E+03 </wgt>
<wgt id='1986'> +2.8742036E+03 </wgt>
<wgt id='1987'> +2.8723374E+03 </wgt>
<wgt id='1988'> +2.8704952E+03 </wgt>
<wgt id='1989'> +2.8660789E+03 </wgt>
<wgt id='1990'> +2.8716685E+03 </wgt>
<wgt id='1991'> +2.8754270E+03 </wgt>
<wgt id='1992'> +2.8696741E+03 </wgt>
<wgt id='1993'> +2.8717595E+03 </wgt>
<wgt id='1994'> +2.8692824E+03 </wgt>
<wgt id='1995'> +2.8719915E+03 </wgt>
<wgt id='1996'> +2.8719288E+03 </wgt>
<wgt id='1997'> +2.8728662E+03 </wgt>
<wgt id='1998'> +2.8707062E+03 </wgt>
<wgt id='1999'> +2.8729025E+03 </wgt>
<wgt id='2000'> +2.8715956E+03 </wgt>
<wgt id='2001'> +2.8735377E+03 </wgt>
<wgt id='2002'> +2.8711920E+03 </wgt>
<wgt id='2003'> +2.8711128E+03 </wgt>
<wgt id='2004'> +2.8712216E+03 </wgt>
<wgt id='2005'> +2.8712247E+03 </wgt>
<wgt id='2006'> +2.8712507E+03 </wgt>
<wgt id='2007'> +2.8712130E+03 </wgt>
<wgt id='2008'> +2.8711467E+03 </wgt>
<wgt id='2009'> +2.6904410E+03 </wgt>
<wgt id='2010'> +2.5651683E+03 </wgt>
<wgt id='2011'> +2.7397622E+03 </wgt>
<wgt id='2012'> +2.8202008E+03 </wgt>
<wgt id='2013'> +2.5747078E+03 </wgt>
<wgt id='2014'> +2.4872478E+03 </wgt>
<wgt id='2015'> +2.9116639E+03 </wgt>
<wgt id='2016'> +2.7494598E+03 </wgt>
<wgt id='2017'> +2.6288225E+03 </wgt>
<wgt id='2018'> +2.7488981E+03 </wgt>
<wgt id='2019'> +2.5100832E+03 </wgt>
<wgt id='2020'> +2.6054280E+03 </wgt>
<wgt id='2021'> +2.6000184E+03 </wgt>
<wgt id='2022'> +2.8027847E+03 </wgt>
<wgt id='2023'> +2.6368853E+03 </wgt>
<wgt id='2024'> +2.8507038E+03 </wgt>
<wgt id='2025'> +2.5500357E+03 </wgt>
<wgt id='2026'> +2.6583414E+03 </wgt>
<wgt id='2027'> +3.0508828E+03 </wgt>
<wgt id='2028'> +2.5455233E+03 </wgt>
<wgt id='2029'> +2.5789116E+03 </wgt>
<wgt id='2030'> +2.7341404E+03 </wgt>
<wgt id='2031'> +2.5221569E+03 </wgt>
<wgt id='2032'> +2.7324943E+03 </wgt>
<wgt id='2033'> +2.6081085E+03 </wgt>
<wgt id='2034'> +2.6652216E+03 </wgt>
<wgt id='2035'> +2.6664727E+03 </wgt>
<wgt id='2036'> +2.6892288E+03 </wgt>
<wgt id='2037'> +2.5808500E+03 </wgt>
<wgt id='2038'> +2.7723666E+03 </wgt>
<wgt id='2039'> +2.7616765E+03 </wgt>
<wgt id='2040'> +2.8519276E+03 </wgt>
<wgt id='2041'> +2.5873298E+03 </wgt>
<wgt id='2042'> +2.6282484E+03 </wgt>
<wgt id='2043'> +2.6532488E+03 </wgt>
<wgt id='2044'> +2.9085793E+03 </wgt>
<wgt id='2045'> +2.6936547E+03 </wgt>
<wgt id='2046'> +2.8208994E+03 </wgt>
<wgt id='2047'> +2.5933159E+03 </wgt>
<wgt id='2048'> +2.4290975E+03 </wgt>
<wgt id='2049'> +2.6615456E+03 </wgt>
<wgt id='2050'> +2.7282064E+03 </wgt>
<wgt id='2051'> +2.7217350E+03 </wgt>
<wgt id='2052'> +2.7426983E+03 </wgt>
<wgt id='2053'> +2.8036551E+03 </wgt>
<wgt id='2054'> +2.8217743E+03 </wgt>
<wgt id='2055'> +2.8759711E+03 </wgt>
<wgt id='2056'> +2.7346229E+03 </wgt>
<wgt id='2057'> +2.6250211E+03 </wgt>
<wgt id='2058'> +2.7252767E+03 </wgt>
<wgt id='2059'> +2.8100393E+03 </wgt>
<wgt id='2060'> +2.5430617E+03 </wgt>
<wgt id='2061'> +2.6706032E+03 </wgt>
<wgt id='2062'> +2.5162277E+03 </wgt>
<wgt id='2063'> +2.8340365E+03 </wgt>
<wgt id='2064'> +2.6641621E+03 </wgt>
<wgt id='2065'> +2.6576732E+03 </wgt>
<wgt id='2066'> +2.8401078E+03 </wgt>
<wgt id='2067'> +2.7050709E+03 </wgt>
<wgt id='2068'> +2.5977942E+03 </wgt>
<wgt id='2069'> +2.6387804E+03 </wgt>
<wgt id='2070'> +2.7572005E+03 </wgt>
<wgt id='2071'> +2.7702655E+03 </wgt>
<wgt id='2072'> +2.7060006E+03 </wgt>
<wgt id='2073'> +2.9470485E+03 </wgt>
<wgt id='2074'> +2.6499056E+03 </wgt>
<wgt id='2075'> +2.9223084E+03 </wgt>
<wgt id='2076'> +2.7025740E+03 </wgt>
<wgt id='2077'> +2.6535260E+03 </wgt>
<wgt id='2078'> +2.4506512E+03 </wgt>
<wgt id='2079'> +2.4941947E+03 </wgt>
<wgt id='2080'> +2.6925997E+03 </wgt>
<wgt id='2081'> +2.5045836E+03 </wgt>
<wgt id='2082'> +2.2695621E+03 </wgt>
<wgt id='2083'> +2.7856503E+03 </wgt>
<wgt id='2084'> +2.6078618E+03 </wgt>
<wgt id='2085'> +2.5167575E+03 </wgt>
<wgt id='2086'> +2.7392954E+03 </wgt>
<wgt id='2087'> +2.7436494E+03 </wgt>
<wgt id='2088'> +2.6479335E+03 </wgt>
<wgt id='2089'> +2.6899175E+03 </wgt>
<wgt id='2090'> +2.6730027E+03 </wgt>
<wgt id='2091'> +2.5716267E+03 </wgt>
<wgt id='2092'> +2.7818307E+03 </wgt>
<wgt id='2093'> +2.5245910E+03 </wgt>
<wgt id='2094'> +2.7456277E+03 </wgt>
<wgt id='2095'> +2.8124181E+03 </wgt>
<wgt id='2096'> +2.7982619E+03 </wgt>
<wgt id='2097'> +2.6151191E+03 </wgt>
<wgt id='2098'> +2.7214132E+03 </wgt>
<wgt id='2099'> +2.6305893E+03 </wgt>
<wgt id='2100'> +2.7040007E+03 </wgt>
<wgt id='2101'> +2.6044904E+03 </wgt>
<wgt id='2102'> +2.7208360E+03 </wgt>
<wgt id='2103'> +2.6979400E+03 </wgt>
<wgt id='2104'> +2.8994910E+03 </wgt>
<wgt id='2105'> +2.7243754E+03 </wgt>
<wgt id='2106'> +2.3200396E+03 </wgt>
<wgt id='2107'> +2.9480664E+03 </wgt>
<wgt id='2108'> +2.8433508E+03 </wgt>
<wgt id='2109'> +3.0213819E+03 </wgt>
<wgt id='2110'> +2.6681927E+03 </wgt>
<wgt id='2111'> +2.7386455E+03 </wgt>
<wgt id='2112'> +2.7132809E+03 </wgt>
<wgt id='2113'> +1.1412369E+03 </wgt>
<wgt id='2114'> +1.5157983E+03 </wgt>
<wgt id='2115'> +1.8852204E+03 </wgt>
<wgt id='2116'> +2.1405243E+03 </wgt>
</rwgt>
</event>
<event>
 5      5 +2.9771057E+03 7.07557300e+01 7.54677100e-03 1.22710500e-01
       -2 -1    0    0    0  501 -0.0000000000e+00 +0.0000000000e+00 +6.5638718961e+00 6.5638718961e+00 0.0000000000e+00 0.0000e+00 1.0000e+00
        1 -1    0    0  501    0 +0.0000000000e+00 -0.0000000000e+00 -1.9067914364e+02 1.9067914364e+02 0.0000000000e+00 0.0000e+00 -1.0000e+00
      -24  2    1    2    0    0 +0.0000000000e+00 +0.0000000000e+00 -1.8411527175e+02 1.9724301554e+02 7.0755733962e+01 0.0000e+00 0.0000e+00
       15  1    3    3    0    0 +1.4832128854e+01 +2.0567038380e+01 -1.6079747230e+02 1.6279428718e+02 1.7770000000e+00 0.0000e+00 -1.0000e+00
      -16  1    3    3    0    0 -1.4832128854e+01 -2.0567038380e+01 -2.3317799451e+01 3.4448728355e+01 0.0000000000e+00 0.0000e+00 1.0000e+00
<scales pt_clust_4="13000.00000" pt_clust_5="13000.00000"></scales>
<mgrwt>
<rscale>  0 0.70755734E+02</rscale>
<asrwt>0</asrwt>
<pdfrwt beam="1">  1        1 0.29335249E-01 0.70755734E+02</pdfrwt>
<pdfrwt beam="2">  1       -2 0.10098266E-02 0.70755734E+02</pdfrwt>
<totfact> 0.25231338E+05</totfact>
</mgrwt>
<clustering>
<clus scale="   70.756">  4  5 -1 -1</clus>
<clus scale="   70.756">  2  4  1 -1</clus>
</clustering>
<rwgt>
<wgt id='1001'> +2.9771057E+03 </wgt>
<wgt id='1002'> +2.7898746E+03 </wgt>
<wgt id='1003'> +2.7905580E+03 </wgt>
<wgt id='1004'> +2.3809494E+03 </wgt>
<wgt id='1005'> +2.9771057E+03 </wgt>
<wgt id='1006'> +2.9771057E+03 </wgt>
<wgt id='1007'> +2.7898746E+03 </wgt>
<wgt id='1008'> +2.7905580E+03 </wgt>
<wgt id='1009'> +2.3809494E+03 </wgt>
<wgt id='1010'> +2.9771057E+03 </wgt>
<wgt id='1011'> +2.9771057E+03 </wgt>
<wgt id='1012'> +2.7898746E+03 </wgt>
<wgt id='1013'> +2.7905580E+03 </wgt>
<wgt id='1014'> +2.3809494E+03 </wgt>
<wgt id='1015'> +2.9771057E+03 </wgt>
<wgt id='1016'> +3.3466018E+03 </wgt>
<wgt id='1017'> +3.1726186E+03 </wgt>
<wgt id='1018'> +3.1732546E+03 </wgt>
<wgt id='1019'> +2.7905580E+03 </wgt>
<wgt id='1020'> +3.3466018E+03 </wgt>
<wgt id='1021'> +3.3466018E+03 </wgt>
<wgt id='1022'> +3.1726186E+03 </wgt>
<wgt id='1023'> +3.1732546E+03 </wgt>
<wgt id='1024'> +2.7905580E+03 </wgt>
<wgt id='1025'> +3.3466018E+03 </wgt>
<wgt id='1026'> +3.3466018E+03 </wgt>
<wgt id='1027'> +3.1726186E+03 </wgt>
<wgt id='1028'> +3.1732546E+03 </wgt>
<wgt id='1029'> +2.7905580E+03 </wgt>
<wgt id='1030'> +3.3466018E+03 </wgt>
<wgt id='1031'> +2.5803061E+03 </wgt>
<wgt id='1032'> +2.3802203E+03 </wgt>
<wgt id='1033'> +2.3809494E+03 </wgt>
<wgt id='1034'> +1.9463493E+03 </wgt>
<wgt id='1035'> +2.5803061E+03 </wgt>
<wgt id='1036'> +2.5803061E+03 </wgt>
<wgt id='1037'> +2.3802203E+03 </wgt>
<wgt id='1038'> +2.3809494E+03 </wgt>
<wgt id='1039'> +1.9463493E+03 </wgt>
<wgt id='1040'> +2.5803061E+03 </wgt>
<wgt id='1041'> +2.5803061E+03 </wgt>
<wgt id='1042'> +2.3802203E+03 </wgt>
<wgt id='1043'> +2.3809494E+03 </wgt>
<wgt id='1044'> +1.9463493E+03 </wgt>
<wgt id='1045'> +2.5803061E+03 </wgt>
<wgt id='1046'> +2.9771057E+03 </wgt>
<wgt id='1047'> +2.9756552E+03 </wgt>
<wgt id='1048'> +2.9780561E+03 </wgt>
<wgt id='1049'> +2.9754522E+03 </wgt>
<wgt id='1050'> +2.9923975E+03 </wgt>
<wgt id='1051'> +2.9780698E+03 </wgt>
<wgt id='1052'> +2.9716983E+03 </wgt>
<wgt id='1053'> +2.9751531E+03 </wgt>
<wgt id='1054'> +2.9699203E+03 </wgt>
<wgt id='1055'> +2.9907797E+03 </wgt>
<wgt id='1056'> +2.9635596E+03 </wgt>
<wgt id='1057'> +2.9670347E+03 </wgt>
<wgt id='1058'> +2.9857310E+03 </wgt>
<wgt id='1059'> +2.9701488E+03 </wgt>
<wgt id='1060'> +2.9904706E+03 </wgt>
<wgt id='1061'> +2.9838770E+03 </wgt>
<wgt id='1062'> +2.9933748E+03 </wgt>
<wgt id='1063'> +2.9650750E+03 </wgt>
<wgt id='1064'> +2.9699889E+03 </wgt>
<wgt id='1065'> +2.9775528E+03 </wgt>
<wgt id='1066'> +2.9754571E+03 </wgt>
<wgt id='1067'> +2.9969951E+03 </wgt>
<wgt id='1068'> +2.9870278E+03 </wgt>
<wgt id='1069'> +2.9608520E+03 </wgt>
<wgt id='1070'> +2.9932977E+03 </wgt>
<wgt id='1071'> +2.9841465E+03 </wgt>
<wgt id='1072'> +2.9561051E+03 </wgt>
<wgt id='1073'> +2.9789654E+03 </wgt>
<wgt id='1074'> +2.9774599E+03 </wgt>
<wgt id='1075'> +2.9534272E+03 </wgt>
<wgt id='1076'> +3.0014796E+03 </wgt>
<wgt id='1077'> +2.9831927E+03 </wgt>
<wgt id='1078'> +2.9734365E+03 </wgt>
<wgt id='1079'> +2.9671309E+03 </wgt>
<wgt id='1080'> +2.9817216E+03 </wgt>
<wgt id='1081'> +2.9845134E+03 </wgt>
<wgt id='1082'> +2.9732566E+03 </wgt>
<wgt id='1083'> +2.9895674E+03 </wgt>
<wgt id='1084'> +2.9767658E+03 </wgt>
<wgt id='1085'> +2.9765657E+03 </wgt>
<wgt id='1086'> +2.9746211E+03 </wgt>
<wgt id='1087'> +2.9735718E+03 </wgt>
<wgt id='1088'> +2.9643598E+03 </wgt>
<wgt id='1089'> +2.9773996E+03 </wgt>
<wgt id='1090'> +2.9747137E+03 </wgt>
<wgt id='1091'> +2.9719493E+03 </wgt>
<wgt id='1092'> +2.9764143E+03 </wgt>
<wgt id='1093'> +2.9762748E+03 </wgt>
<wgt id='1094'> +2.9761944E+03 </wgt>
<wgt id='1095'> +2.9719532E+03 </wgt>
<wgt id='1096'> +2.9771053E+03 </wgt>
<wgt id='1097'> +2.9695015E+03 </wgt>
<wgt id='1098'> +2.9811604E+03 </wgt>
<wgt id='1099'> +2.9783465E+03 </wgt>
<wgt id='1100'> +2.9743817E+03 </wgt>
<wgt id='1101'> +2.9784074E+03 </wgt>
<wgt id='1102'> +2.9740275E+03 </wgt>
<wgt id='1103'> +2.9776783E+03 </wgt>
<wgt id='1104'> +2.9777943E+03 </wgt>
<wgt id='1105'> +2.9831987E+03 </wgt>
<wgt id='1106'> +2.9759051E+03 </wgt>
<wgt id='1107'> +2.9743153E+03 </wgt>
<wgt id='1108'> +2.9765139E+03 </wgt>
<wgt id='1109'> +2.9766873E+03 </wgt>
<wgt id='1110'> +2.9771067E+03 </wgt>
<wgt id='1111'> +2.9795681E+03 </wgt>
<wgt id='1112'> +2.9741474E+03 </wgt>
<wgt id='1113'> +2.9767917E+03 </wgt>
<wgt id='1114'> +2.9772585E+03 </wgt>
<wgt id='1115'> +2.9756468E+03 </wgt>
<wgt id='1116'> +2.9776951E+03 </wgt>
<wgt id='1117'> +2.9744374E+03 </wgt>
<wgt id='1118'> +2.9784450E+03 </wgt>
<wgt id='1119'> +2.9821685E+03 </wgt>
<wgt id='1120'> +2.9723806E+03 </wgt>
<wgt id='1121'> +2.9755444E+03 </wgt>
<wgt id='1122'> +2.9770561E+03 </wgt>
<wgt id='1123'> +2.9737810E+03 </wgt>
<wgt id='1124'> +2.9764875E+03 </wgt>
<wgt id='1125'> +2.9791733E+03 </wgt>
<wgt id='1126'> +2.9748785E+03 </wgt>
<wgt id='1127'> +2.9776160E+03 </wgt>
<wgt id='1128'> +2.9757323E+03 </wgt>
<wgt id='1129'> +2.9777089E+03 </wgt>
<wgt id='1130'> +2.9765118E+03 </wgt>
<wgt id='1131'> +2.9763676E+03 </wgt>
<wgt id='1132'> +2.9731967E+03 </wgt>
<wgt id='1133'> +2.9761722E+03 </wgt>
<wgt id='1134'> +2.9759376E+03 </wgt>
<wgt id='1135'> +2.9750021E+03 </wgt>
<wgt id='1136'> +2.9784063E+03 </wgt>
<wgt id='1137'> +2.9761193E+03 </wgt>
<wgt id='1138'> +2.9775385E+03 </wgt>
<wgt id='1139'> +2.9784720E+03 </wgt>
<wgt id='1140'> +2.9775627E+03 </wgt>
<wgt id='1141'> +2.9764962E+03 </wgt>
<wgt id='1142'> +2.9778783E+03 </wgt>
<wgt id='1143'> +2.9768073E+03 </wgt>
<wgt id='1144'> +2.9774108E+03 </wgt>
<wgt id='1145'> +2.9770606E+03 </wgt>
<wgt id='1146'> +2.9765223E+03 </wgt>
<wgt id='1147'> +2.9557185E+03 </wgt>
<wgt id='1148'> +3.0001767E+03 </wgt>
<wgt id='1149'> +2.9194055E+03 </wgt>
<wgt id='1150'> +2.9133594E+03 </wgt>
<wgt id='1151'> +2.9268165E+03 </wgt>
<wgt id='1152'> +2.9556281E+03 </wgt>
<wgt id='1153'> +2.9754791E+03 </wgt>
<wgt id='1154'> +2.9845610E+03 </wgt>
<wgt id='1155'> +3.0144901E+03 </wgt>
<wgt id='1156'> +3.0113276E+03 </wgt>
<wgt id='1157'> +2.9134787E+03 </wgt>
<wgt id='1158'> +2.9120440E+03 </wgt>
<wgt id='1159'> +2.9195232E+03 </wgt>
<wgt id='1160'> +2.9096375E+03 </wgt>
<wgt id='1161'> +2.9280130E+03 </wgt>
<wgt id='1162'> +2.9133972E+03 </wgt>
<wgt id='1163'> +2.9037676E+03 </wgt>
<wgt id='1164'> +2.9133000E+03 </wgt>
<wgt id='1165'> +2.9106930E+03 </wgt>
<wgt id='1166'> +2.9166195E+03 </wgt>
<wgt id='1167'> +2.8967164E+03 </wgt>
<wgt id='1168'> +2.9086285E+03 </wgt>
<wgt id='1169'> +2.9177655E+03 </wgt>
<wgt id='1170'> +2.9199182E+03 </wgt>
<wgt id='1171'> +2.9215476E+03 </wgt>
<wgt id='1172'> +2.8971463E+03 </wgt>
<wgt id='1173'> +2.9236683E+03 </wgt>
<wgt id='1174'> +2.9065891E+03 </wgt>
<wgt id='1175'> +2.9226977E+03 </wgt>
<wgt id='1176'> +2.9154439E+03 </wgt>
<wgt id='1177'> +2.8978259E+03 </wgt>
<wgt id='1178'> +2.9285648E+03 </wgt>
<wgt id='1179'> +2.9165258E+03 </wgt>
<wgt id='1180'> +2.9159050E+03 </wgt>
<wgt id='1181'> +2.9303277E+03 </wgt>
<wgt id='1182'> +2.8966675E+03 </wgt>
<wgt id='1183'> +2.9137969E+03 </wgt>
<wgt id='1184'> +2.9110511E+03 </wgt>
<wgt id='1185'> +2.9094083E+03 </wgt>
<wgt id='1186'> +2.9447745E+03 </wgt>
<wgt id='1187'> +2.9111827E+03 </wgt>
<wgt id='1188'> +2.8906416E+03 </wgt>
<wgt id='1189'> +2.9233526E+03 </wgt>
<wgt id='1190'> +2.9106316E+03 </wgt>
<wgt id='1191'> +2.9113387E+03 </wgt>
<wgt id='1192'> +2.9222902E+03 </wgt>
<wgt id='1193'> +2.9160641E+03 </wgt>
<wgt id='1194'> +2.9050246E+03 </wgt>
<wgt id='1195'> +2.9099861E+03 </wgt>
<wgt id='1196'> +2.9170255E+03 </wgt>
<wgt id='1197'> +2.9138913E+03 </wgt>
<wgt id='1198'> +2.9199900E+03 </wgt>
<wgt id='1199'> +2.9069898E+03 </wgt>
<wgt id='1200'> +2.9041544E+03 </wgt>
<wgt id='1201'> +2.9101049E+03 </wgt>
<wgt id='1202'> +2.9052096E+03 </wgt>
<wgt id='1203'> +2.9174724E+03 </wgt>
<wgt id='1204'> +2.9223076E+03 </wgt>
<wgt id='1205'> +2.9200491E+03 </wgt>
<wgt id='1206'> +2.9162239E+03 </wgt>
<wgt id='1207'> +2.9164974E+03 </wgt>
<wgt id='1208'> +2.9085058E+03 </wgt>
<wgt id='1209'> +2.9092225E+03 </wgt>
<wgt id='1210'> +2.9126409E+03 </wgt>
<wgt id='1211'> +2.9167839E+03 </wgt>
<wgt id='1212'> +2.9188128E+03 </wgt>
<wgt id='1213'> +2.9141585E+03 </wgt>
<wgt id='1214'> +2.9117995E+03 </wgt>
<wgt id='1215'> +2.9169115E+03 </wgt>
<wgt id='1216'> +2.9130955E+03 </wgt>
<wgt id='1217'> +2.9083040E+03 </wgt>
<wgt id='1218'> +2.9148720E+03 </wgt>
<wgt id='1219'> +2.9189968E+03 </wgt>
<wgt id='1220'> +2.9186876E+03 </wgt>
<wgt id='1221'> +2.9131685E+03 </wgt>
<wgt id='1222'> +2.9113784E+03 </wgt>
<wgt id='1223'> +2.9141292E+03 </wgt>
<wgt id='1224'> +2.9116548E+03 </wgt>
<wgt id='1225'> +2.9128451E+03 </wgt>
<wgt id='1226'> +2.9113188E+03 </wgt>
<wgt id='1227'> +2.9144802E+03 </wgt>
<wgt id='1228'> +2.9150992E+03 </wgt>
<wgt id='1229'> +2.9192192E+03 </wgt>
<wgt id='1230'> +2.9103583E+03 </wgt>
<wgt id='1231'> +2.9154050E+03 </wgt>
<wgt id='1232'> +2.9148248E+03 </wgt>
<wgt id='1233'> +2.9135344E+03 </wgt>
<wgt id='1234'> +2.9141443E+03 </wgt>
<wgt id='1235'> +2.9150473E+03 </wgt>
<wgt id='1236'> +2.9151596E+03 </wgt>
<wgt id='1237'> +2.9125022E+03 </wgt>
<wgt id='1238'> +2.9144961E+03 </wgt>
<wgt id='1239'> +2.9121900E+03 </wgt>
<wgt id='1240'> +2.9126610E+03 </wgt>
<wgt id='1241'> +2.9126448E+03 </wgt>
<wgt id='1242'> +2.9132666E+03 </wgt>
<wgt id='1243'> +2.9135247E+03 </wgt>
<wgt id='1244'> +2.9109665E+03 </wgt>
<wgt id='1245'> +2.9143779E+03 </wgt>
<wgt id='1246'> +2.9156918E+03 </wgt>
<wgt id='1247'> +2.9155664E+03 </wgt>
<wgt id='1248'> +2.9131142E+03 </wgt>
<wgt id='1249'> +2.9158741E+03 </wgt>
<wgt id='1250'> +2.9122295E+03 </wgt>
<wgt id='1251'> +2.9126213E+03 </wgt>
<wgt id='1252'> +2.9132817E+03 </wgt>
<wgt id='1253'> +2.9115407E+03 </wgt>
<wgt id='1254'> +2.9134518E+03 </wgt>
<wgt id='1255'> +2.9122610E+03 </wgt>
<wgt id='1256'> +2.9125450E+03 </wgt>
<wgt id='1257'> +2.9131514E+03 </wgt>
<wgt id='1258'> +2.8943240E+03 </wgt>
<wgt id='1259'> +2.9420901E+03 </wgt>
<wgt id='1260'> +3.0064269E+03 </wgt>
<wgt id='1261'> +2.9703137E+03 </wgt>
<wgt id='1262'> +2.9449448E+03 </wgt>
<wgt id='1263'> +3.0230224E+03 </wgt>
<wgt id='1264'> +3.0054544E+03 </wgt>
<wgt id='1265'> +3.0305295E+03 </wgt>
<wgt id='1266'> +3.0282299E+03 </wgt>
<wgt id='1267'> +3.0269461E+03 </wgt>
<wgt id='1268'> +2.9291388E+03 </wgt>
<wgt id='1269'> +3.0481602E+03 </wgt>
<wgt id='1270'> +2.9882645E+03 </wgt>
<wgt id='1271'> +3.0113485E+03 </wgt>
<wgt id='1272'> +2.9621315E+03 </wgt>
<wgt id='1273'> +2.9521535E+03 </wgt>
<wgt id='1274'> +3.0045778E+03 </wgt>
<wgt id='1275'> +3.0180289E+03 </wgt>
<wgt id='1276'> +2.9501149E+03 </wgt>
<wgt id='1277'> +3.0109455E+03 </wgt>
<wgt id='1278'> +3.0021065E+03 </wgt>
<wgt id='1279'> +3.0209111E+03 </wgt>
<wgt id='1280'> +2.9975600E+03 </wgt>
<wgt id='1281'> +2.9851486E+03 </wgt>
<wgt id='1282'> +3.0190760E+03 </wgt>
<wgt id='1283'> +3.0468390E+03 </wgt>
<wgt id='1284'> +2.9606138E+03 </wgt>
<wgt id='1285'> +3.0133808E+03 </wgt>
<wgt id='1286'> +2.9970502E+03 </wgt>
<wgt id='1287'> +3.0187610E+03 </wgt>
<wgt id='1288'> +2.9839750E+03 </wgt>
<wgt id='1289'> +3.0185946E+03 </wgt>
<wgt id='1290'> +2.9962867E+03 </wgt>
<wgt id='1291'> +3.0002145E+03 </wgt>
<wgt id='1292'> +3.0130132E+03 </wgt>
<wgt id='1293'> +3.0680710E+03 </wgt>
<wgt id='1294'> +2.9476889E+03 </wgt>
<wgt id='1295'> +2.9970914E+03 </wgt>
<wgt id='1296'> +3.0168385E+03 </wgt>
<wgt id='1297'> +3.0788276E+03 </wgt>
<wgt id='1298'> +2.9260892E+03 </wgt>
<wgt id='1299'> +3.0874728E+03 </wgt>
<wgt id='1300'> +2.9169800E+03 </wgt>
<wgt id='1301'> +2.9834638E+03 </wgt>
<wgt id='1302'> +3.0367910E+03 </wgt>
<wgt id='1303'> +3.0024434E+03 </wgt>
<wgt id='1304'> +2.9733251E+03 </wgt>
<wgt id='1305'> +2.9931786E+03 </wgt>
<wgt id='1306'> +3.0564876E+03 </wgt>
<wgt id='1307'> +2.9527928E+03 </wgt>
<wgt id='1308'> +3.0814826E+03 </wgt>
<wgt id='1309'> +3.0160124E+03 </wgt>
<wgt id='1310'> +3.0132400E+03 </wgt>
<wgt id='1311'> +3.0372810E+03 </wgt>
<wgt id='1312'> +3.0423179E+03 </wgt>
<wgt id='1313'> +3.0383670E+03 </wgt>
<wgt id='1314'> +3.0293206E+03 </wgt>
<wgt id='1315'> +2.9168250E+03 </wgt>
<wgt id='1316'> +3.1332861E+03 </wgt>
<wgt id='1317'> +2.9716809E+03 </wgt>
<wgt id='1318'> +3.0408448E+03 </wgt>
<wgt id='1319'> +2.8833673E+03 </wgt>
<wgt id='1320'> +2.9306344E+03 </wgt>
<wgt id='1321'> +2.9163042E+03 </wgt>
<wgt id='1322'> +2.9231539E+03 </wgt>
<wgt id='1323'> +2.9027873E+03 </wgt>
<wgt id='1324'> +2.9045721E+03 </wgt>
<wgt id='1325'> +2.8783823E+03 </wgt>
<wgt id='1326'> +2.8728585E+03 </wgt>
<wgt id='1327'> +2.9724841E+03 </wgt>
<wgt id='1328'> +2.8398528E+03 </wgt>
<wgt id='1329'> +2.9162760E+03 </wgt>
<wgt id='1330'> +2.8785024E+03 </wgt>
<wgt id='1331'> +2.9033365E+03 </wgt>
<wgt id='1332'> +2.8193568E+03 </wgt>
<wgt id='1333'> +2.8911210E+03 </wgt>
<wgt id='1334'> +2.9323271E+03 </wgt>
<wgt id='1335'> +2.8075851E+03 </wgt>
<wgt id='1336'> +2.9606657E+03 </wgt>
<wgt id='1337'> +2.7951163E+03 </wgt>
<wgt id='1338'> +2.9108318E+03 </wgt>
<wgt id='1339'> +2.8522431E+03 </wgt>
<wgt id='1340'> +2.8955664E+03 </wgt>
<wgt id='1341'> +2.8572710E+03 </wgt>
<wgt id='1342'> +2.9093874E+03 </wgt>
<wgt id='1343'> +2.8564046E+03 </wgt>
<wgt id='1344'> +2.8456174E+03 </wgt>
<wgt id='1345'> +2.9211122E+03 </wgt>
<wgt id='1346'> +2.8711817E+03 </wgt>
<wgt id='1347'> +2.8989166E+03 </wgt>
<wgt id='1348'> +2.8687725E+03 </wgt>
<wgt id='1349'> +2.8881609E+03 </wgt>
<wgt id='1350'> +2.9100912E+03 </wgt>
<wgt id='1351'> +2.8491543E+03 </wgt>
<wgt id='1352'> +2.8818126E+03 </wgt>
<wgt id='1353'> +2.8856059E+03 </wgt>
<wgt id='1354'> +2.8796856E+03 </wgt>
<wgt id='1355'> +2.8930494E+03 </wgt>
<wgt id='1356'> +2.9050813E+03 </wgt>
<wgt id='1357'> +2.8318726E+03 </wgt>
<wgt id='1358'> +2.8428458E+03 </wgt>
<wgt id='1359'> +2.8897483E+03 </wgt>
<wgt id='1360'> +2.9355133E+03 </wgt>
<wgt id='1361'> +2.8479247E+03 </wgt>
<wgt id='1362'> +2.8865523E+03 </wgt>
<wgt id='1363'> +2.8593004E+03 </wgt>
<wgt id='1364'> +2.8799350E+03 </wgt>
<wgt id='1365'> +2.8575386E+03 </wgt>
<wgt id='1366'> +2.8638072E+03 </wgt>
<wgt id='1367'> +2.8816561E+03 </wgt>
<wgt id='1368'> +2.8884207E+03 </wgt>
<wgt id='1369'> +2.8683404E+03 </wgt>
<wgt id='1370'> +2.8253543E+03 </wgt>
<wgt id='1371'> +2.8582263E+03 </wgt>
<wgt id='1372'> +2.8730634E+03 </wgt>
<wgt id='1373'> +2.8538102E+03 </wgt>
<wgt id='1374'> +2.8108686E+03 </wgt>
<wgt id='1375'> +2.9808804E+03 </wgt>
<wgt id='1376'> +2.8485164E+03 </wgt>
<wgt id='1377'> +2.9142193E+03 </wgt>
<wgt id='1378'> +2.5752671E+03 </wgt>
<wgt id='1379'> +2.7447051E+03 </wgt>
<wgt id='1380'> +2.7476998E+03 </wgt>
<wgt id='1381'> +2.7413976E+03 </wgt>
<wgt id='1382'> +2.7314729E+03 </wgt>
<wgt id='1383'> +2.7537306E+03 </wgt>
<wgt id='1384'> +2.7311031E+03 </wgt>
<wgt id='1385'> +2.7572517E+03 </wgt>
<wgt id='1386'> +2.7407279E+03 </wgt>
<wgt id='1387'> +2.7489748E+03 </wgt>
<wgt id='1388'> +2.7449215E+03 </wgt>
<wgt id='1389'> +2.7443275E+03 </wgt>
<wgt id='1390'> +2.7463317E+03 </wgt>
<wgt id='1391'> +2.7411348E+03 </wgt>
<wgt id='1392'> +2.7450787E+03 </wgt>
<wgt id='1393'> +2.7439126E+03 </wgt>
<wgt id='1394'> +2.7330763E+03 </wgt>
<wgt id='1395'> +2.7510735E+03 </wgt>
<wgt id='1396'> +2.7495833E+03 </wgt>
<wgt id='1397'> +2.7392640E+03 </wgt>
<wgt id='1398'> +2.7522632E+03 </wgt>
<wgt id='1399'> +2.7380318E+03 </wgt>
<wgt id='1400'> +2.7545155E+03 </wgt>
<wgt id='1401'> +2.7315271E+03 </wgt>
<wgt id='1402'> +2.7553482E+03 </wgt>
<wgt id='1403'> +2.7384462E+03 </wgt>
<wgt id='1404'> +2.7475322E+03 </wgt>
<wgt id='1405'> +2.7274610E+03 </wgt>
<wgt id='1406'> +2.7344263E+03 </wgt>
<wgt id='1407'> +2.7625763E+03 </wgt>
<wgt id='1408'> +2.7548865E+03 </wgt>
<wgt id='1409'> +2.7316722E+03 </wgt>
<wgt id='1410'> +2.7763159E+03 </wgt>
<wgt id='1411'> +2.7081671E+03 </wgt>
<wgt id='1412'> +2.7436469E+03 </wgt>
<wgt id='1413'> +2.7443728E+03 </wgt>
<wgt id='1414'> +2.7401336E+03 </wgt>
<wgt id='1415'> +2.7630262E+03 </wgt>
<wgt id='1416'> +2.7536760E+03 </wgt>
<wgt id='1417'> +2.7413656E+03 </wgt>
<wgt id='1418'> +2.7433586E+03 </wgt>
<wgt id='1419'> +2.7455847E+03 </wgt>
<wgt id='1420'> +2.6650613E+03 </wgt>
<wgt id='1421'> +2.8109390E+03 </wgt>
<wgt id='1422'> +2.7688430E+03 </wgt>
<wgt id='1423'> +2.7230106E+03 </wgt>
<wgt id='1424'> +2.7270625E+03 </wgt>
<wgt id='1425'> +2.7878174E+03 </wgt>
<wgt id='1426'> +2.7403573E+03 </wgt>
<wgt id='1427'> +2.7488594E+03 </wgt>
<wgt id='1428'> +2.7493003E+03 </wgt>
<wgt id='1429'> +2.7444234E+03 </wgt>
<wgt id='1430'> +2.9664786E+03 </wgt>
<wgt id='1431'> +2.9679640E+03 </wgt>
<wgt id='1432'> +2.9645688E+03 </wgt>
<wgt id='1433'> +2.9692512E+03 </wgt>
<wgt id='1434'> +2.9636727E+03 </wgt>
<wgt id='1435'> +2.9462573E+03 </wgt>
<wgt id='1436'> +2.9747780E+03 </wgt>
<wgt id='1437'> +2.9490589E+03 </wgt>
<wgt id='1438'> +2.9839200E+03 </wgt>
<wgt id='1439'> +2.9637200E+03 </wgt>
<wgt id='1440'> +2.9690272E+03 </wgt>
<wgt id='1441'> +2.9582762E+03 </wgt>
<wgt id='1442'> +2.9701677E+03 </wgt>
<wgt id='1443'> +2.9716738E+03 </wgt>
<wgt id='1444'> +2.9602182E+03 </wgt>
<wgt id='1445'> +2.9568854E+03 </wgt>
<wgt id='1446'> +2.9768280E+03 </wgt>
<wgt id='1447'> +2.9637334E+03 </wgt>
<wgt id='1448'> +2.9675081E+03 </wgt>
<wgt id='1449'> +2.9625595E+03 </wgt>
<wgt id='1450'> +2.9717701E+03 </wgt>
<wgt id='1451'> +2.9708684E+03 </wgt>
<wgt id='1452'> +2.9630622E+03 </wgt>
<wgt id='1453'> +2.9482261E+03 </wgt>
<wgt id='1454'> +2.9804329E+03 </wgt>
<wgt id='1455'> +2.9632804E+03 </wgt>
<wgt id='1456'> +2.9749665E+03 </wgt>
<wgt id='1457'> +2.9590097E+03 </wgt>
<wgt id='1458'> +2.9884538E+03 </wgt>
<wgt id='1459'> +2.9550010E+03 </wgt>
<wgt id='1460'> +2.9906632E+03 </wgt>
<wgt id='1461'> +2.9769366E+03 </wgt>
<wgt id='1462'> +2.9474771E+03 </wgt>
<wgt id='1463'> +2.9527430E+03 </wgt>
<wgt id='1464'> +2.9960660E+03 </wgt>
<wgt id='1465'> +2.9912295E+03 </wgt>
<wgt id='1466'> +2.9585778E+03 </wgt>
<wgt id='1467'> +2.9864580E+03 </wgt>
<wgt id='1468'> +2.9434751E+03 </wgt>
<wgt id='1469'> +2.9677584E+03 </wgt>
<wgt id='1470'> +2.9648128E+03 </wgt>
<wgt id='1471'> +3.0154610E+03 </wgt>
<wgt id='1472'> +2.8709572E+03 </wgt>
<wgt id='1473'> +2.9701200E+03 </wgt>
<wgt id='1474'> +2.9517200E+03 </wgt>
<wgt id='1475'> +2.9411125E+03 </wgt>
<wgt id='1476'> +2.9896226E+03 </wgt>
<wgt id='1477'> +2.9928971E+03 </wgt>
<wgt id='1478'> +2.9555640E+03 </wgt>
<wgt id='1479'> +2.9769628E+03 </wgt>
<wgt id='1480'> +2.9601464E+03 </wgt>
<wgt id='1481'> +2.4973809E+03 </wgt>
<wgt id='1482'> +2.8767690E+03 </wgt>
<wgt id='1483'> +2.8763157E+03 </wgt>
<wgt id='1484'> +2.8729989E+03 </wgt>
<wgt id='1485'> +2.8764336E+03 </wgt>
<wgt id='1486'> +2.8768356E+03 </wgt>
<wgt id='1487'> +2.8790790E+03 </wgt>
<wgt id='1488'> +2.8614934E+03 </wgt>
<wgt id='1489'> +2.8811420E+03 </wgt>
<wgt id='1490'> +2.8711259E+03 </wgt>
<wgt id='1491'> +2.8683506E+03 </wgt>
<wgt id='1492'> +2.8732526E+03 </wgt>
<wgt id='1493'> +2.8742379E+03 </wgt>
<wgt id='1494'> +2.8773707E+03 </wgt>
<wgt id='1495'> +2.8817187E+03 </wgt>
<wgt id='1496'> +2.8696460E+03 </wgt>
<wgt id='1497'> +2.8746376E+03 </wgt>
<wgt id='1498'> +2.8698638E+03 </wgt>
<wgt id='1499'> +2.8754538E+03 </wgt>
<wgt id='1500'> +2.8722372E+03 </wgt>
<wgt id='1501'> +2.8798309E+03 </wgt>
<wgt id='1502'> +2.8734944E+03 </wgt>
<wgt id='1503'> +2.8631849E+03 </wgt>
<wgt id='1504'> +2.8737756E+03 </wgt>
<wgt id='1505'> +2.8932001E+03 </wgt>
<wgt id='1506'> +2.8873778E+03 </wgt>
<wgt id='1507'> +2.8740456E+03 </wgt>
<wgt id='1508'> +2.8734844E+03 </wgt>
<wgt id='1509'> +2.8824333E+03 </wgt>
<wgt id='1510'> +2.8483779E+03 </wgt>
<wgt id='1511'> +2.8556975E+03 </wgt>
<wgt id='1512'> +2.7793415E+03 </wgt>
<wgt id='1513'> +2.7688574E+03 </wgt>
<wgt id='1514'> +2.7481958E+03 </wgt>
<wgt id='1515'> +2.8348724E+03 </wgt>
<wgt id='1516'> +2.7678466E+03 </wgt>
<wgt id='1517'> +2.7861315E+03 </wgt>
<wgt id='1518'> +2.7404630E+03 </wgt>
<wgt id='1519'> +2.8162570E+03 </wgt>
<wgt id='1520'> +2.8114734E+03 </wgt>
<wgt id='1521'> +2.7579127E+03 </wgt>
<wgt id='1522'> +2.7617429E+03 </wgt>
<wgt id='1523'> +2.7526893E+03 </wgt>
<wgt id='1524'> +2.7675955E+03 </wgt>
<wgt id='1525'> +2.8033584E+03 </wgt>
<wgt id='1526'> +2.7814830E+03 </wgt>
<wgt id='1527'> +2.7693643E+03 </wgt>
<wgt id='1528'> +2.7685174E+03 </wgt>
<wgt id='1529'> +2.7801275E+03 </wgt>
<wgt id='1530'> +2.8175746E+03 </wgt>
<wgt id='1531'> +2.7624176E+03 </wgt>
<wgt id='1532'> +2.7822734E+03 </wgt>
<wgt id='1533'> +2.7674179E+03 </wgt>
<wgt id='1534'> +2.7640523E+03 </wgt>
<wgt id='1535'> +2.7963410E+03 </wgt>
<wgt id='1536'> +2.7800831E+03 </wgt>
<wgt id='1537'> +2.7795542E+03 </wgt>
<wgt id='1538'> +2.7680004E+03 </wgt>
<wgt id='1539'> +2.7840137E+03 </wgt>
<wgt id='1540'> +2.7711060E+03 </wgt>
<wgt id='1541'> +2.7696826E+03 </wgt>
<wgt id='1542'> +2.7691028E+03 </wgt>
<wgt id='1543'> +2.7779848E+03 </wgt>
<wgt id='1544'> +2.7799419E+03 </wgt>
<wgt id='1545'> +2.7641069E+03 </wgt>
<wgt id='1546'> +2.7812585E+03 </wgt>
<wgt id='1547'> +2.7772176E+03 </wgt>
<wgt id='1548'> +2.7796969E+03 </wgt>
<wgt id='1549'> +2.7863243E+03 </wgt>
<wgt id='1550'> +2.7671216E+03 </wgt>
<wgt id='1551'> +2.7728853E+03 </wgt>
<wgt id='1552'> +2.7871302E+03 </wgt>
<wgt id='1553'> +2.7708956E+03 </wgt>
<wgt id='1554'> +2.7884671E+03 </wgt>
<wgt id='1555'> +2.7777687E+03 </wgt>
<wgt id='1556'> +2.7898088E+03 </wgt>
<wgt id='1557'> +2.7796854E+03 </wgt>
<wgt id='1558'> +2.7762628E+03 </wgt>
<wgt id='1559'> +2.7806277E+03 </wgt>
<wgt id='1560'> +2.7792559E+03 </wgt>
<wgt id='1561'> +2.7812159E+03 </wgt>
<wgt id='1562'> +2.7809264E+03 </wgt>
<wgt id='1563'> +2.7796076E+03 </wgt>
<wgt id='1564'> +2.7739075E+03 </wgt>
<wgt id='1565'> +2.7756066E+03 </wgt>
<wgt id='1566'> +2.7750234E+03 </wgt>
<wgt id='1567'> +2.7798139E+03 </wgt>
<wgt id='1568'> +2.7762878E+03 </wgt>
<wgt id='1569'> +2.7791038E+03 </wgt>
<wgt id='1570'> +2.7837642E+03 </wgt>
<wgt id='1571'> +2.7781745E+03 </wgt>
<wgt id='1572'> +2.7768080E+03 </wgt>
<wgt id='1573'> +2.7791669E+03 </wgt>
<wgt id='1574'> +2.7824083E+03 </wgt>
<wgt id='1575'> +2.7796592E+03 </wgt>
<wgt id='1576'> +2.7813968E+03 </wgt>
<wgt id='1577'> +2.7783521E+03 </wgt>
<wgt id='1578'> +2.7774507E+03 </wgt>
<wgt id='1579'> +2.7786716E+03 </wgt>
<wgt id='1580'> +2.7796913E+03 </wgt>
<wgt id='1581'> +2.7807081E+03 </wgt>
<wgt id='1582'> +2.7775916E+03 </wgt>
<wgt id='1583'> +2.7794207E+03 </wgt>
<wgt id='1584'> +2.7794089E+03 </wgt>
<wgt id='1585'> +2.7795470E+03 </wgt>
<wgt id='1586'> +2.7791674E+03 </wgt>
<wgt id='1587'> +2.7776137E+03 </wgt>
<wgt id='1588'> +2.7810062E+03 </wgt>
<wgt id='1589'> +2.7794645E+03 </wgt>
<wgt id='1590'> +2.7805914E+03 </wgt>
<wgt id='1591'> +2.7797654E+03 </wgt>
<wgt id='1592'> +2.7790301E+03 </wgt>
<wgt id='1593'> +2.7802166E+03 </wgt>
<wgt id='1594'> +2.7796868E+03 </wgt>
<wgt id='1595'> +2.7801862E+03 </wgt>
<wgt id='1596'> +2.7809592E+03 </wgt>
<wgt id='1597'> +2.7796559E+03 </wgt>
<wgt id='1598'> +2.7798893E+03 </wgt>
<wgt id='1599'> +2.7796495E+03 </wgt>
<wgt id='1600'> +2.7787356E+03 </wgt>
<wgt id='1601'> +2.7784529E+03 </wgt>
<wgt id='1602'> +2.7788571E+03 </wgt>
<wgt id='1603'> +2.7792346E+03 </wgt>
<wgt id='1604'> +2.7800311E+03 </wgt>
<wgt id='1605'> +2.7786325E+03 </wgt>
<wgt id='1606'> +2.7796897E+03 </wgt>
<wgt id='1607'> +2.7795131E+03 </wgt>
<wgt id='1608'> +2.7798973E+03 </wgt>
<wgt id='1609'> +2.7790786E+03 </wgt>
<wgt id='1610'> +2.7796041E+03 </wgt>
<wgt id='1611'> +2.7805713E+03 </wgt>
<wgt id='1612'> +2.7790218E+03 </wgt>
<wgt id='1613'> +2.7535040E+03 </wgt>
<wgt id='1614'> +2.8029607E+03 </wgt>
<wgt id='1615'> +2.9467117E+03 </wgt>
<wgt id='1616'> +2.9654768E+03 </wgt>
<wgt id='1617'> +2.9262515E+03 </wgt>
<wgt id='1618'> +2.9732789E+03 </wgt>
<wgt id='1619'> +2.9841812E+03 </wgt>
<wgt id='1620'> +2.9854170E+03 </wgt>
<wgt id='1621'> +2.9711848E+03 </wgt>
<wgt id='1622'> +2.9550765E+03 </wgt>
<wgt id='1623'> +2.9509176E+03 </wgt>
<wgt id='1624'> +2.9512883E+03 </wgt>
<wgt id='1625'> +2.9569439E+03 </wgt>
<wgt id='1626'> +2.9650226E+03 </wgt>
<wgt id='1627'> +2.9320762E+03 </wgt>
<wgt id='1628'> +2.9620093E+03 </wgt>
<wgt id='1629'> +2.9198870E+03 </wgt>
<wgt id='1630'> +2.9527654E+03 </wgt>
<wgt id='1631'> +2.9292650E+03 </wgt>
<wgt id='1632'> +2.9556152E+03 </wgt>
<wgt id='1633'> +2.9630110E+03 </wgt>
<wgt id='1634'> +2.8978759E+03 </wgt>
<wgt id='1635'> +2.9540527E+03 </wgt>
<wgt id='1636'> +2.9534084E+03 </wgt>
<wgt id='1637'> +2.9277604E+03 </wgt>
<wgt id='1638'> +2.9496117E+03 </wgt>
<wgt id='1639'> +2.9621241E+03 </wgt>
<wgt id='1640'> +2.9498726E+03 </wgt>
<wgt id='1641'> +2.9351724E+03 </wgt>
<wgt id='1642'> +2.9479383E+03 </wgt>
<wgt id='1643'> +2.9524177E+03 </wgt>
<wgt id='1644'> +2.9449297E+03 </wgt>
<wgt id='1645'> +2.9547917E+03 </wgt>
<wgt id='1646'> +2.9531450E+03 </wgt>
<wgt id='1647'> +2.9609973E+03 </wgt>
<wgt id='1648'> +2.9580989E+03 </wgt>
<wgt id='1649'> +2.9460024E+03 </wgt>
<wgt id='1650'> +2.9641910E+03 </wgt>
<wgt id='1651'> +2.9246824E+03 </wgt>
<wgt id='1652'> +2.9554330E+03 </wgt>
<wgt id='1653'> +2.9429055E+03 </wgt>
<wgt id='1654'> +2.9351106E+03 </wgt>
<wgt id='1655'> +2.9405974E+03 </wgt>
<wgt id='1656'> +2.9416756E+03 </wgt>
<wgt id='1657'> +2.9449670E+03 </wgt>
<wgt id='1658'> +2.9472962E+03 </wgt>
<wgt id='1659'> +2.9573185E+03 </wgt>
<wgt id='1660'> +2.9466084E+03 </wgt>
<wgt id='1661'> +2.9494839E+03 </wgt>
<wgt id='1662'> +2.9485616E+03 </wgt>
<wgt id='1663'> +2.9475810E+03 </wgt>
<wgt id='1664'> +2.9473982E+03 </wgt>
<wgt id='1665'> +2.9466135E+03 </wgt>
<wgt id='1666'> +2.9458663E+03 </wgt>
<wgt id='1667'> +2.9483527E+03 </wgt>
<wgt id='1668'> +2.9455945E+03 </wgt>
<wgt id='1669'> +2.9441270E+03 </wgt>
<wgt id='1670'> +2.9454949E+03 </wgt>
<wgt id='1671'> +2.9556343E+03 </wgt>
<wgt id='1672'> +2.9474685E+03 </wgt>
<wgt id='1673'> +2.9463630E+03 </wgt>
<wgt id='1674'> +2.9444511E+03 </wgt>
<wgt id='1675'> +2.9473428E+03 </wgt>
<wgt id='1676'> +2.9464119E+03 </wgt>
<wgt id='1677'> +2.9501303E+03 </wgt>
<wgt id='1678'> +2.9475895E+03 </wgt>
<wgt id='1679'> +2.9475500E+03 </wgt>
<wgt id='1680'> +2.9466211E+03 </wgt>
<wgt id='1681'> +2.9481396E+03 </wgt>
<wgt id='1682'> +2.9491500E+03 </wgt>
<wgt id='1683'> +2.9477659E+03 </wgt>
<wgt id='1684'> +2.9477958E+03 </wgt>
<wgt id='1685'> +2.9474501E+03 </wgt>
<wgt id='1686'> +2.9465758E+03 </wgt>
<wgt id='1687'> +2.9470599E+03 </wgt>
<wgt id='1688'> +2.9466276E+03 </wgt>
<wgt id='1689'> +2.9486921E+03 </wgt>
<wgt id='1690'> +2.9465983E+03 </wgt>
<wgt id='1691'> +2.9472471E+03 </wgt>
<wgt id='1692'> +2.9457523E+03 </wgt>
<wgt id='1693'> +2.9475975E+03 </wgt>
<wgt id='1694'> +2.9465493E+03 </wgt>
<wgt id='1695'> +2.9475265E+03 </wgt>
<wgt id='1696'> +2.9465508E+03 </wgt>
<wgt id='1697'> +2.9477125E+03 </wgt>
<wgt id='1698'> +2.9464478E+03 </wgt>
<wgt id='1699'> +2.9466663E+03 </wgt>
<wgt id='1700'> +2.9453525E+03 </wgt>
<wgt id='1701'> +2.9458995E+03 </wgt>
<wgt id='1702'> +2.9454715E+03 </wgt>
<wgt id='1703'> +2.9462266E+03 </wgt>
<wgt id='1704'> +2.9465308E+03 </wgt>
<wgt id='1705'> +2.9464477E+03 </wgt>
<wgt id='1706'> +2.9465944E+03 </wgt>
<wgt id='1707'> +2.9477483E+03 </wgt>
<wgt id='1708'> +2.9464175E+03 </wgt>
<wgt id='1709'> +2.9468454E+03 </wgt>
<wgt id='1710'> +2.9470892E+03 </wgt>
<wgt id='1711'> +2.9455720E+03 </wgt>
<wgt id='1712'> +2.9466921E+03 </wgt>
<wgt id='1713'> +2.9458424E+03 </wgt>
<wgt id='1714'> +2.9469732E+03 </wgt>
<wgt id='1715'> +2.9475838E+03 </wgt>
<wgt id='1716'> +2.9216072E+03 </wgt>
<wgt id='1717'> +2.9723616E+03 </wgt>
<wgt id='1718'> +2.7795820E+03 </wgt>
<wgt id='1719'> +2.7578109E+03 </wgt>
<wgt id='1720'> +2.7360078E+03 </wgt>
<wgt id='1721'> +2.7801944E+03 </wgt>
<wgt id='1722'> +2.8663443E+03 </wgt>
<wgt id='1723'> +2.7962032E+03 </wgt>
<wgt id='1724'> +2.7813459E+03 </wgt>
<wgt id='1725'> +2.7831604E+03 </wgt>
<wgt id='1726'> +2.7806627E+03 </wgt>
<wgt id='1727'> +2.7959716E+03 </wgt>
<wgt id='1728'> +2.7749017E+03 </wgt>
<wgt id='1729'> +2.7500751E+03 </wgt>
<wgt id='1730'> +2.7794930E+03 </wgt>
<wgt id='1731'> +2.7770157E+03 </wgt>
<wgt id='1732'> +2.7704223E+03 </wgt>
<wgt id='1733'> +2.7886230E+03 </wgt>
<wgt id='1734'> +2.7950577E+03 </wgt>
<wgt id='1735'> +2.7461626E+03 </wgt>
<wgt id='1736'> +2.7804444E+03 </wgt>
<wgt id='1737'> +2.7830666E+03 </wgt>
<wgt id='1738'> +2.8029205E+03 </wgt>
<wgt id='1739'> +2.7786930E+03 </wgt>
<wgt id='1740'> +2.7755687E+03 </wgt>
<wgt id='1741'> +2.7842684E+03 </wgt>
<wgt id='1742'> +2.7758971E+03 </wgt>
<wgt id='1743'> +2.7842410E+03 </wgt>
<wgt id='1744'> +2.7680409E+03 </wgt>
<wgt id='1745'> +2.7859847E+03 </wgt>
<wgt id='1746'> +2.7732729E+03 </wgt>
<wgt id='1747'> +2.7658040E+03 </wgt>
<wgt id='1748'> +2.7807426E+03 </wgt>
<wgt id='1749'> +2.7535040E+03 </wgt>
<wgt id='1750'> +2.8029607E+03 </wgt>
<wgt id='1751'> +2.9469402E+03 </wgt>
<wgt id='1752'> +2.9610527E+03 </wgt>
<wgt id='1753'> +2.9708155E+03 </wgt>
<wgt id='1754'> +2.9457597E+03 </wgt>
<wgt id='1755'> +2.8605876E+03 </wgt>
<wgt id='1756'> +2.9318890E+03 </wgt>
<wgt id='1757'> +2.9471366E+03 </wgt>
<wgt id='1758'> +2.9479380E+03 </wgt>
<wgt id='1759'> +2.9492342E+03 </wgt>
<wgt id='1760'> +2.9258736E+03 </wgt>
<wgt id='1761'> +2.9521084E+03 </wgt>
<wgt id='1762'> +2.9654429E+03 </wgt>
<wgt id='1763'> +2.9415888E+03 </wgt>
<wgt id='1764'> +2.9462551E+03 </wgt>
<wgt id='1765'> +2.9440938E+03 </wgt>
<wgt id='1766'> +2.9420156E+03 </wgt>
<wgt id='1767'> +2.9500854E+03 </wgt>
<wgt id='1768'> +2.9432144E+03 </wgt>
<wgt id='1769'> +2.9514486E+03 </wgt>
<wgt id='1770'> +2.9519476E+03 </wgt>
<wgt id='1771'> +2.9195075E+03 </wgt>
<wgt id='1772'> +2.9303849E+03 </wgt>
<wgt id='1773'> +2.9607111E+03 </wgt>
<wgt id='1774'> +2.9474586E+03 </wgt>
<wgt id='1775'> +2.9406496E+03 </wgt>
<wgt id='1776'> +2.9415811E+03 </wgt>
<wgt id='1777'> +2.9526430E+03 </wgt>
<wgt id='1778'> +2.9463788E+03 </wgt>
<wgt id='1779'> +2.9366885E+03 </wgt>
<wgt id='1780'> +2.9423599E+03 </wgt>
<wgt id='1781'> +2.9476601E+03 </wgt>
<wgt id='1782'> +2.9216072E+03 </wgt>
<wgt id='1783'> +2.9723616E+03 </wgt>
<wgt id='1784'> +2.8421299E+03 </wgt>
<wgt id='1785'> +2.8480022E+03 </wgt>
<wgt id='1786'> +2.8362996E+03 </wgt>
<wgt id='1787'> +2.8427364E+03 </wgt>
<wgt id='1788'> +2.8415117E+03 </wgt>
<wgt id='1789'> +2.8450892E+03 </wgt>
<wgt id='1790'> +2.8391629E+03 </wgt>
<wgt id='1791'> +2.8316037E+03 </wgt>
<wgt id='1792'> +2.8522975E+03 </wgt>
<wgt id='1793'> +2.8568600E+03 </wgt>
<wgt id='1794'> +2.8266457E+03 </wgt>
<wgt id='1795'> +2.8471116E+03 </wgt>
<wgt id='1796'> +2.8354652E+03 </wgt>
<wgt id='1797'> +2.8412635E+03 </wgt>
<wgt id='1798'> +2.8428309E+03 </wgt>
<wgt id='1799'> +2.8470458E+03 </wgt>
<wgt id='1800'> +2.8408620E+03 </wgt>
<wgt id='1801'> +2.8445994E+03 </wgt>
<wgt id='1802'> +2.8346812E+03 </wgt>
<wgt id='1803'> +2.8225590E+03 </wgt>
<wgt id='1804'> +2.8611264E+03 </wgt>
<wgt id='1805'> +2.8217023E+03 </wgt>
<wgt id='1806'> +2.8582932E+03 </wgt>
<wgt id='1807'> +2.8447645E+03 </wgt>
<wgt id='1808'> +2.8249660E+03 </wgt>
<wgt id='1809'> +2.8504356E+03 </wgt>
<wgt id='1810'> +2.8365824E+03 </wgt>
<wgt id='1811'> +2.8453287E+03 </wgt>
<wgt id='1812'> +2.8399155E+03 </wgt>
<wgt id='1813'> +2.8421299E+03 </wgt>
<wgt id='1814'> +2.9381530E+03 </wgt>
<wgt id='1815'> +2.7340418E+03 </wgt>
<wgt id='1816'> +3.0417056E+03 </wgt>
<wgt id='1817'> +2.9216857E+03 </wgt>
<wgt id='1818'> +2.8543603E+03 </wgt>
<wgt id='1819'> +2.8419398E+03 </wgt>
<wgt id='1820'> +2.8391754E+03 </wgt>
<wgt id='1821'> +2.8441699E+03 </wgt>
<wgt id='1822'> +2.8159008E+03 </wgt>
<wgt id='1823'> +2.8669441E+03 </wgt>
<wgt id='1824'> +2.8299551E+03 </wgt>
<wgt id='1825'> +2.8766959E+03 </wgt>
<wgt id='1826'> +2.7798660E+03 </wgt>
<wgt id='1827'> +2.9349360E+03 </wgt>
<wgt id='1828'> +2.9414000E+03 </wgt>
<wgt id='1829'> +2.9281968E+03 </wgt>
<wgt id='1830'> +2.9338550E+03 </wgt>
<wgt id='1831'> +2.9356963E+03 </wgt>
<wgt id='1832'> +2.9377876E+03 </wgt>
<wgt id='1833'> +2.9317769E+03 </wgt>
<wgt id='1834'> +2.9216352E+03 </wgt>
<wgt id='1835'> +2.9472941E+03 </wgt>
<wgt id='1836'> +2.9473248E+03 </wgt>
<wgt id='1837'> +2.9219111E+03 </wgt>
<wgt id='1838'> +2.9458432E+03 </wgt>
<wgt id='1839'> +2.9231522E+03 </wgt>
<wgt id='1840'> +2.9274430E+03 </wgt>
<wgt id='1841'> +2.9423230E+03 </wgt>
<wgt id='1842'> +2.9360432E+03 </wgt>
<wgt id='1843'> +2.9396523E+03 </wgt>
<wgt id='1844'> +2.9298556E+03 </wgt>
<wgt id='1845'> +2.9388264E+03 </wgt>
<wgt id='1846'> +2.9247226E+03 </wgt>
<wgt id='1847'> +2.9426551E+03 </wgt>
<wgt id='1848'> +2.9316711E+03 </wgt>
<wgt id='1849'> +2.9337078E+03 </wgt>
<wgt id='1850'> +2.9543959E+03 </wgt>
<wgt id='1851'> +2.9153863E+03 </wgt>
<wgt id='1852'> +2.9705771E+03 </wgt>
<wgt id='1853'> +2.8949324E+03 </wgt>
<wgt id='1854'> +2.9678219E+03 </wgt>
<wgt id='1855'> +2.9049036E+03 </wgt>
<wgt id='1856'> +2.9349360E+03 </wgt>
<wgt id='1857'> +3.0430500E+03 </wgt>
<wgt id='1858'> +2.8047141E+03 </wgt>
<wgt id='1859'> +3.1445916E+03 </wgt>
<wgt id='1860'> +2.9966046E+03 </wgt>
<wgt id='1861'> +2.9964034E+03 </wgt>
<wgt id='1862'> +2.9259875E+03 </wgt>
<wgt id='1863'> +2.9301105E+03 </wgt>
<wgt id='1864'> +2.9293476E+03 </wgt>
<wgt id='1865'> +2.9161578E+03 </wgt>
<wgt id='1866'> +3.0193025E+03 </wgt>
<wgt id='1867'> +2.9440915E+03 </wgt>
<wgt id='1868'> +2.9296653E+03 </wgt>
<wgt id='1869'> +2.9010852E+03 </wgt>
<wgt id='1870'> +2.8551708E+03 </wgt>
<wgt id='1871'> +2.8539723E+03 </wgt>
<wgt id='1872'> +2.8527866E+03 </wgt>
<wgt id='1873'> +2.8515979E+03 </wgt>
<wgt id='1874'> +2.8504123E+03 </wgt>
<wgt id='1875'> +2.8492249E+03 </wgt>
<wgt id='1876'> +2.8480396E+03 </wgt>
<wgt id='1877'> +2.8468524E+03 </wgt>
<wgt id='1878'> +2.8456685E+03 </wgt>
<wgt id='1879'> +2.8444816E+03 </wgt>
<wgt id='1880'> +2.8432928E+03 </wgt>
<wgt id='1881'> +2.8420964E+03 </wgt>
<wgt id='1882'> +2.8409213E+03 </wgt>
<wgt id='1883'> +2.8397278E+03 </wgt>
<wgt id='1884'> +2.8385538E+03 </wgt>
<wgt id='1885'> +2.8373593E+03 </wgt>
<wgt id='1886'> +2.8361865E+03 </wgt>
<wgt id='1887'> +2.8349920E+03 </wgt>
<wgt id='1888'> +2.8338210E+03 </wgt>
<wgt id='1889'> +2.8326391E+03 </wgt>
<wgt id='1890'> +2.8314571E+03 </wgt>
<wgt id='1891'> +2.8302704E+03 </wgt>
<wgt id='1892'> +2.8290759E+03 </wgt>
<wgt id='1893'> +2.8279056E+03 </wgt>
<wgt id='1894'> +2.8267136E+03 </wgt>
<wgt id='1895'> +2.8255412E+03 </wgt>
<wgt id='1896'> +2.8243492E+03 </wgt>
<wgt id='1897'> +2.8231681E+03 </wgt>
<wgt id='1898'> +2.8219855E+03 </wgt>
<wgt id='1899'> +2.8208077E+03 </wgt>
<wgt id='1900'> +2.8196256E+03 </wgt>
<wgt id='1901'> +2.9343766E+03 </wgt>
<wgt id='1902'> +2.9523768E+03 </wgt>
<wgt id='1903'> +2.9137952E+03 </wgt>
<wgt id='1904'> +2.9609044E+03 </wgt>
<wgt id='1905'> +2.9715450E+03 </wgt>
<wgt id='1906'> +2.9728860E+03 </wgt>
<wgt id='1907'> +2.9592818E+03 </wgt>
<wgt id='1908'> +2.9432110E+03 </wgt>
<wgt id='1909'> +2.9385970E+03 </wgt>
<wgt id='1910'> +2.9389917E+03 </wgt>
<wgt id='1911'> +2.9444324E+03 </wgt>
<wgt id='1912'> +2.9533036E+03 </wgt>
<wgt id='1913'> +2.9201483E+03 </wgt>
<wgt id='1914'> +2.9499090E+03 </wgt>
<wgt id='1915'> +2.9075799E+03 </wgt>
<wgt id='1916'> +2.9394575E+03 </wgt>
<wgt id='1917'> +2.9176941E+03 </wgt>
<wgt id='1918'> +2.9429430E+03 </wgt>
<wgt id='1919'> +2.9504510E+03 </wgt>
<wgt id='1920'> +2.8861287E+03 </wgt>
<wgt id='1921'> +2.9422115E+03 </wgt>
<wgt id='1922'> +2.9407838E+03 </wgt>
<wgt id='1923'> +2.9153548E+03 </wgt>
<wgt id='1924'> +2.9374756E+03 </wgt>
<wgt id='1925'> +2.9494340E+03 </wgt>
<wgt id='1926'> +2.9370096E+03 </wgt>
<wgt id='1927'> +2.9223597E+03 </wgt>
<wgt id='1928'> +2.9361970E+03 </wgt>
<wgt id='1929'> +2.9402862E+03 </wgt>
<wgt id='1930'> +2.9323222E+03 </wgt>
<wgt id='1931'> +2.9421966E+03 </wgt>
<wgt id='1932'> +2.9413640E+03 </wgt>
<wgt id='1933'> +2.9483959E+03 </wgt>
<wgt id='1934'> +2.9455209E+03 </wgt>
<wgt id='1935'> +2.9336539E+03 </wgt>
<wgt id='1936'> +2.9516345E+03 </wgt>
<wgt id='1937'> +2.9124887E+03 </wgt>
<wgt id='1938'> +2.9430773E+03 </wgt>
<wgt id='1939'> +2.9305162E+03 </wgt>
<wgt id='1940'> +2.9225981E+03 </wgt>
<wgt id='1941'> +2.9283084E+03 </wgt>
<wgt id='1942'> +2.9292117E+03 </wgt>
<wgt id='1943'> +2.9325613E+03 </wgt>
<wgt id='1944'> +2.9352751E+03 </wgt>
<wgt id='1945'> +2.9448928E+03 </wgt>
<wgt id='1946'> +2.9342132E+03 </wgt>
<wgt id='1947'> +2.9373134E+03 </wgt>
<wgt id='1948'> +2.9361140E+03 </wgt>
<wgt id='1949'> +2.9353404E+03 </wgt>
<wgt id='1950'> +2.9350384E+03 </wgt>
<wgt id='1951'> +2.9343135E+03 </wgt>
<wgt id='1952'> +2.9334756E+03 </wgt>
<wgt id='1953'> +2.9359995E+03 </wgt>
<wgt id='1954'> +2.9332690E+03 </wgt>
<wgt id='1955'> +2.9319042E+03 </wgt>
<wgt id='1956'> +2.9332172E+03 </wgt>
<wgt id='1957'> +2.9430879E+03 </wgt>
<wgt id='1958'> +2.9351504E+03 </wgt>
<wgt id='1959'> +2.9341921E+03 </wgt>
<wgt id='1960'> +2.9322040E+03 </wgt>
<wgt id='1961'> +2.9351223E+03 </wgt>
<wgt id='1962'> +2.9341008E+03 </wgt>
<wgt id='1963'> +2.9377434E+03 </wgt>
<wgt id='1964'> +2.9351633E+03 </wgt>
<wgt id='1965'> +2.9352845E+03 </wgt>
<wgt id='1966'> +2.9342470E+03 </wgt>
<wgt id='1967'> +2.9357812E+03 </wgt>
<wgt id='1968'> +2.9367273E+03 </wgt>
<wgt id='1969'> +2.9354498E+03 </wgt>
<wgt id='1970'> +2.9353606E+03 </wgt>
<wgt id='1971'> +2.9350862E+03 </wgt>
<wgt id='1972'> +2.9342760E+03 </wgt>
<wgt id='1973'> +2.9346508E+03 </wgt>
<wgt id='1974'> +2.9342524E+03 </wgt>
<wgt id='1975'> +2.9363428E+03 </wgt>
<wgt id='1976'> +2.9342745E+03 </wgt>
<wgt id='1977'> +2.9350284E+03 </wgt>
<wgt id='1978'> +2.9334221E+03 </wgt>
<wgt id='1979'> +2.9353301E+03 </wgt>
<wgt id='1980'> +2.9341859E+03 </wgt>
<wgt id='1981'> +2.9350849E+03 </wgt>
<wgt id='1982'> +2.9342937E+03 </wgt>
<wgt id='1983'> +2.9354200E+03 </wgt>
<wgt id='1984'> +2.9341108E+03 </wgt>
<wgt id='1985'> +2.9342915E+03 </wgt>
<wgt id='1986'> +2.9330522E+03 </wgt>
<wgt id='1987'> +2.9336976E+03 </wgt>
<wgt id='1988'> +2.9331025E+03 </wgt>
<wgt id='1989'> +2.9338310E+03 </wgt>
<wgt id='1990'> +2.9341069E+03 </wgt>
<wgt id='1991'> +2.9340759E+03 </wgt>
<wgt id='1992'> +2.9341837E+03 </wgt>
<wgt id='1993'> +2.9353176E+03 </wgt>
<wgt id='1994'> +2.9340855E+03 </wgt>
<wgt id='1995'> +2.9343985E+03 </wgt>
<wgt id='1996'> +2.9347686E+03 </wgt>
<wgt id='1997'> +2.9332703E+03 </wgt>
<wgt id='1998'> +2.9343621E+03 </wgt>
<wgt id='1999'> +2.9334932E+03 </wgt>
<wgt id='2000'> +2.9346638E+03 </wgt>
<wgt id='2001'> +2.9352627E+03 </wgt>
<wgt id='2002'> +2.9343668E+03 </wgt>
<wgt id='2003'> +2.9343150E+03 </wgt>
<wgt id='2004'> +2.9343860E+03 </wgt>
<wgt id='2005'> +2.9343881E+03 </wgt>
<wgt id='2006'> +2.9344052E+03 </wgt>
<wgt id='2007'> +2.9343807E+03 </wgt>
<wgt id='2008'> +2.9343373E+03 </wgt>
<wgt id='2009'> +2.7086972E+03 </wgt>
<wgt id='2010'> +2.5327463E+03 </wgt>
<wgt id='2011'> +2.7930968E+03 </wgt>
<wgt id='2012'> +2.7736621E+03 </wgt>
<wgt id='2013'> +2.7506015E+03 </wgt>
<wgt id='2014'> +2.5048312E+03 </wgt>
<wgt id='2015'> +2.7040404E+03 </wgt>
<wgt id='2016'> +2.8120270E+03 </wgt>
<wgt id='2017'> +2.6389674E+03 </wgt>
<wgt id='2018'> +2.6820661E+03 </wgt>
<wgt id='2019'> +2.7714255E+03 </wgt>
<wgt id='2020'> +2.6122604E+03 </wgt>
<wgt id='2021'> +2.7641855E+03 </wgt>
<wgt id='2022'> +2.8399128E+03 </wgt>
<wgt id='2023'> +2.7327211E+03 </wgt>
<wgt id='2024'> +2.7118395E+03 </wgt>
<wgt id='2025'> +2.5629442E+03 </wgt>
<wgt id='2026'> +2.6607534E+03 </wgt>
<wgt id='2027'> +2.5372695E+03 </wgt>
<wgt id='2028'> +2.7856316E+03 </wgt>
<wgt id='2029'> +2.5968481E+03 </wgt>
<wgt id='2030'> +2.8830302E+03 </wgt>
<wgt id='2031'> +2.6332385E+03 </wgt>
<wgt id='2032'> +2.8038376E+03 </wgt>
<wgt id='2033'> +2.7638632E+03 </wgt>
<wgt id='2034'> +2.7217445E+03 </wgt>
<wgt id='2035'> +2.7082653E+03 </wgt>
<wgt id='2036'> +2.6477403E+03 </wgt>
<wgt id='2037'> +2.7610523E+03 </wgt>
<wgt id='2038'> +2.6802514E+03 </wgt>
<wgt id='2039'> +2.7059312E+03 </wgt>
<wgt id='2040'> +2.7805924E+03 </wgt>
<wgt id='2041'> +2.6200551E+03 </wgt>
<wgt id='2042'> +2.7811086E+03 </wgt>
<wgt id='2043'> +2.7304105E+03 </wgt>
<wgt id='2044'> +2.7424479E+03 </wgt>
<wgt id='2045'> +2.6528562E+03 </wgt>
<wgt id='2046'> +2.7022376E+03 </wgt>
<wgt id='2047'> +2.5531316E+03 </wgt>
<wgt id='2048'> +2.6365717E+03 </wgt>
<wgt id='2049'> +2.7288161E+03 </wgt>
<wgt id='2050'> +2.8516331E+03 </wgt>
<wgt id='2051'> +2.7779692E+03 </wgt>
<wgt id='2052'> +2.7063010E+03 </wgt>
<wgt id='2053'> +2.6511933E+03 </wgt>
<wgt id='2054'> +2.7765652E+03 </wgt>
<wgt id='2055'> +2.7453947E+03 </wgt>
<wgt id='2056'> +2.6673735E+03 </wgt>
<wgt id='2057'> +2.7165258E+03 </wgt>
<wgt id='2058'> +2.7206223E+03 </wgt>
<wgt id='2059'> +2.7792560E+03 </wgt>
<wgt id='2060'> +2.7776773E+03 </wgt>
<wgt id='2061'> +2.6788760E+03 </wgt>
<wgt id='2062'> +2.7620589E+03 </wgt>
<wgt id='2063'> +2.7648806E+03 </wgt>
<wgt id='2064'> +2.7084686E+03 </wgt>
<wgt id='2065'> +2.6560993E+03 </wgt>
<wgt id='2066'> +2.7403747E+03 </wgt>
<wgt id='2067'> +2.7335270E+03 </wgt>
<wgt id='2068'> +2.7143437E+03 </wgt>
<wgt id='2069'> +2.6969161E+03 </wgt>
<wgt id='2070'> +2.7121598E+03 </wgt>
<wgt id='2071'> +2.7354177E+03 </wgt>
<wgt id='2072'> +2.8242278E+03 </wgt>
<wgt id='2073'> +2.5544647E+03 </wgt>
<wgt id='2074'> +2.7253827E+03 </wgt>
<wgt id='2075'> +2.7024630E+03 </wgt>
<wgt id='2076'> +2.7141195E+03 </wgt>
<wgt id='2077'> +2.7619578E+03 </wgt>
<wgt id='2078'> +2.6874492E+03 </wgt>
<wgt id='2079'> +2.6661590E+03 </wgt>
<wgt id='2080'> +2.6932791E+03 </wgt>
<wgt id='2081'> +2.6088718E+03 </wgt>
<wgt id='2082'> +2.5531679E+03 </wgt>
<wgt id='2083'> +2.7794506E+03 </wgt>
<wgt id='2084'> +2.7700258E+03 </wgt>
<wgt id='2085'> +2.5299798E+03 </wgt>
<wgt id='2086'> +2.6936883E+03 </wgt>
<wgt id='2087'> +2.7292146E+03 </wgt>
<wgt id='2088'> +2.6641825E+03 </wgt>
<wgt id='2089'> +2.6852428E+03 </wgt>
<wgt id='2090'> +2.7463727E+03 </wgt>
<wgt id='2091'> +2.8448959E+03 </wgt>
<wgt id='2092'> +2.6054126E+03 </wgt>
<wgt id='2093'> +2.7300945E+03 </wgt>
<wgt id='2094'> +2.7283857E+03 </wgt>
<wgt id='2095'> +2.7334543E+03 </wgt>
<wgt id='2096'> +2.7583260E+03 </wgt>
<wgt id='2097'> +2.7786277E+03 </wgt>
<wgt id='2098'> +2.6358888E+03 </wgt>
<wgt id='2099'> +2.7871428E+03 </wgt>
<wgt id='2100'> +2.7993051E+03 </wgt>
<wgt id='2101'> +2.6394747E+03 </wgt>
<wgt id='2102'> +2.6470534E+03 </wgt>
<wgt id='2103'> +2.7456090E+03 </wgt>
<wgt id='2104'> +2.6458678E+03 </wgt>
<wgt id='2105'> +2.7166427E+03 </wgt>
<wgt id='2106'> +2.7330922E+03 </wgt>
<wgt id='2107'> +2.7937788E+03 </wgt>
<wgt id='2108'> +2.7561643E+03 </wgt>
<wgt id='2109'> +2.6384410E+03 </wgt>
<wgt id='2110'> +2.6995351E+03 </wgt>
<wgt id='2111'> +2.7201748E+03 </wgt>
<wgt id='2112'> +2.8723313E+03 </wgt>
<wgt id='2113'> +3.0910582E+03 </wgt>
<wgt id='2114'> +3.0647296E+03 </wgt>
<wgt id='2115'> +2.5794794E+03 </wgt>
<wgt id='2116'> +2.8576718E+03 </wgt>
</rwgt>
</event>
<event>
 7      2 +2.9771057E+03 8.34503700e+01 7.54677100e-03 1.19605600e-01
       21 -1    0    0  503  502 +0.0000000000e+00 +0.0000000000e+00 +6.4944962891e+02 6.4944962891e+02 0.0000000000e+00 0.0000e+00 -1.0000e+00
       21 -1    0    0  501  503 -0.0000000000e+00 -0.0000000000e+00 -5.4814349768e+00 5.4814349768e+00 0.0000000000e+00 0.0000e+00 -1.0000e+00
       24  2    1    2    0    0 -1.6695066680e-01 -1.2267253021e+01 +4.5384130705e+02 4.6111304367e+02 8.0639901335e+01 0.0000e+00 0.0000e+00
      -11  1    3    3    0    0 -3.3906899069e+01 -1.2819440319e+00 +3.4430368962e+02 3.4597160558e+02 0.0000000000e+00 0.0000e+00 1.0000e+00
       12  1    3    3    0    0 +3.3739948403e+01 -1.0985308989e+01 +1.0953761744e+02 1.1514143809e+02 0.0000000000e+00 0.0000e+00 -1.0000e+00
        1  1    1    2  501    0 +1.9310488079e+00 +2.3141103116e+01 +8.4979471997e+01 8.8095120545e+01 0.0000000000e+00 0.0000e+00 -1.0000e+00
       -2  1    1    2    0  502 -1.7640981411e+00 -1.0873850094e+01 +1.0514741488e+02 1.0572289967e+02 0.0000000000e+00 0.0000e+00 1.0000e+00
<scales pt_clust_4="13000.00000" pt_clust_5="13000.00000" pt_clust_6="21.47490" pt_clust_7="11.01602"></scales>
<mgrwt>
<rscale>  0 0.83450374E+02</rscale>
<asrwt>  2 0.11016018E+02 0.21474896E+02</asrwt>
<pdfrwt beam="1">  1       21 0.99915267E-01 0.83450374E+02</pdfrwt>
<pdfrwt beam="2">  1       21 0.84329820E-03 0.83450374E+02</pdfrwt>
<totfact> 0.86964829E+04</totfact>
</mgrwt>
<clustering>
<clus scale="   11.016">  1  7  2 -1</clus>
<clus scale="   21.475">  2  6  1 -1</clus>
<clus scale="   80.640">  4  5 -1 -1</clus>
<clus scale="   83.450">  1  4  2 -1</clus>
</clustering>
<rwgt>
<wgt id='1001'> +2.9771057E+03 </wgt>
<wgt id='1002'> +3.0181799E+03 </wgt>
<wgt id='1003'> +3.0181799E+03 </wgt>
<wgt id='1004'> +2.8646055E+03 </wgt>
<wgt id='1005'> +3.0418650E+03 </wgt>
<wgt id='1006'> +2.9771057E+03 </wgt>
<wgt id='1007'> +3.0181799E+03 </wgt>
<wgt id='1008'> +3.0181799E+03 </wgt>
<wgt id='1009'> +2.8646055E+03 </wgt>
<wgt id='1010'> +3.0418650E+03 </wgt>
<wgt id='1011'> +2.9771057E+03 </wgt>
<wgt id='1012'> +3.0181799E+03 </wgt>
<wgt id='1013'> +3.0181799E+03 </wgt>
<wgt id='1014'> +2.8646055E+03 </wgt>
<wgt id='1015'> +3.0418650E+03 </wgt>
<wgt id='1016'> +3.0898030E+03 </wgt>
<wgt id='1017'> +3.1151896E+03 </wgt>
<wgt id='1018'> +3.1151896E+03 </wgt>
<wgt id='1019'> +3.0181799E+03 </wgt>
<wgt id='1020'> +3.1295158E+03 </wgt>
<wgt id='1021'> +3.0898030E+03 </wgt>
<wgt id='1022'> +3.1151896E+03 </wgt>
<wgt id='1023'> +3.1151896E+03 </wgt>
<wgt id='1024'> +3.0181799E+03 </wgt>
<wgt id='1025'> +3.1295158E+03 </wgt>
<wgt id='1026'> +3.0898030E+03 </wgt>
<wgt id='1027'> +3.1151896E+03 </wgt>
<wgt id='1028'> +3.1151896E+03 </wgt>
<wgt id='1029'> +3.0181799E+03 </wgt>
<wgt id='1030'> +3.1295158E+03 </wgt>
<wgt id='1031'> +2.8019485E+03 </wgt>
<wgt id='1032'> +2.8646055E+03 </wgt>
<wgt id='1033'> +2.8646055E+03 </wgt>
<wgt id='1034'> +2.6341711E+03 </wgt>
<wgt id='1035'> +2.9012535E+03 </wgt>
<wgt id='1036'> +2.8019485E+03 </wgt>
<wgt id='1037'> +2.8646055E+03 </wgt>
<wgt id='1038'> +2.8646055E+03 </wgt>
<wgt id='1039'> +2.6341711E+03 </wgt>
<wgt id='1040'> +2.9012535E+03 </wgt>
<wgt id='1041'> +2.8019485E+03 </wgt>
<wgt id='1042'> +2.8646055E+03 </wgt>
<wgt id='1043'> +2.8646055E+03 </wgt>
<wgt id='1044'> +2.6341711E+03 </wgt>
<wgt id='1045'> +2.9012535E+03 </wgt>
<wgt id='1046'> +2.9771057E+03 </wgt>
<wgt id='1047'> +2.9761587E+03 </wgt>
<wgt id='1048'> +2.9734848E+03 </wgt>
<wgt id='1049'> +2.9670205E+03 </wgt>
<wgt id='1050'> +2.9808642E+03 </wgt>
<wgt id='1051'> +2.9854000E+03 </wgt>
<wgt id='1052'> +2.9788193E+03 </wgt>
<wgt id='1053'> +2.9943140E+03 </wgt>
<wgt id='1054'> +2.9904687E+03 </wgt>
<wgt id='1055'> +2.9719742E+03 </wgt>
<wgt id='1056'> +2.9706297E+03 </wgt>
<wgt id='1057'> +2.9732608E+03 </wgt>
<wgt id='1058'> +2.9740822E+03 </wgt>
<wgt id='1059'> +2.9651482E+03 </wgt>
<wgt id='1060'> +2.9675287E+03 </wgt>
<wgt id='1061'> +2.9731525E+03 </wgt>
<wgt id='1062'> +2.9789727E+03 </wgt>
<wgt id='1063'> +2.9742538E+03 </wgt>
<wgt id='1064'> +2.9683491E+03 </wgt>
<wgt id='1065'> +2.9785007E+03 </wgt>
<wgt id='1066'> +2.9657740E+03 </wgt>
<wgt id='1067'> +2.9834396E+03 </wgt>
<wgt id='1068'> +2.9638314E+03 </wgt>
<wgt id='1069'> +2.9773005E+03 </wgt>
<wgt id='1070'> +2.9701774E+03 </wgt>
<wgt id='1071'> +2.9663630E+03 </wgt>
<wgt id='1072'> +2.9768776E+03 </wgt>
<wgt id='1073'> +2.9718699E+03 </wgt>
<wgt id='1074'> +2.9746438E+03 </wgt>
<wgt id='1075'> +3.0001835E+03 </wgt>
<wgt id='1076'> +2.9786569E+03 </wgt>
<wgt id='1077'> +2.9777047E+03 </wgt>
<wgt id='1078'> +2.9818509E+03 </wgt>
<wgt id='1079'> +2.9803929E+03 </wgt>
<wgt id='1080'> +2.9808737E+03 </wgt>
<wgt id='1081'> +2.9731080E+03 </wgt>
<wgt id='1082'> +2.9721668E+03 </wgt>
<wgt id='1083'> +2.9833691E+03 </wgt>
<wgt id='1084'> +2.9756328E+03 </wgt>
<wgt id='1085'> +2.9742252E+03 </wgt>
<wgt id='1086'> +2.9728817E+03 </wgt>
<wgt id='1087'> +2.9706258E+03 </wgt>
<wgt id='1088'> +2.9697385E+03 </wgt>
<wgt id='1089'> +2.9804481E+03 </wgt>
<wgt id='1090'> +2.9823509E+03 </wgt>
<wgt id='1091'> +2.9749114E+03 </wgt>
<wgt id='1092'> +2.9842093E+03 </wgt>
<wgt id='1093'> +2.9826655E+03 </wgt>
<wgt id='1094'> +2.9751188E+03 </wgt>
<wgt id='1095'> +2.9767314E+03 </wgt>
<wgt id='1096'> +2.9820133E+03 </wgt>
<wgt id='1097'> +2.9796512E+03 </wgt>
<wgt id='1098'> +2.9736233E+03 </wgt>
<wgt id='1099'> +2.9763905E+03 </wgt>
<wgt id='1100'> +2.9788136E+03 </wgt>
<wgt id='1101'> +2.9790457E+03 </wgt>
<wgt id='1102'> +2.9771926E+03 </wgt>
<wgt id='1103'> +2.9748520E+03 </wgt>
<wgt id='1104'> +2.9776987E+03 </wgt>
<wgt id='1105'> +2.9767353E+03 </wgt>
<wgt id='1106'> +2.9784508E+03 </wgt>
<wgt id='1107'> +2.9771505E+03 </wgt>
<wgt id='1108'> +2.9776349E+03 </wgt>
<wgt id='1109'> +2.9757716E+03 </wgt>
<wgt id='1110'> +2.9755770E+03 </wgt>
<wgt id='1111'> +2.9768581E+03 </wgt>
<wgt id='1112'> +2.9757179E+03 </wgt>
<wgt id='1113'> +2.9776637E+03 </wgt>
<wgt id='1114'> +2.9784943E+03 </wgt>
<wgt id='1115'> +2.9773537E+03 </wgt>
<wgt id='1116'> +2.9768293E+03 </wgt>
<wgt id='1117'> +2.9746921E+03 </wgt>
<wgt id='1118'> +2.9772245E+03 </wgt>
<wgt id='1119'> +2.9771788E+03 </wgt>
<wgt id='1120'> +2.9758317E+03 </wgt>
<wgt id='1121'> +2.9767307E+03 </wgt>
<wgt id='1122'> +2.9774362E+03 </wgt>
<wgt id='1123'> +2.9758360E+03 </wgt>
<wgt id='1124'> +2.9775614E+03 </wgt>
<wgt id='1125'> +2.9779265E+03 </wgt>
<wgt id='1126'> +2.9765939E+03 </wgt>
<wgt id='1127'> +2.9778227E+03 </wgt>
<wgt id='1128'> +2.9777354E+03 </wgt>
<wgt id='1129'> +2.9765529E+03 </wgt>
<wgt id='1130'> +2.9769125E+03 </wgt>
<wgt id='1131'> +2.9761365E+03 </wgt>
<wgt id='1132'> +2.9772693E+03 </wgt>
<wgt id='1133'> +2.9769384E+03 </wgt>
<wgt id='1134'> +2.9773253E+03 </wgt>
<wgt id='1135'> +2.9779008E+03 </wgt>
<wgt id='1136'> +2.9770752E+03 </wgt>
<wgt id='1137'> +2.9764185E+03 </wgt>
<wgt id='1138'> +2.9767109E+03 </wgt>
<wgt id='1139'> +2.9772317E+03 </wgt>
<wgt id='1140'> +2.9766988E+03 </wgt>
<wgt id='1141'> +2.9769691E+03 </wgt>
<wgt id='1142'> +2.9769174E+03 </wgt>
<wgt id='1143'> +2.9777412E+03 </wgt>
<wgt id='1144'> +2.9768070E+03 </wgt>
<wgt id='1145'> +2.9775540E+03 </wgt>
<wgt id='1146'> +2.9768695E+03 </wgt>
<wgt id='1147'> +2.8787094E+03 </wgt>
<wgt id='1148'> +3.0949456E+03 </wgt>
<wgt id='1149'> +2.4632944E+03 </wgt>
<wgt id='1150'> +2.5665808E+03 </wgt>
<wgt id='1151'> +2.6503749E+03 </wgt>
<wgt id='1152'> +2.7424903E+03 </wgt>
<wgt id='1153'> +2.9195812E+03 </wgt>
<wgt id='1154'> +3.0348849E+03 </wgt>
<wgt id='1155'> +3.2141595E+03 </wgt>
<wgt id='1156'> +3.3322079E+03 </wgt>
<wgt id='1157'> +3.0543348E+03 </wgt>
<wgt id='1158'> +3.0538898E+03 </wgt>
<wgt id='1159'> +3.0556210E+03 </wgt>
<wgt id='1160'> +3.0418721E+03 </wgt>
<wgt id='1161'> +3.0578614E+03 </wgt>
<wgt id='1162'> +3.0383121E+03 </wgt>
<wgt id='1163'> +3.0480492E+03 </wgt>
<wgt id='1164'> +3.0383369E+03 </wgt>
<wgt id='1165'> +3.0571547E+03 </wgt>
<wgt id='1166'> +3.0417877E+03 </wgt>
<wgt id='1167'> +3.0522909E+03 </wgt>
<wgt id='1168'> +3.0536119E+03 </wgt>
<wgt id='1169'> +3.0512072E+03 </wgt>
<wgt id='1170'> +3.0607991E+03 </wgt>
<wgt id='1171'> +3.0465453E+03 </wgt>
<wgt id='1172'> +3.0502240E+03 </wgt>
<wgt id='1173'> +3.0551612E+03 </wgt>
<wgt id='1174'> +3.0477415E+03 </wgt>
<wgt id='1175'> +3.0522801E+03 </wgt>
<wgt id='1176'> +3.0648664E+03 </wgt>
<wgt id='1177'> +3.0650416E+03 </wgt>
<wgt id='1178'> +3.0658476E+03 </wgt>
<wgt id='1179'> +3.0542145E+03 </wgt>
<wgt id='1180'> +3.0584780E+03 </wgt>
<wgt id='1181'> +3.0608790E+03 </wgt>
<wgt id='1182'> +3.0582099E+03 </wgt>
<wgt id='1183'> +3.0453233E+03 </wgt>
<wgt id='1184'> +3.0569895E+03 </wgt>
<wgt id='1185'> +3.0577140E+03 </wgt>
<wgt id='1186'> +3.0462627E+03 </wgt>
<wgt id='1187'> +3.0736136E+03 </wgt>
<wgt id='1188'> +3.0642011E+03 </wgt>
<wgt id='1189'> +3.0485378E+03 </wgt>
<wgt id='1190'> +3.0531272E+03 </wgt>
<wgt id='1191'> +3.0521186E+03 </wgt>
<wgt id='1192'> +3.0614514E+03 </wgt>
<wgt id='1193'> +3.0593370E+03 </wgt>
<wgt id='1194'> +3.0557056E+03 </wgt>
<wgt id='1195'> +3.0557007E+03 </wgt>
<wgt id='1196'> +3.0641805E+03 </wgt>
<wgt id='1197'> +3.0525331E+03 </wgt>
<wgt id='1198'> +3.0527445E+03 </wgt>
<wgt id='1199'> +3.0471799E+03 </wgt>
<wgt id='1200'> +3.0456754E+03 </wgt>
<wgt id='1201'> +3.0609481E+03 </wgt>
<wgt id='1202'> +3.0595930E+03 </wgt>
<wgt id='1203'> +3.0588162E+03 </wgt>
<wgt id='1204'> +3.0527252E+03 </wgt>
<wgt id='1205'> +3.0578141E+03 </wgt>
<wgt id='1206'> +3.0518094E+03 </wgt>
<wgt id='1207'> +3.0505380E+03 </wgt>
<wgt id='1208'> +3.0628685E+03 </wgt>
<wgt id='1209'> +3.0535268E+03 </wgt>
<wgt id='1210'> +3.0522953E+03 </wgt>
<wgt id='1211'> +3.0539337E+03 </wgt>
<wgt id='1212'> +3.0567929E+03 </wgt>
<wgt id='1213'> +3.0551691E+03 </wgt>
<wgt id='1214'> +3.0534406E+03 </wgt>
<wgt id='1215'> +3.0535603E+03 </wgt>
<wgt id='1216'> +3.0540220E+03 </wgt>
<wgt id='1217'> +3.0547392E+03 </wgt>
<wgt id='1218'> +3.0551018E+03 </wgt>
<wgt id='1219'> +3.0541769E+03 </wgt>
<wgt id='1220'> +3.0556887E+03 </wgt>
<wgt id='1221'> +3.0543113E+03 </wgt>
<wgt id='1222'> +3.0550290E+03 </wgt>
<wgt id='1223'> +3.0547654E+03 </wgt>
<wgt id='1224'> +3.0535818E+03 </wgt>
<wgt id='1225'> +3.0541255E+03 </wgt>
<wgt id='1226'> +3.0526760E+03 </wgt>
<wgt id='1227'> +3.0531194E+03 </wgt>
<wgt id='1228'> +3.0549717E+03 </wgt>
<wgt id='1229'> +3.0550975E+03 </wgt>
<wgt id='1230'> +3.0536715E+03 </wgt>
<wgt id='1231'> +3.0569725E+03 </wgt>
<wgt id='1232'> +3.0547203E+03 </wgt>
<wgt id='1233'> +3.0548258E+03 </wgt>
<wgt id='1234'> +3.0542653E+03 </wgt>
<wgt id='1235'> +3.0556474E+03 </wgt>
<wgt id='1236'> +3.0534900E+03 </wgt>
<wgt id='1237'> +3.0530103E+03 </wgt>
<wgt id='1238'> +3.0537728E+03 </wgt>
<wgt id='1239'> +3.0533086E+03 </wgt>
<wgt id='1240'> +3.0553597E+03 </wgt>
<wgt id='1241'> +3.0545056E+03 </wgt>
<wgt id='1242'> +3.0544705E+03 </wgt>
<wgt id='1243'> +3.0545715E+03 </wgt>
<wgt id='1244'> +3.0540545E+03 </wgt>
<wgt id='1245'> +3.0540496E+03 </wgt>
<wgt id='1246'> +3.0546131E+03 </wgt>
<wgt id='1247'> +3.0535305E+03 </wgt>
<wgt id='1248'> +3.0537560E+03 </wgt>
<wgt id='1249'> +3.0545130E+03 </wgt>
<wgt id='1250'> +3.0547671E+03 </wgt>
<wgt id='1251'> +3.0545233E+03 </wgt>
<wgt id='1252'> +3.0546430E+03 </wgt>
<wgt id='1253'> +3.0538629E+03 </wgt>
<wgt id='1254'> +3.0536235E+03 </wgt>
<wgt id='1255'> +3.0545811E+03 </wgt>
<wgt id='1256'> +3.0548215E+03 </wgt>
<wgt id='1257'> +3.0545006E+03 </wgt>
<wgt id='1258'> +2.9414056E+03 </wgt>
<wgt id='1259'> +3.1722216E+03 </wgt>
<wgt id='1260'> +3.0024553E+03 </wgt>
<wgt id='1261'> +3.0042828E+03 </wgt>
<wgt id='1262'> +2.9984050E+03 </wgt>
<wgt id='1263'> +3.0083793E+03 </wgt>
<wgt id='1264'> +2.9999775E+03 </wgt>
<wgt id='1265'> +3.0393398E+03 </wgt>
<wgt id='1266'> +2.9551135E+03 </wgt>
<wgt id='1267'> +2.9771067E+03 </wgt>
<wgt id='1268'> +3.0325182E+03 </wgt>
<wgt id='1269'> +2.9833425E+03 </wgt>
<wgt id='1270'> +3.0112168E+03 </wgt>
<wgt id='1271'> +3.0229404E+03 </wgt>
<wgt id='1272'> +2.9782949E+03 </wgt>
<wgt id='1273'> +3.0470817E+03 </wgt>
<wgt id='1274'> +2.9753724E+03 </wgt>
<wgt id='1275'> +2.9940875E+03 </wgt>
<wgt id='1276'> +3.0180277E+03 </wgt>
<wgt id='1277'> +2.9869348E+03 </wgt>
<wgt id='1278'> +3.0196410E+03 </wgt>
<wgt id='1279'> +2.9782152E+03 </wgt>
<wgt id='1280'> +3.0261696E+03 </wgt>
<wgt id='1281'> +2.9946308E+03 </wgt>
<wgt id='1282'> +3.0071951E+03 </wgt>
<wgt id='1283'> +2.9817837E+03 </wgt>
<wgt id='1284'> +3.0251228E+03 </wgt>
<wgt id='1285'> +3.0045701E+03 </wgt>
<wgt id='1286'> +3.0007370E+03 </wgt>
<wgt id='1287'> +3.0095370E+03 </wgt>
<wgt id='1288'> +2.9893094E+03 </wgt>
<wgt id='1289'> +3.0002062E+03 </wgt>
<wgt id='1290'> +3.0024862E+03 </wgt>
<wgt id='1291'> +2.9954038E+03 </wgt>
<wgt id='1292'> +3.0114618E+03 </wgt>
<wgt id='1293'> +2.9859371E+03 </wgt>
<wgt id='1294'> +3.0182602E+03 </wgt>
<wgt id='1295'> +2.9791701E+03 </wgt>
<wgt id='1296'> +3.0234478E+03 </wgt>
<wgt id='1297'> +2.9691392E+03 </wgt>
<wgt id='1298'> +3.0411367E+03 </wgt>
<wgt id='1299'> +3.0499878E+03 </wgt>
<wgt id='1300'> +2.9794024E+03 </wgt>
<wgt id='1301'> +3.0065427E+03 </wgt>
<wgt id='1302'> +3.0020885E+03 </wgt>
<wgt id='1303'> +3.0228394E+03 </wgt>
<wgt id='1304'> +2.9900608E+03 </wgt>
<wgt id='1305'> +2.9335477E+03 </wgt>
<wgt id='1306'> +3.0297995E+03 </wgt>
<wgt id='1307'> +2.9307411E+03 </wgt>
<wgt id='1308'> +3.0554277E+03 </wgt>
<wgt id='1309'> +2.9960482E+03 </wgt>
<wgt id='1310'> +3.0123107E+03 </wgt>
<wgt id='1311'> +3.0055263E+03 </wgt>
<wgt id='1312'> +2.9983718E+03 </wgt>
<wgt id='1313'> +2.8958533E+03 </wgt>
<wgt id='1314'> +2.9272259E+03 </wgt>
<wgt id='1315'> +2.9870504E+03 </wgt>
<wgt id='1316'> +3.0308506E+03 </wgt>
<wgt id='1317'> +2.8785979E+03 </wgt>
<wgt id='1318'> +3.1354029E+03 </wgt>
<wgt id='1319'> +3.0639165E+03 </wgt>
<wgt id='1320'> +3.0598677E+03 </wgt>
<wgt id='1321'> +3.0697829E+03 </wgt>
<wgt id='1322'> +2.9943072E+03 </wgt>
<wgt id='1323'> +3.1001480E+03 </wgt>
<wgt id='1324'> +3.0788156E+03 </wgt>
<wgt id='1325'> +3.0544129E+03 </wgt>
<wgt id='1326'> +3.0215770E+03 </wgt>
<wgt id='1327'> +3.0968963E+03 </wgt>
<wgt id='1328'> +3.0591353E+03 </wgt>
<wgt id='1329'> +3.0797530E+03 </wgt>
<wgt id='1330'> +3.0713344E+03 </wgt>
<wgt id='1331'> +3.0578824E+03 </wgt>
<wgt id='1332'> +3.0314893E+03 </wgt>
<wgt id='1333'> +3.0857522E+03 </wgt>
<wgt id='1334'> +3.1068383E+03 </wgt>
<wgt id='1335'> +3.0376977E+03 </wgt>
<wgt id='1336'> +3.0211430E+03 </wgt>
<wgt id='1337'> +3.1148618E+03 </wgt>
<wgt id='1338'> +3.0617347E+03 </wgt>
<wgt id='1339'> +3.0639027E+03 </wgt>
<wgt id='1340'> +3.0598057E+03 </wgt>
<wgt id='1341'> +3.0703595E+03 </wgt>
<wgt id='1342'> +3.0765071E+03 </wgt>
<wgt id='1343'> +3.0496396E+03 </wgt>
<wgt id='1344'> +3.0719377E+03 </wgt>
<wgt id='1345'> +3.0560750E+03 </wgt>
<wgt id='1346'> +3.0720903E+03 </wgt>
<wgt id='1347'> +3.0519243E+03 </wgt>
<wgt id='1348'> +3.0687765E+03 </wgt>
<wgt id='1349'> +3.0621648E+03 </wgt>
<wgt id='1350'> +3.0656638E+03 </wgt>
<wgt id='1351'> +3.0616629E+03 </wgt>
<wgt id='1352'> +3.0629180E+03 </wgt>
<wgt id='1353'> +3.0667030E+03 </wgt>
<wgt id='1354'> +3.0421265E+03 </wgt>
<wgt id='1355'> +3.0844516E+03 </wgt>
<wgt id='1356'> +3.0481252E+03 </wgt>
<wgt id='1357'> +3.0822847E+03 </wgt>
<wgt id='1358'> +3.0450630E+03 </wgt>
<wgt id='1359'> +3.0780342E+03 </wgt>
<wgt id='1360'> +3.0557063E+03 </wgt>
<wgt id='1361'> +3.0707687E+03 </wgt>
<wgt id='1362'> +3.0088419E+03 </wgt>
<wgt id='1363'> +3.1124414E+03 </wgt>
<wgt id='1364'> +3.0913112E+03 </wgt>
<wgt id='1365'> +3.0591931E+03 </wgt>
<wgt id='1366'> +3.0789277E+03 </wgt>
<wgt id='1367'> +3.0388903E+03 </wgt>
<wgt id='1368'> +3.0405949E+03 </wgt>
<wgt id='1369'> +3.0991562E+03 </wgt>
<wgt id='1370'> +3.0638971E+03 </wgt>
<wgt id='1371'> +3.0628133E+03 </wgt>
<wgt id='1372'> +2.9618935E+03 </wgt>
<wgt id='1373'> +3.0336866E+03 </wgt>
<wgt id='1374'> +3.0629272E+03 </wgt>
<wgt id='1375'> +3.0765606E+03 </wgt>
<wgt id='1376'> +2.9364750E+03 </wgt>
<wgt id='1377'> +3.1997015E+03 </wgt>
<wgt id='1378'> +3.6099921E+03 </wgt>
<wgt id='1379'> +3.0571758E+03 </wgt>
<wgt id='1380'> +3.0628850E+03 </wgt>
<wgt id='1381'> +3.0510355E+03 </wgt>
<wgt id='1382'> +3.0588855E+03 </wgt>
<wgt id='1383'> +3.0559865E+03 </wgt>
<wgt id='1384'> +3.0579239E+03 </wgt>
<wgt id='1385'> +3.0563087E+03 </wgt>
<wgt id='1386'> +3.0504772E+03 </wgt>
<wgt id='1387'> +3.0645311E+03 </wgt>
<wgt id='1388'> +3.0723875E+03 </wgt>
<wgt id='1389'> +3.0422400E+03 </wgt>
<wgt id='1390'> +3.0642080E+03 </wgt>
<wgt id='1391'> +3.0418349E+03 </wgt>
<wgt id='1392'> +3.0532022E+03 </wgt>
<wgt id='1393'> +3.0641377E+03 </wgt>
<wgt id='1394'> +3.0508317E+03 </wgt>
<wgt id='1395'> +3.0606746E+03 </wgt>
<wgt id='1396'> +3.0376686E+03 </wgt>
<wgt id='1397'> +3.0801210E+03 </wgt>
<wgt id='1398'> +3.0548137E+03 </wgt>
<wgt id='1399'> +3.0591191E+03 </wgt>
<wgt id='1400'> +3.0508783E+03 </wgt>
<wgt id='1401'> +3.0656292E+03 </wgt>
<wgt id='1402'> +3.0357719E+03 </wgt>
<wgt id='1403'> +3.0723656E+03 </wgt>
<wgt id='1404'> +3.0816920E+03 </wgt>
<wgt id='1405'> +3.0196547E+03 </wgt>
<wgt id='1406'> +3.0652511E+03 </wgt>
<wgt id='1407'> +3.0574005E+03 </wgt>
<wgt id='1408'> +3.0514848E+03 </wgt>
<wgt id='1409'> +3.0636918E+03 </wgt>
<wgt id='1410'> +3.0381826E+03 </wgt>
<wgt id='1411'> +3.0769377E+03 </wgt>
<wgt id='1412'> +3.0678415E+03 </wgt>
<wgt id='1413'> +3.0461963E+03 </wgt>
<wgt id='1414'> +3.0619455E+03 </wgt>
<wgt id='1415'> +3.0513116E+03 </wgt>
<wgt id='1416'> +3.0620814E+03 </wgt>
<wgt id='1417'> +3.0573943E+03 </wgt>
<wgt id='1418'> +3.0490861E+03 </wgt>
<wgt id='1419'> +3.0661317E+03 </wgt>
<wgt id='1420'> +3.0463312E+03 </wgt>
<wgt id='1421'> +3.0704414E+03 </wgt>
<wgt id='1422'> +3.0973856E+03 </wgt>
<wgt id='1423'> +3.0469265E+03 </wgt>
<wgt id='1424'> +3.0536247E+03 </wgt>
<wgt id='1425'> +3.0664893E+03 </wgt>
<wgt id='1426'> +3.0723334E+03 </wgt>
<wgt id='1427'> +3.0502854E+03 </wgt>
<wgt id='1428'> +3.0616730E+03 </wgt>
<wgt id='1429'> +3.0558481E+03 </wgt>
<wgt id='1430'> +2.9510091E+03 </wgt>
<wgt id='1431'> +2.9560132E+03 </wgt>
<wgt id='1432'> +2.9445861E+03 </wgt>
<wgt id='1433'> +2.9570942E+03 </wgt>
<wgt id='1434'> +2.9449819E+03 </wgt>
<wgt id='1435'> +2.9546513E+03 </wgt>
<wgt id='1436'> +2.9496054E+03 </wgt>
<wgt id='1437'> +2.9418529E+03 </wgt>
<wgt id='1438'> +2.9601430E+03 </wgt>
<wgt id='1439'> +2.9582191E+03 </wgt>
<wgt id='1440'> +2.9440665E+03 </wgt>
<wgt id='1441'> +2.9196034E+03 </wgt>
<wgt id='1442'> +2.9645721E+03 </wgt>
<wgt id='1443'> +2.9502908E+03 </wgt>
<wgt id='1444'> +2.9519361E+03 </wgt>
<wgt id='1445'> +2.9418104E+03 </wgt>
<wgt id='1446'> +2.9609554E+03 </wgt>
<wgt id='1447'> +2.9210045E+03 </wgt>
<wgt id='1448'> +2.9673349E+03 </wgt>
<wgt id='1449'> +2.9486166E+03 </wgt>
<wgt id='1450'> +2.9544166E+03 </wgt>
<wgt id='1451'> +2.9520594E+03 </wgt>
<wgt id='1452'> +2.9501130E+03 </wgt>
<wgt id='1453'> +2.9525900E+03 </wgt>
<wgt id='1454'> +2.9460878E+03 </wgt>
<wgt id='1455'> +2.9551320E+03 </wgt>
<wgt id='1456'> +2.9412210E+03 </wgt>
<wgt id='1457'> +2.9581179E+03 </wgt>
<wgt id='1458'> +2.9520538E+03 </wgt>
<wgt id='1459'> +2.9573545E+03 </wgt>
<wgt id='1460'> +2.9297228E+03 </wgt>
<wgt id='1461'> +2.9427984E+03 </wgt>
<wgt id='1462'> +2.9688590E+03 </wgt>
<wgt id='1463'> +2.9540345E+03 </wgt>
<wgt id='1464'> +2.9479123E+03 </wgt>
<wgt id='1465'> +2.9403607E+03 </wgt>
<wgt id='1466'> +2.9580287E+03 </wgt>
<wgt id='1467'> +2.9511950E+03 </wgt>
<wgt id='1468'> +2.9550591E+03 </wgt>
<wgt id='1469'> +2.9410410E+03 </wgt>
<wgt id='1470'> +2.9582195E+03 </wgt>
<wgt id='1471'> +2.9551747E+03 </wgt>
<wgt id='1472'> +2.9473489E+03 </wgt>
<wgt id='1473'> +2.9530167E+03 </wgt>
<wgt id='1474'> +2.9397001E+03 </wgt>
<wgt id='1475'> +2.9360284E+03 </wgt>
<wgt id='1476'> +2.9706787E+03 </wgt>
<wgt id='1477'> +2.9623975E+03 </wgt>
<wgt id='1478'> +2.9473134E+03 </wgt>
<wgt id='1479'> +2.9512063E+03 </wgt>
<wgt id='1480'> +2.9608646E+03 </wgt>
<wgt id='1481'> +5.0013549E+03 </wgt>
<wgt id='1482'> +2.9951602E+03 </wgt>
<wgt id='1483'> +2.9943066E+03 </wgt>
<wgt id='1484'> +2.9959649E+03 </wgt>
<wgt id='1485'> +2.9952515E+03 </wgt>
<wgt id='1486'> +2.9950706E+03 </wgt>
<wgt id='1487'> +2.9882577E+03 </wgt>
<wgt id='1488'> +2.9953037E+03 </wgt>
<wgt id='1489'> +2.9942593E+03 </wgt>
<wgt id='1490'> +3.0008025E+03 </wgt>
<wgt id='1491'> +3.0067423E+03 </wgt>
<wgt id='1492'> +2.9944937E+03 </wgt>
<wgt id='1493'> +2.9946535E+03 </wgt>
<wgt id='1494'> +2.9899655E+03 </wgt>
<wgt id='1495'> +2.9921323E+03 </wgt>
<wgt id='1496'> +2.9973707E+03 </wgt>
<wgt id='1497'> +2.9923747E+03 </wgt>
<wgt id='1498'> +2.9982665E+03 </wgt>
<wgt id='1499'> +2.9971000E+03 </wgt>
<wgt id='1500'> +3.0006652E+03 </wgt>
<wgt id='1501'> +2.9929279E+03 </wgt>
<wgt id='1502'> +2.9979025E+03 </wgt>
<wgt id='1503'> +2.9924724E+03 </wgt>
<wgt id='1504'> +3.0003328E+03 </wgt>
<wgt id='1505'> +2.9898738E+03 </wgt>
<wgt id='1506'> +2.9857869E+03 </wgt>
<wgt id='1507'> +2.9901156E+03 </wgt>
<wgt id='1508'> +2.9974752E+03 </wgt>
<wgt id='1509'> +2.9958490E+03 </wgt>
<wgt id='1510'> +2.9975345E+03 </wgt>
<wgt id='1511'> +3.0054817E+03 </wgt>
<wgt id='1512'> +3.0607198E+03 </wgt>
<wgt id='1513'> +3.0415761E+03 </wgt>
<wgt id='1514'> +3.0456299E+03 </wgt>
<wgt id='1515'> +3.0641277E+03 </wgt>
<wgt id='1516'> +3.0550683E+03 </wgt>
<wgt id='1517'> +3.0758363E+03 </wgt>
<wgt id='1518'> +3.0576030E+03 </wgt>
<wgt id='1519'> +3.0692440E+03 </wgt>
<wgt id='1520'> +3.0493460E+03 </wgt>
<wgt id='1521'> +3.0694435E+03 </wgt>
<wgt id='1522'> +3.0663782E+03 </wgt>
<wgt id='1523'> +3.0557808E+03 </wgt>
<wgt id='1524'> +3.0736288E+03 </wgt>
<wgt id='1525'> +3.0579360E+03 </wgt>
<wgt id='1526'> +3.0484841E+03 </wgt>
<wgt id='1527'> +3.0748890E+03 </wgt>
<wgt id='1528'> +3.0569691E+03 </wgt>
<wgt id='1529'> +3.0605605E+03 </wgt>
<wgt id='1530'> +3.0365141E+03 </wgt>
<wgt id='1531'> +3.0296169E+03 </wgt>
<wgt id='1532'> +3.0550395E+03 </wgt>
<wgt id='1533'> +3.0445602E+03 </wgt>
<wgt id='1534'> +3.0729923E+03 </wgt>
<wgt id='1535'> +3.0473051E+03 </wgt>
<wgt id='1536'> +3.0683638E+03 </wgt>
<wgt id='1537'> +3.0617149E+03 </wgt>
<wgt id='1538'> +3.0561207E+03 </wgt>
<wgt id='1539'> +3.0642648E+03 </wgt>
<wgt id='1540'> +3.0525361E+03 </wgt>
<wgt id='1541'> +3.0598513E+03 </wgt>
<wgt id='1542'> +3.0576533E+03 </wgt>
<wgt id='1543'> +3.0602346E+03 </wgt>
<wgt id='1544'> +3.0603747E+03 </wgt>
<wgt id='1545'> +3.0545953E+03 </wgt>
<wgt id='1546'> +3.0608275E+03 </wgt>
<wgt id='1547'> +3.0677164E+03 </wgt>
<wgt id='1548'> +3.0562541E+03 </wgt>
<wgt id='1549'> +3.0612214E+03 </wgt>
<wgt id='1550'> +3.0583379E+03 </wgt>
<wgt id='1551'> +3.0614248E+03 </wgt>
<wgt id='1552'> +3.0603831E+03 </wgt>
<wgt id='1553'> +3.0627280E+03 </wgt>
<wgt id='1554'> +3.0617363E+03 </wgt>
<wgt id='1555'> +3.0585474E+03 </wgt>
<wgt id='1556'> +3.0636421E+03 </wgt>
<wgt id='1557'> +3.0626009E+03 </wgt>
<wgt id='1558'> +3.0649830E+03 </wgt>
<wgt id='1559'> +3.0577968E+03 </wgt>
<wgt id='1560'> +3.0574597E+03 </wgt>
<wgt id='1561'> +3.0618341E+03 </wgt>
<wgt id='1562'> +3.0599071E+03 </wgt>
<wgt id='1563'> +3.0592993E+03 </wgt>
<wgt id='1564'> +3.0602490E+03 </wgt>
<wgt id='1565'> +3.0582661E+03 </wgt>
<wgt id='1566'> +3.0598583E+03 </wgt>
<wgt id='1567'> +3.0605665E+03 </wgt>
<wgt id='1568'> +3.0601368E+03 </wgt>
<wgt id='1569'> +3.0607897E+03 </wgt>
<wgt id='1570'> +3.0640153E+03 </wgt>
<wgt id='1571'> +3.0594578E+03 </wgt>
<wgt id='1572'> +3.0574262E+03 </wgt>
<wgt id='1573'> +3.0610051E+03 </wgt>
<wgt id='1574'> +3.0583525E+03 </wgt>
<wgt id='1575'> +3.0609990E+03 </wgt>
<wgt id='1576'> +3.0597112E+03 </wgt>
<wgt id='1577'> +3.0610395E+03 </wgt>
<wgt id='1578'> +3.0607557E+03 </wgt>
<wgt id='1579'> +3.0605310E+03 </wgt>
<wgt id='1580'> +3.0622479E+03 </wgt>
<wgt id='1581'> +3.0619049E+03 </wgt>
<wgt id='1582'> +3.0607251E+03 </wgt>
<wgt id='1583'> +3.0586449E+03 </wgt>
<wgt id='1584'> +3.0588918E+03 </wgt>
<wgt id='1585'> +3.0589420E+03 </wgt>
<wgt id='1586'> +3.0612291E+03 </wgt>
<wgt id='1587'> +3.0602870E+03 </wgt>
<wgt id='1588'> +3.0601780E+03 </wgt>
<wgt id='1589'> +3.0599398E+03 </wgt>
<wgt id='1590'> +3.0610551E+03 </wgt>
<wgt id='1591'> +3.0626845E+03 </wgt>
<wgt id='1592'> +3.0601564E+03 </wgt>
<wgt id='1593'> +3.0616804E+03 </wgt>
<wgt id='1594'> +3.0584410E+03 </wgt>
<wgt id='1595'> +3.0623866E+03 </wgt>
<wgt id='1596'> +3.0619805E+03 </wgt>
<wgt id='1597'> +3.0618740E+03 </wgt>
<wgt id='1598'> +3.0629003E+03 </wgt>
<wgt id='1599'> +3.0607463E+03 </wgt>
<wgt id='1600'> +3.0600597E+03 </wgt>
<wgt id='1601'> +3.0606807E+03 </wgt>
<wgt id='1602'> +3.0605228E+03 </wgt>
<wgt id='1603'> +3.0599793E+03 </wgt>
<wgt id='1604'> +3.0605340E+03 </wgt>
<wgt id='1605'> +3.0593761E+03 </wgt>
<wgt id='1606'> +3.0609839E+03 </wgt>
<wgt id='1607'> +3.0610762E+03 </wgt>
<wgt id='1608'> +3.0598303E+03 </wgt>
<wgt id='1609'> +3.0612936E+03 </wgt>
<wgt id='1610'> +3.0616409E+03 </wgt>
<wgt id='1611'> +3.0612311E+03 </wgt>
<wgt id='1612'> +3.0606967E+03 </wgt>
<wgt id='1613'> +2.9755934E+03 </wgt>
<wgt id='1614'> +3.1499557E+03 </wgt>
<wgt id='1615'> +2.9785562E+03 </wgt>
<wgt id='1616'> +2.9848177E+03 </wgt>
<wgt id='1617'> +2.9711498E+03 </wgt>
<wgt id='1618'> +2.9879165E+03 </wgt>
<wgt id='1619'> +2.9872589E+03 </wgt>
<wgt id='1620'> +2.9742485E+03 </wgt>
<wgt id='1621'> +2.9999445E+03 </wgt>
<wgt id='1622'> +3.0014075E+03 </wgt>
<wgt id='1623'> +2.9865426E+03 </wgt>
<wgt id='1624'> +2.9777204E+03 </wgt>
<wgt id='1625'> +2.9790607E+03 </wgt>
<wgt id='1626'> +2.9850715E+03 </wgt>
<wgt id='1627'> +2.9763884E+03 </wgt>
<wgt id='1628'> +2.9908840E+03 </wgt>
<wgt id='1629'> +2.9813073E+03 </wgt>
<wgt id='1630'> +2.9642952E+03 </wgt>
<wgt id='1631'> +2.9855418E+03 </wgt>
<wgt id='1632'> +2.9632758E+03 </wgt>
<wgt id='1633'> +2.9889288E+03 </wgt>
<wgt id='1634'> +2.9878959E+03 </wgt>
<wgt id='1635'> +3.0098012E+03 </wgt>
<wgt id='1636'> +2.9687859E+03 </wgt>
<wgt id='1637'> +2.9826836E+03 </wgt>
<wgt id='1638'> +2.9609404E+03 </wgt>
<wgt id='1639'> +2.9662345E+03 </wgt>
<wgt id='1640'> +2.9940087E+03 </wgt>
<wgt id='1641'> +2.9775392E+03 </wgt>
<wgt id='1642'> +2.9736612E+03 </wgt>
<wgt id='1643'> +2.9836058E+03 </wgt>
<wgt id='1644'> +2.9793754E+03 </wgt>
<wgt id='1645'> +2.9763886E+03 </wgt>
<wgt id='1646'> +2.9773134E+03 </wgt>
<wgt id='1647'> +2.9823024E+03 </wgt>
<wgt id='1648'> +2.9830028E+03 </wgt>
<wgt id='1649'> +2.9785782E+03 </wgt>
<wgt id='1650'> +2.9825274E+03 </wgt>
<wgt id='1651'> +2.9797073E+03 </wgt>
<wgt id='1652'> +2.9815084E+03 </wgt>
<wgt id='1653'> +2.9807072E+03 </wgt>
<wgt id='1654'> +2.9801583E+03 </wgt>
<wgt id='1655'> +2.9748201E+03 </wgt>
<wgt id='1656'> +2.9782185E+03 </wgt>
<wgt id='1657'> +2.9803889E+03 </wgt>
<wgt id='1658'> +2.9754779E+03 </wgt>
<wgt id='1659'> +2.9797144E+03 </wgt>
<wgt id='1660'> +2.9799697E+03 </wgt>
<wgt id='1661'> +2.9747278E+03 </wgt>
<wgt id='1662'> +2.9787704E+03 </wgt>
<wgt id='1663'> +2.9801974E+03 </wgt>
<wgt id='1664'> +2.9769596E+03 </wgt>
<wgt id='1665'> +2.9787628E+03 </wgt>
<wgt id='1666'> +2.9804732E+03 </wgt>
<wgt id='1667'> +2.9807994E+03 </wgt>
<wgt id='1668'> +2.9789751E+03 </wgt>
<wgt id='1669'> +2.9768520E+03 </wgt>
<wgt id='1670'> +2.9768010E+03 </wgt>
<wgt id='1671'> +2.9802278E+03 </wgt>
<wgt id='1672'> +2.9781862E+03 </wgt>
<wgt id='1673'> +2.9760432E+03 </wgt>
<wgt id='1674'> +2.9768968E+03 </wgt>
<wgt id='1675'> +2.9775248E+03 </wgt>
<wgt id='1676'> +2.9785042E+03 </wgt>
<wgt id='1677'> +2.9789992E+03 </wgt>
<wgt id='1678'> +2.9794851E+03 </wgt>
<wgt id='1679'> +2.9786707E+03 </wgt>
<wgt id='1680'> +2.9780999E+03 </wgt>
<wgt id='1681'> +2.9781729E+03 </wgt>
<wgt id='1682'> +2.9794705E+03 </wgt>
<wgt id='1683'> +2.9787501E+03 </wgt>
<wgt id='1684'> +2.9810029E+03 </wgt>
<wgt id='1685'> +2.9779577E+03 </wgt>
<wgt id='1686'> +2.9804270E+03 </wgt>
<wgt id='1687'> +2.9806665E+03 </wgt>
<wgt id='1688'> +2.9779295E+03 </wgt>
<wgt id='1689'> +2.9789481E+03 </wgt>
<wgt id='1690'> +2.9780737E+03 </wgt>
<wgt id='1691'> +2.9784481E+03 </wgt>
<wgt id='1692'> +2.9793512E+03 </wgt>
<wgt id='1693'> +2.9791528E+03 </wgt>
<wgt id='1694'> +2.9782760E+03 </wgt>
<wgt id='1695'> +2.9809395E+03 </wgt>
<wgt id='1696'> +2.9786997E+03 </wgt>
<wgt id='1697'> +2.9793825E+03 </wgt>
<wgt id='1698'> +2.9777667E+03 </wgt>
<wgt id='1699'> +2.9774958E+03 </wgt>
<wgt id='1700'> +2.9772960E+03 </wgt>
<wgt id='1701'> +2.9791388E+03 </wgt>
<wgt id='1702'> +2.9760743E+03 </wgt>
<wgt id='1703'> +2.9774434E+03 </wgt>
<wgt id='1704'> +2.9775790E+03 </wgt>
<wgt id='1705'> +2.9790033E+03 </wgt>
<wgt id='1706'> +2.9781852E+03 </wgt>
<wgt id='1707'> +2.9783765E+03 </wgt>
<wgt id='1708'> +2.9778666E+03 </wgt>
<wgt id='1709'> +2.9781386E+03 </wgt>
<wgt id='1710'> +2.9789489E+03 </wgt>
<wgt id='1711'> +2.9779091E+03 </wgt>
<wgt id='1712'> +2.9788522E+03 </wgt>
<wgt id='1713'> +2.9784534E+03 </wgt>
<wgt id='1714'> +2.9777288E+03 </wgt>
<wgt id='1715'> +2.9785647E+03 </wgt>
<wgt id='1716'> +2.9000046E+03 </wgt>
<wgt id='1717'> +3.0649417E+03 </wgt>
<wgt id='1718'> +3.0637763E+03 </wgt>
<wgt id='1719'> +3.0648821E+03 </wgt>
<wgt id='1720'> +3.0449744E+03 </wgt>
<wgt id='1721'> +3.0629800E+03 </wgt>
<wgt id='1722'> +3.0554765E+03 </wgt>
<wgt id='1723'> +3.0531477E+03 </wgt>
<wgt id='1724'> +3.0488810E+03 </wgt>
<wgt id='1725'> +3.0628882E+03 </wgt>
<wgt id='1726'> +3.0642957E+03 </wgt>
<wgt id='1727'> +3.0572356E+03 </wgt>
<wgt id='1728'> +3.0658988E+03 </wgt>
<wgt id='1729'> +3.0553366E+03 </wgt>
<wgt id='1730'> +3.0487042E+03 </wgt>
<wgt id='1731'> +3.0636552E+03 </wgt>
<wgt id='1732'> +3.0644726E+03 </wgt>
<wgt id='1733'> +3.0716040E+03 </wgt>
<wgt id='1734'> +3.0608856E+03 </wgt>
<wgt id='1735'> +3.0411822E+03 </wgt>
<wgt id='1736'> +3.0715594E+03 </wgt>
<wgt id='1737'> +3.0384955E+03 </wgt>
<wgt id='1738'> +3.0550108E+03 </wgt>
<wgt id='1739'> +3.0601596E+03 </wgt>
<wgt id='1740'> +3.0594262E+03 </wgt>
<wgt id='1741'> +3.0667645E+03 </wgt>
<wgt id='1742'> +3.0621931E+03 </wgt>
<wgt id='1743'> +3.0620295E+03 </wgt>
<wgt id='1744'> +3.0765379E+03 </wgt>
<wgt id='1745'> +3.0695588E+03 </wgt>
<wgt id='1746'> +3.1042799E+03 </wgt>
<wgt id='1747'> +3.0652531E+03 </wgt>
<wgt id='1748'> +3.0626167E+03 </wgt>
<wgt id='1749'> +2.9755934E+03 </wgt>
<wgt id='1750'> +3.1499557E+03 </wgt>
<wgt id='1751'> +2.9784990E+03 </wgt>
<wgt id='1752'> +2.9363491E+03 </wgt>
<wgt id='1753'> +2.9699100E+03 </wgt>
<wgt id='1754'> +2.9775616E+03 </wgt>
<wgt id='1755'> +2.9581687E+03 </wgt>
<wgt id='1756'> +2.9807118E+03 </wgt>
<wgt id='1757'> +2.9790638E+03 </wgt>
<wgt id='1758'> +2.9794284E+03 </wgt>
<wgt id='1759'> +2.9744495E+03 </wgt>
<wgt id='1760'> +2.9803049E+03 </wgt>
<wgt id='1761'> +3.0159247E+03 </wgt>
<wgt id='1762'> +2.9761013E+03 </wgt>
<wgt id='1763'> +2.9759783E+03 </wgt>
<wgt id='1764'> +2.9790243E+03 </wgt>
<wgt id='1765'> +2.9775023E+03 </wgt>
<wgt id='1766'> +2.9732691E+03 </wgt>
<wgt id='1767'> +2.9814489E+03 </wgt>
<wgt id='1768'> +2.9804147E+03 </wgt>
<wgt id='1769'> +2.9794078E+03 </wgt>
<wgt id='1770'> +2.9814836E+03 </wgt>
<wgt id='1771'> +2.9771177E+03 </wgt>
<wgt id='1772'> +2.9806038E+03 </wgt>
<wgt id='1773'> +2.9763569E+03 </wgt>
<wgt id='1774'> +2.9787528E+03 </wgt>
<wgt id='1775'> +2.9720954E+03 </wgt>
<wgt id='1776'> +2.9772755E+03 </wgt>
<wgt id='1777'> +2.9785484E+03 </wgt>
<wgt id='1778'> +2.9818849E+03 </wgt>
<wgt id='1779'> +2.9762676E+03 </wgt>
<wgt id='1780'> +2.9585241E+03 </wgt>
<wgt id='1781'> +2.9783582E+03 </wgt>
<wgt id='1782'> +2.9000046E+03 </wgt>
<wgt id='1783'> +3.0649417E+03 </wgt>
<wgt id='1784'> +2.9079012E+03 </wgt>
<wgt id='1785'> +2.9045568E+03 </wgt>
<wgt id='1786'> +2.9112343E+03 </wgt>
<wgt id='1787'> +2.9147429E+03 </wgt>
<wgt id='1788'> +2.9010654E+03 </wgt>
<wgt id='1789'> +2.9099045E+03 </wgt>
<wgt id='1790'> +2.9059013E+03 </wgt>
<wgt id='1791'> +2.9134942E+03 </wgt>
<wgt id='1792'> +2.9024446E+03 </wgt>
<wgt id='1793'> +2.9079591E+03 </wgt>
<wgt id='1794'> +2.9079756E+03 </wgt>
<wgt id='1795'> +2.8907214E+03 </wgt>
<wgt id='1796'> +2.9246333E+03 </wgt>
<wgt id='1797'> +2.9024895E+03 </wgt>
<wgt id='1798'> +2.9132952E+03 </wgt>
<wgt id='1799'> +2.9213989E+03 </wgt>
<wgt id='1800'> +2.8977680E+03 </wgt>
<wgt id='1801'> +2.9169477E+03 </wgt>
<wgt id='1802'> +2.8973069E+03 </wgt>
<wgt id='1803'> +2.9205142E+03 </wgt>
<wgt id='1804'> +2.8960550E+03 </wgt>
<wgt id='1805'> +2.9124563E+03 </wgt>
<wgt id='1806'> +2.9010740E+03 </wgt>
<wgt id='1807'> +2.8785138E+03 </wgt>
<wgt id='1808'> +2.9283265E+03 </wgt>
<wgt id='1809'> +2.8886224E+03 </wgt>
<wgt id='1810'> +2.9304459E+03 </wgt>
<wgt id='1811'> +2.9439317E+03 </wgt>
<wgt id='1812'> +2.8761576E+03 </wgt>
<wgt id='1813'> +2.9079012E+03 </wgt>
<wgt id='1814'> +2.9148092E+03 </wgt>
<wgt id='1815'> +2.8956687E+03 </wgt>
<wgt id='1816'> +2.9143607E+03 </wgt>
<wgt id='1817'> +2.8999024E+03 </wgt>
<wgt id='1818'> +2.9024492E+03 </wgt>
<wgt id='1819'> +2.9458582E+03 </wgt>
<wgt id='1820'> +2.9068836E+03 </wgt>
<wgt id='1821'> +2.9109669E+03 </wgt>
<wgt id='1822'> +2.9160331E+03 </wgt>
<wgt id='1823'> +2.9016125E+03 </wgt>
<wgt id='1824'> +2.8898577E+03 </wgt>
<wgt id='1825'> +2.9168804E+03 </wgt>
<wgt id='1826'> +2.9271184E+03 </wgt>
<wgt id='1827'> +3.0457832E+03 </wgt>
<wgt id='1828'> +3.0434991E+03 </wgt>
<wgt id='1829'> +3.0475056E+03 </wgt>
<wgt id='1830'> +3.0509358E+03 </wgt>
<wgt id='1831'> +3.0400660E+03 </wgt>
<wgt id='1832'> +3.0509973E+03 </wgt>
<wgt id='1833'> +3.0400245E+03 </wgt>
<wgt id='1834'> +3.0558361E+03 </wgt>
<wgt id='1835'> +3.0353102E+03 </wgt>
<wgt id='1836'> +3.0373966E+03 </wgt>
<wgt id='1837'> +3.0536351E+03 </wgt>
<wgt id='1838'> +3.0548451E+03 </wgt>
<wgt id='1839'> +3.0362881E+03 </wgt>
<wgt id='1840'> +3.0406440E+03 </wgt>
<wgt id='1841'> +3.0505195E+03 </wgt>
<wgt id='1842'> +3.0520619E+03 </wgt>
<wgt id='1843'> +3.0428309E+03 </wgt>
<wgt id='1844'> +3.0417165E+03 </wgt>
<wgt id='1845'> +3.0489710E+03 </wgt>
<wgt id='1846'> +3.0497982E+03 </wgt>
<wgt id='1847'> +3.0412151E+03 </wgt>
<wgt id='1848'> +3.0583466E+03 </wgt>
<wgt id='1849'> +3.0297940E+03 </wgt>
<wgt id='1850'> +3.0202443E+03 </wgt>
<wgt id='1851'> +3.0704992E+03 </wgt>
<wgt id='1852'> +3.0063365E+03 </wgt>
<wgt id='1853'> +3.0785277E+03 </wgt>
<wgt id='1854'> +3.0306392E+03 </wgt>
<wgt id='1855'> +3.0638974E+03 </wgt>
<wgt id='1856'> +3.0393683E+03 </wgt>
<wgt id='1857'> +3.0433096E+03 </wgt>
<wgt id='1858'> +3.0187893E+03 </wgt>
<wgt id='1859'> +3.0416091E+03 </wgt>
<wgt id='1860'> +3.0373882E+03 </wgt>
<wgt id='1861'> +2.9692265E+03 </wgt>
<wgt id='1862'> +3.0636365E+03 </wgt>
<wgt id='1863'> +3.0353766E+03 </wgt>
<wgt id='1864'> +3.0489894E+03 </wgt>
<wgt id='1865'> +3.0414258E+03 </wgt>
<wgt id='1866'> +2.9575380E+03 </wgt>
<wgt id='1867'> +3.0371849E+03 </wgt>
<wgt id='1868'> +3.0530829E+03 </wgt>
<wgt id='1869'> +3.0713004E+03 </wgt>
<wgt id='1870'> +3.0545252E+03 </wgt>
<wgt id='1871'> +3.0540938E+03 </wgt>
<wgt id='1872'> +3.0536635E+03 </wgt>
<wgt id='1873'> +3.0532360E+03 </wgt>
<wgt id='1874'> +3.0528113E+03 </wgt>
<wgt id='1875'> +3.0523808E+03 </wgt>
<wgt id='1876'> +3.0519542E+03 </wgt>
<wgt id='1877'> +3.0515272E+03 </wgt>
<wgt id='1878'> +3.0510939E+03 </wgt>
<wgt id='1879'> +3.0506644E+03 </wgt>
<wgt id='1880'> +3.0502369E+03 </wgt>
<wgt id='1881'> +3.0498119E+03 </wgt>
<wgt id='1882'> +3.0493850E+03 </wgt>
<wgt id='1883'> +3.0489544E+03 </wgt>
<wgt id='1884'> +3.0485295E+03 </wgt>
<wgt id='1885'> +3.0480979E+03 </wgt>
<wgt id='1886'> +3.0476672E+03 </wgt>
<wgt id='1887'> +3.0472418E+03 </wgt>
<wgt id='1888'> +3.0468166E+03 </wgt>
<wgt id='1889'> +3.0463887E+03 </wgt>
<wgt id='1890'> +3.0459607E+03 </wgt>
<wgt id='1891'> +3.0455320E+03 </wgt>
<wgt id='1892'> +3.0451053E+03 </wgt>
<wgt id='1893'> +3.0446749E+03 </wgt>
<wgt id='1894'> +3.0442436E+03 </wgt>
<wgt id='1895'> +3.0438173E+03 </wgt>
<wgt id='1896'> +3.0433936E+03 </wgt>
<wgt id='1897'> +3.0429645E+03 </wgt>
<wgt id='1898'> +3.0425363E+03 </wgt>
<wgt id='1899'> +3.0421138E+03 </wgt>
<wgt id='1900'> +3.0416779E+03 </wgt>
<wgt id='1901'> +2.9439328E+03 </wgt>
<wgt id='1902'> +2.9502531E+03 </wgt>
<wgt id='1903'> +2.9363901E+03 </wgt>
<wgt id='1904'> +2.9535043E+03 </wgt>
<wgt id='1905'> +2.9526838E+03 </wgt>
<wgt id='1906'> +2.9398645E+03 </wgt>
<wgt id='1907'> +2.9651446E+03 </wgt>
<wgt id='1908'> +2.9662518E+03 </wgt>
<wgt id='1909'> +2.9517544E+03 </wgt>
<wgt id='1910'> +2.9432679E+03 </wgt>
<wgt id='1911'> +2.9446472E+03 </wgt>
<wgt id='1912'> +2.9502691E+03 </wgt>
<wgt id='1913'> +2.9417975E+03 </wgt>
<wgt id='1914'> +2.9563350E+03 </wgt>
<wgt id='1915'> +2.9463862E+03 </wgt>
<wgt id='1916'> +2.9295044E+03 </wgt>
<wgt id='1917'> +2.9507924E+03 </wgt>
<wgt id='1918'> +2.9288876E+03 </wgt>
<wgt id='1919'> +2.9541854E+03 </wgt>
<wgt id='1920'> +2.9531674E+03 </wgt>
<wgt id='1921'> +2.9748797E+03 </wgt>
<wgt id='1922'> +2.9340336E+03 </wgt>
<wgt id='1923'> +2.9482123E+03 </wgt>
<wgt id='1924'> +2.9262651E+03 </wgt>
<wgt id='1925'> +2.9316516E+03 </wgt>
<wgt id='1926'> +2.9591450E+03 </wgt>
<wgt id='1927'> +2.9428885E+03 </wgt>
<wgt id='1928'> +2.9390980E+03 </wgt>
<wgt id='1929'> +2.9489614E+03 </wgt>
<wgt id='1930'> +2.9448739E+03 </wgt>
<wgt id='1931'> +2.9418927E+03 </wgt>
<wgt id='1932'> +2.9426829E+03 </wgt>
<wgt id='1933'> +2.9476823E+03 </wgt>
<wgt id='1934'> +2.9484245E+03 </wgt>
<wgt id='1935'> +2.9439406E+03 </wgt>
<wgt id='1936'> +2.9479490E+03 </wgt>
<wgt id='1937'> +2.9450489E+03 </wgt>
<wgt id='1938'> +2.9469302E+03 </wgt>
<wgt id='1939'> +2.9460746E+03 </wgt>
<wgt id='1940'> +2.9455008E+03 </wgt>
<wgt id='1941'> +2.9402366E+03 </wgt>
<wgt id='1942'> +2.9434801E+03 </wgt>
<wgt id='1943'> +2.9456216E+03 </wgt>
<wgt id='1944'> +2.9409251E+03 </wgt>
<wgt id='1945'> +2.9451202E+03 </wgt>
<wgt id='1946'> +2.9452114E+03 </wgt>
<wgt id='1947'> +2.9401208E+03 </wgt>
<wgt id='1948'> +2.9440573E+03 </wgt>
<wgt id='1949'> +2.9455275E+03 </wgt>
<wgt id='1950'> +2.9422849E+03 </wgt>
<wgt id='1951'> +2.9441614E+03 </wgt>
<wgt id='1952'> +2.9458592E+03 </wgt>
<wgt id='1953'> +2.9461237E+03 </wgt>
<wgt id='1954'> +2.9444352E+03 </wgt>
<wgt id='1955'> +2.9422728E+03 </wgt>
<wgt id='1956'> +2.9422061E+03 </wgt>
<wgt id='1957'> +2.9456134E+03 </wgt>
<wgt id='1958'> +2.9435363E+03 </wgt>
<wgt id='1959'> +2.9414967E+03 </wgt>
<wgt id='1960'> +2.9423027E+03 </wgt>
<wgt id='1961'> +2.9429352E+03 </wgt>
<wgt id='1962'> +2.9438908E+03 </wgt>
<wgt id='1963'> +2.9443629E+03 </wgt>
<wgt id='1964'> +2.9449033E+03 </wgt>
<wgt id='1965'> +2.9439888E+03 </wgt>
<wgt id='1966'> +2.9434919E+03 </wgt>
<wgt id='1967'> +2.9435808E+03 </wgt>
<wgt id='1968'> +2.9448217E+03 </wgt>
<wgt id='1969'> +2.9441379E+03 </wgt>
<wgt id='1970'> +2.9463626E+03 </wgt>
<wgt id='1971'> +2.9433260E+03 </wgt>
<wgt id='1972'> +2.9458331E+03 </wgt>
<wgt id='1973'> +2.9460573E+03 </wgt>
<wgt id='1974'> +2.9432750E+03 </wgt>
<wgt id='1975'> +2.9443342E+03 </wgt>
<wgt id='1976'> +2.9434600E+03 </wgt>
<wgt id='1977'> +2.9438574E+03 </wgt>
<wgt id='1978'> +2.9447285E+03 </wgt>
<wgt id='1979'> +2.9445902E+03 </wgt>
<wgt id='1980'> +2.9436437E+03 </wgt>
<wgt id='1981'> +2.9462524E+03 </wgt>
<wgt id='1982'> +2.9440748E+03 </wgt>
<wgt id='1983'> +2.9447542E+03 </wgt>
<wgt id='1984'> +2.9431282E+03 </wgt>
<wgt id='1985'> +2.9428635E+03 </wgt>
<wgt id='1986'> +2.9426986E+03 </wgt>
<wgt id='1987'> +2.9445214E+03 </wgt>
<wgt id='1988'> +2.9414823E+03 </wgt>
<wgt id='1989'> +2.9428305E+03 </wgt>
<wgt id='1990'> +2.9429674E+03 </wgt>
<wgt id='1991'> +2.9443908E+03 </wgt>
<wgt id='1992'> +2.9435734E+03 </wgt>
<wgt id='1993'> +2.9437624E+03 </wgt>
<wgt id='1994'> +2.9432511E+03 </wgt>
<wgt id='1995'> +2.9435295E+03 </wgt>
<wgt id='1996'> +2.9443437E+03 </wgt>
<wgt id='1997'> +2.9432603E+03 </wgt>
<wgt id='1998'> +2.9442154E+03 </wgt>
<wgt id='1999'> +2.9438550E+03 </wgt>
<wgt id='2000'> +2.9430988E+03 </wgt>
<wgt id='2001'> +2.9439389E+03 </wgt>
<wgt id='2002'> +2.9438972E+03 </wgt>
<wgt id='2003'> +2.9436985E+03 </wgt>
<wgt id='2004'> +2.9439700E+03 </wgt>
<wgt id='2005'> +2.9439760E+03 </wgt>
<wgt id='2006'> +2.9440414E+03 </wgt>
<wgt id='2007'> +2.9439486E+03 </wgt>
<wgt id='2008'> +2.9437766E+03 </wgt>
<wgt id='2009'> +3.0699506E+03 </wgt>
<wgt id='2010'> +2.9427691E+03 </wgt>
<wgt id='2011'> +3.0869221E+03 </wgt>
<wgt id='2012'> +3.1757927E+03 </wgt>
<wgt id='2013'> +2.9528614E+03 </wgt>
<wgt id='2014'> +2.9587722E+03 </wgt>
<wgt id='2015'> +3.0646798E+03 </wgt>
<wgt id='2016'> +3.0618583E+03 </wgt>
<wgt id='2017'> +3.0738321E+03 </wgt>
<wgt id='2018'> +3.1080474E+03 </wgt>
<wgt id='2019'> +3.1580198E+03 </wgt>
<wgt id='2020'> +3.0645539E+03 </wgt>
<wgt id='2021'> +3.0672623E+03 </wgt>
<wgt id='2022'> +2.9897347E+03 </wgt>
<wgt id='2023'> +3.1932724E+03 </wgt>
<wgt id='2024'> +3.1080108E+03 </wgt>
<wgt id='2025'> +3.0899675E+03 </wgt>
<wgt id='2026'> +3.1333698E+03 </wgt>
<wgt id='2027'> +3.0793573E+03 </wgt>
<wgt id='2028'> +3.0441312E+03 </wgt>
<wgt id='2029'> +3.1265156E+03 </wgt>
<wgt id='2030'> +3.0678971E+03 </wgt>
<wgt id='2031'> +3.0838212E+03 </wgt>
<wgt id='2032'> +3.1084353E+03 </wgt>
<wgt id='2033'> +3.0895894E+03 </wgt>
<wgt id='2034'> +3.0452057E+03 </wgt>
<wgt id='2035'> +3.0228770E+03 </wgt>
<wgt id='2036'> +3.0912994E+03 </wgt>
<wgt id='2037'> +3.1081879E+03 </wgt>
<wgt id='2038'> +3.1365962E+03 </wgt>
<wgt id='2039'> +3.1053966E+03 </wgt>
<wgt id='2040'> +3.0547168E+03 </wgt>
<wgt id='2041'> +3.0565008E+03 </wgt>
<wgt id='2042'> +3.0170765E+03 </wgt>
<wgt id='2043'> +3.0674924E+03 </wgt>
<wgt id='2044'> +3.1754594E+03 </wgt>
<wgt id='2045'> +3.0193411E+03 </wgt>
<wgt id='2046'> +3.1105109E+03 </wgt>
<wgt id='2047'> +3.0325261E+03 </wgt>
<wgt id='2048'> +2.9950730E+03 </wgt>
<wgt id='2049'> +3.0412069E+03 </wgt>
<wgt id='2050'> +3.0277551E+03 </wgt>
<wgt id='2051'> +3.0317834E+03 </wgt>
<wgt id='2052'> +3.0361950E+03 </wgt>
<wgt id='2053'> +3.1121681E+03 </wgt>
<wgt id='2054'> +3.1596049E+03 </wgt>
<wgt id='2055'> +3.0688098E+03 </wgt>
<wgt id='2056'> +3.0496744E+03 </wgt>
<wgt id='2057'> +3.0565628E+03 </wgt>
<wgt id='2058'> +3.0845231E+03 </wgt>
<wgt id='2059'> +3.0594207E+03 </wgt>
<wgt id='2060'> +3.0671354E+03 </wgt>
<wgt id='2061'> +3.0762674E+03 </wgt>
<wgt id='2062'> +3.1182516E+03 </wgt>
<wgt id='2063'> +2.9778113E+03 </wgt>
<wgt id='2064'> +3.0428030E+03 </wgt>
<wgt id='2065'> +3.1142144E+03 </wgt>
<wgt id='2066'> +3.0013952E+03 </wgt>
<wgt id='2067'> +3.0791785E+03 </wgt>
<wgt id='2068'> +3.1528320E+03 </wgt>
<wgt id='2069'> +3.0493190E+03 </wgt>
<wgt id='2070'> +3.0470222E+03 </wgt>
<wgt id='2071'> +3.1372953E+03 </wgt>
<wgt id='2072'> +3.0180386E+03 </wgt>
<wgt id='2073'> +3.1151067E+03 </wgt>
<wgt id='2074'> +3.0365455E+03 </wgt>
<wgt id='2075'> +3.0930886E+03 </wgt>
<wgt id='2076'> +3.1752336E+03 </wgt>
<wgt id='2077'> +3.0758215E+03 </wgt>
<wgt id='2078'> +3.0064976E+03 </wgt>
<wgt id='2079'> +3.0390020E+03 </wgt>
<wgt id='2080'> +3.0273163E+03 </wgt>
<wgt id='2081'> +3.0752821E+03 </wgt>
<wgt id='2082'> +2.9907989E+03 </wgt>
<wgt id='2083'> +3.1442320E+03 </wgt>
<wgt id='2084'> +3.0519119E+03 </wgt>
<wgt id='2085'> +3.0707528E+03 </wgt>
<wgt id='2086'> +3.0395486E+03 </wgt>
<wgt id='2087'> +3.0422668E+03 </wgt>
<wgt id='2088'> +3.0298659E+03 </wgt>
<wgt id='2089'> +3.0300526E+03 </wgt>
<wgt id='2090'> +3.0995439E+03 </wgt>
<wgt id='2091'> +3.0258733E+03 </wgt>
<wgt id='2092'> +3.0988929E+03 </wgt>
<wgt id='2093'> +3.0764193E+03 </wgt>
<wgt id='2094'> +3.1011934E+03 </wgt>
<wgt id='2095'> +3.0755446E+03 </wgt>
<wgt id='2096'> +3.1522172E+03 </wgt>
<wgt id='2097'> +3.0604098E+03 </wgt>
<wgt id='2098'> +3.0668969E+03 </wgt>
<wgt id='2099'> +3.0542676E+03 </wgt>
<wgt id='2100'> +3.0238477E+03 </wgt>
<wgt id='2101'> +3.0119094E+03 </wgt>
<wgt id='2102'> +3.0779817E+03 </wgt>
<wgt id='2103'> +3.1565054E+03 </wgt>
<wgt id='2104'> +3.1386893E+03 </wgt>
<wgt id='2105'> +3.0453076E+03 </wgt>
<wgt id='2106'> +3.0436508E+03 </wgt>
<wgt id='2107'> +3.0403814E+03 </wgt>
<wgt id='2108'> +3.0467881E+03 </wgt>
<wgt id='2109'> +3.0629326E+03 </wgt>
<wgt id='2110'> +3.0058578E+03 </wgt>
<wgt id='2111'> +3.1133056E+03 </wgt>
<wgt id='2112'> +2.9883281E+03 </wgt>
<wgt id='2113'> +3.4345306E+03 </wgt>
<wgt id='2114'> +4.3631060E+03 </wgt>
<wgt id='2115'> +3.7185951E+03 </wgt>
<wgt id='2116'> +4.3939565E+03 </wgt>
</rwgt>
</event>
<event>
 5      0 +2.9771057E+03 8.20415700e+01 7.54677100e-03 1.19918600e-01
       -1 -1    0    0    0  501 -0.0000000000e+00 +0.0000000000e+00 +3.4905833402e+00 3.4905833402e+00 0.0000000000e+00 0.0000e+00 1.0000e+00
        2 -1    0    0  501    0 +0.0000000000e+00 -0.0000000000e+00 -4.8206982718e+02 4.8206982718e+02 0.0000000000e+00 0.0000e+00 -1.0000e+00
       24  2    1    2    0    0 +0.0000000000e+00 +0.0000000000e+00 -4.7857924384e+02 4.8556041052e+02 8.2041572574e+01 0.0000e+00 0.0000e+00
      -13  1    3    3    0    0 -9.8962860404e+00 +4.0204515160e+00 -4.8850878216e+00 1.1745832913e+01 0.0000000000e+00 0.0000e+00 1.0000e+00
       14  1    3    3    0    0 +9.8962860404e+00 -4.0204515160e+00 -4.7369415602e+02 4.7381457761e+02 0.0000000000e+00 0.0000e+00 -1.0000e+00
<scales pt_clust_4="13000.00000" pt_clust_5="13000.00000"></scales>
<mgrwt>
<rscale>  0 0.82041573E+02</rscale>
<asrwt>0</asrwt>
<pdfrwt beam="1">  1        2 0.74164549E-01 0.82041573E+02</pdfrwt>
<pdfrwt beam="2">  1       -1 0.53701311E-03 0.82041573E+02</pdfrwt>
<totfact> 0.28900741E+05</totfact>
</mgrwt>
<clustering>
<clus scale="   82.042">  4  5 -1 -1</clus>
<clus scale="   82.042">  2  4  1 -1</clus>
</clustering>
<rwgt>
<wgt id='1001'> +2.9771057E+03 </wgt>
<wgt id='1002'> +2.2382326E+03 </wgt>
<wgt id='1003'> +2.2382326E+03 </wgt>
<wgt id='1004'> +1.8211465E+03 </wgt>
<wgt id='1005'> +2.9771057E+03 </wgt>
<wgt id='1006'> +2.9771057E+03 </wgt>
<wgt id='1007'> +2.2382326E+03 </wgt>
<wgt id='1008'> +2.2382326E+03 </wgt>
<wgt id='1009'> +1.8211465E+03 </wgt>
<wgt id='1010'> +2.9771057E+03 </wgt>
<wgt id='1011'> +2.9771057E+03 </wgt>
<wgt id='1012'> +2.2382326E+03 </wgt>
<wgt id='1013'> +2.2382326E+03 </wgt>
<wgt id='1014'> +1.8211465E+03 </wgt>
<wgt id='1015'> +2.9771057E+03 </wgt>
<wgt id='1016'> +3.3189735E+03 </wgt>
<wgt id='1017'> +2.6311111E+03 </wgt>
<wgt id='1018'> +2.6311111E+03 </wgt>
<wgt id='1019'> +2.2382326E+03 </wgt>
<wgt id='1020'> +3.3189735E+03 </wgt>
<wgt id='1021'> +3.3189735E+03 </wgt>
<wgt id='1022'> +2.6311111E+03 </wgt>
<wgt id='1023'> +2.6311111E+03 </wgt>
<wgt id='1024'> +2.2382326E+03 </wgt>
<wgt id='1025'> +3.3189735E+03 </wgt>
<wgt id='1026'> +3.3189735E+03 </wgt>
<wgt id='1027'> +2.6311111E+03 </wgt>
<wgt id='1028'> +2.6311111E+03 </wgt>
<wgt id='1029'> +2.2382326E+03 </wgt>
<wgt id='1030'> +3.3189735E+03 </wgt>
<wgt id='1031'> +2.6087208E+03 </wgt>
<wgt id='1032'> +1.8211465E+03 </wgt>
<wgt id='1033'> +1.8211465E+03 </wgt>
<wgt id='1034'> +1.3850328E+03 </wgt>
<wgt id='1035'> +2.6087208E+03 </wgt>
<wgt id='1036'> +2.6087208E+03 </wgt>
<wgt id='1037'> +1.8211465E+03 </wgt>
<wgt id='1038'> +1.8211465E+03 </wgt>
<wgt id='1039'> +1.3850328E+03 </wgt>
<wgt id='1040'> +2.6087208E+03 </wgt>
<wgt id='1041'> +2.6087208E+03 </wgt>
<wgt id='1042'> +1.8211465E+03 </wgt>
<wgt id='1043'> +1.8211465E+03 </wgt>
<wgt id='1044'> +1.3850328E+03 </wgt>
<wgt id='1045'> +2.6087208E+03 </wgt>
<wgt id='1046'> +2.9771057E+03 </wgt>
<wgt id='1047'> +2.9769069E+03 </wgt>
<wgt id='1048'> +2.9703890E+03 </wgt>
<wgt id='1049'> +2.9716107E+03 </wgt>
<wgt id='1050'> +2.9897836E+03 </wgt>
<wgt id='1051'> +2.9773884E+03 </wgt>
<wgt id='1052'> +2.9698440E+03 </wgt>
<wgt id='1053'> +2.9797875E+03 </wgt>
<wgt id='1054'> +2.9669348E+03 </wgt>
<wgt id='1055'> +2.9765370E+03 </wgt>
<wgt id='1056'> +2.9679212E+03 </wgt>
<wgt id='1057'> +2.9642685E+03 </wgt>
<wgt id='1058'> +2.9844717E+03 </wgt>
<wgt id='1059'> +2.9743736E+03 </wgt>
<wgt id='1060'> +2.9689242E+03 </wgt>
<wgt id='1061'> +2.9891966E+03 </wgt>
<wgt id='1062'> +2.9799053E+03 </wgt>
<wgt id='1063'> +2.9677267E+03 </wgt>
<wgt id='1064'> +2.9753940E+03 </wgt>
<wgt id='1065'> +2.9683211E+03 </wgt>
<wgt id='1066'> +2.9748437E+03 </wgt>
<wgt id='1067'> +2.9851796E+03 </wgt>
<wgt id='1068'> +2.9777710E+03 </wgt>
<wgt id='1069'> +2.9711317E+03 </wgt>
<wgt id='1070'> +2.9956904E+03 </wgt>
<wgt id='1071'> +2.9778862E+03 </wgt>
<wgt id='1072'> +2.9656842E+03 </wgt>
<wgt id='1073'> +2.9796758E+03 </wgt>
<wgt id='1074'> +2.9816281E+03 </wgt>
<wgt id='1075'> +2.9541712E+03 </wgt>
<wgt id='1076'> +2.9829458E+03 </wgt>
<wgt id='1077'> +2.9770819E+03 </wgt>
<wgt id='1078'> +2.9722455E+03 </wgt>
<wgt id='1079'> +2.9731944E+03 </wgt>
<wgt id='1080'> +2.9789149E+03 </wgt>
<wgt id='1081'> +2.9749945E+03 </wgt>
<wgt id='1082'> +2.9732747E+03 </wgt>
<wgt id='1083'> +2.9765472E+03 </wgt>
<wgt id='1084'> +2.9744968E+03 </wgt>
<wgt id='1085'> +2.9785627E+03 </wgt>
<wgt id='1086'> +2.9733547E+03 </wgt>
<wgt id='1087'> +2.9754304E+03 </wgt>
<wgt id='1088'> +2.9790452E+03 </wgt>
<wgt id='1089'> +2.9808649E+03 </wgt>
<wgt id='1090'> +2.9742432E+03 </wgt>
<wgt id='1091'> +2.9744764E+03 </wgt>
<wgt id='1092'> +2.9824175E+03 </wgt>
<wgt id='1093'> +2.9871328E+03 </wgt>
<wgt id='1094'> +2.9759156E+03 </wgt>
<wgt id='1095'> +2.9741620E+03 </wgt>
<wgt id='1096'> +2.9700631E+03 </wgt>
<wgt id='1097'> +2.9761781E+03 </wgt>
<wgt id='1098'> +2.9762798E+03 </wgt>
<wgt id='1099'> +2.9769825E+03 </wgt>
<wgt id='1100'> +2.9770753E+03 </wgt>
<wgt id='1101'> +2.9756538E+03 </wgt>
<wgt id='1102'> +2.9788822E+03 </wgt>
<wgt id='1103'> +2.9776143E+03 </wgt>
<wgt id='1104'> +2.9801172E+03 </wgt>
<wgt id='1105'> +2.9744226E+03 </wgt>
<wgt id='1106'> +2.9814872E+03 </wgt>
<wgt id='1107'> +2.9791351E+03 </wgt>
<wgt id='1108'> +2.9780381E+03 </wgt>
<wgt id='1109'> +2.9782268E+03 </wgt>
<wgt id='1110'> +2.9767833E+03 </wgt>
<wgt id='1111'> +2.9791382E+03 </wgt>
<wgt id='1112'> +2.9748648E+03 </wgt>
<wgt id='1113'> +2.9766780E+03 </wgt>
<wgt id='1114'> +2.9779027E+03 </wgt>
<wgt id='1115'> +2.9804433E+03 </wgt>
<wgt id='1116'> +2.9746145E+03 </wgt>
<wgt id='1117'> +2.9760981E+03 </wgt>
<wgt id='1118'> +2.9780927E+03 </wgt>
<wgt id='1119'> +2.9804976E+03 </wgt>
<wgt id='1120'> +2.9761172E+03 </wgt>
<wgt id='1121'> +2.9783020E+03 </wgt>
<wgt id='1122'> +2.9777514E+03 </wgt>
<wgt id='1123'> +2.9761754E+03 </wgt>
<wgt id='1124'> +2.9756577E+03 </wgt>
<wgt id='1125'> +2.9752734E+03 </wgt>
<wgt id='1126'> +2.9785190E+03 </wgt>
<wgt id='1127'> +2.9770574E+03 </wgt>
<wgt id='1128'> +2.9767874E+03 </wgt>
<wgt id='1129'> +2.9753528E+03 </wgt>
<wgt id='1130'> +2.9796225E+03 </wgt>
<wgt id='1131'> +2.9767193E+03 </wgt>
<wgt id='1132'> +2.9782002E+03 </wgt>
<wgt id='1133'> +2.9746522E+03 </wgt>
<wgt id='1134'> +2.9796971E+03 </wgt>
<wgt id='1135'> +2.9764975E+03 </wgt>
<wgt id='1136'> +2.9761875E+03 </wgt>
<wgt id='1137'> +2.9747074E+03 </wgt>
<wgt id='1138'> +2.9774094E+03 </wgt>
<wgt id='1139'> +2.9773424E+03 </wgt>
<wgt id='1140'> +2.9784256E+03 </wgt>
<wgt id='1141'> +2.9786006E+03 </wgt>
<wgt id='1142'> +2.9779218E+03 </wgt>
<wgt id='1143'> +2.9768811E+03 </wgt>
<wgt id='1144'> +2.9755775E+03 </wgt>
<wgt id='1145'> +2.9786010E+03 </wgt>
<wgt id='1146'> +2.9783546E+03 </wgt>
<wgt id='1147'> +2.9482443E+03 </wgt>
<wgt id='1148'> +3.0052495E+03 </wgt>
<wgt id='1149'> +2.8549387E+03 </wgt>
<wgt id='1150'> +2.8731713E+03 </wgt>
<wgt id='1151'> +2.8945902E+03 </wgt>
<wgt id='1152'> +2.9239317E+03 </wgt>
<wgt id='1153'> +2.9792706E+03 </wgt>
<wgt id='1154'> +2.9917027E+03 </wgt>
<wgt id='1155'> +3.0412267E+03 </wgt>
<wgt id='1156'> +3.0564278E+03 </wgt>
<wgt id='1157'> +2.9206390E+03 </wgt>
<wgt id='1158'> +2.9178111E+03 </wgt>
<wgt id='1159'> +2.9321238E+03 </wgt>
<wgt id='1160'> +2.9113892E+03 </wgt>
<wgt id='1161'> +2.9327691E+03 </wgt>
<wgt id='1162'> +2.9196989E+03 </wgt>
<wgt id='1163'> +2.9057490E+03 </wgt>
<wgt id='1164'> +2.9267643E+03 </wgt>
<wgt id='1165'> +2.9353497E+03 </wgt>
<wgt id='1166'> +2.9288072E+03 </wgt>
<wgt id='1167'> +2.9124205E+03 </wgt>
<wgt id='1168'> +2.9152373E+03 </wgt>
<wgt id='1169'> +2.9246066E+03 </wgt>
<wgt id='1170'> +2.9324796E+03 </wgt>
<wgt id='1171'> +2.9164162E+03 </wgt>
<wgt id='1172'> +2.9214049E+03 </wgt>
<wgt id='1173'> +2.9338112E+03 </wgt>
<wgt id='1174'> +2.9188012E+03 </wgt>
<wgt id='1175'> +2.9266227E+03 </wgt>
<wgt id='1176'> +2.9243919E+03 </wgt>
<wgt id='1177'> +2.9200033E+03 </wgt>
<wgt id='1178'> +2.9263907E+03 </wgt>
<wgt id='1179'> +2.9187961E+03 </wgt>
<wgt id='1180'> +2.9145145E+03 </wgt>
<wgt id='1181'> +2.9349118E+03 </wgt>
<wgt id='1182'> +2.9147988E+03 </wgt>
<wgt id='1183'> +2.9214797E+03 </wgt>
<wgt id='1184'> +2.9188915E+03 </wgt>
<wgt id='1185'> +2.9226848E+03 </wgt>
<wgt id='1186'> +2.9374284E+03 </wgt>
<wgt id='1187'> +2.9076069E+03 </wgt>
<wgt id='1188'> +2.9080366E+03 </wgt>
<wgt id='1189'> +2.9263878E+03 </wgt>
<wgt id='1190'> +2.9205727E+03 </wgt>
<wgt id='1191'> +2.9192518E+03 </wgt>
<wgt id='1192'> +2.9248068E+03 </wgt>
<wgt id='1193'> +2.9248105E+03 </wgt>
<wgt id='1194'> +2.9152583E+03 </wgt>
<wgt id='1195'> +2.9217316E+03 </wgt>
<wgt id='1196'> +2.9210430E+03 </wgt>
<wgt id='1197'> +2.9195241E+03 </wgt>
<wgt id='1198'> +2.9232845E+03 </wgt>
<wgt id='1199'> +2.9237222E+03 </wgt>
<wgt id='1200'> +2.9180056E+03 </wgt>
<wgt id='1201'> +2.9219201E+03 </wgt>
<wgt id='1202'> +2.9219009E+03 </wgt>
<wgt id='1203'> +2.9197808E+03 </wgt>
<wgt id='1204'> +2.9193572E+03 </wgt>
<wgt id='1205'> +2.9250624E+03 </wgt>
<wgt id='1206'> +2.9244246E+03 </wgt>
<wgt id='1207'> +2.9172535E+03 </wgt>
<wgt id='1208'> +2.9190204E+03 </wgt>
<wgt id='1209'> +2.9220404E+03 </wgt>
<wgt id='1210'> +2.9152968E+03 </wgt>
<wgt id='1211'> +2.9198246E+03 </wgt>
<wgt id='1212'> +2.9222103E+03 </wgt>
<wgt id='1213'> +2.9167220E+03 </wgt>
<wgt id='1214'> +2.9208100E+03 </wgt>
<wgt id='1215'> +2.9135639E+03 </wgt>
<wgt id='1216'> +2.9218308E+03 </wgt>
<wgt id='1217'> +2.9222918E+03 </wgt>
<wgt id='1218'> +2.9217812E+03 </wgt>
<wgt id='1219'> +2.9169987E+03 </wgt>
<wgt id='1220'> +2.9223830E+03 </wgt>
<wgt id='1221'> +2.9182512E+03 </wgt>
<wgt id='1222'> +2.9242270E+03 </wgt>
<wgt id='1223'> +2.9205922E+03 </wgt>
<wgt id='1224'> +2.9169948E+03 </wgt>
<wgt id='1225'> +2.9236879E+03 </wgt>
<wgt id='1226'> +2.9185743E+03 </wgt>
<wgt id='1227'> +2.9221007E+03 </wgt>
<wgt id='1228'> +2.9206007E+03 </wgt>
<wgt id='1229'> +2.9242002E+03 </wgt>
<wgt id='1230'> +2.9213158E+03 </wgt>
<wgt id='1231'> +2.9217916E+03 </wgt>
<wgt id='1232'> +2.9183262E+03 </wgt>
<wgt id='1233'> +2.9206002E+03 </wgt>
<wgt id='1234'> +2.9227120E+03 </wgt>
<wgt id='1235'> +2.9204942E+03 </wgt>
<wgt id='1236'> +2.9197437E+03 </wgt>
<wgt id='1237'> +2.9209838E+03 </wgt>
<wgt id='1238'> +2.9218643E+03 </wgt>
<wgt id='1239'> +2.9186862E+03 </wgt>
<wgt id='1240'> +2.9209802E+03 </wgt>
<wgt id='1241'> +2.9185300E+03 </wgt>
<wgt id='1242'> +2.9194385E+03 </wgt>
<wgt id='1243'> +2.9205313E+03 </wgt>
<wgt id='1244'> +2.9218871E+03 </wgt>
<wgt id='1245'> +2.9179240E+03 </wgt>
<wgt id='1246'> +2.9175755E+03 </wgt>
<wgt id='1247'> +2.9181118E+03 </wgt>
<wgt id='1248'> +2.9221209E+03 </wgt>
<wgt id='1249'> +2.9195313E+03 </wgt>
<wgt id='1250'> +2.9206191E+03 </wgt>
<wgt id='1251'> +2.9231932E+03 </wgt>
<wgt id='1252'> +2.9215521E+03 </wgt>
<wgt id='1253'> +2.9193225E+03 </wgt>
<wgt id='1254'> +2.9216049E+03 </wgt>
<wgt id='1255'> +2.9212863E+03 </wgt>
<wgt id='1256'> +2.9199728E+03 </wgt>
<wgt id='1257'> +2.9187257E+03 </wgt>
<wgt id='1258'> +2.8929434E+03 </wgt>
<wgt id='1259'> +2.9512073E+03 </wgt>
<wgt id='1260'> +2.9365282E+03 </wgt>
<wgt id='1261'> +2.9237867E+03 </wgt>
<wgt id='1262'> +2.9316008E+03 </wgt>
<wgt id='1263'> +2.9666559E+03 </wgt>
<wgt id='1264'> +2.9386701E+03 </wgt>
<wgt id='1265'> +2.9636815E+03 </wgt>
<wgt id='1266'> +2.9683549E+03 </wgt>
<wgt id='1267'> +2.9430489E+03 </wgt>
<wgt id='1268'> +2.9207103E+03 </wgt>
<wgt id='1269'> +2.9919045E+03 </wgt>
<wgt id='1270'> +2.9074107E+03 </wgt>
<wgt id='1271'> +2.9322795E+03 </wgt>
<wgt id='1272'> +2.9167091E+03 </wgt>
<wgt id='1273'> +2.9160490E+03 </wgt>
<wgt id='1274'> +2.8959411E+03 </wgt>
<wgt id='1275'> +2.9467616E+03 </wgt>
<wgt id='1276'> +2.8939788E+03 </wgt>
<wgt id='1277'> +2.9679761E+03 </wgt>
<wgt id='1278'> +2.9089626E+03 </wgt>
<wgt id='1279'> +2.9694871E+03 </wgt>
<wgt id='1280'> +2.9234555E+03 </wgt>
<wgt id='1281'> +2.9326727E+03 </wgt>
<wgt id='1282'> +2.9382597E+03 </wgt>
<wgt id='1283'> +2.9195828E+03 </wgt>
<wgt id='1284'> +2.9554330E+03 </wgt>
<wgt id='1285'> +2.8833982E+03 </wgt>
<wgt id='1286'> +2.9828832E+03 </wgt>
<wgt id='1287'> +2.9117283E+03 </wgt>
<wgt id='1288'> +2.9702458E+03 </wgt>
<wgt id='1289'> +2.8822653E+03 </wgt>
<wgt id='1290'> +2.9697888E+03 </wgt>
<wgt id='1291'> +2.9317676E+03 </wgt>
<wgt id='1292'> +2.9410294E+03 </wgt>
<wgt id='1293'> +2.9928273E+03 </wgt>
<wgt id='1294'> +2.8835371E+03 </wgt>
<wgt id='1295'> +2.8988427E+03 </wgt>
<wgt id='1296'> +2.9723192E+03 </wgt>
<wgt id='1297'> +2.9960853E+03 </wgt>
<wgt id='1298'> +2.8706620E+03 </wgt>
<wgt id='1299'> +2.9662732E+03 </wgt>
<wgt id='1300'> +2.8977104E+03 </wgt>
<wgt id='1301'> +2.9070185E+03 </wgt>
<wgt id='1302'> +2.9557697E+03 </wgt>
<wgt id='1303'> +2.9310776E+03 </wgt>
<wgt id='1304'> +2.9087724E+03 </wgt>
<wgt id='1305'> +2.9442888E+03 </wgt>
<wgt id='1306'> +2.9777226E+03 </wgt>
<wgt id='1307'> +2.9150428E+03 </wgt>
<wgt id='1308'> +3.0010538E+03 </wgt>
<wgt id='1309'> +2.9394315E+03 </wgt>
<wgt id='1310'> +2.9892058E+03 </wgt>
<wgt id='1311'> +2.9288471E+03 </wgt>
<wgt id='1312'> +2.9693219E+03 </wgt>
<wgt id='1313'> +2.9070712E+03 </wgt>
<wgt id='1314'> +2.8983374E+03 </wgt>
<wgt id='1315'> +2.8803053E+03 </wgt>
<wgt id='1316'> +3.0043179E+03 </wgt>
<wgt id='1317'> +2.8986599E+03 </wgt>
<wgt id='1318'> +2.9741530E+03 </wgt>
<wgt id='1319'> +2.8257653E+03 </wgt>
<wgt id='1320'> +2.8517120E+03 </wgt>
<wgt id='1321'> +2.8005545E+03 </wgt>
<wgt id='1322'> +2.8694893E+03 </wgt>
<wgt id='1323'> +2.8498165E+03 </wgt>
<wgt id='1324'> +2.8719690E+03 </wgt>
<wgt id='1325'> +2.8230386E+03 </wgt>
<wgt id='1326'> +2.8042481E+03 </wgt>
<wgt id='1327'> +2.8917218E+03 </wgt>
<wgt id='1328'> +2.8155968E+03 </wgt>
<wgt id='1329'> +2.8368543E+03 </wgt>
<wgt id='1330'> +2.8091886E+03 </wgt>
<wgt id='1331'> +2.8521786E+03 </wgt>
<wgt id='1332'> +2.7566027E+03 </wgt>
<wgt id='1333'> +2.8544831E+03 </wgt>
<wgt id='1334'> +2.8321001E+03 </wgt>
<wgt id='1335'> +2.8016280E+03 </wgt>
<wgt id='1336'> +2.8811177E+03 </wgt>
<wgt id='1337'> +2.7632709E+03 </wgt>
<wgt id='1338'> +2.8571286E+03 </wgt>
<wgt id='1339'> +2.7919659E+03 </wgt>
<wgt id='1340'> +2.8381427E+03 </wgt>
<wgt id='1341'> +2.8035960E+03 </wgt>
<wgt id='1342'> +2.8588829E+03 </wgt>
<wgt id='1343'> +2.7929229E+03 </wgt>
<wgt id='1344'> +2.8199476E+03 </wgt>
<wgt id='1345'> +2.8375973E+03 </wgt>
<wgt id='1346'> +2.8502377E+03 </wgt>
<wgt id='1347'> +2.7932363E+03 </wgt>
<wgt id='1348'> +2.7645419E+03 </wgt>
<wgt id='1349'> +2.8465653E+03 </wgt>
<wgt id='1350'> +2.8174155E+03 </wgt>
<wgt id='1351'> +2.8365607E+03 </wgt>
<wgt id='1352'> +2.8239643E+03 </wgt>
<wgt id='1353'> +2.8272729E+03 </wgt>
<wgt id='1354'> +2.8805215E+03 </wgt>
<wgt id='1355'> +2.7747389E+03 </wgt>
<wgt id='1356'> +2.8256746E+03 </wgt>
<wgt id='1357'> +2.8134665E+03 </wgt>
<wgt id='1358'> +2.8186461E+03 </wgt>
<wgt id='1359'> +2.8156505E+03 </wgt>
<wgt id='1360'> +2.8281134E+03 </wgt>
<wgt id='1361'> +2.8275019E+03 </wgt>
<wgt id='1362'> +2.8112034E+03 </wgt>
<wgt id='1363'> +2.8313616E+03 </wgt>
<wgt id='1364'> +2.8176519E+03 </wgt>
<wgt id='1365'> +2.8330529E+03 </wgt>
<wgt id='1366'> +2.8007347E+03 </wgt>
<wgt id='1367'> +2.8569134E+03 </wgt>
<wgt id='1368'> +2.8377023E+03 </wgt>
<wgt id='1369'> +2.8445107E+03 </wgt>
<wgt id='1370'> +2.8170196E+03 </wgt>
<wgt id='1371'> +2.8198577E+03 </wgt>
<wgt id='1372'> +2.8103505E+03 </wgt>
<wgt id='1373'> +2.7793580E+03 </wgt>
<wgt id='1374'> +2.7644078E+03 </wgt>
<wgt id='1375'> +2.8865707E+03 </wgt>
<wgt id='1376'> +2.7863356E+03 </wgt>
<wgt id='1377'> +2.8609650E+03 </wgt>
<wgt id='1378'> +2.4341101E+03 </wgt>
<wgt id='1379'> +2.7926648E+03 </wgt>
<wgt id='1380'> +2.8029085E+03 </wgt>
<wgt id='1381'> +2.7818093E+03 </wgt>
<wgt id='1382'> +2.7865469E+03 </wgt>
<wgt id='1383'> +2.7969448E+03 </wgt>
<wgt id='1384'> +2.7785562E+03 </wgt>
<wgt id='1385'> +2.8058843E+03 </wgt>
<wgt id='1386'> +2.7922827E+03 </wgt>
<wgt id='1387'> +2.7931163E+03 </wgt>
<wgt id='1388'> +2.7932207E+03 </wgt>
<wgt id='1389'> +2.7922330E+03 </wgt>
<wgt id='1390'> +2.7959522E+03 </wgt>
<wgt id='1391'> +2.7857574E+03 </wgt>
<wgt id='1392'> +2.7849328E+03 </wgt>
<wgt id='1393'> +2.8067929E+03 </wgt>
<wgt id='1394'> +2.7941528E+03 </wgt>
<wgt id='1395'> +2.7918647E+03 </wgt>
<wgt id='1396'> +2.8071884E+03 </wgt>
<wgt id='1397'> +2.7757801E+03 </wgt>
<wgt id='1398'> +2.8009969E+03 </wgt>
<wgt id='1399'> +2.7854187E+03 </wgt>
<wgt id='1400'> +2.7915520E+03 </wgt>
<wgt id='1401'> +2.7945675E+03 </wgt>
<wgt id='1402'> +2.8276546E+03 </wgt>
<wgt id='1403'> +2.7703057E+03 </wgt>
<wgt id='1404'> +2.8030693E+03 </wgt>
<wgt id='1405'> +2.7657602E+03 </wgt>
<wgt id='1406'> +2.8091536E+03 </wgt>
<wgt id='1407'> +2.7891539E+03 </wgt>
<wgt id='1408'> +2.8100880E+03 </wgt>
<wgt id='1409'> +2.7714963E+03 </wgt>
<wgt id='1410'> +2.8105610E+03 </wgt>
<wgt id='1411'> +2.7702372E+03 </wgt>
<wgt id='1412'> +2.7851749E+03 </wgt>
<wgt id='1413'> +2.8010389E+03 </wgt>
<wgt id='1414'> +2.7836081E+03 </wgt>
<wgt id='1415'> +2.8171336E+03 </wgt>
<wgt id='1416'> +2.7859348E+03 </wgt>
<wgt id='1417'> +2.8026461E+03 </wgt>
<wgt id='1418'> +2.7939415E+03 </wgt>
<wgt id='1419'> +2.7903913E+03 </wgt>
<wgt id='1420'> +2.7565333E+03 </wgt>
<wgt id='1421'> +2.8103480E+03 </wgt>
<wgt id='1422'> +2.8157748E+03 </wgt>
<wgt id='1423'> +2.7767043E+03 </wgt>
<wgt id='1424'> +2.7816750E+03 </wgt>
<wgt id='1425'> +2.8185748E+03 </wgt>
<wgt id='1426'> +2.7987261E+03 </wgt>
<wgt id='1427'> +2.7932530E+03 </wgt>
<wgt id='1428'> +2.7929939E+03 </wgt>
<wgt id='1429'> +2.7941402E+03 </wgt>
<wgt id='1430'> +2.9791691E+03 </wgt>
<wgt id='1431'> +2.9888378E+03 </wgt>
<wgt id='1432'> +2.9665277E+03 </wgt>
<wgt id='1433'> +2.9798955E+03 </wgt>
<wgt id='1434'> +2.9782803E+03 </wgt>
<wgt id='1435'> +2.9687011E+03 </wgt>
<wgt id='1436'> +2.9832957E+03 </wgt>
<wgt id='1437'> +2.9649932E+03 </wgt>
<wgt id='1438'> +2.9930941E+03 </wgt>
<wgt id='1439'> +2.9764609E+03 </wgt>
<wgt id='1440'> +2.9815710E+03 </wgt>
<wgt id='1441'> +2.9706849E+03 </wgt>
<wgt id='1442'> +2.9826289E+03 </wgt>
<wgt id='1443'> +2.9760154E+03 </wgt>
<wgt id='1444'> +2.9828986E+03 </wgt>
<wgt id='1445'> +2.9684765E+03 </wgt>
<wgt id='1446'> +2.9906391E+03 </wgt>
<wgt id='1447'> +2.9809514E+03 </wgt>
<wgt id='1448'> +2.9773313E+03 </wgt>
<wgt id='1449'> +2.9791236E+03 </wgt>
<wgt id='1450'> +2.9785248E+03 </wgt>
<wgt id='1451'> +2.9910679E+03 </wgt>
<wgt id='1452'> +2.9704723E+03 </wgt>
<wgt id='1453'> +2.9597384E+03 </wgt>
<wgt id='1454'> +2.9928392E+03 </wgt>
<wgt id='1455'> +2.9618168E+03 </wgt>
<wgt id='1456'> +3.0218617E+03 </wgt>
<wgt id='1457'> +2.9934423E+03 </wgt>
<wgt id='1458'> +2.9798226E+03 </wgt>
<wgt id='1459'> +2.9663654E+03 </wgt>
<wgt id='1460'> +3.0040599E+03 </wgt>
<wgt id='1461'> +2.9831141E+03 </wgt>
<wgt id='1462'> +2.9706988E+03 </wgt>
<wgt id='1463'> +2.9713842E+03 </wgt>
<wgt id='1464'> +2.9982746E+03 </wgt>
<wgt id='1465'> +3.0160627E+03 </wgt>
<wgt id='1466'> +2.9643613E+03 </wgt>
<wgt id='1467'> +2.9810195E+03 </wgt>
<wgt id='1468'> +2.9832457E+03 </wgt>
<wgt id='1469'> +2.9819404E+03 </wgt>
<wgt id='1470'> +2.9756491E+03 </wgt>
<wgt id='1471'> +2.9977003E+03 </wgt>
<wgt id='1472'> +2.9355346E+03 </wgt>
<wgt id='1473'> +2.9827990E+03 </wgt>
<wgt id='1474'> +2.9548927E+03 </wgt>
<wgt id='1475'> +2.9737734E+03 </wgt>
<wgt id='1476'> +2.9964796E+03 </wgt>
<wgt id='1477'> +3.0024301E+03 </wgt>
<wgt id='1478'> +2.9706433E+03 </wgt>
<wgt id='1479'> +2.9901036E+03 </wgt>
<wgt id='1480'> +2.9836735E+03 </wgt>
<wgt id='1481'> +2.5422568E+03 </wgt>
<wgt id='1482'> +2.8963308E+03 </wgt>
<wgt id='1483'> +2.8958548E+03 </wgt>
<wgt id='1484'> +2.8960632E+03 </wgt>
<wgt id='1485'> +2.8964170E+03 </wgt>
<wgt id='1486'> +2.8963800E+03 </wgt>
<wgt id='1487'> +2.8983165E+03 </wgt>
<wgt id='1488'> +2.8862614E+03 </wgt>
<wgt id='1489'> +2.8952889E+03 </wgt>
<wgt id='1490'> +2.8909405E+03 </wgt>
<wgt id='1491'> +2.8900849E+03 </wgt>
<wgt id='1492'> +2.9064645E+03 </wgt>
<wgt id='1493'> +2.8933243E+03 </wgt>
<wgt id='1494'> +2.8937856E+03 </wgt>
<wgt id='1495'> +2.8987409E+03 </wgt>
<wgt id='1496'> +2.8927063E+03 </wgt>
<wgt id='1497'> +2.8983278E+03 </wgt>
<wgt id='1498'> +2.8979239E+03 </wgt>
<wgt id='1499'> +2.8953860E+03 </wgt>
<wgt id='1500'> +2.8997186E+03 </wgt>
<wgt id='1501'> +2.8978065E+03 </wgt>
<wgt id='1502'> +2.8844128E+03 </wgt>
<wgt id='1503'> +2.8924618E+03 </wgt>
<wgt id='1504'> +2.8900916E+03 </wgt>
<wgt id='1505'> +2.9039520E+03 </wgt>
<wgt id='1506'> +2.9037456E+03 </wgt>
<wgt id='1507'> +2.9052802E+03 </wgt>
<wgt id='1508'> +2.8941753E+03 </wgt>
<wgt id='1509'> +2.8984376E+03 </wgt>
<wgt id='1510'> +2.8869879E+03 </wgt>
<wgt id='1511'> +2.8750339E+03 </wgt>
<wgt id='1512'> +2.8001629E+03 </wgt>
<wgt id='1513'> +2.7967714E+03 </wgt>
<wgt id='1514'> +2.7791569E+03 </wgt>
<wgt id='1515'> +2.8286415E+03 </wgt>
<wgt id='1516'> +2.7965019E+03 </wgt>
<wgt id='1517'> +2.8083015E+03 </wgt>
<wgt id='1518'> +2.7778381E+03 </wgt>
<wgt id='1519'> +2.8106394E+03 </wgt>
<wgt id='1520'> +2.8240680E+03 </wgt>
<wgt id='1521'> +2.8147554E+03 </wgt>
<wgt id='1522'> +2.8046593E+03 </wgt>
<wgt id='1523'> +2.7837149E+03 </wgt>
<wgt id='1524'> +2.7816220E+03 </wgt>
<wgt id='1525'> +2.7834269E+03 </wgt>
<wgt id='1526'> +2.7983941E+03 </wgt>
<wgt id='1527'> +2.7863085E+03 </wgt>
<wgt id='1528'> +2.7948199E+03 </wgt>
<wgt id='1529'> +2.7926097E+03 </wgt>
<wgt id='1530'> +2.8253739E+03 </wgt>
<wgt id='1531'> +2.7909893E+03 </wgt>
<wgt id='1532'> +2.8100905E+03 </wgt>
<wgt id='1533'> +2.8011261E+03 </wgt>
<wgt id='1534'> +2.7941010E+03 </wgt>
<wgt id='1535'> +2.8102699E+03 </wgt>
<wgt id='1536'> +2.7970549E+03 </wgt>
<wgt id='1537'> +2.8087429E+03 </wgt>
<wgt id='1538'> +2.7963572E+03 </wgt>
<wgt id='1539'> +2.7958752E+03 </wgt>
<wgt id='1540'> +2.8091965E+03 </wgt>
<wgt id='1541'> +2.7953931E+03 </wgt>
<wgt id='1542'> +2.7905895E+03 </wgt>
<wgt id='1543'> +2.8028821E+03 </wgt>
<wgt id='1544'> +2.7934327E+03 </wgt>
<wgt id='1545'> +2.7858414E+03 </wgt>
<wgt id='1546'> +2.8020318E+03 </wgt>
<wgt id='1547'> +2.8045909E+03 </wgt>
<wgt id='1548'> +2.7976456E+03 </wgt>
<wgt id='1549'> +2.7930825E+03 </wgt>
<wgt id='1550'> +2.8018489E+03 </wgt>
<wgt id='1551'> +2.8056864E+03 </wgt>
<wgt id='1552'> +2.8026242E+03 </wgt>
<wgt id='1553'> +2.8046353E+03 </wgt>
<wgt id='1554'> +2.7980363E+03 </wgt>
<wgt id='1555'> +2.7997141E+03 </wgt>
<wgt id='1556'> +2.8058575E+03 </wgt>
<wgt id='1557'> +2.8008998E+03 </wgt>
<wgt id='1558'> +2.7973645E+03 </wgt>
<wgt id='1559'> +2.7943123E+03 </wgt>
<wgt id='1560'> +2.7985101E+03 </wgt>
<wgt id='1561'> +2.8005241E+03 </wgt>
<wgt id='1562'> +2.7992863E+03 </wgt>
<wgt id='1563'> +2.7996272E+03 </wgt>
<wgt id='1564'> +2.7992099E+03 </wgt>
<wgt id='1565'> +2.8038259E+03 </wgt>
<wgt id='1566'> +2.8009139E+03 </wgt>
<wgt id='1567'> +2.8000888E+03 </wgt>
<wgt id='1568'> +2.8041048E+03 </wgt>
<wgt id='1569'> +2.8006753E+03 </wgt>
<wgt id='1570'> +2.8029423E+03 </wgt>
<wgt id='1571'> +2.7990072E+03 </wgt>
<wgt id='1572'> +2.7961748E+03 </wgt>
<wgt id='1573'> +2.7995866E+03 </wgt>
<wgt id='1574'> +2.7979134E+03 </wgt>
<wgt id='1575'> +2.7989768E+03 </wgt>
<wgt id='1576'> +2.7994598E+03 </wgt>
<wgt id='1577'> +2.7994435E+03 </wgt>
<wgt id='1578'> +2.7980402E+03 </wgt>
<wgt id='1579'> +2.7996249E+03 </wgt>
<wgt id='1580'> +2.8006546E+03 </wgt>
<wgt id='1581'> +2.8004148E+03 </wgt>
<wgt id='1582'> +2.7985552E+03 </wgt>
<wgt id='1583'> +2.7982404E+03 </wgt>
<wgt id='1584'> +2.8003042E+03 </wgt>
<wgt id='1585'> +2.8005439E+03 </wgt>
<wgt id='1586'> +2.7992607E+03 </wgt>
<wgt id='1587'> +2.7989290E+03 </wgt>
<wgt id='1588'> +2.8000390E+03 </wgt>
<wgt id='1589'> +2.7991186E+03 </wgt>
<wgt id='1590'> +2.7995078E+03 </wgt>
<wgt id='1591'> +2.8023622E+03 </wgt>
<wgt id='1592'> +2.8011661E+03 </wgt>
<wgt id='1593'> +2.8005164E+03 </wgt>
<wgt id='1594'> +2.7989287E+03 </wgt>
<wgt id='1595'> +2.8000466E+03 </wgt>
<wgt id='1596'> +2.8006588E+03 </wgt>
<wgt id='1597'> +2.7998751E+03 </wgt>
<wgt id='1598'> +2.8008435E+03 </wgt>
<wgt id='1599'> +2.7991438E+03 </wgt>
<wgt id='1600'> +2.8001183E+03 </wgt>
<wgt id='1601'> +2.8012190E+03 </wgt>
<wgt id='1602'> +2.8003888E+03 </wgt>
<wgt id='1603'> +2.8000322E+03 </wgt>
<wgt id='1604'> +2.8013454E+03 </wgt>
<wgt id='1605'> +2.8009810E+03 </wgt>
<wgt id='1606'> +2.7999713E+03 </wgt>
<wgt id='1607'> +2.7995718E+03 </wgt>
<wgt id='1608'> +2.8008467E+03 </wgt>
<wgt id='1609'> +2.7993049E+03 </wgt>
<wgt id='1610'> +2.8003692E+03 </wgt>
<wgt id='1611'> +2.7994502E+03 </wgt>
<wgt id='1612'> +2.7999721E+03 </wgt>
<wgt id='1613'> +2.7677629E+03 </wgt>
<wgt id='1614'> +2.8330659E+03 </wgt>
<wgt id='1615'> +2.9382098E+03 </wgt>
<wgt id='1616'> +2.9555575E+03 </wgt>
<wgt id='1617'> +2.9283037E+03 </wgt>
<wgt id='1618'> +2.9496873E+03 </wgt>
<wgt id='1619'> +2.9531951E+03 </wgt>
<wgt id='1620'> +2.9565726E+03 </wgt>
<wgt id='1621'> +2.9588190E+03 </wgt>
<wgt id='1622'> +2.9486961E+03 </wgt>
<wgt id='1623'> +2.9410759E+03 </wgt>
<wgt id='1624'> +2.9152477E+03 </wgt>
<wgt id='1625'> +2.9538965E+03 </wgt>
<wgt id='1626'> +2.9470320E+03 </wgt>
<wgt id='1627'> +2.9279746E+03 </wgt>
<wgt id='1628'> +2.9374484E+03 </wgt>
<wgt id='1629'> +2.9128893E+03 </wgt>
<wgt id='1630'> +2.9854805E+03 </wgt>
<wgt id='1631'> +2.9236155E+03 </wgt>
<wgt id='1632'> +2.9445378E+03 </wgt>
<wgt id='1633'> +2.9424224E+03 </wgt>
<wgt id='1634'> +2.9147312E+03 </wgt>
<wgt id='1635'> +2.9464245E+03 </wgt>
<wgt id='1636'> +2.9441714E+03 </wgt>
<wgt id='1637'> +2.9296893E+03 </wgt>
<wgt id='1638'> +2.9443876E+03 </wgt>
<wgt id='1639'> +2.9447100E+03 </wgt>
<wgt id='1640'> +2.9409149E+03 </wgt>
<wgt id='1641'> +2.9345326E+03 </wgt>
<wgt id='1642'> +2.9372333E+03 </wgt>
<wgt id='1643'> +2.9374099E+03 </wgt>
<wgt id='1644'> +2.9429128E+03 </wgt>
<wgt id='1645'> +2.9464356E+03 </wgt>
<wgt id='1646'> +2.9450359E+03 </wgt>
<wgt id='1647'> +2.9496925E+03 </wgt>
<wgt id='1648'> +2.9584033E+03 </wgt>
<wgt id='1649'> +2.9469628E+03 </wgt>
<wgt id='1650'> +2.9336161E+03 </wgt>
<wgt id='1651'> +2.9386864E+03 </wgt>
<wgt id='1652'> +2.9350254E+03 </wgt>
<wgt id='1653'> +2.9375940E+03 </wgt>
<wgt id='1654'> +2.9396478E+03 </wgt>
<wgt id='1655'> +2.9366120E+03 </wgt>
<wgt id='1656'> +2.9408806E+03 </wgt>
<wgt id='1657'> +2.9403919E+03 </wgt>
<wgt id='1658'> +2.9315290E+03 </wgt>
<wgt id='1659'> +2.9400775E+03 </wgt>
<wgt id='1660'> +2.9325197E+03 </wgt>
<wgt id='1661'> +2.9371137E+03 </wgt>
<wgt id='1662'> +2.9380139E+03 </wgt>
<wgt id='1663'> +2.9451168E+03 </wgt>
<wgt id='1664'> +2.9370902E+03 </wgt>
<wgt id='1665'> +2.9395651E+03 </wgt>
<wgt id='1666'> +2.9369623E+03 </wgt>
<wgt id='1667'> +2.9334199E+03 </wgt>
<wgt id='1668'> +2.9416687E+03 </wgt>
<wgt id='1669'> +2.9380354E+03 </wgt>
<wgt id='1670'> +2.9395039E+03 </wgt>
<wgt id='1671'> +2.9400406E+03 </wgt>
<wgt id='1672'> +2.9366874E+03 </wgt>
<wgt id='1673'> +2.9378473E+03 </wgt>
<wgt id='1674'> +2.9364142E+03 </wgt>
<wgt id='1675'> +2.9350843E+03 </wgt>
<wgt id='1676'> +2.9407253E+03 </wgt>
<wgt id='1677'> +2.9369468E+03 </wgt>
<wgt id='1678'> +2.9392246E+03 </wgt>
<wgt id='1679'> +2.9350055E+03 </wgt>
<wgt id='1680'> +2.9410924E+03 </wgt>
<wgt id='1681'> +2.9388218E+03 </wgt>
<wgt id='1682'> +2.9395387E+03 </wgt>
<wgt id='1683'> +2.9403940E+03 </wgt>
<wgt id='1684'> +2.9394318E+03 </wgt>
<wgt id='1685'> +2.9386615E+03 </wgt>
<wgt id='1686'> +2.9402165E+03 </wgt>
<wgt id='1687'> +2.9388645E+03 </wgt>
<wgt id='1688'> +2.9392859E+03 </wgt>
<wgt id='1689'> +2.9391598E+03 </wgt>
<wgt id='1690'> +2.9379775E+03 </wgt>
<wgt id='1691'> +2.9354978E+03 </wgt>
<wgt id='1692'> +2.9383104E+03 </wgt>
<wgt id='1693'> +2.9378038E+03 </wgt>
<wgt id='1694'> +2.9373616E+03 </wgt>
<wgt id='1695'> +2.9400928E+03 </wgt>
<wgt id='1696'> +2.9369860E+03 </wgt>
<wgt id='1697'> +2.9382574E+03 </wgt>
<wgt id='1698'> +2.9369461E+03 </wgt>
<wgt id='1699'> +2.9386123E+03 </wgt>
<wgt id='1700'> +2.9383078E+03 </wgt>
<wgt id='1701'> +2.9391793E+03 </wgt>
<wgt id='1702'> +2.9375020E+03 </wgt>
<wgt id='1703'> +2.9384324E+03 </wgt>
<wgt id='1704'> +2.9382142E+03 </wgt>
<wgt id='1705'> +2.9393162E+03 </wgt>
<wgt id='1706'> +2.9368058E+03 </wgt>
<wgt id='1707'> +2.9382108E+03 </wgt>
<wgt id='1708'> +2.9371313E+03 </wgt>
<wgt id='1709'> +2.9396239E+03 </wgt>
<wgt id='1710'> +2.9378179E+03 </wgt>
<wgt id='1711'> +2.9373060E+03 </wgt>
<wgt id='1712'> +2.9383464E+03 </wgt>
<wgt id='1713'> +2.9386471E+03 </wgt>
<wgt id='1714'> +2.9379755E+03 </wgt>
<wgt id='1715'> +2.9375891E+03 </wgt>
<wgt id='1716'> +2.8964576E+03 </wgt>
<wgt id='1717'> +2.9641045E+03 </wgt>
<wgt id='1718'> +2.8001250E+03 </wgt>
<wgt id='1719'> +2.7965767E+03 </wgt>
<wgt id='1720'> +2.7842390E+03 </wgt>
<wgt id='1721'> +2.8000603E+03 </wgt>
<wgt id='1722'> +2.8390838E+03 </wgt>
<wgt id='1723'> +2.8128686E+03 </wgt>
<wgt id='1724'> +2.8165769E+03 </wgt>
<wgt id='1725'> +2.7983374E+03 </wgt>
<wgt id='1726'> +2.8064133E+03 </wgt>
<wgt id='1727'> +2.8267767E+03 </wgt>
<wgt id='1728'> +2.8025528E+03 </wgt>
<wgt id='1729'> +2.7835166E+03 </wgt>
<wgt id='1730'> +2.8071991E+03 </wgt>
<wgt id='1731'> +2.8005809E+03 </wgt>
<wgt id='1732'> +2.7726046E+03 </wgt>
<wgt id='1733'> +2.8044248E+03 </wgt>
<wgt id='1734'> +2.8021534E+03 </wgt>
<wgt id='1735'> +2.7787145E+03 </wgt>
<wgt id='1736'> +2.7994009E+03 </wgt>
<wgt id='1737'> +2.8071338E+03 </wgt>
<wgt id='1738'> +2.8030754E+03 </wgt>
<wgt id='1739'> +2.7981883E+03 </wgt>
<wgt id='1740'> +2.7955063E+03 </wgt>
<wgt id='1741'> +2.8015869E+03 </wgt>
<wgt id='1742'> +2.7930886E+03 </wgt>
<wgt id='1743'> +2.8033469E+03 </wgt>
<wgt id='1744'> +2.7954042E+03 </wgt>
<wgt id='1745'> +2.8094866E+03 </wgt>
<wgt id='1746'> +2.8001106E+03 </wgt>
<wgt id='1747'> +2.8158726E+03 </wgt>
<wgt id='1748'> +2.8003441E+03 </wgt>
<wgt id='1749'> +2.7677629E+03 </wgt>
<wgt id='1750'> +2.8330659E+03 </wgt>
<wgt id='1751'> +2.9381778E+03 </wgt>
<wgt id='1752'> +2.9584816E+03 </wgt>
<wgt id='1753'> +2.9910386E+03 </wgt>
<wgt id='1754'> +2.9366587E+03 </wgt>
<wgt id='1755'> +2.9044044E+03 </wgt>
<wgt id='1756'> +2.9232598E+03 </wgt>
<wgt id='1757'> +2.9381572E+03 </wgt>
<wgt id='1758'> +2.9361128E+03 </wgt>
<wgt id='1759'> +2.9425047E+03 </wgt>
<wgt id='1760'> +2.9291552E+03 </wgt>
<wgt id='1761'> +2.9600483E+03 </wgt>
<wgt id='1762'> +2.9265310E+03 </wgt>
<wgt id='1763'> +2.9368800E+03 </wgt>
<wgt id='1764'> +2.9227840E+03 </wgt>
<wgt id='1765'> +2.9375108E+03 </wgt>
<wgt id='1766'> +2.9377502E+03 </wgt>
<wgt id='1767'> +2.9395197E+03 </wgt>
<wgt id='1768'> +2.9258851E+03 </wgt>
<wgt id='1769'> +2.9405249E+03 </wgt>
<wgt id='1770'> +2.9430471E+03 </wgt>
<wgt id='1771'> +2.9049013E+03 </wgt>
<wgt id='1772'> +2.9352355E+03 </wgt>
<wgt id='1773'> +2.9444389E+03 </wgt>
<wgt id='1774'> +2.9375551E+03 </wgt>
<wgt id='1775'> +2.9375789E+03 </wgt>
<wgt id='1776'> +2.9320731E+03 </wgt>
<wgt id='1777'> +2.9431374E+03 </wgt>
<wgt id='1778'> +2.9384273E+03 </wgt>
<wgt id='1779'> +2.9352380E+03 </wgt>
<wgt id='1780'> +2.9391581E+03 </wgt>
<wgt id='1781'> +2.9412305E+03 </wgt>
<wgt id='1782'> +2.8964576E+03 </wgt>
<wgt id='1783'> +2.9641045E+03 </wgt>
<wgt id='1784'> +3.2068684E+03 </wgt>
<wgt id='1785'> +3.2121697E+03 </wgt>
<wgt id='1786'> +3.2016071E+03 </wgt>
<wgt id='1787'> +3.2088197E+03 </wgt>
<wgt id='1788'> +3.2049052E+03 </wgt>
<wgt id='1789'> +3.2052265E+03 </wgt>
<wgt id='1790'> +3.2084771E+03 </wgt>
<wgt id='1791'> +3.1943634E+03 </wgt>
<wgt id='1792'> +3.2190135E+03 </wgt>
<wgt id='1793'> +3.2221158E+03 </wgt>
<wgt id='1794'> +3.1915840E+03 </wgt>
<wgt id='1795'> +3.2114210E+03 </wgt>
<wgt id='1796'> +3.1994689E+03 </wgt>
<wgt id='1797'> +3.1978594E+03 </wgt>
<wgt id='1798'> +3.2155653E+03 </wgt>
<wgt id='1799'> +3.2020051E+03 </wgt>
<wgt id='1800'> +3.2205009E+03 </wgt>
<wgt id='1801'> +3.1967152E+03 </wgt>
<wgt id='1802'> +3.2097862E+03 </wgt>
<wgt id='1803'> +3.2064927E+03 </wgt>
<wgt id='1804'> +3.2101005E+03 </wgt>
<wgt id='1805'> +3.2184716E+03 </wgt>
<wgt id='1806'> +3.1921448E+03 </wgt>
<wgt id='1807'> +3.1870719E+03 </wgt>
<wgt id='1808'> +3.2149971E+03 </wgt>
<wgt id='1809'> +3.2280051E+03 </wgt>
<wgt id='1810'> +3.1901890E+03 </wgt>
<wgt id='1811'> +3.1907426E+03 </wgt>
<wgt id='1812'> +3.2178844E+03 </wgt>
<wgt id='1813'> +3.2068684E+03 </wgt>
<wgt id='1814'> +3.2313899E+03 </wgt>
<wgt id='1815'> +3.1768474E+03 </wgt>
<wgt id='1816'> +3.2363683E+03 </wgt>
<wgt id='1817'> +3.1892847E+03 </wgt>
<wgt id='1818'> +3.2345672E+03 </wgt>
<wgt id='1819'> +3.1899460E+03 </wgt>
<wgt id='1820'> +3.2014845E+03 </wgt>
<wgt id='1821'> +3.2126430E+03 </wgt>
<wgt id='1822'> +3.1803603E+03 </wgt>
<wgt id='1823'> +3.2345043E+03 </wgt>
<wgt id='1824'> +3.2030146E+03 </wgt>
<wgt id='1825'> +3.2375823E+03 </wgt>
<wgt id='1826'> +3.1685786E+03 </wgt>
<wgt id='1827'> +3.3144626E+03 </wgt>
<wgt id='1828'> +3.3207910E+03 </wgt>
<wgt id='1829'> +3.3095353E+03 </wgt>
<wgt id='1830'> +3.3181584E+03 </wgt>
<wgt id='1831'> +3.3121191E+03 </wgt>
<wgt id='1832'> +3.3154441E+03 </wgt>
<wgt id='1833'> +3.3148215E+03 </wgt>
<wgt id='1834'> +3.3005569E+03 </wgt>
<wgt id='1835'> +3.3290846E+03 </wgt>
<wgt id='1836'> +3.3265360E+03 </wgt>
<wgt id='1837'> +3.3032174E+03 </wgt>
<wgt id='1838'> +3.3190401E+03 </wgt>
<wgt id='1839'> +3.3111439E+03 </wgt>
<wgt id='1840'> +3.3019556E+03 </wgt>
<wgt id='1841'> +3.3287212E+03 </wgt>
<wgt id='1842'> +3.3162810E+03 </wgt>
<wgt id='1843'> +3.3261211E+03 </wgt>
<wgt id='1844'> +3.3179149E+03 </wgt>
<wgt id='1845'> +3.3115907E+03 </wgt>
<wgt id='1846'> +3.3205904E+03 </wgt>
<wgt id='1847'> +3.3092630E+03 </wgt>
<wgt id='1848'> +3.2892385E+03 </wgt>
<wgt id='1849'> +3.3374962E+03 </wgt>
<wgt id='1850'> +3.3257025E+03 </wgt>
<wgt id='1851'> +3.3052172E+03 </wgt>
<wgt id='1852'> +3.3004355E+03 </wgt>
<wgt id='1853'> +3.3222385E+03 </wgt>
<wgt id='1854'> +3.3039171E+03 </wgt>
<wgt id='1855'> +3.3204043E+03 </wgt>
<wgt id='1856'> +3.3144626E+03 </wgt>
<wgt id='1857'> +3.3414113E+03 </wgt>
<wgt id='1858'> +3.2777891E+03 </wgt>
<wgt id='1859'> +3.3452997E+03 </wgt>
<wgt id='1860'> +3.2944856E+03 </wgt>
<wgt id='1861'> +3.3304632E+03 </wgt>
<wgt id='1862'> +3.2807927E+03 </wgt>
<wgt id='1863'> +3.3091577E+03 </wgt>
<wgt id='1864'> +3.3284131E+03 </wgt>
<wgt id='1865'> +3.2512414E+03 </wgt>
<wgt id='1866'> +3.3446902E+03 </wgt>
<wgt id='1867'> +3.2661278E+03 </wgt>
<wgt id='1868'> +3.3762542E+03 </wgt>
<wgt id='1869'> +3.2601636E+03 </wgt>
<wgt id='1870'> +2.8046495E+03 </wgt>
<wgt id='1871'> +2.8039394E+03 </wgt>
<wgt id='1872'> +2.8032283E+03 </wgt>
<wgt id='1873'> +2.8025133E+03 </wgt>
<wgt id='1874'> +2.8018028E+03 </wgt>
<wgt id='1875'> +2.8010968E+03 </wgt>
<wgt id='1876'> +2.8003805E+03 </wgt>
<wgt id='1877'> +2.7996672E+03 </wgt>
<wgt id='1878'> +2.7989546E+03 </wgt>
<wgt id='1879'> +2.7982460E+03 </wgt>
<wgt id='1880'> +2.7975365E+03 </wgt>
<wgt id='1881'> +2.7968232E+03 </wgt>
<wgt id='1882'> +2.7961110E+03 </wgt>
<wgt id='1883'> +2.7954041E+03 </wgt>
<wgt id='1884'> +2.7946885E+03 </wgt>
<wgt id='1885'> +2.7939799E+03 </wgt>
<wgt id='1886'> +2.7932685E+03 </wgt>
<wgt id='1887'> +2.7925552E+03 </wgt>
<wgt id='1888'> +2.7918465E+03 </wgt>
<wgt id='1889'> +2.7911353E+03 </wgt>
<wgt id='1890'> +2.7904270E+03 </wgt>
<wgt id='1891'> +2.7897179E+03 </wgt>
<wgt id='1892'> +2.7890023E+03 </wgt>
<wgt id='1893'> +2.7882935E+03 </wgt>
<wgt id='1894'> +2.7875801E+03 </wgt>
<wgt id='1895'> +2.7868751E+03 </wgt>
<wgt id='1896'> +2.7861670E+03 </wgt>
<wgt id='1897'> +2.7854487E+03 </wgt>
<wgt id='1898'> +2.7847437E+03 </wgt>
<wgt id='1899'> +2.7840361E+03 </wgt>
<wgt id='1900'> +2.7833222E+03 </wgt>
<wgt id='1901'> +2.9264211E+03 </wgt>
<wgt id='1902'> +2.9431282E+03 </wgt>
<wgt id='1903'> +2.9163765E+03 </wgt>
<wgt id='1904'> +2.9379205E+03 </wgt>
<wgt id='1905'> +2.9412258E+03 </wgt>
<wgt id='1906'> +2.9447354E+03 </wgt>
<wgt id='1907'> +2.9473899E+03 </wgt>
<wgt id='1908'> +2.9372017E+03 </wgt>
<wgt id='1909'> +2.9292705E+03 </wgt>
<wgt id='1910'> +2.9035491E+03 </wgt>
<wgt id='1911'> +2.9419677E+03 </wgt>
<wgt id='1912'> +2.9358360E+03 </wgt>
<wgt id='1913'> +2.9165620E+03 </wgt>
<wgt id='1914'> +2.9259313E+03 </wgt>
<wgt id='1915'> +2.9010903E+03 </wgt>
<wgt id='1916'> +2.9728295E+03 </wgt>
<wgt id='1917'> +2.9124643E+03 </wgt>
<wgt id='1918'> +2.9324748E+03 </wgt>
<wgt id='1919'> +2.9304630E+03 </wgt>
<wgt id='1920'> +2.9034169E+03 </wgt>
<wgt id='1921'> +2.9350429E+03 </wgt>
<wgt id='1922'> +2.9320997E+03 </wgt>
<wgt id='1923'> +2.9178519E+03 </wgt>
<wgt id='1924'> +2.9327453E+03 </wgt>
<wgt id='1925'> +2.9326566E+03 </wgt>
<wgt id='1926'> +2.9286969E+03 </wgt>
<wgt id='1927'> +2.9223590E+03 </wgt>
<wgt id='1928'> +2.9259263E+03 </wgt>
<wgt id='1929'> +2.9258007E+03 </wgt>
<wgt id='1930'> +2.9308762E+03 </wgt>
<wgt id='1931'> +2.9343972E+03 </wgt>
<wgt id='1932'> +2.9336991E+03 </wgt>
<wgt id='1933'> +2.9376933E+03 </wgt>
<wgt id='1934'> +2.9463839E+03 </wgt>
<wgt id='1935'> +2.9351480E+03 </wgt>
<wgt id='1936'> +2.9217050E+03 </wgt>
<wgt id='1937'> +2.9269342E+03 </wgt>
<wgt id='1938'> +2.9232922E+03 </wgt>
<wgt id='1939'> +2.9257687E+03 </wgt>
<wgt id='1940'> +2.9276785E+03 </wgt>
<wgt id='1941'> +2.9248230E+03 </wgt>
<wgt id='1942'> +2.9289649E+03 </wgt>
<wgt id='1943'> +2.9285301E+03 </wgt>
<wgt id='1944'> +2.9199880E+03 </wgt>
<wgt id='1945'> +2.9282703E+03 </wgt>
<wgt id='1946'> +2.9207043E+03 </wgt>
<wgt id='1947'> +2.9254726E+03 </wgt>
<wgt id='1948'> +2.9261665E+03 </wgt>
<wgt id='1949'> +2.9334133E+03 </wgt>
<wgt id='1950'> +2.9252455E+03 </wgt>
<wgt id='1951'> +2.9278089E+03 </wgt>
<wgt id='1952'> +2.9251540E+03 </wgt>
<wgt id='1953'> +2.9216304E+03 </wgt>
<wgt id='1954'> +2.9298780E+03 </wgt>
<wgt id='1955'> +2.9263276E+03 </wgt>
<wgt id='1956'> +2.9277735E+03 </wgt>
<wgt id='1957'> +2.9280816E+03 </wgt>
<wgt id='1958'> +2.9249185E+03 </wgt>
<wgt id='1959'> +2.9262150E+03 </wgt>
<wgt id='1960'> +2.9247092E+03 </wgt>
<wgt id='1961'> +2.9233694E+03 </wgt>
<wgt id='1962'> +2.9289596E+03 </wgt>
<wgt id='1963'> +2.9250942E+03 </wgt>
<wgt id='1964'> +2.9273669E+03 </wgt>
<wgt id='1965'> +2.9232654E+03 </wgt>
<wgt id='1966'> +2.9292677E+03 </wgt>
<wgt id='1967'> +2.9270061E+03 </wgt>
<wgt id='1968'> +2.9276762E+03 </wgt>
<wgt id='1969'> +2.9286139E+03 </wgt>
<wgt id='1970'> +2.9275738E+03 </wgt>
<wgt id='1971'> +2.9268551E+03 </wgt>
<wgt id='1972'> +2.9284654E+03 </wgt>
<wgt id='1973'> +2.9270251E+03 </wgt>
<wgt id='1974'> +2.9274660E+03 </wgt>
<wgt id='1975'> +2.9273718E+03 </wgt>
<wgt id='1976'> +2.9261967E+03 </wgt>
<wgt id='1977'> +2.9237848E+03 </wgt>
<wgt id='1978'> +2.9265465E+03 </wgt>
<wgt id='1979'> +2.9260864E+03 </wgt>
<wgt id='1980'> +2.9255769E+03 </wgt>
<wgt id='1981'> +2.9282269E+03 </wgt>
<wgt id='1982'> +2.9252892E+03 </wgt>
<wgt id='1983'> +2.9264992E+03 </wgt>
<wgt id='1984'> +2.9251625E+03 </wgt>
<wgt id='1985'> +2.9267976E+03 </wgt>
<wgt id='1986'> +2.9265559E+03 </wgt>
<wgt id='1987'> +2.9274914E+03 </wgt>
<wgt id='1988'> +2.9256775E+03 </wgt>
<wgt id='1989'> +2.9266147E+03 </wgt>
<wgt id='1990'> +2.9264055E+03 </wgt>
<wgt id='1991'> +2.9274979E+03 </wgt>
<wgt id='1992'> +2.9249388E+03 </wgt>
<wgt id='1993'> +2.9263779E+03 </wgt>
<wgt id='1994'> +2.9253403E+03 </wgt>
<wgt id='1995'> +2.9277686E+03 </wgt>
<wgt id='1996'> +2.9260212E+03 </wgt>
<wgt id='1997'> +2.9255403E+03 </wgt>
<wgt id='1998'> +2.9265522E+03 </wgt>
<wgt id='1999'> +2.9268495E+03 </wgt>
<wgt id='2000'> +2.9262231E+03 </wgt>
<wgt id='2001'> +2.9258203E+03 </wgt>
<wgt id='2002'> +2.9264121E+03 </wgt>
<wgt id='2003'> +2.9263634E+03 </wgt>
<wgt id='2004'> +2.9264301E+03 </wgt>
<wgt id='2005'> +2.9264317E+03 </wgt>
<wgt id='2006'> +2.9264478E+03 </wgt>
<wgt id='2007'> +2.9264249E+03 </wgt>
<wgt id='2008'> +2.9263829E+03 </wgt>
<wgt id='2009'> +2.7833386E+03 </wgt>
<wgt id='2010'> +2.6881569E+03 </wgt>
<wgt id='2011'> +2.8086845E+03 </wgt>
<wgt id='2012'> +2.8740314E+03 </wgt>
<wgt id='2013'> +2.8456561E+03 </wgt>
<wgt id='2014'> +2.5069989E+03 </wgt>
<wgt id='2015'> +2.6940447E+03 </wgt>
<wgt id='2016'> +2.7721395E+03 </wgt>
<wgt id='2017'> +2.7489738E+03 </wgt>
<wgt id='2018'> +2.7752728E+03 </wgt>
<wgt id='2019'> +2.8373565E+03 </wgt>
<wgt id='2020'> +2.6664434E+03 </wgt>
<wgt id='2021'> +2.7006124E+03 </wgt>
<wgt id='2022'> +2.8363683E+03 </wgt>
<wgt id='2023'> +2.8185518E+03 </wgt>
<wgt id='2024'> +2.7788308E+03 </wgt>
<wgt id='2025'> +2.6868949E+03 </wgt>
<wgt id='2026'> +2.7576351E+03 </wgt>
<wgt id='2027'> +2.6425744E+03 </wgt>
<wgt id='2028'> +2.8133403E+03 </wgt>
<wgt id='2029'> +2.7159573E+03 </wgt>
<wgt id='2030'> +2.9056840E+03 </wgt>
<wgt id='2031'> +2.8008448E+03 </wgt>
<wgt id='2032'> +2.8957600E+03 </wgt>
<wgt id='2033'> +2.7781239E+03 </wgt>
<wgt id='2034'> +2.7923382E+03 </wgt>
<wgt id='2035'> +2.8161449E+03 </wgt>
<wgt id='2036'> +2.6913968E+03 </wgt>
<wgt id='2037'> +2.8099069E+03 </wgt>
<wgt id='2038'> +2.7617063E+03 </wgt>
<wgt id='2039'> +2.7866078E+03 </wgt>
<wgt id='2040'> +2.8685343E+03 </wgt>
<wgt id='2041'> +2.7738943E+03 </wgt>
<wgt id='2042'> +2.8274784E+03 </wgt>
<wgt id='2043'> +2.7999435E+03 </wgt>
<wgt id='2044'> +2.8262229E+03 </wgt>
<wgt id='2045'> +2.7789043E+03 </wgt>
<wgt id='2046'> +2.7423515E+03 </wgt>
<wgt id='2047'> +2.6466353E+03 </wgt>
<wgt id='2048'> +2.7854510E+03 </wgt>
<wgt id='2049'> +2.8230358E+03 </wgt>
<wgt id='2050'> +2.8766871E+03 </wgt>
<wgt id='2051'> +2.8342106E+03 </wgt>
<wgt id='2052'> +2.8106852E+03 </wgt>
<wgt id='2053'> +2.8011387E+03 </wgt>
<wgt id='2054'> +2.8812298E+03 </wgt>
<wgt id='2055'> +2.7945395E+03 </wgt>
<wgt id='2056'> +2.7682926E+03 </wgt>
<wgt id='2057'> +2.7875987E+03 </wgt>
<wgt id='2058'> +2.6285628E+03 </wgt>
<wgt id='2059'> +2.8521742E+03 </wgt>
<wgt id='2060'> +2.8393755E+03 </wgt>
<wgt id='2061'> +2.7769087E+03 </wgt>
<wgt id='2062'> +2.7273040E+03 </wgt>
<wgt id='2063'> +2.8148138E+03 </wgt>
<wgt id='2064'> +2.8113465E+03 </wgt>
<wgt id='2065'> +2.7864090E+03 </wgt>
<wgt id='2066'> +2.8356923E+03 </wgt>
<wgt id='2067'> +2.8534454E+03 </wgt>
<wgt id='2068'> +2.8196466E+03 </wgt>
<wgt id='2069'> +2.8044345E+03 </wgt>
<wgt id='2070'> +2.7721883E+03 </wgt>
<wgt id='2071'> +2.7853403E+03 </wgt>
<wgt id='2072'> +2.7230289E+03 </wgt>
<wgt id='2073'> +2.6836471E+03 </wgt>
<wgt id='2074'> +2.8195414E+03 </wgt>
<wgt id='2075'> +2.7664283E+03 </wgt>
<wgt id='2076'> +2.9482096E+03 </wgt>
<wgt id='2077'> +2.8685748E+03 </wgt>
<wgt id='2078'> +2.7660806E+03 </wgt>
<wgt id='2079'> +2.7672632E+03 </wgt>
<wgt id='2080'> +2.8088215E+03 </wgt>
<wgt id='2081'> +2.6722017E+03 </wgt>
<wgt id='2082'> +2.6878837E+03 </wgt>
<wgt id='2083'> +2.8230703E+03 </wgt>
<wgt id='2084'> +2.8017909E+03 </wgt>
<wgt id='2085'> +2.7303224E+03 </wgt>
<wgt id='2086'> +2.7746260E+03 </wgt>
<wgt id='2087'> +2.8201571E+03 </wgt>
<wgt id='2088'> +2.7612407E+03 </wgt>
<wgt id='2089'> +2.7916207E+03 </wgt>
<wgt id='2090'> +2.8815193E+03 </wgt>
<wgt id='2091'> +2.7813055E+03 </wgt>
<wgt id='2092'> +2.7499656E+03 </wgt>
<wgt id='2093'> +2.8235674E+03 </wgt>
<wgt id='2094'> +2.7657563E+03 </wgt>
<wgt id='2095'> +2.7754647E+03 </wgt>
<wgt id='2096'> +2.8400836E+03 </wgt>
<wgt id='2097'> +2.8366389E+03 </wgt>
<wgt id='2098'> +2.7214669E+03 </wgt>
<wgt id='2099'> +2.8246759E+03 </wgt>
<wgt id='2100'> +2.8208970E+03 </wgt>
<wgt id='2101'> +2.7288969E+03 </wgt>
<wgt id='2102'> +2.7408029E+03 </wgt>
<wgt id='2103'> +2.8066676E+03 </wgt>
<wgt id='2104'> +2.7216406E+03 </wgt>
<wgt id='2105'> +2.8091075E+03 </wgt>
<wgt id='2106'> +2.7618631E+03 </wgt>
<wgt id='2107'> +2.8603346E+03 </wgt>
<wgt id='2108'> +2.8088220E+03 </wgt>
<wgt id='2109'> +2.7075269E+03 </wgt>
<wgt id='2110'> +2.7693170E+03 </wgt>
<wgt id='2111'> +2.8061639E+03 </wgt>
<wgt id='2112'> +2.8975712E+03 </wgt>
<wgt id='2113'> +2.7500577E+03 </wgt>
<wgt id='2114'> +2.8039346E+03 </wgt>
<wgt id='2115'> +2.5499522E+03 </wgt>
<wgt id='2116'> +2.8594544E+03 </wgt>
</rwgt>
</event>
<event>
 5      0 +2.9771057E+03 8.24417000e+01 7.54677100e-03 1.19829000e-01
       -3 -1    0    0    0  501 -0.0000000000e+00 +0.0000000000e+00 +6.1682743746e+01 6.1682743746e+01 0.0000000000e+00 0.0000e+00 1.0000e+00
        4 -1    0    0  501    0 +0.0000000000e+00 -0.0000000000e+00 -2.7546736271e+01 2.7546736271e+01 0.0000000000e+00 0.0000e+00 -1.0000e+00
       24  2    1    2    0    0 +0.0000000000e+00 +0.0000000000e+00 +3.4136007475e+01 8.9229480017e+01 8.2441695141e+01 0.0000e+00 0.0000e+00
      -13  1    3    3    0    0 -4.1117134563e+00 -7.1237665319e+00 +6.0785524557e+01 6.1339499776e+01 0.0000000000e+00 0.0000e+00 1.0000e+00
       14  1    3    3    0    0 +4.1117134563e+00 +7.1237665319e+00 -2.6649517082e+01 2.7889980241e+01 0.0000000000e+00 0.0000e+00 -1.0000e+00
<scales pt_clust_4="13000.00000" pt_clust_5="13000.00000"></scales>
<mgrwt>
<rscale>  0 0.82441695E+02</rscale>
<asrwt>0</asrwt>
<pdfrwt beam="1">  1        4 0.42379594E-02 0.82441695E+02</pdfrwt>
<pdfrwt beam="2">  1       -3 0.94896528E-02 0.82441695E+02</pdfrwt>
<totfact> 0.69036556E+04</totfact>
</mgrwt>
<clustering>
<clus scale="   82.442">  4  5 -1 -1</clus>
<clus scale="   82.442">  2  4  1 -1</clus>
</clustering>
<rwgt>
<wgt id='1001'> +2.9771057E+03 </wgt>
<wgt id='1002'> +1.7004801E+03 </wgt>
<wgt id='1003'> +1.7004801E+03 </wgt>
<wgt id='1004'> +1.1299050E+03 </wgt>
<wgt id='1005'> +2.9771057E+03 </wgt>
<wgt id='1006'> +2.9771057E+03 </wgt>
<wgt id='1007'> +1.7004801E+03 </wgt>
<wgt id='1008'> +1.7004801E+03 </wgt>
<wgt id='1009'> +1.1299050E+03 </wgt>
<wgt id='1010'> +2.9771057E+03 </wgt>
<wgt id='1011'> +2.9771057E+03 </wgt>
<wgt id='1012'> +1.7004801E+03 </wgt>
<wgt id='1013'> +1.7004801E+03 </wgt>
<wgt id='1014'> +1.1299050E+03 </wgt>
<wgt id='1015'> +2.9771057E+03 </wgt>
<wgt id='1016'> +3.4787335E+03 </wgt>
<wgt id='1017'> +2.2646268E+03 </wgt>
<wgt id='1018'> +2.2646268E+03 </wgt>
<wgt id='1019'> +1.7004801E+03 </wgt>
<wgt id='1020'> +3.4787335E+03 </wgt>
<wgt id='1021'> +3.4787335E+03 </wgt>
<wgt id='1022'> +2.2646268E+03 </wgt>
<wgt id='1023'> +2.2646268E+03 </wgt>
<wgt id='1024'> +1.7004801E+03 </wgt>
<wgt id='1025'> +3.4787335E+03 </wgt>
<wgt id='1026'> +3.4787335E+03 </wgt>
<wgt id='1027'> +2.2646268E+03 </wgt>
<wgt id='1028'> +2.2646268E+03 </wgt>
<wgt id='1029'> +1.7004801E+03 </wgt>
<wgt id='1030'> +3.4787335E+03 </wgt>
<wgt id='1031'> +2.4439012E+03 </wgt>
<wgt id='1032'> +1.1299050E+03 </wgt>
<wgt id='1033'> +1.1299050E+03 </wgt>
<wgt id='1034'> +5.8410205E+02 </wgt>
<wgt id='1035'> +2.4439012E+03 </wgt>
<wgt id='1036'> +2.4439012E+03 </wgt>
<wgt id='1037'> +1.1299050E+03 </wgt>
<wgt id='1038'> +1.1299050E+03 </wgt>
<wgt id='1039'> +5.8410205E+02 </wgt>
<wgt id='1040'> +2.4439012E+03 </wgt>
<wgt id='1041'> +2.4439012E+03 </wgt>
<wgt id='1042'> +1.1299050E+03 </wgt>
<wgt id='1043'> +1.1299050E+03 </wgt>
<wgt id='1044'> +5.8410205E+02 </wgt>
<wgt id='1045'> +2.4439012E+03 </wgt>
<wgt id='1046'> +2.9771057E+03 </wgt>
<wgt id='1047'> +2.9703706E+03 </wgt>
<wgt id='1048'> +2.9831713E+03 </wgt>
<wgt id='1049'> +2.9807989E+03 </wgt>
<wgt id='1050'> +2.9461097E+03 </wgt>
<wgt id='1051'> +2.9789675E+03 </wgt>
<wgt id='1052'> +3.0030951E+03 </wgt>
<wgt id='1053'> +2.9930574E+03 </wgt>
<wgt id='1054'> +3.0168430E+03 </wgt>
<wgt id='1055'> +2.9350310E+03 </wgt>
<wgt id='1056'> +3.0118056E+03 </wgt>
<wgt id='1057'> +3.0235671E+03 </wgt>
<wgt id='1058'> +2.9548130E+03 </wgt>
<wgt id='1059'> +3.0037842E+03 </wgt>
<wgt id='1060'> +2.9061537E+03 </wgt>
<wgt id='1061'> +2.9354702E+03 </wgt>
<wgt id='1062'> +2.9095349E+03 </wgt>
<wgt id='1063'> +3.0075232E+03 </wgt>
<wgt id='1064'> +2.9993967E+03 </wgt>
<wgt id='1065'> +2.9916556E+03 </wgt>
<wgt id='1066'> +2.9753236E+03 </wgt>
<wgt id='1067'> +2.9426319E+03 </wgt>
<wgt id='1068'> +2.9550544E+03 </wgt>
<wgt id='1069'> +3.0385508E+03 </wgt>
<wgt id='1070'> +2.9689861E+03 </wgt>
<wgt id='1071'> +2.9580208E+03 </wgt>
<wgt id='1072'> +2.9992793E+03 </wgt>
<wgt id='1073'> +2.9691747E+03 </wgt>
<wgt id='1074'> +2.9907669E+03 </wgt>
<wgt id='1075'> +2.9673509E+03 </wgt>
<wgt id='1076'> +2.9641183E+03 </wgt>
<wgt id='1077'> +2.9683602E+03 </wgt>
<wgt id='1078'> +2.9840818E+03 </wgt>
<wgt id='1079'> +2.9551281E+03 </wgt>
<wgt id='1080'> +2.9605136E+03 </wgt>
<wgt id='1081'> +2.9966396E+03 </wgt>
<wgt id='1082'> +2.9935095E+03 </wgt>
<wgt id='1083'> +2.9914587E+03 </wgt>
<wgt id='1084'> +2.9793352E+03 </wgt>
<wgt id='1085'> +2.9828072E+03 </wgt>
<wgt id='1086'> +2.9749845E+03 </wgt>
<wgt id='1087'> +2.9772743E+03 </wgt>
<wgt id='1088'> +2.9844343E+03 </wgt>
<wgt id='1089'> +2.9813607E+03 </wgt>
<wgt id='1090'> +2.9750686E+03 </wgt>
<wgt id='1091'> +2.9695701E+03 </wgt>
<wgt id='1092'> +2.9750773E+03 </wgt>
<wgt id='1093'> +2.9802541E+03 </wgt>
<wgt id='1094'> +2.9796751E+03 </wgt>
<wgt id='1095'> +2.9775691E+03 </wgt>
<wgt id='1096'> +2.9743498E+03 </wgt>
<wgt id='1097'> +2.9757455E+03 </wgt>
<wgt id='1098'> +2.9799554E+03 </wgt>
<wgt id='1099'> +2.9819163E+03 </wgt>
<wgt id='1100'> +2.9807272E+03 </wgt>
<wgt id='1101'> +2.9844342E+03 </wgt>
<wgt id='1102'> +2.9731139E+03 </wgt>
<wgt id='1103'> +2.9790073E+03 </wgt>
<wgt id='1104'> +2.9764943E+03 </wgt>
<wgt id='1105'> +2.9762718E+03 </wgt>
<wgt id='1106'> +2.9811144E+03 </wgt>
<wgt id='1107'> +2.9817744E+03 </wgt>
<wgt id='1108'> +2.9766150E+03 </wgt>
<wgt id='1109'> +2.9792841E+03 </wgt>
<wgt id='1110'> +2.9748563E+03 </wgt>
<wgt id='1111'> +2.9793243E+03 </wgt>
<wgt id='1112'> +2.9753367E+03 </wgt>
<wgt id='1113'> +2.9726656E+03 </wgt>
<wgt id='1114'> +2.9797046E+03 </wgt>
<wgt id='1115'> +2.9768612E+03 </wgt>
<wgt id='1116'> +2.9785885E+03 </wgt>
<wgt id='1117'> +2.9764891E+03 </wgt>
<wgt id='1118'> +2.9777793E+03 </wgt>
<wgt id='1119'> +2.9778979E+03 </wgt>
<wgt id='1120'> +2.9760739E+03 </wgt>
<wgt id='1121'> +2.9763140E+03 </wgt>
<wgt id='1122'> +2.9741000E+03 </wgt>
<wgt id='1123'> +2.9782988E+03 </wgt>
<wgt id='1124'> +2.9777917E+03 </wgt>
<wgt id='1125'> +2.9772471E+03 </wgt>
<wgt id='1126'> +2.9792398E+03 </wgt>
<wgt id='1127'> +2.9747932E+03 </wgt>
<wgt id='1128'> +2.9743097E+03 </wgt>
<wgt id='1129'> +2.9756877E+03 </wgt>
<wgt id='1130'> +2.9797112E+03 </wgt>
<wgt id='1131'> +2.9747390E+03 </wgt>
<wgt id='1132'> +2.9761531E+03 </wgt>
<wgt id='1133'> +2.9760689E+03 </wgt>
<wgt id='1134'> +2.9749395E+03 </wgt>
<wgt id='1135'> +2.9759536E+03 </wgt>
<wgt id='1136'> +2.9754432E+03 </wgt>
<wgt id='1137'> +2.9757652E+03 </wgt>
<wgt id='1138'> +2.9783334E+03 </wgt>
<wgt id='1139'> +2.9788211E+03 </wgt>
<wgt id='1140'> +2.9753037E+03 </wgt>
<wgt id='1141'> +2.9778656E+03 </wgt>
<wgt id='1142'> +2.9766249E+03 </wgt>
<wgt id='1143'> +2.9733370E+03 </wgt>
<wgt id='1144'> +2.9782541E+03 </wgt>
<wgt id='1145'> +2.9758047E+03 </wgt>
<wgt id='1146'> +2.9761754E+03 </wgt>
<wgt id='1147'> +2.8776471E+03 </wgt>
<wgt id='1148'> +3.0298192E+03 </wgt>
<wgt id='1149'> +2.5245416E+03 </wgt>
<wgt id='1150'> +2.6408674E+03 </wgt>
<wgt id='1151'> +2.7017916E+03 </wgt>
<wgt id='1152'> +2.7801283E+03 </wgt>
<wgt id='1153'> +2.9127240E+03 </wgt>
<wgt id='1154'> +3.0056536E+03 </wgt>
<wgt id='1155'> +3.1287990E+03 </wgt>
<wgt id='1156'> +3.2185042E+03 </wgt>
<wgt id='1157'> +2.8069553E+03 </wgt>
<wgt id='1158'> +2.8204289E+03 </wgt>
<wgt id='1159'> +2.7892958E+03 </wgt>
<wgt id='1160'> +2.8059909E+03 </wgt>
<wgt id='1161'> +2.7755353E+03 </wgt>
<wgt id='1162'> +2.7960280E+03 </wgt>
<wgt id='1163'> +2.8306214E+03 </wgt>
<wgt id='1164'> +2.7843098E+03 </wgt>
<wgt id='1165'> +2.8148336E+03 </wgt>
<wgt id='1166'> +2.7791911E+03 </wgt>
<wgt id='1167'> +2.8716173E+03 </wgt>
<wgt id='1168'> +2.8302003E+03 </wgt>
<wgt id='1169'> +2.7881326E+03 </wgt>
<wgt id='1170'> +2.7861557E+03 </wgt>
<wgt id='1171'> +2.7666499E+03 </wgt>
<wgt id='1172'> +2.8771986E+03 </wgt>
<wgt id='1173'> +2.7509023E+03 </wgt>
<wgt id='1174'> +2.8265879E+03 </wgt>
<wgt id='1175'> +2.7746287E+03 </wgt>
<wgt id='1176'> +2.8280559E+03 </wgt>
<wgt id='1177'> +2.8663016E+03 </wgt>
<wgt id='1178'> +2.7444450E+03 </wgt>
<wgt id='1179'> +2.7949389E+03 </wgt>
<wgt id='1180'> +2.8167985E+03 </wgt>
<wgt id='1181'> +2.7891855E+03 </wgt>
<wgt id='1182'> +2.8432861E+03 </wgt>
<wgt id='1183'> +2.8048092E+03 </wgt>
<wgt id='1184'> +2.8183502E+03 </wgt>
<wgt id='1185'> +2.8221458E+03 </wgt>
<wgt id='1186'> +2.7909764E+03 </wgt>
<wgt id='1187'> +2.7994695E+03 </wgt>
<wgt id='1188'> +2.8082374E+03 </wgt>
<wgt id='1189'> +2.8099898E+03 </wgt>
<wgt id='1190'> +2.7905180E+03 </wgt>
<wgt id='1191'> +2.8074712E+03 </wgt>
<wgt id='1192'> +2.7952908E+03 </wgt>
<wgt id='1193'> +2.7927664E+03 </wgt>
<wgt id='1194'> +2.7928021E+03 </wgt>
<wgt id='1195'> +2.8047140E+03 </wgt>
<wgt id='1196'> +2.8012620E+03 </wgt>
<wgt id='1197'> +2.7913045E+03 </wgt>
<wgt id='1198'> +2.8193318E+03 </wgt>
<wgt id='1199'> +2.8077129E+03 </wgt>
<wgt id='1200'> +2.7990991E+03 </wgt>
<wgt id='1201'> +2.8044632E+03 </wgt>
<wgt id='1202'> +2.7987921E+03 </wgt>
<wgt id='1203'> +2.7994429E+03 </wgt>
<wgt id='1204'> +2.8118920E+03 </wgt>
<wgt id='1205'> +2.8108011E+03 </wgt>
<wgt id='1206'> +2.8055501E+03 </wgt>
<wgt id='1207'> +2.8107779E+03 </wgt>
<wgt id='1208'> +2.8063885E+03 </wgt>
<wgt id='1209'> +2.8083044E+03 </wgt>
<wgt id='1210'> +2.8011428E+03 </wgt>
<wgt id='1211'> +2.8131893E+03 </wgt>
<wgt id='1212'> +2.8108913E+03 </wgt>
<wgt id='1213'> +2.8097795E+03 </wgt>
<wgt id='1214'> +2.8063755E+03 </wgt>
<wgt id='1215'> +2.8028245E+03 </wgt>
<wgt id='1216'> +2.8063538E+03 </wgt>
<wgt id='1217'> +2.8054535E+03 </wgt>
<wgt id='1218'> +2.8070302E+03 </wgt>
<wgt id='1219'> +2.8071716E+03 </wgt>
<wgt id='1220'> +2.8053527E+03 </wgt>
<wgt id='1221'> +2.8024261E+03 </wgt>
<wgt id='1222'> +2.8127522E+03 </wgt>
<wgt id='1223'> +2.8006697E+03 </wgt>
<wgt id='1224'> +2.8045587E+03 </wgt>
<wgt id='1225'> +2.8069901E+03 </wgt>
<wgt id='1226'> +2.8071214E+03 </wgt>
<wgt id='1227'> +2.8047668E+03 </wgt>
<wgt id='1228'> +2.8040921E+03 </wgt>
<wgt id='1229'> +2.8088412E+03 </wgt>
<wgt id='1230'> +2.8059038E+03 </wgt>
<wgt id='1231'> +2.8101022E+03 </wgt>
<wgt id='1232'> +2.8057409E+03 </wgt>
<wgt id='1233'> +2.8045726E+03 </wgt>
<wgt id='1234'> +2.8046055E+03 </wgt>
<wgt id='1235'> +2.8025088E+03 </wgt>
<wgt id='1236'> +2.8108142E+03 </wgt>
<wgt id='1237'> +2.8102346E+03 </wgt>
<wgt id='1238'> +2.8056699E+03 </wgt>
<wgt id='1239'> +2.8078782E+03 </wgt>
<wgt id='1240'> +2.8069545E+03 </wgt>
<wgt id='1241'> +2.8051843E+03 </wgt>
<wgt id='1242'> +2.8061552E+03 </wgt>
<wgt id='1243'> +2.8091895E+03 </wgt>
<wgt id='1244'> +2.8064482E+03 </wgt>
<wgt id='1245'> +2.8107506E+03 </wgt>
<wgt id='1246'> +2.8061095E+03 </wgt>
<wgt id='1247'> +2.8054542E+03 </wgt>
<wgt id='1248'> +2.8073975E+03 </wgt>
<wgt id='1249'> +2.8071260E+03 </wgt>
<wgt id='1250'> +2.8044639E+03 </wgt>
<wgt id='1251'> +2.8058296E+03 </wgt>
<wgt id='1252'> +2.8050874E+03 </wgt>
<wgt id='1253'> +2.8062635E+03 </wgt>
<wgt id='1254'> +2.8065960E+03 </wgt>
<wgt id='1255'> +2.8066000E+03 </wgt>
<wgt id='1256'> +2.8056425E+03 </wgt>
<wgt id='1257'> +2.8043640E+03 </wgt>
<wgt id='1258'> +2.7481004E+03 </wgt>
<wgt id='1259'> +2.8766303E+03 </wgt>
<wgt id='1260'> +2.8706482E+03 </wgt>
<wgt id='1261'> +2.8417505E+03 </wgt>
<wgt id='1262'> +2.8523858E+03 </wgt>
<wgt id='1263'> +2.8538836E+03 </wgt>
<wgt id='1264'> +2.8762936E+03 </wgt>
<wgt id='1265'> +2.8057158E+03 </wgt>
<wgt id='1266'> +2.9544696E+03 </wgt>
<wgt id='1267'> +2.8984504E+03 </wgt>
<wgt id='1268'> +2.8080702E+03 </wgt>
<wgt id='1269'> +2.9185673E+03 </wgt>
<wgt id='1270'> +2.8478568E+03 </wgt>
<wgt id='1271'> +2.8102959E+03 </wgt>
<wgt id='1272'> +2.8863494E+03 </wgt>
<wgt id='1273'> +2.7932413E+03 </wgt>
<wgt id='1274'> +2.8435400E+03 </wgt>
<wgt id='1275'> +2.8894391E+03 </wgt>
<wgt id='1276'> +2.8074525E+03 </wgt>
<wgt id='1277'> +2.8989283E+03 </wgt>
<wgt id='1278'> +2.8404714E+03 </wgt>
<wgt id='1279'> +2.8441396E+03 </wgt>
<wgt id='1280'> +2.8943606E+03 </wgt>
<wgt id='1281'> +2.8892099E+03 </wgt>
<wgt id='1282'> +2.8587491E+03 </wgt>
<wgt id='1283'> +2.8589462E+03 </wgt>
<wgt id='1284'> +2.8823029E+03 </wgt>
<wgt id='1285'> +2.8533611E+03 </wgt>
<wgt id='1286'> +2.8846917E+03 </wgt>
<wgt id='1287'> +2.9088184E+03 </wgt>
<wgt id='1288'> +2.8062745E+03 </wgt>
<wgt id='1289'> +2.8056008E+03 </wgt>
<wgt id='1290'> +2.9094492E+03 </wgt>
<wgt id='1291'> +2.8323974E+03 </wgt>
<wgt id='1292'> +2.9250804E+03 </wgt>
<wgt id='1293'> +2.8246312E+03 </wgt>
<wgt id='1294'> +2.9111153E+03 </wgt>
<wgt id='1295'> +2.8016739E+03 </wgt>
<wgt id='1296'> +2.9286040E+03 </wgt>
<wgt id='1297'> +2.8974031E+03 </wgt>
<wgt id='1298'> +2.8393565E+03 </wgt>
<wgt id='1299'> +2.6044607E+03 </wgt>
<wgt id='1300'> +3.1124281E+03 </wgt>
<wgt id='1301'> +2.7984523E+03 </wgt>
<wgt id='1302'> +2.8905582E+03 </wgt>
<wgt id='1303'> +2.9186521E+03 </wgt>
<wgt id='1304'> +2.7622678E+03 </wgt>
<wgt id='1305'> +2.9641057E+03 </wgt>
<wgt id='1306'> +2.8700469E+03 </wgt>
<wgt id='1307'> +2.9001532E+03 </wgt>
<wgt id='1308'> +2.8928562E+03 </wgt>
<wgt id='1309'> +2.8621897E+03 </wgt>
<wgt id='1310'> +2.8978088E+03 </wgt>
<wgt id='1311'> +2.8865804E+03 </wgt>
<wgt id='1312'> +2.8676868E+03 </wgt>
<wgt id='1313'> +2.8383851E+03 </wgt>
<wgt id='1314'> +2.9858056E+03 </wgt>
<wgt id='1315'> +3.0462242E+03 </wgt>
<wgt id='1316'> +2.5600536E+03 </wgt>
<wgt id='1317'> +2.8227852E+03 </wgt>
<wgt id='1318'> +2.8977383E+03 </wgt>
<wgt id='1319'> +2.8725376E+03 </wgt>
<wgt id='1320'> +2.8798563E+03 </wgt>
<wgt id='1321'> +2.8847413E+03 </wgt>
<wgt id='1322'> +2.9886322E+03 </wgt>
<wgt id='1323'> +2.8355076E+03 </wgt>
<wgt id='1324'> +2.9110546E+03 </wgt>
<wgt id='1325'> +2.8453333E+03 </wgt>
<wgt id='1326'> +2.9198768E+03 </wgt>
<wgt id='1327'> +2.8582821E+03 </wgt>
<wgt id='1328'> +2.7911345E+03 </wgt>
<wgt id='1329'> +2.9370289E+03 </wgt>
<wgt id='1330'> +2.8538776E+03 </wgt>
<wgt id='1331'> +2.8952436E+03 </wgt>
<wgt id='1332'> +2.7765291E+03 </wgt>
<wgt id='1333'> +2.9130234E+03 </wgt>
<wgt id='1334'> +2.6162152E+03 </wgt>
<wgt id='1335'> +3.1494459E+03 </wgt>
<wgt id='1336'> +2.8278123E+03 </wgt>
<wgt id='1337'> +2.9239202E+03 </wgt>
<wgt id='1338'> +2.8808333E+03 </wgt>
<wgt id='1339'> +2.8595805E+03 </wgt>
<wgt id='1340'> +2.8458502E+03 </wgt>
<wgt id='1341'> +2.9204869E+03 </wgt>
<wgt id='1342'> +2.8582315E+03 </wgt>
<wgt id='1343'> +2.8826751E+03 </wgt>
<wgt id='1344'> +2.8091232E+03 </wgt>
<wgt id='1345'> +2.9330794E+03 </wgt>
<wgt id='1346'> +2.8653440E+03 </wgt>
<wgt id='1347'> +2.8799243E+03 </wgt>
<wgt id='1348'> +2.8572380E+03 </wgt>
<wgt id='1349'> +2.8775137E+03 </wgt>
<wgt id='1350'> +2.8732664E+03 </wgt>
<wgt id='1351'> +2.8708792E+03 </wgt>
<wgt id='1352'> +2.8807188E+03 </wgt>
<wgt id='1353'> +2.8524813E+03 </wgt>
<wgt id='1354'> +2.9447810E+03 </wgt>
<wgt id='1355'> +2.8028210E+03 </wgt>
<wgt id='1356'> +2.8913304E+03 </wgt>
<wgt id='1357'> +2.8255426E+03 </wgt>
<wgt id='1358'> +2.8755363E+03 </wgt>
<wgt id='1359'> +2.8260691E+03 </wgt>
<wgt id='1360'> +2.8955710E+03 </wgt>
<wgt id='1361'> +2.8523235E+03 </wgt>
<wgt id='1362'> +2.8800964E+03 </wgt>
<wgt id='1363'> +2.8451448E+03 </wgt>
<wgt id='1364'> +2.7898209E+03 </wgt>
<wgt id='1365'> +2.8848095E+03 </wgt>
<wgt id='1366'> +2.8254181E+03 </wgt>
<wgt id='1367'> +2.9229804E+03 </wgt>
<wgt id='1368'> +2.9263943E+03 </wgt>
<wgt id='1369'> +2.7696589E+03 </wgt>
<wgt id='1370'> +2.8528016E+03 </wgt>
<wgt id='1371'> +2.8500400E+03 </wgt>
<wgt id='1372'> +2.7696975E+03 </wgt>
<wgt id='1373'> +2.8794487E+03 </wgt>
<wgt id='1374'> +3.0023274E+03 </wgt>
<wgt id='1375'> +2.6331463E+03 </wgt>
<wgt id='1376'> +2.8102846E+03 </wgt>
<wgt id='1377'> +2.9214341E+03 </wgt>
<wgt id='1378'> +1.9422731E+03 </wgt>
<wgt id='1379'> +2.8747073E+03 </wgt>
<wgt id='1380'> +2.8747131E+03 </wgt>
<wgt id='1381'> +2.8746960E+03 </wgt>
<wgt id='1382'> +2.8719198E+03 </wgt>
<wgt id='1383'> +2.8765916E+03 </wgt>
<wgt id='1384'> +2.8762528E+03 </wgt>
<wgt id='1385'> +2.8733724E+03 </wgt>
<wgt id='1386'> +2.8619271E+03 </wgt>
<wgt id='1387'> +2.8889142E+03 </wgt>
<wgt id='1388'> +2.8839116E+03 </wgt>
<wgt id='1389'> +2.8657084E+03 </wgt>
<wgt id='1390'> +2.8799904E+03 </wgt>
<wgt id='1391'> +2.8633010E+03 </wgt>
<wgt id='1392'> +2.8690059E+03 </wgt>
<wgt id='1393'> +2.8848625E+03 </wgt>
<wgt id='1394'> +2.8623327E+03 </wgt>
<wgt id='1395'> +2.8817017E+03 </wgt>
<wgt id='1396'> +2.8442470E+03 </wgt>
<wgt id='1397'> +2.9105805E+03 </wgt>
<wgt id='1398'> +2.8481445E+03 </wgt>
<wgt id='1399'> +2.8976765E+03 </wgt>
<wgt id='1400'> +2.8703983E+03 </wgt>
<wgt id='1401'> +2.8807155E+03 </wgt>
<wgt id='1402'> +2.8576258E+03 </wgt>
<wgt id='1403'> +2.8871229E+03 </wgt>
<wgt id='1404'> +2.8359909E+03 </wgt>
<wgt id='1405'> +2.9058496E+03 </wgt>
<wgt id='1406'> +2.8838939E+03 </wgt>
<wgt id='1407'> +2.8760250E+03 </wgt>
<wgt id='1408'> +2.9033357E+03 </wgt>
<wgt id='1409'> +2.8413578E+03 </wgt>
<wgt id='1410'> +2.8970609E+03 </wgt>
<wgt id='1411'> +2.8485724E+03 </wgt>
<wgt id='1412'> +2.8819462E+03 </wgt>
<wgt id='1413'> +2.8668697E+03 </wgt>
<wgt id='1414'> +2.8741211E+03 </wgt>
<wgt id='1415'> +2.8838298E+03 </wgt>
<wgt id='1416'> +2.8910779E+03 </wgt>
<wgt id='1417'> +2.8668817E+03 </wgt>
<wgt id='1418'> +2.8739077E+03 </wgt>
<wgt id='1419'> +2.8755761E+03 </wgt>
<wgt id='1420'> +3.0544674E+03 </wgt>
<wgt id='1421'> +2.7052130E+03 </wgt>
<wgt id='1422'> +2.7901384E+03 </wgt>
<wgt id='1423'> +2.9479135E+03 </wgt>
<wgt id='1424'> +2.9207452E+03 </wgt>
<wgt id='1425'> +2.7596487E+03 </wgt>
<wgt id='1426'> +2.8313868E+03 </wgt>
<wgt id='1427'> +2.9060195E+03 </wgt>
<wgt id='1428'> +2.8550496E+03 </wgt>
<wgt id='1429'> +2.8827556E+03 </wgt>
<wgt id='1430'> +2.9116394E+03 </wgt>
<wgt id='1431'> +2.9098697E+03 </wgt>
<wgt id='1432'> +2.9138908E+03 </wgt>
<wgt id='1433'> +2.9202435E+03 </wgt>
<wgt id='1434'> +2.9031289E+03 </wgt>
<wgt id='1435'> +2.9095964E+03 </wgt>
<wgt id='1436'> +2.9124484E+03 </wgt>
<wgt id='1437'> +2.8946204E+03 </wgt>
<wgt id='1438'> +2.9286733E+03 </wgt>
<wgt id='1439'> +2.9167546E+03 </wgt>
<wgt id='1440'> +2.9067198E+03 </wgt>
<wgt id='1441'> +2.8845774E+03 </wgt>
<wgt id='1442'> +2.9234778E+03 </wgt>
<wgt id='1443'> +2.9123593E+03 </wgt>
<wgt id='1444'> +2.9107729E+03 </wgt>
<wgt id='1445'> +2.8978815E+03 </wgt>
<wgt id='1446'> +2.9264753E+03 </wgt>
<wgt id='1447'> +2.8721204E+03 </wgt>
<wgt id='1448'> +2.9333446E+03 </wgt>
<wgt id='1449'> +2.9243840E+03 </wgt>
<wgt id='1450'> +2.8948191E+03 </wgt>
<wgt id='1451'> +2.8893679E+03 </wgt>
<wgt id='1452'> +2.9272128E+03 </wgt>
<wgt id='1453'> +2.9376766E+03 </wgt>
<wgt id='1454'> +2.8853985E+03 </wgt>
<wgt id='1455'> +2.9221465E+03 </wgt>
<wgt id='1456'> +2.8862969E+03 </wgt>
<wgt id='1457'> +2.9263290E+03 </wgt>
<wgt id='1458'> +2.9076191E+03 </wgt>
<wgt id='1459'> +2.8909071E+03 </wgt>
<wgt id='1460'> +2.9649111E+03 </wgt>
<wgt id='1461'> +2.9187548E+03 </wgt>
<wgt id='1462'> +2.8982382E+03 </wgt>
<wgt id='1463'> +2.9044733E+03 </wgt>
<wgt id='1464'> +2.9280494E+03 </wgt>
<wgt id='1465'> +2.9178536E+03 </wgt>
<wgt id='1466'> +2.9113375E+03 </wgt>
<wgt id='1467'> +2.9147307E+03 </wgt>
<wgt id='1468'> +2.9113393E+03 </wgt>
<wgt id='1469'> +2.9108614E+03 </wgt>
<wgt id='1470'> +2.9121033E+03 </wgt>
<wgt id='1471'> +2.7831343E+03 </wgt>
<wgt id='1472'> +3.1357103E+03 </wgt>
<wgt id='1473'> +2.9006959E+03 </wgt>
<wgt id='1474'> +2.9758090E+03 </wgt>
<wgt id='1475'> +2.9889148E+03 </wgt>
<wgt id='1476'> +2.8344724E+03 </wgt>
<wgt id='1477'> +2.8160406E+03 </wgt>
<wgt id='1478'> +2.9500691E+03 </wgt>
<wgt id='1479'> +2.8761791E+03 </wgt>
<wgt id='1480'> +2.9284113E+03 </wgt>
<wgt id='1481'> +2.4216238E+03 </wgt>
<wgt id='1482'> +3.0883892E+03 </wgt>
<wgt id='1483'> +3.0875686E+03 </wgt>
<wgt id='1484'> +3.0886472E+03 </wgt>
<wgt id='1485'> +3.0859971E+03 </wgt>
<wgt id='1486'> +3.0885352E+03 </wgt>
<wgt id='1487'> +3.0976701E+03 </wgt>
<wgt id='1488'> +3.1016800E+03 </wgt>
<wgt id='1489'> +3.0627319E+03 </wgt>
<wgt id='1490'> +3.0960805E+03 </wgt>
<wgt id='1491'> +3.0936781E+03 </wgt>
<wgt id='1492'> +3.0893272E+03 </wgt>
<wgt id='1493'> +3.0887121E+03 </wgt>
<wgt id='1494'> +3.0986091E+03 </wgt>
<wgt id='1495'> +3.0870116E+03 </wgt>
<wgt id='1496'> +3.0910274E+03 </wgt>
<wgt id='1497'> +3.0881557E+03 </wgt>
<wgt id='1498'> +3.0931422E+03 </wgt>
<wgt id='1499'> +3.0886403E+03 </wgt>
<wgt id='1500'> +3.0851262E+03 </wgt>
<wgt id='1501'> +3.0908795E+03 </wgt>
<wgt id='1502'> +3.0757509E+03 </wgt>
<wgt id='1503'> +3.1052024E+03 </wgt>
<wgt id='1504'> +3.0673505E+03 </wgt>
<wgt id='1505'> +3.0969777E+03 </wgt>
<wgt id='1506'> +3.1046765E+03 </wgt>
<wgt id='1507'> +3.1114698E+03 </wgt>
<wgt id='1508'> +3.0909655E+03 </wgt>
<wgt id='1509'> +3.0789391E+03 </wgt>
<wgt id='1510'> +3.0940245E+03 </wgt>
<wgt id='1511'> +3.0568239E+03 </wgt>
<wgt id='1512'> +2.8395774E+03 </wgt>
<wgt id='1513'> +2.8336594E+03 </wgt>
<wgt id='1514'> +2.8694491E+03 </wgt>
<wgt id='1515'> +2.7242404E+03 </wgt>
<wgt id='1516'> +2.8711844E+03 </wgt>
<wgt id='1517'> +2.8350579E+03 </wgt>
<wgt id='1518'> +2.8601869E+03 </wgt>
<wgt id='1519'> +2.8715989E+03 </wgt>
<wgt id='1520'> +2.9347254E+03 </wgt>
<wgt id='1521'> +2.8112226E+03 </wgt>
<wgt id='1522'> +2.8260965E+03 </wgt>
<wgt id='1523'> +2.9218366E+03 </wgt>
<wgt id='1524'> +2.8014377E+03 </wgt>
<wgt id='1525'> +2.8285194E+03 </wgt>
<wgt id='1526'> +2.8730635E+03 </wgt>
<wgt id='1527'> +2.8143190E+03 </wgt>
<wgt id='1528'> +2.8991007E+03 </wgt>
<wgt id='1529'> +2.7803608E+03 </wgt>
<wgt id='1530'> +2.8184257E+03 </wgt>
<wgt id='1531'> +2.8453720E+03 </wgt>
<wgt id='1532'> +2.8497485E+03 </wgt>
<wgt id='1533'> +2.8511300E+03 </wgt>
<wgt id='1534'> +2.8491030E+03 </wgt>
<wgt id='1535'> +2.8195317E+03 </wgt>
<wgt id='1536'> +2.8471631E+03 </wgt>
<wgt id='1537'> +2.8711650E+03 </wgt>
<wgt id='1538'> +2.8337992E+03 </wgt>
<wgt id='1539'> +2.8454253E+03 </wgt>
<wgt id='1540'> +2.8393014E+03 </wgt>
<wgt id='1541'> +2.8347190E+03 </wgt>
<wgt id='1542'> +2.8404449E+03 </wgt>
<wgt id='1543'> +2.8372442E+03 </wgt>
<wgt id='1544'> +2.8433101E+03 </wgt>
<wgt id='1545'> +2.8454978E+03 </wgt>
<wgt id='1546'> +2.8491687E+03 </wgt>
<wgt id='1547'> +2.8476551E+03 </wgt>
<wgt id='1548'> +2.8320174E+03 </wgt>
<wgt id='1549'> +2.8415189E+03 </wgt>
<wgt id='1550'> +2.8355055E+03 </wgt>
<wgt id='1551'> +2.8469377E+03 </wgt>
<wgt id='1552'> +2.8471625E+03 </wgt>
<wgt id='1553'> +2.8324150E+03 </wgt>
<wgt id='1554'> +2.8421971E+03 </wgt>
<wgt id='1555'> +2.8356144E+03 </wgt>
<wgt id='1556'> +2.8411604E+03 </wgt>
<wgt id='1557'> +2.8458175E+03 </wgt>
<wgt id='1558'> +2.8335790E+03 </wgt>
<wgt id='1559'> +2.8380002E+03 </wgt>
<wgt id='1560'> +2.8399803E+03 </wgt>
<wgt id='1561'> +2.8397525E+03 </wgt>
<wgt id='1562'> +2.8353867E+03 </wgt>
<wgt id='1563'> +2.8429990E+03 </wgt>
<wgt id='1564'> +2.8378481E+03 </wgt>
<wgt id='1565'> +2.8333087E+03 </wgt>
<wgt id='1566'> +2.8455096E+03 </wgt>
<wgt id='1567'> +2.8469511E+03 </wgt>
<wgt id='1568'> +2.8393796E+03 </wgt>
<wgt id='1569'> +2.8374372E+03 </wgt>
<wgt id='1570'> +2.8410302E+03 </wgt>
<wgt id='1571'> +2.8433205E+03 </wgt>
<wgt id='1572'> +2.8357124E+03 </wgt>
<wgt id='1573'> +2.8391629E+03 </wgt>
<wgt id='1574'> +2.8393734E+03 </wgt>
<wgt id='1575'> +2.8393657E+03 </wgt>
<wgt id='1576'> +2.8379746E+03 </wgt>
<wgt id='1577'> +2.8379416E+03 </wgt>
<wgt id='1578'> +2.8438143E+03 </wgt>
<wgt id='1579'> +2.8438489E+03 </wgt>
<wgt id='1580'> +2.8386133E+03 </wgt>
<wgt id='1581'> +2.8432491E+03 </wgt>
<wgt id='1582'> +2.8399663E+03 </wgt>
<wgt id='1583'> +2.8389855E+03 </wgt>
<wgt id='1584'> +2.8404861E+03 </wgt>
<wgt id='1585'> +2.8399053E+03 </wgt>
<wgt id='1586'> +2.8380560E+03 </wgt>
<wgt id='1587'> +2.8400113E+03 </wgt>
<wgt id='1588'> +2.8406026E+03 </wgt>
<wgt id='1589'> +2.8376798E+03 </wgt>
<wgt id='1590'> +2.8394857E+03 </wgt>
<wgt id='1591'> +2.8393958E+03 </wgt>
<wgt id='1592'> +2.8403439E+03 </wgt>
<wgt id='1593'> +2.8393371E+03 </wgt>
<wgt id='1594'> +2.8402703E+03 </wgt>
<wgt id='1595'> +2.8401016E+03 </wgt>
<wgt id='1596'> +2.8422935E+03 </wgt>
<wgt id='1597'> +2.8389222E+03 </wgt>
<wgt id='1598'> +2.8403848E+03 </wgt>
<wgt id='1599'> +2.8402084E+03 </wgt>
<wgt id='1600'> +2.8404119E+03 </wgt>
<wgt id='1601'> +2.8410268E+03 </wgt>
<wgt id='1602'> +2.8397948E+03 </wgt>
<wgt id='1603'> +2.8373876E+03 </wgt>
<wgt id='1604'> +2.8407615E+03 </wgt>
<wgt id='1605'> +2.8394688E+03 </wgt>
<wgt id='1606'> +2.8387373E+03 </wgt>
<wgt id='1607'> +2.8387174E+03 </wgt>
<wgt id='1608'> +2.8381888E+03 </wgt>
<wgt id='1609'> +2.8399828E+03 </wgt>
<wgt id='1610'> +2.8389687E+03 </wgt>
<wgt id='1611'> +2.8406158E+03 </wgt>
<wgt id='1612'> +2.8396826E+03 </wgt>
<wgt id='1613'> +2.7946089E+03 </wgt>
<wgt id='1614'> +2.8900393E+03 </wgt>
<wgt id='1615'> +2.8719466E+03 </wgt>
<wgt id='1616'> +2.8962303E+03 </wgt>
<wgt id='1617'> +2.8845137E+03 </wgt>
<wgt id='1618'> +2.8417317E+03 </wgt>
<wgt id='1619'> +2.8033042E+03 </wgt>
<wgt id='1620'> +2.7927089E+03 </wgt>
<wgt id='1621'> +2.8253296E+03 </wgt>
<wgt id='1622'> +2.8708214E+03 </wgt>
<wgt id='1623'> +2.8889693E+03 </wgt>
<wgt id='1624'> +2.8566041E+03 </wgt>
<wgt id='1625'> +2.9220170E+03 </wgt>
<wgt id='1626'> +2.7711792E+03 </wgt>
<wgt id='1627'> +2.8045827E+03 </wgt>
<wgt id='1628'> +2.8195491E+03 </wgt>
<wgt id='1629'> +2.8383355E+03 </wgt>
<wgt id='1630'> +2.8600462E+03 </wgt>
<wgt id='1631'> +2.8635513E+03 </wgt>
<wgt id='1632'> +2.9250739E+03 </wgt>
<wgt id='1633'> +2.8093146E+03 </wgt>
<wgt id='1634'> +2.9013056E+03 </wgt>
<wgt id='1635'> +2.8994330E+03 </wgt>
<wgt id='1636'> +2.8811510E+03 </wgt>
<wgt id='1637'> +2.8970450E+03 </wgt>
<wgt id='1638'> +2.9008603E+03 </wgt>
<wgt id='1639'> +2.8524325E+03 </wgt>
<wgt id='1640'> +2.8708836E+03 </wgt>
<wgt id='1641'> +2.8593337E+03 </wgt>
<wgt id='1642'> +2.8777444E+03 </wgt>
<wgt id='1643'> +2.8828426E+03 </wgt>
<wgt id='1644'> +2.8661433E+03 </wgt>
<wgt id='1645'> +2.8717029E+03 </wgt>
<wgt id='1646'> +2.8733661E+03 </wgt>
<wgt id='1647'> +2.8818115E+03 </wgt>
<wgt id='1648'> +2.8641210E+03 </wgt>
<wgt id='1649'> +2.8762391E+03 </wgt>
<wgt id='1650'> +2.8856263E+03 </wgt>
<wgt id='1651'> +2.8719756E+03 </wgt>
<wgt id='1652'> +2.8688210E+03 </wgt>
<wgt id='1653'> +2.8743611E+03 </wgt>
<wgt id='1654'> +2.8733209E+03 </wgt>
<wgt id='1655'> +2.8561595E+03 </wgt>
<wgt id='1656'> +2.8709306E+03 </wgt>
<wgt id='1657'> +2.8662036E+03 </wgt>
<wgt id='1658'> +2.8646039E+03 </wgt>
<wgt id='1659'> +2.8723225E+03 </wgt>
<wgt id='1660'> +2.8736420E+03 </wgt>
<wgt id='1661'> +2.8756328E+03 </wgt>
<wgt id='1662'> +2.8647411E+03 </wgt>
<wgt id='1663'> +2.8791995E+03 </wgt>
<wgt id='1664'> +2.8676796E+03 </wgt>
<wgt id='1665'> +2.8645093E+03 </wgt>
<wgt id='1666'> +2.8657839E+03 </wgt>
<wgt id='1667'> +2.8768503E+03 </wgt>
<wgt id='1668'> +2.8750518E+03 </wgt>
<wgt id='1669'> +2.8693905E+03 </wgt>
<wgt id='1670'> +2.8723590E+03 </wgt>
<wgt id='1671'> +2.8711498E+03 </wgt>
<wgt id='1672'> +2.8754884E+03 </wgt>
<wgt id='1673'> +2.8715220E+03 </wgt>
<wgt id='1674'> +2.8692119E+03 </wgt>
<wgt id='1675'> +2.8735344E+03 </wgt>
<wgt id='1676'> +2.8722764E+03 </wgt>
<wgt id='1677'> +2.8675201E+03 </wgt>
<wgt id='1678'> +2.8705824E+03 </wgt>
<wgt id='1679'> +2.8716374E+03 </wgt>
<wgt id='1680'> +2.8694717E+03 </wgt>
<wgt id='1681'> +2.8737647E+03 </wgt>
<wgt id='1682'> +2.8717631E+03 </wgt>
<wgt id='1683'> +2.8745159E+03 </wgt>
<wgt id='1684'> +2.8717733E+03 </wgt>
<wgt id='1685'> +2.8702416E+03 </wgt>
<wgt id='1686'> +2.8742510E+03 </wgt>
<wgt id='1687'> +2.8719435E+03 </wgt>
<wgt id='1688'> +2.8723062E+03 </wgt>
<wgt id='1689'> +2.8722557E+03 </wgt>
<wgt id='1690'> +2.8715387E+03 </wgt>
<wgt id='1691'> +2.8728621E+03 </wgt>
<wgt id='1692'> +2.8726391E+03 </wgt>
<wgt id='1693'> +2.8738742E+03 </wgt>
<wgt id='1694'> +2.8720923E+03 </wgt>
<wgt id='1695'> +2.8730866E+03 </wgt>
<wgt id='1696'> +2.8717308E+03 </wgt>
<wgt id='1697'> +2.8724735E+03 </wgt>
<wgt id='1698'> +2.8703287E+03 </wgt>
<wgt id='1699'> +2.8699164E+03 </wgt>
<wgt id='1700'> +2.8726245E+03 </wgt>
<wgt id='1701'> +2.8734190E+03 </wgt>
<wgt id='1702'> +2.8704546E+03 </wgt>
<wgt id='1703'> +2.8705921E+03 </wgt>
<wgt id='1704'> +2.8714936E+03 </wgt>
<wgt id='1705'> +2.8729114E+03 </wgt>
<wgt id='1706'> +2.8717322E+03 </wgt>
<wgt id='1707'> +2.8726529E+03 </wgt>
<wgt id='1708'> +2.8717734E+03 </wgt>
<wgt id='1709'> +2.8716732E+03 </wgt>
<wgt id='1710'> +2.8724573E+03 </wgt>
<wgt id='1711'> +2.8725157E+03 </wgt>
<wgt id='1712'> +2.8725408E+03 </wgt>
<wgt id='1713'> +2.8719271E+03 </wgt>
<wgt id='1714'> +2.8725865E+03 </wgt>
<wgt id='1715'> +2.8724384E+03 </wgt>
<wgt id='1716'> +2.8291352E+03 </wgt>
<wgt id='1717'> +2.8860700E+03 </wgt>
<wgt id='1718'> +2.8399734E+03 </wgt>
<wgt id='1719'> +2.8032928E+03 </wgt>
<wgt id='1720'> +2.9628603E+03 </wgt>
<wgt id='1721'> +2.8388249E+03 </wgt>
<wgt id='1722'> +2.8446426E+03 </wgt>
<wgt id='1723'> +2.8835225E+03 </wgt>
<wgt id='1724'> +2.8454853E+03 </wgt>
<wgt id='1725'> +2.8347731E+03 </wgt>
<wgt id='1726'> +2.8487701E+03 </wgt>
<wgt id='1727'> +2.8035420E+03 </wgt>
<wgt id='1728'> +2.8411678E+03 </wgt>
<wgt id='1729'> +2.9426280E+03 </wgt>
<wgt id='1730'> +2.8414227E+03 </wgt>
<wgt id='1731'> +2.8318467E+03 </wgt>
<wgt id='1732'> +2.8793003E+03 </wgt>
<wgt id='1733'> +2.8556196E+03 </wgt>
<wgt id='1734'> +2.8506364E+03 </wgt>
<wgt id='1735'> +2.8026239E+03 </wgt>
<wgt id='1736'> +2.8387172E+03 </wgt>
<wgt id='1737'> +2.8509245E+03 </wgt>
<wgt id='1738'> +2.8334749E+03 </wgt>
<wgt id='1739'> +2.8491886E+03 </wgt>
<wgt id='1740'> +2.8284229E+03 </wgt>
<wgt id='1741'> +2.8331345E+03 </wgt>
<wgt id='1742'> +2.8325481E+03 </wgt>
<wgt id='1743'> +2.8448764E+03 </wgt>
<wgt id='1744'> +2.8075130E+03 </wgt>
<wgt id='1745'> +2.8416621E+03 </wgt>
<wgt id='1746'> +2.8248335E+03 </wgt>
<wgt id='1747'> +2.8704058E+03 </wgt>
<wgt id='1748'> +2.8364287E+03 </wgt>
<wgt id='1749'> +2.7946089E+03 </wgt>
<wgt id='1750'> +2.8900393E+03 </wgt>
<wgt id='1751'> +2.8723487E+03 </wgt>
<wgt id='1752'> +2.9569449E+03 </wgt>
<wgt id='1753'> +2.8004599E+03 </wgt>
<wgt id='1754'> +2.8719069E+03 </wgt>
<wgt id='1755'> +2.9581397E+03 </wgt>
<wgt id='1756'> +2.8274543E+03 </wgt>
<wgt id='1757'> +2.8741856E+03 </wgt>
<wgt id='1758'> +2.8743842E+03 </wgt>
<wgt id='1759'> +2.8765159E+03 </wgt>
<wgt id='1760'> +2.9250735E+03 </wgt>
<wgt id='1761'> +2.9106644E+03 </wgt>
<wgt id='1762'> +2.8030148E+03 </wgt>
<wgt id='1763'> +2.8620491E+03 </wgt>
<wgt id='1764'> +2.8731658E+03 </wgt>
<wgt id='1765'> +2.8835389E+03 </wgt>
<wgt id='1766'> +2.8728510E+03 </wgt>
<wgt id='1767'> +2.8696122E+03 </wgt>
<wgt id='1768'> +2.8910771E+03 </wgt>
<wgt id='1769'> +2.8771844E+03 </wgt>
<wgt id='1770'> +2.8874287E+03 </wgt>
<wgt id='1771'> +2.8644643E+03 </wgt>
<wgt id='1772'> +2.8728476E+03 </wgt>
<wgt id='1773'> +2.8717413E+03 </wgt>
<wgt id='1774'> +2.8678909E+03 </wgt>
<wgt id='1775'> +2.8600836E+03 </wgt>
<wgt id='1776'> +2.8844265E+03 </wgt>
<wgt id='1777'> +2.8829461E+03 </wgt>
<wgt id='1778'> +2.8476822E+03 </wgt>
<wgt id='1779'> +2.8555355E+03 </wgt>
<wgt id='1780'> +2.8946638E+03 </wgt>
<wgt id='1781'> +2.8309890E+03 </wgt>
<wgt id='1782'> +2.8291352E+03 </wgt>
<wgt id='1783'> +2.8860700E+03 </wgt>
<wgt id='1784'> +3.0952174E+03 </wgt>
<wgt id='1785'> +3.0945618E+03 </wgt>
<wgt id='1786'> +3.0958702E+03 </wgt>
<wgt id='1787'> +3.1020463E+03 </wgt>
<wgt id='1788'> +3.0883932E+03 </wgt>
<wgt id='1789'> +3.1006752E+03 </wgt>
<wgt id='1790'> +3.0897652E+03 </wgt>
<wgt id='1791'> +3.0958364E+03 </wgt>
<wgt id='1792'> +3.0945903E+03 </wgt>
<wgt id='1793'> +3.1058834E+03 </wgt>
<wgt id='1794'> +3.0846621E+03 </wgt>
<wgt id='1795'> +3.0986610E+03 </wgt>
<wgt id='1796'> +3.0913674E+03 </wgt>
<wgt id='1797'> +3.0853642E+03 </wgt>
<wgt id='1798'> +3.1051221E+03 </wgt>
<wgt id='1799'> +3.0925890E+03 </wgt>
<wgt id='1800'> +3.0953753E+03 </wgt>
<wgt id='1801'> +3.0955600E+03 </wgt>
<wgt id='1802'> +3.0906621E+03 </wgt>
<wgt id='1803'> +3.0835719E+03 </wgt>
<wgt id='1804'> +3.1076630E+03 </wgt>
<wgt id='1805'> +3.1014985E+03 </wgt>
<wgt id='1806'> +3.0840721E+03 </wgt>
<wgt id='1807'> +3.0878761E+03 </wgt>
<wgt id='1808'> +3.0842162E+03 </wgt>
<wgt id='1809'> +3.1093205E+03 </wgt>
<wgt id='1810'> +3.0863495E+03 </wgt>
<wgt id='1811'> +3.0878628E+03 </wgt>
<wgt id='1812'> +3.1053929E+03 </wgt>
<wgt id='1813'> +3.0952174E+03 </wgt>
<wgt id='1814'> +2.8527301E+03 </wgt>
<wgt id='1815'> +3.3913641E+03 </wgt>
<wgt id='1816'> +2.7726645E+03 </wgt>
<wgt id='1817'> +3.2205339E+03 </wgt>
<wgt id='1818'> +3.1086443E+03 </wgt>
<wgt id='1819'> +3.0752358E+03 </wgt>
<wgt id='1820'> +3.0823720E+03 </wgt>
<wgt id='1821'> +3.1068002E+03 </wgt>
<wgt id='1822'> +3.1056718E+03 </wgt>
<wgt id='1823'> +3.0852308E+03 </wgt>
<wgt id='1824'> +3.1065844E+03 </wgt>
<wgt id='1825'> +3.0728905E+03 </wgt>
<wgt id='1826'> +3.0322653E+03 </wgt>
<wgt id='1827'> +3.0352650E+03 </wgt>
<wgt id='1828'> +3.0367877E+03 </wgt>
<wgt id='1829'> +3.0336613E+03 </wgt>
<wgt id='1830'> +3.0385559E+03 </wgt>
<wgt id='1831'> +3.0318855E+03 </wgt>
<wgt id='1832'> +3.0425152E+03 </wgt>
<wgt id='1833'> +3.0279460E+03 </wgt>
<wgt id='1834'> +3.0370584E+03 </wgt>
<wgt id='1835'> +3.0332664E+03 </wgt>
<wgt id='1836'> +3.0446663E+03 </wgt>
<wgt id='1837'> +3.0257533E+03 </wgt>
<wgt id='1838'> +3.0399626E+03 </wgt>
<wgt id='1839'> +3.0304821E+03 </wgt>
<wgt id='1840'> +3.0256681E+03 </wgt>
<wgt id='1841'> +3.0449140E+03 </wgt>
<wgt id='1842'> +3.0314825E+03 </wgt>
<wgt id='1843'> +3.0405744E+03 </wgt>
<wgt id='1844'> +3.0350307E+03 </wgt>
<wgt id='1845'> +3.0344730E+03 </wgt>
<wgt id='1846'> +3.0298402E+03 </wgt>
<wgt id='1847'> +3.0401785E+03 </wgt>
<wgt id='1848'> +3.0102848E+03 </wgt>
<wgt id='1849'> +3.0543593E+03 </wgt>
<wgt id='1850'> +3.0490742E+03 </wgt>
<wgt id='1851'> +3.0205978E+03 </wgt>
<wgt id='1852'> +3.0460265E+03 </wgt>
<wgt id='1853'> +3.0156027E+03 </wgt>
<wgt id='1854'> +3.0493774E+03 </wgt>
<wgt id='1855'> +3.0255722E+03 </wgt>
<wgt id='1856'> +3.0352650E+03 </wgt>
<wgt id='1857'> +2.7734448E+03 </wgt>
<wgt id='1858'> +3.3531974E+03 </wgt>
<wgt id='1859'> +2.6897003E+03 </wgt>
<wgt id='1860'> +3.1758207E+03 </wgt>
<wgt id='1861'> +3.0646946E+03 </wgt>
<wgt id='1862'> +3.0300293E+03 </wgt>
<wgt id='1863'> +3.0230402E+03 </wgt>
<wgt id='1864'> +3.0479584E+03 </wgt>
<wgt id='1865'> +3.0608822E+03 </wgt>
<wgt id='1866'> +3.0567617E+03 </wgt>
<wgt id='1867'> +3.0445866E+03 </wgt>
<wgt id='1868'> +3.0097936E+03 </wgt>
<wgt id='1869'> +2.9973465E+03 </wgt>
<wgt id='1870'> +2.8456826E+03 </wgt>
<wgt id='1871'> +2.8449982E+03 </wgt>
<wgt id='1872'> +2.8442897E+03 </wgt>
<wgt id='1873'> +2.8435900E+03 </wgt>
<wgt id='1874'> +2.8429024E+03 </wgt>
<wgt id='1875'> +2.8422032E+03 </wgt>
<wgt id='1876'> +2.8414980E+03 </wgt>
<wgt id='1877'> +2.8408147E+03 </wgt>
<wgt id='1878'> +2.8401158E+03 </wgt>
<wgt id='1879'> +2.8394125E+03 </wgt>
<wgt id='1880'> +2.8387294E+03 </wgt>
<wgt id='1881'> +2.8380249E+03 </wgt>
<wgt id='1882'> +2.8373220E+03 </wgt>
<wgt id='1883'> +2.8366395E+03 </wgt>
<wgt id='1884'> +2.8359369E+03 </wgt>
<wgt id='1885'> +2.8352312E+03 </wgt>
<wgt id='1886'> +2.8345497E+03 </wgt>
<wgt id='1887'> +2.8338495E+03 </wgt>
<wgt id='1888'> +2.8331505E+03 </wgt>
<wgt id='1889'> +2.8324598E+03 </wgt>
<wgt id='1890'> +2.8317612E+03 </wgt>
<wgt id='1891'> +2.8310625E+03 </wgt>
<wgt id='1892'> +2.8303771E+03 </wgt>
<wgt id='1893'> +2.8296733E+03 </wgt>
<wgt id='1894'> +2.8289714E+03 </wgt>
<wgt id='1895'> +2.8282903E+03 </wgt>
<wgt id='1896'> +2.8275905E+03 </wgt>
<wgt id='1897'> +2.8268841E+03 </wgt>
<wgt id='1898'> +2.8262048E+03 </wgt>
<wgt id='1899'> +2.8255027E+03 </wgt>
<wgt id='1900'> +2.8248034E+03 </wgt>
<wgt id='1901'> +2.8524380E+03 </wgt>
<wgt id='1902'> +2.8755442E+03 </wgt>
<wgt id='1903'> +2.8647508E+03 </wgt>
<wgt id='1904'> +2.8223231E+03 </wgt>
<wgt id='1905'> +2.7838920E+03 </wgt>
<wgt id='1906'> +2.7734767E+03 </wgt>
<wgt id='1907'> +2.8066925E+03 </wgt>
<wgt id='1908'> +2.8520980E+03 </wgt>
<wgt id='1909'> +2.8694149E+03 </wgt>
<wgt id='1910'> +2.8372936E+03 </wgt>
<wgt id='1911'> +2.9019581E+03 </wgt>
<wgt id='1912'> +2.7531802E+03 </wgt>
<wgt id='1913'> +2.7859583E+03 </wgt>
<wgt id='1914'> +2.8006886E+03 </wgt>
<wgt id='1915'> +2.8189790E+03 </wgt>
<wgt id='1916'> +2.8393747E+03 </wgt>
<wgt id='1917'> +2.8450852E+03 </wgt>
<wgt id='1918'> +2.9048576E+03 </wgt>
<wgt id='1919'> +2.7898622E+03 </wgt>
<wgt id='1920'> +2.8822465E+03 </wgt>
<wgt id='1921'> +2.8803931E+03 </wgt>
<wgt id='1922'> +2.8611858E+03 </wgt>
<wgt id='1923'> +2.8772577E+03 </wgt>
<wgt id='1924'> +2.8815736E+03 </wgt>
<wgt id='1925'> +2.8325857E+03 </wgt>
<wgt id='1926'> +2.8506819E+03 </wgt>
<wgt id='1927'> +2.8393464E+03 </wgt>
<wgt id='1928'> +2.8588826E+03 </wgt>
<wgt id='1929'> +2.8635828E+03 </wgt>
<wgt id='1930'> +2.8463852E+03 </wgt>
<wgt id='1931'> +2.8517858E+03 </wgt>
<wgt id='1932'> +2.8546362E+03 </wgt>
<wgt id='1933'> +2.8618577E+03 </wgt>
<wgt id='1934'> +2.8444269E+03 </wgt>
<wgt id='1935'> +2.8566210E+03 </wgt>
<wgt id='1936'> +2.8657171E+03 </wgt>
<wgt id='1937'> +2.8525818E+03 </wgt>
<wgt id='1938'> +2.8494362E+03 </wgt>
<wgt id='1939'> +2.8546931E+03 </wgt>
<wgt id='1940'> +2.8533967E+03 </wgt>
<wgt id='1941'> +2.8367365E+03 </wgt>
<wgt id='1942'> +2.8512556E+03 </wgt>
<wgt id='1943'> +2.8466219E+03 </wgt>
<wgt id='1944'> +2.8454050E+03 </wgt>
<wgt id='1945'> +2.8527717E+03 </wgt>
<wgt id='1946'> +2.8540857E+03 </wgt>
<wgt id='1947'> +2.8563201E+03 </wgt>
<wgt id='1948'> +2.8451223E+03 </wgt>
<wgt id='1949'> +2.8597918E+03 </wgt>
<wgt id='1950'> +2.8482759E+03 </wgt>
<wgt id='1951'> +2.8450496E+03 </wgt>
<wgt id='1952'> +2.8462267E+03 </wgt>
<wgt id='1953'> +2.8571643E+03 </wgt>
<wgt id='1954'> +2.8554961E+03 </wgt>
<wgt id='1955'> +2.8501633E+03 </wgt>
<wgt id='1956'> +2.8530140E+03 </wgt>
<wgt id='1957'> +2.8513352E+03 </wgt>
<wgt id='1958'> +2.8558507E+03 </wgt>
<wgt id='1959'> +2.8522434E+03 </wgt>
<wgt id='1960'> +2.8498811E+03 </wgt>
<wgt id='1961'> +2.8540088E+03 </wgt>
<wgt id='1962'> +2.8527675E+03 </wgt>
<wgt id='1963'> +2.8482436E+03 </wgt>
<wgt id='1964'> +2.8509687E+03 </wgt>
<wgt id='1965'> +2.8523606E+03 </wgt>
<wgt id='1966'> +2.8500194E+03 </wgt>
<wgt id='1967'> +2.8541127E+03 </wgt>
<wgt id='1968'> +2.8521661E+03 </wgt>
<wgt id='1969'> +2.8548525E+03 </wgt>
<wgt id='1970'> +2.8519653E+03 </wgt>
<wgt id='1971'> +2.8506163E+03 </wgt>
<wgt id='1972'> +2.8548484E+03 </wgt>
<wgt id='1973'> +2.8522962E+03 </wgt>
<wgt id='1974'> +2.8527783E+03 </wgt>
<wgt id='1975'> +2.8527276E+03 </wgt>
<wgt id='1976'> +2.8521403E+03 </wgt>
<wgt id='1977'> +2.8535665E+03 </wgt>
<wgt id='1978'> +2.8531917E+03 </wgt>
<wgt id='1979'> +2.8544233E+03 </wgt>
<wgt id='1980'> +2.8525541E+03 </wgt>
<wgt id='1981'> +2.8534740E+03 </wgt>
<wgt id='1982'> +2.8523468E+03 </wgt>
<wgt id='1983'> +2.8531009E+03 </wgt>
<wgt id='1984'> +2.8509293E+03 </wgt>
<wgt id='1985'> +2.8503379E+03 </wgt>
<wgt id='1986'> +2.8531487E+03 </wgt>
<wgt id='1987'> +2.8540350E+03 </wgt>
<wgt id='1988'> +2.8508917E+03 </wgt>
<wgt id='1989'> +2.8509953E+03 </wgt>
<wgt id='1990'> +2.8518952E+03 </wgt>
<wgt id='1991'> +2.8533007E+03 </wgt>
<wgt id='1992'> +2.8520660E+03 </wgt>
<wgt id='1993'> +2.8530029E+03 </wgt>
<wgt id='1994'> +2.8522633E+03 </wgt>
<wgt id='1995'> +2.8519788E+03 </wgt>
<wgt id='1996'> +2.8529957E+03 </wgt>
<wgt id='1997'> +2.8530192E+03 </wgt>
<wgt id='1998'> +2.8530480E+03 </wgt>
<wgt id='1999'> +2.8523738E+03 </wgt>
<wgt id='2000'> +2.8530886E+03 </wgt>
<wgt id='2001'> +2.8529199E+03 </wgt>
<wgt id='2002'> +2.8524224E+03 </wgt>
<wgt id='2003'> +2.8523415E+03 </wgt>
<wgt id='2004'> +2.8524526E+03 </wgt>
<wgt id='2005'> +2.8524560E+03 </wgt>
<wgt id='2006'> +2.8524823E+03 </wgt>
<wgt id='2007'> +2.8524444E+03 </wgt>
<wgt id='2008'> +2.8523754E+03 </wgt>
<wgt id='2009'> +2.7781857E+03 </wgt>
<wgt id='2010'> +2.4006271E+03 </wgt>
<wgt id='2011'> +2.6165960E+03 </wgt>
<wgt id='2012'> +2.4838067E+03 </wgt>
<wgt id='2013'> +2.6024396E+03 </wgt>
<wgt id='2014'> +2.3579556E+03 </wgt>
<wgt id='2015'> +2.8902920E+03 </wgt>
<wgt id='2016'> +2.7261976E+03 </wgt>
<wgt id='2017'> +2.7562055E+03 </wgt>
<wgt id='2018'> +2.8312828E+03 </wgt>
<wgt id='2019'> +3.3399118E+03 </wgt>
<wgt id='2020'> +2.9460040E+03 </wgt>
<wgt id='2021'> +2.7488778E+03 </wgt>
<wgt id='2022'> +2.6209874E+03 </wgt>
<wgt id='2023'> +2.8280449E+03 </wgt>
<wgt id='2024'> +2.9162956E+03 </wgt>
<wgt id='2025'> +2.8362741E+03 </wgt>
<wgt id='2026'> +2.9217637E+03 </wgt>
<wgt id='2027'> +2.8465049E+03 </wgt>
<wgt id='2028'> +2.7114555E+03 </wgt>
<wgt id='2029'> +2.4969969E+03 </wgt>
<wgt id='2030'> +2.5582733E+03 </wgt>
<wgt id='2031'> +2.8101402E+03 </wgt>
<wgt id='2032'> +2.9193029E+03 </wgt>
<wgt id='2033'> +2.4949146E+03 </wgt>
<wgt id='2034'> +2.6284241E+03 </wgt>
<wgt id='2035'> +3.0636997E+03 </wgt>
<wgt id='2036'> +2.5878244E+03 </wgt>
<wgt id='2037'> +2.7439634E+03 </wgt>
<wgt id='2038'> +2.5652457E+03 </wgt>
<wgt id='2039'> +2.6533275E+03 </wgt>
<wgt id='2040'> +2.5415917E+03 </wgt>
<wgt id='2041'> +3.3614199E+03 </wgt>
<wgt id='2042'> +2.9023114E+03 </wgt>
<wgt id='2043'> +2.9552850E+03 </wgt>
<wgt id='2044'> +2.6589902E+03 </wgt>
<wgt id='2045'> +2.6072742E+03 </wgt>
<wgt id='2046'> +2.7284883E+03 </wgt>
<wgt id='2047'> +2.9581849E+03 </wgt>
<wgt id='2048'> +2.6475377E+03 </wgt>
<wgt id='2049'> +2.6903356E+03 </wgt>
<wgt id='2050'> +2.6244843E+03 </wgt>
<wgt id='2051'> +2.7637196E+03 </wgt>
<wgt id='2052'> +2.8131460E+03 </wgt>
<wgt id='2053'> +2.9288316E+03 </wgt>
<wgt id='2054'> +2.9343865E+03 </wgt>
<wgt id='2055'> +2.7080374E+03 </wgt>
<wgt id='2056'> +2.9725155E+03 </wgt>
<wgt id='2057'> +2.7783108E+03 </wgt>
<wgt id='2058'> +2.6685734E+03 </wgt>
<wgt id='2059'> +2.5859063E+03 </wgt>
<wgt id='2060'> +2.7485338E+03 </wgt>
<wgt id='2061'> +2.7985963E+03 </wgt>
<wgt id='2062'> +3.4332339E+03 </wgt>
<wgt id='2063'> +2.8178959E+03 </wgt>
<wgt id='2064'> +2.8008751E+03 </wgt>
<wgt id='2065'> +2.7549269E+03 </wgt>
<wgt id='2066'> +2.5725588E+03 </wgt>
<wgt id='2067'> +2.6259025E+03 </wgt>
<wgt id='2068'> +2.6860451E+03 </wgt>
<wgt id='2069'> +2.7352635E+03 </wgt>
<wgt id='2070'> +2.8049872E+03 </wgt>
<wgt id='2071'> +2.6294264E+03 </wgt>
<wgt id='2072'> +2.7708708E+03 </wgt>
<wgt id='2073'> +2.9697357E+03 </wgt>
<wgt id='2074'> +2.7263364E+03 </wgt>
<wgt id='2075'> +2.7681218E+03 </wgt>
<wgt id='2076'> +3.5173463E+03 </wgt>
<wgt id='2077'> +2.7461916E+03 </wgt>
<wgt id='2078'> +2.9280795E+03 </wgt>
<wgt id='2079'> +2.7678266E+03 </wgt>
<wgt id='2080'> +2.9963187E+03 </wgt>
<wgt id='2081'> +3.2503460E+03 </wgt>
<wgt id='2082'> +3.0568473E+03 </wgt>
<wgt id='2083'> +2.7947204E+03 </wgt>
<wgt id='2084'> +2.5769220E+03 </wgt>
<wgt id='2085'> +3.0786006E+03 </wgt>
<wgt id='2086'> +2.8860222E+03 </wgt>
<wgt id='2087'> +2.8574452E+03 </wgt>
<wgt id='2088'> +2.8951893E+03 </wgt>
<wgt id='2089'> +2.7094752E+03 </wgt>
<wgt id='2090'> +2.7933382E+03 </wgt>
<wgt id='2091'> +2.5922846E+03 </wgt>
<wgt id='2092'> +2.7720485E+03 </wgt>
<wgt id='2093'> +2.6612307E+03 </wgt>
<wgt id='2094'> +2.6278279E+03 </wgt>
<wgt id='2095'> +2.7522517E+03 </wgt>
<wgt id='2096'> +2.7888765E+03 </wgt>
<wgt id='2097'> +2.6223715E+03 </wgt>
<wgt id='2098'> +2.7636164E+03 </wgt>
<wgt id='2099'> +2.6585876E+03 </wgt>
<wgt id='2100'> +2.5550190E+03 </wgt>
<wgt id='2101'> +2.8373559E+03 </wgt>
<wgt id='2102'> +2.7408196E+03 </wgt>
<wgt id='2103'> +2.7944719E+03 </wgt>
<wgt id='2104'> +2.6432563E+03 </wgt>
<wgt id='2105'> +3.0206672E+03 </wgt>
<wgt id='2106'> +2.7803842E+03 </wgt>
<wgt id='2107'> +2.8149494E+03 </wgt>
<wgt id='2108'> +2.6016687E+03 </wgt>
<wgt id='2109'> +2.5479665E+03 </wgt>
<wgt id='2110'> +2.7074717E+03 </wgt>
<wgt id='2111'> +2.7842327E+03 </wgt>
<wgt id='2112'> +2.8386437E+03 </wgt>
<wgt id='2113'> +9.7424716E+02 </wgt>
<wgt id='2114'> +1.4521404E+03 </wgt>
<wgt id='2115'> +1.9959696E+03 </wgt>
<wgt id='2116'> +2.2908788E+03 </wgt>
</rwgt>
</event>
<event>
 8      8 +2.9771057E+03 8.55086600e+01 7.54677100e-03 1.19160600e-01
       21 -1    0    0  501  503 +0.0000000000e+00 +0.0000000000e+00 +3.0763230686e+02 3.0763230686e+02 0.0000000000e+00 0.0000e+00 -1.0000e+00
        1 -1    0    0  502    0 -0.0000000000e+00 -0.0000000000e+00 -1.7165210293e+03 1.7165210293e+03 0.0000000000e+00 0.0000e+00 -1.0000e+00
      -24  2    1    2    0    0 +1.2301112890e+01 +4.3987390884e+01 -1.4298144068e+03 1.4328895497e+03 8.1957401782e+01 0.0000e+00 0.0000e+00
       15  1    3    3    0    0 +7.9098859110e-01 +3.7358890606e+01 -1.3968357934e+03 1.3973366466e+03 1.7770000000e+00 0.0000e+00 -1.0000e+00
      -16  1    3    3    0    0 +1.1510124298e+01 +6.6285002783e+00 -3.2978613417e+01 3.5552903119e+01 0.0000000000e+00 0.0000e+00 1.0000e+00
        2  1    1    2  501    0 -2.8837205952e+01 +4.7515641233e+01 -2.0222892339e+02 2.0972805740e+02 0.0000000000e+00 0.0000e+00 -1.0000e+00
        5  1    1    2  502    0 -5.5673173404e+00 -9.8535068000e+01 -4.7752231521e+01 1.0963772281e+02 0.0000000000e+00 0.0000e+00 1.0000e+00
       -5  1    1    2    0  503 +2.2103410403e+01 +7.0320358832e+00 +2.7090683924e+02 2.7189800630e+02 0.0000000000e+00 0.0000e+00 -1.0000e+00
<scales pt_clust_4="13000.00000" pt_clust_5="13000.00000" pt_clust_6="24.38680" pt_clust_7="93.48170" pt_clust_8="23.19505"></scales>
<mgrwt>
<rscale>  0 0.85508663E+02</rscale>
<asrwt>  3 0.23195049E+02 0.93481703E+02 0.24386795E+02</asrwt>
<pdfrwt beam="1">  1       21 0.47328047E-01 0.85508663E+02</pdfrwt>
<pdfrwt beam="2">  1        1 0.26408016E+00 0.85508663E+02</pdfrwt>
<totfact> 0.78695653E-01</totfact>
</mgrwt>
<clustering>
<clus scale="   23.195">  1  8  2 -1</clus>
<clus scale="   81.957">  4  5 -1 -1</clus>
<clus scale="   93.482">  1  7  2 -1</clus>
<clus scale="   24.387">  1  6  2 -1</clus>
<clus scale="   85.509">  1  4  2 -1</clus>
</clustering>
<rwgt>
<wgt id='1001'> +2.9771057E+03 </wgt>
<wgt id='1002'> +2.5324494E+03 </wgt>
<wgt id='1003'> +2.5323753E+03 </wgt>
<wgt id='1004'> +2.8350022E+03 </wgt>
<wgt id='1005'> +1.9299643E+03 </wgt>
<wgt id='1006'> +2.9771057E+03 </wgt>
<wgt id='1007'> +2.5324494E+03 </wgt>
<wgt id='1008'> +2.5323753E+03 </wgt>
<wgt id='1009'> +2.8350022E+03 </wgt>
<wgt id='1010'> +1.9299643E+03 </wgt>
<wgt id='1011'> +2.9771057E+03 </wgt>
<wgt id='1012'> +2.5324494E+03 </wgt>
<wgt id='1013'> +2.5323753E+03 </wgt>
<wgt id='1014'> +2.8350022E+03 </wgt>
<wgt id='1015'> +1.9299643E+03 </wgt>
<wgt id='1016'> +2.6520903E+03 </wgt>
<wgt id='1017'> +2.2767404E+03 </wgt>
<wgt id='1018'> +2.2766775E+03 </wgt>
<wgt id='1019'> +2.5323753E+03 </wgt>
<wgt id='1020'> +1.7602312E+03 </wgt>
<wgt id='1021'> +2.6520903E+03 </wgt>
<wgt id='1022'> +2.2767404E+03 </wgt>
<wgt id='1023'> +2.2766775E+03 </wgt>
<wgt id='1024'> +2.5323753E+03 </wgt>
<wgt id='1025'> +1.7602312E+03 </wgt>
<wgt id='1026'> +2.6520903E+03 </wgt>
<wgt id='1027'> +2.2767404E+03 </wgt>
<wgt id='1028'> +2.2766775E+03 </wgt>
<wgt id='1029'> +2.5323753E+03 </wgt>
<wgt id='1030'> +1.7602312E+03 </wgt>
<wgt id='1031'> +3.3652988E+03 </wgt>
<wgt id='1032'> +2.8350901E+03 </wgt>
<wgt id='1033'> +2.8350022E+03 </wgt>
<wgt id='1034'> +3.1953909E+03 </wgt>
<wgt id='1035'> +2.1265005E+03 </wgt>
<wgt id='1036'> +3.3652988E+03 </wgt>
<wgt id='1037'> +2.8350901E+03 </wgt>
<wgt id='1038'> +2.8350022E+03 </wgt>
<wgt id='1039'> +3.1953909E+03 </wgt>
<wgt id='1040'> +2.1265005E+03 </wgt>
<wgt id='1041'> +3.3652988E+03 </wgt>
<wgt id='1042'> +2.8350901E+03 </wgt>
<wgt id='1043'> +2.8350022E+03 </wgt>
<wgt id='1044'> +3.1953909E+03 </wgt>
<wgt id='1045'> +2.1265005E+03 </wgt>
<wgt id='1046'> +2.9771057E+03 </wgt>
<wgt id='1047'> +2.9688622E+03 </wgt>
<wgt id='1048'> +2.9879315E+03 </wgt>
<wgt id='1049'> +2.9859640E+03 </wgt>
<wgt id='1050'> +2.9703330E+03 </wgt>
<wgt id='1051'> +2.9728634E+03 </wgt>
<wgt id='1052'> +2.9837763E+03 </wgt>
<wgt id='1053'> +2.9678259E+03 </wgt>
<wgt id='1054'> +2.9743153E+03 </wgt>
<wgt id='1055'> +2.9685691E+03 </wgt>
<wgt id='1056'> +2.9852558E+03 </wgt>
<wgt id='1057'> +2.9663685E+03 </wgt>
<wgt id='1058'> +2.9696555E+03 </wgt>
<wgt id='1059'> +2.9743429E+03 </wgt>
<wgt id='1060'> +2.9825800E+03 </wgt>
<wgt id='1061'> +2.9816263E+03 </wgt>
<wgt id='1062'> +2.9830173E+03 </wgt>
<wgt id='1063'> +2.9800860E+03 </wgt>
<wgt id='1064'> +2.9787851E+03 </wgt>
<wgt id='1065'> +2.9677595E+03 </wgt>
<wgt id='1066'> +2.9766252E+03 </wgt>
<wgt id='1067'> +2.9691817E+03 </wgt>
<wgt id='1068'> +2.9877860E+03 </wgt>
<wgt id='1069'> +2.9684636E+03 </wgt>
<wgt id='1070'> +2.9921744E+03 </wgt>
<wgt id='1071'> +2.9829102E+03 </wgt>
<wgt id='1072'> +2.9857661E+03 </wgt>
<wgt id='1073'> +2.9962120E+03 </wgt>
<wgt id='1074'> +2.9804966E+03 </wgt>
<wgt id='1075'> +2.9425204E+03 </wgt>
<wgt id='1076'> +2.9637895E+03 </wgt>
<wgt id='1077'> +2.9741963E+03 </wgt>
<wgt id='1078'> +2.9553295E+03 </wgt>
<wgt id='1079'> +2.9835012E+03 </wgt>
<wgt id='1080'> +2.9802157E+03 </wgt>
<wgt id='1081'> +2.9800376E+03 </wgt>
<wgt id='1082'> +2.9804361E+03 </wgt>
<wgt id='1083'> +2.9865903E+03 </wgt>
<wgt id='1084'> +2.9634491E+03 </wgt>
<wgt id='1085'> +2.9705263E+03 </wgt>
<wgt id='1086'> +2.9792138E+03 </wgt>
<wgt id='1087'> +2.9696000E+03 </wgt>
<wgt id='1088'> +2.9745195E+03 </wgt>
<wgt id='1089'> +2.9819086E+03 </wgt>
<wgt id='1090'> +2.9784427E+03 </wgt>
<wgt id='1091'> +2.9815461E+03 </wgt>
<wgt id='1092'> +2.9737694E+03 </wgt>
<wgt id='1093'> +2.9701661E+03 </wgt>
<wgt id='1094'> +2.9813131E+03 </wgt>
<wgt id='1095'> +2.9716182E+03 </wgt>
<wgt id='1096'> +2.9932911E+03 </wgt>
<wgt id='1097'> +2.9949093E+03 </wgt>
<wgt id='1098'> +2.9728301E+03 </wgt>
<wgt id='1099'> +2.9865904E+03 </wgt>
<wgt id='1100'> +2.9830012E+03 </wgt>
<wgt id='1101'> +2.9972809E+03 </wgt>
<wgt id='1102'> +2.9869072E+03 </wgt>
<wgt id='1103'> +2.9729376E+03 </wgt>
<wgt id='1104'> +2.9706402E+03 </wgt>
<wgt id='1105'> +2.9758792E+03 </wgt>
<wgt id='1106'> +2.9685535E+03 </wgt>
<wgt id='1107'> +2.9673401E+03 </wgt>
<wgt id='1108'> +2.9775627E+03 </wgt>
<wgt id='1109'> +2.9722496E+03 </wgt>
<wgt id='1110'> +2.9859323E+03 </wgt>
<wgt id='1111'> +2.9811093E+03 </wgt>
<wgt id='1112'> +2.9660781E+03 </wgt>
<wgt id='1113'> +2.9687960E+03 </wgt>
<wgt id='1114'> +2.9625469E+03 </wgt>
<wgt id='1115'> +2.9872358E+03 </wgt>
<wgt id='1116'> +2.9703397E+03 </wgt>
<wgt id='1117'> +2.9823011E+03 </wgt>
<wgt id='1118'> +2.9750378E+03 </wgt>
<wgt id='1119'> +2.9822339E+03 </wgt>
<wgt id='1120'> +2.9749952E+03 </wgt>
<wgt id='1121'> +2.9778192E+03 </wgt>
<wgt id='1122'> +2.9716929E+03 </wgt>
<wgt id='1123'> +2.9735258E+03 </wgt>
<wgt id='1124'> +2.9730126E+03 </wgt>
<wgt id='1125'> +2.9641718E+03 </wgt>
<wgt id='1126'> +2.9805491E+03 </wgt>
<wgt id='1127'> +2.9799835E+03 </wgt>
<wgt id='1128'> +2.9824712E+03 </wgt>
<wgt id='1129'> +2.9681122E+03 </wgt>
<wgt id='1130'> +2.9781679E+03 </wgt>
<wgt id='1131'> +2.9722329E+03 </wgt>
<wgt id='1132'> +2.9714006E+03 </wgt>
<wgt id='1133'> +2.9801633E+03 </wgt>
<wgt id='1134'> +2.9767621E+03 </wgt>
<wgt id='1135'> +2.9793360E+03 </wgt>
<wgt id='1136'> +2.9788046E+03 </wgt>
<wgt id='1137'> +2.9756342E+03 </wgt>
<wgt id='1138'> +2.9728860E+03 </wgt>
<wgt id='1139'> +2.9710875E+03 </wgt>
<wgt id='1140'> +2.9760313E+03 </wgt>
<wgt id='1141'> +2.9769647E+03 </wgt>
<wgt id='1142'> +2.9772228E+03 </wgt>
<wgt id='1143'> +2.9793376E+03 </wgt>
<wgt id='1144'> +2.9739704E+03 </wgt>
<wgt id='1145'> +2.9757473E+03 </wgt>
<wgt id='1146'> +2.9750401E+03 </wgt>
<wgt id='1147'> +2.8071885E+03 </wgt>
<wgt id='1148'> +3.1362630E+03 </wgt>
<wgt id='1149'> +2.2302107E+03 </wgt>
<wgt id='1150'> +2.3554507E+03 </wgt>
<wgt id='1151'> +2.5175443E+03 </wgt>
<wgt id='1152'> +2.6723313E+03 </wgt>
<wgt id='1153'> +2.8928456E+03 </wgt>
<wgt id='1154'> +3.0594551E+03 </wgt>
<wgt id='1155'> +3.3016680E+03 </wgt>
<wgt id='1156'> +3.4564009E+03 </wgt>
<wgt id='1157'> +2.8998046E+03 </wgt>
<wgt id='1158'> +2.9099832E+03 </wgt>
<wgt id='1159'> +2.8857885E+03 </wgt>
<wgt id='1160'> +2.9101369E+03 </wgt>
<wgt id='1161'> +2.8864270E+03 </wgt>
<wgt id='1162'> +2.9063570E+03 </wgt>
<wgt id='1163'> +2.9101483E+03 </wgt>
<wgt id='1164'> +2.9114359E+03 </wgt>
<wgt id='1165'> +2.9040224E+03 </wgt>
<wgt id='1166'> +2.9080050E+03 </wgt>
<wgt id='1167'> +2.9114512E+03 </wgt>
<wgt id='1168'> +2.8937004E+03 </wgt>
<wgt id='1169'> +2.8888595E+03 </wgt>
<wgt id='1170'> +2.9070730E+03 </wgt>
<wgt id='1171'> +2.8994110E+03 </wgt>
<wgt id='1172'> +2.8927847E+03 </wgt>
<wgt id='1173'> +2.9114771E+03 </wgt>
<wgt id='1174'> +2.8922346E+03 </wgt>
<wgt id='1175'> +2.8952664E+03 </wgt>
<wgt id='1176'> +2.8897706E+03 </wgt>
<wgt id='1177'> +2.8906981E+03 </wgt>
<wgt id='1178'> +2.8991715E+03 </wgt>
<wgt id='1179'> +2.8998993E+03 </wgt>
<wgt id='1180'> +2.8952164E+03 </wgt>
<wgt id='1181'> +2.9006978E+03 </wgt>
<wgt id='1182'> +2.8978129E+03 </wgt>
<wgt id='1183'> +2.9034320E+03 </wgt>
<wgt id='1184'> +2.8921363E+03 </wgt>
<wgt id='1185'> +2.9014460E+03 </wgt>
<wgt id='1186'> +2.9046055E+03 </wgt>
<wgt id='1187'> +2.8634165E+03 </wgt>
<wgt id='1188'> +2.8921829E+03 </wgt>
<wgt id='1189'> +2.9111473E+03 </wgt>
<wgt id='1190'> +2.9112403E+03 </wgt>
<wgt id='1191'> +2.8940881E+03 </wgt>
<wgt id='1192'> +2.9128088E+03 </wgt>
<wgt id='1193'> +2.8954759E+03 </wgt>
<wgt id='1194'> +2.9011487E+03 </wgt>
<wgt id='1195'> +2.8890605E+03 </wgt>
<wgt id='1196'> +2.8962302E+03 </wgt>
<wgt id='1197'> +2.8877742E+03 </wgt>
<wgt id='1198'> +2.9090611E+03 </wgt>
<wgt id='1199'> +2.8966033E+03 </wgt>
<wgt id='1200'> +2.8967517E+03 </wgt>
<wgt id='1201'> +2.9044539E+03 </wgt>
<wgt id='1202'> +2.9104591E+03 </wgt>
<wgt id='1203'> +2.8992885E+03 </wgt>
<wgt id='1204'> +2.8964347E+03 </wgt>
<wgt id='1205'> +2.9130472E+03 </wgt>
<wgt id='1206'> +2.8960030E+03 </wgt>
<wgt id='1207'> +2.8978416E+03 </wgt>
<wgt id='1208'> +2.9140775E+03 </wgt>
<wgt id='1209'> +2.8967685E+03 </wgt>
<wgt id='1210'> +2.9224386E+03 </wgt>
<wgt id='1211'> +2.9118930E+03 </wgt>
<wgt id='1212'> +2.8991844E+03 </wgt>
<wgt id='1213'> +2.9181029E+03 </wgt>
<wgt id='1214'> +2.8925878E+03 </wgt>
<wgt id='1215'> +2.8965026E+03 </wgt>
<wgt id='1216'> +2.8856641E+03 </wgt>
<wgt id='1217'> +2.9007291E+03 </wgt>
<wgt id='1218'> +2.9001720E+03 </wgt>
<wgt id='1219'> +2.9156851E+03 </wgt>
<wgt id='1220'> +2.8936937E+03 </wgt>
<wgt id='1221'> +2.8968306E+03 </wgt>
<wgt id='1222'> +2.9032359E+03 </wgt>
<wgt id='1223'> +2.9107253E+03 </wgt>
<wgt id='1224'> +2.9069353E+03 </wgt>
<wgt id='1225'> +2.9033546E+03 </wgt>
<wgt id='1226'> +2.8993331E+03 </wgt>
<wgt id='1227'> +2.9101388E+03 </wgt>
<wgt id='1228'> +2.9044082E+03 </wgt>
<wgt id='1229'> +2.8996756E+03 </wgt>
<wgt id='1230'> +2.9051524E+03 </wgt>
<wgt id='1231'> +2.8996256E+03 </wgt>
<wgt id='1232'> +2.8889312E+03 </wgt>
<wgt id='1233'> +2.9009987E+03 </wgt>
<wgt id='1234'> +2.9033545E+03 </wgt>
<wgt id='1235'> +2.9042989E+03 </wgt>
<wgt id='1236'> +2.9032924E+03 </wgt>
<wgt id='1237'> +2.9013803E+03 </wgt>
<wgt id='1238'> +2.8984805E+03 </wgt>
<wgt id='1239'> +2.8902644E+03 </wgt>
<wgt id='1240'> +2.8925363E+03 </wgt>
<wgt id='1241'> +2.8998591E+03 </wgt>
<wgt id='1242'> +2.8897000E+03 </wgt>
<wgt id='1243'> +2.9037071E+03 </wgt>
<wgt id='1244'> +2.8969958E+03 </wgt>
<wgt id='1245'> +2.8955298E+03 </wgt>
<wgt id='1246'> +2.8975518E+03 </wgt>
<wgt id='1247'> +2.8986226E+03 </wgt>
<wgt id='1248'> +2.9074822E+03 </wgt>
<wgt id='1249'> +2.8920594E+03 </wgt>
<wgt id='1250'> +2.8991780E+03 </wgt>
<wgt id='1251'> +2.8994074E+03 </wgt>
<wgt id='1252'> +2.8977335E+03 </wgt>
<wgt id='1253'> +2.8952398E+03 </wgt>
<wgt id='1254'> +2.8946081E+03 </wgt>
<wgt id='1255'> +2.9037735E+03 </wgt>
<wgt id='1256'> +2.9029287E+03 </wgt>
<wgt id='1257'> +2.9036359E+03 </wgt>
<wgt id='1258'> +2.7469354E+03 </wgt>
<wgt id='1259'> +3.0755334E+03 </wgt>
<wgt id='1260'> +2.8229587E+03 </wgt>
<wgt id='1261'> +2.8487390E+03 </wgt>
<wgt id='1262'> +2.8666763E+03 </wgt>
<wgt id='1263'> +2.8330584E+03 </wgt>
<wgt id='1264'> +2.8247073E+03 </wgt>
<wgt id='1265'> +2.7615608E+03 </wgt>
<wgt id='1266'> +2.8007360E+03 </wgt>
<wgt id='1267'> +2.7853432E+03 </wgt>
<wgt id='1268'> +2.8887588E+03 </wgt>
<wgt id='1269'> +2.7558271E+03 </wgt>
<wgt id='1270'> +2.8533804E+03 </wgt>
<wgt id='1271'> +2.8387995E+03 </wgt>
<wgt id='1272'> +2.8060877E+03 </wgt>
<wgt id='1273'> +2.8406668E+03 </wgt>
<wgt id='1274'> +2.8425538E+03 </wgt>
<wgt id='1275'> +2.8306608E+03 </wgt>
<wgt id='1276'> +2.8137340E+03 </wgt>
<wgt id='1277'> +2.8078747E+03 </wgt>
<wgt id='1278'> +2.8381231E+03 </wgt>
<wgt id='1279'> +2.8575209E+03 </wgt>
<wgt id='1280'> +2.7939009E+03 </wgt>
<wgt id='1281'> +2.8462309E+03 </wgt>
<wgt id='1282'> +2.8098471E+03 </wgt>
<wgt id='1283'> +2.8386547E+03 </wgt>
<wgt id='1284'> +2.8050158E+03 </wgt>
<wgt id='1285'> +2.8324918E+03 </wgt>
<wgt id='1286'> +2.8151624E+03 </wgt>
<wgt id='1287'> +2.8297693E+03 </wgt>
<wgt id='1288'> +2.8113473E+03 </wgt>
<wgt id='1289'> +2.8010166E+03 </wgt>
<wgt id='1290'> +2.8369874E+03 </wgt>
<wgt id='1291'> +2.8169878E+03 </wgt>
<wgt id='1292'> +2.8329370E+03 </wgt>
<wgt id='1293'> +2.8549668E+03 </wgt>
<wgt id='1294'> +2.7930391E+03 </wgt>
<wgt id='1295'> +2.8413646E+03 </wgt>
<wgt id='1296'> +2.8059964E+03 </wgt>
<wgt id='1297'> +2.8075866E+03 </wgt>
<wgt id='1298'> +2.8382425E+03 </wgt>
<wgt id='1299'> +2.8417931E+03 </wgt>
<wgt id='1300'> +2.8057039E+03 </wgt>
<wgt id='1301'> +2.7880134E+03 </wgt>
<wgt id='1302'> +2.8440601E+03 </wgt>
<wgt id='1303'> +2.8564729E+03 </wgt>
<wgt id='1304'> +2.8006195E+03 </wgt>
<wgt id='1305'> +2.8134082E+03 </wgt>
<wgt id='1306'> +2.8043462E+03 </wgt>
<wgt id='1307'> +2.9296215E+03 </wgt>
<wgt id='1308'> +2.7466970E+03 </wgt>
<wgt id='1309'> +2.8242521E+03 </wgt>
<wgt id='1310'> +2.8213035E+03 </wgt>
<wgt id='1311'> +2.7776249E+03 </wgt>
<wgt id='1312'> +2.7514441E+03 </wgt>
<wgt id='1313'> +2.8303174E+03 </wgt>
<wgt id='1314'> +2.8422135E+03 </wgt>
<wgt id='1315'> +2.8231266E+03 </wgt>
<wgt id='1316'> +2.8392645E+03 </wgt>
<wgt id='1317'> +2.6864920E+03 </wgt>
<wgt id='1318'> +2.9600219E+03 </wgt>
<wgt id='1319'> +2.8401435E+03 </wgt>
<wgt id='1320'> +2.7586056E+03 </wgt>
<wgt id='1321'> +2.7886094E+03 </wgt>
<wgt id='1322'> +2.8304480E+03 </wgt>
<wgt id='1323'> +2.8193216E+03 </wgt>
<wgt id='1324'> +2.8428962E+03 </wgt>
<wgt id='1325'> +2.8388811E+03 </wgt>
<wgt id='1326'> +2.8737867E+03 </wgt>
<wgt id='1327'> +2.8091751E+03 </wgt>
<wgt id='1328'> +2.8809899E+03 </wgt>
<wgt id='1329'> +2.7999722E+03 </wgt>
<wgt id='1330'> +2.7878246E+03 </wgt>
<wgt id='1331'> +2.8640146E+03 </wgt>
<wgt id='1332'> +2.8052732E+03 </wgt>
<wgt id='1333'> +2.9127656E+03 </wgt>
<wgt id='1334'> +2.8523850E+03 </wgt>
<wgt id='1335'> +2.8226598E+03 </wgt>
<wgt id='1336'> +2.8394704E+03 </wgt>
<wgt id='1337'> +2.8382174E+03 </wgt>
<wgt id='1338'> +2.8864702E+03 </wgt>
<wgt id='1339'> +2.7946982E+03 </wgt>
<wgt id='1340'> +2.8659854E+03 </wgt>
<wgt id='1341'> +2.8063494E+03 </wgt>
<wgt id='1342'> +2.8056039E+03 </wgt>
<wgt id='1343'> +2.8667818E+03 </wgt>
<wgt id='1344'> +2.8683610E+03 </wgt>
<wgt id='1345'> +2.8119710E+03 </wgt>
<wgt id='1346'> +2.8353059E+03 </wgt>
<wgt id='1347'> +2.8453770E+03 </wgt>
<wgt id='1348'> +2.8442923E+03 </wgt>
<wgt id='1349'> +2.8385512E+03 </wgt>
<wgt id='1350'> +2.8468179E+03 </wgt>
<wgt id='1351'> +2.8315607E+03 </wgt>
<wgt id='1352'> +2.8206376E+03 </wgt>
<wgt id='1353'> +2.8826820E+03 </wgt>
<wgt id='1354'> +2.8304864E+03 </wgt>
<wgt id='1355'> +2.8449341E+03 </wgt>
<wgt id='1356'> +2.8227154E+03 </wgt>
<wgt id='1357'> +2.8660650E+03 </wgt>
<wgt id='1358'> +2.8285651E+03 </wgt>
<wgt id='1359'> +2.8506586E+03 </wgt>
<wgt id='1360'> +2.7649237E+03 </wgt>
<wgt id='1361'> +2.8875538E+03 </wgt>
<wgt id='1362'> +2.8857093E+03 </wgt>
<wgt id='1363'> +2.8316391E+03 </wgt>
<wgt id='1364'> +2.8344919E+03 </wgt>
<wgt id='1365'> +2.8570350E+03 </wgt>
<wgt id='1366'> +2.8702115E+03 </wgt>
<wgt id='1367'> +2.8302362E+03 </wgt>
<wgt id='1368'> +2.8167568E+03 </wgt>
<wgt id='1369'> +2.8532573E+03 </wgt>
<wgt id='1370'> +2.8691490E+03 </wgt>
<wgt id='1371'> +2.8479864E+03 </wgt>
<wgt id='1372'> +2.7855685E+03 </wgt>
<wgt id='1373'> +2.8605253E+03 </wgt>
<wgt id='1374'> +2.8425836E+03 </wgt>
<wgt id='1375'> +2.8571266E+03 </wgt>
<wgt id='1376'> +2.7008437E+03 </wgt>
<wgt id='1377'> +2.9807866E+03 </wgt>
<wgt id='1378'> +2.6172832E+03 </wgt>
<wgt id='1379'> +3.0575123E+03 </wgt>
<wgt id='1380'> +3.0583645E+03 </wgt>
<wgt id='1381'> +3.0565317E+03 </wgt>
<wgt id='1382'> +3.0600913E+03 </wgt>
<wgt id='1383'> +3.0557714E+03 </wgt>
<wgt id='1384'> +3.0683504E+03 </wgt>
<wgt id='1385'> +3.0474479E+03 </wgt>
<wgt id='1386'> +3.0500092E+03 </wgt>
<wgt id='1387'> +3.0659083E+03 </wgt>
<wgt id='1388'> +3.0660544E+03 </wgt>
<wgt id='1389'> +3.0492090E+03 </wgt>
<wgt id='1390'> +3.0493711E+03 </wgt>
<wgt id='1391'> +3.0751139E+03 </wgt>
<wgt id='1392'> +3.0766370E+03 </wgt>
<wgt id='1393'> +3.0233992E+03 </wgt>
<wgt id='1394'> +3.0994441E+03 </wgt>
<wgt id='1395'> +3.0338436E+03 </wgt>
<wgt id='1396'> +3.0674196E+03 </wgt>
<wgt id='1397'> +3.0460684E+03 </wgt>
<wgt id='1398'> +3.0404504E+03 </wgt>
<wgt id='1399'> +3.0722247E+03 </wgt>
<wgt id='1400'> +3.0485137E+03 </wgt>
<wgt id='1401'> +3.0684599E+03 </wgt>
<wgt id='1402'> +3.0653964E+03 </wgt>
<wgt id='1403'> +3.0517502E+03 </wgt>
<wgt id='1404'> +3.0592236E+03 </wgt>
<wgt id='1405'> +3.0561864E+03 </wgt>
<wgt id='1406'> +3.0212510E+03 </wgt>
<wgt id='1407'> +3.0490257E+03 </wgt>
<wgt id='1408'> +3.0670733E+03 </wgt>
<wgt id='1409'> +3.0446654E+03 </wgt>
<wgt id='1410'> +3.0730954E+03 </wgt>
<wgt id='1411'> +3.0404660E+03 </wgt>
<wgt id='1412'> +3.0481000E+03 </wgt>
<wgt id='1413'> +3.0676586E+03 </wgt>
<wgt id='1414'> +3.0592055E+03 </wgt>
<wgt id='1415'> +3.0539113E+03 </wgt>
<wgt id='1416'> +3.0575430E+03 </wgt>
<wgt id='1417'> +3.0570430E+03 </wgt>
<wgt id='1418'> +3.0461436E+03 </wgt>
<wgt id='1419'> +3.0681522E+03 </wgt>
<wgt id='1420'> +3.0246974E+03 </wgt>
<wgt id='1421'> +3.0933782E+03 </wgt>
<wgt id='1422'> +3.0603342E+03 </wgt>
<wgt id='1423'> +3.0587203E+03 </wgt>
<wgt id='1424'> +3.0401155E+03 </wgt>
<wgt id='1425'> +3.1006313E+03 </wgt>
<wgt id='1426'> +3.0719375E+03 </wgt>
<wgt id='1427'> +3.0198735E+03 </wgt>
<wgt id='1428'> +3.0786159E+03 </wgt>
<wgt id='1429'> +3.0279573E+03 </wgt>
<wgt id='1430'> +3.0365199E+03 </wgt>
<wgt id='1431'> +3.0356708E+03 </wgt>
<wgt id='1432'> +3.0376143E+03 </wgt>
<wgt id='1433'> +3.0420459E+03 </wgt>
<wgt id='1434'> +3.0309938E+03 </wgt>
<wgt id='1435'> +3.0430386E+03 </wgt>
<wgt id='1436'> +3.0339566E+03 </wgt>
<wgt id='1437'> +3.0389862E+03 </wgt>
<wgt id='1438'> +3.0341755E+03 </wgt>
<wgt id='1439'> +3.0490807E+03 </wgt>
<wgt id='1440'> +3.0246244E+03 </wgt>
<wgt id='1441'> +3.0590484E+03 </wgt>
<wgt id='1442'> +3.0267286E+03 </wgt>
<wgt id='1443'> +3.0286844E+03 </wgt>
<wgt id='1444'> +3.0460166E+03 </wgt>
<wgt id='1445'> +3.0793375E+03 </wgt>
<wgt id='1446'> +2.9904626E+03 </wgt>
<wgt id='1447'> +3.0193294E+03 </wgt>
<wgt id='1448'> +3.0462565E+03 </wgt>
<wgt id='1449'> +3.0465569E+03 </wgt>
<wgt id='1450'> +3.0228202E+03 </wgt>
<wgt id='1451'> +3.0281448E+03 </wgt>
<wgt id='1452'> +3.0422793E+03 </wgt>
<wgt id='1453'> +3.0289022E+03 </wgt>
<wgt id='1454'> +3.0437951E+03 </wgt>
<wgt id='1455'> +3.0323579E+03 </wgt>
<wgt id='1456'> +3.0469561E+03 </wgt>
<wgt id='1457'> +3.0120923E+03 </wgt>
<wgt id='1458'> +3.0121664E+03 </wgt>
<wgt id='1459'> +3.0250473E+03 </wgt>
<wgt id='1460'> +3.0683742E+03 </wgt>
<wgt id='1461'> +3.0472663E+03 </wgt>
<wgt id='1462'> +3.0091639E+03 </wgt>
<wgt id='1463'> +3.0352964E+03 </wgt>
<wgt id='1464'> +3.0369139E+03 </wgt>
<wgt id='1465'> +3.0361255E+03 </wgt>
<wgt id='1466'> +3.0344168E+03 </wgt>
<wgt id='1467'> +3.0372456E+03 </wgt>
<wgt id='1468'> +3.0254129E+03 </wgt>
<wgt id='1469'> +3.0234499E+03 </wgt>
<wgt id='1470'> +3.0440949E+03 </wgt>
<wgt id='1471'> +3.0562537E+03 </wgt>
<wgt id='1472'> +2.9944789E+03 </wgt>
<wgt id='1473'> +3.0249562E+03 </wgt>
<wgt id='1474'> +3.0462363E+03 </wgt>
<wgt id='1475'> +3.0027719E+03 </wgt>
<wgt id='1476'> +3.0606839E+03 </wgt>
<wgt id='1477'> +3.0793121E+03 </wgt>
<wgt id='1478'> +3.0180530E+03 </wgt>
<wgt id='1479'> +3.0179209E+03 </wgt>
<wgt id='1480'> +3.0483085E+03 </wgt>
<wgt id='1481'> +4.4848913E+03 </wgt>
<wgt id='1482'> +2.8133613E+03 </wgt>
<wgt id='1483'> +2.8128326E+03 </wgt>
<wgt id='1484'> +2.8138377E+03 </wgt>
<wgt id='1485'> +2.8131363E+03 </wgt>
<wgt id='1486'> +2.8132565E+03 </wgt>
<wgt id='1487'> +2.8107727E+03 </wgt>
<wgt id='1488'> +2.8144325E+03 </wgt>
<wgt id='1489'> +2.8183933E+03 </wgt>
<wgt id='1490'> +2.8205052E+03 </wgt>
<wgt id='1491'> +2.8002169E+03 </wgt>
<wgt id='1492'> +2.8185739E+03 </wgt>
<wgt id='1493'> +2.8198979E+03 </wgt>
<wgt id='1494'> +2.8213735E+03 </wgt>
<wgt id='1495'> +2.8076751E+03 </wgt>
<wgt id='1496'> +2.8175485E+03 </wgt>
<wgt id='1497'> +2.8205388E+03 </wgt>
<wgt id='1498'> +2.8085460E+03 </wgt>
<wgt id='1499'> +2.8077729E+03 </wgt>
<wgt id='1500'> +2.8119573E+03 </wgt>
<wgt id='1501'> +2.8177748E+03 </wgt>
<wgt id='1502'> +2.8161016E+03 </wgt>
<wgt id='1503'> +2.8112815E+03 </wgt>
<wgt id='1504'> +2.8108317E+03 </wgt>
<wgt id='1505'> +2.8242205E+03 </wgt>
<wgt id='1506'> +2.8180829E+03 </wgt>
<wgt id='1507'> +2.8156625E+03 </wgt>
<wgt id='1508'> +2.8246328E+03 </wgt>
<wgt id='1509'> +2.8251595E+03 </wgt>
<wgt id='1510'> +2.7716273E+03 </wgt>
<wgt id='1511'> +2.7885246E+03 </wgt>
<wgt id='1512'> +2.9476514E+03 </wgt>
<wgt id='1513'> +2.9557865E+03 </wgt>
<wgt id='1514'> +2.9677808E+03 </wgt>
<wgt id='1515'> +2.9552095E+03 </wgt>
<wgt id='1516'> +2.9478689E+03 </wgt>
<wgt id='1517'> +2.9243748E+03 </wgt>
<wgt id='1518'> +2.9601979E+03 </wgt>
<wgt id='1519'> +2.9199667E+03 </wgt>
<wgt id='1520'> +2.9512859E+03 </wgt>
<wgt id='1521'> +2.9652521E+03 </wgt>
<wgt id='1522'> +2.9821540E+03 </wgt>
<wgt id='1523'> +2.9580910E+03 </wgt>
<wgt id='1524'> +2.9457411E+03 </wgt>
<wgt id='1525'> +2.9101796E+03 </wgt>
<wgt id='1526'> +2.9400992E+03 </wgt>
<wgt id='1527'> +2.9525875E+03 </wgt>
<wgt id='1528'> +2.9504673E+03 </wgt>
<wgt id='1529'> +2.9460710E+03 </wgt>
<wgt id='1530'> +2.9441569E+03 </wgt>
<wgt id='1531'> +2.9445594E+03 </wgt>
<wgt id='1532'> +2.9779107E+03 </wgt>
<wgt id='1533'> +2.9321325E+03 </wgt>
<wgt id='1534'> +2.9374197E+03 </wgt>
<wgt id='1535'> +2.9885668E+03 </wgt>
<wgt id='1536'> +2.9244256E+03 </wgt>
<wgt id='1537'> +2.9084603E+03 </wgt>
<wgt id='1538'> +2.9290246E+03 </wgt>
<wgt id='1539'> +2.9668850E+03 </wgt>
<wgt id='1540'> +2.9351623E+03 </wgt>
<wgt id='1541'> +2.9288855E+03 </wgt>
<wgt id='1542'> +2.9535160E+03 </wgt>
<wgt id='1543'> +2.9344240E+03 </wgt>
<wgt id='1544'> +2.9593703E+03 </wgt>
<wgt id='1545'> +2.9427475E+03 </wgt>
<wgt id='1546'> +2.9264304E+03 </wgt>
<wgt id='1547'> +2.9749310E+03 </wgt>
<wgt id='1548'> +2.9444010E+03 </wgt>
<wgt id='1549'> +2.9378018E+03 </wgt>
<wgt id='1550'> +2.9354485E+03 </wgt>
<wgt id='1551'> +2.9405501E+03 </wgt>
<wgt id='1552'> +2.9366421E+03 </wgt>
<wgt id='1553'> +2.9622169E+03 </wgt>
<wgt id='1554'> +2.9317611E+03 </wgt>
<wgt id='1555'> +2.9419403E+03 </wgt>
<wgt id='1556'> +2.9674575E+03 </wgt>
<wgt id='1557'> +2.9297683E+03 </wgt>
<wgt id='1558'> +2.9631897E+03 </wgt>
<wgt id='1559'> +2.9409136E+03 </wgt>
<wgt id='1560'> +2.9551779E+03 </wgt>
<wgt id='1561'> +2.9476647E+03 </wgt>
<wgt id='1562'> +2.9366231E+03 </wgt>
<wgt id='1563'> +2.9548118E+03 </wgt>
<wgt id='1564'> +2.9454266E+03 </wgt>
<wgt id='1565'> +2.9335193E+03 </wgt>
<wgt id='1566'> +2.9545059E+03 </wgt>
<wgt id='1567'> +2.9444925E+03 </wgt>
<wgt id='1568'> +2.9447127E+03 </wgt>
<wgt id='1569'> +2.9456615E+03 </wgt>
<wgt id='1570'> +2.9519300E+03 </wgt>
<wgt id='1571'> +2.9471367E+03 </wgt>
<wgt id='1572'> +2.9416522E+03 </wgt>
<wgt id='1573'> +2.9495945E+03 </wgt>
<wgt id='1574'> +2.9492132E+03 </wgt>
<wgt id='1575'> +2.9446828E+03 </wgt>
<wgt id='1576'> +2.9468939E+03 </wgt>
<wgt id='1577'> +2.9531411E+03 </wgt>
<wgt id='1578'> +2.9482013E+03 </wgt>
<wgt id='1579'> +2.9514676E+03 </wgt>
<wgt id='1580'> +2.9447406E+03 </wgt>
<wgt id='1581'> +2.9472082E+03 </wgt>
<wgt id='1582'> +2.9475832E+03 </wgt>
<wgt id='1583'> +2.9441977E+03 </wgt>
<wgt id='1584'> +2.9441201E+03 </wgt>
<wgt id='1585'> +2.9429130E+03 </wgt>
<wgt id='1586'> +2.9413965E+03 </wgt>
<wgt id='1587'> +2.9508451E+03 </wgt>
<wgt id='1588'> +2.9469905E+03 </wgt>
<wgt id='1589'> +2.9435513E+03 </wgt>
<wgt id='1590'> +2.9482585E+03 </wgt>
<wgt id='1591'> +2.9480497E+03 </wgt>
<wgt id='1592'> +2.9480287E+03 </wgt>
<wgt id='1593'> +2.9474019E+03 </wgt>
<wgt id='1594'> +2.9458525E+03 </wgt>
<wgt id='1595'> +2.9504447E+03 </wgt>
<wgt id='1596'> +2.9492865E+03 </wgt>
<wgt id='1597'> +2.9477132E+03 </wgt>
<wgt id='1598'> +2.9488264E+03 </wgt>
<wgt id='1599'> +2.9473131E+03 </wgt>
<wgt id='1600'> +2.9490509E+03 </wgt>
<wgt id='1601'> +2.9471551E+03 </wgt>
<wgt id='1602'> +2.9479849E+03 </wgt>
<wgt id='1603'> +2.9444876E+03 </wgt>
<wgt id='1604'> +2.9459449E+03 </wgt>
<wgt id='1605'> +2.9466050E+03 </wgt>
<wgt id='1606'> +2.9474393E+03 </wgt>
<wgt id='1607'> +2.9464600E+03 </wgt>
<wgt id='1608'> +2.9462038E+03 </wgt>
<wgt id='1609'> +2.9488775E+03 </wgt>
<wgt id='1610'> +2.9478280E+03 </wgt>
<wgt id='1611'> +2.9471858E+03 </wgt>
<wgt id='1612'> +2.9470096E+03 </wgt>
<wgt id='1613'> +2.8416878E+03 </wgt>
<wgt id='1614'> +3.0427475E+03 </wgt>
<wgt id='1615'> +2.9122701E+03 </wgt>
<wgt id='1616'> +2.9395544E+03 </wgt>
<wgt id='1617'> +2.9241257E+03 </wgt>
<wgt id='1618'> +2.8910490E+03 </wgt>
<wgt id='1619'> +2.9193816E+03 </wgt>
<wgt id='1620'> +2.9215522E+03 </wgt>
<wgt id='1621'> +2.8921925E+03 </wgt>
<wgt id='1622'> +2.8882436E+03 </wgt>
<wgt id='1623'> +2.9070077E+03 </wgt>
<wgt id='1624'> +2.8986669E+03 </wgt>
<wgt id='1625'> +2.9037804E+03 </wgt>
<wgt id='1626'> +2.9056081E+03 </wgt>
<wgt id='1627'> +2.9178112E+03 </wgt>
<wgt id='1628'> +2.8849866E+03 </wgt>
<wgt id='1629'> +2.9204631E+03 </wgt>
<wgt id='1630'> +2.9604731E+03 </wgt>
<wgt id='1631'> +2.8999164E+03 </wgt>
<wgt id='1632'> +2.9142610E+03 </wgt>
<wgt id='1633'> +2.9153364E+03 </wgt>
<wgt id='1634'> +2.8881054E+03 </wgt>
<wgt id='1635'> +2.9111142E+03 </wgt>
<wgt id='1636'> +2.9368741E+03 </wgt>
<wgt id='1637'> +2.8918935E+03 </wgt>
<wgt id='1638'> +2.9114674E+03 </wgt>
<wgt id='1639'> +2.9462508E+03 </wgt>
<wgt id='1640'> +2.9286120E+03 </wgt>
<wgt id='1641'> +2.9223865E+03 </wgt>
<wgt id='1642'> +2.8970091E+03 </wgt>
<wgt id='1643'> +2.8943979E+03 </wgt>
<wgt id='1644'> +2.9072701E+03 </wgt>
<wgt id='1645'> +2.9252372E+03 </wgt>
<wgt id='1646'> +2.8735589E+03 </wgt>
<wgt id='1647'> +2.9364929E+03 </wgt>
<wgt id='1648'> +2.9081615E+03 </wgt>
<wgt id='1649'> +2.8977390E+03 </wgt>
<wgt id='1650'> +2.9237718E+03 </wgt>
<wgt id='1651'> +2.9105474E+03 </wgt>
<wgt id='1652'> +2.9243749E+03 </wgt>
<wgt id='1653'> +2.9265276E+03 </wgt>
<wgt id='1654'> +2.9402294E+03 </wgt>
<wgt id='1655'> +2.9332862E+03 </wgt>
<wgt id='1656'> +2.9043829E+03 </wgt>
<wgt id='1657'> +2.9176482E+03 </wgt>
<wgt id='1658'> +2.9084213E+03 </wgt>
<wgt id='1659'> +2.9068623E+03 </wgt>
<wgt id='1660'> +2.9114661E+03 </wgt>
<wgt id='1661'> +2.8999713E+03 </wgt>
<wgt id='1662'> +2.9335345E+03 </wgt>
<wgt id='1663'> +2.9285471E+03 </wgt>
<wgt id='1664'> +2.9044156E+03 </wgt>
<wgt id='1665'> +2.9010185E+03 </wgt>
<wgt id='1666'> +2.9107630E+03 </wgt>
<wgt id='1667'> +2.9166437E+03 </wgt>
<wgt id='1668'> +2.9208253E+03 </wgt>
<wgt id='1669'> +2.9076607E+03 </wgt>
<wgt id='1670'> +2.9062284E+03 </wgt>
<wgt id='1671'> +2.9139502E+03 </wgt>
<wgt id='1672'> +2.9105523E+03 </wgt>
<wgt id='1673'> +2.8985650E+03 </wgt>
<wgt id='1674'> +2.9175420E+03 </wgt>
<wgt id='1675'> +2.9168142E+03 </wgt>
<wgt id='1676'> +2.9104187E+03 </wgt>
<wgt id='1677'> +2.9192677E+03 </wgt>
<wgt id='1678'> +2.9071751E+03 </wgt>
<wgt id='1679'> +2.9116603E+03 </wgt>
<wgt id='1680'> +2.9078619E+03 </wgt>
<wgt id='1681'> +2.9076624E+03 </wgt>
<wgt id='1682'> +2.9158949E+03 </wgt>
<wgt id='1683'> +2.9128850E+03 </wgt>
<wgt id='1684'> +2.9159527E+03 </wgt>
<wgt id='1685'> +2.9092756E+03 </wgt>
<wgt id='1686'> +2.9184748E+03 </wgt>
<wgt id='1687'> +2.9093370E+03 </wgt>
<wgt id='1688'> +2.9093876E+03 </wgt>
<wgt id='1689'> +2.9116843E+03 </wgt>
<wgt id='1690'> +2.9132855E+03 </wgt>
<wgt id='1691'> +2.9128186E+03 </wgt>
<wgt id='1692'> +2.9150033E+03 </wgt>
<wgt id='1693'> +2.9134805E+03 </wgt>
<wgt id='1694'> +2.9124799E+03 </wgt>
<wgt id='1695'> +2.9144562E+03 </wgt>
<wgt id='1696'> +2.9133445E+03 </wgt>
<wgt id='1697'> +2.9121442E+03 </wgt>
<wgt id='1698'> +2.9122391E+03 </wgt>
<wgt id='1699'> +2.9092515E+03 </wgt>
<wgt id='1700'> +2.9120831E+03 </wgt>
<wgt id='1701'> +2.9126938E+03 </wgt>
<wgt id='1702'> +2.9096699E+03 </wgt>
<wgt id='1703'> +2.9112168E+03 </wgt>
<wgt id='1704'> +2.9095551E+03 </wgt>
<wgt id='1705'> +2.9125655E+03 </wgt>
<wgt id='1706'> +2.9123775E+03 </wgt>
<wgt id='1707'> +2.9112161E+03 </wgt>
<wgt id='1708'> +2.9123137E+03 </wgt>
<wgt id='1709'> +2.9121358E+03 </wgt>
<wgt id='1710'> +2.9118489E+03 </wgt>
<wgt id='1711'> +2.9107091E+03 </wgt>
<wgt id='1712'> +2.9123554E+03 </wgt>
<wgt id='1713'> +2.9114263E+03 </wgt>
<wgt id='1714'> +2.9120333E+03 </wgt>
<wgt id='1715'> +2.9124198E+03 </wgt>
<wgt id='1716'> +2.8099089E+03 </wgt>
<wgt id='1717'> +3.0036503E+03 </wgt>
<wgt id='1718'> +2.9487588E+03 </wgt>
<wgt id='1719'> +2.9909875E+03 </wgt>
<wgt id='1720'> +2.9549684E+03 </wgt>
<wgt id='1721'> +2.9484679E+03 </wgt>
<wgt id='1722'> +2.9426116E+03 </wgt>
<wgt id='1723'> +2.9764353E+03 </wgt>
<wgt id='1724'> +3.0379704E+03 </wgt>
<wgt id='1725'> +2.9432185E+03 </wgt>
<wgt id='1726'> +2.9500644E+03 </wgt>
<wgt id='1727'> +2.9372189E+03 </wgt>
<wgt id='1728'> +2.9515023E+03 </wgt>
<wgt id='1729'> +2.9386731E+03 </wgt>
<wgt id='1730'> +2.9329567E+03 </wgt>
<wgt id='1731'> +2.9481875E+03 </wgt>
<wgt id='1732'> +2.9527931E+03 </wgt>
<wgt id='1733'> +2.9356534E+03 </wgt>
<wgt id='1734'> +2.9360022E+03 </wgt>
<wgt id='1735'> +2.9713412E+03 </wgt>
<wgt id='1736'> +2.9189363E+03 </wgt>
<wgt id='1737'> +2.9408873E+03 </wgt>
<wgt id='1738'> +2.9381085E+03 </wgt>
<wgt id='1739'> +2.9467785E+03 </wgt>
<wgt id='1740'> +2.9503032E+03 </wgt>
<wgt id='1741'> +2.9487095E+03 </wgt>
<wgt id='1742'> +2.9549302E+03 </wgt>
<wgt id='1743'> +2.9487650E+03 </wgt>
<wgt id='1744'> +2.9673934E+03 </wgt>
<wgt id='1745'> +2.9536217E+03 </wgt>
<wgt id='1746'> +2.9721009E+03 </wgt>
<wgt id='1747'> +2.9501537E+03 </wgt>
<wgt id='1748'> +2.9458785E+03 </wgt>
<wgt id='1749'> +2.8416878E+03 </wgt>
<wgt id='1750'> +3.0427475E+03 </wgt>
<wgt id='1751'> +2.9121174E+03 </wgt>
<wgt id='1752'> +2.9238325E+03 </wgt>
<wgt id='1753'> +2.9491922E+03 </wgt>
<wgt id='1754'> +2.9130098E+03 </wgt>
<wgt id='1755'> +2.9351858E+03 </wgt>
<wgt id='1756'> +2.9016126E+03 </wgt>
<wgt id='1757'> +2.9142326E+03 </wgt>
<wgt id='1758'> +2.9046801E+03 </wgt>
<wgt id='1759'> +2.9675544E+03 </wgt>
<wgt id='1760'> +2.8748131E+03 </wgt>
<wgt id='1761'> +2.8947593E+03 </wgt>
<wgt id='1762'> +2.9042619E+03 </wgt>
<wgt id='1763'> +2.9153407E+03 </wgt>
<wgt id='1764'> +2.9246429E+03 </wgt>
<wgt id='1765'> +2.9150669E+03 </wgt>
<wgt id='1766'> +2.9345703E+03 </wgt>
<wgt id='1767'> +2.9298886E+03 </wgt>
<wgt id='1768'> +2.8948771E+03 </wgt>
<wgt id='1769'> +2.9127825E+03 </wgt>
<wgt id='1770'> +2.9171433E+03 </wgt>
<wgt id='1771'> +2.8966994E+03 </wgt>
<wgt id='1772'> +2.8883551E+03 </wgt>
<wgt id='1773'> +2.9263665E+03 </wgt>
<wgt id='1774'> +2.9104391E+03 </wgt>
<wgt id='1775'> +2.9096337E+03 </wgt>
<wgt id='1776'> +2.9083704E+03 </wgt>
<wgt id='1777'> +2.8970125E+03 </wgt>
<wgt id='1778'> +2.9150785E+03 </wgt>
<wgt id='1779'> +2.8875694E+03 </wgt>
<wgt id='1780'> +2.9335129E+03 </wgt>
<wgt id='1781'> +2.9044559E+03 </wgt>
<wgt id='1782'> +2.8099089E+03 </wgt>
<wgt id='1783'> +3.0036503E+03 </wgt>
<wgt id='1784'> +2.9461193E+03 </wgt>
<wgt id='1785'> +2.9443840E+03 </wgt>
<wgt id='1786'> +2.9478479E+03 </wgt>
<wgt id='1787'> +2.9451564E+03 </wgt>
<wgt id='1788'> +2.9470808E+03 </wgt>
<wgt id='1789'> +2.9476339E+03 </wgt>
<wgt id='1790'> +2.9446090E+03 </wgt>
<wgt id='1791'> +2.9512199E+03 </wgt>
<wgt id='1792'> +2.9411454E+03 </wgt>
<wgt id='1793'> +2.8640164E+03 </wgt>
<wgt id='1794'> +3.0286798E+03 </wgt>
<wgt id='1795'> +2.9687318E+03 </wgt>
<wgt id='1796'> +2.9245192E+03 </wgt>
<wgt id='1797'> +2.9504994E+03 </wgt>
<wgt id='1798'> +2.9417966E+03 </wgt>
<wgt id='1799'> +2.9266154E+03 </wgt>
<wgt id='1800'> +2.9624580E+03 </wgt>
<wgt id='1801'> +2.9123186E+03 </wgt>
<wgt id='1802'> +2.9834993E+03 </wgt>
<wgt id='1803'> +2.9438238E+03 </wgt>
<wgt id='1804'> +2.9432150E+03 </wgt>
<wgt id='1805'> +2.9279169E+03 </wgt>
<wgt id='1806'> +2.9638811E+03 </wgt>
<wgt id='1807'> +2.8708056E+03 </wgt>
<wgt id='1808'> +3.0316932E+03 </wgt>
<wgt id='1809'> +2.9866893E+03 </wgt>
<wgt id='1810'> +2.9054453E+03 </wgt>
<wgt id='1811'> +2.9273328E+03 </wgt>
<wgt id='1812'> +2.9679615E+03 </wgt>
<wgt id='1813'> +2.9461193E+03 </wgt>
<wgt id='1814'> +2.9782412E+03 </wgt>
<wgt id='1815'> +2.9210605E+03 </wgt>
<wgt id='1816'> +3.1053395E+03 </wgt>
<wgt id='1817'> +3.0626845E+03 </wgt>
<wgt id='1818'> +2.9717234E+03 </wgt>
<wgt id='1819'> +2.9413150E+03 </wgt>
<wgt id='1820'> +2.9446960E+03 </wgt>
<wgt id='1821'> +2.9494296E+03 </wgt>
<wgt id='1822'> +2.9529125E+03 </wgt>
<wgt id='1823'> +2.9410601E+03 </wgt>
<wgt id='1824'> +2.9306675E+03 </wgt>
<wgt id='1825'> +2.9473582E+03 </wgt>
<wgt id='1826'> +3.1702759E+03 </wgt>
<wgt id='1827'> +3.1078715E+03 </wgt>
<wgt id='1828'> +3.1069118E+03 </wgt>
<wgt id='1829'> +3.1107976E+03 </wgt>
<wgt id='1830'> +3.1074879E+03 </wgt>
<wgt id='1831'> +3.1102323E+03 </wgt>
<wgt id='1832'> +3.1094489E+03 </wgt>
<wgt id='1833'> +3.1082645E+03 </wgt>
<wgt id='1834'> +3.1179631E+03 </wgt>
<wgt id='1835'> +3.1000134E+03 </wgt>
<wgt id='1836'> +3.0837308E+03 </wgt>
<wgt id='1837'> +3.1343360E+03 </wgt>
<wgt id='1838'> +3.0290071E+03 </wgt>
<wgt id='1839'> +3.1887876E+03 </wgt>
<wgt id='1840'> +3.1286400E+03 </wgt>
<wgt id='1841'> +3.0888913E+03 </wgt>
<wgt id='1842'> +3.1021973E+03 </wgt>
<wgt id='1843'> +3.1103603E+03 </wgt>
<wgt id='1844'> +3.1372336E+03 </wgt>
<wgt id='1845'> +3.0807063E+03 </wgt>
<wgt id='1846'> +3.0955696E+03 </wgt>
<wgt id='1847'> +3.1189732E+03 </wgt>
<wgt id='1848'> +3.1126808E+03 </wgt>
<wgt id='1849'> +3.1050677E+03 </wgt>
<wgt id='1850'> +3.1407653E+03 </wgt>
<wgt id='1851'> +3.0795749E+03 </wgt>
<wgt id='1852'> +3.0813202E+03 </wgt>
<wgt id='1853'> +3.1450281E+03 </wgt>
<wgt id='1854'> +3.0556897E+03 </wgt>
<wgt id='1855'> +3.1668624E+03 </wgt>
<wgt id='1856'> +3.1039319E+03 </wgt>
<wgt id='1857'> +3.1230085E+03 </wgt>
<wgt id='1858'> +3.1382169E+03 </wgt>
<wgt id='1859'> +3.1664004E+03 </wgt>
<wgt id='1860'> +3.1221556E+03 </wgt>
<wgt id='1861'> +3.1586246E+03 </wgt>
<wgt id='1862'> +3.0148386E+03 </wgt>
<wgt id='1863'> +3.1023282E+03 </wgt>
<wgt id='1864'> +3.1228770E+03 </wgt>
<wgt id='1865'> +3.0254471E+03 </wgt>
<wgt id='1866'> +3.1236332E+03 </wgt>
<wgt id='1867'> +2.9970940E+03 </wgt>
<wgt id='1868'> +3.1604495E+03 </wgt>
<wgt id='1869'> +3.0607277E+03 </wgt>
<wgt id='1870'> +2.8292284E+03 </wgt>
<wgt id='1871'> +2.8289326E+03 </wgt>
<wgt id='1872'> +2.8286377E+03 </wgt>
<wgt id='1873'> +2.8283401E+03 </wgt>
<wgt id='1874'> +2.8280477E+03 </wgt>
<wgt id='1875'> +2.8277476E+03 </wgt>
<wgt id='1876'> +2.8274530E+03 </wgt>
<wgt id='1877'> +2.8271579E+03 </wgt>
<wgt id='1878'> +2.8268627E+03 </wgt>
<wgt id='1879'> +2.8265669E+03 </wgt>
<wgt id='1880'> +2.8262683E+03 </wgt>
<wgt id='1881'> +2.8259735E+03 </wgt>
<wgt id='1882'> +2.8256817E+03 </wgt>
<wgt id='1883'> +2.8253873E+03 </wgt>
<wgt id='1884'> +2.8250920E+03 </wgt>
<wgt id='1885'> +2.8247932E+03 </wgt>
<wgt id='1886'> +2.8245009E+03 </wgt>
<wgt id='1887'> +2.8242068E+03 </wgt>
<wgt id='1888'> +2.8239077E+03 </wgt>
<wgt id='1889'> +2.8236130E+03 </wgt>
<wgt id='1890'> +2.8233175E+03 </wgt>
<wgt id='1891'> +2.8230223E+03 </wgt>
<wgt id='1892'> +2.8227275E+03 </wgt>
<wgt id='1893'> +2.8224291E+03 </wgt>
<wgt id='1894'> +2.8221382E+03 </wgt>
<wgt id='1895'> +2.8218388E+03 </wgt>
<wgt id='1896'> +2.8215467E+03 </wgt>
<wgt id='1897'> +2.8212533E+03 </wgt>
<wgt id='1898'> +2.8209567E+03 </wgt>
<wgt id='1899'> +2.8206633E+03 </wgt>
<wgt id='1900'> +2.8203648E+03 </wgt>
<wgt id='1901'> +2.8914012E+03 </wgt>
<wgt id='1902'> +2.9185202E+03 </wgt>
<wgt id='1903'> +2.9030137E+03 </wgt>
<wgt id='1904'> +2.8705098E+03 </wgt>
<wgt id='1905'> +2.8985367E+03 </wgt>
<wgt id='1906'> +2.9006997E+03 </wgt>
<wgt id='1907'> +2.8715563E+03 </wgt>
<wgt id='1908'> +2.8674708E+03 </wgt>
<wgt id='1909'> +2.8861622E+03 </wgt>
<wgt id='1910'> +2.8779741E+03 </wgt>
<wgt id='1911'> +2.8830908E+03 </wgt>
<wgt id='1912'> +2.8847513E+03 </wgt>
<wgt id='1913'> +2.8969031E+03 </wgt>
<wgt id='1914'> +2.8644741E+03 </wgt>
<wgt id='1915'> +2.8994037E+03 </wgt>
<wgt id='1916'> +2.9390230E+03 </wgt>
<wgt id='1917'> +2.8790936E+03 </wgt>
<wgt id='1918'> +2.8933516E+03 </wgt>
<wgt id='1919'> +2.8944657E+03 </wgt>
<wgt id='1920'> +2.8674280E+03 </wgt>
<wgt id='1921'> +2.8903188E+03 </wgt>
<wgt id='1922'> +2.9157465E+03 </wgt>
<wgt id='1923'> +2.8712733E+03 </wgt>
<wgt id='1924'> +2.8904910E+03 </wgt>
<wgt id='1925'> +2.9250413E+03 </wgt>
<wgt id='1926'> +2.9075530E+03 </wgt>
<wgt id='1927'> +2.9014028E+03 </wgt>
<wgt id='1928'> +2.8763143E+03 </wgt>
<wgt id='1929'> +2.8736952E+03 </wgt>
<wgt id='1930'> +2.8864902E+03 </wgt>
<wgt id='1931'> +2.9043625E+03 </wgt>
<wgt id='1932'> +2.8529856E+03 </wgt>
<wgt id='1933'> +2.9154364E+03 </wgt>
<wgt id='1934'> +2.8873718E+03 </wgt>
<wgt id='1935'> +2.8769511E+03 </wgt>
<wgt id='1936'> +2.9028356E+03 </wgt>
<wgt id='1937'> +2.8896831E+03 </wgt>
<wgt id='1938'> +2.9034737E+03 </wgt>
<wgt id='1939'> +2.9055328E+03 </wgt>
<wgt id='1940'> +2.9191312E+03 </wgt>
<wgt id='1941'> +2.9122995E+03 </wgt>
<wgt id='1942'> +2.8834822E+03 </wgt>
<wgt id='1943'> +2.8966755E+03 </wgt>
<wgt id='1944'> +2.8875967E+03 </wgt>
<wgt id='1945'> +2.8860496E+03 </wgt>
<wgt id='1946'> +2.8905793E+03 </wgt>
<wgt id='1947'> +2.8792001E+03 </wgt>
<wgt id='1948'> +2.9124795E+03 </wgt>
<wgt id='1949'> +2.9075551E+03 </wgt>
<wgt id='1950'> +2.8835462E+03 </wgt>
<wgt id='1951'> +2.8802337E+03 </wgt>
<wgt id='1952'> +2.8899299E+03 </wgt>
<wgt id='1953'> +2.8957423E+03 </wgt>
<wgt id='1954'> +2.8999129E+03 </wgt>
<wgt id='1955'> +2.8868358E+03 </wgt>
<wgt id='1956'> +2.8854380E+03 </wgt>
<wgt id='1957'> +2.8930628E+03 </wgt>
<wgt id='1958'> +2.8896851E+03 </wgt>
<wgt id='1959'> +2.8778444E+03 </wgt>
<wgt id='1960'> +2.8966149E+03 </wgt>
<wgt id='1961'> +2.8959259E+03 </wgt>
<wgt id='1962'> +2.8895528E+03 </wgt>
<wgt id='1963'> +2.8983375E+03 </wgt>
<wgt id='1964'> +2.8863478E+03 </wgt>
<wgt id='1965'> +2.8908069E+03 </wgt>
<wgt id='1966'> +2.8870437E+03 </wgt>
<wgt id='1967'> +2.8868548E+03 </wgt>
<wgt id='1968'> +2.8949904E+03 </wgt>
<wgt id='1969'> +2.8920326E+03 </wgt>
<wgt id='1970'> +2.8950739E+03 </wgt>
<wgt id='1971'> +2.8884277E+03 </wgt>
<wgt id='1972'> +2.8975869E+03 </wgt>
<wgt id='1973'> +2.8885040E+03 </wgt>
<wgt id='1974'> +2.8885284E+03 </wgt>
<wgt id='1975'> +2.8908360E+03 </wgt>
<wgt id='1976'> +2.8923954E+03 </wgt>
<wgt id='1977'> +2.8919728E+03 </wgt>
<wgt id='1978'> +2.8941259E+03 </wgt>
<wgt id='1979'> +2.8926609E+03 </wgt>
<wgt id='1980'> +2.8916277E+03 </wgt>
<wgt id='1981'> +2.8935611E+03 </wgt>
<wgt id='1982'> +2.8924732E+03 </wgt>
<wgt id='1983'> +2.8912940E+03 </wgt>
<wgt id='1984'> +2.8913444E+03 </wgt>
<wgt id='1985'> +2.8884335E+03 </wgt>
<wgt id='1986'> +2.8912086E+03 </wgt>
<wgt id='1987'> +2.8918407E+03 </wgt>
<wgt id='1988'> +2.8888284E+03 </wgt>
<wgt id='1989'> +2.8903446E+03 </wgt>
<wgt id='1990'> +2.8887066E+03 </wgt>
<wgt id='1991'> +2.8917362E+03 </wgt>
<wgt id='1992'> +2.8915057E+03 </wgt>
<wgt id='1993'> +2.8903522E+03 </wgt>
<wgt id='1994'> +2.8914424E+03 </wgt>
<wgt id='1995'> +2.8912542E+03 </wgt>
<wgt id='1996'> +2.8910047E+03 </wgt>
<wgt id='1997'> +2.8898741E+03 </wgt>
<wgt id='1998'> +2.8914923E+03 </wgt>
<wgt id='1999'> +2.8905811E+03 </wgt>
<wgt id='2000'> +2.8911709E+03 </wgt>
<wgt id='2001'> +2.8915457E+03 </wgt>
<wgt id='2002'> +2.8913839E+03 </wgt>
<wgt id='2003'> +2.8912862E+03 </wgt>
<wgt id='2004'> +2.8914196E+03 </wgt>
<wgt id='2005'> +2.8914225E+03 </wgt>
<wgt id='2006'> +2.8914545E+03 </wgt>
<wgt id='2007'> +2.8914091E+03 </wgt>
<wgt id='2008'> +2.8913244E+03 </wgt>
<wgt id='2009'> +2.9326818E+03 </wgt>
<wgt id='2010'> +2.9101256E+03 </wgt>
<wgt id='2011'> +2.8601779E+03 </wgt>
<wgt id='2012'> +2.9522268E+03 </wgt>
<wgt id='2013'> +2.9121409E+03 </wgt>
<wgt id='2014'> +2.9148768E+03 </wgt>
<wgt id='2015'> +3.0018664E+03 </wgt>
<wgt id='2016'> +2.9930471E+03 </wgt>
<wgt id='2017'> +2.9982535E+03 </wgt>
<wgt id='2018'> +2.9908357E+03 </wgt>
<wgt id='2019'> +2.9022094E+03 </wgt>
<wgt id='2020'> +2.8279101E+03 </wgt>
<wgt id='2021'> +2.9591692E+03 </wgt>
<wgt id='2022'> +2.9613182E+03 </wgt>
<wgt id='2023'> +2.8467080E+03 </wgt>
<wgt id='2024'> +2.9895443E+03 </wgt>
<wgt id='2025'> +2.9687491E+03 </wgt>
<wgt id='2026'> +2.8526834E+03 </wgt>
<wgt id='2027'> +2.8288384E+03 </wgt>
<wgt id='2028'> +3.0230230E+03 </wgt>
<wgt id='2029'> +2.8855662E+03 </wgt>
<wgt id='2030'> +3.1134159E+03 </wgt>
<wgt id='2031'> +2.8949614E+03 </wgt>
<wgt id='2032'> +3.1985533E+03 </wgt>
<wgt id='2033'> +3.0042376E+03 </wgt>
<wgt id='2034'> +2.8961441E+03 </wgt>
<wgt id='2035'> +2.9892924E+03 </wgt>
<wgt id='2036'> +2.9006767E+03 </wgt>
<wgt id='2037'> +2.8068935E+03 </wgt>
<wgt id='2038'> +2.9517582E+03 </wgt>
<wgt id='2039'> +3.0078676E+03 </wgt>
<wgt id='2040'> +2.9087225E+03 </wgt>
<wgt id='2041'> +3.0225946E+03 </wgt>
<wgt id='2042'> +2.7772986E+03 </wgt>
<wgt id='2043'> +2.9405216E+03 </wgt>
<wgt id='2044'> +3.0931820E+03 </wgt>
<wgt id='2045'> +3.0073733E+03 </wgt>
<wgt id='2046'> +2.8435552E+03 </wgt>
<wgt id='2047'> +3.0972629E+03 </wgt>
<wgt id='2048'> +2.8867448E+03 </wgt>
<wgt id='2049'> +2.8531683E+03 </wgt>
<wgt id='2050'> +3.0173386E+03 </wgt>
<wgt id='2051'> +2.8570564E+03 </wgt>
<wgt id='2052'> +2.8638660E+03 </wgt>
<wgt id='2053'> +2.8929039E+03 </wgt>
<wgt id='2054'> +3.0287627E+03 </wgt>
<wgt id='2055'> +2.8976234E+03 </wgt>
<wgt id='2056'> +2.9310494E+03 </wgt>
<wgt id='2057'> +2.9568543E+03 </wgt>
<wgt id='2058'> +2.7800610E+03 </wgt>
<wgt id='2059'> +2.8740789E+03 </wgt>
<wgt id='2060'> +2.9566335E+03 </wgt>
<wgt id='2061'> +3.0250196E+03 </wgt>
<wgt id='2062'> +2.8006522E+03 </wgt>
<wgt id='2063'> +3.0140135E+03 </wgt>
<wgt id='2064'> +2.9129171E+03 </wgt>
<wgt id='2065'> +2.7983106E+03 </wgt>
<wgt id='2066'> +2.8019102E+03 </wgt>
<wgt id='2067'> +2.8475429E+03 </wgt>
<wgt id='2068'> +2.8756803E+03 </wgt>
<wgt id='2069'> +3.0223500E+03 </wgt>
<wgt id='2070'> +2.8897991E+03 </wgt>
<wgt id='2071'> +2.8388986E+03 </wgt>
<wgt id='2072'> +3.0231548E+03 </wgt>
<wgt id='2073'> +2.7350414E+03 </wgt>
<wgt id='2074'> +2.9076221E+03 </wgt>
<wgt id='2075'> +2.9091520E+03 </wgt>
<wgt id='2076'> +3.3467884E+03 </wgt>
<wgt id='2077'> +2.8745183E+03 </wgt>
<wgt id='2078'> +3.0457223E+03 </wgt>
<wgt id='2079'> +2.7820327E+03 </wgt>
<wgt id='2080'> +2.9103270E+03 </wgt>
<wgt id='2081'> +2.9536446E+03 </wgt>
<wgt id='2082'> +3.0281682E+03 </wgt>
<wgt id='2083'> +2.9836089E+03 </wgt>
<wgt id='2084'> +2.8918815E+03 </wgt>
<wgt id='2085'> +2.9423241E+03 </wgt>
<wgt id='2086'> +3.0159912E+03 </wgt>
<wgt id='2087'> +3.1160830E+03 </wgt>
<wgt id='2088'> +2.8217385E+03 </wgt>
<wgt id='2089'> +2.9225928E+03 </wgt>
<wgt id='2090'> +2.9049711E+03 </wgt>
<wgt id='2091'> +3.0430369E+03 </wgt>
<wgt id='2092'> +2.7792834E+03 </wgt>
<wgt id='2093'> +2.9157506E+03 </wgt>
<wgt id='2094'> +2.9473129E+03 </wgt>
<wgt id='2095'> +3.0312832E+03 </wgt>
<wgt id='2096'> +2.8303759E+03 </wgt>
<wgt id='2097'> +2.9267776E+03 </wgt>
<wgt id='2098'> +2.9484263E+03 </wgt>
<wgt id='2099'> +2.9745095E+03 </wgt>
<wgt id='2100'> +3.0334694E+03 </wgt>
<wgt id='2101'> +2.9676433E+03 </wgt>
<wgt id='2102'> +2.8794051E+03 </wgt>
<wgt id='2103'> +2.9364859E+03 </wgt>
<wgt id='2104'> +2.7410601E+03 </wgt>
<wgt id='2105'> +3.0408630E+03 </wgt>
<wgt id='2106'> +2.9399076E+03 </wgt>
<wgt id='2107'> +2.9721058E+03 </wgt>
<wgt id='2108'> +2.9146796E+03 </wgt>
<wgt id='2109'> +2.6642534E+03 </wgt>
<wgt id='2110'> +2.8710030E+03 </wgt>
<wgt id='2111'> +3.0025504E+03 </wgt>
<wgt id='2112'> +2.8678235E+03 </wgt>
<wgt id='2113'> +2.6252583E+03 </wgt>
<wgt id='2114'> +3.6206172E+03 </wgt>
<wgt id='2115'> +2.8814163E+03 </wgt>
<wgt id='2116'> +3.8179692E+03 </wgt>
</rwgt>
</event>
<event>
 5      0 +2.9771057E+03 8.19806800e+01 7.54677100e-03 1.19932300e-01
       -1 -1    0    0    0  501 -0.0000000000e+00 +0.0000000000e+00 +6.8889339228e+00 6.8889339228e+00 0.0000000000e+00 0.0000e+00 1.0000e+00
        2 -1    0    0  501    0 +0.0000000000e+00 -0.0000000000e+00 -2.4389959232e+02 2.4389959232e+02 0.0000000000e+00 0.0000e+00 -1.0000e+00
       24  2    1    2    0    0 +0.0000000000e+00 +0.0000000000e+00 -2.3701065839e+02 2.5078852624e+02 8.1980684927e+01 0.0000e+00 0.0000e+00
      -13  1    3    3    0    0 +2.7988052859e+00 +1.7387766854e+01 -5.2749889569e+00 1.8384592889e+01 0.0000000000e+00 0.0000e+00 1.0000e+00
       14  1    3    3    0    0 -2.7988052859e+00 -1.7387766854e+01 -2.3173566944e+02 2.3240393335e+02 0.0000000000e+00 0.0000e+00 -1.0000e+00
<scales pt_clust_4="13000.00000" pt_clust_5="13000.00000"></scales>
<mgrwt>
<rscale>  0 0.81980685E+02</rscale>
<asrwt>0</asrwt>
<pdfrwt beam="1">  1        2 0.37523021E-01 0.81980685E+02</pdfrwt>
<pdfrwt beam="2">  1       -1 0.10598358E-02 0.81980685E+02</pdfrwt>
<totfact> 0.23595512E+05</totfact>
</mgrwt>
<clustering>
<clus scale="   81.981">  4  5 -1 -1</clus>
<clus scale="   81.981">  2  4  1 -1</clus>
</clustering>
<rwgt>
<wgt id='1001'> +2.9771057E+03 </wgt>
<wgt id='1002'> +2.5206224E+03 </wgt>
<wgt id='1003'> +2.5206224E+03 </wgt>
<wgt id='1004'> +2.1168747E+03 </wgt>
<wgt id='1005'> +2.9771057E+03 </wgt>
<wgt id='1006'> +2.9771057E+03 </wgt>
<wgt id='1007'> +2.5206224E+03 </wgt>
<wgt id='1008'> +2.5206224E+03 </wgt>
<wgt id='1009'> +2.1168747E+03 </wgt>
<wgt id='1010'> +2.9771057E+03 </wgt>
<wgt id='1011'> +2.9771057E+03 </wgt>
<wgt id='1012'> +2.5206224E+03 </wgt>
<wgt id='1013'> +2.5206224E+03 </wgt>
<wgt id='1014'> +2.1168747E+03 </wgt>
<wgt id='1015'> +2.9771057E+03 </wgt>
<wgt id='1016'> +3.3218770E+03 </wgt>
<wgt id='1017'> +2.8980141E+03 </wgt>
<wgt id='1018'> +2.8980141E+03 </wgt>
<wgt id='1019'> +2.5206224E+03 </wgt>
<wgt id='1020'> +3.3218770E+03 </wgt>
<wgt id='1021'> +3.3218770E+03 </wgt>
<wgt id='1022'> +2.8980141E+03 </wgt>
<wgt id='1023'> +2.8980141E+03 </wgt>
<wgt id='1024'> +2.5206224E+03 </wgt>
<wgt id='1025'> +3.3218770E+03 </wgt>
<wgt id='1026'> +3.3218770E+03 </wgt>
<wgt id='1027'> +2.8980141E+03 </wgt>
<wgt id='1028'> +2.8980141E+03 </wgt>
<wgt id='1029'> +2.5206224E+03 </wgt>
<wgt id='1030'> +3.3218770E+03 </wgt>
<wgt id='1031'> +2.6054855E+03 </wgt>
<wgt id='1032'> +2.1168747E+03 </wgt>
<wgt id='1033'> +2.1168747E+03 </wgt>
<wgt id='1034'> +1.6891631E+03 </wgt>
<wgt id='1035'> +2.6054855E+03 </wgt>
<wgt id='1036'> +2.6054855E+03 </wgt>
<wgt id='1037'> +2.1168747E+03 </wgt>
<wgt id='1038'> +2.1168747E+03 </wgt>
<wgt id='1039'> +1.6891631E+03 </wgt>
<wgt id='1040'> +2.6054855E+03 </wgt>
<wgt id='1041'> +2.6054855E+03 </wgt>
<wgt id='1042'> +2.1168747E+03 </wgt>
<wgt id='1043'> +2.1168747E+03 </wgt>
<wgt id='1044'> +1.6891631E+03 </wgt>
<wgt id='1045'> +2.6054855E+03 </wgt>
<wgt id='1046'> +2.9771057E+03 </wgt>
<wgt id='1047'> +2.9745769E+03 </wgt>
<wgt id='1048'> +2.9775539E+03 </wgt>
<wgt id='1049'> +2.9766360E+03 </wgt>
<wgt id='1050'> +2.9898634E+03 </wgt>
<wgt id='1051'> +2.9763256E+03 </wgt>
<wgt id='1052'> +2.9688291E+03 </wgt>
<wgt id='1053'> +2.9776821E+03 </wgt>
<wgt id='1054'> +2.9684787E+03 </wgt>
<wgt id='1055'> +2.9826458E+03 </wgt>
<wgt id='1056'> +2.9626191E+03 </wgt>
<wgt id='1057'> +2.9656678E+03 </wgt>
<wgt id='1058'> +2.9859111E+03 </wgt>
<wgt id='1059'> +2.9699227E+03 </wgt>
<wgt id='1060'> +2.9753880E+03 </wgt>
<wgt id='1061'> +2.9925982E+03 </wgt>
<wgt id='1062'> +2.9896446E+03 </wgt>
<wgt id='1063'> +2.9651597E+03 </wgt>
<wgt id='1064'> +2.9715430E+03 </wgt>
<wgt id='1065'> +2.9676804E+03 </wgt>
<wgt id='1066'> +2.9726606E+03 </wgt>
<wgt id='1067'> +2.9896962E+03 </wgt>
<wgt id='1068'> +2.9798532E+03 </wgt>
<wgt id='1069'> +2.9686080E+03 </wgt>
<wgt id='1070'> +2.9983359E+03 </wgt>
<wgt id='1071'> +2.9807600E+03 </wgt>
<wgt id='1072'> +2.9636545E+03 </wgt>
<wgt id='1073'> +2.9761206E+03 </wgt>
<wgt id='1074'> +2.9772028E+03 </wgt>
<wgt id='1075'> +2.9633753E+03 </wgt>
<wgt id='1076'> +2.9915107E+03 </wgt>
<wgt id='1077'> +2.9802000E+03 </wgt>
<wgt id='1078'> +2.9722028E+03 </wgt>
<wgt id='1079'> +2.9742793E+03 </wgt>
<wgt id='1080'> +2.9777525E+03 </wgt>
<wgt id='1081'> +2.9760128E+03 </wgt>
<wgt id='1082'> +2.9763058E+03 </wgt>
<wgt id='1083'> +2.9734635E+03 </wgt>
<wgt id='1084'> +2.9782707E+03 </wgt>
<wgt id='1085'> +2.9752367E+03 </wgt>
<wgt id='1086'> +2.9756702E+03 </wgt>
<wgt id='1087'> +2.9746059E+03 </wgt>
<wgt id='1088'> +2.9764971E+03 </wgt>
<wgt id='1089'> +2.9806001E+03 </wgt>
<wgt id='1090'> +2.9753027E+03 </wgt>
<wgt id='1091'> +2.9771865E+03 </wgt>
<wgt id='1092'> +2.9801897E+03 </wgt>
<wgt id='1093'> +2.9799123E+03 </wgt>
<wgt id='1094'> +2.9781040E+03 </wgt>
<wgt id='1095'> +2.9694152E+03 </wgt>
<wgt id='1096'> +2.9734317E+03 </wgt>
<wgt id='1097'> +2.9772757E+03 </wgt>
<wgt id='1098'> +2.9759746E+03 </wgt>
<wgt id='1099'> +2.9788673E+03 </wgt>
<wgt id='1100'> +2.9771798E+03 </wgt>
<wgt id='1101'> +2.9802162E+03 </wgt>
<wgt id='1102'> +2.9756827E+03 </wgt>
<wgt id='1103'> +2.9797157E+03 </wgt>
<wgt id='1104'> +2.9819446E+03 </wgt>
<wgt id='1105'> +2.9733009E+03 </wgt>
<wgt id='1106'> +2.9777126E+03 </wgt>
<wgt id='1107'> +2.9791701E+03 </wgt>
<wgt id='1108'> +2.9753090E+03 </wgt>
<wgt id='1109'> +2.9764065E+03 </wgt>
<wgt id='1110'> +2.9771942E+03 </wgt>
<wgt id='1111'> +2.9764482E+03 </wgt>
<wgt id='1112'> +2.9768413E+03 </wgt>
<wgt id='1113'> +2.9767886E+03 </wgt>
<wgt id='1114'> +2.9777179E+03 </wgt>
<wgt id='1115'> +2.9801538E+03 </wgt>
<wgt id='1116'> +2.9757788E+03 </wgt>
<wgt id='1117'> +2.9769283E+03 </wgt>
<wgt id='1118'> +2.9781409E+03 </wgt>
<wgt id='1119'> +2.9830573E+03 </wgt>
<wgt id='1120'> +2.9762598E+03 </wgt>
<wgt id='1121'> +2.9792012E+03 </wgt>
<wgt id='1122'> +2.9779520E+03 </wgt>
<wgt id='1123'> +2.9759072E+03 </wgt>
<wgt id='1124'> +2.9787715E+03 </wgt>
<wgt id='1125'> +2.9778458E+03 </wgt>
<wgt id='1126'> +2.9754860E+03 </wgt>
<wgt id='1127'> +2.9787482E+03 </wgt>
<wgt id='1128'> +2.9778568E+03 </wgt>
<wgt id='1129'> +2.9782879E+03 </wgt>
<wgt id='1130'> +2.9765071E+03 </wgt>
<wgt id='1131'> +2.9764357E+03 </wgt>
<wgt id='1132'> +2.9766263E+03 </wgt>
<wgt id='1133'> +2.9753243E+03 </wgt>
<wgt id='1134'> +2.9778234E+03 </wgt>
<wgt id='1135'> +2.9761345E+03 </wgt>
<wgt id='1136'> +2.9735865E+03 </wgt>
<wgt id='1137'> +2.9770222E+03 </wgt>
<wgt id='1138'> +2.9786498E+03 </wgt>
<wgt id='1139'> +2.9774922E+03 </wgt>
<wgt id='1140'> +2.9758240E+03 </wgt>
<wgt id='1141'> +2.9763527E+03 </wgt>
<wgt id='1142'> +2.9770407E+03 </wgt>
<wgt id='1143'> +2.9781182E+03 </wgt>
<wgt id='1144'> +2.9775845E+03 </wgt>
<wgt id='1145'> +2.9781106E+03 </wgt>
<wgt id='1146'> +2.9790781E+03 </wgt>
<wgt id='1147'> +2.9537077E+03 </wgt>
<wgt id='1148'> +3.0002119E+03 </wgt>
<wgt id='1149'> +2.8925701E+03 </wgt>
<wgt id='1150'> +2.9029077E+03 </wgt>
<wgt id='1151'> +2.9119189E+03 </wgt>
<wgt id='1152'> +2.9349523E+03 </wgt>
<wgt id='1153'> +2.9786929E+03 </wgt>
<wgt id='1154'> +2.9885441E+03 </wgt>
<wgt id='1155'> +3.0273269E+03 </wgt>
<wgt id='1156'> +3.0356150E+03 </wgt>
<wgt id='1157'> +2.9246098E+03 </wgt>
<wgt id='1158'> +2.9262888E+03 </wgt>
<wgt id='1159'> +2.9298391E+03 </wgt>
<wgt id='1160'> +2.9197962E+03 </wgt>
<wgt id='1161'> +2.9393190E+03 </wgt>
<wgt id='1162'> +2.9259422E+03 </wgt>
<wgt id='1163'> +2.9148352E+03 </wgt>
<wgt id='1164'> +2.9303042E+03 </wgt>
<wgt id='1165'> +2.9322117E+03 </wgt>
<wgt id='1166'> +2.9297092E+03 </wgt>
<wgt id='1167'> +2.9114884E+03 </wgt>
<wgt id='1168'> +2.9206264E+03 </wgt>
<wgt id='1169'> +2.9277822E+03 </wgt>
<wgt id='1170'> +2.9361755E+03 </wgt>
<wgt id='1171'> +2.9235826E+03 </wgt>
<wgt id='1172'> +2.9158455E+03 </wgt>
<wgt id='1173'> +2.9425342E+03 </wgt>
<wgt id='1174'> +2.9164361E+03 </wgt>
<wgt id='1175'> +2.9331096E+03 </wgt>
<wgt id='1176'> +2.9274123E+03 </wgt>
<wgt id='1177'> +2.9177093E+03 </wgt>
<wgt id='1178'> +2.9352621E+03 </wgt>
<wgt id='1179'> +2.9224035E+03 </wgt>
<wgt id='1180'> +2.9135889E+03 </wgt>
<wgt id='1181'> +2.9430205E+03 </wgt>
<wgt id='1182'> +2.9173369E+03 </wgt>
<wgt id='1183'> +2.9269324E+03 </wgt>
<wgt id='1184'> +2.9224896E+03 </wgt>
<wgt id='1185'> +2.9232864E+03 </wgt>
<wgt id='1186'> +2.9463372E+03 </wgt>
<wgt id='1187'> +2.9235239E+03 </wgt>
<wgt id='1188'> +2.9127735E+03 </wgt>
<wgt id='1189'> +2.9297278E+03 </wgt>
<wgt id='1190'> +2.9214493E+03 </wgt>
<wgt id='1191'> +2.9273572E+03 </wgt>
<wgt id='1192'> +2.9291831E+03 </wgt>
<wgt id='1193'> +2.9264006E+03 </wgt>
<wgt id='1194'> +2.9209494E+03 </wgt>
<wgt id='1195'> +2.9254527E+03 </wgt>
<wgt id='1196'> +2.9225633E+03 </wgt>
<wgt id='1197'> +2.9239563E+03 </wgt>
<wgt id='1198'> +2.9217414E+03 </wgt>
<wgt id='1199'> +2.9227049E+03 </wgt>
<wgt id='1200'> +2.9229660E+03 </wgt>
<wgt id='1201'> +2.9242972E+03 </wgt>
<wgt id='1202'> +2.9254820E+03 </wgt>
<wgt id='1203'> +2.9235630E+03 </wgt>
<wgt id='1204'> +2.9230466E+03 </wgt>
<wgt id='1205'> +2.9292055E+03 </wgt>
<wgt id='1206'> +2.9305263E+03 </wgt>
<wgt id='1207'> +2.9220758E+03 </wgt>
<wgt id='1208'> +2.9210489E+03 </wgt>
<wgt id='1209'> +2.9238749E+03 </wgt>
<wgt id='1210'> +2.9207728E+03 </wgt>
<wgt id='1211'> +2.9264856E+03 </wgt>
<wgt id='1212'> +2.9266279E+03 </wgt>
<wgt id='1213'> +2.9294024E+03 </wgt>
<wgt id='1214'> +2.9220693E+03 </wgt>
<wgt id='1215'> +2.9199511E+03 </wgt>
<wgt id='1216'> +2.9239667E+03 </wgt>
<wgt id='1217'> +2.9276686E+03 </wgt>
<wgt id='1218'> +2.9250263E+03 </wgt>
<wgt id='1219'> +2.9242141E+03 </wgt>
<wgt id='1220'> +2.9256482E+03 </wgt>
<wgt id='1221'> +2.9263430E+03 </wgt>
<wgt id='1222'> +2.9269380E+03 </wgt>
<wgt id='1223'> +2.9217315E+03 </wgt>
<wgt id='1224'> +2.9226079E+03 </wgt>
<wgt id='1225'> +2.9257632E+03 </wgt>
<wgt id='1226'> +2.9215226E+03 </wgt>
<wgt id='1227'> +2.9245087E+03 </wgt>
<wgt id='1228'> +2.9257747E+03 </wgt>
<wgt id='1229'> +2.9287276E+03 </wgt>
<wgt id='1230'> +2.9234225E+03 </wgt>
<wgt id='1231'> +2.9243673E+03 </wgt>
<wgt id='1232'> +2.9201718E+03 </wgt>
<wgt id='1233'> +2.9234005E+03 </wgt>
<wgt id='1234'> +2.9259644E+03 </wgt>
<wgt id='1235'> +2.9247675E+03 </wgt>
<wgt id='1236'> +2.9227979E+03 </wgt>
<wgt id='1237'> +2.9260049E+03 </wgt>
<wgt id='1238'> +2.9268598E+03 </wgt>
<wgt id='1239'> +2.9257021E+03 </wgt>
<wgt id='1240'> +2.9273744E+03 </wgt>
<wgt id='1241'> +2.9242399E+03 </wgt>
<wgt id='1242'> +2.9260182E+03 </wgt>
<wgt id='1243'> +2.9233685E+03 </wgt>
<wgt id='1244'> +2.9247691E+03 </wgt>
<wgt id='1245'> +2.9230648E+03 </wgt>
<wgt id='1246'> +2.9234556E+03 </wgt>
<wgt id='1247'> +2.9250023E+03 </wgt>
<wgt id='1248'> +2.9247397E+03 </wgt>
<wgt id='1249'> +2.9248105E+03 </wgt>
<wgt id='1250'> +2.9258326E+03 </wgt>
<wgt id='1251'> +2.9251313E+03 </wgt>
<wgt id='1252'> +2.9262665E+03 </wgt>
<wgt id='1253'> +2.9249389E+03 </wgt>
<wgt id='1254'> +2.9258457E+03 </wgt>
<wgt id='1255'> +2.9227908E+03 </wgt>
<wgt id='1256'> +2.9267046E+03 </wgt>
<wgt id='1257'> +2.9228765E+03 </wgt>
<wgt id='1258'> +2.9033036E+03 </wgt>
<wgt id='1259'> +2.9509275E+03 </wgt>
<wgt id='1260'> +2.8922667E+03 </wgt>
<wgt id='1261'> +2.8638772E+03 </wgt>
<wgt id='1262'> +2.8692329E+03 </wgt>
<wgt id='1263'> +2.9071531E+03 </wgt>
<wgt id='1264'> +2.8909027E+03 </wgt>
<wgt id='1265'> +2.9058079E+03 </wgt>
<wgt id='1266'> +2.9148851E+03 </wgt>
<wgt id='1267'> +2.8906135E+03 </wgt>
<wgt id='1268'> +2.8585269E+03 </wgt>
<wgt id='1269'> +2.9462229E+03 </wgt>
<wgt id='1270'> +2.8612477E+03 </wgt>
<wgt id='1271'> +2.8869879E+03 </wgt>
<wgt id='1272'> +2.8701787E+03 </wgt>
<wgt id='1273'> +2.8686680E+03 </wgt>
<wgt id='1274'> +2.8576150E+03 </wgt>
<wgt id='1275'> +2.9071441E+03 </wgt>
<wgt id='1276'> +2.8349564E+03 </wgt>
<wgt id='1277'> +2.9140259E+03 </wgt>
<wgt id='1278'> +2.8710569E+03 </wgt>
<wgt id='1279'> +2.9254128E+03 </wgt>
<wgt id='1280'> +2.8740410E+03 </wgt>
<wgt id='1281'> +2.8910943E+03 </wgt>
<wgt id='1282'> +2.8925147E+03 </wgt>
<wgt id='1283'> +2.8663282E+03 </wgt>
<wgt id='1284'> +2.9208558E+03 </wgt>
<wgt id='1285'> +2.8624063E+03 </wgt>
<wgt id='1286'> +2.9183114E+03 </wgt>
<wgt id='1287'> +2.8492530E+03 </wgt>
<wgt id='1288'> +2.9575421E+03 </wgt>
<wgt id='1289'> +2.8510809E+03 </wgt>
<wgt id='1290'> +2.9171229E+03 </wgt>
<wgt id='1291'> +2.8940695E+03 </wgt>
<wgt id='1292'> +2.8865683E+03 </wgt>
<wgt id='1293'> +2.9629520E+03 </wgt>
<wgt id='1294'> +2.8251375E+03 </wgt>
<wgt id='1295'> +2.8654215E+03 </wgt>
<wgt id='1296'> +2.9176357E+03 </wgt>
<wgt id='1297'> +2.9572627E+03 </wgt>
<wgt id='1298'> +2.8201939E+03 </wgt>
<wgt id='1299'> +2.9352966E+03 </wgt>
<wgt id='1300'> +2.8380099E+03 </wgt>
<wgt id='1301'> +2.8911441E+03 </wgt>
<wgt id='1302'> +2.9015726E+03 </wgt>
<wgt id='1303'> +2.9022866E+03 </wgt>
<wgt id='1304'> +2.8488899E+03 </wgt>
<wgt id='1305'> +2.8989989E+03 </wgt>
<wgt id='1306'> +2.9257881E+03 </wgt>
<wgt id='1307'> +2.8878642E+03 </wgt>
<wgt id='1308'> +2.9336361E+03 </wgt>
<wgt id='1309'> +2.8872413E+03 </wgt>
<wgt id='1310'> +2.9596204E+03 </wgt>
<wgt id='1311'> +2.8851315E+03 </wgt>
<wgt id='1312'> +2.9232296E+03 </wgt>
<wgt id='1313'> +2.8884167E+03 </wgt>
<wgt id='1314'> +2.8949292E+03 </wgt>
<wgt id='1315'> +2.8385306E+03 </wgt>
<wgt id='1316'> +2.9702238E+03 </wgt>
<wgt id='1317'> +2.8559292E+03 </wgt>
<wgt id='1318'> +2.9288130E+03 </wgt>
<wgt id='1319'> +2.7720062E+03 </wgt>
<wgt id='1320'> +2.7990502E+03 </wgt>
<wgt id='1321'> +2.7475354E+03 </wgt>
<wgt id='1322'> +2.8110719E+03 </wgt>
<wgt id='1323'> +2.7872994E+03 </wgt>
<wgt id='1324'> +2.8345657E+03 </wgt>
<wgt id='1325'> +2.7618395E+03 </wgt>
<wgt id='1326'> +2.7703904E+03 </wgt>
<wgt id='1327'> +2.8175635E+03 </wgt>
<wgt id='1328'> +2.7577961E+03 </wgt>
<wgt id='1329'> +2.7828958E+03 </wgt>
<wgt id='1330'> +2.7555429E+03 </wgt>
<wgt id='1331'> +2.7963613E+03 </wgt>
<wgt id='1332'> +2.7009477E+03 </wgt>
<wgt id='1333'> +2.7990531E+03 </wgt>
<wgt id='1334'> +2.7932173E+03 </wgt>
<wgt id='1335'> +2.7299747E+03 </wgt>
<wgt id='1336'> +2.8402615E+03 </wgt>
<wgt id='1337'> +2.6962352E+03 </wgt>
<wgt id='1338'> +2.7924727E+03 </wgt>
<wgt id='1339'> +2.7482848E+03 </wgt>
<wgt id='1340'> +2.7822660E+03 </wgt>
<wgt id='1341'> +2.7515592E+03 </wgt>
<wgt id='1342'> +2.8241006E+03 </wgt>
<wgt id='1343'> +2.7182634E+03 </wgt>
<wgt id='1344'> +2.7747279E+03 </wgt>
<wgt id='1345'> +2.7751245E+03 </wgt>
<wgt id='1346'> +2.7829827E+03 </wgt>
<wgt id='1347'> +2.7569319E+03 </wgt>
<wgt id='1348'> +2.7153329E+03 </wgt>
<wgt id='1349'> +2.7912705E+03 </wgt>
<wgt id='1350'> +2.7529245E+03 </wgt>
<wgt id='1351'> +2.7964756E+03 </wgt>
<wgt id='1352'> +2.7588067E+03 </wgt>
<wgt id='1353'> +2.7989488E+03 </wgt>
<wgt id='1354'> +2.8210411E+03 </wgt>
<wgt id='1355'> +2.7275740E+03 </wgt>
<wgt id='1356'> +2.7783656E+03 </wgt>
<wgt id='1357'> +2.7487185E+03 </wgt>
<wgt id='1358'> +2.7599950E+03 </wgt>
<wgt id='1359'> +2.7636003E+03 </wgt>
<wgt id='1360'> +2.7690562E+03 </wgt>
<wgt id='1361'> +2.7805340E+03 </wgt>
<wgt id='1362'> +2.7674113E+03 </wgt>
<wgt id='1363'> +2.7662065E+03 </wgt>
<wgt id='1364'> +2.7600394E+03 </wgt>
<wgt id='1365'> +2.7613215E+03 </wgt>
<wgt id='1366'> +2.7359829E+03 </wgt>
<wgt id='1367'> +2.7946898E+03 </wgt>
<wgt id='1368'> +2.7717249E+03 </wgt>
<wgt id='1369'> +2.7755362E+03 </wgt>
<wgt id='1370'> +2.7464208E+03 </wgt>
<wgt id='1371'> +2.7516983E+03 </wgt>
<wgt id='1372'> +2.7392926E+03 </wgt>
<wgt id='1373'> +2.7436900E+03 </wgt>
<wgt id='1374'> +2.7218199E+03 </wgt>
<wgt id='1375'> +2.8360640E+03 </wgt>
<wgt id='1376'> +2.7371929E+03 </wgt>
<wgt id='1377'> +2.8027434E+03 </wgt>
<wgt id='1378'> +2.4411949E+03 </wgt>
<wgt id='1379'> +2.7734495E+03 </wgt>
<wgt id='1380'> +2.7782267E+03 </wgt>
<wgt id='1381'> +2.7685071E+03 </wgt>
<wgt id='1382'> +2.7627437E+03 </wgt>
<wgt id='1383'> +2.7807599E+03 </wgt>
<wgt id='1384'> +2.7625609E+03 </wgt>
<wgt id='1385'> +2.7838111E+03 </wgt>
<wgt id='1386'> +2.7679433E+03 </wgt>
<wgt id='1387'> +2.7796026E+03 </wgt>
<wgt id='1388'> +2.7729741E+03 </wgt>
<wgt id='1389'> +2.7739424E+03 </wgt>
<wgt id='1390'> +2.7760737E+03 </wgt>
<wgt id='1391'> +2.7679653E+03 </wgt>
<wgt id='1392'> +2.7677149E+03 </wgt>
<wgt id='1393'> +2.7837935E+03 </wgt>
<wgt id='1394'> +2.7741372E+03 </wgt>
<wgt id='1395'> +2.7731219E+03 </wgt>
<wgt id='1396'> +2.7820961E+03 </wgt>
<wgt id='1397'> +2.7635248E+03 </wgt>
<wgt id='1398'> +2.7825463E+03 </wgt>
<wgt id='1399'> +2.7656216E+03 </wgt>
<wgt id='1400'> +2.7715085E+03 </wgt>
<wgt id='1401'> +2.7765505E+03 </wgt>
<wgt id='1402'> +2.8009948E+03 </wgt>
<wgt id='1403'> +2.7555829E+03 </wgt>
<wgt id='1404'> +2.7782674E+03 </wgt>
<wgt id='1405'> +2.7551207E+03 </wgt>
<wgt id='1406'> +2.7903653E+03 </wgt>
<wgt id='1407'> +2.7683173E+03 </wgt>
<wgt id='1408'> +2.7900285E+03 </wgt>
<wgt id='1409'> +2.7532886E+03 </wgt>
<wgt id='1410'> +2.7848328E+03 </wgt>
<wgt id='1411'> +2.7596425E+03 </wgt>
<wgt id='1412'> +2.7659915E+03 </wgt>
<wgt id='1413'> +2.7812060E+03 </wgt>
<wgt id='1414'> +2.7612029E+03 </wgt>
<wgt id='1415'> +2.8115697E+03 </wgt>
<wgt id='1416'> +2.7664090E+03 </wgt>
<wgt id='1417'> +2.7828504E+03 </wgt>
<wgt id='1418'> +2.7757933E+03 </wgt>
<wgt id='1419'> +2.7705105E+03 </wgt>
<wgt id='1420'> +2.7325653E+03 </wgt>
<wgt id='1421'> +2.7974644E+03 </wgt>
<wgt id='1422'> +2.7973858E+03 </wgt>
<wgt id='1423'> +2.7529079E+03 </wgt>
<wgt id='1424'> +2.7623745E+03 </wgt>
<wgt id='1425'> +2.8003317E+03 </wgt>
<wgt id='1426'> +2.7755145E+03 </wgt>
<wgt id='1427'> +2.7671198E+03 </wgt>
<wgt id='1428'> +2.7694070E+03 </wgt>
<wgt id='1429'> +2.7740151E+03 </wgt>
<wgt id='1430'> +2.9601789E+03 </wgt>
<wgt id='1431'> +2.9633248E+03 </wgt>
<wgt id='1432'> +2.9561863E+03 </wgt>
<wgt id='1433'> +2.9638230E+03 </wgt>
<wgt id='1434'> +2.9565720E+03 </wgt>
<wgt id='1435'> +2.9443747E+03 </wgt>
<wgt id='1436'> +2.9666382E+03 </wgt>
<wgt id='1437'> +2.9424359E+03 </wgt>
<wgt id='1438'> +2.9778853E+03 </wgt>
<wgt id='1439'> +2.9579455E+03 </wgt>
<wgt id='1440'> +2.9625058E+03 </wgt>
<wgt id='1441'> +2.9538754E+03 </wgt>
<wgt id='1442'> +2.9630393E+03 </wgt>
<wgt id='1443'> +2.9582905E+03 </wgt>
<wgt id='1444'> +2.9626222E+03 </wgt>
<wgt id='1445'> +2.9522644E+03 </wgt>
<wgt id='1446'> +2.9688538E+03 </wgt>
<wgt id='1447'> +2.9609279E+03 </wgt>
<wgt id='1448'> +2.9593508E+03 </wgt>
<wgt id='1449'> +2.9581586E+03 </wgt>
<wgt id='1450'> +2.9626145E+03 </wgt>
<wgt id='1451'> +2.9693218E+03 </wgt>
<wgt id='1452'> +2.9537153E+03 </wgt>
<wgt id='1453'> +2.9509374E+03 </wgt>
<wgt id='1454'> +2.9656822E+03 </wgt>
<wgt id='1455'> +2.9471466E+03 </wgt>
<wgt id='1456'> +2.9917960E+03 </wgt>
<wgt id='1457'> +2.9756646E+03 </wgt>
<wgt id='1458'> +2.9566598E+03 </wgt>
<wgt id='1459'> +2.9492124E+03 </wgt>
<wgt id='1460'> +2.9837037E+03 </wgt>
<wgt id='1461'> +2.9610754E+03 </wgt>
<wgt id='1462'> +2.9605493E+03 </wgt>
<wgt id='1463'> +2.9516967E+03 </wgt>
<wgt id='1464'> +2.9807984E+03 </wgt>
<wgt id='1465'> +3.0068002E+03 </wgt>
<wgt id='1466'> +2.9424156E+03 </wgt>
<wgt id='1467'> +2.9594975E+03 </wgt>
<wgt id='1468'> +2.9665482E+03 </wgt>
<wgt id='1469'> +2.9643734E+03 </wgt>
<wgt id='1470'> +2.9564540E+03 </wgt>
<wgt id='1471'> +2.9807428E+03 </wgt>
<wgt id='1472'> +2.9103948E+03 </wgt>
<wgt id='1473'> +2.9650106E+03 </wgt>
<wgt id='1474'> +2.9271053E+03 </wgt>
<wgt id='1475'> +2.9442392E+03 </wgt>
<wgt id='1476'> +2.9758094E+03 </wgt>
<wgt id='1477'> +2.9820159E+03 </wgt>
<wgt id='1478'> +2.9513929E+03 </wgt>
<wgt id='1479'> +2.9673625E+03 </wgt>
<wgt id='1480'> +2.9573565E+03 </wgt>
<wgt id='1481'> +2.4661514E+03 </wgt>
<wgt id='1482'> +2.8378991E+03 </wgt>
<wgt id='1483'> +2.8374324E+03 </wgt>
<wgt id='1484'> +2.8371037E+03 </wgt>
<wgt id='1485'> +2.8389944E+03 </wgt>
<wgt id='1486'> +2.8379709E+03 </wgt>
<wgt id='1487'> +2.8413371E+03 </wgt>
<wgt id='1488'> +2.8264385E+03 </wgt>
<wgt id='1489'> +2.8391189E+03 </wgt>
<wgt id='1490'> +2.8330963E+03 </wgt>
<wgt id='1491'> +2.8320736E+03 </wgt>
<wgt id='1492'> +2.8463524E+03 </wgt>
<wgt id='1493'> +2.8361150E+03 </wgt>
<wgt id='1494'> +2.8357181E+03 </wgt>
<wgt id='1495'> +2.8409578E+03 </wgt>
<wgt id='1496'> +2.8338880E+03 </wgt>
<wgt id='1497'> +2.8414344E+03 </wgt>
<wgt id='1498'> +2.8377255E+03 </wgt>
<wgt id='1499'> +2.8374864E+03 </wgt>
<wgt id='1500'> +2.8410912E+03 </wgt>
<wgt id='1501'> +2.8392277E+03 </wgt>
<wgt id='1502'> +2.8277888E+03 </wgt>
<wgt id='1503'> +2.8337622E+03 </wgt>
<wgt id='1504'> +2.8325236E+03 </wgt>
<wgt id='1505'> +2.8422785E+03 </wgt>
<wgt id='1506'> +2.8435152E+03 </wgt>
<wgt id='1507'> +2.8469165E+03 </wgt>
<wgt id='1508'> +2.8354112E+03 </wgt>
<wgt id='1509'> +2.8405116E+03 </wgt>
<wgt id='1510'> +2.8307446E+03 </wgt>
<wgt id='1511'> +2.8212498E+03 </wgt>
<wgt id='1512'> +2.7611165E+03 </wgt>
<wgt id='1513'> +2.7568077E+03 </wgt>
<wgt id='1514'> +2.7518823E+03 </wgt>
<wgt id='1515'> +2.7905622E+03 </wgt>
<wgt id='1516'> +2.7547368E+03 </wgt>
<wgt id='1517'> +2.7626063E+03 </wgt>
<wgt id='1518'> +2.7425986E+03 </wgt>
<wgt id='1519'> +2.7697180E+03 </wgt>
<wgt id='1520'> +2.7839825E+03 </wgt>
<wgt id='1521'> +2.7716053E+03 </wgt>
<wgt id='1522'> +2.7710816E+03 </wgt>
<wgt id='1523'> +2.7435563E+03 </wgt>
<wgt id='1524'> +2.7446404E+03 </wgt>
<wgt id='1525'> +2.7398954E+03 </wgt>
<wgt id='1526'> +2.7593867E+03 </wgt>
<wgt id='1527'> +2.7482327E+03 </wgt>
<wgt id='1528'> +2.7546753E+03 </wgt>
<wgt id='1529'> +2.7584471E+03 </wgt>
<wgt id='1530'> +2.7885887E+03 </wgt>
<wgt id='1531'> +2.7507191E+03 </wgt>
<wgt id='1532'> +2.7782805E+03 </wgt>
<wgt id='1533'> +2.7584217E+03 </wgt>
<wgt id='1534'> +2.7601097E+03 </wgt>
<wgt id='1535'> +2.7690411E+03 </wgt>
<wgt id='1536'> +2.7561354E+03 </wgt>
<wgt id='1537'> +2.7645877E+03 </wgt>
<wgt id='1538'> +2.7553748E+03 </wgt>
<wgt id='1539'> +2.7598422E+03 </wgt>
<wgt id='1540'> +2.7573644E+03 </wgt>
<wgt id='1541'> +2.7563989E+03 </wgt>
<wgt id='1542'> +2.7506857E+03 </wgt>
<wgt id='1543'> +2.7646897E+03 </wgt>
<wgt id='1544'> +2.7554449E+03 </wgt>
<wgt id='1545'> +2.7415198E+03 </wgt>
<wgt id='1546'> +2.7639415E+03 </wgt>
<wgt id='1547'> +2.7636405E+03 </wgt>
<wgt id='1548'> +2.7600244E+03 </wgt>
<wgt id='1549'> +2.7553620E+03 </wgt>
<wgt id='1550'> +2.7652506E+03 </wgt>
<wgt id='1551'> +2.7674241E+03 </wgt>
<wgt id='1552'> +2.7626885E+03 </wgt>
<wgt id='1553'> +2.7652490E+03 </wgt>
<wgt id='1554'> +2.7611728E+03 </wgt>
<wgt id='1555'> +2.7605592E+03 </wgt>
<wgt id='1556'> +2.7651428E+03 </wgt>
<wgt id='1557'> +2.7621173E+03 </wgt>
<wgt id='1558'> +2.7611800E+03 </wgt>
<wgt id='1559'> +2.7525136E+03 </wgt>
<wgt id='1560'> +2.7616457E+03 </wgt>
<wgt id='1561'> +2.7609844E+03 </wgt>
<wgt id='1562'> +2.7626083E+03 </wgt>
<wgt id='1563'> +2.7603317E+03 </wgt>
<wgt id='1564'> +2.7651110E+03 </wgt>
<wgt id='1565'> +2.7635458E+03 </wgt>
<wgt id='1566'> +2.7602400E+03 </wgt>
<wgt id='1567'> +2.7642876E+03 </wgt>
<wgt id='1568'> +2.7615713E+03 </wgt>
<wgt id='1569'> +2.7614702E+03 </wgt>
<wgt id='1570'> +2.7650604E+03 </wgt>
<wgt id='1571'> +2.7611236E+03 </wgt>
<wgt id='1572'> +2.7580931E+03 </wgt>
<wgt id='1573'> +2.7631011E+03 </wgt>
<wgt id='1574'> +2.7613431E+03 </wgt>
<wgt id='1575'> +2.7606873E+03 </wgt>
<wgt id='1576'> +2.7633893E+03 </wgt>
<wgt id='1577'> +2.7609016E+03 </wgt>
<wgt id='1578'> +2.7615874E+03 </wgt>
<wgt id='1579'> +2.7623820E+03 </wgt>
<wgt id='1580'> +2.7620252E+03 </wgt>
<wgt id='1581'> +2.7616527E+03 </wgt>
<wgt id='1582'> +2.7573776E+03 </wgt>
<wgt id='1583'> +2.7606567E+03 </wgt>
<wgt id='1584'> +2.7627811E+03 </wgt>
<wgt id='1585'> +2.7610373E+03 </wgt>
<wgt id='1586'> +2.7605134E+03 </wgt>
<wgt id='1587'> +2.7593255E+03 </wgt>
<wgt id='1588'> +2.7621501E+03 </wgt>
<wgt id='1589'> +2.7618267E+03 </wgt>
<wgt id='1590'> +2.7609822E+03 </wgt>
<wgt id='1591'> +2.7615554E+03 </wgt>
<wgt id='1592'> +2.7612602E+03 </wgt>
<wgt id='1593'> +2.7627092E+03 </wgt>
<wgt id='1594'> +2.7609259E+03 </wgt>
<wgt id='1595'> +2.7605012E+03 </wgt>
<wgt id='1596'> +2.7618162E+03 </wgt>
<wgt id='1597'> +2.7601152E+03 </wgt>
<wgt id='1598'> +2.7615460E+03 </wgt>
<wgt id='1599'> +2.7610515E+03 </wgt>
<wgt id='1600'> +2.7614898E+03 </wgt>
<wgt id='1601'> +2.7601571E+03 </wgt>
<wgt id='1602'> +2.7615750E+03 </wgt>
<wgt id='1603'> +2.7607601E+03 </wgt>
<wgt id='1604'> +2.7601071E+03 </wgt>
<wgt id='1605'> +2.7612693E+03 </wgt>
<wgt id='1606'> +2.7607754E+03 </wgt>
<wgt id='1607'> +2.7620083E+03 </wgt>
<wgt id='1608'> +2.7599085E+03 </wgt>
<wgt id='1609'> +2.7615183E+03 </wgt>
<wgt id='1610'> +2.7613837E+03 </wgt>
<wgt id='1611'> +2.7603965E+03 </wgt>
<wgt id='1612'> +2.7614560E+03 </wgt>
<wgt id='1613'> +2.7331778E+03 </wgt>
<wgt id='1614'> +2.7904579E+03 </wgt>
<wgt id='1615'> +2.9086859E+03 </wgt>
<wgt id='1616'> +2.9269390E+03 </wgt>
<wgt id='1617'> +2.9041200E+03 </wgt>
<wgt id='1618'> +2.9128561E+03 </wgt>
<wgt id='1619'> +2.9237264E+03 </wgt>
<wgt id='1620'> +2.9328308E+03 </wgt>
<wgt id='1621'> +2.9207866E+03 </wgt>
<wgt id='1622'> +2.9143323E+03 </wgt>
<wgt id='1623'> +2.9103390E+03 </wgt>
<wgt id='1624'> +2.8924484E+03 </wgt>
<wgt id='1625'> +2.9186177E+03 </wgt>
<wgt id='1626'> +2.9197178E+03 </wgt>
<wgt id='1627'> +2.8973857E+03 </wgt>
<wgt id='1628'> +2.9077697E+03 </wgt>
<wgt id='1629'> +2.8864785E+03 </wgt>
<wgt id='1630'> +2.9638532E+03 </wgt>
<wgt id='1631'> +2.8914045E+03 </wgt>
<wgt id='1632'> +2.9130737E+03 </wgt>
<wgt id='1633'> +2.9151810E+03 </wgt>
<wgt id='1634'> +2.8787037E+03 </wgt>
<wgt id='1635'> +2.9164950E+03 </wgt>
<wgt id='1636'> +2.9133738E+03 </wgt>
<wgt id='1637'> +2.8932651E+03 </wgt>
<wgt id='1638'> +2.9131633E+03 </wgt>
<wgt id='1639'> +2.9033453E+03 </wgt>
<wgt id='1640'> +2.9123244E+03 </wgt>
<wgt id='1641'> +2.9041470E+03 </wgt>
<wgt id='1642'> +2.9039482E+03 </wgt>
<wgt id='1643'> +2.9112044E+03 </wgt>
<wgt id='1644'> +2.9160277E+03 </wgt>
<wgt id='1645'> +2.9174245E+03 </wgt>
<wgt id='1646'> +2.9126287E+03 </wgt>
<wgt id='1647'> +2.9191063E+03 </wgt>
<wgt id='1648'> +2.9325921E+03 </wgt>
<wgt id='1649'> +2.9171867E+03 </wgt>
<wgt id='1650'> +2.9109344E+03 </wgt>
<wgt id='1651'> +2.9074626E+03 </wgt>
<wgt id='1652'> +2.9008626E+03 </wgt>
<wgt id='1653'> +2.9068247E+03 </wgt>
<wgt id='1654'> +2.9132651E+03 </wgt>
<wgt id='1655'> +2.9091271E+03 </wgt>
<wgt id='1656'> +2.9131812E+03 </wgt>
<wgt id='1657'> +2.9092076E+03 </wgt>
<wgt id='1658'> +2.9067098E+03 </wgt>
<wgt id='1659'> +2.9052867E+03 </wgt>
<wgt id='1660'> +2.9042697E+03 </wgt>
<wgt id='1661'> +2.9026113E+03 </wgt>
<wgt id='1662'> +2.9058492E+03 </wgt>
<wgt id='1663'> +2.9104589E+03 </wgt>
<wgt id='1664'> +2.9099056E+03 </wgt>
<wgt id='1665'> +2.9092195E+03 </wgt>
<wgt id='1666'> +2.9054143E+03 </wgt>
<wgt id='1667'> +2.9044884E+03 </wgt>
<wgt id='1668'> +2.9123416E+03 </wgt>
<wgt id='1669'> +2.9056245E+03 </wgt>
<wgt id='1670'> +2.9115476E+03 </wgt>
<wgt id='1671'> +2.9134731E+03 </wgt>
<wgt id='1672'> +2.9084227E+03 </wgt>
<wgt id='1673'> +2.9097826E+03 </wgt>
<wgt id='1674'> +2.9058772E+03 </wgt>
<wgt id='1675'> +2.9073577E+03 </wgt>
<wgt id='1676'> +2.9101862E+03 </wgt>
<wgt id='1677'> +2.9101223E+03 </wgt>
<wgt id='1678'> +2.9091613E+03 </wgt>
<wgt id='1679'> +2.9102641E+03 </wgt>
<wgt id='1680'> +2.9095178E+03 </wgt>
<wgt id='1681'> +2.9078230E+03 </wgt>
<wgt id='1682'> +2.9095797E+03 </wgt>
<wgt id='1683'> +2.9110492E+03 </wgt>
<wgt id='1684'> +2.9079092E+03 </wgt>
<wgt id='1685'> +2.9083549E+03 </wgt>
<wgt id='1686'> +2.9105672E+03 </wgt>
<wgt id='1687'> +2.9087648E+03 </wgt>
<wgt id='1688'> +2.9081148E+03 </wgt>
<wgt id='1689'> +2.9095597E+03 </wgt>
<wgt id='1690'> +2.9101211E+03 </wgt>
<wgt id='1691'> +2.9085066E+03 </wgt>
<wgt id='1692'> +2.9074688E+03 </wgt>
<wgt id='1693'> +2.9082189E+03 </wgt>
<wgt id='1694'> +2.9071841E+03 </wgt>
<wgt id='1695'> +2.9101963E+03 </wgt>
<wgt id='1696'> +2.9074033E+03 </wgt>
<wgt id='1697'> +2.9089990E+03 </wgt>
<wgt id='1698'> +2.9072338E+03 </wgt>
<wgt id='1699'> +2.9078494E+03 </wgt>
<wgt id='1700'> +2.9082374E+03 </wgt>
<wgt id='1701'> +2.9082886E+03 </wgt>
<wgt id='1702'> +2.9082051E+03 </wgt>
<wgt id='1703'> +2.9074582E+03 </wgt>
<wgt id='1704'> +2.9081118E+03 </wgt>
<wgt id='1705'> +2.9081351E+03 </wgt>
<wgt id='1706'> +2.9098109E+03 </wgt>
<wgt id='1707'> +2.9088368E+03 </wgt>
<wgt id='1708'> +2.9086819E+03 </wgt>
<wgt id='1709'> +2.9086111E+03 </wgt>
<wgt id='1710'> +2.9092359E+03 </wgt>
<wgt id='1711'> +2.9089398E+03 </wgt>
<wgt id='1712'> +2.9091288E+03 </wgt>
<wgt id='1713'> +2.9084436E+03 </wgt>
<wgt id='1714'> +2.9083465E+03 </wgt>
<wgt id='1715'> +2.9088885E+03 </wgt>
<wgt id='1716'> +2.8661038E+03 </wgt>
<wgt id='1717'> +2.9317537E+03 </wgt>
<wgt id='1718'> +2.7612420E+03 </wgt>
<wgt id='1719'> +2.7686198E+03 </wgt>
<wgt id='1720'> +2.7461860E+03 </wgt>
<wgt id='1721'> +2.7624153E+03 </wgt>
<wgt id='1722'> +2.8034430E+03 </wgt>
<wgt id='1723'> +2.7812700E+03 </wgt>
<wgt id='1724'> +2.7780910E+03 </wgt>
<wgt id='1725'> +2.7618611E+03 </wgt>
<wgt id='1726'> +2.7675771E+03 </wgt>
<wgt id='1727'> +2.7785414E+03 </wgt>
<wgt id='1728'> +2.7647722E+03 </wgt>
<wgt id='1729'> +2.7450284E+03 </wgt>
<wgt id='1730'> +2.7623709E+03 </wgt>
<wgt id='1731'> +2.7621455E+03 </wgt>
<wgt id='1732'> +2.7234730E+03 </wgt>
<wgt id='1733'> +2.7645933E+03 </wgt>
<wgt id='1734'> +2.7609251E+03 </wgt>
<wgt id='1735'> +2.7486728E+03 </wgt>
<wgt id='1736'> +2.7611220E+03 </wgt>
<wgt id='1737'> +2.7646409E+03 </wgt>
<wgt id='1738'> +2.7606141E+03 </wgt>
<wgt id='1739'> +2.7615840E+03 </wgt>
<wgt id='1740'> +2.7584604E+03 </wgt>
<wgt id='1741'> +2.7601453E+03 </wgt>
<wgt id='1742'> +2.7560120E+03 </wgt>
<wgt id='1743'> +2.7652175E+03 </wgt>
<wgt id='1744'> +2.7585470E+03 </wgt>
<wgt id='1745'> +2.7674075E+03 </wgt>
<wgt id='1746'> +2.7638437E+03 </wgt>
<wgt id='1747'> +2.7746799E+03 </wgt>
<wgt id='1748'> +2.7600649E+03 </wgt>
<wgt id='1749'> +2.7331778E+03 </wgt>
<wgt id='1750'> +2.7904579E+03 </wgt>
<wgt id='1751'> +2.9087864E+03 </wgt>
<wgt id='1752'> +2.9277055E+03 </wgt>
<wgt id='1753'> +2.9735207E+03 </wgt>
<wgt id='1754'> +2.9075466E+03 </wgt>
<wgt id='1755'> +2.8790309E+03 </wgt>
<wgt id='1756'> +2.8966245E+03 </wgt>
<wgt id='1757'> +2.9094235E+03 </wgt>
<wgt id='1758'> +2.9057709E+03 </wgt>
<wgt id='1759'> +2.9155271E+03 </wgt>
<wgt id='1760'> +2.8986296E+03 </wgt>
<wgt id='1761'> +2.9232238E+03 </wgt>
<wgt id='1762'> +2.8958079E+03 </wgt>
<wgt id='1763'> +2.9070639E+03 </wgt>
<wgt id='1764'> +2.9059514E+03 </wgt>
<wgt id='1765'> +2.9062609E+03 </wgt>
<wgt id='1766'> +2.9132188E+03 </wgt>
<wgt id='1767'> +2.9105312E+03 </wgt>
<wgt id='1768'> +2.9020307E+03 </wgt>
<wgt id='1769'> +2.9093088E+03 </wgt>
<wgt id='1770'> +2.9156003E+03 </wgt>
<wgt id='1771'> +2.8671900E+03 </wgt>
<wgt id='1772'> +2.9054820E+03 </wgt>
<wgt id='1773'> +2.9170544E+03 </wgt>
<wgt id='1774'> +2.9073609E+03 </wgt>
<wgt id='1775'> +2.9083186E+03 </wgt>
<wgt id='1776'> +2.9036510E+03 </wgt>
<wgt id='1777'> +2.9093849E+03 </wgt>
<wgt id='1778'> +2.9085791E+03 </wgt>
<wgt id='1779'> +2.9069963E+03 </wgt>
<wgt id='1780'> +2.9063521E+03 </wgt>
<wgt id='1781'> +2.9103982E+03 </wgt>
<wgt id='1782'> +2.8661038E+03 </wgt>
<wgt id='1783'> +2.9317537E+03 </wgt>
<wgt id='1784'> +3.1819752E+03 </wgt>
<wgt id='1785'> +3.1881125E+03 </wgt>
<wgt id='1786'> +3.1758811E+03 </wgt>
<wgt id='1787'> +3.1825873E+03 </wgt>
<wgt id='1788'> +3.1813524E+03 </wgt>
<wgt id='1789'> +3.1845074E+03 </wgt>
<wgt id='1790'> +3.1794197E+03 </wgt>
<wgt id='1791'> +3.1696102E+03 </wgt>
<wgt id='1792'> +3.1939595E+03 </wgt>
<wgt id='1793'> +3.1939417E+03 </wgt>
<wgt id='1794'> +3.1699632E+03 </wgt>
<wgt id='1795'> +3.1891530E+03 </wgt>
<wgt id='1796'> +3.1730083E+03 </wgt>
<wgt id='1797'> +3.1758060E+03 </wgt>
<wgt id='1798'> +3.1878990E+03 </wgt>
<wgt id='1799'> +3.1773145E+03 </wgt>
<wgt id='1800'> +3.1911785E+03 </wgt>
<wgt id='1801'> +3.1752911E+03 </wgt>
<wgt id='1802'> +3.1830746E+03 </wgt>
<wgt id='1803'> +3.1793010E+03 </wgt>
<wgt id='1804'> +3.1865494E+03 </wgt>
<wgt id='1805'> +3.1934617E+03 </wgt>
<wgt id='1806'> +3.1670437E+03 </wgt>
<wgt id='1807'> +3.1658789E+03 </wgt>
<wgt id='1808'> +3.1860979E+03 </wgt>
<wgt id='1809'> +3.1964707E+03 </wgt>
<wgt id='1810'> +3.1720046E+03 </wgt>
<wgt id='1811'> +3.1654017E+03 </wgt>
<wgt id='1812'> +3.1951684E+03 </wgt>
<wgt id='1813'> +3.1819752E+03 </wgt>
<wgt id='1814'> +3.2210259E+03 </wgt>
<wgt id='1815'> +3.1347264E+03 </wgt>
<wgt id='1816'> +3.2300358E+03 </wgt>
<wgt id='1817'> +3.1555212E+03 </wgt>
<wgt id='1818'> +3.1991582E+03 </wgt>
<wgt id='1819'> +3.1700833E+03 </wgt>
<wgt id='1820'> +3.1759365E+03 </wgt>
<wgt id='1821'> +3.1881882E+03 </wgt>
<wgt id='1822'> +3.1525438E+03 </wgt>
<wgt id='1823'> +3.2119385E+03 </wgt>
<wgt id='1824'> +3.1794598E+03 </wgt>
<wgt id='1825'> +3.2142328E+03 </wgt>
<wgt id='1826'> +3.0931226E+03 </wgt>
<wgt id='1827'> +3.2602923E+03 </wgt>
<wgt id='1828'> +3.2673807E+03 </wgt>
<wgt id='1829'> +3.2543076E+03 </wgt>
<wgt id='1830'> +3.2605002E+03 </wgt>
<wgt id='1831'> +3.2611446E+03 </wgt>
<wgt id='1832'> +3.2641611E+03 </wgt>
<wgt id='1833'> +3.2574743E+03 </wgt>
<wgt id='1834'> +3.2472045E+03 </wgt>
<wgt id='1835'> +3.2738127E+03 </wgt>
<wgt id='1836'> +3.2709090E+03 </wgt>
<wgt id='1837'> +3.2503813E+03 </wgt>
<wgt id='1838'> +3.2613515E+03 </wgt>
<wgt id='1839'> +3.2602360E+03 </wgt>
<wgt id='1840'> +3.2509072E+03 </wgt>
<wgt id='1841'> +3.2709651E+03 </wgt>
<wgt id='1842'> +3.2606806E+03 </wgt>
<wgt id='1843'> +3.2680017E+03 </wgt>
<wgt id='1844'> +3.2596067E+03 </wgt>
<wgt id='1845'> +3.2612839E+03 </wgt>
<wgt id='1846'> +3.2654950E+03 </wgt>
<wgt id='1847'> +3.2558095E+03 </wgt>
<wgt id='1848'> +3.2358929E+03 </wgt>
<wgt id='1849'> +3.2818873E+03 </wgt>
<wgt id='1850'> +3.2630862E+03 </wgt>
<wgt id='1851'> +3.2592013E+03 </wgt>
<wgt id='1852'> +3.2504542E+03 </wgt>
<wgt id='1853'> +3.2645325E+03 </wgt>
<wgt id='1854'> +3.2538489E+03 </wgt>
<wgt id='1855'> +3.2649747E+03 </wgt>
<wgt id='1856'> +3.2602923E+03 </wgt>
<wgt id='1857'> +3.3031600E+03 </wgt>
<wgt id='1858'> +3.2026975E+03 </wgt>
<wgt id='1859'> +3.3122880E+03 </wgt>
<wgt id='1860'> +3.2309042E+03 </wgt>
<wgt id='1861'> +3.2610360E+03 </wgt>
<wgt id='1862'> +3.2435216E+03 </wgt>
<wgt id='1863'> +3.2544508E+03 </wgt>
<wgt id='1864'> +3.2726154E+03 </wgt>
<wgt id='1865'> +3.2062068E+03 </wgt>
<wgt id='1866'> +3.2856782E+03 </wgt>
<wgt id='1867'> +3.2254674E+03 </wgt>
<wgt id='1868'> +3.3144192E+03 </wgt>
<wgt id='1869'> +3.2029283E+03 </wgt>
<wgt id='1870'> +2.7519089E+03 </wgt>
<wgt id='1871'> +2.7510848E+03 </wgt>
<wgt id='1872'> +2.7502443E+03 </wgt>
<wgt id='1873'> +2.7493886E+03 </wgt>
<wgt id='1874'> +2.7485573E+03 </wgt>
<wgt id='1875'> +2.7477168E+03 </wgt>
<wgt id='1876'> +2.7468751E+03 </wgt>
<wgt id='1877'> +2.7460323E+03 </wgt>
<wgt id='1878'> +2.7451904E+03 </wgt>
<wgt id='1879'> +2.7443677E+03 </wgt>
<wgt id='1880'> +2.7435284E+03 </wgt>
<wgt id='1881'> +2.7426827E+03 </wgt>
<wgt id='1882'> +2.7418436E+03 </wgt>
<wgt id='1883'> +2.7410050E+03 </wgt>
<wgt id='1884'> +2.7401696E+03 </wgt>
<wgt id='1885'> +2.7393198E+03 </wgt>
<wgt id='1886'> +2.7384986E+03 </wgt>
<wgt id='1887'> +2.7376641E+03 </wgt>
<wgt id='1888'> +2.7368246E+03 </wgt>
<wgt id='1889'> +2.7359770E+03 </wgt>
<wgt id='1890'> +2.7351377E+03 </wgt>
<wgt id='1891'> +2.7343036E+03 </wgt>
<wgt id='1892'> +2.7334714E+03 </wgt>
<wgt id='1893'> +2.7326167E+03 </wgt>
<wgt id='1894'> +2.7317986E+03 </wgt>
<wgt id='1895'> +2.7309615E+03 </wgt>
<wgt id='1896'> +2.7301278E+03 </wgt>
<wgt id='1897'> +2.7292762E+03 </wgt>
<wgt id='1898'> +2.7284448E+03 </wgt>
<wgt id='1899'> +2.7276067E+03 </wgt>
<wgt id='1900'> +2.7267709E+03 </wgt>
<wgt id='1901'> +2.8975471E+03 </wgt>
<wgt id='1902'> +2.9150231E+03 </wgt>
<wgt id='1903'> +2.8928379E+03 </wgt>
<wgt id='1904'> +2.9017163E+03 </wgt>
<wgt id='1905'> +2.9123570E+03 </wgt>
<wgt id='1906'> +2.9215812E+03 </wgt>
<wgt id='1907'> +2.9101203E+03 </wgt>
<wgt id='1908'> +2.9036660E+03 </wgt>
<wgt id='1909'> +2.8992097E+03 </wgt>
<wgt id='1910'> +2.8813887E+03 </wgt>
<wgt id='1911'> +2.9072872E+03 </wgt>
<wgt id='1912'> +2.9092928E+03 </wgt>
<wgt id='1913'> +2.8866820E+03 </wgt>
<wgt id='1914'> +2.8969097E+03 </wgt>
<wgt id='1915'> +2.8753343E+03 </wgt>
<wgt id='1916'> +2.9516878E+03 </wgt>
<wgt id='1917'> +2.8810513E+03 </wgt>
<wgt id='1918'> +2.9016364E+03 </wgt>
<wgt id='1919'> +2.9038235E+03 </wgt>
<wgt id='1920'> +2.8681016E+03 </wgt>
<wgt id='1921'> +2.9058440E+03 </wgt>
<wgt id='1922'> +2.9019313E+03 </wgt>
<wgt id='1923'> +2.8820267E+03 </wgt>
<wgt id='1924'> +2.9022818E+03 </wgt>
<wgt id='1925'> +2.8919277E+03 </wgt>
<wgt id='1926'> +2.9006405E+03 </wgt>
<wgt id='1927'> +2.8925204E+03 </wgt>
<wgt id='1928'> +2.8933807E+03 </wgt>
<wgt id='1929'> +2.9002726E+03 </wgt>
<wgt id='1930'> +2.9045509E+03 </wgt>
<wgt id='1931'> +2.9059588E+03 </wgt>
<wgt id='1932'> +2.9020675E+03 </wgt>
<wgt id='1933'> +2.9077108E+03 </wgt>
<wgt id='1934'> +2.9211614E+03 </wgt>
<wgt id='1935'> +2.9060002E+03 </wgt>
<wgt id='1936'> +2.8996103E+03 </wgt>
<wgt id='1937'> +2.8963802E+03 </wgt>
<wgt id='1938'> +2.8897630E+03 </wgt>
<wgt id='1939'> +2.8956442E+03 </wgt>
<wgt id='1940'> +2.9018701E+03 </wgt>
<wgt id='1941'> +2.8980006E+03 </wgt>
<wgt id='1942'> +2.9019076E+03 </wgt>
<wgt id='1943'> +2.8980120E+03 </wgt>
<wgt id='1944'> +2.8958569E+03 </wgt>
<wgt id='1945'> +2.8941142E+03 </wgt>
<wgt id='1946'> +2.8930830E+03 </wgt>
<wgt id='1947'> +2.8916636E+03 </wgt>
<wgt id='1948'> +2.8946114E+03 </wgt>
<wgt id='1949'> +2.8994267E+03 </wgt>
<wgt id='1950'> +2.8987001E+03 </wgt>
<wgt id='1951'> +2.8981368E+03 </wgt>
<wgt id='1952'> +2.8942382E+03 </wgt>
<wgt id='1953'> +2.8933503E+03 </wgt>
<wgt id='1954'> +2.9011877E+03 </wgt>
<wgt id='1955'> +2.8945771E+03 </wgt>
<wgt id='1956'> +2.9004478E+03 </wgt>
<wgt id='1957'> +2.9021378E+03 </wgt>
<wgt id='1958'> +2.8973106E+03 </wgt>
<wgt id='1959'> +2.8987853E+03 </wgt>
<wgt id='1960'> +2.8948419E+03 </wgt>
<wgt id='1961'> +2.8963187E+03 </wgt>
<wgt id='1962'> +2.8990668E+03 </wgt>
<wgt id='1963'> +2.8989327E+03 </wgt>
<wgt id='1964'> +2.8979325E+03 </wgt>
<wgt id='1965'> +2.8991932E+03 </wgt>
<wgt id='1966'> +2.8983527E+03 </wgt>
<wgt id='1967'> +2.8966720E+03 </wgt>
<wgt id='1968'> +2.8983650E+03 </wgt>
<wgt id='1969'> +2.8999064E+03 </wgt>
<wgt id='1970'> +2.8966899E+03 </wgt>
<wgt id='1971'> +2.8971847E+03 </wgt>
<wgt id='1972'> +2.8994568E+03 </wgt>
<wgt id='1973'> +2.8975708E+03 </wgt>
<wgt id='1974'> +2.8969427E+03 </wgt>
<wgt id='1975'> +2.8984152E+03 </wgt>
<wgt id='1976'> +2.8989842E+03 </wgt>
<wgt id='1977'> +2.8974883E+03 </wgt>
<wgt id='1978'> +2.8963444E+03 </wgt>
<wgt id='1979'> +2.8971583E+03 </wgt>
<wgt id='1980'> +2.8960569E+03 </wgt>
<wgt id='1981'> +2.8989468E+03 </wgt>
<wgt id='1982'> +2.8963690E+03 </wgt>
<wgt id='1983'> +2.8978927E+03 </wgt>
<wgt id='1984'> +2.8961063E+03 </wgt>
<wgt id='1985'> +2.8966745E+03 </wgt>
<wgt id='1986'> +2.8971354E+03 </wgt>
<wgt id='1987'> +2.8972724E+03 </wgt>
<wgt id='1988'> +2.8970297E+03 </wgt>
<wgt id='1989'> +2.8962657E+03 </wgt>
<wgt id='1990'> +2.8969041E+03 </wgt>
<wgt id='1991'> +2.8969677E+03 </wgt>
<wgt id='1992'> +2.8985845E+03 </wgt>
<wgt id='1993'> +2.8976259E+03 </wgt>
<wgt id='1994'> +2.8975527E+03 </wgt>
<wgt id='1995'> +2.8973834E+03 </wgt>
<wgt id='1996'> +2.8980882E+03 </wgt>
<wgt id='1997'> +2.8978323E+03 </wgt>
<wgt id='1998'> +2.8979883E+03 </wgt>
<wgt id='1999'> +2.8972902E+03 </wgt>
<wgt id='2000'> +2.8972420E+03 </wgt>
<wgt id='2001'> +2.8977753E+03 </wgt>
<wgt id='2002'> +2.8975379E+03 </wgt>
<wgt id='2003'> +2.8974892E+03 </wgt>
<wgt id='2004'> +2.8975561E+03 </wgt>
<wgt id='2005'> +2.8975579E+03 </wgt>
<wgt id='2006'> +2.8975740E+03 </wgt>
<wgt id='2007'> +2.8975509E+03 </wgt>
<wgt id='2008'> +2.8975090E+03 </wgt>
<wgt id='2009'> +2.7411796E+03 </wgt>
<wgt id='2010'> +2.6033589E+03 </wgt>
<wgt id='2011'> +2.7673443E+03 </wgt>
<wgt id='2012'> +2.8224958E+03 </wgt>
<wgt id='2013'> +2.7981298E+03 </wgt>
<wgt id='2014'> +2.4526414E+03 </wgt>
<wgt id='2015'> +2.6269275E+03 </wgt>
<wgt id='2016'> +2.7873222E+03 </wgt>
<wgt id='2017'> +2.7328264E+03 </wgt>
<wgt id='2018'> +2.7284132E+03 </wgt>
<wgt id='2019'> +2.7308904E+03 </wgt>
<wgt id='2020'> +2.7277556E+03 </wgt>
<wgt id='2021'> +2.6778983E+03 </wgt>
<wgt id='2022'> +2.7713558E+03 </wgt>
<wgt id='2023'> +2.7806019E+03 </wgt>
<wgt id='2024'> +2.7478586E+03 </wgt>
<wgt id='2025'> +2.6539928E+03 </wgt>
<wgt id='2026'> +2.7412815E+03 </wgt>
<wgt id='2027'> +2.6061547E+03 </wgt>
<wgt id='2028'> +2.7931909E+03 </wgt>
<wgt id='2029'> +2.6797926E+03 </wgt>
<wgt id='2030'> +2.8560806E+03 </wgt>
<wgt id='2031'> +2.7587457E+03 </wgt>
<wgt id='2032'> +2.8461795E+03 </wgt>
<wgt id='2033'> +2.7335975E+03 </wgt>
<wgt id='2034'> +2.7607403E+03 </wgt>
<wgt id='2035'> +2.7641941E+03 </wgt>
<wgt id='2036'> +2.6823807E+03 </wgt>
<wgt id='2037'> +2.7687018E+03 </wgt>
<wgt id='2038'> +2.7173693E+03 </wgt>
<wgt id='2039'> +2.7309128E+03 </wgt>
<wgt id='2040'> +2.8286530E+03 </wgt>
<wgt id='2041'> +2.6871610E+03 </wgt>
<wgt id='2042'> +2.7938521E+03 </wgt>
<wgt id='2043'> +2.7033770E+03 </wgt>
<wgt id='2044'> +2.7703245E+03 </wgt>
<wgt id='2045'> +2.7411279E+03 </wgt>
<wgt id='2046'> +2.7116610E+03 </wgt>
<wgt id='2047'> +2.6084786E+03 </wgt>
<wgt id='2048'> +2.6946236E+03 </wgt>
<wgt id='2049'> +2.7761176E+03 </wgt>
<wgt id='2050'> +2.8505090E+03 </wgt>
<wgt id='2051'> +2.7913262E+03 </wgt>
<wgt id='2052'> +2.7541338E+03 </wgt>
<wgt id='2053'> +2.7215862E+03 </wgt>
<wgt id='2054'> +2.8207423E+03 </wgt>
<wgt id='2055'> +2.7213915E+03 </wgt>
<wgt id='2056'> +2.7209360E+03 </wgt>
<wgt id='2057'> +2.7327748E+03 </wgt>
<wgt id='2058'> +2.6125231E+03 </wgt>
<wgt id='2059'> +2.8133697E+03 </wgt>
<wgt id='2060'> +2.7969734E+03 </wgt>
<wgt id='2061'> +2.7053736E+03 </wgt>
<wgt id='2062'> +2.6912490E+03 </wgt>
<wgt id='2063'> +2.7903039E+03 </wgt>
<wgt id='2064'> +2.7659699E+03 </wgt>
<wgt id='2065'> +2.7351238E+03 </wgt>
<wgt id='2066'> +2.7766249E+03 </wgt>
<wgt id='2067'> +2.7960086E+03 </wgt>
<wgt id='2068'> +2.7971270E+03 </wgt>
<wgt id='2069'> +2.7613906E+03 </wgt>
<wgt id='2070'> +2.7224553E+03 </wgt>
<wgt id='2071'> +2.7515551E+03 </wgt>
<wgt id='2072'> +2.6812396E+03 </wgt>
<wgt id='2073'> +2.6735023E+03 </wgt>
<wgt id='2074'> +2.7833311E+03 </wgt>
<wgt id='2075'> +2.7386604E+03 </wgt>
<wgt id='2076'> +2.8980906E+03 </wgt>
<wgt id='2077'> +2.7983138E+03 </wgt>
<wgt id='2078'> +2.7289007E+03 </wgt>
<wgt id='2079'> +2.7109168E+03 </wgt>
<wgt id='2080'> +2.7648574E+03 </wgt>
<wgt id='2081'> +2.6497671E+03 </wgt>
<wgt id='2082'> +2.6198491E+03 </wgt>
<wgt id='2083'> +2.7475681E+03 </wgt>
<wgt id='2084'> +2.7847450E+03 </wgt>
<wgt id='2085'> +2.6434708E+03 </wgt>
<wgt id='2086'> +2.7217627E+03 </wgt>
<wgt id='2087'> +2.7760518E+03 </wgt>
<wgt id='2088'> +2.7023144E+03 </wgt>
<wgt id='2089'> +2.7897194E+03 </wgt>
<wgt id='2090'> +2.8300847E+03 </wgt>
<wgt id='2091'> +2.7605601E+03 </wgt>
<wgt id='2092'> +2.7185650E+03 </wgt>
<wgt id='2093'> +2.7860149E+03 </wgt>
<wgt id='2094'> +2.7379223E+03 </wgt>
<wgt id='2095'> +2.7658348E+03 </wgt>
<wgt id='2096'> +2.8017387E+03 </wgt>
<wgt id='2097'> +2.8012532E+03 </wgt>
<wgt id='2098'> +2.6945198E+03 </wgt>
<wgt id='2099'> +2.8125078E+03 </wgt>
<wgt id='2100'> +2.7634253E+03 </wgt>
<wgt id='2101'> +2.6756402E+03 </wgt>
<wgt id='2102'> +2.6945892E+03 </wgt>
<wgt id='2103'> +2.7964977E+03 </wgt>
<wgt id='2104'> +2.6992495E+03 </wgt>
<wgt id='2105'> +2.7717156E+03 </wgt>
<wgt id='2106'> +2.7799288E+03 </wgt>
<wgt id='2107'> +2.7931641E+03 </wgt>
<wgt id='2108'> +2.7806493E+03 </wgt>
<wgt id='2109'> +2.6442156E+03 </wgt>
<wgt id='2110'> +2.7238620E+03 </wgt>
<wgt id='2111'> +2.7553031E+03 </wgt>
<wgt id='2112'> +2.8667219E+03 </wgt>
<wgt id='2113'> +2.9382649E+03 </wgt>
<wgt id='2114'> +2.9221689E+03 </wgt>
<wgt id='2115'> +2.5594322E+03 </wgt>
<wgt id='2116'> +2.8156851E+03 </wgt>
</rwgt>
</event>
<event>
 6      1 +2.9771057E+03 8.38174900e+01 7.54677100e-03 1.19525200e-01
       -1 -1    0    0    0  501 -0.0000000000e+00 +0.0000000000e+00 +2.7820173438e+01 2.7820173438e+01 0.0000000000e+00 0.0000e+00 1.0000e+00
       21 -1    0    0  501  502 +0.0000000000e+00 -0.0000000000e+00 -8.2556062913e+01 8.2556062913e+01 0.0000000000e+00 0.0000e+00 -1.0000e+00
       24  2    1    2    0    0 -1.0305877016e+01 +6.0858091746e+00 -4.6554448023e+01 9.5878506921e+01 8.2958563659e+01 0.0000e+00 0.0000e+00
      -15  1    3    3    0    0 +2.8735576490e+01 -1.2195111249e+00 +6.5618682268e+00 2.9553957556e+01 1.7770000000e+00 0.0000e+00 1.0000e+00
       16  1    3    3    0    0 -3.9041453506e+01 +7.3053202996e+00 -5.3116316250e+01 6.6324549365e+01 0.0000000000e+00 0.0000e+00 -1.0000e+00
       -2  1    1    2    0  502 +1.0305877016e+01 -6.0858091746e+00 -8.1814414524e+00 1.4497729430e+01 0.0000000000e+00 0.0000e+00 1.0000e+00
<scales pt_clust_4="13000.00000" pt_clust_5="13000.00000" pt_clust_6="11.96863"></scales>
<mgrwt>
<rscale>  0 0.83817489E+02</rscale>
<asrwt>  1 0.11968633E+02</asrwt>
<pdfrwt beam="1">  1       21 0.12700933E-01 0.83817489E+02</pdfrwt>
<pdfrwt beam="2">  1       -1 0.42800267E-02 0.83817489E+02</pdfrwt>
<totfact> 0.17965702E+05</totfact>
</mgrwt>
<clustering>
<clus scale="   11.969">  2  6  1 -1</clus>
<clus scale="   82.959">  4  5 -1 -1</clus>
<clus scale="   83.817">  2  4  1 -1</clus>
</clustering>
<rwgt>
<wgt id='1001'> +2.9771057E+03 </wgt>
<wgt id='1002'> +2.9604570E+03 </wgt>
<wgt id='1003'> +2.9604709E+03 </wgt>
<wgt id='1004'> +2.6477083E+03 </wgt>
<wgt id='1005'> +3.0312223E+03 </wgt>
<wgt id='1006'> +2.9771057E+03 </wgt>
<wgt id='1007'> +2.9604570E+03 </wgt>
<wgt id='1008'> +2.9604709E+03 </wgt>
<wgt id='1009'> +2.6477083E+03 </wgt>
<wgt id='1010'> +3.0312223E+03 </wgt>
<wgt id='1011'> +2.9771057E+03 </wgt>
<wgt id='1012'> +2.9604570E+03 </wgt>
<wgt id='1013'> +2.9604709E+03 </wgt>
<wgt id='1014'> +2.6477083E+03 </wgt>
<wgt id='1015'> +3.0312223E+03 </wgt>
<wgt id='1016'> +3.2382541E+03 </wgt>
<wgt id='1017'> +3.2242528E+03 </wgt>
<wgt id='1018'> +3.2242645E+03 </wgt>
<wgt id='1019'> +2.9604709E+03 </wgt>
<wgt id='1020'> +3.2838026E+03 </wgt>
<wgt id='1021'> +3.2382541E+03 </wgt>
<wgt id='1022'> +3.2242528E+03 </wgt>
<wgt id='1023'> +3.2242645E+03 </wgt>
<wgt id='1024'> +2.9604709E+03 </wgt>
<wgt id='1025'> +3.2838026E+03 </wgt>
<wgt id='1026'> +3.2382541E+03 </wgt>
<wgt id='1027'> +3.2242528E+03 </wgt>
<wgt id='1028'> +3.2242645E+03 </wgt>
<wgt id='1029'> +2.9604709E+03 </wgt>
<wgt id='1030'> +3.2838026E+03 </wgt>
<wgt id='1031'> +2.6673691E+03 </wgt>
<wgt id='1032'> +2.6476918E+03 </wgt>
<wgt id='1033'> +2.6477083E+03 </wgt>
<wgt id='1034'> +2.2793712E+03 </wgt>
<wgt id='1035'> +2.7314084E+03 </wgt>
<wgt id='1036'> +2.6673691E+03 </wgt>
<wgt id='1037'> +2.6476918E+03 </wgt>
<wgt id='1038'> +2.6477083E+03 </wgt>
<wgt id='1039'> +2.2793712E+03 </wgt>
<wgt id='1040'> +2.7314084E+03 </wgt>
<wgt id='1041'> +2.6673691E+03 </wgt>
<wgt id='1042'> +2.6476918E+03 </wgt>
<wgt id='1043'> +2.6477083E+03 </wgt>
<wgt id='1044'> +2.2793712E+03 </wgt>
<wgt id='1045'> +2.7314084E+03 </wgt>
<wgt id='1046'> +2.9771057E+03 </wgt>
<wgt id='1047'> +2.9744917E+03 </wgt>
<wgt id='1048'> +2.9819974E+03 </wgt>
<wgt id='1049'> +2.9809796E+03 </wgt>
<wgt id='1050'> +2.9913293E+03 </wgt>
<wgt id='1051'> +2.9705530E+03 </wgt>
<wgt id='1052'> +2.9622837E+03 </wgt>
<wgt id='1053'> +2.9679230E+03 </wgt>
<wgt id='1054'> +2.9631491E+03 </wgt>
<wgt id='1055'> +2.9843871E+03 </wgt>
<wgt id='1056'> +2.9643105E+03 </wgt>
<wgt id='1057'> +2.9681771E+03 </wgt>
<wgt id='1058'> +2.9943384E+03 </wgt>
<wgt id='1059'> +2.9848811E+03 </wgt>
<wgt id='1060'> +2.9837563E+03 </wgt>
<wgt id='1061'> +2.9966617E+03 </wgt>
<wgt id='1062'> +2.9848180E+03 </wgt>
<wgt id='1063'> +2.9647441E+03 </wgt>
<wgt id='1064'> +2.9808891E+03 </wgt>
<wgt id='1065'> +2.9623203E+03 </wgt>
<wgt id='1066'> +2.9792963E+03 </wgt>
<wgt id='1067'> +2.9807577E+03 </wgt>
<wgt id='1068'> +2.9808529E+03 </wgt>
<wgt id='1069'> +2.9709888E+03 </wgt>
<wgt id='1070'> +2.9996361E+03 </wgt>
<wgt id='1071'> +2.9762375E+03 </wgt>
<wgt id='1072'> +2.9777552E+03 </wgt>
<wgt id='1073'> +2.9829686E+03 </wgt>
<wgt id='1074'> +2.9820805E+03 </wgt>
<wgt id='1075'> +2.9714364E+03 </wgt>
<wgt id='1076'> +2.9687043E+03 </wgt>
<wgt id='1077'> +2.9762988E+03 </wgt>
<wgt id='1078'> +2.9763648E+03 </wgt>
<wgt id='1079'> +2.9851635E+03 </wgt>
<wgt id='1080'> +2.9763216E+03 </wgt>
<wgt id='1081'> +2.9713183E+03 </wgt>
<wgt id='1082'> +2.9806436E+03 </wgt>
<wgt id='1083'> +2.9810669E+03 </wgt>
<wgt id='1084'> +2.9776637E+03 </wgt>
<wgt id='1085'> +2.9737483E+03 </wgt>
<wgt id='1086'> +2.9794637E+03 </wgt>
<wgt id='1087'> +2.9753771E+03 </wgt>
<wgt id='1088'> +2.9714703E+03 </wgt>
<wgt id='1089'> +2.9719802E+03 </wgt>
<wgt id='1090'> +2.9852252E+03 </wgt>
<wgt id='1091'> +2.9779748E+03 </wgt>
<wgt id='1092'> +2.9793418E+03 </wgt>
<wgt id='1093'> +2.9762898E+03 </wgt>
<wgt id='1094'> +2.9757065E+03 </wgt>
<wgt id='1095'> +2.9791266E+03 </wgt>
<wgt id='1096'> +2.9785646E+03 </wgt>
<wgt id='1097'> +2.9740548E+03 </wgt>
<wgt id='1098'> +2.9763267E+03 </wgt>
<wgt id='1099'> +2.9765619E+03 </wgt>
<wgt id='1100'> +2.9732527E+03 </wgt>
<wgt id='1101'> +2.9755294E+03 </wgt>
<wgt id='1102'> +2.9769865E+03 </wgt>
<wgt id='1103'> +2.9811379E+03 </wgt>
<wgt id='1104'> +2.9785090E+03 </wgt>
<wgt id='1105'> +2.9781265E+03 </wgt>
<wgt id='1106'> +2.9774547E+03 </wgt>
<wgt id='1107'> +2.9760690E+03 </wgt>
<wgt id='1108'> +2.9774235E+03 </wgt>
<wgt id='1109'> +2.9765591E+03 </wgt>
<wgt id='1110'> +2.9743309E+03 </wgt>
<wgt id='1111'> +2.9785384E+03 </wgt>
<wgt id='1112'> +2.9773276E+03 </wgt>
<wgt id='1113'> +2.9749236E+03 </wgt>
<wgt id='1114'> +2.9770966E+03 </wgt>
<wgt id='1115'> +2.9788685E+03 </wgt>
<wgt id='1116'> +2.9780631E+03 </wgt>
<wgt id='1117'> +2.9772857E+03 </wgt>
<wgt id='1118'> +2.9745251E+03 </wgt>
<wgt id='1119'> +2.9780796E+03 </wgt>
<wgt id='1120'> +2.9756130E+03 </wgt>
<wgt id='1121'> +2.9780229E+03 </wgt>
<wgt id='1122'> +2.9776611E+03 </wgt>
<wgt id='1123'> +2.9766792E+03 </wgt>
<wgt id='1124'> +2.9776308E+03 </wgt>
<wgt id='1125'> +2.9784697E+03 </wgt>
<wgt id='1126'> +2.9779197E+03 </wgt>
<wgt id='1127'> +2.9773046E+03 </wgt>
<wgt id='1128'> +2.9781996E+03 </wgt>
<wgt id='1129'> +2.9782233E+03 </wgt>
<wgt id='1130'> +2.9788035E+03 </wgt>
<wgt id='1131'> +2.9762698E+03 </wgt>
<wgt id='1132'> +2.9784161E+03 </wgt>
<wgt id='1133'> +2.9765010E+03 </wgt>
<wgt id='1134'> +2.9780380E+03 </wgt>
<wgt id='1135'> +2.9775837E+03 </wgt>
<wgt id='1136'> +2.9771770E+03 </wgt>
<wgt id='1137'> +2.9774338E+03 </wgt>
<wgt id='1138'> +2.9765712E+03 </wgt>
<wgt id='1139'> +2.9774193E+03 </wgt>
<wgt id='1140'> +2.9773321E+03 </wgt>
<wgt id='1141'> +2.9759081E+03 </wgt>
<wgt id='1142'> +2.9760956E+03 </wgt>
<wgt id='1143'> +2.9767598E+03 </wgt>
<wgt id='1144'> +2.9767006E+03 </wgt>
<wgt id='1145'> +2.9763066E+03 </wgt>
<wgt id='1146'> +2.9758759E+03 </wgt>
<wgt id='1147'> +2.9270721E+03 </wgt>
<wgt id='1148'> +3.0319975E+03 </wgt>
<wgt id='1149'> +2.7352644E+03 </wgt>
<wgt id='1150'> +2.7672194E+03 </wgt>
<wgt id='1151'> +2.8127975E+03 </wgt>
<wgt id='1152'> +2.8743105E+03 </wgt>
<wgt id='1153'> +2.9620903E+03 </wgt>
<wgt id='1154'> +3.0145875E+03 </wgt>
<wgt id='1155'> +3.0871589E+03 </wgt>
<wgt id='1156'> +3.1321858E+03 </wgt>
<wgt id='1157'> +2.9537443E+03 </wgt>
<wgt id='1158'> +2.9589554E+03 </wgt>
<wgt id='1159'> +2.9521490E+03 </wgt>
<wgt id='1160'> +2.9578253E+03 </wgt>
<wgt id='1161'> +2.9710769E+03 </wgt>
<wgt id='1162'> +2.9655286E+03 </wgt>
<wgt id='1163'> +2.9455249E+03 </wgt>
<wgt id='1164'> +2.9680392E+03 </wgt>
<wgt id='1165'> +2.9568216E+03 </wgt>
<wgt id='1166'> +2.9622902E+03 </wgt>
<wgt id='1167'> +2.9327953E+03 </wgt>
<wgt id='1168'> +2.9510564E+03 </wgt>
<wgt id='1169'> +2.9727654E+03 </wgt>
<wgt id='1170'> +2.9509772E+03 </wgt>
<wgt id='1171'> +2.9627648E+03 </wgt>
<wgt id='1172'> +2.9517492E+03 </wgt>
<wgt id='1173'> +2.9758080E+03 </wgt>
<wgt id='1174'> +2.9556307E+03 </wgt>
<wgt id='1175'> +2.9638848E+03 </wgt>
<wgt id='1176'> +2.9486950E+03 </wgt>
<wgt id='1177'> +2.9487308E+03 </wgt>
<wgt id='1178'> +2.9575243E+03 </wgt>
<wgt id='1179'> +2.9494032E+03 </wgt>
<wgt id='1180'> +2.9375377E+03 </wgt>
<wgt id='1181'> +2.9672076E+03 </wgt>
<wgt id='1182'> +2.9521907E+03 </wgt>
<wgt id='1183'> +2.9572634E+03 </wgt>
<wgt id='1184'> +2.9512160E+03 </wgt>
<wgt id='1185'> +2.9567760E+03 </wgt>
<wgt id='1186'> +2.9577623E+03 </wgt>
<wgt id='1187'> +2.9345483E+03 </wgt>
<wgt id='1188'> +2.9626866E+03 </wgt>
<wgt id='1189'> +2.9521396E+03 </wgt>
<wgt id='1190'> +2.9564405E+03 </wgt>
<wgt id='1191'> +2.9555840E+03 </wgt>
<wgt id='1192'> +2.9610252E+03 </wgt>
<wgt id='1193'> +2.9554937E+03 </wgt>
<wgt id='1194'> +2.9556245E+03 </wgt>
<wgt id='1195'> +2.9564797E+03 </wgt>
<wgt id='1196'> +2.9554275E+03 </wgt>
<wgt id='1197'> +2.9543320E+03 </wgt>
<wgt id='1198'> +2.9539523E+03 </wgt>
<wgt id='1199'> +2.9464155E+03 </wgt>
<wgt id='1200'> +2.9566325E+03 </wgt>
<wgt id='1201'> +2.9545623E+03 </wgt>
<wgt id='1202'> +2.9553486E+03 </wgt>
<wgt id='1203'> +2.9597808E+03 </wgt>
<wgt id='1204'> +2.9568273E+03 </wgt>
<wgt id='1205'> +2.9518382E+03 </wgt>
<wgt id='1206'> +2.9499336E+03 </wgt>
<wgt id='1207'> +2.9561916E+03 </wgt>
<wgt id='1208'> +2.9536689E+03 </wgt>
<wgt id='1209'> +2.9472317E+03 </wgt>
<wgt id='1210'> +2.9512372E+03 </wgt>
<wgt id='1211'> +2.9508138E+03 </wgt>
<wgt id='1212'> +2.9536589E+03 </wgt>
<wgt id='1213'> +2.9533686E+03 </wgt>
<wgt id='1214'> +2.9527488E+03 </wgt>
<wgt id='1215'> +2.9547192E+03 </wgt>
<wgt id='1216'> +2.9556268E+03 </wgt>
<wgt id='1217'> +2.9532519E+03 </wgt>
<wgt id='1218'> +2.9554051E+03 </wgt>
<wgt id='1219'> +2.9567830E+03 </wgt>
<wgt id='1220'> +2.9549313E+03 </wgt>
<wgt id='1221'> +2.9519778E+03 </wgt>
<wgt id='1222'> +2.9534174E+03 </wgt>
<wgt id='1223'> +2.9541314E+03 </wgt>
<wgt id='1224'> +2.9541294E+03 </wgt>
<wgt id='1225'> +2.9517474E+03 </wgt>
<wgt id='1226'> +2.9538898E+03 </wgt>
<wgt id='1227'> +2.9529165E+03 </wgt>
<wgt id='1228'> +2.9530691E+03 </wgt>
<wgt id='1229'> +2.9537312E+03 </wgt>
<wgt id='1230'> +2.9552133E+03 </wgt>
<wgt id='1231'> +2.9548408E+03 </wgt>
<wgt id='1232'> +2.9519995E+03 </wgt>
<wgt id='1233'> +2.9522930E+03 </wgt>
<wgt id='1234'> +2.9546780E+03 </wgt>
<wgt id='1235'> +2.9547223E+03 </wgt>
<wgt id='1236'> +2.9527132E+03 </wgt>
<wgt id='1237'> +2.9539327E+03 </wgt>
<wgt id='1238'> +2.9535197E+03 </wgt>
<wgt id='1239'> +2.9543037E+03 </wgt>
<wgt id='1240'> +2.9551775E+03 </wgt>
<wgt id='1241'> +2.9526329E+03 </wgt>
<wgt id='1242'> +2.9541513E+03 </wgt>
<wgt id='1243'> +2.9534893E+03 </wgt>
<wgt id='1244'> +2.9540512E+03 </wgt>
<wgt id='1245'> +2.9535680E+03 </wgt>
<wgt id='1246'> +2.9534452E+03 </wgt>
<wgt id='1247'> +2.9536296E+03 </wgt>
<wgt id='1248'> +2.9518222E+03 </wgt>
<wgt id='1249'> +2.9529283E+03 </wgt>
<wgt id='1250'> +2.9522885E+03 </wgt>
<wgt id='1251'> +2.9548205E+03 </wgt>
<wgt id='1252'> +2.9539496E+03 </wgt>
<wgt id='1253'> +2.9544038E+03 </wgt>
<wgt id='1254'> +2.9530922E+03 </wgt>
<wgt id='1255'> +2.9539793E+03 </wgt>
<wgt id='1256'> +2.9539458E+03 </wgt>
<wgt id='1257'> +2.9541568E+03 </wgt>
<wgt id='1258'> +2.8990321E+03 </wgt>
<wgt id='1259'> +3.0123444E+03 </wgt>
<wgt id='1260'> +2.8250358E+03 </wgt>
<wgt id='1261'> +2.7882923E+03 </wgt>
<wgt id='1262'> +2.8092615E+03 </wgt>
<wgt id='1263'> +2.8135749E+03 </wgt>
<wgt id='1264'> +2.8416966E+03 </wgt>
<wgt id='1265'> +2.7999101E+03 </wgt>
<wgt id='1266'> +2.8585388E+03 </wgt>
<wgt id='1267'> +2.8293169E+03 </wgt>
<wgt id='1268'> +2.7872676E+03 </wgt>
<wgt id='1269'> +2.8993870E+03 </wgt>
<wgt id='1270'> +2.7801012E+03 </wgt>
<wgt id='1271'> +2.8205108E+03 </wgt>
<wgt id='1272'> +2.8077417E+03 </wgt>
<wgt id='1273'> +2.7703551E+03 </wgt>
<wgt id='1274'> +2.8072082E+03 </wgt>
<wgt id='1275'> +2.8478408E+03 </wgt>
<wgt id='1276'> +2.7476658E+03 </wgt>
<wgt id='1277'> +2.8388035E+03 </wgt>
<wgt id='1278'> +2.8095291E+03 </wgt>
<wgt id='1279'> +2.8444504E+03 </wgt>
<wgt id='1280'> +2.8088235E+03 </wgt>
<wgt id='1281'> +2.8462914E+03 </wgt>
<wgt id='1282'> +2.8116386E+03 </wgt>
<wgt id='1283'> +2.8142522E+03 </wgt>
<wgt id='1284'> +2.8360807E+03 </wgt>
<wgt id='1285'> +2.8242400E+03 </wgt>
<wgt id='1286'> +2.8251850E+03 </wgt>
<wgt id='1287'> +2.8212315E+03 </wgt>
<wgt id='1288'> +2.8277222E+03 </wgt>
<wgt id='1289'> +2.7909556E+03 </wgt>
<wgt id='1290'> +2.8445913E+03 </wgt>
<wgt id='1291'> +2.8145498E+03 </wgt>
<wgt id='1292'> +2.8380359E+03 </wgt>
<wgt id='1293'> +2.8829406E+03 </wgt>
<wgt id='1294'> +2.7674418E+03 </wgt>
<wgt id='1295'> +2.8085498E+03 </wgt>
<wgt id='1296'> +2.8396090E+03 </wgt>
<wgt id='1297'> +2.8527968E+03 </wgt>
<wgt id='1298'> +2.7928556E+03 </wgt>
<wgt id='1299'> +2.8805544E+03 </wgt>
<wgt id='1300'> +2.7722320E+03 </wgt>
<wgt id='1301'> +2.8506010E+03 </wgt>
<wgt id='1302'> +2.8133294E+03 </wgt>
<wgt id='1303'> +2.8636421E+03 </wgt>
<wgt id='1304'> +2.7411978E+03 </wgt>
<wgt id='1305'> +2.8854835E+03 </wgt>
<wgt id='1306'> +2.8216741E+03 </wgt>
<wgt id='1307'> +2.8742703E+03 </wgt>
<wgt id='1308'> +2.8180343E+03 </wgt>
<wgt id='1309'> +2.8034577E+03 </wgt>
<wgt id='1310'> +2.8783562E+03 </wgt>
<wgt id='1311'> +2.8012728E+03 </wgt>
<wgt id='1312'> +2.8692447E+03 </wgt>
<wgt id='1313'> +2.8793169E+03 </wgt>
<wgt id='1314'> +2.9357095E+03 </wgt>
<wgt id='1315'> +2.7989077E+03 </wgt>
<wgt id='1316'> +2.8508588E+03 </wgt>
<wgt id='1317'> +2.7531452E+03 </wgt>
<wgt id='1318'> +2.8930584E+03 </wgt>
<wgt id='1319'> +2.7840087E+03 </wgt>
<wgt id='1320'> +2.8187823E+03 </wgt>
<wgt id='1321'> +2.7409887E+03 </wgt>
<wgt id='1322'> +2.8439876E+03 </wgt>
<wgt id='1323'> +2.7757670E+03 </wgt>
<wgt id='1324'> +2.8304821E+03 </wgt>
<wgt id='1325'> +2.7591792E+03 </wgt>
<wgt id='1326'> +2.8519904E+03 </wgt>
<wgt id='1327'> +2.7642021E+03 </wgt>
<wgt id='1328'> +2.7454719E+03 </wgt>
<wgt id='1329'> +2.8022916E+03 </wgt>
<wgt id='1330'> +2.7875438E+03 </wgt>
<wgt id='1331'> +2.7919804E+03 </wgt>
<wgt id='1332'> +2.6750851E+03 </wgt>
<wgt id='1333'> +2.8382892E+03 </wgt>
<wgt id='1334'> +2.8288653E+03 </wgt>
<wgt id='1335'> +2.7326689E+03 </wgt>
<wgt id='1336'> +2.8221045E+03 </wgt>
<wgt id='1337'> +2.7426086E+03 </wgt>
<wgt id='1338'> +2.8086186E+03 </wgt>
<wgt id='1339'> +2.7548976E+03 </wgt>
<wgt id='1340'> +2.7903774E+03 </wgt>
<wgt id='1341'> +2.7686120E+03 </wgt>
<wgt id='1342'> +2.8194482E+03 </wgt>
<wgt id='1343'> +2.7461706E+03 </wgt>
<wgt id='1344'> +2.7847430E+03 </wgt>
<wgt id='1345'> +2.7873659E+03 </wgt>
<wgt id='1346'> +2.7559526E+03 </wgt>
<wgt id='1347'> +2.8192600E+03 </wgt>
<wgt id='1348'> +2.7591964E+03 </wgt>
<wgt id='1349'> +2.7923804E+03 </wgt>
<wgt id='1350'> +2.7768600E+03 </wgt>
<wgt id='1351'> +2.7929221E+03 </wgt>
<wgt id='1352'> +2.7685707E+03 </wgt>
<wgt id='1353'> +2.8167106E+03 </wgt>
<wgt id='1354'> +2.8453526E+03 </wgt>
<wgt id='1355'> +2.7265098E+03 </wgt>
<wgt id='1356'> +2.7971806E+03 </wgt>
<wgt id='1357'> +2.7517596E+03 </wgt>
<wgt id='1358'> +2.7686986E+03 </wgt>
<wgt id='1359'> +2.7811249E+03 </wgt>
<wgt id='1360'> +2.7858054E+03 </wgt>
<wgt id='1361'> +2.7884473E+03 </wgt>
<wgt id='1362'> +2.8051397E+03 </wgt>
<wgt id='1363'> +2.7569873E+03 </wgt>
<wgt id='1364'> +2.7583040E+03 </wgt>
<wgt id='1365'> +2.7681896E+03 </wgt>
<wgt id='1366'> +2.7300137E+03 </wgt>
<wgt id='1367'> +2.8240622E+03 </wgt>
<wgt id='1368'> +2.7800140E+03 </wgt>
<wgt id='1369'> +2.7659333E+03 </wgt>
<wgt id='1370'> +2.7659920E+03 </wgt>
<wgt id='1371'> +2.7533728E+03 </wgt>
<wgt id='1372'> +2.7213419E+03 </wgt>
<wgt id='1373'> +2.7812504E+03 </wgt>
<wgt id='1374'> +2.7530092E+03 </wgt>
<wgt id='1375'> +2.8082262E+03 </wgt>
<wgt id='1376'> +2.7137535E+03 </wgt>
<wgt id='1377'> +2.8493023E+03 </wgt>
<wgt id='1378'> +2.5222279E+03 </wgt>
<wgt id='1379'> +2.7817788E+03 </wgt>
<wgt id='1380'> +2.7845152E+03 </wgt>
<wgt id='1381'> +2.7788383E+03 </wgt>
<wgt id='1382'> +2.7699870E+03 </wgt>
<wgt id='1383'> +2.7897059E+03 </wgt>
<wgt id='1384'> +2.7852630E+03 </wgt>
<wgt id='1385'> +2.7785496E+03 </wgt>
<wgt id='1386'> +2.7712270E+03 </wgt>
<wgt id='1387'> +2.7934361E+03 </wgt>
<wgt id='1388'> +2.7875429E+03 </wgt>
<wgt id='1389'> +2.7760109E+03 </wgt>
<wgt id='1390'> +2.7866102E+03 </wgt>
<wgt id='1391'> +2.7711977E+03 </wgt>
<wgt id='1392'> +2.7792203E+03 </wgt>
<wgt id='1393'> +2.7862873E+03 </wgt>
<wgt id='1394'> +2.7760369E+03 </wgt>
<wgt id='1395'> +2.7849566E+03 </wgt>
<wgt id='1396'> +2.7819767E+03 </wgt>
<wgt id='1397'> +2.7818236E+03 </wgt>
<wgt id='1398'> +2.7973147E+03 </wgt>
<wgt id='1399'> +2.7683645E+03 </wgt>
<wgt id='1400'> +2.7804640E+03 </wgt>
<wgt id='1401'> +2.7837167E+03 </wgt>
<wgt id='1402'> +2.7817464E+03 </wgt>
<wgt id='1403'> +2.7824504E+03 </wgt>
<wgt id='1404'> +2.7548225E+03 </wgt>
<wgt id='1405'> +2.8022588E+03 </wgt>
<wgt id='1406'> +2.7914872E+03 </wgt>
<wgt id='1407'> +2.7809545E+03 </wgt>
<wgt id='1408'> +2.7956365E+03 </wgt>
<wgt id='1409'> +2.7654037E+03 </wgt>
<wgt id='1410'> +2.7958509E+03 </wgt>
<wgt id='1411'> +2.7651609E+03 </wgt>
<wgt id='1412'> +2.7831395E+03 </wgt>
<wgt id='1413'> +2.7803428E+03 </wgt>
<wgt id='1414'> +2.7783323E+03 </wgt>
<wgt id='1415'> +2.7961293E+03 </wgt>
<wgt id='1416'> +2.7804509E+03 </wgt>
<wgt id='1417'> +2.7864528E+03 </wgt>
<wgt id='1418'> +2.7817762E+03 </wgt>
<wgt id='1419'> +2.7815161E+03 </wgt>
<wgt id='1420'> +2.7339042E+03 </wgt>
<wgt id='1421'> +2.8132742E+03 </wgt>
<wgt id='1422'> +2.8241371E+03 </wgt>
<wgt id='1423'> +2.7464391E+03 </wgt>
<wgt id='1424'> +2.7703673E+03 </wgt>
<wgt id='1425'> +2.8085342E+03 </wgt>
<wgt id='1426'> +2.7748467E+03 </wgt>
<wgt id='1427'> +2.7638261E+03 </wgt>
<wgt id='1428'> +2.7832829E+03 </wgt>
<wgt id='1429'> +2.7801236E+03 </wgt>
<wgt id='1430'> +2.8686126E+03 </wgt>
<wgt id='1431'> +2.8682373E+03 </wgt>
<wgt id='1432'> +2.8690899E+03 </wgt>
<wgt id='1433'> +2.8814589E+03 </wgt>
<wgt id='1434'> +2.8558365E+03 </wgt>
<wgt id='1435'> +2.8553138E+03 </wgt>
<wgt id='1436'> +2.8739644E+03 </wgt>
<wgt id='1437'> +2.8553453E+03 </wgt>
<wgt id='1438'> +2.8818843E+03 </wgt>
<wgt id='1439'> +2.8707603E+03 </wgt>
<wgt id='1440'> +2.8665556E+03 </wgt>
<wgt id='1441'> +2.8498517E+03 </wgt>
<wgt id='1442'> +2.8767622E+03 </wgt>
<wgt id='1443'> +2.8686509E+03 </wgt>
<wgt id='1444'> +2.8685793E+03 </wgt>
<wgt id='1445'> +2.8625230E+03 </wgt>
<wgt id='1446'> +2.8751996E+03 </wgt>
<wgt id='1447'> +2.8836356E+03 </wgt>
<wgt id='1448'> +2.8600039E+03 </wgt>
<wgt id='1449'> +2.8596135E+03 </wgt>
<wgt id='1450'> +2.8807543E+03 </wgt>
<wgt id='1451'> +2.8749302E+03 </wgt>
<wgt id='1452'> +2.8641170E+03 </wgt>
<wgt id='1453'> +2.8866158E+03 </wgt>
<wgt id='1454'> +2.8504926E+03 </wgt>
<wgt id='1455'> +2.8730200E+03 </wgt>
<wgt id='1456'> +2.8579087E+03 </wgt>
<wgt id='1457'> +2.8801888E+03 </wgt>
<wgt id='1458'> +2.8648981E+03 </wgt>
<wgt id='1459'> +2.8555135E+03 </wgt>
<wgt id='1460'> +2.9017730E+03 </wgt>
<wgt id='1461'> +2.8731397E+03 </wgt>
<wgt id='1462'> +2.8603490E+03 </wgt>
<wgt id='1463'> +2.8625351E+03 </wgt>
<wgt id='1464'> +2.8826861E+03 </wgt>
<wgt id='1465'> +2.8851297E+03 </wgt>
<wgt id='1466'> +2.8628418E+03 </wgt>
<wgt id='1467'> +2.8699520E+03 </wgt>
<wgt id='1468'> +2.8694587E+03 </wgt>
<wgt id='1469'> +2.8698670E+03 </wgt>
<wgt id='1470'> +2.8673967E+03 </wgt>
<wgt id='1471'> +2.8881911E+03 </wgt>
<wgt id='1472'> +2.8147973E+03 </wgt>
<wgt id='1473'> +2.8731800E+03 </wgt>
<wgt id='1474'> +2.8432775E+03 </wgt>
<wgt id='1475'> +2.8305824E+03 </wgt>
<wgt id='1476'> +2.8841665E+03 </wgt>
<wgt id='1477'> +2.8867491E+03 </wgt>
<wgt id='1478'> +2.8596799E+03 </wgt>
<wgt id='1479'> +2.8699467E+03 </wgt>
<wgt id='1480'> +2.8568687E+03 </wgt>
<wgt id='1481'> +3.1373975E+03 </wgt>
<wgt id='1482'> +2.7738649E+03 </wgt>
<wgt id='1483'> +2.7731601E+03 </wgt>
<wgt id='1484'> +2.7747433E+03 </wgt>
<wgt id='1485'> +2.7716562E+03 </wgt>
<wgt id='1486'> +2.7738878E+03 </wgt>
<wgt id='1487'> +2.7735271E+03 </wgt>
<wgt id='1488'> +2.7633680E+03 </wgt>
<wgt id='1489'> +2.7748489E+03 </wgt>
<wgt id='1490'> +2.7768832E+03 </wgt>
<wgt id='1491'> +2.7737084E+03 </wgt>
<wgt id='1492'> +2.7755479E+03 </wgt>
<wgt id='1493'> +2.7744708E+03 </wgt>
<wgt id='1494'> +2.7706002E+03 </wgt>
<wgt id='1495'> +2.7744773E+03 </wgt>
<wgt id='1496'> +2.7730339E+03 </wgt>
<wgt id='1497'> +2.7754379E+03 </wgt>
<wgt id='1498'> +2.7703340E+03 </wgt>
<wgt id='1499'> +2.7734401E+03 </wgt>
<wgt id='1500'> +2.7782609E+03 </wgt>
<wgt id='1501'> +2.7824606E+03 </wgt>
<wgt id='1502'> +2.7674411E+03 </wgt>
<wgt id='1503'> +2.7694655E+03 </wgt>
<wgt id='1504'> +2.7621829E+03 </wgt>
<wgt id='1505'> +2.7788771E+03 </wgt>
<wgt id='1506'> +2.7795627E+03 </wgt>
<wgt id='1507'> +2.7806006E+03 </wgt>
<wgt id='1508'> +2.7843927E+03 </wgt>
<wgt id='1509'> +2.7781879E+03 </wgt>
<wgt id='1510'> +2.7740504E+03 </wgt>
<wgt id='1511'> +2.7537441E+03 </wgt>
<wgt id='1512'> +2.7930603E+03 </wgt>
<wgt id='1513'> +2.7851769E+03 </wgt>
<wgt id='1514'> +2.8046749E+03 </wgt>
<wgt id='1515'> +2.8193886E+03 </wgt>
<wgt id='1516'> +2.7821147E+03 </wgt>
<wgt id='1517'> +2.7875298E+03 </wgt>
<wgt id='1518'> +2.7781023E+03 </wgt>
<wgt id='1519'> +2.8004313E+03 </wgt>
<wgt id='1520'> +2.8067552E+03 </wgt>
<wgt id='1521'> +2.7908255E+03 </wgt>
<wgt id='1522'> +2.8360431E+03 </wgt>
<wgt id='1523'> +2.7655326E+03 </wgt>
<wgt id='1524'> +2.7618814E+03 </wgt>
<wgt id='1525'> +2.7839598E+03 </wgt>
<wgt id='1526'> +2.7715828E+03 </wgt>
<wgt id='1527'> +2.7873398E+03 </wgt>
<wgt id='1528'> +2.7839723E+03 </wgt>
<wgt id='1529'> +2.7911431E+03 </wgt>
<wgt id='1530'> +2.8160931E+03 </wgt>
<wgt id='1531'> +2.7804816E+03 </wgt>
<wgt id='1532'> +2.8058931E+03 </wgt>
<wgt id='1533'> +2.8031220E+03 </wgt>
<wgt id='1534'> +2.8060882E+03 </wgt>
<wgt id='1535'> +2.7913611E+03 </wgt>
<wgt id='1536'> +2.7883287E+03 </wgt>
<wgt id='1537'> +2.8098118E+03 </wgt>
<wgt id='1538'> +2.7990814E+03 </wgt>
<wgt id='1539'> +2.7878058E+03 </wgt>
<wgt id='1540'> +2.7770532E+03 </wgt>
<wgt id='1541'> +2.7948643E+03 </wgt>
<wgt id='1542'> +2.7917484E+03 </wgt>
<wgt id='1543'> +2.7910755E+03 </wgt>
<wgt id='1544'> +2.8011167E+03 </wgt>
<wgt id='1545'> +2.7891906E+03 </wgt>
<wgt id='1546'> +2.7969855E+03 </wgt>
<wgt id='1547'> +2.7978973E+03 </wgt>
<wgt id='1548'> +2.7911010E+03 </wgt>
<wgt id='1549'> +2.7949540E+03 </wgt>
<wgt id='1550'> +2.7883093E+03 </wgt>
<wgt id='1551'> +2.7938035E+03 </wgt>
<wgt id='1552'> +2.7937138E+03 </wgt>
<wgt id='1553'> +2.7958284E+03 </wgt>
<wgt id='1554'> +2.7904838E+03 </wgt>
<wgt id='1555'> +2.7910699E+03 </wgt>
<wgt id='1556'> +2.7943449E+03 </wgt>
<wgt id='1557'> +2.7939606E+03 </wgt>
<wgt id='1558'> +2.7953581E+03 </wgt>
<wgt id='1559'> +2.7918936E+03 </wgt>
<wgt id='1560'> +2.7919107E+03 </wgt>
<wgt id='1561'> +2.7931304E+03 </wgt>
<wgt id='1562'> +2.7925145E+03 </wgt>
<wgt id='1563'> +2.7925620E+03 </wgt>
<wgt id='1564'> +2.7938276E+03 </wgt>
<wgt id='1565'> +2.7922534E+03 </wgt>
<wgt id='1566'> +2.7898606E+03 </wgt>
<wgt id='1567'> +2.7937191E+03 </wgt>
<wgt id='1568'> +2.7915317E+03 </wgt>
<wgt id='1569'> +2.7922228E+03 </wgt>
<wgt id='1570'> +2.7966749E+03 </wgt>
<wgt id='1571'> +2.7909015E+03 </wgt>
<wgt id='1572'> +2.7901784E+03 </wgt>
<wgt id='1573'> +2.7940931E+03 </wgt>
<wgt id='1574'> +2.7926600E+03 </wgt>
<wgt id='1575'> +2.7929401E+03 </wgt>
<wgt id='1576'> +2.7926972E+03 </wgt>
<wgt id='1577'> +2.7936151E+03 </wgt>
<wgt id='1578'> +2.7937953E+03 </wgt>
<wgt id='1579'> +2.7938197E+03 </wgt>
<wgt id='1580'> +2.7941635E+03 </wgt>
<wgt id='1581'> +2.7939996E+03 </wgt>
<wgt id='1582'> +2.7929954E+03 </wgt>
<wgt id='1583'> +2.7925322E+03 </wgt>
<wgt id='1584'> +2.7932922E+03 </wgt>
<wgt id='1585'> +2.7928013E+03 </wgt>
<wgt id='1586'> +2.7921222E+03 </wgt>
<wgt id='1587'> +2.7939682E+03 </wgt>
<wgt id='1588'> +2.7939559E+03 </wgt>
<wgt id='1589'> +2.7935205E+03 </wgt>
<wgt id='1590'> +2.7931095E+03 </wgt>
<wgt id='1591'> +2.7948715E+03 </wgt>
<wgt id='1592'> +2.7939246E+03 </wgt>
<wgt id='1593'> +2.7931850E+03 </wgt>
<wgt id='1594'> +2.7925945E+03 </wgt>
<wgt id='1595'> +2.7948728E+03 </wgt>
<wgt id='1596'> +2.7942958E+03 </wgt>
<wgt id='1597'> +2.7942013E+03 </wgt>
<wgt id='1598'> +2.7938982E+03 </wgt>
<wgt id='1599'> +2.7936207E+03 </wgt>
<wgt id='1600'> +2.7927572E+03 </wgt>
<wgt id='1601'> +2.7930046E+03 </wgt>
<wgt id='1602'> +2.7921478E+03 </wgt>
<wgt id='1603'> +2.7923453E+03 </wgt>
<wgt id='1604'> +2.7936393E+03 </wgt>
<wgt id='1605'> +2.7926055E+03 </wgt>
<wgt id='1606'> +2.7935399E+03 </wgt>
<wgt id='1607'> +2.7932317E+03 </wgt>
<wgt id='1608'> +2.7927378E+03 </wgt>
<wgt id='1609'> +2.7928752E+03 </wgt>
<wgt id='1610'> +2.7935900E+03 </wgt>
<wgt id='1611'> +2.7933235E+03 </wgt>
<wgt id='1612'> +2.7927904E+03 </wgt>
<wgt id='1613'> +2.7447554E+03 </wgt>
<wgt id='1614'> +2.8370881E+03 </wgt>
<wgt id='1615'> +2.8682862E+03 </wgt>
<wgt id='1616'> +2.8676988E+03 </wgt>
<wgt id='1617'> +2.8806761E+03 </wgt>
<wgt id='1618'> +2.8460442E+03 </wgt>
<wgt id='1619'> +2.8680762E+03 </wgt>
<wgt id='1620'> +2.8910922E+03 </wgt>
<wgt id='1621'> +2.8674451E+03 </wgt>
<wgt id='1622'> +2.8721045E+03 </wgt>
<wgt id='1623'> +2.8679481E+03 </wgt>
<wgt id='1624'> +2.8629290E+03 </wgt>
<wgt id='1625'> +2.8533893E+03 </wgt>
<wgt id='1626'> +2.9187127E+03 </wgt>
<wgt id='1627'> +2.8558116E+03 </wgt>
<wgt id='1628'> +2.8457312E+03 </wgt>
<wgt id='1629'> +2.8403865E+03 </wgt>
<wgt id='1630'> +2.9039631E+03 </wgt>
<wgt id='1631'> +2.8763208E+03 </wgt>
<wgt id='1632'> +2.8664272E+03 </wgt>
<wgt id='1633'> +2.8709137E+03 </wgt>
<wgt id='1634'> +2.8531667E+03 </wgt>
<wgt id='1635'> +2.8764705E+03 </wgt>
<wgt id='1636'> +2.8709349E+03 </wgt>
<wgt id='1637'> +2.8479896E+03 </wgt>
<wgt id='1638'> +2.8753774E+03 </wgt>
<wgt id='1639'> +2.8479845E+03 </wgt>
<wgt id='1640'> +2.8628425E+03 </wgt>
<wgt id='1641'> +2.8653678E+03 </wgt>
<wgt id='1642'> +2.8656817E+03 </wgt>
<wgt id='1643'> +2.8770982E+03 </wgt>
<wgt id='1644'> +2.8640066E+03 </wgt>
<wgt id='1645'> +2.8606937E+03 </wgt>
<wgt id='1646'> +2.8711120E+03 </wgt>
<wgt id='1647'> +2.8615909E+03 </wgt>
<wgt id='1648'> +2.8737887E+03 </wgt>
<wgt id='1649'> +2.8654798E+03 </wgt>
<wgt id='1650'> +2.8784585E+03 </wgt>
<wgt id='1651'> +2.8716928E+03 </wgt>
<wgt id='1652'> +2.8735085E+03 </wgt>
<wgt id='1653'> +2.8734996E+03 </wgt>
<wgt id='1654'> +2.8648719E+03 </wgt>
<wgt id='1655'> +2.8684098E+03 </wgt>
<wgt id='1656'> +2.8674229E+03 </wgt>
<wgt id='1657'> +2.8714496E+03 </wgt>
<wgt id='1658'> +2.8649082E+03 </wgt>
<wgt id='1659'> +2.8671486E+03 </wgt>
<wgt id='1660'> +2.8644130E+03 </wgt>
<wgt id='1661'> +2.8644544E+03 </wgt>
<wgt id='1662'> +2.8678954E+03 </wgt>
<wgt id='1663'> +2.8678271E+03 </wgt>
<wgt id='1664'> +2.8681888E+03 </wgt>
<wgt id='1665'> +2.8655079E+03 </wgt>
<wgt id='1666'> +2.8685062E+03 </wgt>
<wgt id='1667'> +2.8703213E+03 </wgt>
<wgt id='1668'> +2.8691738E+03 </wgt>
<wgt id='1669'> +2.8668409E+03 </wgt>
<wgt id='1670'> +2.8670441E+03 </wgt>
<wgt id='1671'> +2.8713881E+03 </wgt>
<wgt id='1672'> +2.8680932E+03 </wgt>
<wgt id='1673'> +2.8671973E+03 </wgt>
<wgt id='1674'> +2.8677697E+03 </wgt>
<wgt id='1675'> +2.8685711E+03 </wgt>
<wgt id='1676'> +2.8681449E+03 </wgt>
<wgt id='1677'> +2.8677176E+03 </wgt>
<wgt id='1678'> +2.8705647E+03 </wgt>
<wgt id='1679'> +2.8672441E+03 </wgt>
<wgt id='1680'> +2.8683550E+03 </wgt>
<wgt id='1681'> +2.8687323E+03 </wgt>
<wgt id='1682'> +2.8691563E+03 </wgt>
<wgt id='1683'> +2.8711766E+03 </wgt>
<wgt id='1684'> +2.8687557E+03 </wgt>
<wgt id='1685'> +2.8670402E+03 </wgt>
<wgt id='1686'> +2.8696074E+03 </wgt>
<wgt id='1687'> +2.8692625E+03 </wgt>
<wgt id='1688'> +2.8667216E+03 </wgt>
<wgt id='1689'> +2.8689378E+03 </wgt>
<wgt id='1690'> +2.8682021E+03 </wgt>
<wgt id='1691'> +2.8685692E+03 </wgt>
<wgt id='1692'> +2.8680913E+03 </wgt>
<wgt id='1693'> +2.8687614E+03 </wgt>
<wgt id='1694'> +2.8686547E+03 </wgt>
<wgt id='1695'> +2.8701255E+03 </wgt>
<wgt id='1696'> +2.8683602E+03 </wgt>
<wgt id='1697'> +2.8686097E+03 </wgt>
<wgt id='1698'> +2.8675902E+03 </wgt>
<wgt id='1699'> +2.8684150E+03 </wgt>
<wgt id='1700'> +2.8666702E+03 </wgt>
<wgt id='1701'> +2.8688455E+03 </wgt>
<wgt id='1702'> +2.8665776E+03 </wgt>
<wgt id='1703'> +2.8678322E+03 </wgt>
<wgt id='1704'> +2.8682710E+03 </wgt>
<wgt id='1705'> +2.8682242E+03 </wgt>
<wgt id='1706'> +2.8683394E+03 </wgt>
<wgt id='1707'> +2.8688408E+03 </wgt>
<wgt id='1708'> +2.8677666E+03 </wgt>
<wgt id='1709'> +2.8686635E+03 </wgt>
<wgt id='1710'> +2.8682843E+03 </wgt>
<wgt id='1711'> +2.8671053E+03 </wgt>
<wgt id='1712'> +2.8685850E+03 </wgt>
<wgt id='1713'> +2.8687009E+03 </wgt>
<wgt id='1714'> +2.8678731E+03 </wgt>
<wgt id='1715'> +2.8676049E+03 </wgt>
<wgt id='1716'> +2.8165335E+03 </wgt>
<wgt id='1717'> +2.9072187E+03 </wgt>
<wgt id='1718'> +2.7952399E+03 </wgt>
<wgt id='1719'> +2.8054675E+03 </wgt>
<wgt id='1720'> +2.7669689E+03 </wgt>
<wgt id='1721'> +2.7935760E+03 </wgt>
<wgt id='1722'> +2.7917744E+03 </wgt>
<wgt id='1723'> +2.8502754E+03 </wgt>
<wgt id='1724'> +2.8033231E+03 </wgt>
<wgt id='1725'> +2.7975489E+03 </wgt>
<wgt id='1726'> +2.8052436E+03 </wgt>
<wgt id='1727'> +2.8040346E+03 </wgt>
<wgt id='1728'> +2.7990266E+03 </wgt>
<wgt id='1729'> +2.7797666E+03 </wgt>
<wgt id='1730'> +2.7961696E+03 </wgt>
<wgt id='1731'> +2.7972202E+03 </wgt>
<wgt id='1732'> +2.7462169E+03 </wgt>
<wgt id='1733'> +2.8018072E+03 </wgt>
<wgt id='1734'> +2.7980606E+03 </wgt>
<wgt id='1735'> +2.7809282E+03 </wgt>
<wgt id='1736'> +2.7972305E+03 </wgt>
<wgt id='1737'> +2.7986508E+03 </wgt>
<wgt id='1738'> +2.8071559E+03 </wgt>
<wgt id='1739'> +2.7946520E+03 </wgt>
<wgt id='1740'> +2.7929115E+03 </wgt>
<wgt id='1741'> +2.7961330E+03 </wgt>
<wgt id='1742'> +2.7883467E+03 </wgt>
<wgt id='1743'> +2.7963578E+03 </wgt>
<wgt id='1744'> +2.7892430E+03 </wgt>
<wgt id='1745'> +2.7974670E+03 </wgt>
<wgt id='1746'> +2.7977506E+03 </wgt>
<wgt id='1747'> +2.7954771E+03 </wgt>
<wgt id='1748'> +2.7956548E+03 </wgt>
<wgt id='1749'> +2.7447554E+03 </wgt>
<wgt id='1750'> +2.8370881E+03 </wgt>
<wgt id='1751'> +2.8685845E+03 </wgt>
<wgt id='1752'> +2.8650199E+03 </wgt>
<wgt id='1753'> +2.9321823E+03 </wgt>
<wgt id='1754'> +2.8623477E+03 </wgt>
<wgt id='1755'> +2.8737452E+03 </wgt>
<wgt id='1756'> +2.8340915E+03 </wgt>
<wgt id='1757'> +2.8668560E+03 </wgt>
<wgt id='1758'> +2.8647014E+03 </wgt>
<wgt id='1759'> +2.8608773E+03 </wgt>
<wgt id='1760'> +2.8550272E+03 </wgt>
<wgt id='1761'> +2.8716396E+03 </wgt>
<wgt id='1762'> +2.8745257E+03 </wgt>
<wgt id='1763'> +2.8731397E+03 </wgt>
<wgt id='1764'> +2.8804396E+03 </wgt>
<wgt id='1765'> +2.8618659E+03 </wgt>
<wgt id='1766'> +2.8616733E+03 </wgt>
<wgt id='1767'> +2.8620552E+03 </wgt>
<wgt id='1768'> +2.8843327E+03 </wgt>
<wgt id='1769'> +2.8675238E+03 </wgt>
<wgt id='1770'> +2.8701470E+03 </wgt>
<wgt id='1771'> +2.8719588E+03 </wgt>
<wgt id='1772'> +2.8675769E+03 </wgt>
<wgt id='1773'> +2.9083404E+03 </wgt>
<wgt id='1774'> +2.8684146E+03 </wgt>
<wgt id='1775'> +2.8709806E+03 </wgt>
<wgt id='1776'> +2.8701264E+03 </wgt>
<wgt id='1777'> +2.8707031E+03 </wgt>
<wgt id='1778'> +2.8685209E+03 </wgt>
<wgt id='1779'> +2.8755468E+03 </wgt>
<wgt id='1780'> +2.8672872E+03 </wgt>
<wgt id='1781'> +2.8759466E+03 </wgt>
<wgt id='1782'> +2.8165335E+03 </wgt>
<wgt id='1783'> +2.9072187E+03 </wgt>
<wgt id='1784'> +2.9880945E+03 </wgt>
<wgt id='1785'> +2.9893814E+03 </wgt>
<wgt id='1786'> +2.9868156E+03 </wgt>
<wgt id='1787'> +2.9918764E+03 </wgt>
<wgt id='1788'> +2.9843136E+03 </wgt>
<wgt id='1789'> +2.9933342E+03 </wgt>
<wgt id='1790'> +2.9828606E+03 </wgt>
<wgt id='1791'> +2.9894628E+03 </wgt>
<wgt id='1792'> +2.9866215E+03 </wgt>
<wgt id='1793'> +2.9973670E+03 </wgt>
<wgt id='1794'> +2.9788635E+03 </wgt>
<wgt id='1795'> +2.9906220E+03 </wgt>
<wgt id='1796'> +2.9855223E+03 </wgt>
<wgt id='1797'> +2.9794082E+03 </wgt>
<wgt id='1798'> +2.9968134E+03 </wgt>
<wgt id='1799'> +2.9855868E+03 </wgt>
<wgt id='1800'> +2.9876413E+03 </wgt>
<wgt id='1801'> +2.9883801E+03 </wgt>
<wgt id='1802'> +2.9852359E+03 </wgt>
<wgt id='1803'> +2.9770420E+03 </wgt>
<wgt id='1804'> +2.9993286E+03 </wgt>
<wgt id='1805'> +2.9927212E+03 </wgt>
<wgt id='1806'> +2.9795849E+03 </wgt>
<wgt id='1807'> +2.9771261E+03 </wgt>
<wgt id='1808'> +2.9838874E+03 </wgt>
<wgt id='1809'> +2.9997260E+03 </wgt>
<wgt id='1810'> +2.9807479E+03 </wgt>
<wgt id='1811'> +2.9866774E+03 </wgt>
<wgt id='1812'> +2.9915168E+03 </wgt>
<wgt id='1813'> +2.9880945E+03 </wgt>
<wgt id='1814'> +3.0299202E+03 </wgt>
<wgt id='1815'> +2.9356784E+03 </wgt>
<wgt id='1816'> +3.0503686E+03 </wgt>
<wgt id='1817'> +2.9787484E+03 </wgt>
<wgt id='1818'> +2.9998623E+03 </wgt>
<wgt id='1819'> +2.9736273E+03 </wgt>
<wgt id='1820'> +2.9791947E+03 </wgt>
<wgt id='1821'> +2.9964026E+03 </wgt>
<wgt id='1822'> +2.9666964E+03 </wgt>
<wgt id='1823'> +3.0092069E+03 </wgt>
<wgt id='1824'> +2.9777090E+03 </wgt>
<wgt id='1825'> +3.0152004E+03 </wgt>
<wgt id='1826'> +2.9286103E+03 </wgt>
<wgt id='1827'> +2.9669399E+03 </wgt>
<wgt id='1828'> +2.9699434E+03 </wgt>
<wgt id='1829'> +2.9639955E+03 </wgt>
<wgt id='1830'> +2.9669618E+03 </wgt>
<wgt id='1831'> +2.9669692E+03 </wgt>
<wgt id='1832'> +2.9722881E+03 </wgt>
<wgt id='1833'> +2.9616486E+03 </wgt>
<wgt id='1834'> +2.9686661E+03 </wgt>
<wgt id='1835'> +2.9650401E+03 </wgt>
<wgt id='1836'> +2.9737403E+03 </wgt>
<wgt id='1837'> +2.9601764E+03 </wgt>
<wgt id='1838'> +2.9720573E+03 </wgt>
<wgt id='1839'> +2.9618639E+03 </wgt>
<wgt id='1840'> +2.9585924E+03 </wgt>
<wgt id='1841'> +2.9753566E+03 </wgt>
<wgt id='1842'> +2.9624314E+03 </wgt>
<wgt id='1843'> +2.9705411E+03 </wgt>
<wgt id='1844'> +2.9681899E+03 </wgt>
<wgt id='1845'> +2.9650341E+03 </wgt>
<wgt id='1846'> +2.9605156E+03 </wgt>
<wgt id='1847'> +2.9731233E+03 </wgt>
<wgt id='1848'> +2.9472547E+03 </wgt>
<wgt id='1849'> +2.9821703E+03 </wgt>
<wgt id='1850'> +2.9776219E+03 </wgt>
<wgt id='1851'> +2.9558892E+03 </wgt>
<wgt id='1852'> +2.9681638E+03 </wgt>
<wgt id='1853'> +2.9585991E+03 </wgt>
<wgt id='1854'> +2.9746799E+03 </wgt>
<wgt id='1855'> +2.9625622E+03 </wgt>
<wgt id='1856'> +2.9631190E+03 </wgt>
<wgt id='1857'> +3.0148483E+03 </wgt>
<wgt id='1858'> +2.8975427E+03 </wgt>
<wgt id='1859'> +3.0352723E+03 </wgt>
<wgt id='1860'> +2.9452755E+03 </wgt>
<wgt id='1861'> +2.9865301E+03 </wgt>
<wgt id='1862'> +2.9424310E+03 </wgt>
<wgt id='1863'> +2.9542376E+03 </wgt>
<wgt id='1864'> +2.9745401E+03 </wgt>
<wgt id='1865'> +2.9355526E+03 </wgt>
<wgt id='1866'> +3.0008320E+03 </wgt>
<wgt id='1867'> +2.9474711E+03 </wgt>
<wgt id='1868'> +2.9918639E+03 </wgt>
<wgt id='1869'> +2.9275591E+03 </wgt>
<wgt id='1870'> +2.7637695E+03 </wgt>
<wgt id='1871'> +2.7629540E+03 </wgt>
<wgt id='1872'> +2.7621220E+03 </wgt>
<wgt id='1873'> +2.7613007E+03 </wgt>
<wgt id='1874'> +2.7604810E+03 </wgt>
<wgt id='1875'> +2.7596644E+03 </wgt>
<wgt id='1876'> +2.7588340E+03 </wgt>
<wgt id='1877'> +2.7580149E+03 </wgt>
<wgt id='1878'> +2.7571934E+03 </wgt>
<wgt id='1879'> +2.7563786E+03 </wgt>
<wgt id='1880'> +2.7555466E+03 </wgt>
<wgt id='1881'> +2.7547291E+03 </wgt>
<wgt id='1882'> +2.7539098E+03 </wgt>
<wgt id='1883'> +2.7530834E+03 </wgt>
<wgt id='1884'> +2.7522614E+03 </wgt>
<wgt id='1885'> +2.7514445E+03 </wgt>
<wgt id='1886'> +2.7506246E+03 </wgt>
<wgt id='1887'> +2.7498010E+03 </wgt>
<wgt id='1888'> +2.7489831E+03 </wgt>
<wgt id='1889'> +2.7481627E+03 </wgt>
<wgt id='1890'> +2.7473455E+03 </wgt>
<wgt id='1891'> +2.7465182E+03 </wgt>
<wgt id='1892'> +2.7457006E+03 </wgt>
<wgt id='1893'> +2.7448826E+03 </wgt>
<wgt id='1894'> +2.7440637E+03 </wgt>
<wgt id='1895'> +2.7432373E+03 </wgt>
<wgt id='1896'> +2.7424201E+03 </wgt>
<wgt id='1897'> +2.7416030E+03 </wgt>
<wgt id='1898'> +2.7407747E+03 </wgt>
<wgt id='1899'> +2.7399582E+03 </wgt>
<wgt id='1900'> +2.7391402E+03 </wgt>
<wgt id='1901'> +2.8438701E+03 </wgt>
<wgt id='1902'> +2.8428399E+03 </wgt>
<wgt id='1903'> +2.8559898E+03 </wgt>
<wgt id='1904'> +2.8219140E+03 </wgt>
<wgt id='1905'> +2.8435917E+03 </wgt>
<wgt id='1906'> +2.8665345E+03 </wgt>
<wgt id='1907'> +2.8434288E+03 </wgt>
<wgt id='1908'> +2.8479880E+03 </wgt>
<wgt id='1909'> +2.8435319E+03 </wgt>
<wgt id='1910'> +2.8386338E+03 </wgt>
<wgt id='1911'> +2.8290126E+03 </wgt>
<wgt id='1912'> +2.8943548E+03 </wgt>
<wgt id='1913'> +2.8317546E+03 </wgt>
<wgt id='1914'> +2.8217718E+03 </wgt>
<wgt id='1915'> +2.8161683E+03 </wgt>
<wgt id='1916'> +2.8786447E+03 </wgt>
<wgt id='1917'> +2.8522936E+03 </wgt>
<wgt id='1918'> +2.8418071E+03 </wgt>
<wgt id='1919'> +2.8463867E+03 </wgt>
<wgt id='1920'> +2.8291596E+03 </wgt>
<wgt id='1921'> +2.8523498E+03 </wgt>
<wgt id='1922'> +2.8462035E+03 </wgt>
<wgt id='1923'> +2.8236896E+03 </wgt>
<wgt id='1924'> +2.8509383E+03 </wgt>
<wgt id='1925'> +2.8234843E+03 </wgt>
<wgt id='1926'> +2.8381380E+03 </wgt>
<wgt id='1927'> +2.8406132E+03 </wgt>
<wgt id='1928'> +2.8416132E+03 </wgt>
<wgt id='1929'> +2.8527787E+03 </wgt>
<wgt id='1930'> +2.8394835E+03 </wgt>
<wgt id='1931'> +2.8361274E+03 </wgt>
<wgt id='1932'> +2.8470327E+03 </wgt>
<wgt id='1933'> +2.8371123E+03 </wgt>
<wgt id='1934'> +2.8492334E+03 </wgt>
<wgt id='1935'> +2.8410624E+03 </wgt>
<wgt id='1936'> +2.8538916E+03 </wgt>
<wgt id='1937'> +2.8472581E+03 </wgt>
<wgt id='1938'> +2.8490700E+03 </wgt>
<wgt id='1939'> +2.8489802E+03 </wgt>
<wgt id='1940'> +2.8403293E+03 </wgt>
<wgt id='1941'> +2.8439765E+03 </wgt>
<wgt id='1942'> +2.8429366E+03 </wgt>
<wgt id='1943'> +2.8469746E+03 </wgt>
<wgt id='1944'> +2.8407089E+03 </wgt>
<wgt id='1945'> +2.8427357E+03 </wgt>
<wgt id='1946'> +2.8399631E+03 </wgt>
<wgt id='1947'> +2.8401231E+03 </wgt>
<wgt id='1948'> +2.8434421E+03 </wgt>
<wgt id='1949'> +2.8434572E+03 </wgt>
<wgt id='1950'> +2.8436984E+03 </wgt>
<wgt id='1951'> +2.8411404E+03 </wgt>
<wgt id='1952'> +2.8440870E+03 </wgt>
<wgt id='1953'> +2.8458343E+03 </wgt>
<wgt id='1954'> +2.8447505E+03 </wgt>
<wgt id='1955'> +2.8425064E+03 </wgt>
<wgt id='1956'> +2.8426979E+03 </wgt>
<wgt id='1957'> +2.8468188E+03 </wgt>
<wgt id='1958'> +2.8436714E+03 </wgt>
<wgt id='1959'> +2.8429229E+03 </wgt>
<wgt id='1960'> +2.8434205E+03 </wgt>
<wgt id='1961'> +2.8441925E+03 </wgt>
<wgt id='1962'> +2.8437425E+03 </wgt>
<wgt id='1963'> +2.8433258E+03 </wgt>
<wgt id='1964'> +2.8460766E+03 </wgt>
<wgt id='1965'> +2.8429027E+03 </wgt>
<wgt id='1966'> +2.8439343E+03 </wgt>
<wgt id='1967'> +2.8442723E+03 </wgt>
<wgt id='1968'> +2.8446791E+03 </wgt>
<wgt id='1969'> +2.8467065E+03 </wgt>
<wgt id='1970'> +2.8442500E+03 </wgt>
<wgt id='1971'> +2.8426121E+03 </wgt>
<wgt id='1972'> +2.8452373E+03 </wgt>
<wgt id='1973'> +2.8448034E+03 </wgt>
<wgt id='1974'> +2.8422803E+03 </wgt>
<wgt id='1975'> +2.8444924E+03 </wgt>
<wgt id='1976'> +2.8438097E+03 </wgt>
<wgt id='1977'> +2.8442231E+03 </wgt>
<wgt id='1978'> +2.8436941E+03 </wgt>
<wgt id='1979'> +2.8443904E+03 </wgt>
<wgt id='1980'> +2.8442089E+03 </wgt>
<wgt id='1981'> +2.8456275E+03 </wgt>
<wgt id='1982'> +2.8439881E+03 </wgt>
<wgt id='1983'> +2.8442331E+03 </wgt>
<wgt id='1984'> +2.8431802E+03 </wgt>
<wgt id='1985'> +2.8439667E+03 </wgt>
<wgt id='1986'> +2.8423094E+03 </wgt>
<wgt id='1987'> +2.8445054E+03 </wgt>
<wgt id='1988'> +2.8421575E+03 </wgt>
<wgt id='1989'> +2.8433784E+03 </wgt>
<wgt id='1990'> +2.8438169E+03 </wgt>
<wgt id='1991'> +2.8437764E+03 </wgt>
<wgt id='1992'> +2.8438818E+03 </wgt>
<wgt id='1993'> +2.8443536E+03 </wgt>
<wgt id='1994'> +2.8433426E+03 </wgt>
<wgt id='1995'> +2.8441593E+03 </wgt>
<wgt id='1996'> +2.8438919E+03 </wgt>
<wgt id='1997'> +2.8427178E+03 </wgt>
<wgt id='1998'> +2.8441570E+03 </wgt>
<wgt id='1999'> +2.8442746E+03 </wgt>
<wgt id='2000'> +2.8434624E+03 </wgt>
<wgt id='2001'> +2.8432059E+03 </wgt>
<wgt id='2002'> +2.8438463E+03 </wgt>
<wgt id='2003'> +2.8437146E+03 </wgt>
<wgt id='2004'> +2.8438947E+03 </wgt>
<wgt id='2005'> +2.8438988E+03 </wgt>
<wgt id='2006'> +2.8439421E+03 </wgt>
<wgt id='2007'> +2.8438805E+03 </wgt>
<wgt id='2008'> +2.8437666E+03 </wgt>
<wgt id='2009'> +2.8200939E+03 </wgt>
<wgt id='2010'> +2.5812438E+03 </wgt>
<wgt id='2011'> +2.8438543E+03 </wgt>
<wgt id='2012'> +2.9493259E+03 </wgt>
<wgt id='2013'> +2.8725176E+03 </wgt>
<wgt id='2014'> +2.4406509E+03 </wgt>
<wgt id='2015'> +2.7263143E+03 </wgt>
<wgt id='2016'> +2.8795714E+03 </wgt>
<wgt id='2017'> +2.8461061E+03 </wgt>
<wgt id='2018'> +2.8384095E+03 </wgt>
<wgt id='2019'> +2.7021445E+03 </wgt>
<wgt id='2020'> +2.7060731E+03 </wgt>
<wgt id='2021'> +2.8645272E+03 </wgt>
<wgt id='2022'> +2.9121231E+03 </wgt>
<wgt id='2023'> +2.7490830E+03 </wgt>
<wgt id='2024'> +2.8118095E+03 </wgt>
<wgt id='2025'> +2.8248565E+03 </wgt>
<wgt id='2026'> +2.7372749E+03 </wgt>
<wgt id='2027'> +2.7333187E+03 </wgt>
<wgt id='2028'> +2.8375364E+03 </wgt>
<wgt id='2029'> +2.8864496E+03 </wgt>
<wgt id='2030'> +2.9248778E+03 </wgt>
<wgt id='2031'> +2.8626530E+03 </wgt>
<wgt id='2032'> +2.9953493E+03 </wgt>
<wgt id='2033'> +2.8229742E+03 </wgt>
<wgt id='2034'> +2.8586060E+03 </wgt>
<wgt id='2035'> +2.8194737E+03 </wgt>
<wgt id='2036'> +2.8061258E+03 </wgt>
<wgt id='2037'> +2.7588421E+03 </wgt>
<wgt id='2038'> +2.8000863E+03 </wgt>
<wgt id='2039'> +2.9153889E+03 </wgt>
<wgt id='2040'> +2.9000122E+03 </wgt>
<wgt id='2041'> +2.6933564E+03 </wgt>
<wgt id='2042'> +2.8986007E+03 </wgt>
<wgt id='2043'> +2.8129013E+03 </wgt>
<wgt id='2044'> +2.9761973E+03 </wgt>
<wgt id='2045'> +2.8825590E+03 </wgt>
<wgt id='2046'> +2.8510093E+03 </wgt>
<wgt id='2047'> +2.7151553E+03 </wgt>
<wgt id='2048'> +2.7666907E+03 </wgt>
<wgt id='2049'> +2.8736878E+03 </wgt>
<wgt id='2050'> +2.8408109E+03 </wgt>
<wgt id='2051'> +2.8414400E+03 </wgt>
<wgt id='2052'> +2.8474173E+03 </wgt>
<wgt id='2053'> +2.8105079E+03 </wgt>
<wgt id='2054'> +2.8812928E+03 </wgt>
<wgt id='2055'> +2.7966058E+03 </wgt>
<wgt id='2056'> +2.7736105E+03 </wgt>
<wgt id='2057'> +2.7627877E+03 </wgt>
<wgt id='2058'> +2.8931328E+03 </wgt>
<wgt id='2059'> +2.8786208E+03 </wgt>
<wgt id='2060'> +2.8644731E+03 </wgt>
<wgt id='2061'> +2.8101615E+03 </wgt>
<wgt id='2062'> +2.7756761E+03 </wgt>
<wgt id='2063'> +2.8310926E+03 </wgt>
<wgt id='2064'> +2.8267308E+03 </wgt>
<wgt id='2065'> +2.7366107E+03 </wgt>
<wgt id='2066'> +2.9777856E+03 </wgt>
<wgt id='2067'> +2.8335852E+03 </wgt>
<wgt id='2068'> +2.8889180E+03 </wgt>
<wgt id='2069'> +2.8805219E+03 </wgt>
<wgt id='2070'> +2.8549800E+03 </wgt>
<wgt id='2071'> +2.8407612E+03 </wgt>
<wgt id='2072'> +2.7553891E+03 </wgt>
<wgt id='2073'> +2.7841449E+03 </wgt>
<wgt id='2074'> +2.8777571E+03 </wgt>
<wgt id='2075'> +2.8267378E+03 </wgt>
<wgt id='2076'> +2.8892441E+03 </wgt>
<wgt id='2077'> +2.8322870E+03 </wgt>
<wgt id='2078'> +2.7311135E+03 </wgt>
<wgt id='2079'> +2.8108900E+03 </wgt>
<wgt id='2080'> +2.8521700E+03 </wgt>
<wgt id='2081'> +2.6899767E+03 </wgt>
<wgt id='2082'> +2.4922801E+03 </wgt>
<wgt id='2083'> +2.8257945E+03 </wgt>
<wgt id='2084'> +2.7919907E+03 </wgt>
<wgt id='2085'> +2.6423024E+03 </wgt>
<wgt id='2086'> +2.7914651E+03 </wgt>
<wgt id='2087'> +2.9195593E+03 </wgt>
<wgt id='2088'> +2.7655376E+03 </wgt>
<wgt id='2089'> +2.9096032E+03 </wgt>
<wgt id='2090'> +2.8677737E+03 </wgt>
<wgt id='2091'> +2.8501628E+03 </wgt>
<wgt id='2092'> +2.8115522E+03 </wgt>
<wgt id='2093'> +2.8472532E+03 </wgt>
<wgt id='2094'> +2.7546837E+03 </wgt>
<wgt id='2095'> +2.7995366E+03 </wgt>
<wgt id='2096'> +2.8082256E+03 </wgt>
<wgt id='2097'> +2.8721913E+03 </wgt>
<wgt id='2098'> +2.8123387E+03 </wgt>
<wgt id='2099'> +2.8238317E+03 </wgt>
<wgt id='2100'> +2.8593344E+03 </wgt>
<wgt id='2101'> +2.8803526E+03 </wgt>
<wgt id='2102'> +2.8093405E+03 </wgt>
<wgt id='2103'> +2.8382532E+03 </wgt>
<wgt id='2104'> +2.7726555E+03 </wgt>
<wgt id='2105'> +2.8088188E+03 </wgt>
<wgt id='2106'> +2.8624651E+03 </wgt>
<wgt id='2107'> +2.9181102E+03 </wgt>
<wgt id='2108'> +2.9396722E+03 </wgt>
<wgt id='2109'> +2.8057433E+03 </wgt>
<wgt id='2110'> +2.7922175E+03 </wgt>
<wgt id='2111'> +2.8436176E+03 </wgt>
<wgt id='2112'> +2.9029564E+03 </wgt>
<wgt id='2113'> +3.2940419E+03 </wgt>
<wgt id='2114'> +3.5950688E+03 </wgt>
<wgt id='2115'> +2.8606230E+03 </wgt>
<wgt id='2116'> +3.2885025E+03 </wgt>
</rwgt>
</event>
<event>
 5      5 +2.9771057E+03 8.04384400e+01 7.54677100e-03 1.20283300e-01
        3 -1    0    0  501    0 +0.0000000000e+00 +0.0000000000e+00 +3.6890934880e+01 3.6890934880e+01 0.0000000000e+00 0.0000e+00 -1.0000e+00
       -4 -1    0    0    0  501 -0.0000000000e+00 -0.0000000000e+00 -4.3847780610e+01 4.3847780610e+01 0.0000000000e+00 0.0000e+00 1.0000e+00
      -24  2    1    2    0    0 +0.0000000000e+00 +0.0000000000e+00 -6.9568457306e+00 8.0738715490e+01 8.0438439048e+01 0.0000e+00 0.0000e+00
       11  1    3    3    0    0 -3.9662651211e+00 -2.7830292157e+01 +2.5392281356e+01 3.7881715550e+01 0.0000000000e+00 0.0000e+00 -1.0000e+00
      -12  1    3    3    0    0 +3.9662651211e+00 +2.7830292157e+01 -3.2349127087e+01 4.2856999940e+01 0.0000000000e+00 0.0000e+00 1.0000e+00
<scales pt_clust_4="13000.00000" pt_clust_5="13000.00000"></scales>
<mgrwt>
<rscale>  0 0.80438439E+02</rscale>
<asrwt>0</asrwt>
<pdfrwt beam="1">  1        3 0.56755284E-02 0.80438439E+02</pdfrwt>
<pdfrwt beam="2">  1       -4 0.67458124E-02 0.80438439E+02</pdfrwt>
<totfact> 0.72134317E+04</totfact>
</mgrwt>
<clustering>
<clus scale="   80.438">  4  5 -1 -1</clus>
<clus scale="   80.438">  1  4  2 -1</clus>
</clustering>
<rwgt>
<wgt id='1001'> +2.9771057E+03 </wgt>
<wgt id='1002'> +2.6966162E+03 </wgt>
<wgt id='1003'> +2.6966162E+03 </wgt>
<wgt id='1004'> +2.1350747E+03 </wgt>
<wgt id='1005'> +2.9771057E+03 </wgt>
<wgt id='1006'> +2.9771057E+03 </wgt>
<wgt id='1007'> +2.6966162E+03 </wgt>
<wgt id='1008'> +2.6966162E+03 </wgt>
<wgt id='1009'> +2.1350747E+03 </wgt>
<wgt id='1010'> +2.9771057E+03 </wgt>
<wgt id='1011'> +2.9771057E+03 </wgt>
<wgt id='1012'> +2.6966162E+03 </wgt>
<wgt id='1013'> +2.6966162E+03 </wgt>
<wgt id='1014'> +2.1350747E+03 </wgt>
<wgt id='1015'> +2.9771057E+03 </wgt>
<wgt id='1016'> +3.4966073E+03 </wgt>
<wgt id='1017'> +3.2321569E+03 </wgt>
<wgt id='1018'> +3.2321569E+03 </wgt>
<wgt id='1019'> +2.6966162E+03 </wgt>
<wgt id='1020'> +3.4966073E+03 </wgt>
<wgt id='1021'> +3.4966073E+03 </wgt>
<wgt id='1022'> +3.2321569E+03 </wgt>
<wgt id='1023'> +3.2321569E+03 </wgt>
<wgt id='1024'> +2.6966162E+03 </wgt>
<wgt id='1025'> +3.4966073E+03 </wgt>
<wgt id='1026'> +3.4966073E+03 </wgt>
<wgt id='1027'> +3.2321569E+03 </wgt>
<wgt id='1028'> +3.2321569E+03 </wgt>
<wgt id='1029'> +2.6966162E+03 </wgt>
<wgt id='1030'> +3.4966073E+03 </wgt>
<wgt id='1031'> +2.4280440E+03 </wgt>
<wgt id='1032'> +2.1350747E+03 </wgt>
<wgt id='1033'> +2.1350747E+03 </wgt>
<wgt id='1034'> +1.5577502E+03 </wgt>
<wgt id='1035'> +2.4280440E+03 </wgt>
<wgt id='1036'> +2.4280440E+03 </wgt>
<wgt id='1037'> +2.1350747E+03 </wgt>
<wgt id='1038'> +2.1350747E+03 </wgt>
<wgt id='1039'> +1.5577502E+03 </wgt>
<wgt id='1040'> +2.4280440E+03 </wgt>
<wgt id='1041'> +2.4280440E+03 </wgt>
<wgt id='1042'> +2.1350747E+03 </wgt>
<wgt id='1043'> +2.1350747E+03 </wgt>
<wgt id='1044'> +1.5577502E+03 </wgt>
<wgt id='1045'> +2.4280440E+03 </wgt>
<wgt id='1046'> +2.9771057E+03 </wgt>
<wgt id='1047'> +2.9752604E+03 </wgt>
<wgt id='1048'> +2.9846417E+03 </wgt>
<wgt id='1049'> +2.9848381E+03 </wgt>
<wgt id='1050'> +2.9336484E+03 </wgt>
<wgt id='1051'> +2.9763531E+03 </wgt>
<wgt id='1052'> +3.0057435E+03 </wgt>
<wgt id='1053'> +2.9856301E+03 </wgt>
<wgt id='1054'> +3.0098171E+03 </wgt>
<wgt id='1055'> +2.9309946E+03 </wgt>
<wgt id='1056'> +3.0180877E+03 </wgt>
<wgt id='1057'> +3.0234721E+03 </wgt>
<wgt id='1058'> +2.9530635E+03 </wgt>
<wgt id='1059'> +3.0028793E+03 </wgt>
<wgt id='1060'> +2.9157130E+03 </wgt>
<wgt id='1061'> +2.9383576E+03 </wgt>
<wgt id='1062'> +2.9181289E+03 </wgt>
<wgt id='1063'> +3.0062606E+03 </wgt>
<wgt id='1064'> +3.0001721E+03 </wgt>
<wgt id='1065'> +2.9854882E+03 </wgt>
<wgt id='1066'> +2.9753237E+03 </wgt>
<wgt id='1067'> +2.9470885E+03 </wgt>
<wgt id='1068'> +2.9562612E+03 </wgt>
<wgt id='1069'> +3.0151459E+03 </wgt>
<wgt id='1070'> +2.9774950E+03 </wgt>
<wgt id='1071'> +2.9652338E+03 </wgt>
<wgt id='1072'> +2.9922087E+03 </wgt>
<wgt id='1073'> +2.9770273E+03 </wgt>
<wgt id='1074'> +2.9761978E+03 </wgt>
<wgt id='1075'> +2.9693863E+03 </wgt>
<wgt id='1076'> +2.9872248E+03 </wgt>
<wgt id='1077'> +2.9688824E+03 </wgt>
<wgt id='1078'> +2.9579568E+03 </wgt>
<wgt id='1079'> +2.9802640E+03 </wgt>
<wgt id='1080'> +2.9848017E+03 </wgt>
<wgt id='1081'> +2.9761089E+03 </wgt>
<wgt id='1082'> +2.9712973E+03 </wgt>
<wgt id='1083'> +2.9683984E+03 </wgt>
<wgt id='1084'> +2.9763541E+03 </wgt>
<wgt id='1085'> +2.9762556E+03 </wgt>
<wgt id='1086'> +2.9820023E+03 </wgt>
<wgt id='1087'> +2.9708098E+03 </wgt>
<wgt id='1088'> +2.9714751E+03 </wgt>
<wgt id='1089'> +2.9733844E+03 </wgt>
<wgt id='1090'> +2.9736948E+03 </wgt>
<wgt id='1091'> +2.9596428E+03 </wgt>
<wgt id='1092'> +2.9682033E+03 </wgt>
<wgt id='1093'> +2.9753655E+03 </wgt>
<wgt id='1094'> +2.9789665E+03 </wgt>
<wgt id='1095'> +2.9805095E+03 </wgt>
<wgt id='1096'> +2.9769608E+03 </wgt>
<wgt id='1097'> +2.9727476E+03 </wgt>
<wgt id='1098'> +2.9821144E+03 </wgt>
<wgt id='1099'> +2.9775593E+03 </wgt>
<wgt id='1100'> +2.9789905E+03 </wgt>
<wgt id='1101'> +2.9820127E+03 </wgt>
<wgt id='1102'> +2.9743835E+03 </wgt>
<wgt id='1103'> +2.9726271E+03 </wgt>
<wgt id='1104'> +2.9741498E+03 </wgt>
<wgt id='1105'> +2.9791101E+03 </wgt>
<wgt id='1106'> +2.9753691E+03 </wgt>
<wgt id='1107'> +2.9817182E+03 </wgt>
<wgt id='1108'> +2.9760834E+03 </wgt>
<wgt id='1109'> +2.9805975E+03 </wgt>
<wgt id='1110'> +2.9774041E+03 </wgt>
<wgt id='1111'> +2.9755484E+03 </wgt>
<wgt id='1112'> +2.9770020E+03 </wgt>
<wgt id='1113'> +2.9815817E+03 </wgt>
<wgt id='1114'> +2.9777032E+03 </wgt>
<wgt id='1115'> +2.9747665E+03 </wgt>
<wgt id='1116'> +2.9776360E+03 </wgt>
<wgt id='1117'> +2.9787931E+03 </wgt>
<wgt id='1118'> +2.9776271E+03 </wgt>
<wgt id='1119'> +2.9775695E+03 </wgt>
<wgt id='1120'> +2.9777638E+03 </wgt>
<wgt id='1121'> +2.9785966E+03 </wgt>
<wgt id='1122'> +2.9789250E+03 </wgt>
<wgt id='1123'> +2.9823472E+03 </wgt>
<wgt id='1124'> +2.9774504E+03 </wgt>
<wgt id='1125'> +2.9709288E+03 </wgt>
<wgt id='1126'> +2.9762614E+03 </wgt>
<wgt id='1127'> +2.9775085E+03 </wgt>
<wgt id='1128'> +2.9758320E+03 </wgt>
<wgt id='1129'> +2.9807197E+03 </wgt>
<wgt id='1130'> +2.9769183E+03 </wgt>
<wgt id='1131'> +2.9773563E+03 </wgt>
<wgt id='1132'> +2.9779057E+03 </wgt>
<wgt id='1133'> +2.9760925E+03 </wgt>
<wgt id='1134'> +2.9784814E+03 </wgt>
<wgt id='1135'> +2.9780138E+03 </wgt>
<wgt id='1136'> +2.9772202E+03 </wgt>
<wgt id='1137'> +2.9750487E+03 </wgt>
<wgt id='1138'> +2.9744966E+03 </wgt>
<wgt id='1139'> +2.9769260E+03 </wgt>
<wgt id='1140'> +2.9807090E+03 </wgt>
<wgt id='1141'> +2.9772457E+03 </wgt>
<wgt id='1142'> +2.9797535E+03 </wgt>
<wgt id='1143'> +2.9742525E+03 </wgt>
<wgt id='1144'> +2.9754958E+03 </wgt>
<wgt id='1145'> +2.9772361E+03 </wgt>
<wgt id='1146'> +2.9788456E+03 </wgt>
<wgt id='1147'> +2.8908781E+03 </wgt>
<wgt id='1148'> +3.0353597E+03 </wgt>
<wgt id='1149'> +2.5160876E+03 </wgt>
<wgt id='1150'> +2.6242339E+03 </wgt>
<wgt id='1151'> +2.7101149E+03 </wgt>
<wgt id='1152'> +2.7791620E+03 </wgt>
<wgt id='1153'> +2.9296002E+03 </wgt>
<wgt id='1154'> +3.0134439E+03 </wgt>
<wgt id='1155'> +3.1456227E+03 </wgt>
<wgt id='1156'> +3.2188989E+03 </wgt>
<wgt id='1157'> +2.7986088E+03 </wgt>
<wgt id='1158'> +2.8173310E+03 </wgt>
<wgt id='1159'> +2.7783045E+03 </wgt>
<wgt id='1160'> +2.8040929E+03 </wgt>
<wgt id='1161'> +2.7572122E+03 </wgt>
<wgt id='1162'> +2.7899215E+03 </wgt>
<wgt id='1163'> +2.8247383E+03 </wgt>
<wgt id='1164'> +2.7811820E+03 </wgt>
<wgt id='1165'> +2.8048842E+03 </wgt>
<wgt id='1166'> +2.7705472E+03 </wgt>
<wgt id='1167'> +2.8660357E+03 </wgt>
<wgt id='1168'> +2.8179236E+03 </wgt>
<wgt id='1169'> +2.7817321E+03 </wgt>
<wgt id='1170'> +2.7761681E+03 </wgt>
<wgt id='1171'> +2.7603120E+03 </wgt>
<wgt id='1172'> +2.8632577E+03 </wgt>
<wgt id='1173'> +2.7472221E+03 </wgt>
<wgt id='1174'> +2.8160987E+03 </wgt>
<wgt id='1175'> +2.7730875E+03 </wgt>
<wgt id='1176'> +2.8121983E+03 </wgt>
<wgt id='1177'> +2.8420449E+03 </wgt>
<wgt id='1178'> +2.7561883E+03 </wgt>
<wgt id='1179'> +2.7921948E+03 </wgt>
<wgt id='1180'> +2.8052770E+03 </wgt>
<wgt id='1181'> +2.7889317E+03 </wgt>
<wgt id='1182'> +2.8217552E+03 </wgt>
<wgt id='1183'> +2.7991242E+03 </wgt>
<wgt id='1184'> +2.8000919E+03 </wgt>
<wgt id='1185'> +2.8005278E+03 </wgt>
<wgt id='1186'> +2.7925292E+03 </wgt>
<wgt id='1187'> +2.7984698E+03 </wgt>
<wgt id='1188'> +2.7872630E+03 </wgt>
<wgt id='1189'> +2.8123225E+03 </wgt>
<wgt id='1190'> +2.7891978E+03 </wgt>
<wgt id='1191'> +2.7934082E+03 </wgt>
<wgt id='1192'> +2.8081148E+03 </wgt>
<wgt id='1193'> +2.8064307E+03 </wgt>
<wgt id='1194'> +2.8142187E+03 </wgt>
<wgt id='1195'> +2.7998629E+03 </wgt>
<wgt id='1196'> +2.8063368E+03 </wgt>
<wgt id='1197'> +2.8050570E+03 </wgt>
<wgt id='1198'> +2.7984281E+03 </wgt>
<wgt id='1199'> +2.8014623E+03 </wgt>
<wgt id='1200'> +2.8072612E+03 </wgt>
<wgt id='1201'> +2.8014464E+03 </wgt>
<wgt id='1202'> +2.7906153E+03 </wgt>
<wgt id='1203'> +2.8005637E+03 </wgt>
<wgt id='1204'> +2.8105595E+03 </wgt>
<wgt id='1205'> +2.8092328E+03 </wgt>
<wgt id='1206'> +2.7962058E+03 </wgt>
<wgt id='1207'> +2.8011038E+03 </wgt>
<wgt id='1208'> +2.7962409E+03 </wgt>
<wgt id='1209'> +2.8079629E+03 </wgt>
<wgt id='1210'> +2.8014345E+03 </wgt>
<wgt id='1211'> +2.8067406E+03 </wgt>
<wgt id='1212'> +2.7986252E+03 </wgt>
<wgt id='1213'> +2.7983311E+03 </wgt>
<wgt id='1214'> +2.7999763E+03 </wgt>
<wgt id='1215'> +2.7988157E+03 </wgt>
<wgt id='1216'> +2.8007165E+03 </wgt>
<wgt id='1217'> +2.7958451E+03 </wgt>
<wgt id='1218'> +2.7948533E+03 </wgt>
<wgt id='1219'> +2.7958828E+03 </wgt>
<wgt id='1220'> +2.7980340E+03 </wgt>
<wgt id='1221'> +2.7983229E+03 </wgt>
<wgt id='1222'> +2.7988971E+03 </wgt>
<wgt id='1223'> +2.7935715E+03 </wgt>
<wgt id='1224'> +2.8006017E+03 </wgt>
<wgt id='1225'> +2.8023289E+03 </wgt>
<wgt id='1226'> +2.7965916E+03 </wgt>
<wgt id='1227'> +2.7978651E+03 </wgt>
<wgt id='1228'> +2.7976002E+03 </wgt>
<wgt id='1229'> +2.8004544E+03 </wgt>
<wgt id='1230'> +2.7958609E+03 </wgt>
<wgt id='1231'> +2.7946097E+03 </wgt>
<wgt id='1232'> +2.7973068E+03 </wgt>
<wgt id='1233'> +2.7966482E+03 </wgt>
<wgt id='1234'> +2.7943834E+03 </wgt>
<wgt id='1235'> +2.7964221E+03 </wgt>
<wgt id='1236'> +2.8006553E+03 </wgt>
<wgt id='1237'> +2.7990186E+03 </wgt>
<wgt id='1238'> +2.8004453E+03 </wgt>
<wgt id='1239'> +2.8022465E+03 </wgt>
<wgt id='1240'> +2.8006856E+03 </wgt>
<wgt id='1241'> +2.7961941E+03 </wgt>
<wgt id='1242'> +2.7939083E+03 </wgt>
<wgt id='1243'> +2.7989645E+03 </wgt>
<wgt id='1244'> +2.8002533E+03 </wgt>
<wgt id='1245'> +2.7986838E+03 </wgt>
<wgt id='1246'> +2.7977119E+03 </wgt>
<wgt id='1247'> +2.7987680E+03 </wgt>
<wgt id='1248'> +2.7996700E+03 </wgt>
<wgt id='1249'> +2.7977201E+03 </wgt>
<wgt id='1250'> +2.7979987E+03 </wgt>
<wgt id='1251'> +2.8005818E+03 </wgt>
<wgt id='1252'> +2.7993481E+03 </wgt>
<wgt id='1253'> +2.7992253E+03 </wgt>
<wgt id='1254'> +2.7990941E+03 </wgt>
<wgt id='1255'> +2.8013616E+03 </wgt>
<wgt id='1256'> +2.7971115E+03 </wgt>
<wgt id='1257'> +2.7965483E+03 </wgt>
<wgt id='1258'> +2.7183709E+03 </wgt>
<wgt id='1259'> +2.8653479E+03 </wgt>
<wgt id='1260'> +2.9241518E+03 </wgt>
<wgt id='1261'> +2.9001719E+03 </wgt>
<wgt id='1262'> +2.9046947E+03 </wgt>
<wgt id='1263'> +2.8935388E+03 </wgt>
<wgt id='1264'> +2.9466809E+03 </wgt>
<wgt id='1265'> +2.8599050E+03 </wgt>
<wgt id='1266'> +3.0116807E+03 </wgt>
<wgt id='1267'> +2.9549607E+03 </wgt>
<wgt id='1268'> +2.8621346E+03 </wgt>
<wgt id='1269'> +2.9755276E+03 </wgt>
<wgt id='1270'> +2.8999694E+03 </wgt>
<wgt id='1271'> +2.8774301E+03 </wgt>
<wgt id='1272'> +2.9279567E+03 </wgt>
<wgt id='1273'> +2.8385247E+03 </wgt>
<wgt id='1274'> +2.8990715E+03 </wgt>
<wgt id='1275'> +2.9454874E+03 </wgt>
<wgt id='1276'> +2.8541065E+03 </wgt>
<wgt id='1277'> +2.9512177E+03 </wgt>
<wgt id='1278'> +2.8952301E+03 </wgt>
<wgt id='1279'> +2.8972783E+03 </wgt>
<wgt id='1280'> +2.9480926E+03 </wgt>
<wgt id='1281'> +2.9448552E+03 </wgt>
<wgt id='1282'> +2.9109013E+03 </wgt>
<wgt id='1283'> +2.9116133E+03 </wgt>
<wgt id='1284'> +2.9367013E+03 </wgt>
<wgt id='1285'> +2.9021367E+03 </wgt>
<wgt id='1286'> +2.9421515E+03 </wgt>
<wgt id='1287'> +2.9670581E+03 </wgt>
<wgt id='1288'> +2.8520005E+03 </wgt>
<wgt id='1289'> +2.8542510E+03 </wgt>
<wgt id='1290'> +2.9658915E+03 </wgt>
<wgt id='1291'> +2.8847644E+03 </wgt>
<wgt id='1292'> +2.9802067E+03 </wgt>
<wgt id='1293'> +2.8759075E+03 </wgt>
<wgt id='1294'> +2.9666125E+03 </wgt>
<wgt id='1295'> +2.8480533E+03 </wgt>
<wgt id='1296'> +2.9879597E+03 </wgt>
<wgt id='1297'> +2.9511216E+03 </wgt>
<wgt id='1298'> +2.8923914E+03 </wgt>
<wgt id='1299'> +2.6969549E+03 </wgt>
<wgt id='1300'> +3.1340971E+03 </wgt>
<wgt id='1301'> +2.8557390E+03 </wgt>
<wgt id='1302'> +2.9413493E+03 </wgt>
<wgt id='1303'> +2.9754770E+03 </wgt>
<wgt id='1304'> +2.8090332E+03 </wgt>
<wgt id='1305'> +3.0299331E+03 </wgt>
<wgt id='1306'> +2.9188631E+03 </wgt>
<wgt id='1307'> +2.9520931E+03 </wgt>
<wgt id='1308'> +2.9497761E+03 </wgt>
<wgt id='1309'> +2.9169981E+03 </wgt>
<wgt id='1310'> +2.9485298E+03 </wgt>
<wgt id='1311'> +2.9382015E+03 </wgt>
<wgt id='1312'> +2.9222004E+03 </wgt>
<wgt id='1313'> +2.8904255E+03 </wgt>
<wgt id='1314'> +3.0476436E+03 </wgt>
<wgt id='1315'> +3.1402027E+03 </wgt>
<wgt id='1316'> +2.6358684E+03 </wgt>
<wgt id='1317'> +2.8732244E+03 </wgt>
<wgt id='1318'> +2.9530038E+03 </wgt>
<wgt id='1319'> +2.9153177E+03 </wgt>
<wgt id='1320'> +2.9222122E+03 </wgt>
<wgt id='1321'> +2.9270833E+03 </wgt>
<wgt id='1322'> +3.0272733E+03 </wgt>
<wgt id='1323'> +2.8832738E+03 </wgt>
<wgt id='1324'> +2.9471309E+03 </wgt>
<wgt id='1325'> +2.8916748E+03 </wgt>
<wgt id='1326'> +2.9768187E+03 </wgt>
<wgt id='1327'> +2.8906296E+03 </wgt>
<wgt id='1328'> +2.8265273E+03 </wgt>
<wgt id='1329'> +2.9907959E+03 </wgt>
<wgt id='1330'> +2.9120094E+03 </wgt>
<wgt id='1331'> +2.9264968E+03 </wgt>
<wgt id='1332'> +2.8055191E+03 </wgt>
<wgt id='1333'> +2.9665516E+03 </wgt>
<wgt id='1334'> +2.6884805E+03 </wgt>
<wgt id='1335'> +3.1612275E+03 </wgt>
<wgt id='1336'> +2.8697411E+03 </wgt>
<wgt id='1337'> +2.9679802E+03 </wgt>
<wgt id='1338'> +2.9329963E+03 </wgt>
<wgt id='1339'> +2.8921494E+03 </wgt>
<wgt id='1340'> +2.8975669E+03 </wgt>
<wgt id='1341'> +2.9455104E+03 </wgt>
<wgt id='1342'> +2.9001928E+03 </wgt>
<wgt id='1343'> +2.9263837E+03 </wgt>
<wgt id='1344'> +2.8458288E+03 </wgt>
<wgt id='1345'> +2.9814796E+03 </wgt>
<wgt id='1346'> +2.9078941E+03 </wgt>
<wgt id='1347'> +2.9231765E+03 </wgt>
<wgt id='1348'> +2.8967052E+03 </wgt>
<wgt id='1349'> +2.9214389E+03 </wgt>
<wgt id='1350'> +2.9170312E+03 </wgt>
<wgt id='1351'> +2.9124451E+03 </wgt>
<wgt id='1352'> +2.9241718E+03 </wgt>
<wgt id='1353'> +2.8938136E+03 </wgt>
<wgt id='1354'> +2.9926067E+03 </wgt>
<wgt id='1355'> +2.8407042E+03 </wgt>
<wgt id='1356'> +2.9342192E+03 </wgt>
<wgt id='1357'> +2.8691776E+03 </wgt>
<wgt id='1358'> +2.9080100E+03 </wgt>
<wgt id='1359'> +2.8800281E+03 </wgt>
<wgt id='1360'> +2.9420315E+03 </wgt>
<wgt id='1361'> +2.8908876E+03 </wgt>
<wgt id='1362'> +2.9336459E+03 </wgt>
<wgt id='1363'> +2.8778653E+03 </wgt>
<wgt id='1364'> +2.8503783E+03 </wgt>
<wgt id='1365'> +2.9127464E+03 </wgt>
<wgt id='1366'> +2.8625218E+03 </wgt>
<wgt id='1367'> +2.9748722E+03 </wgt>
<wgt id='1368'> +2.9664891E+03 </wgt>
<wgt id='1369'> +2.8202817E+03 </wgt>
<wgt id='1370'> +2.8967254E+03 </wgt>
<wgt id='1371'> +2.8948191E+03 </wgt>
<wgt id='1372'> +2.8079242E+03 </wgt>
<wgt id='1373'> +2.9209725E+03 </wgt>
<wgt id='1374'> +3.0919814E+03 </wgt>
<wgt id='1375'> +2.6849652E+03 </wgt>
<wgt id='1376'> +2.8505211E+03 </wgt>
<wgt id='1377'> +2.9663473E+03 </wgt>
<wgt id='1378'> +1.9539987E+03 </wgt>
<wgt id='1379'> +2.9111518E+03 </wgt>
<wgt id='1380'> +2.9124222E+03 </wgt>
<wgt id='1381'> +2.9097505E+03 </wgt>
<wgt id='1382'> +2.9107591E+03 </wgt>
<wgt id='1383'> +2.9113246E+03 </wgt>
<wgt id='1384'> +2.9145826E+03 </wgt>
<wgt id='1385'> +2.9079495E+03 </wgt>
<wgt id='1386'> +2.8960641E+03 </wgt>
<wgt id='1387'> +2.9278963E+03 </wgt>
<wgt id='1388'> +2.9204597E+03 </wgt>
<wgt id='1389'> +2.9020056E+03 </wgt>
<wgt id='1390'> +2.9153373E+03 </wgt>
<wgt id='1391'> +2.9020568E+03 </wgt>
<wgt id='1392'> +2.9032142E+03 </wgt>
<wgt id='1393'> +2.9251247E+03 </wgt>
<wgt id='1394'> +2.8958065E+03 </wgt>
<wgt id='1395'> +2.9198279E+03 </wgt>
<wgt id='1396'> +2.8595446E+03 </wgt>
<wgt id='1397'> +2.9717085E+03 </wgt>
<wgt id='1398'> +2.8449767E+03 </wgt>
<wgt id='1399'> +2.9683522E+03 </wgt>
<wgt id='1400'> +2.9064074E+03 </wgt>
<wgt id='1401'> +2.9176409E+03 </wgt>
<wgt id='1402'> +2.8942861E+03 </wgt>
<wgt id='1403'> +2.9233725E+03 </wgt>
<wgt id='1404'> +2.8707290E+03 </wgt>
<wgt id='1405'> +2.9439095E+03 </wgt>
<wgt id='1406'> +2.9180539E+03 </wgt>
<wgt id='1407'> +2.9142610E+03 </wgt>
<wgt id='1408'> +2.9412253E+03 </wgt>
<wgt id='1409'> +2.8760603E+03 </wgt>
<wgt id='1410'> +2.9367560E+03 </wgt>
<wgt id='1411'> +2.8814356E+03 </wgt>
<wgt id='1412'> +2.9209419E+03 </wgt>
<wgt id='1413'> +2.9008501E+03 </wgt>
<wgt id='1414'> +2.9107552E+03 </wgt>
<wgt id='1415'> +2.9198135E+03 </wgt>
<wgt id='1416'> +2.9287114E+03 </wgt>
<wgt id='1417'> +2.9025377E+03 </wgt>
<wgt id='1418'> +2.9066913E+03 </wgt>
<wgt id='1419'> +2.9160792E+03 </wgt>
<wgt id='1420'> +3.1052656E+03 </wgt>
<wgt id='1421'> +2.7432834E+03 </wgt>
<wgt id='1422'> +2.8179719E+03 </wgt>
<wgt id='1423'> +3.0093101E+03 </wgt>
<wgt id='1424'> +2.9506052E+03 </wgt>
<wgt id='1425'> +2.8182003E+03 </wgt>
<wgt id='1426'> +2.8660354E+03 </wgt>
<wgt id='1427'> +2.9439423E+03 </wgt>
<wgt id='1428'> +2.8880848E+03 </wgt>
<wgt id='1429'> +2.9209464E+03 </wgt>
<wgt id='1430'> +3.0012158E+03 </wgt>
<wgt id='1431'> +3.0004781E+03 </wgt>
<wgt id='1432'> +3.0021298E+03 </wgt>
<wgt id='1433'> +3.0110623E+03 </wgt>
<wgt id='1434'> +2.9914319E+03 </wgt>
<wgt id='1435'> +3.0037584E+03 </wgt>
<wgt id='1436'> +3.0002090E+03 </wgt>
<wgt id='1437'> +2.9815817E+03 </wgt>
<wgt id='1438'> +3.0209041E+03 </wgt>
<wgt id='1439'> +3.0063416E+03 </wgt>
<wgt id='1440'> +2.9962703E+03 </wgt>
<wgt id='1441'> +2.9774168E+03 </wgt>
<wgt id='1442'> +3.0117676E+03 </wgt>
<wgt id='1443'> +3.0023548E+03 </wgt>
<wgt id='1444'> +2.9998471E+03 </wgt>
<wgt id='1445'> +2.9842825E+03 </wgt>
<wgt id='1446'> +3.0194461E+03 </wgt>
<wgt id='1447'> +2.9233525E+03 </wgt>
<wgt id='1448'> +3.0442780E+03 </wgt>
<wgt id='1449'> +3.0382139E+03 </wgt>
<wgt id='1450'> +2.9520596E+03 </wgt>
<wgt id='1451'> +2.9457506E+03 </wgt>
<wgt id='1452'> +3.0400415E+03 </wgt>
<wgt id='1453'> +3.0388455E+03 </wgt>
<wgt id='1454'> +2.9641110E+03 </wgt>
<wgt id='1455'> +3.0137627E+03 </wgt>
<wgt id='1456'> +2.9709251E+03 </wgt>
<wgt id='1457'> +3.0151800E+03 </wgt>
<wgt id='1458'> +2.9979949E+03 </wgt>
<wgt id='1459'> +2.9782308E+03 </wgt>
<wgt id='1460'> +3.0608000E+03 </wgt>
<wgt id='1461'> +3.0094435E+03 </wgt>
<wgt id='1462'> +2.9854370E+03 </wgt>
<wgt id='1463'> +2.9922822E+03 </wgt>
<wgt id='1464'> +3.0210918E+03 </wgt>
<wgt id='1465'> +3.0058229E+03 </wgt>
<wgt id='1466'> +3.0016767E+03 </wgt>
<wgt id='1467'> +3.0045129E+03 </wgt>
<wgt id='1468'> +3.0006567E+03 </wgt>
<wgt id='1469'> +2.9955602E+03 </wgt>
<wgt id='1470'> +3.0052476E+03 </wgt>
<wgt id='1471'> +2.8703674E+03 </wgt>
<wgt id='1472'> +3.2385616E+03 </wgt>
<wgt id='1473'> +2.9893295E+03 </wgt>
<wgt id='1474'> +3.0725680E+03 </wgt>
<wgt id='1475'> +3.0892594E+03 </wgt>
<wgt id='1476'> +2.9168896E+03 </wgt>
<wgt id='1477'> +2.9237595E+03 </wgt>
<wgt id='1478'> +3.0332764E+03 </wgt>
<wgt id='1479'> +2.9608846E+03 </wgt>
<wgt id='1480'> +3.0221810E+03 </wgt>
<wgt id='1481'> +2.4224339E+03 </wgt>
<wgt id='1482'> +3.1748196E+03 </wgt>
<wgt id='1483'> +3.1739585E+03 </wgt>
<wgt id='1484'> +3.1751548E+03 </wgt>
<wgt id='1485'> +3.1724845E+03 </wgt>
<wgt id='1486'> +3.1749527E+03 </wgt>
<wgt id='1487'> +3.1831610E+03 </wgt>
<wgt id='1488'> +3.1877781E+03 </wgt>
<wgt id='1489'> +3.1499273E+03 </wgt>
<wgt id='1490'> +3.1828868E+03 </wgt>
<wgt id='1491'> +3.1817698E+03 </wgt>
<wgt id='1492'> +3.1778421E+03 </wgt>
<wgt id='1493'> +3.1757830E+03 </wgt>
<wgt id='1494'> +3.1904726E+03 </wgt>
<wgt id='1495'> +3.1714580E+03 </wgt>
<wgt id='1496'> +3.1817385E+03 </wgt>
<wgt id='1497'> +3.1736428E+03 </wgt>
<wgt id='1498'> +3.1815790E+03 </wgt>
<wgt id='1499'> +3.1750945E+03 </wgt>
<wgt id='1500'> +3.1715462E+03 </wgt>
<wgt id='1501'> +3.1767569E+03 </wgt>
<wgt id='1502'> +3.1615623E+03 </wgt>
<wgt id='1503'> +3.1966318E+03 </wgt>
<wgt id='1504'> +3.1517894E+03 </wgt>
<wgt id='1505'> +3.1846099E+03 </wgt>
<wgt id='1506'> +3.1920606E+03 </wgt>
<wgt id='1507'> +3.2011986E+03 </wgt>
<wgt id='1508'> +3.1776238E+03 </wgt>
<wgt id='1509'> +3.1642299E+03 </wgt>
<wgt id='1510'> +3.1821495E+03 </wgt>
<wgt id='1511'> +3.1415268E+03 </wgt>
<wgt id='1512'> +2.8937487E+03 </wgt>
<wgt id='1513'> +2.8869214E+03 </wgt>
<wgt id='1514'> +2.9332361E+03 </wgt>
<wgt id='1515'> +2.7521361E+03 </wgt>
<wgt id='1516'> +2.9288221E+03 </wgt>
<wgt id='1517'> +2.8941367E+03 </wgt>
<wgt id='1518'> +2.9187934E+03 </wgt>
<wgt id='1519'> +2.9236372E+03 </wgt>
<wgt id='1520'> +2.9895481E+03 </wgt>
<wgt id='1521'> +2.8717944E+03 </wgt>
<wgt id='1522'> +2.8829643E+03 </wgt>
<wgt id='1523'> +2.9827025E+03 </wgt>
<wgt id='1524'> +2.8467424E+03 </wgt>
<wgt id='1525'> +2.8891625E+03 </wgt>
<wgt id='1526'> +2.9107775E+03 </wgt>
<wgt id='1527'> +2.8757117E+03 </wgt>
<wgt id='1528'> +2.9318997E+03 </wgt>
<wgt id='1529'> +2.8357110E+03 </wgt>
<wgt id='1530'> +2.8872872E+03 </wgt>
<wgt id='1531'> +2.8847769E+03 </wgt>
<wgt id='1532'> +2.8891858E+03 </wgt>
<wgt id='1533'> +2.9051784E+03 </wgt>
<wgt id='1534'> +2.9081665E+03 </wgt>
<wgt id='1535'> +2.8869501E+03 </wgt>
<wgt id='1536'> +2.8985727E+03 </wgt>
<wgt id='1537'> +2.9171231E+03 </wgt>
<wgt id='1538'> +2.8866272E+03 </wgt>
<wgt id='1539'> +2.9034163E+03 </wgt>
<wgt id='1540'> +2.8968749E+03 </wgt>
<wgt id='1541'> +2.8856279E+03 </wgt>
<wgt id='1542'> +2.8937544E+03 </wgt>
<wgt id='1543'> +2.8948977E+03 </wgt>
<wgt id='1544'> +2.8982948E+03 </wgt>
<wgt id='1545'> +2.8891933E+03 </wgt>
<wgt id='1546'> +2.9018715E+03 </wgt>
<wgt id='1547'> +2.8940964E+03 </wgt>
<wgt id='1548'> +2.8875447E+03 </wgt>
<wgt id='1549'> +2.8950852E+03 </wgt>
<wgt id='1550'> +2.8885020E+03 </wgt>
<wgt id='1551'> +2.8985147E+03 </wgt>
<wgt id='1552'> +2.8966946E+03 </wgt>
<wgt id='1553'> +2.8917190E+03 </wgt>
<wgt id='1554'> +2.8929059E+03 </wgt>
<wgt id='1555'> +2.8924189E+03 </wgt>
<wgt id='1556'> +2.8945251E+03 </wgt>
<wgt id='1557'> +2.8909604E+03 </wgt>
<wgt id='1558'> +2.8934270E+03 </wgt>
<wgt id='1559'> +2.8950362E+03 </wgt>
<wgt id='1560'> +2.8967667E+03 </wgt>
<wgt id='1561'> +2.8919357E+03 </wgt>
<wgt id='1562'> +2.8940296E+03 </wgt>
<wgt id='1563'> +2.8910168E+03 </wgt>
<wgt id='1564'> +2.8965199E+03 </wgt>
<wgt id='1565'> +2.8907611E+03 </wgt>
<wgt id='1566'> +2.8885075E+03 </wgt>
<wgt id='1567'> +2.8905855E+03 </wgt>
<wgt id='1568'> +2.8895352E+03 </wgt>
<wgt id='1569'> +2.8975962E+03 </wgt>
<wgt id='1570'> +2.8939194E+03 </wgt>
<wgt id='1571'> +2.8935580E+03 </wgt>
<wgt id='1572'> +2.8935992E+03 </wgt>
<wgt id='1573'> +2.8930381E+03 </wgt>
<wgt id='1574'> +2.8918182E+03 </wgt>
<wgt id='1575'> +2.8920575E+03 </wgt>
<wgt id='1576'> +2.8932049E+03 </wgt>
<wgt id='1577'> +2.8935525E+03 </wgt>
<wgt id='1578'> +2.8963061E+03 </wgt>
<wgt id='1579'> +2.8931049E+03 </wgt>
<wgt id='1580'> +2.8946986E+03 </wgt>
<wgt id='1581'> +2.8918433E+03 </wgt>
<wgt id='1582'> +2.8930028E+03 </wgt>
<wgt id='1583'> +2.8940799E+03 </wgt>
<wgt id='1584'> +2.8942377E+03 </wgt>
<wgt id='1585'> +2.8921764E+03 </wgt>
<wgt id='1586'> +2.8919911E+03 </wgt>
<wgt id='1587'> +2.8933760E+03 </wgt>
<wgt id='1588'> +2.8942549E+03 </wgt>
<wgt id='1589'> +2.8912083E+03 </wgt>
<wgt id='1590'> +2.8930033E+03 </wgt>
<wgt id='1591'> +2.8952701E+03 </wgt>
<wgt id='1592'> +2.8920031E+03 </wgt>
<wgt id='1593'> +2.8929215E+03 </wgt>
<wgt id='1594'> +2.8942036E+03 </wgt>
<wgt id='1595'> +2.8929120E+03 </wgt>
<wgt id='1596'> +2.8944859E+03 </wgt>
<wgt id='1597'> +2.8932458E+03 </wgt>
<wgt id='1598'> +2.8964359E+03 </wgt>
<wgt id='1599'> +2.8953270E+03 </wgt>
<wgt id='1600'> +2.8942508E+03 </wgt>
<wgt id='1601'> +2.8936924E+03 </wgt>
<wgt id='1602'> +2.8932736E+03 </wgt>
<wgt id='1603'> +2.8922999E+03 </wgt>
<wgt id='1604'> +2.8936037E+03 </wgt>
<wgt id='1605'> +2.8942816E+03 </wgt>
<wgt id='1606'> +2.8924511E+03 </wgt>
<wgt id='1607'> +2.8926058E+03 </wgt>
<wgt id='1608'> +2.8939239E+03 </wgt>
<wgt id='1609'> +2.8948631E+03 </wgt>
<wgt id='1610'> +2.8941684E+03 </wgt>
<wgt id='1611'> +2.8938970E+03 </wgt>
<wgt id='1612'> +2.8934617E+03 </wgt>
<wgt id='1613'> +2.8471360E+03 </wgt>
<wgt id='1614'> +2.9397775E+03 </wgt>
<wgt id='1615'> +2.9515504E+03 </wgt>
<wgt id='1616'> +2.9733606E+03 </wgt>
<wgt id='1617'> +2.9730435E+03 </wgt>
<wgt id='1618'> +2.9066330E+03 </wgt>
<wgt id='1619'> +2.8702768E+03 </wgt>
<wgt id='1620'> +2.8620250E+03 </wgt>
<wgt id='1621'> +2.8950080E+03 </wgt>
<wgt id='1622'> +2.9496286E+03 </wgt>
<wgt id='1623'> +2.9676432E+03 </wgt>
<wgt id='1624'> +2.9304090E+03 </wgt>
<wgt id='1625'> +3.0019794E+03 </wgt>
<wgt id='1626'> +2.8406228E+03 </wgt>
<wgt id='1627'> +2.8730475E+03 </wgt>
<wgt id='1628'> +2.8860351E+03 </wgt>
<wgt id='1629'> +2.9207062E+03 </wgt>
<wgt id='1630'> +2.9429664E+03 </wgt>
<wgt id='1631'> +2.9468429E+03 </wgt>
<wgt id='1632'> +2.9882910E+03 </wgt>
<wgt id='1633'> +2.9036914E+03 </wgt>
<wgt id='1634'> +2.9715908E+03 </wgt>
<wgt id='1635'> +2.9839193E+03 </wgt>
<wgt id='1636'> +2.9581060E+03 </wgt>
<wgt id='1637'> +2.9628361E+03 </wgt>
<wgt id='1638'> +2.9626434E+03 </wgt>
<wgt id='1639'> +2.9378578E+03 </wgt>
<wgt id='1640'> +2.9485771E+03 </wgt>
<wgt id='1641'> +2.9295750E+03 </wgt>
<wgt id='1642'> +2.9617148E+03 </wgt>
<wgt id='1643'> +2.9599351E+03 </wgt>
<wgt id='1644'> +2.9426499E+03 </wgt>
<wgt id='1645'> +2.9510374E+03 </wgt>
<wgt id='1646'> +2.9529177E+03 </wgt>
<wgt id='1647'> +2.9633415E+03 </wgt>
<wgt id='1648'> +2.9536348E+03 </wgt>
<wgt id='1649'> +2.9561865E+03 </wgt>
<wgt id='1650'> +2.9625515E+03 </wgt>
<wgt id='1651'> +2.9497280E+03 </wgt>
<wgt id='1652'> +2.9472189E+03 </wgt>
<wgt id='1653'> +2.9517816E+03 </wgt>
<wgt id='1654'> +2.9504972E+03 </wgt>
<wgt id='1655'> +2.9495050E+03 </wgt>
<wgt id='1656'> +2.9465577E+03 </wgt>
<wgt id='1657'> +2.9547293E+03 </wgt>
<wgt id='1658'> +2.9586657E+03 </wgt>
<wgt id='1659'> +2.9484042E+03 </wgt>
<wgt id='1660'> +2.9464054E+03 </wgt>
<wgt id='1661'> +2.9454376E+03 </wgt>
<wgt id='1662'> +2.9538646E+03 </wgt>
<wgt id='1663'> +2.9481834E+03 </wgt>
<wgt id='1664'> +2.9517799E+03 </wgt>
<wgt id='1665'> +2.9573511E+03 </wgt>
<wgt id='1666'> +2.9554728E+03 </wgt>
<wgt id='1667'> +2.9537124E+03 </wgt>
<wgt id='1668'> +2.9494553E+03 </wgt>
<wgt id='1669'> +2.9491597E+03 </wgt>
<wgt id='1670'> +2.9533523E+03 </wgt>
<wgt id='1671'> +2.9513228E+03 </wgt>
<wgt id='1672'> +2.9512501E+03 </wgt>
<wgt id='1673'> +2.9497643E+03 </wgt>
<wgt id='1674'> +2.9519532E+03 </wgt>
<wgt id='1675'> +2.9514079E+03 </wgt>
<wgt id='1676'> +2.9523965E+03 </wgt>
<wgt id='1677'> +2.9512492E+03 </wgt>
<wgt id='1678'> +2.9517796E+03 </wgt>
<wgt id='1679'> +2.9508375E+03 </wgt>
<wgt id='1680'> +2.9526603E+03 </wgt>
<wgt id='1681'> +2.9515880E+03 </wgt>
<wgt id='1682'> +2.9512332E+03 </wgt>
<wgt id='1683'> +2.9513417E+03 </wgt>
<wgt id='1684'> +2.9523209E+03 </wgt>
<wgt id='1685'> +2.9527537E+03 </wgt>
<wgt id='1686'> +2.9524890E+03 </wgt>
<wgt id='1687'> +2.9531109E+03 </wgt>
<wgt id='1688'> +2.9503479E+03 </wgt>
<wgt id='1689'> +2.9504820E+03 </wgt>
<wgt id='1690'> +2.9514008E+03 </wgt>
<wgt id='1691'> +2.9516544E+03 </wgt>
<wgt id='1692'> +2.9514230E+03 </wgt>
<wgt id='1693'> +2.9525835E+03 </wgt>
<wgt id='1694'> +2.9511048E+03 </wgt>
<wgt id='1695'> +2.9521011E+03 </wgt>
<wgt id='1696'> +2.9525527E+03 </wgt>
<wgt id='1697'> +2.9520210E+03 </wgt>
<wgt id='1698'> +2.9510559E+03 </wgt>
<wgt id='1699'> +2.9507366E+03 </wgt>
<wgt id='1700'> +2.9514334E+03 </wgt>
<wgt id='1701'> +2.9529800E+03 </wgt>
<wgt id='1702'> +2.9498160E+03 </wgt>
<wgt id='1703'> +2.9517964E+03 </wgt>
<wgt id='1704'> +2.9505650E+03 </wgt>
<wgt id='1705'> +2.9511667E+03 </wgt>
<wgt id='1706'> +2.9503322E+03 </wgt>
<wgt id='1707'> +2.9504858E+03 </wgt>
<wgt id='1708'> +2.9515466E+03 </wgt>
<wgt id='1709'> +2.9506561E+03 </wgt>
<wgt id='1710'> +2.9520422E+03 </wgt>
<wgt id='1711'> +2.9508254E+03 </wgt>
<wgt id='1712'> +2.9512502E+03 </wgt>
<wgt id='1713'> +2.9515190E+03 </wgt>
<wgt id='1714'> +2.9512065E+03 </wgt>
<wgt id='1715'> +2.9508704E+03 </wgt>
<wgt id='1716'> +2.9062314E+03 </wgt>
<wgt id='1717'> +2.9615562E+03 </wgt>
<wgt id='1718'> +2.8936947E+03 </wgt>
<wgt id='1719'> +2.8557352E+03 </wgt>
<wgt id='1720'> +2.9884850E+03 </wgt>
<wgt id='1721'> +2.8930405E+03 </wgt>
<wgt id='1722'> +2.8958277E+03 </wgt>
<wgt id='1723'> +2.9402857E+03 </wgt>
<wgt id='1724'> +2.9066963E+03 </wgt>
<wgt id='1725'> +2.8905856E+03 </wgt>
<wgt id='1726'> +2.9004341E+03 </wgt>
<wgt id='1727'> +2.8448193E+03 </wgt>
<wgt id='1728'> +2.8938489E+03 </wgt>
<wgt id='1729'> +3.0275596E+03 </wgt>
<wgt id='1730'> +2.8952209E+03 </wgt>
<wgt id='1731'> +2.8915755E+03 </wgt>
<wgt id='1732'> +2.9404503E+03 </wgt>
<wgt id='1733'> +2.9082135E+03 </wgt>
<wgt id='1734'> +2.9000114E+03 </wgt>
<wgt id='1735'> +2.8651836E+03 </wgt>
<wgt id='1736'> +2.8916145E+03 </wgt>
<wgt id='1737'> +2.9064771E+03 </wgt>
<wgt id='1738'> +2.8871841E+03 </wgt>
<wgt id='1739'> +2.9051847E+03 </wgt>
<wgt id='1740'> +2.8810039E+03 </wgt>
<wgt id='1741'> +2.8847818E+03 </wgt>
<wgt id='1742'> +2.8842314E+03 </wgt>
<wgt id='1743'> +2.9010737E+03 </wgt>
<wgt id='1744'> +2.8573837E+03 </wgt>
<wgt id='1745'> +2.9012507E+03 </wgt>
<wgt id='1746'> +2.8820603E+03 </wgt>
<wgt id='1747'> +2.9342927E+03 </wgt>
<wgt id='1748'> +2.8894281E+03 </wgt>
<wgt id='1749'> +2.8471360E+03 </wgt>
<wgt id='1750'> +2.9397775E+03 </wgt>
<wgt id='1751'> +2.9514921E+03 </wgt>
<wgt id='1752'> +3.0338080E+03 </wgt>
<wgt id='1753'> +2.8716238E+03 </wgt>
<wgt id='1754'> +2.9469273E+03 </wgt>
<wgt id='1755'> +3.0605325E+03 </wgt>
<wgt id='1756'> +2.8996817E+03 </wgt>
<wgt id='1757'> +2.9562402E+03 </wgt>
<wgt id='1758'> +2.9580888E+03 </wgt>
<wgt id='1759'> +2.9659360E+03 </wgt>
<wgt id='1760'> +2.9943296E+03 </wgt>
<wgt id='1761'> +2.9943717E+03 </wgt>
<wgt id='1762'> +2.8857389E+03 </wgt>
<wgt id='1763'> +2.9384485E+03 </wgt>
<wgt id='1764'> +2.9513377E+03 </wgt>
<wgt id='1765'> +2.9539620E+03 </wgt>
<wgt id='1766'> +2.9502405E+03 </wgt>
<wgt id='1767'> +2.9480138E+03 </wgt>
<wgt id='1768'> +2.9715556E+03 </wgt>
<wgt id='1769'> +2.9519667E+03 </wgt>
<wgt id='1770'> +2.9731459E+03 </wgt>
<wgt id='1771'> +2.9249207E+03 </wgt>
<wgt id='1772'> +2.9412388E+03 </wgt>
<wgt id='1773'> +2.9621961E+03 </wgt>
<wgt id='1774'> +2.9469636E+03 </wgt>
<wgt id='1775'> +2.9384042E+03 </wgt>
<wgt id='1776'> +2.9637379E+03 </wgt>
<wgt id='1777'> +2.9643297E+03 </wgt>
<wgt id='1778'> +2.9305852E+03 </wgt>
<wgt id='1779'> +2.9348256E+03 </wgt>
<wgt id='1780'> +2.9691184E+03 </wgt>
<wgt id='1781'> +2.9077288E+03 </wgt>
<wgt id='1782'> +2.9062314E+03 </wgt>
<wgt id='1783'> +2.9615562E+03 </wgt>
<wgt id='1784'> +3.1124575E+03 </wgt>
<wgt id='1785'> +3.1113423E+03 </wgt>
<wgt id='1786'> +3.1135668E+03 </wgt>
<wgt id='1787'> +3.1200535E+03 </wgt>
<wgt id='1788'> +3.1048708E+03 </wgt>
<wgt id='1789'> +3.1179710E+03 </wgt>
<wgt id='1790'> +3.1069488E+03 </wgt>
<wgt id='1791'> +3.1153471E+03 </wgt>
<wgt id='1792'> +3.1095847E+03 </wgt>
<wgt id='1793'> +3.1223345E+03 </wgt>
<wgt id='1794'> +3.1026917E+03 </wgt>
<wgt id='1795'> +3.1149605E+03 </wgt>
<wgt id='1796'> +3.1096237E+03 </wgt>
<wgt id='1797'> +3.1012569E+03 </wgt>
<wgt id='1798'> +3.1237260E+03 </wgt>
<wgt id='1799'> +3.1105056E+03 </wgt>
<wgt id='1800'> +3.1114349E+03 </wgt>
<wgt id='1801'> +3.1142725E+03 </wgt>
<wgt id='1802'> +3.1064547E+03 </wgt>
<wgt id='1803'> +3.0997976E+03 </wgt>
<wgt id='1804'> +3.1258647E+03 </wgt>
<wgt id='1805'> +3.1221918E+03 </wgt>
<wgt id='1806'> +3.0977448E+03 </wgt>
<wgt id='1807'> +3.1015576E+03 </wgt>
<wgt id='1808'> +3.1044547E+03 </wgt>
<wgt id='1809'> +3.1270721E+03 </wgt>
<wgt id='1810'> +3.1031804E+03 </wgt>
<wgt id='1811'> +3.1035864E+03 </wgt>
<wgt id='1812'> +3.1242962E+03 </wgt>
<wgt id='1813'> +3.1124575E+03 </wgt>
<wgt id='1814'> +2.8970160E+03 </wgt>
<wgt id='1815'> +3.3783957E+03 </wgt>
<wgt id='1816'> +2.8411384E+03 </wgt>
<wgt id='1817'> +3.2531377E+03 </wgt>
<wgt id='1818'> +3.1256158E+03 </wgt>
<wgt id='1819'> +3.0876227E+03 </wgt>
<wgt id='1820'> +3.0983075E+03 </wgt>
<wgt id='1821'> +3.1253420E+03 </wgt>
<wgt id='1822'> +3.1287081E+03 </wgt>
<wgt id='1823'> +3.0972416E+03 </wgt>
<wgt id='1824'> +3.1257085E+03 </wgt>
<wgt id='1825'> +3.0833323E+03 </wgt>
<wgt id='1826'> +3.0561241E+03 </wgt>
<wgt id='1827'> +3.0671669E+03 </wgt>
<wgt id='1828'> +3.0684061E+03 </wgt>
<wgt id='1829'> +3.0658495E+03 </wgt>
<wgt id='1830'> +3.0709038E+03 </wgt>
<wgt id='1831'> +3.0633510E+03 </wgt>
<wgt id='1832'> +3.0746542E+03 </wgt>
<wgt id='1833'> +3.0596143E+03 </wgt>
<wgt id='1834'> +3.0722243E+03 </wgt>
<wgt id='1835'> +3.0619519E+03 </wgt>
<wgt id='1836'> +3.0756157E+03 </wgt>
<wgt id='1837'> +3.0586331E+03 </wgt>
<wgt id='1838'> +3.0723836E+03 </wgt>
<wgt id='1839'> +3.0618713E+03 </wgt>
<wgt id='1840'> +3.0569840E+03 </wgt>
<wgt id='1841'> +3.0773867E+03 </wgt>
<wgt id='1842'> +3.0627363E+03 </wgt>
<wgt id='1843'> +3.0724418E+03 </wgt>
<wgt id='1844'> +3.0666341E+03 </wgt>
<wgt id='1845'> +3.0666497E+03 </wgt>
<wgt id='1846'> +3.0615831E+03 </wgt>
<wgt id='1847'> +3.0722377E+03 </wgt>
<wgt id='1848'> +3.0378088E+03 </wgt>
<wgt id='1849'> +3.0905258E+03 </wgt>
<wgt id='1850'> +3.0774135E+03 </wgt>
<wgt id='1851'> +3.0558857E+03 </wgt>
<wgt id='1852'> +3.0702671E+03 </wgt>
<wgt id='1853'> +3.0544134E+03 </wgt>
<wgt id='1854'> +3.0760345E+03 </wgt>
<wgt id='1855'> +3.0626313E+03 </wgt>
<wgt id='1856'> +3.0671669E+03 </wgt>
<wgt id='1857'> +2.8306530E+03 </wgt>
<wgt id='1858'> +3.3564860E+03 </wgt>
<wgt id='1859'> +2.7702688E+03 </wgt>
<wgt id='1860'> +3.2241177E+03 </wgt>
<wgt id='1861'> +3.0862368E+03 </wgt>
<wgt id='1862'> +3.0600304E+03 </wgt>
<wgt id='1863'> +3.0539258E+03 </wgt>
<wgt id='1864'> +3.0836167E+03 </wgt>
<wgt id='1865'> +3.0953101E+03 </wgt>
<wgt id='1866'> +3.0741541E+03 </wgt>
<wgt id='1867'> +3.0719534E+03 </wgt>
<wgt id='1868'> +3.0459477E+03 </wgt>
<wgt id='1869'> +3.0293384E+03 </wgt>
<wgt id='1870'> +2.8887308E+03 </wgt>
<wgt id='1871'> +2.8880719E+03 </wgt>
<wgt id='1872'> +2.8874165E+03 </wgt>
<wgt id='1873'> +2.8867602E+03 </wgt>
<wgt id='1874'> +2.8861072E+03 </wgt>
<wgt id='1875'> +2.8854402E+03 </wgt>
<wgt id='1876'> +2.8847846E+03 </wgt>
<wgt id='1877'> +2.8841241E+03 </wgt>
<wgt id='1878'> +2.8834709E+03 </wgt>
<wgt id='1879'> +2.8828151E+03 </wgt>
<wgt id='1880'> +2.8821595E+03 </wgt>
<wgt id='1881'> +2.8814908E+03 </wgt>
<wgt id='1882'> +2.8808375E+03 </wgt>
<wgt id='1883'> +2.8801840E+03 </wgt>
<wgt id='1884'> +2.8795279E+03 </wgt>
<wgt id='1885'> +2.8788719E+03 </wgt>
<wgt id='1886'> +2.8782061E+03 </wgt>
<wgt id='1887'> +2.8775476E+03 </wgt>
<wgt id='1888'> +2.8768923E+03 </wgt>
<wgt id='1889'> +2.8762402E+03 </wgt>
<wgt id='1890'> +2.8755822E+03 </wgt>
<wgt id='1891'> +2.8749273E+03 </wgt>
<wgt id='1892'> +2.8742635E+03 </wgt>
<wgt id='1893'> +2.8736094E+03 </wgt>
<wgt id='1894'> +2.8729540E+03 </wgt>
<wgt id='1895'> +2.8722999E+03 </wgt>
<wgt id='1896'> +2.8716436E+03 </wgt>
<wgt id='1897'> +2.8709791E+03 </wgt>
<wgt id='1898'> +2.8703216E+03 </wgt>
<wgt id='1899'> +2.8696664E+03 </wgt>
<wgt id='1900'> +2.8690111E+03 </wgt>
<wgt id='1901'> +2.9308708E+03 </wgt>
<wgt id='1902'> +2.9513032E+03 </wgt>
<wgt id='1903'> +2.9519981E+03 </wgt>
<wgt id='1904'> +2.8861579E+03 </wgt>
<wgt id='1905'> +2.8496387E+03 </wgt>
<wgt id='1906'> +2.8416303E+03 </wgt>
<wgt id='1907'> +2.8754409E+03 </wgt>
<wgt id='1908'> +2.9298657E+03 </wgt>
<wgt id='1909'> +2.9469552E+03 </wgt>
<wgt id='1910'> +2.9098994E+03 </wgt>
<wgt id='1911'> +2.9807445E+03 </wgt>
<wgt id='1912'> +2.8216072E+03 </wgt>
<wgt id='1913'> +2.8534037E+03 </wgt>
<wgt id='1914'> +2.8660888E+03 </wgt>
<wgt id='1915'> +2.9001835E+03 </wgt>
<wgt id='1916'> +2.9207748E+03 </wgt>
<wgt id='1917'> +2.9274523E+03 </wgt>
<wgt id='1918'> +2.9669055E+03 </wgt>
<wgt id='1919'> +2.8829160E+03 </wgt>
<wgt id='1920'> +2.9515968E+03 </wgt>
<wgt id='1921'> +2.9639669E+03 </wgt>
<wgt id='1922'> +2.9369060E+03 </wgt>
<wgt id='1923'> +2.9418997E+03 </wgt>
<wgt id='1924'> +2.9423011E+03 </wgt>
<wgt id='1925'> +2.9167412E+03 </wgt>
<wgt id='1926'> +2.9270682E+03 </wgt>
<wgt id='1927'> +2.9081532E+03 </wgt>
<wgt id='1928'> +2.9419556E+03 </wgt>
<wgt id='1929'> +2.9395937E+03 </wgt>
<wgt id='1930'> +2.9215393E+03 </wgt>
<wgt id='1931'> +2.9299015E+03 </wgt>
<wgt id='1932'> +2.9332320E+03 </wgt>
<wgt id='1933'> +2.9421664E+03 </wgt>
<wgt id='1934'> +2.9326108E+03 </wgt>
<wgt id='1935'> +2.9354584E+03 </wgt>
<wgt id='1936'> +2.9415136E+03 </wgt>
<wgt id='1937'> +2.9291555E+03 </wgt>
<wgt id='1938'> +2.9265702E+03 </wgt>
<wgt id='1939'> +2.9309274E+03 </wgt>
<wgt id='1940'> +2.9293826E+03 </wgt>
<wgt id='1941'> +2.9288633E+03 </wgt>
<wgt id='1942'> +2.9257604E+03 </wgt>
<wgt id='1943'> +2.9339313E+03 </wgt>
<wgt id='1944'> +2.9384380E+03 </wgt>
<wgt id='1945'> +2.9276470E+03 </wgt>
<wgt id='1946'> +2.9256953E+03 </wgt>
<wgt id='1947'> +2.9250415E+03 </wgt>
<wgt id='1948'> +2.9330587E+03 </wgt>
<wgt id='1949'> +2.9276854E+03 </wgt>
<wgt id='1950'> +2.9309794E+03 </wgt>
<wgt id='1951'> +2.9367106E+03 </wgt>
<wgt id='1952'> +2.9346968E+03 </wgt>
<wgt id='1953'> +2.9329297E+03 </wgt>
<wgt id='1954'> +2.9287515E+03 </wgt>
<wgt id='1955'> +2.9287015E+03 </wgt>
<wgt id='1956'> +2.9328139E+03 </wgt>
<wgt id='1957'> +2.9302931E+03 </wgt>
<wgt id='1958'> +2.9305732E+03 </wgt>
<wgt id='1959'> +2.9293954E+03 </wgt>
<wgt id='1960'> +2.9314612E+03 </wgt>
<wgt id='1961'> +2.9308412E+03 </wgt>
<wgt id='1962'> +2.9317561E+03 </wgt>
<wgt id='1963'> +2.9305821E+03 </wgt>
<wgt id='1964'> +2.9309512E+03 </wgt>
<wgt id='1965'> +2.9303360E+03 </wgt>
<wgt id='1966'> +2.9319322E+03 </wgt>
<wgt id='1967'> +2.9307992E+03 </wgt>
<wgt id='1968'> +2.9304307E+03 </wgt>
<wgt id='1969'> +2.9306358E+03 </wgt>
<wgt id='1970'> +2.9314094E+03 </wgt>
<wgt id='1971'> +2.9320030E+03 </wgt>
<wgt id='1972'> +2.9318894E+03 </wgt>
<wgt id='1973'> +2.9323063E+03 </wgt>
<wgt id='1974'> +2.9295939E+03 </wgt>
<wgt id='1975'> +2.9297979E+03 </wgt>
<wgt id='1976'> +2.9307772E+03 </wgt>
<wgt id='1977'> +2.9311750E+03 </wgt>
<wgt id='1978'> +2.9307858E+03 </wgt>
<wgt id='1979'> +2.9319941E+03 </wgt>
<wgt id='1980'> +2.9304076E+03 </wgt>
<wgt id='1981'> +2.9312403E+03 </wgt>
<wgt id='1982'> +2.9320246E+03 </wgt>
<wgt id='1983'> +2.9314474E+03 </wgt>
<wgt id='1984'> +2.9304158E+03 </wgt>
<wgt id='1985'> +2.9300038E+03 </wgt>
<wgt id='1986'> +2.9307935E+03 </wgt>
<wgt id='1987'> +2.9324782E+03 </wgt>
<wgt id='1988'> +2.9290741E+03 </wgt>
<wgt id='1989'> +2.9309671E+03 </wgt>
<wgt id='1990'> +2.9297609E+03 </wgt>
<wgt id='1991'> +2.9304238E+03 </wgt>
<wgt id='1992'> +2.9295023E+03 </wgt>
<wgt id='1993'> +2.9296686E+03 </wgt>
<wgt id='1994'> +2.9308685E+03 </wgt>
<wgt id='1995'> +2.9297954E+03 </wgt>
<wgt id='1996'> +2.9313647E+03 </wgt>
<wgt id='1997'> +2.9302240E+03 </wgt>
<wgt id='1998'> +2.9305791E+03 </wgt>
<wgt id='1999'> +2.9307914E+03 </wgt>
<wgt id='2000'> +2.9305974E+03 </wgt>
<wgt id='2001'> +2.9302432E+03 </wgt>
<wgt id='2002'> +2.9308546E+03 </wgt>
<wgt id='2003'> +2.9307720E+03 </wgt>
<wgt id='2004'> +2.9308856E+03 </wgt>
<wgt id='2005'> +2.9308892E+03 </wgt>
<wgt id='2006'> +2.9309162E+03 </wgt>
<wgt id='2007'> +2.9308773E+03 </wgt>
<wgt id='2008'> +2.9308065E+03 </wgt>
<wgt id='2009'> +2.8626885E+03 </wgt>
<wgt id='2010'> +2.5551582E+03 </wgt>
<wgt id='2011'> +2.6603735E+03 </wgt>
<wgt id='2012'> +2.4139269E+03 </wgt>
<wgt id='2013'> +2.7107317E+03 </wgt>
<wgt id='2014'> +2.4162757E+03 </wgt>
<wgt id='2015'> +2.9335932E+03 </wgt>
<wgt id='2016'> +2.8475530E+03 </wgt>
<wgt id='2017'> +2.8059881E+03 </wgt>
<wgt id='2018'> +2.8661339E+03 </wgt>
<wgt id='2019'> +3.4135796E+03 </wgt>
<wgt id='2020'> +3.3812732E+03 </wgt>
<wgt id='2021'> +2.7930605E+03 </wgt>
<wgt id='2022'> +2.6290786E+03 </wgt>
<wgt id='2023'> +2.9816798E+03 </wgt>
<wgt id='2024'> +2.9300498E+03 </wgt>
<wgt id='2025'> +2.9509832E+03 </wgt>
<wgt id='2026'> +2.9892578E+03 </wgt>
<wgt id='2027'> +2.8796782E+03 </wgt>
<wgt id='2028'> +2.8163549E+03 </wgt>
<wgt id='2029'> +2.6137221E+03 </wgt>
<wgt id='2030'> +2.6810070E+03 </wgt>
<wgt id='2031'> +3.0211503E+03 </wgt>
<wgt id='2032'> +3.0281361E+03 </wgt>
<wgt id='2033'> +2.6210785E+03 </wgt>
<wgt id='2034'> +2.7443350E+03 </wgt>
<wgt id='2035'> +2.9422787E+03 </wgt>
<wgt id='2036'> +2.6685128E+03 </wgt>
<wgt id='2037'> +2.9345773E+03 </wgt>
<wgt id='2038'> +2.5747325E+03 </wgt>
<wgt id='2039'> +2.6722026E+03 </wgt>
<wgt id='2040'> +2.5143602E+03 </wgt>
<wgt id='2041'> +3.4748937E+03 </wgt>
<wgt id='2042'> +2.9651280E+03 </wgt>
<wgt id='2043'> +2.9535118E+03 </wgt>
<wgt id='2044'> +2.6817947E+03 </wgt>
<wgt id='2045'> +2.7151020E+03 </wgt>
<wgt id='2046'> +2.7957358E+03 </wgt>
<wgt id='2047'> +3.2278986E+03 </wgt>
<wgt id='2048'> +2.6938091E+03 </wgt>
<wgt id='2049'> +2.7878241E+03 </wgt>
<wgt id='2050'> +2.8024150E+03 </wgt>
<wgt id='2051'> +2.8397082E+03 </wgt>
<wgt id='2052'> +2.8828005E+03 </wgt>
<wgt id='2053'> +2.9245241E+03 </wgt>
<wgt id='2054'> +2.9982874E+03 </wgt>
<wgt id='2055'> +2.7325110E+03 </wgt>
<wgt id='2056'> +2.9940166E+03 </wgt>
<wgt id='2057'> +2.8278624E+03 </wgt>
<wgt id='2058'> +2.6737912E+03 </wgt>
<wgt id='2059'> +2.6252415E+03 </wgt>
<wgt id='2060'> +2.8860574E+03 </wgt>
<wgt id='2061'> +2.8164883E+03 </wgt>
<wgt id='2062'> +3.3854576E+03 </wgt>
<wgt id='2063'> +2.8826545E+03 </wgt>
<wgt id='2064'> +2.8911370E+03 </wgt>
<wgt id='2065'> +2.7961303E+03 </wgt>
<wgt id='2066'> +2.5223454E+03 </wgt>
<wgt id='2067'> +2.7345247E+03 </wgt>
<wgt id='2068'> +2.6972001E+03 </wgt>
<wgt id='2069'> +2.8357717E+03 </wgt>
<wgt id='2070'> +2.7572795E+03 </wgt>
<wgt id='2071'> +2.7310151E+03 </wgt>
<wgt id='2072'> +2.9084477E+03 </wgt>
<wgt id='2073'> +3.1429140E+03 </wgt>
<wgt id='2074'> +2.8576011E+03 </wgt>
<wgt id='2075'> +2.7612291E+03 </wgt>
<wgt id='2076'> +3.6094273E+03 </wgt>
<wgt id='2077'> +2.7457648E+03 </wgt>
<wgt id='2078'> +3.0051419E+03 </wgt>
<wgt id='2079'> +2.8299059E+03 </wgt>
<wgt id='2080'> +3.0692743E+03 </wgt>
<wgt id='2081'> +3.3665628E+03 </wgt>
<wgt id='2082'> +3.5051941E+03 </wgt>
<wgt id='2083'> +2.8783692E+03 </wgt>
<wgt id='2084'> +2.6984964E+03 </wgt>
<wgt id='2085'> +3.3572892E+03 </wgt>
<wgt id='2086'> +3.0732511E+03 </wgt>
<wgt id='2087'> +2.9389594E+03 </wgt>
<wgt id='2088'> +3.0634066E+03 </wgt>
<wgt id='2089'> +2.7623936E+03 </wgt>
<wgt id='2090'> +2.8943678E+03 </wgt>
<wgt id='2091'> +2.6788942E+03 </wgt>
<wgt id='2092'> +2.8660034E+03 </wgt>
<wgt id='2093'> +2.7023260E+03 </wgt>
<wgt id='2094'> +2.7276742E+03 </wgt>
<wgt id='2095'> +2.9712885E+03 </wgt>
<wgt id='2096'> +2.9323065E+03 </wgt>
<wgt id='2097'> +2.7235033E+03 </wgt>
<wgt id='2098'> +2.9867481E+03 </wgt>
<wgt id='2099'> +2.7703409E+03 </wgt>
<wgt id='2100'> +2.6305856E+03 </wgt>
<wgt id='2101'> +2.9369552E+03 </wgt>
<wgt id='2102'> +2.7773655E+03 </wgt>
<wgt id='2103'> +3.0306538E+03 </wgt>
<wgt id='2104'> +2.6443912E+03 </wgt>
<wgt id='2105'> +3.0870243E+03 </wgt>
<wgt id='2106'> +2.8060924E+03 </wgt>
<wgt id='2107'> +2.8194176E+03 </wgt>
<wgt id='2108'> +2.6872415E+03 </wgt>
<wgt id='2109'> +2.4382503E+03 </wgt>
<wgt id='2110'> +2.7699674E+03 </wgt>
<wgt id='2111'> +2.8512398E+03 </wgt>
<wgt id='2112'> +2.9194805E+03 </wgt>
<wgt id='2113'> +9.5957517E+02 </wgt>
<wgt id='2114'> +1.4939852E+03 </wgt>
<wgt id='2115'> +2.0600351E+03 </wgt>
<wgt id='2116'> +2.3744385E+03 </wgt>
</rwgt>
</event>
<event>
 6      1 +2.9771057E+03 8.13598900e+01 7.54677100e-03 1.20072500e-01
        2 -1    0    0  502    0 -0.0000000000e+00 +0.0000000000e+00 +1.0481586846e+03 1.0481586846e+03 0.0000000000e+00 0.0000e+00 -1.0000e+00
       21 -1    0    0  501  502 +0.0000000000e+00 -0.0000000000e+00 -2.3930590315e+00 2.3930590315e+00 0.0000000000e+00 0.0000e+00 1.0000e+00
       24  2    1    2    0    0 -8.9780075410e-01 -1.0655867038e+01 +1.0086586237e+03 1.0119346084e+03 8.0654069284e+01 0.0000e+00 0.0000e+00
      -11  1    3    3    0    0 -3.1903493030e+01 -2.3802083257e+01 +3.2204139072e+02 3.2449195579e+02 0.0000000000e+00 0.0000e+00 1.0000e+00
       12  1    3    3    0    0 +3.1005692276e+01 +1.3146216218e+01 +6.8661723297e+02 6.8744265257e+02 0.0000000000e+00 0.0000e+00 -1.0000e+00
        1  1    1    2  501    0 +8.9780075410e-01 +1.0655867038e+01 +3.7107001852e+01 3.8617135250e+01 0.0000000000e+00 0.0000e+00 -1.0000e+00
<scales pt_clust_4="13000.00000" pt_clust_5="13000.00000" pt_clust_6="10.69362"></scales>
<mgrwt>
<rscale>  0 0.81359895E+02</rscale>
<asrwt>  1 0.10693622E+02</asrwt>
<pdfrwt beam="1">  1       21 0.36816377E-03 0.81359895E+02</pdfrwt>
<pdfrwt beam="2">  1        2 0.16125482E+00 0.81359895E+02</pdfrwt>
<totfact> 0.72111868E+05</totfact>
</mgrwt>
<clustering>
<clus scale="   10.694">  2  6  1 -1</clus>
<clus scale="   80.654">  4  5 -1 -1</clus>
<clus scale="   81.360">  2  4  1 -1</clus>
</clustering>
<rwgt>
<wgt id='1001'> +2.9771057E+03 </wgt>
<wgt id='1002'> +2.9941670E+03 </wgt>
<wgt id='1003'> +2.9941670E+03 </wgt>
<wgt id='1004'> +2.6197172E+03 </wgt>
<wgt id='1005'> +3.0791973E+03 </wgt>
<wgt id='1006'> +2.9771057E+03 </wgt>
<wgt id='1007'> +2.9941670E+03 </wgt>
<wgt id='1008'> +2.9941670E+03 </wgt>
<wgt id='1009'> +2.6197172E+03 </wgt>
<wgt id='1010'> +3.0791973E+03 </wgt>
<wgt id='1011'> +2.9771057E+03 </wgt>
<wgt id='1012'> +2.9941670E+03 </wgt>
<wgt id='1013'> +2.9941670E+03 </wgt>
<wgt id='1014'> +2.6197172E+03 </wgt>
<wgt id='1015'> +3.0791973E+03 </wgt>
<wgt id='1016'> +3.2988745E+03 </wgt>
<wgt id='1017'> +3.3133740E+03 </wgt>
<wgt id='1018'> +3.3133740E+03 </wgt>
<wgt id='1019'> +2.9941670E+03 </wgt>
<wgt id='1020'> +3.3858889E+03 </wgt>
<wgt id='1021'> +3.2988745E+03 </wgt>
<wgt id='1022'> +3.3133740E+03 </wgt>
<wgt id='1023'> +3.3133740E+03 </wgt>
<wgt id='1024'> +2.9941670E+03 </wgt>
<wgt id='1025'> +3.3858889E+03 </wgt>
<wgt id='1026'> +3.2988745E+03 </wgt>
<wgt id='1027'> +3.3133740E+03 </wgt>
<wgt id='1028'> +3.3133740E+03 </wgt>
<wgt id='1029'> +2.9941670E+03 </wgt>
<wgt id='1030'> +3.3858889E+03 </wgt>
<wgt id='1031'> +2.5998106E+03 </wgt>
<wgt id='1032'> +2.6197172E+03 </wgt>
<wgt id='1033'> +2.6197172E+03 </wgt>
<wgt id='1034'> +2.1845627E+03 </wgt>
<wgt id='1035'> +2.7191321E+03 </wgt>
<wgt id='1036'> +2.5998106E+03 </wgt>
<wgt id='1037'> +2.6197172E+03 </wgt>
<wgt id='1038'> +2.6197172E+03 </wgt>
<wgt id='1039'> +2.1845627E+03 </wgt>
<wgt id='1040'> +2.7191321E+03 </wgt>
<wgt id='1041'> +2.5998106E+03 </wgt>
<wgt id='1042'> +2.6197172E+03 </wgt>
<wgt id='1043'> +2.6197172E+03 </wgt>
<wgt id='1044'> +2.1845627E+03 </wgt>
<wgt id='1045'> +2.7191321E+03 </wgt>
<wgt id='1046'> +2.9771057E+03 </wgt>
<wgt id='1047'> +2.9802848E+03 </wgt>
<wgt id='1048'> +2.9614758E+03 </wgt>
<wgt id='1049'> +2.9623784E+03 </wgt>
<wgt id='1050'> +2.9712276E+03 </wgt>
<wgt id='1051'> +2.9860931E+03 </wgt>
<wgt id='1052'> +2.9882895E+03 </wgt>
<wgt id='1053'> +2.9855617E+03 </wgt>
<wgt id='1054'> +2.9848021E+03 </wgt>
<wgt id='1055'> +2.9727003E+03 </wgt>
<wgt id='1056'> +2.9795245E+03 </wgt>
<wgt id='1057'> +2.9801311E+03 </wgt>
<wgt id='1058'> +2.9767374E+03 </wgt>
<wgt id='1059'> +2.9830595E+03 </wgt>
<wgt id='1060'> +2.9847125E+03 </wgt>
<wgt id='1061'> +2.9738242E+03 </wgt>
<wgt id='1062'> +2.9743103E+03 </wgt>
<wgt id='1063'> +2.9807572E+03 </wgt>
<wgt id='1064'> +2.9785801E+03 </wgt>
<wgt id='1065'> +2.9795611E+03 </wgt>
<wgt id='1066'> +2.9797456E+03 </wgt>
<wgt id='1067'> +2.9780310E+03 </wgt>
<wgt id='1068'> +2.9827810E+03 </wgt>
<wgt id='1069'> +2.9706513E+03 </wgt>
<wgt id='1070'> +2.9766378E+03 </wgt>
<wgt id='1071'> +2.9794761E+03 </wgt>
<wgt id='1072'> +2.9692624E+03 </wgt>
<wgt id='1073'> +2.9867970E+03 </wgt>
<wgt id='1074'> +2.9842378E+03 </wgt>
<wgt id='1075'> +2.9464055E+03 </wgt>
<wgt id='1076'> +2.9704893E+03 </wgt>
<wgt id='1077'> +2.9746734E+03 </wgt>
<wgt id='1078'> +2.9701076E+03 </wgt>
<wgt id='1079'> +2.9728740E+03 </wgt>
<wgt id='1080'> +2.9792366E+03 </wgt>
<wgt id='1081'> +2.9726402E+03 </wgt>
<wgt id='1082'> +2.9747891E+03 </wgt>
<wgt id='1083'> +2.9796909E+03 </wgt>
<wgt id='1084'> +2.9744800E+03 </wgt>
<wgt id='1085'> +2.9788390E+03 </wgt>
<wgt id='1086'> +2.9747038E+03 </wgt>
<wgt id='1087'> +2.9774471E+03 </wgt>
<wgt id='1088'> +2.9761205E+03 </wgt>
<wgt id='1089'> +2.9807972E+03 </wgt>
<wgt id='1090'> +2.9773553E+03 </wgt>
<wgt id='1091'> +2.9755964E+03 </wgt>
<wgt id='1092'> +2.9802236E+03 </wgt>
<wgt id='1093'> +2.9825379E+03 </wgt>
<wgt id='1094'> +2.9769982E+03 </wgt>
<wgt id='1095'> +2.9776306E+03 </wgt>
<wgt id='1096'> +2.9756012E+03 </wgt>
<wgt id='1097'> +2.9797132E+03 </wgt>
<wgt id='1098'> +2.9784824E+03 </wgt>
<wgt id='1099'> +2.9778617E+03 </wgt>
<wgt id='1100'> +2.9791747E+03 </wgt>
<wgt id='1101'> +2.9747332E+03 </wgt>
<wgt id='1102'> +2.9762637E+03 </wgt>
<wgt id='1103'> +2.9768012E+03 </wgt>
<wgt id='1104'> +2.9730518E+03 </wgt>
<wgt id='1105'> +2.9778117E+03 </wgt>
<wgt id='1106'> +2.9823936E+03 </wgt>
<wgt id='1107'> +2.9784412E+03 </wgt>
<wgt id='1108'> +2.9773003E+03 </wgt>
<wgt id='1109'> +2.9757302E+03 </wgt>
<wgt id='1110'> +2.9741339E+03 </wgt>
<wgt id='1111'> +2.9775970E+03 </wgt>
<wgt id='1112'> +2.9784057E+03 </wgt>
<wgt id='1113'> +2.9796439E+03 </wgt>
<wgt id='1114'> +2.9826831E+03 </wgt>
<wgt id='1115'> +2.9761147E+03 </wgt>
<wgt id='1116'> +2.9757823E+03 </wgt>
<wgt id='1117'> +2.9774170E+03 </wgt>
<wgt id='1118'> +2.9774943E+03 </wgt>
<wgt id='1119'> +2.9769398E+03 </wgt>
<wgt id='1120'> +2.9754938E+03 </wgt>
<wgt id='1121'> +2.9735641E+03 </wgt>
<wgt id='1122'> +2.9754382E+03 </wgt>
<wgt id='1123'> +2.9779514E+03 </wgt>
<wgt id='1124'> +2.9796136E+03 </wgt>
<wgt id='1125'> +2.9755034E+03 </wgt>
<wgt id='1126'> +2.9788276E+03 </wgt>
<wgt id='1127'> +2.9793899E+03 </wgt>
<wgt id='1128'> +2.9788953E+03 </wgt>
<wgt id='1129'> +2.9795600E+03 </wgt>
<wgt id='1130'> +2.9768818E+03 </wgt>
<wgt id='1131'> +2.9774346E+03 </wgt>
<wgt id='1132'> +2.9745073E+03 </wgt>
<wgt id='1133'> +2.9765376E+03 </wgt>
<wgt id='1134'> +2.9743365E+03 </wgt>
<wgt id='1135'> +2.9787858E+03 </wgt>
<wgt id='1136'> +2.9778551E+03 </wgt>
<wgt id='1137'> +2.9754785E+03 </wgt>
<wgt id='1138'> +2.9772536E+03 </wgt>
<wgt id='1139'> +2.9749246E+03 </wgt>
<wgt id='1140'> +2.9769339E+03 </wgt>
<wgt id='1141'> +2.9763924E+03 </wgt>
<wgt id='1142'> +2.9774313E+03 </wgt>
<wgt id='1143'> +2.9782205E+03 </wgt>
<wgt id='1144'> +2.9773432E+03 </wgt>
<wgt id='1145'> +2.9770015E+03 </wgt>
<wgt id='1146'> +2.9770300E+03 </wgt>
<wgt id='1147'> +2.9186214E+03 </wgt>
<wgt id='1148'> +3.0354881E+03 </wgt>
<wgt id='1149'> +2.6837218E+03 </wgt>
<wgt id='1150'> +2.7371613E+03 </wgt>
<wgt id='1151'> +2.7999540E+03 </wgt>
<wgt id='1152'> +2.8626101E+03 </wgt>
<wgt id='1153'> +2.9529516E+03 </wgt>
<wgt id='1154'> +3.0013937E+03 </wgt>
<wgt id='1155'> +3.0983393E+03 </wgt>
<wgt id='1156'> +3.1553245E+03 </wgt>
<wgt id='1157'> +2.9929298E+03 </wgt>
<wgt id='1158'> +2.9817943E+03 </wgt>
<wgt id='1159'> +3.0073120E+03 </wgt>
<wgt id='1160'> +2.9787768E+03 </wgt>
<wgt id='1161'> +2.9823191E+03 </wgt>
<wgt id='1162'> +2.9800373E+03 </wgt>
<wgt id='1163'> +2.9914055E+03 </wgt>
<wgt id='1164'> +2.9850787E+03 </wgt>
<wgt id='1165'> +2.9927002E+03 </wgt>
<wgt id='1166'> +2.9895856E+03 </wgt>
<wgt id='1167'> +2.9967025E+03 </wgt>
<wgt id='1168'> +2.9938460E+03 </wgt>
<wgt id='1169'> +2.9889358E+03 </wgt>
<wgt id='1170'> +2.9868810E+03 </wgt>
<wgt id='1171'> +2.9978021E+03 </wgt>
<wgt id='1172'> +2.9949940E+03 </wgt>
<wgt id='1173'> +2.9867169E+03 </wgt>
<wgt id='1174'> +2.9958816E+03 </wgt>
<wgt id='1175'> +2.9891572E+03 </wgt>
<wgt id='1176'> +2.9894927E+03 </wgt>
<wgt id='1177'> +2.9863664E+03 </wgt>
<wgt id='1178'> +2.9948040E+03 </wgt>
<wgt id='1179'> +2.9972096E+03 </wgt>
<wgt id='1180'> +3.0014036E+03 </wgt>
<wgt id='1181'> +2.9913903E+03 </wgt>
<wgt id='1182'> +2.9858047E+03 </wgt>
<wgt id='1183'> +2.9922908E+03 </wgt>
<wgt id='1184'> +2.9901887E+03 </wgt>
<wgt id='1185'> +3.0005679E+03 </wgt>
<wgt id='1186'> +3.0026533E+03 </wgt>
<wgt id='1187'> +2.9636349E+03 </wgt>
<wgt id='1188'> +2.9795540E+03 </wgt>
<wgt id='1189'> +2.9997339E+03 </wgt>
<wgt id='1190'> +2.9964653E+03 </wgt>
<wgt id='1191'> +2.9926698E+03 </wgt>
<wgt id='1192'> +2.9993870E+03 </wgt>
<wgt id='1193'> +2.9958711E+03 </wgt>
<wgt id='1194'> +2.9838410E+03 </wgt>
<wgt id='1195'> +2.9955026E+03 </wgt>
<wgt id='1196'> +2.9929823E+03 </wgt>
<wgt id='1197'> +2.9912642E+03 </wgt>
<wgt id='1198'> +2.9967660E+03 </wgt>
<wgt id='1199'> +2.9963477E+03 </wgt>
<wgt id='1200'> +2.9882984E+03 </wgt>
<wgt id='1201'> +2.9936457E+03 </wgt>
<wgt id='1202'> +2.9945257E+03 </wgt>
<wgt id='1203'> +2.9907804E+03 </wgt>
<wgt id='1204'> +2.9921093E+03 </wgt>
<wgt id='1205'> +2.9966355E+03 </wgt>
<wgt id='1206'> +2.9907016E+03 </wgt>
<wgt id='1207'> +2.9909800E+03 </wgt>
<wgt id='1208'> +2.9953784E+03 </wgt>
<wgt id='1209'> +2.9969935E+03 </wgt>
<wgt id='1210'> +2.9910080E+03 </wgt>
<wgt id='1211'> +2.9926704E+03 </wgt>
<wgt id='1212'> +2.9907040E+03 </wgt>
<wgt id='1213'> +2.9916464E+03 </wgt>
<wgt id='1214'> +2.9954531E+03 </wgt>
<wgt id='1215'> +2.9928097E+03 </wgt>
<wgt id='1216'> +2.9932269E+03 </wgt>
<wgt id='1217'> +2.9920450E+03 </wgt>
<wgt id='1218'> +2.9916448E+03 </wgt>
<wgt id='1219'> +2.9885132E+03 </wgt>
<wgt id='1220'> +2.9939029E+03 </wgt>
<wgt id='1221'> +2.9905623E+03 </wgt>
<wgt id='1222'> +2.9920459E+03 </wgt>
<wgt id='1223'> +2.9921213E+03 </wgt>
<wgt id='1224'> +2.9892402E+03 </wgt>
<wgt id='1225'> +2.9954995E+03 </wgt>
<wgt id='1226'> +2.9916622E+03 </wgt>
<wgt id='1227'> +2.9883976E+03 </wgt>
<wgt id='1228'> +2.9917148E+03 </wgt>
<wgt id='1229'> +2.9910589E+03 </wgt>
<wgt id='1230'> +2.9915744E+03 </wgt>
<wgt id='1231'> +2.9976788E+03 </wgt>
<wgt id='1232'> +2.9930182E+03 </wgt>
<wgt id='1233'> +2.9936128E+03 </wgt>
<wgt id='1234'> +2.9898695E+03 </wgt>
<wgt id='1235'> +2.9944399E+03 </wgt>
<wgt id='1236'> +2.9938946E+03 </wgt>
<wgt id='1237'> +2.9935257E+03 </wgt>
<wgt id='1238'> +2.9965184E+03 </wgt>
<wgt id='1239'> +2.9930243E+03 </wgt>
<wgt id='1240'> +2.9951058E+03 </wgt>
<wgt id='1241'> +2.9921274E+03 </wgt>
<wgt id='1242'> +2.9933054E+03 </wgt>
<wgt id='1243'> +2.9921197E+03 </wgt>
<wgt id='1244'> +2.9934704E+03 </wgt>
<wgt id='1245'> +2.9924779E+03 </wgt>
<wgt id='1246'> +2.9929294E+03 </wgt>
<wgt id='1247'> +2.9945882E+03 </wgt>
<wgt id='1248'> +2.9939769E+03 </wgt>
<wgt id='1249'> +2.9940601E+03 </wgt>
<wgt id='1250'> +2.9924296E+03 </wgt>
<wgt id='1251'> +2.9918559E+03 </wgt>
<wgt id='1252'> +2.9938690E+03 </wgt>
<wgt id='1253'> +2.9905743E+03 </wgt>
<wgt id='1254'> +2.9911500E+03 </wgt>
<wgt id='1255'> +2.9943697E+03 </wgt>
<wgt id='1256'> +2.9933377E+03 </wgt>
<wgt id='1257'> +2.9945423E+03 </wgt>
<wgt id='1258'> +2.9336155E+03 </wgt>
<wgt id='1259'> +3.0580637E+03 </wgt>
<wgt id='1260'> +2.9707950E+03 </wgt>
<wgt id='1261'> +2.9945391E+03 </wgt>
<wgt id='1262'> +2.9716131E+03 </wgt>
<wgt id='1263'> +2.9726301E+03 </wgt>
<wgt id='1264'> +2.9780440E+03 </wgt>
<wgt id='1265'> +3.0137451E+03 </wgt>
<wgt id='1266'> +2.9989398E+03 </wgt>
<wgt id='1267'> +2.9943653E+03 </wgt>
<wgt id='1268'> +2.9689608E+03 </wgt>
<wgt id='1269'> +2.9890887E+03 </wgt>
<wgt id='1270'> +2.9703618E+03 </wgt>
<wgt id='1271'> +2.9772520E+03 </wgt>
<wgt id='1272'> +2.9486014E+03 </wgt>
<wgt id='1273'> +2.9307709E+03 </wgt>
<wgt id='1274'> +2.9405005E+03 </wgt>
<wgt id='1275'> +2.9785012E+03 </wgt>
<wgt id='1276'> +2.9433948E+03 </wgt>
<wgt id='1277'> +3.0081571E+03 </wgt>
<wgt id='1278'> +2.9363648E+03 </wgt>
<wgt id='1279'> +2.9354298E+03 </wgt>
<wgt id='1280'> +3.0105074E+03 </wgt>
<wgt id='1281'> +2.9691738E+03 </wgt>
<wgt id='1282'> +2.9709730E+03 </wgt>
<wgt id='1283'> +2.9618573E+03 </wgt>
<wgt id='1284'> +2.9796914E+03 </wgt>
<wgt id='1285'> +2.9550769E+03 </wgt>
<wgt id='1286'> +2.9838303E+03 </wgt>
<wgt id='1287'> +2.9938559E+03 </wgt>
<wgt id='1288'> +2.9307871E+03 </wgt>
<wgt id='1289'> +2.9229653E+03 </wgt>
<wgt id='1290'> +2.9994180E+03 </wgt>
<wgt id='1291'> +2.9529711E+03 </wgt>
<wgt id='1292'> +2.9958862E+03 </wgt>
<wgt id='1293'> +2.9555257E+03 </wgt>
<wgt id='1294'> +2.9848911E+03 </wgt>
<wgt id='1295'> +2.9288193E+03 </wgt>
<wgt id='1296'> +3.0106529E+03 </wgt>
<wgt id='1297'> +3.0320155E+03 </wgt>
<wgt id='1298'> +2.9030851E+03 </wgt>
<wgt id='1299'> +2.9769739E+03 </wgt>
<wgt id='1300'> +2.9661064E+03 </wgt>
<wgt id='1301'> +2.9504941E+03 </wgt>
<wgt id='1302'> +2.9701873E+03 </wgt>
<wgt id='1303'> +2.9663527E+03 </wgt>
<wgt id='1304'> +2.9342666E+03 </wgt>
<wgt id='1305'> +2.9715689E+03 </wgt>
<wgt id='1306'> +3.0290347E+03 </wgt>
<wgt id='1307'> +2.9026946E+03 </wgt>
<wgt id='1308'> +3.0693578E+03 </wgt>
<wgt id='1309'> +2.9735408E+03 </wgt>
<wgt id='1310'> +2.9724389E+03 </wgt>
<wgt id='1311'> +2.9761027E+03 </wgt>
<wgt id='1312'> +2.9779911E+03 </wgt>
<wgt id='1313'> +2.9803031E+03 </wgt>
<wgt id='1314'> +2.9471807E+03 </wgt>
<wgt id='1315'> +2.9707581E+03 </wgt>
<wgt id='1316'> +2.9667894E+03 </wgt>
<wgt id='1317'> +2.9147648E+03 </wgt>
<wgt id='1318'> +3.0242671E+03 </wgt>
<wgt id='1319'> +3.0891440E+03 </wgt>
<wgt id='1320'> +3.0976237E+03 </wgt>
<wgt id='1321'> +3.0901875E+03 </wgt>
<wgt id='1322'> +3.0944567E+03 </wgt>
<wgt id='1323'> +3.1368805E+03 </wgt>
<wgt id='1324'> +3.0849683E+03 </wgt>
<wgt id='1325'> +3.0864372E+03 </wgt>
<wgt id='1326'> +3.0569118E+03 </wgt>
<wgt id='1327'> +3.1436051E+03 </wgt>
<wgt id='1328'> +3.0440339E+03 </wgt>
<wgt id='1329'> +3.1337447E+03 </wgt>
<wgt id='1330'> +3.1069205E+03 </wgt>
<wgt id='1331'> +3.0825298E+03 </wgt>
<wgt id='1332'> +3.0091710E+03 </wgt>
<wgt id='1333'> +3.1302882E+03 </wgt>
<wgt id='1334'> +3.0750130E+03 </wgt>
<wgt id='1335'> +3.0973917E+03 </wgt>
<wgt id='1336'> +3.1118147E+03 </wgt>
<wgt id='1337'> +3.0628120E+03 </wgt>
<wgt id='1338'> +3.1118492E+03 </wgt>
<wgt id='1339'> +3.0630904E+03 </wgt>
<wgt id='1340'> +3.0716297E+03 </wgt>
<wgt id='1341'> +3.1165710E+03 </wgt>
<wgt id='1342'> +3.0785837E+03 </wgt>
<wgt id='1343'> +3.1008143E+03 </wgt>
<wgt id='1344'> +3.0259237E+03 </wgt>
<wgt id='1345'> +3.1509082E+03 </wgt>
<wgt id='1346'> +3.0891937E+03 </wgt>
<wgt id='1347'> +3.0878686E+03 </wgt>
<wgt id='1348'> +3.0668717E+03 </wgt>
<wgt id='1349'> +3.0966641E+03 </wgt>
<wgt id='1350'> +3.0867572E+03 </wgt>
<wgt id='1351'> +3.0922621E+03 </wgt>
<wgt id='1352'> +3.1083082E+03 </wgt>
<wgt id='1353'> +3.0476283E+03 </wgt>
<wgt id='1354'> +3.1299430E+03 </wgt>
<wgt id='1355'> +3.0486262E+03 </wgt>
<wgt id='1356'> +3.0950823E+03 </wgt>
<wgt id='1357'> +3.0741796E+03 </wgt>
<wgt id='1358'> +3.0657169E+03 </wgt>
<wgt id='1359'> +3.0968607E+03 </wgt>
<wgt id='1360'> +3.1134789E+03 </wgt>
<wgt id='1361'> +3.0641378E+03 </wgt>
<wgt id='1362'> +3.0772655E+03 </wgt>
<wgt id='1363'> +3.0830949E+03 </wgt>
<wgt id='1364'> +3.0859976E+03 </wgt>
<wgt id='1365'> +3.0790085E+03 </wgt>
<wgt id='1366'> +3.1027794E+03 </wgt>
<wgt id='1367'> +3.1114771E+03 </wgt>
<wgt id='1368'> +3.1092722E+03 </wgt>
<wgt id='1369'> +3.1114257E+03 </wgt>
<wgt id='1370'> +3.0953189E+03 </wgt>
<wgt id='1371'> +3.1173014E+03 </wgt>
<wgt id='1372'> +3.1015403E+03 </wgt>
<wgt id='1373'> +3.0130231E+03 </wgt>
<wgt id='1374'> +3.1003593E+03 </wgt>
<wgt id='1375'> +3.0757327E+03 </wgt>
<wgt id='1376'> +3.0157106E+03 </wgt>
<wgt id='1377'> +3.1581562E+03 </wgt>
<wgt id='1378'> +3.5187663E+03 </wgt>
<wgt id='1379'> +2.9821192E+03 </wgt>
<wgt id='1380'> +2.9876846E+03 </wgt>
<wgt id='1381'> +2.9761436E+03 </wgt>
<wgt id='1382'> +2.9834784E+03 </wgt>
<wgt id='1383'> +2.9812301E+03 </wgt>
<wgt id='1384'> +2.9652822E+03 </wgt>
<wgt id='1385'> +2.9976096E+03 </wgt>
<wgt id='1386'> +2.9949883E+03 </wgt>
<wgt id='1387'> +2.9676213E+03 </wgt>
<wgt id='1388'> +2.9887283E+03 </wgt>
<wgt id='1389'> +2.9755320E+03 </wgt>
<wgt id='1390'> +2.9859412E+03 </wgt>
<wgt id='1391'> +2.9736636E+03 </wgt>
<wgt id='1392'> +2.9726390E+03 </wgt>
<wgt id='1393'> +2.9990006E+03 </wgt>
<wgt id='1394'> +2.9787267E+03 </wgt>
<wgt id='1395'> +2.9839874E+03 </wgt>
<wgt id='1396'> +2.9883346E+03 </wgt>
<wgt id='1397'> +2.9744112E+03 </wgt>
<wgt id='1398'> +2.9709440E+03 </wgt>
<wgt id='1399'> +2.9917283E+03 </wgt>
<wgt id='1400'> +2.9885902E+03 </wgt>
<wgt id='1401'> +2.9740422E+03 </wgt>
<wgt id='1402'> +3.0046601E+03 </wgt>
<wgt id='1403'> +2.9678299E+03 </wgt>
<wgt id='1404'> +2.9945240E+03 </wgt>
<wgt id='1405'> +2.9543766E+03 </wgt>
<wgt id='1406'> +2.9938421E+03 </wgt>
<wgt id='1407'> +2.9822492E+03 </wgt>
<wgt id='1408'> +3.0017256E+03 </wgt>
<wgt id='1409'> +2.9582795E+03 </wgt>
<wgt id='1410'> +3.0127710E+03 </wgt>
<wgt id='1411'> +2.9441079E+03 </wgt>
<wgt id='1412'> +2.9761793E+03 </wgt>
<wgt id='1413'> +2.9871948E+03 </wgt>
<wgt id='1414'> +2.9763761E+03 </wgt>
<wgt id='1415'> +2.9887947E+03 </wgt>
<wgt id='1416'> +2.9814595E+03 </wgt>
<wgt id='1417'> +2.9875869E+03 </wgt>
<wgt id='1418'> +2.9810337E+03 </wgt>
<wgt id='1419'> +2.9818727E+03 </wgt>
<wgt id='1420'> +2.9916077E+03 </wgt>
<wgt id='1421'> +2.9722079E+03 </wgt>
<wgt id='1422'> +2.9986737E+03 </wgt>
<wgt id='1423'> +2.9876421E+03 </wgt>
<wgt id='1424'> +2.9787477E+03 </wgt>
<wgt id='1425'> +2.9902839E+03 </wgt>
<wgt id='1426'> +2.9831896E+03 </wgt>
<wgt id='1427'> +2.9945121E+03 </wgt>
<wgt id='1428'> +2.9822912E+03 </wgt>
<wgt id='1429'> +2.9907688E+03 </wgt>
<wgt id='1430'> +2.9316693E+03 </wgt>
<wgt id='1431'> +2.9403526E+03 </wgt>
<wgt id='1432'> +2.9205272E+03 </wgt>
<wgt id='1433'> +2.9261507E+03 </wgt>
<wgt id='1434'> +2.9370713E+03 </wgt>
<wgt id='1435'> +2.9297840E+03 </wgt>
<wgt id='1436'> +2.9324225E+03 </wgt>
<wgt id='1437'> +2.9324987E+03 </wgt>
<wgt id='1438'> +2.9306127E+03 </wgt>
<wgt id='1439'> +2.9329177E+03 </wgt>
<wgt id='1440'> +2.9304513E+03 </wgt>
<wgt id='1441'> +2.9125138E+03 </wgt>
<wgt id='1442'> +2.9397343E+03 </wgt>
<wgt id='1443'> +2.9301239E+03 </wgt>
<wgt id='1444'> +2.9335337E+03 </wgt>
<wgt id='1445'> +2.9157274E+03 </wgt>
<wgt id='1446'> +2.9487961E+03 </wgt>
<wgt id='1447'> +2.9139026E+03 </wgt>
<wgt id='1448'> +2.9405661E+03 </wgt>
<wgt id='1449'> +2.9390284E+03 </wgt>
<wgt id='1450'> +2.9216702E+03 </wgt>
<wgt id='1451'> +2.9319577E+03 </wgt>
<wgt id='1452'> +2.9312878E+03 </wgt>
<wgt id='1453'> +2.8986815E+03 </wgt>
<wgt id='1454'> +2.9589021E+03 </wgt>
<wgt id='1455'> +2.9193977E+03 </wgt>
<wgt id='1456'> +2.9626106E+03 </wgt>
<wgt id='1457'> +2.9405072E+03 </wgt>
<wgt id='1458'> +2.9377302E+03 </wgt>
<wgt id='1459'> +2.9168089E+03 </wgt>
<wgt id='1460'> +2.9624594E+03 </wgt>
<wgt id='1461'> +2.9423242E+03 </wgt>
<wgt id='1462'> +2.9060756E+03 </wgt>
<wgt id='1463'> +2.9229920E+03 </wgt>
<wgt id='1464'> +2.9472995E+03 </wgt>
<wgt id='1465'> +2.9466699E+03 </wgt>
<wgt id='1466'> +2.9232972E+03 </wgt>
<wgt id='1467'> +2.9344855E+03 </wgt>
<wgt id='1468'> +2.9344667E+03 </wgt>
<wgt id='1469'> +2.9314094E+03 </wgt>
<wgt id='1470'> +2.9300673E+03 </wgt>
<wgt id='1471'> +2.9301151E+03 </wgt>
<wgt id='1472'> +2.9339495E+03 </wgt>
<wgt id='1473'> +2.9338447E+03 </wgt>
<wgt id='1474'> +2.9361758E+03 </wgt>
<wgt id='1475'> +2.9468594E+03 </wgt>
<wgt id='1476'> +2.9365636E+03 </wgt>
<wgt id='1477'> +2.9413926E+03 </wgt>
<wgt id='1478'> +2.9292334E+03 </wgt>
<wgt id='1479'> +2.9395492E+03 </wgt>
<wgt id='1480'> +2.9430599E+03 </wgt>
<wgt id='1481'> +4.1892875E+03 </wgt>
<wgt id='1482'> +3.0811520E+03 </wgt>
<wgt id='1483'> +3.0804594E+03 </wgt>
<wgt id='1484'> +3.0811785E+03 </wgt>
<wgt id='1485'> +3.0816686E+03 </wgt>
<wgt id='1486'> +3.0811036E+03 </wgt>
<wgt id='1487'> +3.0769481E+03 </wgt>
<wgt id='1488'> +3.0779068E+03 </wgt>
<wgt id='1489'> +3.0732773E+03 </wgt>
<wgt id='1490'> +3.0749668E+03 </wgt>
<wgt id='1491'> +3.0805214E+03 </wgt>
<wgt id='1492'> +3.0849078E+03 </wgt>
<wgt id='1493'> +3.0742335E+03 </wgt>
<wgt id='1494'> +3.0905176E+03 </wgt>
<wgt id='1495'> +3.0844036E+03 </wgt>
<wgt id='1496'> +3.0735744E+03 </wgt>
<wgt id='1497'> +3.0781019E+03 </wgt>
<wgt id='1498'> +3.0835996E+03 </wgt>
<wgt id='1499'> +3.0786113E+03 </wgt>
<wgt id='1500'> +3.0732664E+03 </wgt>
<wgt id='1501'> +3.0803164E+03 </wgt>
<wgt id='1502'> +3.0691230E+03 </wgt>
<wgt id='1503'> +3.0808451E+03 </wgt>
<wgt id='1504'> +3.0740613E+03 </wgt>
<wgt id='1505'> +3.0861144E+03 </wgt>
<wgt id='1506'> +3.0922292E+03 </wgt>
<wgt id='1507'> +3.0896024E+03 </wgt>
<wgt id='1508'> +3.0764660E+03 </wgt>
<wgt id='1509'> +3.0733553E+03 </wgt>
<wgt id='1510'> +3.0835885E+03 </wgt>
<wgt id='1511'> +3.0543817E+03 </wgt>
<wgt id='1512'> +3.0055100E+03 </wgt>
<wgt id='1513'> +3.0093515E+03 </wgt>
<wgt id='1514'> +2.9651700E+03 </wgt>
<wgt id='1515'> +3.0044463E+03 </wgt>
<wgt id='1516'> +3.0127984E+03 </wgt>
<wgt id='1517'> +3.0254094E+03 </wgt>
<wgt id='1518'> +2.9812725E+03 </wgt>
<wgt id='1519'> +3.0441470E+03 </wgt>
<wgt id='1520'> +3.0423685E+03 </wgt>
<wgt id='1521'> +2.9882371E+03 </wgt>
<wgt id='1522'> +2.9939477E+03 </wgt>
<wgt id='1523'> +3.0043612E+03 </wgt>
<wgt id='1524'> +2.9928282E+03 </wgt>
<wgt id='1525'> +3.0205822E+03 </wgt>
<wgt id='1526'> +3.0079351E+03 </wgt>
<wgt id='1527'> +2.9972566E+03 </wgt>
<wgt id='1528'> +3.0070735E+03 </wgt>
<wgt id='1529'> +2.9976799E+03 </wgt>
<wgt id='1530'> +3.0194711E+03 </wgt>
<wgt id='1531'> +3.0004990E+03 </wgt>
<wgt id='1532'> +3.0114443E+03 </wgt>
<wgt id='1533'> +3.0037535E+03 </wgt>
<wgt id='1534'> +2.9920784E+03 </wgt>
<wgt id='1535'> +3.0199511E+03 </wgt>
<wgt id='1536'> +3.0001777E+03 </wgt>
<wgt id='1537'> +3.0142550E+03 </wgt>
<wgt id='1538'> +3.0043463E+03 </wgt>
<wgt id='1539'> +2.9992401E+03 </wgt>
<wgt id='1540'> +3.0151173E+03 </wgt>
<wgt id='1541'> +3.0018147E+03 </wgt>
<wgt id='1542'> +2.9957973E+03 </wgt>
<wgt id='1543'> +3.0065492E+03 </wgt>
<wgt id='1544'> +3.0026488E+03 </wgt>
<wgt id='1545'> +2.9974940E+03 </wgt>
<wgt id='1546'> +3.0049685E+03 </wgt>
<wgt id='1547'> +3.0155953E+03 </wgt>
<wgt id='1548'> +3.0007395E+03 </wgt>
<wgt id='1549'> +3.0011132E+03 </wgt>
<wgt id='1550'> +3.0046006E+03 </wgt>
<wgt id='1551'> +3.0075432E+03 </wgt>
<wgt id='1552'> +3.0077851E+03 </wgt>
<wgt id='1553'> +3.0095337E+03 </wgt>
<wgt id='1554'> +3.0073416E+03 </wgt>
<wgt id='1555'> +3.0013770E+03 </wgt>
<wgt id='1556'> +3.0091389E+03 </wgt>
<wgt id='1557'> +3.0098782E+03 </wgt>
<wgt id='1558'> +3.0049335E+03 </wgt>
<wgt id='1559'> +3.0017670E+03 </wgt>
<wgt id='1560'> +2.9980960E+03 </wgt>
<wgt id='1561'> +3.0057063E+03 </wgt>
<wgt id='1562'> +3.0061482E+03 </wgt>
<wgt id='1563'> +3.0013903E+03 </wgt>
<wgt id='1564'> +3.0074063E+03 </wgt>
<wgt id='1565'> +3.0022333E+03 </wgt>
<wgt id='1566'> +3.0068503E+03 </wgt>
<wgt id='1567'> +3.0027200E+03 </wgt>
<wgt id='1568'> +3.0068980E+03 </wgt>
<wgt id='1569'> +3.0031402E+03 </wgt>
<wgt id='1570'> +3.0056775E+03 </wgt>
<wgt id='1571'> +3.0016905E+03 </wgt>
<wgt id='1572'> +3.0033563E+03 </wgt>
<wgt id='1573'> +3.0024213E+03 </wgt>
<wgt id='1574'> +3.0017741E+03 </wgt>
<wgt id='1575'> +3.0058845E+03 </wgt>
<wgt id='1576'> +3.0020004E+03 </wgt>
<wgt id='1577'> +3.0048946E+03 </wgt>
<wgt id='1578'> +3.0024733E+03 </wgt>
<wgt id='1579'> +3.0032715E+03 </wgt>
<wgt id='1580'> +3.0054080E+03 </wgt>
<wgt id='1581'> +3.0058105E+03 </wgt>
<wgt id='1582'> +3.0078933E+03 </wgt>
<wgt id='1583'> +3.0061795E+03 </wgt>
<wgt id='1584'> +3.0040136E+03 </wgt>
<wgt id='1585'> +3.0041903E+03 </wgt>
<wgt id='1586'> +3.0066910E+03 </wgt>
<wgt id='1587'> +3.0061171E+03 </wgt>
<wgt id='1588'> +3.0047882E+03 </wgt>
<wgt id='1589'> +3.0054988E+03 </wgt>
<wgt id='1590'> +3.0060078E+03 </wgt>
<wgt id='1591'> +3.0065435E+03 </wgt>
<wgt id='1592'> +3.0053269E+03 </wgt>
<wgt id='1593'> +3.0051640E+03 </wgt>
<wgt id='1594'> +3.0039007E+03 </wgt>
<wgt id='1595'> +3.0069252E+03 </wgt>
<wgt id='1596'> +3.0053516E+03 </wgt>
<wgt id='1597'> +3.0073376E+03 </wgt>
<wgt id='1598'> +3.0059037E+03 </wgt>
<wgt id='1599'> +3.0059101E+03 </wgt>
<wgt id='1600'> +3.0040085E+03 </wgt>
<wgt id='1601'> +3.0056515E+03 </wgt>
<wgt id='1602'> +3.0049548E+03 </wgt>
<wgt id='1603'> +3.0050723E+03 </wgt>
<wgt id='1604'> +3.0048346E+03 </wgt>
<wgt id='1605'> +3.0031370E+03 </wgt>
<wgt id='1606'> +3.0060911E+03 </wgt>
<wgt id='1607'> +3.0069605E+03 </wgt>
<wgt id='1608'> +3.0043346E+03 </wgt>
<wgt id='1609'> +3.0059407E+03 </wgt>
<wgt id='1610'> +3.0057756E+03 </wgt>
<wgt id='1611'> +3.0063666E+03 </wgt>
<wgt id='1612'> +3.0059661E+03 </wgt>
<wgt id='1613'> +2.9486614E+03 </wgt>
<wgt id='1614'> +3.0590405E+03 </wgt>
<wgt id='1615'> +2.9452650E+03 </wgt>
<wgt id='1616'> +2.9531017E+03 </wgt>
<wgt id='1617'> +2.9273125E+03 </wgt>
<wgt id='1618'> +2.9652218E+03 </wgt>
<wgt id='1619'> +2.9476983E+03 </wgt>
<wgt id='1620'> +2.9243312E+03 </wgt>
<wgt id='1621'> +2.9639245E+03 </wgt>
<wgt id='1622'> +2.9786134E+03 </wgt>
<wgt id='1623'> +2.9589958E+03 </wgt>
<wgt id='1624'> +2.9442281E+03 </wgt>
<wgt id='1625'> +2.9533912E+03 </wgt>
<wgt id='1626'> +2.9492303E+03 </wgt>
<wgt id='1627'> +2.9233697E+03 </wgt>
<wgt id='1628'> +2.9391683E+03 </wgt>
<wgt id='1629'> +2.9277560E+03 </wgt>
<wgt id='1630'> +2.9428725E+03 </wgt>
<wgt id='1631'> +2.9453246E+03 </wgt>
<wgt id='1632'> +2.9503026E+03 </wgt>
<wgt id='1633'> +2.9442236E+03 </wgt>
<wgt id='1634'> +2.9295015E+03 </wgt>
<wgt id='1635'> +2.9521974E+03 </wgt>
<wgt id='1636'> +2.9531129E+03 </wgt>
<wgt id='1637'> +2.9362205E+03 </wgt>
<wgt id='1638'> +2.9582838E+03 </wgt>
<wgt id='1639'> +2.9576087E+03 </wgt>
<wgt id='1640'> +2.9412932E+03 </wgt>
<wgt id='1641'> +2.9420981E+03 </wgt>
<wgt id='1642'> +2.9487855E+03 </wgt>
<wgt id='1643'> +2.9431875E+03 </wgt>
<wgt id='1644'> +2.9405233E+03 </wgt>
<wgt id='1645'> +2.9460825E+03 </wgt>
<wgt id='1646'> +2.9540572E+03 </wgt>
<wgt id='1647'> +2.9523999E+03 </wgt>
<wgt id='1648'> +2.9558325E+03 </wgt>
<wgt id='1649'> +2.9522135E+03 </wgt>
<wgt id='1650'> +2.9378187E+03 </wgt>
<wgt id='1651'> +2.9496928E+03 </wgt>
<wgt id='1652'> +2.9452007E+03 </wgt>
<wgt id='1653'> +2.9487885E+03 </wgt>
<wgt id='1654'> +2.9415111E+03 </wgt>
<wgt id='1655'> +2.9425185E+03 </wgt>
<wgt id='1656'> +2.9441460E+03 </wgt>
<wgt id='1657'> +2.9467406E+03 </wgt>
<wgt id='1658'> +2.9384480E+03 </wgt>
<wgt id='1659'> +2.9486424E+03 </wgt>
<wgt id='1660'> +2.9429171E+03 </wgt>
<wgt id='1661'> +2.9461701E+03 </wgt>
<wgt id='1662'> +2.9402875E+03 </wgt>
<wgt id='1663'> +2.9500770E+03 </wgt>
<wgt id='1664'> +2.9405188E+03 </wgt>
<wgt id='1665'> +2.9491302E+03 </wgt>
<wgt id='1666'> +2.9479497E+03 </wgt>
<wgt id='1667'> +2.9452878E+03 </wgt>
<wgt id='1668'> +2.9431504E+03 </wgt>
<wgt id='1669'> +2.9427479E+03 </wgt>
<wgt id='1670'> +2.9447979E+03 </wgt>
<wgt id='1671'> +2.9450927E+03 </wgt>
<wgt id='1672'> +2.9430843E+03 </wgt>
<wgt id='1673'> +2.9402997E+03 </wgt>
<wgt id='1674'> +2.9462206E+03 </wgt>
<wgt id='1675'> +2.9449576E+03 </wgt>
<wgt id='1676'> +2.9446104E+03 </wgt>
<wgt id='1677'> +2.9464865E+03 </wgt>
<wgt id='1678'> +2.9444318E+03 </wgt>
<wgt id='1679'> +2.9422200E+03 </wgt>
<wgt id='1680'> +2.9458390E+03 </wgt>
<wgt id='1681'> +2.9470564E+03 </wgt>
<wgt id='1682'> +2.9461455E+03 </wgt>
<wgt id='1683'> +2.9454616E+03 </wgt>
<wgt id='1684'> +2.9463791E+03 </wgt>
<wgt id='1685'> +2.9452096E+03 </wgt>
<wgt id='1686'> +2.9464956E+03 </wgt>
<wgt id='1687'> +2.9474380E+03 </wgt>
<wgt id='1688'> +2.9436267E+03 </wgt>
<wgt id='1689'> +2.9440959E+03 </wgt>
<wgt id='1690'> +2.9446331E+03 </wgt>
<wgt id='1691'> +2.9459041E+03 </wgt>
<wgt id='1692'> +2.9472361E+03 </wgt>
<wgt id='1693'> +2.9447206E+03 </wgt>
<wgt id='1694'> +2.9463640E+03 </wgt>
<wgt id='1695'> +2.9466004E+03 </wgt>
<wgt id='1696'> +2.9459870E+03 </wgt>
<wgt id='1697'> +2.9453734E+03 </wgt>
<wgt id='1698'> +2.9450902E+03 </wgt>
<wgt id='1699'> +2.9445424E+03 </wgt>
<wgt id='1700'> +2.9443015E+03 </wgt>
<wgt id='1701'> +2.9456573E+03 </wgt>
<wgt id='1702'> +2.9440934E+03 </wgt>
<wgt id='1703'> +2.9443443E+03 </wgt>
<wgt id='1704'> +2.9449057E+03 </wgt>
<wgt id='1705'> +2.9453145E+03 </wgt>
<wgt id='1706'> +2.9460655E+03 </wgt>
<wgt id='1707'> +2.9458517E+03 </wgt>
<wgt id='1708'> +2.9453028E+03 </wgt>
<wgt id='1709'> +2.9438162E+03 </wgt>
<wgt id='1710'> +2.9461986E+03 </wgt>
<wgt id='1711'> +2.9451017E+03 </wgt>
<wgt id='1712'> +2.9451144E+03 </wgt>
<wgt id='1713'> +2.9456382E+03 </wgt>
<wgt id='1714'> +2.9447254E+03 </wgt>
<wgt id='1715'> +2.9453839E+03 </wgt>
<wgt id='1716'> +2.8990267E+03 </wgt>
<wgt id='1717'> +2.9903719E+03 </wgt>
<wgt id='1718'> +3.0082964E+03 </wgt>
<wgt id='1719'> +2.9815396E+03 </wgt>
<wgt id='1720'> +2.9990664E+03 </wgt>
<wgt id='1721'> +3.0074350E+03 </wgt>
<wgt id='1722'> +3.0533924E+03 </wgt>
<wgt id='1723'> +3.0109622E+03 </wgt>
<wgt id='1724'> +3.0135613E+03 </wgt>
<wgt id='1725'> +3.0048655E+03 </wgt>
<wgt id='1726'> +3.0144826E+03 </wgt>
<wgt id='1727'> +3.0215440E+03 </wgt>
<wgt id='1728'> +3.0085590E+03 </wgt>
<wgt id='1729'> +3.0276980E+03 </wgt>
<wgt id='1730'> +3.0236565E+03 </wgt>
<wgt id='1731'> +3.0061418E+03 </wgt>
<wgt id='1732'> +3.0099662E+03 </wgt>
<wgt id='1733'> +3.0175002E+03 </wgt>
<wgt id='1734'> +3.0138576E+03 </wgt>
<wgt id='1735'> +2.9587691E+03 </wgt>
<wgt id='1736'> +3.0064123E+03 </wgt>
<wgt id='1737'> +3.0180690E+03 </wgt>
<wgt id='1738'> +3.0175988E+03 </wgt>
<wgt id='1739'> +3.0002704E+03 </wgt>
<wgt id='1740'> +3.0009799E+03 </wgt>
<wgt id='1741'> +3.0096014E+03 </wgt>
<wgt id='1742'> +2.9978760E+03 </wgt>
<wgt id='1743'> +3.0119426E+03 </wgt>
<wgt id='1744'> +3.0014124E+03 </wgt>
<wgt id='1745'> +3.0112678E+03 </wgt>
<wgt id='1746'> +3.0045499E+03 </wgt>
<wgt id='1747'> +3.0039823E+03 </wgt>
<wgt id='1748'> +3.0123003E+03 </wgt>
<wgt id='1749'> +2.9486614E+03 </wgt>
<wgt id='1750'> +3.0590405E+03 </wgt>
<wgt id='1751'> +2.9456268E+03 </wgt>
<wgt id='1752'> +2.9663567E+03 </wgt>
<wgt id='1753'> +2.9357318E+03 </wgt>
<wgt id='1754'> +2.9428694E+03 </wgt>
<wgt id='1755'> +2.9194470E+03 </wgt>
<wgt id='1756'> +2.9169558E+03 </wgt>
<wgt id='1757'> +2.9465914E+03 </wgt>
<wgt id='1758'> +2.9436627E+03 </wgt>
<wgt id='1759'> +2.9351550E+03 </wgt>
<wgt id='1760'> +2.9389512E+03 </wgt>
<wgt id='1761'> +2.9900097E+03 </wgt>
<wgt id='1762'> +2.9477260E+03 </wgt>
<wgt id='1763'> +2.9455258E+03 </wgt>
<wgt id='1764'> +2.9404117E+03 </wgt>
<wgt id='1765'> +2.9446884E+03 </wgt>
<wgt id='1766'> +2.9383253E+03 </wgt>
<wgt id='1767'> +2.9414315E+03 </wgt>
<wgt id='1768'> +2.9309316E+03 </wgt>
<wgt id='1769'> +2.9444613E+03 </wgt>
<wgt id='1770'> +2.9512302E+03 </wgt>
<wgt id='1771'> +2.9359670E+03 </wgt>
<wgt id='1772'> +2.9402911E+03 </wgt>
<wgt id='1773'> +2.9453826E+03 </wgt>
<wgt id='1774'> +2.9450885E+03 </wgt>
<wgt id='1775'> +2.9480921E+03 </wgt>
<wgt id='1776'> +2.9547263E+03 </wgt>
<wgt id='1777'> +2.9493277E+03 </wgt>
<wgt id='1778'> +2.9475407E+03 </wgt>
<wgt id='1779'> +2.9499839E+03 </wgt>
<wgt id='1780'> +2.9504569E+03 </wgt>
<wgt id='1781'> +2.9507304E+03 </wgt>
<wgt id='1782'> +2.8990267E+03 </wgt>
<wgt id='1783'> +2.9903719E+03 </wgt>
<wgt id='1784'> +3.3469267E+03 </wgt>
<wgt id='1785'> +3.3465309E+03 </wgt>
<wgt id='1786'> +3.3473172E+03 </wgt>
<wgt id='1787'> +3.3524702E+03 </wgt>
<wgt id='1788'> +3.3413697E+03 </wgt>
<wgt id='1789'> +3.3399936E+03 </wgt>
<wgt id='1790'> +3.3538300E+03 </wgt>
<wgt id='1791'> +3.3390126E+03 </wgt>
<wgt id='1792'> +3.3547210E+03 </wgt>
<wgt id='1793'> +3.3675032E+03 </wgt>
<wgt id='1794'> +3.3264070E+03 </wgt>
<wgt id='1795'> +3.3471945E+03 </wgt>
<wgt id='1796'> +3.3433587E+03 </wgt>
<wgt id='1797'> +3.3372706E+03 </wgt>
<wgt id='1798'> +3.3562779E+03 </wgt>
<wgt id='1799'> +3.3418867E+03 </wgt>
<wgt id='1800'> +3.3623698E+03 </wgt>
<wgt id='1801'> +3.3364070E+03 </wgt>
<wgt id='1802'> +3.3495998E+03 </wgt>
<wgt id='1803'> +3.3436214E+03 </wgt>
<wgt id='1804'> +3.3535077E+03 </wgt>
<wgt id='1805'> +3.3566379E+03 </wgt>
<wgt id='1806'> +3.3349009E+03 </wgt>
<wgt id='1807'> +3.3228008E+03 </wgt>
<wgt id='1808'> +3.3587416E+03 </wgt>
<wgt id='1809'> +3.3581877E+03 </wgt>
<wgt id='1810'> +3.3370096E+03 </wgt>
<wgt id='1811'> +3.3289765E+03 </wgt>
<wgt id='1812'> +3.3603644E+03 </wgt>
<wgt id='1813'> +3.3469267E+03 </wgt>
<wgt id='1814'> +3.3331655E+03 </wgt>
<wgt id='1815'> +3.3629010E+03 </wgt>
<wgt id='1816'> +3.3305735E+03 </wgt>
<wgt id='1817'> +3.3582265E+03 </wgt>
<wgt id='1818'> +3.3811731E+03 </wgt>
<wgt id='1819'> +3.3282094E+03 </wgt>
<wgt id='1820'> +3.3410949E+03 </wgt>
<wgt id='1821'> +3.3530788E+03 </wgt>
<wgt id='1822'> +3.3270480E+03 </wgt>
<wgt id='1823'> +3.3688085E+03 </wgt>
<wgt id='1824'> +3.3430025E+03 </wgt>
<wgt id='1825'> +3.3706236E+03 </wgt>
<wgt id='1826'> +3.4073373E+03 </wgt>
<wgt id='1827'> +3.2335526E+03 </wgt>
<wgt id='1828'> +3.2347063E+03 </wgt>
<wgt id='1829'> +3.2336346E+03 </wgt>
<wgt id='1830'> +3.2425098E+03 </wgt>
<wgt id='1831'> +3.2258099E+03 </wgt>
<wgt id='1832'> +3.2316798E+03 </wgt>
<wgt id='1833'> +3.2366214E+03 </wgt>
<wgt id='1834'> +3.2228703E+03 </wgt>
<wgt id='1835'> +3.2451439E+03 </wgt>
<wgt id='1836'> +3.2480609E+03 </wgt>
<wgt id='1837'> +3.2197304E+03 </wgt>
<wgt id='1838'> +3.2444992E+03 </wgt>
<wgt id='1839'> +3.2237279E+03 </wgt>
<wgt id='1840'> +3.2221425E+03 </wgt>
<wgt id='1841'> +3.2466532E+03 </wgt>
<wgt id='1842'> +3.2360895E+03 </wgt>
<wgt id='1843'> +3.2470116E+03 </wgt>
<wgt id='1844'> +3.2404920E+03 </wgt>
<wgt id='1845'> +3.2270873E+03 </wgt>
<wgt id='1846'> +3.2352552E+03 </wgt>
<wgt id='1847'> +3.2325910E+03 </wgt>
<wgt id='1848'> +3.2098802E+03 </wgt>
<wgt id='1849'> +3.2554731E+03 </wgt>
<wgt id='1850'> +3.2395995E+03 </wgt>
<wgt id='1851'> +3.2267490E+03 </wgt>
<wgt id='1852'> +3.2272836E+03 </wgt>
<wgt id='1853'> +3.2308953E+03 </wgt>
<wgt id='1854'> +3.2239599E+03 </wgt>
<wgt id='1855'> +3.2377578E+03 </wgt>
<wgt id='1856'> +3.2289436E+03 </wgt>
<wgt id='1857'> +3.2204447E+03 </wgt>
<wgt id='1858'> +3.2342342E+03 </wgt>
<wgt id='1859'> +3.2186147E+03 </wgt>
<wgt id='1860'> +3.2353084E+03 </wgt>
<wgt id='1861'> +3.2446418E+03 </wgt>
<wgt id='1862'> +3.2075986E+03 </wgt>
<wgt id='1863'> +3.2234151E+03 </wgt>
<wgt id='1864'> +3.2405012E+03 </wgt>
<wgt id='1865'> +3.1770495E+03 </wgt>
<wgt id='1866'> +3.2548770E+03 </wgt>
<wgt id='1867'> +3.1853359E+03 </wgt>
<wgt id='1868'> +3.2773446E+03 </wgt>
<wgt id='1869'> +3.2172201E+03 </wgt>
<wgt id='1870'> +3.0631927E+03 </wgt>
<wgt id='1871'> +3.0627724E+03 </wgt>
<wgt id='1872'> +3.0623314E+03 </wgt>
<wgt id='1873'> +3.0619199E+03 </wgt>
<wgt id='1874'> +3.0615018E+03 </wgt>
<wgt id='1875'> +3.0610554E+03 </wgt>
<wgt id='1876'> +3.0606433E+03 </wgt>
<wgt id='1877'> +3.0601986E+03 </wgt>
<wgt id='1878'> +3.0597800E+03 </wgt>
<wgt id='1879'> +3.0593426E+03 </wgt>
<wgt id='1880'> +3.0589237E+03 </wgt>
<wgt id='1881'> +3.0584857E+03 </wgt>
<wgt id='1882'> +3.0580665E+03 </wgt>
<wgt id='1883'> +3.0576233E+03 </wgt>
<wgt id='1884'> +3.0572059E+03 </wgt>
<wgt id='1885'> +3.0567870E+03 </wgt>
<wgt id='1886'> +3.0563510E+03 </wgt>
<wgt id='1887'> +3.0559311E+03 </wgt>
<wgt id='1888'> +3.0554904E+03 </wgt>
<wgt id='1889'> +3.0550746E+03 </wgt>
<wgt id='1890'> +3.0546317E+03 </wgt>
<wgt id='1891'> +3.0542143E+03 </wgt>
<wgt id='1892'> +3.0537732E+03 </wgt>
<wgt id='1893'> +3.0533603E+03 </wgt>
<wgt id='1894'> +3.0529190E+03 </wgt>
<wgt id='1895'> +3.0524980E+03 </wgt>
<wgt id='1896'> +3.0520837E+03 </wgt>
<wgt id='1897'> +3.0516436E+03 </wgt>
<wgt id='1898'> +3.0512199E+03 </wgt>
<wgt id='1899'> +3.0507892E+03 </wgt>
<wgt id='1900'> +3.0503692E+03 </wgt>
<wgt id='1901'> +2.9206326E+03 </wgt>
<wgt id='1902'> +2.9279974E+03 </wgt>
<wgt id='1903'> +2.9028677E+03 </wgt>
<wgt id='1904'> +2.9402823E+03 </wgt>
<wgt id='1905'> +2.9229149E+03 </wgt>
<wgt id='1906'> +2.8998336E+03 </wgt>
<wgt id='1907'> +2.9393609E+03 </wgt>
<wgt id='1908'> +2.9540334E+03 </wgt>
<wgt id='1909'> +2.9342728E+03 </wgt>
<wgt id='1910'> +2.9195915E+03 </wgt>
<wgt id='1911'> +2.9285202E+03 </wgt>
<wgt id='1912'> +2.9250102E+03 </wgt>
<wgt id='1913'> +2.8990981E+03 </wgt>
<wgt id='1914'> +2.9146197E+03 </wgt>
<wgt id='1915'> +2.9033064E+03 </wgt>
<wgt id='1916'> +2.9178314E+03 </wgt>
<wgt id='1917'> +2.9211336E+03 </wgt>
<wgt id='1918'> +2.9254254E+03 </wgt>
<wgt id='1919'> +2.9195263E+03 </wgt>
<wgt id='1920'> +2.9052899E+03 </wgt>
<wgt id='1921'> +2.9277690E+03 </wgt>
<wgt id='1922'> +2.9282294E+03 </wgt>
<wgt id='1923'> +2.9116102E+03 </wgt>
<wgt id='1924'> +2.9335664E+03 </wgt>
<wgt id='1925'> +2.9326689E+03 </wgt>
<wgt id='1926'> +2.9164796E+03 </wgt>
<wgt id='1927'> +2.9172282E+03 </wgt>
<wgt id='1928'> +2.9244019E+03 </wgt>
<wgt id='1929'> +2.9186980E+03 </wgt>
<wgt id='1930'> +2.9157898E+03 </wgt>
<wgt id='1931'> +2.9212880E+03 </wgt>
<wgt id='1932'> +2.9296142E+03 </wgt>
<wgt id='1933'> +2.9275738E+03 </wgt>
<wgt id='1934'> +2.9309783E+03 </wgt>
<wgt id='1935'> +2.9275400E+03 </wgt>
<wgt id='1936'> +2.9131839E+03 </wgt>
<wgt id='1937'> +2.9250472E+03 </wgt>
<wgt id='1938'> +2.9205695E+03 </wgt>
<wgt id='1939'> +2.9240994E+03 </wgt>
<wgt id='1940'> +2.9167815E+03 </wgt>
<wgt id='1941'> +2.9178953E+03 </wgt>
<wgt id='1942'> +2.9194918E+03 </wgt>
<wgt id='1943'> +2.9220811E+03 </wgt>
<wgt id='1944'> +2.9139965E+03 </wgt>
<wgt id='1945'> +2.9239495E+03 </wgt>
<wgt id='1946'> +2.9183135E+03 </wgt>
<wgt id='1947'> +2.9215915E+03 </wgt>
<wgt id='1948'> +2.9156689E+03 </wgt>
<wgt id='1949'> +2.9254440E+03 </wgt>
<wgt id='1950'> +2.9159210E+03 </wgt>
<wgt id='1951'> +2.9244808E+03 </wgt>
<wgt id='1952'> +2.9232720E+03 </wgt>
<wgt id='1953'> +2.9206788E+03 </wgt>
<wgt id='1954'> +2.9185250E+03 </wgt>
<wgt id='1955'> +2.9181686E+03 </wgt>
<wgt id='1956'> +2.9202034E+03 </wgt>
<wgt id='1957'> +2.9203613E+03 </wgt>
<wgt id='1958'> +2.9184940E+03 </wgt>
<wgt id='1959'> +2.9157703E+03 </wgt>
<wgt id='1960'> +2.9216105E+03 </wgt>
<wgt id='1961'> +2.9203850E+03 </wgt>
<wgt id='1962'> +2.9200032E+03 </wgt>
<wgt id='1963'> +2.9218268E+03 </wgt>
<wgt id='1964'> +2.9197558E+03 </wgt>
<wgt id='1965'> +2.9176931E+03 </wgt>
<wgt id='1966'> +2.9211720E+03 </wgt>
<wgt id='1967'> +2.9223736E+03 </wgt>
<wgt id='1968'> +2.9214507E+03 </wgt>
<wgt id='1969'> +2.9208297E+03 </wgt>
<wgt id='1970'> +2.9216902E+03 </wgt>
<wgt id='1971'> +2.9205707E+03 </wgt>
<wgt id='1972'> +2.9218707E+03 </wgt>
<wgt id='1973'> +2.9227537E+03 </wgt>
<wgt id='1974'> +2.9189877E+03 </wgt>
<wgt id='1975'> +2.9194907E+03 </wgt>
<wgt id='1976'> +2.9200168E+03 </wgt>
<wgt id='1977'> +2.9213161E+03 </wgt>
<wgt id='1978'> +2.9225940E+03 </wgt>
<wgt id='1979'> +2.9201244E+03 </wgt>
<wgt id='1980'> +2.9217136E+03 </wgt>
<wgt id='1981'> +2.9219141E+03 </wgt>
<wgt id='1982'> +2.9213954E+03 </wgt>
<wgt id='1983'> +2.9207615E+03 </wgt>
<wgt id='1984'> +2.9204589E+03 </wgt>
<wgt id='1985'> +2.9198971E+03 </wgt>
<wgt id='1986'> +2.9196887E+03 </wgt>
<wgt id='1987'> +2.9210829E+03 </wgt>
<wgt id='1988'> +2.9194482E+03 </wgt>
<wgt id='1989'> +2.9196905E+03 </wgt>
<wgt id='1990'> +2.9202466E+03 </wgt>
<wgt id='1991'> +2.9206659E+03 </wgt>
<wgt id='1992'> +2.9213805E+03 </wgt>
<wgt id='1993'> +2.9211755E+03 </wgt>
<wgt id='1994'> +2.9206826E+03 </wgt>
<wgt id='1995'> +2.9191496E+03 </wgt>
<wgt id='1996'> +2.9215551E+03 </wgt>
<wgt id='1997'> +2.9204953E+03 </wgt>
<wgt id='1998'> +2.9205061E+03 </wgt>
<wgt id='1999'> +2.9209776E+03 </wgt>
<wgt id='2000'> +2.9201049E+03 </wgt>
<wgt id='2001'> +2.9207553E+03 </wgt>
<wgt id='2002'> +2.9206143E+03 </wgt>
<wgt id='2003'> +2.9205117E+03 </wgt>
<wgt id='2004'> +2.9206518E+03 </wgt>
<wgt id='2005'> +2.9206549E+03 </wgt>
<wgt id='2006'> +2.9206886E+03 </wgt>
<wgt id='2007'> +2.9206407E+03 </wgt>
<wgt id='2008'> +2.9205519E+03 </wgt>
<wgt id='2009'> +2.9479668E+03 </wgt>
<wgt id='2010'> +2.7952470E+03 </wgt>
<wgt id='2011'> +2.8698211E+03 </wgt>
<wgt id='2012'> +3.0230067E+03 </wgt>
<wgt id='2013'> +2.9763356E+03 </wgt>
<wgt id='2014'> +2.8743370E+03 </wgt>
<wgt id='2015'> +2.9821617E+03 </wgt>
<wgt id='2016'> +2.9083048E+03 </wgt>
<wgt id='2017'> +2.9033002E+03 </wgt>
<wgt id='2018'> +2.9557643E+03 </wgt>
<wgt id='2019'> +3.0048748E+03 </wgt>
<wgt id='2020'> +3.0121716E+03 </wgt>
<wgt id='2021'> +2.9876190E+03 </wgt>
<wgt id='2022'> +2.9746044E+03 </wgt>
<wgt id='2023'> +3.0246373E+03 </wgt>
<wgt id='2024'> +2.9261837E+03 </wgt>
<wgt id='2025'> +2.8495560E+03 </wgt>
<wgt id='2026'> +2.9060044E+03 </wgt>
<wgt id='2027'> +2.8283404E+03 </wgt>
<wgt id='2028'> +2.9420884E+03 </wgt>
<wgt id='2029'> +2.8409318E+03 </wgt>
<wgt id='2030'> +3.0585154E+03 </wgt>
<wgt id='2031'> +2.9251774E+03 </wgt>
<wgt id='2032'> +3.0393799E+03 </wgt>
<wgt id='2033'> +3.0041854E+03 </wgt>
<wgt id='2034'> +2.9479679E+03 </wgt>
<wgt id='2035'> +2.9683836E+03 </wgt>
<wgt id='2036'> +2.8232935E+03 </wgt>
<wgt id='2037'> +3.0110072E+03 </wgt>
<wgt id='2038'> +2.9114300E+03 </wgt>
<wgt id='2039'> +2.9290358E+03 </wgt>
<wgt id='2040'> +2.9764094E+03 </wgt>
<wgt id='2041'> +3.0222150E+03 </wgt>
<wgt id='2042'> +2.9460818E+03 </wgt>
<wgt id='2043'> +3.0298992E+03 </wgt>
<wgt id='2044'> +2.9999914E+03 </wgt>
<wgt id='2045'> +2.9357114E+03 </wgt>
<wgt id='2046'> +2.9009688E+03 </wgt>
<wgt id='2047'> +2.9137761E+03 </wgt>
<wgt id='2048'> +2.8811318E+03 </wgt>
<wgt id='2049'> +2.9652990E+03 </wgt>
<wgt id='2050'> +2.9784487E+03 </wgt>
<wgt id='2051'> +2.9672043E+03 </wgt>
<wgt id='2052'> +2.9970072E+03 </wgt>
<wgt id='2053'> +2.9737048E+03 </wgt>
<wgt id='2054'> +3.0029187E+03 </wgt>
<wgt id='2055'> +2.9807477E+03 </wgt>
<wgt id='2056'> +2.9274959E+03 </wgt>
<wgt id='2057'> +2.9120531E+03 </wgt>
<wgt id='2058'> +2.9454861E+03 </wgt>
<wgt id='2059'> +2.9789700E+03 </wgt>
<wgt id='2060'> +3.0279011E+03 </wgt>
<wgt id='2061'> +2.9656823E+03 </wgt>
<wgt id='2062'> +3.0188627E+03 </wgt>
<wgt id='2063'> +2.9276092E+03 </wgt>
<wgt id='2064'> +2.9888200E+03 </wgt>
<wgt id='2065'> +2.9020225E+03 </wgt>
<wgt id='2066'> +2.9381206E+03 </wgt>
<wgt id='2067'> +3.0363962E+03 </wgt>
<wgt id='2068'> +2.8986705E+03 </wgt>
<wgt id='2069'> +2.9537436E+03 </wgt>
<wgt id='2070'> +2.9490068E+03 </wgt>
<wgt id='2071'> +2.9443565E+03 </wgt>
<wgt id='2072'> +3.0629375E+03 </wgt>
<wgt id='2073'> +2.8233037E+03 </wgt>
<wgt id='2074'> +3.0045415E+03 </wgt>
<wgt id='2075'> +2.9376170E+03 </wgt>
<wgt id='2076'> +2.9976959E+03 </wgt>
<wgt id='2077'> +2.9767557E+03 </wgt>
<wgt id='2078'> +2.9282356E+03 </wgt>
<wgt id='2079'> +2.9314839E+03 </wgt>
<wgt id='2080'> +2.9669083E+03 </wgt>
<wgt id='2081'> +3.0032632E+03 </wgt>
<wgt id='2082'> +2.8704446E+03 </wgt>
<wgt id='2083'> +3.0890187E+03 </wgt>
<wgt id='2084'> +2.9235022E+03 </wgt>
<wgt id='2085'> +3.0958322E+03 </wgt>
<wgt id='2086'> +2.9462438E+03 </wgt>
<wgt id='2087'> +2.9531030E+03 </wgt>
<wgt id='2088'> +2.9375276E+03 </wgt>
<wgt id='2089'> +2.9161604E+03 </wgt>
<wgt id='2090'> +2.9968623E+03 </wgt>
<wgt id='2091'> +2.9713595E+03 </wgt>
<wgt id='2092'> +2.8529796E+03 </wgt>
<wgt id='2093'> +2.9341642E+03 </wgt>
<wgt id='2094'> +2.9410755E+03 </wgt>
<wgt id='2095'> +2.9185205E+03 </wgt>
<wgt id='2096'> +2.9899959E+03 </wgt>
<wgt id='2097'> +2.9628274E+03 </wgt>
<wgt id='2098'> +2.8631021E+03 </wgt>
<wgt id='2099'> +2.9534552E+03 </wgt>
<wgt id='2100'> +2.9415403E+03 </wgt>
<wgt id='2101'> +2.9059246E+03 </wgt>
<wgt id='2102'> +2.8778502E+03 </wgt>
<wgt id='2103'> +2.9285083E+03 </wgt>
<wgt id='2104'> +2.8838414E+03 </wgt>
<wgt id='2105'> +2.9300904E+03 </wgt>
<wgt id='2106'> +2.8869641E+03 </wgt>
<wgt id='2107'> +2.9978886E+03 </wgt>
<wgt id='2108'> +2.9168438E+03 </wgt>
<wgt id='2109'> +2.7974788E+03 </wgt>
<wgt id='2110'> +2.9159299E+03 </wgt>
<wgt id='2111'> +2.9841095E+03 </wgt>
<wgt id='2112'> +2.9325409E+03 </wgt>
<wgt id='2113'> +3.4382603E+03 </wgt>
<wgt id='2114'> +4.1023907E+03 </wgt>
<wgt id='2115'> +3.5388623E+03 </wgt>
<wgt id='2116'> +4.3807788E+03 </wgt>
</rwgt>
</event>
<event>
 6      1 +2.9771057E+03 8.21078800e+01 7.54677100e-03 1.19903700e-01
       -3 -1    0    0    0  501 -0.0000000000e+00 +0.0000000000e+00 +1.1277929667e+01 1.1277929667e+01 0.0000000000e+00 0.0000e+00 1.0000e+00
        4 -1    0    0  502    0 +0.0000000000e+00 -0.0000000000e+00 -2.6782980689e+02 2.6782980689e+02 0.0000000000e+00 0.0000e+00 -1.0000e+00
       24  2    1    2    0    0 +1.5223142439e+01 -5.9952466596e+00 -2.4671018106e+02 2.6001464798e+02 8.0461274380e+01 0.0000e+00 0.0000e+00
      -15  1    3    3    0    0 +4.6846919003e+01 -8.4879708358e+00 -1.7916669913e+02 1.8539294289e+02 1.7770000000e+00 0.0000e+00 1.0000e+00
       16  1    3    3    0    0 -3.1623776563e+01 +2.4927241762e+00 -6.7543481932e+01 7.4621705083e+01 0.0000000000e+00 0.0000e+00 -1.0000e+00
       21  1    1    2  502  501 -1.5223142439e+01 +5.9952466596e+00 -9.8416961651e+00 1.9093088583e+01 0.0000000000e+00 0.0000e+00 1.0000e+00
<scales pt_clust_4="13000.00000" pt_clust_5="13000.00000" pt_clust_6="16.36114"></scales>
<mgrwt>
<rscale>  0 0.82107879E+02</rscale>
<asrwt>  1 0.16361144E+02</asrwt>
<pdfrwt beam="1">  1        4 0.41204586E-01 0.82107879E+02</pdfrwt>
<pdfrwt beam="2">  1       -3 0.17350661E-02 0.82107879E+02</pdfrwt>
<totfact> 0.24742452E+03</totfact>
</mgrwt>
<clustering>
<clus scale="   16.361">  1  6  2 -1</clus>
<clus scale="   80.461">  4  5 -1 -1</clus>
<clus scale="   82.108">  2  4  1 -1</clus>
</clustering>
<rwgt>
<wgt id='1001'> +2.9771057E+03 </wgt>
<wgt id='1002'> +3.0822640E+03 </wgt>
<wgt id='1003'> +3.0824839E+03 </wgt>
<wgt id='1004'> +2.5903915E+03 </wgt>
<wgt id='1005'> +3.1756255E+03 </wgt>
<wgt id='1006'> +2.9771057E+03 </wgt>
<wgt id='1007'> +3.0822640E+03 </wgt>
<wgt id='1008'> +3.0824839E+03 </wgt>
<wgt id='1009'> +2.5903915E+03 </wgt>
<wgt id='1010'> +3.1756255E+03 </wgt>
<wgt id='1011'> +2.9771057E+03 </wgt>
<wgt id='1012'> +3.0822640E+03 </wgt>
<wgt id='1013'> +3.0824839E+03 </wgt>
<wgt id='1014'> +2.5903915E+03 </wgt>
<wgt id='1015'> +3.1756255E+03 </wgt>
<wgt id='1016'> +3.4366876E+03 </wgt>
<wgt id='1017'> +3.5327294E+03 </wgt>
<wgt id='1018'> +3.5329304E+03 </wgt>
<wgt id='1019'> +3.0824839E+03 </wgt>
<wgt id='1020'> +3.6180180E+03 </wgt>
<wgt id='1021'> +3.4366876E+03 </wgt>
<wgt id='1022'> +3.5327294E+03 </wgt>
<wgt id='1023'> +3.5329304E+03 </wgt>
<wgt id='1024'> +3.0824839E+03 </wgt>
<wgt id='1025'> +3.6180180E+03 </wgt>
<wgt id='1026'> +3.4366876E+03 </wgt>
<wgt id='1027'> +3.5327294E+03 </wgt>
<wgt id='1028'> +3.5329304E+03 </wgt>
<wgt id='1029'> +3.0824839E+03 </wgt>
<wgt id='1030'> +3.6180180E+03 </wgt>
<wgt id='1031'> +2.4759764E+03 </wgt>
<wgt id='1032'> +2.5901523E+03 </wgt>
<wgt id='1033'> +2.5903915E+03 </wgt>
<wgt id='1034'> +2.0589432E+03 </wgt>
<wgt id='1035'> +2.6917769E+03 </wgt>
<wgt id='1036'> +2.4759764E+03 </wgt>
<wgt id='1037'> +2.5901523E+03 </wgt>
<wgt id='1038'> +2.5903915E+03 </wgt>
<wgt id='1039'> +2.0589432E+03 </wgt>
<wgt id='1040'> +2.6917769E+03 </wgt>
<wgt id='1041'> +2.4759764E+03 </wgt>
<wgt id='1042'> +2.5901523E+03 </wgt>
<wgt id='1043'> +2.5903915E+03 </wgt>
<wgt id='1044'> +2.0589432E+03 </wgt>
<wgt id='1045'> +2.6917769E+03 </wgt>
<wgt id='1046'> +2.9771057E+03 </wgt>
<wgt id='1047'> +2.9779534E+03 </wgt>
<wgt id='1048'> +2.9609184E+03 </wgt>
<wgt id='1049'> +2.9742638E+03 </wgt>
<wgt id='1050'> +2.8951739E+03 </wgt>
<wgt id='1051'> +2.9833195E+03 </wgt>
<wgt id='1052'> +3.0177712E+03 </wgt>
<wgt id='1053'> +2.9892203E+03 </wgt>
<wgt id='1054'> +3.0150061E+03 </wgt>
<wgt id='1055'> +2.8993083E+03 </wgt>
<wgt id='1056'> +3.0421788E+03 </wgt>
<wgt id='1057'> +3.0191900E+03 </wgt>
<wgt id='1058'> +2.9390840E+03 </wgt>
<wgt id='1059'> +2.9895263E+03 </wgt>
<wgt id='1060'> +2.9049633E+03 </wgt>
<wgt id='1061'> +2.9453810E+03 </wgt>
<wgt id='1062'> +2.9147210E+03 </wgt>
<wgt id='1063'> +3.0101689E+03 </wgt>
<wgt id='1064'> +3.0062515E+03 </wgt>
<wgt id='1065'> +2.9907529E+03 </wgt>
<wgt id='1066'> +3.0055104E+03 </wgt>
<wgt id='1067'> +2.9427291E+03 </wgt>
<wgt id='1068'> +2.9744520E+03 </wgt>
<wgt id='1069'> +3.0289028E+03 </wgt>
<wgt id='1070'> +2.9715911E+03 </wgt>
<wgt id='1071'> +2.9832598E+03 </wgt>
<wgt id='1072'> +3.0229865E+03 </wgt>
<wgt id='1073'> +2.9661800E+03 </wgt>
<wgt id='1074'> +2.9675693E+03 </wgt>
<wgt id='1075'> +3.0007184E+03 </wgt>
<wgt id='1076'> +2.9590325E+03 </wgt>
<wgt id='1077'> +2.9685091E+03 </wgt>
<wgt id='1078'> +2.9694850E+03 </wgt>
<wgt id='1079'> +2.9787178E+03 </wgt>
<wgt id='1080'> +2.9936799E+03 </wgt>
<wgt id='1081'> +2.9435459E+03 </wgt>
<wgt id='1082'> +2.9792106E+03 </wgt>
<wgt id='1083'> +3.0035155E+03 </wgt>
<wgt id='1084'> +2.9634814E+03 </wgt>
<wgt id='1085'> +2.9928809E+03 </wgt>
<wgt id='1086'> +2.9762784E+03 </wgt>
<wgt id='1087'> +2.9788855E+03 </wgt>
<wgt id='1088'> +2.9691106E+03 </wgt>
<wgt id='1089'> +2.9779084E+03 </wgt>
<wgt id='1090'> +2.9700852E+03 </wgt>
<wgt id='1091'> +2.9791443E+03 </wgt>
<wgt id='1092'> +2.9764217E+03 </wgt>
<wgt id='1093'> +2.9944811E+03 </wgt>
<wgt id='1094'> +2.9558190E+03 </wgt>
<wgt id='1095'> +2.9902293E+03 </wgt>
<wgt id='1096'> +2.9687508E+03 </wgt>
<wgt id='1097'> +2.9643639E+03 </wgt>
<wgt id='1098'> +2.9962275E+03 </wgt>
<wgt id='1099'> +2.9691971E+03 </wgt>
<wgt id='1100'> +2.9689424E+03 </wgt>
<wgt id='1101'> +2.9776139E+03 </wgt>
<wgt id='1102'> +2.9836743E+03 </wgt>
<wgt id='1103'> +2.9646452E+03 </wgt>
<wgt id='1104'> +2.9418953E+03 </wgt>
<wgt id='1105'> +2.9821143E+03 </wgt>
<wgt id='1106'> +2.9676030E+03 </wgt>
<wgt id='1107'> +2.9797998E+03 </wgt>
<wgt id='1108'> +2.9732624E+03 </wgt>
<wgt id='1109'> +2.9901116E+03 </wgt>
<wgt id='1110'> +2.9962755E+03 </wgt>
<wgt id='1111'> +2.9559621E+03 </wgt>
<wgt id='1112'> +2.9785072E+03 </wgt>
<wgt id='1113'> +2.9877908E+03 </wgt>
<wgt id='1114'> +2.9679405E+03 </wgt>
<wgt id='1115'> +2.9655500E+03 </wgt>
<wgt id='1116'> +2.9937987E+03 </wgt>
<wgt id='1117'> +3.0130762E+03 </wgt>
<wgt id='1118'> +2.9690794E+03 </wgt>
<wgt id='1119'> +2.9546624E+03 </wgt>
<wgt id='1120'> +2.9864928E+03 </wgt>
<wgt id='1121'> +2.9717937E+03 </wgt>
<wgt id='1122'> +2.9709436E+03 </wgt>
<wgt id='1123'> +2.9975582E+03 </wgt>
<wgt id='1124'> +2.9761102E+03 </wgt>
<wgt id='1125'> +2.9726902E+03 </wgt>
<wgt id='1126'> +2.9752733E+03 </wgt>
<wgt id='1127'> +2.9676896E+03 </wgt>
<wgt id='1128'> +2.9706783E+03 </wgt>
<wgt id='1129'> +2.9723223E+03 </wgt>
<wgt id='1130'> +2.9824771E+03 </wgt>
<wgt id='1131'> +2.9756411E+03 </wgt>
<wgt id='1132'> +2.9738808E+03 </wgt>
<wgt id='1133'> +2.9889819E+03 </wgt>
<wgt id='1134'> +2.9728119E+03 </wgt>
<wgt id='1135'> +2.9884337E+03 </wgt>
<wgt id='1136'> +2.9918319E+03 </wgt>
<wgt id='1137'> +2.9796337E+03 </wgt>
<wgt id='1138'> +2.9782244E+03 </wgt>
<wgt id='1139'> +2.9737177E+03 </wgt>
<wgt id='1140'> +2.9817172E+03 </wgt>
<wgt id='1141'> +2.9817534E+03 </wgt>
<wgt id='1142'> +2.9778606E+03 </wgt>
<wgt id='1143'> +2.9582827E+03 </wgt>
<wgt id='1144'> +2.9883469E+03 </wgt>
<wgt id='1145'> +2.9764858E+03 </wgt>
<wgt id='1146'> +2.9709049E+03 </wgt>
<wgt id='1147'> +2.7444933E+03 </wgt>
<wgt id='1148'> +3.1778472E+03 </wgt>
<wgt id='1149'> +1.9055711E+03 </wgt>
<wgt id='1150'> +2.1147475E+03 </wgt>
<wgt id='1151'> +2.3152466E+03 </wgt>
<wgt id='1152'> +2.5166184E+03 </wgt>
<wgt id='1153'> +2.8393754E+03 </wgt>
<wgt id='1154'> +3.0717889E+03 </wgt>
<wgt id='1155'> +3.4564830E+03 </wgt>
<wgt id='1156'> +3.7352451E+03 </wgt>
<wgt id='1157'> +2.7649422E+03 </wgt>
<wgt id='1158'> +2.7749400E+03 </wgt>
<wgt id='1159'> +2.7516789E+03 </wgt>
<wgt id='1160'> +2.7668927E+03 </wgt>
<wgt id='1161'> +2.6759659E+03 </wgt>
<wgt id='1162'> +2.7503419E+03 </wgt>
<wgt id='1163'> +2.7766348E+03 </wgt>
<wgt id='1164'> +2.7356613E+03 </wgt>
<wgt id='1165'> +2.7827227E+03 </wgt>
<wgt id='1166'> +2.7303910E+03 </wgt>
<wgt id='1167'> +2.8542108E+03 </wgt>
<wgt id='1168'> +2.7795113E+03 </wgt>
<wgt id='1169'> +2.7445533E+03 </wgt>
<wgt id='1170'> +2.7564148E+03 </wgt>
<wgt id='1171'> +2.7065396E+03 </wgt>
<wgt id='1172'> +2.8229996E+03 </wgt>
<wgt id='1173'> +2.7085612E+03 </wgt>
<wgt id='1174'> +2.7958610E+03 </wgt>
<wgt id='1175'> +2.7598011E+03 </wgt>
<wgt id='1176'> +2.7739674E+03 </wgt>
<wgt id='1177'> +2.7908944E+03 </wgt>
<wgt id='1178'> +2.7002547E+03 </wgt>
<wgt id='1179'> +2.7605817E+03 </wgt>
<wgt id='1180'> +2.7485670E+03 </wgt>
<wgt id='1181'> +2.7275942E+03 </wgt>
<wgt id='1182'> +2.7826941E+03 </wgt>
<wgt id='1183'> +2.7747725E+03 </wgt>
<wgt id='1184'> +2.7780263E+03 </wgt>
<wgt id='1185'> +2.7499823E+03 </wgt>
<wgt id='1186'> +2.7304253E+03 </wgt>
<wgt id='1187'> +2.7730752E+03 </wgt>
<wgt id='1188'> +2.7840742E+03 </wgt>
<wgt id='1189'> +2.7748936E+03 </wgt>
<wgt id='1190'> +2.7785138E+03 </wgt>
<wgt id='1191'> +2.7779044E+03 </wgt>
<wgt id='1192'> +2.7781407E+03 </wgt>
<wgt id='1193'> +2.7825578E+03 </wgt>
<wgt id='1194'> +2.7757492E+03 </wgt>
<wgt id='1195'> +2.7810032E+03 </wgt>
<wgt id='1196'> +2.7726098E+03 </wgt>
<wgt id='1197'> +2.7673330E+03 </wgt>
<wgt id='1198'> +2.7994069E+03 </wgt>
<wgt id='1199'> +2.7769117E+03 </wgt>
<wgt id='1200'> +2.7432858E+03 </wgt>
<wgt id='1201'> +2.7859188E+03 </wgt>
<wgt id='1202'> +2.7606800E+03 </wgt>
<wgt id='1203'> +2.7744206E+03 </wgt>
<wgt id='1204'> +2.7634071E+03 </wgt>
<wgt id='1205'> +2.7538881E+03 </wgt>
<wgt id='1206'> +2.7503124E+03 </wgt>
<wgt id='1207'> +2.7451250E+03 </wgt>
<wgt id='1208'> +2.7435736E+03 </wgt>
<wgt id='1209'> +2.7755199E+03 </wgt>
<wgt id='1210'> +2.7795932E+03 </wgt>
<wgt id='1211'> +2.7627530E+03 </wgt>
<wgt id='1212'> +2.7675242E+03 </wgt>
<wgt id='1213'> +2.7468765E+03 </wgt>
<wgt id='1214'> +2.7859231E+03 </wgt>
<wgt id='1215'> +2.7789403E+03 </wgt>
<wgt id='1216'> +2.7575092E+03 </wgt>
<wgt id='1217'> +2.7473087E+03 </wgt>
<wgt id='1218'> +2.7500700E+03 </wgt>
<wgt id='1219'> +2.7507931E+03 </wgt>
<wgt id='1220'> +2.7364658E+03 </wgt>
<wgt id='1221'> +2.7689689E+03 </wgt>
<wgt id='1222'> +2.7576436E+03 </wgt>
<wgt id='1223'> +2.7534142E+03 </wgt>
<wgt id='1224'> +2.7909566E+03 </wgt>
<wgt id='1225'> +2.7718835E+03 </wgt>
<wgt id='1226'> +2.7883277E+03 </wgt>
<wgt id='1227'> +2.7772840E+03 </wgt>
<wgt id='1228'> +2.7631382E+03 </wgt>
<wgt id='1229'> +2.7531837E+03 </wgt>
<wgt id='1230'> +2.7796197E+03 </wgt>
<wgt id='1231'> +2.7456167E+03 </wgt>
<wgt id='1232'> +2.7731124E+03 </wgt>
<wgt id='1233'> +2.7699056E+03 </wgt>
<wgt id='1234'> +2.7481465E+03 </wgt>
<wgt id='1235'> +2.7666823E+03 </wgt>
<wgt id='1236'> +2.7727825E+03 </wgt>
<wgt id='1237'> +2.7747132E+03 </wgt>
<wgt id='1238'> +2.7671559E+03 </wgt>
<wgt id='1239'> +2.7684759E+03 </wgt>
<wgt id='1240'> +2.7529923E+03 </wgt>
<wgt id='1241'> +2.7725418E+03 </wgt>
<wgt id='1242'> +2.7596983E+03 </wgt>
<wgt id='1243'> +2.7749935E+03 </wgt>
<wgt id='1244'> +2.7733249E+03 </wgt>
<wgt id='1245'> +2.7764686E+03 </wgt>
<wgt id='1246'> +2.7740105E+03 </wgt>
<wgt id='1247'> +2.7649818E+03 </wgt>
<wgt id='1248'> +2.7632071E+03 </wgt>
<wgt id='1249'> +2.7682102E+03 </wgt>
<wgt id='1250'> +2.7544904E+03 </wgt>
<wgt id='1251'> +2.7580242E+03 </wgt>
<wgt id='1252'> +2.7472942E+03 </wgt>
<wgt id='1253'> +2.7653748E+03 </wgt>
<wgt id='1254'> +2.7644056E+03 </wgt>
<wgt id='1255'> +2.7754111E+03 </wgt>
<wgt id='1256'> +2.7437132E+03 </wgt>
<wgt id='1257'> +2.7695670E+03 </wgt>
<wgt id='1258'> +2.5366374E+03 </wgt>
<wgt id='1259'> +2.9864413E+03 </wgt>
<wgt id='1260'> +3.2708011E+03 </wgt>
<wgt id='1261'> +3.2632363E+03 </wgt>
<wgt id='1262'> +3.2456386E+03 </wgt>
<wgt id='1263'> +3.2336668E+03 </wgt>
<wgt id='1264'> +3.3002659E+03 </wgt>
<wgt id='1265'> +3.2353335E+03 </wgt>
<wgt id='1266'> +3.2523901E+03 </wgt>
<wgt id='1267'> +3.2534143E+03 </wgt>
<wgt id='1268'> +3.2478015E+03 </wgt>
<wgt id='1269'> +3.2895258E+03 </wgt>
<wgt id='1270'> +3.2577012E+03 </wgt>
<wgt id='1271'> +3.2473454E+03 </wgt>
<wgt id='1272'> +3.2581646E+03 </wgt>
<wgt id='1273'> +3.2179080E+03 </wgt>
<wgt id='1274'> +3.2909832E+03 </wgt>
<wgt id='1275'> +3.2860161E+03 </wgt>
<wgt id='1276'> +3.2184993E+03 </wgt>
<wgt id='1277'> +3.2528458E+03 </wgt>
<wgt id='1278'> +3.2891106E+03 </wgt>
<wgt id='1279'> +3.2823499E+03 </wgt>
<wgt id='1280'> +3.2624465E+03 </wgt>
<wgt id='1281'> +3.2846847E+03 </wgt>
<wgt id='1282'> +3.2618114E+03 </wgt>
<wgt id='1283'> +3.2456624E+03 </wgt>
<wgt id='1284'> +3.2973575E+03 </wgt>
<wgt id='1285'> +3.2535839E+03 </wgt>
<wgt id='1286'> +3.2850203E+03 </wgt>
<wgt id='1287'> +3.3143769E+03 </wgt>
<wgt id='1288'> +3.1973695E+03 </wgt>
<wgt id='1289'> +3.2083476E+03 </wgt>
<wgt id='1290'> +3.3081612E+03 </wgt>
<wgt id='1291'> +3.2363800E+03 </wgt>
<wgt id='1292'> +3.3196446E+03 </wgt>
<wgt id='1293'> +3.2380903E+03 </wgt>
<wgt id='1294'> +3.2986948E+03 </wgt>
<wgt id='1295'> +3.2278867E+03 </wgt>
<wgt id='1296'> +3.3059553E+03 </wgt>
<wgt id='1297'> +3.2409932E+03 </wgt>
<wgt id='1298'> +3.3019344E+03 </wgt>
<wgt id='1299'> +3.1191139E+03 </wgt>
<wgt id='1300'> +3.4236393E+03 </wgt>
<wgt id='1301'> +3.2399903E+03 </wgt>
<wgt id='1302'> +3.2740741E+03 </wgt>
<wgt id='1303'> +3.3135272E+03 </wgt>
<wgt id='1304'> +3.1803888E+03 </wgt>
<wgt id='1305'> +3.3678876E+03 </wgt>
<wgt id='1306'> +3.2259585E+03 </wgt>
<wgt id='1307'> +3.2910623E+03 </wgt>
<wgt id='1308'> +3.2860097E+03 </wgt>
<wgt id='1309'> +3.2653148E+03 </wgt>
<wgt id='1310'> +3.2883581E+03 </wgt>
<wgt id='1311'> +3.2748044E+03 </wgt>
<wgt id='1312'> +3.2760589E+03 </wgt>
<wgt id='1313'> +3.2101561E+03 </wgt>
<wgt id='1314'> +3.2939591E+03 </wgt>
<wgt id='1315'> +3.5853929E+03 </wgt>
<wgt id='1316'> +3.0424063E+03 </wgt>
<wgt id='1317'> +3.0644654E+03 </wgt>
<wgt id='1318'> +3.4766283E+03 </wgt>
<wgt id='1319'> +3.0485296E+03 </wgt>
<wgt id='1320'> +3.0528244E+03 </wgt>
<wgt id='1321'> +3.0554494E+03 </wgt>
<wgt id='1322'> +3.0408376E+03 </wgt>
<wgt id='1323'> +3.0478783E+03 </wgt>
<wgt id='1324'> +3.0612180E+03 </wgt>
<wgt id='1325'> +3.0414778E+03 </wgt>
<wgt id='1326'> +3.1065713E+03 </wgt>
<wgt id='1327'> +3.0127844E+03 </wgt>
<wgt id='1328'> +2.9929478E+03 </wgt>
<wgt id='1329'> +3.0844510E+03 </wgt>
<wgt id='1330'> +3.0722853E+03 </wgt>
<wgt id='1331'> +3.0354484E+03 </wgt>
<wgt id='1332'> +2.9767573E+03 </wgt>
<wgt id='1333'> +3.0805348E+03 </wgt>
<wgt id='1334'> +2.8991065E+03 </wgt>
<wgt id='1335'> +3.2211061E+03 </wgt>
<wgt id='1336'> +2.9800873E+03 </wgt>
<wgt id='1337'> +3.1290742E+03 </wgt>
<wgt id='1338'> +3.0750638E+03 </wgt>
<wgt id='1339'> +3.0174802E+03 </wgt>
<wgt id='1340'> +3.0453984E+03 </wgt>
<wgt id='1341'> +3.0509473E+03 </wgt>
<wgt id='1342'> +3.0442007E+03 </wgt>
<wgt id='1343'> +3.0493373E+03 </wgt>
<wgt id='1344'> +3.0380953E+03 </wgt>
<wgt id='1345'> +3.0574927E+03 </wgt>
<wgt id='1346'> +3.0502582E+03 </wgt>
<wgt id='1347'> +3.0442006E+03 </wgt>
<wgt id='1348'> +3.0381321E+03 </wgt>
<wgt id='1349'> +3.0520334E+03 </wgt>
<wgt id='1350'> +3.0567116E+03 </wgt>
<wgt id='1351'> +3.0374238E+03 </wgt>
<wgt id='1352'> +3.0452674E+03 </wgt>
<wgt id='1353'> +3.0541566E+03 </wgt>
<wgt id='1354'> +3.0778682E+03 </wgt>
<wgt id='1355'> +3.0208399E+03 </wgt>
<wgt id='1356'> +3.0505644E+03 </wgt>
<wgt id='1357'> +3.0301684E+03 </wgt>
<wgt id='1358'> +3.0275612E+03 </wgt>
<wgt id='1359'> +3.0332953E+03 </wgt>
<wgt id='1360'> +3.0574992E+03 </wgt>
<wgt id='1361'> +3.0429424E+03 </wgt>
<wgt id='1362'> +3.0572506E+03 </wgt>
<wgt id='1363'> +3.0472440E+03 </wgt>
<wgt id='1364'> +3.0105681E+03 </wgt>
<wgt id='1365'> +3.0451072E+03 </wgt>
<wgt id='1366'> +3.0247759E+03 </wgt>
<wgt id='1367'> +3.0269162E+03 </wgt>
<wgt id='1368'> +3.0134655E+03 </wgt>
<wgt id='1369'> +3.0289449E+03 </wgt>
<wgt id='1370'> +3.0329311E+03 </wgt>
<wgt id='1371'> +3.0374543E+03 </wgt>
<wgt id='1372'> +2.9268140E+03 </wgt>
<wgt id='1373'> +3.0377942E+03 </wgt>
<wgt id='1374'> +3.3355553E+03 </wgt>
<wgt id='1375'> +2.8518237E+03 </wgt>
<wgt id='1376'> +2.8653832E+03 </wgt>
<wgt id='1377'> +3.2365525E+03 </wgt>
<wgt id='1378'> +2.1296658E+03 </wgt>
<wgt id='1379'> +3.0353434E+03 </wgt>
<wgt id='1380'> +3.0409319E+03 </wgt>
<wgt id='1381'> +3.0292695E+03 </wgt>
<wgt id='1382'> +3.0393140E+03 </wgt>
<wgt id='1383'> +3.0325875E+03 </wgt>
<wgt id='1384'> +3.0400464E+03 </wgt>
<wgt id='1385'> +3.0309028E+03 </wgt>
<wgt id='1386'> +3.0185073E+03 </wgt>
<wgt id='1387'> +3.0540814E+03 </wgt>
<wgt id='1388'> +3.0479757E+03 </wgt>
<wgt id='1389'> +3.0229677E+03 </wgt>
<wgt id='1390'> +3.0366054E+03 </wgt>
<wgt id='1391'> +3.0325657E+03 </wgt>
<wgt id='1392'> +3.0237556E+03 </wgt>
<wgt id='1393'> +3.0558908E+03 </wgt>
<wgt id='1394'> +3.0158695E+03 </wgt>
<wgt id='1395'> +3.0463273E+03 </wgt>
<wgt id='1396'> +2.9580068E+03 </wgt>
<wgt id='1397'> +3.1257195E+03 </wgt>
<wgt id='1398'> +2.9224978E+03 </wgt>
<wgt id='1399'> +3.1330885E+03 </wgt>
<wgt id='1400'> +3.0283649E+03 </wgt>
<wgt id='1401'> +3.0447674E+03 </wgt>
<wgt id='1402'> +3.0127740E+03 </wgt>
<wgt id='1403'> +3.0513958E+03 </wgt>
<wgt id='1404'> +3.0314988E+03 </wgt>
<wgt id='1405'> +3.0267742E+03 </wgt>
<wgt id='1406'> +3.0399132E+03 </wgt>
<wgt id='1407'> +3.0404188E+03 </wgt>
<wgt id='1408'> +3.0487907E+03 </wgt>
<wgt id='1409'> +3.0195300E+03 </wgt>
<wgt id='1410'> +3.0431861E+03 </wgt>
<wgt id='1411'> +3.0250315E+03 </wgt>
<wgt id='1412'> +3.0535859E+03 </wgt>
<wgt id='1413'> +3.0167528E+03 </wgt>
<wgt id='1414'> +3.0405875E+03 </wgt>
<wgt id='1415'> +3.0303188E+03 </wgt>
<wgt id='1416'> +3.0547023E+03 </wgt>
<wgt id='1417'> +3.0256971E+03 </wgt>
<wgt id='1418'> +3.0239440E+03 </wgt>
<wgt id='1419'> +3.0479073E+03 </wgt>
<wgt id='1420'> +3.2399590E+03 </wgt>
<wgt id='1421'> +2.8745016E+03 </wgt>
<wgt id='1422'> +2.9356328E+03 </wgt>
<wgt id='1423'> +3.1607925E+03 </wgt>
<wgt id='1424'> +3.0736623E+03 </wgt>
<wgt id='1425'> +2.9470759E+03 </wgt>
<wgt id='1426'> +3.0335246E+03 </wgt>
<wgt id='1427'> +3.0323663E+03 </wgt>
<wgt id='1428'> +3.0302745E+03 </wgt>
<wgt id='1429'> +3.0374591E+03 </wgt>
<wgt id='1430'> +3.3231826E+03 </wgt>
<wgt id='1431'> +3.3271996E+03 </wgt>
<wgt id='1432'> +3.3184359E+03 </wgt>
<wgt id='1433'> +3.3341956E+03 </wgt>
<wgt id='1434'> +3.3124742E+03 </wgt>
<wgt id='1435'> +3.3325203E+03 </wgt>
<wgt id='1436'> +3.3194964E+03 </wgt>
<wgt id='1437'> +3.3006706E+03 </wgt>
<wgt id='1438'> +3.3457298E+03 </wgt>
<wgt id='1439'> +3.3310442E+03 </wgt>
<wgt id='1440'> +3.3158836E+03 </wgt>
<wgt id='1441'> +3.3077558E+03 </wgt>
<wgt id='1442'> +3.3303527E+03 </wgt>
<wgt id='1443'> +3.3248564E+03 </wgt>
<wgt id='1444'> +3.3216270E+03 </wgt>
<wgt id='1445'> +3.3010781E+03 </wgt>
<wgt id='1446'> +3.3471668E+03 </wgt>
<wgt id='1447'> +3.1967822E+03 </wgt>
<wgt id='1448'> +3.3932243E+03 </wgt>
<wgt id='1449'> +3.3875819E+03 </wgt>
<wgt id='1450'> +3.2378958E+03 </wgt>
<wgt id='1451'> +3.2344382E+03 </wgt>
<wgt id='1452'> +3.3859530E+03 </wgt>
<wgt id='1453'> +3.3663975E+03 </wgt>
<wgt id='1454'> +3.2793771E+03 </wgt>
<wgt id='1455'> +3.3370742E+03 </wgt>
<wgt id='1456'> +3.2897821E+03 </wgt>
<wgt id='1457'> +3.3341635E+03 </wgt>
<wgt id='1458'> +3.3233514E+03 </wgt>
<wgt id='1459'> +3.3114068E+03 </wgt>
<wgt id='1460'> +3.3512165E+03 </wgt>
<wgt id='1461'> +3.3240851E+03 </wgt>
<wgt id='1462'> +3.3225158E+03 </wgt>
<wgt id='1463'> +3.3178957E+03 </wgt>
<wgt id='1464'> +3.3366226E+03 </wgt>
<wgt id='1465'> +3.3097132E+03 </wgt>
<wgt id='1466'> +3.3323437E+03 </wgt>
<wgt id='1467'> +3.3254026E+03 </wgt>
<wgt id='1468'> +3.3251186E+03 </wgt>
<wgt id='1469'> +3.3067642E+03 </wgt>
<wgt id='1470'> +3.3352388E+03 </wgt>
<wgt id='1471'> +3.1887835E+03 </wgt>
<wgt id='1472'> +3.5798492E+03 </wgt>
<wgt id='1473'> +3.3109065E+03 </wgt>
<wgt id='1474'> +3.3995144E+03 </wgt>
<wgt id='1475'> +3.4028703E+03 </wgt>
<wgt id='1476'> +3.2575151E+03 </wgt>
<wgt id='1477'> +3.2641909E+03 </wgt>
<wgt id='1478'> +3.3472323E+03 </wgt>
<wgt id='1479'> +3.2624776E+03 </wgt>
<wgt id='1480'> +3.3707927E+03 </wgt>
<wgt id='1481'> +3.2852747E+03 </wgt>
<wgt id='1482'> +3.5269945E+03 </wgt>
<wgt id='1483'> +3.5256491E+03 </wgt>
<wgt id='1484'> +3.5275324E+03 </wgt>
<wgt id='1485'> +3.5245300E+03 </wgt>
<wgt id='1486'> +3.5271126E+03 </wgt>
<wgt id='1487'> +3.5345404E+03 </wgt>
<wgt id='1488'> +3.5433422E+03 </wgt>
<wgt id='1489'> +3.5084775E+03 </wgt>
<wgt id='1490'> +3.5384598E+03 </wgt>
<wgt id='1491'> +3.5414728E+03 </wgt>
<wgt id='1492'> +3.5321627E+03 </wgt>
<wgt id='1493'> +3.5313526E+03 </wgt>
<wgt id='1494'> +3.5497678E+03 </wgt>
<wgt id='1495'> +3.5101986E+03 </wgt>
<wgt id='1496'> +3.5502637E+03 </wgt>
<wgt id='1497'> +3.5232231E+03 </wgt>
<wgt id='1498'> +3.5410620E+03 </wgt>
<wgt id='1499'> +3.5261045E+03 </wgt>
<wgt id='1500'> +3.5310086E+03 </wgt>
<wgt id='1501'> +3.5245610E+03 </wgt>
<wgt id='1502'> +3.5184274E+03 </wgt>
<wgt id='1503'> +3.5605340E+03 </wgt>
<wgt id='1504'> +3.5106357E+03 </wgt>
<wgt id='1505'> +3.5346747E+03 </wgt>
<wgt id='1506'> +3.5336528E+03 </wgt>
<wgt id='1507'> +3.5530563E+03 </wgt>
<wgt id='1508'> +3.5292066E+03 </wgt>
<wgt id='1509'> +3.5183759E+03 </wgt>
<wgt id='1510'> +3.5391001E+03 </wgt>
<wgt id='1511'> +3.4927267E+03 </wgt>
<wgt id='1512'> +3.0916553E+03 </wgt>
<wgt id='1513'> +3.0706027E+03 </wgt>
<wgt id='1514'> +3.1223772E+03 </wgt>
<wgt id='1515'> +2.8969301E+03 </wgt>
<wgt id='1516'> +3.1339138E+03 </wgt>
<wgt id='1517'> +3.1151588E+03 </wgt>
<wgt id='1518'> +3.1419401E+03 </wgt>
<wgt id='1519'> +3.0897161E+03 </wgt>
<wgt id='1520'> +3.1122546E+03 </wgt>
<wgt id='1521'> +3.1145510E+03 </wgt>
<wgt id='1522'> +3.0869357E+03 </wgt>
<wgt id='1523'> +3.1708550E+03 </wgt>
<wgt id='1524'> +3.0549300E+03 </wgt>
<wgt id='1525'> +3.0975172E+03 </wgt>
<wgt id='1526'> +3.0455310E+03 </wgt>
<wgt id='1527'> +3.1025248E+03 </wgt>
<wgt id='1528'> +3.0891015E+03 </wgt>
<wgt id='1529'> +3.0401988E+03 </wgt>
<wgt id='1530'> +3.0921490E+03 </wgt>
<wgt id='1531'> +3.0620860E+03 </wgt>
<wgt id='1532'> +3.0675886E+03 </wgt>
<wgt id='1533'> +3.0951345E+03 </wgt>
<wgt id='1534'> +3.1114074E+03 </wgt>
<wgt id='1535'> +3.0817674E+03 </wgt>
<wgt id='1536'> +3.0981158E+03 </wgt>
<wgt id='1537'> +3.1118544E+03 </wgt>
<wgt id='1538'> +3.0928823E+03 </wgt>
<wgt id='1539'> +3.0905377E+03 </wgt>
<wgt id='1540'> +3.0918080E+03 </wgt>
<wgt id='1541'> +3.0897201E+03 </wgt>
<wgt id='1542'> +3.0962604E+03 </wgt>
<wgt id='1543'> +3.0926329E+03 </wgt>
<wgt id='1544'> +3.0903026E+03 </wgt>
<wgt id='1545'> +3.0907151E+03 </wgt>
<wgt id='1546'> +3.0981342E+03 </wgt>
<wgt id='1547'> +3.0923541E+03 </wgt>
<wgt id='1548'> +3.0926950E+03 </wgt>
<wgt id='1549'> +3.0930320E+03 </wgt>
<wgt id='1550'> +3.0899565E+03 </wgt>
<wgt id='1551'> +3.0927486E+03 </wgt>
<wgt id='1552'> +3.0927016E+03 </wgt>
<wgt id='1553'> +3.0923985E+03 </wgt>
<wgt id='1554'> +3.0910887E+03 </wgt>
<wgt id='1555'> +3.0889271E+03 </wgt>
<wgt id='1556'> +3.0934617E+03 </wgt>
<wgt id='1557'> +3.0927314E+03 </wgt>
<wgt id='1558'> +3.0922826E+03 </wgt>
<wgt id='1559'> +3.0946309E+03 </wgt>
<wgt id='1560'> +3.0889494E+03 </wgt>
<wgt id='1561'> +3.0927332E+03 </wgt>
<wgt id='1562'> +3.0893318E+03 </wgt>
<wgt id='1563'> +3.0893089E+03 </wgt>
<wgt id='1564'> +3.0869107E+03 </wgt>
<wgt id='1565'> +3.0915123E+03 </wgt>
<wgt id='1566'> +3.0920447E+03 </wgt>
<wgt id='1567'> +3.0901461E+03 </wgt>
<wgt id='1568'> +3.0936422E+03 </wgt>
<wgt id='1569'> +3.0886267E+03 </wgt>
<wgt id='1570'> +3.0915378E+03 </wgt>
<wgt id='1571'> +3.0918687E+03 </wgt>
<wgt id='1572'> +3.0918491E+03 </wgt>
<wgt id='1573'> +3.0933077E+03 </wgt>
<wgt id='1574'> +3.0922965E+03 </wgt>
<wgt id='1575'> +3.0921249E+03 </wgt>
<wgt id='1576'> +3.0912951E+03 </wgt>
<wgt id='1577'> +3.0911265E+03 </wgt>
<wgt id='1578'> +3.0947899E+03 </wgt>
<wgt id='1579'> +3.0938338E+03 </wgt>
<wgt id='1580'> +3.0917391E+03 </wgt>
<wgt id='1581'> +3.0921214E+03 </wgt>
<wgt id='1582'> +3.0890270E+03 </wgt>
<wgt id='1583'> +3.0916103E+03 </wgt>
<wgt id='1584'> +3.0903533E+03 </wgt>
<wgt id='1585'> +3.0902661E+03 </wgt>
<wgt id='1586'> +3.0897016E+03 </wgt>
<wgt id='1587'> +3.0920791E+03 </wgt>
<wgt id='1588'> +3.0935157E+03 </wgt>
<wgt id='1589'> +3.0894160E+03 </wgt>
<wgt id='1590'> +3.0929482E+03 </wgt>
<wgt id='1591'> +3.0931873E+03 </wgt>
<wgt id='1592'> +3.0919832E+03 </wgt>
<wgt id='1593'> +3.0911354E+03 </wgt>
<wgt id='1594'> +3.0940474E+03 </wgt>
<wgt id='1595'> +3.0920359E+03 </wgt>
<wgt id='1596'> +3.0932125E+03 </wgt>
<wgt id='1597'> +3.0917621E+03 </wgt>
<wgt id='1598'> +3.0944593E+03 </wgt>
<wgt id='1599'> +3.0934939E+03 </wgt>
<wgt id='1600'> +3.0925610E+03 </wgt>
<wgt id='1601'> +3.0921605E+03 </wgt>
<wgt id='1602'> +3.0913867E+03 </wgt>
<wgt id='1603'> +3.0890685E+03 </wgt>
<wgt id='1604'> +3.0908278E+03 </wgt>
<wgt id='1605'> +3.0913415E+03 </wgt>
<wgt id='1606'> +3.0900642E+03 </wgt>
<wgt id='1607'> +3.0901644E+03 </wgt>
<wgt id='1608'> +3.0902334E+03 </wgt>
<wgt id='1609'> +3.0924809E+03 </wgt>
<wgt id='1610'> +3.0922321E+03 </wgt>
<wgt id='1611'> +3.0924034E+03 </wgt>
<wgt id='1612'> +3.0915431E+03 </wgt>
<wgt id='1613'> +2.9653572E+03 </wgt>
<wgt id='1614'> +3.2189624E+03 </wgt>
<wgt id='1615'> +3.3285621E+03 </wgt>
<wgt id='1616'> +3.3293896E+03 </wgt>
<wgt id='1617'> +3.3561047E+03 </wgt>
<wgt id='1618'> +3.2770541E+03 </wgt>
<wgt id='1619'> +3.2225301E+03 </wgt>
<wgt id='1620'> +3.2025969E+03 </wgt>
<wgt id='1621'> +3.2632459E+03 </wgt>
<wgt id='1622'> +3.3264401E+03 </wgt>
<wgt id='1623'> +3.3365566E+03 </wgt>
<wgt id='1624'> +3.2987784E+03 </wgt>
<wgt id='1625'> +3.3609623E+03 </wgt>
<wgt id='1626'> +3.2292923E+03 </wgt>
<wgt id='1627'> +3.2907386E+03 </wgt>
<wgt id='1628'> +3.2562117E+03 </wgt>
<wgt id='1629'> +3.3212690E+03 </wgt>
<wgt id='1630'> +3.3124804E+03 </wgt>
<wgt id='1631'> +3.3798230E+03 </wgt>
<wgt id='1632'> +3.3197252E+03 </wgt>
<wgt id='1633'> +3.2938553E+03 </wgt>
<wgt id='1634'> +3.3371157E+03 </wgt>
<wgt id='1635'> +3.3758221E+03 </wgt>
<wgt id='1636'> +3.3197920E+03 </wgt>
<wgt id='1637'> +3.3281016E+03 </wgt>
<wgt id='1638'> +3.3115055E+03 </wgt>
<wgt id='1639'> +3.3174756E+03 </wgt>
<wgt id='1640'> +3.3265869E+03 </wgt>
<wgt id='1641'> +3.3076629E+03 </wgt>
<wgt id='1642'> +3.3395046E+03 </wgt>
<wgt id='1643'> +3.3356732E+03 </wgt>
<wgt id='1644'> +3.3306059E+03 </wgt>
<wgt id='1645'> +3.3258110E+03 </wgt>
<wgt id='1646'> +3.3377344E+03 </wgt>
<wgt id='1647'> +3.3238259E+03 </wgt>
<wgt id='1648'> +3.3294529E+03 </wgt>
<wgt id='1649'> +3.3273733E+03 </wgt>
<wgt id='1650'> +3.3308726E+03 </wgt>
<wgt id='1651'> +3.3337911E+03 </wgt>
<wgt id='1652'> +3.3362786E+03 </wgt>
<wgt id='1653'> +3.3252666E+03 </wgt>
<wgt id='1654'> +3.3241917E+03 </wgt>
<wgt id='1655'> +3.3257941E+03 </wgt>
<wgt id='1656'> +3.3272328E+03 </wgt>
<wgt id='1657'> +3.3247204E+03 </wgt>
<wgt id='1658'> +3.3289437E+03 </wgt>
<wgt id='1659'> +3.3292924E+03 </wgt>
<wgt id='1660'> +3.3289100E+03 </wgt>
<wgt id='1661'> +3.3295072E+03 </wgt>
<wgt id='1662'> +3.3246286E+03 </wgt>
<wgt id='1663'> +3.3325885E+03 </wgt>
<wgt id='1664'> +3.3231912E+03 </wgt>
<wgt id='1665'> +3.3292595E+03 </wgt>
<wgt id='1666'> +3.3288777E+03 </wgt>
<wgt id='1667'> +3.3272229E+03 </wgt>
<wgt id='1668'> +3.3307460E+03 </wgt>
<wgt id='1669'> +3.3307298E+03 </wgt>
<wgt id='1670'> +3.3262029E+03 </wgt>
<wgt id='1671'> +3.3284692E+03 </wgt>
<wgt id='1672'> +3.3280058E+03 </wgt>
<wgt id='1673'> +3.3318156E+03 </wgt>
<wgt id='1674'> +3.3301978E+03 </wgt>
<wgt id='1675'> +3.3299787E+03 </wgt>
<wgt id='1676'> +3.3298375E+03 </wgt>
<wgt id='1677'> +3.3297274E+03 </wgt>
<wgt id='1678'> +3.3282554E+03 </wgt>
<wgt id='1679'> +3.3292863E+03 </wgt>
<wgt id='1680'> +3.3280352E+03 </wgt>
<wgt id='1681'> +3.3287400E+03 </wgt>
<wgt id='1682'> +3.3269120E+03 </wgt>
<wgt id='1683'> +3.3304815E+03 </wgt>
<wgt id='1684'> +3.3297633E+03 </wgt>
<wgt id='1685'> +3.3273960E+03 </wgt>
<wgt id='1686'> +3.3310574E+03 </wgt>
<wgt id='1687'> +3.3294849E+03 </wgt>
<wgt id='1688'> +3.3260988E+03 </wgt>
<wgt id='1689'> +3.3301700E+03 </wgt>
<wgt id='1690'> +3.3295466E+03 </wgt>
<wgt id='1691'> +3.3313189E+03 </wgt>
<wgt id='1692'> +3.3286956E+03 </wgt>
<wgt id='1693'> +3.3301036E+03 </wgt>
<wgt id='1694'> +3.3288853E+03 </wgt>
<wgt id='1695'> +3.3283478E+03 </wgt>
<wgt id='1696'> +3.3313983E+03 </wgt>
<wgt id='1697'> +3.3295920E+03 </wgt>
<wgt id='1698'> +3.3278397E+03 </wgt>
<wgt id='1699'> +3.3270696E+03 </wgt>
<wgt id='1700'> +3.3283949E+03 </wgt>
<wgt id='1701'> +3.3311190E+03 </wgt>
<wgt id='1702'> +3.3262812E+03 </wgt>
<wgt id='1703'> +3.3276834E+03 </wgt>
<wgt id='1704'> +3.3271971E+03 </wgt>
<wgt id='1705'> +3.3282454E+03 </wgt>
<wgt id='1706'> +3.3273328E+03 </wgt>
<wgt id='1707'> +3.3281346E+03 </wgt>
<wgt id='1708'> +3.3291001E+03 </wgt>
<wgt id='1709'> +3.3271042E+03 </wgt>
<wgt id='1710'> +3.3288122E+03 </wgt>
<wgt id='1711'> +3.3286833E+03 </wgt>
<wgt id='1712'> +3.3294433E+03 </wgt>
<wgt id='1713'> +3.3282172E+03 </wgt>
<wgt id='1714'> +3.3284301E+03 </wgt>
<wgt id='1715'> +3.3291201E+03 </wgt>
<wgt id='1716'> +3.1803617E+03 </wgt>
<wgt id='1717'> +3.4466213E+03 </wgt>
<wgt id='1718'> +3.0931143E+03 </wgt>
<wgt id='1719'> +3.0563136E+03 </wgt>
<wgt id='1720'> +3.1227823E+03 </wgt>
<wgt id='1721'> +3.0890120E+03 </wgt>
<wgt id='1722'> +3.0160733E+03 </wgt>
<wgt id='1723'> +3.0898411E+03 </wgt>
<wgt id='1724'> +3.0864301E+03 </wgt>
<wgt id='1725'> +3.0880106E+03 </wgt>
<wgt id='1726'> +3.1101073E+03 </wgt>
<wgt id='1727'> +3.0248653E+03 </wgt>
<wgt id='1728'> +3.1064431E+03 </wgt>
<wgt id='1729'> +3.2632810E+03 </wgt>
<wgt id='1730'> +3.0977564E+03 </wgt>
<wgt id='1731'> +3.0907373E+03 </wgt>
<wgt id='1732'> +3.1275849E+03 </wgt>
<wgt id='1733'> +3.1049731E+03 </wgt>
<wgt id='1734'> +3.0853973E+03 </wgt>
<wgt id='1735'> +3.0913941E+03 </wgt>
<wgt id='1736'> +3.0986516E+03 </wgt>
<wgt id='1737'> +3.1070457E+03 </wgt>
<wgt id='1738'> +3.0863239E+03 </wgt>
<wgt id='1739'> +3.0995083E+03 </wgt>
<wgt id='1740'> +3.0789385E+03 </wgt>
<wgt id='1741'> +3.0880553E+03 </wgt>
<wgt id='1742'> +3.0785513E+03 </wgt>
<wgt id='1743'> +3.0930540E+03 </wgt>
<wgt id='1744'> +3.0749718E+03 </wgt>
<wgt id='1745'> +3.1118061E+03 </wgt>
<wgt id='1746'> +3.1258253E+03 </wgt>
<wgt id='1747'> +3.1526416E+03 </wgt>
<wgt id='1748'> +3.0912772E+03 </wgt>
<wgt id='1749'> +2.9653572E+03 </wgt>
<wgt id='1750'> +3.2189624E+03 </wgt>
<wgt id='1751'> +3.3287596E+03 </wgt>
<wgt id='1752'> +3.3444382E+03 </wgt>
<wgt id='1753'> +3.2382742E+03 </wgt>
<wgt id='1754'> +3.3237908E+03 </wgt>
<wgt id='1755'> +3.4866078E+03 </wgt>
<wgt id='1756'> +3.2767419E+03 </wgt>
<wgt id='1757'> +3.3389715E+03 </wgt>
<wgt id='1758'> +3.3332238E+03 </wgt>
<wgt id='1759'> +3.3330134E+03 </wgt>
<wgt id='1760'> +3.3661590E+03 </wgt>
<wgt id='1761'> +3.3759170E+03 </wgt>
<wgt id='1762'> +3.2861489E+03 </wgt>
<wgt id='1763'> +3.3191117E+03 </wgt>
<wgt id='1764'> +3.3206250E+03 </wgt>
<wgt id='1765'> +3.3263403E+03 </wgt>
<wgt id='1766'> +3.3213564E+03 </wgt>
<wgt id='1767'> +3.3201209E+03 </wgt>
<wgt id='1768'> +3.3562210E+03 </wgt>
<wgt id='1769'> +3.3228177E+03 </wgt>
<wgt id='1770'> +3.3543572E+03 </wgt>
<wgt id='1771'> +3.3038312E+03 </wgt>
<wgt id='1772'> +3.3147816E+03 </wgt>
<wgt id='1773'> +3.3401826E+03 </wgt>
<wgt id='1774'> +3.3294032E+03 </wgt>
<wgt id='1775'> +3.3235702E+03 </wgt>
<wgt id='1776'> +3.3739833E+03 </wgt>
<wgt id='1777'> +3.3358093E+03 </wgt>
<wgt id='1778'> +3.3143111E+03 </wgt>
<wgt id='1779'> +3.3252860E+03 </wgt>
<wgt id='1780'> +3.3450926E+03 </wgt>
<wgt id='1781'> +3.2950091E+03 </wgt>
<wgt id='1782'> +3.1803617E+03 </wgt>
<wgt id='1783'> +3.4466213E+03 </wgt>
<wgt id='1784'> +3.0463929E+03 </wgt>
<wgt id='1785'> +3.0444376E+03 </wgt>
<wgt id='1786'> +3.0483456E+03 </wgt>
<wgt id='1787'> +3.0535803E+03 </wgt>
<wgt id='1788'> +3.0392162E+03 </wgt>
<wgt id='1789'> +3.0519002E+03 </wgt>
<wgt id='1790'> +3.0408939E+03 </wgt>
<wgt id='1791'> +3.0559859E+03 </wgt>
<wgt id='1792'> +3.0368688E+03 </wgt>
<wgt id='1793'> +3.0511119E+03 </wgt>
<wgt id='1794'> +3.0418045E+03 </wgt>
<wgt id='1795'> +3.0326383E+03 </wgt>
<wgt id='1796'> +3.0602224E+03 </wgt>
<wgt id='1797'> +3.0351335E+03 </wgt>
<wgt id='1798'> +3.0577030E+03 </wgt>
<wgt id='1799'> +3.0495365E+03 </wgt>
<wgt id='1800'> +3.0424319E+03 </wgt>
<wgt id='1801'> +3.0562556E+03 </wgt>
<wgt id='1802'> +3.0356581E+03 </wgt>
<wgt id='1803'> +3.0434565E+03 </wgt>
<wgt id='1804'> +3.0491658E+03 </wgt>
<wgt id='1805'> +3.0563430E+03 </wgt>
<wgt id='1806'> +3.0326862E+03 </wgt>
<wgt id='1807'> +3.0180771E+03 </wgt>
<wgt id='1808'> +3.0581619E+03 </wgt>
<wgt id='1809'> +3.0439389E+03 </wgt>
<wgt id='1810'> +3.0534910E+03 </wgt>
<wgt id='1811'> +3.0703398E+03 </wgt>
<wgt id='1812'> +3.0266126E+03 </wgt>
<wgt id='1813'> +3.0463929E+03 </wgt>
<wgt id='1814'> +2.8910635E+03 </wgt>
<wgt id='1815'> +3.2371515E+03 </wgt>
<wgt id='1816'> +2.8606792E+03 </wgt>
<wgt id='1817'> +3.1673755E+03 </wgt>
<wgt id='1818'> +3.0581484E+03 </wgt>
<wgt id='1819'> +3.0475709E+03 </wgt>
<wgt id='1820'> +3.0369777E+03 </wgt>
<wgt id='1821'> +3.0566150E+03 </wgt>
<wgt id='1822'> +3.0968603E+03 </wgt>
<wgt id='1823'> +3.0000520E+03 </wgt>
<wgt id='1824'> +3.0489181E+03 </wgt>
<wgt id='1825'> +2.9939719E+03 </wgt>
<wgt id='1826'> +3.0072251E+03 </wgt>
<wgt id='1827'> +3.3167635E+03 </wgt>
<wgt id='1828'> +3.3166798E+03 </wgt>
<wgt id='1829'> +3.3163167E+03 </wgt>
<wgt id='1830'> +3.3198755E+03 </wgt>
<wgt id='1831'> +3.3131254E+03 </wgt>
<wgt id='1832'> +3.3244291E+03 </wgt>
<wgt id='1833'> +3.3085869E+03 </wgt>
<wgt id='1834'> +3.3314674E+03 </wgt>
<wgt id='1835'> +3.3015681E+03 </wgt>
<wgt id='1836'> +3.3124443E+03 </wgt>
<wgt id='1837'> +3.3205997E+03 </wgt>
<wgt id='1838'> +3.3288849E+03 </wgt>
<wgt id='1839'> +3.3042180E+03 </wgt>
<wgt id='1840'> +3.3071659E+03 </wgt>
<wgt id='1841'> +3.3258576E+03 </wgt>
<wgt id='1842'> +3.3139890E+03 </wgt>
<wgt id='1843'> +3.3182815E+03 </wgt>
<wgt id='1844'> +3.3175723E+03 </wgt>
<wgt id='1845'> +3.3148093E+03 </wgt>
<wgt id='1846'> +3.3116840E+03 </wgt>
<wgt id='1847'> +3.3213016E+03 </wgt>
<wgt id='1848'> +3.3000740E+03 </wgt>
<wgt id='1849'> +3.3275839E+03 </wgt>
<wgt id='1850'> +3.3084466E+03 </wgt>
<wgt id='1851'> +3.3235656E+03 </wgt>
<wgt id='1852'> +3.2843312E+03 </wgt>
<wgt id='1853'> +3.3380359E+03 </wgt>
<wgt id='1854'> +3.3084806E+03 </wgt>
<wgt id='1855'> +3.3295814E+03 </wgt>
<wgt id='1856'> +3.3136196E+03 </wgt>
<wgt id='1857'> +3.1239251E+03 </wgt>
<wgt id='1858'> +3.5396848E+03 </wgt>
<wgt id='1859'> +3.0860860E+03 </wgt>
<wgt id='1860'> +3.4647271E+03 </wgt>
<wgt id='1861'> +3.2859944E+03 </wgt>
<wgt id='1862'> +3.2958287E+03 </wgt>
<wgt id='1863'> +3.3009192E+03 </wgt>
<wgt id='1864'> +3.3353903E+03 </wgt>
<wgt id='1865'> +3.3747249E+03 </wgt>
<wgt id='1866'> +3.2266396E+03 </wgt>
<wgt id='1867'> +3.3135951E+03 </wgt>
<wgt id='1868'> +3.2804196E+03 </wgt>
<wgt id='1869'> +3.3019292E+03 </wgt>
<wgt id='1870'> +3.0170833E+03 </wgt>
<wgt id='1871'> +3.0165572E+03 </wgt>
<wgt id='1872'> +3.0160296E+03 </wgt>
<wgt id='1873'> +3.0154992E+03 </wgt>
<wgt id='1874'> +3.0149744E+03 </wgt>
<wgt id='1875'> +3.0144476E+03 </wgt>
<wgt id='1876'> +3.0139161E+03 </wgt>
<wgt id='1877'> +3.0133884E+03 </wgt>
<wgt id='1878'> +3.0128700E+03 </wgt>
<wgt id='1879'> +3.0123374E+03 </wgt>
<wgt id='1880'> +3.0118117E+03 </wgt>
<wgt id='1881'> +3.0112804E+03 </wgt>
<wgt id='1882'> +3.0107549E+03 </wgt>
<wgt id='1883'> +3.0102294E+03 </wgt>
<wgt id='1884'> +3.0096972E+03 </wgt>
<wgt id='1885'> +3.0091728E+03 </wgt>
<wgt id='1886'> +3.0086517E+03 </wgt>
<wgt id='1887'> +3.0081199E+03 </wgt>
<wgt id='1888'> +3.0075888E+03 </wgt>
<wgt id='1889'> +3.0070690E+03 </wgt>
<wgt id='1890'> +3.0065375E+03 </wgt>
<wgt id='1891'> +3.0060065E+03 </wgt>
<wgt id='1892'> +3.0054794E+03 </wgt>
<wgt id='1893'> +3.0049567E+03 </wgt>
<wgt id='1894'> +3.0044332E+03 </wgt>
<wgt id='1895'> +3.0039010E+03 </wgt>
<wgt id='1896'> +3.0033779E+03 </wgt>
<wgt id='1897'> +3.0028512E+03 </wgt>
<wgt id='1898'> +3.0023203E+03 </wgt>
<wgt id='1899'> +3.0017881E+03 </wgt>
<wgt id='1900'> +3.0012692E+03 </wgt>
<wgt id='1901'> +3.3019911E+03 </wgt>
<wgt id='1902'> +3.3013616E+03 </wgt>
<wgt id='1903'> +3.3293796E+03 </wgt>
<wgt id='1904'> +3.2504126E+03 </wgt>
<wgt id='1905'> +3.1960464E+03 </wgt>
<wgt id='1906'> +3.1763701E+03 </wgt>
<wgt id='1907'> +3.2378825E+03 </wgt>
<wgt id='1908'> +3.3012085E+03 </wgt>
<wgt id='1909'> +3.3101051E+03 </wgt>
<wgt id='1910'> +3.2722696E+03 </wgt>
<wgt id='1911'> +3.3337250E+03 </wgt>
<wgt id='1912'> +3.2045532E+03 </wgt>
<wgt id='1913'> +3.2649392E+03 </wgt>
<wgt id='1914'> +3.2303461E+03 </wgt>
<wgt id='1915'> +3.2949791E+03 </wgt>
<wgt id='1916'> +3.2845640E+03 </wgt>
<wgt id='1917'> +3.3543094E+03 </wgt>
<wgt id='1918'> +3.2925669E+03 </wgt>
<wgt id='1919'> +3.2671909E+03 </wgt>
<wgt id='1920'> +3.3114431E+03 </wgt>
<wgt id='1921'> +3.3498979E+03 </wgt>
<wgt id='1922'> +3.2929065E+03 </wgt>
<wgt id='1923'> +3.3012074E+03 </wgt>
<wgt id='1924'> +3.2855262E+03 </wgt>
<wgt id='1925'> +3.2903991E+03 </wgt>
<wgt id='1926'> +3.2992255E+03 </wgt>
<wgt id='1927'> +3.2803071E+03 </wgt>
<wgt id='1928'> +3.3139241E+03 </wgt>
<wgt id='1929'> +3.3094713E+03 </wgt>
<wgt id='1930'> +3.3034383E+03 </wgt>
<wgt id='1931'> +3.2986901E+03 </wgt>
<wgt id='1932'> +3.3121861E+03 </wgt>
<wgt id='1933'> +3.2967917E+03 </wgt>
<wgt id='1934'> +3.3023762E+03 </wgt>
<wgt id='1935'> +3.3008528E+03 </wgt>
<wgt id='1936'> +3.3039400E+03 </wgt>
<wgt id='1937'> +3.3072837E+03 </wgt>
<wgt id='1938'> +3.3095877E+03 </wgt>
<wgt id='1939'> +3.2985520E+03 </wgt>
<wgt id='1940'> +3.2972261E+03 </wgt>
<wgt id='1941'> +3.2992641E+03 </wgt>
<wgt id='1942'> +3.3006170E+03 </wgt>
<wgt id='1943'> +3.2981700E+03 </wgt>
<wgt id='1944'> +3.3028446E+03 </wgt>
<wgt id='1945'> +3.3025571E+03 </wgt>
<wgt id='1946'> +3.3023799E+03 </wgt>
<wgt id='1947'> +3.3032363E+03 </wgt>
<wgt id='1948'> +3.2980350E+03 </wgt>
<wgt id='1949'> +3.3062110E+03 </wgt>
<wgt id='1950'> +3.2966589E+03 </wgt>
<wgt id='1951'> +3.3027319E+03 </wgt>
<wgt id='1952'> +3.3021506E+03 </wgt>
<wgt id='1953'> +3.3006655E+03 </wgt>
<wgt id='1954'> +3.3040664E+03 </wgt>
<wgt id='1955'> +3.3042630E+03 </wgt>
<wgt id='1956'> +3.2997725E+03 </wgt>
<wgt id='1957'> +3.3015408E+03 </wgt>
<wgt id='1958'> +3.3015301E+03 </wgt>
<wgt id='1959'> +3.3054525E+03 </wgt>
<wgt id='1960'> +3.3037505E+03 </wgt>
<wgt id='1961'> +3.3035547E+03 </wgt>
<wgt id='1962'> +3.3033352E+03 </wgt>
<wgt id='1963'> +3.3030961E+03 </wgt>
<wgt id='1964'> +3.3014605E+03 </wgt>
<wgt id='1965'> +3.3029303E+03 </wgt>
<wgt id='1966'> +3.3013580E+03 </wgt>
<wgt id='1967'> +3.3020636E+03 </wgt>
<wgt id='1968'> +3.3001672E+03 </wgt>
<wgt id='1969'> +3.3039309E+03 </wgt>
<wgt id='1970'> +3.3029912E+03 </wgt>
<wgt id='1971'> +3.3007988E+03 </wgt>
<wgt id='1972'> +3.3045086E+03 </wgt>
<wgt id='1973'> +3.3027414E+03 </wgt>
<wgt id='1974'> +3.2994790E+03 </wgt>
<wgt id='1975'> +3.3035968E+03 </wgt>
<wgt id='1976'> +3.3030143E+03 </wgt>
<wgt id='1977'> +3.3049062E+03 </wgt>
<wgt id='1978'> +3.3021647E+03 </wgt>
<wgt id='1979'> +3.3035637E+03 </wgt>
<wgt id='1980'> +3.3023041E+03 </wgt>
<wgt id='1981'> +3.3016530E+03 </wgt>
<wgt id='1982'> +3.3049902E+03 </wgt>
<wgt id='1983'> +3.3030814E+03 </wgt>
<wgt id='1984'> +3.3012864E+03 </wgt>
<wgt id='1985'> +3.3004545E+03 </wgt>
<wgt id='1986'> +3.3018499E+03 </wgt>
<wgt id='1987'> +3.3047620E+03 </wgt>
<wgt id='1988'> +3.2996294E+03 </wgt>
<wgt id='1989'> +3.3010155E+03 </wgt>
<wgt id='1990'> +3.3005489E+03 </wgt>
<wgt id='1991'> +3.3015865E+03 </wgt>
<wgt id='1992'> +3.3006044E+03 </wgt>
<wgt id='1993'> +3.3014343E+03 </wgt>
<wgt id='1994'> +3.3025603E+03 </wgt>
<wgt id='1995'> +3.3003558E+03 </wgt>
<wgt id='1996'> +3.3022367E+03 </wgt>
<wgt id='1997'> +3.3022093E+03 </wgt>
<wgt id='1998'> +3.3029021E+03 </wgt>
<wgt id='1999'> +3.3015657E+03 </wgt>
<wgt id='2000'> +3.3019440E+03 </wgt>
<wgt id='2001'> +3.3025942E+03 </wgt>
<wgt id='2002'> +3.3019738E+03 </wgt>
<wgt id='2003'> +3.3018896E+03 </wgt>
<wgt id='2004'> +3.3020068E+03 </wgt>
<wgt id='2005'> +3.3020101E+03 </wgt>
<wgt id='2006'> +3.3020377E+03 </wgt>
<wgt id='2007'> +3.3019977E+03 </wgt>
<wgt id='2008'> +3.3019237E+03 </wgt>
<wgt id='2009'> +3.2061562E+03 </wgt>
<wgt id='2010'> +3.0114017E+03 </wgt>
<wgt id='2011'> +2.9304416E+03 </wgt>
<wgt id='2012'> +2.9323509E+03 </wgt>
<wgt id='2013'> +3.0221953E+03 </wgt>
<wgt id='2014'> +2.9423613E+03 </wgt>
<wgt id='2015'> +3.3334348E+03 </wgt>
<wgt id='2016'> +3.2133369E+03 </wgt>
<wgt id='2017'> +3.2023645E+03 </wgt>
<wgt id='2018'> +3.2957283E+03 </wgt>
<wgt id='2019'> +3.4903201E+03 </wgt>
<wgt id='2020'> +4.1226447E+03 </wgt>
<wgt id='2021'> +3.1586881E+03 </wgt>
<wgt id='2022'> +2.8088429E+03 </wgt>
<wgt id='2023'> +3.3574669E+03 </wgt>
<wgt id='2024'> +3.3328587E+03 </wgt>
<wgt id='2025'> +3.3299628E+03 </wgt>
<wgt id='2026'> +3.3118468E+03 </wgt>
<wgt id='2027'> +3.2760665E+03 </wgt>
<wgt id='2028'> +3.1898993E+03 </wgt>
<wgt id='2029'> +3.0496529E+03 </wgt>
<wgt id='2030'> +3.0275035E+03 </wgt>
<wgt id='2031'> +3.5523056E+03 </wgt>
<wgt id='2032'> +3.3707046E+03 </wgt>
<wgt id='2033'> +3.0190406E+03 </wgt>
<wgt id='2034'> +3.0874837E+03 </wgt>
<wgt id='2035'> +3.3070291E+03 </wgt>
<wgt id='2036'> +3.1158428E+03 </wgt>
<wgt id='2037'> +3.2095897E+03 </wgt>
<wgt id='2038'> +3.0006308E+03 </wgt>
<wgt id='2039'> +3.0775433E+03 </wgt>
<wgt id='2040'> +2.7922627E+03 </wgt>
<wgt id='2041'> +3.9152850E+03 </wgt>
<wgt id='2042'> +2.9684817E+03 </wgt>
<wgt id='2043'> +3.2527231E+03 </wgt>
<wgt id='2044'> +3.0497992E+03 </wgt>
<wgt id='2045'> +3.0067879E+03 </wgt>
<wgt id='2046'> +3.1811082E+03 </wgt>
<wgt id='2047'> +3.7752673E+03 </wgt>
<wgt id='2048'> +3.1279482E+03 </wgt>
<wgt id='2049'> +3.0924014E+03 </wgt>
<wgt id='2050'> +3.1207085E+03 </wgt>
<wgt id='2051'> +3.1142525E+03 </wgt>
<wgt id='2052'> +3.2639683E+03 </wgt>
<wgt id='2053'> +3.2957928E+03 </wgt>
<wgt id='2054'> +3.1026182E+03 </wgt>
<wgt id='2055'> +3.1331948E+03 </wgt>
<wgt id='2056'> +3.2641547E+03 </wgt>
<wgt id='2057'> +3.1823667E+03 </wgt>
<wgt id='2058'> +2.9129573E+03 </wgt>
<wgt id='2059'> +2.9587129E+03 </wgt>
<wgt id='2060'> +3.1495537E+03 </wgt>
<wgt id='2061'> +3.0792064E+03 </wgt>
<wgt id='2062'> +3.5660917E+03 </wgt>
<wgt id='2063'> +3.2102775E+03 </wgt>
<wgt id='2064'> +3.1522248E+03 </wgt>
<wgt id='2065'> +3.1956208E+03 </wgt>
<wgt id='2066'> +2.7924600E+03 </wgt>
<wgt id='2067'> +3.0780036E+03 </wgt>
<wgt id='2068'> +2.9811031E+03 </wgt>
<wgt id='2069'> +3.1554643E+03 </wgt>
<wgt id='2070'> +3.0161158E+03 </wgt>
<wgt id='2071'> +3.1211836E+03 </wgt>
<wgt id='2072'> +3.1574365E+03 </wgt>
<wgt id='2073'> +3.3936685E+03 </wgt>
<wgt id='2074'> +3.1356965E+03 </wgt>
<wgt id='2075'> +3.0628077E+03 </wgt>
<wgt id='2076'> +4.0129394E+03 </wgt>
<wgt id='2077'> +3.0062200E+03 </wgt>
<wgt id='2078'> +3.2670063E+03 </wgt>
<wgt id='2079'> +3.1501960E+03 </wgt>
<wgt id='2080'> +3.3179660E+03 </wgt>
<wgt id='2081'> +3.8381272E+03 </wgt>
<wgt id='2082'> +3.7803826E+03 </wgt>
<wgt id='2083'> +3.2133149E+03 </wgt>
<wgt id='2084'> +3.0815573E+03 </wgt>
<wgt id='2085'> +4.0507200E+03 </wgt>
<wgt id='2086'> +3.5750794E+03 </wgt>
<wgt id='2087'> +3.2865653E+03 </wgt>
<wgt id='2088'> +3.4069151E+03 </wgt>
<wgt id='2089'> +3.1188468E+03 </wgt>
<wgt id='2090'> +3.2492566E+03 </wgt>
<wgt id='2091'> +2.9428459E+03 </wgt>
<wgt id='2092'> +3.3478534E+03 </wgt>
<wgt id='2093'> +3.0449133E+03 </wgt>
<wgt id='2094'> +3.1129004E+03 </wgt>
<wgt id='2095'> +3.2805576E+03 </wgt>
<wgt id='2096'> +3.2497653E+03 </wgt>
<wgt id='2097'> +3.0814314E+03 </wgt>
<wgt id='2098'> +3.5436029E+03 </wgt>
<wgt id='2099'> +3.0379049E+03 </wgt>
<wgt id='2100'> +3.0348850E+03 </wgt>
<wgt id='2101'> +3.2034817E+03 </wgt>
<wgt id='2102'> +3.1727518E+03 </wgt>
<wgt id='2103'> +3.2519554E+03 </wgt>
<wgt id='2104'> +2.9214695E+03 </wgt>
<wgt id='2105'> +3.3918528E+03 </wgt>
<wgt id='2106'> +3.0210351E+03 </wgt>
<wgt id='2107'> +2.8590922E+03 </wgt>
<wgt id='2108'> +2.9541404E+03 </wgt>
<wgt id='2109'> +2.8342109E+03 </wgt>
<wgt id='2110'> +3.0598650E+03 </wgt>
<wgt id='2111'> +3.2613369E+03 </wgt>
<wgt id='2112'> +3.3792946E+03 </wgt>
<wgt id='2113'> +9.4290210E+02 </wgt>
<wgt id='2114'> +1.8673360E+03 </wgt>
<wgt id='2115'> +2.4085501E+03 </wgt>
<wgt id='2116'> +3.1141280E+03 </wgt>
</rwgt>
</event>
<event>
 5      5 +2.9771057E+03 8.10091000e+01 7.54677100e-03 1.20152400e-01
        1 -1    0    0  501    0 +0.0000000000e+00 +0.0000000000e+00 +3.3970199716e+01 3.3970199716e+01 0.0000000000e+00 0.0000e+00 -1.0000e+00
       -2 -1    0    0    0  501 -0.0000000000e+00 -0.0000000000e+00 -4.8295813447e+01 4.8295813447e+01 0.0000000000e+00 0.0000e+00 1.0000e+00
      -24  2    1    2    0    0 +0.0000000000e+00 +0.0000000000e+00 -1.4325613731e+01 8.2266013163e+01 8.1009096483e+01 0.0000e+00 0.0000e+00
       13  1    3    3    0    0 +1.3343139926e+01 -3.2274495087e+01 +1.3672250639e+01 3.7504837738e+01 0.0000000000e+00 0.0000e+00 -1.0000e+00
      -14  1    3    3    0    0 -1.3343139926e+01 +3.2274495087e+01 -2.7997864370e+01 4.4761175426e+01 0.0000000000e+00 0.0000e+00 1.0000e+00
<scales pt_clust_4="13000.00000" pt_clust_5="13000.00000"></scales>
<mgrwt>
<rscale>  0 0.81009096E+02</rscale>
<asrwt>0</asrwt>
<pdfrwt beam="1">  1        1 0.52261846E-02 0.81009096E+02</pdfrwt>
<pdfrwt beam="2">  1       -2 0.74301251E-02 0.81009096E+02</pdfrwt>
<totfact> 0.14090908E+05</totfact>
</mgrwt>
<clustering>
<clus scale="   81.009">  4  5 -1 -1</clus>
<clus scale="   81.009">  1  4  2 -1</clus>
</clustering>
<rwgt>
<wgt id='1001'> +2.9771057E+03 </wgt>
<wgt id='1002'> +2.8990809E+03 </wgt>
<wgt id='1003'> +2.8990809E+03 </wgt>
<wgt id='1004'> +2.5165640E+03 </wgt>
<wgt id='1005'> +2.9771057E+03 </wgt>
<wgt id='1006'> +2.9771057E+03 </wgt>
<wgt id='1007'> +2.8990809E+03 </wgt>
<wgt id='1008'> +2.8990809E+03 </wgt>
<wgt id='1009'> +2.5165640E+03 </wgt>
<wgt id='1010'> +2.9771057E+03 </wgt>
<wgt id='1011'> +2.9771057E+03 </wgt>
<wgt id='1012'> +2.8990809E+03 </wgt>
<wgt id='1013'> +2.8990809E+03 </wgt>
<wgt id='1014'> +2.5165640E+03 </wgt>
<wgt id='1015'> +2.9771057E+03 </wgt>
<wgt id='1016'> +3.3233448E+03 </wgt>
<wgt id='1017'> +3.2517622E+03 </wgt>
<wgt id='1018'> +3.2517622E+03 </wgt>
<wgt id='1019'> +2.8990809E+03 </wgt>
<wgt id='1020'> +3.3233448E+03 </wgt>
<wgt id='1021'> +3.3233448E+03 </wgt>
<wgt id='1022'> +3.2517622E+03 </wgt>
<wgt id='1023'> +3.2517622E+03 </wgt>
<wgt id='1024'> +2.8990809E+03 </wgt>
<wgt id='1025'> +3.3233448E+03 </wgt>
<wgt id='1026'> +3.3233448E+03 </wgt>
<wgt id='1027'> +3.2517622E+03 </wgt>
<wgt id='1028'> +3.2517622E+03 </wgt>
<wgt id='1029'> +2.8990809E+03 </wgt>
<wgt id='1030'> +3.3233448E+03 </wgt>
<wgt id='1031'> +2.6009053E+03 </wgt>
<wgt id='1032'> +2.5165640E+03 </wgt>
<wgt id='1033'> +2.5165640E+03 </wgt>
<wgt id='1034'> +2.1046325E+03 </wgt>
<wgt id='1035'> +2.6009053E+03 </wgt>
<wgt id='1036'> +2.6009053E+03 </wgt>
<wgt id='1037'> +2.5165640E+03 </wgt>
<wgt id='1038'> +2.5165640E+03 </wgt>
<wgt id='1039'> +2.1046325E+03 </wgt>
<wgt id='1040'> +2.6009053E+03 </wgt>
<wgt id='1041'> +2.6009053E+03 </wgt>
<wgt id='1042'> +2.5165640E+03 </wgt>
<wgt id='1043'> +2.5165640E+03 </wgt>
<wgt id='1044'> +2.1046325E+03 </wgt>
<wgt id='1045'> +2.6009053E+03 </wgt>
<wgt id='1046'> +2.9771057E+03 </wgt>
<wgt id='1047'> +2.9768870E+03 </wgt>
<wgt id='1048'> +2.9786519E+03 </wgt>
<wgt id='1049'> +2.9762297E+03 </wgt>
<wgt id='1050'> +2.9974420E+03 </wgt>
<wgt id='1051'> +2.9767331E+03 </wgt>
<wgt id='1052'> +2.9633419E+03 </wgt>
<wgt id='1053'> +2.9737857E+03 </wgt>
<wgt id='1054'> +2.9631033E+03 </wgt>
<wgt id='1055'> +2.9966340E+03 </wgt>
<wgt id='1056'> +2.9561314E+03 </wgt>
<wgt id='1057'> +2.9586821E+03 </wgt>
<wgt id='1058'> +2.9941554E+03 </wgt>
<wgt id='1059'> +2.9681449E+03 </wgt>
<wgt id='1060'> +3.0007154E+03 </wgt>
<wgt id='1061'> +2.9989449E+03 </wgt>
<wgt id='1062'> +3.0046261E+03 </wgt>
<wgt id='1063'> +2.9601205E+03 </wgt>
<wgt id='1064'> +2.9650492E+03 </wgt>
<wgt id='1065'> +2.9715181E+03 </wgt>
<wgt id='1066'> +2.9753420E+03 </wgt>
<wgt id='1067'> +3.0018043E+03 </wgt>
<wgt id='1068'> +2.9848937E+03 </wgt>
<wgt id='1069'> +2.9544896E+03 </wgt>
<wgt id='1070'> +2.9903762E+03 </wgt>
<wgt id='1071'> +2.9855536E+03 </wgt>
<wgt id='1072'> +2.9567444E+03 </wgt>
<wgt id='1073'> +2.9759119E+03 </wgt>
<wgt id='1074'> +2.9782717E+03 </wgt>
<wgt id='1075'> +2.9692241E+03 </wgt>
<wgt id='1076'> +2.9747588E+03 </wgt>
<wgt id='1077'> +2.9836635E+03 </wgt>
<wgt id='1078'> +2.9809034E+03 </wgt>
<wgt id='1079'> +2.9783913E+03 </wgt>
<wgt id='1080'> +2.9741276E+03 </wgt>
<wgt id='1081'> +2.9700827E+03 </wgt>
<wgt id='1082'> +2.9808798E+03 </wgt>
<wgt id='1083'> +2.9787914E+03 </wgt>
<wgt id='1084'> +2.9773112E+03 </wgt>
<wgt id='1085'> +2.9746644E+03 </wgt>
<wgt id='1086'> +2.9748753E+03 </wgt>
<wgt id='1087'> +2.9827126E+03 </wgt>
<wgt id='1088'> +2.9760887E+03 </wgt>
<wgt id='1089'> +2.9754007E+03 </wgt>
<wgt id='1090'> +2.9822093E+03 </wgt>
<wgt id='1091'> +2.9903261E+03 </wgt>
<wgt id='1092'> +2.9848913E+03 </wgt>
<wgt id='1093'> +2.9762303E+03 </wgt>
<wgt id='1094'> +2.9780680E+03 </wgt>
<wgt id='1095'> +2.9735638E+03 </wgt>
<wgt id='1096'> +2.9749211E+03 </wgt>
<wgt id='1097'> +2.9792925E+03 </wgt>
<wgt id='1098'> +2.9694429E+03 </wgt>
<wgt id='1099'> +2.9764739E+03 </wgt>
<wgt id='1100'> +2.9741629E+03 </wgt>
<wgt id='1101'> +2.9765788E+03 </wgt>
<wgt id='1102'> +2.9799187E+03 </wgt>
<wgt id='1103'> +2.9806232E+03 </wgt>
<wgt id='1104'> +2.9786080E+03 </wgt>
<wgt id='1105'> +2.9682178E+03 </wgt>
<wgt id='1106'> +2.9783185E+03 </wgt>
<wgt id='1107'> +2.9736357E+03 </wgt>
<wgt id='1108'> +2.9778679E+03 </wgt>
<wgt id='1109'> +2.9779874E+03 </wgt>
<wgt id='1110'> +2.9830119E+03 </wgt>
<wgt id='1111'> +2.9766340E+03 </wgt>
<wgt id='1112'> +2.9746954E+03 </wgt>
<wgt id='1113'> +2.9766592E+03 </wgt>
<wgt id='1114'> +2.9815942E+03 </wgt>
<wgt id='1115'> +2.9763172E+03 </wgt>
<wgt id='1116'> +2.9783821E+03 </wgt>
<wgt id='1117'> +2.9751551E+03 </wgt>
<wgt id='1118'> +2.9746704E+03 </wgt>
<wgt id='1119'> +2.9767157E+03 </wgt>
<wgt id='1120'> +2.9779736E+03 </wgt>
<wgt id='1121'> +2.9742020E+03 </wgt>
<wgt id='1122'> +2.9776741E+03 </wgt>
<wgt id='1123'> +2.9764542E+03 </wgt>
<wgt id='1124'> +2.9767871E+03 </wgt>
<wgt id='1125'> +2.9790881E+03 </wgt>
<wgt id='1126'> +2.9776000E+03 </wgt>
<wgt id='1127'> +2.9765268E+03 </wgt>
<wgt id='1128'> +2.9777724E+03 </wgt>
<wgt id='1129'> +2.9750753E+03 </wgt>
<wgt id='1130'> +2.9788864E+03 </wgt>
<wgt id='1131'> +2.9784421E+03 </wgt>
<wgt id='1132'> +2.9783935E+03 </wgt>
<wgt id='1133'> +2.9777494E+03 </wgt>
<wgt id='1134'> +2.9777529E+03 </wgt>
<wgt id='1135'> +2.9787436E+03 </wgt>
<wgt id='1136'> +2.9772074E+03 </wgt>
<wgt id='1137'> +2.9807879E+03 </wgt>
<wgt id='1138'> +2.9779607E+03 </wgt>
<wgt id='1139'> +2.9759574E+03 </wgt>
<wgt id='1140'> +2.9754569E+03 </wgt>
<wgt id='1141'> +2.9779945E+03 </wgt>
<wgt id='1142'> +2.9765027E+03 </wgt>
<wgt id='1143'> +2.9777675E+03 </wgt>
<wgt id='1144'> +2.9787978E+03 </wgt>
<wgt id='1145'> +2.9778056E+03 </wgt>
<wgt id='1146'> +2.9762249E+03 </wgt>
<wgt id='1147'> +2.9669906E+03 </wgt>
<wgt id='1148'> +2.9942412E+03 </wgt>
<wgt id='1149'> +2.9599910E+03 </wgt>
<wgt id='1150'> +2.9510298E+03 </wgt>
<wgt id='1151'> +2.9418458E+03 </wgt>
<wgt id='1152'> +2.9578831E+03 </wgt>
<wgt id='1153'> +2.9788156E+03 </wgt>
<wgt id='1154'> +2.9855814E+03 </wgt>
<wgt id='1155'> +2.9987379E+03 </wgt>
<wgt id='1156'> +3.0120158E+03 </wgt>
<wgt id='1157'> +2.9236070E+03 </wgt>
<wgt id='1158'> +2.9191751E+03 </wgt>
<wgt id='1159'> +2.9316859E+03 </wgt>
<wgt id='1160'> +2.9206936E+03 </wgt>
<wgt id='1161'> +2.9455286E+03 </wgt>
<wgt id='1162'> +2.9272207E+03 </wgt>
<wgt id='1163'> +2.9087760E+03 </wgt>
<wgt id='1164'> +2.9326771E+03 </wgt>
<wgt id='1165'> +2.9218100E+03 </wgt>
<wgt id='1166'> +2.9357687E+03 </wgt>
<wgt id='1167'> +2.8896758E+03 </wgt>
<wgt id='1168'> +2.9170481E+03 </wgt>
<wgt id='1169'> +2.9358767E+03 </wgt>
<wgt id='1170'> +2.9330871E+03 </wgt>
<wgt id='1171'> +2.9392667E+03 </wgt>
<wgt id='1172'> +2.8976491E+03 </wgt>
<wgt id='1173'> +2.9503780E+03 </wgt>
<wgt id='1174'> +2.9135710E+03 </wgt>
<wgt id='1175'> +2.9379920E+03 </wgt>
<wgt id='1176'> +2.9211374E+03 </wgt>
<wgt id='1177'> +2.9030124E+03 </wgt>
<wgt id='1178'> +2.9515121E+03 </wgt>
<wgt id='1179'> +2.9256364E+03 </wgt>
<wgt id='1180'> +2.9163471E+03 </wgt>
<wgt id='1181'> +2.9413487E+03 </wgt>
<wgt id='1182'> +2.9057492E+03 </wgt>
<wgt id='1183'> +2.9229294E+03 </wgt>
<wgt id='1184'> +2.9272096E+03 </wgt>
<wgt id='1185'> +2.9222998E+03 </wgt>
<wgt id='1186'> +2.9428464E+03 </wgt>
<wgt id='1187'> +2.9141205E+03 </wgt>
<wgt id='1188'> +2.9257168E+03 </wgt>
<wgt id='1189'> +2.9161765E+03 </wgt>
<wgt id='1190'> +2.9314376E+03 </wgt>
<wgt id='1191'> +2.9324428E+03 </wgt>
<wgt id='1192'> +2.9242111E+03 </wgt>
<wgt id='1193'> +2.9227780E+03 </wgt>
<wgt id='1194'> +2.9174913E+03 </wgt>
<wgt id='1195'> +2.9262578E+03 </wgt>
<wgt id='1196'> +2.9180493E+03 </wgt>
<wgt id='1197'> +2.9229510E+03 </wgt>
<wgt id='1198'> +2.9163981E+03 </wgt>
<wgt id='1199'> +2.9227153E+03 </wgt>
<wgt id='1200'> +2.9212857E+03 </wgt>
<wgt id='1201'> +2.9242349E+03 </wgt>
<wgt id='1202'> +2.9308788E+03 </wgt>
<wgt id='1203'> +2.9274680E+03 </wgt>
<wgt id='1204'> +2.9148586E+03 </wgt>
<wgt id='1205'> +2.9166322E+03 </wgt>
<wgt id='1206'> +2.9265791E+03 </wgt>
<wgt id='1207'> +2.9250195E+03 </wgt>
<wgt id='1208'> +2.9238879E+03 </wgt>
<wgt id='1209'> +2.9186340E+03 </wgt>
<wgt id='1210'> +2.9196189E+03 </wgt>
<wgt id='1211'> +2.9146571E+03 </wgt>
<wgt id='1212'> +2.9226367E+03 </wgt>
<wgt id='1213'> +2.9258948E+03 </wgt>
<wgt id='1214'> +2.9247109E+03 </wgt>
<wgt id='1215'> +2.9192966E+03 </wgt>
<wgt id='1216'> +2.9192304E+03 </wgt>
<wgt id='1217'> +2.9275098E+03 </wgt>
<wgt id='1218'> +2.9282637E+03 </wgt>
<wgt id='1219'> +2.9255246E+03 </wgt>
<wgt id='1220'> +2.9223360E+03 </wgt>
<wgt id='1221'> +2.9258203E+03 </wgt>
<wgt id='1222'> +2.9270476E+03 </wgt>
<wgt id='1223'> +2.9223552E+03 </wgt>
<wgt id='1224'> +2.9225618E+03 </wgt>
<wgt id='1225'> +2.9238211E+03 </wgt>
<wgt id='1226'> +2.9208495E+03 </wgt>
<wgt id='1227'> +2.9272356E+03 </wgt>
<wgt id='1228'> +2.9241318E+03 </wgt>
<wgt id='1229'> +2.9175978E+03 </wgt>
<wgt id='1230'> +2.9272962E+03 </wgt>
<wgt id='1231'> +2.9241087E+03 </wgt>
<wgt id='1232'> +2.9275821E+03 </wgt>
<wgt id='1233'> +2.9245174E+03 </wgt>
<wgt id='1234'> +2.9251341E+03 </wgt>
<wgt id='1235'> +2.9236598E+03 </wgt>
<wgt id='1236'> +2.9244397E+03 </wgt>
<wgt id='1237'> +2.9235937E+03 </wgt>
<wgt id='1238'> +2.9252823E+03 </wgt>
<wgt id='1239'> +2.9221581E+03 </wgt>
<wgt id='1240'> +2.9236245E+03 </wgt>
<wgt id='1241'> +2.9243410E+03 </wgt>
<wgt id='1242'> +2.9256449E+03 </wgt>
<wgt id='1243'> +2.9234082E+03 </wgt>
<wgt id='1244'> +2.9252613E+03 </wgt>
<wgt id='1245'> +2.9228043E+03 </wgt>
<wgt id='1246'> +2.9243894E+03 </wgt>
<wgt id='1247'> +2.9216231E+03 </wgt>
<wgt id='1248'> +2.9258514E+03 </wgt>
<wgt id='1249'> +2.9242718E+03 </wgt>
<wgt id='1250'> +2.9239153E+03 </wgt>
<wgt id='1251'> +2.9223448E+03 </wgt>
<wgt id='1252'> +2.9237093E+03 </wgt>
<wgt id='1253'> +2.9244864E+03 </wgt>
<wgt id='1254'> +2.9248529E+03 </wgt>
<wgt id='1255'> +2.9222668E+03 </wgt>
<wgt id='1256'> +2.9231051E+03 </wgt>
<wgt id='1257'> +2.9247003E+03 </wgt>
<wgt id='1258'> +2.9159936E+03 </wgt>
<wgt id='1259'> +2.9377305E+03 </wgt>
<wgt id='1260'> +2.8463570E+03 </wgt>
<wgt id='1261'> +2.7980954E+03 </wgt>
<wgt id='1262'> +2.7940989E+03 </wgt>
<wgt id='1263'> +2.8508691E+03 </wgt>
<wgt id='1264'> +2.8549217E+03 </wgt>
<wgt id='1265'> +2.8569282E+03 </wgt>
<wgt id='1266'> +2.8617278E+03 </wgt>
<wgt id='1267'> +2.8311080E+03 </wgt>
<wgt id='1268'> +2.7912799E+03 </wgt>
<wgt id='1269'> +2.8943572E+03 </wgt>
<wgt id='1270'> +2.8190550E+03 </wgt>
<wgt id='1271'> +2.8487551E+03 </wgt>
<wgt id='1272'> +2.8055646E+03 </wgt>
<wgt id='1273'> +2.7876510E+03 </wgt>
<wgt id='1274'> +2.8331261E+03 </wgt>
<wgt id='1275'> +2.8590386E+03 </wgt>
<wgt id='1276'> +2.7864123E+03 </wgt>
<wgt id='1277'> +2.8491188E+03 </wgt>
<wgt id='1278'> +2.8410591E+03 </wgt>
<wgt id='1279'> +2.8581681E+03 </wgt>
<wgt id='1280'> +2.8338870E+03 </wgt>
<wgt id='1281'> +2.8501939E+03 </wgt>
<wgt id='1282'> +2.8435554E+03 </wgt>
<wgt id='1283'> +2.8277404E+03 </wgt>
<wgt id='1284'> +2.8658842E+03 </wgt>
<wgt id='1285'> +2.8266998E+03 </wgt>
<wgt id='1286'> +2.8623461E+03 </wgt>
<wgt id='1287'> +2.8278450E+03 </wgt>
<wgt id='1288'> +2.8748752E+03 </wgt>
<wgt id='1289'> +2.8322679E+03 </wgt>
<wgt id='1290'> +2.8534848E+03 </wgt>
<wgt id='1291'> +2.8673557E+03 </wgt>
<wgt id='1292'> +2.8119829E+03 </wgt>
<wgt id='1293'> +2.9353646E+03 </wgt>
<wgt id='1294'> +2.7612006E+03 </wgt>
<wgt id='1295'> +2.8919089E+03 </wgt>
<wgt id='1296'> +2.8134623E+03 </wgt>
<wgt id='1297'> +2.9007515E+03 </wgt>
<wgt id='1298'> +2.7856933E+03 </wgt>
<wgt id='1299'> +2.9325795E+03 </wgt>
<wgt id='1300'> +2.7511637E+03 </wgt>
<wgt id='1301'> +2.8814233E+03 </wgt>
<wgt id='1302'> +2.8450619E+03 </wgt>
<wgt id='1303'> +2.8580787E+03 </wgt>
<wgt id='1304'> +2.7922015E+03 </wgt>
<wgt id='1305'> +2.8430856E+03 </wgt>
<wgt id='1306'> +2.8835726E+03 </wgt>
<wgt id='1307'> +2.8286824E+03 </wgt>
<wgt id='1308'> +2.8872929E+03 </wgt>
<wgt id='1309'> +2.8399707E+03 </wgt>
<wgt id='1310'> +2.8762321E+03 </wgt>
<wgt id='1311'> +2.8451233E+03 </wgt>
<wgt id='1312'> +2.8778061E+03 </wgt>
<wgt id='1313'> +2.8675007E+03 </wgt>
<wgt id='1314'> +2.8562116E+03 </wgt>
<wgt id='1315'> +2.7695375E+03 </wgt>
<wgt id='1316'> +2.9411676E+03 </wgt>
<wgt id='1317'> +2.8085845E+03 </wgt>
<wgt id='1318'> +2.8874275E+03 </wgt>
<wgt id='1319'> +2.7355504E+03 </wgt>
<wgt id='1320'> +2.7625123E+03 </wgt>
<wgt id='1321'> +2.7217775E+03 </wgt>
<wgt id='1322'> +2.7596491E+03 </wgt>
<wgt id='1323'> +2.7558315E+03 </wgt>
<wgt id='1324'> +2.7705629E+03 </wgt>
<wgt id='1325'> +2.7212345E+03 </wgt>
<wgt id='1326'> +2.7714061E+03 </wgt>
<wgt id='1327'> +2.7829244E+03 </wgt>
<wgt id='1328'> +2.6946460E+03 </wgt>
<wgt id='1329'> +2.7668327E+03 </wgt>
<wgt id='1330'> +2.7203475E+03 </wgt>
<wgt id='1331'> +2.7555519E+03 </wgt>
<wgt id='1332'> +2.6614301E+03 </wgt>
<wgt id='1333'> +2.7534848E+03 </wgt>
<wgt id='1334'> +2.8045103E+03 </wgt>
<wgt id='1335'> +2.6448415E+03 </wgt>
<wgt id='1336'> +2.8234765E+03 </wgt>
<wgt id='1337'> +2.6388186E+03 </wgt>
<wgt id='1338'> +2.7544105E+03 </wgt>
<wgt id='1339'> +2.7111230E+03 </wgt>
<wgt id='1340'> +2.7488743E+03 </wgt>
<wgt id='1341'> +2.7048544E+03 </wgt>
<wgt id='1342'> +2.7794244E+03 </wgt>
<wgt id='1343'> +2.6853500E+03 </wgt>
<wgt id='1344'> +2.7692798E+03 </wgt>
<wgt id='1345'> +2.7117439E+03 </wgt>
<wgt id='1346'> +2.7206489E+03 </wgt>
<wgt id='1347'> +2.7510707E+03 </wgt>
<wgt id='1348'> +2.7163399E+03 </wgt>
<wgt id='1349'> +2.7418465E+03 </wgt>
<wgt id='1350'> +2.7211285E+03 </wgt>
<wgt id='1351'> +2.7537873E+03 </wgt>
<wgt id='1352'> +2.7403356E+03 </wgt>
<wgt id='1353'> +2.7239235E+03 </wgt>
<wgt id='1354'> +2.7506007E+03 </wgt>
<wgt id='1355'> +2.7247793E+03 </wgt>
<wgt id='1356'> +2.7423118E+03 </wgt>
<wgt id='1357'> +2.7049044E+03 </wgt>
<wgt id='1358'> +2.6929310E+03 </wgt>
<wgt id='1359'> +2.7442826E+03 </wgt>
<wgt id='1360'> +2.7500974E+03 </wgt>
<wgt id='1361'> +2.7231794E+03 </wgt>
<wgt id='1362'> +2.7545089E+03 </wgt>
<wgt id='1363'> +2.7055133E+03 </wgt>
<wgt id='1364'> +2.7126781E+03 </wgt>
<wgt id='1365'> +2.7158469E+03 </wgt>
<wgt id='1366'> +2.6913807E+03 </wgt>
<wgt id='1367'> +2.7472975E+03 </wgt>
<wgt id='1368'> +2.7190446E+03 </wgt>
<wgt id='1369'> +2.7351691E+03 </wgt>
<wgt id='1370'> +2.6910604E+03 </wgt>
<wgt id='1371'> +2.6933104E+03 </wgt>
<wgt id='1372'> +2.7055439E+03 </wgt>
<wgt id='1373'> +2.7083593E+03 </wgt>
<wgt id='1374'> +2.6757288E+03 </wgt>
<wgt id='1375'> +2.8041952E+03 </wgt>
<wgt id='1376'> +2.7070516E+03 </wgt>
<wgt id='1377'> +2.7611559E+03 </wgt>
<wgt id='1378'> +2.4107672E+03 </wgt>
<wgt id='1379'> +2.6586901E+03 </wgt>
<wgt id='1380'> +2.6574554E+03 </wgt>
<wgt id='1381'> +2.6600534E+03 </wgt>
<wgt id='1382'> +2.6354400E+03 </wgt>
<wgt id='1383'> +2.6744233E+03 </wgt>
<wgt id='1384'> +2.6531593E+03 </wgt>
<wgt id='1385'> +2.6639474E+03 </wgt>
<wgt id='1386'> +2.6535589E+03 </wgt>
<wgt id='1387'> +2.6642278E+03 </wgt>
<wgt id='1388'> +2.6582224E+03 </wgt>
<wgt id='1389'> +2.6590044E+03 </wgt>
<wgt id='1390'> +2.6612713E+03 </wgt>
<wgt id='1391'> +2.6530545E+03 </wgt>
<wgt id='1392'> +2.6540415E+03 </wgt>
<wgt id='1393'> +2.6670348E+03 </wgt>
<wgt id='1394'> +2.6553174E+03 </wgt>
<wgt id='1395'> +2.6605330E+03 </wgt>
<wgt id='1396'> +2.6702865E+03 </wgt>
<wgt id='1397'> +2.6455802E+03 </wgt>
<wgt id='1398'> +2.6747841E+03 </wgt>
<wgt id='1399'> +2.6448433E+03 </wgt>
<wgt id='1400'> +2.6620242E+03 </wgt>
<wgt id='1401'> +2.6546796E+03 </wgt>
<wgt id='1402'> +2.6722191E+03 </wgt>
<wgt id='1403'> +2.6503254E+03 </wgt>
<wgt id='1404'> +2.6447521E+03 </wgt>
<wgt id='1405'> +2.6657794E+03 </wgt>
<wgt id='1406'> +2.6701146E+03 </wgt>
<wgt id='1407'> +2.6581695E+03 </wgt>
<wgt id='1408'> +2.6662754E+03 </wgt>
<wgt id='1409'> +2.6494008E+03 </wgt>
<wgt id='1410'> +2.6797369E+03 </wgt>
<wgt id='1411'> +2.6346823E+03 </wgt>
<wgt id='1412'> +2.6480704E+03 </wgt>
<wgt id='1413'> +2.6683778E+03 </wgt>
<wgt id='1414'> +2.6553122E+03 </wgt>
<wgt id='1415'> +2.6731398E+03 </wgt>
<wgt id='1416'> +2.6541132E+03 </wgt>
<wgt id='1417'> +2.6662217E+03 </wgt>
<wgt id='1418'> +2.6606512E+03 </wgt>
<wgt id='1419'> +2.6561610E+03 </wgt>
<wgt id='1420'> +2.5869762E+03 </wgt>
<wgt id='1421'> +2.7074357E+03 </wgt>
<wgt id='1422'> +2.7040034E+03 </wgt>
<wgt id='1423'> +2.6121519E+03 </wgt>
<wgt id='1424'> +2.6409567E+03 </wgt>
<wgt id='1425'> +2.7010278E+03 </wgt>
<wgt id='1426'> +2.6519841E+03 </wgt>
<wgt id='1427'> +2.6399893E+03 </wgt>
<wgt id='1428'> +2.6542175E+03 </wgt>
<wgt id='1429'> +2.6584862E+03 </wgt>
<wgt id='1430'> +2.8565186E+03 </wgt>
<wgt id='1431'> +2.8527413E+03 </wgt>
<wgt id='1432'> +2.8614652E+03 </wgt>
<wgt id='1433'> +2.8678824E+03 </wgt>
<wgt id='1434'> +2.8452705E+03 </wgt>
<wgt id='1435'> +2.8233439E+03 </wgt>
<wgt id='1436'> +2.8700232E+03 </wgt>
<wgt id='1437'> +2.8435993E+03 </wgt>
<wgt id='1438'> +2.8694102E+03 </wgt>
<wgt id='1439'> +2.8541491E+03 </wgt>
<wgt id='1440'> +2.8588559E+03 </wgt>
<wgt id='1441'> +2.8497611E+03 </wgt>
<wgt id='1442'> +2.8595094E+03 </wgt>
<wgt id='1443'> +2.8561463E+03 </wgt>
<wgt id='1444'> +2.8570365E+03 </wgt>
<wgt id='1445'> +2.8486437E+03 </wgt>
<wgt id='1446'> +2.8650869E+03 </wgt>
<wgt id='1447'> +2.8801164E+03 </wgt>
<wgt id='1448'> +2.8432459E+03 </wgt>
<wgt id='1449'> +2.8486839E+03 </wgt>
<wgt id='1450'> +2.8671395E+03 </wgt>
<wgt id='1451'> +2.8673133E+03 </wgt>
<wgt id='1452'> +2.8489830E+03 </wgt>
<wgt id='1453'> +2.8547912E+03 </wgt>
<wgt id='1454'> +2.8575359E+03 </wgt>
<wgt id='1455'> +2.8531316E+03 </wgt>
<wgt id='1456'> +2.8651656E+03 </wgt>
<wgt id='1457'> +2.8690290E+03 </wgt>
<wgt id='1458'> +2.8544442E+03 </wgt>
<wgt id='1459'> +2.8464952E+03 </wgt>
<wgt id='1460'> +2.8807639E+03 </wgt>
<wgt id='1461'> +2.8684145E+03 </wgt>
<wgt id='1462'> +2.8338827E+03 </wgt>
<wgt id='1463'> +2.8530200E+03 </wgt>
<wgt id='1464'> +2.8650930E+03 </wgt>
<wgt id='1465'> +2.8792421E+03 </wgt>
<wgt id='1466'> +2.8482440E+03 </wgt>
<wgt id='1467'> +2.8565221E+03 </wgt>
<wgt id='1468'> +2.8614197E+03 </wgt>
<wgt id='1469'> +2.8611811E+03 </wgt>
<wgt id='1470'> +2.8527313E+03 </wgt>
<wgt id='1471'> +2.8952324E+03 </wgt>
<wgt id='1472'> +2.7624719E+03 </wgt>
<wgt id='1473'> +2.8630899E+03 </wgt>
<wgt id='1474'> +2.8150111E+03 </wgt>
<wgt id='1475'> +2.8113861E+03 </wgt>
<wgt id='1476'> +2.8783039E+03 </wgt>
<wgt id='1477'> +2.8891472E+03 </wgt>
<wgt id='1478'> +2.8413030E+03 </wgt>
<wgt id='1479'> +2.8625898E+03 </wgt>
<wgt id='1480'> +2.8393775E+03 </wgt>
<wgt id='1481'> +2.3371950E+03 </wgt>
<wgt id='1482'> +2.7995670E+03 </wgt>
<wgt id='1483'> +2.7991173E+03 </wgt>
<wgt id='1484'> +2.7965233E+03 </wgt>
<wgt id='1485'> +2.8022755E+03 </wgt>
<wgt id='1486'> +2.7996660E+03 </wgt>
<wgt id='1487'> +2.8044593E+03 </wgt>
<wgt id='1488'> +2.7845863E+03 </wgt>
<wgt id='1489'> +2.8054613E+03 </wgt>
<wgt id='1490'> +2.7907054E+03 </wgt>
<wgt id='1491'> +2.7933558E+03 </wgt>
<wgt id='1492'> +2.8008989E+03 </wgt>
<wgt id='1493'> +2.7968027E+03 </wgt>
<wgt id='1494'> +2.7990536E+03 </wgt>
<wgt id='1495'> +2.8045161E+03 </wgt>
<wgt id='1496'> +2.7952931E+03 </wgt>
<wgt id='1497'> +2.8046900E+03 </wgt>
<wgt id='1498'> +2.7942612E+03 </wgt>
<wgt id='1499'> +2.7987211E+03 </wgt>
<wgt id='1500'> +2.7973232E+03 </wgt>
<wgt id='1501'> +2.8046256E+03 </wgt>
<wgt id='1502'> +2.7942879E+03 </wgt>
<wgt id='1503'> +2.7906183E+03 </wgt>
<wgt id='1504'> +2.7970411E+03 </wgt>
<wgt id='1505'> +2.8007566E+03 </wgt>
<wgt id='1506'> +2.8050526E+03 </wgt>
<wgt id='1507'> +2.7983971E+03 </wgt>
<wgt id='1508'> +2.7987822E+03 </wgt>
<wgt id='1509'> +2.8003529E+03 </wgt>
<wgt id='1510'> +2.7957143E+03 </wgt>
<wgt id='1511'> +2.7852010E+03 </wgt>
<wgt id='1512'> +2.6858259E+03 </wgt>
<wgt id='1513'> +2.6797518E+03 </wgt>
<wgt id='1514'> +2.6696035E+03 </wgt>
<wgt id='1515'> +2.7349772E+03 </wgt>
<wgt id='1516'> +2.6734017E+03 </wgt>
<wgt id='1517'> +2.6849274E+03 </wgt>
<wgt id='1518'> +2.6527525E+03 </wgt>
<wgt id='1519'> +2.7041630E+03 </wgt>
<wgt id='1520'> +2.6975223E+03 </wgt>
<wgt id='1521'> +2.6779821E+03 </wgt>
<wgt id='1522'> +2.6914831E+03 </wgt>
<wgt id='1523'> +2.6419746E+03 </wgt>
<wgt id='1524'> +2.6716319E+03 </wgt>
<wgt id='1525'> +2.6898764E+03 </wgt>
<wgt id='1526'> +2.6744766E+03 </wgt>
<wgt id='1527'> +2.6776213E+03 </wgt>
<wgt id='1528'> +2.6696827E+03 </wgt>
<wgt id='1529'> +2.6942245E+03 </wgt>
<wgt id='1530'> +2.7224388E+03 </wgt>
<wgt id='1531'> +2.6711765E+03 </wgt>
<wgt id='1532'> +2.7014106E+03 </wgt>
<wgt id='1533'> +2.6854631E+03 </wgt>
<wgt id='1534'> +2.6804352E+03 </wgt>
<wgt id='1535'> +2.6915285E+03 </wgt>
<wgt id='1536'> +2.6829578E+03 </wgt>
<wgt id='1537'> +2.6950829E+03 </wgt>
<wgt id='1538'> +2.6891415E+03 </wgt>
<wgt id='1539'> +2.6808984E+03 </wgt>
<wgt id='1540'> +2.6663101E+03 </wgt>
<wgt id='1541'> +2.6887340E+03 </wgt>
<wgt id='1542'> +2.6859713E+03 </wgt>
<wgt id='1543'> +2.6849047E+03 </wgt>
<wgt id='1544'> +2.6797761E+03 </wgt>
<wgt id='1545'> +2.6780444E+03 </wgt>
<wgt id='1546'> +2.6979540E+03 </wgt>
<wgt id='1547'> +2.6940034E+03 </wgt>
<wgt id='1548'> +2.6795092E+03 </wgt>
<wgt id='1549'> +2.6888242E+03 </wgt>
<wgt id='1550'> +2.6832409E+03 </wgt>
<wgt id='1551'> +2.6915638E+03 </wgt>
<wgt id='1552'> +2.6813736E+03 </wgt>
<wgt id='1553'> +2.6874394E+03 </wgt>
<wgt id='1554'> +2.6827359E+03 </wgt>
<wgt id='1555'> +2.6836525E+03 </wgt>
<wgt id='1556'> +2.6867476E+03 </wgt>
<wgt id='1557'> +2.6921485E+03 </wgt>
<wgt id='1558'> +2.6906730E+03 </wgt>
<wgt id='1559'> +2.6860832E+03 </wgt>
<wgt id='1560'> +2.6865542E+03 </wgt>
<wgt id='1561'> +2.6881491E+03 </wgt>
<wgt id='1562'> +2.6857819E+03 </wgt>
<wgt id='1563'> +2.6851389E+03 </wgt>
<wgt id='1564'> +2.6842172E+03 </wgt>
<wgt id='1565'> +2.6845239E+03 </wgt>
<wgt id='1566'> +2.6851940E+03 </wgt>
<wgt id='1567'> +2.6876365E+03 </wgt>
<wgt id='1568'> +2.6869350E+03 </wgt>
<wgt id='1569'> +2.6833407E+03 </wgt>
<wgt id='1570'> +2.6891802E+03 </wgt>
<wgt id='1571'> +2.6858000E+03 </wgt>
<wgt id='1572'> +2.6850860E+03 </wgt>
<wgt id='1573'> +2.6875255E+03 </wgt>
<wgt id='1574'> +2.6863508E+03 </wgt>
<wgt id='1575'> +2.6854539E+03 </wgt>
<wgt id='1576'> +2.6854392E+03 </wgt>
<wgt id='1577'> +2.6852439E+03 </wgt>
<wgt id='1578'> +2.6839315E+03 </wgt>
<wgt id='1579'> +2.6820457E+03 </wgt>
<wgt id='1580'> +2.6869677E+03 </wgt>
<wgt id='1581'> +2.6861620E+03 </wgt>
<wgt id='1582'> +2.6888016E+03 </wgt>
<wgt id='1583'> +2.6843943E+03 </wgt>
<wgt id='1584'> +2.6827789E+03 </wgt>
<wgt id='1585'> +2.6842697E+03 </wgt>
<wgt id='1586'> +2.6876932E+03 </wgt>
<wgt id='1587'> +2.6838623E+03 </wgt>
<wgt id='1588'> +2.6842153E+03 </wgt>
<wgt id='1589'> +2.6863754E+03 </wgt>
<wgt id='1590'> +2.6855301E+03 </wgt>
<wgt id='1591'> +2.6862088E+03 </wgt>
<wgt id='1592'> +2.6861795E+03 </wgt>
<wgt id='1593'> +2.6857175E+03 </wgt>
<wgt id='1594'> +2.6850157E+03 </wgt>
<wgt id='1595'> +2.6843280E+03 </wgt>
<wgt id='1596'> +2.6873440E+03 </wgt>
<wgt id='1597'> +2.6847912E+03 </wgt>
<wgt id='1598'> +2.6854432E+03 </wgt>
<wgt id='1599'> +2.6844741E+03 </wgt>
<wgt id='1600'> +2.6856241E+03 </wgt>
<wgt id='1601'> +2.6844709E+03 </wgt>
<wgt id='1602'> +2.6854941E+03 </wgt>
<wgt id='1603'> +2.6846533E+03 </wgt>
<wgt id='1604'> +2.6857636E+03 </wgt>
<wgt id='1605'> +2.6847905E+03 </wgt>
<wgt id='1606'> +2.6858965E+03 </wgt>
<wgt id='1607'> +2.6848372E+03 </wgt>
<wgt id='1608'> +2.6858778E+03 </wgt>
<wgt id='1609'> +2.6861429E+03 </wgt>
<wgt id='1610'> +2.6858802E+03 </wgt>
<wgt id='1611'> +2.6854997E+03 </wgt>
<wgt id='1612'> +2.6851026E+03 </wgt>
<wgt id='1613'> +2.6631706E+03 </wgt>
<wgt id='1614'> +2.7043947E+03 </wgt>
<wgt id='1615'> +2.8427248E+03 </wgt>
<wgt id='1616'> +2.8511261E+03 </wgt>
<wgt id='1617'> +2.8348987E+03 </wgt>
<wgt id='1618'> +2.8513287E+03 </wgt>
<wgt id='1619'> +2.8686610E+03 </wgt>
<wgt id='1620'> +2.8796885E+03 </wgt>
<wgt id='1621'> +2.8563779E+03 </wgt>
<wgt id='1622'> +2.8473161E+03 </wgt>
<wgt id='1623'> +2.8403629E+03 </wgt>
<wgt id='1624'> +2.8465198E+03 </wgt>
<wgt id='1625'> +2.8344424E+03 </wgt>
<wgt id='1626'> +2.8869076E+03 </wgt>
<wgt id='1627'> +2.8412411E+03 </wgt>
<wgt id='1628'> +2.8525667E+03 </wgt>
<wgt id='1629'> +2.8216203E+03 </wgt>
<wgt id='1630'> +2.8729357E+03 </wgt>
<wgt id='1631'> +2.8341842E+03 </wgt>
<wgt id='1632'> +2.8386572E+03 </wgt>
<wgt id='1633'> +2.8583802E+03 </wgt>
<wgt id='1634'> +2.8028831E+03 </wgt>
<wgt id='1635'> +2.8429902E+03 </wgt>
<wgt id='1636'> +2.8514545E+03 </wgt>
<wgt id='1637'> +2.8182903E+03 </wgt>
<wgt id='1638'> +2.8516074E+03 </wgt>
<wgt id='1639'> +2.8363188E+03 </wgt>
<wgt id='1640'> +2.8426608E+03 </wgt>
<wgt id='1641'> +2.8424476E+03 </wgt>
<wgt id='1642'> +2.8374805E+03 </wgt>
<wgt id='1643'> +2.8535295E+03 </wgt>
<wgt id='1644'> +2.8497801E+03 </wgt>
<wgt id='1645'> +2.8378927E+03 </wgt>
<wgt id='1646'> +2.8529233E+03 </wgt>
<wgt id='1647'> +2.8376490E+03 </wgt>
<wgt id='1648'> +2.8550551E+03 </wgt>
<wgt id='1649'> +2.8429781E+03 </wgt>
<wgt id='1650'> +2.8557611E+03 </wgt>
<wgt id='1651'> +2.8572936E+03 </wgt>
<wgt id='1652'> +2.8476507E+03 </wgt>
<wgt id='1653'> +2.8378771E+03 </wgt>
<wgt id='1654'> +2.8473914E+03 </wgt>
<wgt id='1655'> +2.8334891E+03 </wgt>
<wgt id='1656'> +2.8403317E+03 </wgt>
<wgt id='1657'> +2.8441697E+03 </wgt>
<wgt id='1658'> +2.8367429E+03 </wgt>
<wgt id='1659'> +2.8427481E+03 </wgt>
<wgt id='1660'> +2.8409682E+03 </wgt>
<wgt id='1661'> +2.8372039E+03 </wgt>
<wgt id='1662'> +2.8414714E+03 </wgt>
<wgt id='1663'> +2.8422607E+03 </wgt>
<wgt id='1664'> +2.8429541E+03 </wgt>
<wgt id='1665'> +2.8389934E+03 </wgt>
<wgt id='1666'> +2.8426391E+03 </wgt>
<wgt id='1667'> +2.8456272E+03 </wgt>
<wgt id='1668'> +2.8410484E+03 </wgt>
<wgt id='1669'> +2.8435746E+03 </wgt>
<wgt id='1670'> +2.8394392E+03 </wgt>
<wgt id='1671'> +2.8436431E+03 </wgt>
<wgt id='1672'> +2.8421869E+03 </wgt>
<wgt id='1673'> +2.8397400E+03 </wgt>
<wgt id='1674'> +2.8418511E+03 </wgt>
<wgt id='1675'> +2.8388195E+03 </wgt>
<wgt id='1676'> +2.8437509E+03 </wgt>
<wgt id='1677'> +2.8461196E+03 </wgt>
<wgt id='1678'> +2.8439712E+03 </wgt>
<wgt id='1679'> +2.8415928E+03 </wgt>
<wgt id='1680'> +2.8438671E+03 </wgt>
<wgt id='1681'> +2.8449259E+03 </wgt>
<wgt id='1682'> +2.8436971E+03 </wgt>
<wgt id='1683'> +2.8396098E+03 </wgt>
<wgt id='1684'> +2.8453650E+03 </wgt>
<wgt id='1685'> +2.8447834E+03 </wgt>
<wgt id='1686'> +2.8427047E+03 </wgt>
<wgt id='1687'> +2.8446451E+03 </wgt>
<wgt id='1688'> +2.8427318E+03 </wgt>
<wgt id='1689'> +2.8443573E+03 </wgt>
<wgt id='1690'> +2.8417513E+03 </wgt>
<wgt id='1691'> +2.8422862E+03 </wgt>
<wgt id='1692'> +2.8434205E+03 </wgt>
<wgt id='1693'> +2.8433518E+03 </wgt>
<wgt id='1694'> +2.8421047E+03 </wgt>
<wgt id='1695'> +2.8425201E+03 </wgt>
<wgt id='1696'> +2.8414238E+03 </wgt>
<wgt id='1697'> +2.8432258E+03 </wgt>
<wgt id='1698'> +2.8411588E+03 </wgt>
<wgt id='1699'> +2.8405306E+03 </wgt>
<wgt id='1700'> +2.8426793E+03 </wgt>
<wgt id='1701'> +2.8412681E+03 </wgt>
<wgt id='1702'> +2.8422307E+03 </wgt>
<wgt id='1703'> +2.8434686E+03 </wgt>
<wgt id='1704'> +2.8419373E+03 </wgt>
<wgt id='1705'> +2.8444037E+03 </wgt>
<wgt id='1706'> +2.8421337E+03 </wgt>
<wgt id='1707'> +2.8421723E+03 </wgt>
<wgt id='1708'> +2.8433762E+03 </wgt>
<wgt id='1709'> +2.8428747E+03 </wgt>
<wgt id='1710'> +2.8423814E+03 </wgt>
<wgt id='1711'> +2.8431722E+03 </wgt>
<wgt id='1712'> +2.8426306E+03 </wgt>
<wgt id='1713'> +2.8424874E+03 </wgt>
<wgt id='1714'> +2.8428827E+03 </wgt>
<wgt id='1715'> +2.8428123E+03 </wgt>
<wgt id='1716'> +2.8167145E+03 </wgt>
<wgt id='1717'> +2.8680444E+03 </wgt>
<wgt id='1718'> +2.6858717E+03 </wgt>
<wgt id='1719'> +2.6860007E+03 </wgt>
<wgt id='1720'> +2.6442833E+03 </wgt>
<wgt id='1721'> +2.6860079E+03 </wgt>
<wgt id='1722'> +2.7333841E+03 </wgt>
<wgt id='1723'> +2.7071335E+03 </wgt>
<wgt id='1724'> +2.6875889E+03 </wgt>
<wgt id='1725'> +2.6894009E+03 </wgt>
<wgt id='1726'> +2.6921574E+03 </wgt>
<wgt id='1727'> +2.7067613E+03 </wgt>
<wgt id='1728'> +2.6849272E+03 </wgt>
<wgt id='1729'> +2.6559994E+03 </wgt>
<wgt id='1730'> +2.6873035E+03 </wgt>
<wgt id='1731'> +2.6850345E+03 </wgt>
<wgt id='1732'> +2.6375083E+03 </wgt>
<wgt id='1733'> +2.6917400E+03 </wgt>
<wgt id='1734'> +2.6953726E+03 </wgt>
<wgt id='1735'> +2.6679181E+03 </wgt>
<wgt id='1736'> +2.6873860E+03 </wgt>
<wgt id='1737'> +2.6874139E+03 </wgt>
<wgt id='1738'> +2.7089448E+03 </wgt>
<wgt id='1739'> +2.6819889E+03 </wgt>
<wgt id='1740'> +2.6829462E+03 </wgt>
<wgt id='1741'> +2.6885119E+03 </wgt>
<wgt id='1742'> +2.6816552E+03 </wgt>
<wgt id='1743'> +2.6854422E+03 </wgt>
<wgt id='1744'> +2.6851894E+03 </wgt>
<wgt id='1745'> +2.6876629E+03 </wgt>
<wgt id='1746'> +2.6850413E+03 </wgt>
<wgt id='1747'> +2.6761359E+03 </wgt>
<wgt id='1748'> +2.6886748E+03 </wgt>
<wgt id='1749'> +2.6631706E+03 </wgt>
<wgt id='1750'> +2.7043947E+03 </wgt>
<wgt id='1751'> +2.8427602E+03 </wgt>
<wgt id='1752'> +2.8414030E+03 </wgt>
<wgt id='1753'> +2.9037419E+03 </wgt>
<wgt id='1754'> +2.8413326E+03 </wgt>
<wgt id='1755'> +2.7921870E+03 </wgt>
<wgt id='1756'> +2.8280323E+03 </wgt>
<wgt id='1757'> +2.8432598E+03 </wgt>
<wgt id='1758'> +2.8404442E+03 </wgt>
<wgt id='1759'> +2.8395392E+03 </wgt>
<wgt id='1760'> +2.8241175E+03 </wgt>
<wgt id='1761'> +2.8409834E+03 </wgt>
<wgt id='1762'> +2.8617623E+03 </wgt>
<wgt id='1763'> +2.8451233E+03 </wgt>
<wgt id='1764'> +2.8512151E+03 </wgt>
<wgt id='1765'> +2.8384792E+03 </wgt>
<wgt id='1766'> +2.8457911E+03 </wgt>
<wgt id='1767'> +2.8404245E+03 </wgt>
<wgt id='1768'> +2.8436840E+03 </wgt>
<wgt id='1769'> +2.8439471E+03 </wgt>
<wgt id='1770'> +2.8453163E+03 </wgt>
<wgt id='1771'> +2.8246748E+03 </wgt>
<wgt id='1772'> +2.8421365E+03 </wgt>
<wgt id='1773'> +2.8592519E+03 </wgt>
<wgt id='1774'> +2.8432485E+03 </wgt>
<wgt id='1775'> +2.8409261E+03 </wgt>
<wgt id='1776'> +2.8470620E+03 </wgt>
<wgt id='1777'> +2.8421246E+03 </wgt>
<wgt id='1778'> +2.8455085E+03 </wgt>
<wgt id='1779'> +2.8478356E+03 </wgt>
<wgt id='1780'> +2.8392153E+03 </wgt>
<wgt id='1781'> +2.8745641E+03 </wgt>
<wgt id='1782'> +2.8167145E+03 </wgt>
<wgt id='1783'> +2.8680444E+03 </wgt>
<wgt id='1784'> +2.9451391E+03 </wgt>
<wgt id='1785'> +2.9523972E+03 </wgt>
<wgt id='1786'> +2.9379332E+03 </wgt>
<wgt id='1787'> +2.9434110E+03 </wgt>
<wgt id='1788'> +2.9468613E+03 </wgt>
<wgt id='1789'> +2.9506550E+03 </wgt>
<wgt id='1790'> +2.9396278E+03 </wgt>
<wgt id='1791'> +2.9370171E+03 </wgt>
<wgt id='1792'> +2.9528263E+03 </wgt>
<wgt id='1793'> +2.9672504E+03 </wgt>
<wgt id='1794'> +2.9231716E+03 </wgt>
<wgt id='1795'> +2.9535734E+03 </wgt>
<wgt id='1796'> +2.9363464E+03 </wgt>
<wgt id='1797'> +2.9412626E+03 </wgt>
<wgt id='1798'> +2.9489508E+03 </wgt>
<wgt id='1799'> +2.9376689E+03 </wgt>
<wgt id='1800'> +2.9504637E+03 </wgt>
<wgt id='1801'> +2.9370983E+03 </wgt>
<wgt id='1802'> +2.9498099E+03 </wgt>
<wgt id='1803'> +2.9424761E+03 </wgt>
<wgt id='1804'> +2.9482911E+03 </wgt>
<wgt id='1805'> +2.9538407E+03 </wgt>
<wgt id='1806'> +2.9326707E+03 </wgt>
<wgt id='1807'> +2.9452311E+03 </wgt>
<wgt id='1808'> +2.9318825E+03 </wgt>
<wgt id='1809'> +2.9483442E+03 </wgt>
<wgt id='1810'> +2.9457361E+03 </wgt>
<wgt id='1811'> +2.9338163E+03 </wgt>
<wgt id='1812'> +2.9560402E+03 </wgt>
<wgt id='1813'> +2.9451391E+03 </wgt>
<wgt id='1814'> +3.0224683E+03 </wgt>
<wgt id='1815'> +2.8518556E+03 </wgt>
<wgt id='1816'> +3.0505399E+03 </wgt>
<wgt id='1817'> +2.9099326E+03 </wgt>
<wgt id='1818'> +2.9495439E+03 </wgt>
<wgt id='1819'> +2.9376817E+03 </wgt>
<wgt id='1820'> +2.9388234E+03 </wgt>
<wgt id='1821'> +2.9509738E+03 </wgt>
<wgt id='1822'> +2.9085333E+03 </wgt>
<wgt id='1823'> +2.9806172E+03 </wgt>
<wgt id='1824'> +2.9378343E+03 </wgt>
<wgt id='1825'> +2.9863094E+03 </wgt>
<wgt id='1826'> +2.9453413E+03 </wgt>
<wgt id='1827'> +3.0170496E+03 </wgt>
<wgt id='1828'> +3.0259577E+03 </wgt>
<wgt id='1829'> +3.0091505E+03 </wgt>
<wgt id='1830'> +3.0122222E+03 </wgt>
<wgt id='1831'> +3.0228476E+03 </wgt>
<wgt id='1832'> +3.0206210E+03 </wgt>
<wgt id='1833'> +3.0144436E+03 </wgt>
<wgt id='1834'> +3.0040076E+03 </wgt>
<wgt id='1835'> +3.0303545E+03 </wgt>
<wgt id='1836'> +3.0334318E+03 </wgt>
<wgt id='1837'> +3.0014853E+03 </wgt>
<wgt id='1838'> +3.0270341E+03 </wgt>
<wgt id='1839'> +3.0082160E+03 </wgt>
<wgt id='1840'> +3.0087097E+03 </wgt>
<wgt id='1841'> +3.0264169E+03 </wgt>
<wgt id='1842'> +3.0136990E+03 </wgt>
<wgt id='1843'> +3.0214857E+03 </wgt>
<wgt id='1844'> +3.0217633E+03 </wgt>
<wgt id='1845'> +3.0125801E+03 </wgt>
<wgt id='1846'> +3.0221835E+03 </wgt>
<wgt id='1847'> +3.0130176E+03 </wgt>
<wgt id='1848'> +2.9972781E+03 </wgt>
<wgt id='1849'> +3.0333393E+03 </wgt>
<wgt id='1850'> +3.0239044E+03 </wgt>
<wgt id='1851'> +3.0106645E+03 </wgt>
<wgt id='1852'> +3.0256666E+03 </wgt>
<wgt id='1853'> +3.0026307E+03 </wgt>
<wgt id='1854'> +3.0282264E+03 </wgt>
<wgt id='1855'> +3.0088733E+03 </wgt>
<wgt id='1856'> +3.0170496E+03 </wgt>
<wgt id='1857'> +3.1102099E+03 </wgt>
<wgt id='1858'> +2.9088468E+03 </wgt>
<wgt id='1859'> +3.1401449E+03 </wgt>
<wgt id='1860'> +2.9702592E+03 </wgt>
<wgt id='1861'> +3.0332356E+03 </wgt>
<wgt id='1862'> +3.0001672E+03 </wgt>
<wgt id='1863'> +3.0101542E+03 </wgt>
<wgt id='1864'> +3.0247966E+03 </wgt>
<wgt id='1865'> +2.9760288E+03 </wgt>
<wgt id='1866'> +3.0647082E+03 </wgt>
<wgt id='1867'> +3.0046424E+03 </wgt>
<wgt id='1868'> +3.0562289E+03 </wgt>
<wgt id='1869'> +3.0097672E+03 </wgt>
<wgt id='1870'> +2.7053261E+03 </wgt>
<wgt id='1871'> +2.7041384E+03 </wgt>
<wgt id='1872'> +2.7029514E+03 </wgt>
<wgt id='1873'> +2.7017622E+03 </wgt>
<wgt id='1874'> +2.7005753E+03 </wgt>
<wgt id='1875'> +2.6993910E+03 </wgt>
<wgt id='1876'> +2.6982054E+03 </wgt>
<wgt id='1877'> +2.6970190E+03 </wgt>
<wgt id='1878'> +2.6958311E+03 </wgt>
<wgt id='1879'> +2.6946450E+03 </wgt>
<wgt id='1880'> +2.6934633E+03 </wgt>
<wgt id='1881'> +2.6922748E+03 </wgt>
<wgt id='1882'> +2.6910913E+03 </wgt>
<wgt id='1883'> +2.6899082E+03 </wgt>
<wgt id='1884'> +2.6887257E+03 </wgt>
<wgt id='1885'> +2.6875404E+03 </wgt>
<wgt id='1886'> +2.6863699E+03 </wgt>
<wgt id='1887'> +2.6851862E+03 </wgt>
<wgt id='1888'> +2.6840058E+03 </wgt>
<wgt id='1889'> +2.6828206E+03 </wgt>
<wgt id='1890'> +2.6816405E+03 </wgt>
<wgt id='1891'> +2.6804576E+03 </wgt>
<wgt id='1892'> +2.6792727E+03 </wgt>
<wgt id='1893'> +2.6780937E+03 </wgt>
<wgt id='1894'> +2.6769110E+03 </wgt>
<wgt id='1895'> +2.6757308E+03 </wgt>
<wgt id='1896'> +2.6745473E+03 </wgt>
<wgt id='1897'> +2.6733691E+03 </wgt>
<wgt id='1898'> +2.6721896E+03 </wgt>
<wgt id='1899'> +2.6710052E+03 </wgt>
<wgt id='1900'> +2.6698268E+03 </wgt>
<wgt id='1901'> +2.8279281E+03 </wgt>
<wgt id='1902'> +2.8354605E+03 </wgt>
<wgt id='1903'> +2.8199576E+03 </wgt>
<wgt id='1904'> +2.8364969E+03 </wgt>
<wgt id='1905'> +2.8535401E+03 </wgt>
<wgt id='1906'> +2.8646158E+03 </wgt>
<wgt id='1907'> +2.8421064E+03 </wgt>
<wgt id='1908'> +2.8331642E+03 </wgt>
<wgt id='1909'> +2.8256217E+03 </wgt>
<wgt id='1910'> +2.8317359E+03 </wgt>
<wgt id='1911'> +2.8194726E+03 </wgt>
<wgt id='1912'> +2.8727156E+03 </wgt>
<wgt id='1913'> +2.8268824E+03 </wgt>
<wgt id='1914'> +2.8380412E+03 </wgt>
<wgt id='1915'> +2.8069319E+03 </wgt>
<wgt id='1916'> +2.8570491E+03 </wgt>
<wgt id='1917'> +2.8202400E+03 </wgt>
<wgt id='1918'> +2.8234960E+03 </wgt>
<wgt id='1919'> +2.8433430E+03 </wgt>
<wgt id='1920'> +2.7887322E+03 </wgt>
<wgt id='1921'> +2.8287433E+03 </wgt>
<wgt id='1922'> +2.8363207E+03 </wgt>
<wgt id='1923'> +2.8033854E+03 </wgt>
<wgt id='1924'> +2.8370311E+03 </wgt>
<wgt id='1925'> +2.8212101E+03 </wgt>
<wgt id='1926'> +2.8272920E+03 </wgt>
<wgt id='1927'> +2.8270687E+03 </wgt>
<wgt id='1928'> +2.8233366E+03 </wgt>
<wgt id='1929'> +2.8389250E+03 </wgt>
<wgt id='1930'> +2.8346071E+03 </wgt>
<wgt id='1931'> +2.8227961E+03 </wgt>
<wgt id='1932'> +2.8387188E+03 </wgt>
<wgt id='1933'> +2.8225934E+03 </wgt>
<wgt id='1934'> +2.8399625E+03 </wgt>
<wgt id='1935'> +2.8281592E+03 </wgt>
<wgt id='1936'> +2.8407268E+03 </wgt>
<wgt id='1937'> +2.8425097E+03 </wgt>
<wgt id='1938'> +2.8328225E+03 </wgt>
<wgt id='1939'> +2.8230150E+03 </wgt>
<wgt id='1940'> +2.8323040E+03 </wgt>
<wgt id='1941'> +2.8187429E+03 </wgt>
<wgt id='1942'> +2.8254482E+03 </wgt>
<wgt id='1943'> +2.8293077E+03 </wgt>
<wgt id='1944'> +2.8222942E+03 </wgt>
<wgt id='1945'> +2.8278612E+03 </wgt>
<wgt id='1946'> +2.8261312E+03 </wgt>
<wgt id='1947'> +2.8226032E+03 </wgt>
<wgt id='1948'> +2.8265480E+03 </wgt>
<wgt id='1949'> +2.8275746E+03 </wgt>
<wgt id='1950'> +2.8281054E+03 </wgt>
<wgt id='1951'> +2.8242596E+03 </wgt>
<wgt id='1952'> +2.8277474E+03 </wgt>
<wgt id='1953'> +2.8308020E+03 </wgt>
<wgt id='1954'> +2.8262443E+03 </wgt>
<wgt id='1955'> +2.8288583E+03 </wgt>
<wgt id='1956'> +2.8247516E+03 </wgt>
<wgt id='1957'> +2.8286338E+03 </wgt>
<wgt id='1958'> +2.8273962E+03 </wgt>
<wgt id='1959'> +2.8251281E+03 </wgt>
<wgt id='1960'> +2.8271762E+03 </wgt>
<wgt id='1961'> +2.8241341E+03 </wgt>
<wgt id='1962'> +2.8289869E+03 </wgt>
<wgt id='1963'> +2.8312842E+03 </wgt>
<wgt id='1964'> +2.8290511E+03 </wgt>
<wgt id='1965'> +2.8268952E+03 </wgt>
<wgt id='1966'> +2.8290181E+03 </wgt>
<wgt id='1967'> +2.8300802E+03 </wgt>
<wgt id='1968'> +2.8288055E+03 </wgt>
<wgt id='1969'> +2.8248161E+03 </wgt>
<wgt id='1970'> +2.8304558E+03 </wgt>
<wgt id='1971'> +2.8299595E+03 </wgt>
<wgt id='1972'> +2.8279546E+03 </wgt>
<wgt id='1973'> +2.8297667E+03 </wgt>
<wgt id='1974'> +2.8278813E+03 </wgt>
<wgt id='1975'> +2.8295672E+03 </wgt>
<wgt id='1976'> +2.8269762E+03 </wgt>
<wgt id='1977'> +2.8276279E+03 </wgt>
<wgt id='1978'> +2.8286282E+03 </wgt>
<wgt id='1979'> +2.8286347E+03 </wgt>
<wgt id='1980'> +2.8273312E+03 </wgt>
<wgt id='1981'> +2.8276016E+03 </wgt>
<wgt id='1982'> +2.8267488E+03 </wgt>
<wgt id='1983'> +2.8284644E+03 </wgt>
<wgt id='1984'> +2.8263734E+03 </wgt>
<wgt id='1985'> +2.8256944E+03 </wgt>
<wgt id='1986'> +2.8278905E+03 </wgt>
<wgt id='1987'> +2.8266126E+03 </wgt>
<wgt id='1988'> +2.8273768E+03 </wgt>
<wgt id='1989'> +2.8285972E+03 </wgt>
<wgt id='1990'> +2.8270791E+03 </wgt>
<wgt id='1991'> +2.8295683E+03 </wgt>
<wgt id='1992'> +2.8272331E+03 </wgt>
<wgt id='1993'> +2.8272937E+03 </wgt>
<wgt id='1994'> +2.8285750E+03 </wgt>
<wgt id='1995'> +2.8279742E+03 </wgt>
<wgt id='1996'> +2.8275720E+03 </wgt>
<wgt id='1997'> +2.8284131E+03 </wgt>
<wgt id='1998'> +2.8278468E+03 </wgt>
<wgt id='1999'> +2.8276598E+03 </wgt>
<wgt id='2000'> +2.8281408E+03 </wgt>
<wgt id='2001'> +2.8280457E+03 </wgt>
<wgt id='2002'> +2.8279170E+03 </wgt>
<wgt id='2003'> +2.8278600E+03 </wgt>
<wgt id='2004'> +2.8279385E+03 </wgt>
<wgt id='2005'> +2.8279409E+03 </wgt>
<wgt id='2006'> +2.8279595E+03 </wgt>
<wgt id='2007'> +2.8279327E+03 </wgt>
<wgt id='2008'> +2.8278837E+03 </wgt>
<wgt id='2009'> +2.6659933E+03 </wgt>
<wgt id='2010'> +2.4660794E+03 </wgt>
<wgt id='2011'> +2.7206420E+03 </wgt>
<wgt id='2012'> +2.8834856E+03 </wgt>
<wgt id='2013'> +2.7658636E+03 </wgt>
<wgt id='2014'> +2.4462421E+03 </wgt>
<wgt id='2015'> +2.5924539E+03 </wgt>
<wgt id='2016'> +2.6889707E+03 </wgt>
<wgt id='2017'> +2.6501588E+03 </wgt>
<wgt id='2018'> +2.6870341E+03 </wgt>
<wgt id='2019'> +2.5008233E+03 </wgt>
<wgt id='2020'> +2.5156425E+03 </wgt>
<wgt id='2021'> +2.7035611E+03 </wgt>
<wgt id='2022'> +2.7156048E+03 </wgt>
<wgt id='2023'> +2.6607866E+03 </wgt>
<wgt id='2024'> +2.6492909E+03 </wgt>
<wgt id='2025'> +2.6322201E+03 </wgt>
<wgt id='2026'> +2.5968728E+03 </wgt>
<wgt id='2027'> +2.5481222E+03 </wgt>
<wgt id='2028'> +2.6612985E+03 </wgt>
<wgt id='2029'> +2.7292711E+03 </wgt>
<wgt id='2030'> +2.8135337E+03 </wgt>
<wgt id='2031'> +2.6466435E+03 </wgt>
<wgt id='2032'> +2.7687234E+03 </wgt>
<wgt id='2033'> +2.7825934E+03 </wgt>
<wgt id='2034'> +2.7288228E+03 </wgt>
<wgt id='2035'> +2.6436018E+03 </wgt>
<wgt id='2036'> +2.6740531E+03 </wgt>
<wgt id='2037'> +2.6352974E+03 </wgt>
<wgt id='2038'> +2.6915299E+03 </wgt>
<wgt id='2039'> +2.7530434E+03 </wgt>
<wgt id='2040'> +2.7941732E+03 </wgt>
<wgt id='2041'> +2.5090660E+03 </wgt>
<wgt id='2042'> +2.6887484E+03 </wgt>
<wgt id='2043'> +2.6811603E+03 </wgt>
<wgt id='2044'> +2.8232223E+03 </wgt>
<wgt id='2045'> +2.6764919E+03 </wgt>
<wgt id='2046'> +2.6549209E+03 </wgt>
<wgt id='2047'> +2.4030728E+03 </wgt>
<wgt id='2048'> +2.6853047E+03 </wgt>
<wgt id='2049'> +2.7238418E+03 </wgt>
<wgt id='2050'> +2.7128234E+03 </wgt>
<wgt id='2051'> +2.7073780E+03 </wgt>
<wgt id='2052'> +2.6964083E+03 </wgt>
<wgt id='2053'> +2.6453996E+03 </wgt>
<wgt id='2054'> +2.7150104E+03 </wgt>
<wgt id='2055'> +2.6795372E+03 </wgt>
<wgt id='2056'> +2.5696368E+03 </wgt>
<wgt id='2057'> +2.6305243E+03 </wgt>
<wgt id='2058'> +2.7464093E+03 </wgt>
<wgt id='2059'> +2.7781155E+03 </wgt>
<wgt id='2060'> +2.6882278E+03 </wgt>
<wgt id='2061'> +2.6492783E+03 </wgt>
<wgt id='2062'> +2.5488978E+03 </wgt>
<wgt id='2063'> +2.6986616E+03 </wgt>
<wgt id='2064'> +2.6857610E+03 </wgt>
<wgt id='2065'> +2.6214973E+03 </wgt>
<wgt id='2066'> +2.7900562E+03 </wgt>
<wgt id='2067'> +2.7195249E+03 </wgt>
<wgt id='2068'> +2.7410127E+03 </wgt>
<wgt id='2069'> +2.7027500E+03 </wgt>
<wgt id='2070'> +2.6859051E+03 </wgt>
<wgt id='2071'> +2.7081255E+03 </wgt>
<wgt id='2072'> +2.6406942E+03 </wgt>
<wgt id='2073'> +2.5386641E+03 </wgt>
<wgt id='2074'> +2.7050949E+03 </wgt>
<wgt id='2075'> +2.7181416E+03 </wgt>
<wgt id='2076'> +2.5738669E+03 </wgt>
<wgt id='2077'> +2.6811813E+03 </wgt>
<wgt id='2078'> +2.5523945E+03 </wgt>
<wgt id='2079'> +2.6446468E+03 </wgt>
<wgt id='2080'> +2.6675318E+03 </wgt>
<wgt id='2081'> +2.5148774E+03 </wgt>
<wgt id='2082'> +2.3305837E+03 </wgt>
<wgt id='2083'> +2.7471823E+03 </wgt>
<wgt id='2084'> +2.7041762E+03 </wgt>
<wgt id='2085'> +2.5597531E+03 </wgt>
<wgt id='2086'> +2.6414393E+03 </wgt>
<wgt id='2087'> +2.6867899E+03 </wgt>
<wgt id='2088'> +2.5532634E+03 </wgt>
<wgt id='2089'> +2.7475567E+03 </wgt>
<wgt id='2090'> +2.7268802E+03 </wgt>
<wgt id='2091'> +2.7560848E+03 </wgt>
<wgt id='2092'> +2.6365920E+03 </wgt>
<wgt id='2093'> +2.7327758E+03 </wgt>
<wgt id='2094'> +2.6831275E+03 </wgt>
<wgt id='2095'> +2.6608562E+03 </wgt>
<wgt id='2096'> +2.6679350E+03 </wgt>
<wgt id='2097'> +2.7469719E+03 </wgt>
<wgt id='2098'> +2.6318292E+03 </wgt>
<wgt id='2099'> +2.7241445E+03 </wgt>
<wgt id='2100'> +2.7032350E+03 </wgt>
<wgt id='2101'> +2.6075306E+03 </wgt>
<wgt id='2102'> +2.6733017E+03 </wgt>
<wgt id='2103'> +2.6361359E+03 </wgt>
<wgt id='2104'> +2.6616254E+03 </wgt>
<wgt id='2105'> +2.6117426E+03 </wgt>
<wgt id='2106'> +2.7194328E+03 </wgt>
<wgt id='2107'> +2.7232240E+03 </wgt>
<wgt id='2108'> +2.7542147E+03 </wgt>
<wgt id='2109'> +2.6822080E+03 </wgt>
<wgt id='2110'> +2.6639604E+03 </wgt>
<wgt id='2111'> +2.6773272E+03 </wgt>
<wgt id='2112'> +2.8222599E+03 </wgt>
<wgt id='2113'> +3.3631042E+03 </wgt>
<wgt id='2114'> +3.2211929E+03 </wgt>
<wgt id='2115'> +2.5661648E+03 </wgt>
<wgt id='2116'> +2.7487322E+03 </wgt>
</rwgt>
</event>
<event>
 6      1 +2.9771057E+03 9.35993600e+01 7.54677100e-03 1.17538600e-01
       -1 -1    0    0    0  501 -0.0000000000e+00 +0.0000000000e+00 +2.6502444950e+01 2.6502444950e+01 0.0000000000e+00 0.0000e+00 1.0000e+00
        2 -1    0    0  502    0 +0.0000000000e+00 -0.0000000000e+00 -3.5435344774e+02 3.5435344774e+02 0.0000000000e+00 0.0000e+00 -1.0000e+00
       24  2    1    2    0    0 -1.6169596273e+01 -4.4599218892e+01 -3.1919162841e+02 3.3263213367e+02 8.0686396203e+01 0.0000e+00 0.0000e+00
      -11  1    3    3    0    0 -2.8655782816e+01 -1.8261344877e+01 -4.2521069230e+01 5.4430432057e+01 0.0000000000e+00 0.0000e+00 1.0000e+00
       12  1    3    3    0    0 +1.2486186543e+01 -2.6337874015e+01 -2.7667055918e+02 2.7820170161e+02 0.0000000000e+00 0.0000e+00 -1.0000e+00
       21  1    1    2  502  501 +1.6169596273e+01 +4.4599218892e+01 -8.6593743783e+00 4.8223759020e+01 0.0000000000e+00 0.0000e+00 1.0000e+00
<scales pt_clust_4="13000.00000" pt_clust_5="13000.00000" pt_clust_6="47.43992"></scales>
<mgrwt>
<rscale>  0 0.93599363E+02</rscale>
<asrwt>  1 0.47439922E+02</asrwt>
<pdfrwt beam="1">  1        2 0.54515913E-01 0.93599363E+02</pdfrwt>
<pdfrwt beam="2">  1       -1 0.40772994E-02 0.93599363E+02</pdfrwt>
<totfact> 0.32107573E+03</totfact>
</mgrwt>
<clustering>
<clus scale="   47.440">  1  6  2 -1</clus>
<clus scale="   80.686">  4  5 -1 -1</clus>
<clus scale="   93.599">  2  4  1 -1</clus>
</clustering>
<rwgt>
<wgt id='1001'> +2.9771057E+03 </wgt>
<wgt id='1002'> +3.0269104E+03 </wgt>
<wgt id='1003'> +3.0269104E+03 </wgt>
<wgt id='1004'> +2.8067863E+03 </wgt>
<wgt id='1005'> +3.1819068E+03 </wgt>
<wgt id='1006'> +2.9771057E+03 </wgt>
<wgt id='1007'> +3.0269104E+03 </wgt>
<wgt id='1008'> +3.0269104E+03 </wgt>
<wgt id='1009'> +2.8067863E+03 </wgt>
<wgt id='1010'> +3.1819068E+03 </wgt>
<wgt id='1011'> +2.9771057E+03 </wgt>
<wgt id='1012'> +3.0269104E+03 </wgt>
<wgt id='1013'> +3.0269104E+03 </wgt>
<wgt id='1014'> +2.8067863E+03 </wgt>
<wgt id='1015'> +3.1819068E+03 </wgt>
<wgt id='1016'> +3.1728335E+03 </wgt>
<wgt id='1017'> +3.2157381E+03 </wgt>
<wgt id='1018'> +3.2157381E+03 </wgt>
<wgt id='1019'> +3.0269104E+03 </wgt>
<wgt id='1020'> +3.3488834E+03 </wgt>
<wgt id='1021'> +3.1728335E+03 </wgt>
<wgt id='1022'> +3.2157381E+03 </wgt>
<wgt id='1023'> +3.2157381E+03 </wgt>
<wgt id='1024'> +3.0269104E+03 </wgt>
<wgt id='1025'> +3.3488834E+03 </wgt>
<wgt id='1026'> +3.1728335E+03 </wgt>
<wgt id='1027'> +3.2157381E+03 </wgt>
<wgt id='1028'> +3.2157381E+03 </wgt>
<wgt id='1029'> +3.0269104E+03 </wgt>
<wgt id='1030'> +3.3488834E+03 </wgt>
<wgt id='1031'> +2.7486240E+03 </wgt>
<wgt id='1032'> +2.8067863E+03 </wgt>
<wgt id='1033'> +2.8067863E+03 </wgt>
<wgt id='1034'> +2.5496518E+03 </wgt>
<wgt id='1035'> +2.9876450E+03 </wgt>
<wgt id='1036'> +2.7486240E+03 </wgt>
<wgt id='1037'> +2.8067863E+03 </wgt>
<wgt id='1038'> +2.8067863E+03 </wgt>
<wgt id='1039'> +2.5496518E+03 </wgt>
<wgt id='1040'> +2.9876450E+03 </wgt>
<wgt id='1041'> +2.7486240E+03 </wgt>
<wgt id='1042'> +2.8067863E+03 </wgt>
<wgt id='1043'> +2.8067863E+03 </wgt>
<wgt id='1044'> +2.5496518E+03 </wgt>
<wgt id='1045'> +2.9876450E+03 </wgt>
<wgt id='1046'> +2.9771057E+03 </wgt>
<wgt id='1047'> +2.9766793E+03 </wgt>
<wgt id='1048'> +2.9765791E+03 </wgt>
<wgt id='1049'> +2.9760631E+03 </wgt>
<wgt id='1050'> +2.9886868E+03 </wgt>
<wgt id='1051'> +2.9767917E+03 </wgt>
<wgt id='1052'> +2.9708793E+03 </wgt>
<wgt id='1053'> +2.9746480E+03 </wgt>
<wgt id='1054'> +2.9687710E+03 </wgt>
<wgt id='1055'> +2.9848061E+03 </wgt>
<wgt id='1056'> +2.9638212E+03 </wgt>
<wgt id='1057'> +2.9614937E+03 </wgt>
<wgt id='1058'> +2.9850193E+03 </wgt>
<wgt id='1059'> +2.9697828E+03 </wgt>
<wgt id='1060'> +2.9829777E+03 </wgt>
<wgt id='1061'> +2.9906998E+03 </wgt>
<wgt id='1062'> +2.9933648E+03 </wgt>
<wgt id='1063'> +2.9652660E+03 </wgt>
<wgt id='1064'> +2.9706912E+03 </wgt>
<wgt id='1065'> +2.9656301E+03 </wgt>
<wgt id='1066'> +2.9719370E+03 </wgt>
<wgt id='1067'> +2.9898797E+03 </wgt>
<wgt id='1068'> +2.9818494E+03 </wgt>
<wgt id='1069'> +2.9590992E+03 </wgt>
<wgt id='1070'> +2.9980690E+03 </wgt>
<wgt id='1071'> +2.9781191E+03 </wgt>
<wgt id='1072'> +2.9650274E+03 </wgt>
<wgt id='1073'> +2.9861148E+03 </wgt>
<wgt id='1074'> +2.9830820E+03 </wgt>
<wgt id='1075'> +2.9524827E+03 </wgt>
<wgt id='1076'> +2.9768145E+03 </wgt>
<wgt id='1077'> +2.9764259E+03 </wgt>
<wgt id='1078'> +2.9712508E+03 </wgt>
<wgt id='1079'> +2.9801950E+03 </wgt>
<wgt id='1080'> +2.9766284E+03 </wgt>
<wgt id='1081'> +2.9718515E+03 </wgt>
<wgt id='1082'> +2.9764786E+03 </wgt>
<wgt id='1083'> +2.9752475E+03 </wgt>
<wgt id='1084'> +2.9764136E+03 </wgt>
<wgt id='1085'> +2.9757297E+03 </wgt>
<wgt id='1086'> +2.9758989E+03 </wgt>
<wgt id='1087'> +2.9760903E+03 </wgt>
<wgt id='1088'> +2.9749273E+03 </wgt>
<wgt id='1089'> +2.9756748E+03 </wgt>
<wgt id='1090'> +2.9835928E+03 </wgt>
<wgt id='1091'> +2.9754448E+03 </wgt>
<wgt id='1092'> +2.9823751E+03 </wgt>
<wgt id='1093'> +2.9818405E+03 </wgt>
<wgt id='1094'> +2.9747224E+03 </wgt>
<wgt id='1095'> +2.9751605E+03 </wgt>
<wgt id='1096'> +2.9714010E+03 </wgt>
<wgt id='1097'> +2.9732999E+03 </wgt>
<wgt id='1098'> +2.9742105E+03 </wgt>
<wgt id='1099'> +2.9771226E+03 </wgt>
<wgt id='1100'> +2.9730354E+03 </wgt>
<wgt id='1101'> +2.9752245E+03 </wgt>
<wgt id='1102'> +2.9779888E+03 </wgt>
<wgt id='1103'> +2.9823571E+03 </wgt>
<wgt id='1104'> +2.9817184E+03 </wgt>
<wgt id='1105'> +2.9753975E+03 </wgt>
<wgt id='1106'> +2.9811108E+03 </wgt>
<wgt id='1107'> +2.9779677E+03 </wgt>
<wgt id='1108'> +2.9773563E+03 </wgt>
<wgt id='1109'> +2.9772966E+03 </wgt>
<wgt id='1110'> +2.9762558E+03 </wgt>
<wgt id='1111'> +2.9797897E+03 </wgt>
<wgt id='1112'> +2.9748590E+03 </wgt>
<wgt id='1113'> +2.9752105E+03 </wgt>
<wgt id='1114'> +2.9775486E+03 </wgt>
<wgt id='1115'> +2.9821435E+03 </wgt>
<wgt id='1116'> +2.9754880E+03 </wgt>
<wgt id='1117'> +2.9761872E+03 </wgt>
<wgt id='1118'> +2.9745137E+03 </wgt>
<wgt id='1119'> +2.9827028E+03 </wgt>
<wgt id='1120'> +2.9747333E+03 </wgt>
<wgt id='1121'> +2.9810668E+03 </wgt>
<wgt id='1122'> +2.9792092E+03 </wgt>
<wgt id='1123'> +2.9759970E+03 </wgt>
<wgt id='1124'> +2.9774833E+03 </wgt>
<wgt id='1125'> +2.9778038E+03 </wgt>
<wgt id='1126'> +2.9782379E+03 </wgt>
<wgt id='1127'> +2.9781285E+03 </wgt>
<wgt id='1128'> +2.9791043E+03 </wgt>
<wgt id='1129'> +2.9779557E+03 </wgt>
<wgt id='1130'> +2.9803149E+03 </wgt>
<wgt id='1131'> +2.9766603E+03 </wgt>
<wgt id='1132'> +2.9793303E+03 </wgt>
<wgt id='1133'> +2.9752641E+03 </wgt>
<wgt id='1134'> +2.9805694E+03 </wgt>
<wgt id='1135'> +2.9758463E+03 </wgt>
<wgt id='1136'> +2.9740021E+03 </wgt>
<wgt id='1137'> +2.9754073E+03 </wgt>
<wgt id='1138'> +2.9766789E+03 </wgt>
<wgt id='1139'> +2.9788784E+03 </wgt>
<wgt id='1140'> +2.9767102E+03 </wgt>
<wgt id='1141'> +2.9764903E+03 </wgt>
<wgt id='1142'> +2.9762303E+03 </wgt>
<wgt id='1143'> +2.9767314E+03 </wgt>
<wgt id='1144'> +2.9750247E+03 </wgt>
<wgt id='1145'> +2.9765974E+03 </wgt>
<wgt id='1146'> +2.9770592E+03 </wgt>
<wgt id='1147'> +2.9070894E+03 </wgt>
<wgt id='1148'> +3.0525621E+03 </wgt>
<wgt id='1149'> +2.6488286E+03 </wgt>
<wgt id='1150'> +2.7027815E+03 </wgt>
<wgt id='1151'> +2.7705419E+03 </wgt>
<wgt id='1152'> +2.8408092E+03 </wgt>
<wgt id='1153'> +2.9568247E+03 </wgt>
<wgt id='1154'> +3.0151161E+03 </wgt>
<wgt id='1155'> +3.1298800E+03 </wgt>
<wgt id='1156'> +3.1853983E+03 </wgt>
<wgt id='1157'> +2.9252817E+03 </wgt>
<wgt id='1158'> +2.9257511E+03 </wgt>
<wgt id='1159'> +2.9314333E+03 </wgt>
<wgt id='1160'> +2.9237264E+03 </wgt>
<wgt id='1161'> +2.9389034E+03 </wgt>
<wgt id='1162'> +2.9284430E+03 </wgt>
<wgt id='1163'> +2.9162158E+03 </wgt>
<wgt id='1164'> +2.9357179E+03 </wgt>
<wgt id='1165'> +2.9313168E+03 </wgt>
<wgt id='1166'> +2.9357073E+03 </wgt>
<wgt id='1167'> +2.9096752E+03 </wgt>
<wgt id='1168'> +2.9193749E+03 </wgt>
<wgt id='1169'> +2.9281119E+03 </wgt>
<wgt id='1170'> +2.9358952E+03 </wgt>
<wgt id='1171'> +2.9307804E+03 </wgt>
<wgt id='1172'> +2.9131374E+03 </wgt>
<wgt id='1173'> +2.9456705E+03 </wgt>
<wgt id='1174'> +2.9161206E+03 </wgt>
<wgt id='1175'> +2.9318800E+03 </wgt>
<wgt id='1176'> +2.9260533E+03 </wgt>
<wgt id='1177'> +2.9144937E+03 </wgt>
<wgt id='1178'> +2.9433963E+03 </wgt>
<wgt id='1179'> +2.9242922E+03 </wgt>
<wgt id='1180'> +2.9188101E+03 </wgt>
<wgt id='1181'> +2.9419688E+03 </wgt>
<wgt id='1182'> +2.9146263E+03 </wgt>
<wgt id='1183'> +2.9268581E+03 </wgt>
<wgt id='1184'> +2.9199494E+03 </wgt>
<wgt id='1185'> +2.9304430E+03 </wgt>
<wgt id='1186'> +2.9431409E+03 </wgt>
<wgt id='1187'> +2.9007120E+03 </wgt>
<wgt id='1188'> +2.9182541E+03 </wgt>
<wgt id='1189'> +2.9287518E+03 </wgt>
<wgt id='1190'> +2.9277663E+03 </wgt>
<wgt id='1191'> +2.9270249E+03 </wgt>
<wgt id='1192'> +2.9318557E+03 </wgt>
<wgt id='1193'> +2.9288834E+03 </wgt>
<wgt id='1194'> +2.9232357E+03 </wgt>
<wgt id='1195'> +2.9290163E+03 </wgt>
<wgt id='1196'> +2.9254724E+03 </wgt>
<wgt id='1197'> +2.9254657E+03 </wgt>
<wgt id='1198'> +2.9236358E+03 </wgt>
<wgt id='1199'> +2.9218484E+03 </wgt>
<wgt id='1200'> +2.9273295E+03 </wgt>
<wgt id='1201'> +2.9261611E+03 </wgt>
<wgt id='1202'> +2.9289188E+03 </wgt>
<wgt id='1203'> +2.9285502E+03 </wgt>
<wgt id='1204'> +2.9267368E+03 </wgt>
<wgt id='1205'> +2.9275458E+03 </wgt>
<wgt id='1206'> +2.9254797E+03 </wgt>
<wgt id='1207'> +2.9259714E+03 </wgt>
<wgt id='1208'> +2.9239141E+03 </wgt>
<wgt id='1209'> +2.9185593E+03 </wgt>
<wgt id='1210'> +2.9184096E+03 </wgt>
<wgt id='1211'> +2.9221666E+03 </wgt>
<wgt id='1212'> +2.9271765E+03 </wgt>
<wgt id='1213'> +2.9231492E+03 </wgt>
<wgt id='1214'> +2.9243453E+03 </wgt>
<wgt id='1215'> +2.9199657E+03 </wgt>
<wgt id='1216'> +2.9274084E+03 </wgt>
<wgt id='1217'> +2.9269260E+03 </wgt>
<wgt id='1218'> +2.9292160E+03 </wgt>
<wgt id='1219'> +2.9259542E+03 </wgt>
<wgt id='1220'> +2.9285377E+03 </wgt>
<wgt id='1221'> +2.9230306E+03 </wgt>
<wgt id='1222'> +2.9286964E+03 </wgt>
<wgt id='1223'> +2.9236254E+03 </wgt>
<wgt id='1224'> +2.9221108E+03 </wgt>
<wgt id='1225'> +2.9260943E+03 </wgt>
<wgt id='1226'> +2.9218426E+03 </wgt>
<wgt id='1227'> +2.9277488E+03 </wgt>
<wgt id='1228'> +2.9256299E+03 </wgt>
<wgt id='1229'> +2.9285070E+03 </wgt>
<wgt id='1230'> +2.9279365E+03 </wgt>
<wgt id='1231'> +2.9256678E+03 </wgt>
<wgt id='1232'> +2.9196483E+03 </wgt>
<wgt id='1233'> +2.9229034E+03 </wgt>
<wgt id='1234'> +2.9287116E+03 </wgt>
<wgt id='1235'> +2.9255768E+03 </wgt>
<wgt id='1236'> +2.9226928E+03 </wgt>
<wgt id='1237'> +2.9254564E+03 </wgt>
<wgt id='1238'> +2.9263866E+03 </wgt>
<wgt id='1239'> +2.9256504E+03 </wgt>
<wgt id='1240'> +2.9286941E+03 </wgt>
<wgt id='1241'> +2.9228463E+03 </wgt>
<wgt id='1242'> +2.9252199E+03 </wgt>
<wgt id='1243'> +2.9243742E+03 </wgt>
<wgt id='1244'> +2.9256778E+03 </wgt>
<wgt id='1245'> +2.9237125E+03 </wgt>
<wgt id='1246'> +2.9221479E+03 </wgt>
<wgt id='1247'> +2.9241710E+03 </wgt>
<wgt id='1248'> +2.9230583E+03 </wgt>
<wgt id='1249'> +2.9229206E+03 </wgt>
<wgt id='1250'> +2.9244471E+03 </wgt>
<wgt id='1251'> +2.9285623E+03 </wgt>
<wgt id='1252'> +2.9259038E+03 </wgt>
<wgt id='1253'> +2.9256918E+03 </wgt>
<wgt id='1254'> +2.9251192E+03 </wgt>
<wgt id='1255'> +2.9263713E+03 </wgt>
<wgt id='1256'> +2.9263187E+03 </wgt>
<wgt id='1257'> +2.9238801E+03 </wgt>
<wgt id='1258'> +2.8555977E+03 </wgt>
<wgt id='1259'> +2.9948291E+03 </wgt>
<wgt id='1260'> +2.8508647E+03 </wgt>
<wgt id='1261'> +2.8325675E+03 </wgt>
<wgt id='1262'> +2.8300500E+03 </wgt>
<wgt id='1263'> +2.8430318E+03 </wgt>
<wgt id='1264'> +2.8548513E+03 </wgt>
<wgt id='1265'> +2.8614624E+03 </wgt>
<wgt id='1266'> +2.8530014E+03 </wgt>
<wgt id='1267'> +2.8548782E+03 </wgt>
<wgt id='1268'> +2.8059314E+03 </wgt>
<wgt id='1269'> +2.8900220E+03 </wgt>
<wgt id='1270'> +2.8276090E+03 </wgt>
<wgt id='1271'> +2.8574207E+03 </wgt>
<wgt id='1272'> +2.8169848E+03 </wgt>
<wgt id='1273'> +2.8286238E+03 </wgt>
<wgt id='1274'> +2.8348928E+03 </wgt>
<wgt id='1275'> +2.8617851E+03 </wgt>
<wgt id='1276'> +2.8050820E+03 </wgt>
<wgt id='1277'> +2.8614260E+03 </wgt>
<wgt id='1278'> +2.8422614E+03 </wgt>
<wgt id='1279'> +2.8656510E+03 </wgt>
<wgt id='1280'> +2.8410946E+03 </wgt>
<wgt id='1281'> +2.8630534E+03 </wgt>
<wgt id='1282'> +2.8430307E+03 </wgt>
<wgt id='1283'> +2.8402752E+03 </wgt>
<wgt id='1284'> +2.8625203E+03 </wgt>
<wgt id='1285'> +2.8550451E+03 </wgt>
<wgt id='1286'> +2.8472040E+03 </wgt>
<wgt id='1287'> +2.8292642E+03 </wgt>
<wgt id='1288'> +2.8845059E+03 </wgt>
<wgt id='1289'> +2.8265503E+03 </wgt>
<wgt id='1290'> +2.8653075E+03 </wgt>
<wgt id='1291'> +2.8671765E+03 </wgt>
<wgt id='1292'> +2.8244255E+03 </wgt>
<wgt id='1293'> +2.9375326E+03 </wgt>
<wgt id='1294'> +2.7695428E+03 </wgt>
<wgt id='1295'> +2.8478032E+03 </wgt>
<wgt id='1296'> +2.8542844E+03 </wgt>
<wgt id='1297'> +2.9189410E+03 </wgt>
<wgt id='1298'> +2.7755446E+03 </wgt>
<wgt id='1299'> +2.8966374E+03 </wgt>
<wgt id='1300'> +2.7907155E+03 </wgt>
<wgt id='1301'> +2.8854186E+03 </wgt>
<wgt id='1302'> +2.8415823E+03 </wgt>
<wgt id='1303'> +2.8684541E+03 </wgt>
<wgt id='1304'> +2.8101186E+03 </wgt>
<wgt id='1305'> +2.8721875E+03 </wgt>
<wgt id='1306'> +2.8537425E+03 </wgt>
<wgt id='1307'> +2.8376245E+03 </wgt>
<wgt id='1308'> +2.8894131E+03 </wgt>
<wgt id='1309'> +2.8573827E+03 </wgt>
<wgt id='1310'> +2.9023113E+03 </wgt>
<wgt id='1311'> +2.8395595E+03 </wgt>
<wgt id='1312'> +2.8879447E+03 </wgt>
<wgt id='1313'> +2.9114708E+03 </wgt>
<wgt id='1314'> +2.9127052E+03 </wgt>
<wgt id='1315'> +2.8158386E+03 </wgt>
<wgt id='1316'> +2.8958754E+03 </wgt>
<wgt id='1317'> +2.7643387E+03 </wgt>
<wgt id='1318'> +2.9386510E+03 </wgt>
<wgt id='1319'> +2.7815606E+03 </wgt>
<wgt id='1320'> +2.8119902E+03 </wgt>
<wgt id='1321'> +2.7517175E+03 </wgt>
<wgt id='1322'> +2.7957979E+03 </wgt>
<wgt id='1323'> +2.7910633E+03 </wgt>
<wgt id='1324'> +2.8173546E+03 </wgt>
<wgt id='1325'> +2.7912791E+03 </wgt>
<wgt id='1326'> +2.7951507E+03 </wgt>
<wgt id='1327'> +2.7963511E+03 </wgt>
<wgt id='1328'> +2.7588845E+03 </wgt>
<wgt id='1329'> +2.8151839E+03 </wgt>
<wgt id='1330'> +2.7956994E+03 </wgt>
<wgt id='1331'> +2.7844854E+03 </wgt>
<wgt id='1332'> +2.7246293E+03 </wgt>
<wgt id='1333'> +2.8004123E+03 </wgt>
<wgt id='1334'> +2.8106650E+03 </wgt>
<wgt id='1335'> +2.7287542E+03 </wgt>
<wgt id='1336'> +2.8602703E+03 </wgt>
<wgt id='1337'> +2.6944823E+03 </wgt>
<wgt id='1338'> +2.8066949E+03 </wgt>
<wgt id='1339'> +2.7533991E+03 </wgt>
<wgt id='1340'> +2.7866830E+03 </wgt>
<wgt id='1341'> +2.7685250E+03 </wgt>
<wgt id='1342'> +2.8339834E+03 </wgt>
<wgt id='1343'> +2.7290369E+03 </wgt>
<wgt id='1344'> +2.7896935E+03 </wgt>
<wgt id='1345'> +2.7773547E+03 </wgt>
<wgt id='1346'> +2.7536003E+03 </wgt>
<wgt id='1347'> +2.8170035E+03 </wgt>
<wgt id='1348'> +2.7504810E+03 </wgt>
<wgt id='1349'> +2.7921907E+03 </wgt>
<wgt id='1350'> +2.7673628E+03 </wgt>
<wgt id='1351'> +2.7996519E+03 </wgt>
<wgt id='1352'> +2.7727443E+03 </wgt>
<wgt id='1353'> +2.8000566E+03 </wgt>
<wgt id='1354'> +2.8104961E+03 </wgt>
<wgt id='1355'> +2.7565269E+03 </wgt>
<wgt id='1356'> +2.7755052E+03 </wgt>
<wgt id='1357'> +2.7770977E+03 </wgt>
<wgt id='1358'> +2.7525581E+03 </wgt>
<wgt id='1359'> +2.7866807E+03 </wgt>
<wgt id='1360'> +2.7794052E+03 </wgt>
<wgt id='1361'> +2.7901927E+03 </wgt>
<wgt id='1362'> +2.7879757E+03 </wgt>
<wgt id='1363'> +2.7670647E+03 </wgt>
<wgt id='1364'> +2.7788791E+03 </wgt>
<wgt id='1365'> +2.7574521E+03 </wgt>
<wgt id='1366'> +2.7522308E+03 </wgt>
<wgt id='1367'> +2.7880705E+03 </wgt>
<wgt id='1368'> +2.7697752E+03 </wgt>
<wgt id='1369'> +2.7793207E+03 </wgt>
<wgt id='1370'> +2.7602105E+03 </wgt>
<wgt id='1371'> +2.7677114E+03 </wgt>
<wgt id='1372'> +2.7505636E+03 </wgt>
<wgt id='1373'> +2.7630599E+03 </wgt>
<wgt id='1374'> +2.7540034E+03 </wgt>
<wgt id='1375'> +2.8098505E+03 </wgt>
<wgt id='1376'> +2.6988332E+03 </wgt>
<wgt id='1377'> +2.8614553E+03 </wgt>
<wgt id='1378'> +2.4590921E+03 </wgt>
<wgt id='1379'> +2.6999917E+03 </wgt>
<wgt id='1380'> +2.6982565E+03 </wgt>
<wgt id='1381'> +2.7018677E+03 </wgt>
<wgt id='1382'> +2.6882301E+03 </wgt>
<wgt id='1383'> +2.7079270E+03 </wgt>
<wgt id='1384'> +2.6950061E+03 </wgt>
<wgt id='1385'> +2.7046905E+03 </wgt>
<wgt id='1386'> +2.6960248E+03 </wgt>
<wgt id='1387'> +2.7042567E+03 </wgt>
<wgt id='1388'> +2.6937133E+03 </wgt>
<wgt id='1389'> +2.7060360E+03 </wgt>
<wgt id='1390'> +2.7001494E+03 </wgt>
<wgt id='1391'> +2.6996037E+03 </wgt>
<wgt id='1392'> +2.6940415E+03 </wgt>
<wgt id='1393'> +2.7105687E+03 </wgt>
<wgt id='1394'> +2.7011845E+03 </wgt>
<wgt id='1395'> +2.6992735E+03 </wgt>
<wgt id='1396'> +2.7153485E+03 </wgt>
<wgt id='1397'> +2.6819985E+03 </wgt>
<wgt id='1398'> +2.7016592E+03 </wgt>
<wgt id='1399'> +2.6984285E+03 </wgt>
<wgt id='1400'> +2.7001163E+03 </wgt>
<wgt id='1401'> +2.7000146E+03 </wgt>
<wgt id='1402'> +2.7397876E+03 </wgt>
<wgt id='1403'> +2.6736430E+03 </wgt>
<wgt id='1404'> +2.6980925E+03 </wgt>
<wgt id='1405'> +2.6962327E+03 </wgt>
<wgt id='1406'> +2.7129957E+03 </wgt>
<wgt id='1407'> +2.6945753E+03 </wgt>
<wgt id='1408'> +2.7149246E+03 </wgt>
<wgt id='1409'> +2.6822879E+03 </wgt>
<wgt id='1410'> +2.7167527E+03 </wgt>
<wgt id='1411'> +2.6813926E+03 </wgt>
<wgt id='1412'> +2.6953745E+03 </wgt>
<wgt id='1413'> +2.7060883E+03 </wgt>
<wgt id='1414'> +2.6901561E+03 </wgt>
<wgt id='1415'> +2.7257404E+03 </wgt>
<wgt id='1416'> +2.6906774E+03 </wgt>
<wgt id='1417'> +2.7094887E+03 </wgt>
<wgt id='1418'> +2.7015565E+03 </wgt>
<wgt id='1419'> +2.6975823E+03 </wgt>
<wgt id='1420'> +2.6603423E+03 </wgt>
<wgt id='1421'> +2.7288285E+03 </wgt>
<wgt id='1422'> +2.7181125E+03 </wgt>
<wgt id='1423'> +2.6782632E+03 </wgt>
<wgt id='1424'> +2.6868373E+03 </wgt>
<wgt id='1425'> +2.7320031E+03 </wgt>
<wgt id='1426'> +2.6967605E+03 </wgt>
<wgt id='1427'> +2.6915829E+03 </wgt>
<wgt id='1428'> +2.6988711E+03 </wgt>
<wgt id='1429'> +2.6999165E+03 </wgt>
<wgt id='1430'> +2.8841507E+03 </wgt>
<wgt id='1431'> +2.8807817E+03 </wgt>
<wgt id='1432'> +2.8884309E+03 </wgt>
<wgt id='1433'> +2.8884229E+03 </wgt>
<wgt id='1434'> +2.8798723E+03 </wgt>
<wgt id='1435'> +2.8680184E+03 </wgt>
<wgt id='1436'> +2.8906249E+03 </wgt>
<wgt id='1437'> +2.8735786E+03 </wgt>
<wgt id='1438'> +2.8946068E+03 </wgt>
<wgt id='1439'> +2.8793051E+03 </wgt>
<wgt id='1440'> +2.8887658E+03 </wgt>
<wgt id='1441'> +2.8893029E+03 </wgt>
<wgt id='1442'> +2.8819104E+03 </wgt>
<wgt id='1443'> +2.8819300E+03 </wgt>
<wgt id='1444'> +2.8868448E+03 </wgt>
<wgt id='1445'> +2.8782570E+03 </wgt>
<wgt id='1446'> +2.8904843E+03 </wgt>
<wgt id='1447'> +2.9004604E+03 </wgt>
<wgt id='1448'> +2.8747193E+03 </wgt>
<wgt id='1449'> +2.8893577E+03 </wgt>
<wgt id='1450'> +2.8767009E+03 </wgt>
<wgt id='1451'> +2.8865991E+03 </wgt>
<wgt id='1452'> +2.8823378E+03 </wgt>
<wgt id='1453'> +2.8791949E+03 </wgt>
<wgt id='1454'> +2.8880210E+03 </wgt>
<wgt id='1455'> +2.8681228E+03 </wgt>
<wgt id='1456'> +2.9230620E+03 </wgt>
<wgt id='1457'> +2.8944515E+03 </wgt>
<wgt id='1458'> +2.8795796E+03 </wgt>
<wgt id='1459'> +2.8725156E+03 </wgt>
<wgt id='1460'> +2.9135300E+03 </wgt>
<wgt id='1461'> +2.8873462E+03 </wgt>
<wgt id='1462'> +2.8782567E+03 </wgt>
<wgt id='1463'> +2.8752978E+03 </wgt>
<wgt id='1464'> +2.9037083E+03 </wgt>
<wgt id='1465'> +2.9205937E+03 </wgt>
<wgt id='1466'> +2.8684624E+03 </wgt>
<wgt id='1467'> +2.8838276E+03 </wgt>
<wgt id='1468'> +2.8867378E+03 </wgt>
<wgt id='1469'> +2.8874840E+03 </wgt>
<wgt id='1470'> +2.8809081E+03 </wgt>
<wgt id='1471'> +2.9076907E+03 </wgt>
<wgt id='1472'> +2.8281525E+03 </wgt>
<wgt id='1473'> +2.8886186E+03 </wgt>
<wgt id='1474'> +2.8557930E+03 </wgt>
<wgt id='1475'> +2.8614105E+03 </wgt>
<wgt id='1476'> +2.8960968E+03 </wgt>
<wgt id='1477'> +2.9092362E+03 </wgt>
<wgt id='1478'> +2.8725431E+03 </wgt>
<wgt id='1479'> +2.8847022E+03 </wgt>
<wgt id='1480'> +2.8767538E+03 </wgt>
<wgt id='1481'> +2.6557835E+03 </wgt>
<wgt id='1482'> +2.8444174E+03 </wgt>
<wgt id='1483'> +2.8438422E+03 </wgt>
<wgt id='1484'> +2.8439983E+03 </wgt>
<wgt id='1485'> +2.8443529E+03 </wgt>
<wgt id='1486'> +2.8445065E+03 </wgt>
<wgt id='1487'> +2.8491626E+03 </wgt>
<wgt id='1488'> +2.8331719E+03 </wgt>
<wgt id='1489'> +2.8487195E+03 </wgt>
<wgt id='1490'> +2.8397466E+03 </wgt>
<wgt id='1491'> +2.8368505E+03 </wgt>
<wgt id='1492'> +2.8481456E+03 </wgt>
<wgt id='1493'> +2.8418631E+03 </wgt>
<wgt id='1494'> +2.8460207E+03 </wgt>
<wgt id='1495'> +2.8460617E+03 </wgt>
<wgt id='1496'> +2.8409988E+03 </wgt>
<wgt id='1497'> +2.8477732E+03 </wgt>
<wgt id='1498'> +2.8449259E+03 </wgt>
<wgt id='1499'> +2.8414829E+03 </wgt>
<wgt id='1500'> +2.8461426E+03 </wgt>
<wgt id='1501'> +2.8455270E+03 </wgt>
<wgt id='1502'> +2.8341349E+03 </wgt>
<wgt id='1503'> +2.8405603E+03 </wgt>
<wgt id='1504'> +2.8388449E+03 </wgt>
<wgt id='1505'> +2.8482121E+03 </wgt>
<wgt id='1506'> +2.8503586E+03 </wgt>
<wgt id='1507'> +2.8521141E+03 </wgt>
<wgt id='1508'> +2.8429320E+03 </wgt>
<wgt id='1509'> +2.8472668E+03 </wgt>
<wgt id='1510'> +2.8397591E+03 </wgt>
<wgt id='1511'> +2.8265948E+03 </wgt>
<wgt id='1512'> +2.7433821E+03 </wgt>
<wgt id='1513'> +2.7330232E+03 </wgt>
<wgt id='1514'> +2.7308214E+03 </wgt>
<wgt id='1515'> +2.7626364E+03 </wgt>
<wgt id='1516'> +2.7346279E+03 </wgt>
<wgt id='1517'> +2.7473571E+03 </wgt>
<wgt id='1518'> +2.7225587E+03 </wgt>
<wgt id='1519'> +2.7530048E+03 </wgt>
<wgt id='1520'> +2.7488472E+03 </wgt>
<wgt id='1521'> +2.7418249E+03 </wgt>
<wgt id='1522'> +2.7443267E+03 </wgt>
<wgt id='1523'> +2.7149730E+03 </wgt>
<wgt id='1524'> +2.7295231E+03 </wgt>
<wgt id='1525'> +2.7462592E+03 </wgt>
<wgt id='1526'> +2.7325458E+03 </wgt>
<wgt id='1527'> +2.7345920E+03 </wgt>
<wgt id='1528'> +2.7267711E+03 </wgt>
<wgt id='1529'> +2.7399474E+03 </wgt>
<wgt id='1530'> +2.7827773E+03 </wgt>
<wgt id='1531'> +2.7314987E+03 </wgt>
<wgt id='1532'> +2.7568058E+03 </wgt>
<wgt id='1533'> +2.7571618E+03 </wgt>
<wgt id='1534'> +2.7416770E+03 </wgt>
<wgt id='1535'> +2.7563019E+03 </wgt>
<wgt id='1536'> +2.7367349E+03 </wgt>
<wgt id='1537'> +2.7638757E+03 </wgt>
<wgt id='1538'> +2.7481638E+03 </wgt>
<wgt id='1539'> +2.7345317E+03 </wgt>
<wgt id='1540'> +2.7358842E+03 </wgt>
<wgt id='1541'> +2.7420210E+03 </wgt>
<wgt id='1542'> +2.7331053E+03 </wgt>
<wgt id='1543'> +2.7450119E+03 </wgt>
<wgt id='1544'> +2.7458781E+03 </wgt>
<wgt id='1545'> +2.7279798E+03 </wgt>
<wgt id='1546'> +2.7488241E+03 </wgt>
<wgt id='1547'> +2.7472446E+03 </wgt>
<wgt id='1548'> +2.7409164E+03 </wgt>
<wgt id='1549'> +2.7385086E+03 </wgt>
<wgt id='1550'> +2.7439354E+03 </wgt>
<wgt id='1551'> +2.7505686E+03 </wgt>
<wgt id='1552'> +2.7443931E+03 </wgt>
<wgt id='1553'> +2.7501033E+03 </wgt>
<wgt id='1554'> +2.7372975E+03 </wgt>
<wgt id='1555'> +2.7431221E+03 </wgt>
<wgt id='1556'> +2.7462375E+03 </wgt>
<wgt id='1557'> +2.7440068E+03 </wgt>
<wgt id='1558'> +2.7412537E+03 </wgt>
<wgt id='1559'> +2.7364611E+03 </wgt>
<wgt id='1560'> +2.7434027E+03 </wgt>
<wgt id='1561'> +2.7425486E+03 </wgt>
<wgt id='1562'> +2.7425307E+03 </wgt>
<wgt id='1563'> +2.7440431E+03 </wgt>
<wgt id='1564'> +2.7453626E+03 </wgt>
<wgt id='1565'> +2.7476201E+03 </wgt>
<wgt id='1566'> +2.7414929E+03 </wgt>
<wgt id='1567'> +2.7449907E+03 </wgt>
<wgt id='1568'> +2.7447282E+03 </wgt>
<wgt id='1569'> +2.7433021E+03 </wgt>
<wgt id='1570'> +2.7481057E+03 </wgt>
<wgt id='1571'> +2.7407559E+03 </wgt>
<wgt id='1572'> +2.7384598E+03 </wgt>
<wgt id='1573'> +2.7445596E+03 </wgt>
<wgt id='1574'> +2.7426814E+03 </wgt>
<wgt id='1575'> +2.7428481E+03 </wgt>
<wgt id='1576'> +2.7436187E+03 </wgt>
<wgt id='1577'> +2.7430846E+03 </wgt>
<wgt id='1578'> +2.7434595E+03 </wgt>
<wgt id='1579'> +2.7446120E+03 </wgt>
<wgt id='1580'> +2.7442048E+03 </wgt>
<wgt id='1581'> +2.7439447E+03 </wgt>
<wgt id='1582'> +2.7410828E+03 </wgt>
<wgt id='1583'> +2.7422652E+03 </wgt>
<wgt id='1584'> +2.7444896E+03 </wgt>
<wgt id='1585'> +2.7436239E+03 </wgt>
<wgt id='1586'> +2.7415782E+03 </wgt>
<wgt id='1587'> +2.7425984E+03 </wgt>
<wgt id='1588'> +2.7450056E+03 </wgt>
<wgt id='1589'> +2.7438410E+03 </wgt>
<wgt id='1590'> +2.7435460E+03 </wgt>
<wgt id='1591'> +2.7453786E+03 </wgt>
<wgt id='1592'> +2.7447589E+03 </wgt>
<wgt id='1593'> +2.7441066E+03 </wgt>
<wgt id='1594'> +2.7429871E+03 </wgt>
<wgt id='1595'> +2.7441841E+03 </wgt>
<wgt id='1596'> +2.7448774E+03 </wgt>
<wgt id='1597'> +2.7427801E+03 </wgt>
<wgt id='1598'> +2.7436742E+03 </wgt>
<wgt id='1599'> +2.7434674E+03 </wgt>
<wgt id='1600'> +2.7436760E+03 </wgt>
<wgt id='1601'> +2.7433992E+03 </wgt>
<wgt id='1602'> +2.7428394E+03 </wgt>
<wgt id='1603'> +2.7429510E+03 </wgt>
<wgt id='1604'> +2.7446427E+03 </wgt>
<wgt id='1605'> +2.7440488E+03 </wgt>
<wgt id='1606'> +2.7435880E+03 </wgt>
<wgt id='1607'> +2.7433827E+03 </wgt>
<wgt id='1608'> +2.7431675E+03 </wgt>
<wgt id='1609'> +2.7427490E+03 </wgt>
<wgt id='1610'> +2.7438876E+03 </wgt>
<wgt id='1611'> +2.7429914E+03 </wgt>
<wgt id='1612'> +2.7433401E+03 </wgt>
<wgt id='1613'> +2.6820932E+03 </wgt>
<wgt id='1614'> +2.8059132E+03 </wgt>
<wgt id='1615'> +2.8664165E+03 </wgt>
<wgt id='1616'> +2.8732764E+03 </wgt>
<wgt id='1617'> +2.8616332E+03 </wgt>
<wgt id='1618'> +2.8660484E+03 </wgt>
<wgt id='1619'> +2.8768500E+03 </wgt>
<wgt id='1620'> +2.8851616E+03 </wgt>
<wgt id='1621'> +2.8714722E+03 </wgt>
<wgt id='1622'> +2.8700599E+03 </wgt>
<wgt id='1623'> +2.8655097E+03 </wgt>
<wgt id='1624'> +2.8631048E+03 </wgt>
<wgt id='1625'> +2.8635681E+03 </wgt>
<wgt id='1626'> +2.8892701E+03 </wgt>
<wgt id='1627'> +2.8621928E+03 </wgt>
<wgt id='1628'> +2.8681940E+03 </wgt>
<wgt id='1629'> +2.8521065E+03 </wgt>
<wgt id='1630'> +2.9016179E+03 </wgt>
<wgt id='1631'> +2.8575728E+03 </wgt>
<wgt id='1632'> +2.8651369E+03 </wgt>
<wgt id='1633'> +2.8746129E+03 </wgt>
<wgt id='1634'> +2.8344719E+03 </wgt>
<wgt id='1635'> +2.8707113E+03 </wgt>
<wgt id='1636'> +2.8769665E+03 </wgt>
<wgt id='1637'> +2.8383195E+03 </wgt>
<wgt id='1638'> +2.8787469E+03 </wgt>
<wgt id='1639'> +2.8611104E+03 </wgt>
<wgt id='1640'> +2.8619620E+03 </wgt>
<wgt id='1641'> +2.8602488E+03 </wgt>
<wgt id='1642'> +2.8641173E+03 </wgt>
<wgt id='1643'> +2.8741841E+03 </wgt>
<wgt id='1644'> +2.8657802E+03 </wgt>
<wgt id='1645'> +2.8646657E+03 </wgt>
<wgt id='1646'> +2.8766568E+03 </wgt>
<wgt id='1647'> +2.8674334E+03 </wgt>
<wgt id='1648'> +2.8884353E+03 </wgt>
<wgt id='1649'> +2.8728514E+03 </wgt>
<wgt id='1650'> +2.8720835E+03 </wgt>
<wgt id='1651'> +2.8704677E+03 </wgt>
<wgt id='1652'> +2.8631450E+03 </wgt>
<wgt id='1653'> +2.8701422E+03 </wgt>
<wgt id='1654'> +2.8658842E+03 </wgt>
<wgt id='1655'> +2.8689154E+03 </wgt>
<wgt id='1656'> +2.8712234E+03 </wgt>
<wgt id='1657'> +2.8724718E+03 </wgt>
<wgt id='1658'> +2.8591824E+03 </wgt>
<wgt id='1659'> +2.8619545E+03 </wgt>
<wgt id='1660'> +2.8580648E+03 </wgt>
<wgt id='1661'> +2.8633913E+03 </wgt>
<wgt id='1662'> +2.8657723E+03 </wgt>
<wgt id='1663'> +2.8697501E+03 </wgt>
<wgt id='1664'> +2.8682113E+03 </wgt>
<wgt id='1665'> +2.8651290E+03 </wgt>
<wgt id='1666'> +2.8634889E+03 </wgt>
<wgt id='1667'> +2.8629293E+03 </wgt>
<wgt id='1668'> +2.8707276E+03 </wgt>
<wgt id='1669'> +2.8650642E+03 </wgt>
<wgt id='1670'> +2.8679632E+03 </wgt>
<wgt id='1671'> +2.8693947E+03 </wgt>
<wgt id='1672'> +2.8656118E+03 </wgt>
<wgt id='1673'> +2.8667374E+03 </wgt>
<wgt id='1674'> +2.8645945E+03 </wgt>
<wgt id='1675'> +2.8641236E+03 </wgt>
<wgt id='1676'> +2.8686055E+03 </wgt>
<wgt id='1677'> +2.8649417E+03 </wgt>
<wgt id='1678'> +2.8679397E+03 </wgt>
<wgt id='1679'> +2.8652674E+03 </wgt>
<wgt id='1680'> +2.8687296E+03 </wgt>
<wgt id='1681'> +2.8667047E+03 </wgt>
<wgt id='1682'> +2.8679275E+03 </wgt>
<wgt id='1683'> +2.8710924E+03 </wgt>
<wgt id='1684'> +2.8661187E+03 </wgt>
<wgt id='1685'> +2.8660163E+03 </wgt>
<wgt id='1686'> +2.8685055E+03 </wgt>
<wgt id='1687'> +2.8656310E+03 </wgt>
<wgt id='1688'> +2.8656318E+03 </wgt>
<wgt id='1689'> +2.8682364E+03 </wgt>
<wgt id='1690'> +2.8672957E+03 </wgt>
<wgt id='1691'> +2.8654894E+03 </wgt>
<wgt id='1692'> +2.8649598E+03 </wgt>
<wgt id='1693'> +2.8668775E+03 </wgt>
<wgt id='1694'> +2.8656255E+03 </wgt>
<wgt id='1695'> +2.8685800E+03 </wgt>
<wgt id='1696'> +2.8651162E+03 </wgt>
<wgt id='1697'> +2.8667248E+03 </wgt>
<wgt id='1698'> +2.8648917E+03 </wgt>
<wgt id='1699'> +2.8668025E+03 </wgt>
<wgt id='1700'> +2.8652864E+03 </wgt>
<wgt id='1701'> +2.8671381E+03 </wgt>
<wgt id='1702'> +2.8652908E+03 </wgt>
<wgt id='1703'> +2.8659625E+03 </wgt>
<wgt id='1704'> +2.8668488E+03 </wgt>
<wgt id='1705'> +2.8660013E+03 </wgt>
<wgt id='1706'> +2.8660454E+03 </wgt>
<wgt id='1707'> +2.8668580E+03 </wgt>
<wgt id='1708'> +2.8654501E+03 </wgt>
<wgt id='1709'> +2.8675257E+03 </wgt>
<wgt id='1710'> +2.8660721E+03 </wgt>
<wgt id='1711'> +2.8652486E+03 </wgt>
<wgt id='1712'> +2.8667685E+03 </wgt>
<wgt id='1713'> +2.8667197E+03 </wgt>
<wgt id='1714'> +2.8660933E+03 </wgt>
<wgt id='1715'> +2.8659258E+03 </wgt>
<wgt id='1716'> +2.7900850E+03 </wgt>
<wgt id='1717'> +2.9263644E+03 </wgt>
<wgt id='1718'> +2.7433871E+03 </wgt>
<wgt id='1719'> +2.7309366E+03 </wgt>
<wgt id='1720'> +2.7079074E+03 </wgt>
<wgt id='1721'> +2.7419802E+03 </wgt>
<wgt id='1722'> +2.7742416E+03 </wgt>
<wgt id='1723'> +2.7516293E+03 </wgt>
<wgt id='1724'> +2.7507869E+03 </wgt>
<wgt id='1725'> +2.7450688E+03 </wgt>
<wgt id='1726'> +2.7523100E+03 </wgt>
<wgt id='1727'> +2.7506958E+03 </wgt>
<wgt id='1728'> +2.7484508E+03 </wgt>
<wgt id='1729'> +2.7325291E+03 </wgt>
<wgt id='1730'> +2.7547126E+03 </wgt>
<wgt id='1731'> +2.7448988E+03 </wgt>
<wgt id='1732'> +2.6977719E+03 </wgt>
<wgt id='1733'> +2.7489934E+03 </wgt>
<wgt id='1734'> +2.7456463E+03 </wgt>
<wgt id='1735'> +2.7357645E+03 </wgt>
<wgt id='1736'> +2.7431334E+03 </wgt>
<wgt id='1737'> +2.7546874E+03 </wgt>
<wgt id='1738'> +2.7559724E+03 </wgt>
<wgt id='1739'> +2.7390308E+03 </wgt>
<wgt id='1740'> +2.7378306E+03 </wgt>
<wgt id='1741'> +2.7435024E+03 </wgt>
<wgt id='1742'> +2.7320851E+03 </wgt>
<wgt id='1743'> +2.7466614E+03 </wgt>
<wgt id='1744'> +2.7353255E+03 </wgt>
<wgt id='1745'> +2.7491978E+03 </wgt>
<wgt id='1746'> +2.7403987E+03 </wgt>
<wgt id='1747'> +2.7442581E+03 </wgt>
<wgt id='1748'> +2.7447484E+03 </wgt>
<wgt id='1749'> +2.6820932E+03 </wgt>
<wgt id='1750'> +2.8059132E+03 </wgt>
<wgt id='1751'> +2.8663313E+03 </wgt>
<wgt id='1752'> +2.8749233E+03 </wgt>
<wgt id='1753'> +2.9175290E+03 </wgt>
<wgt id='1754'> +2.8615455E+03 </wgt>
<wgt id='1755'> +2.8437685E+03 </wgt>
<wgt id='1756'> +2.8473002E+03 </wgt>
<wgt id='1757'> +2.8662116E+03 </wgt>
<wgt id='1758'> +2.8637893E+03 </wgt>
<wgt id='1759'> +2.8672649E+03 </wgt>
<wgt id='1760'> +2.8525898E+03 </wgt>
<wgt id='1761'> +2.8676593E+03 </wgt>
<wgt id='1762'> +2.8732938E+03 </wgt>
<wgt id='1763'> +2.8682101E+03 </wgt>
<wgt id='1764'> +2.8713928E+03 </wgt>
<wgt id='1765'> +2.8643291E+03 </wgt>
<wgt id='1766'> +2.8639369E+03 </wgt>
<wgt id='1767'> +2.8619965E+03 </wgt>
<wgt id='1768'> +2.8589995E+03 </wgt>
<wgt id='1769'> +2.8664189E+03 </wgt>
<wgt id='1770'> +2.8729837E+03 </wgt>
<wgt id='1771'> +2.8323220E+03 </wgt>
<wgt id='1772'> +2.8598431E+03 </wgt>
<wgt id='1773'> +2.8741846E+03 </wgt>
<wgt id='1774'> +2.8669777E+03 </wgt>
<wgt id='1775'> +2.8702444E+03 </wgt>
<wgt id='1776'> +2.8706571E+03 </wgt>
<wgt id='1777'> +2.8699297E+03 </wgt>
<wgt id='1778'> +2.8672071E+03 </wgt>
<wgt id='1779'> +2.8744696E+03 </wgt>
<wgt id='1780'> +2.8668072E+03 </wgt>
<wgt id='1781'> +2.8744439E+03 </wgt>
<wgt id='1782'> +2.7900850E+03 </wgt>
<wgt id='1783'> +2.9263644E+03 </wgt>
<wgt id='1784'> +3.0752268E+03 </wgt>
<wgt id='1785'> +3.0809073E+03 </wgt>
<wgt id='1786'> +3.0695816E+03 </wgt>
<wgt id='1787'> +3.0722092E+03 </wgt>
<wgt id='1788'> +3.0782362E+03 </wgt>
<wgt id='1789'> +3.0776432E+03 </wgt>
<wgt id='1790'> +3.0727886E+03 </wgt>
<wgt id='1791'> +3.0659264E+03 </wgt>
<wgt id='1792'> +3.0841910E+03 </wgt>
<wgt id='1793'> +3.0889958E+03 </wgt>
<wgt id='1794'> +3.0614043E+03 </wgt>
<wgt id='1795'> +3.0837051E+03 </wgt>
<wgt id='1796'> +3.0663827E+03 </wgt>
<wgt id='1797'> +3.0668174E+03 </wgt>
<wgt id='1798'> +3.0835040E+03 </wgt>
<wgt id='1799'> +3.0674551E+03 </wgt>
<wgt id='1800'> +3.0823171E+03 </wgt>
<wgt id='1801'> +3.0659365E+03 </wgt>
<wgt id='1802'> +3.0819799E+03 </wgt>
<wgt id='1803'> +3.0713571E+03 </wgt>
<wgt id='1804'> +3.0795827E+03 </wgt>
<wgt id='1805'> +3.0825494E+03 </wgt>
<wgt id='1806'> +3.0656861E+03 </wgt>
<wgt id='1807'> +3.0591326E+03 </wgt>
<wgt id='1808'> +3.0820255E+03 </wgt>
<wgt id='1809'> +3.0971013E+03 </wgt>
<wgt id='1810'> +3.0568222E+03 </wgt>
<wgt id='1811'> +3.0639957E+03 </wgt>
<wgt id='1812'> +3.0818085E+03 </wgt>
<wgt id='1813'> +3.0752268E+03 </wgt>
<wgt id='1814'> +3.1237771E+03 </wgt>
<wgt id='1815'> +3.0166828E+03 </wgt>
<wgt id='1816'> +3.1449439E+03 </wgt>
<wgt id='1817'> +3.0608991E+03 </wgt>
<wgt id='1818'> +3.0936874E+03 </wgt>
<wgt id='1819'> +3.0651558E+03 </wgt>
<wgt id='1820'> +3.0713259E+03 </wgt>
<wgt id='1821'> +3.0795182E+03 </wgt>
<wgt id='1822'> +3.0501102E+03 </wgt>
<wgt id='1823'> +3.1002425E+03 </wgt>
<wgt id='1824'> +3.0654758E+03 </wgt>
<wgt id='1825'> +3.1075642E+03 </wgt>
<wgt id='1826'> +2.9875194E+03 </wgt>
<wgt id='1827'> +3.1754570E+03 </wgt>
<wgt id='1828'> +3.1818263E+03 </wgt>
<wgt id='1829'> +3.1703153E+03 </wgt>
<wgt id='1830'> +3.1719271E+03 </wgt>
<wgt id='1831'> +3.1801923E+03 </wgt>
<wgt id='1832'> +3.1770642E+03 </wgt>
<wgt id='1833'> +3.1750225E+03 </wgt>
<wgt id='1834'> +3.1628271E+03 </wgt>
<wgt id='1835'> +3.1888024E+03 </wgt>
<wgt id='1836'> +3.1874952E+03 </wgt>
<wgt id='1837'> +3.1644669E+03 </wgt>
<wgt id='1838'> +3.1780866E+03 </wgt>
<wgt id='1839'> +3.1739951E+03 </wgt>
<wgt id='1840'> +3.1643345E+03 </wgt>
<wgt id='1841'> +3.1877902E+03 </wgt>
<wgt id='1842'> +3.1715816E+03 </wgt>
<wgt id='1843'> +3.1812169E+03 </wgt>
<wgt id='1844'> +3.1799176E+03 </wgt>
<wgt id='1845'> +3.1716662E+03 </wgt>
<wgt id='1846'> +3.1780524E+03 </wgt>
<wgt id='1847'> +3.1739288E+03 </wgt>
<wgt id='1848'> +3.1561018E+03 </wgt>
<wgt id='1849'> +3.1935738E+03 </wgt>
<wgt id='1850'> +3.1912769E+03 </wgt>
<wgt id='1851'> +3.1619397E+03 </wgt>
<wgt id='1852'> +3.1670271E+03 </wgt>
<wgt id='1853'> +3.1799589E+03 </wgt>
<wgt id='1854'> +3.1702759E+03 </wgt>
<wgt id='1855'> +3.1769680E+03 </wgt>
<wgt id='1856'> +3.1746962E+03 </wgt>
<wgt id='1857'> +3.2319462E+03 </wgt>
<wgt id='1858'> +3.1028423E+03 </wgt>
<wgt id='1859'> +3.2530417E+03 </wgt>
<wgt id='1860'> +3.1537790E+03 </wgt>
<wgt id='1861'> +3.2013683E+03 </wgt>
<wgt id='1862'> +3.1325913E+03 </wgt>
<wgt id='1863'> +3.1704037E+03 </wgt>
<wgt id='1864'> +3.1856866E+03 </wgt>
<wgt id='1865'> +3.1189317E+03 </wgt>
<wgt id='1866'> +3.2117499E+03 </wgt>
<wgt id='1867'> +3.1323720E+03 </wgt>
<wgt id='1868'> +3.2252578E+03 </wgt>
<wgt id='1869'> +3.1037120E+03 </wgt>
<wgt id='1870'> +2.7603065E+03 </wgt>
<wgt id='1871'> +2.7594340E+03 </wgt>
<wgt id='1872'> +2.7585536E+03 </wgt>
<wgt id='1873'> +2.7576805E+03 </wgt>
<wgt id='1874'> +2.7568216E+03 </wgt>
<wgt id='1875'> +2.7559467E+03 </wgt>
<wgt id='1876'> +2.7550800E+03 </wgt>
<wgt id='1877'> +2.7542069E+03 </wgt>
<wgt id='1878'> +2.7533380E+03 </wgt>
<wgt id='1879'> +2.7524656E+03 </wgt>
<wgt id='1880'> +2.7515880E+03 </wgt>
<wgt id='1881'> +2.7507318E+03 </wgt>
<wgt id='1882'> +2.7498626E+03 </wgt>
<wgt id='1883'> +2.7489924E+03 </wgt>
<wgt id='1884'> +2.7481189E+03 </wgt>
<wgt id='1885'> +2.7472539E+03 </wgt>
<wgt id='1886'> +2.7463796E+03 </wgt>
<wgt id='1887'> +2.7455032E+03 </wgt>
<wgt id='1888'> +2.7446431E+03 </wgt>
<wgt id='1889'> +2.7437747E+03 </wgt>
<wgt id='1890'> +2.7429127E+03 </wgt>
<wgt id='1891'> +2.7420359E+03 </wgt>
<wgt id='1892'> +2.7411738E+03 </wgt>
<wgt id='1893'> +2.7402995E+03 </wgt>
<wgt id='1894'> +2.7394330E+03 </wgt>
<wgt id='1895'> +2.7385635E+03 </wgt>
<wgt id='1896'> +2.7376978E+03 </wgt>
<wgt id='1897'> +2.7368368E+03 </wgt>
<wgt id='1898'> +2.7359518E+03 </wgt>
<wgt id='1899'> +2.7350931E+03 </wgt>
<wgt id='1900'> +2.7342261E+03 </wgt>
<wgt id='1901'> +2.8560856E+03 </wgt>
<wgt id='1902'> +2.8623487E+03 </wgt>
<wgt id='1903'> +2.8512204E+03 </wgt>
<wgt id='1904'> +2.8556956E+03 </wgt>
<wgt id='1905'> +2.8663298E+03 </wgt>
<wgt id='1906'> +2.8747353E+03 </wgt>
<wgt id='1907'> +2.8615302E+03 </wgt>
<wgt id='1908'> +2.8601730E+03 </wgt>
<wgt id='1909'> +2.8552179E+03 </wgt>
<wgt id='1910'> +2.8528338E+03 </wgt>
<wgt id='1911'> +2.8530639E+03 </wgt>
<wgt id='1912'> +2.8794428E+03 </wgt>
<wgt id='1913'> +2.8521734E+03 </wgt>
<wgt id='1914'> +2.8580782E+03 </wgt>
<wgt id='1915'> +2.8418119E+03 </wgt>
<wgt id='1916'> +2.8905624E+03 </wgt>
<wgt id='1917'> +2.8478191E+03 </wgt>
<wgt id='1918'> +2.8545808E+03 </wgt>
<wgt id='1919'> +2.8641236E+03 </wgt>
<wgt id='1920'> +2.8245670E+03 </wgt>
<wgt id='1921'> +2.8607657E+03 </wgt>
<wgt id='1922'> +2.8663855E+03 </wgt>
<wgt id='1923'> +2.8279220E+03 </wgt>
<wgt id='1924'> +2.8685952E+03 </wgt>
<wgt id='1925'> +2.8505147E+03 </wgt>
<wgt id='1926'> +2.8512264E+03 </wgt>
<wgt id='1927'> +2.8495354E+03 </wgt>
<wgt id='1928'> +2.8542293E+03 </wgt>
<wgt id='1929'> +2.8639832E+03 </wgt>
<wgt id='1930'> +2.8551589E+03 </wgt>
<wgt id='1931'> +2.8541539E+03 </wgt>
<wgt id='1932'> +2.8667262E+03 </wgt>
<wgt id='1933'> +2.8569133E+03 </wgt>
<wgt id='1934'> +2.8778477E+03 </wgt>
<wgt id='1935'> +2.8624766E+03 </wgt>
<wgt id='1936'> +2.8615920E+03 </wgt>
<wgt id='1937'> +2.8601409E+03 </wgt>
<wgt id='1938'> +2.8527951E+03 </wgt>
<wgt id='1939'> +2.8597400E+03 </wgt>
<wgt id='1940'> +2.8553461E+03 </wgt>
<wgt id='1941'> +2.8585865E+03 </wgt>
<wgt id='1942'> +2.8607895E+03 </wgt>
<wgt id='1943'> +2.8620852E+03 </wgt>
<wgt id='1944'> +2.8491053E+03 </wgt>
<wgt id='1945'> +2.8515977E+03 </wgt>
<wgt id='1946'> +2.8477124E+03 </wgt>
<wgt id='1947'> +2.8531712E+03 </wgt>
<wgt id='1948'> +2.8553881E+03 </wgt>
<wgt id='1949'> +2.8594452E+03 </wgt>
<wgt id='1950'> +2.8578195E+03 </wgt>
<wgt id='1951'> +2.8548396E+03 </wgt>
<wgt id='1952'> +2.8531376E+03 </wgt>
<wgt id='1953'> +2.8525823E+03 </wgt>
<wgt id='1954'> +2.8603503E+03 </wgt>
<wgt id='1955'> +2.8547886E+03 </wgt>
<wgt id='1956'> +2.8576916E+03 </wgt>
<wgt id='1957'> +2.8589068E+03 </wgt>
<wgt id='1958'> +2.8552765E+03 </wgt>
<wgt id='1959'> +2.8565205E+03 </wgt>
<wgt id='1960'> +2.8543443E+03 </wgt>
<wgt id='1961'> +2.8538747E+03 </wgt>
<wgt id='1962'> +2.8582600E+03 </wgt>
<wgt id='1963'> +2.8546857E+03 </wgt>
<wgt id='1964'> +2.8575203E+03 </wgt>
<wgt id='1965'> +2.8550414E+03 </wgt>
<wgt id='1966'> +2.8583637E+03 </wgt>
<wgt id='1967'> +2.8563354E+03 </wgt>
<wgt id='1968'> +2.8575160E+03 </wgt>
<wgt id='1969'> +2.8607166E+03 </wgt>
<wgt id='1970'> +2.8556771E+03 </wgt>
<wgt id='1971'> +2.8556683E+03 </wgt>
<wgt id='1972'> +2.8582127E+03 </wgt>
<wgt id='1973'> +2.8552563E+03 </wgt>
<wgt id='1974'> +2.8552490E+03 </wgt>
<wgt id='1975'> +2.8578617E+03 </wgt>
<wgt id='1976'> +2.8569932E+03 </wgt>
<wgt id='1977'> +2.8552789E+03 </wgt>
<wgt id='1978'> +2.8546517E+03 </wgt>
<wgt id='1979'> +2.8565748E+03 </wgt>
<wgt id='1980'> +2.8552830E+03 </wgt>
<wgt id='1981'> +2.8581418E+03 </wgt>
<wgt id='1982'> +2.8548621E+03 </wgt>
<wgt id='1983'> +2.8564375E+03 </wgt>
<wgt id='1984'> +2.8545891E+03 </wgt>
<wgt id='1985'> +2.8564251E+03 </wgt>
<wgt id='1986'> +2.8549764E+03 </wgt>
<wgt id='1987'> +2.8568873E+03 </wgt>
<wgt id='1988'> +2.8549339E+03 </wgt>
<wgt id='1989'> +2.8555574E+03 </wgt>
<wgt id='1990'> +2.8564534E+03 </wgt>
<wgt id='1991'> +2.8556250E+03 </wgt>
<wgt id='1992'> +2.8556925E+03 </wgt>
<wgt id='1993'> +2.8564468E+03 </wgt>
<wgt id='1994'> +2.8551291E+03 </wgt>
<wgt id='1995'> +2.8570687E+03 </wgt>
<wgt id='1996'> +2.8557832E+03 </wgt>
<wgt id='1997'> +2.8549678E+03 </wgt>
<wgt id='1998'> +2.8564366E+03 </wgt>
<wgt id='1999'> +2.8563571E+03 </wgt>
<wgt id='2000'> +2.8557846E+03 </wgt>
<wgt id='2001'> +2.8556273E+03 </wgt>
<wgt id='2002'> +2.8560782E+03 </wgt>
<wgt id='2003'> +2.8560392E+03 </wgt>
<wgt id='2004'> +2.8560929E+03 </wgt>
<wgt id='2005'> +2.8560943E+03 </wgt>
<wgt id='2006'> +2.8561070E+03 </wgt>
<wgt id='2007'> +2.8560887E+03 </wgt>
<wgt id='2008'> +2.8560549E+03 </wgt>
<wgt id='2009'> +2.7534656E+03 </wgt>
<wgt id='2010'> +2.6584977E+03 </wgt>
<wgt id='2011'> +2.7772806E+03 </wgt>
<wgt id='2012'> +2.9275740E+03 </wgt>
<wgt id='2013'> +2.8476733E+03 </wgt>
<wgt id='2014'> +2.5858161E+03 </wgt>
<wgt id='2015'> +2.6529121E+03 </wgt>
<wgt id='2016'> +2.7924481E+03 </wgt>
<wgt id='2017'> +2.7455812E+03 </wgt>
<wgt id='2018'> +2.7575061E+03 </wgt>
<wgt id='2019'> +2.7033586E+03 </wgt>
<wgt id='2020'> +2.7349546E+03 </wgt>
<wgt id='2021'> +2.7640112E+03 </wgt>
<wgt id='2022'> +2.8167299E+03 </wgt>
<wgt id='2023'> +2.7563076E+03 </wgt>
<wgt id='2024'> +2.7495494E+03 </wgt>
<wgt id='2025'> +2.6915315E+03 </wgt>
<wgt id='2026'> +2.6940688E+03 </wgt>
<wgt id='2027'> +2.6070888E+03 </wgt>
<wgt id='2028'> +2.7508364E+03 </wgt>
<wgt id='2029'> +2.7103013E+03 </wgt>
<wgt id='2030'> +2.8975780E+03 </wgt>
<wgt id='2031'> +2.7916286E+03 </wgt>
<wgt id='2032'> +2.8531463E+03 </wgt>
<wgt id='2033'> +2.7797534E+03 </wgt>
<wgt id='2034'> +2.7627428E+03 </wgt>
<wgt id='2035'> +2.7736211E+03 </wgt>
<wgt id='2036'> +2.6910435E+03 </wgt>
<wgt id='2037'> +2.7197706E+03 </wgt>
<wgt id='2038'> +2.7217892E+03 </wgt>
<wgt id='2039'> +2.7812677E+03 </wgt>
<wgt id='2040'> +2.8253489E+03 </wgt>
<wgt id='2041'> +2.7073073E+03 </wgt>
<wgt id='2042'> +2.7726024E+03 </wgt>
<wgt id='2043'> +2.7658578E+03 </wgt>
<wgt id='2044'> +2.8319686E+03 </wgt>
<wgt id='2045'> +2.7380793E+03 </wgt>
<wgt id='2046'> +2.7155264E+03 </wgt>
<wgt id='2047'> +2.6460806E+03 </wgt>
<wgt id='2048'> +2.7465706E+03 </wgt>
<wgt id='2049'> +2.7878330E+03 </wgt>
<wgt id='2050'> +2.8338051E+03 </wgt>
<wgt id='2051'> +2.7791454E+03 </wgt>
<wgt id='2052'> +2.7729757E+03 </wgt>
<wgt id='2053'> +2.7437282E+03 </wgt>
<wgt id='2054'> +2.8106181E+03 </wgt>
<wgt id='2055'> +2.7344407E+03 </wgt>
<wgt id='2056'> +2.7141230E+03 </wgt>
<wgt id='2057'> +2.7290425E+03 </wgt>
<wgt id='2058'> +2.7621884E+03 </wgt>
<wgt id='2059'> +2.8244966E+03 </wgt>
<wgt id='2060'> +2.7978172E+03 </wgt>
<wgt id='2061'> +2.7281052E+03 </wgt>
<wgt id='2062'> +2.7181868E+03 </wgt>
<wgt id='2063'> +2.8028356E+03 </wgt>
<wgt id='2064'> +2.7645324E+03 </wgt>
<wgt id='2065'> +2.7263988E+03 </wgt>
<wgt id='2066'> +2.8250421E+03 </wgt>
<wgt id='2067'> +2.8103158E+03 </wgt>
<wgt id='2068'> +2.7923215E+03 </wgt>
<wgt id='2069'> +2.8047814E+03 </wgt>
<wgt id='2070'> +2.7329721E+03 </wgt>
<wgt id='2071'> +2.7584335E+03 </wgt>
<wgt id='2072'> +2.7165542E+03 </wgt>
<wgt id='2073'> +2.6563208E+03 </wgt>
<wgt id='2074'> +2.7981053E+03 </wgt>
<wgt id='2075'> +2.7346228E+03 </wgt>
<wgt id='2076'> +2.7753259E+03 </wgt>
<wgt id='2077'> +2.8012062E+03 </wgt>
<wgt id='2078'> +2.7048644E+03 </wgt>
<wgt id='2079'> +2.7088704E+03 </wgt>
<wgt id='2080'> +2.7698054E+03 </wgt>
<wgt id='2081'> +2.6467475E+03 </wgt>
<wgt id='2082'> +2.6031587E+03 </wgt>
<wgt id='2083'> +2.7881947E+03 </wgt>
<wgt id='2084'> +2.7678124E+03 </wgt>
<wgt id='2085'> +2.6636596E+03 </wgt>
<wgt id='2086'> +2.7313692E+03 </wgt>
<wgt id='2087'> +2.8026939E+03 </wgt>
<wgt id='2088'> +2.6926351E+03 </wgt>
<wgt id='2089'> +2.8150004E+03 </wgt>
<wgt id='2090'> +2.8456556E+03 </wgt>
<wgt id='2091'> +2.8307364E+03 </wgt>
<wgt id='2092'> +2.6912183E+03 </wgt>
<wgt id='2093'> +2.7820634E+03 </wgt>
<wgt id='2094'> +2.7181279E+03 </wgt>
<wgt id='2095'> +2.7359481E+03 </wgt>
<wgt id='2096'> +2.7682577E+03 </wgt>
<wgt id='2097'> +2.8304847E+03 </wgt>
<wgt id='2098'> +2.6981186E+03 </wgt>
<wgt id='2099'> +2.7933794E+03 </wgt>
<wgt id='2100'> +2.8022139E+03 </wgt>
<wgt id='2101'> +2.7342695E+03 </wgt>
<wgt id='2102'> +2.7214513E+03 </wgt>
<wgt id='2103'> +2.7677197E+03 </wgt>
<wgt id='2104'> +2.6586729E+03 </wgt>
<wgt id='2105'> +2.7379159E+03 </wgt>
<wgt id='2106'> +2.7846487E+03 </wgt>
<wgt id='2107'> +2.7979776E+03 </wgt>
<wgt id='2108'> +2.8018614E+03 </wgt>
<wgt id='2109'> +2.6586597E+03 </wgt>
<wgt id='2110'> +2.7204710E+03 </wgt>
<wgt id='2111'> +2.7899825E+03 </wgt>
<wgt id='2112'> +2.8524058E+03 </wgt>
<wgt id='2113'> +2.9738421E+03 </wgt>
<wgt id='2114'> +3.2784126E+03 </wgt>
<wgt id='2115'> +2.5537258E+03 </wgt>
<wgt id='2116'> +3.0748399E+03 </wgt>
</rwgt>
</event>
<event>
 5      0 +2.9771057E+03 8.19028000e+01 7.54677100e-03 1.19949800e-01
        4 -1    0    0  501    0 +0.0000000000e+00 +0.0000000000e+00 +1.1377692491e+02 1.1377692491e+02 0.0000000000e+00 0.0000e+00 -1.0000e+00
       -3 -1    0    0    0  501 -0.0000000000e+00 -0.0000000000e+00 -1.4739519460e+01 1.4739519460e+01 0.0000000000e+00 0.0000e+00 1.0000e+00
       24  2    1    2    0    0 +0.0000000000e+00 +0.0000000000e+00 +9.9037405451e+01 1.2851644437e+02 8.1902800899e+01 0.0000e+00 0.0000e+00
      -13  1    3    3    0    0 -8.5184714569e+00 -1.3816152785e+01 -9.4766918927e+00 1.8795162223e+01 0.0000000000e+00 0.0000e+00 1.0000e+00
       14  1    3    3    0    0 +8.5184714569e+00 +1.3816152785e+01 +1.0851409734e+02 1.0972128215e+02 0.0000000000e+00 0.0000e+00 -1.0000e+00
<scales pt_clust_4="13000.00000" pt_clust_5="13000.00000"></scales>
<mgrwt>
<rscale>  0 0.81902801E+02</rscale>
<asrwt>0</asrwt>
<pdfrwt beam="1">  1        4 0.17504142E-01 0.81902801E+02</pdfrwt>
<pdfrwt beam="2">  1       -3 0.22676184E-02 0.81902801E+02</pdfrwt>
<totfact> 0.54969225E+04</totfact>
</mgrwt>
<clustering>
<clus scale="   81.903">  4  5 -1 -1</clus>
<clus scale="   81.903">  1  4  2 -1</clus>
</clustering>
<rwgt>
<wgt id='1001'> +2.9771057E+03 </wgt>
<wgt id='1002'> +2.2385429E+03 </wgt>
<wgt id='1003'> +2.2385429E+03 </wgt>
<wgt id='1004'> +1.6625098E+03 </wgt>
<wgt id='1005'> +2.9771057E+03 </wgt>
<wgt id='1006'> +2.9771057E+03 </wgt>
<wgt id='1007'> +2.2385429E+03 </wgt>
<wgt id='1008'> +2.2385429E+03 </wgt>
<wgt id='1009'> +1.6625098E+03 </wgt>
<wgt id='1010'> +2.9771057E+03 </wgt>
<wgt id='1011'> +2.9771057E+03 </wgt>
<wgt id='1012'> +2.2385429E+03 </wgt>
<wgt id='1013'> +2.2385429E+03 </wgt>
<wgt id='1014'> +1.6625098E+03 </wgt>
<wgt id='1015'> +2.9771057E+03 </wgt>
<wgt id='1016'> +3.4960457E+03 </wgt>
<wgt id='1017'> +2.7960353E+03 </wgt>
<wgt id='1018'> +2.7960353E+03 </wgt>
<wgt id='1019'> +2.2385429E+03 </wgt>
<wgt id='1020'> +3.4960457E+03 </wgt>
<wgt id='1021'> +3.4960457E+03 </wgt>
<wgt id='1022'> +2.7960353E+03 </wgt>
<wgt id='1023'> +2.7960353E+03 </wgt>
<wgt id='1024'> +2.2385429E+03 </wgt>
<wgt id='1025'> +3.4960457E+03 </wgt>
<wgt id='1026'> +3.4960457E+03 </wgt>
<wgt id='1027'> +2.7960353E+03 </wgt>
<wgt id='1028'> +2.7960353E+03 </wgt>
<wgt id='1029'> +2.2385429E+03 </wgt>
<wgt id='1030'> +3.4960457E+03 </wgt>
<wgt id='1031'> +2.4280795E+03 </wgt>
<wgt id='1032'> +1.6625098E+03 </wgt>
<wgt id='1033'> +1.6625098E+03 </wgt>
<wgt id='1034'> +1.0860274E+03 </wgt>
<wgt id='1035'> +2.4280795E+03 </wgt>
<wgt id='1036'> +2.4280795E+03 </wgt>
<wgt id='1037'> +1.6625098E+03 </wgt>
<wgt id='1038'> +1.6625098E+03 </wgt>
<wgt id='1039'> +1.0860274E+03 </wgt>
<wgt id='1040'> +2.4280795E+03 </wgt>
<wgt id='1041'> +2.4280795E+03 </wgt>
<wgt id='1042'> +1.6625098E+03 </wgt>
<wgt id='1043'> +1.6625098E+03 </wgt>
<wgt id='1044'> +1.0860274E+03 </wgt>
<wgt id='1045'> +2.4280795E+03 </wgt>
<wgt id='1046'> +2.9771057E+03 </wgt>
<wgt id='1047'> +2.9755658E+03 </wgt>
<wgt id='1048'> +2.9734130E+03 </wgt>
<wgt id='1049'> +2.9829712E+03 </wgt>
<wgt id='1050'> +2.8993283E+03 </wgt>
<wgt id='1051'> +2.9788962E+03 </wgt>
<wgt id='1052'> +3.0153542E+03 </wgt>
<wgt id='1053'> +2.9821907E+03 </wgt>
<wgt id='1054'> +3.0112901E+03 </wgt>
<wgt id='1055'> +2.9103565E+03 </wgt>
<wgt id='1056'> +3.0370420E+03 </wgt>
<wgt id='1057'> +3.0240759E+03 </wgt>
<wgt id='1058'> +2.9487733E+03 </wgt>
<wgt id='1059'> +3.0025713E+03 </wgt>
<wgt id='1060'> +2.9176584E+03 </wgt>
<wgt id='1061'> +2.9440099E+03 </wgt>
<wgt id='1062'> +2.9191264E+03 </wgt>
<wgt id='1063'> +3.0025655E+03 </wgt>
<wgt id='1064'> +3.0084334E+03 </wgt>
<wgt id='1065'> +2.9847907E+03 </wgt>
<wgt id='1066'> +2.9973280E+03 </wgt>
<wgt id='1067'> +2.9426723E+03 </wgt>
<wgt id='1068'> +2.9755281E+03 </wgt>
<wgt id='1069'> +3.0135752E+03 </wgt>
<wgt id='1070'> +2.9769801E+03 </wgt>
<wgt id='1071'> +2.9706189E+03 </wgt>
<wgt id='1072'> +3.0015505E+03 </wgt>
<wgt id='1073'> +2.9760277E+03 </wgt>
<wgt id='1074'> +2.9797177E+03 </wgt>
<wgt id='1075'> +2.9793144E+03 </wgt>
<wgt id='1076'> +2.9629225E+03 </wgt>
<wgt id='1077'> +2.9726036E+03 </wgt>
<wgt id='1078'> +2.9781750E+03 </wgt>
<wgt id='1079'> +2.9739964E+03 </wgt>
<wgt id='1080'> +2.9808602E+03 </wgt>
<wgt id='1081'> +2.9788689E+03 </wgt>
<wgt id='1082'> +2.9707100E+03 </wgt>
<wgt id='1083'> +2.9863162E+03 </wgt>
<wgt id='1084'> +2.9696938E+03 </wgt>
<wgt id='1085'> +2.9860334E+03 </wgt>
<wgt id='1086'> +2.9760809E+03 </wgt>
<wgt id='1087'> +2.9690104E+03 </wgt>
<wgt id='1088'> +2.9815910E+03 </wgt>
<wgt id='1089'> +2.9791765E+03 </wgt>
<wgt id='1090'> +2.9674632E+03 </wgt>
<wgt id='1091'> +2.9696209E+03 </wgt>
<wgt id='1092'> +2.9724636E+03 </wgt>
<wgt id='1093'> +2.9917670E+03 </wgt>
<wgt id='1094'> +2.9604829E+03 </wgt>
<wgt id='1095'> +2.9854281E+03 </wgt>
<wgt id='1096'> +2.9718795E+03 </wgt>
<wgt id='1097'> +2.9672504E+03 </wgt>
<wgt id='1098'> +2.9862471E+03 </wgt>
<wgt id='1099'> +2.9736591E+03 </wgt>
<wgt id='1100'> +2.9721978E+03 </wgt>
<wgt id='1101'> +2.9760713E+03 </wgt>
<wgt id='1102'> +2.9832615E+03 </wgt>
<wgt id='1103'> +2.9680079E+03 </wgt>
<wgt id='1104'> +2.9619520E+03 </wgt>
<wgt id='1105'> +2.9815059E+03 </wgt>
<wgt id='1106'> +2.9709363E+03 </wgt>
<wgt id='1107'> +2.9855290E+03 </wgt>
<wgt id='1108'> +2.9740353E+03 </wgt>
<wgt id='1109'> +2.9838387E+03 </wgt>
<wgt id='1110'> +2.9845728E+03 </wgt>
<wgt id='1111'> +2.9704521E+03 </wgt>
<wgt id='1112'> +2.9776865E+03 </wgt>
<wgt id='1113'> +2.9850150E+03 </wgt>
<wgt id='1114'> +2.9716910E+03 </wgt>
<wgt id='1115'> +2.9712483E+03 </wgt>
<wgt id='1116'> +2.9822397E+03 </wgt>
<wgt id='1117'> +2.9919102E+03 </wgt>
<wgt id='1118'> +2.9692266E+03 </wgt>
<wgt id='1119'> +2.9706303E+03 </wgt>
<wgt id='1120'> +2.9803207E+03 </wgt>
<wgt id='1121'> +2.9792173E+03 </wgt>
<wgt id='1122'> +2.9771710E+03 </wgt>
<wgt id='1123'> +2.9867463E+03 </wgt>
<wgt id='1124'> +2.9736891E+03 </wgt>
<wgt id='1125'> +2.9743781E+03 </wgt>
<wgt id='1126'> +2.9754891E+03 </wgt>
<wgt id='1127'> +2.9751868E+03 </wgt>
<wgt id='1128'> +2.9761354E+03 </wgt>
<wgt id='1129'> +2.9785424E+03 </wgt>
<wgt id='1130'> +2.9825786E+03 </wgt>
<wgt id='1131'> +2.9790650E+03 </wgt>
<wgt id='1132'> +2.9721333E+03 </wgt>
<wgt id='1133'> +2.9741123E+03 </wgt>
<wgt id='1134'> +2.9761491E+03 </wgt>
<wgt id='1135'> +2.9801000E+03 </wgt>
<wgt id='1136'> +2.9803237E+03 </wgt>
<wgt id='1137'> +2.9699004E+03 </wgt>
<wgt id='1138'> +2.9791230E+03 </wgt>
<wgt id='1139'> +2.9748079E+03 </wgt>
<wgt id='1140'> +2.9813031E+03 </wgt>
<wgt id='1141'> +2.9776753E+03 </wgt>
<wgt id='1142'> +2.9795439E+03 </wgt>
<wgt id='1143'> +2.9726177E+03 </wgt>
<wgt id='1144'> +2.9760156E+03 </wgt>
<wgt id='1145'> +2.9769575E+03 </wgt>
<wgt id='1146'> +2.9799889E+03 </wgt>
<wgt id='1147'> +2.8536780E+03 </wgt>
<wgt id='1148'> +3.0550215E+03 </wgt>
<wgt id='1149'> +2.3872753E+03 </wgt>
<wgt id='1150'> +2.5212980E+03 </wgt>
<wgt id='1151'> +2.6427591E+03 </wgt>
<wgt id='1152'> +2.7439144E+03 </wgt>
<wgt id='1153'> +2.9011400E+03 </wgt>
<wgt id='1154'> +3.0099100E+03 </wgt>
<wgt id='1155'> +3.1897651E+03 </wgt>
<wgt id='1156'> +3.3022381E+03 </wgt>
<wgt id='1157'> +2.8042558E+03 </wgt>
<wgt id='1158'> +2.8200671E+03 </wgt>
<wgt id='1159'> +2.7831426E+03 </wgt>
<wgt id='1160'> +2.8140989E+03 </wgt>
<wgt id='1161'> +2.7289297E+03 </wgt>
<wgt id='1162'> +2.7988353E+03 </wgt>
<wgt id='1163'> +2.8309436E+03 </wgt>
<wgt id='1164'> +2.7866037E+03 </wgt>
<wgt id='1165'> +2.8183182E+03 </wgt>
<wgt id='1166'> +2.7748011E+03 </wgt>
<wgt id='1167'> +2.8880985E+03 </wgt>
<wgt id='1168'> +2.8258005E+03 </wgt>
<wgt id='1169'> +2.7869757E+03 </wgt>
<wgt id='1170'> +2.7816584E+03 </wgt>
<wgt id='1171'> +2.7647324E+03 </wgt>
<wgt id='1172'> +2.8676931E+03 </wgt>
<wgt id='1173'> +2.7522984E+03 </wgt>
<wgt id='1174'> +2.8337986E+03 </wgt>
<wgt id='1175'> +2.7869007E+03 </wgt>
<wgt id='1176'> +2.8005985E+03 </wgt>
<wgt id='1177'> +2.8302549E+03 </wgt>
<wgt id='1178'> +2.7504140E+03 </wgt>
<wgt id='1179'> +2.7995487E+03 </wgt>
<wgt id='1180'> +2.8027829E+03 </wgt>
<wgt id='1181'> +2.7791310E+03 </wgt>
<wgt id='1182'> +2.8219405E+03 </wgt>
<wgt id='1183'> +2.8094856E+03 </wgt>
<wgt id='1184'> +2.8026535E+03 </wgt>
<wgt id='1185'> +2.8021374E+03 </wgt>
<wgt id='1186'> +2.7827853E+03 </wgt>
<wgt id='1187'> +2.8019852E+03 </wgt>
<wgt id='1188'> +2.8085185E+03 </wgt>
<wgt id='1189'> +2.8090155E+03 </wgt>
<wgt id='1190'> +2.8033236E+03 </wgt>
<wgt id='1191'> +2.7968516E+03 </wgt>
<wgt id='1192'> +2.8023284E+03 </wgt>
<wgt id='1193'> +2.8048064E+03 </wgt>
<wgt id='1194'> +2.8042193E+03 </wgt>
<wgt id='1195'> +2.8028057E+03 </wgt>
<wgt id='1196'> +2.8133758E+03 </wgt>
<wgt id='1197'> +2.7999340E+03 </wgt>
<wgt id='1198'> +2.8283375E+03 </wgt>
<wgt id='1199'> +2.8107422E+03 </wgt>
<wgt id='1200'> +2.8004256E+03 </wgt>
<wgt id='1201'> +2.8149743E+03 </wgt>
<wgt id='1202'> +2.7977365E+03 </wgt>
<wgt id='1203'> +2.8036452E+03 </wgt>
<wgt id='1204'> +2.8085534E+03 </wgt>
<wgt id='1205'> +2.8076140E+03 </wgt>
<wgt id='1206'> +2.7878732E+03 </wgt>
<wgt id='1207'> +2.7919952E+03 </wgt>
<wgt id='1208'> +2.7915806E+03 </wgt>
<wgt id='1209'> +2.8159689E+03 </wgt>
<wgt id='1210'> +2.8101714E+03 </wgt>
<wgt id='1211'> +2.8089193E+03 </wgt>
<wgt id='1212'> +2.8081417E+03 </wgt>
<wgt id='1213'> +2.7889450E+03 </wgt>
<wgt id='1214'> +2.8130870E+03 </wgt>
<wgt id='1215'> +2.8095853E+03 </wgt>
<wgt id='1216'> +2.8044636E+03 </wgt>
<wgt id='1217'> +2.7981499E+03 </wgt>
<wgt id='1218'> +2.7946546E+03 </wgt>
<wgt id='1219'> +2.7945201E+03 </wgt>
<wgt id='1220'> +2.7967508E+03 </wgt>
<wgt id='1221'> +2.8053057E+03 </wgt>
<wgt id='1222'> +2.8014353E+03 </wgt>
<wgt id='1223'> +2.7927386E+03 </wgt>
<wgt id='1224'> +2.8171942E+03 </wgt>
<wgt id='1225'> +2.8113021E+03 </wgt>
<wgt id='1226'> +2.8098701E+03 </wgt>
<wgt id='1227'> +2.8119841E+03 </wgt>
<wgt id='1228'> +2.7991536E+03 </wgt>
<wgt id='1229'> +2.8070825E+03 </wgt>
<wgt id='1230'> +2.8064485E+03 </wgt>
<wgt id='1231'> +2.7910793E+03 </wgt>
<wgt id='1232'> +2.8063267E+03 </wgt>
<wgt id='1233'> +2.7984315E+03 </wgt>
<wgt id='1234'> +2.8012026E+03 </wgt>
<wgt id='1235'> +2.8034348E+03 </wgt>
<wgt id='1236'> +2.8089930E+03 </wgt>
<wgt id='1237'> +2.8013478E+03 </wgt>
<wgt id='1238'> +2.8087063E+03 </wgt>
<wgt id='1239'> +2.8108630E+03 </wgt>
<wgt id='1240'> +2.8071373E+03 </wgt>
<wgt id='1241'> +2.8019823E+03 </wgt>
<wgt id='1242'> +2.7968770E+03 </wgt>
<wgt id='1243'> +2.8053669E+03 </wgt>
<wgt id='1244'> +2.8109316E+03 </wgt>
<wgt id='1245'> +2.8032626E+03 </wgt>
<wgt id='1246'> +2.8046031E+03 </wgt>
<wgt id='1247'> +2.8025663E+03 </wgt>
<wgt id='1248'> +2.8093023E+03 </wgt>
<wgt id='1249'> +2.8070330E+03 </wgt>
<wgt id='1250'> +2.7968097E+03 </wgt>
<wgt id='1251'> +2.8089404E+03 </wgt>
<wgt id='1252'> +2.8072217E+03 </wgt>
<wgt id='1253'> +2.7984439E+03 </wgt>
<wgt id='1254'> +2.8011873E+03 </wgt>
<wgt id='1255'> +2.8077724E+03 </wgt>
<wgt id='1256'> +2.8011148E+03 </wgt>
<wgt id='1257'> +2.8027427E+03 </wgt>
<wgt id='1258'> +2.6906717E+03 </wgt>
<wgt id='1259'> +2.8981474E+03 </wgt>
<wgt id='1260'> +3.0958392E+03 </wgt>
<wgt id='1261'> +3.0805903E+03 </wgt>
<wgt id='1262'> +3.0735764E+03 </wgt>
<wgt id='1263'> +3.0508535E+03 </wgt>
<wgt id='1264'> +3.1362398E+03 </wgt>
<wgt id='1265'> +3.0362872E+03 </wgt>
<wgt id='1266'> +3.1587762E+03 </wgt>
<wgt id='1267'> +3.1161946E+03 </wgt>
<wgt id='1268'> +3.0430605E+03 </wgt>
<wgt id='1269'> +3.1436503E+03 </wgt>
<wgt id='1270'> +3.0722618E+03 </wgt>
<wgt id='1271'> +3.0632816E+03 </wgt>
<wgt id='1272'> +3.0903226E+03 </wgt>
<wgt id='1273'> +3.0039753E+03 </wgt>
<wgt id='1274'> +3.0913530E+03 </wgt>
<wgt id='1275'> +3.1198242E+03 </wgt>
<wgt id='1276'> +3.0193260E+03 </wgt>
<wgt id='1277'> +3.1078529E+03 </wgt>
<wgt id='1278'> +3.0827529E+03 </wgt>
<wgt id='1279'> +3.0843620E+03 </wgt>
<wgt id='1280'> +3.1071653E+03 </wgt>
<wgt id='1281'> +3.1176987E+03 </wgt>
<wgt id='1282'> +3.0818767E+03 </wgt>
<wgt id='1283'> +3.0792067E+03 </wgt>
<wgt id='1284'> +3.1128892E+03 </wgt>
<wgt id='1285'> +3.0712390E+03 </wgt>
<wgt id='1286'> +3.1161566E+03 </wgt>
<wgt id='1287'> +3.1442210E+03 </wgt>
<wgt id='1288'> +3.0147117E+03 </wgt>
<wgt id='1289'> +3.0194322E+03 </wgt>
<wgt id='1290'> +3.1417475E+03 </wgt>
<wgt id='1291'> +3.0553894E+03 </wgt>
<wgt id='1292'> +3.1535727E+03 </wgt>
<wgt id='1293'> +3.0519934E+03 </wgt>
<wgt id='1294'> +3.1338628E+03 </wgt>
<wgt id='1295'> +3.0251348E+03 </wgt>
<wgt id='1296'> +3.1548799E+03 </wgt>
<wgt id='1297'> +3.1046092E+03 </wgt>
<wgt id='1298'> +3.0836958E+03 </wgt>
<wgt id='1299'> +2.9273977E+03 </wgt>
<wgt id='1300'> +3.2588984E+03 </wgt>
<wgt id='1301'> +3.0422368E+03 </wgt>
<wgt id='1302'> +3.1056656E+03 </wgt>
<wgt id='1303'> +3.1456004E+03 </wgt>
<wgt id='1304'> +2.9796337E+03 </wgt>
<wgt id='1305'> +3.2272116E+03 </wgt>
<wgt id='1306'> +3.0698317E+03 </wgt>
<wgt id='1307'> +3.1310104E+03 </wgt>
<wgt id='1308'> +3.1165779E+03 </wgt>
<wgt id='1309'> +3.0907623E+03 </wgt>
<wgt id='1310'> +3.1152409E+03 </wgt>
<wgt id='1311'> +3.1047117E+03 </wgt>
<wgt id='1312'> +3.0975592E+03 </wgt>
<wgt id='1313'> +3.0781787E+03 </wgt>
<wgt id='1314'> +3.2079446E+03 </wgt>
<wgt id='1315'> +3.3838534E+03 </wgt>
<wgt id='1316'> +2.8478099E+03 </wgt>
<wgt id='1317'> +3.0125122E+03 </wgt>
<wgt id='1318'> +3.1595940E+03 </wgt>
<wgt id='1319'> +3.0053225E+03 </wgt>
<wgt id='1320'> +3.0115641E+03 </wgt>
<wgt id='1321'> +3.0143157E+03 </wgt>
<wgt id='1322'> +3.0804037E+03 </wgt>
<wgt id='1323'> +2.9864981E+03 </wgt>
<wgt id='1324'> +3.0237017E+03 </wgt>
<wgt id='1325'> +2.9909774E+03 </wgt>
<wgt id='1326'> +3.0845970E+03 </wgt>
<wgt id='1327'> +2.9659244E+03 </wgt>
<wgt id='1328'> +2.9202294E+03 </wgt>
<wgt id='1329'> +3.0726493E+03 </wgt>
<wgt id='1330'> +3.0268034E+03 </wgt>
<wgt id='1331'> +2.9976137E+03 </wgt>
<wgt id='1332'> +2.8938480E+03 </wgt>
<wgt id='1333'> +3.0596939E+03 </wgt>
<wgt id='1334'> +2.8293513E+03 </wgt>
<wgt id='1335'> +3.2000735E+03 </wgt>
<wgt id='1336'> +2.9520464E+03 </wgt>
<wgt id='1337'> +3.0675867E+03 </wgt>
<wgt id='1338'> +3.0366455E+03 </wgt>
<wgt id='1339'> +2.9683332E+03 </wgt>
<wgt id='1340'> +3.0007919E+03 </wgt>
<wgt id='1341'> +3.0102282E+03 </wgt>
<wgt id='1342'> +2.9914009E+03 </wgt>
<wgt id='1343'> +3.0154611E+03 </wgt>
<wgt id='1344'> +2.9504259E+03 </wgt>
<wgt id='1345'> +3.0571506E+03 </wgt>
<wgt id='1346'> +2.9988439E+03 </wgt>
<wgt id='1347'> +3.0121884E+03 </wgt>
<wgt id='1348'> +2.9849374E+03 </wgt>
<wgt id='1349'> +3.0121521E+03 </wgt>
<wgt id='1350'> +3.0098617E+03 </wgt>
<wgt id='1351'> +2.9989029E+03 </wgt>
<wgt id='1352'> +3.0102776E+03 </wgt>
<wgt id='1353'> +2.9925618E+03 </wgt>
<wgt id='1354'> +3.0748729E+03 </wgt>
<wgt id='1355'> +2.9384625E+03 </wgt>
<wgt id='1356'> +3.0223880E+03 </wgt>
<wgt id='1357'> +2.9640487E+03 </wgt>
<wgt id='1358'> +2.9901178E+03 </wgt>
<wgt id='1359'> +2.9822493E+03 </wgt>
<wgt id='1360'> +3.0314914E+03 </wgt>
<wgt id='1361'> +2.9815328E+03 </wgt>
<wgt id='1362'> +3.0374646E+03 </wgt>
<wgt id='1363'> +2.9660108E+03 </wgt>
<wgt id='1364'> +2.9564375E+03 </wgt>
<wgt id='1365'> +2.9921272E+03 </wgt>
<wgt id='1366'> +2.9573698E+03 </wgt>
<wgt id='1367'> +3.0440790E+03 </wgt>
<wgt id='1368'> +3.0229132E+03 </wgt>
<wgt id='1369'> +2.9419597E+03 </wgt>
<wgt id='1370'> +2.9880075E+03 </wgt>
<wgt id='1371'> +2.9898531E+03 </wgt>
<wgt id='1372'> +2.9008468E+03 </wgt>
<wgt id='1373'> +3.0003398E+03 </wgt>
<wgt id='1374'> +3.2641593E+03 </wgt>
<wgt id='1375'> +2.7966516E+03 </wgt>
<wgt id='1376'> +2.9182503E+03 </wgt>
<wgt id='1377'> +3.0821736E+03 </wgt>
<wgt id='1378'> +1.9983103E+03 </wgt>
<wgt id='1379'> +3.0036985E+03 </wgt>
<wgt id='1380'> +3.0079528E+03 </wgt>
<wgt id='1381'> +2.9991511E+03 </wgt>
<wgt id='1382'> +3.0068457E+03 </wgt>
<wgt id='1383'> +3.0016219E+03 </wgt>
<wgt id='1384'> +3.0075514E+03 </wgt>
<wgt id='1385'> +3.0000770E+03 </wgt>
<wgt id='1386'> +2.9867230E+03 </wgt>
<wgt id='1387'> +3.0226616E+03 </wgt>
<wgt id='1388'> +3.0156780E+03 </wgt>
<wgt id='1389'> +2.9920580E+03 </wgt>
<wgt id='1390'> +3.0053870E+03 </wgt>
<wgt id='1391'> +3.0001833E+03 </wgt>
<wgt id='1392'> +2.9924401E+03 </wgt>
<wgt id='1393'> +3.0236954E+03 </wgt>
<wgt id='1394'> +2.9839109E+03 </wgt>
<wgt id='1395'> +3.0148698E+03 </wgt>
<wgt id='1396'> +2.9308461E+03 </wgt>
<wgt id='1397'> +3.0890978E+03 </wgt>
<wgt id='1398'> +2.8985794E+03 </wgt>
<wgt id='1399'> +3.0947439E+03 </wgt>
<wgt id='1400'> +2.9973110E+03 </wgt>
<wgt id='1401'> +3.0124729E+03 </wgt>
<wgt id='1402'> +2.9833419E+03 </wgt>
<wgt id='1403'> +3.0182973E+03 </wgt>
<wgt id='1404'> +2.9747766E+03 </wgt>
<wgt id='1405'> +3.0217554E+03 </wgt>
<wgt id='1406'> +3.0090398E+03 </wgt>
<wgt id='1407'> +3.0085399E+03 </wgt>
<wgt id='1408'> +3.0295253E+03 </wgt>
<wgt id='1409'> +2.9734503E+03 </wgt>
<wgt id='1410'> +3.0267508E+03 </wgt>
<wgt id='1411'> +2.9765435E+03 </wgt>
<wgt id='1412'> +3.0169833E+03 </wgt>
<wgt id='1413'> +2.9899839E+03 </wgt>
<wgt id='1414'> +3.0051943E+03 </wgt>
<wgt id='1415'> +3.0083145E+03 </wgt>
<wgt id='1416'> +3.0229275E+03 </wgt>
<wgt id='1417'> +2.9942983E+03 </wgt>
<wgt id='1418'> +2.9960655E+03 </wgt>
<wgt id='1419'> +3.0121312E+03 </wgt>
<wgt id='1420'> +3.2133308E+03 </wgt>
<wgt id='1421'> +2.8354051E+03 </wgt>
<wgt id='1422'> +2.9040267E+03 </wgt>
<wgt id='1423'> +3.1252303E+03 </wgt>
<wgt id='1424'> +3.0428194E+03 </wgt>
<wgt id='1425'> +2.9124562E+03 </wgt>
<wgt id='1426'> +2.9756144E+03 </wgt>
<wgt id='1427'> +3.0198163E+03 </wgt>
<wgt id='1428'> +2.9872871E+03 </wgt>
<wgt id='1429'> +3.0105572E+03 </wgt>
<wgt id='1430'> +3.1951782E+03 </wgt>
<wgt id='1431'> +3.1974840E+03 </wgt>
<wgt id='1432'> +3.1923099E+03 </wgt>
<wgt id='1433'> +3.2058354E+03 </wgt>
<wgt id='1434'> +3.1845437E+03 </wgt>
<wgt id='1435'> +3.2031755E+03 </wgt>
<wgt id='1436'> +3.1918584E+03 </wgt>
<wgt id='1437'> +3.1721132E+03 </wgt>
<wgt id='1438'> +3.2182789E+03 </wgt>
<wgt id='1439'> +3.2025127E+03 </wgt>
<wgt id='1440'> +3.1879550E+03 </wgt>
<wgt id='1441'> +3.1779650E+03 </wgt>
<wgt id='1442'> +3.2029902E+03 </wgt>
<wgt id='1443'> +3.1968250E+03 </wgt>
<wgt id='1444'> +3.1932213E+03 </wgt>
<wgt id='1445'> +3.1731986E+03 </wgt>
<wgt id='1446'> +3.2187277E+03 </wgt>
<wgt id='1447'> +3.0796614E+03 </wgt>
<wgt id='1448'> +3.2589226E+03 </wgt>
<wgt id='1449'> +3.2541616E+03 </wgt>
<wgt id='1450'> +3.1166333E+03 </wgt>
<wgt id='1451'> +3.1123221E+03 </wgt>
<wgt id='1452'> +3.2534296E+03 </wgt>
<wgt id='1453'> +3.2415813E+03 </wgt>
<wgt id='1454'> +3.1488229E+03 </wgt>
<wgt id='1455'> +3.2100148E+03 </wgt>
<wgt id='1456'> +3.1590478E+03 </wgt>
<wgt id='1457'> +3.2087842E+03 </wgt>
<wgt id='1458'> +3.1930961E+03 </wgt>
<wgt id='1459'> +3.1736020E+03 </wgt>
<wgt id='1460'> +3.2497579E+03 </wgt>
<wgt id='1461'> +3.2025397E+03 </wgt>
<wgt id='1462'> +3.1813369E+03 </wgt>
<wgt id='1463'> +3.1862790E+03 </wgt>
<wgt id='1464'> +3.2151798E+03 </wgt>
<wgt id='1465'> +3.1943440E+03 </wgt>
<wgt id='1466'> +3.1984046E+03 </wgt>
<wgt id='1467'> +3.1980644E+03 </wgt>
<wgt id='1468'> +3.1958272E+03 </wgt>
<wgt id='1469'> +3.1848362E+03 </wgt>
<wgt id='1470'> +3.2024645E+03 </wgt>
<wgt id='1471'> +3.0606821E+03 </wgt>
<wgt id='1472'> +3.4473875E+03 </wgt>
<wgt id='1473'> +3.1825691E+03 </wgt>
<wgt id='1474'> +3.2714840E+03 </wgt>
<wgt id='1475'> +3.2856613E+03 </wgt>
<wgt id='1476'> +3.1142849E+03 </wgt>
<wgt id='1477'> +3.1249911E+03 </wgt>
<wgt id='1478'> +3.2232701E+03 </wgt>
<wgt id='1479'> +3.1456876E+03 </wgt>
<wgt id='1480'> +3.2277484E+03 </wgt>
<wgt id='1481'> +2.5822604E+03 </wgt>
<wgt id='1482'> +3.3886924E+03 </wgt>
<wgt id='1483'> +3.3877695E+03 </wgt>
<wgt id='1484'> +3.3891559E+03 </wgt>
<wgt id='1485'> +3.3863566E+03 </wgt>
<wgt id='1486'> +3.3888093E+03 </wgt>
<wgt id='1487'> +3.3959204E+03 </wgt>
<wgt id='1488'> +3.4023276E+03 </wgt>
<wgt id='1489'> +3.3660643E+03 </wgt>
<wgt id='1490'> +3.3981226E+03 </wgt>
<wgt id='1491'> +3.3994754E+03 </wgt>
<wgt id='1492'> +3.3946330E+03 </wgt>
<wgt id='1493'> +3.3912478E+03 </wgt>
<wgt id='1494'> +3.4123574E+03 </wgt>
<wgt id='1495'> +3.3799898E+03 </wgt>
<wgt id='1496'> +3.4048249E+03 </wgt>
<wgt id='1497'> +3.3858789E+03 </wgt>
<wgt id='1498'> +3.3995977E+03 </wgt>
<wgt id='1499'> +3.3893067E+03 </wgt>
<wgt id='1500'> +3.3870696E+03 </wgt>
<wgt id='1501'> +3.3892558E+03 </wgt>
<wgt id='1502'> +3.3756217E+03 </wgt>
<wgt id='1503'> +3.4203246E+03 </wgt>
<wgt id='1504'> +3.3650464E+03 </wgt>
<wgt id='1505'> +3.3994626E+03 </wgt>
<wgt id='1506'> +3.4045879E+03 </wgt>
<wgt id='1507'> +3.4191755E+03 </wgt>
<wgt id='1508'> +3.3915221E+03 </wgt>
<wgt id='1509'> +3.3772217E+03 </wgt>
<wgt id='1510'> +3.3995014E+03 </wgt>
<wgt id='1511'> +3.3494497E+03 </wgt>
<wgt id='1512'> +3.0281458E+03 </wgt>
<wgt id='1513'> +3.0171323E+03 </wgt>
<wgt id='1514'> +3.0704333E+03 </wgt>
<wgt id='1515'> +2.8480121E+03 </wgt>
<wgt id='1516'> +3.0709911E+03 </wgt>
<wgt id='1517'> +3.0406786E+03 </wgt>
<wgt id='1518'> +3.0680405E+03 </wgt>
<wgt id='1519'> +3.0437838E+03 </wgt>
<wgt id='1520'> +3.0949354E+03 </wgt>
<wgt id='1521'> +3.0296078E+03 </wgt>
<wgt id='1522'> +3.0316617E+03 </wgt>
<wgt id='1523'> +3.1137221E+03 </wgt>
<wgt id='1524'> +2.9737673E+03 </wgt>
<wgt id='1525'> +3.0335647E+03 </wgt>
<wgt id='1526'> +3.0044752E+03 </wgt>
<wgt id='1527'> +3.0255775E+03 </wgt>
<wgt id='1528'> +3.0394814E+03 </wgt>
<wgt id='1529'> +2.9806731E+03 </wgt>
<wgt id='1530'> +3.0333613E+03 </wgt>
<wgt id='1531'> +3.0083409E+03 </wgt>
<wgt id='1532'> +3.0110067E+03 </wgt>
<wgt id='1533'> +3.0335598E+03 </wgt>
<wgt id='1534'> +3.0459972E+03 </wgt>
<wgt id='1535'> +3.0255429E+03 </wgt>
<wgt id='1536'> +3.0340941E+03 </wgt>
<wgt id='1537'> +3.0469747E+03 </wgt>
<wgt id='1538'> +3.0305637E+03 </wgt>
<wgt id='1539'> +3.0318525E+03 </wgt>
<wgt id='1540'> +3.0297822E+03 </wgt>
<wgt id='1541'> +3.0271226E+03 </wgt>
<wgt id='1542'> +3.0313490E+03 </wgt>
<wgt id='1543'> +3.0296608E+03 </wgt>
<wgt id='1544'> +3.0273973E+03 </wgt>
<wgt id='1545'> +3.0284887E+03 </wgt>
<wgt id='1546'> +3.0357358E+03 </wgt>
<wgt id='1547'> +3.0272600E+03 </wgt>
<wgt id='1548'> +3.0290191E+03 </wgt>
<wgt id='1549'> +3.0298246E+03 </wgt>
<wgt id='1550'> +3.0271061E+03 </wgt>
<wgt id='1551'> +3.0307210E+03 </wgt>
<wgt id='1552'> +3.0295963E+03 </wgt>
<wgt id='1553'> +3.0280865E+03 </wgt>
<wgt id='1554'> +3.0283845E+03 </wgt>
<wgt id='1555'> +3.0252518E+03 </wgt>
<wgt id='1556'> +3.0294989E+03 </wgt>
<wgt id='1557'> +3.0286813E+03 </wgt>
<wgt id='1558'> +3.0289784E+03 </wgt>
<wgt id='1559'> +3.0305586E+03 </wgt>
<wgt id='1560'> +3.0254411E+03 </wgt>
<wgt id='1561'> +3.0292813E+03 </wgt>
<wgt id='1562'> +3.0251714E+03 </wgt>
<wgt id='1563'> +3.0254160E+03 </wgt>
<wgt id='1564'> +3.0232190E+03 </wgt>
<wgt id='1565'> +3.0278614E+03 </wgt>
<wgt id='1566'> +3.0289260E+03 </wgt>
<wgt id='1567'> +3.0277438E+03 </wgt>
<wgt id='1568'> +3.0307500E+03 </wgt>
<wgt id='1569'> +3.0247908E+03 </wgt>
<wgt id='1570'> +3.0277977E+03 </wgt>
<wgt id='1571'> +3.0284841E+03 </wgt>
<wgt id='1572'> +3.0281972E+03 </wgt>
<wgt id='1573'> +3.0296632E+03 </wgt>
<wgt id='1574'> +3.0293256E+03 </wgt>
<wgt id='1575'> +3.0286261E+03 </wgt>
<wgt id='1576'> +3.0284977E+03 </wgt>
<wgt id='1577'> +3.0282559E+03 </wgt>
<wgt id='1578'> +3.0305685E+03 </wgt>
<wgt id='1579'> +3.0293891E+03 </wgt>
<wgt id='1580'> +3.0287367E+03 </wgt>
<wgt id='1581'> +3.0285183E+03 </wgt>
<wgt id='1582'> +3.0250696E+03 </wgt>
<wgt id='1583'> +3.0280795E+03 </wgt>
<wgt id='1584'> +3.0271276E+03 </wgt>
<wgt id='1585'> +3.0268018E+03 </wgt>
<wgt id='1586'> +3.0260103E+03 </wgt>
<wgt id='1587'> +3.0288529E+03 </wgt>
<wgt id='1588'> +3.0298465E+03 </wgt>
<wgt id='1589'> +3.0264985E+03 </wgt>
<wgt id='1590'> +3.0293923E+03 </wgt>
<wgt id='1591'> +3.0296089E+03 </wgt>
<wgt id='1592'> +3.0288868E+03 </wgt>
<wgt id='1593'> +3.0277687E+03 </wgt>
<wgt id='1594'> +3.0305608E+03 </wgt>
<wgt id='1595'> +3.0282266E+03 </wgt>
<wgt id='1596'> +3.0292734E+03 </wgt>
<wgt id='1597'> +3.0281654E+03 </wgt>
<wgt id='1598'> +3.0306556E+03 </wgt>
<wgt id='1599'> +3.0297666E+03 </wgt>
<wgt id='1600'> +3.0290186E+03 </wgt>
<wgt id='1601'> +3.0283938E+03 </wgt>
<wgt id='1602'> +3.0279944E+03 </wgt>
<wgt id='1603'> +3.0259304E+03 </wgt>
<wgt id='1604'> +3.0272245E+03 </wgt>
<wgt id='1605'> +3.0279716E+03 </wgt>
<wgt id='1606'> +3.0267389E+03 </wgt>
<wgt id='1607'> +3.0267366E+03 </wgt>
<wgt id='1608'> +3.0268896E+03 </wgt>
<wgt id='1609'> +3.0286359E+03 </wgt>
<wgt id='1610'> +3.0287039E+03 </wgt>
<wgt id='1611'> +3.0288543E+03 </wgt>
<wgt id='1612'> +3.0280487E+03 </wgt>
<wgt id='1613'> +2.9682863E+03 </wgt>
<wgt id='1614'> +3.0825346E+03 </wgt>
<wgt id='1615'> +3.1636623E+03 </wgt>
<wgt id='1616'> +3.1729819E+03 </wgt>
<wgt id='1617'> +3.1965231E+03 </wgt>
<wgt id='1618'> +3.1050021E+03 </wgt>
<wgt id='1619'> +3.0601584E+03 </wgt>
<wgt id='1620'> +3.0495864E+03 </wgt>
<wgt id='1621'> +3.0928376E+03 </wgt>
<wgt id='1622'> +3.1622161E+03 </wgt>
<wgt id='1623'> +3.1753653E+03 </wgt>
<wgt id='1624'> +3.1330529E+03 </wgt>
<wgt id='1625'> +3.2033690E+03 </wgt>
<wgt id='1626'> +3.0647946E+03 </wgt>
<wgt id='1627'> +3.0958869E+03 </wgt>
<wgt id='1628'> +3.0793701E+03 </wgt>
<wgt id='1629'> +3.1354325E+03 </wgt>
<wgt id='1630'> +3.1554385E+03 </wgt>
<wgt id='1631'> +3.1914282E+03 </wgt>
<wgt id='1632'> +3.1784546E+03 </wgt>
<wgt id='1633'> +3.1294536E+03 </wgt>
<wgt id='1634'> +3.1696014E+03 </wgt>
<wgt id='1635'> +3.1976286E+03 </wgt>
<wgt id='1636'> +3.1551099E+03 </wgt>
<wgt id='1637'> +3.1619184E+03 </wgt>
<wgt id='1638'> +3.1584414E+03 </wgt>
<wgt id='1639'> +3.1573620E+03 </wgt>
<wgt id='1640'> +3.1667970E+03 </wgt>
<wgt id='1641'> +3.1441664E+03 </wgt>
<wgt id='1642'> +3.1719157E+03 </wgt>
<wgt id='1643'> +3.1687978E+03 </wgt>
<wgt id='1644'> +3.1624166E+03 </wgt>
<wgt id='1645'> +3.1604180E+03 </wgt>
<wgt id='1646'> +3.1700563E+03 </wgt>
<wgt id='1647'> +3.1609084E+03 </wgt>
<wgt id='1648'> +3.1642181E+03 </wgt>
<wgt id='1649'> +3.1625120E+03 </wgt>
<wgt id='1650'> +3.1667354E+03 </wgt>
<wgt id='1651'> +3.1686458E+03 </wgt>
<wgt id='1652'> +3.1694313E+03 </wgt>
<wgt id='1653'> +3.1594881E+03 </wgt>
<wgt id='1654'> +3.1604119E+03 </wgt>
<wgt id='1655'> +3.1608075E+03 </wgt>
<wgt id='1656'> +3.1644935E+03 </wgt>
<wgt id='1657'> +3.1608126E+03 </wgt>
<wgt id='1658'> +3.1636235E+03 </wgt>
<wgt id='1659'> +3.1646347E+03 </wgt>
<wgt id='1660'> +3.1655201E+03 </wgt>
<wgt id='1661'> +3.1643762E+03 </wgt>
<wgt id='1662'> +3.1605482E+03 </wgt>
<wgt id='1663'> +3.1668083E+03 </wgt>
<wgt id='1664'> +3.1567918E+03 </wgt>
<wgt id='1665'> +3.1633666E+03 </wgt>
<wgt id='1666'> +3.1637223E+03 </wgt>
<wgt id='1667'> +3.1618525E+03 </wgt>
<wgt id='1668'> +3.1646672E+03 </wgt>
<wgt id='1669'> +3.1656655E+03 </wgt>
<wgt id='1670'> +3.1616609E+03 </wgt>
<wgt id='1671'> +3.1640852E+03 </wgt>
<wgt id='1672'> +3.1632955E+03 </wgt>
<wgt id='1673'> +3.1667258E+03 </wgt>
<wgt id='1674'> +3.1651613E+03 </wgt>
<wgt id='1675'> +3.1638974E+03 </wgt>
<wgt id='1676'> +3.1646827E+03 </wgt>
<wgt id='1677'> +3.1655788E+03 </wgt>
<wgt id='1678'> +3.1639511E+03 </wgt>
<wgt id='1679'> +3.1639903E+03 </wgt>
<wgt id='1680'> +3.1633746E+03 </wgt>
<wgt id='1681'> +3.1636321E+03 </wgt>
<wgt id='1682'> +3.1626480E+03 </wgt>
<wgt id='1683'> +3.1654502E+03 </wgt>
<wgt id='1684'> +3.1645329E+03 </wgt>
<wgt id='1685'> +3.1625854E+03 </wgt>
<wgt id='1686'> +3.1659502E+03 </wgt>
<wgt id='1687'> +3.1643928E+03 </wgt>
<wgt id='1688'> +3.1615987E+03 </wgt>
<wgt id='1689'> +3.1652249E+03 </wgt>
<wgt id='1690'> +3.1647487E+03 </wgt>
<wgt id='1691'> +3.1654974E+03 </wgt>
<wgt id='1692'> +3.1637247E+03 </wgt>
<wgt id='1693'> +3.1642775E+03 </wgt>
<wgt id='1694'> +3.1636739E+03 </wgt>
<wgt id='1695'> +3.1637724E+03 </wgt>
<wgt id='1696'> +3.1657890E+03 </wgt>
<wgt id='1697'> +3.1647023E+03 </wgt>
<wgt id='1698'> +3.1630465E+03 </wgt>
<wgt id='1699'> +3.1626293E+03 </wgt>
<wgt id='1700'> +3.1633378E+03 </wgt>
<wgt id='1701'> +3.1654397E+03 </wgt>
<wgt id='1702'> +3.1616651E+03 </wgt>
<wgt id='1703'> +3.1629391E+03 </wgt>
<wgt id='1704'> +3.1628762E+03 </wgt>
<wgt id='1705'> +3.1634029E+03 </wgt>
<wgt id='1706'> +3.1628553E+03 </wgt>
<wgt id='1707'> +3.1636731E+03 </wgt>
<wgt id='1708'> +3.1641606E+03 </wgt>
<wgt id='1709'> +3.1625983E+03 </wgt>
<wgt id='1710'> +3.1636119E+03 </wgt>
<wgt id='1711'> +3.1638243E+03 </wgt>
<wgt id='1712'> +3.1643306E+03 </wgt>
<wgt id='1713'> +3.1633673E+03 </wgt>
<wgt id='1714'> +3.1636783E+03 </wgt>
<wgt id='1715'> +3.1643868E+03 </wgt>
<wgt id='1716'> +3.0970481E+03 </wgt>
<wgt id='1717'> +3.1883418E+03 </wgt>
<wgt id='1718'> +3.0282101E+03 </wgt>
<wgt id='1719'> +2.9942106E+03 </wgt>
<wgt id='1720'> +3.0819818E+03 </wgt>
<wgt id='1721'> +3.0259141E+03 </wgt>
<wgt id='1722'> +2.9853866E+03 </wgt>
<wgt id='1723'> +3.0648592E+03 </wgt>
<wgt id='1724'> +3.0326462E+03 </wgt>
<wgt id='1725'> +3.0241929E+03 </wgt>
<wgt id='1726'> +3.0400263E+03 </wgt>
<wgt id='1727'> +2.9674116E+03 </wgt>
<wgt id='1728'> +3.0376297E+03 </wgt>
<wgt id='1729'> +3.1983501E+03 </wgt>
<wgt id='1730'> +3.0334839E+03 </wgt>
<wgt id='1731'> +3.0231515E+03 </wgt>
<wgt id='1732'> +3.0681242E+03 </wgt>
<wgt id='1733'> +3.0399611E+03 </wgt>
<wgt id='1734'> +3.0281833E+03 </wgt>
<wgt id='1735'> +3.0130161E+03 </wgt>
<wgt id='1736'> +3.0301224E+03 </wgt>
<wgt id='1737'> +3.0445112E+03 </wgt>
<wgt id='1738'> +3.0272618E+03 </wgt>
<wgt id='1739'> +3.0377917E+03 </wgt>
<wgt id='1740'> +3.0178113E+03 </wgt>
<wgt id='1741'> +3.0229791E+03 </wgt>
<wgt id='1742'> +3.0156306E+03 </wgt>
<wgt id='1743'> +3.0297537E+03 </wgt>
<wgt id='1744'> +3.0001892E+03 </wgt>
<wgt id='1745'> +3.0398431E+03 </wgt>
<wgt id='1746'> +3.0337748E+03 </wgt>
<wgt id='1747'> +3.0850251E+03 </wgt>
<wgt id='1748'> +3.0253952E+03 </wgt>
<wgt id='1749'> +2.9682863E+03 </wgt>
<wgt id='1750'> +3.0825346E+03 </wgt>
<wgt id='1751'> +3.1637344E+03 </wgt>
<wgt id='1752'> +3.2239705E+03 </wgt>
<wgt id='1753'> +3.0825015E+03 </wgt>
<wgt id='1754'> +3.1588352E+03 </wgt>
<wgt id='1755'> +3.3179053E+03 </wgt>
<wgt id='1756'> +3.1084904E+03 </wgt>
<wgt id='1757'> +3.1722444E+03 </wgt>
<wgt id='1758'> +3.1619046E+03 </wgt>
<wgt id='1759'> +3.1704877E+03 </wgt>
<wgt id='1760'> +3.1941798E+03 </wgt>
<wgt id='1761'> +3.2119438E+03 </wgt>
<wgt id='1762'> +3.1104651E+03 </wgt>
<wgt id='1763'> +3.1594904E+03 </wgt>
<wgt id='1764'> +3.1625727E+03 </wgt>
<wgt id='1765'> +3.1605174E+03 </wgt>
<wgt id='1766'> +3.1627739E+03 </wgt>
<wgt id='1767'> +3.1547873E+03 </wgt>
<wgt id='1768'> +3.1928179E+03 </wgt>
<wgt id='1769'> +3.1649192E+03 </wgt>
<wgt id='1770'> +3.1877625E+03 </wgt>
<wgt id='1771'> +3.1346273E+03 </wgt>
<wgt id='1772'> +3.1541913E+03 </wgt>
<wgt id='1773'> +3.1938183E+03 </wgt>
<wgt id='1774'> +3.1631701E+03 </wgt>
<wgt id='1775'> +3.1551964E+03 </wgt>
<wgt id='1776'> +3.1982076E+03 </wgt>
<wgt id='1777'> +3.1682864E+03 </wgt>
<wgt id='1778'> +3.1469113E+03 </wgt>
<wgt id='1779'> +3.1521793E+03 </wgt>
<wgt id='1780'> +3.1776288E+03 </wgt>
<wgt id='1781'> +3.1288550E+03 </wgt>
<wgt id='1782'> +3.0970481E+03 </wgt>
<wgt id='1783'> +3.1883418E+03 </wgt>
<wgt id='1784'> +3.1458050E+03 </wgt>
<wgt id='1785'> +3.1440468E+03 </wgt>
<wgt id='1786'> +3.1475595E+03 </wgt>
<wgt id='1787'> +3.1541606E+03 </wgt>
<wgt id='1788'> +3.1374656E+03 </wgt>
<wgt id='1789'> +3.1513284E+03 </wgt>
<wgt id='1790'> +3.1402893E+03 </wgt>
<wgt id='1791'> +3.1523402E+03 </wgt>
<wgt id='1792'> +3.1393221E+03 </wgt>
<wgt id='1793'> +3.1535236E+03 </wgt>
<wgt id='1794'> +3.1382095E+03 </wgt>
<wgt id='1795'> +3.1420754E+03 </wgt>
<wgt id='1796'> +3.1492313E+03 </wgt>
<wgt id='1797'> +3.1335093E+03 </wgt>
<wgt id='1798'> +3.1581654E+03 </wgt>
<wgt id='1799'> +3.1443666E+03 </wgt>
<wgt id='1800'> +3.1454048E+03 </wgt>
<wgt id='1801'> +3.1519232E+03 </wgt>
<wgt id='1802'> +3.1366026E+03 </wgt>
<wgt id='1803'> +3.1342843E+03 </wgt>
<wgt id='1804'> +3.1577896E+03 </wgt>
<wgt id='1805'> +3.1580903E+03 </wgt>
<wgt id='1806'> +3.1288247E+03 </wgt>
<wgt id='1807'> +3.1284493E+03 </wgt>
<wgt id='1808'> +3.1442337E+03 </wgt>
<wgt id='1809'> +3.1564052E+03 </wgt>
<wgt id='1810'> +3.1405203E+03 </wgt>
<wgt id='1811'> +3.1451161E+03 </wgt>
<wgt id='1812'> +3.1499294E+03 </wgt>
<wgt id='1813'> +3.1458050E+03 </wgt>
<wgt id='1814'> +2.9716030E+03 </wgt>
<wgt id='1815'> +3.3621970E+03 </wgt>
<wgt id='1816'> +2.9367959E+03 </wgt>
<wgt id='1817'> +3.2799214E+03 </wgt>
<wgt id='1818'> +3.1609252E+03 </wgt>
<wgt id='1819'> +3.1234829E+03 </wgt>
<wgt id='1820'> +3.1315916E+03 </wgt>
<wgt id='1821'> +3.1593130E+03 </wgt>
<wgt id='1822'> +3.1777583E+03 </wgt>
<wgt id='1823'> +3.1163823E+03 </wgt>
<wgt id='1824'> +3.1583487E+03 </wgt>
<wgt id='1825'> +3.1023208E+03 </wgt>
<wgt id='1826'> +3.0948724E+03 </wgt>
<wgt id='1827'> +3.1800065E+03 </wgt>
<wgt id='1828'> +3.1805824E+03 </wgt>
<wgt id='1829'> +3.1792212E+03 </wgt>
<wgt id='1830'> +3.1843180E+03 </wgt>
<wgt id='1831'> +3.1754889E+03 </wgt>
<wgt id='1832'> +3.1878273E+03 </wgt>
<wgt id='1833'> +3.1719918E+03 </wgt>
<wgt id='1834'> +3.1904263E+03 </wgt>
<wgt id='1835'> +3.1693607E+03 </wgt>
<wgt id='1836'> +3.1837072E+03 </wgt>
<wgt id='1837'> +3.1760918E+03 </wgt>
<wgt id='1838'> +3.1877679E+03 </wgt>
<wgt id='1839'> +3.1720613E+03 </wgt>
<wgt id='1840'> +3.1697002E+03 </wgt>
<wgt id='1841'> +3.1901937E+03 </wgt>
<wgt id='1842'> +3.1752343E+03 </wgt>
<wgt id='1843'> +3.1851281E+03 </wgt>
<wgt id='1844'> +3.1799089E+03 </wgt>
<wgt id='1845'> +3.1790193E+03 </wgt>
<wgt id='1846'> +3.1738766E+03 </wgt>
<wgt id='1847'> +3.1856209E+03 </wgt>
<wgt id='1848'> +3.1492357E+03 </wgt>
<wgt id='1849'> +3.2046761E+03 </wgt>
<wgt id='1850'> +3.1836648E+03 </wgt>
<wgt id='1851'> +3.1750572E+03 </wgt>
<wgt id='1852'> +3.1693546E+03 </wgt>
<wgt id='1853'> +3.1799689E+03 </wgt>
<wgt id='1854'> +3.1813496E+03 </wgt>
<wgt id='1855'> +3.1831052E+03 </wgt>
<wgt id='1856'> +3.1800065E+03 </wgt>
<wgt id='1857'> +2.9844103E+03 </wgt>
<wgt id='1858'> +3.4195451E+03 </wgt>
<wgt id='1859'> +2.9450091E+03 </wgt>
<wgt id='1860'> +3.3317504E+03 </wgt>
<wgt id='1861'> +3.1826816E+03 </wgt>
<wgt id='1862'> +3.1674517E+03 </wgt>
<wgt id='1863'> +3.1658014E+03 </wgt>
<wgt id='1864'> +3.2008161E+03 </wgt>
<wgt id='1865'> +3.2193951E+03 </wgt>
<wgt id='1866'> +3.1538178E+03 </wgt>
<wgt id='1867'> +3.1796949E+03 </wgt>
<wgt id='1868'> +3.1583678E+03 </wgt>
<wgt id='1869'> +3.1485912E+03 </wgt>
<wgt id='1870'> +2.9772176E+03 </wgt>
<wgt id='1871'> +2.9766243E+03 </wgt>
<wgt id='1872'> +2.9760371E+03 </wgt>
<wgt id='1873'> +2.9754440E+03 </wgt>
<wgt id='1874'> +2.9748596E+03 </wgt>
<wgt id='1875'> +2.9742664E+03 </wgt>
<wgt id='1876'> +2.9736953E+03 </wgt>
<wgt id='1877'> +2.9731026E+03 </wgt>
<wgt id='1878'> +2.9725126E+03 </wgt>
<wgt id='1879'> +2.9719209E+03 </wgt>
<wgt id='1880'> +2.9713268E+03 </wgt>
<wgt id='1881'> +2.9707339E+03 </wgt>
<wgt id='1882'> +2.9701470E+03 </wgt>
<wgt id='1883'> +2.9695556E+03 </wgt>
<wgt id='1884'> +2.9689862E+03 </wgt>
<wgt id='1885'> +2.9683933E+03 </wgt>
<wgt id='1886'> +2.9678038E+03 </wgt>
<wgt id='1887'> +2.9672114E+03 </wgt>
<wgt id='1888'> +2.9666185E+03 </wgt>
<wgt id='1889'> +2.9660329E+03 </wgt>
<wgt id='1890'> +2.9654406E+03 </wgt>
<wgt id='1891'> +2.9648540E+03 </wgt>
<wgt id='1892'> +2.9642719E+03 </wgt>
<wgt id='1893'> +2.9636852E+03 </wgt>
<wgt id='1894'> +2.9630913E+03 </wgt>
<wgt id='1895'> +2.9625054E+03 </wgt>
<wgt id='1896'> +2.9619127E+03 </wgt>
<wgt id='1897'> +2.9613260E+03 </wgt>
<wgt id='1898'> +2.9607341E+03 </wgt>
<wgt id='1899'> +2.9601487E+03 </wgt>
<wgt id='1900'> +2.9595723E+03 </wgt>
<wgt id='1901'> +3.1400780E+03 </wgt>
<wgt id='1902'> +3.1479888E+03 </wgt>
<wgt id='1903'> +3.1725801E+03 </wgt>
<wgt id='1904'> +3.0815752E+03 </wgt>
<wgt id='1905'> +3.0366713E+03 </wgt>
<wgt id='1906'> +3.0263505E+03 </wgt>
<wgt id='1907'> +3.0704723E+03 </wgt>
<wgt id='1908'> +3.1396896E+03 </wgt>
<wgt id='1909'> +3.1518127E+03 </wgt>
<wgt id='1910'> +3.1096260E+03 </wgt>
<wgt id='1911'> +3.1791613E+03 </wgt>
<wgt id='1912'> +3.0429804E+03 </wgt>
<wgt id='1913'> +3.0733194E+03 </wgt>
<wgt id='1914'> +3.0565453E+03 </wgt>
<wgt id='1915'> +3.1120811E+03 </wgt>
<wgt id='1916'> +3.1303770E+03 </wgt>
<wgt id='1917'> +3.1690389E+03 </wgt>
<wgt id='1918'> +3.1542212E+03 </wgt>
<wgt id='1919'> +3.1057298E+03 </wgt>
<wgt id='1920'> +3.1468740E+03 </wgt>
<wgt id='1921'> +3.1747828E+03 </wgt>
<wgt id='1922'> +3.1311861E+03 </wgt>
<wgt id='1923'> +3.1380987E+03 </wgt>
<wgt id='1924'> +3.1353108E+03 </wgt>
<wgt id='1925'> +3.1332413E+03 </wgt>
<wgt id='1926'> +3.1423380E+03 </wgt>
<wgt id='1927'> +3.1197796E+03 </wgt>
<wgt id='1928'> +3.1493371E+03 </wgt>
<wgt id='1929'> +3.1455929E+03 </wgt>
<wgt id='1930'> +3.1382821E+03 </wgt>
<wgt id='1931'> +3.1364020E+03 </wgt>
<wgt id='1932'> +3.1474441E+03 </wgt>
<wgt id='1933'> +3.1368873E+03 </wgt>
<wgt id='1934'> +3.1401859E+03 </wgt>
<wgt id='1935'> +3.1389653E+03 </wgt>
<wgt id='1936'> +3.1428418E+03 </wgt>
<wgt id='1937'> +3.1451227E+03 </wgt>
<wgt id='1938'> +3.1457092E+03 </wgt>
<wgt id='1939'> +3.1357629E+03 </wgt>
<wgt id='1940'> +3.1364222E+03 </wgt>
<wgt id='1941'> +3.1372570E+03 </wgt>
<wgt id='1942'> +3.1408129E+03 </wgt>
<wgt id='1943'> +3.1371780E+03 </wgt>
<wgt id='1944'> +3.1405350E+03 </wgt>
<wgt id='1945'> +3.1409048E+03 </wgt>
<wgt id='1946'> +3.1418886E+03 </wgt>
<wgt id='1947'> +3.1410888E+03 </wgt>
<wgt id='1948'> +3.1368915E+03 </wgt>
<wgt id='1949'> +3.1433798E+03 </wgt>
<wgt id='1950'> +3.1331808E+03 </wgt>
<wgt id='1951'> +3.1398598E+03 </wgt>
<wgt id='1952'> +3.1400217E+03 </wgt>
<wgt id='1953'> +3.1382546E+03 </wgt>
<wgt id='1954'> +3.1410216E+03 </wgt>
<wgt id='1955'> +3.1422146E+03 </wgt>
<wgt id='1956'> +3.1382355E+03 </wgt>
<wgt id='1957'> +3.1401581E+03 </wgt>
<wgt id='1958'> +3.1397953E+03 </wgt>
<wgt id='1959'> +3.1433741E+03 </wgt>
<wgt id='1960'> +3.1417196E+03 </wgt>
<wgt id='1961'> +3.1404616E+03 </wgt>
<wgt id='1962'> +3.1411473E+03 </wgt>
<wgt id='1963'> +3.1419404E+03 </wgt>
<wgt id='1964'> +3.1401732E+03 </wgt>
<wgt id='1965'> +3.1405848E+03 </wgt>
<wgt id='1966'> +3.1397195E+03 </wgt>
<wgt id='1967'> +3.1399715E+03 </wgt>
<wgt id='1968'> +3.1389048E+03 </wgt>
<wgt id='1969'> +3.1418435E+03 </wgt>
<wgt id='1970'> +3.1407403E+03 </wgt>
<wgt id='1971'> +3.1389734E+03 </wgt>
<wgt id='1972'> +3.1423922E+03 </wgt>
<wgt id='1973'> +3.1406704E+03 </wgt>
<wgt id='1974'> +3.1379531E+03 </wgt>
<wgt id='1975'> +3.1416100E+03 </wgt>
<wgt id='1976'> +3.1411936E+03 </wgt>
<wgt id='1977'> +3.1420800E+03 </wgt>
<wgt id='1978'> +3.1401691E+03 </wgt>
<wgt id='1979'> +3.1407721E+03 </wgt>
<wgt id='1980'> +3.1400509E+03 </wgt>
<wgt id='1981'> +3.1400217E+03 </wgt>
<wgt id='1982'> +3.1423389E+03 </wgt>
<wgt id='1983'> +3.1411796E+03 </wgt>
<wgt id='1984'> +3.1394958E+03 </wgt>
<wgt id='1985'> +3.1389969E+03 </wgt>
<wgt id='1986'> +3.1398138E+03 </wgt>
<wgt id='1987'> +3.1420787E+03 </wgt>
<wgt id='1988'> +3.1380236E+03 </wgt>
<wgt id='1989'> +3.1392285E+03 </wgt>
<wgt id='1990'> +3.1391842E+03 </wgt>
<wgt id='1991'> +3.1397446E+03 </wgt>
<wgt id='1992'> +3.1391203E+03 </wgt>
<wgt id='1993'> +3.1399236E+03 </wgt>
<wgt id='1994'> +3.1405738E+03 </wgt>
<wgt id='1995'> +3.1388265E+03 </wgt>
<wgt id='1996'> +3.1400296E+03 </wgt>
<wgt id='1997'> +3.1403315E+03 </wgt>
<wgt id='1998'> +3.1407353E+03 </wgt>
<wgt id='1999'> +3.1397247E+03 </wgt>
<wgt id='2000'> +3.1401565E+03 </wgt>
<wgt id='2001'> +3.1408489E+03 </wgt>
<wgt id='2002'> +3.1400606E+03 </wgt>
<wgt id='2003'> +3.1399741E+03 </wgt>
<wgt id='2004'> +3.1400938E+03 </wgt>
<wgt id='2005'> +3.1400973E+03 </wgt>
<wgt id='2006'> +3.1401256E+03 </wgt>
<wgt id='2007'> +3.1400848E+03 </wgt>
<wgt id='2008'> +3.1400099E+03 </wgt>
<wgt id='2009'> +3.0813805E+03 </wgt>
<wgt id='2010'> +2.7562637E+03 </wgt>
<wgt id='2011'> +2.7973713E+03 </wgt>
<wgt id='2012'> +2.7043284E+03 </wgt>
<wgt id='2013'> +2.9230582E+03 </wgt>
<wgt id='2014'> +2.6325516E+03 </wgt>
<wgt id='2015'> +3.1647330E+03 </wgt>
<wgt id='2016'> +3.1076192E+03 </wgt>
<wgt id='2017'> +3.0642772E+03 </wgt>
<wgt id='2018'> +3.1296934E+03 </wgt>
<wgt id='2019'> +3.4073347E+03 </wgt>
<wgt id='2020'> +3.9456368E+03 </wgt>
<wgt id='2021'> +3.0361689E+03 </wgt>
<wgt id='2022'> +2.7205340E+03 </wgt>
<wgt id='2023'> +3.1924893E+03 </wgt>
<wgt id='2024'> +3.1554557E+03 </wgt>
<wgt id='2025'> +3.2025864E+03 </wgt>
<wgt id='2026'> +3.1632934E+03 </wgt>
<wgt id='2027'> +3.1192750E+03 </wgt>
<wgt id='2028'> +3.0666292E+03 </wgt>
<wgt id='2029'> +2.8579822E+03 </wgt>
<wgt id='2030'> +2.8775338E+03 </wgt>
<wgt id='2031'> +3.4100862E+03 </wgt>
<wgt id='2032'> +3.2530810E+03 </wgt>
<wgt id='2033'> +2.8680998E+03 </wgt>
<wgt id='2034'> +2.9920743E+03 </wgt>
<wgt id='2035'> +3.1797215E+03 </wgt>
<wgt id='2036'> +2.9641069E+03 </wgt>
<wgt id='2037'> +3.1005932E+03 </wgt>
<wgt id='2038'> +2.8106135E+03 </wgt>
<wgt id='2039'> +2.9175844E+03 </wgt>
<wgt id='2040'> +2.6860491E+03 </wgt>
<wgt id='2041'> +3.7794014E+03 </wgt>
<wgt id='2042'> +2.9815658E+03 </wgt>
<wgt id='2043'> +3.1498771E+03 </wgt>
<wgt id='2044'> +2.9213507E+03 </wgt>
<wgt id='2045'> +2.9515738E+03 </wgt>
<wgt id='2046'> +3.0335191E+03 </wgt>
<wgt id='2047'> +3.6322683E+03 </wgt>
<wgt id='2048'> +2.9564836E+03 </wgt>
<wgt id='2049'> +3.0196816E+03 </wgt>
<wgt id='2050'> +2.9802274E+03 </wgt>
<wgt id='2051'> +3.0234350E+03 </wgt>
<wgt id='2052'> +3.1724057E+03 </wgt>
<wgt id='2053'> +3.1531508E+03 </wgt>
<wgt id='2054'> +3.0459250E+03 </wgt>
<wgt id='2055'> +2.9871153E+03 </wgt>
<wgt id='2056'> +3.1450049E+03 </wgt>
<wgt id='2057'> +3.0438164E+03 </wgt>
<wgt id='2058'> +2.8327248E+03 </wgt>
<wgt id='2059'> +2.8591339E+03 </wgt>
<wgt id='2060'> +3.0549701E+03 </wgt>
<wgt id='2061'> +2.9765021E+03 </wgt>
<wgt id='2062'> +3.4985811E+03 </wgt>
<wgt id='2063'> +3.0933883E+03 </wgt>
<wgt id='2064'> +3.0920193E+03 </wgt>
<wgt id='2065'> +3.0244692E+03 </wgt>
<wgt id='2066'> +2.7143571E+03 </wgt>
<wgt id='2067'> +2.9570159E+03 </wgt>
<wgt id='2068'> +2.8305631E+03 </wgt>
<wgt id='2069'> +3.0391860E+03 </wgt>
<wgt id='2070'> +2.9461406E+03 </wgt>
<wgt id='2071'> +2.9586690E+03 </wgt>
<wgt id='2072'> +3.1144118E+03 </wgt>
<wgt id='2073'> +3.2696228E+03 </wgt>
<wgt id='2074'> +3.0451304E+03 </wgt>
<wgt id='2075'> +2.9613245E+03 </wgt>
<wgt id='2076'> +3.8329567E+03 </wgt>
<wgt id='2077'> +2.8892584E+03 </wgt>
<wgt id='2078'> +3.1928159E+03 </wgt>
<wgt id='2079'> +3.0861973E+03 </wgt>
<wgt id='2080'> +3.2901391E+03 </wgt>
<wgt id='2081'> +3.6660790E+03 </wgt>
<wgt id='2082'> +3.6069419E+03 </wgt>
<wgt id='2083'> +3.0764568E+03 </wgt>
<wgt id='2084'> +2.9461995E+03 </wgt>
<wgt id='2085'> +3.8500432E+03 </wgt>
<wgt id='2086'> +3.4527138E+03 </wgt>
<wgt id='2087'> +3.2005795E+03 </wgt>
<wgt id='2088'> +3.3085846E+03 </wgt>
<wgt id='2089'> +3.0165175E+03 </wgt>
<wgt id='2090'> +3.1265783E+03 </wgt>
<wgt id='2091'> +2.8671345E+03 </wgt>
<wgt id='2092'> +3.1450727E+03 </wgt>
<wgt id='2093'> +2.9477968E+03 </wgt>
<wgt id='2094'> +2.9490772E+03 </wgt>
<wgt id='2095'> +3.1732217E+03 </wgt>
<wgt id='2096'> +3.1096109E+03 </wgt>
<wgt id='2097'> +2.9651556E+03 </wgt>
<wgt id='2098'> +3.3549745E+03 </wgt>
<wgt id='2099'> +2.9328048E+03 </wgt>
<wgt id='2100'> +2.8786651E+03 </wgt>
<wgt id='2101'> +3.1464777E+03 </wgt>
<wgt id='2102'> +3.0249327E+03 </wgt>
<wgt id='2103'> +3.1125713E+03 </wgt>
<wgt id='2104'> +2.7901096E+03 </wgt>
<wgt id='2105'> +3.3039364E+03 </wgt>
<wgt id='2106'> +2.9496158E+03 </wgt>
<wgt id='2107'> +2.8312770E+03 </wgt>
<wgt id='2108'> +2.8754875E+03 </wgt>
<wgt id='2109'> +2.6514673E+03 </wgt>
<wgt id='2110'> +2.9801220E+03 </wgt>
<wgt id='2111'> +3.0892989E+03 </wgt>
<wgt id='2112'> +3.1780320E+03 </wgt>
<wgt id='2113'> +8.9129345E+02 </wgt>
<wgt id='2114'> +1.5349362E+03 </wgt>
<wgt id='2115'> +2.2460984E+03 </wgt>
<wgt id='2116'> +2.5717404E+03 </wgt>
</rwgt>
</event>
<event>
 8      3 +2.9771057E+03 1.01018500e+02 7.54677100e-03 1.16205500e-01
       -3 -1    0    0    0  501 -0.0000000000e+00 +0.0000000000e+00 +2.2078134431e+02 2.2078134431e+02 0.0000000000e+00 0.0000e+00 1.0000e+00
       21 -1    0    0  501  502 +0.0000000000e+00 -0.0000000000e+00 -3.5256833984e+01 3.5256833984e+01 0.0000000000e+00 0.0000e+00 -1.0000e+00
       24  2    1    2    0    0 -8.3696270163e+00 -5.9993508882e+01 +1.2183143390e+02 1.5826446648e+02 8.0842261841e+01 0.0000e+00 0.0000e+00
      -11  1    3    3    0    0 -1.0681097613e+01 -4.7308228016e+00 +9.6887207721e+01 9.7588921249e+01 0.0000000000e+00 0.0000e+00 1.0000e+00
       12  1    3    3    0    0 +2.3114705968e+00 -5.5262686080e+01 +2.4944226175e+01 6.0675545227e+01 0.0000000000e+00 0.0000e+00 -1.0000e+00
       21  1    1    2  503  502 -1.2318303776e+01 +3.4374775201e+01 +4.0380281246e+01 5.4442014029e+01 0.0000000000e+00 0.0000e+00 -1.0000e+00
       21  1    1    2  504  503 +5.0677655261e+00 +1.5492225338e+01 +4.6003347846e+00 1.6936775770e+01 0.0000000000e+00 0.0000e+00 -1.0000e+00
       -4  1    1    2    0  504 +1.5620165266e+01 +1.0126508343e+01 +1.8712460397e+01 2.6394922016e+01 0.0000000000e+00 0.0000e+00 1.0000e+00
<scales pt_clust_4="13000.00000" pt_clust_5="13000.00000" pt_clust_6="34.69381" pt_clust_7="14.79067" pt_clust_8="74.18147"></scales>
<mgrwt>
<rscale>  0 0.10101853E+03</rscale>
<asrwt>  3 0.14790674E+02 0.34693809E+02 0.74181472E+02</asrwt>
<pdfrwt beam="1">  1       21 0.54241285E-02 0.10101853E+03</pdfrwt>
<pdfrwt beam="2">  1       -3 0.33966360E-01 0.10101853E+03</pdfrwt>
<totfact> 0.35735088E+02</totfact>
</mgrwt>
<clustering>
<clus scale="   14.791">  7  8 -1 -1</clus>
<clus scale="   34.694">  6  7 -1 -1</clus>
<clus scale="   74.181">  2  6  1 -1</clus>
<clus scale="   80.842">  4  5 -1 -1</clus>
<clus scale="  101.019">  2  4  1 -1</clus>
</clustering>
<rwgt>
<wgt id='1001'> +2.9771057E+03 </wgt>
<wgt id='1002'> +3.0662570E+03 </wgt>
<wgt id='1003'> +3.0662570E+03 </wgt>
<wgt id='1004'> +2.8557398E+03 </wgt>
<wgt id='1005'> +3.1282239E+03 </wgt>
<wgt id='1006'> +2.9771057E+03 </wgt>
<wgt id='1007'> +3.0662570E+03 </wgt>
<wgt id='1008'> +3.0662570E+03 </wgt>
<wgt id='1009'> +2.8557398E+03 </wgt>
<wgt id='1010'> +3.1282239E+03 </wgt>
<wgt id='1011'> +2.9771057E+03 </wgt>
<wgt id='1012'> +3.0662570E+03 </wgt>
<wgt id='1013'> +3.0662570E+03 </wgt>
<wgt id='1014'> +2.8557398E+03 </wgt>
<wgt id='1015'> +3.1282239E+03 </wgt>
<wgt id='1016'> +3.1604109E+03 </wgt>
<wgt id='1017'> +3.2291990E+03 </wgt>
<wgt id='1018'> +3.2291990E+03 </wgt>
<wgt id='1019'> +3.0662570E+03 </wgt>
<wgt id='1020'> +3.2768209E+03 </wgt>
<wgt id='1021'> +3.1604109E+03 </wgt>
<wgt id='1022'> +3.2291990E+03 </wgt>
<wgt id='1023'> +3.2291990E+03 </wgt>
<wgt id='1024'> +3.0662570E+03 </wgt>
<wgt id='1025'> +3.2768209E+03 </wgt>
<wgt id='1026'> +3.1604109E+03 </wgt>
<wgt id='1027'> +3.2291990E+03 </wgt>
<wgt id='1028'> +3.2291990E+03 </wgt>
<wgt id='1029'> +3.0662570E+03 </wgt>
<wgt id='1030'> +3.2768209E+03 </wgt>
<wgt id='1031'> +2.7413838E+03 </wgt>
<wgt id='1032'> +2.8557398E+03 </wgt>
<wgt id='1033'> +2.8557398E+03 </wgt>
<wgt id='1034'> +2.5864582E+03 </wgt>
<wgt id='1035'> +2.9355439E+03 </wgt>
<wgt id='1036'> +2.7413838E+03 </wgt>
<wgt id='1037'> +2.8557398E+03 </wgt>
<wgt id='1038'> +2.8557398E+03 </wgt>
<wgt id='1039'> +2.5864582E+03 </wgt>
<wgt id='1040'> +2.9355439E+03 </wgt>
<wgt id='1041'> +2.7413838E+03 </wgt>
<wgt id='1042'> +2.8557398E+03 </wgt>
<wgt id='1043'> +2.8557398E+03 </wgt>
<wgt id='1044'> +2.5864582E+03 </wgt>
<wgt id='1045'> +2.9355439E+03 </wgt>
<wgt id='1046'> +2.9771057E+03 </wgt>
<wgt id='1047'> +2.9737267E+03 </wgt>
<wgt id='1048'> +2.9871585E+03 </wgt>
<wgt id='1049'> +2.9794887E+03 </wgt>
<wgt id='1050'> +2.9742517E+03 </wgt>
<wgt id='1051'> +2.9685558E+03 </wgt>
<wgt id='1052'> +2.9779104E+03 </wgt>
<wgt id='1053'> +2.9758274E+03 </wgt>
<wgt id='1054'> +2.9887900E+03 </wgt>
<wgt id='1055'> +2.9596488E+03 </wgt>
<wgt id='1056'> +2.9921663E+03 </wgt>
<wgt id='1057'> +2.9991937E+03 </wgt>
<wgt id='1058'> +2.9701900E+03 </wgt>
<wgt id='1059'> +2.9964897E+03 </wgt>
<wgt id='1060'> +2.9567343E+03 </wgt>
<wgt id='1061'> +2.9605572E+03 </wgt>
<wgt id='1062'> +2.9401604E+03 </wgt>
<wgt id='1063'> +2.9910807E+03 </wgt>
<wgt id='1064'> +2.9900134E+03 </wgt>
<wgt id='1065'> +2.9819060E+03 </wgt>
<wgt id='1066'> +2.9781647E+03 </wgt>
<wgt id='1067'> +2.9556619E+03 </wgt>
<wgt id='1068'> +2.9673920E+03 </wgt>
<wgt id='1069'> +3.0091861E+03 </wgt>
<wgt id='1070'> +2.9736834E+03 </wgt>
<wgt id='1071'> +2.9719515E+03 </wgt>
<wgt id='1072'> +3.0085321E+03 </wgt>
<wgt id='1073'> +2.9774545E+03 </wgt>
<wgt id='1074'> +2.9856719E+03 </wgt>
<wgt id='1075'> +2.9917512E+03 </wgt>
<wgt id='1076'> +2.9969409E+03 </wgt>
<wgt id='1077'> +2.9395343E+03 </wgt>
<wgt id='1078'> +2.9770621E+03 </wgt>
<wgt id='1079'> +2.9577088E+03 </wgt>
<wgt id='1080'> +2.9640444E+03 </wgt>
<wgt id='1081'> +2.9241446E+03 </wgt>
<wgt id='1082'> +2.9840780E+03 </wgt>
<wgt id='1083'> +3.0299188E+03 </wgt>
<wgt id='1084'> +2.9616515E+03 </wgt>
<wgt id='1085'> +2.9932683E+03 </wgt>
<wgt id='1086'> +2.9878676E+03 </wgt>
<wgt id='1087'> +3.0030797E+03 </wgt>
<wgt id='1088'> +2.9663291E+03 </wgt>
<wgt id='1089'> +2.9535511E+03 </wgt>
<wgt id='1090'> +2.9592370E+03 </wgt>
<wgt id='1091'> +3.0084624E+03 </wgt>
<wgt id='1092'> +2.9773773E+03 </wgt>
<wgt id='1093'> +2.9508165E+03 </wgt>
<wgt id='1094'> +3.0025144E+03 </wgt>
<wgt id='1095'> +2.9907804E+03 </wgt>
<wgt id='1096'> +2.9942660E+03 </wgt>
<wgt id='1097'> +2.9780217E+03 </wgt>
<wgt id='1098'> +2.9772936E+03 </wgt>
<wgt id='1099'> +2.9699521E+03 </wgt>
<wgt id='1100'> +2.9683721E+03 </wgt>
<wgt id='1101'> +2.9703337E+03 </wgt>
<wgt id='1102'> +2.9783471E+03 </wgt>
<wgt id='1103'> +2.9723863E+03 </wgt>
<wgt id='1104'> +2.9857011E+03 </wgt>
<wgt id='1105'> +2.9788231E+03 </wgt>
<wgt id='1106'> +2.9556393E+03 </wgt>
<wgt id='1107'> +2.9617962E+03 </wgt>
<wgt id='1108'> +2.9765319E+03 </wgt>
<wgt id='1109'> +2.9706249E+03 </wgt>
<wgt id='1110'> +2.9738344E+03 </wgt>
<wgt id='1111'> +2.9773782E+03 </wgt>
<wgt id='1112'> +2.9730212E+03 </wgt>
<wgt id='1113'> +2.9912208E+03 </wgt>
<wgt id='1114'> +2.9843682E+03 </wgt>
<wgt id='1115'> +2.9723092E+03 </wgt>
<wgt id='1116'> +2.9727984E+03 </wgt>
<wgt id='1117'> +2.9600543E+03 </wgt>
<wgt id='1118'> +2.9913909E+03 </wgt>
<wgt id='1119'> +2.9809532E+03 </wgt>
<wgt id='1120'> +2.9809265E+03 </wgt>
<wgt id='1121'> +2.9739880E+03 </wgt>
<wgt id='1122'> +2.9800721E+03 </wgt>
<wgt id='1123'> +2.9768339E+03 </wgt>
<wgt id='1124'> +2.9791700E+03 </wgt>
<wgt id='1125'> +2.9739644E+03 </wgt>
<wgt id='1126'> +2.9773712E+03 </wgt>
<wgt id='1127'> +2.9738718E+03 </wgt>
<wgt id='1128'> +2.9733530E+03 </wgt>
<wgt id='1129'> +2.9824143E+03 </wgt>
<wgt id='1130'> +2.9775072E+03 </wgt>
<wgt id='1131'> +2.9736192E+03 </wgt>
<wgt id='1132'> +2.9698828E+03 </wgt>
<wgt id='1133'> +2.9711567E+03 </wgt>
<wgt id='1134'> +2.9754395E+03 </wgt>
<wgt id='1135'> +2.9744138E+03 </wgt>
<wgt id='1136'> +2.9775540E+03 </wgt>
<wgt id='1137'> +2.9692841E+03 </wgt>
<wgt id='1138'> +2.9849889E+03 </wgt>
<wgt id='1139'> +2.9809457E+03 </wgt>
<wgt id='1140'> +2.9703489E+03 </wgt>
<wgt id='1141'> +2.9789634E+03 </wgt>
<wgt id='1142'> +2.9805903E+03 </wgt>
<wgt id='1143'> +2.9741475E+03 </wgt>
<wgt id='1144'> +2.9746715E+03 </wgt>
<wgt id='1145'> +2.9761435E+03 </wgt>
<wgt id='1146'> +2.9784642E+03 </wgt>
<wgt id='1147'> +2.7910570E+03 </wgt>
<wgt id='1148'> +3.1557569E+03 </wgt>
<wgt id='1149'> +2.0867665E+03 </wgt>
<wgt id='1150'> +2.2415714E+03 </wgt>
<wgt id='1151'> +2.3748729E+03 </wgt>
<wgt id='1152'> +2.5750174E+03 </wgt>
<wgt id='1153'> +2.8477711E+03 </wgt>
<wgt id='1154'> +3.0874765E+03 </wgt>
<wgt id='1155'> +3.3599456E+03 </wgt>
<wgt id='1156'> +3.5907427E+03 </wgt>
<wgt id='1157'> +2.8544830E+03 </wgt>
<wgt id='1158'> +2.8601366E+03 </wgt>
<wgt id='1159'> +2.8457496E+03 </wgt>
<wgt id='1160'> +2.8616239E+03 </wgt>
<wgt id='1161'> +2.8521732E+03 </wgt>
<wgt id='1162'> +2.8506906E+03 </wgt>
<wgt id='1163'> +2.8622405E+03 </wgt>
<wgt id='1164'> +2.8494599E+03 </wgt>
<wgt id='1165'> +2.8499956E+03 </wgt>
<wgt id='1166'> +2.8404719E+03 </wgt>
<wgt id='1167'> +2.8693152E+03 </wgt>
<wgt id='1168'> +2.8642999E+03 </wgt>
<wgt id='1169'> +2.8576552E+03 </wgt>
<wgt id='1170'> +2.8399599E+03 </wgt>
<wgt id='1171'> +2.8431035E+03 </wgt>
<wgt id='1172'> +2.8780929E+03 </wgt>
<wgt id='1173'> +2.8339926E+03 </wgt>
<wgt id='1174'> +2.8626783E+03 </wgt>
<wgt id='1175'> +2.8436049E+03 </wgt>
<wgt id='1176'> +2.8633116E+03 </wgt>
<wgt id='1177'> +2.8796570E+03 </wgt>
<wgt id='1178'> +2.8201258E+03 </wgt>
<wgt id='1179'> +2.8536100E+03 </wgt>
<wgt id='1180'> +2.8546917E+03 </wgt>
<wgt id='1181'> +2.8435135E+03 </wgt>
<wgt id='1182'> +2.8790772E+03 </wgt>
<wgt id='1183'> +2.8613987E+03 </wgt>
<wgt id='1184'> +2.8508103E+03 </wgt>
<wgt id='1185'> +2.8632362E+03 </wgt>
<wgt id='1186'> +2.8394823E+03 </wgt>
<wgt id='1187'> +2.8328344E+03 </wgt>
<wgt id='1188'> +2.8534894E+03 </wgt>
<wgt id='1189'> +2.8619049E+03 </wgt>
<wgt id='1190'> +2.8200107E+03 </wgt>
<wgt id='1191'> +2.8676572E+03 </wgt>
<wgt id='1192'> +2.8368540E+03 </wgt>
<wgt id='1193'> +2.8813727E+03 </wgt>
<wgt id='1194'> +2.8718838E+03 </wgt>
<wgt id='1195'> +2.8881138E+03 </wgt>
<wgt id='1196'> +2.8501611E+03 </wgt>
<wgt id='1197'> +2.8586578E+03 </wgt>
<wgt id='1198'> +2.8801303E+03 </wgt>
<wgt id='1199'> +2.8692168E+03 </wgt>
<wgt id='1200'> +2.8415894E+03 </wgt>
<wgt id='1201'> +2.8621134E+03 </wgt>
<wgt id='1202'> +2.8502500E+03 </wgt>
<wgt id='1203'> +2.8659013E+03 </wgt>
<wgt id='1204'> +2.8421585E+03 </wgt>
<wgt id='1205'> +2.8032360E+03 </wgt>
<wgt id='1206'> +2.8609189E+03 </wgt>
<wgt id='1207'> +2.8752382E+03 </wgt>
<wgt id='1208'> +2.8566813E+03 </wgt>
<wgt id='1209'> +2.8644359E+03 </wgt>
<wgt id='1210'> +2.8705768E+03 </wgt>
<wgt id='1211'> +2.8291305E+03 </wgt>
<wgt id='1212'> +2.8532174E+03 </wgt>
<wgt id='1213'> +2.8724497E+03 </wgt>
<wgt id='1214'> +2.8452863E+03 </wgt>
<wgt id='1215'> +2.8606603E+03 </wgt>
<wgt id='1216'> +2.8478743E+03 </wgt>
<wgt id='1217'> +2.8519118E+03 </wgt>
<wgt id='1218'> +2.8588668E+03 </wgt>
<wgt id='1219'> +2.8738290E+03 </wgt>
<wgt id='1220'> +2.8785950E+03 </wgt>
<wgt id='1221'> +2.8638675E+03 </wgt>
<wgt id='1222'> +2.8480804E+03 </wgt>
<wgt id='1223'> +2.8634021E+03 </wgt>
<wgt id='1224'> +2.8576061E+03 </wgt>
<wgt id='1225'> +2.8569548E+03 </wgt>
<wgt id='1226'> +2.8437993E+03 </wgt>
<wgt id='1227'> +2.8464813E+03 </wgt>
<wgt id='1228'> +2.8659923E+03 </wgt>
<wgt id='1229'> +2.8514442E+03 </wgt>
<wgt id='1230'> +2.8322273E+03 </wgt>
<wgt id='1231'> +2.8539414E+03 </wgt>
<wgt id='1232'> +2.8571071E+03 </wgt>
<wgt id='1233'> +2.8598727E+03 </wgt>
<wgt id='1234'> +2.8470586E+03 </wgt>
<wgt id='1235'> +2.8514489E+03 </wgt>
<wgt id='1236'> +2.8525626E+03 </wgt>
<wgt id='1237'> +2.8467018E+03 </wgt>
<wgt id='1238'> +2.8512099E+03 </wgt>
<wgt id='1239'> +2.8603813E+03 </wgt>
<wgt id='1240'> +2.8522894E+03 </wgt>
<wgt id='1241'> +2.8465799E+03 </wgt>
<wgt id='1242'> +2.8536699E+03 </wgt>
<wgt id='1243'> +2.8521526E+03 </wgt>
<wgt id='1244'> +2.8556298E+03 </wgt>
<wgt id='1245'> +2.8557627E+03 </wgt>
<wgt id='1246'> +2.8555088E+03 </wgt>
<wgt id='1247'> +2.8549008E+03 </wgt>
<wgt id='1248'> +2.8586147E+03 </wgt>
<wgt id='1249'> +2.8531862E+03 </wgt>
<wgt id='1250'> +2.8557481E+03 </wgt>
<wgt id='1251'> +2.8533026E+03 </wgt>
<wgt id='1252'> +2.8526511E+03 </wgt>
<wgt id='1253'> +2.8476368E+03 </wgt>
<wgt id='1254'> +2.8525354E+03 </wgt>
<wgt id='1255'> +2.8582512E+03 </wgt>
<wgt id='1256'> +2.8590765E+03 </wgt>
<wgt id='1257'> +2.8514408E+03 </wgt>
<wgt id='1258'> +2.6704057E+03 </wgt>
<wgt id='1259'> +3.0579134E+03 </wgt>
<wgt id='1260'> +2.9178754E+03 </wgt>
<wgt id='1261'> +2.8699817E+03 </wgt>
<wgt id='1262'> +2.9066624E+03 </wgt>
<wgt id='1263'> +2.9474369E+03 </wgt>
<wgt id='1264'> +2.8657450E+03 </wgt>
<wgt id='1265'> +2.8209847E+03 </wgt>
<wgt id='1266'> +2.9509504E+03 </wgt>
<wgt id='1267'> +2.9201515E+03 </wgt>
<wgt id='1268'> +2.8456249E+03 </wgt>
<wgt id='1269'> +2.9363982E+03 </wgt>
<wgt id='1270'> +2.9034439E+03 </wgt>
<wgt id='1271'> +2.7710278E+03 </wgt>
<wgt id='1272'> +3.0348623E+03 </wgt>
<wgt id='1273'> +2.8927202E+03 </wgt>
<wgt id='1274'> +2.9122730E+03 </wgt>
<wgt id='1275'> +2.9259743E+03 </wgt>
<wgt id='1276'> +2.8850799E+03 </wgt>
<wgt id='1277'> +2.9215298E+03 </wgt>
<wgt id='1278'> +2.9123682E+03 </wgt>
<wgt id='1279'> +2.9330120E+03 </wgt>
<wgt id='1280'> +2.9021921E+03 </wgt>
<wgt id='1281'> +2.9242457E+03 </wgt>
<wgt id='1282'> +2.9136254E+03 </wgt>
<wgt id='1283'> +2.9076894E+03 </wgt>
<wgt id='1284'> +2.9279345E+03 </wgt>
<wgt id='1285'> +2.9293597E+03 </wgt>
<wgt id='1286'> +2.9080482E+03 </wgt>
<wgt id='1287'> +2.9340668E+03 </wgt>
<wgt id='1288'> +2.8898224E+03 </wgt>
<wgt id='1289'> +2.8789033E+03 </wgt>
<wgt id='1290'> +2.9410877E+03 </wgt>
<wgt id='1291'> +2.8873156E+03 </wgt>
<wgt id='1292'> +2.9612929E+03 </wgt>
<wgt id='1293'> +2.8950492E+03 </wgt>
<wgt id='1294'> +2.9367178E+03 </wgt>
<wgt id='1295'> +2.9137584E+03 </wgt>
<wgt id='1296'> +2.9193110E+03 </wgt>
<wgt id='1297'> +2.9038680E+03 </wgt>
<wgt id='1298'> +2.9317525E+03 </wgt>
<wgt id='1299'> +2.5166980E+03 </wgt>
<wgt id='1300'> +3.2664190E+03 </wgt>
<wgt id='1301'> +2.8420055E+03 </wgt>
<wgt id='1302'> +2.9456777E+03 </wgt>
<wgt id='1303'> +2.9603516E+03 </wgt>
<wgt id='1304'> +2.8453531E+03 </wgt>
<wgt id='1305'> +2.9951812E+03 </wgt>
<wgt id='1306'> +2.8749073E+03 </wgt>
<wgt id='1307'> +2.9802336E+03 </wgt>
<wgt id='1308'> +2.8851242E+03 </wgt>
<wgt id='1309'> +2.9063418E+03 </wgt>
<wgt id='1310'> +2.9519202E+03 </wgt>
<wgt id='1311'> +2.9387953E+03 </wgt>
<wgt id='1312'> +2.9131420E+03 </wgt>
<wgt id='1313'> +2.9063361E+03 </wgt>
<wgt id='1314'> +3.0146307E+03 </wgt>
<wgt id='1315'> +3.0008779E+03 </wgt>
<wgt id='1316'> +2.5339269E+03 </wgt>
<wgt id='1317'> +2.7332513E+03 </wgt>
<wgt id='1318'> +3.0953106E+03 </wgt>
<wgt id='1319'> +2.8507275E+03 </wgt>
<wgt id='1320'> +2.8594850E+03 </wgt>
<wgt id='1321'> +2.8624270E+03 </wgt>
<wgt id='1322'> +2.9466427E+03 </wgt>
<wgt id='1323'> +2.7781437E+03 </wgt>
<wgt id='1324'> +2.9047779E+03 </wgt>
<wgt id='1325'> +2.8208249E+03 </wgt>
<wgt id='1326'> +2.8650021E+03 </wgt>
<wgt id='1327'> +2.8453488E+03 </wgt>
<wgt id='1328'> +2.8157335E+03 </wgt>
<wgt id='1329'> +2.8549570E+03 </wgt>
<wgt id='1330'> +2.7960931E+03 </wgt>
<wgt id='1331'> +2.8977464E+03 </wgt>
<wgt id='1332'> +2.8461072E+03 </wgt>
<wgt id='1333'> +2.8280221E+03 </wgt>
<wgt id='1334'> +2.5049900E+03 </wgt>
<wgt id='1335'> +3.2207022E+03 </wgt>
<wgt id='1336'> +2.7974873E+03 </wgt>
<wgt id='1337'> +2.9112196E+03 </wgt>
<wgt id='1338'> +2.8327711E+03 </wgt>
<wgt id='1339'> +2.8679754E+03 </wgt>
<wgt id='1340'> +2.7995268E+03 </wgt>
<wgt id='1341'> +2.9483844E+03 </wgt>
<wgt id='1342'> +2.8394706E+03 </wgt>
<wgt id='1343'> +2.8580758E+03 </wgt>
<wgt id='1344'> +2.8650609E+03 </wgt>
<wgt id='1345'> +2.8380810E+03 </wgt>
<wgt id='1346'> +2.8443594E+03 </wgt>
<wgt id='1347'> +2.8569019E+03 </wgt>
<wgt id='1348'> +2.8590508E+03 </wgt>
<wgt id='1349'> +2.8476694E+03 </wgt>
<wgt id='1350'> +2.8495881E+03 </wgt>
<wgt id='1351'> +2.8512575E+03 </wgt>
<wgt id='1352'> +2.8472642E+03 </wgt>
<wgt id='1353'> +2.8558681E+03 </wgt>
<wgt id='1354'> +2.8664776E+03 </wgt>
<wgt id='1355'> +2.8365201E+03 </wgt>
<wgt id='1356'> +2.8803048E+03 </wgt>
<wgt id='1357'> +2.7891691E+03 </wgt>
<wgt id='1358'> +2.9453237E+03 </wgt>
<wgt id='1359'> +2.7332830E+03 </wgt>
<wgt id='1360'> +2.8498153E+03 </wgt>
<wgt id='1361'> +2.8581610E+03 </wgt>
<wgt id='1362'> +2.8268865E+03 </wgt>
<wgt id='1363'> +2.8724503E+03 </wgt>
<wgt id='1364'> +2.7113908E+03 </wgt>
<wgt id='1365'> +2.9223010E+03 </wgt>
<wgt id='1366'> +2.8265476E+03 </wgt>
<wgt id='1367'> +2.8239275E+03 </wgt>
<wgt id='1368'> +2.8751458E+03 </wgt>
<wgt id='1369'> +2.7242576E+03 </wgt>
<wgt id='1370'> +2.8289948E+03 </wgt>
<wgt id='1371'> +2.8215386E+03 </wgt>
<wgt id='1372'> +2.7625036E+03 </wgt>
<wgt id='1373'> +2.8820736E+03 </wgt>
<wgt id='1374'> +2.8627597E+03 </wgt>
<wgt id='1375'> +2.5920750E+03 </wgt>
<wgt id='1376'> +2.6640595E+03 </wgt>
<wgt id='1377'> +3.0394061E+03 </wgt>
<wgt id='1378'> +2.4065513E+03 </wgt>
<wgt id='1379'> +2.9620989E+03 </wgt>
<wgt id='1380'> +2.9581506E+03 </wgt>
<wgt id='1381'> +2.9661665E+03 </wgt>
<wgt id='1382'> +2.9527593E+03 </wgt>
<wgt id='1383'> +2.9681846E+03 </wgt>
<wgt id='1384'> +2.9642646E+03 </wgt>
<wgt id='1385'> +2.9599033E+03 </wgt>
<wgt id='1386'> +2.9550353E+03 </wgt>
<wgt id='1387'> +2.9699092E+03 </wgt>
<wgt id='1388'> +2.9528631E+03 </wgt>
<wgt id='1389'> +2.9707435E+03 </wgt>
<wgt id='1390'> +2.9794913E+03 </wgt>
<wgt id='1391'> +2.9238774E+03 </wgt>
<wgt id='1392'> +2.9739572E+03 </wgt>
<wgt id='1393'> +2.9406913E+03 </wgt>
<wgt id='1394'> +2.9695546E+03 </wgt>
<wgt id='1395'> +2.9576963E+03 </wgt>
<wgt id='1396'> +3.0064239E+03 </wgt>
<wgt id='1397'> +2.9103267E+03 </wgt>
<wgt id='1398'> +3.0833454E+03 </wgt>
<wgt id='1399'> +2.8573907E+03 </wgt>
<wgt id='1400'> +2.9629642E+03 </wgt>
<wgt id='1401'> +2.9610400E+03 </wgt>
<wgt id='1402'> +2.9434298E+03 </wgt>
<wgt id='1403'> +2.9750789E+03 </wgt>
<wgt id='1404'> +2.9324250E+03 </wgt>
<wgt id='1405'> +2.9882783E+03 </wgt>
<wgt id='1406'> +2.9751773E+03 </wgt>
<wgt id='1407'> +2.9576105E+03 </wgt>
<wgt id='1408'> +2.9826239E+03 </wgt>
<wgt id='1409'> +2.9381678E+03 </wgt>
<wgt id='1410'> +2.9553345E+03 </wgt>
<wgt id='1411'> +2.9684901E+03 </wgt>
<wgt id='1412'> +2.9710157E+03 </wgt>
<wgt id='1413'> +2.9525734E+03 </wgt>
<wgt id='1414'> +2.9638867E+03 </wgt>
<wgt id='1415'> +2.9621559E+03 </wgt>
<wgt id='1416'> +2.9779774E+03 </wgt>
<wgt id='1417'> +2.9529304E+03 </wgt>
<wgt id='1418'> +2.9779123E+03 </wgt>
<wgt id='1419'> +2.9461726E+03 </wgt>
<wgt id='1420'> +3.0901862E+03 </wgt>
<wgt id='1421'> +2.7798142E+03 </wgt>
<wgt id='1422'> +2.8758757E+03 </wgt>
<wgt id='1423'> +2.9515137E+03 </wgt>
<wgt id='1424'> +3.0446936E+03 </wgt>
<wgt id='1425'> +2.7589524E+03 </wgt>
<wgt id='1426'> +2.9475545E+03 </wgt>
<wgt id='1427'> +2.9640901E+03 </wgt>
<wgt id='1428'> +2.9625105E+03 </wgt>
<wgt id='1429'> +2.9601525E+03 </wgt>
<wgt id='1430'> +2.8550193E+03 </wgt>
<wgt id='1431'> +2.8485790E+03 </wgt>
<wgt id='1432'> +2.8632965E+03 </wgt>
<wgt id='1433'> +2.8619352E+03 </wgt>
<wgt id='1434'> +2.8481645E+03 </wgt>
<wgt id='1435'> +2.8412419E+03 </wgt>
<wgt id='1436'> +2.8606352E+03 </wgt>
<wgt id='1437'> +2.8494479E+03 </wgt>
<wgt id='1438'> +2.8605518E+03 </wgt>
<wgt id='1439'> +2.8442090E+03 </wgt>
<wgt id='1440'> +2.8655931E+03 </wgt>
<wgt id='1441'> +2.8069110E+03 </wgt>
<wgt id='1442'> +2.8759858E+03 </wgt>
<wgt id='1443'> +2.8541817E+03 </wgt>
<wgt id='1444'> +2.8563079E+03 </wgt>
<wgt id='1445'> +2.8708638E+03 </wgt>
<wgt id='1446'> +2.8380319E+03 </wgt>
<wgt id='1447'> +2.9794507E+03 </wgt>
<wgt id='1448'> +2.7853178E+03 </wgt>
<wgt id='1449'> +2.7694814E+03 </wgt>
<wgt id='1450'> +2.9702224E+03 </wgt>
<wgt id='1451'> +2.9536051E+03 </wgt>
<wgt id='1452'> +2.7859726E+03 </wgt>
<wgt id='1453'> +2.8521855E+03 </wgt>
<wgt id='1454'> +2.8574797E+03 </wgt>
<wgt id='1455'> +2.8631732E+03 </wgt>
<wgt id='1456'> +2.8355030E+03 </wgt>
<wgt id='1457'> +2.8703292E+03 </wgt>
<wgt id='1458'> +2.8457053E+03 </wgt>
<wgt id='1459'> +2.8447173E+03 </wgt>
<wgt id='1460'> +2.8828906E+03 </wgt>
<wgt id='1461'> +2.8474701E+03 </wgt>
<wgt id='1462'> +2.8709538E+03 </wgt>
<wgt id='1463'> +2.8557883E+03 </wgt>
<wgt id='1464'> +2.8548476E+03 </wgt>
<wgt id='1465'> +2.8522648E+03 </wgt>
<wgt id='1466'> +2.8573938E+03 </wgt>
<wgt id='1467'> +2.8581710E+03 </wgt>
<wgt id='1468'> +2.8524683E+03 </wgt>
<wgt id='1469'> +2.8751220E+03 </wgt>
<wgt id='1470'> +2.8421787E+03 </wgt>
<wgt id='1471'> +2.7298986E+03 </wgt>
<wgt id='1472'> +3.0380835E+03 </wgt>
<wgt id='1473'> +2.8491252E+03 </wgt>
<wgt id='1474'> +2.8832822E+03 </wgt>
<wgt id='1475'> +2.8790929E+03 </wgt>
<wgt id='1476'> +2.8106650E+03 </wgt>
<wgt id='1477'> +2.6980020E+03 </wgt>
<wgt id='1478'> +2.9249106E+03 </wgt>
<wgt id='1479'> +2.8197944E+03 </wgt>
<wgt id='1480'> +2.8638296E+03 </wgt>
<wgt id='1481'> +4.4717994E+03 </wgt>
<wgt id='1482'> +3.0728874E+03 </wgt>
<wgt id='1483'> +3.0716715E+03 </wgt>
<wgt id='1484'> +3.0727383E+03 </wgt>
<wgt id='1485'> +3.0700079E+03 </wgt>
<wgt id='1486'> +3.0731167E+03 </wgt>
<wgt id='1487'> +3.0884809E+03 </wgt>
<wgt id='1488'> +3.0914811E+03 </wgt>
<wgt id='1489'> +3.0488028E+03 </wgt>
<wgt id='1490'> +3.0809927E+03 </wgt>
<wgt id='1491'> +3.0743067E+03 </wgt>
<wgt id='1492'> +3.0652250E+03 </wgt>
<wgt id='1493'> +3.0723919E+03 </wgt>
<wgt id='1494'> +3.0623566E+03 </wgt>
<wgt id='1495'> +3.0779330E+03 </wgt>
<wgt id='1496'> +3.0692674E+03 </wgt>
<wgt id='1497'> +3.0773120E+03 </wgt>
<wgt id='1498'> +3.0721420E+03 </wgt>
<wgt id='1499'> +3.0687511E+03 </wgt>
<wgt id='1500'> +3.0737665E+03 </wgt>
<wgt id='1501'> +3.0778603E+03 </wgt>
<wgt id='1502'> +3.0624576E+03 </wgt>
<wgt id='1503'> +3.0829966E+03 </wgt>
<wgt id='1504'> +3.0622946E+03 </wgt>
<wgt id='1505'> +3.0777683E+03 </wgt>
<wgt id='1506'> +3.0820553E+03 </wgt>
<wgt id='1507'> +3.0858010E+03 </wgt>
<wgt id='1508'> +3.0731823E+03 </wgt>
<wgt id='1509'> +3.0695498E+03 </wgt>
<wgt id='1510'> +3.0742473E+03 </wgt>
<wgt id='1511'> +3.0452849E+03 </wgt>
<wgt id='1512'> +2.7919378E+03 </wgt>
<wgt id='1513'> +2.7987072E+03 </wgt>
<wgt id='1514'> +2.8117610E+03 </wgt>
<wgt id='1515'> +2.7500205E+03 </wgt>
<wgt id='1516'> +2.8130059E+03 </wgt>
<wgt id='1517'> +2.7537612E+03 </wgt>
<wgt id='1518'> +2.8040216E+03 </wgt>
<wgt id='1519'> +2.8121425E+03 </wgt>
<wgt id='1520'> +2.8845995E+03 </wgt>
<wgt id='1521'> +2.7476363E+03 </wgt>
<wgt id='1522'> +2.7528504E+03 </wgt>
<wgt id='1523'> +2.8454211E+03 </wgt>
<wgt id='1524'> +2.7858635E+03 </wgt>
<wgt id='1525'> +2.7547355E+03 </wgt>
<wgt id='1526'> +2.8844372E+03 </wgt>
<wgt id='1527'> +2.7459578E+03 </wgt>
<wgt id='1528'> +2.9270770E+03 </wgt>
<wgt id='1529'> +2.7422320E+03 </wgt>
<wgt id='1530'> +2.7212057E+03 </wgt>
<wgt id='1531'> +2.8650177E+03 </wgt>
<wgt id='1532'> +2.8650829E+03 </wgt>
<wgt id='1533'> +2.7635391E+03 </wgt>
<wgt id='1534'> +2.7601000E+03 </wgt>
<wgt id='1535'> +2.7226740E+03 </wgt>
<wgt id='1536'> +2.7847921E+03 </wgt>
<wgt id='1537'> +2.8051077E+03 </wgt>
<wgt id='1538'> +2.8015755E+03 </wgt>
<wgt id='1539'> +2.7524320E+03 </wgt>
<wgt id='1540'> +2.7690798E+03 </wgt>
<wgt id='1541'> +2.8078462E+03 </wgt>
<wgt id='1542'> +2.7905599E+03 </wgt>
<wgt id='1543'> +2.7825216E+03 </wgt>
<wgt id='1544'> +2.7865462E+03 </wgt>
<wgt id='1545'> +2.7814187E+03 </wgt>
<wgt id='1546'> +2.7916773E+03 </wgt>
<wgt id='1547'> +2.8107636E+03 </wgt>
<wgt id='1548'> +2.7930079E+03 </wgt>
<wgt id='1549'> +2.7987939E+03 </wgt>
<wgt id='1550'> +2.7705063E+03 </wgt>
<wgt id='1551'> +2.7771472E+03 </wgt>
<wgt id='1552'> +2.7916896E+03 </wgt>
<wgt id='1553'> +2.7945772E+03 </wgt>
<wgt id='1554'> +2.7993957E+03 </wgt>
<wgt id='1555'> +2.7839077E+03 </wgt>
<wgt id='1556'> +2.8078698E+03 </wgt>
<wgt id='1557'> +2.8009353E+03 </wgt>
<wgt id='1558'> +2.7968407E+03 </wgt>
<wgt id='1559'> +2.8011410E+03 </wgt>
<wgt id='1560'> +2.7862619E+03 </wgt>
<wgt id='1561'> +2.7983589E+03 </wgt>
<wgt id='1562'> +2.7919168E+03 </wgt>
<wgt id='1563'> +2.7856353E+03 </wgt>
<wgt id='1564'> +2.7985832E+03 </wgt>
<wgt id='1565'> +2.7798873E+03 </wgt>
<wgt id='1566'> +2.7818473E+03 </wgt>
<wgt id='1567'> +2.8128887E+03 </wgt>
<wgt id='1568'> +2.8124169E+03 </wgt>
<wgt id='1569'> +2.7964649E+03 </wgt>
<wgt id='1570'> +2.7938516E+03 </wgt>
<wgt id='1571'> +2.7874839E+03 </wgt>
<wgt id='1572'> +2.7886618E+03 </wgt>
<wgt id='1573'> +2.7890612E+03 </wgt>
<wgt id='1574'> +2.7853193E+03 </wgt>
<wgt id='1575'> +2.7887489E+03 </wgt>
<wgt id='1576'> +2.7925536E+03 </wgt>
<wgt id='1577'> +2.7925790E+03 </wgt>
<wgt id='1578'> +2.7948689E+03 </wgt>
<wgt id='1579'> +2.7931787E+03 </wgt>
<wgt id='1580'> +2.7885914E+03 </wgt>
<wgt id='1581'> +2.7856879E+03 </wgt>
<wgt id='1582'> +2.7891800E+03 </wgt>
<wgt id='1583'> +2.7862182E+03 </wgt>
<wgt id='1584'> +2.7904476E+03 </wgt>
<wgt id='1585'> +2.7955291E+03 </wgt>
<wgt id='1586'> +2.7905751E+03 </wgt>
<wgt id='1587'> +2.7912949E+03 </wgt>
<wgt id='1588'> +2.7906493E+03 </wgt>
<wgt id='1589'> +2.7928813E+03 </wgt>
<wgt id='1590'> +2.7961706E+03 </wgt>
<wgt id='1591'> +2.7979009E+03 </wgt>
<wgt id='1592'> +2.7890860E+03 </wgt>
<wgt id='1593'> +2.7938308E+03 </wgt>
<wgt id='1594'> +2.7928646E+03 </wgt>
<wgt id='1595'> +2.7949461E+03 </wgt>
<wgt id='1596'> +2.7878046E+03 </wgt>
<wgt id='1597'> +2.7885997E+03 </wgt>
<wgt id='1598'> +2.7934819E+03 </wgt>
<wgt id='1599'> +2.7990964E+03 </wgt>
<wgt id='1600'> +2.7933377E+03 </wgt>
<wgt id='1601'> +2.7915420E+03 </wgt>
<wgt id='1602'> +2.7904959E+03 </wgt>
<wgt id='1603'> +2.7888333E+03 </wgt>
<wgt id='1604'> +2.7910126E+03 </wgt>
<wgt id='1605'> +2.7916221E+03 </wgt>
<wgt id='1606'> +2.7922631E+03 </wgt>
<wgt id='1607'> +2.7895561E+03 </wgt>
<wgt id='1608'> +2.7919793E+03 </wgt>
<wgt id='1609'> +2.7921645E+03 </wgt>
<wgt id='1610'> +2.7939629E+03 </wgt>
<wgt id='1611'> +2.7900764E+03 </wgt>
<wgt id='1612'> +2.7922472E+03 </wgt>
<wgt id='1613'> +2.6543691E+03 </wgt>
<wgt id='1614'> +2.9440555E+03 </wgt>
<wgt id='1615'> +2.8007920E+03 </wgt>
<wgt id='1616'> +2.8438414E+03 </wgt>
<wgt id='1617'> +2.7867392E+03 </wgt>
<wgt id='1618'> +2.8161882E+03 </wgt>
<wgt id='1619'> +2.7783050E+03 </wgt>
<wgt id='1620'> +2.7730707E+03 </wgt>
<wgt id='1621'> +2.7680484E+03 </wgt>
<wgt id='1622'> +2.7521580E+03 </wgt>
<wgt id='1623'> +2.7987110E+03 </wgt>
<wgt id='1624'> +2.8179741E+03 </wgt>
<wgt id='1625'> +2.8534188E+03 </wgt>
<wgt id='1626'> +2.7252314E+03 </wgt>
<wgt id='1627'> +2.7770314E+03 </wgt>
<wgt id='1628'> +2.8145121E+03 </wgt>
<wgt id='1629'> +2.7531166E+03 </wgt>
<wgt id='1630'> +2.7790752E+03 </wgt>
<wgt id='1631'> +2.7618393E+03 </wgt>
<wgt id='1632'> +2.8903818E+03 </wgt>
<wgt id='1633'> +2.7107354E+03 </wgt>
<wgt id='1634'> +2.8416198E+03 </wgt>
<wgt id='1635'> +2.8041848E+03 </wgt>
<wgt id='1636'> +2.8172640E+03 </wgt>
<wgt id='1637'> +2.8877536E+03 </wgt>
<wgt id='1638'> +2.8736488E+03 </wgt>
<wgt id='1639'> +2.7594795E+03 </wgt>
<wgt id='1640'> +2.7862298E+03 </wgt>
<wgt id='1641'> +2.8570662E+03 </wgt>
<wgt id='1642'> +2.7728326E+03 </wgt>
<wgt id='1643'> +2.8178455E+03 </wgt>
<wgt id='1644'> +2.8262042E+03 </wgt>
<wgt id='1645'> +2.8050782E+03 </wgt>
<wgt id='1646'> +2.8199184E+03 </wgt>
<wgt id='1647'> +2.7981112E+03 </wgt>
<wgt id='1648'> +2.8144057E+03 </wgt>
<wgt id='1649'> +2.7852975E+03 </wgt>
<wgt id='1650'> +2.8070387E+03 </wgt>
<wgt id='1651'> +2.7964091E+03 </wgt>
<wgt id='1652'> +2.8365057E+03 </wgt>
<wgt id='1653'> +2.8083877E+03 </wgt>
<wgt id='1654'> +2.7881966E+03 </wgt>
<wgt id='1655'> +2.7985460E+03 </wgt>
<wgt id='1656'> +2.7819500E+03 </wgt>
<wgt id='1657'> +2.7912135E+03 </wgt>
<wgt id='1658'> +2.8009462E+03 </wgt>
<wgt id='1659'> +2.8105366E+03 </wgt>
<wgt id='1660'> +2.8029636E+03 </wgt>
<wgt id='1661'> +2.7872327E+03 </wgt>
<wgt id='1662'> +2.7931499E+03 </wgt>
<wgt id='1663'> +2.8021589E+03 </wgt>
<wgt id='1664'> +2.8028202E+03 </wgt>
<wgt id='1665'> +2.7859396E+03 </wgt>
<wgt id='1666'> +2.7910983E+03 </wgt>
<wgt id='1667'> +2.8017534E+03 </wgt>
<wgt id='1668'> +2.7936683E+03 </wgt>
<wgt id='1669'> +2.7969794E+03 </wgt>
<wgt id='1670'> +2.8204855E+03 </wgt>
<wgt id='1671'> +2.7955332E+03 </wgt>
<wgt id='1672'> +2.7911607E+03 </wgt>
<wgt id='1673'> +2.7935294E+03 </wgt>
<wgt id='1674'> +2.7971701E+03 </wgt>
<wgt id='1675'> +2.7950639E+03 </wgt>
<wgt id='1676'> +2.8032232E+03 </wgt>
<wgt id='1677'> +2.8056016E+03 </wgt>
<wgt id='1678'> +2.8000113E+03 </wgt>
<wgt id='1679'> +2.8021586E+03 </wgt>
<wgt id='1680'> +2.7961585E+03 </wgt>
<wgt id='1681'> +2.7977512E+03 </wgt>
<wgt id='1682'> +2.7959266E+03 </wgt>
<wgt id='1683'> +2.8073126E+03 </wgt>
<wgt id='1684'> +2.8054237E+03 </wgt>
<wgt id='1685'> +2.8106471E+03 </wgt>
<wgt id='1686'> +2.8009825E+03 </wgt>
<wgt id='1687'> +2.8060352E+03 </wgt>
<wgt id='1688'> +2.7933901E+03 </wgt>
<wgt id='1689'> +2.8015920E+03 </wgt>
<wgt id='1690'> +2.8037815E+03 </wgt>
<wgt id='1691'> +2.7992312E+03 </wgt>
<wgt id='1692'> +2.7951825E+03 </wgt>
<wgt id='1693'> +2.7975691E+03 </wgt>
<wgt id='1694'> +2.8007710E+03 </wgt>
<wgt id='1695'> +2.8057259E+03 </wgt>
<wgt id='1696'> +2.8066684E+03 </wgt>
<wgt id='1697'> +2.7992228E+03 </wgt>
<wgt id='1698'> +2.8013200E+03 </wgt>
<wgt id='1699'> +2.8010903E+03 </wgt>
<wgt id='1700'> +2.8022257E+03 </wgt>
<wgt id='1701'> +2.8027812E+03 </wgt>
<wgt id='1702'> +2.7977097E+03 </wgt>
<wgt id='1703'> +2.7994366E+03 </wgt>
<wgt id='1704'> +2.7999703E+03 </wgt>
<wgt id='1705'> +2.8030836E+03 </wgt>
<wgt id='1706'> +2.8010795E+03 </wgt>
<wgt id='1707'> +2.7990444E+03 </wgt>
<wgt id='1708'> +2.7983753E+03 </wgt>
<wgt id='1709'> +2.8025498E+03 </wgt>
<wgt id='1710'> +2.8005204E+03 </wgt>
<wgt id='1711'> +2.8019068E+03 </wgt>
<wgt id='1712'> +2.7997797E+03 </wgt>
<wgt id='1713'> +2.8012109E+03 </wgt>
<wgt id='1714'> +2.8008434E+03 </wgt>
<wgt id='1715'> +2.8031697E+03 </wgt>
<wgt id='1716'> +2.6677799E+03 </wgt>
<wgt id='1717'> +2.9315519E+03 </wgt>
<wgt id='1718'> +2.7937115E+03 </wgt>
<wgt id='1719'> +2.7682710E+03 </wgt>
<wgt id='1720'> +3.0469954E+03 </wgt>
<wgt id='1721'> +2.7956458E+03 </wgt>
<wgt id='1722'> +2.8381373E+03 </wgt>
<wgt id='1723'> +2.8325343E+03 </wgt>
<wgt id='1724'> +2.7924709E+03 </wgt>
<wgt id='1725'> +2.7845383E+03 </wgt>
<wgt id='1726'> +2.7915012E+03 </wgt>
<wgt id='1727'> +2.7870367E+03 </wgt>
<wgt id='1728'> +2.7778898E+03 </wgt>
<wgt id='1729'> +2.8071530E+03 </wgt>
<wgt id='1730'> +2.7854333E+03 </wgt>
<wgt id='1731'> +2.7952959E+03 </wgt>
<wgt id='1732'> +2.8098525E+03 </wgt>
<wgt id='1733'> +2.8094160E+03 </wgt>
<wgt id='1734'> +2.8088357E+03 </wgt>
<wgt id='1735'> +2.7665231E+03 </wgt>
<wgt id='1736'> +2.7891166E+03 </wgt>
<wgt id='1737'> +2.7836982E+03 </wgt>
<wgt id='1738'> +2.7714167E+03 </wgt>
<wgt id='1739'> +2.8158578E+03 </wgt>
<wgt id='1740'> +2.7881819E+03 </wgt>
<wgt id='1741'> +2.7874230E+03 </wgt>
<wgt id='1742'> +2.7990912E+03 </wgt>
<wgt id='1743'> +2.8015289E+03 </wgt>
<wgt id='1744'> +2.7779010E+03 </wgt>
<wgt id='1745'> +2.7957928E+03 </wgt>
<wgt id='1746'> +2.7788416E+03 </wgt>
<wgt id='1747'> +2.7908417E+03 </wgt>
<wgt id='1748'> +2.7940107E+03 </wgt>
<wgt id='1749'> +2.6543691E+03 </wgt>
<wgt id='1750'> +2.9440555E+03 </wgt>
<wgt id='1751'> +2.8009419E+03 </wgt>
<wgt id='1752'> +2.8914347E+03 </wgt>
<wgt id='1753'> +2.7494083E+03 </wgt>
<wgt id='1754'> +2.8091875E+03 </wgt>
<wgt id='1755'> +2.7893811E+03 </wgt>
<wgt id='1756'> +2.7854115E+03 </wgt>
<wgt id='1757'> +2.8114420E+03 </wgt>
<wgt id='1758'> +2.8117516E+03 </wgt>
<wgt id='1759'> +2.8075113E+03 </wgt>
<wgt id='1760'> +2.9094374E+03 </wgt>
<wgt id='1761'> +2.7687851E+03 </wgt>
<wgt id='1762'> +2.6925745E+03 </wgt>
<wgt id='1763'> +2.7868872E+03 </wgt>
<wgt id='1764'> +2.8074138E+03 </wgt>
<wgt id='1765'> +2.8237517E+03 </wgt>
<wgt id='1766'> +2.7997407E+03 </wgt>
<wgt id='1767'> +2.8007764E+03 </wgt>
<wgt id='1768'> +2.8242978E+03 </wgt>
<wgt id='1769'> +2.8094042E+03 </wgt>
<wgt id='1770'> +2.8029417E+03 </wgt>
<wgt id='1771'> +2.8290600E+03 </wgt>
<wgt id='1772'> +2.8195964E+03 </wgt>
<wgt id='1773'> +2.7631273E+03 </wgt>
<wgt id='1774'> +2.7987751E+03 </wgt>
<wgt id='1775'> +2.7693534E+03 </wgt>
<wgt id='1776'> +2.8119774E+03 </wgt>
<wgt id='1777'> +2.8313393E+03 </wgt>
<wgt id='1778'> +2.7641987E+03 </wgt>
<wgt id='1779'> +2.7753147E+03 </wgt>
<wgt id='1780'> +2.8372081E+03 </wgt>
<wgt id='1781'> +2.7955103E+03 </wgt>
<wgt id='1782'> +2.6677799E+03 </wgt>
<wgt id='1783'> +2.9315519E+03 </wgt>
<wgt id='1784'> +3.1987604E+03 </wgt>
<wgt id='1785'> +3.2001837E+03 </wgt>
<wgt id='1786'> +3.1973397E+03 </wgt>
<wgt id='1787'> +3.1989094E+03 </wgt>
<wgt id='1788'> +3.1985963E+03 </wgt>
<wgt id='1789'> +3.2055021E+03 </wgt>
<wgt id='1790'> +3.1920332E+03 </wgt>
<wgt id='1791'> +3.1955902E+03 </wgt>
<wgt id='1792'> +3.2018588E+03 </wgt>
<wgt id='1793'> +3.2103501E+03 </wgt>
<wgt id='1794'> +3.1872420E+03 </wgt>
<wgt id='1795'> +3.1989770E+03 </wgt>
<wgt id='1796'> +3.1992456E+03 </wgt>
<wgt id='1797'> +3.1936497E+03 </wgt>
<wgt id='1798'> +3.2039170E+03 </wgt>
<wgt id='1799'> +3.1949468E+03 </wgt>
<wgt id='1800'> +3.1986524E+03 </wgt>
<wgt id='1801'> +3.1978772E+03 </wgt>
<wgt id='1802'> +3.1997589E+03 </wgt>
<wgt id='1803'> +3.1945285E+03 </wgt>
<wgt id='1804'> +3.2021607E+03 </wgt>
<wgt id='1805'> +3.1839765E+03 </wgt>
<wgt id='1806'> +3.2108186E+03 </wgt>
<wgt id='1807'> +3.2218093E+03 </wgt>
<wgt id='1808'> +3.1641983E+03 </wgt>
<wgt id='1809'> +3.2063404E+03 </wgt>
<wgt id='1810'> +3.1950327E+03 </wgt>
<wgt id='1811'> +3.2083921E+03 </wgt>
<wgt id='1812'> +3.1915745E+03 </wgt>
<wgt id='1813'> +3.1987604E+03 </wgt>
<wgt id='1814'> +2.8553946E+03 </wgt>
<wgt id='1815'> +3.5901307E+03 </wgt>
<wgt id='1816'> +2.5449695E+03 </wgt>
<wgt id='1817'> +3.0148530E+03 </wgt>
<wgt id='1818'> +3.2019520E+03 </wgt>
<wgt id='1819'> +3.1985776E+03 </wgt>
<wgt id='1820'> +3.1939330E+03 </wgt>
<wgt id='1821'> +3.2019445E+03 </wgt>
<wgt id='1822'> +3.1816125E+03 </wgt>
<wgt id='1823'> +3.2133517E+03 </wgt>
<wgt id='1824'> +3.1994648E+03 </wgt>
<wgt id='1825'> +3.2080813E+03 </wgt>
<wgt id='1826'> +3.1002718E+03 </wgt>
<wgt id='1827'> +3.0813049E+03 </wgt>
<wgt id='1828'> +3.0829184E+03 </wgt>
<wgt id='1829'> +3.0789289E+03 </wgt>
<wgt id='1830'> +3.0783525E+03 </wgt>
<wgt id='1831'> +3.0834878E+03 </wgt>
<wgt id='1832'> +3.0866206E+03 </wgt>
<wgt id='1833'> +3.0752329E+03 </wgt>
<wgt id='1834'> +3.0772567E+03 </wgt>
<wgt id='1835'> +3.0844786E+03 </wgt>
<wgt id='1836'> +3.0869817E+03 </wgt>
<wgt id='1837'> +3.0749644E+03 </wgt>
<wgt id='1838'> +3.0874520E+03 </wgt>
<wgt id='1839'> +3.0744478E+03 </wgt>
<wgt id='1840'> +3.0739868E+03 </wgt>
<wgt id='1841'> +3.0877831E+03 </wgt>
<wgt id='1842'> +3.0766541E+03 </wgt>
<wgt id='1843'> +3.0819917E+03 </wgt>
<wgt id='1844'> +3.0837489E+03 </wgt>
<wgt id='1845'> +3.0776112E+03 </wgt>
<wgt id='1846'> +3.0734654E+03 </wgt>
<wgt id='1847'> +3.0883450E+03 </wgt>
<wgt id='1848'> +3.0811908E+03 </wgt>
<wgt id='1849'> +3.0769023E+03 </wgt>
<wgt id='1850'> +3.1180861E+03 </wgt>
<wgt id='1851'> +3.0451647E+03 </wgt>
<wgt id='1852'> +3.1402797E+03 </wgt>
<wgt id='1853'> +3.0214958E+03 </wgt>
<wgt id='1854'> +3.1296166E+03 </wgt>
<wgt id='1855'> +3.0387281E+03 </wgt>
<wgt id='1856'> +3.0766210E+03 </wgt>
<wgt id='1857'> +2.7561529E+03 </wgt>
<wgt id='1858'> +3.4441423E+03 </wgt>
<wgt id='1859'> +2.4727501E+03 </wgt>
<wgt id='1860'> +2.9230843E+03 </wgt>
<wgt id='1861'> +3.1670490E+03 </wgt>
<wgt id='1862'> +3.0726559E+03 </wgt>
<wgt id='1863'> +3.0691048E+03 </wgt>
<wgt id='1864'> +3.0683851E+03 </wgt>
<wgt id='1865'> +3.1100874E+03 </wgt>
<wgt id='1866'> +3.1847674E+03 </wgt>
<wgt id='1867'> +3.1336913E+03 </wgt>
<wgt id='1868'> +3.0192882E+03 </wgt>
<wgt id='1869'> +3.0451803E+03 </wgt>
<wgt id='1870'> +2.8285413E+03 </wgt>
<wgt id='1871'> +2.8276709E+03 </wgt>
<wgt id='1872'> +2.8268024E+03 </wgt>
<wgt id='1873'> +2.8259255E+03 </wgt>
<wgt id='1874'> +2.8250590E+03 </wgt>
<wgt id='1875'> +2.8241941E+03 </wgt>
<wgt id='1876'> +2.8233250E+03 </wgt>
<wgt id='1877'> +2.8224575E+03 </wgt>
<wgt id='1878'> +2.8215820E+03 </wgt>
<wgt id='1879'> +2.8207180E+03 </wgt>
<wgt id='1880'> +2.8198482E+03 </wgt>
<wgt id='1881'> +2.8189814E+03 </wgt>
<wgt id='1882'> +2.8181083E+03 </wgt>
<wgt id='1883'> +2.8172456E+03 </wgt>
<wgt id='1884'> +2.8163765E+03 </wgt>
<wgt id='1885'> +2.8155068E+03 </wgt>
<wgt id='1886'> +2.8146414E+03 </wgt>
<wgt id='1887'> +2.8137686E+03 </wgt>
<wgt id='1888'> +2.8129055E+03 </wgt>
<wgt id='1889'> +2.8120343E+03 </wgt>
<wgt id='1890'> +2.8111714E+03 </wgt>
<wgt id='1891'> +2.8103034E+03 </wgt>
<wgt id='1892'> +2.8094385E+03 </wgt>
<wgt id='1893'> +2.8085673E+03 </wgt>
<wgt id='1894'> +2.8077052E+03 </wgt>
<wgt id='1895'> +2.8068397E+03 </wgt>
<wgt id='1896'> +2.8059774E+03 </wgt>
<wgt id='1897'> +2.8051004E+03 </wgt>
<wgt id='1898'> +2.8042354E+03 </wgt>
<wgt id='1899'> +2.8033734E+03 </wgt>
<wgt id='1900'> +2.8025030E+03 </wgt>
<wgt id='1901'> +2.7768873E+03 </wgt>
<wgt id='1902'> +2.8192351E+03 </wgt>
<wgt id='1903'> +2.7628532E+03 </wgt>
<wgt id='1904'> +2.7921893E+03 </wgt>
<wgt id='1905'> +2.7544578E+03 </wgt>
<wgt id='1906'> +2.7493396E+03 </wgt>
<wgt id='1907'> +2.7446425E+03 </wgt>
<wgt id='1908'> +2.7288588E+03 </wgt>
<wgt id='1909'> +2.7747989E+03 </wgt>
<wgt id='1910'> +2.7939322E+03 </wgt>
<wgt id='1911'> +2.8290536E+03 </wgt>
<wgt id='1912'> +2.7023336E+03 </wgt>
<wgt id='1913'> +2.7535133E+03 </wgt>
<wgt id='1914'> +2.7907078E+03 </wgt>
<wgt id='1915'> +2.7295059E+03 </wgt>
<wgt id='1916'> +2.7548027E+03 </wgt>
<wgt id='1917'> +2.7385756E+03 </wgt>
<wgt id='1918'> +2.8657012E+03 </wgt>
<wgt id='1919'> +2.6874248E+03 </wgt>
<wgt id='1920'> +2.8176985E+03 </wgt>
<wgt id='1921'> +2.7804929E+03 </wgt>
<wgt id='1922'> +2.7930473E+03 </wgt>
<wgt id='1923'> +2.8632749E+03 </wgt>
<wgt id='1924'> +2.8493297E+03 </wgt>
<wgt id='1925'> +2.7356619E+03 </wgt>
<wgt id='1926'> +2.7621943E+03 </wgt>
<wgt id='1927'> +2.8326045E+03 </wgt>
<wgt id='1928'> +2.7493698E+03 </wgt>
<wgt id='1929'> +2.7939492E+03 </wgt>
<wgt id='1930'> +2.8019721E+03 </wgt>
<wgt id='1931'> +2.7809852E+03 </wgt>
<wgt id='1932'> +2.7962511E+03 </wgt>
<wgt id='1933'> +2.7740640E+03 </wgt>
<wgt id='1934'> +2.7903552E+03 </wgt>
<wgt id='1935'> +2.7614514E+03 </wgt>
<wgt id='1936'> +2.7830076E+03 </wgt>
<wgt id='1937'> +2.7725560E+03 </wgt>
<wgt id='1938'> +2.8124613E+03 </wgt>
<wgt id='1939'> +2.7844083E+03 </wgt>
<wgt id='1940'> +2.7641822E+03 </wgt>
<wgt id='1941'> +2.7747468E+03 </wgt>
<wgt id='1942'> +2.7581026E+03 </wgt>
<wgt id='1943'> +2.7673869E+03 </wgt>
<wgt id='1944'> +2.7772777E+03 </wgt>
<wgt id='1945'> +2.7865535E+03 </wgt>
<wgt id='1946'> +2.7790528E+03 </wgt>
<wgt id='1947'> +2.7634399E+03 </wgt>
<wgt id='1948'> +2.7693185E+03 </wgt>
<wgt id='1949'> +2.7782643E+03 </wgt>
<wgt id='1950'> +2.7788536E+03 </wgt>
<wgt id='1951'> +2.7621807E+03 </wgt>
<wgt id='1952'> +2.7672310E+03 </wgt>
<wgt id='1953'> +2.7778418E+03 </wgt>
<wgt id='1954'> +2.7697232E+03 </wgt>
<wgt id='1955'> +2.7731016E+03 </wgt>
<wgt id='1956'> +2.7965463E+03 </wgt>
<wgt id='1957'> +2.7715563E+03 </wgt>
<wgt id='1958'> +2.7673199E+03 </wgt>
<wgt id='1959'> +2.7697520E+03 </wgt>
<wgt id='1960'> +2.7733268E+03 </wgt>
<wgt id='1961'> +2.7712651E+03 </wgt>
<wgt id='1962'> +2.7793259E+03 </wgt>
<wgt id='1963'> +2.7816033E+03 </wgt>
<wgt id='1964'> +2.7760704E+03 </wgt>
<wgt id='1965'> +2.7782359E+03 </wgt>
<wgt id='1966'> +2.7722220E+03 </wgt>
<wgt id='1967'> +2.7737750E+03 </wgt>
<wgt id='1968'> +2.7719668E+03 </wgt>
<wgt id='1969'> +2.7833956E+03 </wgt>
<wgt id='1970'> +2.7815252E+03 </wgt>
<wgt id='1971'> +2.7867806E+03 </wgt>
<wgt id='1972'> +2.7770330E+03 </wgt>
<wgt id='1973'> +2.7821309E+03 </wgt>
<wgt id='1974'> +2.7694656E+03 </wgt>
<wgt id='1975'> +2.7776403E+03 </wgt>
<wgt id='1976'> +2.7798691E+03 </wgt>
<wgt id='1977'> +2.7753694E+03 </wgt>
<wgt id='1978'> +2.7711875E+03 </wgt>
<wgt id='1979'> +2.7736996E+03 </wgt>
<wgt id='1980'> +2.7768838E+03 </wgt>
<wgt id='1981'> +2.7817087E+03 </wgt>
<wgt id='1982'> +2.7829000E+03 </wgt>
<wgt id='1983'> +2.7752843E+03 </wgt>
<wgt id='1984'> +2.7773976E+03 </wgt>
<wgt id='1985'> +2.7772160E+03 </wgt>
<wgt id='1986'> +2.7783015E+03 </wgt>
<wgt id='1987'> +2.7789674E+03 </wgt>
<wgt id='1988'> +2.7737497E+03 </wgt>
<wgt id='1989'> +2.7755201E+03 </wgt>
<wgt id='1990'> +2.7760040E+03 </wgt>
<wgt id='1991'> +2.7791579E+03 </wgt>
<wgt id='1992'> +2.7771756E+03 </wgt>
<wgt id='1993'> +2.7750757E+03 </wgt>
<wgt id='1994'> +2.7744824E+03 </wgt>
<wgt id='1995'> +2.7786137E+03 </wgt>
<wgt id='1996'> +2.7765537E+03 </wgt>
<wgt id='1997'> +2.7780562E+03 </wgt>
<wgt id='1998'> +2.7758352E+03 </wgt>
<wgt id='1999'> +2.7772883E+03 </wgt>
<wgt id='2000'> +2.7770068E+03 </wgt>
<wgt id='2001'> +2.7793245E+03 </wgt>
<wgt id='2002'> +2.7768650E+03 </wgt>
<wgt id='2003'> +2.7767429E+03 </wgt>
<wgt id='2004'> +2.7769102E+03 </wgt>
<wgt id='2005'> +2.7769140E+03 </wgt>
<wgt id='2006'> +2.7769540E+03 </wgt>
<wgt id='2007'> +2.7768970E+03 </wgt>
<wgt id='2008'> +2.7767910E+03 </wgt>
<wgt id='2009'> +2.5717398E+03 </wgt>
<wgt id='2010'> +2.3006979E+03 </wgt>
<wgt id='2011'> +2.6609947E+03 </wgt>
<wgt id='2012'> +2.6202413E+03 </wgt>
<wgt id='2013'> +2.4574337E+03 </wgt>
<wgt id='2014'> +2.2815947E+03 </wgt>
<wgt id='2015'> +2.7898869E+03 </wgt>
<wgt id='2016'> +2.5422756E+03 </wgt>
<wgt id='2017'> +2.5612598E+03 </wgt>
<wgt id='2018'> +2.6500720E+03 </wgt>
<wgt id='2019'> +2.5542283E+03 </wgt>
<wgt id='2020'> +2.4388597E+03 </wgt>
<wgt id='2021'> +2.4819017E+03 </wgt>
<wgt id='2022'> +2.7101204E+03 </wgt>
<wgt id='2023'> +2.4349370E+03 </wgt>
<wgt id='2024'> +2.8228622E+03 </wgt>
<wgt id='2025'> +2.5599480E+03 </wgt>
<wgt id='2026'> +2.5511365E+03 </wgt>
<wgt id='2027'> +2.8959138E+03 </wgt>
<wgt id='2028'> +2.4243585E+03 </wgt>
<wgt id='2029'> +2.4849830E+03 </wgt>
<wgt id='2030'> +2.5292620E+03 </wgt>
<wgt id='2031'> +2.4536706E+03 </wgt>
<wgt id='2032'> +2.7234248E+03 </wgt>
<wgt id='2033'> +2.3818947E+03 </wgt>
<wgt id='2034'> +2.5267107E+03 </wgt>
<wgt id='2035'> +2.5861538E+03 </wgt>
<wgt id='2036'> +2.6271292E+03 </wgt>
<wgt id='2037'> +2.3659147E+03 </wgt>
<wgt id='2038'> +2.6209767E+03 </wgt>
<wgt id='2039'> +2.6196448E+03 </wgt>
<wgt id='2040'> +2.6967372E+03 </wgt>
<wgt id='2041'> +2.6274290E+03 </wgt>
<wgt id='2042'> +2.4743570E+03 </wgt>
<wgt id='2043'> +2.6360174E+03 </wgt>
<wgt id='2044'> +2.7427368E+03 </wgt>
<wgt id='2045'> +2.5740746E+03 </wgt>
<wgt id='2046'> +2.6714250E+03 </wgt>
<wgt id='2047'> +2.4641416E+03 </wgt>
<wgt id='2048'> +2.3663249E+03 </wgt>
<wgt id='2049'> +2.5244745E+03 </wgt>
<wgt id='2050'> +2.5243204E+03 </wgt>
<wgt id='2051'> +2.6578530E+03 </wgt>
<wgt id='2052'> +2.5874409E+03 </wgt>
<wgt id='2053'> +2.7159611E+03 </wgt>
<wgt id='2054'> +2.6656745E+03 </wgt>
<wgt id='2055'> +2.7057805E+03 </wgt>
<wgt id='2056'> +2.6538168E+03 </wgt>
<wgt id='2057'> +2.5555634E+03 </wgt>
<wgt id='2058'> +2.5917243E+03 </wgt>
<wgt id='2059'> +2.6237600E+03 </wgt>
<wgt id='2060'> +2.3325207E+03 </wgt>
<wgt id='2061'> +2.5973393E+03 </wgt>
<wgt id='2062'> +2.5973091E+03 </wgt>
<wgt id='2063'> +2.7217005E+03 </wgt>
<wgt id='2064'> +2.5440965E+03 </wgt>
<wgt id='2065'> +2.5459808E+03 </wgt>
<wgt id='2066'> +2.7254720E+03 </wgt>
<wgt id='2067'> +2.4974034E+03 </wgt>
<wgt id='2068'> +2.5536422E+03 </wgt>
<wgt id='2069'> +2.5393647E+03 </wgt>
<wgt id='2070'> +2.6939476E+03 </wgt>
<wgt id='2071'> +2.5668544E+03 </wgt>
<wgt id='2072'> +2.5618733E+03 </wgt>
<wgt id='2073'> +2.7660649E+03 </wgt>
<wgt id='2074'> +2.5837205E+03 </wgt>
<wgt id='2075'> +2.7378441E+03 </wgt>
<wgt id='2076'> +2.6817382E+03 </wgt>
<wgt id='2077'> +2.5671558E+03 </wgt>
<wgt id='2078'> +2.3618359E+03 </wgt>
<wgt id='2079'> +2.4533373E+03 </wgt>
<wgt id='2080'> +2.6745675E+03 </wgt>
<wgt id='2081'> +2.5250246E+03 </wgt>
<wgt id='2082'> +2.2146560E+03 </wgt>
<wgt id='2083'> +2.6545885E+03 </wgt>
<wgt id='2084'> +2.4784293E+03 </wgt>
<wgt id='2085'> +2.3749675E+03 </wgt>
<wgt id='2086'> +2.5894647E+03 </wgt>
<wgt id='2087'> +2.6475366E+03 </wgt>
<wgt id='2088'> +2.4873655E+03 </wgt>
<wgt id='2089'> +2.5894147E+03 </wgt>
<wgt id='2090'> +2.5718644E+03 </wgt>
<wgt id='2091'> +2.4415679E+03 </wgt>
<wgt id='2092'> +2.6275361E+03 </wgt>
<wgt id='2093'> +2.4531592E+03 </wgt>
<wgt id='2094'> +2.5260033E+03 </wgt>
<wgt id='2095'> +2.6224783E+03 </wgt>
<wgt id='2096'> +2.5053663E+03 </wgt>
<wgt id='2097'> +2.4896123E+03 </wgt>
<wgt id='2098'> +2.5472582E+03 </wgt>
<wgt id='2099'> +2.4391854E+03 </wgt>
<wgt id='2100'> +2.5210277E+03 </wgt>
<wgt id='2101'> +2.6471495E+03 </wgt>
<wgt id='2102'> +2.6298133E+03 </wgt>
<wgt id='2103'> +2.5789274E+03 </wgt>
<wgt id='2104'> +2.7861504E+03 </wgt>
<wgt id='2105'> +2.6268455E+03 </wgt>
<wgt id='2106'> +2.2701740E+03 </wgt>
<wgt id='2107'> +2.8138134E+03 </wgt>
<wgt id='2108'> +2.7012592E+03 </wgt>
<wgt id='2109'> +2.8303006E+03 </wgt>
<wgt id='2110'> +2.4955613E+03 </wgt>
<wgt id='2111'> +2.6741138E+03 </wgt>
<wgt id='2112'> +2.6516046E+03 </wgt>
<wgt id='2113'> +1.4365678E+03 </wgt>
<wgt id='2114'> +2.4420405E+03 </wgt>
<wgt id='2115'> +2.2615351E+03 </wgt>
<wgt id='2116'> +3.2744284E+03 </wgt>
</rwgt>
</event>
<event>
 5      0 +2.9771057E+03 7.89968500e+01 7.54677100e-03 1.20619600e-01
       -1 -1    0    0    0  501 -0.0000000000e+00 +0.0000000000e+00 +6.5207512288e+00 6.5207512288e+00 0.0000000000e+00 0.0000e+00 1.0000e+00
        2 -1    0    0  501    0 +0.0000000000e+00 -0.0000000000e+00 -2.3925552165e+02 2.3925552165e+02 0.0000000000e+00 0.0000e+00 -1.0000e+00
       24  2    1    2    0    0 +0.0000000000e+00 +0.0000000000e+00 -2.3273477042e+02 2.4577627288e+02 7.8996854033e+01 0.0000e+00 0.0000e+00
      -11  1    3    3    0    0 +9.7964605407e+00 -2.0218167577e+01 -1.5294479404e+01 2.7178411277e+01 0.0000000000e+00 0.0000e+00 1.0000e+00
       12  1    3    3    0    0 -9.7964605407e+00 +2.0218167577e+01 -2.1744029101e+02 2.1859786160e+02 0.0000000000e+00 0.0000e+00 -1.0000e+00
<scales pt_clust_4="13000.00000" pt_clust_5="13000.00000"></scales>
<mgrwt>
<rscale>  0 0.78996854E+02</rscale>
<asrwt>0</asrwt>
<pdfrwt beam="1">  1        2 0.36808542E-01 0.78996854E+02</pdfrwt>
<pdfrwt beam="2">  1       -1 0.10031925E-02 0.78996854E+02</pdfrwt>
<totfact> 0.25800711E+05</totfact>
</mgrwt>
<clustering>
<clus scale="   78.997">  4  5 -1 -1</clus>
<clus scale="   78.997">  2  4  1 -1</clus>
</clustering>
<rwgt>
<wgt id='1001'> +2.9771057E+03 </wgt>
<wgt id='1002'> +2.6689976E+03 </wgt>
<wgt id='1003'> +2.6689976E+03 </wgt>
<wgt id='1004'> +2.2670006E+03 </wgt>
<wgt id='1005'> +2.9771057E+03 </wgt>
<wgt id='1006'> +2.9771057E+03 </wgt>
<wgt id='1007'> +2.6689976E+03 </wgt>
<wgt id='1008'> +2.6689976E+03 </wgt>
<wgt id='1009'> +2.2670006E+03 </wgt>
<wgt id='1010'> +2.9771057E+03 </wgt>
<wgt id='1011'> +2.9771057E+03 </wgt>
<wgt id='1012'> +2.6689976E+03 </wgt>
<wgt id='1013'> +2.6689976E+03 </wgt>
<wgt id='1014'> +2.2670006E+03 </wgt>
<wgt id='1015'> +2.9771057E+03 </wgt>
<wgt id='1016'> +3.3316464E+03 </wgt>
<wgt id='1017'> +3.0450904E+03 </wgt>
<wgt id='1018'> +3.0450904E+03 </wgt>
<wgt id='1019'> +2.6689976E+03 </wgt>
<wgt id='1020'> +3.3316464E+03 </wgt>
<wgt id='1021'> +3.3316464E+03 </wgt>
<wgt id='1022'> +3.0450904E+03 </wgt>
<wgt id='1023'> +3.0450904E+03 </wgt>
<wgt id='1024'> +2.6689976E+03 </wgt>
<wgt id='1025'> +3.3316464E+03 </wgt>
<wgt id='1026'> +3.3316464E+03 </wgt>
<wgt id='1027'> +3.0450904E+03 </wgt>
<wgt id='1028'> +3.0450904E+03 </wgt>
<wgt id='1029'> +2.6689976E+03 </wgt>
<wgt id='1030'> +3.3316464E+03 </wgt>
<wgt id='1031'> +2.5961638E+03 </wgt>
<wgt id='1032'> +2.2670006E+03 </wgt>
<wgt id='1033'> +2.2670006E+03 </wgt>
<wgt id='1034'> +1.8409402E+03 </wgt>
<wgt id='1035'> +2.5961638E+03 </wgt>
<wgt id='1036'> +2.5961638E+03 </wgt>
<wgt id='1037'> +2.2670006E+03 </wgt>
<wgt id='1038'> +2.2670006E+03 </wgt>
<wgt id='1039'> +1.8409402E+03 </wgt>
<wgt id='1040'> +2.5961638E+03 </wgt>
<wgt id='1041'> +2.5961638E+03 </wgt>
<wgt id='1042'> +2.2670006E+03 </wgt>
<wgt id='1043'> +2.2670006E+03 </wgt>
<wgt id='1044'> +1.8409402E+03 </wgt>
<wgt id='1045'> +2.5961638E+03 </wgt>
<wgt id='1046'> +2.9771057E+03 </wgt>
<wgt id='1047'> +2.9745498E+03 </wgt>
<wgt id='1048'> +2.9772990E+03 </wgt>
<wgt id='1049'> +2.9763314E+03 </wgt>
<wgt id='1050'> +2.9901363E+03 </wgt>
<wgt id='1051'> +2.9764066E+03 </wgt>
<wgt id='1052'> +2.9686059E+03 </wgt>
<wgt id='1053'> +2.9778652E+03 </wgt>
<wgt id='1054'> +2.9681905E+03 </wgt>
<wgt id='1055'> +2.9826233E+03 </wgt>
<wgt id='1056'> +2.9625014E+03 </wgt>
<wgt id='1057'> +2.9654922E+03 </wgt>
<wgt id='1058'> +2.9860545E+03 </wgt>
<wgt id='1059'> +2.9699109E+03 </wgt>
<wgt id='1060'> +2.9752361E+03 </wgt>
<wgt id='1061'> +2.9928057E+03 </wgt>
<wgt id='1062'> +2.9894897E+03 </wgt>
<wgt id='1063'> +2.9650335E+03 </wgt>
<wgt id='1064'> +2.9715319E+03 </wgt>
<wgt id='1065'> +2.9677279E+03 </wgt>
<wgt id='1066'> +2.9726596E+03 </wgt>
<wgt id='1067'> +2.9898619E+03 </wgt>
<wgt id='1068'> +2.9796776E+03 </wgt>
<wgt id='1069'> +2.9687963E+03 </wgt>
<wgt id='1070'> +2.9982474E+03 </wgt>
<wgt id='1071'> +2.9809534E+03 </wgt>
<wgt id='1072'> +2.9635124E+03 </wgt>
<wgt id='1073'> +2.9757531E+03 </wgt>
<wgt id='1074'> +2.9768375E+03 </wgt>
<wgt id='1075'> +2.9637893E+03 </wgt>
<wgt id='1076'> +2.9919437E+03 </wgt>
<wgt id='1077'> +2.9804252E+03 </wgt>
<wgt id='1078'> +2.9722685E+03 </wgt>
<wgt id='1079'> +2.9741744E+03 </wgt>
<wgt id='1080'> +2.9778856E+03 </wgt>
<wgt id='1081'> +2.9761516E+03 </wgt>
<wgt id='1082'> +2.9760902E+03 </wgt>
<wgt id='1083'> +2.9733546E+03 </wgt>
<wgt id='1084'> +2.9782556E+03 </wgt>
<wgt id='1085'> +2.9752996E+03 </wgt>
<wgt id='1086'> +2.9756162E+03 </wgt>
<wgt id='1087'> +2.9745749E+03 </wgt>
<wgt id='1088'> +2.9765929E+03 </wgt>
<wgt id='1089'> +2.9806970E+03 </wgt>
<wgt id='1090'> +2.9748748E+03 </wgt>
<wgt id='1091'> +2.9773168E+03 </wgt>
<wgt id='1092'> +2.9800597E+03 </wgt>
<wgt id='1093'> +2.9798321E+03 </wgt>
<wgt id='1094'> +2.9782872E+03 </wgt>
<wgt id='1095'> +2.9693190E+03 </wgt>
<wgt id='1096'> +2.9735095E+03 </wgt>
<wgt id='1097'> +2.9775299E+03 </wgt>
<wgt id='1098'> +2.9759771E+03 </wgt>
<wgt id='1099'> +2.9788939E+03 </wgt>
<wgt id='1100'> +2.9773380E+03 </wgt>
<wgt id='1101'> +2.9803197E+03 </wgt>
<wgt id='1102'> +2.9756278E+03 </wgt>
<wgt id='1103'> +2.9795769E+03 </wgt>
<wgt id='1104'> +2.9819558E+03 </wgt>
<wgt id='1105'> +2.9732845E+03 </wgt>
<wgt id='1106'> +2.9775952E+03 </wgt>
<wgt id='1107'> +2.9790774E+03 </wgt>
<wgt id='1108'> +2.9752526E+03 </wgt>
<wgt id='1109'> +2.9763239E+03 </wgt>
<wgt id='1110'> +2.9772388E+03 </wgt>
<wgt id='1111'> +2.9762953E+03 </wgt>
<wgt id='1112'> +2.9768352E+03 </wgt>
<wgt id='1113'> +2.9767820E+03 </wgt>
<wgt id='1114'> +2.9778368E+03 </wgt>
<wgt id='1115'> +2.9800768E+03 </wgt>
<wgt id='1116'> +2.9757591E+03 </wgt>
<wgt id='1117'> +2.9769165E+03 </wgt>
<wgt id='1118'> +2.9782801E+03 </wgt>
<wgt id='1119'> +2.9831041E+03 </wgt>
<wgt id='1120'> +2.9763036E+03 </wgt>
<wgt id='1121'> +2.9790462E+03 </wgt>
<wgt id='1122'> +2.9777977E+03 </wgt>
<wgt id='1123'> +2.9758086E+03 </wgt>
<wgt id='1124'> +2.9788326E+03 </wgt>
<wgt id='1125'> +2.9779596E+03 </wgt>
<wgt id='1126'> +2.9753763E+03 </wgt>
<wgt id='1127'> +2.9787081E+03 </wgt>
<wgt id='1128'> +2.9776735E+03 </wgt>
<wgt id='1129'> +2.9782981E+03 </wgt>
<wgt id='1130'> +2.9764949E+03 </wgt>
<wgt id='1131'> +2.9763260E+03 </wgt>
<wgt id='1132'> +2.9766378E+03 </wgt>
<wgt id='1133'> +2.9752656E+03 </wgt>
<wgt id='1134'> +2.9777923E+03 </wgt>
<wgt id='1135'> +2.9761865E+03 </wgt>
<wgt id='1136'> +2.9736711E+03 </wgt>
<wgt id='1137'> +2.9771541E+03 </wgt>
<wgt id='1138'> +2.9786769E+03 </wgt>
<wgt id='1139'> +2.9775074E+03 </wgt>
<wgt id='1140'> +2.9758079E+03 </wgt>
<wgt id='1141'> +2.9763290E+03 </wgt>
<wgt id='1142'> +2.9770588E+03 </wgt>
<wgt id='1143'> +2.9780869E+03 </wgt>
<wgt id='1144'> +2.9775700E+03 </wgt>
<wgt id='1145'> +2.9781270E+03 </wgt>
<wgt id='1146'> +2.9790834E+03 </wgt>
<wgt id='1147'> +2.9536984E+03 </wgt>
<wgt id='1148'> +3.0004863E+03 </wgt>
<wgt id='1149'> +2.8919305E+03 </wgt>
<wgt id='1150'> +2.9024081E+03 </wgt>
<wgt id='1151'> +2.9110977E+03 </wgt>
<wgt id='1152'> +2.9345768E+03 </wgt>
<wgt id='1153'> +2.9785432E+03 </wgt>
<wgt id='1154'> +2.9886555E+03 </wgt>
<wgt id='1155'> +3.0278764E+03 </wgt>
<wgt id='1156'> +3.0365605E+03 </wgt>
<wgt id='1157'> +2.9243178E+03 </wgt>
<wgt id='1158'> +2.9257784E+03 </wgt>
<wgt id='1159'> +2.9298761E+03 </wgt>
<wgt id='1160'> +2.9191155E+03 </wgt>
<wgt id='1161'> +2.9391362E+03 </wgt>
<wgt id='1162'> +2.9253810E+03 </wgt>
<wgt id='1163'> +2.9140772E+03 </wgt>
<wgt id='1164'> +2.9298880E+03 </wgt>
<wgt id='1165'> +2.9322219E+03 </wgt>
<wgt id='1166'> +2.9294651E+03 </wgt>
<wgt id='1167'> +2.9110896E+03 </wgt>
<wgt id='1168'> +2.9202540E+03 </wgt>
<wgt id='1169'> +2.9277066E+03 </wgt>
<wgt id='1170'> +2.9361674E+03 </wgt>
<wgt id='1171'> +2.9231327E+03 </wgt>
<wgt id='1172'> +2.9157101E+03 </wgt>
<wgt id='1173'> +2.9423295E+03 </wgt>
<wgt id='1174'> +2.9163136E+03 </wgt>
<wgt id='1175'> +2.9330415E+03 </wgt>
<wgt id='1176'> +2.9270730E+03 </wgt>
<wgt id='1177'> +2.9176311E+03 </wgt>
<wgt id='1178'> +2.9348944E+03 </wgt>
<wgt id='1179'> +2.9221104E+03 </wgt>
<wgt id='1180'> +2.9132221E+03 </wgt>
<wgt id='1181'> +2.9429922E+03 </wgt>
<wgt id='1182'> +2.9170517E+03 </wgt>
<wgt id='1183'> +2.9265594E+03 </wgt>
<wgt id='1184'> +2.9223696E+03 </wgt>
<wgt id='1185'> +2.9226054E+03 </wgt>
<wgt id='1186'> +2.9461088E+03 </wgt>
<wgt id='1187'> +2.9240531E+03 </wgt>
<wgt id='1188'> +2.9123406E+03 </wgt>
<wgt id='1189'> +2.9294983E+03 </wgt>
<wgt id='1190'> +2.9211739E+03 </wgt>
<wgt id='1191'> +2.9270517E+03 </wgt>
<wgt id='1192'> +2.9287179E+03 </wgt>
<wgt id='1193'> +2.9260757E+03 </wgt>
<wgt id='1194'> +2.9206135E+03 </wgt>
<wgt id='1195'> +2.9250015E+03 </wgt>
<wgt id='1196'> +2.9223196E+03 </wgt>
<wgt id='1197'> +2.9238189E+03 </wgt>
<wgt id='1198'> +2.9213111E+03 </wgt>
<wgt id='1199'> +2.9226717E+03 </wgt>
<wgt id='1200'> +2.9225547E+03 </wgt>
<wgt id='1201'> +2.9239935E+03 </wgt>
<wgt id='1202'> +2.9251146E+03 </wgt>
<wgt id='1203'> +2.9230683E+03 </wgt>
<wgt id='1204'> +2.9225860E+03 </wgt>
<wgt id='1205'> +2.9289413E+03 </wgt>
<wgt id='1206'> +2.9304785E+03 </wgt>
<wgt id='1207'> +2.9217479E+03 </wgt>
<wgt id='1208'> +2.9207436E+03 </wgt>
<wgt id='1209'> +2.9238582E+03 </wgt>
<wgt id='1210'> +2.9206773E+03 </wgt>
<wgt id='1211'> +2.9263265E+03 </wgt>
<wgt id='1212'> +2.9262801E+03 </wgt>
<wgt id='1213'> +2.9292720E+03 </wgt>
<wgt id='1214'> +2.9216692E+03 </wgt>
<wgt id='1215'> +2.9197128E+03 </wgt>
<wgt id='1216'> +2.9235068E+03 </wgt>
<wgt id='1217'> +2.9273632E+03 </wgt>
<wgt id='1218'> +2.9246937E+03 </wgt>
<wgt id='1219'> +2.9239558E+03 </wgt>
<wgt id='1220'> +2.9253413E+03 </wgt>
<wgt id='1221'> +2.9260832E+03 </wgt>
<wgt id='1222'> +2.9265734E+03 </wgt>
<wgt id='1223'> +2.9214897E+03 </wgt>
<wgt id='1224'> +2.9223175E+03 </wgt>
<wgt id='1225'> +2.9254000E+03 </wgt>
<wgt id='1226'> +2.9212390E+03 </wgt>
<wgt id='1227'> +2.9241509E+03 </wgt>
<wgt id='1228'> +2.9256622E+03 </wgt>
<wgt id='1229'> +2.9284118E+03 </wgt>
<wgt id='1230'> +2.9229682E+03 </wgt>
<wgt id='1231'> +2.9241326E+03 </wgt>
<wgt id='1232'> +2.9200416E+03 </wgt>
<wgt id='1233'> +2.9232093E+03 </wgt>
<wgt id='1234'> +2.9256165E+03 </wgt>
<wgt id='1235'> +2.9244922E+03 </wgt>
<wgt id='1236'> +2.9226028E+03 </wgt>
<wgt id='1237'> +2.9257264E+03 </wgt>
<wgt id='1238'> +2.9266009E+03 </wgt>
<wgt id='1239'> +2.9254381E+03 </wgt>
<wgt id='1240'> +2.9270812E+03 </wgt>
<wgt id='1241'> +2.9239304E+03 </wgt>
<wgt id='1242'> +2.9257888E+03 </wgt>
<wgt id='1243'> +2.9230722E+03 </wgt>
<wgt id='1244'> +2.9244688E+03 </wgt>
<wgt id='1245'> +2.9227750E+03 </wgt>
<wgt id='1246'> +2.9232580E+03 </wgt>
<wgt id='1247'> +2.9246885E+03 </wgt>
<wgt id='1248'> +2.9244602E+03 </wgt>
<wgt id='1249'> +2.9245792E+03 </wgt>
<wgt id='1250'> +2.9254953E+03 </wgt>
<wgt id='1251'> +2.9247317E+03 </wgt>
<wgt id='1252'> +2.9260199E+03 </wgt>
<wgt id='1253'> +2.9246508E+03 </wgt>
<wgt id='1254'> +2.9256376E+03 </wgt>
<wgt id='1255'> +2.9223076E+03 </wgt>
<wgt id='1256'> +2.9263853E+03 </wgt>
<wgt id='1257'> +2.9225626E+03 </wgt>
<wgt id='1258'> +2.9026557E+03 </wgt>
<wgt id='1259'> +2.9510217E+03 </wgt>
<wgt id='1260'> +2.8954166E+03 </wgt>
<wgt id='1261'> +2.8663464E+03 </wgt>
<wgt id='1262'> +2.8719115E+03 </wgt>
<wgt id='1263'> +2.9116340E+03 </wgt>
<wgt id='1264'> +2.8935839E+03 </wgt>
<wgt id='1265'> +2.9094092E+03 </wgt>
<wgt id='1266'> +2.9187118E+03 </wgt>
<wgt id='1267'> +2.8934204E+03 </wgt>
<wgt id='1268'> +2.8618978E+03 </wgt>
<wgt id='1269'> +2.9497651E+03 </wgt>
<wgt id='1270'> +2.8642030E+03 </wgt>
<wgt id='1271'> +2.8897353E+03 </wgt>
<wgt id='1272'> +2.8735350E+03 </wgt>
<wgt id='1273'> +2.8716239E+03 </wgt>
<wgt id='1274'> +2.8600013E+03 </wgt>
<wgt id='1275'> +2.9104436E+03 </wgt>
<wgt id='1276'> +2.8375555E+03 </wgt>
<wgt id='1277'> +2.9175512E+03 </wgt>
<wgt id='1278'> +2.8737292E+03 </wgt>
<wgt id='1279'> +2.9290161E+03 </wgt>
<wgt id='1280'> +2.8770631E+03 </wgt>
<wgt id='1281'> +2.8937721E+03 </wgt>
<wgt id='1282'> +2.8959398E+03 </wgt>
<wgt id='1283'> +2.8688600E+03 </wgt>
<wgt id='1284'> +2.9246694E+03 </wgt>
<wgt id='1285'> +2.8642018E+03 </wgt>
<wgt id='1286'> +2.9226536E+03 </wgt>
<wgt id='1287'> +2.8520007E+03 </wgt>
<wgt id='1288'> +2.9612231E+03 </wgt>
<wgt id='1289'> +2.8542419E+03 </wgt>
<wgt id='1290'> +2.9202373E+03 </wgt>
<wgt id='1291'> +2.8970237E+03 </wgt>
<wgt id='1292'> +2.8899456E+03 </wgt>
<wgt id='1293'> +2.9654304E+03 </wgt>
<wgt id='1294'> +2.8288702E+03 </wgt>
<wgt id='1295'> +2.8677585E+03 </wgt>
<wgt id='1296'> +2.9215490E+03 </wgt>
<wgt id='1297'> +2.9608591E+03 </wgt>
<wgt id='1298'> +2.8228670E+03 </wgt>
<wgt id='1299'> +2.9385722E+03 </wgt>
<wgt id='1300'> +2.8410304E+03 </wgt>
<wgt id='1301'> +2.8930023E+03 </wgt>
<wgt id='1302'> +2.9054853E+03 </wgt>
<wgt id='1303'> +2.9050208E+03 </wgt>
<wgt id='1304'> +2.8519743E+03 </wgt>
<wgt id='1305'> +2.9008430E+03 </wgt>
<wgt id='1306'> +2.9308989E+03 </wgt>
<wgt id='1307'> +2.8907897E+03 </wgt>
<wgt id='1308'> +2.9373609E+03 </wgt>
<wgt id='1309'> +2.8899206E+03 </wgt>
<wgt id='1310'> +2.9632720E+03 </wgt>
<wgt id='1311'> +2.8886052E+03 </wgt>
<wgt id='1312'> +2.9260348E+03 </wgt>
<wgt id='1313'> +2.8901628E+03 </wgt>
<wgt id='1314'> +2.8956814E+03 </wgt>
<wgt id='1315'> +2.8398291E+03 </wgt>
<wgt id='1316'> +2.9755374E+03 </wgt>
<wgt id='1317'> +2.8589590E+03 </wgt>
<wgt id='1318'> +2.9321460E+03 </wgt>
<wgt id='1319'> +2.7733637E+03 </wgt>
<wgt id='1320'> +2.8003023E+03 </wgt>
<wgt id='1321'> +2.7492511E+03 </wgt>
<wgt id='1322'> +2.8131677E+03 </wgt>
<wgt id='1323'> +2.7891774E+03 </wgt>
<wgt id='1324'> +2.8370763E+03 </wgt>
<wgt id='1325'> +2.7623081E+03 </wgt>
<wgt id='1326'> +2.7708456E+03 </wgt>
<wgt id='1327'> +2.8210954E+03 </wgt>
<wgt id='1328'> +2.7594506E+03 </wgt>
<wgt id='1329'> +2.7832835E+03 </wgt>
<wgt id='1330'> +2.7552149E+03 </wgt>
<wgt id='1331'> +2.7988742E+03 </wgt>
<wgt id='1332'> +2.7017957E+03 </wgt>
<wgt id='1333'> +2.8005809E+03 </wgt>
<wgt id='1334'> +2.7944124E+03 </wgt>
<wgt id='1335'> +2.7314025E+03 </wgt>
<wgt id='1336'> +2.8417397E+03 </wgt>
<wgt id='1337'> +2.6974531E+03 </wgt>
<wgt id='1338'> +2.7934823E+03 </wgt>
<wgt id='1339'> +2.7500073E+03 </wgt>
<wgt id='1340'> +2.7839069E+03 </wgt>
<wgt id='1341'> +2.7525265E+03 </wgt>
<wgt id='1342'> +2.8257940E+03 </wgt>
<wgt id='1343'> +2.7192014E+03 </wgt>
<wgt id='1344'> +2.7754999E+03 </wgt>
<wgt id='1345'> +2.7771018E+03 </wgt>
<wgt id='1346'> +2.7857563E+03 </wgt>
<wgt id='1347'> +2.7564434E+03 </wgt>
<wgt id='1348'> +2.7162125E+03 </wgt>
<wgt id='1349'> +2.7927808E+03 </wgt>
<wgt id='1350'> +2.7541869E+03 </wgt>
<wgt id='1351'> +2.7979579E+03 </wgt>
<wgt id='1352'> +2.7603660E+03 </wgt>
<wgt id='1353'> +2.7998136E+03 </wgt>
<wgt id='1354'> +2.8228977E+03 </wgt>
<wgt id='1355'> +2.7284960E+03 </wgt>
<wgt id='1356'> +2.7801766E+03 </wgt>
<wgt id='1357'> +2.7492925E+03 </wgt>
<wgt id='1358'> +2.7616864E+03 </wgt>
<wgt id='1359'> +2.7645715E+03 </wgt>
<wgt id='1360'> +2.7703649E+03 </wgt>
<wgt id='1361'> +2.7819212E+03 </wgt>
<wgt id='1362'> +2.7680164E+03 </wgt>
<wgt id='1363'> +2.7683025E+03 </wgt>
<wgt id='1364'> +2.7606165E+03 </wgt>
<wgt id='1365'> +2.7635145E+03 </wgt>
<wgt id='1366'> +2.7373379E+03 </wgt>
<wgt id='1367'> +2.7963108E+03 </wgt>
<wgt id='1368'> +2.7734399E+03 </wgt>
<wgt id='1369'> +2.7771964E+03 </wgt>
<wgt id='1370'> +2.7472727E+03 </wgt>
<wgt id='1371'> +2.7525291E+03 </wgt>
<wgt id='1372'> +2.7415497E+03 </wgt>
<wgt id='1373'> +2.7435242E+03 </wgt>
<wgt id='1374'> +2.7210243E+03 </wgt>
<wgt id='1375'> +2.8396897E+03 </wgt>
<wgt id='1376'> +2.7383418E+03 </wgt>
<wgt id='1377'> +2.8043289E+03 </wgt>
<wgt id='1378'> +2.4436385E+03 </wgt>
<wgt id='1379'> +2.7747113E+03 </wgt>
<wgt id='1380'> +2.7797361E+03 </wgt>
<wgt id='1381'> +2.7695114E+03 </wgt>
<wgt id='1382'> +2.7639602E+03 </wgt>
<wgt id='1383'> +2.7820808E+03 </wgt>
<wgt id='1384'> +2.7633226E+03 </wgt>
<wgt id='1385'> +2.7855582E+03 </wgt>
<wgt id='1386'> +2.7692895E+03 </wgt>
<wgt id='1387'> +2.7808108E+03 </wgt>
<wgt id='1388'> +2.7745260E+03 </wgt>
<wgt id='1389'> +2.7749442E+03 </wgt>
<wgt id='1390'> +2.7774307E+03 </wgt>
<wgt id='1391'> +2.7690422E+03 </wgt>
<wgt id='1392'> +2.7690203E+03 </wgt>
<wgt id='1393'> +2.7850005E+03 </wgt>
<wgt id='1394'> +2.7753694E+03 </wgt>
<wgt id='1395'> +2.7743884E+03 </wgt>
<wgt id='1396'> +2.7831145E+03 </wgt>
<wgt id='1397'> +2.7650724E+03 </wgt>
<wgt id='1398'> +2.7840789E+03 </wgt>
<wgt id='1399'> +2.7666460E+03 </wgt>
<wgt id='1400'> +2.7727815E+03 </wgt>
<wgt id='1401'> +2.7778016E+03 </wgt>
<wgt id='1402'> +2.8017390E+03 </wgt>
<wgt id='1403'> +2.7572053E+03 </wgt>
<wgt id='1404'> +2.7799196E+03 </wgt>
<wgt id='1405'> +2.7556916E+03 </wgt>
<wgt id='1406'> +2.7917947E+03 </wgt>
<wgt id='1407'> +2.7696097E+03 </wgt>
<wgt id='1408'> +2.7912440E+03 </wgt>
<wgt id='1409'> +2.7545724E+03 </wgt>
<wgt id='1410'> +2.7860345E+03 </wgt>
<wgt id='1411'> +2.7609608E+03 </wgt>
<wgt id='1412'> +2.7671392E+03 </wgt>
<wgt id='1413'> +2.7825369E+03 </wgt>
<wgt id='1414'> +2.7624158E+03 </wgt>
<wgt id='1415'> +2.8133245E+03 </wgt>
<wgt id='1416'> +2.7677555E+03 </wgt>
<wgt id='1417'> +2.7841406E+03 </wgt>
<wgt id='1418'> +2.7770899E+03 </wgt>
<wgt id='1419'> +2.7717612E+03 </wgt>
<wgt id='1420'> +2.7335599E+03 </wgt>
<wgt id='1421'> +2.7986884E+03 </wgt>
<wgt id='1422'> +2.7991188E+03 </wgt>
<wgt id='1423'> +2.7540514E+03 </wgt>
<wgt id='1424'> +2.7636977E+03 </wgt>
<wgt id='1425'> +2.8015444E+03 </wgt>
<wgt id='1426'> +2.7770656E+03 </wgt>
<wgt id='1427'> +2.7684964E+03 </wgt>
<wgt id='1428'> +2.7706607E+03 </wgt>
<wgt id='1429'> +2.7752619E+03 </wgt>
<wgt id='1430'> +2.9615214E+03 </wgt>
<wgt id='1431'> +2.9649322E+03 </wgt>
<wgt id='1432'> +2.9571262E+03 </wgt>
<wgt id='1433'> +2.9649653E+03 </wgt>
<wgt id='1434'> +2.9580799E+03 </wgt>
<wgt id='1435'> +2.9454926E+03 </wgt>
<wgt id='1436'> +2.9680761E+03 </wgt>
<wgt id='1437'> +2.9434610E+03 </wgt>
<wgt id='1438'> +2.9795239E+03 </wgt>
<wgt id='1439'> +2.9593751E+03 </wgt>
<wgt id='1440'> +2.9637428E+03 </wgt>
<wgt id='1441'> +2.9547615E+03 </wgt>
<wgt id='1442'> +2.9645668E+03 </wgt>
<wgt id='1443'> +2.9596413E+03 </wgt>
<wgt id='1444'> +2.9639123E+03 </wgt>
<wgt id='1445'> +2.9535264E+03 </wgt>
<wgt id='1446'> +2.9702760E+03 </wgt>
<wgt id='1447'> +2.9614876E+03 </wgt>
<wgt id='1448'> +2.9611063E+03 </wgt>
<wgt id='1449'> +2.9592061E+03 </wgt>
<wgt id='1450'> +2.9643806E+03 </wgt>
<wgt id='1451'> +2.9709068E+03 </wgt>
<wgt id='1452'> +2.9548821E+03 </wgt>
<wgt id='1453'> +2.9517584E+03 </wgt>
<wgt id='1454'> +2.9673554E+03 </wgt>
<wgt id='1455'> +2.9485933E+03 </wgt>
<wgt id='1456'> +2.9929065E+03 </wgt>
<wgt id='1457'> +2.9771939E+03 </wgt>
<wgt id='1458'> +2.9581055E+03 </wgt>
<wgt id='1459'> +2.9505892E+03 </wgt>
<wgt id='1460'> +2.9846574E+03 </wgt>
<wgt id='1461'> +2.9624454E+03 </wgt>
<wgt id='1462'> +2.9618935E+03 </wgt>
<wgt id='1463'> +2.9530376E+03 </wgt>
<wgt id='1464'> +2.9822409E+03 </wgt>
<wgt id='1465'> +3.0084771E+03 </wgt>
<wgt id='1466'> +2.9437313E+03 </wgt>
<wgt id='1467'> +2.9607832E+03 </wgt>
<wgt id='1468'> +2.9680960E+03 </wgt>
<wgt id='1469'> +2.9657585E+03 </wgt>
<wgt id='1470'> +2.9577532E+03 </wgt>
<wgt id='1471'> +2.9820943E+03 </wgt>
<wgt id='1472'> +2.9118153E+03 </wgt>
<wgt id='1473'> +2.9663636E+03 </wgt>
<wgt id='1474'> +2.9283391E+03 </wgt>
<wgt id='1475'> +2.9458326E+03 </wgt>
<wgt id='1476'> +2.9775458E+03 </wgt>
<wgt id='1477'> +2.9833800E+03 </wgt>
<wgt id='1478'> +2.9527941E+03 </wgt>
<wgt id='1479'> +2.9690925E+03 </wgt>
<wgt id='1480'> +2.9589409E+03 </wgt>
<wgt id='1481'> +2.4715381E+03 </wgt>
<wgt id='1482'> +2.8376326E+03 </wgt>
<wgt id='1483'> +2.8371584E+03 </wgt>
<wgt id='1484'> +2.8368136E+03 </wgt>
<wgt id='1485'> +2.8387690E+03 </wgt>
<wgt id='1486'> +2.8377045E+03 </wgt>
<wgt id='1487'> +2.8410673E+03 </wgt>
<wgt id='1488'> +2.8260852E+03 </wgt>
<wgt id='1489'> +2.8387575E+03 </wgt>
<wgt id='1490'> +2.8327993E+03 </wgt>
<wgt id='1491'> +2.8318026E+03 </wgt>
<wgt id='1492'> +2.8463075E+03 </wgt>
<wgt id='1493'> +2.8359075E+03 </wgt>
<wgt id='1494'> +2.8352878E+03 </wgt>
<wgt id='1495'> +2.8407379E+03 </wgt>
<wgt id='1496'> +2.8335984E+03 </wgt>
<wgt id='1497'> +2.8412050E+03 </wgt>
<wgt id='1498'> +2.8373755E+03 </wgt>
<wgt id='1499'> +2.8372599E+03 </wgt>
<wgt id='1500'> +2.8409273E+03 </wgt>
<wgt id='1501'> +2.8389789E+03 </wgt>
<wgt id='1502'> +2.8276165E+03 </wgt>
<wgt id='1503'> +2.8334348E+03 </wgt>
<wgt id='1504'> +2.8323476E+03 </wgt>
<wgt id='1505'> +2.8420157E+03 </wgt>
<wgt id='1506'> +2.8431918E+03 </wgt>
<wgt id='1507'> +2.8466346E+03 </wgt>
<wgt id='1508'> +2.8351341E+03 </wgt>
<wgt id='1509'> +2.8402344E+03 </wgt>
<wgt id='1510'> +2.8304195E+03 </wgt>
<wgt id='1511'> +2.8210120E+03 </wgt>
<wgt id='1512'> +2.7623922E+03 </wgt>
<wgt id='1513'> +2.7583605E+03 </wgt>
<wgt id='1514'> +2.7526334E+03 </wgt>
<wgt id='1515'> +2.7926356E+03 </wgt>
<wgt id='1516'> +2.7561757E+03 </wgt>
<wgt id='1517'> +2.7641168E+03 </wgt>
<wgt id='1518'> +2.7436379E+03 </wgt>
<wgt id='1519'> +2.7711543E+03 </wgt>
<wgt id='1520'> +2.7859885E+03 </wgt>
<wgt id='1521'> +2.7734674E+03 </wgt>
<wgt id='1522'> +2.7722810E+03 </wgt>
<wgt id='1523'> +2.7451265E+03 </wgt>
<wgt id='1524'> +2.7457626E+03 </wgt>
<wgt id='1525'> +2.7405704E+03 </wgt>
<wgt id='1526'> +2.7609575E+03 </wgt>
<wgt id='1527'> +2.7492856E+03 </wgt>
<wgt id='1528'> +2.7562064E+03 </wgt>
<wgt id='1529'> +2.7597598E+03 </wgt>
<wgt id='1530'> +2.7896507E+03 </wgt>
<wgt id='1531'> +2.7519593E+03 </wgt>
<wgt id='1532'> +2.7794101E+03 </wgt>
<wgt id='1533'> +2.7591075E+03 </wgt>
<wgt id='1534'> +2.7612099E+03 </wgt>
<wgt id='1535'> +2.7701507E+03 </wgt>
<wgt id='1536'> +2.7575839E+03 </wgt>
<wgt id='1537'> +2.7653109E+03 </wgt>
<wgt id='1538'> +2.7563360E+03 </wgt>
<wgt id='1539'> +2.7613129E+03 </wgt>
<wgt id='1540'> +2.7587145E+03 </wgt>
<wgt id='1541'> +2.7576110E+03 </wgt>
<wgt id='1542'> +2.7519703E+03 </wgt>
<wgt id='1543'> +2.7660790E+03 </wgt>
<wgt id='1544'> +2.7564865E+03 </wgt>
<wgt id='1545'> +2.7427313E+03 </wgt>
<wgt id='1546'> +2.7653633E+03 </wgt>
<wgt id='1547'> +2.7647810E+03 </wgt>
<wgt id='1548'> +2.7613692E+03 </wgt>
<wgt id='1549'> +2.7567567E+03 </wgt>
<wgt id='1550'> +2.7664550E+03 </wgt>
<wgt id='1551'> +2.7686753E+03 </wgt>
<wgt id='1552'> +2.7639891E+03 </wgt>
<wgt id='1553'> +2.7664643E+03 </wgt>
<wgt id='1554'> +2.7625870E+03 </wgt>
<wgt id='1555'> +2.7618059E+03 </wgt>
<wgt id='1556'> +2.7663750E+03 </wgt>
<wgt id='1557'> +2.7634339E+03 </wgt>
<wgt id='1558'> +2.7625790E+03 </wgt>
<wgt id='1559'> +2.7538057E+03 </wgt>
<wgt id='1560'> +2.7629176E+03 </wgt>
<wgt id='1561'> +2.7622347E+03 </wgt>
<wgt id='1562'> +2.7639474E+03 </wgt>
<wgt id='1563'> +2.7615204E+03 </wgt>
<wgt id='1564'> +2.7664387E+03 </wgt>
<wgt id='1565'> +2.7648351E+03 </wgt>
<wgt id='1566'> +2.7615446E+03 </wgt>
<wgt id='1567'> +2.7655959E+03 </wgt>
<wgt id='1568'> +2.7628129E+03 </wgt>
<wgt id='1569'> +2.7627756E+03 </wgt>
<wgt id='1570'> +2.7662165E+03 </wgt>
<wgt id='1571'> +2.7625035E+03 </wgt>
<wgt id='1572'> +2.7594729E+03 </wgt>
<wgt id='1573'> +2.7644629E+03 </wgt>
<wgt id='1574'> +2.7626099E+03 </wgt>
<wgt id='1575'> +2.7619838E+03 </wgt>
<wgt id='1576'> +2.7646794E+03 </wgt>
<wgt id='1577'> +2.7621998E+03 </wgt>
<wgt id='1578'> +2.7629738E+03 </wgt>
<wgt id='1579'> +2.7636839E+03 </wgt>
<wgt id='1580'> +2.7633045E+03 </wgt>
<wgt id='1581'> +2.7629115E+03 </wgt>
<wgt id='1582'> +2.7586881E+03 </wgt>
<wgt id='1583'> +2.7619210E+03 </wgt>
<wgt id='1584'> +2.7640836E+03 </wgt>
<wgt id='1585'> +2.7623088E+03 </wgt>
<wgt id='1586'> +2.7617864E+03 </wgt>
<wgt id='1587'> +2.7606207E+03 </wgt>
<wgt id='1588'> +2.7634566E+03 </wgt>
<wgt id='1589'> +2.7630875E+03 </wgt>
<wgt id='1590'> +2.7622362E+03 </wgt>
<wgt id='1591'> +2.7627524E+03 </wgt>
<wgt id='1592'> +2.7625189E+03 </wgt>
<wgt id='1593'> +2.7639360E+03 </wgt>
<wgt id='1594'> +2.7622739E+03 </wgt>
<wgt id='1595'> +2.7617920E+03 </wgt>
<wgt id='1596'> +2.7630688E+03 </wgt>
<wgt id='1597'> +2.7614102E+03 </wgt>
<wgt id='1598'> +2.7628106E+03 </wgt>
<wgt id='1599'> +2.7623445E+03 </wgt>
<wgt id='1600'> +2.7627948E+03 </wgt>
<wgt id='1601'> +2.7614679E+03 </wgt>
<wgt id='1602'> +2.7628580E+03 </wgt>
<wgt id='1603'> +2.7619733E+03 </wgt>
<wgt id='1604'> +2.7613436E+03 </wgt>
<wgt id='1605'> +2.7624830E+03 </wgt>
<wgt id='1606'> +2.7620484E+03 </wgt>
<wgt id='1607'> +2.7632807E+03 </wgt>
<wgt id='1608'> +2.7611447E+03 </wgt>
<wgt id='1609'> +2.7628175E+03 </wgt>
<wgt id='1610'> +2.7626511E+03 </wgt>
<wgt id='1611'> +2.7616916E+03 </wgt>
<wgt id='1612'> +2.7626763E+03 </wgt>
<wgt id='1613'> +2.7342550E+03 </wgt>
<wgt id='1614'> +2.7920332E+03 </wgt>
<wgt id='1615'> +2.9108726E+03 </wgt>
<wgt id='1616'> +2.9295257E+03 </wgt>
<wgt id='1617'> +2.9059155E+03 </wgt>
<wgt id='1618'> +2.9157504E+03 </wgt>
<wgt id='1619'> +2.9263737E+03 </wgt>
<wgt id='1620'> +2.9352775E+03 </wgt>
<wgt id='1621'> +2.9237572E+03 </wgt>
<wgt id='1622'> +2.9168148E+03 </wgt>
<wgt id='1623'> +2.9126128E+03 </wgt>
<wgt id='1624'> +2.8939571E+03 </wgt>
<wgt id='1625'> +2.9214255E+03 </wgt>
<wgt id='1626'> +2.9215325E+03 </wgt>
<wgt id='1627'> +2.8994988E+03 </wgt>
<wgt id='1628'> +2.9100263E+03 </wgt>
<wgt id='1629'> +2.8882523E+03 </wgt>
<wgt id='1630'> +2.9663621E+03 </wgt>
<wgt id='1631'> +2.8934019E+03 </wgt>
<wgt id='1632'> +2.9154043E+03 </wgt>
<wgt id='1633'> +2.9174661E+03 </wgt>
<wgt id='1634'> +2.8809270E+03 </wgt>
<wgt id='1635'> +2.9189028E+03 </wgt>
<wgt id='1636'> +2.9153237E+03 </wgt>
<wgt id='1637'> +2.8959167E+03 </wgt>
<wgt id='1638'> +2.9151072E+03 </wgt>
<wgt id='1639'> +2.9058028E+03 </wgt>
<wgt id='1640'> +2.9147392E+03 </wgt>
<wgt id='1641'> +2.9062224E+03 </wgt>
<wgt id='1642'> +2.9061558E+03 </wgt>
<wgt id='1643'> +2.9132272E+03 </wgt>
<wgt id='1644'> +2.9185347E+03 </wgt>
<wgt id='1645'> +2.9197991E+03 </wgt>
<wgt id='1646'> +2.9148553E+03 </wgt>
<wgt id='1647'> +2.9214670E+03 </wgt>
<wgt id='1648'> +2.9347506E+03 </wgt>
<wgt id='1649'> +2.9192705E+03 </wgt>
<wgt id='1650'> +2.9131296E+03 </wgt>
<wgt id='1651'> +2.9095063E+03 </wgt>
<wgt id='1652'> +2.9031018E+03 </wgt>
<wgt id='1653'> +2.9086527E+03 </wgt>
<wgt id='1654'> +2.9155375E+03 </wgt>
<wgt id='1655'> +2.9112126E+03 </wgt>
<wgt id='1656'> +2.9153605E+03 </wgt>
<wgt id='1657'> +2.9111950E+03 </wgt>
<wgt id='1658'> +2.9090917E+03 </wgt>
<wgt id='1659'> +2.9074069E+03 </wgt>
<wgt id='1660'> +2.9066174E+03 </wgt>
<wgt id='1661'> +2.9046011E+03 </wgt>
<wgt id='1662'> +2.9078783E+03 </wgt>
<wgt id='1663'> +2.9125959E+03 </wgt>
<wgt id='1664'> +2.9120598E+03 </wgt>
<wgt id='1665'> +2.9114277E+03 </wgt>
<wgt id='1666'> +2.9075695E+03 </wgt>
<wgt id='1667'> +2.9067205E+03 </wgt>
<wgt id='1668'> +2.9144755E+03 </wgt>
<wgt id='1669'> +2.9078020E+03 </wgt>
<wgt id='1670'> +2.9137468E+03 </wgt>
<wgt id='1671'> +2.9156425E+03 </wgt>
<wgt id='1672'> +2.9106261E+03 </wgt>
<wgt id='1673'> +2.9119913E+03 </wgt>
<wgt id='1674'> +2.9081100E+03 </wgt>
<wgt id='1675'> +2.9096296E+03 </wgt>
<wgt id='1676'> +2.9123867E+03 </wgt>
<wgt id='1677'> +2.9122850E+03 </wgt>
<wgt id='1678'> +2.9112978E+03 </wgt>
<wgt id='1679'> +2.9125176E+03 </wgt>
<wgt id='1680'> +2.9116049E+03 </wgt>
<wgt id='1681'> +2.9099357E+03 </wgt>
<wgt id='1682'> +2.9116450E+03 </wgt>
<wgt id='1683'> +2.9131516E+03 </wgt>
<wgt id='1684'> +2.9100970E+03 </wgt>
<wgt id='1685'> +2.9104585E+03 </wgt>
<wgt id='1686'> +2.9126943E+03 </wgt>
<wgt id='1687'> +2.9109881E+03 </wgt>
<wgt id='1688'> +2.9102437E+03 </wgt>
<wgt id='1689'> +2.9116999E+03 </wgt>
<wgt id='1690'> +2.9123278E+03 </wgt>
<wgt id='1691'> +2.9107747E+03 </wgt>
<wgt id='1692'> +2.9096842E+03 </wgt>
<wgt id='1693'> +2.9103885E+03 </wgt>
<wgt id='1694'> +2.9094016E+03 </wgt>
<wgt id='1695'> +2.9123860E+03 </wgt>
<wgt id='1696'> +2.9096370E+03 </wgt>
<wgt id='1697'> +2.9111401E+03 </wgt>
<wgt id='1698'> +2.9093658E+03 </wgt>
<wgt id='1699'> +2.9100104E+03 </wgt>
<wgt id='1700'> +2.9104337E+03 </wgt>
<wgt id='1701'> +2.9105066E+03 </wgt>
<wgt id='1702'> +2.9103785E+03 </wgt>
<wgt id='1703'> +2.9096380E+03 </wgt>
<wgt id='1704'> +2.9102324E+03 </wgt>
<wgt id='1705'> +2.9103404E+03 </wgt>
<wgt id='1706'> +2.9120502E+03 </wgt>
<wgt id='1707'> +2.9110484E+03 </wgt>
<wgt id='1708'> +2.9109555E+03 </wgt>
<wgt id='1709'> +2.9107749E+03 </wgt>
<wgt id='1710'> +2.9114219E+03 </wgt>
<wgt id='1711'> +2.9111535E+03 </wgt>
<wgt id='1712'> +2.9113489E+03 </wgt>
<wgt id='1713'> +2.9106400E+03 </wgt>
<wgt id='1714'> +2.9105789E+03 </wgt>
<wgt id='1715'> +2.9110620E+03 </wgt>
<wgt id='1716'> +2.8681448E+03 </wgt>
<wgt id='1717'> +2.9342140E+03 </wgt>
<wgt id='1718'> +2.7625769E+03 </wgt>
<wgt id='1719'> +2.7706585E+03 </wgt>
<wgt id='1720'> +2.7480826E+03 </wgt>
<wgt id='1721'> +2.7636331E+03 </wgt>
<wgt id='1722'> +2.8057759E+03 </wgt>
<wgt id='1723'> +2.7827843E+03 </wgt>
<wgt id='1724'> +2.7796709E+03 </wgt>
<wgt id='1725'> +2.7630897E+03 </wgt>
<wgt id='1726'> +2.7687918E+03 </wgt>
<wgt id='1727'> +2.7807639E+03 </wgt>
<wgt id='1728'> +2.7659499E+03 </wgt>
<wgt id='1729'> +2.7459848E+03 </wgt>
<wgt id='1730'> +2.7632905E+03 </wgt>
<wgt id='1731'> +2.7634772E+03 </wgt>
<wgt id='1732'> +2.7252734E+03 </wgt>
<wgt id='1733'> +2.7658445E+03 </wgt>
<wgt id='1734'> +2.7623655E+03 </wgt>
<wgt id='1735'> +2.7495671E+03 </wgt>
<wgt id='1736'> +2.7624823E+03 </wgt>
<wgt id='1737'> +2.7657412E+03 </wgt>
<wgt id='1738'> +2.7617958E+03 </wgt>
<wgt id='1739'> +2.7631078E+03 </wgt>
<wgt id='1740'> +2.7599609E+03 </wgt>
<wgt id='1741'> +2.7613916E+03 </wgt>
<wgt id='1742'> +2.7574639E+03 </wgt>
<wgt id='1743'> +2.7666065E+03 </wgt>
<wgt id='1744'> +2.7600813E+03 </wgt>
<wgt id='1745'> +2.7687833E+03 </wgt>
<wgt id='1746'> +2.7654784E+03 </wgt>
<wgt id='1747'> +2.7764410E+03 </wgt>
<wgt id='1748'> +2.7613594E+03 </wgt>
<wgt id='1749'> +2.7342550E+03 </wgt>
<wgt id='1750'> +2.7920332E+03 </wgt>
<wgt id='1751'> +2.9110321E+03 </wgt>
<wgt id='1752'> +2.9302317E+03 </wgt>
<wgt id='1753'> +2.9760874E+03 </wgt>
<wgt id='1754'> +2.9098076E+03 </wgt>
<wgt id='1755'> +2.8804223E+03 </wgt>
<wgt id='1756'> +2.8991394E+03 </wgt>
<wgt id='1757'> +2.9116603E+03 </wgt>
<wgt id='1758'> +2.9081118E+03 </wgt>
<wgt id='1759'> +2.9180271E+03 </wgt>
<wgt id='1760'> +2.9009701E+03 </wgt>
<wgt id='1761'> +2.9262114E+03 </wgt>
<wgt id='1762'> +2.8977616E+03 </wgt>
<wgt id='1763'> +2.9092135E+03 </wgt>
<wgt id='1764'> +2.9074822E+03 </wgt>
<wgt id='1765'> +2.9084395E+03 </wgt>
<wgt id='1766'> +2.9157851E+03 </wgt>
<wgt id='1767'> +2.9129805E+03 </wgt>
<wgt id='1768'> +2.9042604E+03 </wgt>
<wgt id='1769'> +2.9115197E+03 </wgt>
<wgt id='1770'> +2.9177321E+03 </wgt>
<wgt id='1771'> +2.8692228E+03 </wgt>
<wgt id='1772'> +2.9077921E+03 </wgt>
<wgt id='1773'> +2.9192678E+03 </wgt>
<wgt id='1774'> +2.9095090E+03 </wgt>
<wgt id='1775'> +2.9104596E+03 </wgt>
<wgt id='1776'> +2.9055141E+03 </wgt>
<wgt id='1777'> +2.9115587E+03 </wgt>
<wgt id='1778'> +2.9107218E+03 </wgt>
<wgt id='1779'> +2.9089994E+03 </wgt>
<wgt id='1780'> +2.9083963E+03 </wgt>
<wgt id='1781'> +2.9125619E+03 </wgt>
<wgt id='1782'> +2.8681448E+03 </wgt>
<wgt id='1783'> +2.9342140E+03 </wgt>
<wgt id='1784'> +3.1854446E+03 </wgt>
<wgt id='1785'> +3.1916488E+03 </wgt>
<wgt id='1786'> +3.1792852E+03 </wgt>
<wgt id='1787'> +3.1861967E+03 </wgt>
<wgt id='1788'> +3.1846805E+03 </wgt>
<wgt id='1789'> +3.1879896E+03 </wgt>
<wgt id='1790'> +3.1828759E+03 </wgt>
<wgt id='1791'> +3.1728588E+03 </wgt>
<wgt id='1792'> +3.1976447E+03 </wgt>
<wgt id='1793'> +3.1973373E+03 </wgt>
<wgt id='1794'> +3.1735064E+03 </wgt>
<wgt id='1795'> +3.1925482E+03 </wgt>
<wgt id='1796'> +3.1764695E+03 </wgt>
<wgt id='1797'> +3.1794592E+03 </wgt>
<wgt id='1798'> +3.1911771E+03 </wgt>
<wgt id='1799'> +3.1809135E+03 </wgt>
<wgt id='1800'> +3.1948231E+03 </wgt>
<wgt id='1801'> +3.1788076E+03 </wgt>
<wgt id='1802'> +3.1863566E+03 </wgt>
<wgt id='1803'> +3.1828030E+03 </wgt>
<wgt id='1804'> +3.1900558E+03 </wgt>
<wgt id='1805'> +3.1970262E+03 </wgt>
<wgt id='1806'> +3.1703641E+03 </wgt>
<wgt id='1807'> +3.1694509E+03 </wgt>
<wgt id='1808'> +3.1893465E+03 </wgt>
<wgt id='1809'> +3.1995181E+03 </wgt>
<wgt id='1810'> +3.1759446E+03 </wgt>
<wgt id='1811'> +3.1687320E+03 </wgt>
<wgt id='1812'> +3.1988466E+03 </wgt>
<wgt id='1813'> +3.1854446E+03 </wgt>
<wgt id='1814'> +3.2245737E+03 </wgt>
<wgt id='1815'> +3.1381026E+03 </wgt>
<wgt id='1816'> +3.2334191E+03 </wgt>
<wgt id='1817'> +3.1585878E+03 </wgt>
<wgt id='1818'> +3.2027380E+03 </wgt>
<wgt id='1819'> +3.1734391E+03 </wgt>
<wgt id='1820'> +3.1793448E+03 </wgt>
<wgt id='1821'> +3.1917080E+03 </wgt>
<wgt id='1822'> +3.1556777E+03 </wgt>
<wgt id='1823'> +3.2157631E+03 </wgt>
<wgt id='1824'> +3.1831331E+03 </wgt>
<wgt id='1825'> +3.2179171E+03 </wgt>
<wgt id='1826'> +3.0963598E+03 </wgt>
<wgt id='1827'> +3.2635138E+03 </wgt>
<wgt id='1828'> +3.2706792E+03 </wgt>
<wgt id='1829'> +3.2574477E+03 </wgt>
<wgt id='1830'> +3.2638766E+03 </wgt>
<wgt id='1831'> +3.2642043E+03 </wgt>
<wgt id='1832'> +3.2674826E+03 </wgt>
<wgt id='1833'> +3.2605915E+03 </wgt>
<wgt id='1834'> +3.2502601E+03 </wgt>
<wgt id='1835'> +3.2771834E+03 </wgt>
<wgt id='1836'> +3.2740583E+03 </wgt>
<wgt id='1837'> +3.2536549E+03 </wgt>
<wgt id='1838'> +3.2644992E+03 </wgt>
<wgt id='1839'> +3.2635239E+03 </wgt>
<wgt id='1840'> +3.2542723E+03 </wgt>
<wgt id='1841'> +3.2740490E+03 </wgt>
<wgt id='1842'> +3.2641319E+03 </wgt>
<wgt id='1843'> +3.2713499E+03 </wgt>
<wgt id='1844'> +3.2626473E+03 </wgt>
<wgt id='1845'> +3.2646712E+03 </wgt>
<wgt id='1846'> +3.2687696E+03 </wgt>
<wgt id='1847'> +3.2589604E+03 </wgt>
<wgt id='1848'> +3.2389706E+03 </wgt>
<wgt id='1849'> +3.2851819E+03 </wgt>
<wgt id='1850'> +3.2657899E+03 </wgt>
<wgt id='1851'> +3.2629150E+03 </wgt>
<wgt id='1852'> +3.2538155E+03 </wgt>
<wgt id='1853'> +3.2675426E+03 </wgt>
<wgt id='1854'> +3.2571836E+03 </wgt>
<wgt id='1855'> +3.2681895E+03 </wgt>
<wgt id='1856'> +3.2635138E+03 </wgt>
<wgt id='1857'> +3.3063602E+03 </wgt>
<wgt id='1858'> +3.2058896E+03 </wgt>
<wgt id='1859'> +3.3153587E+03 </wgt>
<wgt id='1860'> +3.2338049E+03 </wgt>
<wgt id='1861'> +3.2635091E+03 </wgt>
<wgt id='1862'> +3.2475953E+03 </wgt>
<wgt id='1863'> +3.2576256E+03 </wgt>
<wgt id='1864'> +3.2757957E+03 </wgt>
<wgt id='1865'> +3.2093229E+03 </wgt>
<wgt id='1866'> +3.2887884E+03 </wgt>
<wgt id='1867'> +3.2290062E+03 </wgt>
<wgt id='1868'> +3.3178371E+03 </wgt>
<wgt id='1869'> +3.2069474E+03 </wgt>
<wgt id='1870'> +2.7531956E+03 </wgt>
<wgt id='1871'> +2.7523574E+03 </wgt>
<wgt id='1872'> +2.7515104E+03 </wgt>
<wgt id='1873'> +2.7506516E+03 </wgt>
<wgt id='1874'> +2.7498228E+03 </wgt>
<wgt id='1875'> +2.7489756E+03 </wgt>
<wgt id='1876'> +2.7481288E+03 </wgt>
<wgt id='1877'> +2.7472899E+03 </wgt>
<wgt id='1878'> +2.7464426E+03 </wgt>
<wgt id='1879'> +2.7456066E+03 </wgt>
<wgt id='1880'> +2.7447602E+03 </wgt>
<wgt id='1881'> +2.7439204E+03 </wgt>
<wgt id='1882'> +2.7430745E+03 </wgt>
<wgt id='1883'> +2.7422291E+03 </wgt>
<wgt id='1884'> +2.7413951E+03 </wgt>
<wgt id='1885'> +2.7405429E+03 </wgt>
<wgt id='1886'> +2.7397078E+03 </wgt>
<wgt id='1887'> +2.7388749E+03 </wgt>
<wgt id='1888'> +2.7380295E+03 </wgt>
<wgt id='1889'> +2.7371783E+03 </wgt>
<wgt id='1890'> +2.7363338E+03 </wgt>
<wgt id='1891'> +2.7355012E+03 </wgt>
<wgt id='1892'> +2.7346632E+03 </wgt>
<wgt id='1893'> +2.7338051E+03 </wgt>
<wgt id='1894'> +2.7329822E+03 </wgt>
<wgt id='1895'> +2.7321378E+03 </wgt>
<wgt id='1896'> +2.7313003E+03 </wgt>
<wgt id='1897'> +2.7304443E+03 </wgt>
<wgt id='1898'> +2.7296123E+03 </wgt>
<wgt id='1899'> +2.7287681E+03 </wgt>
<wgt id='1900'> +2.7279301E+03 </wgt>
<wgt id='1901'> +2.9000142E+03 </wgt>
<wgt id='1902'> +2.9179734E+03 </wgt>
<wgt id='1903'> +2.8949394E+03 </wgt>
<wgt id='1904'> +2.9048780E+03 </wgt>
<wgt id='1905'> +2.9153002E+03 </wgt>
<wgt id='1906'> +2.9243127E+03 </wgt>
<wgt id='1907'> +2.9133111E+03 </wgt>
<wgt id='1908'> +2.9063791E+03 </wgt>
<wgt id='1909'> +2.9017587E+03 </wgt>
<wgt id='1910'> +2.8831709E+03 </wgt>
<wgt id='1911'> +2.9103795E+03 </wgt>
<wgt id='1912'> +2.9112983E+03 </wgt>
<wgt id='1913'> +2.8890362E+03 </wgt>
<wgt id='1914'> +2.8994010E+03 </wgt>
<wgt id='1915'> +2.8774054E+03 </wgt>
<wgt id='1916'> +2.9545926E+03 </wgt>
<wgt id='1917'> +2.8832393E+03 </wgt>
<wgt id='1918'> +2.9042838E+03 </wgt>
<wgt id='1919'> +2.9064151E+03 </wgt>
<wgt id='1920'> +2.8705574E+03 </wgt>
<wgt id='1921'> +2.9084710E+03 </wgt>
<wgt id='1922'> +2.9042000E+03 </wgt>
<wgt id='1923'> +2.8849674E+03 </wgt>
<wgt id='1924'> +2.9044682E+03 </wgt>
<wgt id='1925'> +2.8946943E+03 </wgt>
<wgt id='1926'> +2.9034028E+03 </wgt>
<wgt id='1927'> +2.8949262E+03 </wgt>
<wgt id='1928'> +2.8957910E+03 </wgt>
<wgt id='1929'> +2.9025483E+03 </wgt>
<wgt id='1930'> +2.9073651E+03 </wgt>
<wgt id='1931'> +2.9086467E+03 </wgt>
<wgt id='1932'> +2.9044971E+03 </wgt>
<wgt id='1933'> +2.9103760E+03 </wgt>
<wgt id='1934'> +2.9236251E+03 </wgt>
<wgt id='1935'> +2.9083712E+03 </wgt>
<wgt id='1936'> +2.9021022E+03 </wgt>
<wgt id='1937'> +2.8986977E+03 </wgt>
<wgt id='1938'> +2.8922709E+03 </wgt>
<wgt id='1939'> +2.8977638E+03 </wgt>
<wgt id='1940'> +2.9044431E+03 </wgt>
<wgt id='1941'> +2.9003729E+03 </wgt>
<wgt id='1942'> +2.9043895E+03 </wgt>
<wgt id='1943'> +2.9003012E+03 </wgt>
<wgt id='1944'> +2.8984709E+03 </wgt>
<wgt id='1945'> +2.8965110E+03 </wgt>
<wgt id='1946'> +2.8957106E+03 </wgt>
<wgt id='1947'> +2.8939174E+03 </wgt>
<wgt id='1948'> +2.8969297E+03 </wgt>
<wgt id='1949'> +2.9018242E+03 </wgt>
<wgt id='1950'> +2.9011566E+03 </wgt>
<wgt id='1951'> +2.9006234E+03 </wgt>
<wgt id='1952'> +2.8966729E+03 </wgt>
<wgt id='1953'> +2.8958631E+03 </wgt>
<wgt id='1954'> +2.9036027E+03 </wgt>
<wgt id='1955'> +2.8970302E+03 </wgt>
<wgt id='1956'> +2.9029128E+03 </wgt>
<wgt id='1957'> +2.9046104E+03 </wgt>
<wgt id='1958'> +2.8997836E+03 </wgt>
<wgt id='1959'> +2.9012454E+03 </wgt>
<wgt id='1960'> +2.8973359E+03 </wgt>
<wgt id='1961'> +2.8988594E+03 </wgt>
<wgt id='1962'> +2.9015361E+03 </wgt>
<wgt id='1963'> +2.9013903E+03 </wgt>
<wgt id='1964'> +2.9003608E+03 </wgt>
<wgt id='1965'> +2.9017320E+03 </wgt>
<wgt id='1966'> +2.9007244E+03 </wgt>
<wgt id='1967'> +2.8990718E+03 </wgt>
<wgt id='1968'> +2.9007249E+03 </wgt>
<wgt id='1969'> +2.9022980E+03 </wgt>
<wgt id='1970'> +2.8991671E+03 </wgt>
<wgt id='1971'> +2.8995743E+03 </wgt>
<wgt id='1972'> +2.9018564E+03 </wgt>
<wgt id='1973'> +2.9000808E+03 </wgt>
<wgt id='1974'> +2.8993520E+03 </wgt>
<wgt id='1975'> +2.9008426E+03 </wgt>
<wgt id='1976'> +2.9014736E+03 </wgt>
<wgt id='1977'> +2.9000372E+03 </wgt>
<wgt id='1978'> +2.8988275E+03 </wgt>
<wgt id='1979'> +2.8996002E+03 </wgt>
<wgt id='1980'> +2.8985512E+03 </wgt>
<wgt id='1981'> +2.9014164E+03 </wgt>
<wgt id='1982'> +2.8988634E+03 </wgt>
<wgt id='1983'> +2.9003090E+03 </wgt>
<wgt id='1984'> +2.8985188E+03 </wgt>
<wgt id='1985'> +2.8991229E+03 </wgt>
<wgt id='1986'> +2.8996046E+03 </wgt>
<wgt id='1987'> +2.8997468E+03 </wgt>
<wgt id='1988'> +2.8994938E+03 </wgt>
<wgt id='1989'> +2.8987195E+03 </wgt>
<wgt id='1990'> +2.8993022E+03 </wgt>
<wgt id='1991'> +2.8994528E+03 </wgt>
<wgt id='1992'> +2.9011175E+03 </wgt>
<wgt id='1993'> +2.9001146E+03 </wgt>
<wgt id='1994'> +2.9000973E+03 </wgt>
<wgt id='1995'> +2.8998288E+03 </wgt>
<wgt id='1996'> +2.9005629E+03 </wgt>
<wgt id='1997'> +2.9003238E+03 </wgt>
<wgt id='1998'> +2.9004815E+03 </wgt>
<wgt id='1999'> +2.8997624E+03 </wgt>
<wgt id='2000'> +2.8997495E+03 </wgt>
<wgt id='2001'> +2.9002303E+03 </wgt>
<wgt id='2002'> +2.9000049E+03 </wgt>
<wgt id='2003'> +2.8999561E+03 </wgt>
<wgt id='2004'> +2.9000232E+03 </wgt>
<wgt id='2005'> +2.9000249E+03 </wgt>
<wgt id='2006'> +2.9000410E+03 </wgt>
<wgt id='2007'> +2.9000180E+03 </wgt>
<wgt id='2008'> +2.8999760E+03 </wgt>
<wgt id='2009'> +2.7411423E+03 </wgt>
<wgt id='2010'> +2.6014702E+03 </wgt>
<wgt id='2011'> +2.7668011E+03 </wgt>
<wgt id='2012'> +2.8217642E+03 </wgt>
<wgt id='2013'> +2.7972052E+03 </wgt>
<wgt id='2014'> +2.4463415E+03 </wgt>
<wgt id='2015'> +2.6255523E+03 </wgt>
<wgt id='2016'> +2.7864695E+03 </wgt>
<wgt id='2017'> +2.7324985E+03 </wgt>
<wgt id='2018'> +2.7277239E+03 </wgt>
<wgt id='2019'> +2.7331417E+03 </wgt>
<wgt id='2020'> +2.7243436E+03 </wgt>
<wgt id='2021'> +2.6747878E+03 </wgt>
<wgt id='2022'> +2.7693522E+03 </wgt>
<wgt id='2023'> +2.7824125E+03 </wgt>
<wgt id='2024'> +2.7470224E+03 </wgt>
<wgt id='2025'> +2.6519243E+03 </wgt>
<wgt id='2026'> +2.7431838E+03 </wgt>
<wgt id='2027'> +2.6064464E+03 </wgt>
<wgt id='2028'> +2.7949823E+03 </wgt>
<wgt id='2029'> +2.6797391E+03 </wgt>
<wgt id='2030'> +2.8558777E+03 </wgt>
<wgt id='2031'> +2.7584306E+03 </wgt>
<wgt id='2032'> +2.8454959E+03 </wgt>
<wgt id='2033'> +2.7337090E+03 </wgt>
<wgt id='2034'> +2.7613070E+03 </wgt>
<wgt id='2035'> +2.7636979E+03 </wgt>
<wgt id='2036'> +2.6820322E+03 </wgt>
<wgt id='2037'> +2.7728349E+03 </wgt>
<wgt id='2038'> +2.7180390E+03 </wgt>
<wgt id='2039'> +2.7300934E+03 </wgt>
<wgt id='2040'> +2.8296633E+03 </wgt>
<wgt id='2041'> +2.6878002E+03 </wgt>
<wgt id='2042'> +2.7958544E+03 </wgt>
<wgt id='2043'> +2.7022416E+03 </wgt>
<wgt id='2044'> +2.7700188E+03 </wgt>
<wgt id='2045'> +2.7414839E+03 </wgt>
<wgt id='2046'> +2.7115023E+03 </wgt>
<wgt id='2047'> +2.6053449E+03 </wgt>
<wgt id='2048'> +2.6942620E+03 </wgt>
<wgt id='2049'> +2.7762543E+03 </wgt>
<wgt id='2050'> +2.8515209E+03 </wgt>
<wgt id='2051'> +2.7918530E+03 </wgt>
<wgt id='2052'> +2.7540081E+03 </wgt>
<wgt id='2053'> +2.7216256E+03 </wgt>
<wgt id='2054'> +2.8222036E+03 </wgt>
<wgt id='2055'> +2.7213812E+03 </wgt>
<wgt id='2056'> +2.7214033E+03 </wgt>
<wgt id='2057'> +2.7338676E+03 </wgt>
<wgt id='2058'> +2.6066715E+03 </wgt>
<wgt id='2059'> +2.8136396E+03 </wgt>
<wgt id='2060'> +2.7987969E+03 </wgt>
<wgt id='2061'> +2.7050670E+03 </wgt>
<wgt id='2062'> +2.6889500E+03 </wgt>
<wgt id='2063'> +2.7893804E+03 </wgt>
<wgt id='2064'> +2.7668967E+03 </wgt>
<wgt id='2065'> +2.7358172E+03 </wgt>
<wgt id='2066'> +2.7752002E+03 </wgt>
<wgt id='2067'> +2.7964379E+03 </wgt>
<wgt id='2068'> +2.7973060E+03 </wgt>
<wgt id='2069'> +2.7609715E+03 </wgt>
<wgt id='2070'> +2.7220135E+03 </wgt>
<wgt id='2071'> +2.7521477E+03 </wgt>
<wgt id='2072'> +2.6823084E+03 </wgt>
<wgt id='2073'> +2.6739426E+03 </wgt>
<wgt id='2074'> +2.7840205E+03 </wgt>
<wgt id='2075'> +2.7381208E+03 </wgt>
<wgt id='2076'> +2.9033261E+03 </wgt>
<wgt id='2077'> +2.7992281E+03 </wgt>
<wgt id='2078'> +2.7306544E+03 </wgt>
<wgt id='2079'> +2.7117645E+03 </wgt>
<wgt id='2080'> +2.7649354E+03 </wgt>
<wgt id='2081'> +2.6484204E+03 </wgt>
<wgt id='2082'> +2.6210589E+03 </wgt>
<wgt id='2083'> +2.7477405E+03 </wgt>
<wgt id='2084'> +2.7857259E+03 </wgt>
<wgt id='2085'> +2.6447825E+03 </wgt>
<wgt id='2086'> +2.7216172E+03 </wgt>
<wgt id='2087'> +2.7749093E+03 </wgt>
<wgt id='2088'> +2.7038162E+03 </wgt>
<wgt id='2089'> +2.7878009E+03 </wgt>
<wgt id='2090'> +2.8298513E+03 </wgt>
<wgt id='2091'> +2.7578213E+03 </wgt>
<wgt id='2092'> +2.7200932E+03 </wgt>
<wgt id='2093'> +2.7869477E+03 </wgt>
<wgt id='2094'> +2.7398168E+03 </wgt>
<wgt id='2095'> +2.7678410E+03 </wgt>
<wgt id='2096'> +2.8036387E+03 </wgt>
<wgt id='2097'> +2.8004354E+03 </wgt>
<wgt id='2098'> +2.6949019E+03 </wgt>
<wgt id='2099'> +2.8139789E+03 </wgt>
<wgt id='2100'> +2.7633226E+03 </wgt>
<wgt id='2101'> +2.6738941E+03 </wgt>
<wgt id='2102'> +2.6940247E+03 </wgt>
<wgt id='2103'> +2.7965519E+03 </wgt>
<wgt id='2104'> +2.7007548E+03 </wgt>
<wgt id='2105'> +2.7727300E+03 </wgt>
<wgt id='2106'> +2.7783899E+03 </wgt>
<wgt id='2107'> +2.7937281E+03 </wgt>
<wgt id='2108'> +2.7797170E+03 </wgt>
<wgt id='2109'> +2.6432649E+03 </wgt>
<wgt id='2110'> +2.7236092E+03 </wgt>
<wgt id='2111'> +2.7555143E+03 </wgt>
<wgt id='2112'> +2.8677728E+03 </wgt>
<wgt id='2113'> +2.9353528E+03 </wgt>
<wgt id='2114'> +2.9188374E+03 </wgt>
<wgt id='2115'> +2.5598452E+03 </wgt>
<wgt id='2116'> +2.8186252E+03 </wgt>
</rwgt>
</event>
<event>
 5      5 +2.9771057E+03 7.27895200e+01 7.54677100e-03 1.22165500e-01
       -4 -1    0    0    0  501 -0.0000000000e+00 +0.0000000000e+00 +1.2548695247e+02 1.2548695247e+02 0.0000000000e+00 0.0000e+00 1.0000e+00
        3 -1    0    0  501    0 +0.0000000000e+00 -0.0000000000e+00 -1.0555508483e+01 1.0555508483e+01 0.0000000000e+00 0.0000e+00 -1.0000e+00
      -24  2    1    2    0    0 +0.0000000000e+00 +0.0000000000e+00 +1.1493144398e+02 1.3604246095e+02 7.2789520983e+01 0.0000e+00 0.0000e+00
       13  1    3    3    0    0 -1.2924105259e+01 -2.9980108325e+01 +2.7402416286e+01 4.2623137029e+01 0.0000000000e+00 0.0000e+00 -1.0000e+00
      -14  1    3    3    0    0 +1.2924105259e+01 +2.9980108325e+01 +8.7529027696e+01 9.3419323919e+01 0.0000000000e+00 0.0000e+00 1.0000e+00
<scales pt_clust_4="13000.00000" pt_clust_5="13000.00000"></scales>
<mgrwt>
<rscale>  0 0.72789521E+02</rscale>
<asrwt>0</asrwt>
<pdfrwt beam="1">  1        3 0.16239245E-02 0.72789521E+02</pdfrwt>
<pdfrwt beam="2">  1       -4 0.19305684E-01 0.72789521E+02</pdfrwt>
<totfact> 0.71743043E+04</totfact>
</mgrwt>
<clustering>
<clus scale="   72.790">  4  5 -1 -1</clus>
<clus scale="   72.790">  2  4  1 -1</clus>
</clustering>
<rwgt>
<wgt id='1001'> +2.9771057E+03 </wgt>
<wgt id='1002'> +2.8863145E+03 </wgt>
<wgt id='1003'> +2.8863145E+03 </wgt>
<wgt id='1004'> +2.2947664E+03 </wgt>
<wgt id='1005'> +2.9771057E+03 </wgt>
<wgt id='1006'> +2.9771057E+03 </wgt>
<wgt id='1007'> +2.8863145E+03 </wgt>
<wgt id='1008'> +2.8863145E+03 </wgt>
<wgt id='1009'> +2.2947664E+03 </wgt>
<wgt id='1010'> +2.9771057E+03 </wgt>
<wgt id='1011'> +2.9771057E+03 </wgt>
<wgt id='1012'> +2.8863145E+03 </wgt>
<wgt id='1013'> +2.8863145E+03 </wgt>
<wgt id='1014'> +2.2947664E+03 </wgt>
<wgt id='1015'> +2.9771057E+03 </wgt>
<wgt id='1016'> +3.5399050E+03 </wgt>
<wgt id='1017'> +3.4536434E+03 </wgt>
<wgt id='1018'> +3.4536434E+03 </wgt>
<wgt id='1019'> +2.8863145E+03 </wgt>
<wgt id='1020'> +3.5399050E+03 </wgt>
<wgt id='1021'> +3.5399050E+03 </wgt>
<wgt id='1022'> +3.4536434E+03 </wgt>
<wgt id='1023'> +3.4536434E+03 </wgt>
<wgt id='1024'> +2.8863145E+03 </wgt>
<wgt id='1025'> +3.5399050E+03 </wgt>
<wgt id='1026'> +3.5399050E+03 </wgt>
<wgt id='1027'> +3.4536434E+03 </wgt>
<wgt id='1028'> +3.4536434E+03 </wgt>
<wgt id='1029'> +2.8863145E+03 </wgt>
<wgt id='1030'> +3.5399050E+03 </wgt>
<wgt id='1031'> +2.3887474E+03 </wgt>
<wgt id='1032'> +2.2947664E+03 </wgt>
<wgt id='1033'> +2.2947664E+03 </wgt>
<wgt id='1034'> +1.6900900E+03 </wgt>
<wgt id='1035'> +2.3887474E+03 </wgt>
<wgt id='1036'> +2.3887474E+03 </wgt>
<wgt id='1037'> +2.2947664E+03 </wgt>
<wgt id='1038'> +2.2947664E+03 </wgt>
<wgt id='1039'> +1.6900900E+03 </wgt>
<wgt id='1040'> +2.3887474E+03 </wgt>
<wgt id='1041'> +2.3887474E+03 </wgt>
<wgt id='1042'> +2.2947664E+03 </wgt>
<wgt id='1043'> +2.2947664E+03 </wgt>
<wgt id='1044'> +1.6900900E+03 </wgt>
<wgt id='1045'> +2.3887474E+03 </wgt>
<wgt id='1046'> +2.9771057E+03 </wgt>
<wgt id='1047'> +2.9789733E+03 </wgt>
<wgt id='1048'> +2.9683815E+03 </wgt>
<wgt id='1049'> +2.9808404E+03 </wgt>
<wgt id='1050'> +2.8890428E+03 </wgt>
<wgt id='1051'> +2.9820473E+03 </wgt>
<wgt id='1052'> +3.0208024E+03 </wgt>
<wgt id='1053'> +2.9827097E+03 </wgt>
<wgt id='1054'> +3.0121747E+03 </wgt>
<wgt id='1055'> +2.9056137E+03 </wgt>
<wgt id='1056'> +3.0397807E+03 </wgt>
<wgt id='1057'> +3.0225562E+03 </wgt>
<wgt id='1058'> +2.9476127E+03 </wgt>
<wgt id='1059'> +2.9988779E+03 </wgt>
<wgt id='1060'> +2.9250335E+03 </wgt>
<wgt id='1061'> +2.9488003E+03 </wgt>
<wgt id='1062'> +2.9256390E+03 </wgt>
<wgt id='1063'> +3.0015587E+03 </wgt>
<wgt id='1064'> +3.0103123E+03 </wgt>
<wgt id='1065'> +2.9818584E+03 </wgt>
<wgt id='1066'> +3.0005775E+03 </wgt>
<wgt id='1067'> +2.9428550E+03 </wgt>
<wgt id='1068'> +2.9794878E+03 </wgt>
<wgt id='1069'> +3.0072125E+03 </wgt>
<wgt id='1070'> +2.9773975E+03 </wgt>
<wgt id='1071'> +2.9703528E+03 </wgt>
<wgt id='1072'> +3.0009224E+03 </wgt>
<wgt id='1073'> +2.9785098E+03 </wgt>
<wgt id='1074'> +2.9774618E+03 </wgt>
<wgt id='1075'> +2.9825852E+03 </wgt>
<wgt id='1076'> +2.9703034E+03 </wgt>
<wgt id='1077'> +2.9670071E+03 </wgt>
<wgt id='1078'> +2.9734214E+03 </wgt>
<wgt id='1079'> +2.9771845E+03 </wgt>
<wgt id='1080'> +2.9857821E+03 </wgt>
<wgt id='1081'> +2.9683452E+03 </wgt>
<wgt id='1082'> +2.9685952E+03 </wgt>
<wgt id='1083'> +2.9893162E+03 </wgt>
<wgt id='1084'> +2.9679003E+03 </wgt>
<wgt id='1085'> +2.9861635E+03 </wgt>
<wgt id='1086'> +2.9784356E+03 </wgt>
<wgt id='1087'> +2.9745500E+03 </wgt>
<wgt id='1088'> +2.9741630E+03 </wgt>
<wgt id='1089'> +2.9700065E+03 </wgt>
<wgt id='1090'> +2.9689305E+03 </wgt>
<wgt id='1091'> +2.9635557E+03 </wgt>
<wgt id='1092'> +2.9688184E+03 </wgt>
<wgt id='1093'> +2.9850888E+03 </wgt>
<wgt id='1094'> +2.9625033E+03 </wgt>
<wgt id='1095'> +2.9915509E+03 </wgt>
<wgt id='1096'> +2.9676282E+03 </wgt>
<wgt id='1097'> +2.9679236E+03 </wgt>
<wgt id='1098'> +2.9842871E+03 </wgt>
<wgt id='1099'> +2.9739011E+03 </wgt>
<wgt id='1100'> +2.9762361E+03 </wgt>
<wgt id='1101'> +2.9760310E+03 </wgt>
<wgt id='1102'> +2.9846030E+03 </wgt>
<wgt id='1103'> +2.9637717E+03 </wgt>
<wgt id='1104'> +2.9609991E+03 </wgt>
<wgt id='1105'> +2.9789083E+03 </wgt>
<wgt id='1106'> +2.9751975E+03 </wgt>
<wgt id='1107'> +2.9915074E+03 </wgt>
<wgt id='1108'> +2.9748609E+03 </wgt>
<wgt id='1109'> +2.9859947E+03 </wgt>
<wgt id='1110'> +2.9843605E+03 </wgt>
<wgt id='1111'> +2.9710400E+03 </wgt>
<wgt id='1112'> +2.9779705E+03 </wgt>
<wgt id='1113'> +2.9815476E+03 </wgt>
<wgt id='1114'> +2.9711062E+03 </wgt>
<wgt id='1115'> +2.9715579E+03 </wgt>
<wgt id='1116'> +2.9832990E+03 </wgt>
<wgt id='1117'> +2.9939036E+03 </wgt>
<wgt id='1118'> +2.9678445E+03 </wgt>
<wgt id='1119'> +2.9687502E+03 </wgt>
<wgt id='1120'> +2.9808981E+03 </wgt>
<wgt id='1121'> +2.9779366E+03 </wgt>
<wgt id='1122'> +2.9754615E+03 </wgt>
<wgt id='1123'> +2.9869630E+03 </wgt>
<wgt id='1124'> +2.9724599E+03 </wgt>
<wgt id='1125'> +2.9750435E+03 </wgt>
<wgt id='1126'> +2.9768692E+03 </wgt>
<wgt id='1127'> +2.9737467E+03 </wgt>
<wgt id='1128'> +2.9754102E+03 </wgt>
<wgt id='1129'> +2.9767542E+03 </wgt>
<wgt id='1130'> +2.9831687E+03 </wgt>
<wgt id='1131'> +2.9783308E+03 </wgt>
<wgt id='1132'> +2.9718427E+03 </wgt>
<wgt id='1133'> +2.9749516E+03 </wgt>
<wgt id='1134'> +2.9751199E+03 </wgt>
<wgt id='1135'> +2.9802429E+03 </wgt>
<wgt id='1136'> +2.9810322E+03 </wgt>
<wgt id='1137'> +2.9698726E+03 </wgt>
<wgt id='1138'> +2.9801393E+03 </wgt>
<wgt id='1139'> +2.9750889E+03 </wgt>
<wgt id='1140'> +2.9808301E+03 </wgt>
<wgt id='1141'> +2.9780775E+03 </wgt>
<wgt id='1142'> +2.9791569E+03 </wgt>
<wgt id='1143'> +2.9716002E+03 </wgt>
<wgt id='1144'> +2.9758942E+03 </wgt>
<wgt id='1145'> +2.9766955E+03 </wgt>
<wgt id='1146'> +2.9797190E+03 </wgt>
<wgt id='1147'> +2.8551534E+03 </wgt>
<wgt id='1148'> +3.0603272E+03 </wgt>
<wgt id='1149'> +2.3663022E+03 </wgt>
<wgt id='1150'> +2.4981386E+03 </wgt>
<wgt id='1151'> +2.6289192E+03 </wgt>
<wgt id='1152'> +2.7333964E+03 </wgt>
<wgt id='1153'> +2.8984936E+03 </wgt>
<wgt id='1154'> +3.0168002E+03 </wgt>
<wgt id='1155'> +3.1999889E+03 </wgt>
<wgt id='1156'> +3.3225038E+03 </wgt>
<wgt id='1157'> +2.7919028E+03 </wgt>
<wgt id='1158'> +2.8067272E+03 </wgt>
<wgt id='1159'> +2.7734133E+03 </wgt>
<wgt id='1160'> +2.8020929E+03 </wgt>
<wgt id='1161'> +2.7064813E+03 </wgt>
<wgt id='1162'> +2.7843642E+03 </wgt>
<wgt id='1163'> +2.8181116E+03 </wgt>
<wgt id='1164'> +2.7740531E+03 </wgt>
<wgt id='1165'> +2.8073506E+03 </wgt>
<wgt id='1166'> +2.7593058E+03 </wgt>
<wgt id='1167'> +2.8768953E+03 </wgt>
<wgt id='1168'> +2.8115856E+03 </wgt>
<wgt id='1169'> +2.7749294E+03 </wgt>
<wgt id='1170'> +2.7704152E+03 </wgt>
<wgt id='1171'> +2.7534945E+03 </wgt>
<wgt id='1172'> +2.8492263E+03 </wgt>
<wgt id='1173'> +2.7453607E+03 </wgt>
<wgt id='1174'> +2.8216144E+03 </wgt>
<wgt id='1175'> +2.7802141E+03 </wgt>
<wgt id='1176'> +2.7828881E+03 </wgt>
<wgt id='1177'> +2.8093548E+03 </wgt>
<wgt id='1178'> +2.7446949E+03 </wgt>
<wgt id='1179'> +2.7903959E+03 </wgt>
<wgt id='1180'> +2.7878349E+03 </wgt>
<wgt id='1181'> +2.7658569E+03 </wgt>
<wgt id='1182'> +2.8039485E+03 </wgt>
<wgt id='1183'> +2.7984158E+03 </wgt>
<wgt id='1184'> +2.7871676E+03 </wgt>
<wgt id='1185'> +2.7873090E+03 </wgt>
<wgt id='1186'> +2.7711983E+03 </wgt>
<wgt id='1187'> +2.7888165E+03 </wgt>
<wgt id='1188'> +2.7928939E+03 </wgt>
<wgt id='1189'> +2.7997161E+03 </wgt>
<wgt id='1190'> +2.7883854E+03 </wgt>
<wgt id='1191'> +2.7836209E+03 </wgt>
<wgt id='1192'> +2.7949443E+03 </wgt>
<wgt id='1193'> +2.8003455E+03 </wgt>
<wgt id='1194'> +2.8041887E+03 </wgt>
<wgt id='1195'> +2.7974878E+03 </wgt>
<wgt id='1196'> +2.8066283E+03 </wgt>
<wgt id='1197'> +2.7921412E+03 </wgt>
<wgt id='1198'> +2.8148774E+03 </wgt>
<wgt id='1199'> +2.7994385E+03 </wgt>
<wgt id='1200'> +2.7896916E+03 </wgt>
<wgt id='1201'> +2.8028887E+03 </wgt>
<wgt id='1202'> +2.7839560E+03 </wgt>
<wgt id='1203'> +2.7967211E+03 </wgt>
<wgt id='1204'> +2.8007168E+03 </wgt>
<wgt id='1205'> +2.7874861E+03 </wgt>
<wgt id='1206'> +2.7759722E+03 </wgt>
<wgt id='1207'> +2.7892288E+03 </wgt>
<wgt id='1208'> +2.7835020E+03 </wgt>
<wgt id='1209'> +2.8078377E+03 </wgt>
<wgt id='1210'> +2.7997469E+03 </wgt>
<wgt id='1211'> +2.8001212E+03 </wgt>
<wgt id='1212'> +2.7941035E+03 </wgt>
<wgt id='1213'> +2.7746772E+03 </wgt>
<wgt id='1214'> +2.8024327E+03 </wgt>
<wgt id='1215'> +2.7975303E+03 </wgt>
<wgt id='1216'> +2.7913383E+03 </wgt>
<wgt id='1217'> +2.7862931E+03 </wgt>
<wgt id='1218'> +2.7827210E+03 </wgt>
<wgt id='1219'> +2.7778584E+03 </wgt>
<wgt id='1220'> +2.7808662E+03 </wgt>
<wgt id='1221'> +2.7901918E+03 </wgt>
<wgt id='1222'> +2.7927488E+03 </wgt>
<wgt id='1223'> +2.7781746E+03 </wgt>
<wgt id='1224'> +2.8045807E+03 </wgt>
<wgt id='1225'> +2.7987750E+03 </wgt>
<wgt id='1226'> +2.7995941E+03 </wgt>
<wgt id='1227'> +2.8012598E+03 </wgt>
<wgt id='1228'> +2.7837749E+03 </wgt>
<wgt id='1229'> +2.7955786E+03 </wgt>
<wgt id='1230'> +2.7960229E+03 </wgt>
<wgt id='1231'> +2.7794391E+03 </wgt>
<wgt id='1232'> +2.7930977E+03 </wgt>
<wgt id='1233'> +2.7851764E+03 </wgt>
<wgt id='1234'> +2.7879583E+03 </wgt>
<wgt id='1235'> +2.7896913E+03 </wgt>
<wgt id='1236'> +2.7976183E+03 </wgt>
<wgt id='1237'> +2.7897846E+03 </wgt>
<wgt id='1238'> +2.7963429E+03 </wgt>
<wgt id='1239'> +2.7976691E+03 </wgt>
<wgt id='1240'> +2.7936967E+03 </wgt>
<wgt id='1241'> +2.7895270E+03 </wgt>
<wgt id='1242'> +2.7848389E+03 </wgt>
<wgt id='1243'> +2.7940138E+03 </wgt>
<wgt id='1244'> +2.7977051E+03 </wgt>
<wgt id='1245'> +2.7923080E+03 </wgt>
<wgt id='1246'> +2.7929864E+03 </wgt>
<wgt id='1247'> +2.7896201E+03 </wgt>
<wgt id='1248'> +2.7969669E+03 </wgt>
<wgt id='1249'> +2.7958092E+03 </wgt>
<wgt id='1250'> +2.7834600E+03 </wgt>
<wgt id='1251'> +2.7965389E+03 </wgt>
<wgt id='1252'> +2.7946591E+03 </wgt>
<wgt id='1253'> +2.7860412E+03 </wgt>
<wgt id='1254'> +2.7880776E+03 </wgt>
<wgt id='1255'> +2.7960342E+03 </wgt>
<wgt id='1256'> +2.7887115E+03 </wgt>
<wgt id='1257'> +2.7903838E+03 </wgt>
<wgt id='1258'> +2.6659882E+03 </wgt>
<wgt id='1259'> +2.8857839E+03 </wgt>
<wgt id='1260'> +3.1256255E+03 </wgt>
<wgt id='1261'> +3.1131470E+03 </wgt>
<wgt id='1262'> +3.1008616E+03 </wgt>
<wgt id='1263'> +3.0771912E+03 </wgt>
<wgt id='1264'> +3.1718191E+03 </wgt>
<wgt id='1265'> +3.0781816E+03 </wgt>
<wgt id='1266'> +3.1810563E+03 </wgt>
<wgt id='1267'> +3.1426860E+03 </wgt>
<wgt id='1268'> +3.0786886E+03 </wgt>
<wgt id='1269'> +3.1709710E+03 </wgt>
<wgt id='1270'> +3.1041051E+03 </wgt>
<wgt id='1271'> +3.0965486E+03 </wgt>
<wgt id='1272'> +3.1171992E+03 </wgt>
<wgt id='1273'> +3.0320054E+03 </wgt>
<wgt id='1274'> +3.1227613E+03 </wgt>
<wgt id='1275'> +3.1496810E+03 </wgt>
<wgt id='1276'> +3.0485873E+03 </wgt>
<wgt id='1277'> +3.1375723E+03 </wgt>
<wgt id='1278'> +3.1129195E+03 </wgt>
<wgt id='1279'> +3.1126397E+03 </wgt>
<wgt id='1280'> +3.1394204E+03 </wgt>
<wgt id='1281'> +3.1480022E+03 </wgt>
<wgt id='1282'> +3.1113419E+03 </wgt>
<wgt id='1283'> +3.1074994E+03 </wgt>
<wgt id='1284'> +3.1443476E+03 </wgt>
<wgt id='1285'> +3.0985210E+03 </wgt>
<wgt id='1286'> +3.1481366E+03 </wgt>
<wgt id='1287'> +3.1752252E+03 </wgt>
<wgt id='1288'> +3.0424964E+03 </wgt>
<wgt id='1289'> +3.0486069E+03 </wgt>
<wgt id='1290'> +3.1718625E+03 </wgt>
<wgt id='1291'> +3.0861160E+03 </wgt>
<wgt id='1292'> +3.1818906E+03 </wgt>
<wgt id='1293'> +3.0822075E+03 </wgt>
<wgt id='1294'> +3.1632409E+03 </wgt>
<wgt id='1295'> +3.0517130E+03 </wgt>
<wgt id='1296'> +3.1879976E+03 </wgt>
<wgt id='1297'> +3.1345582E+03 </wgt>
<wgt id='1298'> +3.1134580E+03 </wgt>
<wgt id='1299'> +2.9688981E+03 </wgt>
<wgt id='1300'> +3.2787847E+03 </wgt>
<wgt id='1301'> +3.0769912E+03 </wgt>
<wgt id='1302'> +3.1332200E+03 </wgt>
<wgt id='1303'> +3.1732019E+03 </wgt>
<wgt id='1304'> +3.0099104E+03 </wgt>
<wgt id='1305'> +3.2521826E+03 </wgt>
<wgt id='1306'> +3.1060489E+03 </wgt>
<wgt id='1307'> +3.1547299E+03 </wgt>
<wgt id='1308'> +3.1539586E+03 </wgt>
<wgt id='1309'> +3.1203270E+03 </wgt>
<wgt id='1310'> +3.1451834E+03 </wgt>
<wgt id='1311'> +3.1333137E+03 </wgt>
<wgt id='1312'> +3.1285266E+03 </wgt>
<wgt id='1313'> +3.1093957E+03 </wgt>
<wgt id='1314'> +3.2259907E+03 </wgt>
<wgt id='1315'> +3.4448171E+03 </wgt>
<wgt id='1316'> +2.8853806E+03 </wgt>
<wgt id='1317'> +3.0343830E+03 </wgt>
<wgt id='1318'> +3.1988987E+03 </wgt>
<wgt id='1319'> +3.0228159E+03 </wgt>
<wgt id='1320'> +3.0290494E+03 </wgt>
<wgt id='1321'> +3.0314255E+03 </wgt>
<wgt id='1322'> +3.0832097E+03 </wgt>
<wgt id='1323'> +3.0157111E+03 </wgt>
<wgt id='1324'> +3.0391984E+03 </wgt>
<wgt id='1325'> +3.0097824E+03 </wgt>
<wgt id='1326'> +3.1029312E+03 </wgt>
<wgt id='1327'> +2.9855919E+03 </wgt>
<wgt id='1328'> +2.9382135E+03 </wgt>
<wgt id='1329'> +3.0891462E+03 </wgt>
<wgt id='1330'> +3.0453806E+03 </wgt>
<wgt id='1331'> +3.0143742E+03 </wgt>
<wgt id='1332'> +2.9094661E+03 </wgt>
<wgt id='1333'> +3.0783240E+03 </wgt>
<wgt id='1334'> +2.8554740E+03 </wgt>
<wgt id='1335'> +3.2084613E+03 </wgt>
<wgt id='1336'> +2.9693809E+03 </wgt>
<wgt id='1337'> +3.0853943E+03 </wgt>
<wgt id='1338'> +3.0553430E+03 </wgt>
<wgt id='1339'> +2.9845981E+03 </wgt>
<wgt id='1340'> +3.0205306E+03 </wgt>
<wgt id='1341'> +3.0235371E+03 </wgt>
<wgt id='1342'> +3.0105098E+03 </wgt>
<wgt id='1343'> +3.0312634E+03 </wgt>
<wgt id='1344'> +2.9667774E+03 </wgt>
<wgt id='1345'> +3.0759296E+03 </wgt>
<wgt id='1346'> +3.0163197E+03 </wgt>
<wgt id='1347'> +3.0296832E+03 </wgt>
<wgt id='1348'> +3.0024866E+03 </wgt>
<wgt id='1349'> +3.0296297E+03 </wgt>
<wgt id='1350'> +3.0270588E+03 </wgt>
<wgt id='1351'> +3.0168096E+03 </wgt>
<wgt id='1352'> +3.0291789E+03 </wgt>
<wgt id='1353'> +3.0071569E+03 </wgt>
<wgt id='1354'> +3.0935131E+03 </wgt>
<wgt id='1355'> +2.9549626E+03 </wgt>
<wgt id='1356'> +3.0388488E+03 </wgt>
<wgt id='1357'> +2.9830587E+03 </wgt>
<wgt id='1358'> +3.0049779E+03 </wgt>
<wgt id='1359'> +3.0026101E+03 </wgt>
<wgt id='1360'> +3.0491605E+03 </wgt>
<wgt id='1361'> +2.9987035E+03 </wgt>
<wgt id='1362'> +3.0561777E+03 </wgt>
<wgt id='1363'> +2.9831607E+03 </wgt>
<wgt id='1364'> +2.9808020E+03 </wgt>
<wgt id='1365'> +3.0052231E+03 </wgt>
<wgt id='1366'> +2.9791155E+03 </wgt>
<wgt id='1367'> +3.0572725E+03 </wgt>
<wgt id='1368'> +3.0325237E+03 </wgt>
<wgt id='1369'> +2.9745206E+03 </wgt>
<wgt id='1370'> +3.0047349E+03 </wgt>
<wgt id='1371'> +3.0084660E+03 </wgt>
<wgt id='1372'> +2.9201397E+03 </wgt>
<wgt id='1373'> +3.0054885E+03 </wgt>
<wgt id='1374'> +3.3204492E+03 </wgt>
<wgt id='1375'> +2.8137749E+03 </wgt>
<wgt id='1376'> +2.9299314E+03 </wgt>
<wgt id='1377'> +3.1065914E+03 </wgt>
<wgt id='1378'> +2.0188314E+03 </wgt>
<wgt id='1379'> +3.0116756E+03 </wgt>
<wgt id='1380'> +3.0173213E+03 </wgt>
<wgt id='1381'> +3.0058494E+03 </wgt>
<wgt id='1382'> +3.0157182E+03 </wgt>
<wgt id='1383'> +3.0090685E+03 </wgt>
<wgt id='1384'> +3.0130012E+03 </wgt>
<wgt id='1385'> +3.0104390E+03 </wgt>
<wgt id='1386'> +2.9955984E+03 </wgt>
<wgt id='1387'> +3.0297971E+03 </wgt>
<wgt id='1388'> +3.0237144E+03 </wgt>
<wgt id='1389'> +3.0000364E+03 </wgt>
<wgt id='1390'> +3.0149274E+03 </wgt>
<wgt id='1391'> +3.0049609E+03 </wgt>
<wgt id='1392'> +3.0006725E+03 </wgt>
<wgt id='1393'> +3.0312772E+03 </wgt>
<wgt id='1394'> +2.9924282E+03 </wgt>
<wgt id='1395'> +3.0227029E+03 </wgt>
<wgt id='1396'> +2.9319496E+03 </wgt>
<wgt id='1397'> +3.1052609E+03 </wgt>
<wgt id='1398'> +2.8952272E+03 </wgt>
<wgt id='1399'> +3.1127220E+03 </wgt>
<wgt id='1400'> +3.0061398E+03 </wgt>
<wgt id='1401'> +3.0195421E+03 </wgt>
<wgt id='1402'> +2.9916923E+03 </wgt>
<wgt id='1403'> +3.0263304E+03 </wgt>
<wgt id='1404'> +2.9889993E+03 </wgt>
<wgt id='1405'> +3.0208663E+03 </wgt>
<wgt id='1406'> +3.0169193E+03 </wgt>
<wgt id='1407'> +3.0174617E+03 </wgt>
<wgt id='1408'> +3.0375124E+03 </wgt>
<wgt id='1409'> +2.9814514E+03 </wgt>
<wgt id='1410'> +3.0362949E+03 </wgt>
<wgt id='1411'> +2.9827826E+03 </wgt>
<wgt id='1412'> +3.0260283E+03 </wgt>
<wgt id='1413'> +2.9969840E+03 </wgt>
<wgt id='1414'> +3.0138859E+03 </wgt>
<wgt id='1415'> +3.0156143E+03 </wgt>
<wgt id='1416'> +3.0317235E+03 </wgt>
<wgt id='1417'> +3.0021749E+03 </wgt>
<wgt id='1418'> +3.0018837E+03 </wgt>
<wgt id='1419'> +3.0226729E+03 </wgt>
<wgt id='1420'> +3.2246328E+03 </wgt>
<wgt id='1421'> +2.8445235E+03 </wgt>
<wgt id='1422'> +2.9117958E+03 </wgt>
<wgt id='1423'> +3.1382590E+03 </wgt>
<wgt id='1424'> +3.0513978E+03 </wgt>
<wgt id='1425'> +2.9211712E+03 </wgt>
<wgt id='1426'> +2.9876949E+03 </wgt>
<wgt id='1427'> +3.0273574E+03 </wgt>
<wgt id='1428'> +2.9968624E+03 </wgt>
<wgt id='1429'> +3.0182652E+03 </wgt>
<wgt id='1430'> +3.2341200E+03 </wgt>
<wgt id='1431'> +3.2382677E+03 </wgt>
<wgt id='1432'> +3.2290074E+03 </wgt>
<wgt id='1433'> +3.2438783E+03 </wgt>
<wgt id='1434'> +3.2244077E+03 </wgt>
<wgt id='1435'> +3.2427832E+03 </wgt>
<wgt id='1436'> +3.2305333E+03 </wgt>
<wgt id='1437'> +3.2098586E+03 </wgt>
<wgt id='1438'> +3.2585569E+03 </wgt>
<wgt id='1439'> +3.2403667E+03 </wgt>
<wgt id='1440'> +3.2279064E+03 </wgt>
<wgt id='1441'> +3.2120911E+03 </wgt>
<wgt id='1442'> +3.2440973E+03 </wgt>
<wgt id='1443'> +3.2356919E+03 </wgt>
<wgt id='1444'> +3.2321730E+03 </wgt>
<wgt id='1445'> +3.2121449E+03 </wgt>
<wgt id='1446'> +3.2577973E+03 </wgt>
<wgt id='1447'> +3.1048160E+03 </wgt>
<wgt id='1448'> +3.3054103E+03 </wgt>
<wgt id='1449'> +3.2975557E+03 </wgt>
<wgt id='1450'> +3.1498095E+03 </wgt>
<wgt id='1451'> +3.1441207E+03 </wgt>
<wgt id='1452'> +3.2974343E+03 </wgt>
<wgt id='1453'> +3.2775753E+03 </wgt>
<wgt id='1454'> +3.1897966E+03 </wgt>
<wgt id='1455'> +3.2484197E+03 </wgt>
<wgt id='1456'> +3.1996700E+03 </wgt>
<wgt id='1457'> +3.2478828E+03 </wgt>
<wgt id='1458'> +3.2335013E+03 </wgt>
<wgt id='1459'> +3.2124888E+03 </wgt>
<wgt id='1460'> +3.2876594E+03 </wgt>
<wgt id='1461'> +3.2418165E+03 </wgt>
<wgt id='1462'> +3.2197603E+03 </wgt>
<wgt id='1463'> +3.2249704E+03 </wgt>
<wgt id='1464'> +3.2551988E+03 </wgt>
<wgt id='1465'> +3.2324520E+03 </wgt>
<wgt id='1466'> +3.2382058E+03 </wgt>
<wgt id='1467'> +3.2373012E+03 </wgt>
<wgt id='1468'> +3.2352526E+03 </wgt>
<wgt id='1469'> +3.2211335E+03 </wgt>
<wgt id='1470'> +3.2434163E+03 </wgt>
<wgt id='1471'> +3.1020758E+03 </wgt>
<wgt id='1472'> +3.4858074E+03 </wgt>
<wgt id='1473'> +3.2216190E+03 </wgt>
<wgt id='1474'> +3.3105546E+03 </wgt>
<wgt id='1475'> +3.3269374E+03 </wgt>
<wgt id='1476'> +3.1557557E+03 </wgt>
<wgt id='1477'> +3.1663554E+03 </wgt>
<wgt id='1478'> +3.2622311E+03 </wgt>
<wgt id='1479'> +3.1850628E+03 </wgt>
<wgt id='1480'> +3.2700203E+03 </wgt>
<wgt id='1481'> +2.6199324E+03 </wgt>
<wgt id='1482'> +3.4698071E+03 </wgt>
<wgt id='1483'> +3.4688266E+03 </wgt>
<wgt id='1484'> +3.4702788E+03 </wgt>
<wgt id='1485'> +3.4674039E+03 </wgt>
<wgt id='1486'> +3.4699250E+03 </wgt>
<wgt id='1487'> +3.4770589E+03 </wgt>
<wgt id='1488'> +3.4836488E+03 </wgt>
<wgt id='1489'> +3.4465139E+03 </wgt>
<wgt id='1490'> +3.4794604E+03 </wgt>
<wgt id='1491'> +3.4813176E+03 </wgt>
<wgt id='1492'> +3.4774443E+03 </wgt>
<wgt id='1493'> +3.4728071E+03 </wgt>
<wgt id='1494'> +3.4982789E+03 </wgt>
<wgt id='1495'> +3.4602129E+03 </wgt>
<wgt id='1496'> +3.4889575E+03 </wgt>
<wgt id='1497'> +3.4663522E+03 </wgt>
<wgt id='1498'> +3.4823406E+03 </wgt>
<wgt id='1499'> +3.4705486E+03 </wgt>
<wgt id='1500'> +3.4680274E+03 </wgt>
<wgt id='1501'> +3.4693133E+03 </wgt>
<wgt id='1502'> +3.4570106E+03 </wgt>
<wgt id='1503'> +3.5063485E+03 </wgt>
<wgt id='1504'> +3.4467273E+03 </wgt>
<wgt id='1505'> +3.4812609E+03 </wgt>
<wgt id='1506'> +3.4861189E+03 </wgt>
<wgt id='1507'> +3.5022235E+03 </wgt>
<wgt id='1508'> +3.4721152E+03 </wgt>
<wgt id='1509'> +3.4576030E+03 </wgt>
<wgt id='1510'> +3.4819249E+03 </wgt>
<wgt id='1511'> +3.4287298E+03 </wgt>
<wgt id='1512'> +3.0455005E+03 </wgt>
<wgt id='1513'> +3.0345686E+03 </wgt>
<wgt id='1514'> +3.0827738E+03 </wgt>
<wgt id='1515'> +2.8528323E+03 </wgt>
<wgt id='1516'> +3.0917609E+03 </wgt>
<wgt id='1517'> +3.0630234E+03 </wgt>
<wgt id='1518'> +3.0862049E+03 </wgt>
<wgt id='1519'> +3.0626751E+03 </wgt>
<wgt id='1520'> +3.1082004E+03 </wgt>
<wgt id='1521'> +3.0499988E+03 </wgt>
<wgt id='1522'> +3.0490690E+03 </wgt>
<wgt id='1523'> +3.1264493E+03 </wgt>
<wgt id='1524'> +2.9908134E+03 </wgt>
<wgt id='1525'> +3.0533374E+03 </wgt>
<wgt id='1526'> +3.0130557E+03 </wgt>
<wgt id='1527'> +3.0441359E+03 </wgt>
<wgt id='1528'> +3.0510474E+03 </wgt>
<wgt id='1529'> +3.0035783E+03 </wgt>
<wgt id='1530'> +3.0544376E+03 </wgt>
<wgt id='1531'> +3.0243980E+03 </wgt>
<wgt id='1532'> +3.0271319E+03 </wgt>
<wgt id='1533'> +3.0468214E+03 </wgt>
<wgt id='1534'> +3.0626876E+03 </wgt>
<wgt id='1535'> +3.0441480E+03 </wgt>
<wgt id='1536'> +3.0501303E+03 </wgt>
<wgt id='1537'> +3.0618215E+03 </wgt>
<wgt id='1538'> +3.0503370E+03 </wgt>
<wgt id='1539'> +3.0461921E+03 </wgt>
<wgt id='1540'> +3.0459244E+03 </wgt>
<wgt id='1541'> +3.0454999E+03 </wgt>
<wgt id='1542'> +3.0470432E+03 </wgt>
<wgt id='1543'> +3.0462406E+03 </wgt>
<wgt id='1544'> +3.0452606E+03 </wgt>
<wgt id='1545'> +3.0441352E+03 </wgt>
<wgt id='1546'> +3.0515129E+03 </wgt>
<wgt id='1547'> +3.0446494E+03 </wgt>
<wgt id='1548'> +3.0444976E+03 </wgt>
<wgt id='1549'> +3.0461740E+03 </wgt>
<wgt id='1550'> +3.0426817E+03 </wgt>
<wgt id='1551'> +3.0448864E+03 </wgt>
<wgt id='1552'> +3.0459860E+03 </wgt>
<wgt id='1553'> +3.0470191E+03 </wgt>
<wgt id='1554'> +3.0444902E+03 </wgt>
<wgt id='1555'> +3.0444476E+03 </wgt>
<wgt id='1556'> +3.0489149E+03 </wgt>
<wgt id='1557'> +3.0460145E+03 </wgt>
<wgt id='1558'> +3.0463006E+03 </wgt>
<wgt id='1559'> +3.0497240E+03 </wgt>
<wgt id='1560'> +3.0454034E+03 </wgt>
<wgt id='1561'> +3.0465340E+03 </wgt>
<wgt id='1562'> +3.0449512E+03 </wgt>
<wgt id='1563'> +3.0434655E+03 </wgt>
<wgt id='1564'> +3.0454232E+03 </wgt>
<wgt id='1565'> +3.0431539E+03 </wgt>
<wgt id='1566'> +3.0420587E+03 </wgt>
<wgt id='1567'> +3.0443342E+03 </wgt>
<wgt id='1568'> +3.0480534E+03 </wgt>
<wgt id='1569'> +3.0475246E+03 </wgt>
<wgt id='1570'> +3.0463217E+03 </wgt>
<wgt id='1571'> +3.0437247E+03 </wgt>
<wgt id='1572'> +3.0456014E+03 </wgt>
<wgt id='1573'> +3.0463006E+03 </wgt>
<wgt id='1574'> +3.0453635E+03 </wgt>
<wgt id='1575'> +3.0449349E+03 </wgt>
<wgt id='1576'> +3.0438907E+03 </wgt>
<wgt id='1577'> +3.0455803E+03 </wgt>
<wgt id='1578'> +3.0490973E+03 </wgt>
<wgt id='1579'> +3.0473858E+03 </wgt>
<wgt id='1580'> +3.0462945E+03 </wgt>
<wgt id='1581'> +3.0452678E+03 </wgt>
<wgt id='1582'> +3.0441389E+03 </wgt>
<wgt id='1583'> +3.0462226E+03 </wgt>
<wgt id='1584'> +3.0462388E+03 </wgt>
<wgt id='1585'> +3.0443440E+03 </wgt>
<wgt id='1586'> +3.0445701E+03 </wgt>
<wgt id='1587'> +3.0453814E+03 </wgt>
<wgt id='1588'> +3.0464045E+03 </wgt>
<wgt id='1589'> +3.0424983E+03 </wgt>
<wgt id='1590'> +3.0449199E+03 </wgt>
<wgt id='1591'> +3.0456064E+03 </wgt>
<wgt id='1592'> +3.0446765E+03 </wgt>
<wgt id='1593'> +3.0442383E+03 </wgt>
<wgt id='1594'> +3.0466131E+03 </wgt>
<wgt id='1595'> +3.0453627E+03 </wgt>
<wgt id='1596'> +3.0480516E+03 </wgt>
<wgt id='1597'> +3.0452914E+03 </wgt>
<wgt id='1598'> +3.0474866E+03 </wgt>
<wgt id='1599'> +3.0464812E+03 </wgt>
<wgt id='1600'> +3.0465312E+03 </wgt>
<wgt id='1601'> +3.0461553E+03 </wgt>
<wgt id='1602'> +3.0458970E+03 </wgt>
<wgt id='1603'> +3.0435148E+03 </wgt>
<wgt id='1604'> +3.0450941E+03 </wgt>
<wgt id='1605'> +3.0449612E+03 </wgt>
<wgt id='1606'> +3.0440500E+03 </wgt>
<wgt id='1607'> +3.0443498E+03 </wgt>
<wgt id='1608'> +3.0442769E+03 </wgt>
<wgt id='1609'> +3.0460374E+03 </wgt>
<wgt id='1610'> +3.0457201E+03 </wgt>
<wgt id='1611'> +3.0461131E+03 </wgt>
<wgt id='1612'> +3.0459497E+03 </wgt>
<wgt id='1613'> +2.9814430E+03 </wgt>
<wgt id='1614'> +3.1012508E+03 </wgt>
<wgt id='1615'> +3.2034579E+03 </wgt>
<wgt id='1616'> +3.2109820E+03 </wgt>
<wgt id='1617'> +3.2379888E+03 </wgt>
<wgt id='1618'> +3.1442770E+03 </wgt>
<wgt id='1619'> +3.0941527E+03 </wgt>
<wgt id='1620'> +3.0778594E+03 </wgt>
<wgt id='1621'> +3.1312615E+03 </wgt>
<wgt id='1622'> +3.2066918E+03 </wgt>
<wgt id='1623'> +3.2152517E+03 </wgt>
<wgt id='1624'> +3.1701481E+03 </wgt>
<wgt id='1625'> +3.2413942E+03 </wgt>
<wgt id='1626'> +3.1081621E+03 </wgt>
<wgt id='1627'> +3.1380531E+03 </wgt>
<wgt id='1628'> +3.1186495E+03 </wgt>
<wgt id='1629'> +3.1765627E+03 </wgt>
<wgt id='1630'> +3.1964838E+03 </wgt>
<wgt id='1631'> +3.2363265E+03 </wgt>
<wgt id='1632'> +3.2112610E+03 </wgt>
<wgt id='1633'> +3.1751109E+03 </wgt>
<wgt id='1634'> +3.2048064E+03 </wgt>
<wgt id='1635'> +3.2361143E+03 </wgt>
<wgt id='1636'> +3.1938245E+03 </wgt>
<wgt id='1637'> +3.1976035E+03 </wgt>
<wgt id='1638'> +3.1936270E+03 </wgt>
<wgt id='1639'> +3.1975040E+03 </wgt>
<wgt id='1640'> +3.2050713E+03 </wgt>
<wgt id='1641'> +3.1876572E+03 </wgt>
<wgt id='1642'> +3.2113434E+03 </wgt>
<wgt id='1643'> +3.2091385E+03 </wgt>
<wgt id='1644'> +3.2032485E+03 </wgt>
<wgt id='1645'> +3.2010072E+03 </wgt>
<wgt id='1646'> +3.2095849E+03 </wgt>
<wgt id='1647'> +3.2013624E+03 </wgt>
<wgt id='1648'> +3.2068699E+03 </wgt>
<wgt id='1649'> +3.2023186E+03 </wgt>
<wgt id='1650'> +3.2051523E+03 </wgt>
<wgt id='1651'> +3.2069523E+03 </wgt>
<wgt id='1652'> +3.2104065E+03 </wgt>
<wgt id='1653'> +3.2008014E+03 </wgt>
<wgt id='1654'> +3.1996023E+03 </wgt>
<wgt id='1655'> +3.2045038E+03 </wgt>
<wgt id='1656'> +3.1984811E+03 </wgt>
<wgt id='1657'> +3.2030555E+03 </wgt>
<wgt id='1658'> +3.2078379E+03 </wgt>
<wgt id='1659'> +3.2038584E+03 </wgt>
<wgt id='1660'> +3.2019031E+03 </wgt>
<wgt id='1661'> +3.2000166E+03 </wgt>
<wgt id='1662'> +3.2017425E+03 </wgt>
<wgt id='1663'> +3.2043586E+03 </wgt>
<wgt id='1664'> +3.2048121E+03 </wgt>
<wgt id='1665'> +3.2049825E+03 </wgt>
<wgt id='1666'> +3.2049599E+03 </wgt>
<wgt id='1667'> +3.2040484E+03 </wgt>
<wgt id='1668'> +3.2034281E+03 </wgt>
<wgt id='1669'> +3.2034753E+03 </wgt>
<wgt id='1670'> +3.2057572E+03 </wgt>
<wgt id='1671'> +3.2027932E+03 </wgt>
<wgt id='1672'> +3.2008387E+03 </wgt>
<wgt id='1673'> +3.2020399E+03 </wgt>
<wgt id='1674'> +3.2026842E+03 </wgt>
<wgt id='1675'> +3.2036759E+03 </wgt>
<wgt id='1676'> +3.2039566E+03 </wgt>
<wgt id='1677'> +3.2020437E+03 </wgt>
<wgt id='1678'> +3.2043504E+03 </wgt>
<wgt id='1679'> +3.2032626E+03 </wgt>
<wgt id='1680'> +3.2031222E+03 </wgt>
<wgt id='1681'> +3.2036219E+03 </wgt>
<wgt id='1682'> +3.2037642E+03 </wgt>
<wgt id='1683'> +3.2042405E+03 </wgt>
<wgt id='1684'> +3.2034536E+03 </wgt>
<wgt id='1685'> +3.2021864E+03 </wgt>
<wgt id='1686'> +3.2053356E+03 </wgt>
<wgt id='1687'> +3.2035392E+03 </wgt>
<wgt id='1688'> +3.2036968E+03 </wgt>
<wgt id='1689'> +3.2040982E+03 </wgt>
<wgt id='1690'> +3.2026798E+03 </wgt>
<wgt id='1691'> +3.2048312E+03 </wgt>
<wgt id='1692'> +3.2043539E+03 </wgt>
<wgt id='1693'> +3.2051702E+03 </wgt>
<wgt id='1694'> +3.2031154E+03 </wgt>
<wgt id='1695'> +3.2033440E+03 </wgt>
<wgt id='1696'> +3.2050393E+03 </wgt>
<wgt id='1697'> +3.2040773E+03 </wgt>
<wgt id='1698'> +3.2024711E+03 </wgt>
<wgt id='1699'> +3.2022039E+03 </wgt>
<wgt id='1700'> +3.2029183E+03 </wgt>
<wgt id='1701'> +3.2054629E+03 </wgt>
<wgt id='1702'> +3.2020712E+03 </wgt>
<wgt id='1703'> +3.2020688E+03 </wgt>
<wgt id='1704'> +3.2021373E+03 </wgt>
<wgt id='1705'> +3.2033867E+03 </wgt>
<wgt id='1706'> +3.2026188E+03 </wgt>
<wgt id='1707'> +3.2028871E+03 </wgt>
<wgt id='1708'> +3.2036831E+03 </wgt>
<wgt id='1709'> +3.2024555E+03 </wgt>
<wgt id='1710'> +3.2036478E+03 </wgt>
<wgt id='1711'> +3.2036213E+03 </wgt>
<wgt id='1712'> +3.2040607E+03 </wgt>
<wgt id='1713'> +3.2030374E+03 </wgt>
<wgt id='1714'> +3.2036436E+03 </wgt>
<wgt id='1715'> +3.2038488E+03 </wgt>
<wgt id='1716'> +3.1318997E+03 </wgt>
<wgt id='1717'> +3.2352748E+03 </wgt>
<wgt id='1718'> +3.0456060E+03 </wgt>
<wgt id='1719'> +3.0089186E+03 </wgt>
<wgt id='1720'> +3.0887924E+03 </wgt>
<wgt id='1721'> +3.0427385E+03 </wgt>
<wgt id='1722'> +2.9981566E+03 </wgt>
<wgt id='1723'> +3.0762114E+03 </wgt>
<wgt id='1724'> +3.0514129E+03 </wgt>
<wgt id='1725'> +3.0406298E+03 </wgt>
<wgt id='1726'> +3.0578726E+03 </wgt>
<wgt id='1727'> +2.9826690E+03 </wgt>
<wgt id='1728'> +3.0532464E+03 </wgt>
<wgt id='1729'> +3.2292186E+03 </wgt>
<wgt id='1730'> +3.0509095E+03 </wgt>
<wgt id='1731'> +3.0450257E+03 </wgt>
<wgt id='1732'> +3.0821545E+03 </wgt>
<wgt id='1733'> +3.0565667E+03 </wgt>
<wgt id='1734'> +3.0444534E+03 </wgt>
<wgt id='1735'> +3.0284421E+03 </wgt>
<wgt id='1736'> +3.0485728E+03 </wgt>
<wgt id='1737'> +3.0615157E+03 </wgt>
<wgt id='1738'> +3.0447789E+03 </wgt>
<wgt id='1739'> +3.0550468E+03 </wgt>
<wgt id='1740'> +3.0351233E+03 </wgt>
<wgt id='1741'> +3.0398471E+03 </wgt>
<wgt id='1742'> +3.0324480E+03 </wgt>
<wgt id='1743'> +3.0496696E+03 </wgt>
<wgt id='1744'> +3.0195179E+03 </wgt>
<wgt id='1745'> +3.0596671E+03 </wgt>
<wgt id='1746'> +3.0547841E+03 </wgt>
<wgt id='1747'> +3.1050154E+03 </wgt>
<wgt id='1748'> +3.0445794E+03 </wgt>
<wgt id='1749'> +2.9814430E+03 </wgt>
<wgt id='1750'> +3.1012508E+03 </wgt>
<wgt id='1751'> +3.2035529E+03 </wgt>
<wgt id='1752'> +3.2592408E+03 </wgt>
<wgt id='1753'> +3.1208274E+03 </wgt>
<wgt id='1754'> +3.1961289E+03 </wgt>
<wgt id='1755'> +3.3667971E+03 </wgt>
<wgt id='1756'> +3.1482060E+03 </wgt>
<wgt id='1757'> +3.2137111E+03 </wgt>
<wgt id='1758'> +3.2007997E+03 </wgt>
<wgt id='1759'> +3.2095571E+03 </wgt>
<wgt id='1760'> +3.2314246E+03 </wgt>
<wgt id='1761'> +3.2601901E+03 </wgt>
<wgt id='1762'> +3.1547293E+03 </wgt>
<wgt id='1763'> +3.1949969E+03 </wgt>
<wgt id='1764'> +3.2023789E+03 </wgt>
<wgt id='1765'> +3.2006212E+03 </wgt>
<wgt id='1766'> +3.2010668E+03 </wgt>
<wgt id='1767'> +3.1927682E+03 </wgt>
<wgt id='1768'> +3.2319767E+03 </wgt>
<wgt id='1769'> +3.2046870E+03 </wgt>
<wgt id='1770'> +3.2280307E+03 </wgt>
<wgt id='1771'> +3.1722232E+03 </wgt>
<wgt id='1772'> +3.1902539E+03 </wgt>
<wgt id='1773'> +3.2343474E+03 </wgt>
<wgt id='1774'> +3.2060793E+03 </wgt>
<wgt id='1775'> +3.1957095E+03 </wgt>
<wgt id='1776'> +3.2457858E+03 </wgt>
<wgt id='1777'> +3.2082572E+03 </wgt>
<wgt id='1778'> +3.1892513E+03 </wgt>
<wgt id='1779'> +3.1960128E+03 </wgt>
<wgt id='1780'> +3.2156167E+03 </wgt>
<wgt id='1781'> +3.1713910E+03 </wgt>
<wgt id='1782'> +3.1318997E+03 </wgt>
<wgt id='1783'> +3.2352748E+03 </wgt>
<wgt id='1784'> +3.1543396E+03 </wgt>
<wgt id='1785'> +3.1525787E+03 </wgt>
<wgt id='1786'> +3.1560956E+03 </wgt>
<wgt id='1787'> +3.1634041E+03 </wgt>
<wgt id='1788'> +3.1452927E+03 </wgt>
<wgt id='1789'> +3.1595276E+03 </wgt>
<wgt id='1790'> +3.1491536E+03 </wgt>
<wgt id='1791'> +3.1604248E+03 </wgt>
<wgt id='1792'> +3.1482861E+03 </wgt>
<wgt id='1793'> +3.1618871E+03 </wgt>
<wgt id='1794'> +3.1469146E+03 </wgt>
<wgt id='1795'> +3.1494400E+03 </wgt>
<wgt id='1796'> +3.1586006E+03 </wgt>
<wgt id='1797'> +3.1422673E+03 </wgt>
<wgt id='1798'> +3.1664454E+03 </wgt>
<wgt id='1799'> +3.1533831E+03 </wgt>
<wgt id='1800'> +3.1549386E+03 </wgt>
<wgt id='1801'> +3.1609039E+03 </wgt>
<wgt id='1802'> +3.1441699E+03 </wgt>
<wgt id='1803'> +3.1437126E+03 </wgt>
<wgt id='1804'> +3.1657213E+03 </wgt>
<wgt id='1805'> +3.1670418E+03 </wgt>
<wgt id='1806'> +3.1367974E+03 </wgt>
<wgt id='1807'> +3.1359035E+03 </wgt>
<wgt id='1808'> +3.1534756E+03 </wgt>
<wgt id='1809'> +3.1635819E+03 </wgt>
<wgt id='1810'> +3.1505766E+03 </wgt>
<wgt id='1811'> +3.1546724E+03 </wgt>
<wgt id='1812'> +3.1575666E+03 </wgt>
<wgt id='1813'> +3.1543396E+03 </wgt>
<wgt id='1814'> +2.9885626E+03 </wgt>
<wgt id='1815'> +3.3606510E+03 </wgt>
<wgt id='1816'> +2.9574796E+03 </wgt>
<wgt id='1817'> +3.2860745E+03 </wgt>
<wgt id='1818'> +3.1705343E+03 </wgt>
<wgt id='1819'> +3.1332480E+03 </wgt>
<wgt id='1820'> +3.1400959E+03 </wgt>
<wgt id='1821'> +3.1679779E+03 </wgt>
<wgt id='1822'> +3.1885058E+03 </wgt>
<wgt id='1823'> +3.1230432E+03 </wgt>
<wgt id='1824'> +3.1666613E+03 </wgt>
<wgt id='1825'> +3.1090978E+03 </wgt>
<wgt id='1826'> +3.1064147E+03 </wgt>
<wgt id='1827'> +3.2199594E+03 </wgt>
<wgt id='1828'> +3.2205765E+03 </wgt>
<wgt id='1829'> +3.2191246E+03 </wgt>
<wgt id='1830'> +3.2252063E+03 </wgt>
<wgt id='1831'> +3.2144997E+03 </wgt>
<wgt id='1832'> +3.2279806E+03 </wgt>
<wgt id='1833'> +3.2117420E+03 </wgt>
<wgt id='1834'> +3.2304470E+03 </wgt>
<wgt id='1835'> +3.2092037E+03 </wgt>
<wgt id='1836'> +3.2231361E+03 </wgt>
<wgt id='1837'> +3.2165080E+03 </wgt>
<wgt id='1838'> +3.2280428E+03 </wgt>
<wgt id='1839'> +3.2116800E+03 </wgt>
<wgt id='1840'> +3.2096596E+03 </wgt>
<wgt id='1841'> +3.2301834E+03 </wgt>
<wgt id='1842'> +3.2160698E+03 </wgt>
<wgt id='1843'> +3.2257415E+03 </wgt>
<wgt id='1844'> +3.2195059E+03 </wgt>
<wgt id='1845'> +3.2192915E+03 </wgt>
<wgt id='1846'> +3.2142538E+03 </wgt>
<wgt id='1847'> +3.2251102E+03 </wgt>
<wgt id='1848'> +3.1888404E+03 </wgt>
<wgt id='1849'> +3.2447147E+03 </wgt>
<wgt id='1850'> +3.2218458E+03 </wgt>
<wgt id='1851'> +3.2166891E+03 </wgt>
<wgt id='1852'> +3.2073062E+03 </wgt>
<wgt id='1853'> +3.2214448E+03 </wgt>
<wgt id='1854'> +3.2202020E+03 </wgt>
<wgt id='1855'> +3.2243245E+03 </wgt>
<wgt id='1856'> +3.2199594E+03 </wgt>
<wgt id='1857'> +3.0333881E+03 </wgt>
<wgt id='1858'> +3.4484606E+03 </wgt>
<wgt id='1859'> +2.9979779E+03 </wgt>
<wgt id='1860'> +3.3691526E+03 </wgt>
<wgt id='1861'> +3.2188331E+03 </wgt>
<wgt id='1862'> +3.2092478E+03 </wgt>
<wgt id='1863'> +3.2054177E+03 </wgt>
<wgt id='1864'> +3.2414723E+03 </wgt>
<wgt id='1865'> +3.2612582E+03 </wgt>
<wgt id='1866'> +3.1873503E+03 </wgt>
<wgt id='1867'> +3.2187162E+03 </wgt>
<wgt id='1868'> +3.1974950E+03 </wgt>
<wgt id='1869'> +3.1908801E+03 </wgt>
<wgt id='1870'> +2.9948710E+03 </wgt>
<wgt id='1871'> +2.9942873E+03 </wgt>
<wgt id='1872'> +2.9937068E+03 </wgt>
<wgt id='1873'> +2.9931224E+03 </wgt>
<wgt id='1874'> +2.9925395E+03 </wgt>
<wgt id='1875'> +2.9919587E+03 </wgt>
<wgt id='1876'> +2.9913791E+03 </wgt>
<wgt id='1877'> +2.9907955E+03 </wgt>
<wgt id='1878'> +2.9902159E+03 </wgt>
<wgt id='1879'> +2.9896308E+03 </wgt>
<wgt id='1880'> +2.9890272E+03 </wgt>
<wgt id='1881'> +2.9884445E+03 </wgt>
<wgt id='1882'> +2.9878592E+03 </wgt>
<wgt id='1883'> +2.9872804E+03 </wgt>
<wgt id='1884'> +2.9866997E+03 </wgt>
<wgt id='1885'> +2.9861171E+03 </wgt>
<wgt id='1886'> +2.9855365E+03 </wgt>
<wgt id='1887'> +2.9849544E+03 </wgt>
<wgt id='1888'> +2.9843705E+03 </wgt>
<wgt id='1889'> +2.9837911E+03 </wgt>
<wgt id='1890'> +2.9832077E+03 </wgt>
<wgt id='1891'> +2.9826250E+03 </wgt>
<wgt id='1892'> +2.9820222E+03 </wgt>
<wgt id='1893'> +2.9814393E+03 </wgt>
<wgt id='1894'> +2.9808606E+03 </wgt>
<wgt id='1895'> +2.9802770E+03 </wgt>
<wgt id='1896'> +2.9796934E+03 </wgt>
<wgt id='1897'> +2.9791149E+03 </wgt>
<wgt id='1898'> +2.9785314E+03 </wgt>
<wgt id='1899'> +2.9779486E+03 </wgt>
<wgt id='1900'> +2.9773726E+03 </wgt>
<wgt id='1901'> +3.1796536E+03 </wgt>
<wgt id='1902'> +3.1855015E+03 </wgt>
<wgt id='1903'> +3.2135798E+03 </wgt>
<wgt id='1904'> +3.1208731E+03 </wgt>
<wgt id='1905'> +3.0704728E+03 </wgt>
<wgt id='1906'> +3.0544426E+03 </wgt>
<wgt id='1907'> +3.1089755E+03 </wgt>
<wgt id='1908'> +3.1840810E+03 </wgt>
<wgt id='1909'> +3.1914870E+03 </wgt>
<wgt id='1910'> +3.1466169E+03 </wgt>
<wgt id='1911'> +3.2170943E+03 </wgt>
<wgt id='1912'> +3.0862526E+03 </wgt>
<wgt id='1913'> +3.1154057E+03 </wgt>
<wgt id='1914'> +3.0959468E+03 </wgt>
<wgt id='1915'> +3.1528597E+03 </wgt>
<wgt id='1916'> +3.1705090E+03 </wgt>
<wgt id='1917'> +3.2140430E+03 </wgt>
<wgt id='1918'> +3.1866892E+03 </wgt>
<wgt id='1919'> +3.1509902E+03 </wgt>
<wgt id='1920'> +3.1820588E+03 </wgt>
<wgt id='1921'> +3.2134112E+03 </wgt>
<wgt id='1922'> +3.1694399E+03 </wgt>
<wgt id='1923'> +3.1735704E+03 </wgt>
<wgt id='1924'> +3.1703898E+03 </wgt>
<wgt id='1925'> +3.1730185E+03 </wgt>
<wgt id='1926'> +3.1800564E+03 </wgt>
<wgt id='1927'> +3.1627482E+03 </wgt>
<wgt id='1928'> +3.1888428E+03 </wgt>
<wgt id='1929'> +3.1858491E+03 </wgt>
<wgt id='1930'> +3.1788337E+03 </wgt>
<wgt id='1931'> +3.1766323E+03 </wgt>
<wgt id='1932'> +3.1871416E+03 </wgt>
<wgt id='1933'> +3.1770481E+03 </wgt>
<wgt id='1934'> +3.1825895E+03 </wgt>
<wgt id='1935'> +3.1785036E+03 </wgt>
<wgt id='1936'> +3.1809909E+03 </wgt>
<wgt id='1937'> +3.1832349E+03 </wgt>
<wgt id='1938'> +3.1865558E+03 </wgt>
<wgt id='1939'> +3.1768145E+03 </wgt>
<wgt id='1940'> +3.1752911E+03 </wgt>
<wgt id='1941'> +3.1807320E+03 </wgt>
<wgt id='1942'> +3.1744556E+03 </wgt>
<wgt id='1943'> +3.1790954E+03 </wgt>
<wgt id='1944'> +3.1847009E+03 </wgt>
<wgt id='1945'> +3.1798911E+03 </wgt>
<wgt id='1946'> +3.1779622E+03 </wgt>
<wgt id='1947'> +3.1766117E+03 </wgt>
<wgt id='1948'> +3.1777370E+03 </wgt>
<wgt id='1949'> +3.1807984E+03 </wgt>
<wgt id='1950'> +3.1809044E+03 </wgt>
<wgt id='1951'> +3.1813066E+03 </wgt>
<wgt id='1952'> +3.1810151E+03 </wgt>
<wgt id='1953'> +3.1801853E+03 </wgt>
<wgt id='1954'> +3.1796543E+03 </wgt>
<wgt id='1955'> +3.1798523E+03 </wgt>
<wgt id='1956'> +3.1821164E+03 </wgt>
<wgt id='1957'> +3.1785429E+03 </wgt>
<wgt id='1958'> +3.1770945E+03 </wgt>
<wgt id='1959'> +3.1786384E+03 </wgt>
<wgt id='1960'> +3.1791036E+03 </wgt>
<wgt id='1961'> +3.1800721E+03 </wgt>
<wgt id='1962'> +3.1802438E+03 </wgt>
<wgt id='1963'> +3.1781461E+03 </wgt>
<wgt id='1964'> +3.1803368E+03 </wgt>
<wgt id='1965'> +3.1796467E+03 </wgt>
<wgt id='1966'> +3.1792385E+03 </wgt>
<wgt id='1967'> +3.1797795E+03 </wgt>
<wgt id='1968'> +3.1797420E+03 </wgt>
<wgt id='1969'> +3.1804555E+03 </wgt>
<wgt id='1970'> +3.1794129E+03 </wgt>
<wgt id='1971'> +3.1783129E+03 </wgt>
<wgt id='1972'> +3.1815934E+03 </wgt>
<wgt id='1973'> +3.1795737E+03 </wgt>
<wgt id='1974'> +3.1797727E+03 </wgt>
<wgt id='1975'> +3.1802754E+03 </wgt>
<wgt id='1976'> +3.1789216E+03 </wgt>
<wgt id='1977'> +3.1812877E+03 </wgt>
<wgt id='1978'> +3.1805785E+03 </wgt>
<wgt id='1979'> +3.1815185E+03 </wgt>
<wgt id='1980'> +3.1792865E+03 </wgt>
<wgt id='1981'> +3.1792969E+03 </wgt>
<wgt id='1982'> +3.1814621E+03 </wgt>
<wgt id='1983'> +3.1803358E+03 </wgt>
<wgt id='1984'> +3.1786766E+03 </wgt>
<wgt id='1985'> +3.1783069E+03 </wgt>
<wgt id='1986'> +3.1791949E+03 </wgt>
<wgt id='1987'> +3.1819695E+03 </wgt>
<wgt id='1988'> +3.1781663E+03 </wgt>
<wgt id='1989'> +3.1781470E+03 </wgt>
<wgt id='1990'> +3.1782123E+03 </wgt>
<wgt id='1991'> +3.1794877E+03 </wgt>
<wgt id='1992'> +3.1786248E+03 </wgt>
<wgt id='1993'> +3.1789281E+03 </wgt>
<wgt id='1994'> +3.1799213E+03 </wgt>
<wgt id='1995'> +3.1784409E+03 </wgt>
<wgt id='1996'> +3.1798411E+03 </wgt>
<wgt id='1997'> +3.1799240E+03 </wgt>
<wgt id='1998'> +3.1802767E+03 </wgt>
<wgt id='1999'> +3.1791725E+03 </wgt>
<wgt id='2000'> +3.1799210E+03 </wgt>
<wgt id='2001'> +3.1801098E+03 </wgt>
<wgt id='2002'> +3.1796363E+03 </wgt>
<wgt id='2003'> +3.1795502E+03 </wgt>
<wgt id='2004'> +3.1796693E+03 </wgt>
<wgt id='2005'> +3.1796730E+03 </wgt>
<wgt id='2006'> +3.1797010E+03 </wgt>
<wgt id='2007'> +3.1796604E+03 </wgt>
<wgt id='2008'> +3.1795858E+03 </wgt>
<wgt id='2009'> +3.1053113E+03 </wgt>
<wgt id='2010'> +2.7951749E+03 </wgt>
<wgt id='2011'> +2.8214343E+03 </wgt>
<wgt id='2012'> +2.8190986E+03 </wgt>
<wgt id='2013'> +2.9550529E+03 </wgt>
<wgt id='2014'> +2.6632062E+03 </wgt>
<wgt id='2015'> +3.2066468E+03 </wgt>
<wgt id='2016'> +3.1424828E+03 </wgt>
<wgt id='2017'> +3.0995281E+03 </wgt>
<wgt id='2018'> +3.1500807E+03 </wgt>
<wgt id='2019'> +3.3395249E+03 </wgt>
<wgt id='2020'> +4.1008189E+03 </wgt>
<wgt id='2021'> +3.0589682E+03 </wgt>
<wgt id='2022'> +2.7284932E+03 </wgt>
<wgt id='2023'> +3.2296245E+03 </wgt>
<wgt id='2024'> +3.1827260E+03 </wgt>
<wgt id='2025'> +3.2153613E+03 </wgt>
<wgt id='2026'> +3.1629098E+03 </wgt>
<wgt id='2027'> +3.1394458E+03 </wgt>
<wgt id='2028'> +3.1003598E+03 </wgt>
<wgt id='2029'> +2.9109496E+03 </wgt>
<wgt id='2030'> +2.9672301E+03 </wgt>
<wgt id='2031'> +3.4420272E+03 </wgt>
<wgt id='2032'> +3.2867182E+03 </wgt>
<wgt id='2033'> +2.9279928E+03 </wgt>
<wgt id='2034'> +3.0414554E+03 </wgt>
<wgt id='2035'> +3.0735927E+03 </wgt>
<wgt id='2036'> +3.0013756E+03 </wgt>
<wgt id='2037'> +3.1501573E+03 </wgt>
<wgt id='2038'> +2.8289583E+03 </wgt>
<wgt id='2039'> +2.9388161E+03 </wgt>
<wgt id='2040'> +2.7044763E+03 </wgt>
<wgt id='2041'> +3.8220684E+03 </wgt>
<wgt id='2042'> +2.9343197E+03 </wgt>
<wgt id='2043'> +3.1443677E+03 </wgt>
<wgt id='2044'> +2.9592671E+03 </wgt>
<wgt id='2045'> +2.9714568E+03 </wgt>
<wgt id='2046'> +3.0732195E+03 </wgt>
<wgt id='2047'> +3.6632359E+03 </wgt>
<wgt id='2048'> +2.9750615E+03 </wgt>
<wgt id='2049'> +3.0647616E+03 </wgt>
<wgt id='2050'> +3.0348984E+03 </wgt>
<wgt id='2051'> +3.0615221E+03 </wgt>
<wgt id='2052'> +3.2056051E+03 </wgt>
<wgt id='2053'> +3.1546089E+03 </wgt>
<wgt id='2054'> +3.0534415E+03 </wgt>
<wgt id='2055'> +2.9880475E+03 </wgt>
<wgt id='2056'> +3.1770249E+03 </wgt>
<wgt id='2057'> +3.0555680E+03 </wgt>
<wgt id='2058'> +2.8458591E+03 </wgt>
<wgt id='2059'> +2.8904747E+03 </wgt>
<wgt id='2060'> +3.0778689E+03 </wgt>
<wgt id='2061'> +2.9923988E+03 </wgt>
<wgt id='2062'> +3.4357664E+03 </wgt>
<wgt id='2063'> +3.1264975E+03 </wgt>
<wgt id='2064'> +3.1010206E+03 </wgt>
<wgt id='2065'> +3.0508856E+03 </wgt>
<wgt id='2066'> +2.7479543E+03 </wgt>
<wgt id='2067'> +3.0151024E+03 </wgt>
<wgt id='2068'> +2.8239122E+03 </wgt>
<wgt id='2069'> +3.0788837E+03 </wgt>
<wgt id='2070'> +2.9552750E+03 </wgt>
<wgt id='2071'> +3.0063822E+03 </wgt>
<wgt id='2072'> +3.1347369E+03 </wgt>
<wgt id='2073'> +3.2726358E+03 </wgt>
<wgt id='2074'> +3.0982231E+03 </wgt>
<wgt id='2075'> +2.9698923E+03 </wgt>
<wgt id='2076'> +3.7988920E+03 </wgt>
<wgt id='2077'> +2.8957681E+03 </wgt>
<wgt id='2078'> +3.1720194E+03 </wgt>
<wgt id='2079'> +3.0977480E+03 </wgt>
<wgt id='2080'> +3.2853465E+03 </wgt>
<wgt id='2081'> +3.6959354E+03 </wgt>
<wgt id='2082'> +3.5697971E+03 </wgt>
<wgt id='2083'> +3.1037274E+03 </wgt>
<wgt id='2084'> +3.0048376E+03 </wgt>
<wgt id='2085'> +3.9605913E+03 </wgt>
<wgt id='2086'> +3.4987713E+03 </wgt>
<wgt id='2087'> +3.2105535E+03 </wgt>
<wgt id='2088'> +3.3092340E+03 </wgt>
<wgt id='2089'> +3.0173935E+03 </wgt>
<wgt id='2090'> +3.1553177E+03 </wgt>
<wgt id='2091'> +2.8830209E+03 </wgt>
<wgt id='2092'> +3.1873682E+03 </wgt>
<wgt id='2093'> +2.9727975E+03 </wgt>
<wgt id='2094'> +2.9890142E+03 </wgt>
<wgt id='2095'> +3.2177877E+03 </wgt>
<wgt id='2096'> +3.1214548E+03 </wgt>
<wgt id='2097'> +3.0049004E+03 </wgt>
<wgt id='2098'> +3.4065073E+03 </wgt>
<wgt id='2099'> +2.9459802E+03 </wgt>
<wgt id='2100'> +2.9405718E+03 </wgt>
<wgt id='2101'> +3.1765835E+03 </wgt>
<wgt id='2102'> +3.0449228E+03 </wgt>
<wgt id='2103'> +3.2086836E+03 </wgt>
<wgt id='2104'> +2.8162559E+03 </wgt>
<wgt id='2105'> +3.3030547E+03 </wgt>
<wgt id='2106'> +2.9096356E+03 </wgt>
<wgt id='2107'> +2.8267982E+03 </wgt>
<wgt id='2108'> +2.9022107E+03 </wgt>
<wgt id='2109'> +2.6097066E+03 </wgt>
<wgt id='2110'> +3.0013125E+03 </wgt>
<wgt id='2111'> +3.1144418E+03 </wgt>
<wgt id='2112'> +3.2291200E+03 </wgt>
<wgt id='2113'> +9.1680611E+02 </wgt>
<wgt id='2114'> +1.5856895E+03 </wgt>
<wgt id='2115'> +2.2769656E+03 </wgt>
<wgt id='2116'> +2.6108926E+03 </wgt>
</rwgt>
</event>
<event>
 5      0 +2.9771057E+03 7.91773900e+01 7.54677100e-03 1.20577000e-01
        2 -1    0    0  501    0 +0.0000000000e+00 +0.0000000000e+00 +1.4751949075e+03 1.4751949075e+03 0.0000000000e+00 0.0000e+00 -1.0000e+00
       -1 -1    0    0    0  501 -0.0000000000e+00 -0.0000000000e+00 -1.0624120102e+00 1.0624120102e+00 0.0000000000e+00 0.0000e+00 1.0000e+00
       24  2    1    2    0    0 +0.0000000000e+00 +0.0000000000e+00 +1.4741324955e+03 1.4762573195e+03 7.9177390386e+01 0.0000e+00 0.0000e+00
      -15  1    3    3    0    0 +1.3765303879e+01 -2.0728957436e+01 +1.6381764212e+02 1.6570621855e+02 1.7770000000e+00 0.0000e+00 1.0000e+00
       16  1    3    3    0    0 -1.3765303879e+01 +2.0728957436e+01 +1.3103148533e+03 1.3105511009e+03 0.0000000000e+00 0.0000e+00 -1.0000e+00
<scales pt_clust_4="13000.00000" pt_clust_5="13000.00000"></scales>
<mgrwt>
<rscale>  0 0.79177390E+02</rscale>
<asrwt>0</asrwt>
<pdfrwt beam="1">  1        2 0.22695142E+00 0.79177390E+02</pdfrwt>
<pdfrwt beam="2">  1       -1 0.16344918E-03 0.79177390E+02</pdfrwt>
<totfact> 0.34197218E+05</totfact>
</mgrwt>
<clustering>
<clus scale="   79.177">  4  5 -1 -1</clus>
<clus scale="   79.177">  1  4  2 -1</clus>
</clustering>
<rwgt>
<wgt id='1001'> +2.9771057E+03 </wgt>
<wgt id='1002'> +2.7661585E+03 </wgt>
<wgt id='1003'> +2.7667437E+03 </wgt>
<wgt id='1004'> +2.4231888E+03 </wgt>
<wgt id='1005'> +2.9771057E+03 </wgt>
<wgt id='1006'> +2.9771057E+03 </wgt>
<wgt id='1007'> +2.7661585E+03 </wgt>
<wgt id='1008'> +2.7667437E+03 </wgt>
<wgt id='1009'> +2.4231888E+03 </wgt>
<wgt id='1010'> +2.9771057E+03 </wgt>
<wgt id='1011'> +2.9771057E+03 </wgt>
<wgt id='1012'> +2.7661585E+03 </wgt>
<wgt id='1013'> +2.7667437E+03 </wgt>
<wgt id='1014'> +2.4231888E+03 </wgt>
<wgt id='1015'> +2.9771057E+03 </wgt>
<wgt id='1016'> +3.2645499E+03 </wgt>
<wgt id='1017'> +3.0755786E+03 </wgt>
<wgt id='1018'> +3.0761039E+03 </wgt>
<wgt id='1019'> +2.7667437E+03 </wgt>
<wgt id='1020'> +3.2645499E+03 </wgt>
<wgt id='1021'> +3.2645499E+03 </wgt>
<wgt id='1022'> +3.0755786E+03 </wgt>
<wgt id='1023'> +3.0761039E+03 </wgt>
<wgt id='1024'> +2.7667437E+03 </wgt>
<wgt id='1025'> +3.2645499E+03 </wgt>
<wgt id='1026'> +3.2645499E+03 </wgt>
<wgt id='1027'> +3.0755786E+03 </wgt>
<wgt id='1028'> +3.0761039E+03 </wgt>
<wgt id='1029'> +2.7667437E+03 </wgt>
<wgt id='1030'> +3.2645499E+03 </wgt>
<wgt id='1031'> +2.6565921E+03 </wgt>
<wgt id='1032'> +2.4225407E+03 </wgt>
<wgt id='1033'> +2.4231888E+03 </wgt>
<wgt id='1034'> +2.0443098E+03 </wgt>
<wgt id='1035'> +2.6565921E+03 </wgt>
<wgt id='1036'> +2.6565921E+03 </wgt>
<wgt id='1037'> +2.4225407E+03 </wgt>
<wgt id='1038'> +2.4231888E+03 </wgt>
<wgt id='1039'> +2.0443098E+03 </wgt>
<wgt id='1040'> +2.6565921E+03 </wgt>
<wgt id='1041'> +2.6565921E+03 </wgt>
<wgt id='1042'> +2.4225407E+03 </wgt>
<wgt id='1043'> +2.4231888E+03 </wgt>
<wgt id='1044'> +2.0443098E+03 </wgt>
<wgt id='1045'> +2.6565921E+03 </wgt>
<wgt id='1046'> +2.9771057E+03 </wgt>
<wgt id='1047'> +2.9841584E+03 </wgt>
<wgt id='1048'> +2.9474274E+03 </wgt>
<wgt id='1049'> +2.9646687E+03 </wgt>
<wgt id='1050'> +2.9872027E+03 </wgt>
<wgt id='1051'> +2.9742955E+03 </wgt>
<wgt id='1052'> +2.9673800E+03 </wgt>
<wgt id='1053'> +2.9771630E+03 </wgt>
<wgt id='1054'> +2.9598020E+03 </wgt>
<wgt id='1055'> +2.9624188E+03 </wgt>
<wgt id='1056'> +2.9793421E+03 </wgt>
<wgt id='1057'> +2.9700054E+03 </wgt>
<wgt id='1058'> +2.9824705E+03 </wgt>
<wgt id='1059'> +2.9798499E+03 </wgt>
<wgt id='1060'> +2.9651961E+03 </wgt>
<wgt id='1061'> +2.9880480E+03 </wgt>
<wgt id='1062'> +2.9710949E+03 </wgt>
<wgt id='1063'> +2.9710014E+03 </wgt>
<wgt id='1064'> +2.9790109E+03 </wgt>
<wgt id='1065'> +2.9724731E+03 </wgt>
<wgt id='1066'> +2.9799956E+03 </wgt>
<wgt id='1067'> +2.9803302E+03 </wgt>
<wgt id='1068'> +2.9817239E+03 </wgt>
<wgt id='1069'> +2.9719952E+03 </wgt>
<wgt id='1070'> +2.9808506E+03 </wgt>
<wgt id='1071'> +2.9813146E+03 </wgt>
<wgt id='1072'> +2.9702631E+03 </wgt>
<wgt id='1073'> +2.9870276E+03 </wgt>
<wgt id='1074'> +2.9828131E+03 </wgt>
<wgt id='1075'> +2.9457702E+03 </wgt>
<wgt id='1076'> +2.9694443E+03 </wgt>
<wgt id='1077'> +2.9735269E+03 </wgt>
<wgt id='1078'> +2.9693805E+03 </wgt>
<wgt id='1079'> +2.9707233E+03 </wgt>
<wgt id='1080'> +2.9817769E+03 </wgt>
<wgt id='1081'> +2.9733204E+03 </wgt>
<wgt id='1082'> +2.9716823E+03 </wgt>
<wgt id='1083'> +2.9807381E+03 </wgt>
<wgt id='1084'> +2.9736659E+03 </wgt>
<wgt id='1085'> +2.9788835E+03 </wgt>
<wgt id='1086'> +2.9733564E+03 </wgt>
<wgt id='1087'> +2.9781992E+03 </wgt>
<wgt id='1088'> +2.9774454E+03 </wgt>
<wgt id='1089'> +2.9822596E+03 </wgt>
<wgt id='1090'> +2.9749439E+03 </wgt>
<wgt id='1091'> +2.9749321E+03 </wgt>
<wgt id='1092'> +2.9789058E+03 </wgt>
<wgt id='1093'> +2.9805351E+03 </wgt>
<wgt id='1094'> +2.9803923E+03 </wgt>
<wgt id='1095'> +2.9788580E+03 </wgt>
<wgt id='1096'> +2.9786517E+03 </wgt>
<wgt id='1097'> +2.9832303E+03 </wgt>
<wgt id='1098'> +2.9790056E+03 </wgt>
<wgt id='1099'> +2.9798028E+03 </wgt>
<wgt id='1100'> +2.9815688E+03 </wgt>
<wgt id='1101'> +2.9769269E+03 </wgt>
<wgt id='1102'> +2.9738551E+03 </wgt>
<wgt id='1103'> +2.9753624E+03 </wgt>
<wgt id='1104'> +2.9723006E+03 </wgt>
<wgt id='1105'> +2.9785024E+03 </wgt>
<wgt id='1106'> +2.9779747E+03 </wgt>
<wgt id='1107'> +2.9774280E+03 </wgt>
<wgt id='1108'> +2.9768189E+03 </wgt>
<wgt id='1109'> +2.9760029E+03 </wgt>
<wgt id='1110'> +2.9717778E+03 </wgt>
<wgt id='1111'> +2.9769225E+03 </wgt>
<wgt id='1112'> +2.9799089E+03 </wgt>
<wgt id='1113'> +2.9809422E+03 </wgt>
<wgt id='1114'> +2.9822924E+03 </wgt>
<wgt id='1115'> +2.9761256E+03 </wgt>
<wgt id='1116'> +2.9777191E+03 </wgt>
<wgt id='1117'> +2.9759903E+03 </wgt>
<wgt id='1118'> +2.9762459E+03 </wgt>
<wgt id='1119'> +2.9728736E+03 </wgt>
<wgt id='1120'> +2.9777423E+03 </wgt>
<wgt id='1121'> +2.9745514E+03 </wgt>
<wgt id='1122'> +2.9760739E+03 </wgt>
<wgt id='1123'> +2.9799802E+03 </wgt>
<wgt id='1124'> +2.9779587E+03 </wgt>
<wgt id='1125'> +2.9797283E+03 </wgt>
<wgt id='1126'> +2.9760087E+03 </wgt>
<wgt id='1127'> +2.9798927E+03 </wgt>
<wgt id='1128'> +2.9801677E+03 </wgt>
<wgt id='1129'> +2.9789566E+03 </wgt>
<wgt id='1130'> +2.9762517E+03 </wgt>
<wgt id='1131'> +2.9772129E+03 </wgt>
<wgt id='1132'> +2.9762885E+03 </wgt>
<wgt id='1133'> +2.9764489E+03 </wgt>
<wgt id='1134'> +2.9773147E+03 </wgt>
<wgt id='1135'> +2.9770618E+03 </wgt>
<wgt id='1136'> +2.9759574E+03 </wgt>
<wgt id='1137'> +2.9777265E+03 </wgt>
<wgt id='1138'> +2.9781172E+03 </wgt>
<wgt id='1139'> +2.9762541E+03 </wgt>
<wgt id='1140'> +2.9757502E+03 </wgt>
<wgt id='1141'> +2.9762484E+03 </wgt>
<wgt id='1142'> +2.9752455E+03 </wgt>
<wgt id='1143'> +2.9771823E+03 </wgt>
<wgt id='1144'> +2.9758041E+03 </wgt>
<wgt id='1145'> +2.9768335E+03 </wgt>
<wgt id='1146'> +2.9750905E+03 </wgt>
<wgt id='1147'> +2.9450688E+03 </wgt>
<wgt id='1148'> +3.0014769E+03 </wgt>
<wgt id='1149'> +2.8302583E+03 </wgt>
<wgt id='1150'> +2.8519243E+03 </wgt>
<wgt id='1151'> +2.8898503E+03 </wgt>
<wgt id='1152'> +2.9236658E+03 </wgt>
<wgt id='1153'> +2.9737942E+03 </wgt>
<wgt id='1154'> +2.9855076E+03 </wgt>
<wgt id='1155'> +3.0462957E+03 </wgt>
<wgt id='1156'> +3.0663932E+03 </wgt>
<wgt id='1157'> +2.9021046E+03 </wgt>
<wgt id='1158'> +2.8755620E+03 </wgt>
<wgt id='1159'> +2.9370564E+03 </wgt>
<wgt id='1160'> +2.8865282E+03 </wgt>
<wgt id='1161'> +2.9092384E+03 </wgt>
<wgt id='1162'> +2.9089947E+03 </wgt>
<wgt id='1163'> +2.8810568E+03 </wgt>
<wgt id='1164'> +2.9177832E+03 </wgt>
<wgt id='1165'> +2.9287758E+03 </wgt>
<wgt id='1166'> +2.9121932E+03 </wgt>
<wgt id='1167'> +2.9024479E+03 </wgt>
<wgt id='1168'> +2.8989105E+03 </wgt>
<wgt id='1169'> +2.9105863E+03 </wgt>
<wgt id='1170'> +2.9111932E+03 </wgt>
<wgt id='1171'> +2.8899505E+03 </wgt>
<wgt id='1172'> +2.9155187E+03 </wgt>
<wgt id='1173'> +2.9102803E+03 </wgt>
<wgt id='1174'> +2.9038056E+03 </wgt>
<wgt id='1175'> +2.9071586E+03 </wgt>
<wgt id='1176'> +2.9028748E+03 </wgt>
<wgt id='1177'> +2.8982903E+03 </wgt>
<wgt id='1178'> +2.9022440E+03 </wgt>
<wgt id='1179'> +2.9063292E+03 </wgt>
<wgt id='1180'> +2.9074173E+03 </wgt>
<wgt id='1181'> +2.9055766E+03 </wgt>
<wgt id='1182'> +2.8936571E+03 </wgt>
<wgt id='1183'> +2.9018315E+03 </wgt>
<wgt id='1184'> +2.8987891E+03 </wgt>
<wgt id='1185'> +2.9095218E+03 </wgt>
<wgt id='1186'> +2.9096610E+03 </wgt>
<wgt id='1187'> +2.8738886E+03 </wgt>
<wgt id='1188'> +2.8877002E+03 </wgt>
<wgt id='1189'> +2.9090385E+03 </wgt>
<wgt id='1190'> +2.9057681E+03 </wgt>
<wgt id='1191'> +2.9005409E+03 </wgt>
<wgt id='1192'> +2.9080817E+03 </wgt>
<wgt id='1193'> +2.9053619E+03 </wgt>
<wgt id='1194'> +2.8935221E+03 </wgt>
<wgt id='1195'> +2.9042235E+03 </wgt>
<wgt id='1196'> +2.9016483E+03 </wgt>
<wgt id='1197'> +2.9007337E+03 </wgt>
<wgt id='1198'> +2.9056011E+03 </wgt>
<wgt id='1199'> +2.9085944E+03 </wgt>
<wgt id='1200'> +2.8958226E+03 </wgt>
<wgt id='1201'> +2.9033301E+03 </wgt>
<wgt id='1202'> +2.9047729E+03 </wgt>
<wgt id='1203'> +2.8966327E+03 </wgt>
<wgt id='1204'> +2.8998601E+03 </wgt>
<wgt id='1205'> +2.9055399E+03 </wgt>
<wgt id='1206'> +2.9016399E+03 </wgt>
<wgt id='1207'> +2.9002535E+03 </wgt>
<wgt id='1208'> +2.9073697E+03 </wgt>
<wgt id='1209'> +2.9063120E+03 </wgt>
<wgt id='1210'> +2.9020661E+03 </wgt>
<wgt id='1211'> +2.9045310E+03 </wgt>
<wgt id='1212'> +2.8979163E+03 </wgt>
<wgt id='1213'> +2.9037604E+03 </wgt>
<wgt id='1214'> +2.9038685E+03 </wgt>
<wgt id='1215'> +2.9044301E+03 </wgt>
<wgt id='1216'> +2.9023006E+03 </wgt>
<wgt id='1217'> +2.9012937E+03 </wgt>
<wgt id='1218'> +2.9001628E+03 </wgt>
<wgt id='1219'> +2.8987557E+03 </wgt>
<wgt id='1220'> +2.9010331E+03 </wgt>
<wgt id='1221'> +2.9001299E+03 </wgt>
<wgt id='1222'> +2.9007204E+03 </wgt>
<wgt id='1223'> +2.9003921E+03 </wgt>
<wgt id='1224'> +2.9007956E+03 </wgt>
<wgt id='1225'> +2.9038079E+03 </wgt>
<wgt id='1226'> +2.9015522E+03 </wgt>
<wgt id='1227'> +2.8958336E+03 </wgt>
<wgt id='1228'> +2.8990406E+03 </wgt>
<wgt id='1229'> +2.8989238E+03 </wgt>
<wgt id='1230'> +2.8987931E+03 </wgt>
<wgt id='1231'> +2.9034152E+03 </wgt>
<wgt id='1232'> +2.9044989E+03 </wgt>
<wgt id='1233'> +2.9007043E+03 </wgt>
<wgt id='1234'> +2.8991332E+03 </wgt>
<wgt id='1235'> +2.9038705E+03 </wgt>
<wgt id='1236'> +2.9025335E+03 </wgt>
<wgt id='1237'> +2.8995833E+03 </wgt>
<wgt id='1238'> +2.9011520E+03 </wgt>
<wgt id='1239'> +2.9040057E+03 </wgt>
<wgt id='1240'> +2.9037042E+03 </wgt>
<wgt id='1241'> +2.9034560E+03 </wgt>
<wgt id='1242'> +2.9042941E+03 </wgt>
<wgt id='1243'> +2.8996206E+03 </wgt>
<wgt id='1244'> +2.9022518E+03 </wgt>
<wgt id='1245'> +2.9017433E+03 </wgt>
<wgt id='1246'> +2.9029270E+03 </wgt>
<wgt id='1247'> +2.9028219E+03 </wgt>
<wgt id='1248'> +2.9013369E+03 </wgt>
<wgt id='1249'> +2.9020910E+03 </wgt>
<wgt id='1250'> +2.9019086E+03 </wgt>
<wgt id='1251'> +2.9029623E+03 </wgt>
<wgt id='1252'> +2.9015521E+03 </wgt>
<wgt id='1253'> +2.9018983E+03 </wgt>
<wgt id='1254'> +2.9006266E+03 </wgt>
<wgt id='1255'> +2.9030159E+03 </wgt>
<wgt id='1256'> +2.9039835E+03 </wgt>
<wgt id='1257'> +2.9041891E+03 </wgt>
<wgt id='1258'> +2.8623549E+03 </wgt>
<wgt id='1259'> +2.9286089E+03 </wgt>
<wgt id='1260'> +3.0321808E+03 </wgt>
<wgt id='1261'> +3.0404682E+03 </wgt>
<wgt id='1262'> +3.0390624E+03 </wgt>
<wgt id='1263'> +3.0786101E+03 </wgt>
<wgt id='1264'> +3.0433527E+03 </wgt>
<wgt id='1265'> +3.0875128E+03 </wgt>
<wgt id='1266'> +3.0722445E+03 </wgt>
<wgt id='1267'> +3.0421214E+03 </wgt>
<wgt id='1268'> +3.0540916E+03 </wgt>
<wgt id='1269'> +3.0957716E+03 </wgt>
<wgt id='1270'> +3.0011150E+03 </wgt>
<wgt id='1271'> +3.0275186E+03 </wgt>
<wgt id='1272'> +3.0160797E+03 </wgt>
<wgt id='1273'> +3.0086811E+03 </wgt>
<wgt id='1274'> +2.9762694E+03 </wgt>
<wgt id='1275'> +3.0413099E+03 </wgt>
<wgt id='1276'> +2.9996473E+03 </wgt>
<wgt id='1277'> +3.0679899E+03 </wgt>
<wgt id='1278'> +2.9968502E+03 </wgt>
<wgt id='1279'> +3.0578705E+03 </wgt>
<wgt id='1280'> +3.0273803E+03 </wgt>
<wgt id='1281'> +3.0276873E+03 </wgt>
<wgt id='1282'> +3.0337023E+03 </wgt>
<wgt id='1283'> +3.0139328E+03 </wgt>
<wgt id='1284'> +3.0510378E+03 </wgt>
<wgt id='1285'> +2.9736273E+03 </wgt>
<wgt id='1286'> +3.0840584E+03 </wgt>
<wgt id='1287'> +3.0290061E+03 </wgt>
<wgt id='1288'> +3.0301386E+03 </wgt>
<wgt id='1289'> +2.9845390E+03 </wgt>
<wgt id='1290'> +3.0607510E+03 </wgt>
<wgt id='1291'> +3.0139572E+03 </wgt>
<wgt id='1292'> +3.0574784E+03 </wgt>
<wgt id='1293'> +3.0380632E+03 </wgt>
<wgt id='1294'> +3.0254024E+03 </wgt>
<wgt id='1295'> +3.0002009E+03 </wgt>
<wgt id='1296'> +3.0656965E+03 </wgt>
<wgt id='1297'> +3.1006330E+03 </wgt>
<wgt id='1298'> +2.9558315E+03 </wgt>
<wgt id='1299'> +3.0473416E+03 </wgt>
<wgt id='1300'> +3.0123284E+03 </wgt>
<wgt id='1301'> +3.0012457E+03 </wgt>
<wgt id='1302'> +3.0445638E+03 </wgt>
<wgt id='1303'> +3.0139385E+03 </wgt>
<wgt id='1304'> +3.0092512E+03 </wgt>
<wgt id='1305'> +3.0216097E+03 </wgt>
<wgt id='1306'> +3.1082313E+03 </wgt>
<wgt id='1307'> +3.0000035E+03 </wgt>
<wgt id='1308'> +3.0975729E+03 </wgt>
<wgt id='1309'> +2.9987165E+03 </wgt>
<wgt id='1310'> +3.0688660E+03 </wgt>
<wgt id='1311'> +3.0199070E+03 </wgt>
<wgt id='1312'> +3.0629533E+03 </wgt>
<wgt id='1313'> +3.0739649E+03 </wgt>
<wgt id='1314'> +2.9800921E+03 </wgt>
<wgt id='1315'> +2.9659514E+03 </wgt>
<wgt id='1316'> +3.0717875E+03 </wgt>
<wgt id='1317'> +3.0054554E+03 </wgt>
<wgt id='1318'> +3.0574385E+03 </wgt>
<wgt id='1319'> +2.9410364E+03 </wgt>
<wgt id='1320'> +2.9655330E+03 </wgt>
<wgt id='1321'> +2.9125851E+03 </wgt>
<wgt id='1322'> +2.9766303E+03 </wgt>
<wgt id='1323'> +2.9916348E+03 </wgt>
<wgt id='1324'> +2.9758088E+03 </wgt>
<wgt id='1325'> +2.9026521E+03 </wgt>
<wgt id='1326'> +2.9255088E+03 </wgt>
<wgt id='1327'> +3.0147707E+03 </wgt>
<wgt id='1328'> +2.9332717E+03 </wgt>
<wgt id='1329'> +2.9230294E+03 </wgt>
<wgt id='1330'> +2.9208124E+03 </wgt>
<wgt id='1331'> +2.9600822E+03 </wgt>
<wgt id='1332'> +2.8630130E+03 </wgt>
<wgt id='1333'> +2.9790968E+03 </wgt>
<wgt id='1334'> +2.9357983E+03 </wgt>
<wgt id='1335'> +2.9341102E+03 </wgt>
<wgt id='1336'> +2.9893261E+03 </wgt>
<wgt id='1337'> +2.8854995E+03 </wgt>
<wgt id='1338'> +2.9564466E+03 </wgt>
<wgt id='1339'> +2.9228384E+03 </wgt>
<wgt id='1340'> +2.9443056E+03 </wgt>
<wgt id='1341'> +2.9327751E+03 </wgt>
<wgt id='1342'> +2.9504231E+03 </wgt>
<wgt id='1343'> +2.9317996E+03 </wgt>
<wgt id='1344'> +2.9103676E+03 </wgt>
<wgt id='1345'> +2.9762395E+03 </wgt>
<wgt id='1346'> +2.9796761E+03 </wgt>
<wgt id='1347'> +2.8889080E+03 </wgt>
<wgt id='1348'> +2.9010346E+03 </wgt>
<wgt id='1349'> +2.9543156E+03 </wgt>
<wgt id='1350'> +2.9369420E+03 </wgt>
<wgt id='1351'> +2.9463625E+03 </wgt>
<wgt id='1352'> +2.9488704E+03 </wgt>
<wgt id='1353'> +2.9220130E+03 </wgt>
<wgt id='1354'> +3.0001870E+03 </wgt>
<wgt id='1355'> +2.8833169E+03 </wgt>
<wgt id='1356'> +2.9462445E+03 </wgt>
<wgt id='1357'> +2.9257839E+03 </wgt>
<wgt id='1358'> +2.9332112E+03 </wgt>
<wgt id='1359'> +2.9335156E+03 </wgt>
<wgt id='1360'> +2.9475098E+03 </wgt>
<wgt id='1361'> +2.9355651E+03 </wgt>
<wgt id='1362'> +2.9058287E+03 </wgt>
<wgt id='1363'> +2.9686545E+03 </wgt>
<wgt id='1364'> +2.9308181E+03 </wgt>
<wgt id='1365'> +2.9681415E+03 </wgt>
<wgt id='1366'> +2.9337960E+03 </wgt>
<wgt id='1367'> +2.9843691E+03 </wgt>
<wgt id='1368'> +2.9617916E+03 </wgt>
<wgt id='1369'> +2.9911650E+03 </wgt>
<wgt id='1370'> +2.9490562E+03 </wgt>
<wgt id='1371'> +2.9562904E+03 </wgt>
<wgt id='1372'> +3.0251949E+03 </wgt>
<wgt id='1373'> +2.8700538E+03 </wgt>
<wgt id='1374'> +2.8588162E+03 </wgt>
<wgt id='1375'> +2.9811458E+03 </wgt>
<wgt id='1376'> +2.9061446E+03 </wgt>
<wgt id='1377'> +2.9709475E+03 </wgt>
<wgt id='1378'> +2.6724080E+03 </wgt>
<wgt id='1379'> +2.8923391E+03 </wgt>
<wgt id='1380'> +2.9106119E+03 </wgt>
<wgt id='1381'> +2.8727810E+03 </wgt>
<wgt id='1382'> +2.8888485E+03 </wgt>
<wgt id='1383'> +2.8947201E+03 </wgt>
<wgt id='1384'> +2.8619837E+03 </wgt>
<wgt id='1385'> +2.9200980E+03 </wgt>
<wgt id='1386'> +2.9150736E+03 </wgt>
<wgt id='1387'> +2.8670536E+03 </wgt>
<wgt id='1388'> +2.8992088E+03 </wgt>
<wgt id='1389'> +2.8856193E+03 </wgt>
<wgt id='1390'> +2.8954961E+03 </wgt>
<wgt id='1391'> +2.8853233E+03 </wgt>
<wgt id='1392'> +2.8849343E+03 </wgt>
<wgt id='1393'> +2.9055633E+03 </wgt>
<wgt id='1394'> +2.8914918E+03 </wgt>
<wgt id='1395'> +2.8926862E+03 </wgt>
<wgt id='1396'> +2.9105887E+03 </wgt>
<wgt id='1397'> +2.8709704E+03 </wgt>
<wgt id='1398'> +2.9014946E+03 </wgt>
<wgt id='1399'> +2.8843266E+03 </wgt>
<wgt id='1400'> +2.9065353E+03 </wgt>
<wgt id='1401'> +2.8742163E+03 </wgt>
<wgt id='1402'> +2.9174657E+03 </wgt>
<wgt id='1403'> +2.8765845E+03 </wgt>
<wgt id='1404'> +2.9025257E+03 </wgt>
<wgt id='1405'> +2.8681249E+03 </wgt>
<wgt id='1406'> +2.9062021E+03 </wgt>
<wgt id='1407'> +2.8941624E+03 </wgt>
<wgt id='1408'> +2.9058622E+03 </wgt>
<wgt id='1409'> +2.8742051E+03 </wgt>
<wgt id='1410'> +2.9172084E+03 </wgt>
<wgt id='1411'> +2.8583882E+03 </wgt>
<wgt id='1412'> +2.8813748E+03 </wgt>
<wgt id='1413'> +2.9013748E+03 </wgt>
<wgt id='1414'> +2.8853246E+03 </wgt>
<wgt id='1415'> +2.9056225E+03 </wgt>
<wgt id='1416'> +2.8898857E+03 </wgt>
<wgt id='1417'> +2.9008141E+03 </wgt>
<wgt id='1418'> +2.8936176E+03 </wgt>
<wgt id='1419'> +2.8892233E+03 </wgt>
<wgt id='1420'> +2.8582547E+03 </wgt>
<wgt id='1421'> +2.9029603E+03 </wgt>
<wgt id='1422'> +2.9158056E+03 </wgt>
<wgt id='1423'> +2.8898688E+03 </wgt>
<wgt id='1424'> +2.8846040E+03 </wgt>
<wgt id='1425'> +2.9091448E+03 </wgt>
<wgt id='1426'> +2.9078014E+03 </wgt>
<wgt id='1427'> +2.9044421E+03 </wgt>
<wgt id='1428'> +2.8970950E+03 </wgt>
<wgt id='1429'> +2.9006211E+03 </wgt>
<wgt id='1430'> +3.0175623E+03 </wgt>
<wgt id='1431'> +3.0402754E+03 </wgt>
<wgt id='1432'> +2.9882643E+03 </wgt>
<wgt id='1433'> +3.0044821E+03 </wgt>
<wgt id='1434'> +3.0304841E+03 </wgt>
<wgt id='1435'> +3.0032680E+03 </wgt>
<wgt id='1436'> +3.0233069E+03 </wgt>
<wgt id='1437'> +3.0226213E+03 </wgt>
<wgt id='1438'> +3.0123210E+03 </wgt>
<wgt id='1439'> +3.0164916E+03 </wgt>
<wgt id='1440'> +3.0184701E+03 </wgt>
<wgt id='1441'> +3.0049138E+03 </wgt>
<wgt id='1442'> +3.0228329E+03 </wgt>
<wgt id='1443'> +3.0171179E+03 </wgt>
<wgt id='1444'> +3.0179558E+03 </wgt>
<wgt id='1445'> +3.0030480E+03 </wgt>
<wgt id='1446'> +3.0331957E+03 </wgt>
<wgt id='1447'> +3.0165293E+03 </wgt>
<wgt id='1448'> +3.0173559E+03 </wgt>
<wgt id='1449'> +3.0134485E+03 </wgt>
<wgt id='1450'> +3.0229700E+03 </wgt>
<wgt id='1451'> +3.0263202E+03 </wgt>
<wgt id='1452'> +3.0112585E+03 </wgt>
<wgt id='1453'> +2.9690501E+03 </wgt>
<wgt id='1454'> +3.0583132E+03 </wgt>
<wgt id='1455'> +3.0046813E+03 </wgt>
<wgt id='1456'> +3.0506355E+03 </wgt>
<wgt id='1457'> +3.0293428E+03 </wgt>
<wgt id='1458'> +3.0292792E+03 </wgt>
<wgt id='1459'> +3.0031511E+03 </wgt>
<wgt id='1460'> +3.0398277E+03 </wgt>
<wgt id='1461'> +3.0283170E+03 </wgt>
<wgt id='1462'> +2.9910939E+03 </wgt>
<wgt id='1463'> +3.0100922E+03 </wgt>
<wgt id='1464'> +3.0326751E+03 </wgt>
<wgt id='1465'> +3.0426825E+03 </wgt>
<wgt id='1466'> +3.0061549E+03 </wgt>
<wgt id='1467'> +3.0212974E+03 </wgt>
<wgt id='1468'> +3.0238203E+03 </wgt>
<wgt id='1469'> +3.0199324E+03 </wgt>
<wgt id='1470'> +3.0134935E+03 </wgt>
<wgt id='1471'> +3.0318257E+03 </wgt>
<wgt id='1472'> +2.9871314E+03 </wgt>
<wgt id='1473'> +3.0222676E+03 </wgt>
<wgt id='1474'> +3.0134011E+03 </wgt>
<wgt id='1475'> +3.0278918E+03 </wgt>
<wgt id='1476'> +3.0476398E+03 </wgt>
<wgt id='1477'> +3.0417497E+03 </wgt>
<wgt id='1478'> +3.0118177E+03 </wgt>
<wgt id='1479'> +3.0367277E+03 </wgt>
<wgt id='1480'> +3.0411235E+03 </wgt>
<wgt id='1481'> +2.8765078E+03 </wgt>
<wgt id='1482'> +2.9596446E+03 </wgt>
<wgt id='1483'> +2.9592068E+03 </wgt>
<wgt id='1484'> +2.9599101E+03 </wgt>
<wgt id='1485'> +2.9580358E+03 </wgt>
<wgt id='1486'> +2.9596536E+03 </wgt>
<wgt id='1487'> +2.9590139E+03 </wgt>
<wgt id='1488'> +2.9516200E+03 </wgt>
<wgt id='1489'> +2.9552249E+03 </wgt>
<wgt id='1490'> +2.9514453E+03 </wgt>
<wgt id='1491'> +2.9518768E+03 </wgt>
<wgt id='1492'> +2.9713743E+03 </wgt>
<wgt id='1493'> +2.9576634E+03 </wgt>
<wgt id='1494'> +2.9573856E+03 </wgt>
<wgt id='1495'> +2.9618957E+03 </wgt>
<wgt id='1496'> +2.9570082E+03 </wgt>
<wgt id='1497'> +2.9595198E+03 </wgt>
<wgt id='1498'> +2.9561299E+03 </wgt>
<wgt id='1499'> +2.9583809E+03 </wgt>
<wgt id='1500'> +2.9626575E+03 </wgt>
<wgt id='1501'> +2.9645497E+03 </wgt>
<wgt id='1502'> +2.9498014E+03 </wgt>
<wgt id='1503'> +2.9528726E+03 </wgt>
<wgt id='1504'> +2.9569684E+03 </wgt>
<wgt id='1505'> +2.9684462E+03 </wgt>
<wgt id='1506'> +2.9665674E+03 </wgt>
<wgt id='1507'> +2.9673381E+03 </wgt>
<wgt id='1508'> +2.9602527E+03 </wgt>
<wgt id='1509'> +2.9601403E+03 </wgt>
<wgt id='1510'> +2.9575174E+03 </wgt>
<wgt id='1511'> +2.9333286E+03 </wgt>
<wgt id='1512'> +2.9140712E+03 </wgt>
<wgt id='1513'> +2.9318060E+03 </wgt>
<wgt id='1514'> +2.8708773E+03 </wgt>
<wgt id='1515'> +2.9411567E+03 </wgt>
<wgt id='1516'> +2.9182481E+03 </wgt>
<wgt id='1517'> +2.9300785E+03 </wgt>
<wgt id='1518'> +2.8894521E+03 </wgt>
<wgt id='1519'> +2.9207554E+03 </wgt>
<wgt id='1520'> +2.9395155E+03 </wgt>
<wgt id='1521'> +2.9364601E+03 </wgt>
<wgt id='1522'> +2.9192687E+03 </wgt>
<wgt id='1523'> +2.9029772E+03 </wgt>
<wgt id='1524'> +2.8943183E+03 </wgt>
<wgt id='1525'> +2.8985578E+03 </wgt>
<wgt id='1526'> +2.9101475E+03 </wgt>
<wgt id='1527'> +2.9049594E+03 </wgt>
<wgt id='1528'> +2.9079732E+03 </wgt>
<wgt id='1529'> +2.9042632E+03 </wgt>
<wgt id='1530'> +2.9344678E+03 </wgt>
<wgt id='1531'> +2.9067058E+03 </wgt>
<wgt id='1532'> +2.9155006E+03 </wgt>
<wgt id='1533'> +2.9197799E+03 </wgt>
<wgt id='1534'> +2.9053309E+03 </wgt>
<wgt id='1535'> +2.9285885E+03 </wgt>
<wgt id='1536'> +2.9105963E+03 </wgt>
<wgt id='1537'> +2.9275930E+03 </wgt>
<wgt id='1538'> +2.9150065E+03 </wgt>
<wgt id='1539'> +2.9052675E+03 </wgt>
<wgt id='1540'> +2.9307943E+03 </wgt>
<wgt id='1541'> +2.9133553E+03 </wgt>
<wgt id='1542'> +2.9069683E+03 </wgt>
<wgt id='1543'> +2.9157101E+03 </wgt>
<wgt id='1544'> +2.9113063E+03 </wgt>
<wgt id='1545'> +2.9103218E+03 </wgt>
<wgt id='1546'> +2.9150703E+03 </wgt>
<wgt id='1547'> +2.9202308E+03 </wgt>
<wgt id='1548'> +2.9122198E+03 </wgt>
<wgt id='1549'> +2.9133359E+03 </wgt>
<wgt id='1550'> +2.9137851E+03 </wgt>
<wgt id='1551'> +2.9166834E+03 </wgt>
<wgt id='1552'> +2.9180281E+03 </wgt>
<wgt id='1553'> +2.9191752E+03 </wgt>
<wgt id='1554'> +2.9202149E+03 </wgt>
<wgt id='1555'> +2.9105546E+03 </wgt>
<wgt id='1556'> +2.9159730E+03 </wgt>
<wgt id='1557'> +2.9187724E+03 </wgt>
<wgt id='1558'> +2.9137028E+03 </wgt>
<wgt id='1559'> +2.9122853E+03 </wgt>
<wgt id='1560'> +2.9074476E+03 </wgt>
<wgt id='1561'> +2.9143352E+03 </wgt>
<wgt id='1562'> +2.9116698E+03 </wgt>
<wgt id='1563'> +2.9130287E+03 </wgt>
<wgt id='1564'> +2.9133906E+03 </wgt>
<wgt id='1565'> +2.9073307E+03 </wgt>
<wgt id='1566'> +2.9138052E+03 </wgt>
<wgt id='1567'> +2.9128119E+03 </wgt>
<wgt id='1568'> +2.9104968E+03 </wgt>
<wgt id='1569'> +2.9146651E+03 </wgt>
<wgt id='1570'> +2.9126634E+03 </wgt>
<wgt id='1571'> +2.9107971E+03 </wgt>
<wgt id='1572'> +2.9145394E+03 </wgt>
<wgt id='1573'> +2.9161185E+03 </wgt>
<wgt id='1574'> +2.9120359E+03 </wgt>
<wgt id='1575'> +2.9145928E+03 </wgt>
<wgt id='1576'> +2.9120881E+03 </wgt>
<wgt id='1577'> +2.9153581E+03 </wgt>
<wgt id='1578'> +2.9149907E+03 </wgt>
<wgt id='1579'> +2.9138709E+03 </wgt>
<wgt id='1580'> +2.9156812E+03 </wgt>
<wgt id='1581'> +2.9137115E+03 </wgt>
<wgt id='1582'> +2.9151500E+03 </wgt>
<wgt id='1583'> +2.9129805E+03 </wgt>
<wgt id='1584'> +2.9120523E+03 </wgt>
<wgt id='1585'> +2.9138181E+03 </wgt>
<wgt id='1586'> +2.9153970E+03 </wgt>
<wgt id='1587'> +2.9133600E+03 </wgt>
<wgt id='1588'> +2.9137936E+03 </wgt>
<wgt id='1589'> +2.9139034E+03 </wgt>
<wgt id='1590'> +2.9146160E+03 </wgt>
<wgt id='1591'> +2.9134799E+03 </wgt>
<wgt id='1592'> +2.9146014E+03 </wgt>
<wgt id='1593'> +2.9152857E+03 </wgt>
<wgt id='1594'> +2.9135005E+03 </wgt>
<wgt id='1595'> +2.9153380E+03 </wgt>
<wgt id='1596'> +2.9140894E+03 </wgt>
<wgt id='1597'> +2.9145246E+03 </wgt>
<wgt id='1598'> +2.9146206E+03 </wgt>
<wgt id='1599'> +2.9147882E+03 </wgt>
<wgt id='1600'> +2.9152316E+03 </wgt>
<wgt id='1601'> +2.9129073E+03 </wgt>
<wgt id='1602'> +2.9148236E+03 </wgt>
<wgt id='1603'> +2.9140092E+03 </wgt>
<wgt id='1604'> +2.9139734E+03 </wgt>
<wgt id='1605'> +2.9142336E+03 </wgt>
<wgt id='1606'> +2.9135800E+03 </wgt>
<wgt id='1607'> +2.9145619E+03 </wgt>
<wgt id='1608'> +2.9132843E+03 </wgt>
<wgt id='1609'> +2.9138951E+03 </wgt>
<wgt id='1610'> +2.9140350E+03 </wgt>
<wgt id='1611'> +2.9144870E+03 </wgt>
<wgt id='1612'> +2.9141898E+03 </wgt>
<wgt id='1613'> +2.8845659E+03 </wgt>
<wgt id='1614'> +2.9436152E+03 </wgt>
<wgt id='1615'> +3.0123091E+03 </wgt>
<wgt id='1616'> +3.0279592E+03 </wgt>
<wgt id='1617'> +2.9871345E+03 </wgt>
<wgt id='1618'> +3.0448157E+03 </wgt>
<wgt id='1619'> +3.0247384E+03 </wgt>
<wgt id='1620'> +3.0178023E+03 </wgt>
<wgt id='1621'> +3.0502824E+03 </wgt>
<wgt id='1622'> +3.0319216E+03 </wgt>
<wgt id='1623'> +3.0173706E+03 </wgt>
<wgt id='1624'> +2.9767597E+03 </wgt>
<wgt id='1625'> +3.0311843E+03 </wgt>
<wgt id='1626'> +3.0224618E+03 </wgt>
<wgt id='1627'> +3.0067165E+03 </wgt>
<wgt id='1628'> +3.0107746E+03 </wgt>
<wgt id='1629'> +2.9876137E+03 </wgt>
<wgt id='1630'> +3.0454396E+03 </wgt>
<wgt id='1631'> +3.0046735E+03 </wgt>
<wgt id='1632'> +3.0172613E+03 </wgt>
<wgt id='1633'> +3.0121459E+03 </wgt>
<wgt id='1634'> +2.9987179E+03 </wgt>
<wgt id='1635'> +3.0201211E+03 </wgt>
<wgt id='1636'> +3.0202186E+03 </wgt>
<wgt id='1637'> +3.0045545E+03 </wgt>
<wgt id='1638'> +3.0252724E+03 </wgt>
<wgt id='1639'> +3.0288382E+03 </wgt>
<wgt id='1640'> +3.0090234E+03 </wgt>
<wgt id='1641'> +3.0084310E+03 </wgt>
<wgt id='1642'> +3.0158750E+03 </wgt>
<wgt id='1643'> +3.0060512E+03 </wgt>
<wgt id='1644'> +3.0065958E+03 </wgt>
<wgt id='1645'> +3.0125828E+03 </wgt>
<wgt id='1646'> +3.0216590E+03 </wgt>
<wgt id='1647'> +3.0184163E+03 </wgt>
<wgt id='1648'> +3.0201582E+03 </wgt>
<wgt id='1649'> +3.0188143E+03 </wgt>
<wgt id='1650'> +3.0021335E+03 </wgt>
<wgt id='1651'> +3.0154725E+03 </wgt>
<wgt id='1652'> +3.0130634E+03 </wgt>
<wgt id='1653'> +3.0181320E+03 </wgt>
<wgt id='1654'> +3.0059194E+03 </wgt>
<wgt id='1655'> +3.0098069E+03 </wgt>
<wgt id='1656'> +3.0116326E+03 </wgt>
<wgt id='1657'> +3.0132803E+03 </wgt>
<wgt id='1658'> +3.0046961E+03 </wgt>
<wgt id='1659'> +3.0133760E+03 </wgt>
<wgt id='1660'> +3.0144064E+03 </wgt>
<wgt id='1661'> +3.0120419E+03 </wgt>
<wgt id='1662'> +3.0058183E+03 </wgt>
<wgt id='1663'> +3.0138220E+03 </wgt>
<wgt id='1664'> +3.0084412E+03 </wgt>
<wgt id='1665'> +3.0160925E+03 </wgt>
<wgt id='1666'> +3.0175518E+03 </wgt>
<wgt id='1667'> +3.0166861E+03 </wgt>
<wgt id='1668'> +3.0100157E+03 </wgt>
<wgt id='1669'> +3.0105060E+03 </wgt>
<wgt id='1670'> +3.0119250E+03 </wgt>
<wgt id='1671'> +3.0129672E+03 </wgt>
<wgt id='1672'> +3.0121973E+03 </wgt>
<wgt id='1673'> +3.0069087E+03 </wgt>
<wgt id='1674'> +3.0116063E+03 </wgt>
<wgt id='1675'> +3.0129395E+03 </wgt>
<wgt id='1676'> +3.0096206E+03 </wgt>
<wgt id='1677'> +3.0131256E+03 </wgt>
<wgt id='1678'> +3.0120334E+03 </wgt>
<wgt id='1679'> +3.0137346E+03 </wgt>
<wgt id='1680'> +3.0125163E+03 </wgt>
<wgt id='1681'> +3.0118788E+03 </wgt>
<wgt id='1682'> +3.0136056E+03 </wgt>
<wgt id='1683'> +3.0113520E+03 </wgt>
<wgt id='1684'> +3.0132497E+03 </wgt>
<wgt id='1685'> +3.0115218E+03 </wgt>
<wgt id='1686'> +3.0125093E+03 </wgt>
<wgt id='1687'> +3.0156570E+03 </wgt>
<wgt id='1688'> +3.0107272E+03 </wgt>
<wgt id='1689'> +3.0131543E+03 </wgt>
<wgt id='1690'> +3.0120266E+03 </wgt>
<wgt id='1691'> +3.0127918E+03 </wgt>
<wgt id='1692'> +3.0127165E+03 </wgt>
<wgt id='1693'> +3.0133225E+03 </wgt>
<wgt id='1694'> +3.0118039E+03 </wgt>
<wgt id='1695'> +3.0133749E+03 </wgt>
<wgt id='1696'> +3.0133704E+03 </wgt>
<wgt id='1697'> +3.0127446E+03 </wgt>
<wgt id='1698'> +3.0108807E+03 </wgt>
<wgt id='1699'> +3.0123369E+03 </wgt>
<wgt id='1700'> +3.0124234E+03 </wgt>
<wgt id='1701'> +3.0122087E+03 </wgt>
<wgt id='1702'> +3.0124282E+03 </wgt>
<wgt id='1703'> +3.0111504E+03 </wgt>
<wgt id='1704'> +3.0127710E+03 </wgt>
<wgt id='1705'> +3.0116086E+03 </wgt>
<wgt id='1706'> +3.0124335E+03 </wgt>
<wgt id='1707'> +3.0128747E+03 </wgt>
<wgt id='1708'> +3.0115753E+03 </wgt>
<wgt id='1709'> +3.0125656E+03 </wgt>
<wgt id='1710'> +3.0127243E+03 </wgt>
<wgt id='1711'> +3.0120817E+03 </wgt>
<wgt id='1712'> +3.0123421E+03 </wgt>
<wgt id='1713'> +3.0120217E+03 </wgt>
<wgt id='1714'> +3.0117186E+03 </wgt>
<wgt id='1715'> +3.0120587E+03 </wgt>
<wgt id='1716'> +2.9851505E+03 </wgt>
<wgt id='1717'> +3.0345640E+03 </wgt>
<wgt id='1718'> +2.9141161E+03 </wgt>
<wgt id='1719'> +2.9070002E+03 </wgt>
<wgt id='1720'> +2.8978144E+03 </wgt>
<wgt id='1721'> +2.9143992E+03 </wgt>
<wgt id='1722'> +2.9456835E+03 </wgt>
<wgt id='1723'> +2.9158083E+03 </wgt>
<wgt id='1724'> +2.9334888E+03 </wgt>
<wgt id='1725'> +2.9096685E+03 </wgt>
<wgt id='1726'> +2.9240420E+03 </wgt>
<wgt id='1727'> +2.9684085E+03 </wgt>
<wgt id='1728'> +2.9167020E+03 </wgt>
<wgt id='1729'> +2.9051611E+03 </wgt>
<wgt id='1730'> +2.9344538E+03 </wgt>
<wgt id='1731'> +2.9144124E+03 </wgt>
<wgt id='1732'> +2.8991210E+03 </wgt>
<wgt id='1733'> +2.9203366E+03 </wgt>
<wgt id='1734'> +2.9146655E+03 </wgt>
<wgt id='1735'> +2.8805301E+03 </wgt>
<wgt id='1736'> +2.9118876E+03 </wgt>
<wgt id='1737'> +2.9222198E+03 </wgt>
<wgt id='1738'> +2.9197157E+03 </wgt>
<wgt id='1739'> +2.9099252E+03 </wgt>
<wgt id='1740'> +2.9085463E+03 </wgt>
<wgt id='1741'> +2.9159221E+03 </wgt>
<wgt id='1742'> +2.9061967E+03 </wgt>
<wgt id='1743'> +2.9187909E+03 </wgt>
<wgt id='1744'> +2.9063810E+03 </wgt>
<wgt id='1745'> +2.9189014E+03 </wgt>
<wgt id='1746'> +2.9150326E+03 </wgt>
<wgt id='1747'> +2.9266611E+03 </wgt>
<wgt id='1748'> +2.9175708E+03 </wgt>
<wgt id='1749'> +2.8845659E+03 </wgt>
<wgt id='1750'> +2.9436152E+03 </wgt>
<wgt id='1751'> +3.0123454E+03 </wgt>
<wgt id='1752'> +3.0313783E+03 </wgt>
<wgt id='1753'> +3.0478146E+03 </wgt>
<wgt id='1754'> +3.0117910E+03 </wgt>
<wgt id='1755'> +2.9673004E+03 </wgt>
<wgt id='1756'> +2.9919730E+03 </wgt>
<wgt id='1757'> +3.0101172E+03 </wgt>
<wgt id='1758'> +3.0118761E+03 </wgt>
<wgt id='1759'> +3.0095841E+03 </wgt>
<wgt id='1760'> +3.0076624E+03 </wgt>
<wgt id='1761'> +3.0481941E+03 </wgt>
<wgt id='1762'> +3.0105972E+03 </wgt>
<wgt id='1763'> +3.0122790E+03 </wgt>
<wgt id='1764'> +2.9710472E+03 </wgt>
<wgt id='1765'> +3.0149209E+03 </wgt>
<wgt id='1766'> +3.0078069E+03 </wgt>
<wgt id='1767'> +3.0114299E+03 </wgt>
<wgt id='1768'> +2.9880599E+03 </wgt>
<wgt id='1769'> +3.0122378E+03 </wgt>
<wgt id='1770'> +3.0166380E+03 </wgt>
<wgt id='1771'> +3.0030586E+03 </wgt>
<wgt id='1772'> +3.0029986E+03 </wgt>
<wgt id='1773'> +3.0096683E+03 </wgt>
<wgt id='1774'> +3.0107527E+03 </wgt>
<wgt id='1775'> +3.0139747E+03 </wgt>
<wgt id='1776'> +3.0110106E+03 </wgt>
<wgt id='1777'> +3.0138469E+03 </wgt>
<wgt id='1778'> +3.0129807E+03 </wgt>
<wgt id='1779'> +3.0108413E+03 </wgt>
<wgt id='1780'> +3.0150467E+03 </wgt>
<wgt id='1781'> +3.0172493E+03 </wgt>
<wgt id='1782'> +2.9851505E+03 </wgt>
<wgt id='1783'> +3.0345640E+03 </wgt>
<wgt id='1784'> +3.2796885E+03 </wgt>
<wgt id='1785'> +3.2833900E+03 </wgt>
<wgt id='1786'> +3.2760185E+03 </wgt>
<wgt id='1787'> +3.2845234E+03 </wgt>
<wgt id='1788'> +3.2748401E+03 </wgt>
<wgt id='1789'> +3.2691823E+03 </wgt>
<wgt id='1790'> +3.2901720E+03 </wgt>
<wgt id='1791'> +3.2710780E+03 </wgt>
<wgt id='1792'> +3.2879279E+03 </wgt>
<wgt id='1793'> +3.3033118E+03 </wgt>
<wgt id='1794'> +3.2561075E+03 </wgt>
<wgt id='1795'> +3.2772853E+03 </wgt>
<wgt id='1796'> +3.2769127E+03 </wgt>
<wgt id='1797'> +3.2775295E+03 </wgt>
<wgt id='1798'> +3.2813330E+03 </wgt>
<wgt id='1799'> +3.2781610E+03 </wgt>
<wgt id='1800'> +3.2981757E+03 </wgt>
<wgt id='1801'> +3.2646296E+03 </wgt>
<wgt id='1802'> +3.2846827E+03 </wgt>
<wgt id='1803'> +3.2740107E+03 </wgt>
<wgt id='1804'> +3.2898242E+03 </wgt>
<wgt id='1805'> +3.2839415E+03 </wgt>
<wgt id='1806'> +3.2731681E+03 </wgt>
<wgt id='1807'> +3.2526967E+03 </wgt>
<wgt id='1808'> +3.2947656E+03 </wgt>
<wgt id='1809'> +3.2795328E+03 </wgt>
<wgt id='1810'> +3.2774757E+03 </wgt>
<wgt id='1811'> +3.2612900E+03 </wgt>
<wgt id='1812'> +3.2948642E+03 </wgt>
<wgt id='1813'> +3.2796885E+03 </wgt>
<wgt id='1814'> +3.2872453E+03 </wgt>
<wgt id='1815'> +3.2672876E+03 </wgt>
<wgt id='1816'> +3.2881799E+03 </wgt>
<wgt id='1817'> +3.2724526E+03 </wgt>
<wgt id='1818'> +3.3196306E+03 </wgt>
<wgt id='1819'> +3.2467981E+03 </wgt>
<wgt id='1820'> +3.2754022E+03 </wgt>
<wgt id='1821'> +3.2843423E+03 </wgt>
<wgt id='1822'> +3.2525199E+03 </wgt>
<wgt id='1823'> +3.3085544E+03 </wgt>
<wgt id='1824'> +3.2706445E+03 </wgt>
<wgt id='1825'> +3.3139985E+03 </wgt>
<wgt id='1826'> +3.3340158E+03 </wgt>
<wgt id='1827'> +3.3735130E+03 </wgt>
<wgt id='1828'> +3.3787966E+03 </wgt>
<wgt id='1829'> +3.3696611E+03 </wgt>
<wgt id='1830'> +3.3833570E+03 </wgt>
<wgt id='1831'> +3.3650413E+03 </wgt>
<wgt id='1832'> +3.3669913E+03 </wgt>
<wgt id='1833'> +3.3814141E+03 </wgt>
<wgt id='1834'> +3.3567000E+03 </wgt>
<wgt id='1835'> +3.3909215E+03 </wgt>
<wgt id='1836'> +3.3891258E+03 </wgt>
<wgt id='1837'> +3.3582310E+03 </wgt>
<wgt id='1838'> +3.3888270E+03 </wgt>
<wgt id='1839'> +3.3594035E+03 </wgt>
<wgt id='1840'> +3.3685448E+03 </wgt>
<wgt id='1841'> +3.3805099E+03 </wgt>
<wgt id='1842'> +3.3809919E+03 </wgt>
<wgt id='1843'> +3.3902215E+03 </wgt>
<wgt id='1844'> +3.3831786E+03 </wgt>
<wgt id='1845'> +3.3643023E+03 </wgt>
<wgt id='1846'> +3.3695606E+03 </wgt>
<wgt id='1847'> +3.3781033E+03 </wgt>
<wgt id='1848'> +3.3509299E+03 </wgt>
<wgt id='1849'> +3.3942883E+03 </wgt>
<wgt id='1850'> +3.3716749E+03 </wgt>
<wgt id='1851'> +3.3710843E+03 </wgt>
<wgt id='1852'> +3.3737983E+03 </wgt>
<wgt id='1853'> +3.3617547E+03 </wgt>
<wgt id='1854'> +3.3649916E+03 </wgt>
<wgt id='1855'> +3.3784056E+03 </wgt>
<wgt id='1856'> +3.3735130E+03 </wgt>
<wgt id='1857'> +3.3901170E+03 </wgt>
<wgt id='1858'> +3.3474985E+03 </wgt>
<wgt id='1859'> +3.3935081E+03 </wgt>
<wgt id='1860'> +3.3586268E+03 </wgt>
<wgt id='1861'> +3.3933340E+03 </wgt>
<wgt id='1862'> +3.3312405E+03 </wgt>
<wgt id='1863'> +3.3690826E+03 </wgt>
<wgt id='1864'> +3.3816402E+03 </wgt>
<wgt id='1865'> +3.3093581E+03 </wgt>
<wgt id='1866'> +3.4087389E+03 </wgt>
<wgt id='1867'> +3.3251777E+03 </wgt>
<wgt id='1868'> +3.4329914E+03 </wgt>
<wgt id='1869'> +3.3647298E+03 </wgt>
<wgt id='1870'> +2.9076219E+03 </wgt>
<wgt id='1871'> +2.9070654E+03 </wgt>
<wgt id='1872'> +2.9064924E+03 </wgt>
<wgt id='1873'> +2.9059390E+03 </wgt>
<wgt id='1874'> +2.9053777E+03 </wgt>
<wgt id='1875'> +2.9048221E+03 </wgt>
<wgt id='1876'> +2.9042502E+03 </wgt>
<wgt id='1877'> +2.9036934E+03 </wgt>
<wgt id='1878'> +2.9031382E+03 </wgt>
<wgt id='1879'> +2.9025655E+03 </wgt>
<wgt id='1880'> +2.9020047E+03 </wgt>
<wgt id='1881'> +2.9014489E+03 </wgt>
<wgt id='1882'> +2.9008784E+03 </wgt>
<wgt id='1883'> +2.9003206E+03 </wgt>
<wgt id='1884'> +2.8997661E+03 </wgt>
<wgt id='1885'> +2.8992112E+03 </wgt>
<wgt id='1886'> +2.8986339E+03 </wgt>
<wgt id='1887'> +2.8980788E+03 </wgt>
<wgt id='1888'> +2.8975236E+03 </wgt>
<wgt id='1889'> +2.8969614E+03 </wgt>
<wgt id='1890'> +2.8964058E+03 </wgt>
<wgt id='1891'> +2.8958452E+03 </wgt>
<wgt id='1892'> +2.8952906E+03 </wgt>
<wgt id='1893'> +2.8947187E+03 </wgt>
<wgt id='1894'> +2.8941630E+03 </wgt>
<wgt id='1895'> +2.8936083E+03 </wgt>
<wgt id='1896'> +2.8930359E+03 </wgt>
<wgt id='1897'> +2.8924751E+03 </wgt>
<wgt id='1898'> +2.8919217E+03 </wgt>
<wgt id='1899'> +2.8913492E+03 </wgt>
<wgt id='1900'> +2.8907948E+03 </wgt>
<wgt id='1901'> +2.9907261E+03 </wgt>
<wgt id='1902'> +3.0054892E+03 </wgt>
<wgt id='1903'> +2.9653978E+03 </wgt>
<wgt id='1904'> +3.0232483E+03 </wgt>
<wgt id='1905'> +3.0029681E+03 </wgt>
<wgt id='1906'> +2.9962822E+03 </wgt>
<wgt id='1907'> +3.0292419E+03 </wgt>
<wgt id='1908'> +3.0107872E+03 </wgt>
<wgt id='1909'> +2.9957637E+03 </wgt>
<wgt id='1910'> +2.9554690E+03 </wgt>
<wgt id='1911'> +3.0094524E+03 </wgt>
<wgt id='1912'> +3.0016789E+03 </wgt>
<wgt id='1913'> +2.9856623E+03 </wgt>
<wgt id='1914'> +2.9897613E+03 </wgt>
<wgt id='1915'> +2.9659634E+03 </wgt>
<wgt id='1916'> +3.0223123E+03 </wgt>
<wgt id='1917'> +2.9840224E+03 </wgt>
<wgt id='1918'> +2.9953638E+03 </wgt>
<wgt id='1919'> +2.9903616E+03 </wgt>
<wgt id='1920'> +2.9777566E+03 </wgt>
<wgt id='1921'> +2.9992650E+03 </wgt>
<wgt id='1922'> +2.9981215E+03 </wgt>
<wgt id='1923'> +2.9829195E+03 </wgt>
<wgt id='1924'> +3.0038775E+03 </wgt>
<wgt id='1925'> +3.0067489E+03 </wgt>
<wgt id='1926'> +2.9867243E+03 </wgt>
<wgt id='1927'> +2.9861541E+03 </wgt>
<wgt id='1928'> +2.9950322E+03 </wgt>
<wgt id='1929'> +2.9848548E+03 </wgt>
<wgt id='1930'> +2.9847141E+03 </wgt>
<wgt id='1931'> +2.9907328E+03 </wgt>
<wgt id='1932'> +3.0008234E+03 </wgt>
<wgt id='1933'> +2.9965879E+03 </wgt>
<wgt id='1934'> +2.9983294E+03 </wgt>
<wgt id='1935'> +2.9970723E+03 </wgt>
<wgt id='1936'> +2.9804446E+03 </wgt>
<wgt id='1937'> +2.9939353E+03 </wgt>
<wgt id='1938'> +2.9915386E+03 </wgt>
<wgt id='1939'> +2.9964365E+03 </wgt>
<wgt id='1940'> +2.9840254E+03 </wgt>
<wgt id='1941'> +2.9882219E+03 </wgt>
<wgt id='1942'> +2.9898189E+03 </wgt>
<wgt id='1943'> +2.9915096E+03 </wgt>
<wgt id='1944'> +2.9836384E+03 </wgt>
<wgt id='1945'> +2.9917409E+03 </wgt>
<wgt id='1946'> +2.9926914E+03 </wgt>
<wgt id='1947'> +2.9906988E+03 </wgt>
<wgt id='1948'> +2.9840953E+03 </wgt>
<wgt id='1949'> +2.9923686E+03 </wgt>
<wgt id='1950'> +2.9867740E+03 </wgt>
<wgt id='1951'> +2.9945507E+03 </wgt>
<wgt id='1952'> +2.9958725E+03 </wgt>
<wgt id='1953'> +2.9950712E+03 </wgt>
<wgt id='1954'> +2.9885211E+03 </wgt>
<wgt id='1955'> +2.9890826E+03 </wgt>
<wgt id='1956'> +2.9904580E+03 </wgt>
<wgt id='1957'> +2.9910696E+03 </wgt>
<wgt id='1958'> +2.9905965E+03 </wgt>
<wgt id='1959'> +2.9856283E+03 </wgt>
<wgt id='1960'> +2.9901581E+03 </wgt>
<wgt id='1961'> +2.9915316E+03 </wgt>
<wgt id='1962'> +2.9881456E+03 </wgt>
<wgt id='1963'> +2.9914389E+03 </wgt>
<wgt id='1964'> +2.9903679E+03 </wgt>
<wgt id='1965'> +2.9922378E+03 </wgt>
<wgt id='1966'> +2.9909078E+03 </wgt>
<wgt id='1967'> +2.9902833E+03 </wgt>
<wgt id='1968'> +2.9918651E+03 </wgt>
<wgt id='1969'> +2.9898060E+03 </wgt>
<wgt id='1970'> +2.9915351E+03 </wgt>
<wgt id='1971'> +2.9899337E+03 </wgt>
<wgt id='1972'> +2.9910210E+03 </wgt>
<wgt id='1973'> +2.9939638E+03 </wgt>
<wgt id='1974'> +2.9890383E+03 </wgt>
<wgt id='1975'> +2.9915720E+03 </wgt>
<wgt id='1976'> +2.9904576E+03 </wgt>
<wgt id='1977'> +2.9913649E+03 </wgt>
<wgt id='1978'> +2.9911884E+03 </wgt>
<wgt id='1979'> +2.9918963E+03 </wgt>
<wgt id='1980'> +2.9902453E+03 </wgt>
<wgt id='1981'> +2.9915863E+03 </wgt>
<wgt id='1982'> +2.9919114E+03 </wgt>
<wgt id='1983'> +2.9912465E+03 </wgt>
<wgt id='1984'> +2.9893032E+03 </wgt>
<wgt id='1985'> +2.9906752E+03 </wgt>
<wgt id='1986'> +2.9908928E+03 </wgt>
<wgt id='1987'> +2.9907712E+03 </wgt>
<wgt id='1988'> +2.9907963E+03 </wgt>
<wgt id='1989'> +2.9895262E+03 </wgt>
<wgt id='1990'> +2.9911119E+03 </wgt>
<wgt id='1991'> +2.9900265E+03 </wgt>
<wgt id='1992'> +2.9907660E+03 </wgt>
<wgt id='1993'> +2.9911795E+03 </wgt>
<wgt id='1994'> +2.9900711E+03 </wgt>
<wgt id='1995'> +2.9908613E+03 </wgt>
<wgt id='1996'> +2.9911660E+03 </wgt>
<wgt id='1997'> +2.9905355E+03 </wgt>
<wgt id='1998'> +2.9908562E+03 </wgt>
<wgt id='1999'> +2.9903928E+03 </wgt>
<wgt id='2000'> +2.9901141E+03 </wgt>
<wgt id='2001'> +2.9904823E+03 </wgt>
<wgt id='2002'> +2.9907168E+03 </wgt>
<wgt id='2003'> +2.9906640E+03 </wgt>
<wgt id='2004'> +2.9907359E+03 </wgt>
<wgt id='2005'> +2.9907375E+03 </wgt>
<wgt id='2006'> +2.9907549E+03 </wgt>
<wgt id='2007'> +2.9907302E+03 </wgt>
<wgt id='2008'> +2.9906854E+03 </wgt>
<wgt id='2009'> +2.9024834E+03 </wgt>
<wgt id='2010'> +2.7989157E+03 </wgt>
<wgt id='2011'> +2.8599873E+03 </wgt>
<wgt id='2012'> +3.0181206E+03 </wgt>
<wgt id='2013'> +2.9975817E+03 </wgt>
<wgt id='2014'> +2.5603390E+03 </wgt>
<wgt id='2015'> +2.7913111E+03 </wgt>
<wgt id='2016'> +2.8568346E+03 </wgt>
<wgt id='2017'> +2.8743932E+03 </wgt>
<wgt id='2018'> +2.8185087E+03 </wgt>
<wgt id='2019'> +3.0211882E+03 </wgt>
<wgt id='2020'> +2.6543758E+03 </wgt>
<wgt id='2021'> +2.8318812E+03 </wgt>
<wgt id='2022'> +2.9212356E+03 </wgt>
<wgt id='2023'> +2.9900878E+03 </wgt>
<wgt id='2024'> +2.9110496E+03 </wgt>
<wgt id='2025'> +2.7570850E+03 </wgt>
<wgt id='2026'> +2.8591464E+03 </wgt>
<wgt id='2027'> +2.7593395E+03 </wgt>
<wgt id='2028'> +2.9484249E+03 </wgt>
<wgt id='2029'> +2.8678701E+03 </wgt>
<wgt id='2030'> +3.0291887E+03 </wgt>
<wgt id='2031'> +2.8379690E+03 </wgt>
<wgt id='2032'> +3.0068911E+03 </wgt>
<wgt id='2033'> +2.9726883E+03 </wgt>
<wgt id='2034'> +2.9094911E+03 </wgt>
<wgt id='2035'> +2.9578441E+03 </wgt>
<wgt id='2036'> +2.7884106E+03 </wgt>
<wgt id='2037'> +3.0272311E+03 </wgt>
<wgt id='2038'> +2.9419915E+03 </wgt>
<wgt id='2039'> +2.8871153E+03 </wgt>
<wgt id='2040'> +3.0067202E+03 </wgt>
<wgt id='2041'> +2.9855767E+03 </wgt>
<wgt id='2042'> +2.9904685E+03 </wgt>
<wgt id='2043'> +2.9699422E+03 </wgt>
<wgt id='2044'> +2.9794680E+03 </wgt>
<wgt id='2045'> +2.8968696E+03 </wgt>
<wgt id='2046'> +2.8423124E+03 </wgt>
<wgt id='2047'> +2.7888095E+03 </wgt>
<wgt id='2048'> +2.9206258E+03 </wgt>
<wgt id='2049'> +2.9682294E+03 </wgt>
<wgt id='2050'> +2.9884546E+03 </wgt>
<wgt id='2051'> +2.9213027E+03 </wgt>
<wgt id='2052'> +2.9386874E+03 </wgt>
<wgt id='2053'> +2.9592020E+03 </wgt>
<wgt id='2054'> +3.0247696E+03 </wgt>
<wgt id='2055'> +2.9115117E+03 </wgt>
<wgt id='2056'> +2.8816837E+03 </wgt>
<wgt id='2057'> +2.9004099E+03 </wgt>
<wgt id='2058'> +2.7653886E+03 </wgt>
<wgt id='2059'> +2.9783623E+03 </wgt>
<wgt id='2060'> +3.0166438E+03 </wgt>
<wgt id='2061'> +2.8959436E+03 </wgt>
<wgt id='2062'> +2.8666376E+03 </wgt>
<wgt id='2063'> +2.8025721E+03 </wgt>
<wgt id='2064'> +2.9352273E+03 </wgt>
<wgt id='2065'> +2.8768756E+03 </wgt>
<wgt id='2066'> +2.9213380E+03 </wgt>
<wgt id='2067'> +3.0217695E+03 </wgt>
<wgt id='2068'> +2.9258866E+03 </wgt>
<wgt id='2069'> +2.9228358E+03 </wgt>
<wgt id='2070'> +2.8991360E+03 </wgt>
<wgt id='2071'> +2.9112933E+03 </wgt>
<wgt id='2072'> +2.9047157E+03 </wgt>
<wgt id='2073'> +2.7839266E+03 </wgt>
<wgt id='2074'> +2.9996341E+03 </wgt>
<wgt id='2075'> +2.8619718E+03 </wgt>
<wgt id='2076'> +3.1604917E+03 </wgt>
<wgt id='2077'> +2.9904508E+03 </wgt>
<wgt id='2078'> +2.8923425E+03 </wgt>
<wgt id='2079'> +2.8909439E+03 </wgt>
<wgt id='2080'> +2.8883099E+03 </wgt>
<wgt id='2081'> +2.7590936E+03 </wgt>
<wgt id='2082'> +2.8097927E+03 </wgt>
<wgt id='2083'> +3.0037291E+03 </wgt>
<wgt id='2084'> +2.9098107E+03 </wgt>
<wgt id='2085'> +2.8915333E+03 </wgt>
<wgt id='2086'> +2.8714155E+03 </wgt>
<wgt id='2087'> +2.8866280E+03 </wgt>
<wgt id='2088'> +2.9375080E+03 </wgt>
<wgt id='2089'> +2.8165375E+03 </wgt>
<wgt id='2090'> +2.9982243E+03 </wgt>
<wgt id='2091'> +2.8725994E+03 </wgt>
<wgt id='2092'> +2.8614931E+03 </wgt>
<wgt id='2093'> +2.9208844E+03 </wgt>
<wgt id='2094'> +2.8893888E+03 </wgt>
<wgt id='2095'> +2.8786410E+03 </wgt>
<wgt id='2096'> +2.9554828E+03 </wgt>
<wgt id='2097'> +2.9335005E+03 </wgt>
<wgt id='2098'> +2.7904973E+03 </wgt>
<wgt id='2099'> +2.9415584E+03 </wgt>
<wgt id='2100'> +2.9556314E+03 </wgt>
<wgt id='2101'> +2.8656224E+03 </wgt>
<wgt id='2102'> +2.8560286E+03 </wgt>
<wgt id='2103'> +2.8771730E+03 </wgt>
<wgt id='2104'> +2.8598140E+03 </wgt>
<wgt id='2105'> +2.8996012E+03 </wgt>
<wgt id='2106'> +2.8300205E+03 </wgt>
<wgt id='2107'> +3.0031842E+03 </wgt>
<wgt id='2108'> +2.9289288E+03 </wgt>
<wgt id='2109'> +2.7877758E+03 </wgt>
<wgt id='2110'> +2.8987454E+03 </wgt>
<wgt id='2111'> +2.9296040E+03 </wgt>
<wgt id='2112'> +2.9852571E+03 </wgt>
<wgt id='2113'> +2.7191987E+03 </wgt>
<wgt id='2114'> +2.8676896E+03 </wgt>
<wgt id='2115'> +2.7709655E+03 </wgt>
<wgt id='2116'> +3.1594328E+03 </wgt>
</rwgt>
</event>
<event>
 5      0 +2.9771057E+03 7.93626500e+01 7.54677100e-03 1.20533500e-01
       -1 -1    0    0    0  501 -0.0000000000e+00 +0.0000000000e+00 +1.0432517149e+02 1.0432517149e+02 0.0000000000e+00 0.0000e+00 1.0000e+00
        2 -1    0    0  501    0 +0.0000000000e+00 -0.0000000000e+00 -1.5093267362e+01 1.5093267362e+01 0.0000000000e+00 0.0000e+00 -1.0000e+00
       24  2    1    2    0    0 +0.0000000000e+00 +0.0000000000e+00 +8.9231904130e+01 1.1941843885e+02 7.9362653833e+01 0.0000e+00 0.0000e+00
      -13  1    3    3    0    0 +3.4091495050e+01 -1.1513289180e+01 +6.9786693829e+01 7.8517313365e+01 0.0000000000e+00 0.0000e+00 1.0000e+00
       14  1    3    3    0    0 -3.4091495050e+01 +1.1513289180e+01 +1.9445210300e+01 4.0901125488e+01 0.0000000000e+00 0.0000e+00 -1.0000e+00
<scales pt_clust_4="13000.00000" pt_clust_5="13000.00000"></scales>
<mgrwt>
<rscale>  0 0.79362654E+02</rscale>
<asrwt>0</asrwt>
<pdfrwt beam="1">  1        2 0.23220412E-02 0.79362654E+02</pdfrwt>
<pdfrwt beam="2">  1       -1 0.16050026E-01 0.79362654E+02</pdfrwt>
<totfact> 0.14426878E+05</totfact>
</mgrwt>
<clustering>
<clus scale="   79.363">  4  5 -1 -1</clus>
<clus scale="   79.363">  2  4  1 -1</clus>
</clustering>
<rwgt>
<wgt id='1001'> +2.9771057E+03 </wgt>
<wgt id='1002'> +2.9268472E+03 </wgt>
<wgt id='1003'> +2.9268472E+03 </wgt>
<wgt id='1004'> +2.5539009E+03 </wgt>
<wgt id='1005'> +2.9771057E+03 </wgt>
<wgt id='1006'> +2.9771057E+03 </wgt>
<wgt id='1007'> +2.9268472E+03 </wgt>
<wgt id='1008'> +2.9268472E+03 </wgt>
<wgt id='1009'> +2.5539009E+03 </wgt>
<wgt id='1010'> +2.9771057E+03 </wgt>
<wgt id='1011'> +2.9771057E+03 </wgt>
<wgt id='1012'> +2.9268472E+03 </wgt>
<wgt id='1013'> +2.9268472E+03 </wgt>
<wgt id='1014'> +2.5539009E+03 </wgt>
<wgt id='1015'> +2.9771057E+03 </wgt>
<wgt id='1016'> +3.3155591E+03 </wgt>
<wgt id='1017'> +3.2695814E+03 </wgt>
<wgt id='1018'> +3.2695814E+03 </wgt>
<wgt id='1019'> +2.9268472E+03 </wgt>
<wgt id='1020'> +3.3155591E+03 </wgt>
<wgt id='1021'> +3.3155591E+03 </wgt>
<wgt id='1022'> +3.2695814E+03 </wgt>
<wgt id='1023'> +3.2695814E+03 </wgt>
<wgt id='1024'> +2.9268472E+03 </wgt>
<wgt id='1025'> +3.3155591E+03 </wgt>
<wgt id='1026'> +3.3155591E+03 </wgt>
<wgt id='1027'> +3.2695814E+03 </wgt>
<wgt id='1028'> +3.2695814E+03 </wgt>
<wgt id='1029'> +2.9268472E+03 </wgt>
<wgt id='1030'> +3.3155591E+03 </wgt>
<wgt id='1031'> +2.6083969E+03 </wgt>
<wgt id='1032'> +2.5539009E+03 </wgt>
<wgt id='1033'> +2.5539009E+03 </wgt>
<wgt id='1034'> +2.1507497E+03 </wgt>
<wgt id='1035'> +2.6083969E+03 </wgt>
<wgt id='1036'> +2.6083969E+03 </wgt>
<wgt id='1037'> +2.5539009E+03 </wgt>
<wgt id='1038'> +2.5539009E+03 </wgt>
<wgt id='1039'> +2.1507497E+03 </wgt>
<wgt id='1040'> +2.6083969E+03 </wgt>
<wgt id='1041'> +2.6083969E+03 </wgt>
<wgt id='1042'> +2.5539009E+03 </wgt>
<wgt id='1043'> +2.5539009E+03 </wgt>
<wgt id='1044'> +2.1507497E+03 </wgt>
<wgt id='1045'> +2.6083969E+03 </wgt>
<wgt id='1046'> +2.9771057E+03 </wgt>
<wgt id='1047'> +2.9743705E+03 </wgt>
<wgt id='1048'> +2.9811910E+03 </wgt>
<wgt id='1049'> +2.9757094E+03 </wgt>
<wgt id='1050'> +2.9978536E+03 </wgt>
<wgt id='1051'> +2.9783708E+03 </wgt>
<wgt id='1052'> +2.9647878E+03 </wgt>
<wgt id='1053'> +2.9784315E+03 </wgt>
<wgt id='1054'> +2.9706091E+03 </wgt>
<wgt id='1055'> +2.9994064E+03 </wgt>
<wgt id='1056'> +2.9559671E+03 </wgt>
<wgt id='1057'> +2.9620520E+03 </wgt>
<wgt id='1058'> +2.9979345E+03 </wgt>
<wgt id='1059'> +2.9681249E+03 </wgt>
<wgt id='1060'> +3.0059844E+03 </wgt>
<wgt id='1061'> +2.9923459E+03 </wgt>
<wgt id='1062'> +3.0049565E+03 </wgt>
<wgt id='1063'> +2.9602304E+03 </wgt>
<wgt id='1064'> +2.9640440E+03 </wgt>
<wgt id='1065'> +2.9781062E+03 </wgt>
<wgt id='1066'> +2.9792739E+03 </wgt>
<wgt id='1067'> +3.0004159E+03 </wgt>
<wgt id='1068'> +2.9861563E+03 </wgt>
<wgt id='1069'> +2.9547262E+03 </wgt>
<wgt id='1070'> +2.9810273E+03 </wgt>
<wgt id='1071'> +2.9868935E+03 </wgt>
<wgt id='1072'> +2.9554913E+03 </wgt>
<wgt id='1073'> +2.9784549E+03 </wgt>
<wgt id='1074'> +2.9792830E+03 </wgt>
<wgt id='1075'> +2.9715315E+03 </wgt>
<wgt id='1076'> +2.9555786E+03 </wgt>
<wgt id='1077'> +2.9884443E+03 </wgt>
<wgt id='1078'> +2.9801395E+03 </wgt>
<wgt id='1079'> +2.9964727E+03 </wgt>
<wgt id='1080'> +2.9770786E+03 </wgt>
<wgt id='1081'> +2.9859570E+03 </wgt>
<wgt id='1082'> +2.9795200E+03 </wgt>
<wgt id='1083'> +2.9631440E+03 </wgt>
<wgt id='1084'> +2.9835649E+03 </wgt>
<wgt id='1085'> +2.9685668E+03 </wgt>
<wgt id='1086'> +2.9769186E+03 </wgt>
<wgt id='1087'> +2.9768598E+03 </wgt>
<wgt id='1088'> +2.9763196E+03 </wgt>
<wgt id='1089'> +2.9745618E+03 </wgt>
<wgt id='1090'> +2.9835477E+03 </wgt>
<wgt id='1091'> +2.9794807E+03 </wgt>
<wgt id='1092'> +2.9738084E+03 </wgt>
<wgt id='1093'> +2.9699142E+03 </wgt>
<wgt id='1094'> +2.9792946E+03 </wgt>
<wgt id='1095'> +2.9836882E+03 </wgt>
<wgt id='1096'> +2.9849476E+03 </wgt>
<wgt id='1097'> +2.9779709E+03 </wgt>
<wgt id='1098'> +2.9782405E+03 </wgt>
<wgt id='1099'> +2.9776427E+03 </wgt>
<wgt id='1100'> +2.9758706E+03 </wgt>
<wgt id='1101'> +2.9737493E+03 </wgt>
<wgt id='1102'> +2.9754242E+03 </wgt>
<wgt id='1103'> +2.9757808E+03 </wgt>
<wgt id='1104'> +2.9730041E+03 </wgt>
<wgt id='1105'> +2.9812837E+03 </wgt>
<wgt id='1106'> +2.9791444E+03 </wgt>
<wgt id='1107'> +2.9715180E+03 </wgt>
<wgt id='1108'> +2.9798501E+03 </wgt>
<wgt id='1109'> +2.9774511E+03 </wgt>
<wgt id='1110'> +2.9770742E+03 </wgt>
<wgt id='1111'> +2.9795561E+03 </wgt>
<wgt id='1112'> +2.9734169E+03 </wgt>
<wgt id='1113'> +2.9757086E+03 </wgt>
<wgt id='1114'> +2.9757936E+03 </wgt>
<wgt id='1115'> +2.9722949E+03 </wgt>
<wgt id='1116'> +2.9793586E+03 </wgt>
<wgt id='1117'> +2.9679299E+03 </wgt>
<wgt id='1118'> +2.9799093E+03 </wgt>
<wgt id='1119'> +2.9742629E+03 </wgt>
<wgt id='1120'> +2.9785363E+03 </wgt>
<wgt id='1121'> +2.9718233E+03 </wgt>
<wgt id='1122'> +2.9750396E+03 </wgt>
<wgt id='1123'> +2.9720047E+03 </wgt>
<wgt id='1124'> +2.9740917E+03 </wgt>
<wgt id='1125'> +2.9760897E+03 </wgt>
<wgt id='1126'> +2.9742368E+03 </wgt>
<wgt id='1127'> +2.9779552E+03 </wgt>
<wgt id='1128'> +2.9732680E+03 </wgt>
<wgt id='1129'> +2.9777726E+03 </wgt>
<wgt id='1130'> +2.9769926E+03 </wgt>
<wgt id='1131'> +2.9767755E+03 </wgt>
<wgt id='1132'> +2.9749783E+03 </wgt>
<wgt id='1133'> +2.9773078E+03 </wgt>
<wgt id='1134'> +2.9766119E+03 </wgt>
<wgt id='1135'> +2.9781755E+03 </wgt>
<wgt id='1136'> +2.9780988E+03 </wgt>
<wgt id='1137'> +2.9761120E+03 </wgt>
<wgt id='1138'> +2.9772987E+03 </wgt>
<wgt id='1139'> +2.9771240E+03 </wgt>
<wgt id='1140'> +2.9772733E+03 </wgt>
<wgt id='1141'> +2.9799092E+03 </wgt>
<wgt id='1142'> +2.9780812E+03 </wgt>
<wgt id='1143'> +2.9760003E+03 </wgt>
<wgt id='1144'> +2.9780626E+03 </wgt>
<wgt id='1145'> +2.9792432E+03 </wgt>
<wgt id='1146'> +2.9790956E+03 </wgt>
<wgt id='1147'> +2.9833587E+03 </wgt>
<wgt id='1148'> +2.9894671E+03 </wgt>
<wgt id='1149'> +2.9842244E+03 </wgt>
<wgt id='1150'> +2.9647499E+03 </wgt>
<wgt id='1151'> +2.9642876E+03 </wgt>
<wgt id='1152'> +2.9761375E+03 </wgt>
<wgt id='1153'> +2.9795771E+03 </wgt>
<wgt id='1154'> +2.9859290E+03 </wgt>
<wgt id='1155'> +2.9890249E+03 </wgt>
<wgt id='1156'> +2.9960818E+03 </wgt>
<wgt id='1157'> +2.9275409E+03 </wgt>
<wgt id='1158'> +2.9241541E+03 </wgt>
<wgt id='1159'> +2.9322890E+03 </wgt>
<wgt id='1160'> +2.9250489E+03 </wgt>
<wgt id='1161'> +2.9510982E+03 </wgt>
<wgt id='1162'> +2.9284116E+03 </wgt>
<wgt id='1163'> +2.9128566E+03 </wgt>
<wgt id='1164'> +2.9304035E+03 </wgt>
<wgt id='1165'> +2.9206213E+03 </wgt>
<wgt id='1166'> +2.9312692E+03 </wgt>
<wgt id='1167'> +2.8942298E+03 </wgt>
<wgt id='1168'> +2.9225278E+03 </wgt>
<wgt id='1169'> +2.9407599E+03 </wgt>
<wgt id='1170'> +2.9339625E+03 </wgt>
<wgt id='1171'> +2.9448425E+03 </wgt>
<wgt id='1172'> +2.9009868E+03 </wgt>
<wgt id='1173'> +2.9493610E+03 </wgt>
<wgt id='1174'> +2.9170001E+03 </wgt>
<wgt id='1175'> +2.9399142E+03 </wgt>
<wgt id='1176'> +2.9251177E+03 </wgt>
<wgt id='1177'> +2.9099152E+03 </wgt>
<wgt id='1178'> +2.9529689E+03 </wgt>
<wgt id='1179'> +2.9322405E+03 </wgt>
<wgt id='1180'> +2.9255841E+03 </wgt>
<wgt id='1181'> +2.9351889E+03 </wgt>
<wgt id='1182'> +2.9089707E+03 </wgt>
<wgt id='1183'> +2.9234419E+03 </wgt>
<wgt id='1184'> +2.9391193E+03 </wgt>
<wgt id='1185'> +2.9243564E+03 </wgt>
<wgt id='1186'> +2.9365373E+03 </wgt>
<wgt id='1187'> +2.9129804E+03 </wgt>
<wgt id='1188'> +2.9427897E+03 </wgt>
<wgt id='1189'> +2.9118904E+03 </wgt>
<wgt id='1190'> +2.9447640E+03 </wgt>
<wgt id='1191'> +2.9310502E+03 </wgt>
<wgt id='1192'> +2.9268772E+03 </wgt>
<wgt id='1193'> +2.9203705E+03 </wgt>
<wgt id='1194'> +2.9266305E+03 </wgt>
<wgt id='1195'> +2.9167953E+03 </wgt>
<wgt id='1196'> +2.9270881E+03 </wgt>
<wgt id='1197'> +2.9300653E+03 </wgt>
<wgt id='1198'> +2.9124472E+03 </wgt>
<wgt id='1199'> +2.9256004E+03 </wgt>
<wgt id='1200'> +2.9394840E+03 </wgt>
<wgt id='1201'> +2.9227805E+03 </wgt>
<wgt id='1202'> +2.9310305E+03 </wgt>
<wgt id='1203'> +2.9266502E+03 </wgt>
<wgt id='1204'> +2.9294815E+03 </wgt>
<wgt id='1205'> +2.9333979E+03 </wgt>
<wgt id='1206'> +2.9225414E+03 </wgt>
<wgt id='1207'> +2.9311430E+03 </wgt>
<wgt id='1208'> +2.9310732E+03 </wgt>
<wgt id='1209'> +2.9256058E+03 </wgt>
<wgt id='1210'> +2.9316808E+03 </wgt>
<wgt id='1211'> +2.9253493E+03 </wgt>
<wgt id='1212'> +2.9235280E+03 </wgt>
<wgt id='1213'> +2.9248216E+03 </wgt>
<wgt id='1214'> +2.9296539E+03 </wgt>
<wgt id='1215'> +2.9337680E+03 </wgt>
<wgt id='1216'> +2.9292378E+03 </wgt>
<wgt id='1217'> +2.9246645E+03 </wgt>
<wgt id='1218'> +2.9279564E+03 </wgt>
<wgt id='1219'> +2.9311736E+03 </wgt>
<wgt id='1220'> +2.9321328E+03 </wgt>
<wgt id='1221'> +2.9281521E+03 </wgt>
<wgt id='1222'> +2.9283521E+03 </wgt>
<wgt id='1223'> +2.9341172E+03 </wgt>
<wgt id='1224'> +2.9208114E+03 </wgt>
<wgt id='1225'> +2.9230287E+03 </wgt>
<wgt id='1226'> +2.9281813E+03 </wgt>
<wgt id='1227'> +2.9272536E+03 </wgt>
<wgt id='1228'> +2.9304776E+03 </wgt>
<wgt id='1229'> +2.9272792E+03 </wgt>
<wgt id='1230'> +2.9236214E+03 </wgt>
<wgt id='1231'> +2.9312315E+03 </wgt>
<wgt id='1232'> +2.9341204E+03 </wgt>
<wgt id='1233'> +2.9277113E+03 </wgt>
<wgt id='1234'> +2.9272057E+03 </wgt>
<wgt id='1235'> +2.9262529E+03 </wgt>
<wgt id='1236'> +2.9319142E+03 </wgt>
<wgt id='1237'> +2.9236117E+03 </wgt>
<wgt id='1238'> +2.9281049E+03 </wgt>
<wgt id='1239'> +2.9256664E+03 </wgt>
<wgt id='1240'> +2.9242102E+03 </wgt>
<wgt id='1241'> +2.9254521E+03 </wgt>
<wgt id='1242'> +2.9267462E+03 </wgt>
<wgt id='1243'> +2.9282186E+03 </wgt>
<wgt id='1244'> +2.9252886E+03 </wgt>
<wgt id='1245'> +2.9283444E+03 </wgt>
<wgt id='1246'> +2.9306852E+03 </wgt>
<wgt id='1247'> +2.9247900E+03 </wgt>
<wgt id='1248'> +2.9300849E+03 </wgt>
<wgt id='1249'> +2.9269014E+03 </wgt>
<wgt id='1250'> +2.9305503E+03 </wgt>
<wgt id='1251'> +2.9266495E+03 </wgt>
<wgt id='1252'> +2.9242659E+03 </wgt>
<wgt id='1253'> +2.9253873E+03 </wgt>
<wgt id='1254'> +2.9303199E+03 </wgt>
<wgt id='1255'> +2.9283137E+03 </wgt>
<wgt id='1256'> +2.9255204E+03 </wgt>
<wgt id='1257'> +2.9263882E+03 </wgt>
<wgt id='1258'> +2.9231428E+03 </wgt>
<wgt id='1259'> +2.9388555E+03 </wgt>
<wgt id='1260'> +2.8374282E+03 </wgt>
<wgt id='1261'> +2.7758325E+03 </wgt>
<wgt id='1262'> +2.7824956E+03 </wgt>
<wgt id='1263'> +2.8442443E+03 </wgt>
<wgt id='1264'> +2.8389189E+03 </wgt>
<wgt id='1265'> +2.8405394E+03 </wgt>
<wgt id='1266'> +2.8523811E+03 </wgt>
<wgt id='1267'> +2.8167242E+03 </wgt>
<wgt id='1268'> +2.7930041E+03 </wgt>
<wgt id='1269'> +2.8795560E+03 </wgt>
<wgt id='1270'> +2.8110009E+03 </wgt>
<wgt id='1271'> +2.8443610E+03 </wgt>
<wgt id='1272'> +2.7879629E+03 </wgt>
<wgt id='1273'> +2.7815989E+03 </wgt>
<wgt id='1274'> +2.8331754E+03 </wgt>
<wgt id='1275'> +2.8520748E+03 </wgt>
<wgt id='1276'> +2.7712551E+03 </wgt>
<wgt id='1277'> +2.8479276E+03 </wgt>
<wgt id='1278'> +2.8240709E+03 </wgt>
<wgt id='1279'> +2.8485252E+03 </wgt>
<wgt id='1280'> +2.8253678E+03 </wgt>
<wgt id='1281'> +2.8220033E+03 </wgt>
<wgt id='1282'> +2.8465275E+03 </wgt>
<wgt id='1283'> +2.8819815E+03 </wgt>
<wgt id='1284'> +2.7870445E+03 </wgt>
<wgt id='1285'> +2.8500232E+03 </wgt>
<wgt id='1286'> +2.8256196E+03 </wgt>
<wgt id='1287'> +2.8480354E+03 </wgt>
<wgt id='1288'> +2.8189507E+03 </wgt>
<wgt id='1289'> +2.8719366E+03 </wgt>
<wgt id='1290'> +2.8131810E+03 </wgt>
<wgt id='1291'> +2.8536295E+03 </wgt>
<wgt id='1292'> +2.8100313E+03 </wgt>
<wgt id='1293'> +2.9280670E+03 </wgt>
<wgt id='1294'> +2.7511312E+03 </wgt>
<wgt id='1295'> +2.8516140E+03 </wgt>
<wgt id='1296'> +2.8270025E+03 </wgt>
<wgt id='1297'> +2.9037095E+03 </wgt>
<wgt id='1298'> +2.7645479E+03 </wgt>
<wgt id='1299'> +2.9316096E+03 </wgt>
<wgt id='1300'> +2.7329636E+03 </wgt>
<wgt id='1301'> +2.8284077E+03 </wgt>
<wgt id='1302'> +2.8627968E+03 </wgt>
<wgt id='1303'> +2.8533261E+03 </wgt>
<wgt id='1304'> +2.7845966E+03 </wgt>
<wgt id='1305'> +2.8056089E+03 </wgt>
<wgt id='1306'> +2.8921148E+03 </wgt>
<wgt id='1307'> +2.8221293E+03 </wgt>
<wgt id='1308'> +2.8744063E+03 </wgt>
<wgt id='1309'> +2.8472747E+03 </wgt>
<wgt id='1310'> +2.8372866E+03 </wgt>
<wgt id='1311'> +2.8407631E+03 </wgt>
<wgt id='1312'> +2.8648846E+03 </wgt>
<wgt id='1313'> +2.8861358E+03 </wgt>
<wgt id='1314'> +2.8753482E+03 </wgt>
<wgt id='1315'> +2.7510157E+03 </wgt>
<wgt id='1316'> +2.9650700E+03 </wgt>
<wgt id='1317'> +2.8062766E+03 </wgt>
<wgt id='1318'> +2.8703638E+03 </wgt>
<wgt id='1319'> +2.7614498E+03 </wgt>
<wgt id='1320'> +2.7855178E+03 </wgt>
<wgt id='1321'> +2.7625217E+03 </wgt>
<wgt id='1322'> +2.7929209E+03 </wgt>
<wgt id='1323'> +2.7757071E+03 </wgt>
<wgt id='1324'> +2.7810382E+03 </wgt>
<wgt id='1325'> +2.7548530E+03 </wgt>
<wgt id='1326'> +2.7786982E+03 </wgt>
<wgt id='1327'> +2.8348449E+03 </wgt>
<wgt id='1328'> +2.7232395E+03 </wgt>
<wgt id='1329'> +2.7861648E+03 </wgt>
<wgt id='1330'> +2.7027961E+03 </wgt>
<wgt id='1331'> +2.8143262E+03 </wgt>
<wgt id='1332'> +2.6915395E+03 </wgt>
<wgt id='1333'> +2.7763270E+03 </wgt>
<wgt id='1334'> +2.8346977E+03 </wgt>
<wgt id='1335'> +2.6615696E+03 </wgt>
<wgt id='1336'> +2.8535511E+03 </wgt>
<wgt id='1337'> +2.6583914E+03 </wgt>
<wgt id='1338'> +2.7808098E+03 </wgt>
<wgt id='1339'> +2.7363324E+03 </wgt>
<wgt id='1340'> +2.7754147E+03 </wgt>
<wgt id='1341'> +2.7293936E+03 </wgt>
<wgt id='1342'> +2.7895996E+03 </wgt>
<wgt id='1343'> +2.7266981E+03 </wgt>
<wgt id='1344'> +2.7459148E+03 </wgt>
<wgt id='1345'> +2.7785848E+03 </wgt>
<wgt id='1346'> +2.7373461E+03 </wgt>
<wgt id='1347'> +2.7895557E+03 </wgt>
<wgt id='1348'> +2.7575107E+03 </wgt>
<wgt id='1349'> +2.7624686E+03 </wgt>
<wgt id='1350'> +2.7857283E+03 </wgt>
<wgt id='1351'> +2.7302647E+03 </wgt>
<wgt id='1352'> +2.7674486E+03 </wgt>
<wgt id='1353'> +2.7474402E+03 </wgt>
<wgt id='1354'> +2.7480001E+03 </wgt>
<wgt id='1355'> +2.7798125E+03 </wgt>
<wgt id='1356'> +2.7763346E+03 </wgt>
<wgt id='1357'> +2.7166139E+03 </wgt>
<wgt id='1358'> +2.7132420E+03 </wgt>
<wgt id='1359'> +2.7716047E+03 </wgt>
<wgt id='1360'> +2.7705690E+03 </wgt>
<wgt id='1361'> +2.7584864E+03 </wgt>
<wgt id='1362'> +2.7841681E+03 </wgt>
<wgt id='1363'> +2.7247124E+03 </wgt>
<wgt id='1364'> +2.7382845E+03 </wgt>
<wgt id='1365'> +2.7342655E+03 </wgt>
<wgt id='1366'> +2.7071013E+03 </wgt>
<wgt id='1367'> +2.7755387E+03 </wgt>
<wgt id='1368'> +2.7396913E+03 </wgt>
<wgt id='1369'> +2.7635028E+03 </wgt>
<wgt id='1370'> +2.7145490E+03 </wgt>
<wgt id='1371'> +2.7012758E+03 </wgt>
<wgt id='1372'> +2.7420125E+03 </wgt>
<wgt id='1373'> +2.7401952E+03 </wgt>
<wgt id='1374'> +2.6985408E+03 </wgt>
<wgt id='1375'> +2.8582234E+03 </wgt>
<wgt id='1376'> +2.7342815E+03 </wgt>
<wgt id='1377'> +2.7856199E+03 </wgt>
<wgt id='1378'> +2.5544495E+03 </wgt>
<wgt id='1379'> +2.6374720E+03 </wgt>
<wgt id='1380'> +2.6345762E+03 </wgt>
<wgt id='1381'> +2.6407208E+03 </wgt>
<wgt id='1382'> +2.6174550E+03 </wgt>
<wgt id='1383'> +2.6512228E+03 </wgt>
<wgt id='1384'> +2.6272766E+03 </wgt>
<wgt id='1385'> +2.6472114E+03 </wgt>
<wgt id='1386'> +2.6320250E+03 </wgt>
<wgt id='1387'> +2.6435767E+03 </wgt>
<wgt id='1388'> +2.6366221E+03 </wgt>
<wgt id='1389'> +2.6383351E+03 </wgt>
<wgt id='1390'> +2.6382916E+03 </wgt>
<wgt id='1391'> +2.6358786E+03 </wgt>
<wgt id='1392'> +2.6378171E+03 </wgt>
<wgt id='1393'> +2.6369437E+03 </wgt>
<wgt id='1394'> +2.6309292E+03 </wgt>
<wgt id='1395'> +2.6411731E+03 </wgt>
<wgt id='1396'> +2.6439405E+03 </wgt>
<wgt id='1397'> +2.6303900E+03 </wgt>
<wgt id='1398'> +2.6448589E+03 </wgt>
<wgt id='1399'> +2.6309952E+03 </wgt>
<wgt id='1400'> +2.6423053E+03 </wgt>
<wgt id='1401'> +2.6314515E+03 </wgt>
<wgt id='1402'> +2.6395965E+03 </wgt>
<wgt id='1403'> +2.6370222E+03 </wgt>
<wgt id='1404'> +2.6295295E+03 </wgt>
<wgt id='1405'> +2.6369291E+03 </wgt>
<wgt id='1406'> +2.6455091E+03 </wgt>
<wgt id='1407'> +2.6378667E+03 </wgt>
<wgt id='1408'> +2.6398976E+03 </wgt>
<wgt id='1409'> +2.6344513E+03 </wgt>
<wgt id='1410'> +2.6727235E+03 </wgt>
<wgt id='1411'> +2.5984498E+03 </wgt>
<wgt id='1412'> +2.6361640E+03 </wgt>
<wgt id='1413'> +2.6388225E+03 </wgt>
<wgt id='1414'> +2.6371223E+03 </wgt>
<wgt id='1415'> +2.6452449E+03 </wgt>
<wgt id='1416'> +2.6327735E+03 </wgt>
<wgt id='1417'> +2.6448066E+03 </wgt>
<wgt id='1418'> +2.6374650E+03 </wgt>
<wgt id='1419'> +2.6372001E+03 </wgt>
<wgt id='1420'> +2.5624930E+03 </wgt>
<wgt id='1421'> +2.6979913E+03 </wgt>
<wgt id='1422'> +2.6831679E+03 </wgt>
<wgt id='1423'> +2.5927186E+03 </wgt>
<wgt id='1424'> +2.6174859E+03 </wgt>
<wgt id='1425'> +2.6868229E+03 </wgt>
<wgt id='1426'> +2.6349438E+03 </wgt>
<wgt id='1427'> +2.6221375E+03 </wgt>
<wgt id='1428'> +2.6474116E+03 </wgt>
<wgt id='1429'> +2.6333850E+03 </wgt>
<wgt id='1430'> +2.7931932E+03 </wgt>
<wgt id='1431'> +2.7879583E+03 </wgt>
<wgt id='1432'> +2.7995611E+03 </wgt>
<wgt id='1433'> +2.7992462E+03 </wgt>
<wgt id='1434'> +2.7870997E+03 </wgt>
<wgt id='1435'> +2.7637720E+03 </wgt>
<wgt id='1436'> +2.8050331E+03 </wgt>
<wgt id='1437'> +2.7774935E+03 </wgt>
<wgt id='1438'> +2.8086662E+03 </wgt>
<wgt id='1439'> +2.7910705E+03 </wgt>
<wgt id='1440'> +2.7949962E+03 </wgt>
<wgt id='1441'> +2.7902682E+03 </wgt>
<wgt id='1442'> +2.7943080E+03 </wgt>
<wgt id='1443'> +2.7959182E+03 </wgt>
<wgt id='1444'> +2.7897165E+03 </wgt>
<wgt id='1445'> +2.7887861E+03 </wgt>
<wgt id='1446'> +2.7979681E+03 </wgt>
<wgt id='1447'> +2.7980449E+03 </wgt>
<wgt id='1448'> +2.7902242E+03 </wgt>
<wgt id='1449'> +2.7894909E+03 </wgt>
<wgt id='1450'> +2.7977794E+03 </wgt>
<wgt id='1451'> +2.7971671E+03 </wgt>
<wgt id='1452'> +2.7901462E+03 </wgt>
<wgt id='1453'> +2.7817055E+03 </wgt>
<wgt id='1454'> +2.8026681E+03 </wgt>
<wgt id='1455'> +2.7925235E+03 </wgt>
<wgt id='1456'> +2.7949324E+03 </wgt>
<wgt id='1457'> +2.8005193E+03 </wgt>
<wgt id='1458'> +2.7937012E+03 </wgt>
<wgt id='1459'> +2.7828304E+03 </wgt>
<wgt id='1460'> +2.8172188E+03 </wgt>
<wgt id='1461'> +2.8116109E+03 </wgt>
<wgt id='1462'> +2.7572676E+03 </wgt>
<wgt id='1463'> +2.7855848E+03 </wgt>
<wgt id='1464'> +2.8109021E+03 </wgt>
<wgt id='1465'> +2.8010169E+03 </wgt>
<wgt id='1466'> +2.7916546E+03 </wgt>
<wgt id='1467'> +2.7914545E+03 </wgt>
<wgt id='1468'> +2.7989233E+03 </wgt>
<wgt id='1469'> +2.7953142E+03 </wgt>
<wgt id='1470'> +2.7909177E+03 </wgt>
<wgt id='1471'> +2.8400476E+03 </wgt>
<wgt id='1472'> +2.6936329E+03 </wgt>
<wgt id='1473'> +2.7976025E+03 </wgt>
<wgt id='1474'> +2.7725869E+03 </wgt>
<wgt id='1475'> +2.7538790E+03 </wgt>
<wgt id='1476'> +2.8156838E+03 </wgt>
<wgt id='1477'> +2.8300307E+03 </wgt>
<wgt id='1478'> +2.7763842E+03 </wgt>
<wgt id='1479'> +2.8007812E+03 </wgt>
<wgt id='1480'> +2.7776802E+03 </wgt>
<wgt id='1481'> +2.4551039E+03 </wgt>
<wgt id='1482'> +2.7950665E+03 </wgt>
<wgt id='1483'> +2.7946327E+03 </wgt>
<wgt id='1484'> +2.7921933E+03 </wgt>
<wgt id='1485'> +2.7947326E+03 </wgt>
<wgt id='1486'> +2.7951725E+03 </wgt>
<wgt id='1487'> +2.8002082E+03 </wgt>
<wgt id='1488'> +2.7773814E+03 </wgt>
<wgt id='1489'> +2.8018466E+03 </wgt>
<wgt id='1490'> +2.7899611E+03 </wgt>
<wgt id='1491'> +2.7863329E+03 </wgt>
<wgt id='1492'> +2.7917126E+03 </wgt>
<wgt id='1493'> +2.7937371E+03 </wgt>
<wgt id='1494'> +2.7959625E+03 </wgt>
<wgt id='1495'> +2.8001055E+03 </wgt>
<wgt id='1496'> +2.7906600E+03 </wgt>
<wgt id='1497'> +2.7998890E+03 </wgt>
<wgt id='1498'> +2.7879661E+03 </wgt>
<wgt id='1499'> +2.7945274E+03 </wgt>
<wgt id='1500'> +2.7930161E+03 </wgt>
<wgt id='1501'> +2.8007694E+03 </wgt>
<wgt id='1502'> +2.7965879E+03 </wgt>
<wgt id='1503'> +2.7852581E+03 </wgt>
<wgt id='1504'> +2.7922890E+03 </wgt>
<wgt id='1505'> +2.7906290E+03 </wgt>
<wgt id='1506'> +2.7981093E+03 </wgt>
<wgt id='1507'> +2.7909126E+03 </wgt>
<wgt id='1508'> +2.8009625E+03 </wgt>
<wgt id='1509'> +2.7892593E+03 </wgt>
<wgt id='1510'> +2.8058423E+03 </wgt>
<wgt id='1511'> +2.7813981E+03 </wgt>
<wgt id='1512'> +2.7027837E+03 </wgt>
<wgt id='1513'> +2.6886393E+03 </wgt>
<wgt id='1514'> +2.6766925E+03 </wgt>
<wgt id='1515'> +2.7542381E+03 </wgt>
<wgt id='1516'> +2.6890688E+03 </wgt>
<wgt id='1517'> +2.7137933E+03 </wgt>
<wgt id='1518'> +2.6696450E+03 </wgt>
<wgt id='1519'> +2.7288955E+03 </wgt>
<wgt id='1520'> +2.7100041E+03 </wgt>
<wgt id='1521'> +2.6933030E+03 </wgt>
<wgt id='1522'> +2.7103105E+03 </wgt>
<wgt id='1523'> +2.6636960E+03 </wgt>
<wgt id='1524'> +2.6899109E+03 </wgt>
<wgt id='1525'> +2.7194724E+03 </wgt>
<wgt id='1526'> +2.6866389E+03 </wgt>
<wgt id='1527'> +2.6984290E+03 </wgt>
<wgt id='1528'> +2.6786923E+03 </wgt>
<wgt id='1529'> +2.7069952E+03 </wgt>
<wgt id='1530'> +2.7479437E+03 </wgt>
<wgt id='1531'> +2.6843530E+03 </wgt>
<wgt id='1532'> +2.7051943E+03 </wgt>
<wgt id='1533'> +2.7047270E+03 </wgt>
<wgt id='1534'> +2.6938515E+03 </wgt>
<wgt id='1535'> +2.7159800E+03 </wgt>
<wgt id='1536'> +2.7054369E+03 </wgt>
<wgt id='1537'> +2.7119155E+03 </wgt>
<wgt id='1538'> +2.7044892E+03 </wgt>
<wgt id='1539'> +2.7097961E+03 </wgt>
<wgt id='1540'> +2.6893067E+03 </wgt>
<wgt id='1541'> +2.7064911E+03 </wgt>
<wgt id='1542'> +2.7207216E+03 </wgt>
<wgt id='1543'> +2.6976585E+03 </wgt>
<wgt id='1544'> +2.7045934E+03 </wgt>
<wgt id='1545'> +2.7119268E+03 </wgt>
<wgt id='1546'> +2.7244134E+03 </wgt>
<wgt id='1547'> +2.7050970E+03 </wgt>
<wgt id='1548'> +2.6972178E+03 </wgt>
<wgt id='1549'> +2.7157843E+03 </wgt>
<wgt id='1550'> +2.6874902E+03 </wgt>
<wgt id='1551'> +2.7079728E+03 </wgt>
<wgt id='1552'> +2.7078997E+03 </wgt>
<wgt id='1553'> +2.7014455E+03 </wgt>
<wgt id='1554'> +2.6989875E+03 </wgt>
<wgt id='1555'> +2.6979859E+03 </wgt>
<wgt id='1556'> +2.7105196E+03 </wgt>
<wgt id='1557'> +2.6999681E+03 </wgt>
<wgt id='1558'> +2.7058080E+03 </wgt>
<wgt id='1559'> +2.7004592E+03 </wgt>
<wgt id='1560'> +2.6996918E+03 </wgt>
<wgt id='1561'> +2.7033314E+03 </wgt>
<wgt id='1562'> +2.7026546E+03 </wgt>
<wgt id='1563'> +2.7014863E+03 </wgt>
<wgt id='1564'> +2.7005012E+03 </wgt>
<wgt id='1565'> +2.7034725E+03 </wgt>
<wgt id='1566'> +2.7003868E+03 </wgt>
<wgt id='1567'> +2.7005780E+03 </wgt>
<wgt id='1568'> +2.7019032E+03 </wgt>
<wgt id='1569'> +2.7059490E+03 </wgt>
<wgt id='1570'> +2.7027549E+03 </wgt>
<wgt id='1571'> +2.7048399E+03 </wgt>
<wgt id='1572'> +2.7007343E+03 </wgt>
<wgt id='1573'> +2.6996302E+03 </wgt>
<wgt id='1574'> +2.6990372E+03 </wgt>
<wgt id='1575'> +2.7033112E+03 </wgt>
<wgt id='1576'> +2.7011297E+03 </wgt>
<wgt id='1577'> +2.7029333E+03 </wgt>
<wgt id='1578'> +2.7053030E+03 </wgt>
<wgt id='1579'> +2.7053768E+03 </wgt>
<wgt id='1580'> +2.7021372E+03 </wgt>
<wgt id='1581'> +2.7028701E+03 </wgt>
<wgt id='1582'> +2.7012029E+03 </wgt>
<wgt id='1583'> +2.7002585E+03 </wgt>
<wgt id='1584'> +2.7031664E+03 </wgt>
<wgt id='1585'> +2.7024920E+03 </wgt>
<wgt id='1586'> +2.7001498E+03 </wgt>
<wgt id='1587'> +2.7028988E+03 </wgt>
<wgt id='1588'> +2.7030274E+03 </wgt>
<wgt id='1589'> +2.7027307E+03 </wgt>
<wgt id='1590'> +2.7031889E+03 </wgt>
<wgt id='1591'> +2.7028867E+03 </wgt>
<wgt id='1592'> +2.7020839E+03 </wgt>
<wgt id='1593'> +2.7044493E+03 </wgt>
<wgt id='1594'> +2.7029811E+03 </wgt>
<wgt id='1595'> +2.7039225E+03 </wgt>
<wgt id='1596'> +2.7022953E+03 </wgt>
<wgt id='1597'> +2.7012537E+03 </wgt>
<wgt id='1598'> +2.7036941E+03 </wgt>
<wgt id='1599'> +2.7023688E+03 </wgt>
<wgt id='1600'> +2.7026389E+03 </wgt>
<wgt id='1601'> +2.7030516E+03 </wgt>
<wgt id='1602'> +2.7052377E+03 </wgt>
<wgt id='1603'> +2.7027573E+03 </wgt>
<wgt id='1604'> +2.7024229E+03 </wgt>
<wgt id='1605'> +2.7030059E+03 </wgt>
<wgt id='1606'> +2.7025664E+03 </wgt>
<wgt id='1607'> +2.7043237E+03 </wgt>
<wgt id='1608'> +2.7028544E+03 </wgt>
<wgt id='1609'> +2.7026904E+03 </wgt>
<wgt id='1610'> +2.7028946E+03 </wgt>
<wgt id='1611'> +2.7025503E+03 </wgt>
<wgt id='1612'> +2.7030742E+03 </wgt>
<wgt id='1613'> +2.6795535E+03 </wgt>
<wgt id='1614'> +2.7192611E+03 </wgt>
<wgt id='1615'> +2.8250550E+03 </wgt>
<wgt id='1616'> +2.8204034E+03 </wgt>
<wgt id='1617'> +2.8160118E+03 </wgt>
<wgt id='1618'> +2.8358414E+03 </wgt>
<wgt id='1619'> +2.8552992E+03 </wgt>
<wgt id='1620'> +2.8565105E+03 </wgt>
<wgt id='1621'> +2.8478894E+03 </wgt>
<wgt id='1622'> +2.8453440E+03 </wgt>
<wgt id='1623'> +2.8278979E+03 </wgt>
<wgt id='1624'> +2.8315864E+03 </wgt>
<wgt id='1625'> +2.8079622E+03 </wgt>
<wgt id='1626'> +2.8781695E+03 </wgt>
<wgt id='1627'> +2.8249776E+03 </wgt>
<wgt id='1628'> +2.8320076E+03 </wgt>
<wgt id='1629'> +2.8109612E+03 </wgt>
<wgt id='1630'> +2.8331604E+03 </wgt>
<wgt id='1631'> +2.8271206E+03 </wgt>
<wgt id='1632'> +2.8216356E+03 </wgt>
<wgt id='1633'> +2.8463130E+03 </wgt>
<wgt id='1634'> +2.7849659E+03 </wgt>
<wgt id='1635'> +2.8294776E+03 </wgt>
<wgt id='1636'> +2.8316135E+03 </wgt>
<wgt id='1637'> +2.7968993E+03 </wgt>
<wgt id='1638'> +2.8385709E+03 </wgt>
<wgt id='1639'> +2.8336384E+03 </wgt>
<wgt id='1640'> +2.8199552E+03 </wgt>
<wgt id='1641'> +2.8115383E+03 </wgt>
<wgt id='1642'> +2.8285617E+03 </wgt>
<wgt id='1643'> +2.8364209E+03 </wgt>
<wgt id='1644'> +2.8168267E+03 </wgt>
<wgt id='1645'> +2.8171473E+03 </wgt>
<wgt id='1646'> +2.8329455E+03 </wgt>
<wgt id='1647'> +2.8139122E+03 </wgt>
<wgt id='1648'> +2.8057081E+03 </wgt>
<wgt id='1649'> +2.8099512E+03 </wgt>
<wgt id='1650'> +2.8436203E+03 </wgt>
<wgt id='1651'> +2.8250233E+03 </wgt>
<wgt id='1652'> +2.8298847E+03 </wgt>
<wgt id='1653'> +2.8144868E+03 </wgt>
<wgt id='1654'> +2.8192679E+03 </wgt>
<wgt id='1655'> +2.8073618E+03 </wgt>
<wgt id='1656'> +2.8214149E+03 </wgt>
<wgt id='1657'> +2.8286403E+03 </wgt>
<wgt id='1658'> +2.8226576E+03 </wgt>
<wgt id='1659'> +2.8267321E+03 </wgt>
<wgt id='1660'> +2.8172425E+03 </wgt>
<wgt id='1661'> +2.8180913E+03 </wgt>
<wgt id='1662'> +2.8317795E+03 </wgt>
<wgt id='1663'> +2.8280004E+03 </wgt>
<wgt id='1664'> +2.8220511E+03 </wgt>
<wgt id='1665'> +2.8299864E+03 </wgt>
<wgt id='1666'> +2.8280120E+03 </wgt>
<wgt id='1667'> +2.8247681E+03 </wgt>
<wgt id='1668'> +2.8286832E+03 </wgt>
<wgt id='1669'> +2.8223990E+03 </wgt>
<wgt id='1670'> +2.8270396E+03 </wgt>
<wgt id='1671'> +2.8234865E+03 </wgt>
<wgt id='1672'> +2.8244161E+03 </wgt>
<wgt id='1673'> +2.8236018E+03 </wgt>
<wgt id='1674'> +2.8252607E+03 </wgt>
<wgt id='1675'> +2.8247671E+03 </wgt>
<wgt id='1676'> +2.8264134E+03 </wgt>
<wgt id='1677'> +2.8217565E+03 </wgt>
<wgt id='1678'> +2.8231582E+03 </wgt>
<wgt id='1679'> +2.8255928E+03 </wgt>
<wgt id='1680'> +2.8236255E+03 </wgt>
<wgt id='1681'> +2.8232425E+03 </wgt>
<wgt id='1682'> +2.8239211E+03 </wgt>
<wgt id='1683'> +2.8263789E+03 </wgt>
<wgt id='1684'> +2.8268551E+03 </wgt>
<wgt id='1685'> +2.8242600E+03 </wgt>
<wgt id='1686'> +2.8286721E+03 </wgt>
<wgt id='1687'> +2.8252498E+03 </wgt>
<wgt id='1688'> +2.8242978E+03 </wgt>
<wgt id='1689'> +2.8232685E+03 </wgt>
<wgt id='1690'> +2.8263411E+03 </wgt>
<wgt id='1691'> +2.8236214E+03 </wgt>
<wgt id='1692'> +2.8242589E+03 </wgt>
<wgt id='1693'> +2.8246740E+03 </wgt>
<wgt id='1694'> +2.8249611E+03 </wgt>
<wgt id='1695'> +2.8266001E+03 </wgt>
<wgt id='1696'> +2.8243714E+03 </wgt>
<wgt id='1697'> +2.8236446E+03 </wgt>
<wgt id='1698'> +2.8237557E+03 </wgt>
<wgt id='1699'> +2.8262384E+03 </wgt>
<wgt id='1700'> +2.8248994E+03 </wgt>
<wgt id='1701'> +2.8251381E+03 </wgt>
<wgt id='1702'> +2.8246409E+03 </wgt>
<wgt id='1703'> +2.8243883E+03 </wgt>
<wgt id='1704'> +2.8252277E+03 </wgt>
<wgt id='1705'> +2.8253031E+03 </wgt>
<wgt id='1706'> +2.8252016E+03 </wgt>
<wgt id='1707'> +2.8249222E+03 </wgt>
<wgt id='1708'> +2.8238288E+03 </wgt>
<wgt id='1709'> +2.8252474E+03 </wgt>
<wgt id='1710'> +2.8264564E+03 </wgt>
<wgt id='1711'> +2.8251829E+03 </wgt>
<wgt id='1712'> +2.8251763E+03 </wgt>
<wgt id='1713'> +2.8240090E+03 </wgt>
<wgt id='1714'> +2.8244194E+03 </wgt>
<wgt id='1715'> +2.8254228E+03 </wgt>
<wgt id='1716'> +2.8050319E+03 </wgt>
<wgt id='1717'> +2.8459699E+03 </wgt>
<wgt id='1718'> +2.7029193E+03 </wgt>
<wgt id='1719'> +2.6994292E+03 </wgt>
<wgt id='1720'> +2.6419119E+03 </wgt>
<wgt id='1721'> +2.7008464E+03 </wgt>
<wgt id='1722'> +2.7433669E+03 </wgt>
<wgt id='1723'> +2.7170167E+03 </wgt>
<wgt id='1724'> +2.7020630E+03 </wgt>
<wgt id='1725'> +2.7086667E+03 </wgt>
<wgt id='1726'> +2.7082930E+03 </wgt>
<wgt id='1727'> +2.7196400E+03 </wgt>
<wgt id='1728'> +2.7039653E+03 </wgt>
<wgt id='1729'> +2.6700765E+03 </wgt>
<wgt id='1730'> +2.7037300E+03 </wgt>
<wgt id='1731'> +2.7010115E+03 </wgt>
<wgt id='1732'> +2.6724950E+03 </wgt>
<wgt id='1733'> +2.7095070E+03 </wgt>
<wgt id='1734'> +2.7125950E+03 </wgt>
<wgt id='1735'> +2.6716082E+03 </wgt>
<wgt id='1736'> +2.7048189E+03 </wgt>
<wgt id='1737'> +2.7118065E+03 </wgt>
<wgt id='1738'> +2.7609388E+03 </wgt>
<wgt id='1739'> +2.6994907E+03 </wgt>
<wgt id='1740'> +2.6987653E+03 </wgt>
<wgt id='1741'> +2.7078407E+03 </wgt>
<wgt id='1742'> +2.7008038E+03 </wgt>
<wgt id='1743'> +2.7029042E+03 </wgt>
<wgt id='1744'> +2.7012006E+03 </wgt>
<wgt id='1745'> +2.7052927E+03 </wgt>
<wgt id='1746'> +2.7024867E+03 </wgt>
<wgt id='1747'> +2.6924122E+03 </wgt>
<wgt id='1748'> +2.7047801E+03 </wgt>
<wgt id='1749'> +2.6795535E+03 </wgt>
<wgt id='1750'> +2.7192611E+03 </wgt>
<wgt id='1751'> +2.8251665E+03 </wgt>
<wgt id='1752'> +2.8155103E+03 </wgt>
<wgt id='1753'> +2.8652787E+03 </wgt>
<wgt id='1754'> +2.8222980E+03 </wgt>
<wgt id='1755'> +2.7691650E+03 </wgt>
<wgt id='1756'> +2.7974509E+03 </wgt>
<wgt id='1757'> +2.8226959E+03 </wgt>
<wgt id='1758'> +2.8204046E+03 </wgt>
<wgt id='1759'> +2.8145562E+03 </wgt>
<wgt id='1760'> +2.7989131E+03 </wgt>
<wgt id='1761'> +2.8302688E+03 </wgt>
<wgt id='1762'> +2.8924033E+03 </wgt>
<wgt id='1763'> +2.8285618E+03 </wgt>
<wgt id='1764'> +2.8314503E+03 </wgt>
<wgt id='1765'> +2.8248164E+03 </wgt>
<wgt id='1766'> +2.8224079E+03 </wgt>
<wgt id='1767'> +2.8219906E+03 </wgt>
<wgt id='1768'> +2.8330763E+03 </wgt>
<wgt id='1769'> +2.8265144E+03 </wgt>
<wgt id='1770'> +2.8231038E+03 </wgt>
<wgt id='1771'> +2.8268081E+03 </wgt>
<wgt id='1772'> +2.8250239E+03 </wgt>
<wgt id='1773'> +2.8430326E+03 </wgt>
<wgt id='1774'> +2.8274212E+03 </wgt>
<wgt id='1775'> +2.8260868E+03 </wgt>
<wgt id='1776'> +2.8278956E+03 </wgt>
<wgt id='1777'> +2.8268372E+03 </wgt>
<wgt id='1778'> +2.8296235E+03 </wgt>
<wgt id='1779'> +2.8275331E+03 </wgt>
<wgt id='1780'> +2.8227191E+03 </wgt>
<wgt id='1781'> +2.8399670E+03 </wgt>
<wgt id='1782'> +2.8050319E+03 </wgt>
<wgt id='1783'> +2.8459699E+03 </wgt>
<wgt id='1784'> +2.6870529E+03 </wgt>
<wgt id='1785'> +2.6937731E+03 </wgt>
<wgt id='1786'> +2.6803805E+03 </wgt>
<wgt id='1787'> +2.6855683E+03 </wgt>
<wgt id='1788'> +2.6885318E+03 </wgt>
<wgt id='1789'> +2.6928494E+03 </wgt>
<wgt id='1790'> +2.6812652E+03 </wgt>
<wgt id='1791'> +2.6775069E+03 </wgt>
<wgt id='1792'> +2.6962127E+03 </wgt>
<wgt id='1793'> +2.6986214E+03 </wgt>
<wgt id='1794'> +2.6754969E+03 </wgt>
<wgt id='1795'> +2.6964313E+03 </wgt>
<wgt id='1796'> +2.6771782E+03 </wgt>
<wgt id='1797'> +2.6867107E+03 </wgt>
<wgt id='1798'> +2.6873232E+03 </wgt>
<wgt id='1799'> +2.6823317E+03 </wgt>
<wgt id='1800'> +2.6910574E+03 </wgt>
<wgt id='1801'> +2.6803715E+03 </wgt>
<wgt id='1802'> +2.6908248E+03 </wgt>
<wgt id='1803'> +2.6797992E+03 </wgt>
<wgt id='1804'> +2.6948736E+03 </wgt>
<wgt id='1805'> +2.6812283E+03 </wgt>
<wgt id='1806'> +2.6896309E+03 </wgt>
<wgt id='1807'> +2.6906054E+03 </wgt>
<wgt id='1808'> +2.6719270E+03 </wgt>
<wgt id='1809'> +2.6904215E+03 </wgt>
<wgt id='1810'> +2.6875748E+03 </wgt>
<wgt id='1811'> +2.6888564E+03 </wgt>
<wgt id='1812'> +2.6860862E+03 </wgt>
<wgt id='1813'> +2.6870529E+03 </wgt>
<wgt id='1814'> +2.7849766E+03 </wgt>
<wgt id='1815'> +2.5717896E+03 </wgt>
<wgt id='1816'> +2.8654519E+03 </wgt>
<wgt id='1817'> +2.7240834E+03 </wgt>
<wgt id='1818'> +2.6942644E+03 </wgt>
<wgt id='1819'> +2.6908673E+03 </wgt>
<wgt id='1820'> +2.6838543E+03 </wgt>
<wgt id='1821'> +2.6897688E+03 </wgt>
<wgt id='1822'> +2.6548281E+03 </wgt>
<wgt id='1823'> +2.7176636E+03 </wgt>
<wgt id='1824'> +2.6670320E+03 </wgt>
<wgt id='1825'> +2.7319343E+03 </wgt>
<wgt id='1826'> +2.6262362E+03 </wgt>
<wgt id='1827'> +2.7877973E+03 </wgt>
<wgt id='1828'> +2.7956155E+03 </wgt>
<wgt id='1829'> +2.7802060E+03 </wgt>
<wgt id='1830'> +2.7832277E+03 </wgt>
<wgt id='1831'> +2.7925515E+03 </wgt>
<wgt id='1832'> +2.7917866E+03 </wgt>
<wgt id='1833'> +2.7840004E+03 </wgt>
<wgt id='1834'> +2.7740561E+03 </wgt>
<wgt id='1835'> +2.8010729E+03 </wgt>
<wgt id='1836'> +2.7997004E+03 </wgt>
<wgt id='1837'> +2.7759057E+03 </wgt>
<wgt id='1838'> +2.7888954E+03 </wgt>
<wgt id='1839'> +2.7868723E+03 </wgt>
<wgt id='1840'> +2.7833038E+03 </wgt>
<wgt id='1841'> +2.7925551E+03 </wgt>
<wgt id='1842'> +2.7855165E+03 </wgt>
<wgt id='1843'> +2.7913931E+03 </wgt>
<wgt id='1844'> +2.7897428E+03 </wgt>
<wgt id='1845'> +2.7854322E+03 </wgt>
<wgt id='1846'> +2.7823801E+03 </wgt>
<wgt id='1847'> +2.7931614E+03 </wgt>
<wgt id='1848'> +2.7806106E+03 </wgt>
<wgt id='1849'> +2.7910607E+03 </wgt>
<wgt id='1850'> +2.8073699E+03 </wgt>
<wgt id='1851'> +2.7687950E+03 </wgt>
<wgt id='1852'> +2.8176714E+03 </wgt>
<wgt id='1853'> +2.7538668E+03 </wgt>
<wgt id='1854'> +2.8147253E+03 </wgt>
<wgt id='1855'> +2.7646131E+03 </wgt>
<wgt id='1856'> +2.7877973E+03 </wgt>
<wgt id='1857'> +2.9081026E+03 </wgt>
<wgt id='1858'> +2.6520966E+03 </wgt>
<wgt id='1859'> +2.9915811E+03 </wgt>
<wgt id='1860'> +2.8061254E+03 </wgt>
<wgt id='1861'> +2.8438874E+03 </wgt>
<wgt id='1862'> +2.7697091E+03 </wgt>
<wgt id='1863'> +2.7823241E+03 </wgt>
<wgt id='1864'> +2.7859964E+03 </wgt>
<wgt id='1865'> +2.7584304E+03 </wgt>
<wgt id='1866'> +2.8677869E+03 </wgt>
<wgt id='1867'> +2.7879151E+03 </wgt>
<wgt id='1868'> +2.7965750E+03 </wgt>
<wgt id='1869'> +2.7661555E+03 </wgt>
<wgt id='1870'> +2.7318733E+03 </wgt>
<wgt id='1871'> +2.7305403E+03 </wgt>
<wgt id='1872'> +2.7292084E+03 </wgt>
<wgt id='1873'> +2.7278734E+03 </wgt>
<wgt id='1874'> +2.7265412E+03 </wgt>
<wgt id='1875'> +2.7252175E+03 </wgt>
<wgt id='1876'> +2.7238866E+03 </wgt>
<wgt id='1877'> +2.7225578E+03 </wgt>
<wgt id='1878'> +2.7212239E+03 </wgt>
<wgt id='1879'> +2.7198954E+03 </wgt>
<wgt id='1880'> +2.7185749E+03 </wgt>
<wgt id='1881'> +2.7172453E+03 </wgt>
<wgt id='1882'> +2.7159171E+03 </wgt>
<wgt id='1883'> +2.7145873E+03 </wgt>
<wgt id='1884'> +2.7132583E+03 </wgt>
<wgt id='1885'> +2.7119388E+03 </wgt>
<wgt id='1886'> +2.7106110E+03 </wgt>
<wgt id='1887'> +2.7092821E+03 </wgt>
<wgt id='1888'> +2.7079562E+03 </wgt>
<wgt id='1889'> +2.7066277E+03 </wgt>
<wgt id='1890'> +2.7053111E+03 </wgt>
<wgt id='1891'> +2.7039860E+03 </wgt>
<wgt id='1892'> +2.7026578E+03 </wgt>
<wgt id='1893'> +2.7013328E+03 </wgt>
<wgt id='1894'> +2.7000055E+03 </wgt>
<wgt id='1895'> +2.6986904E+03 </wgt>
<wgt id='1896'> +2.6973648E+03 </wgt>
<wgt id='1897'> +2.6960408E+03 </wgt>
<wgt id='1898'> +2.6947152E+03 </wgt>
<wgt id='1899'> +2.6933920E+03 </wgt>
<wgt id='1900'> +2.6920782E+03 </wgt>
<wgt id='1901'> +2.8116905E+03 </wgt>
<wgt id='1902'> +2.8061744E+03 </wgt>
<wgt id='1903'> +2.8024278E+03 </wgt>
<wgt id='1904'> +2.8225238E+03 </wgt>
<wgt id='1905'> +2.8416422E+03 </wgt>
<wgt id='1906'> +2.8429329E+03 </wgt>
<wgt id='1907'> +2.8351102E+03 </wgt>
<wgt id='1908'> +2.8325702E+03 </wgt>
<wgt id='1909'> +2.8145702E+03 </wgt>
<wgt id='1910'> +2.8182460E+03 </wgt>
<wgt id='1911'> +2.7944789E+03 </wgt>
<wgt id='1912'> +2.8654715E+03 </wgt>
<wgt id='1913'> +2.8120830E+03 </wgt>
<wgt id='1914'> +2.8190115E+03 </wgt>
<wgt id='1915'> +2.7976058E+03 </wgt>
<wgt id='1916'> +2.8185852E+03 </wgt>
<wgt id='1917'> +2.8146230E+03 </wgt>
<wgt id='1918'> +2.8078973E+03 </wgt>
<wgt id='1919'> +2.8326711E+03 </wgt>
<wgt id='1920'> +2.7722996E+03 </wgt>
<wgt id='1921'> +2.8167212E+03 </wgt>
<wgt id='1922'> +2.8178921E+03 </wgt>
<wgt id='1923'> +2.7834624E+03 </wgt>
<wgt id='1924'> +2.8254554E+03 </wgt>
<wgt id='1925'> +2.8198950E+03 </wgt>
<wgt id='1926'> +2.8059750E+03 </wgt>
<wgt id='1927'> +2.7976054E+03 </wgt>
<wgt id='1928'> +2.8159006E+03 </wgt>
<wgt id='1929'> +2.8232897E+03 </wgt>
<wgt id='1930'> +2.8031495E+03 </wgt>
<wgt id='1931'> +2.8034911E+03 </wgt>
<wgt id='1932'> +2.8203102E+03 </wgt>
<wgt id='1933'> +2.8002970E+03 </wgt>
<wgt id='1934'> +2.7921877E+03 </wgt>
<wgt id='1935'> +2.7966353E+03 </wgt>
<wgt id='1936'> +2.8299945E+03 </wgt>
<wgt id='1937'> +2.8117354E+03 </wgt>
<wgt id='1938'> +2.8165057E+03 </wgt>
<wgt id='1939'> +2.8010512E+03 </wgt>
<wgt id='1940'> +2.8056503E+03 </wgt>
<wgt id='1941'> +2.7940716E+03 </wgt>
<wgt id='1942'> +2.8079285E+03 </wgt>
<wgt id='1943'> +2.8151889E+03 </wgt>
<wgt id='1944'> +2.8096709E+03 </wgt>
<wgt id='1945'> +2.8132654E+03 </wgt>
<wgt id='1946'> +2.8038507E+03 </wgt>
<wgt id='1947'> +2.8049245E+03 </wgt>
<wgt id='1948'> +2.8182717E+03 </wgt>
<wgt id='1949'> +2.8147464E+03 </wgt>
<wgt id='1950'> +2.8086409E+03 </wgt>
<wgt id='1951'> +2.8166587E+03 </wgt>
<wgt id='1952'> +2.8145660E+03 </wgt>
<wgt id='1953'> +2.8113861E+03 </wgt>
<wgt id='1954'> +2.8152917E+03 </wgt>
<wgt id='1955'> +2.8091287E+03 </wgt>
<wgt id='1956'> +2.8137403E+03 </wgt>
<wgt id='1957'> +2.8098935E+03 </wgt>
<wgt id='1958'> +2.8111070E+03 </wgt>
<wgt id='1959'> +2.8104416E+03 </wgt>
<wgt id='1960'> +2.8119942E+03 </wgt>
<wgt id='1961'> +2.8115219E+03 </wgt>
<wgt id='1962'> +2.8130946E+03 </wgt>
<wgt id='1963'> +2.8083324E+03 </wgt>
<wgt id='1964'> +2.8096788E+03 </wgt>
<wgt id='1965'> +2.8123298E+03 </wgt>
<wgt id='1966'> +2.8102074E+03 </wgt>
<wgt id='1967'> +2.8098615E+03 </wgt>
<wgt id='1968'> +2.8104471E+03 </wgt>
<wgt id='1969'> +2.8130249E+03 </wgt>
<wgt id='1970'> +2.8133809E+03 </wgt>
<wgt id='1971'> +2.8108511E+03 </wgt>
<wgt id='1972'> +2.8153505E+03 </wgt>
<wgt id='1973'> +2.8118018E+03 </wgt>
<wgt id='1974'> +2.8108950E+03 </wgt>
<wgt id='1975'> +2.8099071E+03 </wgt>
<wgt id='1976'> +2.8129998E+03 </wgt>
<wgt id='1977'> +2.8103986E+03 </wgt>
<wgt id='1978'> +2.8109164E+03 </wgt>
<wgt id='1979'> +2.8113899E+03 </wgt>
<wgt id='1980'> +2.8115900E+03 </wgt>
<wgt id='1981'> +2.8131166E+03 </wgt>
<wgt id='1982'> +2.8111581E+03 </wgt>
<wgt id='1983'> +2.8103110E+03 </wgt>
<wgt id='1984'> +2.8103988E+03 </wgt>
<wgt id='1985'> +2.8128239E+03 </wgt>
<wgt id='1986'> +2.8115816E+03 </wgt>
<wgt id='1987'> +2.8119526E+03 </wgt>
<wgt id='1988'> +2.8112295E+03 </wgt>
<wgt id='1989'> +2.8109631E+03 </wgt>
<wgt id='1990'> +2.8118135E+03 </wgt>
<wgt id='1991'> +2.8118725E+03 </wgt>
<wgt id='1992'> +2.8117447E+03 </wgt>
<wgt id='1993'> +2.8114891E+03 </wgt>
<wgt id='1994'> +2.8105094E+03 </wgt>
<wgt id='1995'> +2.8117662E+03 </wgt>
<wgt id='1996'> +2.8130953E+03 </wgt>
<wgt id='1997'> +2.8118803E+03 </wgt>
<wgt id='1998'> +2.8118242E+03 </wgt>
<wgt id='1999'> +2.8105921E+03 </wgt>
<wgt id='2000'> +2.8111004E+03 </wgt>
<wgt id='2001'> +2.8121123E+03 </wgt>
<wgt id='2002'> +2.8116799E+03 </wgt>
<wgt id='2003'> +2.8116247E+03 </wgt>
<wgt id='2004'> +2.8117007E+03 </wgt>
<wgt id='2005'> +2.8117028E+03 </wgt>
<wgt id='2006'> +2.8117210E+03 </wgt>
<wgt id='2007'> +2.8116949E+03 </wgt>
<wgt id='2008'> +2.8116479E+03 </wgt>
<wgt id='2009'> +2.7085836E+03 </wgt>
<wgt id='2010'> +2.4357985E+03 </wgt>
<wgt id='2011'> +2.7359627E+03 </wgt>
<wgt id='2012'> +2.8447154E+03 </wgt>
<wgt id='2013'> +2.7893422E+03 </wgt>
<wgt id='2014'> +2.5102826E+03 </wgt>
<wgt id='2015'> +2.6228811E+03 </wgt>
<wgt id='2016'> +2.7544675E+03 </wgt>
<wgt id='2017'> +2.7094296E+03 </wgt>
<wgt id='2018'> +2.7395718E+03 </wgt>
<wgt id='2019'> +2.6161066E+03 </wgt>
<wgt id='2020'> +2.4545047E+03 </wgt>
<wgt id='2021'> +2.7673044E+03 </wgt>
<wgt id='2022'> +2.8739529E+03 </wgt>
<wgt id='2023'> +2.7089135E+03 </wgt>
<wgt id='2024'> +2.6857073E+03 </wgt>
<wgt id='2025'> +2.6931033E+03 </wgt>
<wgt id='2026'> +2.6210011E+03 </wgt>
<wgt id='2027'> +2.6030138E+03 </wgt>
<wgt id='2028'> +2.6765380E+03 </wgt>
<wgt id='2029'> +2.8419797E+03 </wgt>
<wgt id='2030'> +2.8009331E+03 </wgt>
<wgt id='2031'> +2.6568969E+03 </wgt>
<wgt id='2032'> +2.7844210E+03 </wgt>
<wgt id='2033'> +2.8531431E+03 </wgt>
<wgt id='2034'> +2.7739963E+03 </wgt>
<wgt id='2035'> +2.6665444E+03 </wgt>
<wgt id='2036'> +2.6963793E+03 </wgt>
<wgt id='2037'> +2.7533873E+03 </wgt>
<wgt id='2038'> +2.7072308E+03 </wgt>
<wgt id='2039'> +2.8353026E+03 </wgt>
<wgt id='2040'> +2.8865499E+03 </wgt>
<wgt id='2041'> +2.5831434E+03 </wgt>
<wgt id='2042'> +2.7489603E+03 </wgt>
<wgt id='2043'> +2.7388467E+03 </wgt>
<wgt id='2044'> +2.8577571E+03 </wgt>
<wgt id='2045'> +2.7266814E+03 </wgt>
<wgt id='2046'> +2.7422108E+03 </wgt>
<wgt id='2047'> +2.5281847E+03 </wgt>
<wgt id='2048'> +2.6273676E+03 </wgt>
<wgt id='2049'> +2.7661196E+03 </wgt>
<wgt id='2050'> +2.6876736E+03 </wgt>
<wgt id='2051'> +2.6775186E+03 </wgt>
<wgt id='2052'> +2.7382481E+03 </wgt>
<wgt id='2053'> +2.6750826E+03 </wgt>
<wgt id='2054'> +2.7320370E+03 </wgt>
<wgt id='2055'> +2.6614668E+03 </wgt>
<wgt id='2056'> +2.5908620E+03 </wgt>
<wgt id='2057'> +2.6810531E+03 </wgt>
<wgt id='2058'> +2.7957305E+03 </wgt>
<wgt id='2059'> +2.7817679E+03 </wgt>
<wgt id='2060'> +2.7540337E+03 </wgt>
<wgt id='2061'> +2.7219983E+03 </wgt>
<wgt id='2062'> +2.6801616E+03 </wgt>
<wgt id='2063'> +2.7055825E+03 </wgt>
<wgt id='2064'> +2.7363624E+03 </wgt>
<wgt id='2065'> +2.6281074E+03 </wgt>
<wgt id='2066'> +2.8205823E+03 </wgt>
<wgt id='2067'> +2.7241216E+03 </wgt>
<wgt id='2068'> +2.7917164E+03 </wgt>
<wgt id='2069'> +2.7572950E+03 </wgt>
<wgt id='2070'> +2.7316880E+03 </wgt>
<wgt id='2071'> +2.7394772E+03 </wgt>
<wgt id='2072'> +2.7480054E+03 </wgt>
<wgt id='2073'> +2.5562308E+03 </wgt>
<wgt id='2074'> +2.8005004E+03 </wgt>
<wgt id='2075'> +2.7806887E+03 </wgt>
<wgt id='2076'> +2.6324770E+03 </wgt>
<wgt id='2077'> +2.7122870E+03 </wgt>
<wgt id='2078'> +2.6842281E+03 </wgt>
<wgt id='2079'> +2.7266788E+03 </wgt>
<wgt id='2080'> +2.6659097E+03 </wgt>
<wgt id='2081'> +2.6004885E+03 </wgt>
<wgt id='2082'> +2.4659535E+03 </wgt>
<wgt id='2083'> +2.7999396E+03 </wgt>
<wgt id='2084'> +2.6822546E+03 </wgt>
<wgt id='2085'> +2.5982531E+03 </wgt>
<wgt id='2086'> +2.7100481E+03 </wgt>
<wgt id='2087'> +2.6987233E+03 </wgt>
<wgt id='2088'> +2.6385463E+03 </wgt>
<wgt id='2089'> +2.7718150E+03 </wgt>
<wgt id='2090'> +2.7597398E+03 </wgt>
<wgt id='2091'> +2.8254885E+03 </wgt>
<wgt id='2092'> +2.6324250E+03 </wgt>
<wgt id='2093'> +2.7611402E+03 </wgt>
<wgt id='2094'> +2.7218178E+03 </wgt>
<wgt id='2095'> +2.6971646E+03 </wgt>
<wgt id='2096'> +2.7392872E+03 </wgt>
<wgt id='2097'> +2.6996075E+03 </wgt>
<wgt id='2098'> +2.6581582E+03 </wgt>
<wgt id='2099'> +2.7881747E+03 </wgt>
<wgt id='2100'> +2.7468756E+03 </wgt>
<wgt id='2101'> +2.7847889E+03 </wgt>
<wgt id='2102'> +2.7055424E+03 </wgt>
<wgt id='2103'> +2.6226832E+03 </wgt>
<wgt id='2104'> +2.6111002E+03 </wgt>
<wgt id='2105'> +2.6504636E+03 </wgt>
<wgt id='2106'> +2.7243225E+03 </wgt>
<wgt id='2107'> +2.8097869E+03 </wgt>
<wgt id='2108'> +2.7830046E+03 </wgt>
<wgt id='2109'> +2.6788272E+03 </wgt>
<wgt id='2110'> +2.7030027E+03 </wgt>
<wgt id='2111'> +2.7176909E+03 </wgt>
<wgt id='2112'> +2.8400706E+03 </wgt>
<wgt id='2113'> +3.4007356E+03 </wgt>
<wgt id='2114'> +3.2502404E+03 </wgt>
<wgt id='2115'> +2.6552492E+03 </wgt>
<wgt id='2116'> +2.8220496E+03 </wgt>
</rwgt>
</event>
<event>
 6      1 +2.9771057E+03 9.44856000e+01 7.54677100e-03 1.17372200e-01
       -1 -1    0    0    0  501 -0.0000000000e+00 +0.0000000000e+00 +4.0457649170e+00 4.0457649170e+00 0.0000000000e+00 0.0000e+00 1.0000e+00
        2 -1    0    0  502    0 +0.0000000000e+00 -0.0000000000e+00 -1.5768741957e+03 1.5768741957e+03 0.0000000000e+00 0.0000e+00 -1.0000e+00
       24  2    1    2    0    0 -2.3786896328e+01 +3.7154207258e+01 -1.3745187379e+03 1.3777624211e+03 8.3554034748e+01 0.0000e+00 0.0000e+00
      -11  1    3    3    0    0 +4.2848157325e+00 -2.3033921844e+01 -2.0001520381e+02 2.0138272755e+02 0.0000000000e+00 0.0000e+00 1.0000e+00
       12  1    3    3    0    0 -2.8071712061e+01 +6.0188129102e+01 -1.1745035340e+03 1.1763796935e+03 0.0000000000e+00 0.0000e+00 -1.0000e+00
       21  1    1    2  502  501 +2.3786896328e+01 -3.7154207258e+01 -1.9830969292e+02 2.0315753951e+02 0.0000000000e+00 0.0000e+00 1.0000e+00
<scales pt_clust_4="13000.00000" pt_clust_5="13000.00000" pt_clust_6="44.11634"></scales>
<mgrwt>
<rscale>  0 0.94485598E+02</rscale>
<asrwt>  1 0.44116341E+02</asrwt>
<pdfrwt beam="1">  1        2 0.24259604E+00 0.94485598E+02</pdfrwt>
<pdfrwt beam="2">  1       -1 0.62242536E-03 0.94485598E+02</pdfrwt>
<totfact> 0.68139228E+03</totfact>
</mgrwt>
<clustering>
<clus scale="   44.116">  1  6  2 -1</clus>
<clus scale="   83.554">  4  5 -1 -1</clus>
<clus scale="   94.486">  2  4  1 -1</clus>
</clustering>
<rwgt>
<wgt id='1001'> +2.9771057E+03 </wgt>
<wgt id='1002'> +3.0637158E+03 </wgt>
<wgt id='1003'> +3.0637158E+03 </wgt>
<wgt id='1004'> +2.8829619E+03 </wgt>
<wgt id='1005'> +3.1043301E+03 </wgt>
<wgt id='1006'> +2.9771057E+03 </wgt>
<wgt id='1007'> +3.0637158E+03 </wgt>
<wgt id='1008'> +3.0637158E+03 </wgt>
<wgt id='1009'> +2.8829619E+03 </wgt>
<wgt id='1010'> +3.1043301E+03 </wgt>
<wgt id='1011'> +2.9771057E+03 </wgt>
<wgt id='1012'> +3.0637158E+03 </wgt>
<wgt id='1013'> +3.0637158E+03 </wgt>
<wgt id='1014'> +2.8829619E+03 </wgt>
<wgt id='1015'> +3.1043301E+03 </wgt>
<wgt id='1016'> +3.1413741E+03 </wgt>
<wgt id='1017'> +3.2131423E+03 </wgt>
<wgt id='1018'> +3.2131423E+03 </wgt>
<wgt id='1019'> +3.0637158E+03 </wgt>
<wgt id='1020'> +3.2465658E+03 </wgt>
<wgt id='1021'> +3.1413741E+03 </wgt>
<wgt id='1022'> +3.2131423E+03 </wgt>
<wgt id='1023'> +3.2131423E+03 </wgt>
<wgt id='1024'> +3.0637158E+03 </wgt>
<wgt id='1025'> +3.2465658E+03 </wgt>
<wgt id='1026'> +3.1413741E+03 </wgt>
<wgt id='1027'> +3.2131423E+03 </wgt>
<wgt id='1028'> +3.2131423E+03 </wgt>
<wgt id='1029'> +3.0637158E+03 </wgt>
<wgt id='1030'> +3.2465658E+03 </wgt>
<wgt id='1031'> +2.7781495E+03 </wgt>
<wgt id='1032'> +2.8829619E+03 </wgt>
<wgt id='1033'> +2.8829619E+03 </wgt>
<wgt id='1034'> +2.6645986E+03 </wgt>
<wgt id='1035'> +2.9322752E+03 </wgt>
<wgt id='1036'> +2.7781495E+03 </wgt>
<wgt id='1037'> +2.8829619E+03 </wgt>
<wgt id='1038'> +2.8829619E+03 </wgt>
<wgt id='1039'> +2.6645986E+03 </wgt>
<wgt id='1040'> +2.9322752E+03 </wgt>
<wgt id='1041'> +2.7781495E+03 </wgt>
<wgt id='1042'> +2.8829619E+03 </wgt>
<wgt id='1043'> +2.8829619E+03 </wgt>
<wgt id='1044'> +2.6645986E+03 </wgt>
<wgt id='1045'> +2.9322752E+03 </wgt>
<wgt id='1046'> +2.9771057E+03 </wgt>
<wgt id='1047'> +2.9753245E+03 </wgt>
<wgt id='1048'> +2.9751947E+03 </wgt>
<wgt id='1049'> +2.9755813E+03 </wgt>
<wgt id='1050'> +2.9839063E+03 </wgt>
<wgt id='1051'> +2.9746578E+03 </wgt>
<wgt id='1052'> +2.9740971E+03 </wgt>
<wgt id='1053'> +2.9781446E+03 </wgt>
<wgt id='1054'> +2.9698024E+03 </wgt>
<wgt id='1055'> +2.9724481E+03 </wgt>
<wgt id='1056'> +2.9737401E+03 </wgt>
<wgt id='1057'> +2.9670547E+03 </wgt>
<wgt id='1058'> +2.9794620E+03 </wgt>
<wgt id='1059'> +2.9755560E+03 </wgt>
<wgt id='1060'> +2.9709544E+03 </wgt>
<wgt id='1061'> +2.9863477E+03 </wgt>
<wgt id='1062'> +2.9767444E+03 </wgt>
<wgt id='1063'> +2.9717018E+03 </wgt>
<wgt id='1064'> +2.9780660E+03 </wgt>
<wgt id='1065'> +2.9692408E+03 </wgt>
<wgt id='1066'> +2.9745754E+03 </wgt>
<wgt id='1067'> +2.9803616E+03 </wgt>
<wgt id='1068'> +2.9795974E+03 </wgt>
<wgt id='1069'> +2.9731868E+03 </wgt>
<wgt id='1070'> +2.9955417E+03 </wgt>
<wgt id='1071'> +2.9809667E+03 </wgt>
<wgt id='1072'> +2.9724732E+03 </wgt>
<wgt id='1073'> +2.9841614E+03 </wgt>
<wgt id='1074'> +2.9840971E+03 </wgt>
<wgt id='1075'> +2.9450251E+03 </wgt>
<wgt id='1076'> +2.9709461E+03 </wgt>
<wgt id='1077'> +2.9749657E+03 </wgt>
<wgt id='1078'> +2.9694004E+03 </wgt>
<wgt id='1079'> +2.9726345E+03 </wgt>
<wgt id='1080'> +2.9806527E+03 </wgt>
<wgt id='1081'> +2.9718344E+03 </wgt>
<wgt id='1082'> +2.9745118E+03 </wgt>
<wgt id='1083'> +2.9819776E+03 </wgt>
<wgt id='1084'> +2.9749259E+03 </wgt>
<wgt id='1085'> +2.9767202E+03 </wgt>
<wgt id='1086'> +2.9740899E+03 </wgt>
<wgt id='1087'> +2.9734750E+03 </wgt>
<wgt id='1088'> +2.9766475E+03 </wgt>
<wgt id='1089'> +2.9820406E+03 </wgt>
<wgt id='1090'> +2.9735612E+03 </wgt>
<wgt id='1091'> +2.9768584E+03 </wgt>
<wgt id='1092'> +2.9787674E+03 </wgt>
<wgt id='1093'> +2.9815892E+03 </wgt>
<wgt id='1094'> +2.9807091E+03 </wgt>
<wgt id='1095'> +2.9786874E+03 </wgt>
<wgt id='1096'> +2.9800325E+03 </wgt>
<wgt id='1097'> +2.9830413E+03 </wgt>
<wgt id='1098'> +2.9807965E+03 </wgt>
<wgt id='1099'> +2.9800417E+03 </wgt>
<wgt id='1100'> +2.9816783E+03 </wgt>
<wgt id='1101'> +2.9778228E+03 </wgt>
<wgt id='1102'> +2.9742314E+03 </wgt>
<wgt id='1103'> +2.9749851E+03 </wgt>
<wgt id='1104'> +2.9742403E+03 </wgt>
<wgt id='1105'> +2.9782312E+03 </wgt>
<wgt id='1106'> +2.9758201E+03 </wgt>
<wgt id='1107'> +2.9789270E+03 </wgt>
<wgt id='1108'> +2.9762515E+03 </wgt>
<wgt id='1109'> +2.9757682E+03 </wgt>
<wgt id='1110'> +2.9700612E+03 </wgt>
<wgt id='1111'> +2.9770271E+03 </wgt>
<wgt id='1112'> +2.9799772E+03 </wgt>
<wgt id='1113'> +2.9809546E+03 </wgt>
<wgt id='1114'> +2.9817895E+03 </wgt>
<wgt id='1115'> +2.9765197E+03 </wgt>
<wgt id='1116'> +2.9770347E+03 </wgt>
<wgt id='1117'> +2.9770280E+03 </wgt>
<wgt id='1118'> +2.9772789E+03 </wgt>
<wgt id='1119'> +2.9720663E+03 </wgt>
<wgt id='1120'> +2.9784517E+03 </wgt>
<wgt id='1121'> +2.9752680E+03 </wgt>
<wgt id='1122'> +2.9758890E+03 </wgt>
<wgt id='1123'> +2.9799893E+03 </wgt>
<wgt id='1124'> +2.9767049E+03 </wgt>
<wgt id='1125'> +2.9810389E+03 </wgt>
<wgt id='1126'> +2.9752278E+03 </wgt>
<wgt id='1127'> +2.9799803E+03 </wgt>
<wgt id='1128'> +2.9797298E+03 </wgt>
<wgt id='1129'> +2.9776414E+03 </wgt>
<wgt id='1130'> +2.9762578E+03 </wgt>
<wgt id='1131'> +2.9772860E+03 </wgt>
<wgt id='1132'> +2.9768158E+03 </wgt>
<wgt id='1133'> +2.9766629E+03 </wgt>
<wgt id='1134'> +2.9785535E+03 </wgt>
<wgt id='1135'> +2.9765537E+03 </wgt>
<wgt id='1136'> +2.9763472E+03 </wgt>
<wgt id='1137'> +2.9783146E+03 </wgt>
<wgt id='1138'> +2.9786246E+03 </wgt>
<wgt id='1139'> +2.9765768E+03 </wgt>
<wgt id='1140'> +2.9760761E+03 </wgt>
<wgt id='1141'> +2.9773648E+03 </wgt>
<wgt id='1142'> +2.9751763E+03 </wgt>
<wgt id='1143'> +2.9769887E+03 </wgt>
<wgt id='1144'> +2.9757609E+03 </wgt>
<wgt id='1145'> +2.9775998E+03 </wgt>
<wgt id='1146'> +2.9753364E+03 </wgt>
<wgt id='1147'> +2.9016884E+03 </wgt>
<wgt id='1148'> +3.0547536E+03 </wgt>
<wgt id='1149'> +2.6103072E+03 </wgt>
<wgt id='1150'> +2.6777836E+03 </wgt>
<wgt id='1151'> +2.7544269E+03 </wgt>
<wgt id='1152'> +2.8316791E+03 </wgt>
<wgt id='1153'> +2.9522493E+03 </wgt>
<wgt id='1154'> +3.0126206E+03 </wgt>
<wgt id='1155'> +3.1370347E+03 </wgt>
<wgt id='1156'> +3.1971426E+03 </wgt>
<wgt id='1157'> +2.8965726E+03 </wgt>
<wgt id='1158'> +2.8979165E+03 </wgt>
<wgt id='1159'> +2.8989160E+03 </wgt>
<wgt id='1160'> +2.8921352E+03 </wgt>
<wgt id='1161'> +2.9002791E+03 </wgt>
<wgt id='1162'> +2.8985264E+03 </wgt>
<wgt id='1163'> +2.8880980E+03 </wgt>
<wgt id='1164'> +2.9030885E+03 </wgt>
<wgt id='1165'> +2.9095101E+03 </wgt>
<wgt id='1166'> +2.9028947E+03 </wgt>
<wgt id='1167'> +2.8949880E+03 </wgt>
<wgt id='1168'> +2.8931966E+03 </wgt>
<wgt id='1169'> +2.8964394E+03 </wgt>
<wgt id='1170'> +2.9055897E+03 </wgt>
<wgt id='1171'> +2.8934908E+03 </wgt>
<wgt id='1172'> +2.8984636E+03 </wgt>
<wgt id='1173'> +2.9064878E+03 </wgt>
<wgt id='1174'> +2.8957137E+03 </wgt>
<wgt id='1175'> +2.8995492E+03 </wgt>
<wgt id='1176'> +2.8979532E+03 </wgt>
<wgt id='1177'> +2.8956788E+03 </wgt>
<wgt id='1178'> +2.8974673E+03 </wgt>
<wgt id='1179'> +2.8965870E+03 </wgt>
<wgt id='1180'> +2.8914359E+03 </wgt>
<wgt id='1181'> +2.9068022E+03 </wgt>
<wgt id='1182'> +2.8930858E+03 </wgt>
<wgt id='1183'> +2.8993670E+03 </wgt>
<wgt id='1184'> +2.8927062E+03 </wgt>
<wgt id='1185'> +2.9032791E+03 </wgt>
<wgt id='1186'> +2.9095448E+03 </wgt>
<wgt id='1187'> +2.8670046E+03 </wgt>
<wgt id='1188'> +2.8876821E+03 </wgt>
<wgt id='1189'> +2.9039785E+03 </wgt>
<wgt id='1190'> +2.8978302E+03 </wgt>
<wgt id='1191'> +2.8980024E+03 </wgt>
<wgt id='1192'> +2.9046776E+03 </wgt>
<wgt id='1193'> +2.9001115E+03 </wgt>
<wgt id='1194'> +2.8871703E+03 </wgt>
<wgt id='1195'> +2.8982433E+03 </wgt>
<wgt id='1196'> +2.8967103E+03 </wgt>
<wgt id='1197'> +2.8958336E+03 </wgt>
<wgt id='1198'> +2.9012774E+03 </wgt>
<wgt id='1199'> +2.8998647E+03 </wgt>
<wgt id='1200'> +2.8918731E+03 </wgt>
<wgt id='1201'> +2.8989695E+03 </wgt>
<wgt id='1202'> +2.8979064E+03 </wgt>
<wgt id='1203'> +2.8925739E+03 </wgt>
<wgt id='1204'> +2.8935147E+03 </wgt>
<wgt id='1205'> +2.9000468E+03 </wgt>
<wgt id='1206'> +2.8969757E+03 </wgt>
<wgt id='1207'> +2.8934026E+03 </wgt>
<wgt id='1208'> +2.9003273E+03 </wgt>
<wgt id='1209'> +2.9034120E+03 </wgt>
<wgt id='1210'> +2.8969241E+03 </wgt>
<wgt id='1211'> +2.8992566E+03 </wgt>
<wgt id='1212'> +2.8919969E+03 </wgt>
<wgt id='1213'> +2.9002422E+03 </wgt>
<wgt id='1214'> +2.8967714E+03 </wgt>
<wgt id='1215'> +2.8980309E+03 </wgt>
<wgt id='1216'> +2.8970574E+03 </wgt>
<wgt id='1217'> +2.8969011E+03 </wgt>
<wgt id='1218'> +2.8937758E+03 </wgt>
<wgt id='1219'> +2.8921752E+03 </wgt>
<wgt id='1220'> +2.8949511E+03 </wgt>
<wgt id='1221'> +2.8936636E+03 </wgt>
<wgt id='1222'> +2.8947532E+03 </wgt>
<wgt id='1223'> +2.8951654E+03 </wgt>
<wgt id='1224'> +2.8969713E+03 </wgt>
<wgt id='1225'> +2.8982812E+03 </wgt>
<wgt id='1226'> +2.8970415E+03 </wgt>
<wgt id='1227'> +2.8892541E+03 </wgt>
<wgt id='1228'> +2.8942120E+03 </wgt>
<wgt id='1229'> +2.8951481E+03 </wgt>
<wgt id='1230'> +2.8924789E+03 </wgt>
<wgt id='1231'> +2.8972085E+03 </wgt>
<wgt id='1232'> +2.8995652E+03 </wgt>
<wgt id='1233'> +2.8947459E+03 </wgt>
<wgt id='1234'> +2.8947992E+03 </wgt>
<wgt id='1235'> +2.8987882E+03 </wgt>
<wgt id='1236'> +2.8972481E+03 </wgt>
<wgt id='1237'> +2.8938678E+03 </wgt>
<wgt id='1238'> +2.8942377E+03 </wgt>
<wgt id='1239'> +2.8984787E+03 </wgt>
<wgt id='1240'> +2.8969986E+03 </wgt>
<wgt id='1241'> +2.8987856E+03 </wgt>
<wgt id='1242'> +2.8996128E+03 </wgt>
<wgt id='1243'> +2.8941575E+03 </wgt>
<wgt id='1244'> +2.8968193E+03 </wgt>
<wgt id='1245'> +2.8954170E+03 </wgt>
<wgt id='1246'> +2.8973958E+03 </wgt>
<wgt id='1247'> +2.8961152E+03 </wgt>
<wgt id='1248'> +2.8962121E+03 </wgt>
<wgt id='1249'> +2.8970617E+03 </wgt>
<wgt id='1250'> +2.8972134E+03 </wgt>
<wgt id='1251'> +2.8984548E+03 </wgt>
<wgt id='1252'> +2.8958809E+03 </wgt>
<wgt id='1253'> +2.8960815E+03 </wgt>
<wgt id='1254'> +2.8963031E+03 </wgt>
<wgt id='1255'> +2.8969454E+03 </wgt>
<wgt id='1256'> +2.8981561E+03 </wgt>
<wgt id='1257'> +2.8978446E+03 </wgt>
<wgt id='1258'> +2.8187378E+03 </wgt>
<wgt id='1259'> +2.9757249E+03 </wgt>
<wgt id='1260'> +2.9373514E+03 </wgt>
<wgt id='1261'> +2.9405038E+03 </wgt>
<wgt id='1262'> +2.9499802E+03 </wgt>
<wgt id='1263'> +2.9717521E+03 </wgt>
<wgt id='1264'> +2.9491490E+03 </wgt>
<wgt id='1265'> +2.9694697E+03 </wgt>
<wgt id='1266'> +2.9751388E+03 </wgt>
<wgt id='1267'> +2.9439383E+03 </wgt>
<wgt id='1268'> +2.9579693E+03 </wgt>
<wgt id='1269'> +3.0151851E+03 </wgt>
<wgt id='1270'> +2.8941711E+03 </wgt>
<wgt id='1271'> +2.9310200E+03 </wgt>
<wgt id='1272'> +2.9251151E+03 </wgt>
<wgt id='1273'> +2.9204333E+03 </wgt>
<wgt id='1274'> +2.8839706E+03 </wgt>
<wgt id='1275'> +2.9486889E+03 </wgt>
<wgt id='1276'> +2.8999557E+03 </wgt>
<wgt id='1277'> +2.9682072E+03 </wgt>
<wgt id='1278'> +2.9053884E+03 </wgt>
<wgt id='1279'> +2.9762267E+03 </wgt>
<wgt id='1280'> +2.9167867E+03 </wgt>
<wgt id='1281'> +2.9310014E+03 </wgt>
<wgt id='1282'> +2.9401294E+03 </wgt>
<wgt id='1283'> +2.9214776E+03 </wgt>
<wgt id='1284'> +2.9535090E+03 </wgt>
<wgt id='1285'> +2.8897142E+03 </wgt>
<wgt id='1286'> +2.9788928E+03 </wgt>
<wgt id='1287'> +2.9138252E+03 </wgt>
<wgt id='1288'> +2.9681870E+03 </wgt>
<wgt id='1289'> +2.8903255E+03 </wgt>
<wgt id='1290'> +2.9657236E+03 </wgt>
<wgt id='1291'> +2.9154195E+03 </wgt>
<wgt id='1292'> +2.9684705E+03 </wgt>
<wgt id='1293'> +2.9675374E+03 </wgt>
<wgt id='1294'> +2.9071766E+03 </wgt>
<wgt id='1295'> +2.9249399E+03 </wgt>
<wgt id='1296'> +2.9531127E+03 </wgt>
<wgt id='1297'> +2.9945819E+03 </wgt>
<wgt id='1298'> +2.8721190E+03 </wgt>
<wgt id='1299'> +2.9594806E+03 </wgt>
<wgt id='1300'> +2.9104610E+03 </wgt>
<wgt id='1301'> +2.9177816E+03 </wgt>
<wgt id='1302'> +2.9449502E+03 </wgt>
<wgt id='1303'> +2.9297309E+03 </wgt>
<wgt id='1304'> +2.9087257E+03 </wgt>
<wgt id='1305'> +2.9471556E+03 </wgt>
<wgt id='1306'> +2.9816594E+03 </wgt>
<wgt id='1307'> +2.9370337E+03 </wgt>
<wgt id='1308'> +2.9649506E+03 </wgt>
<wgt id='1309'> +2.8958671E+03 </wgt>
<wgt id='1310'> +2.9827199E+03 </wgt>
<wgt id='1311'> +2.9136144E+03 </wgt>
<wgt id='1312'> +2.9795549E+03 </wgt>
<wgt id='1313'> +2.9144300E+03 </wgt>
<wgt id='1314'> +2.9191455E+03 </wgt>
<wgt id='1315'> +2.8963641E+03 </wgt>
<wgt id='1316'> +2.9840881E+03 </wgt>
<wgt id='1317'> +2.8659370E+03 </wgt>
<wgt id='1318'> +3.0074361E+03 </wgt>
<wgt id='1319'> +2.8199856E+03 </wgt>
<wgt id='1320'> +2.8504820E+03 </wgt>
<wgt id='1321'> +2.7770114E+03 </wgt>
<wgt id='1322'> +2.8668540E+03 </wgt>
<wgt id='1323'> +2.8474763E+03 </wgt>
<wgt id='1324'> +2.8592371E+03 </wgt>
<wgt id='1325'> +2.7771909E+03 </wgt>
<wgt id='1326'> +2.8240556E+03 </wgt>
<wgt id='1327'> +2.8597439E+03 </wgt>
<wgt id='1328'> +2.8191196E+03 </wgt>
<wgt id='1329'> +2.7911058E+03 </wgt>
<wgt id='1330'> +2.8032687E+03 </wgt>
<wgt id='1331'> +2.8349448E+03 </wgt>
<wgt id='1332'> +2.7440350E+03 </wgt>
<wgt id='1333'> +2.8585692E+03 </wgt>
<wgt id='1334'> +2.8247639E+03 </wgt>
<wgt id='1335'> +2.8039317E+03 </wgt>
<wgt id='1336'> +2.8732892E+03 </wgt>
<wgt id='1337'> +2.7597239E+03 </wgt>
<wgt id='1338'> +2.8317036E+03 </wgt>
<wgt id='1339'> +2.8044292E+03 </wgt>
<wgt id='1340'> +2.8191389E+03 </wgt>
<wgt id='1341'> +2.8154996E+03 </wgt>
<wgt id='1342'> +2.8320438E+03 </wgt>
<wgt id='1343'> +2.8083255E+03 </wgt>
<wgt id='1344'> +2.8176927E+03 </wgt>
<wgt id='1345'> +2.8290730E+03 </wgt>
<wgt id='1346'> +2.8531730E+03 </wgt>
<wgt id='1347'> +2.7750596E+03 </wgt>
<wgt id='1348'> +2.7717201E+03 </wgt>
<wgt id='1349'> +2.8361260E+03 </wgt>
<wgt id='1350'> +2.8132006E+03 </wgt>
<wgt id='1351'> +2.8286463E+03 </wgt>
<wgt id='1352'> +2.8111992E+03 </wgt>
<wgt id='1353'> +2.8365805E+03 </wgt>
<wgt id='1354'> +2.8780009E+03 </wgt>
<wgt id='1355'> +2.7629201E+03 </wgt>
<wgt id='1356'> +2.8289184E+03 </wgt>
<wgt id='1357'> +2.8004696E+03 </wgt>
<wgt id='1358'> +2.8165710E+03 </wgt>
<wgt id='1359'> +2.8108316E+03 </wgt>
<wgt id='1360'> +2.8186264E+03 </wgt>
<wgt id='1361'> +2.8235389E+03 </wgt>
<wgt id='1362'> +2.7965417E+03 </wgt>
<wgt id='1363'> +2.8353129E+03 </wgt>
<wgt id='1364'> +2.8131034E+03 </wgt>
<wgt id='1365'> +2.8359193E+03 </wgt>
<wgt id='1366'> +2.7929839E+03 </wgt>
<wgt id='1367'> +2.8722340E+03 </wgt>
<wgt id='1368'> +2.8342051E+03 </wgt>
<wgt id='1369'> +2.8575154E+03 </wgt>
<wgt id='1370'> +2.8324193E+03 </wgt>
<wgt id='1371'> +2.8314270E+03 </wgt>
<wgt id='1372'> +2.8007924E+03 </wgt>
<wgt id='1373'> +2.7793770E+03 </wgt>
<wgt id='1374'> +2.7692723E+03 </wgt>
<wgt id='1375'> +2.8671241E+03 </wgt>
<wgt id='1376'> +2.7486069E+03 </wgt>
<wgt id='1377'> +2.8864372E+03 </wgt>
<wgt id='1378'> +2.5631993E+03 </wgt>
<wgt id='1379'> +2.8020825E+03 </wgt>
<wgt id='1380'> +2.8146646E+03 </wgt>
<wgt id='1381'> +2.7886520E+03 </wgt>
<wgt id='1382'> +2.7951922E+03 </wgt>
<wgt id='1383'> +2.8069554E+03 </wgt>
<wgt id='1384'> +2.7952676E+03 </wgt>
<wgt id='1385'> +2.8084231E+03 </wgt>
<wgt id='1386'> +2.8152398E+03 </wgt>
<wgt id='1387'> +2.7877223E+03 </wgt>
<wgt id='1388'> +2.8006196E+03 </wgt>
<wgt id='1389'> +2.8035869E+03 </wgt>
<wgt id='1390'> +2.8032467E+03 </wgt>
<wgt id='1391'> +2.7998908E+03 </wgt>
<wgt id='1392'> +2.7961837E+03 </wgt>
<wgt id='1393'> +2.8129182E+03 </wgt>
<wgt id='1394'> +2.8003202E+03 </wgt>
<wgt id='1395'> +2.8030982E+03 </wgt>
<wgt id='1396'> +2.8206884E+03 </wgt>
<wgt id='1397'> +2.7806666E+03 </wgt>
<wgt id='1398'> +2.8151006E+03 </wgt>
<wgt id='1399'> +2.7908307E+03 </wgt>
<wgt id='1400'> +2.8147020E+03 </wgt>
<wgt id='1401'> +2.7860331E+03 </wgt>
<wgt id='1402'> +2.8232991E+03 </wgt>
<wgt id='1403'> +2.7879685E+03 </wgt>
<wgt id='1404'> +2.8101071E+03 </wgt>
<wgt id='1405'> +2.7783177E+03 </wgt>
<wgt id='1406'> +2.8131074E+03 </wgt>
<wgt id='1407'> +2.8018604E+03 </wgt>
<wgt id='1408'> +2.8196640E+03 </wgt>
<wgt id='1409'> +2.7806353E+03 </wgt>
<wgt id='1410'> +2.8261487E+03 </wgt>
<wgt id='1411'> +2.7710232E+03 </wgt>
<wgt id='1412'> +2.7921383E+03 </wgt>
<wgt id='1413'> +2.8107886E+03 </wgt>
<wgt id='1414'> +2.7935182E+03 </wgt>
<wgt id='1415'> +2.8161738E+03 </wgt>
<wgt id='1416'> +2.7987950E+03 </wgt>
<wgt id='1417'> +2.8091777E+03 </wgt>
<wgt id='1418'> +2.8038967E+03 </wgt>
<wgt id='1419'> +2.7987982E+03 </wgt>
<wgt id='1420'> +2.7608742E+03 </wgt>
<wgt id='1421'> +2.8190698E+03 </wgt>
<wgt id='1422'> +2.8185114E+03 </wgt>
<wgt id='1423'> +2.7915033E+03 </wgt>
<wgt id='1424'> +2.7934354E+03 </wgt>
<wgt id='1425'> +2.8208910E+03 </wgt>
<wgt id='1426'> +2.8081978E+03 </wgt>
<wgt id='1427'> +2.8040381E+03 </wgt>
<wgt id='1428'> +2.8046461E+03 </wgt>
<wgt id='1429'> +2.8095964E+03 </wgt>
<wgt id='1430'> +2.9774805E+03 </wgt>
<wgt id='1431'> +2.9889191E+03 </wgt>
<wgt id='1432'> +2.9626876E+03 </wgt>
<wgt id='1433'> +2.9829304E+03 </wgt>
<wgt id='1434'> +2.9720038E+03 </wgt>
<wgt id='1435'> +2.9666535E+03 </wgt>
<wgt id='1436'> +2.9817261E+03 </wgt>
<wgt id='1437'> +2.9827512E+03 </wgt>
<wgt id='1438'> +2.9720042E+03 </wgt>
<wgt id='1439'> +2.9736752E+03 </wgt>
<wgt id='1440'> +2.9811229E+03 </wgt>
<wgt id='1441'> +2.9753301E+03 </wgt>
<wgt id='1442'> +2.9781326E+03 </wgt>
<wgt id='1443'> +2.9774913E+03 </wgt>
<wgt id='1444'> +2.9772909E+03 </wgt>
<wgt id='1445'> +2.9663074E+03 </wgt>
<wgt id='1446'> +2.9895641E+03 </wgt>
<wgt id='1447'> +2.9917612E+03 </wgt>
<wgt id='1448'> +2.9687543E+03 </wgt>
<wgt id='1449'> +2.9716134E+03 </wgt>
<wgt id='1450'> +2.9849554E+03 </wgt>
<wgt id='1451'> +2.9859416E+03 </wgt>
<wgt id='1452'> +2.9713652E+03 </wgt>
<wgt id='1453'> +2.9397684E+03 </wgt>
<wgt id='1454'> +3.0093298E+03 </wgt>
<wgt id='1455'> +2.9665282E+03 </wgt>
<wgt id='1456'> +3.0040887E+03 </wgt>
<wgt id='1457'> +2.9845754E+03 </wgt>
<wgt id='1458'> +2.9831931E+03 </wgt>
<wgt id='1459'> +2.9630398E+03 </wgt>
<wgt id='1460'> +3.0079016E+03 </wgt>
<wgt id='1461'> +2.9853870E+03 </wgt>
<wgt id='1462'> +2.9564377E+03 </wgt>
<wgt id='1463'> +2.9692762E+03 </wgt>
<wgt id='1464'> +2.9908007E+03 </wgt>
<wgt id='1465'> +3.0008628E+03 </wgt>
<wgt id='1466'> +2.9642242E+03 </wgt>
<wgt id='1467'> +2.9800353E+03 </wgt>
<wgt id='1468'> +2.9796413E+03 </wgt>
<wgt id='1469'> +2.9811671E+03 </wgt>
<wgt id='1470'> +2.9729519E+03 </wgt>
<wgt id='1471'> +2.9974875E+03 </wgt>
<wgt id='1472'> +2.9257899E+03 </wgt>
<wgt id='1473'> +2.9829558E+03 </wgt>
<wgt id='1474'> +2.9687821E+03 </wgt>
<wgt id='1475'> +2.9725125E+03 </wgt>
<wgt id='1476'> +2.9907897E+03 </wgt>
<wgt id='1477'> +2.9960613E+03 </wgt>
<wgt id='1478'> +2.9707647E+03 </wgt>
<wgt id='1479'> +2.9866435E+03 </wgt>
<wgt id='1480'> +2.9823598E+03 </wgt>
<wgt id='1481'> +3.0388677E+03 </wgt>
<wgt id='1482'> +2.8919095E+03 </wgt>
<wgt id='1483'> +2.8913185E+03 </wgt>
<wgt id='1484'> +2.8922624E+03 </wgt>
<wgt id='1485'> +2.8900435E+03 </wgt>
<wgt id='1486'> +2.8919294E+03 </wgt>
<wgt id='1487'> +2.8921488E+03 </wgt>
<wgt id='1488'> +2.8843306E+03 </wgt>
<wgt id='1489'> +2.8903953E+03 </wgt>
<wgt id='1490'> +2.8840521E+03 </wgt>
<wgt id='1491'> +2.8839256E+03 </wgt>
<wgt id='1492'> +2.8998205E+03 </wgt>
<wgt id='1493'> +2.8904447E+03 </wgt>
<wgt id='1494'> +2.8910371E+03 </wgt>
<wgt id='1495'> +2.8927196E+03 </wgt>
<wgt id='1496'> +2.8897536E+03 </wgt>
<wgt id='1497'> +2.8921220E+03 </wgt>
<wgt id='1498'> +2.8875269E+03 </wgt>
<wgt id='1499'> +2.8885408E+03 </wgt>
<wgt id='1500'> +2.8944859E+03 </wgt>
<wgt id='1501'> +2.8973904E+03 </wgt>
<wgt id='1502'> +2.8815430E+03 </wgt>
<wgt id='1503'> +2.8848683E+03 </wgt>
<wgt id='1504'> +2.8881609E+03 </wgt>
<wgt id='1505'> +2.8994106E+03 </wgt>
<wgt id='1506'> +2.8985019E+03 </wgt>
<wgt id='1507'> +2.8997017E+03 </wgt>
<wgt id='1508'> +2.8935898E+03 </wgt>
<wgt id='1509'> +2.8943571E+03 </wgt>
<wgt id='1510'> +2.8914174E+03 </wgt>
<wgt id='1511'> +2.8699674E+03 </wgt>
<wgt id='1512'> +2.8230056E+03 </wgt>
<wgt id='1513'> +2.8207372E+03 </wgt>
<wgt id='1514'> +2.8066410E+03 </wgt>
<wgt id='1515'> +2.8444745E+03 </wgt>
<wgt id='1516'> +2.8173613E+03 </wgt>
<wgt id='1517'> +2.8323816E+03 </wgt>
<wgt id='1518'> +2.8082395E+03 </wgt>
<wgt id='1519'> +2.8262882E+03 </wgt>
<wgt id='1520'> +2.8320365E+03 </wgt>
<wgt id='1521'> +2.8427400E+03 </wgt>
<wgt id='1522'> +2.8407872E+03 </wgt>
<wgt id='1523'> +2.8078348E+03 </wgt>
<wgt id='1524'> +2.8059129E+03 </wgt>
<wgt id='1525'> +2.8007215E+03 </wgt>
<wgt id='1526'> +2.8151886E+03 </wgt>
<wgt id='1527'> +2.8110755E+03 </wgt>
<wgt id='1528'> +2.8145004E+03 </wgt>
<wgt id='1529'> +2.8155895E+03 </wgt>
<wgt id='1530'> +2.8488521E+03 </wgt>
<wgt id='1531'> +2.8147597E+03 </wgt>
<wgt id='1532'> +2.8335975E+03 </wgt>
<wgt id='1533'> +2.8335977E+03 </wgt>
<wgt id='1534'> +2.8238288E+03 </wgt>
<wgt id='1535'> +2.8356248E+03 </wgt>
<wgt id='1536'> +2.8168816E+03 </wgt>
<wgt id='1537'> +2.8398964E+03 </wgt>
<wgt id='1538'> +2.8227217E+03 </wgt>
<wgt id='1539'> +2.8152684E+03 </wgt>
<wgt id='1540'> +2.8391921E+03 </wgt>
<wgt id='1541'> +2.8214279E+03 </wgt>
<wgt id='1542'> +2.8157733E+03 </wgt>
<wgt id='1543'> +2.8239206E+03 </wgt>
<wgt id='1544'> +2.8194716E+03 </wgt>
<wgt id='1545'> +2.8189968E+03 </wgt>
<wgt id='1546'> +2.8222977E+03 </wgt>
<wgt id='1547'> +2.8289906E+03 </wgt>
<wgt id='1548'> +2.8214869E+03 </wgt>
<wgt id='1549'> +2.8216052E+03 </wgt>
<wgt id='1550'> +2.8235109E+03 </wgt>
<wgt id='1551'> +2.8254358E+03 </wgt>
<wgt id='1552'> +2.8271480E+03 </wgt>
<wgt id='1553'> +2.8270380E+03 </wgt>
<wgt id='1554'> +2.8312984E+03 </wgt>
<wgt id='1555'> +2.8194559E+03 </wgt>
<wgt id='1556'> +2.8255330E+03 </wgt>
<wgt id='1557'> +2.8266566E+03 </wgt>
<wgt id='1558'> +2.8250294E+03 </wgt>
<wgt id='1559'> +2.8217282E+03 </wgt>
<wgt id='1560'> +2.8164878E+03 </wgt>
<wgt id='1561'> +2.8244800E+03 </wgt>
<wgt id='1562'> +2.8212218E+03 </wgt>
<wgt id='1563'> +2.8226862E+03 </wgt>
<wgt id='1564'> +2.8217956E+03 </wgt>
<wgt id='1565'> +2.8166203E+03 </wgt>
<wgt id='1566'> +2.8222884E+03 </wgt>
<wgt id='1567'> +2.8216398E+03 </wgt>
<wgt id='1568'> +2.8196223E+03 </wgt>
<wgt id='1569'> +2.8245100E+03 </wgt>
<wgt id='1570'> +2.8217776E+03 </wgt>
<wgt id='1571'> +2.8202768E+03 </wgt>
<wgt id='1572'> +2.8243907E+03 </wgt>
<wgt id='1573'> +2.8256174E+03 </wgt>
<wgt id='1574'> +2.8212891E+03 </wgt>
<wgt id='1575'> +2.8230441E+03 </wgt>
<wgt id='1576'> +2.8220166E+03 </wgt>
<wgt id='1577'> +2.8237989E+03 </wgt>
<wgt id='1578'> +2.8242819E+03 </wgt>
<wgt id='1579'> +2.8234354E+03 </wgt>
<wgt id='1580'> +2.8248683E+03 </wgt>
<wgt id='1581'> +2.8227417E+03 </wgt>
<wgt id='1582'> +2.8232251E+03 </wgt>
<wgt id='1583'> +2.8216968E+03 </wgt>
<wgt id='1584'> +2.8213275E+03 </wgt>
<wgt id='1585'> +2.8228356E+03 </wgt>
<wgt id='1586'> +2.8250655E+03 </wgt>
<wgt id='1587'> +2.8221175E+03 </wgt>
<wgt id='1588'> +2.8222419E+03 </wgt>
<wgt id='1589'> +2.8230887E+03 </wgt>
<wgt id='1590'> +2.8234359E+03 </wgt>
<wgt id='1591'> +2.8226023E+03 </wgt>
<wgt id='1592'> +2.8238425E+03 </wgt>
<wgt id='1593'> +2.8240704E+03 </wgt>
<wgt id='1594'> +2.8225417E+03 </wgt>
<wgt id='1595'> +2.8244044E+03 </wgt>
<wgt id='1596'> +2.8228890E+03 </wgt>
<wgt id='1597'> +2.8237881E+03 </wgt>
<wgt id='1598'> +2.8238852E+03 </wgt>
<wgt id='1599'> +2.8231344E+03 </wgt>
<wgt id='1600'> +2.8240750E+03 </wgt>
<wgt id='1601'> +2.8224270E+03 </wgt>
<wgt id='1602'> +2.8237378E+03 </wgt>
<wgt id='1603'> +2.8228545E+03 </wgt>
<wgt id='1604'> +2.8230472E+03 </wgt>
<wgt id='1605'> +2.8236090E+03 </wgt>
<wgt id='1606'> +2.8222150E+03 </wgt>
<wgt id='1607'> +2.8234977E+03 </wgt>
<wgt id='1608'> +2.8222911E+03 </wgt>
<wgt id='1609'> +2.8229354E+03 </wgt>
<wgt id='1610'> +2.8230149E+03 </wgt>
<wgt id='1611'> +2.8229270E+03 </wgt>
<wgt id='1612'> +2.8225987E+03 </wgt>
<wgt id='1613'> +2.7645209E+03 </wgt>
<wgt id='1614'> +2.8804967E+03 </wgt>
<wgt id='1615'> +2.9625475E+03 </wgt>
<wgt id='1616'> +2.9705549E+03 </wgt>
<wgt id='1617'> +2.9620091E+03 </wgt>
<wgt id='1618'> +2.9614802E+03 </wgt>
<wgt id='1619'> +2.9711066E+03 </wgt>
<wgt id='1620'> +2.9757023E+03 </wgt>
<wgt id='1621'> +2.9825765E+03 </wgt>
<wgt id='1622'> +2.9807831E+03 </wgt>
<wgt id='1623'> +2.9673407E+03 </wgt>
<wgt id='1624'> +2.9416493E+03 </wgt>
<wgt id='1625'> +2.9687284E+03 </wgt>
<wgt id='1626'> +2.9827607E+03 </wgt>
<wgt id='1627'> +2.9605216E+03 </wgt>
<wgt id='1628'> +2.9613442E+03 </wgt>
<wgt id='1629'> +2.9436462E+03 </wgt>
<wgt id='1630'> +3.0129634E+03 </wgt>
<wgt id='1631'> +2.9560012E+03 </wgt>
<wgt id='1632'> +2.9675981E+03 </wgt>
<wgt id='1633'> +2.9621284E+03 </wgt>
<wgt id='1634'> +2.9473475E+03 </wgt>
<wgt id='1635'> +2.9692089E+03 </wgt>
<wgt id='1636'> +2.9703868E+03 </wgt>
<wgt id='1637'> +2.9471624E+03 </wgt>
<wgt id='1638'> +2.9787086E+03 </wgt>
<wgt id='1639'> +2.9675018E+03 </wgt>
<wgt id='1640'> +2.9566741E+03 </wgt>
<wgt id='1641'> +2.9582451E+03 </wgt>
<wgt id='1642'> +2.9666690E+03 </wgt>
<wgt id='1643'> +2.9568692E+03 </wgt>
<wgt id='1644'> +2.9555680E+03 </wgt>
<wgt id='1645'> +2.9635912E+03 </wgt>
<wgt id='1646'> +2.9682033E+03 </wgt>
<wgt id='1647'> +2.9696555E+03 </wgt>
<wgt id='1648'> +2.9715698E+03 </wgt>
<wgt id='1649'> +2.9702322E+03 </wgt>
<wgt id='1650'> +2.9494503E+03 </wgt>
<wgt id='1651'> +2.9654201E+03 </wgt>
<wgt id='1652'> +2.9629636E+03 </wgt>
<wgt id='1653'> +2.9683010E+03 </wgt>
<wgt id='1654'> +2.9561278E+03 </wgt>
<wgt id='1655'> +2.9589582E+03 </wgt>
<wgt id='1656'> +2.9624464E+03 </wgt>
<wgt id='1657'> +2.9617012E+03 </wgt>
<wgt id='1658'> +2.9567568E+03 </wgt>
<wgt id='1659'> +2.9659406E+03 </wgt>
<wgt id='1660'> +2.9656460E+03 </wgt>
<wgt id='1661'> +2.9608858E+03 </wgt>
<wgt id='1662'> +2.9575740E+03 </wgt>
<wgt id='1663'> +2.9647458E+03 </wgt>
<wgt id='1664'> +2.9590727E+03 </wgt>
<wgt id='1665'> +2.9655598E+03 </wgt>
<wgt id='1666'> +2.9680074E+03 </wgt>
<wgt id='1667'> +2.9678149E+03 </wgt>
<wgt id='1668'> +2.9607932E+03 </wgt>
<wgt id='1669'> +2.9613588E+03 </wgt>
<wgt id='1670'> +2.9625807E+03 </wgt>
<wgt id='1671'> +2.9644121E+03 </wgt>
<wgt id='1672'> +2.9623893E+03 </wgt>
<wgt id='1673'> +2.9585998E+03 </wgt>
<wgt id='1674'> +2.9609411E+03 </wgt>
<wgt id='1675'> +2.9638922E+03 </wgt>
<wgt id='1676'> +2.9595832E+03 </wgt>
<wgt id='1677'> +2.9634084E+03 </wgt>
<wgt id='1678'> +2.9623933E+03 </wgt>
<wgt id='1679'> +2.9650958E+03 </wgt>
<wgt id='1680'> +2.9626500E+03 </wgt>
<wgt id='1681'> +2.9613891E+03 </wgt>
<wgt id='1682'> +2.9631716E+03 </wgt>
<wgt id='1683'> +2.9616795E+03 </wgt>
<wgt id='1684'> +2.9637854E+03 </wgt>
<wgt id='1685'> +2.9609404E+03 </wgt>
<wgt id='1686'> +2.9628222E+03 </wgt>
<wgt id='1687'> +2.9664363E+03 </wgt>
<wgt id='1688'> +2.9616349E+03 </wgt>
<wgt id='1689'> +2.9636850E+03 </wgt>
<wgt id='1690'> +2.9623257E+03 </wgt>
<wgt id='1691'> +2.9625690E+03 </wgt>
<wgt id='1692'> +2.9628846E+03 </wgt>
<wgt id='1693'> +2.9634978E+03 </wgt>
<wgt id='1694'> +2.9617029E+03 </wgt>
<wgt id='1695'> +2.9636499E+03 </wgt>
<wgt id='1696'> +2.9634613E+03 </wgt>
<wgt id='1697'> +2.9627373E+03 </wgt>
<wgt id='1698'> +2.9607833E+03 </wgt>
<wgt id='1699'> +2.9629891E+03 </wgt>
<wgt id='1700'> +2.9628574E+03 </wgt>
<wgt id='1701'> +2.9631175E+03 </wgt>
<wgt id='1702'> +2.9629137E+03 </wgt>
<wgt id='1703'> +2.9613085E+03 </wgt>
<wgt id='1704'> +2.9626565E+03 </wgt>
<wgt id='1705'> +2.9623485E+03 </wgt>
<wgt id='1706'> +2.9624078E+03 </wgt>
<wgt id='1707'> +2.9626169E+03 </wgt>
<wgt id='1708'> +2.9621409E+03 </wgt>
<wgt id='1709'> +2.9635065E+03 </wgt>
<wgt id='1710'> +2.9627743E+03 </wgt>
<wgt id='1711'> +2.9622898E+03 </wgt>
<wgt id='1712'> +2.9630104E+03 </wgt>
<wgt id='1713'> +2.9622286E+03 </wgt>
<wgt id='1714'> +2.9623791E+03 </wgt>
<wgt id='1715'> +2.9619438E+03 </wgt>
<wgt id='1716'> +2.8957850E+03 </wgt>
<wgt id='1717'> +3.0157907E+03 </wgt>
<wgt id='1718'> +2.8231174E+03 </wgt>
<wgt id='1719'> +2.8239670E+03 </wgt>
<wgt id='1720'> +2.8041118E+03 </wgt>
<wgt id='1721'> +2.8223568E+03 </wgt>
<wgt id='1722'> +2.8330429E+03 </wgt>
<wgt id='1723'> +2.8334619E+03 </wgt>
<wgt id='1724'> +2.8436439E+03 </wgt>
<wgt id='1725'> +2.8204707E+03 </wgt>
<wgt id='1726'> +2.8327359E+03 </wgt>
<wgt id='1727'> +2.8471597E+03 </wgt>
<wgt id='1728'> +2.8284766E+03 </wgt>
<wgt id='1729'> +2.8065054E+03 </wgt>
<wgt id='1730'> +2.8448435E+03 </wgt>
<wgt id='1731'> +2.8256735E+03 </wgt>
<wgt id='1732'> +2.7901031E+03 </wgt>
<wgt id='1733'> +2.8282920E+03 </wgt>
<wgt id='1734'> +2.8220512E+03 </wgt>
<wgt id='1735'> +2.8027657E+03 </wgt>
<wgt id='1736'> +2.8215171E+03 </wgt>
<wgt id='1737'> +2.8300924E+03 </wgt>
<wgt id='1738'> +2.8281298E+03 </wgt>
<wgt id='1739'> +2.8200633E+03 </wgt>
<wgt id='1740'> +2.8179317E+03 </wgt>
<wgt id='1741'> +2.8225771E+03 </wgt>
<wgt id='1742'> +2.8134853E+03 </wgt>
<wgt id='1743'> +2.8288873E+03 </wgt>
<wgt id='1744'> +2.8155122E+03 </wgt>
<wgt id='1745'> +2.8274994E+03 </wgt>
<wgt id='1746'> +2.8250532E+03 </wgt>
<wgt id='1747'> +2.8377001E+03 </wgt>
<wgt id='1748'> +2.8246307E+03 </wgt>
<wgt id='1749'> +2.7645209E+03 </wgt>
<wgt id='1750'> +2.8804967E+03 </wgt>
<wgt id='1751'> +2.9625153E+03 </wgt>
<wgt id='1752'> +2.9776194E+03 </wgt>
<wgt id='1753'> +3.0219266E+03 </wgt>
<wgt id='1754'> +2.9586314E+03 </wgt>
<wgt id='1755'> +2.9483751E+03 </wgt>
<wgt id='1756'> +2.9389752E+03 </wgt>
<wgt id='1757'> +2.9615333E+03 </wgt>
<wgt id='1758'> +2.9593205E+03 </wgt>
<wgt id='1759'> +2.9561651E+03 </wgt>
<wgt id='1760'> +2.9512749E+03 </wgt>
<wgt id='1761'> +2.9820734E+03 </wgt>
<wgt id='1762'> +2.9635314E+03 </wgt>
<wgt id='1763'> +2.9634500E+03 </wgt>
<wgt id='1764'> +2.9524045E+03 </wgt>
<wgt id='1765'> +2.9634451E+03 </wgt>
<wgt id='1766'> +2.9562362E+03 </wgt>
<wgt id='1767'> +2.9603716E+03 </wgt>
<wgt id='1768'> +2.9384048E+03 </wgt>
<wgt id='1769'> +2.9622466E+03 </wgt>
<wgt id='1770'> +2.9654531E+03 </wgt>
<wgt id='1771'> +2.9563578E+03 </wgt>
<wgt id='1772'> +2.9543407E+03 </wgt>
<wgt id='1773'> +2.9655661E+03 </wgt>
<wgt id='1774'> +2.9590270E+03 </wgt>
<wgt id='1775'> +2.9667084E+03 </wgt>
<wgt id='1776'> +2.9563403E+03 </wgt>
<wgt id='1777'> +2.9657633E+03 </wgt>
<wgt id='1778'> +2.9640449E+03 </wgt>
<wgt id='1779'> +2.9661725E+03 </wgt>
<wgt id='1780'> +2.9646475E+03 </wgt>
<wgt id='1781'> +2.9682021E+03 </wgt>
<wgt id='1782'> +2.8957850E+03 </wgt>
<wgt id='1783'> +3.0157907E+03 </wgt>
<wgt id='1784'> +3.2141871E+03 </wgt>
<wgt id='1785'> +3.2174091E+03 </wgt>
<wgt id='1786'> +3.2109904E+03 </wgt>
<wgt id='1787'> +3.2159783E+03 </wgt>
<wgt id='1788'> +3.2123874E+03 </wgt>
<wgt id='1789'> +3.2053522E+03 </wgt>
<wgt id='1790'> +3.2229997E+03 </wgt>
<wgt id='1791'> +3.2108459E+03 </wgt>
<wgt id='1792'> +3.2172317E+03 </wgt>
<wgt id='1793'> +3.2386734E+03 </wgt>
<wgt id='1794'> +3.1897641E+03 </wgt>
<wgt id='1795'> +3.2182182E+03 </wgt>
<wgt id='1796'> +3.2074597E+03 </wgt>
<wgt id='1797'> +3.2112316E+03 </wgt>
<wgt id='1798'> +3.2168271E+03 </wgt>
<wgt id='1799'> +3.2095096E+03 </wgt>
<wgt id='1800'> +3.2269086E+03 </wgt>
<wgt id='1801'> +3.2032773E+03 </wgt>
<wgt id='1802'> +3.2181734E+03 </wgt>
<wgt id='1803'> +3.2059665E+03 </wgt>
<wgt id='1804'> +3.2252564E+03 </wgt>
<wgt id='1805'> +3.2160627E+03 </wgt>
<wgt id='1806'> +3.2105932E+03 </wgt>
<wgt id='1807'> +3.1861481E+03 </wgt>
<wgt id='1808'> +3.2318052E+03 </wgt>
<wgt id='1809'> +3.2143012E+03 </wgt>
<wgt id='1810'> +3.2099266E+03 </wgt>
<wgt id='1811'> +3.1952911E+03 </wgt>
<wgt id='1812'> +3.2297666E+03 </wgt>
<wgt id='1813'> +3.2141871E+03 </wgt>
<wgt id='1814'> +3.2283172E+03 </wgt>
<wgt id='1815'> +3.1935133E+03 </wgt>
<wgt id='1816'> +3.2315431E+03 </wgt>
<wgt id='1817'> +3.2038884E+03 </wgt>
<wgt id='1818'> +3.2359353E+03 </wgt>
<wgt id='1819'> +3.2033902E+03 </wgt>
<wgt id='1820'> +3.2101458E+03 </wgt>
<wgt id='1821'> +3.2187418E+03 </wgt>
<wgt id='1822'> +3.1912670E+03 </wgt>
<wgt id='1823'> +3.2382714E+03 </wgt>
<wgt id='1824'> +3.2058104E+03 </wgt>
<wgt id='1825'> +3.2432652E+03 </wgt>
<wgt id='1826'> +3.2528811E+03 </wgt>
<wgt id='1827'> +3.3301886E+03 </wgt>
<wgt id='1828'> +3.3349167E+03 </wgt>
<wgt id='1829'> +3.3268173E+03 </wgt>
<wgt id='1830'> +3.3347747E+03 </wgt>
<wgt id='1831'> +3.3269234E+03 </wgt>
<wgt id='1832'> +3.3228201E+03 </wgt>
<wgt id='1833'> +3.3388676E+03 </wgt>
<wgt id='1834'> +3.3190458E+03 </wgt>
<wgt id='1835'> +3.3421134E+03 </wgt>
<wgt id='1836'> +3.3506036E+03 </wgt>
<wgt id='1837'> +3.3106870E+03 </wgt>
<wgt id='1838'> +3.3442818E+03 </wgt>
<wgt id='1839'> +3.3173564E+03 </wgt>
<wgt id='1840'> +3.3243861E+03 </wgt>
<wgt id='1841'> +3.3376575E+03 </wgt>
<wgt id='1842'> +3.3320139E+03 </wgt>
<wgt id='1843'> +3.3411316E+03 </wgt>
<wgt id='1844'> +3.3370082E+03 </wgt>
<wgt id='1845'> +3.3240415E+03 </wgt>
<wgt id='1846'> +3.3266646E+03 </wgt>
<wgt id='1847'> +3.3346796E+03 </wgt>
<wgt id='1848'> +3.3107814E+03 </wgt>
<wgt id='1849'> +3.3484750E+03 </wgt>
<wgt id='1850'> +3.3278645E+03 </wgt>
<wgt id='1851'> +3.3275363E+03 </wgt>
<wgt id='1852'> +3.3326712E+03 </wgt>
<wgt id='1853'> +3.3169662E+03 </wgt>
<wgt id='1854'> +3.3219698E+03 </wgt>
<wgt id='1855'> +3.3349742E+03 </wgt>
<wgt id='1856'> +3.3292722E+03 </wgt>
<wgt id='1857'> +3.3553742E+03 </wgt>
<wgt id='1858'> +3.2918228E+03 </wgt>
<wgt id='1859'> +3.3625658E+03 </wgt>
<wgt id='1860'> +3.3093820E+03 </wgt>
<wgt id='1861'> +3.3402501E+03 </wgt>
<wgt id='1862'> +3.3098923E+03 </wgt>
<wgt id='1863'> +3.3245435E+03 </wgt>
<wgt id='1864'> +3.3371842E+03 </wgt>
<wgt id='1865'> +3.2802313E+03 </wgt>
<wgt id='1866'> +3.3593620E+03 </wgt>
<wgt id='1867'> +3.2923594E+03 </wgt>
<wgt id='1868'> +3.3712061E+03 </wgt>
<wgt id='1869'> +3.3109842E+03 </wgt>
<wgt id='1870'> +2.7859434E+03 </wgt>
<wgt id='1871'> +2.7854168E+03 </wgt>
<wgt id='1872'> +2.7848940E+03 </wgt>
<wgt id='1873'> +2.7843615E+03 </wgt>
<wgt id='1874'> +2.7838274E+03 </wgt>
<wgt id='1875'> +2.7833074E+03 </wgt>
<wgt id='1876'> +2.7827729E+03 </wgt>
<wgt id='1877'> +2.7822494E+03 </wgt>
<wgt id='1878'> +2.7817142E+03 </wgt>
<wgt id='1879'> +2.7811950E+03 </wgt>
<wgt id='1880'> +2.7806625E+03 </wgt>
<wgt id='1881'> +2.7801298E+03 </wgt>
<wgt id='1882'> +2.7796073E+03 </wgt>
<wgt id='1883'> +2.7790814E+03 </wgt>
<wgt id='1884'> +2.7785493E+03 </wgt>
<wgt id='1885'> +2.7780259E+03 </wgt>
<wgt id='1886'> +2.7774877E+03 </wgt>
<wgt id='1887'> +2.7769673E+03 </wgt>
<wgt id='1888'> +2.7764430E+03 </wgt>
<wgt id='1889'> +2.7759104E+03 </wgt>
<wgt id='1890'> +2.7753887E+03 </wgt>
<wgt id='1891'> +2.7748555E+03 </wgt>
<wgt id='1892'> +2.7743281E+03 </wgt>
<wgt id='1893'> +2.7738016E+03 </wgt>
<wgt id='1894'> +2.7732722E+03 </wgt>
<wgt id='1895'> +2.7727456E+03 </wgt>
<wgt id='1896'> +2.7722181E+03 </wgt>
<wgt id='1897'> +2.7716823E+03 </wgt>
<wgt id='1898'> +2.7711556E+03 </wgt>
<wgt id='1899'> +2.7706376E+03 </wgt>
<wgt id='1900'> +2.7701010E+03 </wgt>
<wgt id='1901'> +2.9414391E+03 </wgt>
<wgt id='1902'> +2.9488361E+03 </wgt>
<wgt id='1903'> +2.9407517E+03 </wgt>
<wgt id='1904'> +2.9404245E+03 </wgt>
<wgt id='1905'> +2.9498520E+03 </wgt>
<wgt id='1906'> +2.9545626E+03 </wgt>
<wgt id='1907'> +2.9617771E+03 </wgt>
<wgt id='1908'> +2.9599189E+03 </wgt>
<wgt id='1909'> +2.9462063E+03 </wgt>
<wgt id='1910'> +2.9207088E+03 </wgt>
<wgt id='1911'> +2.9474875E+03 </wgt>
<wgt id='1912'> +2.9621118E+03 </wgt>
<wgt id='1913'> +2.9397589E+03 </wgt>
<wgt id='1914'> +2.9405246E+03 </wgt>
<wgt id='1915'> +2.9225682E+03 </wgt>
<wgt id='1916'> +2.9908337E+03 </wgt>
<wgt id='1917'> +2.9355005E+03 </wgt>
<wgt id='1918'> +2.9462110E+03 </wgt>
<wgt id='1919'> +2.9408864E+03 </wgt>
<wgt id='1920'> +2.9267081E+03 </wgt>
<wgt id='1921'> +2.9485129E+03 </wgt>
<wgt id='1922'> +2.9489538E+03 </wgt>
<wgt id='1923'> +2.9260569E+03 </wgt>
<wgt id='1924'> +2.9576483E+03 </wgt>
<wgt id='1925'> +2.9460856E+03 </wgt>
<wgt id='1926'> +2.9351812E+03 </wgt>
<wgt id='1927'> +2.9367433E+03 </wgt>
<wgt id='1928'> +2.9460012E+03 </wgt>
<wgt id='1929'> +2.9359863E+03 </wgt>
<wgt id='1930'> +2.9342808E+03 </wgt>
<wgt id='1931'> +2.9422769E+03 </wgt>
<wgt id='1932'> +2.9475439E+03 </wgt>
<wgt id='1933'> +2.9483403E+03 </wgt>
<wgt id='1934'> +2.9502461E+03 </wgt>
<wgt id='1935'> +2.9490783E+03 </wgt>
<wgt id='1936'> +2.9282992E+03 </wgt>
<wgt id='1937'> +2.9443104E+03 </wgt>
<wgt id='1938'> +2.9418738E+03 </wgt>
<wgt id='1939'> +2.9470943E+03 </wgt>
<wgt id='1940'> +2.9348818E+03 </wgt>
<wgt id='1941'> +2.9378755E+03 </wgt>
<wgt id='1942'> +2.9412436E+03 </wgt>
<wgt id='1943'> +2.9405101E+03 </wgt>
<wgt id='1944'> +2.9359383E+03 </wgt>
<wgt id='1945'> +2.9447510E+03 </wgt>
<wgt id='1946'> +2.9444804E+03 </wgt>
<wgt id='1947'> +2.9399100E+03 </wgt>
<wgt id='1948'> +2.9364299E+03 </wgt>
<wgt id='1949'> +2.9436999E+03 </wgt>
<wgt id='1950'> +2.9379607E+03 </wgt>
<wgt id='1951'> +2.9444566E+03 </wgt>
<wgt id='1952'> +2.9468248E+03 </wgt>
<wgt id='1953'> +2.9466745E+03 </wgt>
<wgt id='1954'> +2.9397393E+03 </wgt>
<wgt id='1955'> +2.9403395E+03 </wgt>
<wgt id='1956'> +2.9415423E+03 </wgt>
<wgt id='1957'> +2.9431255E+03 </wgt>
<wgt id='1958'> +2.9412765E+03 </wgt>
<wgt id='1959'> +2.9376831E+03 </wgt>
<wgt id='1960'> +2.9399118E+03 </wgt>
<wgt id='1961'> +2.9428512E+03 </wgt>
<wgt id='1962'> +2.9385276E+03 </wgt>
<wgt id='1963'> +2.9422499E+03 </wgt>
<wgt id='1964'> +2.9412255E+03 </wgt>
<wgt id='1965'> +2.9440422E+03 </wgt>
<wgt id='1966'> +2.9414863E+03 </wgt>
<wgt id='1967'> +2.9402689E+03 </wgt>
<wgt id='1968'> +2.9419695E+03 </wgt>
<wgt id='1969'> +2.9406100E+03 </wgt>
<wgt id='1970'> +2.9426087E+03 </wgt>
<wgt id='1971'> +2.9398140E+03 </wgt>
<wgt id='1972'> +2.9417582E+03 </wgt>
<wgt id='1973'> +2.9452493E+03 </wgt>
<wgt id='1974'> +2.9404814E+03 </wgt>
<wgt id='1975'> +2.9425746E+03 </wgt>
<wgt id='1976'> +2.9412366E+03 </wgt>
<wgt id='1977'> +2.9415628E+03 </wgt>
<wgt id='1978'> +2.9417935E+03 </wgt>
<wgt id='1979'> +2.9424533E+03 </wgt>
<wgt id='1980'> +2.9405968E+03 </wgt>
<wgt id='1981'> +2.9424426E+03 </wgt>
<wgt id='1982'> +2.9424261E+03 </wgt>
<wgt id='1983'> +2.9416531E+03 </wgt>
<wgt id='1984'> +2.9396894E+03 </wgt>
<wgt id='1985'> +2.9418464E+03 </wgt>
<wgt id='1986'> +2.9417722E+03 </wgt>
<wgt id='1987'> +2.9421122E+03 </wgt>
<wgt id='1988'> +2.9417668E+03 </wgt>
<wgt id='1989'> +2.9401567E+03 </wgt>
<wgt id='1990'> +2.9414977E+03 </wgt>
<wgt id='1991'> +2.9412143E+03 </wgt>
<wgt id='1992'> +2.9412388E+03 </wgt>
<wgt id='1993'> +2.9414472E+03 </wgt>
<wgt id='1994'> +2.9410419E+03 </wgt>
<wgt id='1995'> +2.9423141E+03 </wgt>
<wgt id='1996'> +2.9416706E+03 </wgt>
<wgt id='1997'> +2.9412049E+03 </wgt>
<wgt id='1998'> +2.9419022E+03 </wgt>
<wgt id='1999'> +2.9411084E+03 </wgt>
<wgt id='2000'> +2.9413130E+03 </wgt>
<wgt id='2001'> +2.9408579E+03 </wgt>
<wgt id='2002'> +2.9414307E+03 </wgt>
<wgt id='2003'> +2.9413831E+03 </wgt>
<wgt id='2004'> +2.9414480E+03 </wgt>
<wgt id='2005'> +2.9414494E+03 </wgt>
<wgt id='2006'> +2.9414651E+03 </wgt>
<wgt id='2007'> +2.9414429E+03 </wgt>
<wgt id='2008'> +2.9414021E+03 </wgt>
<wgt id='2009'> +2.8462795E+03 </wgt>
<wgt id='2010'> +2.7372108E+03 </wgt>
<wgt id='2011'> +2.8479072E+03 </wgt>
<wgt id='2012'> +2.9447867E+03 </wgt>
<wgt id='2013'> +2.9463324E+03 </wgt>
<wgt id='2014'> +2.6040664E+03 </wgt>
<wgt id='2015'> +2.7456858E+03 </wgt>
<wgt id='2016'> +2.8600002E+03 </wgt>
<wgt id='2017'> +2.8172583E+03 </wgt>
<wgt id='2018'> +2.8391732E+03 </wgt>
<wgt id='2019'> +2.8783192E+03 </wgt>
<wgt id='2020'> +2.7656291E+03 </wgt>
<wgt id='2021'> +2.7712057E+03 </wgt>
<wgt id='2022'> +2.8851444E+03 </wgt>
<wgt id='2023'> +2.8833229E+03 </wgt>
<wgt id='2024'> +2.8511816E+03 </wgt>
<wgt id='2025'> +2.7481791E+03 </wgt>
<wgt id='2026'> +2.7957406E+03 </wgt>
<wgt id='2027'> +2.7081729E+03 </wgt>
<wgt id='2028'> +2.8820668E+03 </wgt>
<wgt id='2029'> +2.8533422E+03 </wgt>
<wgt id='2030'> +2.9368288E+03 </wgt>
<wgt id='2031'> +2.8674285E+03 </wgt>
<wgt id='2032'> +2.9662755E+03 </wgt>
<wgt id='2033'> +2.8508961E+03 </wgt>
<wgt id='2034'> +2.8633986E+03 </wgt>
<wgt id='2035'> +2.8903644E+03 </wgt>
<wgt id='2036'> +2.7551311E+03 </wgt>
<wgt id='2037'> +2.8852994E+03 </wgt>
<wgt id='2038'> +2.8453208E+03 </wgt>
<wgt id='2039'> +2.8609439E+03 </wgt>
<wgt id='2040'> +2.9492692E+03 </wgt>
<wgt id='2041'> +2.8504637E+03 </wgt>
<wgt id='2042'> +2.9318118E+03 </wgt>
<wgt id='2043'> +2.8467312E+03 </wgt>
<wgt id='2044'> +2.9199891E+03 </wgt>
<wgt id='2045'> +2.8325416E+03 </wgt>
<wgt id='2046'> +2.7861566E+03 </wgt>
<wgt id='2047'> +2.7144058E+03 </wgt>
<wgt id='2048'> +2.8561183E+03 </wgt>
<wgt id='2049'> +2.9019051E+03 </wgt>
<wgt id='2050'> +2.9329022E+03 </wgt>
<wgt id='2051'> +2.8575653E+03 </wgt>
<wgt id='2052'> +2.8714121E+03 </wgt>
<wgt id='2053'> +2.8733772E+03 </wgt>
<wgt id='2054'> +2.9118906E+03 </wgt>
<wgt id='2055'> +2.8292098E+03 </wgt>
<wgt id='2056'> +2.8095985E+03 </wgt>
<wgt id='2057'> +2.8247440E+03 </wgt>
<wgt id='2058'> +2.7439556E+03 </wgt>
<wgt id='2059'> +2.9084575E+03 </wgt>
<wgt id='2060'> +2.9130220E+03 </wgt>
<wgt id='2061'> +2.8357262E+03 </wgt>
<wgt id='2062'> +2.8092882E+03 </wgt>
<wgt id='2063'> +2.8421062E+03 </wgt>
<wgt id='2064'> +2.8641918E+03 </wgt>
<wgt id='2065'> +2.7910716E+03 </wgt>
<wgt id='2066'> +2.8950564E+03 </wgt>
<wgt id='2067'> +2.9087759E+03 </wgt>
<wgt id='2068'> +2.8533631E+03 </wgt>
<wgt id='2069'> +2.8617968E+03 </wgt>
<wgt id='2070'> +2.8549660E+03 </wgt>
<wgt id='2071'> +2.8411122E+03 </wgt>
<wgt id='2072'> +2.7899387E+03 </wgt>
<wgt id='2073'> +2.7432298E+03 </wgt>
<wgt id='2074'> +2.9155083E+03 </wgt>
<wgt id='2075'> +2.8330059E+03 </wgt>
<wgt id='2076'> +3.0405535E+03 </wgt>
<wgt id='2077'> +2.9069985E+03 </wgt>
<wgt id='2078'> +2.8181429E+03 </wgt>
<wgt id='2079'> +2.8123609E+03 </wgt>
<wgt id='2080'> +2.8534365E+03 </wgt>
<wgt id='2081'> +2.7530959E+03 </wgt>
<wgt id='2082'> +2.7367540E+03 </wgt>
<wgt id='2083'> +2.8852605E+03 </wgt>
<wgt id='2084'> +2.8581043E+03 </wgt>
<wgt id='2085'> +2.8049687E+03 </wgt>
<wgt id='2086'> +2.8271369E+03 </wgt>
<wgt id='2087'> +2.8751468E+03 </wgt>
<wgt id='2088'> +2.8637501E+03 </wgt>
<wgt id='2089'> +2.8523925E+03 </wgt>
<wgt id='2090'> +2.9322377E+03 </wgt>
<wgt id='2091'> +2.8562326E+03 </wgt>
<wgt id='2092'> +2.8005833E+03 </wgt>
<wgt id='2093'> +2.8830059E+03 </wgt>
<wgt id='2094'> +2.8130394E+03 </wgt>
<wgt id='2095'> +2.8124220E+03 </wgt>
<wgt id='2096'> +2.8906080E+03 </wgt>
<wgt id='2097'> +2.8945883E+03 </wgt>
<wgt id='2098'> +2.7453973E+03 </wgt>
<wgt id='2099'> +2.8583535E+03 </wgt>
<wgt id='2100'> +2.8940322E+03 </wgt>
<wgt id='2101'> +2.8270218E+03 </wgt>
<wgt id='2102'> +2.7997198E+03 </wgt>
<wgt id='2103'> +2.8757985E+03 </wgt>
<wgt id='2104'> +2.7765807E+03 </wgt>
<wgt id='2105'> +2.8601915E+03 </wgt>
<wgt id='2106'> +2.8368495E+03 </wgt>
<wgt id='2107'> +2.9329751E+03 </wgt>
<wgt id='2108'> +2.8956961E+03 </wgt>
<wgt id='2109'> +2.7471148E+03 </wgt>
<wgt id='2110'> +2.8114273E+03 </wgt>
<wgt id='2111'> +2.8849234E+03 </wgt>
<wgt id='2112'> +2.9665131E+03 </wgt>
<wgt id='2113'> +2.8318309E+03 </wgt>
<wgt id='2114'> +3.1927610E+03 </wgt>
<wgt id='2115'> +2.7408835E+03 </wgt>
<wgt id='2116'> +3.3630716E+03 </wgt>
</rwgt>
</event>
<event>
 5      0 +2.9771057E+03 8.10095400e+01 7.54677100e-03 1.20152300e-01
       -3 -1    0    0    0  501 -0.0000000000e+00 +0.0000000000e+00 +5.6253432104e+00 5.6253432104e+00 0.0000000000e+00 0.0000e+00 1.0000e+00
        2 -1    0    0  501    0 +0.0000000000e+00 -0.0000000000e+00 -2.9165088451e+02 2.9165088451e+02 0.0000000000e+00 0.0000e+00 -1.0000e+00
       24  2    1    2    0    0 +0.0000000000e+00 +0.0000000000e+00 -2.8602554130e+02 2.9727622772e+02 8.1009538277e+01 0.0000e+00 0.0000e+00
      -13  1    3    3    0    0 +3.6346207397e+01 -1.4830160486e+01 -1.0637951906e+02 1.1339128065e+02 0.0000000000e+00 0.0000e+00 1.0000e+00
       14  1    3    3    0    0 -3.6346207397e+01 +1.4830160486e+01 -1.7964602224e+02 1.8388494707e+02 0.0000000000e+00 0.0000e+00 -1.0000e+00
<scales pt_clust_4="13000.00000" pt_clust_5="13000.00000"></scales>
<mgrwt>
<rscale>  0 0.81009538E+02</rscale>
<asrwt>0</asrwt>
<pdfrwt beam="1">  1        2 0.44869371E-01 0.81009538E+02</pdfrwt>
<pdfrwt beam="2">  1       -3 0.86543734E-03 0.81009538E+02</pdfrwt>
<totfact> 0.24240435E+05</totfact>
</mgrwt>
<clustering>
<clus scale="   81.010">  4  5 -1 -1</clus>
<clus scale="   81.010">  2  4  1 -1</clus>
</clustering>
<rwgt>
<wgt id='1001'> +2.9771057E+03 </wgt>
<wgt id='1002'> +2.9597628E+03 </wgt>
<wgt id='1003'> +2.9597628E+03 </wgt>
<wgt id='1004'> +2.5622242E+03 </wgt>
<wgt id='1005'> +2.9771057E+03 </wgt>
<wgt id='1006'> +2.9771057E+03 </wgt>
<wgt id='1007'> +2.9597628E+03 </wgt>
<wgt id='1008'> +2.9597628E+03 </wgt>
<wgt id='1009'> +2.5622242E+03 </wgt>
<wgt id='1010'> +2.9771057E+03 </wgt>
<wgt id='1011'> +2.9771057E+03 </wgt>
<wgt id='1012'> +2.9597628E+03 </wgt>
<wgt id='1013'> +2.9597628E+03 </wgt>
<wgt id='1014'> +2.5622242E+03 </wgt>
<wgt id='1015'> +2.9771057E+03 </wgt>
<wgt id='1016'> +3.3458241E+03 </wgt>
<wgt id='1017'> +3.3297398E+03 </wgt>
<wgt id='1018'> +3.3297398E+03 </wgt>
<wgt id='1019'> +2.9597628E+03 </wgt>
<wgt id='1020'> +3.3458241E+03 </wgt>
<wgt id='1021'> +3.3458241E+03 </wgt>
<wgt id='1022'> +3.3297398E+03 </wgt>
<wgt id='1023'> +3.3297398E+03 </wgt>
<wgt id='1024'> +2.9597628E+03 </wgt>
<wgt id='1025'> +3.3458241E+03 </wgt>
<wgt id='1026'> +3.3458241E+03 </wgt>
<wgt id='1027'> +3.3297398E+03 </wgt>
<wgt id='1028'> +3.3297398E+03 </wgt>
<wgt id='1029'> +2.9597628E+03 </wgt>
<wgt id='1030'> +3.3458241E+03 </wgt>
<wgt id='1031'> +2.5807862E+03 </wgt>
<wgt id='1032'> +2.5622242E+03 </wgt>
<wgt id='1033'> +2.5622242E+03 </wgt>
<wgt id='1034'> +2.1379084E+03 </wgt>
<wgt id='1035'> +2.5807862E+03 </wgt>
<wgt id='1036'> +2.5807862E+03 </wgt>
<wgt id='1037'> +2.5622242E+03 </wgt>
<wgt id='1038'> +2.5622242E+03 </wgt>
<wgt id='1039'> +2.1379084E+03 </wgt>
<wgt id='1040'> +2.5807862E+03 </wgt>
<wgt id='1041'> +2.5807862E+03 </wgt>
<wgt id='1042'> +2.5622242E+03 </wgt>
<wgt id='1043'> +2.5622242E+03 </wgt>
<wgt id='1044'> +2.1379084E+03 </wgt>
<wgt id='1045'> +2.5807862E+03 </wgt>
<wgt id='1046'> +2.9771057E+03 </wgt>
<wgt id='1047'> +2.9908069E+03 </wgt>
<wgt id='1048'> +2.9597165E+03 </wgt>
<wgt id='1049'> +2.9724875E+03 </wgt>
<wgt id='1050'> +2.8770419E+03 </wgt>
<wgt id='1051'> +2.9993285E+03 </wgt>
<wgt id='1052'> +3.0291608E+03 </wgt>
<wgt id='1053'> +2.9834675E+03 </wgt>
<wgt id='1054'> +3.0146743E+03 </wgt>
<wgt id='1055'> +2.9217357E+03 </wgt>
<wgt id='1056'> +3.0239727E+03 </wgt>
<wgt id='1057'> +2.9974182E+03 </wgt>
<wgt id='1058'> +2.9468999E+03 </wgt>
<wgt id='1059'> +2.9717250E+03 </wgt>
<wgt id='1060'> +2.9598685E+03 </wgt>
<wgt id='1061'> +2.9674424E+03 </wgt>
<wgt id='1062'> +2.9684443E+03 </wgt>
<wgt id='1063'> +2.9825866E+03 </wgt>
<wgt id='1064'> +2.9840189E+03 </wgt>
<wgt id='1065'> +2.9820022E+03 </wgt>
<wgt id='1066'> +2.9872349E+03 </wgt>
<wgt id='1067'> +2.9833362E+03 </wgt>
<wgt id='1068'> +2.9852545E+03 </wgt>
<wgt id='1069'> +2.9575303E+03 </wgt>
<wgt id='1070'> +2.9826277E+03 </wgt>
<wgt id='1071'> +2.9832804E+03 </wgt>
<wgt id='1072'> +2.9575282E+03 </wgt>
<wgt id='1073'> +2.9829956E+03 </wgt>
<wgt id='1074'> +2.9745436E+03 </wgt>
<wgt id='1075'> +2.9648420E+03 </wgt>
<wgt id='1076'> +2.9857155E+03 </wgt>
<wgt id='1077'> +2.9818153E+03 </wgt>
<wgt id='1078'> +2.9766536E+03 </wgt>
<wgt id='1079'> +2.9756366E+03 </wgt>
<wgt id='1080'> +2.9797194E+03 </wgt>
<wgt id='1081'> +2.9755930E+03 </wgt>
<wgt id='1082'> +2.9722649E+03 </wgt>
<wgt id='1083'> +2.9710612E+03 </wgt>
<wgt id='1084'> +2.9754080E+03 </wgt>
<wgt id='1085'> +2.9789002E+03 </wgt>
<wgt id='1086'> +2.9746415E+03 </wgt>
<wgt id='1087'> +2.9783342E+03 </wgt>
<wgt id='1088'> +2.9830833E+03 </wgt>
<wgt id='1089'> +2.9828771E+03 </wgt>
<wgt id='1090'> +2.9786787E+03 </wgt>
<wgt id='1091'> +2.9772888E+03 </wgt>
<wgt id='1092'> +2.9797707E+03 </wgt>
<wgt id='1093'> +2.9825284E+03 </wgt>
<wgt id='1094'> +2.9747588E+03 </wgt>
<wgt id='1095'> +2.9729495E+03 </wgt>
<wgt id='1096'> +2.9708887E+03 </wgt>
<wgt id='1097'> +2.9762096E+03 </wgt>
<wgt id='1098'> +2.9738545E+03 </wgt>
<wgt id='1099'> +2.9789055E+03 </wgt>
<wgt id='1100'> +2.9777106E+03 </wgt>
<wgt id='1101'> +2.9794097E+03 </wgt>
<wgt id='1102'> +2.9753945E+03 </wgt>
<wgt id='1103'> +2.9801707E+03 </wgt>
<wgt id='1104'> +2.9804848E+03 </wgt>
<wgt id='1105'> +2.9768014E+03 </wgt>
<wgt id='1106'> +2.9773300E+03 </wgt>
<wgt id='1107'> +2.9765880E+03 </wgt>
<wgt id='1108'> +2.9750847E+03 </wgt>
<wgt id='1109'> +2.9768699E+03 </wgt>
<wgt id='1110'> +2.9789212E+03 </wgt>
<wgt id='1111'> +2.9771454E+03 </wgt>
<wgt id='1112'> +2.9742985E+03 </wgt>
<wgt id='1113'> +2.9769152E+03 </wgt>
<wgt id='1114'> +2.9799890E+03 </wgt>
<wgt id='1115'> +2.9804987E+03 </wgt>
<wgt id='1116'> +2.9741653E+03 </wgt>
<wgt id='1117'> +2.9757447E+03 </wgt>
<wgt id='1118'> +2.9773894E+03 </wgt>
<wgt id='1119'> +2.9827177E+03 </wgt>
<wgt id='1120'> +2.9752057E+03 </wgt>
<wgt id='1121'> +2.9794649E+03 </wgt>
<wgt id='1122'> +2.9789318E+03 </wgt>
<wgt id='1123'> +2.9768240E+03 </wgt>
<wgt id='1124'> +2.9772245E+03 </wgt>
<wgt id='1125'> +2.9763782E+03 </wgt>
<wgt id='1126'> +2.9771777E+03 </wgt>
<wgt id='1127'> +2.9781782E+03 </wgt>
<wgt id='1128'> +2.9776248E+03 </wgt>
<wgt id='1129'> +2.9779055E+03 </wgt>
<wgt id='1130'> +2.9772677E+03 </wgt>
<wgt id='1131'> +2.9773931E+03 </wgt>
<wgt id='1132'> +2.9776145E+03 </wgt>
<wgt id='1133'> +2.9766098E+03 </wgt>
<wgt id='1134'> +2.9790476E+03 </wgt>
<wgt id='1135'> +2.9754390E+03 </wgt>
<wgt id='1136'> +2.9733334E+03 </wgt>
<wgt id='1137'> +2.9756999E+03 </wgt>
<wgt id='1138'> +2.9776599E+03 </wgt>
<wgt id='1139'> +2.9784184E+03 </wgt>
<wgt id='1140'> +2.9770163E+03 </wgt>
<wgt id='1141'> +2.9756749E+03 </wgt>
<wgt id='1142'> +2.9762601E+03 </wgt>
<wgt id='1143'> +2.9773636E+03 </wgt>
<wgt id='1144'> +2.9762271E+03 </wgt>
<wgt id='1145'> +2.9775925E+03 </wgt>
<wgt id='1146'> +2.9787735E+03 </wgt>
<wgt id='1147'> +2.9189132E+03 </wgt>
<wgt id='1148'> +2.9999041E+03 </wgt>
<wgt id='1149'> +2.7555091E+03 </wgt>
<wgt id='1150'> +2.8107265E+03 </wgt>
<wgt id='1151'> +2.8684489E+03 </wgt>
<wgt id='1152'> +2.8950655E+03 </wgt>
<wgt id='1153'> +2.9484477E+03 </wgt>
<wgt id='1154'> +2.9653799E+03 </wgt>
<wgt id='1155'> +3.0629819E+03 </wgt>
<wgt id='1156'> +3.0953654E+03 </wgt>
<wgt id='1157'> +2.9059711E+03 </wgt>
<wgt id='1158'> +2.9092110E+03 </wgt>
<wgt id='1159'> +2.9040305E+03 </wgt>
<wgt id='1160'> +2.9018310E+03 </wgt>
<wgt id='1161'> +2.8041308E+03 </wgt>
<wgt id='1162'> +2.8834631E+03 </wgt>
<wgt id='1163'> +2.9267904E+03 </wgt>
<wgt id='1164'> +2.8881123E+03 </wgt>
<wgt id='1165'> +2.9322149E+03 </wgt>
<wgt id='1166'> +2.8880745E+03 </wgt>
<wgt id='1167'> +2.9793803E+03 </wgt>
<wgt id='1168'> +2.9180351E+03 </wgt>
<wgt id='1169'> +2.8763219E+03 </wgt>
<wgt id='1170'> +2.9091920E+03 </wgt>
<wgt id='1171'> +2.8830754E+03 </wgt>
<wgt id='1172'> +2.9282071E+03 </wgt>
<wgt id='1173'> +2.8827028E+03 </wgt>
<wgt id='1174'> +2.9083350E+03 </wgt>
<wgt id='1175'> +2.9052583E+03 </wgt>
<wgt id='1176'> +2.8950814E+03 </wgt>
<wgt id='1177'> +2.8918888E+03 </wgt>
<wgt id='1178'> +2.9153227E+03 </wgt>
<wgt id='1179'> +2.9085090E+03 </wgt>
<wgt id='1180'> +2.9078519E+03 </wgt>
<wgt id='1181'> +2.9167653E+03 </wgt>
<wgt id='1182'> +2.8873814E+03 </wgt>
<wgt id='1183'> +2.9045552E+03 </wgt>
<wgt id='1184'> +2.9017580E+03 </wgt>
<wgt id='1185'> +2.9051999E+03 </wgt>
<wgt id='1186'> +2.9236554E+03 </wgt>
<wgt id='1187'> +2.9077045E+03 </wgt>
<wgt id='1188'> +2.8936181E+03 </wgt>
<wgt id='1189'> +2.9073353E+03 </wgt>
<wgt id='1190'> +2.9115438E+03 </wgt>
<wgt id='1191'> +2.9033644E+03 </wgt>
<wgt id='1192'> +2.9051857E+03 </wgt>
<wgt id='1193'> +2.9069943E+03 </wgt>
<wgt id='1194'> +2.9015904E+03 </wgt>
<wgt id='1195'> +2.9062768E+03 </wgt>
<wgt id='1196'> +2.9046439E+03 </wgt>
<wgt id='1197'> +2.9059044E+03 </wgt>
<wgt id='1198'> +2.9051699E+03 </wgt>
<wgt id='1199'> +2.9106410E+03 </wgt>
<wgt id='1200'> +2.9062657E+03 </wgt>
<wgt id='1201'> +2.9064719E+03 </wgt>
<wgt id='1202'> +2.9119519E+03 </wgt>
<wgt id='1203'> +2.9015733E+03 </wgt>
<wgt id='1204'> +2.9015778E+03 </wgt>
<wgt id='1205'> +2.9103652E+03 </wgt>
<wgt id='1206'> +2.9080112E+03 </wgt>
<wgt id='1207'> +2.9034073E+03 </wgt>
<wgt id='1208'> +2.9027783E+03 </wgt>
<wgt id='1209'> +2.9024001E+03 </wgt>
<wgt id='1210'> +2.9006500E+03 </wgt>
<wgt id='1211'> +2.9070931E+03 </wgt>
<wgt id='1212'> +2.9078387E+03 </wgt>
<wgt id='1213'> +2.9066042E+03 </wgt>
<wgt id='1214'> +2.9046682E+03 </wgt>
<wgt id='1215'> +2.9004488E+03 </wgt>
<wgt id='1216'> +2.9053056E+03 </wgt>
<wgt id='1217'> +2.9074857E+03 </wgt>
<wgt id='1218'> +2.9078498E+03 </wgt>
<wgt id='1219'> +2.9059409E+03 </wgt>
<wgt id='1220'> +2.9087817E+03 </wgt>
<wgt id='1221'> +2.9040886E+03 </wgt>
<wgt id='1222'> +2.9061342E+03 </wgt>
<wgt id='1223'> +2.9016321E+03 </wgt>
<wgt id='1224'> +2.9044114E+03 </wgt>
<wgt id='1225'> +2.9084187E+03 </wgt>
<wgt id='1226'> +2.8998829E+03 </wgt>
<wgt id='1227'> +2.9075327E+03 </wgt>
<wgt id='1228'> +2.9082668E+03 </wgt>
<wgt id='1229'> +2.9096625E+03 </wgt>
<wgt id='1230'> +2.9058998E+03 </wgt>
<wgt id='1231'> +2.9064909E+03 </wgt>
<wgt id='1232'> +2.9021525E+03 </wgt>
<wgt id='1233'> +2.9048694E+03 </wgt>
<wgt id='1234'> +2.9079620E+03 </wgt>
<wgt id='1235'> +2.9054615E+03 </wgt>
<wgt id='1236'> +2.9042523E+03 </wgt>
<wgt id='1237'> +2.9066326E+03 </wgt>
<wgt id='1238'> +2.9071786E+03 </wgt>
<wgt id='1239'> +2.9069688E+03 </wgt>
<wgt id='1240'> +2.9086352E+03 </wgt>
<wgt id='1241'> +2.9040370E+03 </wgt>
<wgt id='1242'> +2.9053845E+03 </wgt>
<wgt id='1243'> +2.9055764E+03 </wgt>
<wgt id='1244'> +2.9055353E+03 </wgt>
<wgt id='1245'> +2.9050667E+03 </wgt>
<wgt id='1246'> +2.9039670E+03 </wgt>
<wgt id='1247'> +2.9057029E+03 </wgt>
<wgt id='1248'> +2.9055292E+03 </wgt>
<wgt id='1249'> +2.9047850E+03 </wgt>
<wgt id='1250'> +2.9069629E+03 </wgt>
<wgt id='1251'> +2.9078613E+03 </wgt>
<wgt id='1252'> +2.9070053E+03 </wgt>
<wgt id='1253'> +2.9070235E+03 </wgt>
<wgt id='1254'> +2.9068094E+03 </wgt>
<wgt id='1255'> +2.9056204E+03 </wgt>
<wgt id='1256'> +2.9079401E+03 </wgt>
<wgt id='1257'> +2.9038834E+03 </wgt>
<wgt id='1258'> +2.8543090E+03 </wgt>
<wgt id='1259'> +2.9333765E+03 </wgt>
<wgt id='1260'> +2.8592137E+03 </wgt>
<wgt id='1261'> +2.8631583E+03 </wgt>
<wgt id='1262'> +2.8191892E+03 </wgt>
<wgt id='1263'> +2.8167435E+03 </wgt>
<wgt id='1264'> +2.8909912E+03 </wgt>
<wgt id='1265'> +2.8942166E+03 </wgt>
<wgt id='1266'> +2.8698100E+03 </wgt>
<wgt id='1267'> +2.8705497E+03 </wgt>
<wgt id='1268'> +2.8173050E+03 </wgt>
<wgt id='1269'> +2.8554559E+03 </wgt>
<wgt id='1270'> +2.8700058E+03 </wgt>
<wgt id='1271'> +2.8483751E+03 </wgt>
<wgt id='1272'> +2.8282055E+03 </wgt>
<wgt id='1273'> +2.8164654E+03 </wgt>
<wgt id='1274'> +2.8433567E+03 </wgt>
<wgt id='1275'> +2.8651992E+03 </wgt>
<wgt id='1276'> +2.8295433E+03 </wgt>
<wgt id='1277'> +2.8792735E+03 </wgt>
<wgt id='1278'> +2.8415204E+03 </wgt>
<wgt id='1279'> +2.8244388E+03 </wgt>
<wgt id='1280'> +2.8960459E+03 </wgt>
<wgt id='1281'> +2.8689427E+03 </wgt>
<wgt id='1282'> +2.8528360E+03 </wgt>
<wgt id='1283'> +2.8421892E+03 </wgt>
<wgt id='1284'> +2.8777925E+03 </wgt>
<wgt id='1285'> +2.8401724E+03 </wgt>
<wgt id='1286'> +2.8754551E+03 </wgt>
<wgt id='1287'> +2.8763753E+03 </wgt>
<wgt id='1288'> +2.8304052E+03 </wgt>
<wgt id='1289'> +2.8204278E+03 </wgt>
<wgt id='1290'> +2.8823535E+03 </wgt>
<wgt id='1291'> +2.8635383E+03 </wgt>
<wgt id='1292'> +2.8500435E+03 </wgt>
<wgt id='1293'> +2.8528627E+03 </wgt>
<wgt id='1294'> +2.8643777E+03 </wgt>
<wgt id='1295'> +2.7978721E+03 </wgt>
<wgt id='1296'> +2.9123998E+03 </wgt>
<wgt id='1297'> +2.9347576E+03 </wgt>
<wgt id='1298'> +2.7768155E+03 </wgt>
<wgt id='1299'> +2.7160078E+03 </wgt>
<wgt id='1300'> +2.9759018E+03 </wgt>
<wgt id='1301'> +2.8371268E+03 </wgt>
<wgt id='1302'> +2.8666461E+03 </wgt>
<wgt id='1303'> +2.8771701E+03 </wgt>
<wgt id='1304'> +2.8069583E+03 </wgt>
<wgt id='1305'> +2.8756678E+03 </wgt>
<wgt id='1306'> +2.8944971E+03 </wgt>
<wgt id='1307'> +2.7915514E+03 </wgt>
<wgt id='1308'> +2.9579291E+03 </wgt>
<wgt id='1309'> +2.8804805E+03 </wgt>
<wgt id='1310'> +2.8815789E+03 </wgt>
<wgt id='1311'> +2.8815673E+03 </wgt>
<wgt id='1312'> +2.8550435E+03 </wgt>
<wgt id='1313'> +2.8547488E+03 </wgt>
<wgt id='1314'> +2.8786097E+03 </wgt>
<wgt id='1315'> +3.1658672E+03 </wgt>
<wgt id='1316'> +2.6768583E+03 </wgt>
<wgt id='1317'> +2.8186329E+03 </wgt>
<wgt id='1318'> +2.8943041E+03 </wgt>
<wgt id='1319'> +2.8379187E+03 </wgt>
<wgt id='1320'> +2.8408770E+03 </wgt>
<wgt id='1321'> +2.8635783E+03 </wgt>
<wgt id='1322'> +2.8252188E+03 </wgt>
<wgt id='1323'> +2.8812377E+03 </wgt>
<wgt id='1324'> +2.8516955E+03 </wgt>
<wgt id='1325'> +2.8567496E+03 </wgt>
<wgt id='1326'> +2.8410844E+03 </wgt>
<wgt id='1327'> +2.8630765E+03 </wgt>
<wgt id='1328'> +2.7764446E+03 </wgt>
<wgt id='1329'> +2.9218484E+03 </wgt>
<wgt id='1330'> +2.8448257E+03 </wgt>
<wgt id='1331'> +2.8431138E+03 </wgt>
<wgt id='1332'> +2.7885789E+03 </wgt>
<wgt id='1333'> +2.8491549E+03 </wgt>
<wgt id='1334'> +2.6739302E+03 </wgt>
<wgt id='1335'> +2.9946583E+03 </wgt>
<wgt id='1336'> +2.8523788E+03 </wgt>
<wgt id='1337'> +2.8207809E+03 </wgt>
<wgt id='1338'> +2.8548085E+03 </wgt>
<wgt id='1339'> +2.8174925E+03 </wgt>
<wgt id='1340'> +2.8322302E+03 </wgt>
<wgt id='1341'> +2.8455234E+03 </wgt>
<wgt id='1342'> +2.8565775E+03 </wgt>
<wgt id='1343'> +2.8166838E+03 </wgt>
<wgt id='1344'> +2.7732063E+03 </wgt>
<wgt id='1345'> +2.8992976E+03 </wgt>
<wgt id='1346'> +2.8289320E+03 </wgt>
<wgt id='1347'> +2.8483394E+03 </wgt>
<wgt id='1348'> +2.8188941E+03 </wgt>
<wgt id='1349'> +2.8443045E+03 </wgt>
<wgt id='1350'> +2.8276520E+03 </wgt>
<wgt id='1351'> +2.8507589E+03 </wgt>
<wgt id='1352'> +2.8595866E+03 </wgt>
<wgt id='1353'> +2.7905850E+03 </wgt>
<wgt id='1354'> +2.8755727E+03 </wgt>
<wgt id='1355'> +2.8036330E+03 </wgt>
<wgt id='1356'> +2.8316249E+03 </wgt>
<wgt id='1357'> +2.8298218E+03 </wgt>
<wgt id='1358'> +2.8005220E+03 </wgt>
<wgt id='1359'> +2.8314966E+03 </wgt>
<wgt id='1360'> +2.8573228E+03 </wgt>
<wgt id='1361'> +2.8208590E+03 </wgt>
<wgt id='1362'> +2.8440572E+03 </wgt>
<wgt id='1363'> +2.8120238E+03 </wgt>
<wgt id='1364'> +2.8439065E+03 </wgt>
<wgt id='1365'> +2.7967201E+03 </wgt>
<wgt id='1366'> +2.8306522E+03 </wgt>
<wgt id='1367'> +2.8426856E+03 </wgt>
<wgt id='1368'> +2.8437709E+03 </wgt>
<wgt id='1369'> +2.8336562E+03 </wgt>
<wgt id='1370'> +2.8079754E+03 </wgt>
<wgt id='1371'> +2.8358820E+03 </wgt>
<wgt id='1372'> +2.7867429E+03 </wgt>
<wgt id='1373'> +2.7678947E+03 </wgt>
<wgt id='1374'> +3.1675806E+03 </wgt>
<wgt id='1375'> +2.6495535E+03 </wgt>
<wgt id='1376'> +2.7972330E+03 </wgt>
<wgt id='1377'> +2.8722410E+03 </wgt>
<wgt id='1378'> +2.4267831E+03 </wgt>
<wgt id='1379'> +2.7878827E+03 </wgt>
<wgt id='1380'> +2.7878408E+03 </wgt>
<wgt id='1381'> +2.7880184E+03 </wgt>
<wgt id='1382'> +2.7900161E+03 </wgt>
<wgt id='1383'> +2.7864032E+03 </wgt>
<wgt id='1384'> +2.7699785E+03 </wgt>
<wgt id='1385'> +2.8045948E+03 </wgt>
<wgt id='1386'> +2.7828346E+03 </wgt>
<wgt id='1387'> +2.7935597E+03 </wgt>
<wgt id='1388'> +2.7890181E+03 </wgt>
<wgt id='1389'> +2.7868175E+03 </wgt>
<wgt id='1390'> +2.7847613E+03 </wgt>
<wgt id='1391'> +2.7949656E+03 </wgt>
<wgt id='1392'> +2.7737686E+03 </wgt>
<wgt id='1393'> +2.8130417E+03 </wgt>
<wgt id='1394'> +2.7761603E+03 </wgt>
<wgt id='1395'> +2.7946094E+03 </wgt>
<wgt id='1396'> +2.7306482E+03 </wgt>
<wgt id='1397'> +2.8535661E+03 </wgt>
<wgt id='1398'> +2.6673818E+03 </wgt>
<wgt id='1399'> +2.8931164E+03 </wgt>
<wgt id='1400'> +2.7854044E+03 </wgt>
<wgt id='1401'> +2.7914333E+03 </wgt>
<wgt id='1402'> +2.8097489E+03 </wgt>
<wgt id='1403'> +2.7737932E+03 </wgt>
<wgt id='1404'> +2.8023104E+03 </wgt>
<wgt id='1405'> +2.7575397E+03 </wgt>
<wgt id='1406'> +2.7976594E+03 </wgt>
<wgt id='1407'> +2.7887501E+03 </wgt>
<wgt id='1408'> +2.8122773E+03 </wgt>
<wgt id='1409'> +2.7588486E+03 </wgt>
<wgt id='1410'> +2.8207166E+03 </wgt>
<wgt id='1411'> +2.7510309E+03 </wgt>
<wgt id='1412'> +2.7905044E+03 </wgt>
<wgt id='1413'> +2.7860719E+03 </wgt>
<wgt id='1414'> +2.7816525E+03 </wgt>
<wgt id='1415'> +2.8104015E+03 </wgt>
<wgt id='1416'> +2.7978426E+03 </wgt>
<wgt id='1417'> +2.7849985E+03 </wgt>
<wgt id='1418'> +2.7831127E+03 </wgt>
<wgt id='1419'> +2.7926528E+03 </wgt>
<wgt id='1420'> +2.9922463E+03 </wgt>
<wgt id='1421'> +2.6325404E+03 </wgt>
<wgt id='1422'> +2.6766758E+03 </wgt>
<wgt id='1423'> +2.9156241E+03 </wgt>
<wgt id='1424'> +2.8199575E+03 </wgt>
<wgt id='1425'> +2.7157170E+03 </wgt>
<wgt id='1426'> +2.7625790E+03 </wgt>
<wgt id='1427'> +2.8302800E+03 </wgt>
<wgt id='1428'> +2.7670566E+03 </wgt>
<wgt id='1429'> +2.7978017E+03 </wgt>
<wgt id='1430'> +3.0050899E+03 </wgt>
<wgt id='1431'> +3.0065678E+03 </wgt>
<wgt id='1432'> +3.0030961E+03 </wgt>
<wgt id='1433'> +2.9997179E+03 </wgt>
<wgt id='1434'> +3.0103537E+03 </wgt>
<wgt id='1435'> +3.0054775E+03 </wgt>
<wgt id='1436'> +3.0049162E+03 </wgt>
<wgt id='1437'> +2.9831171E+03 </wgt>
<wgt id='1438'> +3.0271384E+03 </wgt>
<wgt id='1439'> +3.0047216E+03 </wgt>
<wgt id='1440'> +3.0053723E+03 </wgt>
<wgt id='1441'> +3.0114209E+03 </wgt>
<wgt id='1442'> +3.0028655E+03 </wgt>
<wgt id='1443'> +3.0051265E+03 </wgt>
<wgt id='1444'> +3.0050100E+03 </wgt>
<wgt id='1445'> +2.9831510E+03 </wgt>
<wgt id='1446'> +3.0286281E+03 </wgt>
<wgt id='1447'> +2.8808549E+03 </wgt>
<wgt id='1448'> +3.0733236E+03 </wgt>
<wgt id='1449'> +3.0745259E+03 </wgt>
<wgt id='1450'> +2.9134163E+03 </wgt>
<wgt id='1451'> +2.9270251E+03 </wgt>
<wgt id='1452'> +3.0599680E+03 </wgt>
<wgt id='1453'> +3.0029893E+03 </wgt>
<wgt id='1454'> +3.0029126E+03 </wgt>
<wgt id='1455'> +2.9937483E+03 </wgt>
<wgt id='1456'> +3.0325747E+03 </wgt>
<wgt id='1457'> +3.0170607E+03 </wgt>
<wgt id='1458'> +3.0060204E+03 </wgt>
<wgt id='1459'> +2.9882765E+03 </wgt>
<wgt id='1460'> +3.0435479E+03 </wgt>
<wgt id='1461'> +3.0140022E+03 </wgt>
<wgt id='1462'> +2.9886392E+03 </wgt>
<wgt id='1463'> +2.9935598E+03 </wgt>
<wgt id='1464'> +3.0315203E+03 </wgt>
<wgt id='1465'> +3.0310001E+03 </wgt>
<wgt id='1466'> +2.9968331E+03 </wgt>
<wgt id='1467'> +3.0055697E+03 </wgt>
<wgt id='1468'> +3.0102958E+03 </wgt>
<wgt id='1469'> +2.9992907E+03 </wgt>
<wgt id='1470'> +3.0085624E+03 </wgt>
<wgt id='1471'> +2.8953075E+03 </wgt>
<wgt id='1472'> +3.2235632E+03 </wgt>
<wgt id='1473'> +2.9936922E+03 </wgt>
<wgt id='1474'> +3.0704395E+03 </wgt>
<wgt id='1475'> +3.1153953E+03 </wgt>
<wgt id='1476'> +2.9316766E+03 </wgt>
<wgt id='1477'> +2.9536486E+03 </wgt>
<wgt id='1478'> +3.0270861E+03 </wgt>
<wgt id='1479'> +2.9703144E+03 </wgt>
<wgt id='1480'> +3.0402489E+03 </wgt>
<wgt id='1481'> +2.4380816E+03 </wgt>
<wgt id='1482'> +3.3408382E+03 </wgt>
<wgt id='1483'> +3.3403579E+03 </wgt>
<wgt id='1484'> +3.3392193E+03 </wgt>
<wgt id='1485'> +3.3416164E+03 </wgt>
<wgt id='1486'> +3.3410599E+03 </wgt>
<wgt id='1487'> +3.3557976E+03 </wgt>
<wgt id='1488'> +3.3506981E+03 </wgt>
<wgt id='1489'> +3.3216290E+03 </wgt>
<wgt id='1490'> +3.3386202E+03 </wgt>
<wgt id='1491'> +3.3393565E+03 </wgt>
<wgt id='1492'> +3.3539214E+03 </wgt>
<wgt id='1493'> +3.3390448E+03 </wgt>
<wgt id='1494'> +3.3818317E+03 </wgt>
<wgt id='1495'> +3.3508584E+03 </wgt>
<wgt id='1496'> +3.3582660E+03 </wgt>
<wgt id='1497'> +3.3421847E+03 </wgt>
<wgt id='1498'> +3.3564509E+03 </wgt>
<wgt id='1499'> +3.3404018E+03 </wgt>
<wgt id='1500'> +3.3325215E+03 </wgt>
<wgt id='1501'> +3.3288215E+03 </wgt>
<wgt id='1502'> +3.3281167E+03 </wgt>
<wgt id='1503'> +3.3828276E+03 </wgt>
<wgt id='1504'> +3.3353610E+03 </wgt>
<wgt id='1505'> +3.3489356E+03 </wgt>
<wgt id='1506'> +3.3580876E+03 </wgt>
<wgt id='1507'> +3.3715706E+03 </wgt>
<wgt id='1508'> +3.3246876E+03 </wgt>
<wgt id='1509'> +3.3261686E+03 </wgt>
<wgt id='1510'> +3.3480708E+03 </wgt>
<wgt id='1511'> +3.3077954E+03 </wgt>
<wgt id='1512'> +2.7974409E+03 </wgt>
<wgt id='1513'> +2.7979798E+03 </wgt>
<wgt id='1514'> +2.7945233E+03 </wgt>
<wgt id='1515'> +2.6145765E+03 </wgt>
<wgt id='1516'> +2.8480867E+03 </wgt>
<wgt id='1517'> +2.8234946E+03 </wgt>
<wgt id='1518'> +2.8219881E+03 </wgt>
<wgt id='1519'> +2.8280691E+03 </wgt>
<wgt id='1520'> +2.8662100E+03 </wgt>
<wgt id='1521'> +2.7971648E+03 </wgt>
<wgt id='1522'> +2.7545426E+03 </wgt>
<wgt id='1523'> +2.8626929E+03 </wgt>
<wgt id='1524'> +2.7762640E+03 </wgt>
<wgt id='1525'> +2.8041545E+03 </wgt>
<wgt id='1526'> +2.7955149E+03 </wgt>
<wgt id='1527'> +2.7907273E+03 </wgt>
<wgt id='1528'> +2.7985509E+03 </wgt>
<wgt id='1529'> +2.7810524E+03 </wgt>
<wgt id='1530'> +2.8170888E+03 </wgt>
<wgt id='1531'> +2.7828991E+03 </wgt>
<wgt id='1532'> +2.7961373E+03 </wgt>
<wgt id='1533'> +2.7925089E+03 </wgt>
<wgt id='1534'> +2.7890116E+03 </wgt>
<wgt id='1535'> +2.8127867E+03 </wgt>
<wgt id='1536'> +2.7974659E+03 </wgt>
<wgt id='1537'> +2.7972721E+03 </wgt>
<wgt id='1538'> +2.7956464E+03 </wgt>
<wgt id='1539'> +2.7930157E+03 </wgt>
<wgt id='1540'> +2.7947699E+03 </wgt>
<wgt id='1541'> +2.7946488E+03 </wgt>
<wgt id='1542'> +2.7897923E+03 </wgt>
<wgt id='1543'> +2.8014693E+03 </wgt>
<wgt id='1544'> +2.7901948E+03 </wgt>
<wgt id='1545'> +2.7807783E+03 </wgt>
<wgt id='1546'> +2.8018924E+03 </wgt>
<wgt id='1547'> +2.8001510E+03 </wgt>
<wgt id='1548'> +2.7980413E+03 </wgt>
<wgt id='1549'> +2.7931159E+03 </wgt>
<wgt id='1550'> +2.8020016E+03 </wgt>
<wgt id='1551'> +2.8039643E+03 </wgt>
<wgt id='1552'> +2.7968454E+03 </wgt>
<wgt id='1553'> +2.8046693E+03 </wgt>
<wgt id='1554'> +2.7959542E+03 </wgt>
<wgt id='1555'> +2.7972336E+03 </wgt>
<wgt id='1556'> +2.8017584E+03 </wgt>
<wgt id='1557'> +2.8000202E+03 </wgt>
<wgt id='1558'> +2.7953442E+03 </wgt>
<wgt id='1559'> +2.7886528E+03 </wgt>
<wgt id='1560'> +2.7967969E+03 </wgt>
<wgt id='1561'> +2.7969310E+03 </wgt>
<wgt id='1562'> +2.7977498E+03 </wgt>
<wgt id='1563'> +2.7963887E+03 </wgt>
<wgt id='1564'> +2.7989033E+03 </wgt>
<wgt id='1565'> +2.8022377E+03 </wgt>
<wgt id='1566'> +2.7973853E+03 </wgt>
<wgt id='1567'> +2.7987886E+03 </wgt>
<wgt id='1568'> +2.7985676E+03 </wgt>
<wgt id='1569'> +2.7963349E+03 </wgt>
<wgt id='1570'> +2.8013043E+03 </wgt>
<wgt id='1571'> +2.7969543E+03 </wgt>
<wgt id='1572'> +2.7937385E+03 </wgt>
<wgt id='1573'> +2.7993429E+03 </wgt>
<wgt id='1574'> +2.7967926E+03 </wgt>
<wgt id='1575'> +2.7975561E+03 </wgt>
<wgt id='1576'> +2.7983676E+03 </wgt>
<wgt id='1577'> +2.7961762E+03 </wgt>
<wgt id='1578'> +2.7975878E+03 </wgt>
<wgt id='1579'> +2.7992359E+03 </wgt>
<wgt id='1580'> +2.7972354E+03 </wgt>
<wgt id='1581'> +2.7980614E+03 </wgt>
<wgt id='1582'> +2.7942450E+03 </wgt>
<wgt id='1583'> +2.7961156E+03 </wgt>
<wgt id='1584'> +2.7977059E+03 </wgt>
<wgt id='1585'> +2.7976479E+03 </wgt>
<wgt id='1586'> +2.7959819E+03 </wgt>
<wgt id='1587'> +2.7948989E+03 </wgt>
<wgt id='1588'> +2.7989236E+03 </wgt>
<wgt id='1589'> +2.7978964E+03 </wgt>
<wgt id='1590'> +2.7981601E+03 </wgt>
<wgt id='1591'> +2.7982871E+03 </wgt>
<wgt id='1592'> +2.7977943E+03 </wgt>
<wgt id='1593'> +2.7992714E+03 </wgt>
<wgt id='1594'> +2.7970808E+03 </wgt>
<wgt id='1595'> +2.7970684E+03 </wgt>
<wgt id='1596'> +2.7982126E+03 </wgt>
<wgt id='1597'> +2.7957514E+03 </wgt>
<wgt id='1598'> +2.7978158E+03 </wgt>
<wgt id='1599'> +2.7976077E+03 </wgt>
<wgt id='1600'> +2.7979273E+03 </wgt>
<wgt id='1601'> +2.7969111E+03 </wgt>
<wgt id='1602'> +2.7974322E+03 </wgt>
<wgt id='1603'> +2.7970401E+03 </wgt>
<wgt id='1604'> +2.7976276E+03 </wgt>
<wgt id='1605'> +2.7979486E+03 </wgt>
<wgt id='1606'> +2.7970325E+03 </wgt>
<wgt id='1607'> +2.7979311E+03 </wgt>
<wgt id='1608'> +2.7971486E+03 </wgt>
<wgt id='1609'> +2.7983590E+03 </wgt>
<wgt id='1610'> +2.7975690E+03 </wgt>
<wgt id='1611'> +2.7967247E+03 </wgt>
<wgt id='1612'> +2.7975015E+03 </wgt>
<wgt id='1613'> +2.7646706E+03 </wgt>
<wgt id='1614'> +2.8261105E+03 </wgt>
<wgt id='1615'> +2.9135257E+03 </wgt>
<wgt id='1616'> +2.9390550E+03 </wgt>
<wgt id='1617'> +2.9194989E+03 </wgt>
<wgt id='1618'> +2.8940802E+03 </wgt>
<wgt id='1619'> +2.8255257E+03 </wgt>
<wgt id='1620'> +2.7846966E+03 </wgt>
<wgt id='1621'> +2.8564893E+03 </wgt>
<wgt id='1622'> +2.9244901E+03 </wgt>
<wgt id='1623'> +2.9259478E+03 </wgt>
<wgt id='1624'> +2.8873287E+03 </wgt>
<wgt id='1625'> +2.9618208E+03 </wgt>
<wgt id='1626'> +2.8010192E+03 </wgt>
<wgt id='1627'> +2.8616207E+03 </wgt>
<wgt id='1628'> +2.8775476E+03 </wgt>
<wgt id='1629'> +2.9061810E+03 </wgt>
<wgt id='1630'> +2.9209044E+03 </wgt>
<wgt id='1631'> +2.9043108E+03 </wgt>
<wgt id='1632'> +2.9235136E+03 </wgt>
<wgt id='1633'> +2.9102481E+03 </wgt>
<wgt id='1634'> +2.8868731E+03 </wgt>
<wgt id='1635'> +2.9247956E+03 </wgt>
<wgt id='1636'> +2.9193072E+03 </wgt>
<wgt id='1637'> +2.8991380E+03 </wgt>
<wgt id='1638'> +2.9099965E+03 </wgt>
<wgt id='1639'> +2.9255369E+03 </wgt>
<wgt id='1640'> +2.9225806E+03 </wgt>
<wgt id='1641'> +2.9097449E+03 </wgt>
<wgt id='1642'> +2.9101637E+03 </wgt>
<wgt id='1643'> +2.9148021E+03 </wgt>
<wgt id='1644'> +2.9242608E+03 </wgt>
<wgt id='1645'> +2.9207648E+03 </wgt>
<wgt id='1646'> +2.9213573E+03 </wgt>
<wgt id='1647'> +2.9180189E+03 </wgt>
<wgt id='1648'> +2.9347368E+03 </wgt>
<wgt id='1649'> +2.9191694E+03 </wgt>
<wgt id='1650'> +2.9139817E+03 </wgt>
<wgt id='1651'> +2.9151826E+03 </wgt>
<wgt id='1652'> +2.9085400E+03 </wgt>
<wgt id='1653'> +2.9106173E+03 </wgt>
<wgt id='1654'> +2.9179140E+03 </wgt>
<wgt id='1655'> +2.9135187E+03 </wgt>
<wgt id='1656'> +2.9192802E+03 </wgt>
<wgt id='1657'> +2.9144608E+03 </wgt>
<wgt id='1658'> +2.9069297E+03 </wgt>
<wgt id='1659'> +2.9095404E+03 </wgt>
<wgt id='1660'> +2.9092162E+03 </wgt>
<wgt id='1661'> +2.9106449E+03 </wgt>
<wgt id='1662'> +2.9105367E+03 </wgt>
<wgt id='1663'> +2.9172580E+03 </wgt>
<wgt id='1664'> +2.9156711E+03 </wgt>
<wgt id='1665'> +2.9161548E+03 </wgt>
<wgt id='1666'> +2.9099816E+03 </wgt>
<wgt id='1667'> +2.9078463E+03 </wgt>
<wgt id='1668'> +2.9184852E+03 </wgt>
<wgt id='1669'> +2.9121093E+03 </wgt>
<wgt id='1670'> +2.9142517E+03 </wgt>
<wgt id='1671'> +2.9175008E+03 </wgt>
<wgt id='1672'> +2.9133644E+03 </wgt>
<wgt id='1673'> +2.9139909E+03 </wgt>
<wgt id='1674'> +2.9110517E+03 </wgt>
<wgt id='1675'> +2.9114496E+03 </wgt>
<wgt id='1676'> +2.9160755E+03 </wgt>
<wgt id='1677'> +2.9139518E+03 </wgt>
<wgt id='1678'> +2.9129692E+03 </wgt>
<wgt id='1679'> +2.9146153E+03 </wgt>
<wgt id='1680'> +2.9151030E+03 </wgt>
<wgt id='1681'> +2.9133833E+03 </wgt>
<wgt id='1682'> +2.9140778E+03 </wgt>
<wgt id='1683'> +2.9165881E+03 </wgt>
<wgt id='1684'> +2.9140128E+03 </wgt>
<wgt id='1685'> +2.9142769E+03 </wgt>
<wgt id='1686'> +2.9148612E+03 </wgt>
<wgt id='1687'> +2.9132998E+03 </wgt>
<wgt id='1688'> +2.9121682E+03 </wgt>
<wgt id='1689'> +2.9149479E+03 </wgt>
<wgt id='1690'> +2.9152028E+03 </wgt>
<wgt id='1691'> +2.9134995E+03 </wgt>
<wgt id='1692'> +2.9114814E+03 </wgt>
<wgt id='1693'> +2.9136379E+03 </wgt>
<wgt id='1694'> +2.9121779E+03 </wgt>
<wgt id='1695'> +2.9155132E+03 </wgt>
<wgt id='1696'> +2.9115122E+03 </wgt>
<wgt id='1697'> +2.9138665E+03 </wgt>
<wgt id='1698'> +2.9121465E+03 </wgt>
<wgt id='1699'> +2.9128597E+03 </wgt>
<wgt id='1700'> +2.9137516E+03 </wgt>
<wgt id='1701'> +2.9134453E+03 </wgt>
<wgt id='1702'> +2.9131092E+03 </wgt>
<wgt id='1703'> +2.9126768E+03 </wgt>
<wgt id='1704'> +2.9128599E+03 </wgt>
<wgt id='1705'> +2.9132137E+03 </wgt>
<wgt id='1706'> +2.9138191E+03 </wgt>
<wgt id='1707'> +2.9132086E+03 </wgt>
<wgt id='1708'> +2.9126893E+03 </wgt>
<wgt id='1709'> +2.9136423E+03 </wgt>
<wgt id='1710'> +2.9142804E+03 </wgt>
<wgt id='1711'> +2.9132858E+03 </wgt>
<wgt id='1712'> +2.9136362E+03 </wgt>
<wgt id='1713'> +2.9133778E+03 </wgt>
<wgt id='1714'> +2.9130233E+03 </wgt>
<wgt id='1715'> +2.9134728E+03 </wgt>
<wgt id='1716'> +2.8626386E+03 </wgt>
<wgt id='1717'> +2.9356706E+03 </wgt>
<wgt id='1718'> +2.7974214E+03 </wgt>
<wgt id='1719'> +2.7575104E+03 </wgt>
<wgt id='1720'> +2.8489407E+03 </wgt>
<wgt id='1721'> +2.7968910E+03 </wgt>
<wgt id='1722'> +2.8213716E+03 </wgt>
<wgt id='1723'> +2.7710500E+03 </wgt>
<wgt id='1724'> +2.8189495E+03 </wgt>
<wgt id='1725'> +2.7908682E+03 </wgt>
<wgt id='1726'> +2.8044237E+03 </wgt>
<wgt id='1727'> +2.7462156E+03 </wgt>
<wgt id='1728'> +2.8001868E+03 </wgt>
<wgt id='1729'> +2.9794815E+03 </wgt>
<wgt id='1730'> +2.8025392E+03 </wgt>
<wgt id='1731'> +2.7962959E+03 </wgt>
<wgt id='1732'> +2.8299233E+03 </wgt>
<wgt id='1733'> +2.8028990E+03 </wgt>
<wgt id='1734'> +2.7992895E+03 </wgt>
<wgt id='1735'> +2.7744051E+03 </wgt>
<wgt id='1736'> +2.7955317E+03 </wgt>
<wgt id='1737'> +2.8101680E+03 </wgt>
<wgt id='1738'> +2.7945394E+03 </wgt>
<wgt id='1739'> +2.8022252E+03 </wgt>
<wgt id='1740'> +2.7910735E+03 </wgt>
<wgt id='1741'> +2.7906683E+03 </wgt>
<wgt id='1742'> +2.7939057E+03 </wgt>
<wgt id='1743'> +2.8033232E+03 </wgt>
<wgt id='1744'> +2.7759892E+03 </wgt>
<wgt id='1745'> +2.8081744E+03 </wgt>
<wgt id='1746'> +2.8006456E+03 </wgt>
<wgt id='1747'> +2.8481484E+03 </wgt>
<wgt id='1748'> +2.7941291E+03 </wgt>
<wgt id='1749'> +2.7646706E+03 </wgt>
<wgt id='1750'> +2.8261105E+03 </wgt>
<wgt id='1751'> +2.9135216E+03 </wgt>
<wgt id='1752'> +2.9953158E+03 </wgt>
<wgt id='1753'> +2.8350820E+03 </wgt>
<wgt id='1754'> +2.9095449E+03 </wgt>
<wgt id='1755'> +3.0233404E+03 </wgt>
<wgt id='1756'> +2.8910381E+03 </wgt>
<wgt id='1757'> +2.9244153E+03 </wgt>
<wgt id='1758'> +2.9129894E+03 </wgt>
<wgt id='1759'> +2.9330699E+03 </wgt>
<wgt id='1760'> +2.9301616E+03 </wgt>
<wgt id='1761'> +2.9766471E+03 </wgt>
<wgt id='1762'> +2.8732876E+03 </wgt>
<wgt id='1763'> +2.9006615E+03 </wgt>
<wgt id='1764'> +2.9093664E+03 </wgt>
<wgt id='1765'> +2.9176412E+03 </wgt>
<wgt id='1766'> +2.9286042E+03 </wgt>
<wgt id='1767'> +2.9165888E+03 </wgt>
<wgt id='1768'> +2.9085136E+03 </wgt>
<wgt id='1769'> +2.9141448E+03 </wgt>
<wgt id='1770'> +2.9422830E+03 </wgt>
<wgt id='1771'> +2.8343193E+03 </wgt>
<wgt id='1772'> +2.8969271E+03 </wgt>
<wgt id='1773'> +2.8928973E+03 </wgt>
<wgt id='1774'> +2.9128380E+03 </wgt>
<wgt id='1775'> +2.8967040E+03 </wgt>
<wgt id='1776'> +2.9670447E+03 </wgt>
<wgt id='1777'> +2.9125752E+03 </wgt>
<wgt id='1778'> +2.8958954E+03 </wgt>
<wgt id='1779'> +2.9024257E+03 </wgt>
<wgt id='1780'> +2.9221052E+03 </wgt>
<wgt id='1781'> +2.8922516E+03 </wgt>
<wgt id='1782'> +2.8626386E+03 </wgt>
<wgt id='1783'> +2.9356706E+03 </wgt>
<wgt id='1784'> +3.1677201E+03 </wgt>
<wgt id='1785'> +3.1721080E+03 </wgt>
<wgt id='1786'> +3.1633588E+03 </wgt>
<wgt id='1787'> +3.1701592E+03 </wgt>
<wgt id='1788'> +3.1652650E+03 </wgt>
<wgt id='1789'> +3.1690429E+03 </wgt>
<wgt id='1790'> +3.1663681E+03 </wgt>
<wgt id='1791'> +3.1551725E+03 </wgt>
<wgt id='1792'> +3.1799674E+03 </wgt>
<wgt id='1793'> +3.1799590E+03 </wgt>
<wgt id='1794'> +3.1554548E+03 </wgt>
<wgt id='1795'> +3.1732742E+03 </wgt>
<wgt id='1796'> +3.1599680E+03 </wgt>
<wgt id='1797'> +3.1604895E+03 </wgt>
<wgt id='1798'> +3.1746939E+03 </wgt>
<wgt id='1799'> +3.1635560E+03 </wgt>
<wgt id='1800'> +3.1780577E+03 </wgt>
<wgt id='1801'> +3.1613699E+03 </wgt>
<wgt id='1802'> +3.1676741E+03 </wgt>
<wgt id='1803'> +3.1662527E+03 </wgt>
<wgt id='1804'> +3.1715097E+03 </wgt>
<wgt id='1805'> +3.1805594E+03 </wgt>
<wgt id='1806'> +3.1513458E+03 </wgt>
<wgt id='1807'> +3.1512775E+03 </wgt>
<wgt id='1808'> +3.1717249E+03 </wgt>
<wgt id='1809'> +3.1840768E+03 </wgt>
<wgt id='1810'> +3.1561434E+03 </wgt>
<wgt id='1811'> +3.1494082E+03 </wgt>
<wgt id='1812'> +3.1824298E+03 </wgt>
<wgt id='1813'> +3.1677201E+03 </wgt>
<wgt id='1814'> +3.0306682E+03 </wgt>
<wgt id='1815'> +3.3409877E+03 </wgt>
<wgt id='1816'> +3.0070013E+03 </wgt>
<wgt id='1817'> +3.2818451E+03 </wgt>
<wgt id='1818'> +3.1882760E+03 </wgt>
<wgt id='1819'> +3.1537082E+03 </wgt>
<wgt id='1820'> +3.1608127E+03 </wgt>
<wgt id='1821'> +3.1747110E+03 </wgt>
<wgt id='1822'> +3.1403986E+03 </wgt>
<wgt id='1823'> +3.1960202E+03 </wgt>
<wgt id='1824'> +3.1807102E+03 </wgt>
<wgt id='1825'> +3.1844548E+03 </wgt>
<wgt id='1826'> +3.0924925E+03 </wgt>
<wgt id='1827'> +3.2316959E+03 </wgt>
<wgt id='1828'> +3.2371218E+03 </wgt>
<wgt id='1829'> +3.2273685E+03 </wgt>
<wgt id='1830'> +3.2344052E+03 </wgt>
<wgt id='1831'> +3.2300453E+03 </wgt>
<wgt id='1832'> +3.2357259E+03 </wgt>
<wgt id='1833'> +3.2287195E+03 </wgt>
<wgt id='1834'> +3.2195852E+03 </wgt>
<wgt id='1835'> +3.2443430E+03 </wgt>
<wgt id='1836'> +3.2421109E+03 </wgt>
<wgt id='1837'> +3.2219646E+03 </wgt>
<wgt id='1838'> +3.2335883E+03 </wgt>
<wgt id='1839'> +3.2307995E+03 </wgt>
<wgt id='1840'> +3.2213115E+03 </wgt>
<wgt id='1841'> +3.2434427E+03 </wgt>
<wgt id='1842'> +3.2329252E+03 </wgt>
<wgt id='1843'> +3.2405690E+03 </wgt>
<wgt id='1844'> +3.2309411E+03 </wgt>
<wgt id='1845'> +3.2327235E+03 </wgt>
<wgt id='1846'> +3.2380037E+03 </wgt>
<wgt id='1847'> +3.2260628E+03 </wgt>
<wgt id='1848'> +3.2058484E+03 </wgt>
<wgt id='1849'> +3.2546436E+03 </wgt>
<wgt id='1850'> +3.2354158E+03 </wgt>
<wgt id='1851'> +3.2296689E+03 </wgt>
<wgt id='1852'> +3.2208858E+03 </wgt>
<wgt id='1853'> +3.2364416E+03 </wgt>
<wgt id='1854'> +3.2240496E+03 </wgt>
<wgt id='1855'> +3.2370029E+03 </wgt>
<wgt id='1856'> +3.2316959E+03 </wgt>
<wgt id='1857'> +3.0765787E+03 </wgt>
<wgt id='1858'> +3.4221655E+03 </wgt>
<wgt id='1859'> +3.0495880E+03 </wgt>
<wgt id='1860'> +3.3610526E+03 </wgt>
<wgt id='1861'> +3.2321162E+03 </wgt>
<wgt id='1862'> +3.2190968E+03 </wgt>
<wgt id='1863'> +3.2251505E+03 </wgt>
<wgt id='1864'> +3.2452284E+03 </wgt>
<wgt id='1865'> +3.1944824E+03 </wgt>
<wgt id='1866'> +3.2552071E+03 </wgt>
<wgt id='1867'> +3.2114723E+03 </wgt>
<wgt id='1868'> +3.2706332E+03 </wgt>
<wgt id='1869'> +3.1752999E+03 </wgt>
<wgt id='1870'> +2.8180760E+03 </wgt>
<wgt id='1871'> +2.8173194E+03 </wgt>
<wgt id='1872'> +2.8165455E+03 </wgt>
<wgt id='1873'> +2.8157690E+03 </wgt>
<wgt id='1874'> +2.8149976E+03 </wgt>
<wgt id='1875'> +2.8142228E+03 </wgt>
<wgt id='1876'> +2.8134654E+03 </wgt>
<wgt id='1877'> +2.8126905E+03 </wgt>
<wgt id='1878'> +2.8119173E+03 </wgt>
<wgt id='1879'> +2.8111381E+03 </wgt>
<wgt id='1880'> +2.8103666E+03 </wgt>
<wgt id='1881'> +2.8095923E+03 </wgt>
<wgt id='1882'> +2.8088326E+03 </wgt>
<wgt id='1883'> +2.8080593E+03 </wgt>
<wgt id='1884'> +2.8072879E+03 </wgt>
<wgt id='1885'> +2.8065114E+03 </wgt>
<wgt id='1886'> +2.8057412E+03 </wgt>
<wgt id='1887'> +2.8049666E+03 </wgt>
<wgt id='1888'> +2.8042104E+03 </wgt>
<wgt id='1889'> +2.8034339E+03 </wgt>
<wgt id='1890'> +2.8026614E+03 </wgt>
<wgt id='1891'> +2.8018923E+03 </wgt>
<wgt id='1892'> +2.8011159E+03 </wgt>
<wgt id='1893'> +2.8003654E+03 </wgt>
<wgt id='1894'> +2.7995925E+03 </wgt>
<wgt id='1895'> +2.7988356E+03 </wgt>
<wgt id='1896'> +2.7980620E+03 </wgt>
<wgt id='1897'> +2.7972919E+03 </wgt>
<wgt id='1898'> +2.7965195E+03 </wgt>
<wgt id='1899'> +2.7957484E+03 </wgt>
<wgt id='1900'> +2.7949725E+03 </wgt>
<wgt id='1901'> +2.9021874E+03 </wgt>
<wgt id='1902'> +2.9270362E+03 </wgt>
<wgt id='1903'> +2.9080661E+03 </wgt>
<wgt id='1904'> +2.8827249E+03 </wgt>
<wgt id='1905'> +2.8141010E+03 </wgt>
<wgt id='1906'> +2.7734160E+03 </wgt>
<wgt id='1907'> +2.8456202E+03 </wgt>
<wgt id='1908'> +2.9135375E+03 </wgt>
<wgt id='1909'> +2.9146060E+03 </wgt>
<wgt id='1910'> +2.8760547E+03 </wgt>
<wgt id='1911'> +2.9502885E+03 </wgt>
<wgt id='1912'> +2.7904142E+03 </wgt>
<wgt id='1913'> +2.8507354E+03 </wgt>
<wgt id='1914'> +2.8664710E+03 </wgt>
<wgt id='1915'> +2.8948412E+03 </wgt>
<wgt id='1916'> +2.9087470E+03 </wgt>
<wgt id='1917'> +2.8936533E+03 </wgt>
<wgt id='1918'> +2.9119168E+03 </wgt>
<wgt id='1919'> +2.8987319E+03 </wgt>
<wgt id='1920'> +2.8760458E+03 </wgt>
<wgt id='1921'> +2.9138675E+03 </wgt>
<wgt id='1922'> +2.9077120E+03 </wgt>
<wgt id='1923'> +2.8877769E+03 </wgt>
<wgt id='1924'> +2.8988499E+03 </wgt>
<wgt id='1925'> +2.9139498E+03 </wgt>
<wgt id='1926'> +2.9107681E+03 </wgt>
<wgt id='1927'> +2.8980185E+03 </wgt>
<wgt id='1928'> +2.8993282E+03 </wgt>
<wgt id='1929'> +2.9036524E+03 </wgt>
<wgt id='1930'> +2.9126670E+03 </wgt>
<wgt id='1931'> +2.9091839E+03 </wgt>
<wgt id='1932'> +2.9104771E+03 </wgt>
<wgt id='1933'> +2.9064623E+03 </wgt>
<wgt id='1934'> +2.9231528E+03 </wgt>
<wgt id='1935'> +2.9077909E+03 </wgt>
<wgt id='1936'> +2.9024864E+03 </wgt>
<wgt id='1937'> +2.9038987E+03 </wgt>
<wgt id='1938'> +2.8972563E+03 </wgt>
<wgt id='1939'> +2.8992639E+03 </wgt>
<wgt id='1940'> +2.9063509E+03 </wgt>
<wgt id='1941'> +2.9021616E+03 </wgt>
<wgt id='1942'> +2.9078186E+03 </wgt>
<wgt id='1943'> +2.9030503E+03 </wgt>
<wgt id='1944'> +2.8958447E+03 </wgt>
<wgt id='1945'> +2.8982215E+03 </wgt>
<wgt id='1946'> +2.8978637E+03 </wgt>
<wgt id='1947'> +2.8994816E+03 </wgt>
<wgt id='1948'> +2.8991785E+03 </wgt>
<wgt id='1949'> +2.9060364E+03 </wgt>
<wgt id='1950'> +2.9042354E+03 </wgt>
<wgt id='1951'> +2.9048520E+03 </wgt>
<wgt id='1952'> +2.8986326E+03 </wgt>
<wgt id='1953'> +2.8965266E+03 </wgt>
<wgt id='1954'> +2.9071308E+03 </wgt>
<wgt id='1955'> +2.9008474E+03 </wgt>
<wgt id='1956'> +2.9029751E+03 </wgt>
<wgt id='1957'> +2.9059655E+03 </wgt>
<wgt id='1958'> +2.9020682E+03 </wgt>
<wgt id='1959'> +2.9028178E+03 </wgt>
<wgt id='1960'> +2.8998269E+03 </wgt>
<wgt id='1961'> +2.9002035E+03 </wgt>
<wgt id='1962'> +2.9047669E+03 </wgt>
<wgt id='1963'> +2.9025236E+03 </wgt>
<wgt id='1964'> +2.9015615E+03 </wgt>
<wgt id='1965'> +2.9032979E+03 </wgt>
<wgt id='1966'> +2.9037222E+03 </wgt>
<wgt id='1967'> +2.9020117E+03 </wgt>
<wgt id='1968'> +2.9026690E+03 </wgt>
<wgt id='1969'> +2.9052470E+03 </wgt>
<wgt id='1970'> +2.9026047E+03 </wgt>
<wgt id='1971'> +2.9029111E+03 </wgt>
<wgt id='1972'> +2.9035770E+03 </wgt>
<wgt id='1973'> +2.9019112E+03 </wgt>
<wgt id='1974'> +2.9008063E+03 </wgt>
<wgt id='1975'> +2.9036000E+03 </wgt>
<wgt id='1976'> +2.9038715E+03 </wgt>
<wgt id='1977'> +2.9022205E+03 </wgt>
<wgt id='1978'> +2.9001739E+03 </wgt>
<wgt id='1979'> +2.9023653E+03 </wgt>
<wgt id='1980'> +2.9008468E+03 </wgt>
<wgt id='1981'> +2.9041016E+03 </wgt>
<wgt id='1982'> +2.9002955E+03 </wgt>
<wgt id='1983'> +2.9025631E+03 </wgt>
<wgt id='1984'> +2.9008272E+03 </wgt>
<wgt id='1985'> +2.9014985E+03 </wgt>
<wgt id='1986'> +2.9024394E+03 </wgt>
<wgt id='1987'> +2.9022275E+03 </wgt>
<wgt id='1988'> +2.9017166E+03 </wgt>
<wgt id='1989'> +2.9013377E+03 </wgt>
<wgt id='1990'> +2.9015099E+03 </wgt>
<wgt id='1991'> +2.9018621E+03 </wgt>
<wgt id='1992'> +2.9023718E+03 </wgt>
<wgt id='1993'> +2.9018283E+03 </wgt>
<wgt id='1994'> +2.9013739E+03 </wgt>
<wgt id='1995'> +2.9022566E+03 </wgt>
<wgt id='1996'> +2.9029069E+03 </wgt>
<wgt id='1997'> +2.9019638E+03 </wgt>
<wgt id='1998'> +2.9023237E+03 </wgt>
<wgt id='1999'> +2.9020313E+03 </wgt>
<wgt id='2000'> +2.9017129E+03 </wgt>
<wgt id='2001'> +2.9021412E+03 </wgt>
<wgt id='2002'> +2.9021778E+03 </wgt>
<wgt id='2003'> +2.9021267E+03 </wgt>
<wgt id='2004'> +2.9021968E+03 </wgt>
<wgt id='2005'> +2.9021986E+03 </wgt>
<wgt id='2006'> +2.9022155E+03 </wgt>
<wgt id='2007'> +2.9021915E+03 </wgt>
<wgt id='2008'> +2.9021474E+03 </wgt>
<wgt id='2009'> +2.7720211E+03 </wgt>
<wgt id='2010'> +2.6297487E+03 </wgt>
<wgt id='2011'> +2.5546114E+03 </wgt>
<wgt id='2012'> +2.6417291E+03 </wgt>
<wgt id='2013'> +2.6961399E+03 </wgt>
<wgt id='2014'> +2.6457644E+03 </wgt>
<wgt id='2015'> +2.7889029E+03 </wgt>
<wgt id='2016'> +2.8117907E+03 </wgt>
<wgt id='2017'> +2.7182347E+03 </wgt>
<wgt id='2018'> +2.7906733E+03 </wgt>
<wgt id='2019'> +2.9717898E+03 </wgt>
<wgt id='2020'> +4.0402249E+03 </wgt>
<wgt id='2021'> +2.6975801E+03 </wgt>
<wgt id='2022'> +2.4062012E+03 </wgt>
<wgt id='2023'> +2.9706475E+03 </wgt>
<wgt id='2024'> +2.7962761E+03 </wgt>
<wgt id='2025'> +2.7797514E+03 </wgt>
<wgt id='2026'> +2.8289789E+03 </wgt>
<wgt id='2027'> +2.7138356E+03 </wgt>
<wgt id='2028'> +2.7233046E+03 </wgt>
<wgt id='2029'> +2.4917323E+03 </wgt>
<wgt id='2030'> +2.7015419E+03 </wgt>
<wgt id='2031'> +3.0699826E+03 </wgt>
<wgt id='2032'> +2.8027750E+03 </wgt>
<wgt id='2033'> +2.6864948E+03 </wgt>
<wgt id='2034'> +2.7160541E+03 </wgt>
<wgt id='2035'> +2.7743716E+03 </wgt>
<wgt id='2036'> +2.6584076E+03 </wgt>
<wgt id='2037'> +2.8605122E+03 </wgt>
<wgt id='2038'> +2.5290587E+03 </wgt>
<wgt id='2039'> +2.5705490E+03 </wgt>
<wgt id='2040'> +2.4607737E+03 </wgt>
<wgt id='2041'> +3.4659437E+03 </wgt>
<wgt id='2042'> +2.5310622E+03 </wgt>
<wgt id='2043'> +2.8326460E+03 </wgt>
<wgt id='2044'> +2.6308252E+03 </wgt>
<wgt id='2045'> +2.6220002E+03 </wgt>
<wgt id='2046'> +2.6691054E+03 </wgt>
<wgt id='2047'> +3.1570774E+03 </wgt>
<wgt id='2048'> +2.6802185E+03 </wgt>
<wgt id='2049'> +2.7205146E+03 </wgt>
<wgt id='2050'> +2.7607754E+03 </wgt>
<wgt id='2051'> +2.7590004E+03 </wgt>
<wgt id='2052'> +2.8743099E+03 </wgt>
<wgt id='2053'> +2.8234523E+03 </wgt>
<wgt id='2054'> +2.7308017E+03 </wgt>
<wgt id='2055'> +2.6813452E+03 </wgt>
<wgt id='2056'> +2.8015666E+03 </wgt>
<wgt id='2057'> +2.7270555E+03 </wgt>
<wgt id='2058'> +2.5078651E+03 </wgt>
<wgt id='2059'> +2.6494520E+03 </wgt>
<wgt id='2060'> +2.7537196E+03 </wgt>
<wgt id='2061'> +2.6894034E+03 </wgt>
<wgt id='2062'> +2.9999046E+03 </wgt>
<wgt id='2063'> +2.8131285E+03 </wgt>
<wgt id='2064'> +2.7914951E+03 </wgt>
<wgt id='2065'> +2.7986912E+03 </wgt>
<wgt id='2066'> +2.4305866E+03 </wgt>
<wgt id='2067'> +2.8061500E+03 </wgt>
<wgt id='2068'> +2.4991410E+03 </wgt>
<wgt id='2069'> +2.7400933E+03 </wgt>
<wgt id='2070'> +2.5894569E+03 </wgt>
<wgt id='2071'> +2.6961156E+03 </wgt>
<wgt id='2072'> +2.8474722E+03 </wgt>
<wgt id='2073'> +2.8297450E+03 </wgt>
<wgt id='2074'> +2.7818876E+03 </wgt>
<wgt id='2075'> +2.6439568E+03 </wgt>
<wgt id='2076'> +3.1785566E+03 </wgt>
<wgt id='2077'> +2.6290893E+03 </wgt>
<wgt id='2078'> +2.8719504E+03 </wgt>
<wgt id='2079'> +2.7699492E+03 </wgt>
<wgt id='2080'> +2.8943713E+03 </wgt>
<wgt id='2081'> +3.2433084E+03 </wgt>
<wgt id='2082'> +3.2123403E+03 </wgt>
<wgt id='2083'> +2.8305804E+03 </wgt>
<wgt id='2084'> +2.7410100E+03 </wgt>
<wgt id='2085'> +3.7211362E+03 </wgt>
<wgt id='2086'> +3.0946076E+03 </wgt>
<wgt id='2087'> +2.8171399E+03 </wgt>
<wgt id='2088'> +2.9019204E+03 </wgt>
<wgt id='2089'> +2.7100818E+03 </wgt>
<wgt id='2090'> +2.8784665E+03 </wgt>
<wgt id='2091'> +2.6211893E+03 </wgt>
<wgt id='2092'> +2.7532182E+03 </wgt>
<wgt id='2093'> +2.6988399E+03 </wgt>
<wgt id='2094'> +2.7265975E+03 </wgt>
<wgt id='2095'> +2.8548434E+03 </wgt>
<wgt id='2096'> +2.8370211E+03 </wgt>
<wgt id='2097'> +2.7265659E+03 </wgt>
<wgt id='2098'> +2.9204569E+03 </wgt>
<wgt id='2099'> +2.6854619E+03 </wgt>
<wgt id='2100'> +2.6478404E+03 </wgt>
<wgt id='2101'> +2.7393921E+03 </wgt>
<wgt id='2102'> +2.6883363E+03 </wgt>
<wgt id='2103'> +2.8256969E+03 </wgt>
<wgt id='2104'> +2.5216792E+03 </wgt>
<wgt id='2105'> +2.8694471E+03 </wgt>
<wgt id='2106'> +2.5693425E+03 </wgt>
<wgt id='2107'> +2.4530062E+03 </wgt>
<wgt id='2108'> +2.5244558E+03 </wgt>
<wgt id='2109'> +2.2707101E+03 </wgt>
<wgt id='2110'> +2.7051252E+03 </wgt>
<wgt id='2111'> +2.7725145E+03 </wgt>
<wgt id='2112'> +2.8512132E+03 </wgt>
<wgt id='2113'> +1.1908339E+03 </wgt>
<wgt id='2114'> +1.8142810E+03 </wgt>
<wgt id='2115'> +2.3765974E+03 </wgt>
<wgt id='2116'> +2.6984821E+03 </wgt>
</rwgt>
</event>
<event>
 8      8 +2.9771057E+03 1.19872600e+02 7.54677100e-03 1.13323300e-01
       -2 -1    0    0    0  501 +0.0000000000e+00 +0.0000000000e+00 +2.7377314632e+01 2.7377314632e+01 0.0000000000e+00 0.0000e+00 1.0000e+00
       -2 -1    0    0    0  502 -0.0000000000e+00 -0.0000000000e+00 -9.9367168238e+02 9.9367168238e+02 0.0000000000e+00 0.0000e+00 1.0000e+00
      -24  2    1    2    0    0 +8.0973964438e+01 +1.5581059300e+01 -6.9527841196e+02 7.0470442912e+02 7.9979434607e+01 0.0000e+00 0.0000e+00
       15  1    3    3    0    0 -1.6225365573e+01 -9.7265887195e-02 -1.0939674320e+02 1.1060776239e+02 1.7770000000e+00 0.0000e+00 -1.0000e+00
      -16  1    3    3    0    0 +9.7199330011e+01 +1.5678325188e+01 -5.8588166875e+02 5.9409666673e+02 0.0000000000e+00 0.0000e+00 1.0000e+00
       21  1    1    2  503  501 -2.2917474087e+01 -4.6741725930e+00 -3.0334738395e+01 3.8304762908e+01 0.0000000000e+00 0.0000e+00 1.0000e+00
       -2  1    1    2    0  502 +2.6320977123e+01 -1.6245333798e+01 -1.0244869366e+01 3.2583156005e+01 0.0000000000e+00 0.0000e+00 1.0000e+00
       -1  1    1    2    0  503 -8.4377467475e+01 +5.3384470908e+00 -2.3043634803e+02 2.4545664898e+02 0.0000000000e+00 0.0000e+00 1.0000e+00
<scales pt_clust_4="13000.00000" pt_clust_5="13000.00000" pt_clust_6="16.68524" pt_clust_7="30.93064" pt_clust_8="94.75790"></scales>
<mgrwt>
<rscale>  0 0.11987258E+03</rscale>
<asrwt>  3 0.16685240E+02 0.30930643E+02 0.94757902E+02</asrwt>
<pdfrwt beam="1">  1       -2 0.42118941E-02 0.11987258E+03</pdfrwt>
<pdfrwt beam="2">  1       -2 0.15287258E+00 0.11987258E+03</pdfrwt>
<totfact> 0.15760502E+00</totfact>
</mgrwt>
<clustering>
<clus scale="   16.685">  6  8 -1 -1</clus>
<clus scale="   30.931">  1  7  2 -1</clus>
<clus scale="   79.979">  4  5 -1 -1</clus>
<clus scale="   94.758">  1  6  2 -1</clus>
<clus scale="  119.873">  1  4  2 -1</clus>
</clustering>
<rwgt>
<wgt id='1001'> +2.9771057E+03 </wgt>
<wgt id='1002'> +3.0000096E+03 </wgt>
<wgt id='1003'> +3.0000153E+03 </wgt>
<wgt id='1004'> +2.9797366E+03 </wgt>
<wgt id='1005'> +3.0027300E+03 </wgt>
<wgt id='1006'> +2.9771057E+03 </wgt>
<wgt id='1007'> +3.0000096E+03 </wgt>
<wgt id='1008'> +3.0000153E+03 </wgt>
<wgt id='1009'> +2.9797366E+03 </wgt>
<wgt id='1010'> +3.0027300E+03 </wgt>
<wgt id='1011'> +2.9771057E+03 </wgt>
<wgt id='1012'> +3.0000096E+03 </wgt>
<wgt id='1013'> +3.0000153E+03 </wgt>
<wgt id='1014'> +2.9797366E+03 </wgt>
<wgt id='1015'> +3.0027300E+03 </wgt>
<wgt id='1016'> +2.9991128E+03 </wgt>
<wgt id='1017'> +3.0023407E+03 </wgt>
<wgt id='1018'> +3.0023379E+03 </wgt>
<wgt id='1019'> +3.0000153E+03 </wgt>
<wgt id='1020'> +2.9994681E+03 </wgt>
<wgt id='1021'> +2.9991128E+03 </wgt>
<wgt id='1022'> +3.0023407E+03 </wgt>
<wgt id='1023'> +3.0023379E+03 </wgt>
<wgt id='1024'> +3.0000153E+03 </wgt>
<wgt id='1025'> +2.9994681E+03 </wgt>
<wgt id='1026'> +2.9991128E+03 </wgt>
<wgt id='1027'> +3.0023407E+03 </wgt>
<wgt id='1028'> +3.0023379E+03 </wgt>
<wgt id='1029'> +3.0000153E+03 </wgt>
<wgt id='1030'> +2.9994681E+03 </wgt>
<wgt id='1031'> +2.9297913E+03 </wgt>
<wgt id='1032'> +2.9797196E+03 </wgt>
<wgt id='1033'> +2.9797366E+03 </wgt>
<wgt id='1034'> +2.9347892E+03 </wgt>
<wgt id='1035'> +2.9899375E+03 </wgt>
<wgt id='1036'> +2.9297913E+03 </wgt>
<wgt id='1037'> +2.9797196E+03 </wgt>
<wgt id='1038'> +2.9797366E+03 </wgt>
<wgt id='1039'> +2.9347892E+03 </wgt>
<wgt id='1040'> +2.9899375E+03 </wgt>
<wgt id='1041'> +2.9297913E+03 </wgt>
<wgt id='1042'> +2.9797196E+03 </wgt>
<wgt id='1043'> +2.9797366E+03 </wgt>
<wgt id='1044'> +2.9347892E+03 </wgt>
<wgt id='1045'> +2.9899375E+03 </wgt>
<wgt id='1046'> +2.9771057E+03 </wgt>
<wgt id='1047'> +2.9782163E+03 </wgt>
<wgt id='1048'> +2.9830696E+03 </wgt>
<wgt id='1049'> +2.9733348E+03 </wgt>
<wgt id='1050'> +2.9951016E+03 </wgt>
<wgt id='1051'> +2.9760123E+03 </wgt>
<wgt id='1052'> +2.9701677E+03 </wgt>
<wgt id='1053'> +2.9908836E+03 </wgt>
<wgt id='1054'> +2.9834131E+03 </wgt>
<wgt id='1055'> +2.9995500E+03 </wgt>
<wgt id='1056'> +2.9582066E+03 </wgt>
<wgt id='1057'> +2.9603855E+03 </wgt>
<wgt id='1058'> +2.9991715E+03 </wgt>
<wgt id='1059'> +2.9625307E+03 </wgt>
<wgt id='1060'> +2.9887519E+03 </wgt>
<wgt id='1061'> +2.9845321E+03 </wgt>
<wgt id='1062'> +2.9990412E+03 </wgt>
<wgt id='1063'> +2.9650867E+03 </wgt>
<wgt id='1064'> +2.9530334E+03 </wgt>
<wgt id='1065'> +2.9794598E+03 </wgt>
<wgt id='1066'> +2.9734722E+03 </wgt>
<wgt id='1067'> +3.0022348E+03 </wgt>
<wgt id='1068'> +2.9776548E+03 </wgt>
<wgt id='1069'> +2.9568392E+03 </wgt>
<wgt id='1070'> +2.9822583E+03 </wgt>
<wgt id='1071'> +2.9821846E+03 </wgt>
<wgt id='1072'> +2.9397415E+03 </wgt>
<wgt id='1073'> +2.9625195E+03 </wgt>
<wgt id='1074'> +2.9848175E+03 </wgt>
<wgt id='1075'> +2.9774047E+03 </wgt>
<wgt id='1076'> +2.9593919E+03 </wgt>
<wgt id='1077'> +2.9958345E+03 </wgt>
<wgt id='1078'> +3.0004365E+03 </wgt>
<wgt id='1079'> +2.9795514E+03 </wgt>
<wgt id='1080'> +2.9628361E+03 </wgt>
<wgt id='1081'> +3.0162442E+03 </wgt>
<wgt id='1082'> +2.9964982E+03 </wgt>
<wgt id='1083'> +2.9533998E+03 </wgt>
<wgt id='1084'> +2.9938801E+03 </wgt>
<wgt id='1085'> +2.9698565E+03 </wgt>
<wgt id='1086'> +2.9758355E+03 </wgt>
<wgt id='1087'> +2.9847900E+03 </wgt>
<wgt id='1088'> +2.9833088E+03 </wgt>
<wgt id='1089'> +2.9591464E+03 </wgt>
<wgt id='1090'> +2.9829245E+03 </wgt>
<wgt id='1091'> +2.9638881E+03 </wgt>
<wgt id='1092'> +2.9882339E+03 </wgt>
<wgt id='1093'> +2.9752753E+03 </wgt>
<wgt id='1094'> +3.0061104E+03 </wgt>
<wgt id='1095'> +2.9896762E+03 </wgt>
<wgt id='1096'> +2.9687288E+03 </wgt>
<wgt id='1097'> +2.9844687E+03 </wgt>
<wgt id='1098'> +2.9828470E+03 </wgt>
<wgt id='1099'> +2.9784883E+03 </wgt>
<wgt id='1100'> +2.9775442E+03 </wgt>
<wgt id='1101'> +2.9851908E+03 </wgt>
<wgt id='1102'> +2.9822684E+03 </wgt>
<wgt id='1103'> +2.9639431E+03 </wgt>
<wgt id='1104'> +2.9767596E+03 </wgt>
<wgt id='1105'> +2.9530538E+03 </wgt>
<wgt id='1106'> +2.9511612E+03 </wgt>
<wgt id='1107'> +2.9607995E+03 </wgt>
<wgt id='1108'> +2.9814564E+03 </wgt>
<wgt id='1109'> +2.9767474E+03 </wgt>
<wgt id='1110'> +2.9486766E+03 </wgt>
<wgt id='1111'> +2.9803537E+03 </wgt>
<wgt id='1112'> +2.9809408E+03 </wgt>
<wgt id='1113'> +2.9729147E+03 </wgt>
<wgt id='1114'> +2.9784251E+03 </wgt>
<wgt id='1115'> +2.9906936E+03 </wgt>
<wgt id='1116'> +2.9793373E+03 </wgt>
<wgt id='1117'> +2.9828627E+03 </wgt>
<wgt id='1118'> +2.9927938E+03 </wgt>
<wgt id='1119'> +2.9729665E+03 </wgt>
<wgt id='1120'> +2.9680120E+03 </wgt>
<wgt id='1121'> +3.0036963E+03 </wgt>
<wgt id='1122'> +2.9987272E+03 </wgt>
<wgt id='1123'> +2.9926772E+03 </wgt>
<wgt id='1124'> +2.9769454E+03 </wgt>
<wgt id='1125'> +2.9871609E+03 </wgt>
<wgt id='1126'> +2.9805255E+03 </wgt>
<wgt id='1127'> +2.9669345E+03 </wgt>
<wgt id='1128'> +2.9800772E+03 </wgt>
<wgt id='1129'> +2.9638857E+03 </wgt>
<wgt id='1130'> +2.9941193E+03 </wgt>
<wgt id='1131'> +2.9645567E+03 </wgt>
<wgt id='1132'> +2.9861050E+03 </wgt>
<wgt id='1133'> +2.9653205E+03 </wgt>
<wgt id='1134'> +2.9885142E+03 </wgt>
<wgt id='1135'> +2.9701340E+03 </wgt>
<wgt id='1136'> +2.9568644E+03 </wgt>
<wgt id='1137'> +2.9709687E+03 </wgt>
<wgt id='1138'> +2.9931834E+03 </wgt>
<wgt id='1139'> +2.9711262E+03 </wgt>
<wgt id='1140'> +2.9957674E+03 </wgt>
<wgt id='1141'> +2.9860944E+03 </wgt>
<wgt id='1142'> +2.9659411E+03 </wgt>
<wgt id='1143'> +2.9865959E+03 </wgt>
<wgt id='1144'> +2.9665986E+03 </wgt>
<wgt id='1145'> +2.9949013E+03 </wgt>
<wgt id='1146'> +2.9683201E+03 </wgt>
<wgt id='1147'> +2.8296888E+03 </wgt>
<wgt id='1148'> +3.1324077E+03 </wgt>
<wgt id='1149'> +2.2972146E+03 </wgt>
<wgt id='1150'> +2.4142081E+03 </wgt>
<wgt id='1151'> +2.5318314E+03 </wgt>
<wgt id='1152'> +2.6947135E+03 </wgt>
<wgt id='1153'> +2.8698265E+03 </wgt>
<wgt id='1154'> +3.0686752E+03 </wgt>
<wgt id='1155'> +3.2900749E+03 </wgt>
<wgt id='1156'> +3.4580262E+03 </wgt>
<wgt id='1157'> +3.1192907E+03 </wgt>
<wgt id='1158'> +3.1207560E+03 </wgt>
<wgt id='1159'> +3.1286118E+03 </wgt>
<wgt id='1160'> +3.1060702E+03 </wgt>
<wgt id='1161'> +3.1408088E+03 </wgt>
<wgt id='1162'> +3.1077487E+03 </wgt>
<wgt id='1163'> +3.1025978E+03 </wgt>
<wgt id='1164'> +3.1194090E+03 </wgt>
<wgt id='1165'> +3.1150332E+03 </wgt>
<wgt id='1166'> +3.1252591E+03 </wgt>
<wgt id='1167'> +3.0907155E+03 </wgt>
<wgt id='1168'> +3.1193320E+03 </wgt>
<wgt id='1169'> +3.1277919E+03 </wgt>
<wgt id='1170'> +3.1317421E+03 </wgt>
<wgt id='1171'> +3.1394310E+03 </wgt>
<wgt id='1172'> +3.1033257E+03 </wgt>
<wgt id='1173'> +3.1356734E+03 </wgt>
<wgt id='1174'> +3.1171624E+03 </wgt>
<wgt id='1175'> +3.1232960E+03 </wgt>
<wgt id='1176'> +3.1174117E+03 </wgt>
<wgt id='1177'> +3.1154051E+03 </wgt>
<wgt id='1178'> +3.1407673E+03 </wgt>
<wgt id='1179'> +3.1272367E+03 </wgt>
<wgt id='1180'> +3.1185305E+03 </wgt>
<wgt id='1181'> +3.1386696E+03 </wgt>
<wgt id='1182'> +3.0968647E+03 </wgt>
<wgt id='1183'> +3.1128232E+03 </wgt>
<wgt id='1184'> +3.1399012E+03 </wgt>
<wgt id='1185'> +3.1066638E+03 </wgt>
<wgt id='1186'> +3.1351901E+03 </wgt>
<wgt id='1187'> +3.1253572E+03 </wgt>
<wgt id='1188'> +3.1456809E+03 </wgt>
<wgt id='1189'> +3.0926329E+03 </wgt>
<wgt id='1190'> +3.1390942E+03 </wgt>
<wgt id='1191'> +3.1361302E+03 </wgt>
<wgt id='1192'> +3.0941594E+03 </wgt>
<wgt id='1193'> +3.0922153E+03 </wgt>
<wgt id='1194'> +3.1113335E+03 </wgt>
<wgt id='1195'> +3.1050587E+03 </wgt>
<wgt id='1196'> +3.1067468E+03 </wgt>
<wgt id='1197'> +3.1171926E+03 </wgt>
<wgt id='1198'> +3.0861703E+03 </wgt>
<wgt id='1199'> +3.1146550E+03 </wgt>
<wgt id='1200'> +3.1434415E+03 </wgt>
<wgt id='1201'> +3.1071398E+03 </wgt>
<wgt id='1202'> +3.1162514E+03 </wgt>
<wgt id='1203'> +3.1114788E+03 </wgt>
<wgt id='1204'> +3.1300165E+03 </wgt>
<wgt id='1205'> +3.1181992E+03 </wgt>
<wgt id='1206'> +3.1260060E+03 </wgt>
<wgt id='1207'> +3.1478461E+03 </wgt>
<wgt id='1208'> +3.1333344E+03 </wgt>
<wgt id='1209'> +3.1305452E+03 </wgt>
<wgt id='1210'> +3.0995355E+03 </wgt>
<wgt id='1211'> +3.1192100E+03 </wgt>
<wgt id='1212'> +3.1027321E+03 </wgt>
<wgt id='1213'> +3.1120948E+03 </wgt>
<wgt id='1214'> +3.1247909E+03 </wgt>
<wgt id='1215'> +3.0834145E+03 </wgt>
<wgt id='1216'> +3.0916063E+03 </wgt>
<wgt id='1217'> +3.1170447E+03 </wgt>
<wgt id='1218'> +3.1312504E+03 </wgt>
<wgt id='1219'> +3.1365084E+03 </wgt>
<wgt id='1220'> +3.1240712E+03 </wgt>
<wgt id='1221'> +3.1186566E+03 </wgt>
<wgt id='1222'> +3.1203785E+03 </wgt>
<wgt id='1223'> +3.1299143E+03 </wgt>
<wgt id='1224'> +3.1320721E+03 </wgt>
<wgt id='1225'> +3.1323130E+03 </wgt>
<wgt id='1226'> +3.1265939E+03 </wgt>
<wgt id='1227'> +3.1061826E+03 </wgt>
<wgt id='1228'> +3.1084628E+03 </wgt>
<wgt id='1229'> +3.1317284E+03 </wgt>
<wgt id='1230'> +3.1093127E+03 </wgt>
<wgt id='1231'> +3.1114473E+03 </wgt>
<wgt id='1232'> +3.1069113E+03 </wgt>
<wgt id='1233'> +3.1279547E+03 </wgt>
<wgt id='1234'> +3.1055682E+03 </wgt>
<wgt id='1235'> +3.1175398E+03 </wgt>
<wgt id='1236'> +3.1069168E+03 </wgt>
<wgt id='1237'> +3.1019128E+03 </wgt>
<wgt id='1238'> +3.1157522E+03 </wgt>
<wgt id='1239'> +3.1345012E+03 </wgt>
<wgt id='1240'> +3.1232513E+03 </wgt>
<wgt id='1241'> +3.0981528E+03 </wgt>
<wgt id='1242'> +3.1306702E+03 </wgt>
<wgt id='1243'> +3.1244630E+03 </wgt>
<wgt id='1244'> +3.1451673E+03 </wgt>
<wgt id='1245'> +3.1155277E+03 </wgt>
<wgt id='1246'> +3.0880896E+03 </wgt>
<wgt id='1247'> +3.1026174E+03 </wgt>
<wgt id='1248'> +3.1293396E+03 </wgt>
<wgt id='1249'> +3.1265510E+03 </wgt>
<wgt id='1250'> +3.1248101E+03 </wgt>
<wgt id='1251'> +3.1522219E+03 </wgt>
<wgt id='1252'> +3.1263036E+03 </wgt>
<wgt id='1253'> +3.1157231E+03 </wgt>
<wgt id='1254'> +3.1177885E+03 </wgt>
<wgt id='1255'> +3.1210618E+03 </wgt>
<wgt id='1256'> +3.1210223E+03 </wgt>
<wgt id='1257'> +3.1099315E+03 </wgt>
<wgt id='1258'> +2.9660089E+03 </wgt>
<wgt id='1259'> +3.3002681E+03 </wgt>
<wgt id='1260'> +2.8821699E+03 </wgt>
<wgt id='1261'> +2.7978644E+03 </wgt>
<wgt id='1262'> +2.8337425E+03 </wgt>
<wgt id='1263'> +2.9290454E+03 </wgt>
<wgt id='1264'> +2.9016252E+03 </wgt>
<wgt id='1265'> +2.8877853E+03 </wgt>
<wgt id='1266'> +2.9338229E+03 </wgt>
<wgt id='1267'> +2.8286638E+03 </wgt>
<wgt id='1268'> +2.8786855E+03 </wgt>
<wgt id='1269'> +2.8799630E+03 </wgt>
<wgt id='1270'> +2.8848535E+03 </wgt>
<wgt id='1271'> +2.9532225E+03 </wgt>
<wgt id='1272'> +2.7533955E+03 </wgt>
<wgt id='1273'> +2.9134119E+03 </wgt>
<wgt id='1274'> +2.8325535E+03 </wgt>
<wgt id='1275'> +2.9664089E+03 </wgt>
<wgt id='1276'> +2.6820467E+03 </wgt>
<wgt id='1277'> +2.9788249E+03 </wgt>
<wgt id='1278'> +2.7813320E+03 </wgt>
<wgt id='1279'> +2.9033427E+03 </wgt>
<wgt id='1280'> +2.8588831E+03 </wgt>
<wgt id='1281'> +2.7849701E+03 </wgt>
<wgt id='1282'> +2.9365657E+03 </wgt>
<wgt id='1283'> +2.9216145E+03 </wgt>
<wgt id='1284'> +2.8396547E+03 </wgt>
<wgt id='1285'> +2.7852728E+03 </wgt>
<wgt id='1286'> +2.9588496E+03 </wgt>
<wgt id='1287'> +2.8741028E+03 </wgt>
<wgt id='1288'> +2.8929057E+03 </wgt>
<wgt id='1289'> +2.8593260E+03 </wgt>
<wgt id='1290'> +2.8976854E+03 </wgt>
<wgt id='1291'> +2.9511744E+03 </wgt>
<wgt id='1292'> +2.7783969E+03 </wgt>
<wgt id='1293'> +2.9413255E+03 </wgt>
<wgt id='1294'> +2.8298526E+03 </wgt>
<wgt id='1295'> +2.9471854E+03 </wgt>
<wgt id='1296'> +2.8315616E+03 </wgt>
<wgt id='1297'> +2.9033253E+03 </wgt>
<wgt id='1298'> +2.8522675E+03 </wgt>
<wgt id='1299'> +2.9581444E+03 </wgt>
<wgt id='1300'> +2.7621051E+03 </wgt>
<wgt id='1301'> +2.9762252E+03 </wgt>
<wgt id='1302'> +2.7844984E+03 </wgt>
<wgt id='1303'> +2.8886284E+03 </wgt>
<wgt id='1304'> +2.8838922E+03 </wgt>
<wgt id='1305'> +2.7487533E+03 </wgt>
<wgt id='1306'> +2.9684897E+03 </wgt>
<wgt id='1307'> +2.9350186E+03 </wgt>
<wgt id='1308'> +2.8198568E+03 </wgt>
<wgt id='1309'> +2.9036984E+03 </wgt>
<wgt id='1310'> +2.8687422E+03 </wgt>
<wgt id='1311'> +2.9446629E+03 </wgt>
<wgt id='1312'> +2.8575196E+03 </wgt>
<wgt id='1313'> +2.9300103E+03 </wgt>
<wgt id='1314'> +2.9012941E+03 </wgt>
<wgt id='1315'> +2.7025886E+03 </wgt>
<wgt id='1316'> +3.0730239E+03 </wgt>
<wgt id='1317'> +2.7076313E+03 </wgt>
<wgt id='1318'> +3.0717742E+03 </wgt>
<wgt id='1319'> +2.8745330E+03 </wgt>
<wgt id='1320'> +2.8641503E+03 </wgt>
<wgt id='1321'> +2.9628161E+03 </wgt>
<wgt id='1322'> +2.8461822E+03 </wgt>
<wgt id='1323'> +2.9115499E+03 </wgt>
<wgt id='1324'> +2.9128883E+03 </wgt>
<wgt id='1325'> +2.8681399E+03 </wgt>
<wgt id='1326'> +2.9172826E+03 </wgt>
<wgt id='1327'> +2.8071064E+03 </wgt>
<wgt id='1328'> +2.8386936E+03 </wgt>
<wgt id='1329'> +2.9433362E+03 </wgt>
<wgt id='1330'> +2.7672225E+03 </wgt>
<wgt id='1331'> +2.9439848E+03 </wgt>
<wgt id='1332'> +2.9244629E+03 </wgt>
<wgt id='1333'> +2.8012162E+03 </wgt>
<wgt id='1334'> +3.0067758E+03 </wgt>
<wgt id='1335'> +2.7090687E+03 </wgt>
<wgt id='1336'> +2.9663427E+03 </wgt>
<wgt id='1337'> +2.7654067E+03 </wgt>
<wgt id='1338'> +2.7992201E+03 </wgt>
<wgt id='1339'> +2.9395200E+03 </wgt>
<wgt id='1340'> +2.8584628E+03 </wgt>
<wgt id='1341'> +2.8602227E+03 </wgt>
<wgt id='1342'> +2.8985743E+03 </wgt>
<wgt id='1343'> +2.8433696E+03 </wgt>
<wgt id='1344'> +2.9073749E+03 </wgt>
<wgt id='1345'> +2.8476336E+03 </wgt>
<wgt id='1346'> +2.8626822E+03 </wgt>
<wgt id='1347'> +2.8913138E+03 </wgt>
<wgt id='1348'> +2.7203362E+03 </wgt>
<wgt id='1349'> +2.9290429E+03 </wgt>
<wgt id='1350'> +2.8827084E+03 </wgt>
<wgt id='1351'> +2.8636885E+03 </wgt>
<wgt id='1352'> +2.9376715E+03 </wgt>
<wgt id='1353'> +2.7327472E+03 </wgt>
<wgt id='1354'> +2.9161227E+03 </wgt>
<wgt id='1355'> +2.8368868E+03 </wgt>
<wgt id='1356'> +2.9512803E+03 </wgt>
<wgt id='1357'> +2.7705476E+03 </wgt>
<wgt id='1358'> +2.7425854E+03 </wgt>
<wgt id='1359'> +2.9457571E+03 </wgt>
<wgt id='1360'> +2.8060064E+03 </wgt>
<wgt id='1361'> +2.9587817E+03 </wgt>
<wgt id='1362'> +2.8421017E+03 </wgt>
<wgt id='1363'> +2.9117390E+03 </wgt>
<wgt id='1364'> +2.9040281E+03 </wgt>
<wgt id='1365'> +2.9294884E+03 </wgt>
<wgt id='1366'> +2.8131797E+03 </wgt>
<wgt id='1367'> +2.8962866E+03 </wgt>
<wgt id='1368'> +2.9023804E+03 </wgt>
<wgt id='1369'> +2.8631779E+03 </wgt>
<wgt id='1370'> +2.8266317E+03 </wgt>
<wgt id='1371'> +2.7924425E+03 </wgt>
<wgt id='1372'> +2.8531491E+03 </wgt>
<wgt id='1373'> +2.8558459E+03 </wgt>
<wgt id='1374'> +2.7748829E+03 </wgt>
<wgt id='1375'> +3.0090794E+03 </wgt>
<wgt id='1376'> +2.6998830E+03 </wgt>
<wgt id='1377'> +3.0560162E+03 </wgt>
<wgt id='1378'> +3.0583165E+03 </wgt>
<wgt id='1379'> +3.0989379E+03 </wgt>
<wgt id='1380'> +3.0944440E+03 </wgt>
<wgt id='1381'> +3.1040343E+03 </wgt>
<wgt id='1382'> +3.0970613E+03 </wgt>
<wgt id='1383'> +3.1001019E+03 </wgt>
<wgt id='1384'> +3.0946385E+03 </wgt>
<wgt id='1385'> +3.1030467E+03 </wgt>
<wgt id='1386'> +3.0809789E+03 </wgt>
<wgt id='1387'> +3.1197455E+03 </wgt>
<wgt id='1388'> +3.0666093E+03 </wgt>
<wgt id='1389'> +3.1305679E+03 </wgt>
<wgt id='1390'> +3.0931784E+03 </wgt>
<wgt id='1391'> +3.1117514E+03 </wgt>
<wgt id='1392'> +3.0764409E+03 </wgt>
<wgt id='1393'> +3.1393134E+03 </wgt>
<wgt id='1394'> +3.1256487E+03 </wgt>
<wgt id='1395'> +3.0843355E+03 </wgt>
<wgt id='1396'> +3.0666276E+03 </wgt>
<wgt id='1397'> +3.1371019E+03 </wgt>
<wgt id='1398'> +3.1077183E+03 </wgt>
<wgt id='1399'> +3.0916021E+03 </wgt>
<wgt id='1400'> +3.1179656E+03 </wgt>
<wgt id='1401'> +3.0744028E+03 </wgt>
<wgt id='1402'> +3.0592921E+03 </wgt>
<wgt id='1403'> +3.1253193E+03 </wgt>
<wgt id='1404'> +3.0852212E+03 </wgt>
<wgt id='1405'> +3.1078754E+03 </wgt>
<wgt id='1406'> +3.1001009E+03 </wgt>
<wgt id='1407'> +3.1034537E+03 </wgt>
<wgt id='1408'> +3.0358739E+03 </wgt>
<wgt id='1409'> +3.1775562E+03 </wgt>
<wgt id='1410'> +3.1643703E+03 </wgt>
<wgt id='1411'> +3.0364090E+03 </wgt>
<wgt id='1412'> +3.0878565E+03 </wgt>
<wgt id='1413'> +3.1179667E+03 </wgt>
<wgt id='1414'> +3.0815044E+03 </wgt>
<wgt id='1415'> +3.1488330E+03 </wgt>
<wgt id='1416'> +3.0801424E+03 </wgt>
<wgt id='1417'> +3.1158900E+03 </wgt>
<wgt id='1418'> +3.0779362E+03 </wgt>
<wgt id='1419'> +3.1119973E+03 </wgt>
<wgt id='1420'> +3.0196790E+03 </wgt>
<wgt id='1421'> +3.1838299E+03 </wgt>
<wgt id='1422'> +3.1390256E+03 </wgt>
<wgt id='1423'> +3.0448474E+03 </wgt>
<wgt id='1424'> +3.0828052E+03 </wgt>
<wgt id='1425'> +3.1419245E+03 </wgt>
<wgt id='1426'> +3.1261434E+03 </wgt>
<wgt id='1427'> +3.1133437E+03 </wgt>
<wgt id='1428'> +3.1594520E+03 </wgt>
<wgt id='1429'> +3.1516073E+03 </wgt>
<wgt id='1430'> +3.1569906E+03 </wgt>
<wgt id='1431'> +3.1515312E+03 </wgt>
<wgt id='1432'> +3.1650146E+03 </wgt>
<wgt id='1433'> +3.1575905E+03 </wgt>
<wgt id='1434'> +3.1574318E+03 </wgt>
<wgt id='1435'> +3.1589638E+03 </wgt>
<wgt id='1436'> +3.1571011E+03 </wgt>
<wgt id='1437'> +3.1293133E+03 </wgt>
<wgt id='1438'> +3.1856544E+03 </wgt>
<wgt id='1439'> +3.1369019E+03 </wgt>
<wgt id='1440'> +3.1767938E+03 </wgt>
<wgt id='1441'> +3.2036497E+03 </wgt>
<wgt id='1442'> +3.1372406E+03 </wgt>
<wgt id='1443'> +3.1406974E+03 </wgt>
<wgt id='1444'> +3.1777554E+03 </wgt>
<wgt id='1445'> +3.1442561E+03 </wgt>
<wgt id='1446'> +3.1721309E+03 </wgt>
<wgt id='1447'> +3.1434135E+03 </wgt>
<wgt id='1448'> +3.1646285E+03 </wgt>
<wgt id='1449'> +3.1352220E+03 </wgt>
<wgt id='1450'> +3.1874719E+03 </wgt>
<wgt id='1451'> +3.1324282E+03 </wgt>
<wgt id='1452'> +3.1755746E+03 </wgt>
<wgt id='1453'> +3.1483995E+03 </wgt>
<wgt id='1454'> +3.1651491E+03 </wgt>
<wgt id='1455'> +3.1776727E+03 </wgt>
<wgt id='1456'> +3.1070041E+03 </wgt>
<wgt id='1457'> +3.1577656E+03 </wgt>
<wgt id='1458'> +3.1615183E+03 </wgt>
<wgt id='1459'> +3.1693619E+03 </wgt>
<wgt id='1460'> +3.1246672E+03 </wgt>
<wgt id='1461'> +3.2152074E+03 </wgt>
<wgt id='1462'> +3.0499122E+03 </wgt>
<wgt id='1463'> +3.1287412E+03 </wgt>
<wgt id='1464'> +3.2219511E+03 </wgt>
<wgt id='1465'> +3.2145595E+03 </wgt>
<wgt id='1466'> +3.1351291E+03 </wgt>
<wgt id='1467'> +3.1379904E+03 </wgt>
<wgt id='1468'> +3.1881846E+03 </wgt>
<wgt id='1469'> +3.1277729E+03 </wgt>
<wgt id='1470'> +3.1663949E+03 </wgt>
<wgt id='1471'> +3.2044026E+03 </wgt>
<wgt id='1472'> +3.0472945E+03 </wgt>
<wgt id='1473'> +3.1819319E+03 </wgt>
<wgt id='1474'> +3.2330454E+03 </wgt>
<wgt id='1475'> +3.1245964E+03 </wgt>
<wgt id='1476'> +3.1858612E+03 </wgt>
<wgt id='1477'> +3.1902045E+03 </wgt>
<wgt id='1478'> +3.1420446E+03 </wgt>
<wgt id='1479'> +3.1604573E+03 </wgt>
<wgt id='1480'> +3.1422942E+03 </wgt>
<wgt id='1481'> +4.7010285E+03 </wgt>
<wgt id='1482'> +2.9142489E+03 </wgt>
<wgt id='1483'> +2.9132426E+03 </wgt>
<wgt id='1484'> +2.9074762E+03 </wgt>
<wgt id='1485'> +2.9292269E+03 </wgt>
<wgt id='1486'> +2.9144132E+03 </wgt>
<wgt id='1487'> +2.9248902E+03 </wgt>
<wgt id='1488'> +2.9017273E+03 </wgt>
<wgt id='1489'> +2.9254256E+03 </wgt>
<wgt id='1490'> +2.8888248E+03 </wgt>
<wgt id='1491'> +2.9057852E+03 </wgt>
<wgt id='1492'> +2.9235953E+03 </wgt>
<wgt id='1493'> +2.9056260E+03 </wgt>
<wgt id='1494'> +2.9279607E+03 </wgt>
<wgt id='1495'> +2.9232379E+03 </wgt>
<wgt id='1496'> +2.8900548E+03 </wgt>
<wgt id='1497'> +2.9206452E+03 </wgt>
<wgt id='1498'> +2.9070137E+03 </wgt>
<wgt id='1499'> +2.9096808E+03 </wgt>
<wgt id='1500'> +2.9302771E+03 </wgt>
<wgt id='1501'> +2.9234499E+03 </wgt>
<wgt id='1502'> +2.9464736E+03 </wgt>
<wgt id='1503'> +2.9115871E+03 </wgt>
<wgt id='1504'> +2.8898666E+03 </wgt>
<wgt id='1505'> +2.8671914E+03 </wgt>
<wgt id='1506'> +2.9113895E+03 </wgt>
<wgt id='1507'> +2.9051667E+03 </wgt>
<wgt id='1508'> +2.9235703E+03 </wgt>
<wgt id='1509'> +2.8769530E+03 </wgt>
<wgt id='1510'> +2.9696619E+03 </wgt>
<wgt id='1511'> +2.9227741E+03 </wgt>
<wgt id='1512'> +2.9719379E+03 </wgt>
<wgt id='1513'> +2.9911728E+03 </wgt>
<wgt id='1514'> +2.9784431E+03 </wgt>
<wgt id='1515'> +3.0420987E+03 </wgt>
<wgt id='1516'> +2.9659328E+03 </wgt>
<wgt id='1517'> +2.9559980E+03 </wgt>
<wgt id='1518'> +2.9669985E+03 </wgt>
<wgt id='1519'> +2.9768952E+03 </wgt>
<wgt id='1520'> +2.9879441E+03 </wgt>
<wgt id='1521'> +2.9900793E+03 </wgt>
<wgt id='1522'> +3.0146480E+03 </wgt>
<wgt id='1523'> +2.9614812E+03 </wgt>
<wgt id='1524'> +2.9821939E+03 </wgt>
<wgt id='1525'> +2.9210156E+03 </wgt>
<wgt id='1526'> +2.9707560E+03 </wgt>
<wgt id='1527'> +2.9850499E+03 </wgt>
<wgt id='1528'> +2.9450564E+03 </wgt>
<wgt id='1529'> +3.0191690E+03 </wgt>
<wgt id='1530'> +2.9913963E+03 </wgt>
<wgt id='1531'> +2.9563478E+03 </wgt>
<wgt id='1532'> +2.9914812E+03 </wgt>
<wgt id='1533'> +2.9536209E+03 </wgt>
<wgt id='1534'> +2.9768183E+03 </wgt>
<wgt id='1535'> +3.0015152E+03 </wgt>
<wgt id='1536'> +2.9613655E+03 </wgt>
<wgt id='1537'> +2.9072802E+03 </wgt>
<wgt id='1538'> +2.9588669E+03 </wgt>
<wgt id='1539'> +3.0049986E+03 </wgt>
<wgt id='1540'> +2.9296687E+03 </wgt>
<wgt id='1541'> +2.9733579E+03 </wgt>
<wgt id='1542'> +3.0233635E+03 </wgt>
<wgt id='1543'> +2.9662406E+03 </wgt>
<wgt id='1544'> +2.9661029E+03 </wgt>
<wgt id='1545'> +2.9795503E+03 </wgt>
<wgt id='1546'> +3.0022103E+03 </wgt>
<wgt id='1547'> +2.9827031E+03 </wgt>
<wgt id='1548'> +2.9652240E+03 </wgt>
<wgt id='1549'> +2.9887360E+03 </wgt>
<wgt id='1550'> +2.9856861E+03 </wgt>
<wgt id='1551'> +3.0088245E+03 </wgt>
<wgt id='1552'> +2.9716474E+03 </wgt>
<wgt id='1553'> +2.9718895E+03 </wgt>
<wgt id='1554'> +2.9944795E+03 </wgt>
<wgt id='1555'> +2.9733729E+03 </wgt>
<wgt id='1556'> +2.9585073E+03 </wgt>
<wgt id='1557'> +3.0015346E+03 </wgt>
<wgt id='1558'> +2.9807898E+03 </wgt>
<wgt id='1559'> +2.9699784E+03 </wgt>
<wgt id='1560'> +2.9728190E+03 </wgt>
<wgt id='1561'> +2.9797260E+03 </wgt>
<wgt id='1562'> +2.9854213E+03 </wgt>
<wgt id='1563'> +2.9849022E+03 </wgt>
<wgt id='1564'> +2.9772939E+03 </wgt>
<wgt id='1565'> +2.9721903E+03 </wgt>
<wgt id='1566'> +2.9480743E+03 </wgt>
<wgt id='1567'> +2.9871574E+03 </wgt>
<wgt id='1568'> +2.9737400E+03 </wgt>
<wgt id='1569'> +2.9906221E+03 </wgt>
<wgt id='1570'> +2.9522017E+03 </wgt>
<wgt id='1571'> +2.9620567E+03 </wgt>
<wgt id='1572'> +2.9798395E+03 </wgt>
<wgt id='1573'> +2.9682750E+03 </wgt>
<wgt id='1574'> +2.9765972E+03 </wgt>
<wgt id='1575'> +2.9608236E+03 </wgt>
<wgt id='1576'> +2.9714262E+03 </wgt>
<wgt id='1577'> +2.9749285E+03 </wgt>
<wgt id='1578'> +2.9395194E+03 </wgt>
<wgt id='1579'> +2.9619221E+03 </wgt>
<wgt id='1580'> +2.9697637E+03 </wgt>
<wgt id='1581'> +2.9727440E+03 </wgt>
<wgt id='1582'> +2.9717539E+03 </wgt>
<wgt id='1583'> +2.9610903E+03 </wgt>
<wgt id='1584'> +2.9702266E+03 </wgt>
<wgt id='1585'> +3.0051301E+03 </wgt>
<wgt id='1586'> +2.9561991E+03 </wgt>
<wgt id='1587'> +2.9796270E+03 </wgt>
<wgt id='1588'> +2.9738108E+03 </wgt>
<wgt id='1589'> +2.9730273E+03 </wgt>
<wgt id='1590'> +2.9327969E+03 </wgt>
<wgt id='1591'> +2.9802621E+03 </wgt>
<wgt id='1592'> +2.9963908E+03 </wgt>
<wgt id='1593'> +3.0058902E+03 </wgt>
<wgt id='1594'> +2.9484117E+03 </wgt>
<wgt id='1595'> +2.9899260E+03 </wgt>
<wgt id='1596'> +2.9877647E+03 </wgt>
<wgt id='1597'> +2.9734893E+03 </wgt>
<wgt id='1598'> +2.9903531E+03 </wgt>
<wgt id='1599'> +2.9627621E+03 </wgt>
<wgt id='1600'> +2.9824371E+03 </wgt>
<wgt id='1601'> +2.9614080E+03 </wgt>
<wgt id='1602'> +2.9759940E+03 </wgt>
<wgt id='1603'> +2.9627616E+03 </wgt>
<wgt id='1604'> +2.9731295E+03 </wgt>
<wgt id='1605'> +2.9670764E+03 </wgt>
<wgt id='1606'> +2.9740965E+03 </wgt>
<wgt id='1607'> +2.9696771E+03 </wgt>
<wgt id='1608'> +2.9655455E+03 </wgt>
<wgt id='1609'> +2.9790829E+03 </wgt>
<wgt id='1610'> +2.9784943E+03 </wgt>
<wgt id='1611'> +2.9680357E+03 </wgt>
<wgt id='1612'> +2.9670352E+03 </wgt>
<wgt id='1613'> +2.8289411E+03 </wgt>
<wgt id='1614'> +3.1100735E+03 </wgt>
<wgt id='1615'> +3.0038428E+03 </wgt>
<wgt id='1616'> +3.0280463E+03 </wgt>
<wgt id='1617'> +3.0094522E+03 </wgt>
<wgt id='1618'> +2.9990871E+03 </wgt>
<wgt id='1619'> +3.0454841E+03 </wgt>
<wgt id='1620'> +3.0378536E+03 </wgt>
<wgt id='1621'> +3.0030794E+03 </wgt>
<wgt id='1622'> +3.0073139E+03 </wgt>
<wgt id='1623'> +3.0053055E+03 </wgt>
<wgt id='1624'> +2.9923966E+03 </wgt>
<wgt id='1625'> +2.9872066E+03 </wgt>
<wgt id='1626'> +3.0178733E+03 </wgt>
<wgt id='1627'> +2.9944075E+03 </wgt>
<wgt id='1628'> +2.9883694E+03 </wgt>
<wgt id='1629'> +3.0118837E+03 </wgt>
<wgt id='1630'> +3.0807030E+03 </wgt>
<wgt id='1631'> +2.9793322E+03 </wgt>
<wgt id='1632'> +3.0015663E+03 </wgt>
<wgt id='1633'> +3.0469480E+03 </wgt>
<wgt id='1634'> +2.9450985E+03 </wgt>
<wgt id='1635'> +2.9645911E+03 </wgt>
<wgt id='1636'> +3.0262468E+03 </wgt>
<wgt id='1637'> +2.9786902E+03 </wgt>
<wgt id='1638'> +3.0060593E+03 </wgt>
<wgt id='1639'> +3.0290677E+03 </wgt>
<wgt id='1640'> +3.0277461E+03 </wgt>
<wgt id='1641'> +3.0142157E+03 </wgt>
<wgt id='1642'> +2.9870465E+03 </wgt>
<wgt id='1643'> +2.9984250E+03 </wgt>
<wgt id='1644'> +3.0174964E+03 </wgt>
<wgt id='1645'> +3.0037153E+03 </wgt>
<wgt id='1646'> +2.9698003E+03 </wgt>
<wgt id='1647'> +2.9934421E+03 </wgt>
<wgt id='1648'> +2.9716167E+03 </wgt>
<wgt id='1649'> +2.9892625E+03 </wgt>
<wgt id='1650'> +3.0173373E+03 </wgt>
<wgt id='1651'> +3.0286139E+03 </wgt>
<wgt id='1652'> +2.9805675E+03 </wgt>
<wgt id='1653'> +2.9873543E+03 </wgt>
<wgt id='1654'> +3.0310765E+03 </wgt>
<wgt id='1655'> +2.9805603E+03 </wgt>
<wgt id='1656'> +3.0031579E+03 </wgt>
<wgt id='1657'> +2.9949999E+03 </wgt>
<wgt id='1658'> +2.9924562E+03 </wgt>
<wgt id='1659'> +2.9932593E+03 </wgt>
<wgt id='1660'> +3.0272562E+03 </wgt>
<wgt id='1661'> +2.9880406E+03 </wgt>
<wgt id='1662'> +3.0151904E+03 </wgt>
<wgt id='1663'> +2.9933085E+03 </wgt>
<wgt id='1664'> +3.0301472E+03 </wgt>
<wgt id='1665'> +2.9948089E+03 </wgt>
<wgt id='1666'> +3.0217666E+03 </wgt>
<wgt id='1667'> +3.0270806E+03 </wgt>
<wgt id='1668'> +2.9938620E+03 </wgt>
<wgt id='1669'> +3.0277284E+03 </wgt>
<wgt id='1670'> +3.0091752E+03 </wgt>
<wgt id='1671'> +3.0099017E+03 </wgt>
<wgt id='1672'> +2.9897540E+03 </wgt>
<wgt id='1673'> +3.0272369E+03 </wgt>
<wgt id='1674'> +3.0175156E+03 </wgt>
<wgt id='1675'> +3.0216906E+03 </wgt>
<wgt id='1676'> +2.9884817E+03 </wgt>
<wgt id='1677'> +3.0009987E+03 </wgt>
<wgt id='1678'> +3.0037049E+03 </wgt>
<wgt id='1679'> +2.9943545E+03 </wgt>
<wgt id='1680'> +3.0212688E+03 </wgt>
<wgt id='1681'> +3.0021705E+03 </wgt>
<wgt id='1682'> +3.0144334E+03 </wgt>
<wgt id='1683'> +3.0290285E+03 </wgt>
<wgt id='1684'> +2.9993484E+03 </wgt>
<wgt id='1685'> +3.0198560E+03 </wgt>
<wgt id='1686'> +2.9964471E+03 </wgt>
<wgt id='1687'> +3.0213244E+03 </wgt>
<wgt id='1688'> +3.0221906E+03 </wgt>
<wgt id='1689'> +2.9904849E+03 </wgt>
<wgt id='1690'> +2.9869781E+03 </wgt>
<wgt id='1691'> +2.9932778E+03 </wgt>
<wgt id='1692'> +2.9992893E+03 </wgt>
<wgt id='1693'> +2.9801298E+03 </wgt>
<wgt id='1694'> +3.0399851E+03 </wgt>
<wgt id='1695'> +3.0299314E+03 </wgt>
<wgt id='1696'> +2.9987834E+03 </wgt>
<wgt id='1697'> +3.0379485E+03 </wgt>
<wgt id='1698'> +2.9695737E+03 </wgt>
<wgt id='1699'> +2.9967672E+03 </wgt>
<wgt id='1700'> +3.0044424E+03 </wgt>
<wgt id='1701'> +2.9944084E+03 </wgt>
<wgt id='1702'> +2.9968771E+03 </wgt>
<wgt id='1703'> +2.9914799E+03 </wgt>
<wgt id='1704'> +2.9829109E+03 </wgt>
<wgt id='1705'> +3.0031073E+03 </wgt>
<wgt id='1706'> +3.0020727E+03 </wgt>
<wgt id='1707'> +3.0070485E+03 </wgt>
<wgt id='1708'> +2.9964474E+03 </wgt>
<wgt id='1709'> +3.0110149E+03 </wgt>
<wgt id='1710'> +3.0069661E+03 </wgt>
<wgt id='1711'> +3.0002377E+03 </wgt>
<wgt id='1712'> +3.0124217E+03 </wgt>
<wgt id='1713'> +3.0016784E+03 </wgt>
<wgt id='1714'> +2.9974170E+03 </wgt>
<wgt id='1715'> +3.0060777E+03 </wgt>
<wgt id='1716'> +2.8774822E+03 </wgt>
<wgt id='1717'> +3.1552865E+03 </wgt>
<wgt id='1718'> +2.9734863E+03 </wgt>
<wgt id='1719'> +3.1408320E+03 </wgt>
<wgt id='1720'> +2.9324370E+03 </wgt>
<wgt id='1721'> +2.9820157E+03 </wgt>
<wgt id='1722'> +3.0115618E+03 </wgt>
<wgt id='1723'> +2.9831604E+03 </wgt>
<wgt id='1724'> +2.9905169E+03 </wgt>
<wgt id='1725'> +2.9761789E+03 </wgt>
<wgt id='1726'> +2.9654894E+03 </wgt>
<wgt id='1727'> +2.9918871E+03 </wgt>
<wgt id='1728'> +2.9786829E+03 </wgt>
<wgt id='1729'> +2.9458994E+03 </wgt>
<wgt id='1730'> +2.9582533E+03 </wgt>
<wgt id='1731'> +2.9652984E+03 </wgt>
<wgt id='1732'> +2.9562595E+03 </wgt>
<wgt id='1733'> +2.9579137E+03 </wgt>
<wgt id='1734'> +2.9677167E+03 </wgt>
<wgt id='1735'> +2.9576901E+03 </wgt>
<wgt id='1736'> +2.9716424E+03 </wgt>
<wgt id='1737'> +2.9567853E+03 </wgt>
<wgt id='1738'> +2.9982592E+03 </wgt>
<wgt id='1739'> +2.9795164E+03 </wgt>
<wgt id='1740'> +2.9779487E+03 </wgt>
<wgt id='1741'> +2.9701940E+03 </wgt>
<wgt id='1742'> +2.9939894E+03 </wgt>
<wgt id='1743'> +2.9638858E+03 </wgt>
<wgt id='1744'> +2.9816025E+03 </wgt>
<wgt id='1745'> +2.9426591E+03 </wgt>
<wgt id='1746'> +2.9669801E+03 </wgt>
<wgt id='1747'> +2.9680187E+03 </wgt>
<wgt id='1748'> +2.9751886E+03 </wgt>
<wgt id='1749'> +2.8289411E+03 </wgt>
<wgt id='1750'> +3.1100735E+03 </wgt>
<wgt id='1751'> +3.0038943E+03 </wgt>
<wgt id='1752'> +3.0364830E+03 </wgt>
<wgt id='1753'> +3.0848572E+03 </wgt>
<wgt id='1754'> +3.0043826E+03 </wgt>
<wgt id='1755'> +2.9851882E+03 </wgt>
<wgt id='1756'> +3.0159488E+03 </wgt>
<wgt id='1757'> +3.0010355E+03 </wgt>
<wgt id='1758'> +2.9847720E+03 </wgt>
<wgt id='1759'> +3.0229158E+03 </wgt>
<wgt id='1760'> +2.9290587E+03 </wgt>
<wgt id='1761'> +3.0043557E+03 </wgt>
<wgt id='1762'> +3.0378024E+03 </wgt>
<wgt id='1763'> +3.0063809E+03 </wgt>
<wgt id='1764'> +3.0202506E+03 </wgt>
<wgt id='1765'> +3.0067142E+03 </wgt>
<wgt id='1766'> +3.1328920E+03 </wgt>
<wgt id='1767'> +3.0039983E+03 </wgt>
<wgt id='1768'> +2.9960056E+03 </wgt>
<wgt id='1769'> +3.0034302E+03 </wgt>
<wgt id='1770'> +2.9991779E+03 </wgt>
<wgt id='1771'> +3.0016054E+03 </wgt>
<wgt id='1772'> +3.0082067E+03 </wgt>
<wgt id='1773'> +3.0137567E+03 </wgt>
<wgt id='1774'> +3.0034358E+03 </wgt>
<wgt id='1775'> +2.9919150E+03 </wgt>
<wgt id='1776'> +3.0021388E+03 </wgt>
<wgt id='1777'> +2.9744514E+03 </wgt>
<wgt id='1778'> +3.0140815E+03 </wgt>
<wgt id='1779'> +2.9991183E+03 </wgt>
<wgt id='1780'> +2.9984782E+03 </wgt>
<wgt id='1781'> +3.0209655E+03 </wgt>
<wgt id='1782'> +2.8774822E+03 </wgt>
<wgt id='1783'> +3.1552865E+03 </wgt>
<wgt id='1784'> +4.1235424E+03 </wgt>
<wgt id='1785'> +4.1409006E+03 </wgt>
<wgt id='1786'> +4.1062739E+03 </wgt>
<wgt id='1787'> +4.1031093E+03 </wgt>
<wgt id='1788'> +4.1439589E+03 </wgt>
<wgt id='1789'> +4.1325134E+03 </wgt>
<wgt id='1790'> +4.1145808E+03 </wgt>
<wgt id='1791'> +4.0663288E+03 </wgt>
<wgt id='1792'> +4.1800342E+03 </wgt>
<wgt id='1793'> +4.1619482E+03 </wgt>
<wgt id='1794'> +4.0851849E+03 </wgt>
<wgt id='1795'> +4.1614657E+03 </wgt>
<wgt id='1796'> +4.0854482E+03 </wgt>
<wgt id='1797'> +4.1428884E+03 </wgt>
<wgt id='1798'> +4.1039444E+03 </wgt>
<wgt id='1799'> +4.1364746E+03 </wgt>
<wgt id='1800'> +4.1095973E+03 </wgt>
<wgt id='1801'> +4.1993398E+03 </wgt>
<wgt id='1802'> +4.0460686E+03 </wgt>
<wgt id='1803'> +4.0936514E+03 </wgt>
<wgt id='1804'> +4.1548574E+03 </wgt>
<wgt id='1805'> +4.3852988E+03 </wgt>
<wgt id='1806'> +3.8783040E+03 </wgt>
<wgt id='1807'> +4.2047577E+03 </wgt>
<wgt id='1808'> +4.0346804E+03 </wgt>
<wgt id='1809'> +3.9240021E+03 </wgt>
<wgt id='1810'> +4.3381393E+03 </wgt>
<wgt id='1811'> +4.1075801E+03 </wgt>
<wgt id='1812'> +4.0696601E+03 </wgt>
<wgt id='1813'> +4.1235424E+03 </wgt>
<wgt id='1814'> +4.1209297E+03 </wgt>
<wgt id='1815'> +4.1296788E+03 </wgt>
<wgt id='1816'> +4.1197498E+03 </wgt>
<wgt id='1817'> +4.1276320E+03 </wgt>
<wgt id='1818'> +4.0761801E+03 </wgt>
<wgt id='1819'> +4.1122376E+03 </wgt>
<wgt id='1820'> +4.1121690E+03 </wgt>
<wgt id='1821'> +4.1368259E+03 </wgt>
<wgt id='1822'> +4.0634145E+03 </wgt>
<wgt id='1823'> +4.1857728E+03 </wgt>
<wgt id='1824'> +4.1197658E+03 </wgt>
<wgt id='1825'> +4.1860164E+03 </wgt>
<wgt id='1826'> +3.2424055E+03 </wgt>
<wgt id='1827'> +3.3155826E+03 </wgt>
<wgt id='1828'> +3.3234771E+03 </wgt>
<wgt id='1829'> +3.3036052E+03 </wgt>
<wgt id='1830'> +3.2992652E+03 </wgt>
<wgt id='1831'> +3.3277916E+03 </wgt>
<wgt id='1832'> +3.3159545E+03 </wgt>
<wgt id='1833'> +3.3110828E+03 </wgt>
<wgt id='1834'> +3.2641754E+03 </wgt>
<wgt id='1835'> +3.3622207E+03 </wgt>
<wgt id='1836'> +3.3392421E+03 </wgt>
<wgt id='1837'> +3.2877693E+03 </wgt>
<wgt id='1838'> +3.3128401E+03 </wgt>
<wgt id='1839'> +3.3142802E+03 </wgt>
<wgt id='1840'> +3.3086975E+03 </wgt>
<wgt id='1841'> +3.3183458E+03 </wgt>
<wgt id='1842'> +3.3153002E+03 </wgt>
<wgt id='1843'> +3.3111134E+03 </wgt>
<wgt id='1844'> +3.2340576E+03 </wgt>
<wgt id='1845'> +3.3947642E+03 </wgt>
<wgt id='1846'> +3.3900603E+03 </wgt>
<wgt id='1847'> +3.2388103E+03 </wgt>
<wgt id='1848'> +3.1266576E+03 </wgt>
<wgt id='1849'> +3.5175123E+03 </wgt>
<wgt id='1850'> +3.1158039E+03 </wgt>
<wgt id='1851'> +3.5268872E+03 </wgt>
<wgt id='1852'> +3.3088235E+03 </wgt>
<wgt id='1853'> +3.2896376E+03 </wgt>
<wgt id='1854'> +3.3404137E+03 </wgt>
<wgt id='1855'> +3.1738044E+03 </wgt>
<wgt id='1856'> +3.3109946E+03 </wgt>
<wgt id='1857'> +3.2768320E+03 </wgt>
<wgt id='1858'> +3.3879577E+03 </wgt>
<wgt id='1859'> +3.2696261E+03 </wgt>
<wgt id='1860'> +3.3463116E+03 </wgt>
<wgt id='1861'> +2.8734680E+03 </wgt>
<wgt id='1862'> +3.6122643E+03 </wgt>
<wgt id='1863'> +3.2978491E+03 </wgt>
<wgt id='1864'> +3.3110591E+03 </wgt>
<wgt id='1865'> +3.4323624E+03 </wgt>
<wgt id='1866'> +3.0911012E+03 </wgt>
<wgt id='1867'> +3.5197017E+03 </wgt>
<wgt id='1868'> +3.3295333E+03 </wgt>
<wgt id='1869'> +3.5385701E+03 </wgt>
<wgt id='1870'> +2.8125182E+03 </wgt>
<wgt id='1871'> +2.8107879E+03 </wgt>
<wgt id='1872'> +2.8090472E+03 </wgt>
<wgt id='1873'> +2.8073178E+03 </wgt>
<wgt id='1874'> +2.8056020E+03 </wgt>
<wgt id='1875'> +2.8038628E+03 </wgt>
<wgt id='1876'> +2.8021350E+03 </wgt>
<wgt id='1877'> +2.8003963E+03 </wgt>
<wgt id='1878'> +2.7986698E+03 </wgt>
<wgt id='1879'> +2.7969451E+03 </wgt>
<wgt id='1880'> +2.7952191E+03 </wgt>
<wgt id='1881'> +2.7934936E+03 </wgt>
<wgt id='1882'> +2.7917575E+03 </wgt>
<wgt id='1883'> +2.7900328E+03 </wgt>
<wgt id='1884'> +2.7882973E+03 </wgt>
<wgt id='1885'> +2.7865874E+03 </wgt>
<wgt id='1886'> +2.7848547E+03 </wgt>
<wgt id='1887'> +2.7831305E+03 </wgt>
<wgt id='1888'> +2.7814082E+03 </wgt>
<wgt id='1889'> +2.7796754E+03 </wgt>
<wgt id='1890'> +2.7779675E+03 </wgt>
<wgt id='1891'> +2.7762356E+03 </wgt>
<wgt id='1892'> +2.7745149E+03 </wgt>
<wgt id='1893'> +2.7727863E+03 </wgt>
<wgt id='1894'> +2.7710659E+03 </wgt>
<wgt id='1895'> +2.7693468E+03 </wgt>
<wgt id='1896'> +2.7676302E+03 </wgt>
<wgt id='1897'> +2.7659117E+03 </wgt>
<wgt id='1898'> +2.7641832E+03 </wgt>
<wgt id='1899'> +2.7624670E+03 </wgt>
<wgt id='1900'> +2.7607412E+03 </wgt>
<wgt id='1901'> +2.9771518E+03 </wgt>
<wgt id='1902'> +3.0006236E+03 </wgt>
<wgt id='1903'> +2.9826547E+03 </wgt>
<wgt id='1904'> +2.9724228E+03 </wgt>
<wgt id='1905'> +3.0181824E+03 </wgt>
<wgt id='1906'> +3.0108678E+03 </wgt>
<wgt id='1907'> +2.9766966E+03 </wgt>
<wgt id='1908'> +2.9810359E+03 </wgt>
<wgt id='1909'> +2.9786719E+03 </wgt>
<wgt id='1910'> +2.9657888E+03 </wgt>
<wgt id='1911'> +2.9605257E+03 </wgt>
<wgt id='1912'> +2.9915859E+03 </wgt>
<wgt id='1913'> +2.9679382E+03 </wgt>
<wgt id='1914'> +2.9618282E+03 </wgt>
<wgt id='1915'> +2.9852762E+03 </wgt>
<wgt id='1916'> +3.0527210E+03 </wgt>
<wgt id='1917'> +2.9533855E+03 </wgt>
<wgt id='1918'> +2.9745959E+03 </wgt>
<wgt id='1919'> +3.0197295E+03 </wgt>
<wgt id='1920'> +2.9192482E+03 </wgt>
<wgt id='1921'> +2.9385549E+03 </wgt>
<wgt id='1922'> +2.9992199E+03 </wgt>
<wgt id='1923'> +2.9522607E+03 </wgt>
<wgt id='1924'> +2.9795051E+03 </wgt>
<wgt id='1925'> +3.0019188E+03 </wgt>
<wgt id='1926'> +3.0005425E+03 </wgt>
<wgt id='1927'> +2.9871166E+03 </wgt>
<wgt id='1928'> +2.9608014E+03 </wgt>
<wgt id='1929'> +2.9719824E+03 </wgt>
<wgt id='1930'> +2.9905142E+03 </wgt>
<wgt id='1931'> +2.9767883E+03 </wgt>
<wgt id='1932'> +2.9437160E+03 </wgt>
<wgt id='1933'> +2.9666336E+03 </wgt>
<wgt id='1934'> +2.9450582E+03 </wgt>
<wgt id='1935'> +2.9627355E+03 </wgt>
<wgt id='1936'> +2.9905078E+03 </wgt>
<wgt id='1937'> +3.0017195E+03 </wgt>
<wgt id='1938'> +2.9540050E+03 </wgt>
<wgt id='1939'> +2.9606685E+03 </wgt>
<wgt id='1940'> +3.0041278E+03 </wgt>
<wgt id='1941'> +2.9540734E+03 </wgt>
<wgt id='1942'> +2.9764990E+03 </wgt>
<wgt id='1943'> +2.9683896E+03 </wgt>
<wgt id='1944'> +2.9659596E+03 </wgt>
<wgt id='1945'> +2.9665959E+03 </wgt>
<wgt id='1946'> +3.0003552E+03 </wgt>
<wgt id='1947'> +2.9615068E+03 </wgt>
<wgt id='1948'> +2.9883255E+03 </wgt>
<wgt id='1949'> +2.9667149E+03 </wgt>
<wgt id='1950'> +3.0031959E+03 </wgt>
<wgt id='1951'> +2.9681509E+03 </wgt>
<wgt id='1952'> +2.9947611E+03 </wgt>
<wgt id='1953'> +3.0001505E+03 </wgt>
<wgt id='1954'> +2.9670578E+03 </wgt>
<wgt id='1955'> +3.0009299E+03 </wgt>
<wgt id='1956'> +2.9825620E+03 </wgt>
<wgt id='1957'> +2.9831621E+03 </wgt>
<wgt id='1958'> +2.9632110E+03 </wgt>
<wgt id='1959'> +3.0005351E+03 </wgt>
<wgt id='1960'> +2.9907836E+03 </wgt>
<wgt id='1961'> +2.9948763E+03 </wgt>
<wgt id='1962'> +2.9620832E+03 </wgt>
<wgt id='1963'> +2.9744111E+03 </wgt>
<wgt id='1964'> +2.9768769E+03 </wgt>
<wgt id='1965'> +2.9677865E+03 </wgt>
<wgt id='1966'> +2.9943451E+03 </wgt>
<wgt id='1967'> +2.9755311E+03 </wgt>
<wgt id='1968'> +2.9875160E+03 </wgt>
<wgt id='1969'> +3.0020920E+03 </wgt>
<wgt id='1970'> +2.9725665E+03 </wgt>
<wgt id='1971'> +2.9930349E+03 </wgt>
<wgt id='1972'> +2.9696378E+03 </wgt>
<wgt id='1973'> +2.9943023E+03 </wgt>
<wgt id='1974'> +2.9954179E+03 </wgt>
<wgt id='1975'> +2.9637663E+03 </wgt>
<wgt id='1976'> +2.9604177E+03 </wgt>
<wgt id='1977'> +2.9666685E+03 </wgt>
<wgt id='1978'> +2.9727280E+03 </wgt>
<wgt id='1979'> +2.9536263E+03 </wgt>
<wgt id='1980'> +3.0130637E+03 </wgt>
<wgt id='1981'> +3.0029318E+03 </wgt>
<wgt id='1982'> +2.9721431E+03 </wgt>
<wgt id='1983'> +3.0110479E+03 </wgt>
<wgt id='1984'> +2.9432562E+03 </wgt>
<wgt id='1985'> +2.9701552E+03 </wgt>
<wgt id='1986'> +2.9776743E+03 </wgt>
<wgt id='1987'> +2.9679229E+03 </wgt>
<wgt id='1988'> +2.9701950E+03 </wgt>
<wgt id='1989'> +2.9649154E+03 </wgt>
<wgt id='1990'> +2.9562628E+03 </wgt>
<wgt id='1991'> +2.9762936E+03 </wgt>
<wgt id='1992'> +2.9753282E+03 </wgt>
<wgt id='1993'> +2.9801887E+03 </wgt>
<wgt id='1994'> +2.9697569E+03 </wgt>
<wgt id='1995'> +2.9840900E+03 </wgt>
<wgt id='1996'> +2.9802852E+03 </wgt>
<wgt id='1997'> +2.9736562E+03 </wgt>
<wgt id='1998'> +2.9855798E+03 </wgt>
<wgt id='1999'> +2.9748581E+03 </wgt>
<wgt id='2000'> +2.9707947E+03 </wgt>
<wgt id='2001'> +2.9794046E+03 </wgt>
<wgt id='2002'> +2.9771451E+03 </wgt>
<wgt id='2003'> +2.9771018E+03 </wgt>
<wgt id='2004'> +2.9771599E+03 </wgt>
<wgt id='2005'> +2.9771612E+03 </wgt>
<wgt id='2006'> +2.9771755E+03 </wgt>
<wgt id='2007'> +2.9771554E+03 </wgt>
<wgt id='2008'> +2.9771175E+03 </wgt>
<wgt id='2009'> +2.9464408E+03 </wgt>
<wgt id='2010'> +2.8138386E+03 </wgt>
<wgt id='2011'> +2.9513603E+03 </wgt>
<wgt id='2012'> +2.9743685E+03 </wgt>
<wgt id='2013'> +2.9825682E+03 </wgt>
<wgt id='2014'> +2.8788973E+03 </wgt>
<wgt id='2015'> +2.7905217E+03 </wgt>
<wgt id='2016'> +3.0025916E+03 </wgt>
<wgt id='2017'> +2.9060725E+03 </wgt>
<wgt id='2018'> +2.9832305E+03 </wgt>
<wgt id='2019'> +3.0587359E+03 </wgt>
<wgt id='2020'> +2.7787559E+03 </wgt>
<wgt id='2021'> +2.8324964E+03 </wgt>
<wgt id='2022'> +3.1191869E+03 </wgt>
<wgt id='2023'> +3.1391487E+03 </wgt>
<wgt id='2024'> +2.9267062E+03 </wgt>
<wgt id='2025'> +2.9482012E+03 </wgt>
<wgt id='2026'> +3.0451870E+03 </wgt>
<wgt id='2027'> +2.8420033E+03 </wgt>
<wgt id='2028'> +2.8126289E+03 </wgt>
<wgt id='2029'> +3.2284953E+03 </wgt>
<wgt id='2030'> +2.9718969E+03 </wgt>
<wgt id='2031'> +3.0040497E+03 </wgt>
<wgt id='2032'> +3.0663249E+03 </wgt>
<wgt id='2033'> +3.2196131E+03 </wgt>
<wgt id='2034'> +2.9022182E+03 </wgt>
<wgt id='2035'> +2.9672083E+03 </wgt>
<wgt id='2036'> +3.0120398E+03 </wgt>
<wgt id='2037'> +2.9774027E+03 </wgt>
<wgt id='2038'> +2.9655246E+03 </wgt>
<wgt id='2039'> +2.9742040E+03 </wgt>
<wgt id='2040'> +3.2046062E+03 </wgt>
<wgt id='2041'> +2.8959518E+03 </wgt>
<wgt id='2042'> +3.0234611E+03 </wgt>
<wgt id='2043'> +2.9327051E+03 </wgt>
<wgt id='2044'> +3.0924454E+03 </wgt>
<wgt id='2045'> +2.8469769E+03 </wgt>
<wgt id='2046'> +3.0654620E+03 </wgt>
<wgt id='2047'> +2.8037419E+03 </wgt>
<wgt id='2048'> +3.1016806E+03 </wgt>
<wgt id='2049'> +2.9594554E+03 </wgt>
<wgt id='2050'> +2.8985924E+03 </wgt>
<wgt id='2051'> +2.8045298E+03 </wgt>
<wgt id='2052'> +3.0268341E+03 </wgt>
<wgt id='2053'> +2.8843970E+03 </wgt>
<wgt id='2054'> +3.0542755E+03 </wgt>
<wgt id='2055'> +2.7691545E+03 </wgt>
<wgt id='2056'> +2.6552750E+03 </wgt>
<wgt id='2057'> +2.9568156E+03 </wgt>
<wgt id='2058'> +2.7356294E+03 </wgt>
<wgt id='2059'> +3.0490577E+03 </wgt>
<wgt id='2060'> +2.7928111E+03 </wgt>
<wgt id='2061'> +3.0861277E+03 </wgt>
<wgt id='2062'> +3.0108090E+03 </wgt>
<wgt id='2063'> +3.0941872E+03 </wgt>
<wgt id='2064'> +3.1122010E+03 </wgt>
<wgt id='2065'> +2.9833197E+03 </wgt>
<wgt id='2066'> +2.9869453E+03 </wgt>
<wgt id='2067'> +2.9057542E+03 </wgt>
<wgt id='2068'> +2.9590967E+03 </wgt>
<wgt id='2069'> +2.9560892E+03 </wgt>
<wgt id='2070'> +2.8659603E+03 </wgt>
<wgt id='2071'> +2.7641829E+03 </wgt>
<wgt id='2072'> +2.8905523E+03 </wgt>
<wgt id='2073'> +2.6718310E+03 </wgt>
<wgt id='2074'> +3.0017920E+03 </wgt>
<wgt id='2075'> +3.0957732E+03 </wgt>
<wgt id='2076'> +2.8749794E+03 </wgt>
<wgt id='2077'> +3.1208228E+03 </wgt>
<wgt id='2078'> +2.9903118E+03 </wgt>
<wgt id='2079'> +3.1861689E+03 </wgt>
<wgt id='2080'> +2.8782412E+03 </wgt>
<wgt id='2081'> +2.6782388E+03 </wgt>
<wgt id='2082'> +2.7653006E+03 </wgt>
<wgt id='2083'> +2.7729647E+03 </wgt>
<wgt id='2084'> +2.9011758E+03 </wgt>
<wgt id='2085'> +2.8040445E+03 </wgt>
<wgt id='2086'> +3.0976052E+03 </wgt>
<wgt id='2087'> +2.8171209E+03 </wgt>
<wgt id='2088'> +2.8651736E+03 </wgt>
<wgt id='2089'> +2.9799574E+03 </wgt>
<wgt id='2090'> +3.0117102E+03 </wgt>
<wgt id='2091'> +2.9981012E+03 </wgt>
<wgt id='2092'> +2.7323361E+03 </wgt>
<wgt id='2093'> +3.1371111E+03 </wgt>
<wgt id='2094'> +2.7064418E+03 </wgt>
<wgt id='2095'> +2.7344154E+03 </wgt>
<wgt id='2096'> +2.8294713E+03 </wgt>
<wgt id='2097'> +2.7655719E+03 </wgt>
<wgt id='2098'> +2.9573767E+03 </wgt>
<wgt id='2099'> +3.0875784E+03 </wgt>
<wgt id='2100'> +2.8961135E+03 </wgt>
<wgt id='2101'> +2.9526019E+03 </wgt>
<wgt id='2102'> +2.9788543E+03 </wgt>
<wgt id='2103'> +2.9084277E+03 </wgt>
<wgt id='2104'> +3.0092315E+03 </wgt>
<wgt id='2105'> +2.9178722E+03 </wgt>
<wgt id='2106'> +3.1809736E+03 </wgt>
<wgt id='2107'> +3.1464898E+03 </wgt>
<wgt id='2108'> +2.9319894E+03 </wgt>
<wgt id='2109'> +3.0141693E+03 </wgt>
<wgt id='2110'> +2.8318502E+03 </wgt>
<wgt id='2111'> +3.0206103E+03 </wgt>
<wgt id='2112'> +2.9628081E+03 </wgt>
<wgt id='2113'> +3.9461328E+03 </wgt>
<wgt id='2114'> +5.4496067E+03 </wgt>
<wgt id='2115'> +3.1225547E+03 </wgt>
<wgt id='2116'> +4.5944108E+03 </wgt>
</rwgt>
</event>
<event>
 5      5 +2.9771057E+03 8.30372300e+01 7.54677100e-03 1.19696700e-01
       -2 -1    0    0    0  501 -0.0000000000e+00 +0.0000000000e+00 +2.3554690389e+00 2.3554690389e+00 0.0000000000e+00 0.0000e+00 1.0000e+00
        1 -1    0    0  501    0 +0.0000000000e+00 -0.0000000000e+00 -7.3182688076e+02 7.3182688076e+02 0.0000000000e+00 0.0000e+00 -1.0000e+00
      -24  2    1    2    0    0 +0.0000000000e+00 +0.0000000000e+00 -7.2947141172e+02 7.3418234980e+02 8.3037234045e+01 0.0000e+00 0.0000e+00
       15  1    3    3    0    0 +2.2531525348e+01 -1.3598802870e+01 -6.4860941092e+02 6.4914553279e+02 1.7770000000e+00 0.0000e+00 -1.0000e+00
      -16  1    3    3    0    0 -2.2531525348e+01 +1.3598802870e+01 -8.0862000799e+01 8.5036817010e+01 0.0000000000e+00 0.0000e+00 1.0000e+00
<scales pt_clust_4="13000.00000" pt_clust_5="13000.00000"></scales>
<mgrwt>
<rscale>  0 0.83037234E+02</rscale>
<asrwt>0</asrwt>
<pdfrwt beam="1">  1        1 0.11258871E+00 0.83037234E+02</pdfrwt>
<pdfrwt beam="2">  1       -2 0.36238000E-03 0.83037234E+02</pdfrwt>
<totfact> 0.18295612E+05</totfact>
</mgrwt>
<clustering>
<clus scale="   83.037">  4  5 -1 -1</clus>
<clus scale="   83.037">  2  4  1 -1</clus>
</clustering>
<rwgt>
<wgt id='1001'> +2.9771057E+03 </wgt>
<wgt id='1002'> +2.7676490E+03 </wgt>
<wgt id='1003'> +2.7681873E+03 </wgt>
<wgt id='1004'> +2.4235598E+03 </wgt>
<wgt id='1005'> +2.9771057E+03 </wgt>
<wgt id='1006'> +2.9771057E+03 </wgt>
<wgt id='1007'> +2.7676490E+03 </wgt>
<wgt id='1008'> +2.7681873E+03 </wgt>
<wgt id='1009'> +2.4235598E+03 </wgt>
<wgt id='1010'> +2.9771057E+03 </wgt>
<wgt id='1011'> +2.9771057E+03 </wgt>
<wgt id='1012'> +2.7676490E+03 </wgt>
<wgt id='1013'> +2.7681873E+03 </wgt>
<wgt id='1014'> +2.4235598E+03 </wgt>
<wgt id='1015'> +2.9771057E+03 </wgt>
<wgt id='1016'> +3.2701416E+03 </wgt>
<wgt id='1017'> +3.0807637E+03 </wgt>
<wgt id='1018'> +3.0812513E+03 </wgt>
<wgt id='1019'> +2.7681873E+03 </wgt>
<wgt id='1020'> +3.2701416E+03 </wgt>
<wgt id='1021'> +3.2701416E+03 </wgt>
<wgt id='1022'> +3.0807637E+03 </wgt>
<wgt id='1023'> +3.0812513E+03 </wgt>
<wgt id='1024'> +2.7681873E+03 </wgt>
<wgt id='1025'> +3.2701416E+03 </wgt>
<wgt id='1026'> +3.2701416E+03 </wgt>
<wgt id='1027'> +3.0807637E+03 </wgt>
<wgt id='1028'> +3.0812513E+03 </wgt>
<wgt id='1029'> +2.7681873E+03 </wgt>
<wgt id='1030'> +3.2701416E+03 </wgt>
<wgt id='1031'> +2.6533296E+03 </wgt>
<wgt id='1032'> +2.4229684E+03 </wgt>
<wgt id='1033'> +2.4235598E+03 </wgt>
<wgt id='1034'> +2.0463948E+03 </wgt>
<wgt id='1035'> +2.6533296E+03 </wgt>
<wgt id='1036'> +2.6533296E+03 </wgt>
<wgt id='1037'> +2.4229684E+03 </wgt>
<wgt id='1038'> +2.4235598E+03 </wgt>
<wgt id='1039'> +2.0463948E+03 </wgt>
<wgt id='1040'> +2.6533296E+03 </wgt>
<wgt id='1041'> +2.6533296E+03 </wgt>
<wgt id='1042'> +2.4229684E+03 </wgt>
<wgt id='1043'> +2.4235598E+03 </wgt>
<wgt id='1044'> +2.0463948E+03 </wgt>
<wgt id='1045'> +2.6533296E+03 </wgt>
<wgt id='1046'> +2.9771057E+03 </wgt>
<wgt id='1047'> +2.9765649E+03 </wgt>
<wgt id='1048'> +2.9670680E+03 </wgt>
<wgt id='1049'> +2.9679373E+03 </wgt>
<wgt id='1050'> +2.9918935E+03 </wgt>
<wgt id='1051'> +2.9793209E+03 </wgt>
<wgt id='1052'> +2.9765821E+03 </wgt>
<wgt id='1053'> +2.9785486E+03 </wgt>
<wgt id='1054'> +2.9731045E+03 </wgt>
<wgt id='1055'> +2.9847970E+03 </wgt>
<wgt id='1056'> +2.9739751E+03 </wgt>
<wgt id='1057'> +2.9672251E+03 </wgt>
<wgt id='1058'> +2.9803723E+03 </wgt>
<wgt id='1059'> +2.9755990E+03 </wgt>
<wgt id='1060'> +2.9795514E+03 </wgt>
<wgt id='1061'> +2.9778294E+03 </wgt>
<wgt id='1062'> +2.9774300E+03 </wgt>
<wgt id='1063'> +2.9721623E+03 </wgt>
<wgt id='1064'> +2.9777992E+03 </wgt>
<wgt id='1065'> +2.9806384E+03 </wgt>
<wgt id='1066'> +2.9762801E+03 </wgt>
<wgt id='1067'> +2.9868553E+03 </wgt>
<wgt id='1068'> +2.9816219E+03 </wgt>
<wgt id='1069'> +2.9713751E+03 </wgt>
<wgt id='1070'> +2.9926496E+03 </wgt>
<wgt id='1071'> +2.9813207E+03 </wgt>
<wgt id='1072'> +2.9641120E+03 </wgt>
<wgt id='1073'> +2.9875614E+03 </wgt>
<wgt id='1074'> +2.9877603E+03 </wgt>
<wgt id='1075'> +2.9357549E+03 </wgt>
<wgt id='1076'> +2.9674521E+03 </wgt>
<wgt id='1077'> +2.9720485E+03 </wgt>
<wgt id='1078'> +2.9672576E+03 </wgt>
<wgt id='1079'> +2.9726150E+03 </wgt>
<wgt id='1080'> +2.9767412E+03 </wgt>
<wgt id='1081'> +2.9794319E+03 </wgt>
<wgt id='1082'> +2.9760163E+03 </wgt>
<wgt id='1083'> +2.9854560E+03 </wgt>
<wgt id='1084'> +2.9742847E+03 </wgt>
<wgt id='1085'> +2.9806978E+03 </wgt>
<wgt id='1086'> +2.9767876E+03 </wgt>
<wgt id='1087'> +2.9749261E+03 </wgt>
<wgt id='1088'> +2.9766046E+03 </wgt>
<wgt id='1089'> +2.9769353E+03 </wgt>
<wgt id='1090'> +2.9832717E+03 </wgt>
<wgt id='1091'> +2.9685486E+03 </wgt>
<wgt id='1092'> +2.9782269E+03 </wgt>
<wgt id='1093'> +2.9872060E+03 </wgt>
<wgt id='1094'> +2.9700057E+03 </wgt>
<wgt id='1095'> +2.9889351E+03 </wgt>
<wgt id='1096'> +2.9852346E+03 </wgt>
<wgt id='1097'> +2.9841878E+03 </wgt>
<wgt id='1098'> +2.9735661E+03 </wgt>
<wgt id='1099'> +2.9742867E+03 </wgt>
<wgt id='1100'> +2.9789762E+03 </wgt>
<wgt id='1101'> +2.9718212E+03 </wgt>
<wgt id='1102'> +2.9793964E+03 </wgt>
<wgt id='1103'> +2.9728668E+03 </wgt>
<wgt id='1104'> +2.9782011E+03 </wgt>
<wgt id='1105'> +2.9763619E+03 </wgt>
<wgt id='1106'> +2.9747819E+03 </wgt>
<wgt id='1107'> +2.9765238E+03 </wgt>
<wgt id='1108'> +2.9762481E+03 </wgt>
<wgt id='1109'> +2.9799179E+03 </wgt>
<wgt id='1110'> +2.9753452E+03 </wgt>
<wgt id='1111'> +2.9762930E+03 </wgt>
<wgt id='1112'> +2.9803630E+03 </wgt>
<wgt id='1113'> +2.9768175E+03 </wgt>
<wgt id='1114'> +2.9795570E+03 </wgt>
<wgt id='1115'> +2.9757019E+03 </wgt>
<wgt id='1116'> +2.9746204E+03 </wgt>
<wgt id='1117'> +2.9720556E+03 </wgt>
<wgt id='1118'> +2.9815833E+03 </wgt>
<wgt id='1119'> +2.9743341E+03 </wgt>
<wgt id='1120'> +2.9803833E+03 </wgt>
<wgt id='1121'> +2.9763411E+03 </wgt>
<wgt id='1122'> +2.9763404E+03 </wgt>
<wgt id='1123'> +2.9790068E+03 </wgt>
<wgt id='1124'> +2.9779711E+03 </wgt>
<wgt id='1125'> +2.9824888E+03 </wgt>
<wgt id='1126'> +2.9770057E+03 </wgt>
<wgt id='1127'> +2.9751225E+03 </wgt>
<wgt id='1128'> +2.9749193E+03 </wgt>
<wgt id='1129'> +2.9772395E+03 </wgt>
<wgt id='1130'> +2.9745559E+03 </wgt>
<wgt id='1131'> +2.9779543E+03 </wgt>
<wgt id='1132'> +2.9787397E+03 </wgt>
<wgt id='1133'> +2.9749152E+03 </wgt>
<wgt id='1134'> +2.9777826E+03 </wgt>
<wgt id='1135'> +2.9774201E+03 </wgt>
<wgt id='1136'> +2.9757947E+03 </wgt>
<wgt id='1137'> +2.9823891E+03 </wgt>
<wgt id='1138'> +2.9779009E+03 </wgt>
<wgt id='1139'> +2.9761554E+03 </wgt>
<wgt id='1140'> +2.9762596E+03 </wgt>
<wgt id='1141'> +2.9750312E+03 </wgt>
<wgt id='1142'> +2.9748234E+03 </wgt>
<wgt id='1143'> +2.9796306E+03 </wgt>
<wgt id='1144'> +2.9760444E+03 </wgt>
<wgt id='1145'> +2.9751868E+03 </wgt>
<wgt id='1146'> +2.9815857E+03 </wgt>
<wgt id='1147'> +2.9566173E+03 </wgt>
<wgt id='1148'> +3.0018956E+03 </wgt>
<wgt id='1149'> +2.8701188E+03 </wgt>
<wgt id='1150'> +2.8835745E+03 </wgt>
<wgt id='1151'> +2.9050196E+03 </wgt>
<wgt id='1152'> +2.9456185E+03 </wgt>
<wgt id='1153'> +2.9818565E+03 </wgt>
<wgt id='1154'> +2.9912971E+03 </wgt>
<wgt id='1155'> +3.0233109E+03 </wgt>
<wgt id='1156'> +3.0310937E+03 </wgt>
<wgt id='1157'> +2.9459241E+03 </wgt>
<wgt id='1158'> +2.9353023E+03 </wgt>
<wgt id='1159'> +2.9608664E+03 </wgt>
<wgt id='1160'> +2.9346719E+03 </wgt>
<wgt id='1161'> +2.9612199E+03 </wgt>
<wgt id='1162'> +2.9397741E+03 </wgt>
<wgt id='1163'> +2.9370643E+03 </wgt>
<wgt id='1164'> +2.9475435E+03 </wgt>
<wgt id='1165'> +2.9456904E+03 </wgt>
<wgt id='1166'> +2.9550951E+03 </wgt>
<wgt id='1167'> +2.9386065E+03 </wgt>
<wgt id='1168'> +2.9385865E+03 </wgt>
<wgt id='1169'> +2.9495053E+03 </wgt>
<wgt id='1170'> +2.9524001E+03 </wgt>
<wgt id='1171'> +2.9500316E+03 </wgt>
<wgt id='1172'> +2.9416323E+03 </wgt>
<wgt id='1173'> +2.9442033E+03 </wgt>
<wgt id='1174'> +2.9477732E+03 </wgt>
<wgt id='1175'> +2.9533521E+03 </wgt>
<wgt id='1176'> +2.9485137E+03 </wgt>
<wgt id='1177'> +2.9436417E+03 </wgt>
<wgt id='1178'> +2.9501944E+03 </wgt>
<wgt id='1179'> +2.9477092E+03 </wgt>
<wgt id='1180'> +2.9473566E+03 </wgt>
<wgt id='1181'> +2.9522398E+03 </wgt>
<wgt id='1182'> +2.9366366E+03 </wgt>
<wgt id='1183'> +2.9442714E+03 </wgt>
<wgt id='1184'> +2.9432997E+03 </wgt>
<wgt id='1185'> +2.9544108E+03 </wgt>
<wgt id='1186'> +2.9613553E+03 </wgt>
<wgt id='1187'> +2.9063349E+03 </wgt>
<wgt id='1188'> +2.9337451E+03 </wgt>
<wgt id='1189'> +2.9544522E+03 </wgt>
<wgt id='1190'> +2.9476562E+03 </wgt>
<wgt id='1191'> +2.9423243E+03 </wgt>
<wgt id='1192'> +2.9532450E+03 </wgt>
<wgt id='1193'> +2.9476142E+03 </wgt>
<wgt id='1194'> +2.9393153E+03 </wgt>
<wgt id='1195'> +2.9460331E+03 </wgt>
<wgt id='1196'> +2.9485715E+03 </wgt>
<wgt id='1197'> +2.9431230E+03 </wgt>
<wgt id='1198'> +2.9579757E+03 </wgt>
<wgt id='1199'> +2.9448064E+03 </wgt>
<wgt id='1200'> +2.9468449E+03 </wgt>
<wgt id='1201'> +2.9498999E+03 </wgt>
<wgt id='1202'> +2.9472455E+03 </wgt>
<wgt id='1203'> +2.9433320E+03 </wgt>
<wgt id='1204'> +2.9480434E+03 </wgt>
<wgt id='1205'> +2.9518551E+03 </wgt>
<wgt id='1206'> +2.9341754E+03 </wgt>
<wgt id='1207'> +2.9449634E+03 </wgt>
<wgt id='1208'> +2.9591602E+03 </wgt>
<wgt id='1209'> +2.9504463E+03 </wgt>
<wgt id='1210'> +2.9443585E+03 </wgt>
<wgt id='1211'> +2.9458471E+03 </wgt>
<wgt id='1212'> +2.9422164E+03 </wgt>
<wgt id='1213'> +2.9368392E+03 </wgt>
<wgt id='1214'> +2.9446496E+03 </wgt>
<wgt id='1215'> +2.9434028E+03 </wgt>
<wgt id='1216'> +2.9477227E+03 </wgt>
<wgt id='1217'> +2.9504124E+03 </wgt>
<wgt id='1218'> +2.9444346E+03 </wgt>
<wgt id='1219'> +2.9455517E+03 </wgt>
<wgt id='1220'> +2.9453605E+03 </wgt>
<wgt id='1221'> +2.9465632E+03 </wgt>
<wgt id='1222'> +2.9445740E+03 </wgt>
<wgt id='1223'> +2.9474646E+03 </wgt>
<wgt id='1224'> +2.9448449E+03 </wgt>
<wgt id='1225'> +2.9450611E+03 </wgt>
<wgt id='1226'> +2.9447915E+03 </wgt>
<wgt id='1227'> +2.9439711E+03 </wgt>
<wgt id='1228'> +2.9459829E+03 </wgt>
<wgt id='1229'> +2.9428436E+03 </wgt>
<wgt id='1230'> +2.9426185E+03 </wgt>
<wgt id='1231'> +2.9463209E+03 </wgt>
<wgt id='1232'> +2.9495896E+03 </wgt>
<wgt id='1233'> +2.9472412E+03 </wgt>
<wgt id='1234'> +2.9445331E+03 </wgt>
<wgt id='1235'> +2.9423174E+03 </wgt>
<wgt id='1236'> +2.9448313E+03 </wgt>
<wgt id='1237'> +2.9455178E+03 </wgt>
<wgt id='1238'> +2.9413743E+03 </wgt>
<wgt id='1239'> +2.9481165E+03 </wgt>
<wgt id='1240'> +2.9451493E+03 </wgt>
<wgt id='1241'> +2.9482427E+03 </wgt>
<wgt id='1242'> +2.9467626E+03 </wgt>
<wgt id='1243'> +2.9449326E+03 </wgt>
<wgt id='1244'> +2.9472156E+03 </wgt>
<wgt id='1245'> +2.9473665E+03 </wgt>
<wgt id='1246'> +2.9501464E+03 </wgt>
<wgt id='1247'> +2.9460475E+03 </wgt>
<wgt id='1248'> +2.9448257E+03 </wgt>
<wgt id='1249'> +2.9462024E+03 </wgt>
<wgt id='1250'> +2.9446006E+03 </wgt>
<wgt id='1251'> +2.9443633E+03 </wgt>
<wgt id='1252'> +2.9491323E+03 </wgt>
<wgt id='1253'> +2.9478717E+03 </wgt>
<wgt id='1254'> +2.9466541E+03 </wgt>
<wgt id='1255'> +2.9407987E+03 </wgt>
<wgt id='1256'> +2.9497013E+03 </wgt>
<wgt id='1257'> +2.9455244E+03 </wgt>
<wgt id='1258'> +2.9275124E+03 </wgt>
<wgt id='1259'> +2.9763523E+03 </wgt>
<wgt id='1260'> +3.0242418E+03 </wgt>
<wgt id='1261'> +2.9939452E+03 </wgt>
<wgt id='1262'> +2.9976859E+03 </wgt>
<wgt id='1263'> +3.0481232E+03 </wgt>
<wgt id='1264'> +3.0512823E+03 </wgt>
<wgt id='1265'> +3.0780963E+03 </wgt>
<wgt id='1266'> +3.0544575E+03 </wgt>
<wgt id='1267'> +3.0574167E+03 </wgt>
<wgt id='1268'> +3.0488795E+03 </wgt>
<wgt id='1269'> +3.0754270E+03 </wgt>
<wgt id='1270'> +2.9886418E+03 </wgt>
<wgt id='1271'> +3.0414900E+03 </wgt>
<wgt id='1272'> +2.9738670E+03 </wgt>
<wgt id='1273'> +2.9882471E+03 </wgt>
<wgt id='1274'> +3.0027012E+03 </wgt>
<wgt id='1275'> +3.0365699E+03 </wgt>
<wgt id='1276'> +2.9732425E+03 </wgt>
<wgt id='1277'> +3.0325858E+03 </wgt>
<wgt id='1278'> +3.0179873E+03 </wgt>
<wgt id='1279'> +3.0177338E+03 </wgt>
<wgt id='1280'> +3.0389531E+03 </wgt>
<wgt id='1281'> +3.0614553E+03 </wgt>
<wgt id='1282'> +3.0016380E+03 </wgt>
<wgt id='1283'> +3.0351533E+03 </wgt>
<wgt id='1284'> +3.0109176E+03 </wgt>
<wgt id='1285'> +3.0391430E+03 </wgt>
<wgt id='1286'> +3.0082522E+03 </wgt>
<wgt id='1287'> +3.0395831E+03 </wgt>
<wgt id='1288'> +2.9967708E+03 </wgt>
<wgt id='1289'> +2.9864578E+03 </wgt>
<wgt id='1290'> +3.0469644E+03 </wgt>
<wgt id='1291'> +3.0108862E+03 </wgt>
<wgt id='1292'> +3.0425796E+03 </wgt>
<wgt id='1293'> +3.0456781E+03 </wgt>
<wgt id='1294'> +3.0039286E+03 </wgt>
<wgt id='1295'> +3.0145715E+03 </wgt>
<wgt id='1296'> +3.0389227E+03 </wgt>
<wgt id='1297'> +3.0978017E+03 </wgt>
<wgt id='1298'> +2.9424575E+03 </wgt>
<wgt id='1299'> +3.0523603E+03 </wgt>
<wgt id='1300'> +2.9769711E+03 </wgt>
<wgt id='1301'> +3.0297145E+03 </wgt>
<wgt id='1302'> +3.0247030E+03 </wgt>
<wgt id='1303'> +3.0338260E+03 </wgt>
<wgt id='1304'> +2.9899653E+03 </wgt>
<wgt id='1305'> +2.9818107E+03 </wgt>
<wgt id='1306'> +3.1101614E+03 </wgt>
<wgt id='1307'> +3.0283313E+03 </wgt>
<wgt id='1308'> +3.0576546E+03 </wgt>
<wgt id='1309'> +3.0347987E+03 </wgt>
<wgt id='1310'> +3.0424076E+03 </wgt>
<wgt id='1311'> +3.0203961E+03 </wgt>
<wgt id='1312'> +3.0590995E+03 </wgt>
<wgt id='1313'> +3.1195440E+03 </wgt>
<wgt id='1314'> +3.0884720E+03 </wgt>
<wgt id='1315'> +2.9583997E+03 </wgt>
<wgt id='1316'> +3.0625731E+03 </wgt>
<wgt id='1317'> +2.9970814E+03 </wgt>
<wgt id='1318'> +3.0483375E+03 </wgt>
<wgt id='1319'> +2.9518219E+03 </wgt>
<wgt id='1320'> +2.9879852E+03 </wgt>
<wgt id='1321'> +2.9550379E+03 </wgt>
<wgt id='1322'> +2.9703390E+03 </wgt>
<wgt id='1323'> +3.0000440E+03 </wgt>
<wgt id='1324'> +2.9640140E+03 </wgt>
<wgt id='1325'> +2.9528841E+03 </wgt>
<wgt id='1326'> +2.9683150E+03 </wgt>
<wgt id='1327'> +2.9900968E+03 </wgt>
<wgt id='1328'> +2.9311928E+03 </wgt>
<wgt id='1329'> +2.9639337E+03 </wgt>
<wgt id='1330'> +2.9229776E+03 </wgt>
<wgt id='1331'> +2.9814159E+03 </wgt>
<wgt id='1332'> +2.8567064E+03 </wgt>
<wgt id='1333'> +3.0064580E+03 </wgt>
<wgt id='1334'> +2.9682596E+03 </wgt>
<wgt id='1335'> +2.9102699E+03 </wgt>
<wgt id='1336'> +3.0119829E+03 </wgt>
<wgt id='1337'> +2.8803616E+03 </wgt>
<wgt id='1338'> +2.9768514E+03 </wgt>
<wgt id='1339'> +2.9261462E+03 </wgt>
<wgt id='1340'> +2.9566668E+03 </wgt>
<wgt id='1341'> +2.9453018E+03 </wgt>
<wgt id='1342'> +2.9486271E+03 </wgt>
<wgt id='1343'> +2.9611010E+03 </wgt>
<wgt id='1344'> +2.9080736E+03 </wgt>
<wgt id='1345'> +2.9962587E+03 </wgt>
<wgt id='1346'> +2.9238383E+03 </wgt>
<wgt id='1347'> +2.9914453E+03 </wgt>
<wgt id='1348'> +2.9588787E+03 </wgt>
<wgt id='1349'> +2.9490766E+03 </wgt>
<wgt id='1350'> +2.9465595E+03 </wgt>
<wgt id='1351'> +2.9586332E+03 </wgt>
<wgt id='1352'> +2.9414937E+03 </wgt>
<wgt id='1353'> +2.9739199E+03 </wgt>
<wgt id='1354'> +2.9967099E+03 </wgt>
<wgt id='1355'> +2.9113528E+03 </wgt>
<wgt id='1356'> +2.9510489E+03 </wgt>
<wgt id='1357'> +2.9363303E+03 </wgt>
<wgt id='1358'> +2.9002897E+03 </wgt>
<wgt id='1359'> +2.9718838E+03 </wgt>
<wgt id='1360'> +2.9934871E+03 </wgt>
<wgt id='1361'> +2.9268030E+03 </wgt>
<wgt id='1362'> +2.9239136E+03 </wgt>
<wgt id='1363'> +2.9647890E+03 </wgt>
<wgt id='1364'> +2.9588198E+03 </wgt>
<wgt id='1365'> +2.9676969E+03 </wgt>
<wgt id='1366'> +2.9544460E+03 </wgt>
<wgt id='1367'> +2.9915956E+03 </wgt>
<wgt id='1368'> +2.9692812E+03 </wgt>
<wgt id='1369'> +2.9950300E+03 </wgt>
<wgt id='1370'> +2.9255518E+03 </wgt>
<wgt id='1371'> +2.9200729E+03 </wgt>
<wgt id='1372'> +2.9669110E+03 </wgt>
<wgt id='1373'> +2.8917525E+03 </wgt>
<wgt id='1374'> +2.8842262E+03 </wgt>
<wgt id='1375'> +2.9831220E+03 </wgt>
<wgt id='1376'> +2.9178289E+03 </wgt>
<wgt id='1377'> +2.9805651E+03 </wgt>
<wgt id='1378'> +2.6647293E+03 </wgt>
<wgt id='1379'> +2.8125362E+03 </wgt>
<wgt id='1380'> +2.8248983E+03 </wgt>
<wgt id='1381'> +2.7993622E+03 </wgt>
<wgt id='1382'> +2.8085573E+03 </wgt>
<wgt id='1383'> +2.8151895E+03 </wgt>
<wgt id='1384'> +2.7934102E+03 </wgt>
<wgt id='1385'> +2.8301673E+03 </wgt>
<wgt id='1386'> +2.8104739E+03 </wgt>
<wgt id='1387'> +2.8148542E+03 </wgt>
<wgt id='1388'> +2.8229879E+03 </wgt>
<wgt id='1389'> +2.8025764E+03 </wgt>
<wgt id='1390'> +2.8130509E+03 </wgt>
<wgt id='1391'> +2.8114079E+03 </wgt>
<wgt id='1392'> +2.8220433E+03 </wgt>
<wgt id='1393'> +2.7953918E+03 </wgt>
<wgt id='1394'> +2.8116352E+03 </wgt>
<wgt id='1395'> +2.8129263E+03 </wgt>
<wgt id='1396'> +2.8180551E+03 </wgt>
<wgt id='1397'> +2.8065266E+03 </wgt>
<wgt id='1398'> +2.8175378E+03 </wgt>
<wgt id='1399'> +2.8081105E+03 </wgt>
<wgt id='1400'> +2.8343458E+03 </wgt>
<wgt id='1401'> +2.7840819E+03 </wgt>
<wgt id='1402'> +2.8418952E+03 </wgt>
<wgt id='1403'> +2.7947116E+03 </wgt>
<wgt id='1404'> +2.8222847E+03 </wgt>
<wgt id='1405'> +2.7858023E+03 </wgt>
<wgt id='1406'> +2.8105975E+03 </wgt>
<wgt id='1407'> +2.8119178E+03 </wgt>
<wgt id='1408'> +2.8268988E+03 </wgt>
<wgt id='1409'> +2.7933633E+03 </wgt>
<wgt id='1410'> +2.8522005E+03 </wgt>
<wgt id='1411'> +2.7639452E+03 </wgt>
<wgt id='1412'> +2.7987387E+03 </wgt>
<wgt id='1413'> +2.8230354E+03 </wgt>
<wgt id='1414'> +2.8125364E+03 </wgt>
<wgt id='1415'> +2.8195453E+03 </wgt>
<wgt id='1416'> +2.8104403E+03 </wgt>
<wgt id='1417'> +2.8164494E+03 </wgt>
<wgt id='1418'> +2.8058237E+03 </wgt>
<wgt id='1419'> +2.8183904E+03 </wgt>
<wgt id='1420'> +2.7443207E+03 </wgt>
<wgt id='1421'> +2.8631290E+03 </wgt>
<wgt id='1422'> +2.8382564E+03 </wgt>
<wgt id='1423'> +2.7921821E+03 </wgt>
<wgt id='1424'> +2.7956595E+03 </wgt>
<wgt id='1425'> +2.8534525E+03 </wgt>
<wgt id='1426'> +2.8162256E+03 </wgt>
<wgt id='1427'> +2.8148812E+03 </wgt>
<wgt id='1428'> +2.8103179E+03 </wgt>
<wgt id='1429'> +2.8071746E+03 </wgt>
<wgt id='1430'> +2.9991097E+03 </wgt>
<wgt id='1431'> +3.0123545E+03 </wgt>
<wgt id='1432'> +2.9819777E+03 </wgt>
<wgt id='1433'> +2.9960037E+03 </wgt>
<wgt id='1434'> +3.0021141E+03 </wgt>
<wgt id='1435'> +2.9903193E+03 </wgt>
<wgt id='1436'> +3.0027063E+03 </wgt>
<wgt id='1437'> +2.9816527E+03 </wgt>
<wgt id='1438'> +3.0166620E+03 </wgt>
<wgt id='1439'> +3.0042775E+03 </wgt>
<wgt id='1440'> +2.9941017E+03 </wgt>
<wgt id='1441'> +2.9866297E+03 </wgt>
<wgt id='1442'> +3.0044136E+03 </wgt>
<wgt id='1443'> +3.0052392E+03 </wgt>
<wgt id='1444'> +2.9916160E+03 </wgt>
<wgt id='1445'> +3.0035579E+03 </wgt>
<wgt id='1446'> +2.9941758E+03 </wgt>
<wgt id='1447'> +2.9937180E+03 </wgt>
<wgt id='1448'> +3.0014342E+03 </wgt>
<wgt id='1449'> +2.9876978E+03 </wgt>
<wgt id='1450'> +3.0146988E+03 </wgt>
<wgt id='1451'> +2.9859437E+03 </wgt>
<wgt id='1452'> +3.0075754E+03 </wgt>
<wgt id='1453'> +2.9556104E+03 </wgt>
<wgt id='1454'> +3.0351494E+03 </wgt>
<wgt id='1455'> +2.9870113E+03 </wgt>
<wgt id='1456'> +3.0304684E+03 </wgt>
<wgt id='1457'> +3.0014471E+03 </wgt>
<wgt id='1458'> +2.9997757E+03 </wgt>
<wgt id='1459'> +2.9832614E+03 </wgt>
<wgt id='1460'> +3.0306018E+03 </wgt>
<wgt id='1461'> +3.0175851E+03 </wgt>
<wgt id='1462'> +2.9599695E+03 </wgt>
<wgt id='1463'> +2.9944634E+03 </wgt>
<wgt id='1464'> +3.0082965E+03 </wgt>
<wgt id='1465'> +3.0154999E+03 </wgt>
<wgt id='1466'> +2.9928922E+03 </wgt>
<wgt id='1467'> +2.9988875E+03 </wgt>
<wgt id='1468'> +2.9848574E+03 </wgt>
<wgt id='1469'> +2.9923711E+03 </wgt>
<wgt id='1470'> +3.0017703E+03 </wgt>
<wgt id='1471'> +3.0424358E+03 </wgt>
<wgt id='1472'> +2.9166458E+03 </wgt>
<wgt id='1473'> +3.0005444E+03 </wgt>
<wgt id='1474'> +2.9757309E+03 </wgt>
<wgt id='1475'> +2.9909424E+03 </wgt>
<wgt id='1476'> +3.0270194E+03 </wgt>
<wgt id='1477'> +3.0322471E+03 </wgt>
<wgt id='1478'> +2.9875591E+03 </wgt>
<wgt id='1479'> +3.0135352E+03 </wgt>
<wgt id='1480'> +3.0077079E+03 </wgt>
<wgt id='1481'> +2.7852546E+03 </wgt>
<wgt id='1482'> +2.9708591E+03 </wgt>
<wgt id='1483'> +2.9704591E+03 </wgt>
<wgt id='1484'> +2.9667309E+03 </wgt>
<wgt id='1485'> +2.9702886E+03 </wgt>
<wgt id='1486'> +2.9708586E+03 </wgt>
<wgt id='1487'> +2.9694976E+03 </wgt>
<wgt id='1488'> +2.9590054E+03 </wgt>
<wgt id='1489'> +2.9715783E+03 </wgt>
<wgt id='1490'> +2.9681134E+03 </wgt>
<wgt id='1491'> +2.9566690E+03 </wgt>
<wgt id='1492'> +2.9727258E+03 </wgt>
<wgt id='1493'> +2.9707087E+03 </wgt>
<wgt id='1494'> +2.9748441E+03 </wgt>
<wgt id='1495'> +2.9751246E+03 </wgt>
<wgt id='1496'> +2.9602262E+03 </wgt>
<wgt id='1497'> +2.9636002E+03 </wgt>
<wgt id='1498'> +2.9601567E+03 </wgt>
<wgt id='1499'> +2.9675797E+03 </wgt>
<wgt id='1500'> +2.9611210E+03 </wgt>
<wgt id='1501'> +2.9756556E+03 </wgt>
<wgt id='1502'> +2.9624264E+03 </wgt>
<wgt id='1503'> +2.9518746E+03 </wgt>
<wgt id='1504'> +2.9696548E+03 </wgt>
<wgt id='1505'> +2.9868471E+03 </wgt>
<wgt id='1506'> +2.9847046E+03 </wgt>
<wgt id='1507'> +2.9665991E+03 </wgt>
<wgt id='1508'> +2.9721370E+03 </wgt>
<wgt id='1509'> +2.9885999E+03 </wgt>
<wgt id='1510'> +2.9470855E+03 </wgt>
<wgt id='1511'> +2.9432066E+03 </wgt>
<wgt id='1512'> +2.8635202E+03 </wgt>
<wgt id='1513'> +2.8626981E+03 </wgt>
<wgt id='1514'> +2.8223550E+03 </wgt>
<wgt id='1515'> +2.8994675E+03 </wgt>
<wgt id='1516'> +2.8606264E+03 </wgt>
<wgt id='1517'> +2.8806792E+03 </wgt>
<wgt id='1518'> +2.8284712E+03 </wgt>
<wgt id='1519'> +2.8928705E+03 </wgt>
<wgt id='1520'> +2.8882158E+03 </wgt>
<wgt id='1521'> +2.8526092E+03 </wgt>
<wgt id='1522'> +2.8531916E+03 </wgt>
<wgt id='1523'> +2.8421809E+03 </wgt>
<wgt id='1524'> +2.8487493E+03 </wgt>
<wgt id='1525'> +2.8744133E+03 </wgt>
<wgt id='1526'> +2.8608614E+03 </wgt>
<wgt id='1527'> +2.8510247E+03 </wgt>
<wgt id='1528'> +2.8503098E+03 </wgt>
<wgt id='1529'> +2.8539397E+03 </wgt>
<wgt id='1530'> +2.8982604E+03 </wgt>
<wgt id='1531'> +2.8479647E+03 </wgt>
<wgt id='1532'> +2.8685497E+03 </wgt>
<wgt id='1533'> +2.8714114E+03 </wgt>
<wgt id='1534'> +2.8580830E+03 </wgt>
<wgt id='1535'> +2.8871942E+03 </wgt>
<wgt id='1536'> +2.8552638E+03 </wgt>
<wgt id='1537'> +2.8761688E+03 </wgt>
<wgt id='1538'> +2.8581564E+03 </wgt>
<wgt id='1539'> +2.8688656E+03 </wgt>
<wgt id='1540'> +2.8689600E+03 </wgt>
<wgt id='1541'> +2.8569849E+03 </wgt>
<wgt id='1542'> +2.8574961E+03 </wgt>
<wgt id='1543'> +2.8570535E+03 </wgt>
<wgt id='1544'> +2.8791684E+03 </wgt>
<wgt id='1545'> +2.8664747E+03 </wgt>
<wgt id='1546'> +2.8481612E+03 </wgt>
<wgt id='1547'> +2.8770689E+03 </wgt>
<wgt id='1548'> +2.8595760E+03 </wgt>
<wgt id='1549'> +2.8672091E+03 </wgt>
<wgt id='1550'> +2.8553926E+03 </wgt>
<wgt id='1551'> +2.8524389E+03 </wgt>
<wgt id='1552'> +2.8583529E+03 </wgt>
<wgt id='1553'> +2.8639228E+03 </wgt>
<wgt id='1554'> +2.8678151E+03 </wgt>
<wgt id='1555'> +2.8618251E+03 </wgt>
<wgt id='1556'> +2.8585470E+03 </wgt>
<wgt id='1557'> +2.8650414E+03 </wgt>
<wgt id='1558'> +2.8658500E+03 </wgt>
<wgt id='1559'> +2.8656305E+03 </wgt>
<wgt id='1560'> +2.8597591E+03 </wgt>
<wgt id='1561'> +2.8614411E+03 </wgt>
<wgt id='1562'> +2.8609222E+03 </wgt>
<wgt id='1563'> +2.8510824E+03 </wgt>
<wgt id='1564'> +2.8625801E+03 </wgt>
<wgt id='1565'> +2.8677099E+03 </wgt>
<wgt id='1566'> +2.8625779E+03 </wgt>
<wgt id='1567'> +2.8658881E+03 </wgt>
<wgt id='1568'> +2.8625958E+03 </wgt>
<wgt id='1569'> +2.8621454E+03 </wgt>
<wgt id='1570'> +2.8709924E+03 </wgt>
<wgt id='1571'> +2.8724201E+03 </wgt>
<wgt id='1572'> +2.8586913E+03 </wgt>
<wgt id='1573'> +2.8656370E+03 </wgt>
<wgt id='1574'> +2.8581334E+03 </wgt>
<wgt id='1575'> +2.8683451E+03 </wgt>
<wgt id='1576'> +2.8634411E+03 </wgt>
<wgt id='1577'> +2.8661861E+03 </wgt>
<wgt id='1578'> +2.8669502E+03 </wgt>
<wgt id='1579'> +2.8641576E+03 </wgt>
<wgt id='1580'> +2.8662227E+03 </wgt>
<wgt id='1581'> +2.8634320E+03 </wgt>
<wgt id='1582'> +2.8620989E+03 </wgt>
<wgt id='1583'> +2.8622490E+03 </wgt>
<wgt id='1584'> +2.8641011E+03 </wgt>
<wgt id='1585'> +2.8638323E+03 </wgt>
<wgt id='1586'> +2.8622805E+03 </wgt>
<wgt id='1587'> +2.8630081E+03 </wgt>
<wgt id='1588'> +2.8629208E+03 </wgt>
<wgt id='1589'> +2.8619997E+03 </wgt>
<wgt id='1590'> +2.8615000E+03 </wgt>
<wgt id='1591'> +2.8635437E+03 </wgt>
<wgt id='1592'> +2.8635878E+03 </wgt>
<wgt id='1593'> +2.8651759E+03 </wgt>
<wgt id='1594'> +2.8620160E+03 </wgt>
<wgt id='1595'> +2.8626680E+03 </wgt>
<wgt id='1596'> +2.8636876E+03 </wgt>
<wgt id='1597'> +2.8630218E+03 </wgt>
<wgt id='1598'> +2.8649121E+03 </wgt>
<wgt id='1599'> +2.8628426E+03 </wgt>
<wgt id='1600'> +2.8632768E+03 </wgt>
<wgt id='1601'> +2.8629325E+03 </wgt>
<wgt id='1602'> +2.8645890E+03 </wgt>
<wgt id='1603'> +2.8617123E+03 </wgt>
<wgt id='1604'> +2.8630842E+03 </wgt>
<wgt id='1605'> +2.8628077E+03 </wgt>
<wgt id='1606'> +2.8626905E+03 </wgt>
<wgt id='1607'> +2.8617865E+03 </wgt>
<wgt id='1608'> +2.8632677E+03 </wgt>
<wgt id='1609'> +2.8640890E+03 </wgt>
<wgt id='1610'> +2.8634652E+03 </wgt>
<wgt id='1611'> +2.8627187E+03 </wgt>
<wgt id='1612'> +2.8642429E+03 </wgt>
<wgt id='1613'> +2.8384659E+03 </wgt>
<wgt id='1614'> +2.8871091E+03 </wgt>
<wgt id='1615'> +2.9848110E+03 </wgt>
<wgt id='1616'> +2.9984147E+03 </wgt>
<wgt id='1617'> +2.9611960E+03 </wgt>
<wgt id='1618'> +3.0127315E+03 </wgt>
<wgt id='1619'> +3.0145340E+03 </wgt>
<wgt id='1620'> +3.0014918E+03 </wgt>
<wgt id='1621'> +3.0130623E+03 </wgt>
<wgt id='1622'> +3.0027751E+03 </wgt>
<wgt id='1623'> +2.9903990E+03 </wgt>
<wgt id='1624'> +2.9891046E+03 </wgt>
<wgt id='1625'> +2.9938098E+03 </wgt>
<wgt id='1626'> +2.9983742E+03 </wgt>
<wgt id='1627'> +2.9779853E+03 </wgt>
<wgt id='1628'> +2.9919651E+03 </wgt>
<wgt id='1629'> +2.9617856E+03 </wgt>
<wgt id='1630'> +3.0039904E+03 </wgt>
<wgt id='1631'> +2.9724755E+03 </wgt>
<wgt id='1632'> +2.9970345E+03 </wgt>
<wgt id='1633'> +2.9861654E+03 </wgt>
<wgt id='1634'> +2.9501771E+03 </wgt>
<wgt id='1635'> +2.9881307E+03 </wgt>
<wgt id='1636'> +2.9959397E+03 </wgt>
<wgt id='1637'> +2.9629823E+03 </wgt>
<wgt id='1638'> +2.9909432E+03 </wgt>
<wgt id='1639'> +2.9973633E+03 </wgt>
<wgt id='1640'> +2.9830393E+03 </wgt>
<wgt id='1641'> +2.9733277E+03 </wgt>
<wgt id='1642'> +2.9914622E+03 </wgt>
<wgt id='1643'> +2.9845337E+03 </wgt>
<wgt id='1644'> +2.9727729E+03 </wgt>
<wgt id='1645'> +2.9836224E+03 </wgt>
<wgt id='1646'> +2.9781666E+03 </wgt>
<wgt id='1647'> +2.9996304E+03 </wgt>
<wgt id='1648'> +2.9840441E+03 </wgt>
<wgt id='1649'> +2.9817125E+03 </wgt>
<wgt id='1650'> +2.9853889E+03 </wgt>
<wgt id='1651'> +2.9823887E+03 </wgt>
<wgt id='1652'> +3.0026545E+03 </wgt>
<wgt id='1653'> +3.0061616E+03 </wgt>
<wgt id='1654'> +2.9818747E+03 </wgt>
<wgt id='1655'> +2.9888627E+03 </wgt>
<wgt id='1656'> +2.9742829E+03 </wgt>
<wgt id='1657'> +2.9780390E+03 </wgt>
<wgt id='1658'> +2.9862788E+03 </wgt>
<wgt id='1659'> +2.9801158E+03 </wgt>
<wgt id='1660'> +2.9872494E+03 </wgt>
<wgt id='1661'> +2.9768307E+03 </wgt>
<wgt id='1662'> +2.9825970E+03 </wgt>
<wgt id='1663'> +2.9818001E+03 </wgt>
<wgt id='1664'> +2.9795085E+03 </wgt>
<wgt id='1665'> +2.9869692E+03 </wgt>
<wgt id='1666'> +2.9863417E+03 </wgt>
<wgt id='1667'> +2.9797041E+03 </wgt>
<wgt id='1668'> +2.9836794E+03 </wgt>
<wgt id='1669'> +2.9872756E+03 </wgt>
<wgt id='1670'> +2.9780949E+03 </wgt>
<wgt id='1671'> +2.9882670E+03 </wgt>
<wgt id='1672'> +2.9922657E+03 </wgt>
<wgt id='1673'> +2.9836187E+03 </wgt>
<wgt id='1674'> +2.9792022E+03 </wgt>
<wgt id='1675'> +2.9789092E+03 </wgt>
<wgt id='1676'> +2.9913819E+03 </wgt>
<wgt id='1677'> +2.9787389E+03 </wgt>
<wgt id='1678'> +2.9887950E+03 </wgt>
<wgt id='1679'> +2.9839274E+03 </wgt>
<wgt id='1680'> +2.9808680E+03 </wgt>
<wgt id='1681'> +2.9830684E+03 </wgt>
<wgt id='1682'> +2.9817477E+03 </wgt>
<wgt id='1683'> +2.9831328E+03 </wgt>
<wgt id='1684'> +2.9834573E+03 </wgt>
<wgt id='1685'> +2.9842476E+03 </wgt>
<wgt id='1686'> +2.9881193E+03 </wgt>
<wgt id='1687'> +2.9855609E+03 </wgt>
<wgt id='1688'> +2.9861665E+03 </wgt>
<wgt id='1689'> +2.9841524E+03 </wgt>
<wgt id='1690'> +2.9862882E+03 </wgt>
<wgt id='1691'> +2.9854803E+03 </wgt>
<wgt id='1692'> +2.9859151E+03 </wgt>
<wgt id='1693'> +2.9827779E+03 </wgt>
<wgt id='1694'> +2.9844761E+03 </wgt>
<wgt id='1695'> +2.9877197E+03 </wgt>
<wgt id='1696'> +2.9846229E+03 </wgt>
<wgt id='1697'> +2.9847550E+03 </wgt>
<wgt id='1698'> +2.9835187E+03 </wgt>
<wgt id='1699'> +2.9830365E+03 </wgt>
<wgt id='1700'> +2.9860341E+03 </wgt>
<wgt id='1701'> +2.9840409E+03 </wgt>
<wgt id='1702'> +2.9831738E+03 </wgt>
<wgt id='1703'> +2.9848738E+03 </wgt>
<wgt id='1704'> +2.9835970E+03 </wgt>
<wgt id='1705'> +2.9847943E+03 </wgt>
<wgt id='1706'> +2.9845773E+03 </wgt>
<wgt id='1707'> +2.9846477E+03 </wgt>
<wgt id='1708'> +2.9837821E+03 </wgt>
<wgt id='1709'> +2.9840566E+03 </wgt>
<wgt id='1710'> +2.9843025E+03 </wgt>
<wgt id='1711'> +2.9847326E+03 </wgt>
<wgt id='1712'> +2.9849487E+03 </wgt>
<wgt id='1713'> +2.9848218E+03 </wgt>
<wgt id='1714'> +2.9833600E+03 </wgt>
<wgt id='1715'> +2.9858642E+03 </wgt>
<wgt id='1716'> +2.9662264E+03 </wgt>
<wgt id='1717'> +3.0041387E+03 </wgt>
<wgt id='1718'> +2.8634787E+03 </wgt>
<wgt id='1719'> +2.8362058E+03 </wgt>
<wgt id='1720'> +2.8230524E+03 </wgt>
<wgt id='1721'> +2.8645066E+03 </wgt>
<wgt id='1722'> +2.9162978E+03 </wgt>
<wgt id='1723'> +2.8680402E+03 </wgt>
<wgt id='1724'> +2.8928859E+03 </wgt>
<wgt id='1725'> +2.8610133E+03 </wgt>
<wgt id='1726'> +2.8662704E+03 </wgt>
<wgt id='1727'> +2.8885615E+03 </wgt>
<wgt id='1728'> +2.8592633E+03 </wgt>
<wgt id='1729'> +2.8448071E+03 </wgt>
<wgt id='1730'> +2.8733120E+03 </wgt>
<wgt id='1731'> +2.8591095E+03 </wgt>
<wgt id='1732'> +2.8505653E+03 </wgt>
<wgt id='1733'> +2.8729469E+03 </wgt>
<wgt id='1734'> +2.8776514E+03 </wgt>
<wgt id='1735'> +2.8190676E+03 </wgt>
<wgt id='1736'> +2.8635800E+03 </wgt>
<wgt id='1737'> +2.8711972E+03 </wgt>
<wgt id='1738'> +2.8765655E+03 </wgt>
<wgt id='1739'> +2.8578619E+03 </wgt>
<wgt id='1740'> +2.8537139E+03 </wgt>
<wgt id='1741'> +2.8651043E+03 </wgt>
<wgt id='1742'> +2.8509624E+03 </wgt>
<wgt id='1743'> +2.8650678E+03 </wgt>
<wgt id='1744'> +2.8280914E+03 </wgt>
<wgt id='1745'> +2.8631159E+03 </wgt>
<wgt id='1746'> +2.8619513E+03 </wgt>
<wgt id='1747'> +2.8444905E+03 </wgt>
<wgt id='1748'> +2.8646790E+03 </wgt>
<wgt id='1749'> +2.8384659E+03 </wgt>
<wgt id='1750'> +2.8871091E+03 </wgt>
<wgt id='1751'> +2.9847691E+03 </wgt>
<wgt id='1752'> +3.0037398E+03 </wgt>
<wgt id='1753'> +3.0120010E+03 </wgt>
<wgt id='1754'> +2.9861887E+03 </wgt>
<wgt id='1755'> +2.9168192E+03 </wgt>
<wgt id='1756'> +2.9687458E+03 </wgt>
<wgt id='1757'> +2.9858528E+03 </wgt>
<wgt id='1758'> +2.9830544E+03 </wgt>
<wgt id='1759'> +2.9849839E+03 </wgt>
<wgt id='1760'> +2.9676707E+03 </wgt>
<wgt id='1761'> +3.0039183E+03 </wgt>
<wgt id='1762'> +2.9966825E+03 </wgt>
<wgt id='1763'> +2.9853609E+03 </wgt>
<wgt id='1764'> +2.9813148E+03 </wgt>
<wgt id='1765'> +2.9825843E+03 </wgt>
<wgt id='1766'> +2.9761965E+03 </wgt>
<wgt id='1767'> +2.9806770E+03 </wgt>
<wgt id='1768'> +2.9703900E+03 </wgt>
<wgt id='1769'> +2.9839289E+03 </wgt>
<wgt id='1770'> +2.9931549E+03 </wgt>
<wgt id='1771'> +2.9834052E+03 </wgt>
<wgt id='1772'> +2.9388058E+03 </wgt>
<wgt id='1773'> +2.9877880E+03 </wgt>
<wgt id='1774'> +2.9841911E+03 </wgt>
<wgt id='1775'> +2.9846413E+03 </wgt>
<wgt id='1776'> +2.9856592E+03 </wgt>
<wgt id='1777'> +2.9820520E+03 </wgt>
<wgt id='1778'> +2.9866411E+03 </wgt>
<wgt id='1779'> +2.9806303E+03 </wgt>
<wgt id='1780'> +2.9864620E+03 </wgt>
<wgt id='1781'> +2.9835620E+03 </wgt>
<wgt id='1782'> +2.9662264E+03 </wgt>
<wgt id='1783'> +3.0041387E+03 </wgt>
<wgt id='1784'> +2.9873675E+03 </wgt>
<wgt id='1785'> +2.9919780E+03 </wgt>
<wgt id='1786'> +2.9827893E+03 </wgt>
<wgt id='1787'> +2.9907188E+03 </wgt>
<wgt id='1788'> +2.9840090E+03 </wgt>
<wgt id='1789'> +2.9869549E+03 </wgt>
<wgt id='1790'> +2.9877646E+03 </wgt>
<wgt id='1791'> +2.9733788E+03 </wgt>
<wgt id='1792'> +3.0010546E+03 </wgt>
<wgt id='1793'> +2.9565043E+03 </wgt>
<wgt id='1794'> +3.0169190E+03 </wgt>
<wgt id='1795'> +3.0050164E+03 </wgt>
<wgt id='1796'> +2.9663481E+03 </wgt>
<wgt id='1797'> +2.9928542E+03 </wgt>
<wgt id='1798'> +2.9815997E+03 </wgt>
<wgt id='1799'> +3.0068345E+03 </wgt>
<wgt id='1800'> +2.9780296E+03 </wgt>
<wgt id='1801'> +2.9927264E+03 </wgt>
<wgt id='1802'> +2.9742864E+03 </wgt>
<wgt id='1803'> +2.9260654E+03 </wgt>
<wgt id='1804'> +3.0492339E+03 </wgt>
<wgt id='1805'> +2.9289013E+03 </wgt>
<wgt id='1806'> +3.0416795E+03 </wgt>
<wgt id='1807'> +2.9332822E+03 </wgt>
<wgt id='1808'> +3.0324866E+03 </wgt>
<wgt id='1809'> +3.0280152E+03 </wgt>
<wgt id='1810'> +2.9495034E+03 </wgt>
<wgt id='1811'> +2.9743818E+03 </wgt>
<wgt id='1812'> +3.0022698E+03 </wgt>
<wgt id='1813'> +2.9873675E+03 </wgt>
<wgt id='1814'> +3.0766910E+03 </wgt>
<wgt id='1815'> +2.8972985E+03 </wgt>
<wgt id='1816'> +3.2849263E+03 </wgt>
<wgt id='1817'> +3.2206984E+03 </wgt>
<wgt id='1818'> +3.0316862E+03 </wgt>
<wgt id='1819'> +2.9675047E+03 </wgt>
<wgt id='1820'> +2.9839947E+03 </wgt>
<wgt id='1821'> +2.9901623E+03 </wgt>
<wgt id='1822'> +2.9685400E+03 </wgt>
<wgt id='1823'> +3.0064233E+03 </wgt>
<wgt id='1824'> +2.9782434E+03 </wgt>
<wgt id='1825'> +3.0134292E+03 </wgt>
<wgt id='1826'> +3.0887808E+03 </wgt>
<wgt id='1827'> +3.2445712E+03 </wgt>
<wgt id='1828'> +3.2494128E+03 </wgt>
<wgt id='1829'> +3.2392143E+03 </wgt>
<wgt id='1830'> +3.2492840E+03 </wgt>
<wgt id='1831'> +3.2392940E+03 </wgt>
<wgt id='1832'> +3.2466389E+03 </wgt>
<wgt id='1833'> +3.2419644E+03 </wgt>
<wgt id='1834'> +3.2316273E+03 </wgt>
<wgt id='1835'> +3.2563179E+03 </wgt>
<wgt id='1836'> +3.2429731E+03 </wgt>
<wgt id='1837'> +3.2449188E+03 </wgt>
<wgt id='1838'> +3.2093946E+03 </wgt>
<wgt id='1839'> +3.2777602E+03 </wgt>
<wgt id='1840'> +3.2499902E+03 </wgt>
<wgt id='1841'> +3.2389948E+03 </wgt>
<wgt id='1842'> +3.2491197E+03 </wgt>
<wgt id='1843'> +3.2541951E+03 </wgt>
<wgt id='1844'> +3.2233443E+03 </wgt>
<wgt id='1845'> +3.2641890E+03 </wgt>
<wgt id='1846'> +3.1767850E+03 </wgt>
<wgt id='1847'> +3.3085458E+03 </wgt>
<wgt id='1848'> +3.2459884E+03 </wgt>
<wgt id='1849'> +3.2383196E+03 </wgt>
<wgt id='1850'> +3.2747045E+03 </wgt>
<wgt id='1851'> +3.2155845E+03 </wgt>
<wgt id='1852'> +3.2456116E+03 </wgt>
<wgt id='1853'> +3.2471758E+03 </wgt>
<wgt id='1854'> +3.2299828E+03 </wgt>
<wgt id='1855'> +3.2649158E+03 </wgt>
<wgt id='1856'> +3.2445712E+03 </wgt>
<wgt id='1857'> +3.3217864E+03 </wgt>
<wgt id='1858'> +3.1291642E+03 </wgt>
<wgt id='1859'> +3.4682469E+03 </wgt>
<wgt id='1860'> +3.3717687E+03 </wgt>
<wgt id='1861'> +3.3768806E+03 </wgt>
<wgt id='1862'> +3.1542685E+03 </wgt>
<wgt id='1863'> +3.2414314E+03 </wgt>
<wgt id='1864'> +3.2509321E+03 </wgt>
<wgt id='1865'> +3.1504544E+03 </wgt>
<wgt id='1866'> +3.3533630E+03 </wgt>
<wgt id='1867'> +3.1511912E+03 </wgt>
<wgt id='1868'> +3.2962199E+03 </wgt>
<wgt id='1869'> +3.1241329E+03 </wgt>
<wgt id='1870'> +2.9257576E+03 </wgt>
<wgt id='1871'> +2.9248145E+03 </wgt>
<wgt id='1872'> +2.9238688E+03 </wgt>
<wgt id='1873'> +2.9229250E+03 </wgt>
<wgt id='1874'> +2.9219887E+03 </wgt>
<wgt id='1875'> +2.9210466E+03 </wgt>
<wgt id='1876'> +2.9201010E+03 </wgt>
<wgt id='1877'> +2.9191576E+03 </wgt>
<wgt id='1878'> +2.9182168E+03 </wgt>
<wgt id='1879'> +2.9172745E+03 </wgt>
<wgt id='1880'> +2.9163308E+03 </wgt>
<wgt id='1881'> +2.9153837E+03 </wgt>
<wgt id='1882'> +2.9144419E+03 </wgt>
<wgt id='1883'> +2.9135011E+03 </wgt>
<wgt id='1884'> +2.9125568E+03 </wgt>
<wgt id='1885'> +2.9116156E+03 </wgt>
<wgt id='1886'> +2.9106743E+03 </wgt>
<wgt id='1887'> +2.9097340E+03 </wgt>
<wgt id='1888'> +2.9087902E+03 </wgt>
<wgt id='1889'> +2.9078508E+03 </wgt>
<wgt id='1890'> +2.9069088E+03 </wgt>
<wgt id='1891'> +2.9059699E+03 </wgt>
<wgt id='1892'> +2.9050214E+03 </wgt>
<wgt id='1893'> +2.9040819E+03 </wgt>
<wgt id='1894'> +2.9031426E+03 </wgt>
<wgt id='1895'> +2.9022033E+03 </wgt>
<wgt id='1896'> +2.9012599E+03 </wgt>
<wgt id='1897'> +2.9003224E+03 </wgt>
<wgt id='1898'> +2.8993819E+03 </wgt>
<wgt id='1899'> +2.8984440E+03 </wgt>
<wgt id='1900'> +2.8975026E+03 </wgt>
<wgt id='1901'> +2.9711807E+03 </wgt>
<wgt id='1902'> +2.9839963E+03 </wgt>
<wgt id='1903'> +2.9473726E+03 </wgt>
<wgt id='1904'> +2.9991642E+03 </wgt>
<wgt id='1905'> +3.0006834E+03 </wgt>
<wgt id='1906'> +2.9878690E+03 </wgt>
<wgt id='1907'> +2.9999313E+03 </wgt>
<wgt id='1908'> +2.9895074E+03 </wgt>
<wgt id='1909'> +2.9767658E+03 </wgt>
<wgt id='1910'> +2.9755966E+03 </wgt>
<wgt id='1911'> +2.9800785E+03 </wgt>
<wgt id='1912'> +2.9854387E+03 </wgt>
<wgt id='1913'> +2.9647577E+03 </wgt>
<wgt id='1914'> +2.9787737E+03 </wgt>
<wgt id='1915'> +2.9480417E+03 </wgt>
<wgt id='1916'> +2.9890024E+03 </wgt>
<wgt id='1917'> +2.9596650E+03 </wgt>
<wgt id='1918'> +2.9830642E+03 </wgt>
<wgt id='1919'> +2.9723453E+03 </wgt>
<wgt id='1920'> +2.9371218E+03 </wgt>
<wgt id='1921'> +2.9751368E+03 </wgt>
<wgt id='1922'> +2.9818811E+03 </wgt>
<wgt id='1923'> +2.9493605E+03 </wgt>
<wgt id='1924'> +2.9775342E+03 </wgt>
<wgt id='1925'> +2.9833433E+03 </wgt>
<wgt id='1926'> +2.9688329E+03 </wgt>
<wgt id='1927'> +2.9591442E+03 </wgt>
<wgt id='1928'> +2.9784549E+03 </wgt>
<wgt id='1929'> +2.9711996E+03 </wgt>
<wgt id='1930'> +2.9589153E+03 </wgt>
<wgt id='1931'> +2.9697425E+03 </wgt>
<wgt id='1932'> +2.9652788E+03 </wgt>
<wgt id='1933'> +2.9857154E+03 </wgt>
<wgt id='1934'> +2.9702178E+03 </wgt>
<wgt id='1935'> +2.9680758E+03 </wgt>
<wgt id='1936'> +2.9716092E+03 </wgt>
<wgt id='1937'> +2.9688129E+03 </wgt>
<wgt id='1938'> +2.9889968E+03 </wgt>
<wgt id='1939'> +2.9923565E+03 </wgt>
<wgt id='1940'> +2.9680333E+03 </wgt>
<wgt id='1941'> +2.9752397E+03 </wgt>
<wgt id='1942'> +2.9605055E+03 </wgt>
<wgt id='1943'> +2.9643193E+03 </wgt>
<wgt id='1944'> +2.9730140E+03 </wgt>
<wgt id='1945'> +2.9664539E+03 </wgt>
<wgt id='1946'> +2.9734865E+03 </wgt>
<wgt id='1947'> +2.9634182E+03 </wgt>
<wgt id='1948'> +2.9688200E+03 </wgt>
<wgt id='1949'> +2.9682993E+03 </wgt>
<wgt id='1950'> +2.9658024E+03 </wgt>
<wgt id='1951'> +2.9733897E+03 </wgt>
<wgt id='1952'> +2.9726477E+03 </wgt>
<wgt id='1953'> +2.9660744E+03 </wgt>
<wgt id='1954'> +2.9701056E+03 </wgt>
<wgt id='1955'> +2.9737071E+03 </wgt>
<wgt id='1956'> +2.9645755E+03 </wgt>
<wgt id='1957'> +2.9744035E+03 </wgt>
<wgt id='1958'> +2.9785832E+03 </wgt>
<wgt id='1959'> +2.9702125E+03 </wgt>
<wgt id='1960'> +2.9657393E+03 </wgt>
<wgt id='1961'> +2.9654347E+03 </wgt>
<wgt id='1962'> +2.9777730E+03 </wgt>
<wgt id='1963'> +2.9650964E+03 </wgt>
<wgt id='1964'> +2.9750633E+03 </wgt>
<wgt id='1965'> +2.9703663E+03 </wgt>
<wgt id='1966'> +2.9672411E+03 </wgt>
<wgt id='1967'> +2.9694327E+03 </wgt>
<wgt id='1968'> +2.9680450E+03 </wgt>
<wgt id='1969'> +2.9695209E+03 </wgt>
<wgt id='1970'> +2.9697353E+03 </wgt>
<wgt id='1971'> +2.9705714E+03 </wgt>
<wgt id='1972'> +2.9745420E+03 </wgt>
<wgt id='1973'> +2.9718766E+03 </wgt>
<wgt id='1974'> +2.9724449E+03 </wgt>
<wgt id='1975'> +2.9705148E+03 </wgt>
<wgt id='1976'> +2.9726603E+03 </wgt>
<wgt id='1977'> +2.9719880E+03 </wgt>
<wgt id='1978'> +2.9723100E+03 </wgt>
<wgt id='1979'> +2.9692826E+03 </wgt>
<wgt id='1980'> +2.9708311E+03 </wgt>
<wgt id='1981'> +2.9739404E+03 </wgt>
<wgt id='1982'> +2.9711020E+03 </wgt>
<wgt id='1983'> +2.9711566E+03 </wgt>
<wgt id='1984'> +2.9698912E+03 </wgt>
<wgt id='1985'> +2.9693632E+03 </wgt>
<wgt id='1986'> +2.9724465E+03 </wgt>
<wgt id='1987'> +2.9705861E+03 </wgt>
<wgt id='1988'> +2.9695049E+03 </wgt>
<wgt id='1989'> +2.9711911E+03 </wgt>
<wgt id='1990'> +2.9699259E+03 </wgt>
<wgt id='1991'> +2.9711473E+03 </wgt>
<wgt id='1992'> +2.9708561E+03 </wgt>
<wgt id='1993'> +2.9709390E+03 </wgt>
<wgt id='1994'> +2.9701939E+03 </wgt>
<wgt id='1995'> +2.9703423E+03 </wgt>
<wgt id='1996'> +2.9706964E+03 </wgt>
<wgt id='1997'> +2.9711571E+03 </wgt>
<wgt id='1998'> +2.9713389E+03 </wgt>
<wgt id='1999'> +2.9711723E+03 </wgt>
<wgt id='2000'> +2.9697603E+03 </wgt>
<wgt id='2001'> +2.9722393E+03 </wgt>
<wgt id='2002'> +2.9711714E+03 </wgt>
<wgt id='2003'> +2.9711206E+03 </wgt>
<wgt id='2004'> +2.9711899E+03 </wgt>
<wgt id='2005'> +2.9711919E+03 </wgt>
<wgt id='2006'> +2.9712086E+03 </wgt>
<wgt id='2007'> +2.9711846E+03 </wgt>
<wgt id='2008'> +2.9711432E+03 </wgt>
<wgt id='2009'> +2.8304903E+03 </wgt>
<wgt id='2010'> +2.7133075E+03 </wgt>
<wgt id='2011'> +2.8270228E+03 </wgt>
<wgt id='2012'> +2.8535731E+03 </wgt>
<wgt id='2013'> +2.9267854E+03 </wgt>
<wgt id='2014'> +2.7112135E+03 </wgt>
<wgt id='2015'> +2.8607028E+03 </wgt>
<wgt id='2016'> +2.8265333E+03 </wgt>
<wgt id='2017'> +2.8650549E+03 </wgt>
<wgt id='2018'> +2.8223336E+03 </wgt>
<wgt id='2019'> +2.9445462E+03 </wgt>
<wgt id='2020'> +2.6556048E+03 </wgt>
<wgt id='2021'> +2.8280707E+03 </wgt>
<wgt id='2022'> +2.8243386E+03 </wgt>
<wgt id='2023'> +2.8292646E+03 </wgt>
<wgt id='2024'> +2.8022186E+03 </wgt>
<wgt id='2025'> +2.7672476E+03 </wgt>
<wgt id='2026'> +2.7227126E+03 </wgt>
<wgt id='2027'> +2.5686458E+03 </wgt>
<wgt id='2028'> +2.8613818E+03 </wgt>
<wgt id='2029'> +2.8921399E+03 </wgt>
<wgt id='2030'> +2.9743812E+03 </wgt>
<wgt id='2031'> +2.8565045E+03 </wgt>
<wgt id='2032'> +2.8905390E+03 </wgt>
<wgt id='2033'> +2.8755860E+03 </wgt>
<wgt id='2034'> +2.7859320E+03 </wgt>
<wgt id='2035'> +2.8217837E+03 </wgt>
<wgt id='2036'> +2.6876214E+03 </wgt>
<wgt id='2037'> +2.8264216E+03 </wgt>
<wgt id='2038'> +2.8373086E+03 </wgt>
<wgt id='2039'> +2.8192560E+03 </wgt>
<wgt id='2040'> +2.9599718E+03 </wgt>
<wgt id='2041'> +2.8368420E+03 </wgt>
<wgt id='2042'> +2.9711644E+03 </wgt>
<wgt id='2043'> +2.8947720E+03 </wgt>
<wgt id='2044'> +2.8956613E+03 </wgt>
<wgt id='2045'> +2.8037905E+03 </wgt>
<wgt id='2046'> +2.7315559E+03 </wgt>
<wgt id='2047'> +2.7318441E+03 </wgt>
<wgt id='2048'> +2.8023170E+03 </wgt>
<wgt id='2049'> +2.8657068E+03 </wgt>
<wgt id='2050'> +2.9206462E+03 </wgt>
<wgt id='2051'> +2.8664549E+03 </wgt>
<wgt id='2052'> +2.8468538E+03 </wgt>
<wgt id='2053'> +2.8511836E+03 </wgt>
<wgt id='2054'> +2.9445332E+03 </wgt>
<wgt id='2055'> +2.8267671E+03 </wgt>
<wgt id='2056'> +2.8478787E+03 </wgt>
<wgt id='2057'> +2.8181110E+03 </wgt>
<wgt id='2058'> +2.8969247E+03 </wgt>
<wgt id='2059'> +2.8824319E+03 </wgt>
<wgt id='2060'> +2.8969359E+03 </wgt>
<wgt id='2061'> +2.8318102E+03 </wgt>
<wgt id='2062'> +2.8408100E+03 </wgt>
<wgt id='2063'> +2.8489494E+03 </wgt>
<wgt id='2064'> +2.8445054E+03 </wgt>
<wgt id='2065'> +2.7069331E+03 </wgt>
<wgt id='2066'> +2.7618974E+03 </wgt>
<wgt id='2067'> +2.8714448E+03 </wgt>
<wgt id='2068'> +2.8199970E+03 </wgt>
<wgt id='2069'> +2.8844168E+03 </wgt>
<wgt id='2070'> +2.7590748E+03 </wgt>
<wgt id='2071'> +2.8083656E+03 </wgt>
<wgt id='2072'> +2.8277477E+03 </wgt>
<wgt id='2073'> +2.5786878E+03 </wgt>
<wgt id='2074'> +2.9138114E+03 </wgt>
<wgt id='2075'> +2.7988775E+03 </wgt>
<wgt id='2076'> +3.0024546E+03 </wgt>
<wgt id='2077'> +2.8510540E+03 </wgt>
<wgt id='2078'> +2.8177820E+03 </wgt>
<wgt id='2079'> +2.8664642E+03 </wgt>
<wgt id='2080'> +2.8472871E+03 </wgt>
<wgt id='2081'> +2.7958847E+03 </wgt>
<wgt id='2082'> +2.7893835E+03 </wgt>
<wgt id='2083'> +2.9367007E+03 </wgt>
<wgt id='2084'> +2.7999389E+03 </wgt>
<wgt id='2085'> +2.8448628E+03 </wgt>
<wgt id='2086'> +2.7692742E+03 </wgt>
<wgt id='2087'> +2.8543028E+03 </wgt>
<wgt id='2088'> +2.7884457E+03 </wgt>
<wgt id='2089'> +2.8459693E+03 </wgt>
<wgt id='2090'> +2.9216528E+03 </wgt>
<wgt id='2091'> +2.9425358E+03 </wgt>
<wgt id='2092'> +2.8343161E+03 </wgt>
<wgt id='2093'> +2.8381256E+03 </wgt>
<wgt id='2094'> +2.8244180E+03 </wgt>
<wgt id='2095'> +2.8096263E+03 </wgt>
<wgt id='2096'> +2.9140298E+03 </wgt>
<wgt id='2097'> +2.8118446E+03 </wgt>
<wgt id='2098'> +2.6881235E+03 </wgt>
<wgt id='2099'> +2.8632482E+03 </wgt>
<wgt id='2100'> +2.8929336E+03 </wgt>
<wgt id='2101'> +2.8494014E+03 </wgt>
<wgt id='2102'> +2.7590893E+03 </wgt>
<wgt id='2103'> +2.8643265E+03 </wgt>
<wgt id='2104'> +2.7053921E+03 </wgt>
<wgt id='2105'> +2.8531102E+03 </wgt>
<wgt id='2106'> +2.7871982E+03 </wgt>
<wgt id='2107'> +2.8835537E+03 </wgt>
<wgt id='2108'> +2.8186834E+03 </wgt>
<wgt id='2109'> +2.6867568E+03 </wgt>
<wgt id='2110'> +2.8235805E+03 </wgt>
<wgt id='2111'> +2.8422148E+03 </wgt>
<wgt id='2112'> +2.9417387E+03 </wgt>
<wgt id='2113'> +2.9822467E+03 </wgt>
<wgt id='2114'> +3.0341447E+03 </wgt>
<wgt id='2115'> +2.6292309E+03 </wgt>
<wgt id='2116'> +2.9957233E+03 </wgt>
</rwgt>
</event>
<event>
 6      1 +2.9771057E+03 7.99019100e+01 7.54677100e-03 1.20407500e-01
        2 -1    0    0  502    0 +0.0000000000e+00 +0.0000000000e+00 +8.0061336199e+02 8.0061336199e+02 0.0000000000e+00 0.0000e+00 -1.0000e+00
       -1 -1    0    0    0  501 -0.0000000000e+00 -0.0000000000e+00 -3.9779339823e+00 3.9779339823e+00 0.0000000000e+00 0.0000e+00 1.0000e+00
       24  2    1    2    0    0 -1.3896929235e+01 -1.9042691021e+00 +7.7291395795e+02 7.7703301184e+02 7.8661071703e+01 0.0000e+00 0.0000e+00
      -11  1    3    3    0    0 +1.0302485220e+01 +3.4575145213e+01 +3.6267665709e+02 3.6446665069e+02 0.0000000000e+00 0.0000e+00 1.0000e+00
       12  1    3    3    0    0 -2.4199414455e+01 -3.6479414315e+01 +4.1023730086e+02 4.1256636114e+02 0.0000000000e+00 0.0000e+00 -1.0000e+00
       21  1    1    2  502  501 +1.3896929235e+01 +1.9042691021e+00 +2.3721470053e+01 2.7558284134e+01 0.0000000000e+00 0.0000e+00 1.0000e+00
<scales pt_clust_4="13000.00000" pt_clust_5="13000.00000" pt_clust_6="14.02679"></scales>
<mgrwt>
<rscale>  0 0.79901909E+02</rscale>
<asrwt>  1 0.14026792E+02</asrwt>
<pdfrwt beam="1">  1        2 0.12317116E+00 0.79901909E+02</pdfrwt>
<pdfrwt beam="2">  1       -1 0.61199048E-03 0.79901909E+02</pdfrwt>
<totfact> 0.22667888E+04</totfact>
</mgrwt>
<clustering>
<clus scale="   14.027">  2  6  1 -1</clus>
<clus scale="   78.661">  4  5 -1 -1</clus>
<clus scale="   79.902">  1  4  2 -1</clus>
</clustering>
<rwgt>
<wgt id='1001'> +2.9771057E+03 </wgt>
<wgt id='1002'> +3.0453119E+03 </wgt>
<wgt id='1003'> +3.0453119E+03 </wgt>
<wgt id='1004'> +2.7396122E+03 </wgt>
<wgt id='1005'> +3.1210657E+03 </wgt>
<wgt id='1006'> +2.9771057E+03 </wgt>
<wgt id='1007'> +3.0453119E+03 </wgt>
<wgt id='1008'> +3.0453119E+03 </wgt>
<wgt id='1009'> +2.7396122E+03 </wgt>
<wgt id='1010'> +3.1210657E+03 </wgt>
<wgt id='1011'> +2.9771057E+03 </wgt>
<wgt id='1012'> +3.0453119E+03 </wgt>
<wgt id='1013'> +3.0453119E+03 </wgt>
<wgt id='1014'> +2.7396122E+03 </wgt>
<wgt id='1015'> +3.1210657E+03 </wgt>
<wgt id='1016'> +3.2582014E+03 </wgt>
<wgt id='1017'> +3.3193632E+03 </wgt>
<wgt id='1018'> +3.3193632E+03 </wgt>
<wgt id='1019'> +3.0453119E+03 </wgt>
<wgt id='1020'> +3.3875435E+03 </wgt>
<wgt id='1021'> +3.2582014E+03 </wgt>
<wgt id='1022'> +3.3193632E+03 </wgt>
<wgt id='1023'> +3.3193632E+03 </wgt>
<wgt id='1024'> +3.0453119E+03 </wgt>
<wgt id='1025'> +3.3875435E+03 </wgt>
<wgt id='1026'> +3.2582014E+03 </wgt>
<wgt id='1027'> +3.3193632E+03 </wgt>
<wgt id='1028'> +3.3193632E+03 </wgt>
<wgt id='1029'> +3.0453119E+03 </wgt>
<wgt id='1030'> +3.3875435E+03 </wgt>
<wgt id='1031'> +2.6637286E+03 </wgt>
<wgt id='1032'> +2.7396122E+03 </wgt>
<wgt id='1033'> +2.7396122E+03 </wgt>
<wgt id='1034'> +2.3999292E+03 </wgt>
<wgt id='1035'> +2.8240147E+03 </wgt>
<wgt id='1036'> +2.6637286E+03 </wgt>
<wgt id='1037'> +2.7396122E+03 </wgt>
<wgt id='1038'> +2.7396122E+03 </wgt>
<wgt id='1039'> +2.3999292E+03 </wgt>
<wgt id='1040'> +2.8240147E+03 </wgt>
<wgt id='1041'> +2.6637286E+03 </wgt>
<wgt id='1042'> +2.7396122E+03 </wgt>
<wgt id='1043'> +2.7396122E+03 </wgt>
<wgt id='1044'> +2.3999292E+03 </wgt>
<wgt id='1045'> +2.8240147E+03 </wgt>
<wgt id='1046'> +2.9771057E+03 </wgt>
<wgt id='1047'> +2.9761897E+03 </wgt>
<wgt id='1048'> +2.9727258E+03 </wgt>
<wgt id='1049'> +2.9730828E+03 </wgt>
<wgt id='1050'> +2.9876580E+03 </wgt>
<wgt id='1051'> +2.9761601E+03 </wgt>
<wgt id='1052'> +2.9714746E+03 </wgt>
<wgt id='1053'> +2.9786363E+03 </wgt>
<wgt id='1054'> +2.9678587E+03 </wgt>
<wgt id='1055'> +2.9753836E+03 </wgt>
<wgt id='1056'> +2.9705881E+03 </wgt>
<wgt id='1057'> +2.9657372E+03 </wgt>
<wgt id='1058'> +2.9826018E+03 </wgt>
<wgt id='1059'> +2.9753702E+03 </wgt>
<wgt id='1060'> +2.9697994E+03 </wgt>
<wgt id='1061'> +2.9879514E+03 </wgt>
<wgt id='1062'> +2.9781526E+03 </wgt>
<wgt id='1063'> +2.9691834E+03 </wgt>
<wgt id='1064'> +2.9763835E+03 </wgt>
<wgt id='1065'> +2.9684438E+03 </wgt>
<wgt id='1066'> +2.9765863E+03 </wgt>
<wgt id='1067'> +2.9827588E+03 </wgt>
<wgt id='1068'> +2.9792692E+03 </wgt>
<wgt id='1069'> +2.9726461E+03 </wgt>
<wgt id='1070'> +2.9961618E+03 </wgt>
<wgt id='1071'> +2.9779453E+03 </wgt>
<wgt id='1072'> +2.9688953E+03 </wgt>
<wgt id='1073'> +2.9831484E+03 </wgt>
<wgt id='1074'> +2.9842225E+03 </wgt>
<wgt id='1075'> +2.9475498E+03 </wgt>
<wgt id='1076'> +2.9747320E+03 </wgt>
<wgt id='1077'> +2.9756379E+03 </wgt>
<wgt id='1078'> +2.9710439E+03 </wgt>
<wgt id='1079'> +2.9734582E+03 </wgt>
<wgt id='1080'> +2.9785963E+03 </wgt>
<wgt id='1081'> +2.9721077E+03 </wgt>
<wgt id='1082'> +2.9748138E+03 </wgt>
<wgt id='1083'> +2.9810232E+03 </wgt>
<wgt id='1084'> +2.9745973E+03 </wgt>
<wgt id='1085'> +2.9785642E+03 </wgt>
<wgt id='1086'> +2.9744364E+03 </wgt>
<wgt id='1087'> +2.9750320E+03 </wgt>
<wgt id='1088'> +2.9759453E+03 </wgt>
<wgt id='1089'> +2.9813415E+03 </wgt>
<wgt id='1090'> +2.9754713E+03 </wgt>
<wgt id='1091'> +2.9754675E+03 </wgt>
<wgt id='1092'> +2.9817541E+03 </wgt>
<wgt id='1093'> +2.9862285E+03 </wgt>
<wgt id='1094'> +2.9762467E+03 </wgt>
<wgt id='1095'> +2.9757867E+03 </wgt>
<wgt id='1096'> +2.9734027E+03 </wgt>
<wgt id='1097'> +2.9768604E+03 </wgt>
<wgt id='1098'> +2.9784534E+03 </wgt>
<wgt id='1099'> +2.9768454E+03 </wgt>
<wgt id='1100'> +2.9779514E+03 </wgt>
<wgt id='1101'> +2.9747705E+03 </wgt>
<wgt id='1102'> +2.9777186E+03 </wgt>
<wgt id='1103'> +2.9768089E+03 </wgt>
<wgt id='1104'> +2.9764779E+03 </wgt>
<wgt id='1105'> +2.9764481E+03 </wgt>
<wgt id='1106'> +2.9826701E+03 </wgt>
<wgt id='1107'> +2.9793027E+03 </wgt>
<wgt id='1108'> +2.9783062E+03 </wgt>
<wgt id='1109'> +2.9770087E+03 </wgt>
<wgt id='1110'> +2.9750351E+03 </wgt>
<wgt id='1111'> +2.9784138E+03 </wgt>
<wgt id='1112'> +2.9768665E+03 </wgt>
<wgt id='1113'> +2.9779373E+03 </wgt>
<wgt id='1114'> +2.9800897E+03 </wgt>
<wgt id='1115'> +2.9781680E+03 </wgt>
<wgt id='1116'> +2.9751598E+03 </wgt>
<wgt id='1117'> +2.9771697E+03 </wgt>
<wgt id='1118'> +2.9782170E+03 </wgt>
<wgt id='1119'> +2.9783540E+03 </wgt>
<wgt id='1120'> +2.9759505E+03 </wgt>
<wgt id='1121'> +2.9749850E+03 </wgt>
<wgt id='1122'> +2.9763576E+03 </wgt>
<wgt id='1123'> +2.9765299E+03 </wgt>
<wgt id='1124'> +2.9778230E+03 </wgt>
<wgt id='1125'> +2.9740877E+03 </wgt>
<wgt id='1126'> +2.9795581E+03 </wgt>
<wgt id='1127'> +2.9777136E+03 </wgt>
<wgt id='1128'> +2.9768081E+03 </wgt>
<wgt id='1129'> +2.9770686E+03 </wgt>
<wgt id='1130'> +2.9787426E+03 </wgt>
<wgt id='1131'> +2.9764199E+03 </wgt>
<wgt id='1132'> +2.9756825E+03 </wgt>
<wgt id='1133'> +2.9754293E+03 </wgt>
<wgt id='1134'> +2.9758471E+03 </wgt>
<wgt id='1135'> +2.9779973E+03 </wgt>
<wgt id='1136'> +2.9788179E+03 </wgt>
<wgt id='1137'> +2.9751060E+03 </wgt>
<wgt id='1138'> +2.9785002E+03 </wgt>
<wgt id='1139'> +2.9758957E+03 </wgt>
<wgt id='1140'> +2.9791725E+03 </wgt>
<wgt id='1141'> +2.9779583E+03 </wgt>
<wgt id='1142'> +2.9787857E+03 </wgt>
<wgt id='1143'> +2.9775571E+03 </wgt>
<wgt id='1144'> +2.9774885E+03 </wgt>
<wgt id='1145'> +2.9786888E+03 </wgt>
<wgt id='1146'> +2.9779319E+03 </wgt>
<wgt id='1147'> +2.8806624E+03 </wgt>
<wgt id='1148'> +3.0747173E+03 </wgt>
<wgt id='1149'> +2.5243876E+03 </wgt>
<wgt id='1150'> +2.6059034E+03 </wgt>
<wgt id='1151'> +2.6946527E+03 </wgt>
<wgt id='1152'> +2.7908025E+03 </wgt>
<wgt id='1153'> +2.9419039E+03 </wgt>
<wgt id='1154'> +3.0266933E+03 </wgt>
<wgt id='1155'> +3.1820639E+03 </wgt>
<wgt id='1156'> +3.2739775E+03 </wgt>
<wgt id='1157'> +2.9086273E+03 </wgt>
<wgt id='1158'> +2.9074486E+03 </wgt>
<wgt id='1159'> +2.9157261E+03 </wgt>
<wgt id='1160'> +2.9016888E+03 </wgt>
<wgt id='1161'> +2.9174982E+03 </wgt>
<wgt id='1162'> +2.9099378E+03 </wgt>
<wgt id='1163'> +2.8973708E+03 </wgt>
<wgt id='1164'> +2.9154272E+03 </wgt>
<wgt id='1165'> +2.9220678E+03 </wgt>
<wgt id='1166'> +2.9157944E+03 </wgt>
<wgt id='1167'> +2.9031266E+03 </wgt>
<wgt id='1168'> +2.9034890E+03 </wgt>
<wgt id='1169'> +2.9106185E+03 </wgt>
<wgt id='1170'> +2.9178630E+03 </wgt>
<wgt id='1171'> +2.9045047E+03 </wgt>
<wgt id='1172'> +2.9097405E+03 </wgt>
<wgt id='1173'> +2.9187272E+03 </wgt>
<wgt id='1174'> +2.9080799E+03 </wgt>
<wgt id='1175'> +2.9131447E+03 </wgt>
<wgt id='1176'> +2.9112307E+03 </wgt>
<wgt id='1177'> +2.9079891E+03 </wgt>
<wgt id='1178'> +2.9103410E+03 </wgt>
<wgt id='1179'> +2.9074872E+03 </wgt>
<wgt id='1180'> +2.9024543E+03 </wgt>
<wgt id='1181'> +2.9201846E+03 </wgt>
<wgt id='1182'> +2.9043985E+03 </wgt>
<wgt id='1183'> +2.9105823E+03 </wgt>
<wgt id='1184'> +2.9066615E+03 </wgt>
<wgt id='1185'> +2.9132920E+03 </wgt>
<wgt id='1186'> +2.9227591E+03 </wgt>
<wgt id='1187'> +2.8825544E+03 </wgt>
<wgt id='1188'> +2.8969913E+03 </wgt>
<wgt id='1189'> +2.9159359E+03 </wgt>
<wgt id='1190'> +2.9099804E+03 </wgt>
<wgt id='1191'> +2.9082464E+03 </wgt>
<wgt id='1192'> +2.9152074E+03 </wgt>
<wgt id='1193'> +2.9128072E+03 </wgt>
<wgt id='1194'> +2.9009977E+03 </wgt>
<wgt id='1195'> +2.9102306E+03 </wgt>
<wgt id='1196'> +2.9098554E+03 </wgt>
<wgt id='1197'> +2.9071108E+03 </wgt>
<wgt id='1198'> +2.9138256E+03 </wgt>
<wgt id='1199'> +2.9101818E+03 </wgt>
<wgt id='1200'> +2.9036898E+03 </wgt>
<wgt id='1201'> +2.9094464E+03 </wgt>
<wgt id='1202'> +2.9095984E+03 </wgt>
<wgt id='1203'> +2.9080539E+03 </wgt>
<wgt id='1204'> +2.9078630E+03 </wgt>
<wgt id='1205'> +2.9132295E+03 </wgt>
<wgt id='1206'> +2.9087076E+03 </wgt>
<wgt id='1207'> +2.9050846E+03 </wgt>
<wgt id='1208'> +2.9081152E+03 </wgt>
<wgt id='1209'> +2.9123894E+03 </wgt>
<wgt id='1210'> +2.9048300E+03 </wgt>
<wgt id='1211'> +2.9080156E+03 </wgt>
<wgt id='1212'> +2.9085150E+03 </wgt>
<wgt id='1213'> +2.9052974E+03 </wgt>
<wgt id='1214'> +2.9095639E+03 </wgt>
<wgt id='1215'> +2.9054271E+03 </wgt>
<wgt id='1216'> +2.9096006E+03 </wgt>
<wgt id='1217'> +2.9086007E+03 </wgt>
<wgt id='1218'> +2.9072749E+03 </wgt>
<wgt id='1219'> +2.9039570E+03 </wgt>
<wgt id='1220'> +2.9099197E+03 </wgt>
<wgt id='1221'> +2.9064470E+03 </wgt>
<wgt id='1222'> +2.9093346E+03 </wgt>
<wgt id='1223'> +2.9090041E+03 </wgt>
<wgt id='1224'> +2.9050706E+03 </wgt>
<wgt id='1225'> +2.9113061E+03 </wgt>
<wgt id='1226'> +2.9076985E+03 </wgt>
<wgt id='1227'> +2.9062275E+03 </wgt>
<wgt id='1228'> +2.9079105E+03 </wgt>
<wgt id='1229'> +2.9093453E+03 </wgt>
<wgt id='1230'> +2.9081797E+03 </wgt>
<wgt id='1231'> +2.9131746E+03 </wgt>
<wgt id='1232'> +2.9076541E+03 </wgt>
<wgt id='1233'> +2.9097653E+03 </wgt>
<wgt id='1234'> +2.9080086E+03 </wgt>
<wgt id='1235'> +2.9095401E+03 </wgt>
<wgt id='1236'> +2.9089457E+03 </wgt>
<wgt id='1237'> +2.9098014E+03 </wgt>
<wgt id='1238'> +2.9127312E+03 </wgt>
<wgt id='1239'> +2.9070719E+03 </wgt>
<wgt id='1240'> +2.9095340E+03 </wgt>
<wgt id='1241'> +2.9064186E+03 </wgt>
<wgt id='1242'> +2.9079304E+03 </wgt>
<wgt id='1243'> +2.9089013E+03 </wgt>
<wgt id='1244'> +2.9099765E+03 </wgt>
<wgt id='1245'> +2.9066729E+03 </wgt>
<wgt id='1246'> +2.9078550E+03 </wgt>
<wgt id='1247'> +2.9083513E+03 </wgt>
<wgt id='1248'> +2.9109762E+03 </wgt>
<wgt id='1249'> +2.9098471E+03 </wgt>
<wgt id='1250'> +2.9085097E+03 </wgt>
<wgt id='1251'> +2.9087150E+03 </wgt>
<wgt id='1252'> +2.9099482E+03 </wgt>
<wgt id='1253'> +2.9055942E+03 </wgt>
<wgt id='1254'> +2.9092368E+03 </wgt>
<wgt id='1255'> +2.9091313E+03 </wgt>
<wgt id='1256'> +2.9073928E+03 </wgt>
<wgt id='1257'> +2.9083670E+03 </wgt>
<wgt id='1258'> +2.8154104E+03 </wgt>
<wgt id='1259'> +3.0086231E+03 </wgt>
<wgt id='1260'> +2.9376475E+03 </wgt>
<wgt id='1261'> +2.9324110E+03 </wgt>
<wgt id='1262'> +2.9437563E+03 </wgt>
<wgt id='1263'> +2.9726760E+03 </wgt>
<wgt id='1264'> +2.9463202E+03 </wgt>
<wgt id='1265'> +2.9703423E+03 </wgt>
<wgt id='1266'> +2.9731133E+03 </wgt>
<wgt id='1267'> +2.9478222E+03 </wgt>
<wgt id='1268'> +2.9346788E+03 </wgt>
<wgt id='1269'> +3.0031045E+03 </wgt>
<wgt id='1270'> +2.9025655E+03 </wgt>
<wgt id='1271'> +2.9333315E+03 </wgt>
<wgt id='1272'> +2.9205656E+03 </wgt>
<wgt id='1273'> +2.9180941E+03 </wgt>
<wgt id='1274'> +2.8928810E+03 </wgt>
<wgt id='1275'> +2.9471631E+03 </wgt>
<wgt id='1276'> +2.9000576E+03 </wgt>
<wgt id='1277'> +2.9741294E+03 </wgt>
<wgt id='1278'> +2.9044664E+03 </wgt>
<wgt id='1279'> +2.9800778E+03 </wgt>
<wgt id='1280'> +2.9162926E+03 </wgt>
<wgt id='1281'> +2.9306278E+03 </wgt>
<wgt id='1282'> +2.9411717E+03 </wgt>
<wgt id='1283'> +2.9191461E+03 </wgt>
<wgt id='1284'> +2.9578589E+03 </wgt>
<wgt id='1285'> +2.8830050E+03 </wgt>
<wgt id='1286'> +2.9850703E+03 </wgt>
<wgt id='1287'> +2.9155430E+03 </wgt>
<wgt id='1288'> +2.9660408E+03 </wgt>
<wgt id='1289'> +2.8852908E+03 </wgt>
<wgt id='1290'> +2.9696002E+03 </wgt>
<wgt id='1291'> +2.9254755E+03 </wgt>
<wgt id='1292'> +2.9538173E+03 </wgt>
<wgt id='1293'> +2.9874235E+03 </wgt>
<wgt id='1294'> +2.8904522E+03 </wgt>
<wgt id='1295'> +2.9135501E+03 </wgt>
<wgt id='1296'> +2.9628917E+03 </wgt>
<wgt id='1297'> +2.9912306E+03 </wgt>
<wgt id='1298'> +2.8776686E+03 </wgt>
<wgt id='1299'> +2.9626354E+03 </wgt>
<wgt id='1300'> +2.9050198E+03 </wgt>
<wgt id='1301'> +2.9124760E+03 </wgt>
<wgt id='1302'> +2.9511362E+03 </wgt>
<wgt id='1303'> +2.9326845E+03 </wgt>
<wgt id='1304'> +2.9098403E+03 </wgt>
<wgt id='1305'> +2.9474674E+03 </wgt>
<wgt id='1306'> +2.9796201E+03 </wgt>
<wgt id='1307'> +2.9257155E+03 </wgt>
<wgt id='1308'> +2.9899318E+03 </wgt>
<wgt id='1309'> +2.9282484E+03 </wgt>
<wgt id='1310'> +2.9850429E+03 </wgt>
<wgt id='1311'> +2.9194944E+03 </wgt>
<wgt id='1312'> +2.9802110E+03 </wgt>
<wgt id='1313'> +2.8981919E+03 </wgt>
<wgt id='1314'> +2.8983176E+03 </wgt>
<wgt id='1315'> +2.8899680E+03 </wgt>
<wgt id='1316'> +2.9930709E+03 </wgt>
<wgt id='1317'> +2.8356057E+03 </wgt>
<wgt id='1318'> +3.0415086E+03 </wgt>
<wgt id='1319'> +2.8157832E+03 </wgt>
<wgt id='1320'> +2.8463719E+03 </wgt>
<wgt id='1321'> +2.7774483E+03 </wgt>
<wgt id='1322'> +2.8620231E+03 </wgt>
<wgt id='1323'> +2.8415923E+03 </wgt>
<wgt id='1324'> +2.8544025E+03 </wgt>
<wgt id='1325'> +2.8028644E+03 </wgt>
<wgt id='1326'> +2.8073172E+03 </wgt>
<wgt id='1327'> +2.8697536E+03 </wgt>
<wgt id='1328'> +2.8091662E+03 </wgt>
<wgt id='1329'> +2.8157506E+03 </wgt>
<wgt id='1330'> +2.7963038E+03 </wgt>
<wgt id='1331'> +2.8410843E+03 </wgt>
<wgt id='1332'> +2.7460510E+03 </wgt>
<wgt id='1333'> +2.8472689E+03 </wgt>
<wgt id='1334'> +2.8230684E+03 </wgt>
<wgt id='1335'> +2.7947618E+03 </wgt>
<wgt id='1336'> +2.8686857E+03 </wgt>
<wgt id='1337'> +2.7560009E+03 </wgt>
<wgt id='1338'> +2.8456632E+03 </wgt>
<wgt id='1339'> +2.7837328E+03 </wgt>
<wgt id='1340'> +2.8202637E+03 </wgt>
<wgt id='1341'> +2.8068919E+03 </wgt>
<wgt id='1342'> +2.8397721E+03 </wgt>
<wgt id='1343'> +2.7928654E+03 </wgt>
<wgt id='1344'> +2.8163374E+03 </wgt>
<wgt id='1345'> +2.8224078E+03 </wgt>
<wgt id='1346'> +2.8465811E+03 </wgt>
<wgt id='1347'> +2.7746280E+03 </wgt>
<wgt id='1348'> +2.7589543E+03 </wgt>
<wgt id='1349'> +2.8350042E+03 </wgt>
<wgt id='1350'> +2.8100124E+03 </wgt>
<wgt id='1351'> +2.8232364E+03 </wgt>
<wgt id='1352'> +2.8126299E+03 </wgt>
<wgt id='1353'> +2.8199242E+03 </wgt>
<wgt id='1354'> +2.8732123E+03 </wgt>
<wgt id='1355'> +2.7609204E+03 </wgt>
<wgt id='1356'> +2.8191011E+03 </wgt>
<wgt id='1357'> +2.8002456E+03 </wgt>
<wgt id='1358'> +2.8099576E+03 </wgt>
<wgt id='1359'> +2.8065673E+03 </wgt>
<wgt id='1360'> +2.8164383E+03 </wgt>
<wgt id='1361'> +2.8185927E+03 </wgt>
<wgt id='1362'> +2.7994540E+03 </wgt>
<wgt id='1363'> +2.8247096E+03 </wgt>
<wgt id='1364'> +2.8121119E+03 </wgt>
<wgt id='1365'> +2.8297363E+03 </wgt>
<wgt id='1366'> +2.7923259E+03 </wgt>
<wgt id='1367'> +2.8564673E+03 </wgt>
<wgt id='1368'> +2.8313357E+03 </wgt>
<wgt id='1369'> +2.8440514E+03 </wgt>
<wgt id='1370'> +2.8182890E+03 </wgt>
<wgt id='1371'> +2.8181767E+03 </wgt>
<wgt id='1372'> +2.7957347E+03 </wgt>
<wgt id='1373'> +2.7735415E+03 </wgt>
<wgt id='1374'> +2.7612076E+03 </wgt>
<wgt id='1375'> +2.8676111E+03 </wgt>
<wgt id='1376'> +2.7159232E+03 </wgt>
<wgt id='1377'> +2.9134098E+03 </wgt>
<wgt id='1378'> +2.4105972E+03 </wgt>
<wgt id='1379'> +2.7762214E+03 </wgt>
<wgt id='1380'> +2.7880546E+03 </wgt>
<wgt id='1381'> +2.7636579E+03 </wgt>
<wgt id='1382'> +2.7700343E+03 </wgt>
<wgt id='1383'> +2.7805791E+03 </wgt>
<wgt id='1384'> +2.7665601E+03 </wgt>
<wgt id='1385'> +2.7852745E+03 </wgt>
<wgt id='1386'> +2.7798776E+03 </wgt>
<wgt id='1387'> +2.7721934E+03 </wgt>
<wgt id='1388'> +2.7758204E+03 </wgt>
<wgt id='1389'> +2.7766038E+03 </wgt>
<wgt id='1390'> +2.7789924E+03 </wgt>
<wgt id='1391'> +2.7703586E+03 </wgt>
<wgt id='1392'> +2.7685586E+03 </wgt>
<wgt id='1393'> +2.7901808E+03 </wgt>
<wgt id='1394'> +2.7772700E+03 </wgt>
<wgt id='1395'> +2.7756681E+03 </wgt>
<wgt id='1396'> +2.7960295E+03 </wgt>
<wgt id='1397'> +2.7531945E+03 </wgt>
<wgt id='1398'> +2.7867092E+03 </wgt>
<wgt id='1399'> +2.7670817E+03 </wgt>
<wgt id='1400'> +2.7795668E+03 </wgt>
<wgt id='1401'> +2.7722502E+03 </wgt>
<wgt id='1402'> +2.8099602E+03 </wgt>
<wgt id='1403'> +2.7545979E+03 </wgt>
<wgt id='1404'> +2.7853569E+03 </wgt>
<wgt id='1405'> +2.7510586E+03 </wgt>
<wgt id='1406'> +2.7896612E+03 </wgt>
<wgt id='1407'> +2.7743258E+03 </wgt>
<wgt id='1408'> +2.7930242E+03 </wgt>
<wgt id='1409'> +2.7558395E+03 </wgt>
<wgt id='1410'> +2.7991162E+03 </wgt>
<wgt id='1411'> +2.7472169E+03 </wgt>
<wgt id='1412'> +2.7692149E+03 </wgt>
<wgt id='1413'> +2.7832981E+03 </wgt>
<wgt id='1414'> +2.7687450E+03 </wgt>
<wgt id='1415'> +2.7899121E+03 </wgt>
<wgt id='1416'> +2.7701729E+03 </wgt>
<wgt id='1417'> +2.7853634E+03 </wgt>
<wgt id='1418'> +2.7772314E+03 </wgt>
<wgt id='1419'> +2.7739825E+03 </wgt>
<wgt id='1420'> +2.7363133E+03 </wgt>
<wgt id='1421'> +2.7941483E+03 </wgt>
<wgt id='1422'> +2.7972505E+03 </wgt>
<wgt id='1423'> +2.7599423E+03 </wgt>
<wgt id='1424'> +2.7650370E+03 </wgt>
<wgt id='1425'> +2.8014765E+03 </wgt>
<wgt id='1426'> +2.7825644E+03 </wgt>
<wgt id='1427'> +2.7768528E+03 </wgt>
<wgt id='1428'> +2.7794241E+03 </wgt>
<wgt id='1429'> +2.7804970E+03 </wgt>
<wgt id='1430'> +2.9702139E+03 </wgt>
<wgt id='1431'> +2.9810441E+03 </wgt>
<wgt id='1432'> +2.9560725E+03 </wgt>
<wgt id='1433'> +2.9740225E+03 </wgt>
<wgt id='1434'> +2.9662468E+03 </wgt>
<wgt id='1435'> +2.9603769E+03 </wgt>
<wgt id='1436'> +2.9741075E+03 </wgt>
<wgt id='1437'> +2.9631576E+03 </wgt>
<wgt id='1438'> +2.9769911E+03 </wgt>
<wgt id='1439'> +2.9669430E+03 </wgt>
<wgt id='1440'> +2.9731075E+03 </wgt>
<wgt id='1441'> +2.9638770E+03 </wgt>
<wgt id='1442'> +2.9727428E+03 </wgt>
<wgt id='1443'> +2.9674532E+03 </wgt>
<wgt id='1444'> +2.9734822E+03 </wgt>
<wgt id='1445'> +2.9594551E+03 </wgt>
<wgt id='1446'> +2.9818162E+03 </wgt>
<wgt id='1447'> +2.9828275E+03 </wgt>
<wgt id='1448'> +2.9623502E+03 </wgt>
<wgt id='1449'> +2.9692890E+03 </wgt>
<wgt id='1450'> +2.9707597E+03 </wgt>
<wgt id='1451'> +2.9824615E+03 </wgt>
<wgt id='1452'> +2.9613248E+03 </wgt>
<wgt id='1453'> +2.9442640E+03 </wgt>
<wgt id='1454'> +2.9905183E+03 </wgt>
<wgt id='1455'> +2.9537837E+03 </wgt>
<wgt id='1456'> +3.0108017E+03 </wgt>
<wgt id='1457'> +2.9801375E+03 </wgt>
<wgt id='1458'> +2.9738360E+03 </wgt>
<wgt id='1459'> +2.9565784E+03 </wgt>
<wgt id='1460'> +2.9979821E+03 </wgt>
<wgt id='1461'> +2.9772394E+03 </wgt>
<wgt id='1462'> +2.9528762E+03 </wgt>
<wgt id='1463'> +2.9612941E+03 </wgt>
<wgt id='1464'> +2.9877599E+03 </wgt>
<wgt id='1465'> +2.9947418E+03 </wgt>
<wgt id='1466'> +2.9580874E+03 </wgt>
<wgt id='1467'> +2.9729824E+03 </wgt>
<wgt id='1468'> +2.9721581E+03 </wgt>
<wgt id='1469'> +2.9724944E+03 </wgt>
<wgt id='1470'> +2.9666895E+03 </wgt>
<wgt id='1471'> +2.9911279E+03 </wgt>
<wgt id='1472'> +2.9183150E+03 </wgt>
<wgt id='1473'> +2.9742358E+03 </wgt>
<wgt id='1474'> +2.9540841E+03 </wgt>
<wgt id='1475'> +2.9640592E+03 </wgt>
<wgt id='1476'> +2.9857568E+03 </wgt>
<wgt id='1477'> +2.9933146E+03 </wgt>
<wgt id='1478'> +2.9615674E+03 </wgt>
<wgt id='1479'> +2.9807664E+03 </wgt>
<wgt id='1480'> +2.9738294E+03 </wgt>
<wgt id='1481'> +2.9773091E+03 </wgt>
<wgt id='1482'> +2.8832812E+03 </wgt>
<wgt id='1483'> +2.8825041E+03 </wgt>
<wgt id='1484'> +2.8833528E+03 </wgt>
<wgt id='1485'> +2.8823880E+03 </wgt>
<wgt id='1486'> +2.8833194E+03 </wgt>
<wgt id='1487'> +2.8846190E+03 </wgt>
<wgt id='1488'> +2.8742427E+03 </wgt>
<wgt id='1489'> +2.8821143E+03 </wgt>
<wgt id='1490'> +2.8771947E+03 </wgt>
<wgt id='1491'> +2.8762400E+03 </wgt>
<wgt id='1492'> +2.8924794E+03 </wgt>
<wgt id='1493'> +2.8799942E+03 </wgt>
<wgt id='1494'> +2.8813314E+03 </wgt>
<wgt id='1495'> +2.8839932E+03 </wgt>
<wgt id='1496'> +2.8804419E+03 </wgt>
<wgt id='1497'> +2.8843368E+03 </wgt>
<wgt id='1498'> +2.8837453E+03 </wgt>
<wgt id='1499'> +2.8795749E+03 </wgt>
<wgt id='1500'> +2.8865629E+03 </wgt>
<wgt id='1501'> +2.8864979E+03 </wgt>
<wgt id='1502'> +2.8719997E+03 </wgt>
<wgt id='1503'> +2.8781191E+03 </wgt>
<wgt id='1504'> +2.8777182E+03 </wgt>
<wgt id='1505'> +2.8922963E+03 </wgt>
<wgt id='1506'> +2.8909291E+03 </wgt>
<wgt id='1507'> +2.8904326E+03 </wgt>
<wgt id='1508'> +2.8828485E+03 </wgt>
<wgt id='1509'> +2.8864348E+03 </wgt>
<wgt id='1510'> +2.8757469E+03 </wgt>
<wgt id='1511'> +2.8612019E+03 </wgt>
<wgt id='1512'> +2.7968656E+03 </wgt>
<wgt id='1513'> +2.7918274E+03 </wgt>
<wgt id='1514'> +2.7768248E+03 </wgt>
<wgt id='1515'> +2.8220152E+03 </wgt>
<wgt id='1516'> +2.7918651E+03 </wgt>
<wgt id='1517'> +2.8063155E+03 </wgt>
<wgt id='1518'> +2.7760355E+03 </wgt>
<wgt id='1519'> +2.8047860E+03 </wgt>
<wgt id='1520'> +2.8128965E+03 </wgt>
<wgt id='1521'> +2.8120759E+03 </wgt>
<wgt id='1522'> +2.8057936E+03 </wgt>
<wgt id='1523'> +2.7779929E+03 </wgt>
<wgt id='1524'> +2.7787822E+03 </wgt>
<wgt id='1525'> +2.7796238E+03 </wgt>
<wgt id='1526'> +2.7927335E+03 </wgt>
<wgt id='1527'> +2.7830419E+03 </wgt>
<wgt id='1528'> +2.7891503E+03 </wgt>
<wgt id='1529'> +2.7887583E+03 </wgt>
<wgt id='1530'> +2.8235242E+03 </wgt>
<wgt id='1531'> +2.7877594E+03 </wgt>
<wgt id='1532'> +2.8070477E+03 </wgt>
<wgt id='1533'> +2.8032141E+03 </wgt>
<wgt id='1534'> +2.7933443E+03 </wgt>
<wgt id='1535'> +2.8074662E+03 </wgt>
<wgt id='1536'> +2.7929862E+03 </wgt>
<wgt id='1537'> +2.8111261E+03 </wgt>
<wgt id='1538'> +2.7965679E+03 </wgt>
<wgt id='1539'> +2.7907906E+03 </wgt>
<wgt id='1540'> +2.8110952E+03 </wgt>
<wgt id='1541'> +2.7925723E+03 </wgt>
<wgt id='1542'> +2.7882387E+03 </wgt>
<wgt id='1543'> +2.7987507E+03 </wgt>
<wgt id='1544'> +2.7910600E+03 </wgt>
<wgt id='1545'> +2.7884120E+03 </wgt>
<wgt id='1546'> +2.7980023E+03 </wgt>
<wgt id='1547'> +2.8030448E+03 </wgt>
<wgt id='1548'> +2.7931928E+03 </wgt>
<wgt id='1549'> +2.7903074E+03 </wgt>
<wgt id='1550'> +2.7975643E+03 </wgt>
<wgt id='1551'> +2.8001339E+03 </wgt>
<wgt id='1552'> +2.8011540E+03 </wgt>
<wgt id='1553'> +2.8005415E+03 </wgt>
<wgt id='1554'> +2.7968730E+03 </wgt>
<wgt id='1555'> +2.7940610E+03 </wgt>
<wgt id='1556'> +2.8034813E+03 </wgt>
<wgt id='1557'> +2.7983254E+03 </wgt>
<wgt id='1558'> +2.7948417E+03 </wgt>
<wgt id='1559'> +2.7934033E+03 </wgt>
<wgt id='1560'> +2.7931943E+03 </wgt>
<wgt id='1561'> +2.7979789E+03 </wgt>
<wgt id='1562'> +2.7959089E+03 </wgt>
<wgt id='1563'> +2.7951131E+03 </wgt>
<wgt id='1564'> +2.7953971E+03 </wgt>
<wgt id='1565'> +2.7958630E+03 </wgt>
<wgt id='1566'> +2.7979107E+03 </wgt>
<wgt id='1567'> +2.7949264E+03 </wgt>
<wgt id='1568'> +2.8002257E+03 </wgt>
<wgt id='1569'> +2.7961504E+03 </wgt>
<wgt id='1570'> +2.7975983E+03 </wgt>
<wgt id='1571'> +2.7954073E+03 </wgt>
<wgt id='1572'> +2.7944522E+03 </wgt>
<wgt id='1573'> +2.7953302E+03 </wgt>
<wgt id='1574'> +2.7948047E+03 </wgt>
<wgt id='1575'> +2.7957839E+03 </wgt>
<wgt id='1576'> +2.7948517E+03 </wgt>
<wgt id='1577'> +2.7962316E+03 </wgt>
<wgt id='1578'> +2.7945330E+03 </wgt>
<wgt id='1579'> +2.7949878E+03 </wgt>
<wgt id='1580'> +2.7968463E+03 </wgt>
<wgt id='1581'> +2.7972771E+03 </wgt>
<wgt id='1582'> +2.7970282E+03 </wgt>
<wgt id='1583'> +2.7965031E+03 </wgt>
<wgt id='1584'> +2.7963414E+03 </wgt>
<wgt id='1585'> +2.7970985E+03 </wgt>
<wgt id='1586'> +2.7950913E+03 </wgt>
<wgt id='1587'> +2.7974760E+03 </wgt>
<wgt id='1588'> +2.7965099E+03 </wgt>
<wgt id='1589'> +2.7954338E+03 </wgt>
<wgt id='1590'> +2.7957361E+03 </wgt>
<wgt id='1591'> +2.7988687E+03 </wgt>
<wgt id='1592'> +2.7966109E+03 </wgt>
<wgt id='1593'> +2.7965537E+03 </wgt>
<wgt id='1594'> +2.7963797E+03 </wgt>
<wgt id='1595'> +2.7966094E+03 </wgt>
<wgt id='1596'> +2.7974896E+03 </wgt>
<wgt id='1597'> +2.7987106E+03 </wgt>
<wgt id='1598'> +2.7981137E+03 </wgt>
<wgt id='1599'> +2.7968754E+03 </wgt>
<wgt id='1600'> +2.7955679E+03 </wgt>
<wgt id='1601'> +2.7974679E+03 </wgt>
<wgt id='1602'> +2.7964860E+03 </wgt>
<wgt id='1603'> +2.7961585E+03 </wgt>
<wgt id='1604'> +2.7964921E+03 </wgt>
<wgt id='1605'> +2.7966923E+03 </wgt>
<wgt id='1606'> +2.7966096E+03 </wgt>
<wgt id='1607'> +2.7968141E+03 </wgt>
<wgt id='1608'> +2.7973423E+03 </wgt>
<wgt id='1609'> +2.7967652E+03 </wgt>
<wgt id='1610'> +2.7969321E+03 </wgt>
<wgt id='1611'> +2.7963881E+03 </wgt>
<wgt id='1612'> +2.7969049E+03 </wgt>
<wgt id='1613'> +2.7179632E+03 </wgt>
<wgt id='1614'> +2.8755261E+03 </wgt>
<wgt id='1615'> +2.9462834E+03 </wgt>
<wgt id='1616'> +2.9577595E+03 </wgt>
<wgt id='1617'> +2.9405669E+03 </wgt>
<wgt id='1618'> +2.9524884E+03 </wgt>
<wgt id='1619'> +2.9583716E+03 </wgt>
<wgt id='1620'> +2.9631896E+03 </wgt>
<wgt id='1621'> +2.9672998E+03 </wgt>
<wgt id='1622'> +2.9593847E+03 </wgt>
<wgt id='1623'> +2.9498549E+03 </wgt>
<wgt id='1624'> +2.9254596E+03 </wgt>
<wgt id='1625'> +2.9574325E+03 </wgt>
<wgt id='1626'> +2.9619681E+03 </wgt>
<wgt id='1627'> +2.9410619E+03 </wgt>
<wgt id='1628'> +2.9475970E+03 </wgt>
<wgt id='1629'> +2.9220186E+03 </wgt>
<wgt id='1630'> +2.9934159E+03 </wgt>
<wgt id='1631'> +2.9370656E+03 </wgt>
<wgt id='1632'> +2.9519761E+03 </wgt>
<wgt id='1633'> +2.9479713E+03 </wgt>
<wgt id='1634'> +2.9267087E+03 </wgt>
<wgt id='1635'> +2.9543502E+03 </wgt>
<wgt id='1636'> +2.9522857E+03 </wgt>
<wgt id='1637'> +2.9351120E+03 </wgt>
<wgt id='1638'> +2.9580990E+03 </wgt>
<wgt id='1639'> +2.9512398E+03 </wgt>
<wgt id='1640'> +2.9439882E+03 </wgt>
<wgt id='1641'> +2.9424509E+03 </wgt>
<wgt id='1642'> +2.9490207E+03 </wgt>
<wgt id='1643'> +2.9434225E+03 </wgt>
<wgt id='1644'> +2.9447329E+03 </wgt>
<wgt id='1645'> +2.9507810E+03 </wgt>
<wgt id='1646'> +2.9539540E+03 </wgt>
<wgt id='1647'> +2.9565008E+03 </wgt>
<wgt id='1648'> +2.9611548E+03 </wgt>
<wgt id='1649'> +2.9549275E+03 </wgt>
<wgt id='1650'> +2.9374786E+03 </wgt>
<wgt id='1651'> +2.9486177E+03 </wgt>
<wgt id='1652'> +2.9454616E+03 </wgt>
<wgt id='1653'> +2.9484815E+03 </wgt>
<wgt id='1654'> +2.9443382E+03 </wgt>
<wgt id='1655'> +2.9436373E+03 </wgt>
<wgt id='1656'> +2.9458603E+03 </wgt>
<wgt id='1657'> +2.9480430E+03 </wgt>
<wgt id='1658'> +2.9395826E+03 </wgt>
<wgt id='1659'> +2.9512692E+03 </wgt>
<wgt id='1660'> +2.9423416E+03 </wgt>
<wgt id='1661'> +2.9473931E+03 </wgt>
<wgt id='1662'> +2.9448026E+03 </wgt>
<wgt id='1663'> +2.9531282E+03 </wgt>
<wgt id='1664'> +2.9423637E+03 </wgt>
<wgt id='1665'> +2.9481648E+03 </wgt>
<wgt id='1666'> +2.9469679E+03 </wgt>
<wgt id='1667'> +2.9440476E+03 </wgt>
<wgt id='1668'> +2.9462652E+03 </wgt>
<wgt id='1669'> +2.9446911E+03 </wgt>
<wgt id='1670'> +2.9462066E+03 </wgt>
<wgt id='1671'> +2.9468059E+03 </wgt>
<wgt id='1672'> +2.9439609E+03 </wgt>
<wgt id='1673'> +2.9432034E+03 </wgt>
<wgt id='1674'> +2.9465791E+03 </wgt>
<wgt id='1675'> +2.9451216E+03 </wgt>
<wgt id='1676'> +2.9467338E+03 </wgt>
<wgt id='1677'> +2.9472401E+03 </wgt>
<wgt id='1678'> +2.9466634E+03 </wgt>
<wgt id='1679'> +2.9417764E+03 </wgt>
<wgt id='1680'> +2.9476648E+03 </wgt>
<wgt id='1681'> +2.9479089E+03 </wgt>
<wgt id='1682'> +2.9469824E+03 </wgt>
<wgt id='1683'> +2.9469453E+03 </wgt>
<wgt id='1684'> +2.9476136E+03 </wgt>
<wgt id='1685'> +2.9465730E+03 </wgt>
<wgt id='1686'> +2.9478948E+03 </wgt>
<wgt id='1687'> +2.9481893E+03 </wgt>
<wgt id='1688'> +2.9466562E+03 </wgt>
<wgt id='1689'> +2.9451541E+03 </wgt>
<wgt id='1690'> +2.9451490E+03 </wgt>
<wgt id='1691'> +2.9448687E+03 </wgt>
<wgt id='1692'> +2.9480386E+03 </wgt>
<wgt id='1693'> +2.9446465E+03 </wgt>
<wgt id='1694'> +2.9473157E+03 </wgt>
<wgt id='1695'> +2.9477027E+03 </wgt>
<wgt id='1696'> +2.9468061E+03 </wgt>
<wgt id='1697'> +2.9464017E+03 </wgt>
<wgt id='1698'> +2.9466962E+03 </wgt>
<wgt id='1699'> +2.9462872E+03 </wgt>
<wgt id='1700'> +2.9451975E+03 </wgt>
<wgt id='1701'> +2.9476459E+03 </wgt>
<wgt id='1702'> +2.9447385E+03 </wgt>
<wgt id='1703'> +2.9457251E+03 </wgt>
<wgt id='1704'> +2.9456853E+03 </wgt>
<wgt id='1705'> +2.9476642E+03 </wgt>
<wgt id='1706'> +2.9458666E+03 </wgt>
<wgt id='1707'> +2.9463704E+03 </wgt>
<wgt id='1708'> +2.9460268E+03 </wgt>
<wgt id='1709'> +2.9461695E+03 </wgt>
<wgt id='1710'> +2.9463572E+03 </wgt>
<wgt id='1711'> +2.9458812E+03 </wgt>
<wgt id='1712'> +2.9465331E+03 </wgt>
<wgt id='1713'> +2.9468655E+03 </wgt>
<wgt id='1714'> +2.9466907E+03 </wgt>
<wgt id='1715'> +2.9458092E+03 </wgt>
<wgt id='1716'> +2.8560773E+03 </wgt>
<wgt id='1717'> +3.0220985E+03 </wgt>
<wgt id='1718'> +2.7984872E+03 </wgt>
<wgt id='1719'> +2.7932714E+03 </wgt>
<wgt id='1720'> +2.7794853E+03 </wgt>
<wgt id='1721'> +2.7977533E+03 </wgt>
<wgt id='1722'> +2.8240507E+03 </wgt>
<wgt id='1723'> +2.8090997E+03 </wgt>
<wgt id='1724'> +2.8159594E+03 </wgt>
<wgt id='1725'> +2.7969631E+03 </wgt>
<wgt id='1726'> +2.8060465E+03 </wgt>
<wgt id='1727'> +2.8234004E+03 </wgt>
<wgt id='1728'> +2.8013421E+03 </wgt>
<wgt id='1729'> +2.7809036E+03 </wgt>
<wgt id='1730'> +2.8104211E+03 </wgt>
<wgt id='1731'> +2.7993788E+03 </wgt>
<wgt id='1732'> +2.7677653E+03 </wgt>
<wgt id='1733'> +2.8056735E+03 </wgt>
<wgt id='1734'> +2.8006592E+03 </wgt>
<wgt id='1735'> +2.7771508E+03 </wgt>
<wgt id='1736'> +2.7978018E+03 </wgt>
<wgt id='1737'> +2.8061230E+03 </wgt>
<wgt id='1738'> +2.8048579E+03 </wgt>
<wgt id='1739'> +2.7949371E+03 </wgt>
<wgt id='1740'> +2.7926779E+03 </wgt>
<wgt id='1741'> +2.7988223E+03 </wgt>
<wgt id='1742'> +2.7887206E+03 </wgt>
<wgt id='1743'> +2.8051234E+03 </wgt>
<wgt id='1744'> +2.7911671E+03 </wgt>
<wgt id='1745'> +2.8071909E+03 </wgt>
<wgt id='1746'> +2.7979624E+03 </wgt>
<wgt id='1747'> +2.8122503E+03 </wgt>
<wgt id='1748'> +2.8001722E+03 </wgt>
<wgt id='1749'> +2.7179632E+03 </wgt>
<wgt id='1750'> +2.8755261E+03 </wgt>
<wgt id='1751'> +2.9464273E+03 </wgt>
<wgt id='1752'> +2.9629394E+03 </wgt>
<wgt id='1753'> +3.0021458E+03 </wgt>
<wgt id='1754'> +2.9450922E+03 </wgt>
<wgt id='1755'> +2.9197419E+03 </wgt>
<wgt id='1756'> +2.9268178E+03 </wgt>
<wgt id='1757'> +2.9457413E+03 </wgt>
<wgt id='1758'> +2.9451762E+03 </wgt>
<wgt id='1759'> +2.9452904E+03 </wgt>
<wgt id='1760'> +2.9374416E+03 </wgt>
<wgt id='1761'> +2.9653398E+03 </wgt>
<wgt id='1762'> +2.9414799E+03 </wgt>
<wgt id='1763'> +2.9453857E+03 </wgt>
<wgt id='1764'> +2.9332417E+03 </wgt>
<wgt id='1765'> +2.9452783E+03 </wgt>
<wgt id='1766'> +2.9411741E+03 </wgt>
<wgt id='1767'> +2.9454071E+03 </wgt>
<wgt id='1768'> +2.9310824E+03 </wgt>
<wgt id='1769'> +2.9471573E+03 </wgt>
<wgt id='1770'> +2.9517660E+03 </wgt>
<wgt id='1771'> +2.9272403E+03 </wgt>
<wgt id='1772'> +2.9408624E+03 </wgt>
<wgt id='1773'> +2.9505175E+03 </wgt>
<wgt id='1774'> +2.9437372E+03 </wgt>
<wgt id='1775'> +2.9476568E+03 </wgt>
<wgt id='1776'> +2.9407691E+03 </wgt>
<wgt id='1777'> +2.9533698E+03 </wgt>
<wgt id='1778'> +2.9479981E+03 </wgt>
<wgt id='1779'> +2.9463340E+03 </wgt>
<wgt id='1780'> +2.9485423E+03 </wgt>
<wgt id='1781'> +2.9528284E+03 </wgt>
<wgt id='1782'> +2.8560773E+03 </wgt>
<wgt id='1783'> +3.0220985E+03 </wgt>
<wgt id='1784'> +3.1534053E+03 </wgt>
<wgt id='1785'> +3.1578263E+03 </wgt>
<wgt id='1786'> +3.1490178E+03 </wgt>
<wgt id='1787'> +3.1550887E+03 </wgt>
<wgt id='1788'> +3.1517124E+03 </wgt>
<wgt id='1789'> +3.1490200E+03 </wgt>
<wgt id='1790'> +3.1577611E+03 </wgt>
<wgt id='1791'> +3.1443018E+03 </wgt>
<wgt id='1792'> +3.1621834E+03 </wgt>
<wgt id='1793'> +3.1718655E+03 </wgt>
<wgt id='1794'> +3.1349359E+03 </wgt>
<wgt id='1795'> +3.1579579E+03 </wgt>
<wgt id='1796'> +3.1461686E+03 </wgt>
<wgt id='1797'> +3.1433638E+03 </wgt>
<wgt id='1798'> +3.1631580E+03 </wgt>
<wgt id='1799'> +3.1473643E+03 </wgt>
<wgt id='1800'> +3.1675766E+03 </wgt>
<wgt id='1801'> +3.1416865E+03 </wgt>
<wgt id='1802'> +3.1581583E+03 </wgt>
<wgt id='1803'> +3.1513218E+03 </wgt>
<wgt id='1804'> +3.1582932E+03 </wgt>
<wgt id='1805'> +3.1623510E+03 </wgt>
<wgt id='1806'> +3.1420639E+03 </wgt>
<wgt id='1807'> +3.1309026E+03 </wgt>
<wgt id='1808'> +3.1651274E+03 </wgt>
<wgt id='1809'> +3.1715571E+03 </wgt>
<wgt id='1810'> +3.1379643E+03 </wgt>
<wgt id='1811'> +3.1388099E+03 </wgt>
<wgt id='1812'> +3.1625714E+03 </wgt>
<wgt id='1813'> +3.1534053E+03 </wgt>
<wgt id='1814'> +3.1727404E+03 </wgt>
<wgt id='1815'> +3.1286310E+03 </wgt>
<wgt id='1816'> +3.1769759E+03 </wgt>
<wgt id='1817'> +3.1399552E+03 </wgt>
<wgt id='1818'> +3.1809373E+03 </wgt>
<wgt id='1819'> +3.1391737E+03 </wgt>
<wgt id='1820'> +3.1488552E+03 </wgt>
<wgt id='1821'> +3.1584838E+03 </wgt>
<wgt id='1822'> +3.1296452E+03 </wgt>
<wgt id='1823'> +3.1783161E+03 </wgt>
<wgt id='1824'> +3.1478058E+03 </wgt>
<wgt id='1825'> +3.1822267E+03 </wgt>
<wgt id='1826'> +3.1738764E+03 </wgt>
<wgt id='1827'> +3.2892002E+03 </wgt>
<wgt id='1828'> +3.2948324E+03 </wgt>
<wgt id='1829'> +3.2850340E+03 </wgt>
<wgt id='1830'> +3.2931656E+03 </wgt>
<wgt id='1831'> +3.2866610E+03 </wgt>
<wgt id='1832'> +3.2869172E+03 </wgt>
<wgt id='1833'> +3.2928908E+03 </wgt>
<wgt id='1834'> +3.2766785E+03 </wgt>
<wgt id='1835'> +3.3025664E+03 </wgt>
<wgt id='1836'> +3.3042985E+03 </wgt>
<wgt id='1837'> +3.2750609E+03 </wgt>
<wgt id='1838'> +3.2970702E+03 </wgt>
<wgt id='1839'> +3.2826700E+03 </wgt>
<wgt id='1840'> +3.2759418E+03 </wgt>
<wgt id='1841'> +3.3042692E+03 </wgt>
<wgt id='1842'> +3.2898311E+03 </wgt>
<wgt id='1843'> +3.3014714E+03 </wgt>
<wgt id='1844'> +3.2961986E+03 </wgt>
<wgt id='1845'> +3.2829518E+03 </wgt>
<wgt id='1846'> +3.2927664E+03 </wgt>
<wgt id='1847'> +3.2866880E+03 </wgt>
<wgt id='1848'> +3.2661872E+03 </wgt>
<wgt id='1849'> +3.3107743E+03 </wgt>
<wgt id='1850'> +3.3021716E+03 </wgt>
<wgt id='1851'> +3.2772749E+03 </wgt>
<wgt id='1852'> +3.2779646E+03 </wgt>
<wgt id='1853'> +3.2934263E+03 </wgt>
<wgt id='1854'> +3.2784377E+03 </wgt>
<wgt id='1855'> +3.2939576E+03 </wgt>
<wgt id='1856'> +3.2855616E+03 </wgt>
<wgt id='1857'> +3.3105736E+03 </wgt>
<wgt id='1858'> +3.2505229E+03 </wgt>
<wgt id='1859'> +3.3144890E+03 </wgt>
<wgt id='1860'> +3.2668785E+03 </wgt>
<wgt id='1861'> +3.3089017E+03 </wgt>
<wgt id='1862'> +3.2472107E+03 </wgt>
<wgt id='1863'> +3.2806738E+03 </wgt>
<wgt id='1864'> +3.2984758E+03 </wgt>
<wgt id='1865'> +3.2252194E+03 </wgt>
<wgt id='1866'> +3.3183134E+03 </wgt>
<wgt id='1867'> +3.2369935E+03 </wgt>
<wgt id='1868'> +3.3425068E+03 </wgt>
<wgt id='1869'> +3.2527426E+03 </wgt>
<wgt id='1870'> +2.7926485E+03 </wgt>
<wgt id='1871'> +2.7920290E+03 </wgt>
<wgt id='1872'> +2.7914146E+03 </wgt>
<wgt id='1873'> +2.7907894E+03 </wgt>
<wgt id='1874'> +2.7901739E+03 </wgt>
<wgt id='1875'> +2.7895569E+03 </wgt>
<wgt id='1876'> +2.7889320E+03 </wgt>
<wgt id='1877'> +2.7883136E+03 </wgt>
<wgt id='1878'> +2.7876891E+03 </wgt>
<wgt id='1879'> +2.7870744E+03 </wgt>
<wgt id='1880'> +2.7864566E+03 </wgt>
<wgt id='1881'> +2.7858318E+03 </wgt>
<wgt id='1882'> +2.7852179E+03 </wgt>
<wgt id='1883'> +2.7845997E+03 </wgt>
<wgt id='1884'> +2.7839758E+03 </wgt>
<wgt id='1885'> +2.7833589E+03 </wgt>
<wgt id='1886'> +2.7827345E+03 </wgt>
<wgt id='1887'> +2.7821203E+03 </wgt>
<wgt id='1888'> +2.7815047E+03 </wgt>
<wgt id='1889'> +2.7808786E+03 </wgt>
<wgt id='1890'> +2.7802608E+03 </wgt>
<wgt id='1891'> +2.7796459E+03 </wgt>
<wgt id='1892'> +2.7790232E+03 </wgt>
<wgt id='1893'> +2.7784091E+03 </wgt>
<wgt id='1894'> +2.7777847E+03 </wgt>
<wgt id='1895'> +2.7771646E+03 </wgt>
<wgt id='1896'> +2.7765498E+03 </wgt>
<wgt id='1897'> +2.7759276E+03 </wgt>
<wgt id='1898'> +2.7753133E+03 </wgt>
<wgt id='1899'> +2.7746996E+03 </wgt>
<wgt id='1900'> +2.7740695E+03 </wgt>
<wgt id='1901'> +2.9322003E+03 </wgt>
<wgt id='1902'> +2.9430425E+03 </wgt>
<wgt id='1903'> +2.9263378E+03 </wgt>
<wgt id='1904'> +2.9384365E+03 </wgt>
<wgt id='1905'> +2.9441369E+03 </wgt>
<wgt id='1906'> +2.9490935E+03 </wgt>
<wgt id='1907'> +2.9535897E+03 </wgt>
<wgt id='1908'> +2.9456077E+03 </wgt>
<wgt id='1909'> +2.9357608E+03 </wgt>
<wgt id='1910'> +2.9115091E+03 </wgt>
<wgt id='1911'> +2.9432117E+03 </wgt>
<wgt id='1912'> +2.9484329E+03 </wgt>
<wgt id='1913'> +2.9273518E+03 </wgt>
<wgt id='1914'> +2.9338148E+03 </wgt>
<wgt id='1915'> +2.9079292E+03 </wgt>
<wgt id='1916'> +2.9783901E+03 </wgt>
<wgt id='1917'> +2.9236139E+03 </wgt>
<wgt id='1918'> +2.9376211E+03 </wgt>
<wgt id='1919'> +2.9337206E+03 </wgt>
<wgt id='1920'> +2.9131006E+03 </wgt>
<wgt id='1921'> +2.9407085E+03 </wgt>
<wgt id='1922'> +2.9378892E+03 </wgt>
<wgt id='1923'> +2.9209809E+03 </wgt>
<wgt id='1924'> +2.9441396E+03 </wgt>
<wgt id='1925'> +2.9368361E+03 </wgt>
<wgt id='1926'> +2.9294500E+03 </wgt>
<wgt id='1927'> +2.9279379E+03 </wgt>
<wgt id='1928'> +2.9354164E+03 </wgt>
<wgt id='1929'> +2.9295405E+03 </wgt>
<wgt id='1930'> +2.9304176E+03 </wgt>
<wgt id='1931'> +2.9364585E+03 </wgt>
<wgt id='1932'> +2.9403411E+03 </wgt>
<wgt id='1933'> +2.9421877E+03 </wgt>
<wgt id='1934'> +2.9468292E+03 </wgt>
<wgt id='1935'> +2.9408100E+03 </wgt>
<wgt id='1936'> +2.9233064E+03 </wgt>
<wgt id='1937'> +2.9345380E+03 </wgt>
<wgt id='1938'> +2.9314263E+03 </wgt>
<wgt id='1939'> +2.9343287E+03 </wgt>
<wgt id='1940'> +2.9300738E+03 </wgt>
<wgt id='1941'> +2.9295753E+03 </wgt>
<wgt id='1942'> +2.9316580E+03 </wgt>
<wgt id='1943'> +2.9338578E+03 </wgt>
<wgt id='1944'> +2.9257934E+03 </wgt>
<wgt id='1945'> +2.9371146E+03 </wgt>
<wgt id='1946'> +2.9282311E+03 </wgt>
<wgt id='1947'> +2.9334197E+03 </wgt>
<wgt id='1948'> +2.9306113E+03 </wgt>
<wgt id='1949'> +2.9390883E+03 </wgt>
<wgt id='1950'> +2.9282511E+03 </wgt>
<wgt id='1951'> +2.9341139E+03 </wgt>
<wgt id='1952'> +2.9328464E+03 </wgt>
<wgt id='1953'> +2.9299702E+03 </wgt>
<wgt id='1954'> +2.9321964E+03 </wgt>
<wgt id='1955'> +2.9306829E+03 </wgt>
<wgt id='1956'> +2.9321808E+03 </wgt>
<wgt id='1957'> +2.9325653E+03 </wgt>
<wgt id='1958'> +2.9298934E+03 </wgt>
<wgt id='1959'> +2.9292845E+03 </wgt>
<wgt id='1960'> +2.9325705E+03 </wgt>
<wgt id='1961'> +2.9311416E+03 </wgt>
<wgt id='1962'> +2.9326716E+03 </wgt>
<wgt id='1963'> +2.9331145E+03 </wgt>
<wgt id='1964'> +2.9325125E+03 </wgt>
<wgt id='1965'> +2.9277914E+03 </wgt>
<wgt id='1966'> +2.9335275E+03 </wgt>
<wgt id='1967'> +2.9337947E+03 </wgt>
<wgt id='1968'> +2.9328110E+03 </wgt>
<wgt id='1969'> +2.9328821E+03 </wgt>
<wgt id='1970'> +2.9334419E+03 </wgt>
<wgt id='1971'> +2.9324539E+03 </wgt>
<wgt id='1972'> +2.9338410E+03 </wgt>
<wgt id='1973'> +2.9340606E+03 </wgt>
<wgt id='1974'> +2.9325139E+03 </wgt>
<wgt id='1975'> +2.9310804E+03 </wgt>
<wgt id='1976'> +2.9310850E+03 </wgt>
<wgt id='1977'> +2.9309162E+03 </wgt>
<wgt id='1978'> +2.9339587E+03 </wgt>
<wgt id='1979'> +2.9306464E+03 </wgt>
<wgt id='1980'> +2.9332291E+03 </wgt>
<wgt id='1981'> +2.9335147E+03 </wgt>
<wgt id='1982'> +2.9328128E+03 </wgt>
<wgt id='1983'> +2.9323420E+03 </wgt>
<wgt id='1984'> +2.9326021E+03 </wgt>
<wgt id='1985'> +2.9321718E+03 </wgt>
<wgt id='1986'> +2.9311511E+03 </wgt>
<wgt id='1987'> +2.9336616E+03 </wgt>
<wgt id='1988'> +2.9306313E+03 </wgt>
<wgt id='1989'> +2.9315834E+03 </wgt>
<wgt id='1990'> +2.9315500E+03 </wgt>
<wgt id='1991'> +2.9335421E+03 </wgt>
<wgt id='1992'> +2.9317263E+03 </wgt>
<wgt id='1993'> +2.9322307E+03 </wgt>
<wgt id='1994'> +2.9319522E+03 </wgt>
<wgt id='1995'> +2.9320019E+03 </wgt>
<wgt id='1996'> +2.9322810E+03 </wgt>
<wgt id='1997'> +2.9318285E+03 </wgt>
<wgt id='1998'> +2.9324498E+03 </wgt>
<wgt id='1999'> +2.9327626E+03 </wgt>
<wgt id='2000'> +2.9326453E+03 </wgt>
<wgt id='2001'> +2.9317479E+03 </wgt>
<wgt id='2002'> +2.9321918E+03 </wgt>
<wgt id='2003'> +2.9321453E+03 </wgt>
<wgt id='2004'> +2.9322089E+03 </wgt>
<wgt id='2005'> +2.9322103E+03 </wgt>
<wgt id='2006'> +2.9322256E+03 </wgt>
<wgt id='2007'> +2.9322037E+03 </wgt>
<wgt id='2008'> +2.9321639E+03 </wgt>
<wgt id='2009'> +2.7984634E+03 </wgt>
<wgt id='2010'> +2.6849463E+03 </wgt>
<wgt id='2011'> +2.8041217E+03 </wgt>
<wgt id='2012'> +2.8890941E+03 </wgt>
<wgt id='2013'> +2.8600717E+03 </wgt>
<wgt id='2014'> +2.5542063E+03 </wgt>
<wgt id='2015'> +2.7135527E+03 </wgt>
<wgt id='2016'> +2.7911306E+03 </wgt>
<wgt id='2017'> +2.7714227E+03 </wgt>
<wgt id='2018'> +2.7921919E+03 </wgt>
<wgt id='2019'> +2.8446345E+03 </wgt>
<wgt id='2020'> +2.6866872E+03 </wgt>
<wgt id='2021'> +2.7429704E+03 </wgt>
<wgt id='2022'> +2.8671481E+03 </wgt>
<wgt id='2023'> +2.8192266E+03 </wgt>
<wgt id='2024'> +2.7828312E+03 </wgt>
<wgt id='2025'> +2.6990088E+03 </wgt>
<wgt id='2026'> +2.7582448E+03 </wgt>
<wgt id='2027'> +2.6734283E+03 </wgt>
<wgt id='2028'> +2.8235695E+03 </wgt>
<wgt id='2029'> +2.7435070E+03 </wgt>
<wgt id='2030'> +2.9077479E+03 </wgt>
<wgt id='2031'> +2.8109447E+03 </wgt>
<wgt id='2032'> +2.9157520E+03 </wgt>
<wgt id='2033'> +2.7759392E+03 </wgt>
<wgt id='2034'> +2.8185142E+03 </wgt>
<wgt id='2035'> +2.8404871E+03 </wgt>
<wgt id='2036'> +2.7247640E+03 </wgt>
<wgt id='2037'> +2.8054917E+03 </wgt>
<wgt id='2038'> +2.7779377E+03 </wgt>
<wgt id='2039'> +2.8156386E+03 </wgt>
<wgt id='2040'> +2.8934088E+03 </wgt>
<wgt id='2041'> +2.7734827E+03 </wgt>
<wgt id='2042'> +2.8620216E+03 </wgt>
<wgt id='2043'> +2.8022539E+03 </wgt>
<wgt id='2044'> +2.8719906E+03 </wgt>
<wgt id='2045'> +2.8217424E+03 </wgt>
<wgt id='2046'> +2.7547961E+03 </wgt>
<wgt id='2047'> +2.6758259E+03 </wgt>
<wgt id='2048'> +2.7833464E+03 </wgt>
<wgt id='2049'> +2.8229861E+03 </wgt>
<wgt id='2050'> +2.8742793E+03 </wgt>
<wgt id='2051'> +2.8562711E+03 </wgt>
<wgt id='2052'> +2.8262145E+03 </wgt>
<wgt id='2053'> +2.8129529E+03 </wgt>
<wgt id='2054'> +2.8695643E+03 </wgt>
<wgt id='2055'> +2.8118679E+03 </wgt>
<wgt id='2056'> +2.7892711E+03 </wgt>
<wgt id='2057'> +2.7844569E+03 </wgt>
<wgt id='2058'> +2.6680822E+03 </wgt>
<wgt id='2059'> +2.8654244E+03 </wgt>
<wgt id='2060'> +2.8749764E+03 </wgt>
<wgt id='2061'> +2.8253799E+03 </wgt>
<wgt id='2062'> +2.7394574E+03 </wgt>
<wgt id='2063'> +2.8053639E+03 </wgt>
<wgt id='2064'> +2.8344286E+03 </wgt>
<wgt id='2065'> +2.7655681E+03 </wgt>
<wgt id='2066'> +2.8629018E+03 </wgt>
<wgt id='2067'> +2.8652925E+03 </wgt>
<wgt id='2068'> +2.8092812E+03 </wgt>
<wgt id='2069'> +2.8331568E+03 </wgt>
<wgt id='2070'> +2.8128984E+03 </wgt>
<wgt id='2071'> +2.8036594E+03 </wgt>
<wgt id='2072'> +2.7326260E+03 </wgt>
<wgt id='2073'> +2.7002073E+03 </wgt>
<wgt id='2074'> +2.8557091E+03 </wgt>
<wgt id='2075'> +2.7780165E+03 </wgt>
<wgt id='2076'> +2.9652217E+03 </wgt>
<wgt id='2077'> +2.8798855E+03 </wgt>
<wgt id='2078'> +2.7922982E+03 </wgt>
<wgt id='2079'> +2.7716746E+03 </wgt>
<wgt id='2080'> +2.8276484E+03 </wgt>
<wgt id='2081'> +2.7063931E+03 </wgt>
<wgt id='2082'> +2.6905146E+03 </wgt>
<wgt id='2083'> +2.8390892E+03 </wgt>
<wgt id='2084'> +2.8010112E+03 </wgt>
<wgt id='2085'> +2.7498203E+03 </wgt>
<wgt id='2086'> +2.7682533E+03 </wgt>
<wgt id='2087'> +2.8364558E+03 </wgt>
<wgt id='2088'> +2.7891862E+03 </wgt>
<wgt id='2089'> +2.8142661E+03 </wgt>
<wgt id='2090'> +2.8634526E+03 </wgt>
<wgt id='2091'> +2.7989949E+03 </wgt>
<wgt id='2092'> +2.7496958E+03 </wgt>
<wgt id='2093'> +2.8220780E+03 </wgt>
<wgt id='2094'> +2.7861314E+03 </wgt>
<wgt id='2095'> +2.7783630E+03 </wgt>
<wgt id='2096'> +2.8653960E+03 </wgt>
<wgt id='2097'> +2.8556903E+03 </wgt>
<wgt id='2098'> +2.7089785E+03 </wgt>
<wgt id='2099'> +2.8153520E+03 </wgt>
<wgt id='2100'> +2.8419028E+03 </wgt>
<wgt id='2101'> +2.7485654E+03 </wgt>
<wgt id='2102'> +2.7463021E+03 </wgt>
<wgt id='2103'> +2.8072998E+03 </wgt>
<wgt id='2104'> +2.7543955E+03 </wgt>
<wgt id='2105'> +2.8107159E+03 </wgt>
<wgt id='2106'> +2.7716570E+03 </wgt>
<wgt id='2107'> +2.8877739E+03 </wgt>
<wgt id='2108'> +2.8360496E+03 </wgt>
<wgt id='2109'> +2.7352470E+03 </wgt>
<wgt id='2110'> +2.7537746E+03 </wgt>
<wgt id='2111'> +2.8534054E+03 </wgt>
<wgt id='2112'> +2.9247229E+03 </wgt>
<wgt id='2113'> +2.6940809E+03 </wgt>
<wgt id='2114'> +3.1344338E+03 </wgt>
<wgt id='2115'> +2.5140457E+03 </wgt>
<wgt id='2116'> +3.2109840E+03 </wgt>
</rwgt>
</event>
<event>
 8      8 +2.9771057E+03 8.61177800e+01 7.54677100e-03 1.19031500e-01
        3 -1    0    0  503    0 -0.0000000000e+00 +0.0000000000e+00 +1.0215018329e+03 1.0215018329e+03 0.0000000000e+00 0.0000e+00 -1.0000e+00
        2 -1    0    0  502    0 +0.0000000000e+00 -0.0000000000e+00 -3.5187226313e+01 3.5187226313e+01 0.0000000000e+00 0.0000e+00 -1.0000e+00
      -24  2    1    2    0    0 -1.0903129899e+01 +1.9256500956e+01 +6.8908694767e+02 6.9418897737e+02 8.1042111122e+01 0.0000e+00 0.0000e+00
       15  1    3    3    0    0 -1.4603683602e+00 -3.1606376009e+01 +2.2314040474e+02 2.2537944368e+02 1.7770000000e+00 0.0000e+00 -1.0000e+00
      -16  1    3    3    0    0 -9.4427615387e+00 +5.0862876966e+01 +4.6594654294e+02 4.6880953368e+02 0.0000000000e+00 0.0000e+00 1.0000e+00
       21  1    1    2  503  501 +1.0881444346e+01 +1.6875144943e+00 +7.9781731467e+01 8.0538054434e+01 0.0000000000e+00 0.0000e+00 1.0000e+00
        2  1    1    2  501    0 +3.1919416481e+01 +4.0083921767e+00 -2.2091674519e+01 3.9025100120e+01 0.0000000000e+00 0.0000e+00 -1.0000e+00
        4  1    1    2  502    0 -3.1897730928e+01 -2.4952407627e+01 +2.3953760193e+02 2.4293692726e+02 0.0000000000e+00 0.0000e+00 -1.0000e+00
<scales pt_clust_4="13000.00000" pt_clust_5="13000.00000" pt_clust_6="11.01152" pt_clust_7="32.26912" pt_clust_8="29.12813"></scales>
<mgrwt>
<rscale>  0 0.86117777E+02</rscale>
<asrwt>  3 0.11011518E+02 0.32269115E+02 0.29128126E+02</asrwt>
<pdfrwt beam="1">  1        2 0.54134202E-02 0.86117777E+02</pdfrwt>
<pdfrwt beam="2">  1        3 0.15715410E+00 0.86117777E+02</pdfrwt>
<totfact> 0.13306078E+00</totfact>
</mgrwt>
<clustering>
<clus scale="   11.012">  1  6  2 -1</clus>
<clus scale="   32.269">  2  7  1 -1</clus>
<clus scale="   29.128">  2  8  1 -1</clus>
<clus scale="   81.042">  4  5 -1 -1</clus>
<clus scale="   86.118">  2  4  1 -1</clus>
</clustering>
<rwgt>
<wgt id='1001'> +2.9771057E+03 </wgt>
<wgt id='1002'> +3.0102576E+03 </wgt>
<wgt id='1003'> +3.0102675E+03 </wgt>
<wgt id='1004'> +2.9750322E+03 </wgt>
<wgt id='1005'> +3.0249957E+03 </wgt>
<wgt id='1006'> +2.9771057E+03 </wgt>
<wgt id='1007'> +3.0102576E+03 </wgt>
<wgt id='1008'> +3.0102675E+03 </wgt>
<wgt id='1009'> +2.9750322E+03 </wgt>
<wgt id='1010'> +3.0249957E+03 </wgt>
<wgt id='1011'> +2.9771057E+03 </wgt>
<wgt id='1012'> +3.0102576E+03 </wgt>
<wgt id='1013'> +3.0102675E+03 </wgt>
<wgt id='1014'> +2.9750322E+03 </wgt>
<wgt id='1015'> +3.0249957E+03 </wgt>
<wgt id='1016'> +3.0112715E+03 </wgt>
<wgt id='1017'> +3.0242071E+03 </wgt>
<wgt id='1018'> +3.0242095E+03 </wgt>
<wgt id='1019'> +3.0102675E+03 </wgt>
<wgt id='1020'> +3.0210514E+03 </wgt>
<wgt id='1021'> +3.0112715E+03 </wgt>
<wgt id='1022'> +3.0242071E+03 </wgt>
<wgt id='1023'> +3.0242095E+03 </wgt>
<wgt id='1024'> +3.0102675E+03 </wgt>
<wgt id='1025'> +3.0210514E+03 </wgt>
<wgt id='1026'> +3.0112715E+03 </wgt>
<wgt id='1027'> +3.0242071E+03 </wgt>
<wgt id='1028'> +3.0242095E+03 </wgt>
<wgt id='1029'> +3.0102675E+03 </wgt>
<wgt id='1030'> +3.0210514E+03 </wgt>
<wgt id='1031'> +2.9141836E+03 </wgt>
<wgt id='1032'> +2.9750120E+03 </wgt>
<wgt id='1033'> +2.9750322E+03 </wgt>
<wgt id='1034'> +2.9106164E+03 </wgt>
<wgt id='1035'> +3.0141772E+03 </wgt>
<wgt id='1036'> +2.9141836E+03 </wgt>
<wgt id='1037'> +2.9750120E+03 </wgt>
<wgt id='1038'> +2.9750322E+03 </wgt>
<wgt id='1039'> +2.9106164E+03 </wgt>
<wgt id='1040'> +3.0141772E+03 </wgt>
<wgt id='1041'> +2.9141836E+03 </wgt>
<wgt id='1042'> +2.9750120E+03 </wgt>
<wgt id='1043'> +2.9750322E+03 </wgt>
<wgt id='1044'> +2.9106164E+03 </wgt>
<wgt id='1045'> +3.0141772E+03 </wgt>
<wgt id='1046'> +2.9771057E+03 </wgt>
<wgt id='1047'> +2.9871892E+03 </wgt>
<wgt id='1048'> +2.9557535E+03 </wgt>
<wgt id='1049'> +2.9580438E+03 </wgt>
<wgt id='1050'> +2.9636780E+03 </wgt>
<wgt id='1051'> +2.9873322E+03 </wgt>
<wgt id='1052'> +2.9521926E+03 </wgt>
<wgt id='1053'> +2.9724977E+03 </wgt>
<wgt id='1054'> +2.9513763E+03 </wgt>
<wgt id='1055'> +2.9561423E+03 </wgt>
<wgt id='1056'> +2.9825760E+03 </wgt>
<wgt id='1057'> +2.9755742E+03 </wgt>
<wgt id='1058'> +2.9769010E+03 </wgt>
<wgt id='1059'> +2.9599462E+03 </wgt>
<wgt id='1060'> +2.9502354E+03 </wgt>
<wgt id='1061'> +2.9918289E+03 </wgt>
<wgt id='1062'> +2.9653289E+03 </wgt>
<wgt id='1063'> +2.9551717E+03 </wgt>
<wgt id='1064'> +2.9822838E+03 </wgt>
<wgt id='1065'> +2.9628307E+03 </wgt>
<wgt id='1066'> +2.9525298E+03 </wgt>
<wgt id='1067'> +2.9866214E+03 </wgt>
<wgt id='1068'> +2.9503183E+03 </wgt>
<wgt id='1069'> +2.9894638E+03 </wgt>
<wgt id='1070'> +2.9406765E+03 </wgt>
<wgt id='1071'> +2.9516733E+03 </wgt>
<wgt id='1072'> +3.0089749E+03 </wgt>
<wgt id='1073'> +2.9395530E+03 </wgt>
<wgt id='1074'> +2.9461605E+03 </wgt>
<wgt id='1075'> +3.1264241E+03 </wgt>
<wgt id='1076'> +3.0540363E+03 </wgt>
<wgt id='1077'> +2.9974963E+03 </wgt>
<wgt id='1078'> +3.0381274E+03 </wgt>
<wgt id='1079'> +2.9741438E+03 </wgt>
<wgt id='1080'> +2.9769344E+03 </wgt>
<wgt id='1081'> +2.9497179E+03 </wgt>
<wgt id='1082'> +2.9428561E+03 </wgt>
<wgt id='1083'> +2.9500103E+03 </wgt>
<wgt id='1084'> +3.0038146E+03 </wgt>
<wgt id='1085'> +2.9838263E+03 </wgt>
<wgt id='1086'> +2.9586397E+03 </wgt>
<wgt id='1087'> +2.9782909E+03 </wgt>
<wgt id='1088'> +3.0149416E+03 </wgt>
<wgt id='1089'> +3.0206071E+03 </wgt>
<wgt id='1090'> +2.9144850E+03 </wgt>
<wgt id='1091'> +3.0623577E+03 </wgt>
<wgt id='1092'> +2.9192002E+03 </wgt>
<wgt id='1093'> +2.8992595E+03 </wgt>
<wgt id='1094'> +3.0036036E+03 </wgt>
<wgt id='1095'> +2.8977695E+03 </wgt>
<wgt id='1096'> +2.9270659E+03 </wgt>
<wgt id='1097'> +2.9146600E+03 </wgt>
<wgt id='1098'> +2.9791742E+03 </wgt>
<wgt id='1099'> +3.0048279E+03 </wgt>
<wgt id='1100'> +2.9767129E+03 </wgt>
<wgt id='1101'> +2.9639830E+03 </wgt>
<wgt id='1102'> +2.9479543E+03 </wgt>
<wgt id='1103'> +3.0328346E+03 </wgt>
<wgt id='1104'> +3.0615691E+03 </wgt>
<wgt id='1105'> +3.0646545E+03 </wgt>
<wgt id='1106'> +3.0385841E+03 </wgt>
<wgt id='1107'> +3.0073698E+03 </wgt>
<wgt id='1108'> +3.0086422E+03 </wgt>
<wgt id='1109'> +2.9454134E+03 </wgt>
<wgt id='1110'> +2.9521814E+03 </wgt>
<wgt id='1111'> +3.0473524E+03 </wgt>
<wgt id='1112'> +2.9149362E+03 </wgt>
<wgt id='1113'> +3.0510325E+03 </wgt>
<wgt id='1114'> +2.9937684E+03 </wgt>
<wgt id='1115'> +2.9705186E+03 </wgt>
<wgt id='1116'> +2.9734007E+03 </wgt>
<wgt id='1117'> +2.9806694E+03 </wgt>
<wgt id='1118'> +2.9387826E+03 </wgt>
<wgt id='1119'> +2.9345167E+03 </wgt>
<wgt id='1120'> +2.9978678E+03 </wgt>
<wgt id='1121'> +2.9975343E+03 </wgt>
<wgt id='1122'> +2.9713549E+03 </wgt>
<wgt id='1123'> +2.9645567E+03 </wgt>
<wgt id='1124'> +2.9663089E+03 </wgt>
<wgt id='1125'> +2.9804233E+03 </wgt>
<wgt id='1126'> +2.9496727E+03 </wgt>
<wgt id='1127'> +2.9847886E+03 </wgt>
<wgt id='1128'> +2.9904115E+03 </wgt>
<wgt id='1129'> +2.9829915E+03 </wgt>
<wgt id='1130'> +2.9807043E+03 </wgt>
<wgt id='1131'> +2.9520135E+03 </wgt>
<wgt id='1132'> +2.9713941E+03 </wgt>
<wgt id='1133'> +2.9945334E+03 </wgt>
<wgt id='1134'> +3.0074504E+03 </wgt>
<wgt id='1135'> +2.9740741E+03 </wgt>
<wgt id='1136'> +2.9648176E+03 </wgt>
<wgt id='1137'> +3.0018983E+03 </wgt>
<wgt id='1138'> +2.9852396E+03 </wgt>
<wgt id='1139'> +2.9545460E+03 </wgt>
<wgt id='1140'> +2.9580786E+03 </wgt>
<wgt id='1141'> +2.9905122E+03 </wgt>
<wgt id='1142'> +2.9774238E+03 </wgt>
<wgt id='1143'> +3.0006265E+03 </wgt>
<wgt id='1144'> +2.9622196E+03 </wgt>
<wgt id='1145'> +2.9702627E+03 </wgt>
<wgt id='1146'> +2.9527324E+03 </wgt>
<wgt id='1147'> +2.7867534E+03 </wgt>
<wgt id='1148'> +3.2264684E+03 </wgt>
<wgt id='1149'> +2.0603257E+03 </wgt>
<wgt id='1150'> +2.2114484E+03 </wgt>
<wgt id='1151'> +2.3513579E+03 </wgt>
<wgt id='1152'> +2.4835501E+03 </wgt>
<wgt id='1153'> +2.8433696E+03 </wgt>
<wgt id='1154'> +3.0511421E+03 </wgt>
<wgt id='1155'> +3.4779713E+03 </wgt>
<wgt id='1156'> +3.7791368E+03 </wgt>
<wgt id='1157'> +2.9900012E+03 </wgt>
<wgt id='1158'> +2.9893507E+03 </wgt>
<wgt id='1159'> +3.0144376E+03 </wgt>
<wgt id='1160'> +2.9701468E+03 </wgt>
<wgt id='1161'> +2.9579523E+03 </wgt>
<wgt id='1162'> +2.9889904E+03 </wgt>
<wgt id='1163'> +2.9680871E+03 </wgt>
<wgt id='1164'> +2.9849573E+03 </wgt>
<wgt id='1165'> +3.0376771E+03 </wgt>
<wgt id='1166'> +2.9822629E+03 </wgt>
<wgt id='1167'> +3.0108593E+03 </wgt>
<wgt id='1168'> +2.9991878E+03 </wgt>
<wgt id='1169'> +2.9887327E+03 </wgt>
<wgt id='1170'> +3.0169424E+03 </wgt>
<wgt id='1171'> +2.9707755E+03 </wgt>
<wgt id='1172'> +3.0165874E+03 </wgt>
<wgt id='1173'> +2.9878006E+03 </wgt>
<wgt id='1174'> +2.9733865E+03 </wgt>
<wgt id='1175'> +2.9817214E+03 </wgt>
<wgt id='1176'> +3.0205718E+03 </wgt>
<wgt id='1177'> +3.0086729E+03 </wgt>
<wgt id='1178'> +2.9920638E+03 </wgt>
<wgt id='1179'> +2.9820761E+03 </wgt>
<wgt id='1180'> +2.9719723E+03 </wgt>
<wgt id='1181'> +3.0089073E+03 </wgt>
<wgt id='1182'> +3.0177377E+03 </wgt>
<wgt id='1183'> +3.0131842E+03 </wgt>
<wgt id='1184'> +2.9987559E+03 </wgt>
<wgt id='1185'> +2.9787174E+03 </wgt>
<wgt id='1186'> +2.9742936E+03 </wgt>
<wgt id='1187'> +3.1512994E+03 </wgt>
<wgt id='1188'> +3.0137726E+03 </wgt>
<wgt id='1189'> +2.9501520E+03 </wgt>
<wgt id='1190'> +2.9443057E+03 </wgt>
<wgt id='1191'> +2.9987894E+03 </wgt>
<wgt id='1192'> +2.9223265E+03 </wgt>
<wgt id='1193'> +2.9921486E+03 </wgt>
<wgt id='1194'> +3.0229405E+03 </wgt>
<wgt id='1195'> +2.9802484E+03 </wgt>
<wgt id='1196'> +2.9804892E+03 </wgt>
<wgt id='1197'> +3.0062559E+03 </wgt>
<wgt id='1198'> +2.9484953E+03 </wgt>
<wgt id='1199'> +2.9934816E+03 </wgt>
<wgt id='1200'> +2.9725763E+03 </wgt>
<wgt id='1201'> +2.9520688E+03 </wgt>
<wgt id='1202'> +2.9779427E+03 </wgt>
<wgt id='1203'> +2.9633139E+03 </wgt>
<wgt id='1204'> +2.9751568E+03 </wgt>
<wgt id='1205'> +2.9258014E+03 </wgt>
<wgt id='1206'> +3.0783209E+03 </wgt>
<wgt id='1207'> +3.0286806E+03 </wgt>
<wgt id='1208'> +2.8738597E+03 </wgt>
<wgt id='1209'> +2.9434340E+03 </wgt>
<wgt id='1210'> +2.9889881E+03 </wgt>
<wgt id='1211'> +2.9571765E+03 </wgt>
<wgt id='1212'> +3.0134086E+03 </wgt>
<wgt id='1213'> +3.0573184E+03 </wgt>
<wgt id='1214'> +2.9531028E+03 </wgt>
<wgt id='1215'> +3.0383367E+03 </wgt>
<wgt id='1216'> +3.1121706E+03 </wgt>
<wgt id='1217'> +2.9676292E+03 </wgt>
<wgt id='1218'> +3.0131731E+03 </wgt>
<wgt id='1219'> +2.9346951E+03 </wgt>
<wgt id='1220'> +3.0422610E+03 </wgt>
<wgt id='1221'> +2.9056473E+03 </wgt>
<wgt id='1222'> +3.0058875E+03 </wgt>
<wgt id='1223'> +2.9555323E+03 </wgt>
<wgt id='1224'> +2.9783978E+03 </wgt>
<wgt id='1225'> +3.0093474E+03 </wgt>
<wgt id='1226'> +2.9890748E+03 </wgt>
<wgt id='1227'> +2.9840967E+03 </wgt>
<wgt id='1228'> +2.9478010E+03 </wgt>
<wgt id='1229'> +2.9914947E+03 </wgt>
<wgt id='1230'> +2.9835765E+03 </wgt>
<wgt id='1231'> +2.9836643E+03 </wgt>
<wgt id='1232'> +3.0077894E+03 </wgt>
<wgt id='1233'> +2.9813321E+03 </wgt>
<wgt id='1234'> +3.0155760E+03 </wgt>
<wgt id='1235'> +3.0491628E+03 </wgt>
<wgt id='1236'> +2.9747029E+03 </wgt>
<wgt id='1237'> +2.9485041E+03 </wgt>
<wgt id='1238'> +2.9983369E+03 </wgt>
<wgt id='1239'> +2.9969051E+03 </wgt>
<wgt id='1240'> +2.9777029E+03 </wgt>
<wgt id='1241'> +3.0037544E+03 </wgt>
<wgt id='1242'> +2.9918201E+03 </wgt>
<wgt id='1243'> +2.9717934E+03 </wgt>
<wgt id='1244'> +2.9792493E+03 </wgt>
<wgt id='1245'> +2.9796447E+03 </wgt>
<wgt id='1246'> +3.0081947E+03 </wgt>
<wgt id='1247'> +2.9640891E+03 </wgt>
<wgt id='1248'> +3.0065543E+03 </wgt>
<wgt id='1249'> +2.9750385E+03 </wgt>
<wgt id='1250'> +2.9982072E+03 </wgt>
<wgt id='1251'> +2.9822618E+03 </wgt>
<wgt id='1252'> +2.9921482E+03 </wgt>
<wgt id='1253'> +2.9753714E+03 </wgt>
<wgt id='1254'> +2.9751143E+03 </wgt>
<wgt id='1255'> +2.9929356E+03 </wgt>
<wgt id='1256'> +3.0140230E+03 </wgt>
<wgt id='1257'> +3.0055707E+03 </wgt>
<wgt id='1258'> +2.7531533E+03 </wgt>
<wgt id='1259'> +3.2066118E+03 </wgt>
<wgt id='1260'> +2.4671553E+03 </wgt>
<wgt id='1261'> +2.3915588E+03 </wgt>
<wgt id='1262'> +2.4411217E+03 </wgt>
<wgt id='1263'> +2.4951596E+03 </wgt>
<wgt id='1264'> +2.4557504E+03 </wgt>
<wgt id='1265'> +2.4461468E+03 </wgt>
<wgt id='1266'> +2.5177970E+03 </wgt>
<wgt id='1267'> +2.4956835E+03 </wgt>
<wgt id='1268'> +2.3549297E+03 </wgt>
<wgt id='1269'> +2.3929594E+03 </wgt>
<wgt id='1270'> +2.5217335E+03 </wgt>
<wgt id='1271'> +2.0401559E+03 </wgt>
<wgt id='1272'> +3.1792082E+03 </wgt>
<wgt id='1273'> +2.5183633E+03 </wgt>
<wgt id='1274'> +2.4166457E+03 </wgt>
<wgt id='1275'> +2.4420203E+03 </wgt>
<wgt id='1276'> +2.5256201E+03 </wgt>
<wgt id='1277'> +2.4775674E+03 </wgt>
<wgt id='1278'> +2.4531669E+03 </wgt>
<wgt id='1279'> +2.4671434E+03 </wgt>
<wgt id='1280'> +2.4611247E+03 </wgt>
<wgt id='1281'> +2.4434357E+03 </wgt>
<wgt id='1282'> +2.4819586E+03 </wgt>
<wgt id='1283'> +2.4538398E+03 </wgt>
<wgt id='1284'> +2.4819440E+03 </wgt>
<wgt id='1285'> +2.4907164E+03 </wgt>
<wgt id='1286'> +2.4476016E+03 </wgt>
<wgt id='1287'> +2.4221934E+03 </wgt>
<wgt id='1288'> +2.5427897E+03 </wgt>
<wgt id='1289'> +2.5269993E+03 </wgt>
<wgt id='1290'> +2.4301003E+03 </wgt>
<wgt id='1291'> +2.5066106E+03 </wgt>
<wgt id='1292'> +2.4076865E+03 </wgt>
<wgt id='1293'> +2.4859965E+03 </wgt>
<wgt id='1294'> +2.4491699E+03 </wgt>
<wgt id='1295'> +2.5230514E+03 </wgt>
<wgt id='1296'> +2.4228003E+03 </wgt>
<wgt id='1297'> +2.4148921E+03 </wgt>
<wgt id='1298'> +2.5259123E+03 </wgt>
<wgt id='1299'> +2.0343755E+03 </wgt>
<wgt id='1300'> +2.7790153E+03 </wgt>
<wgt id='1301'> +2.4397103E+03 </wgt>
<wgt id='1302'> +2.4960242E+03 </wgt>
<wgt id='1303'> +2.4720141E+03 </wgt>
<wgt id='1304'> +2.4980042E+03 </wgt>
<wgt id='1305'> +2.4132845E+03 </wgt>
<wgt id='1306'> +2.4863251E+03 </wgt>
<wgt id='1307'> +2.4728489E+03 </wgt>
<wgt id='1308'> +2.4308589E+03 </wgt>
<wgt id='1309'> +2.4442355E+03 </wgt>
<wgt id='1310'> +2.5154424E+03 </wgt>
<wgt id='1311'> +2.5110376E+03 </wgt>
<wgt id='1312'> +2.4425012E+03 </wgt>
<wgt id='1313'> +2.5272086E+03 </wgt>
<wgt id='1314'> +2.6070929E+03 </wgt>
<wgt id='1315'> +2.5812646E+03 </wgt>
<wgt id='1316'> +2.0854734E+03 </wgt>
<wgt id='1317'> +2.2551501E+03 </wgt>
<wgt id='1318'> +2.6830427E+03 </wgt>
<wgt id='1319'> +2.2676847E+03 </wgt>
<wgt id='1320'> +2.2706676E+03 </wgt>
<wgt id='1321'> +2.2962982E+03 </wgt>
<wgt id='1322'> +2.3190733E+03 </wgt>
<wgt id='1323'> +2.2369440E+03 </wgt>
<wgt id='1324'> +2.3376120E+03 </wgt>
<wgt id='1325'> +2.2331696E+03 </wgt>
<wgt id='1326'> +2.2462467E+03 </wgt>
<wgt id='1327'> +2.3033251E+03 </wgt>
<wgt id='1328'> +2.3043291E+03 </wgt>
<wgt id='1329'> +2.2459266E+03 </wgt>
<wgt id='1330'> +2.1495862E+03 </wgt>
<wgt id='1331'> +2.3530547E+03 </wgt>
<wgt id='1332'> +2.4355361E+03 </wgt>
<wgt id='1333'> +2.1326116E+03 </wgt>
<wgt id='1334'> +1.9363296E+03 </wgt>
<wgt id='1335'> +2.5792200E+03 </wgt>
<wgt id='1336'> +2.2480777E+03 </wgt>
<wgt id='1337'> +2.2875901E+03 </wgt>
<wgt id='1338'> +2.1828831E+03 </wgt>
<wgt id='1339'> +2.3553644E+03 </wgt>
<wgt id='1340'> +2.2055141E+03 </wgt>
<wgt id='1341'> +2.3849452E+03 </wgt>
<wgt id='1342'> +2.2820517E+03 </wgt>
<wgt id='1343'> +2.2493836E+03 </wgt>
<wgt id='1344'> +2.3849981E+03 </wgt>
<wgt id='1345'> +2.1713474E+03 </wgt>
<wgt id='1346'> +2.2388403E+03 </wgt>
<wgt id='1347'> +2.3115176E+03 </wgt>
<wgt id='1348'> +2.3598519E+03 </wgt>
<wgt id='1349'> +2.2361496E+03 </wgt>
<wgt id='1350'> +2.2190750E+03 </wgt>
<wgt id='1351'> +2.3323816E+03 </wgt>
<wgt id='1352'> +2.3167525E+03 </wgt>
<wgt id='1353'> +2.1629774E+03 </wgt>
<wgt id='1354'> +2.1890778E+03 </wgt>
<wgt id='1355'> +2.3466893E+03 </wgt>
<wgt id='1356'> +2.4095766E+03 </wgt>
<wgt id='1357'> +2.1048514E+03 </wgt>
<wgt id='1358'> +2.9061472E+03 </wgt>
<wgt id='1359'> +1.9219541E+03 </wgt>
<wgt id='1360'> +2.2766715E+03 </wgt>
<wgt id='1361'> +2.2572855E+03 </wgt>
<wgt id='1362'> +2.2420888E+03 </wgt>
<wgt id='1363'> +2.2708448E+03 </wgt>
<wgt id='1364'> +2.2410263E+03 </wgt>
<wgt id='1365'> +2.3157963E+03 </wgt>
<wgt id='1366'> +2.2830541E+03 </wgt>
<wgt id='1367'> +2.2434520E+03 </wgt>
<wgt id='1368'> +2.3398944E+03 </wgt>
<wgt id='1369'> +2.1770829E+03 </wgt>
<wgt id='1370'> +2.2308501E+03 </wgt>
<wgt id='1371'> +2.2186928E+03 </wgt>
<wgt id='1372'> +2.2009746E+03 </wgt>
<wgt id='1373'> +2.2881700E+03 </wgt>
<wgt id='1374'> +2.2684354E+03 </wgt>
<wgt id='1375'> +2.0342885E+03 </wgt>
<wgt id='1376'> +2.0804586E+03 </wgt>
<wgt id='1377'> +2.4682925E+03 </wgt>
<wgt id='1378'> +1.8484153E+03 </wgt>
<wgt id='1379'> +2.8211393E+03 </wgt>
<wgt id='1380'> +2.8220935E+03 </wgt>
<wgt id='1381'> +2.8200859E+03 </wgt>
<wgt id='1382'> +2.8092161E+03 </wgt>
<wgt id='1383'> +2.8291593E+03 </wgt>
<wgt id='1384'> +2.8245779E+03 </wgt>
<wgt id='1385'> +2.8179607E+03 </wgt>
<wgt id='1386'> +2.8015657E+03 </wgt>
<wgt id='1387'> +2.8429323E+03 </wgt>
<wgt id='1388'> +2.8728101E+03 </wgt>
<wgt id='1389'> +2.7709809E+03 </wgt>
<wgt id='1390'> +2.7624764E+03 </wgt>
<wgt id='1391'> +2.9480515E+03 </wgt>
<wgt id='1392'> +2.7862853E+03 </wgt>
<wgt id='1393'> +2.8833857E+03 </wgt>
<wgt id='1394'> +2.7714781E+03 </wgt>
<wgt id='1395'> +2.8491895E+03 </wgt>
<wgt id='1396'> +2.9356610E+03 </wgt>
<wgt id='1397'> +2.6882299E+03 </wgt>
<wgt id='1398'> +3.0435526E+03 </wgt>
<wgt id='1399'> +2.6305552E+03 </wgt>
<wgt id='1400'> +2.7827376E+03 </wgt>
<wgt id='1401'> +2.8714310E+03 </wgt>
<wgt id='1402'> +2.7357796E+03 </wgt>
<wgt id='1403'> +2.8768639E+03 </wgt>
<wgt id='1404'> +2.8101234E+03 </wgt>
<wgt id='1405'> +2.8296849E+03 </wgt>
<wgt id='1406'> +2.8471210E+03 </wgt>
<wgt id='1407'> +2.8055441E+03 </wgt>
<wgt id='1408'> +2.7856959E+03 </wgt>
<wgt id='1409'> +2.8635360E+03 </wgt>
<wgt id='1410'> +2.7611152E+03 </wgt>
<wgt id='1411'> +2.8888441E+03 </wgt>
<wgt id='1412'> +2.8065435E+03 </wgt>
<wgt id='1413'> +2.8349949E+03 </wgt>
<wgt id='1414'> +2.8253575E+03 </wgt>
<wgt id='1415'> +2.8161637E+03 </wgt>
<wgt id='1416'> +2.8483573E+03 </wgt>
<wgt id='1417'> +2.8020243E+03 </wgt>
<wgt id='1418'> +3.0531460E+03 </wgt>
<wgt id='1419'> +2.5899439E+03 </wgt>
<wgt id='1420'> +3.2052607E+03 </wgt>
<wgt id='1421'> +2.3282354E+03 </wgt>
<wgt id='1422'> +2.6180901E+03 </wgt>
<wgt id='1423'> +2.8457740E+03 </wgt>
<wgt id='1424'> +2.9577829E+03 </wgt>
<wgt id='1425'> +2.3929748E+03 </wgt>
<wgt id='1426'> +2.7931572E+03 </wgt>
<wgt id='1427'> +2.8629958E+03 </wgt>
<wgt id='1428'> +2.7995489E+03 </wgt>
<wgt id='1429'> +2.8311488E+03 </wgt>
<wgt id='1430'> +2.6402351E+03 </wgt>
<wgt id='1431'> +2.6388781E+03 </wgt>
<wgt id='1432'> +2.6419736E+03 </wgt>
<wgt id='1433'> +2.6495181E+03 </wgt>
<wgt id='1434'> +2.6309255E+03 </wgt>
<wgt id='1435'> +2.6260330E+03 </wgt>
<wgt id='1436'> +2.6459354E+03 </wgt>
<wgt id='1437'> +2.6215532E+03 </wgt>
<wgt id='1438'> +2.6589000E+03 </wgt>
<wgt id='1439'> +2.7099293E+03 </wgt>
<wgt id='1440'> +2.5733202E+03 </wgt>
<wgt id='1441'> +2.7943135E+03 </wgt>
<wgt id='1442'> +2.5730346E+03 </wgt>
<wgt id='1443'> +2.6465703E+03 </wgt>
<wgt id='1444'> +2.6324548E+03 </wgt>
<wgt id='1445'> +2.5802664E+03 </wgt>
<wgt id='1446'> +2.7051103E+03 </wgt>
<wgt id='1447'> +2.8674762E+03 </wgt>
<wgt id='1448'> +2.5133802E+03 </wgt>
<wgt id='1449'> +2.5289269E+03 </wgt>
<wgt id='1450'> +2.7912167E+03 </wgt>
<wgt id='1451'> +2.8744597E+03 </wgt>
<wgt id='1452'> +2.4769582E+03 </wgt>
<wgt id='1453'> +2.6458571E+03 </wgt>
<wgt id='1454'> +2.6342359E+03 </wgt>
<wgt id='1455'> +2.6638798E+03 </wgt>
<wgt id='1456'> +2.5804510E+03 </wgt>
<wgt id='1457'> +2.6609574E+03 </wgt>
<wgt id='1458'> +2.6241874E+03 </wgt>
<wgt id='1459'> +2.6682069E+03 </wgt>
<wgt id='1460'> +2.5666020E+03 </wgt>
<wgt id='1461'> +2.6257319E+03 </wgt>
<wgt id='1462'> +2.6724623E+03 </wgt>
<wgt id='1463'> +2.6640430E+03 </wgt>
<wgt id='1464'> +2.5963820E+03 </wgt>
<wgt id='1465'> +2.6355535E+03 </wgt>
<wgt id='1466'> +2.6440206E+03 </wgt>
<wgt id='1467'> +2.6337301E+03 </wgt>
<wgt id='1468'> +2.6513957E+03 </wgt>
<wgt id='1469'> +2.9663689E+03 </wgt>
<wgt id='1470'> +2.4334862E+03 </wgt>
<wgt id='1471'> +2.2731114E+03 </wgt>
<wgt id='1472'> +3.2567777E+03 </wgt>
<wgt id='1473'> +2.6243437E+03 </wgt>
<wgt id='1474'> +2.7118988E+03 </wgt>
<wgt id='1475'> +2.7568267E+03 </wgt>
<wgt id='1476'> +2.5163360E+03 </wgt>
<wgt id='1477'> +2.3204630E+03 </wgt>
<wgt id='1478'> +2.7214406E+03 </wgt>
<wgt id='1479'> +2.5923791E+03 </wgt>
<wgt id='1480'> +2.6632662E+03 </wgt>
<wgt id='1481'> +3.7864806E+03 </wgt>
<wgt id='1482'> +2.5231855E+03 </wgt>
<wgt id='1483'> +2.5222503E+03 </wgt>
<wgt id='1484'> +2.5199007E+03 </wgt>
<wgt id='1485'> +2.5232276E+03 </wgt>
<wgt id='1486'> +2.5235130E+03 </wgt>
<wgt id='1487'> +2.5461564E+03 </wgt>
<wgt id='1488'> +2.5407512E+03 </wgt>
<wgt id='1489'> +2.5036172E+03 </wgt>
<wgt id='1490'> +2.5236025E+03 </wgt>
<wgt id='1491'> +2.5147604E+03 </wgt>
<wgt id='1492'> +2.5054801E+03 </wgt>
<wgt id='1493'> +2.5202878E+03 </wgt>
<wgt id='1494'> +2.4877064E+03 </wgt>
<wgt id='1495'> +2.5303230E+03 </wgt>
<wgt id='1496'> +2.5026023E+03 </wgt>
<wgt id='1497'> +2.5326993E+03 </wgt>
<wgt id='1498'> +2.5127076E+03 </wgt>
<wgt id='1499'> +2.5178606E+03 </wgt>
<wgt id='1500'> +2.5231831E+03 </wgt>
<wgt id='1501'> +2.5325180E+03 </wgt>
<wgt id='1502'> +2.5213813E+03 </wgt>
<wgt id='1503'> +2.5639958E+03 </wgt>
<wgt id='1504'> +2.5584738E+03 </wgt>
<wgt id='1505'> +2.5203229E+03 </wgt>
<wgt id='1506'> +2.5198123E+03 </wgt>
<wgt id='1507'> +2.5155530E+03 </wgt>
<wgt id='1508'> +2.5078325E+03 </wgt>
<wgt id='1509'> +2.5280507E+03 </wgt>
<wgt id='1510'> +2.5244860E+03 </wgt>
<wgt id='1511'> +2.5459031E+03 </wgt>
<wgt id='1512'> +2.5496250E+03 </wgt>
<wgt id='1513'> +2.5611318E+03 </wgt>
<wgt id='1514'> +2.6298608E+03 </wgt>
<wgt id='1515'> +2.4341910E+03 </wgt>
<wgt id='1516'> +2.5778175E+03 </wgt>
<wgt id='1517'> +2.5180633E+03 </wgt>
<wgt id='1518'> +2.6733451E+03 </wgt>
<wgt id='1519'> +2.4776119E+03 </wgt>
<wgt id='1520'> +2.5270906E+03 </wgt>
<wgt id='1521'> +2.5963195E+03 </wgt>
<wgt id='1522'> +2.5935898E+03 </wgt>
<wgt id='1523'> +2.6843493E+03 </wgt>
<wgt id='1524'> +2.5528746E+03 </wgt>
<wgt id='1525'> +2.4372171E+03 </wgt>
<wgt id='1526'> +2.6150315E+03 </wgt>
<wgt id='1527'> +2.5264404E+03 </wgt>
<wgt id='1528'> +2.7323063E+03 </wgt>
<wgt id='1529'> +2.4946061E+03 </wgt>
<wgt id='1530'> +2.4186363E+03 </wgt>
<wgt id='1531'> +2.6688141E+03 </wgt>
<wgt id='1532'> +2.6913442E+03 </wgt>
<wgt id='1533'> +2.5780173E+03 </wgt>
<wgt id='1534'> +2.5008083E+03 </wgt>
<wgt id='1535'> +2.3981643E+03 </wgt>
<wgt id='1536'> +2.5897551E+03 </wgt>
<wgt id='1537'> +2.5651562E+03 </wgt>
<wgt id='1538'> +2.6016728E+03 </wgt>
<wgt id='1539'> +2.4537316E+03 </wgt>
<wgt id='1540'> +2.5237273E+03 </wgt>
<wgt id='1541'> +2.6155519E+03 </wgt>
<wgt id='1542'> +2.6217907E+03 </wgt>
<wgt id='1543'> +2.5997004E+03 </wgt>
<wgt id='1544'> +2.4664574E+03 </wgt>
<wgt id='1545'> +2.5326716E+03 </wgt>
<wgt id='1546'> +2.6174154E+03 </wgt>
<wgt id='1547'> +2.4276229E+03 </wgt>
<wgt id='1548'> +2.6344325E+03 </wgt>
<wgt id='1549'> +2.6009680E+03 </wgt>
<wgt id='1550'> +2.6370148E+03 </wgt>
<wgt id='1551'> +2.6171078E+03 </wgt>
<wgt id='1552'> +2.5924308E+03 </wgt>
<wgt id='1553'> +2.5396677E+03 </wgt>
<wgt id='1554'> +2.6022349E+03 </wgt>
<wgt id='1555'> +2.5613108E+03 </wgt>
<wgt id='1556'> +2.5773914E+03 </wgt>
<wgt id='1557'> +2.5176363E+03 </wgt>
<wgt id='1558'> +2.5945602E+03 </wgt>
<wgt id='1559'> +2.5673410E+03 </wgt>
<wgt id='1560'> +2.5882063E+03 </wgt>
<wgt id='1561'> +2.5712261E+03 </wgt>
<wgt id='1562'> +2.5281716E+03 </wgt>
<wgt id='1563'> +2.5825647E+03 </wgt>
<wgt id='1564'> +2.5228792E+03 </wgt>
<wgt id='1565'> +2.5329223E+03 </wgt>
<wgt id='1566'> +2.5668061E+03 </wgt>
<wgt id='1567'> +2.5100926E+03 </wgt>
<wgt id='1568'> +2.5190554E+03 </wgt>
<wgt id='1569'> +2.5442817E+03 </wgt>
<wgt id='1570'> +2.6481845E+03 </wgt>
<wgt id='1571'> +2.5534709E+03 </wgt>
<wgt id='1572'> +2.5072805E+03 </wgt>
<wgt id='1573'> +2.5809377E+03 </wgt>
<wgt id='1574'> +2.4992444E+03 </wgt>
<wgt id='1575'> +2.5862161E+03 </wgt>
<wgt id='1576'> +2.5649503E+03 </wgt>
<wgt id='1577'> +2.5801731E+03 </wgt>
<wgt id='1578'> +2.5328489E+03 </wgt>
<wgt id='1579'> +2.5540630E+03 </wgt>
<wgt id='1580'> +2.5332390E+03 </wgt>
<wgt id='1581'> +2.5289700E+03 </wgt>
<wgt id='1582'> +2.5555467E+03 </wgt>
<wgt id='1583'> +2.5495325E+03 </wgt>
<wgt id='1584'> +2.5354255E+03 </wgt>
<wgt id='1585'> +2.5491843E+03 </wgt>
<wgt id='1586'> +2.5439502E+03 </wgt>
<wgt id='1587'> +2.5568499E+03 </wgt>
<wgt id='1588'> +2.5344920E+03 </wgt>
<wgt id='1589'> +2.5342181E+03 </wgt>
<wgt id='1590'> +2.5512489E+03 </wgt>
<wgt id='1591'> +2.5553842E+03 </wgt>
<wgt id='1592'> +2.5528084E+03 </wgt>
<wgt id='1593'> +2.5415584E+03 </wgt>
<wgt id='1594'> +2.5344698E+03 </wgt>
<wgt id='1595'> +2.5701600E+03 </wgt>
<wgt id='1596'> +2.5450603E+03 </wgt>
<wgt id='1597'> +2.5480376E+03 </wgt>
<wgt id='1598'> +2.5512345E+03 </wgt>
<wgt id='1599'> +2.5561526E+03 </wgt>
<wgt id='1600'> +2.5609714E+03 </wgt>
<wgt id='1601'> +2.5510790E+03 </wgt>
<wgt id='1602'> +2.5617034E+03 </wgt>
<wgt id='1603'> +2.5484863E+03 </wgt>
<wgt id='1604'> +2.5583183E+03 </wgt>
<wgt id='1605'> +2.5390226E+03 </wgt>
<wgt id='1606'> +2.5502078E+03 </wgt>
<wgt id='1607'> +2.5451835E+03 </wgt>
<wgt id='1608'> +2.5461715E+03 </wgt>
<wgt id='1609'> +2.5519436E+03 </wgt>
<wgt id='1610'> +2.5619530E+03 </wgt>
<wgt id='1611'> +2.5566370E+03 </wgt>
<wgt id='1612'> +2.5527207E+03 </wgt>
<wgt id='1613'> +2.3814553E+03 </wgt>
<wgt id='1614'> +2.7626827E+03 </wgt>
<wgt id='1615'> +2.6041416E+03 </wgt>
<wgt id='1616'> +2.6103920E+03 </wgt>
<wgt id='1617'> +2.6527152E+03 </wgt>
<wgt id='1618'> +2.5818088E+03 </wgt>
<wgt id='1619'> +2.5177331E+03 </wgt>
<wgt id='1620'> +2.5197701E+03 </wgt>
<wgt id='1621'> +2.5321512E+03 </wgt>
<wgt id='1622'> +2.5964112E+03 </wgt>
<wgt id='1623'> +2.6116213E+03 </wgt>
<wgt id='1624'> +2.5638427E+03 </wgt>
<wgt id='1625'> +2.6285733E+03 </wgt>
<wgt id='1626'> +2.4545719E+03 </wgt>
<wgt id='1627'> +2.5908602E+03 </wgt>
<wgt id='1628'> +2.5725029E+03 </wgt>
<wgt id='1629'> +2.6537944E+03 </wgt>
<wgt id='1630'> +2.6431987E+03 </wgt>
<wgt id='1631'> +2.5931432E+03 </wgt>
<wgt id='1632'> +2.6723555E+03 </wgt>
<wgt id='1633'> +2.4771279E+03 </wgt>
<wgt id='1634'> +2.7104620E+03 </wgt>
<wgt id='1635'> +2.5935320E+03 </wgt>
<wgt id='1636'> +2.6592908E+03 </wgt>
<wgt id='1637'> +2.7323644E+03 </wgt>
<wgt id='1638'> +2.7527657E+03 </wgt>
<wgt id='1639'> +2.5152158E+03 </wgt>
<wgt id='1640'> +2.6012899E+03 </wgt>
<wgt id='1641'> +2.7093985E+03 </wgt>
<wgt id='1642'> +2.5335532E+03 </wgt>
<wgt id='1643'> +2.6274065E+03 </wgt>
<wgt id='1644'> +2.6969421E+03 </wgt>
<wgt id='1645'> +2.5886670E+03 </wgt>
<wgt id='1646'> +2.6952793E+03 </wgt>
<wgt id='1647'> +2.4813974E+03 </wgt>
<wgt id='1648'> +2.6055618E+03 </wgt>
<wgt id='1649'> +2.5676371E+03 </wgt>
<wgt id='1650'> +2.5812935E+03 </wgt>
<wgt id='1651'> +2.5830609E+03 </wgt>
<wgt id='1652'> +2.5361559E+03 </wgt>
<wgt id='1653'> +2.4866250E+03 </wgt>
<wgt id='1654'> +2.5779398E+03 </wgt>
<wgt id='1655'> +2.5965852E+03 </wgt>
<wgt id='1656'> +2.7453935E+03 </wgt>
<wgt id='1657'> +2.6220935E+03 </wgt>
<wgt id='1658'> +2.6806748E+03 </wgt>
<wgt id='1659'> +2.5959334E+03 </wgt>
<wgt id='1660'> +2.6303956E+03 </wgt>
<wgt id='1661'> +2.6517777E+03 </wgt>
<wgt id='1662'> +2.6318461E+03 </wgt>
<wgt id='1663'> +2.5791759E+03 </wgt>
<wgt id='1664'> +2.6358885E+03 </wgt>
<wgt id='1665'> +2.5862892E+03 </wgt>
<wgt id='1666'> +2.6059707E+03 </wgt>
<wgt id='1667'> +2.6542797E+03 </wgt>
<wgt id='1668'> +2.6264841E+03 </wgt>
<wgt id='1669'> +2.5924789E+03 </wgt>
<wgt id='1670'> +2.5461267E+03 </wgt>
<wgt id='1671'> +2.6615735E+03 </wgt>
<wgt id='1672'> +2.6136468E+03 </wgt>
<wgt id='1673'> +2.5271874E+03 </wgt>
<wgt id='1674'> +2.5696320E+03 </wgt>
<wgt id='1675'> +2.5960418E+03 </wgt>
<wgt id='1676'> +2.6245355E+03 </wgt>
<wgt id='1677'> +2.6177979E+03 </wgt>
<wgt id='1678'> +2.6270553E+03 </wgt>
<wgt id='1679'> +2.5814147E+03 </wgt>
<wgt id='1680'> +2.6023316E+03 </wgt>
<wgt id='1681'> +2.5601863E+03 </wgt>
<wgt id='1682'> +2.6051798E+03 </wgt>
<wgt id='1683'> +2.5869812E+03 </wgt>
<wgt id='1684'> +2.5960477E+03 </wgt>
<wgt id='1685'> +2.5987734E+03 </wgt>
<wgt id='1686'> +2.6572467E+03 </wgt>
<wgt id='1687'> +2.6093635E+03 </wgt>
<wgt id='1688'> +2.6023293E+03 </wgt>
<wgt id='1689'> +2.6153100E+03 </wgt>
<wgt id='1690'> +2.6116146E+03 </wgt>
<wgt id='1691'> +2.5962744E+03 </wgt>
<wgt id='1692'> +2.6101158E+03 </wgt>
<wgt id='1693'> +2.6169290E+03 </wgt>
<wgt id='1694'> +2.6245534E+03 </wgt>
<wgt id='1695'> +2.6036759E+03 </wgt>
<wgt id='1696'> +2.6171765E+03 </wgt>
<wgt id='1697'> +2.6117245E+03 </wgt>
<wgt id='1698'> +2.5906124E+03 </wgt>
<wgt id='1699'> +2.6219355E+03 </wgt>
<wgt id='1700'> +2.6066287E+03 </wgt>
<wgt id='1701'> +2.6220068E+03 </wgt>
<wgt id='1702'> +2.5924151E+03 </wgt>
<wgt id='1703'> +2.5988467E+03 </wgt>
<wgt id='1704'> +2.6011456E+03 </wgt>
<wgt id='1705'> +2.6098571E+03 </wgt>
<wgt id='1706'> +2.5977324E+03 </wgt>
<wgt id='1707'> +2.6029065E+03 </wgt>
<wgt id='1708'> +2.6032419E+03 </wgt>
<wgt id='1709'> +2.6055813E+03 </wgt>
<wgt id='1710'> +2.6087608E+03 </wgt>
<wgt id='1711'> +2.6196398E+03 </wgt>
<wgt id='1712'> +2.5977449E+03 </wgt>
<wgt id='1713'> +2.6211104E+03 </wgt>
<wgt id='1714'> +2.5823041E+03 </wgt>
<wgt id='1715'> +2.6141010E+03 </wgt>
<wgt id='1716'> +2.4311958E+03 </wgt>
<wgt id='1717'> +2.7720773E+03 </wgt>
<wgt id='1718'> +2.5525355E+03 </wgt>
<wgt id='1719'> +2.6248713E+03 </wgt>
<wgt id='1720'> +2.9455406E+03 </wgt>
<wgt id='1721'> +2.5762239E+03 </wgt>
<wgt id='1722'> +2.4053602E+03 </wgt>
<wgt id='1723'> +2.5493335E+03 </wgt>
<wgt id='1724'> +2.4394980E+03 </wgt>
<wgt id='1725'> +2.5452167E+03 </wgt>
<wgt id='1726'> +2.6078369E+03 </wgt>
<wgt id='1727'> +2.5241924E+03 </wgt>
<wgt id='1728'> +2.5897025E+03 </wgt>
<wgt id='1729'> +2.5801821E+03 </wgt>
<wgt id='1730'> +2.5855559E+03 </wgt>
<wgt id='1731'> +2.5786409E+03 </wgt>
<wgt id='1732'> +2.5208762E+03 </wgt>
<wgt id='1733'> +2.5120321E+03 </wgt>
<wgt id='1734'> +2.4956864E+03 </wgt>
<wgt id='1735'> +2.6061019E+03 </wgt>
<wgt id='1736'> +2.5878655E+03 </wgt>
<wgt id='1737'> +2.6244532E+03 </wgt>
<wgt id='1738'> +2.5214803E+03 </wgt>
<wgt id='1739'> +2.6656465E+03 </wgt>
<wgt id='1740'> +2.5436886E+03 </wgt>
<wgt id='1741'> +2.5406308E+03 </wgt>
<wgt id='1742'> +2.5938660E+03 </wgt>
<wgt id='1743'> +2.5545616E+03 </wgt>
<wgt id='1744'> +2.6491668E+03 </wgt>
<wgt id='1745'> +2.5689795E+03 </wgt>
<wgt id='1746'> +2.5605106E+03 </wgt>
<wgt id='1747'> +2.6262058E+03 </wgt>
<wgt id='1748'> +2.3308667E+03 </wgt>
<wgt id='1749'> +2.3814553E+03 </wgt>
<wgt id='1750'> +2.7626827E+03 </wgt>
<wgt id='1751'> +2.6044876E+03 </wgt>
<wgt id='1752'> +2.6885455E+03 </wgt>
<wgt id='1753'> +2.5647922E+03 </wgt>
<wgt id='1754'> +2.6094080E+03 </wgt>
<wgt id='1755'> +2.7729846E+03 </wgt>
<wgt id='1756'> +2.5838477E+03 </wgt>
<wgt id='1757'> +2.5904568E+03 </wgt>
<wgt id='1758'> +2.6039074E+03 </wgt>
<wgt id='1759'> +2.5602060E+03 </wgt>
<wgt id='1760'> +2.8285423E+03 </wgt>
<wgt id='1761'> +2.6018456E+03 </wgt>
<wgt id='1762'> +2.5107412E+03 </wgt>
<wgt id='1763'> +2.6312433E+03 </wgt>
<wgt id='1764'> +2.6061961E+03 </wgt>
<wgt id='1765'> +2.6958008E+03 </wgt>
<wgt id='1766'> +2.7024490E+03 </wgt>
<wgt id='1767'> +2.6041873E+03 </wgt>
<wgt id='1768'> +2.6211432E+03 </wgt>
<wgt id='1769'> +2.6129659E+03 </wgt>
<wgt id='1770'> +2.5259166E+03 </wgt>
<wgt id='1771'> +2.6004622E+03 </wgt>
<wgt id='1772'> +2.7696121E+03 </wgt>
<wgt id='1773'> +2.5003460E+03 </wgt>
<wgt id='1774'> +2.6146218E+03 </wgt>
<wgt id='1775'> +2.6682092E+03 </wgt>
<wgt id='1776'> +2.5988938E+03 </wgt>
<wgt id='1777'> +2.6403113E+03 </wgt>
<wgt id='1778'> +2.3244345E+03 </wgt>
<wgt id='1779'> +2.6004624E+03 </wgt>
<wgt id='1780'> +2.6359468E+03 </wgt>
<wgt id='1781'> +2.6046986E+03 </wgt>
<wgt id='1782'> +2.4311958E+03 </wgt>
<wgt id='1783'> +2.7720773E+03 </wgt>
<wgt id='1784'> +2.5531962E+03 </wgt>
<wgt id='1785'> +2.5618901E+03 </wgt>
<wgt id='1786'> +2.5445456E+03 </wgt>
<wgt id='1787'> +2.5425038E+03 </wgt>
<wgt id='1788'> +2.5638816E+03 </wgt>
<wgt id='1789'> +2.5596197E+03 </wgt>
<wgt id='1790'> +2.5467849E+03 </wgt>
<wgt id='1791'> +2.5248465E+03 </wgt>
<wgt id='1792'> +2.5812134E+03 </wgt>
<wgt id='1793'> +2.5696959E+03 </wgt>
<wgt id='1794'> +2.5367184E+03 </wgt>
<wgt id='1795'> +2.5678848E+03 </wgt>
<wgt id='1796'> +2.5388671E+03 </wgt>
<wgt id='1797'> +2.5663636E+03 </wgt>
<wgt id='1798'> +2.5399513E+03 </wgt>
<wgt id='1799'> +2.5613331E+03 </wgt>
<wgt id='1800'> +2.5440515E+03 </wgt>
<wgt id='1801'> +2.5502084E+03 </wgt>
<wgt id='1802'> +2.5556051E+03 </wgt>
<wgt id='1803'> +2.5853337E+03 </wgt>
<wgt id='1804'> +2.5216614E+03 </wgt>
<wgt id='1805'> +2.4610277E+03 </wgt>
<wgt id='1806'> +2.6489183E+03 </wgt>
<wgt id='1807'> +2.8569827E+03 </wgt>
<wgt id='1808'> +2.3008115E+03 </wgt>
<wgt id='1809'> +2.5515986E+03 </wgt>
<wgt id='1810'> +2.5576607E+03 </wgt>
<wgt id='1811'> +2.4981178E+03 </wgt>
<wgt id='1812'> +2.6148562E+03 </wgt>
<wgt id='1813'> +2.5531962E+03 </wgt>
<wgt id='1814'> +2.2399408E+03 </wgt>
<wgt id='1815'> +2.7620637E+03 </wgt>
<wgt id='1816'> +8.0062207E+02 </wgt>
<wgt id='1817'> +7.8419962E+02 </wgt>
<wgt id='1818'> +2.4279501E+03 </wgt>
<wgt id='1819'> +2.5299156E+03 </wgt>
<wgt id='1820'> +2.5503995E+03 </wgt>
<wgt id='1821'> +2.5404767E+03 </wgt>
<wgt id='1822'> +2.5575236E+03 </wgt>
<wgt id='1823'> +2.5318915E+03 </wgt>
<wgt id='1824'> +2.6491546E+03 </wgt>
<wgt id='1825'> +2.4649226E+03 </wgt>
<wgt id='1826'> +2.4281222E+03 </wgt>
<wgt id='1827'> +1.9241244E+03 </wgt>
<wgt id='1828'> +1.9262020E+03 </wgt>
<wgt id='1829'> +1.9188991E+03 </wgt>
<wgt id='1830'> +1.9161279E+03 </wgt>
<wgt id='1831'> +1.9289704E+03 </wgt>
<wgt id='1832'> +1.9251601E+03 </wgt>
<wgt id='1833'> +1.9199316E+03 </wgt>
<wgt id='1834'> +1.9080827E+03 </wgt>
<wgt id='1835'> +1.9367874E+03 </wgt>
<wgt id='1836'> +1.9258962E+03 </wgt>
<wgt id='1837'> +1.9192926E+03 </wgt>
<wgt id='1838'> +1.9252652E+03 </wgt>
<wgt id='1839'> +1.9199440E+03 </wgt>
<wgt id='1840'> +1.9222613E+03 </wgt>
<wgt id='1841'> +1.9227707E+03 </wgt>
<wgt id='1842'> +1.9273417E+03 </wgt>
<wgt id='1843'> +1.9157747E+03 </wgt>
<wgt id='1844'> +1.9127710E+03 </wgt>
<wgt id='1845'> +1.9323794E+03 </wgt>
<wgt id='1846'> +1.9299382E+03 </wgt>
<wgt id='1847'> +1.9155473E+03 </wgt>
<wgt id='1848'> +1.9778339E+03 </wgt>
<wgt id='1849'> +1.8685755E+03 </wgt>
<wgt id='1850'> +2.0085958E+03 </wgt>
<wgt id='1851'> +1.8519223E+03 </wgt>
<wgt id='1852'> +2.1776841E+03 </wgt>
<wgt id='1853'> +1.7414103E+03 </wgt>
<wgt id='1854'> +2.0888301E+03 </wgt>
<wgt id='1855'> +1.7902999E+03 </wgt>
<wgt id='1856'> +1.9196406E+03 </wgt>
<wgt id='1857'> +1.8151209E+03 </wgt>
<wgt id='1858'> +1.9810504E+03 </wgt>
<wgt id='1859'> +1.0647831E+03 </wgt>
<wgt id='1860'> +1.0403147E+03 </wgt>
<wgt id='1861'> +2.1435909E+03 </wgt>
<wgt id='1862'> +2.0567104E+03 </wgt>
<wgt id='1863'> +1.9181267E+03 </wgt>
<wgt id='1864'> +1.8538989E+03 </wgt>
<wgt id='1865'> +2.1293050E+03 </wgt>
<wgt id='1866'> +2.2321279E+03 </wgt>
<wgt id='1867'> +2.2042846E+03 </wgt>
<wgt id='1868'> +1.6681187E+03 </wgt>
<wgt id='1869'> +1.9632136E+03 </wgt>
<wgt id='1870'> +2.2419035E+03 </wgt>
<wgt id='1871'> +2.2408408E+03 </wgt>
<wgt id='1872'> +2.2397873E+03 </wgt>
<wgt id='1873'> +2.2387312E+03 </wgt>
<wgt id='1874'> +2.2376678E+03 </wgt>
<wgt id='1875'> +2.2366045E+03 </wgt>
<wgt id='1876'> +2.2355534E+03 </wgt>
<wgt id='1877'> +2.2344995E+03 </wgt>
<wgt id='1878'> +2.2334440E+03 </wgt>
<wgt id='1879'> +2.2323925E+03 </wgt>
<wgt id='1880'> +2.2313227E+03 </wgt>
<wgt id='1881'> +2.2302732E+03 </wgt>
<wgt id='1882'> +2.2292147E+03 </wgt>
<wgt id='1883'> +2.2281676E+03 </wgt>
<wgt id='1884'> +2.2271062E+03 </wgt>
<wgt id='1885'> +2.2260523E+03 </wgt>
<wgt id='1886'> +2.2249950E+03 </wgt>
<wgt id='1887'> +2.2239424E+03 </wgt>
<wgt id='1888'> +2.2228893E+03 </wgt>
<wgt id='1889'> +2.2218346E+03 </wgt>
<wgt id='1890'> +2.2207845E+03 </wgt>
<wgt id='1891'> +2.2197312E+03 </wgt>
<wgt id='1892'> +2.2186726E+03 </wgt>
<wgt id='1893'> +2.2176145E+03 </wgt>
<wgt id='1894'> +2.2165656E+03 </wgt>
<wgt id='1895'> +2.2155201E+03 </wgt>
<wgt id='1896'> +2.2144670E+03 </wgt>
<wgt id='1897'> +2.2134145E+03 </wgt>
<wgt id='1898'> +2.2123531E+03 </wgt>
<wgt id='1899'> +2.2113018E+03 </wgt>
<wgt id='1900'> +2.2102603E+03 </wgt>
<wgt id='1901'> +2.5927439E+03 </wgt>
<wgt id='1902'> +2.5984735E+03 </wgt>
<wgt id='1903'> +2.6414143E+03 </wgt>
<wgt id='1904'> +2.5701425E+03 </wgt>
<wgt id='1905'> +2.5064000E+03 </wgt>
<wgt id='1906'> +2.5084395E+03 </wgt>
<wgt id='1907'> +2.5211379E+03 </wgt>
<wgt id='1908'> +2.5855033E+03 </wgt>
<wgt id='1909'> +2.6002917E+03 </wgt>
<wgt id='1910'> +2.5523973E+03 </wgt>
<wgt id='1911'> +2.6167308E+03 </wgt>
<wgt id='1912'> +2.4440937E+03 </wgt>
<wgt id='1913'> +2.5796571E+03 </wgt>
<wgt id='1914'> +2.5609800E+03 </wgt>
<wgt id='1915'> +2.6424960E+03 </wgt>
<wgt id='1916'> +2.6315218E+03 </wgt>
<wgt id='1917'> +2.5822807E+03 </wgt>
<wgt id='1918'> +2.6604501E+03 </wgt>
<wgt id='1919'> +2.4660345E+03 </wgt>
<wgt id='1920'> +2.6990097E+03 </wgt>
<wgt id='1921'> +2.5822890E+03 </wgt>
<wgt id='1922'> +2.6477863E+03 </wgt>
<wgt id='1923'> +2.7203783E+03 </wgt>
<wgt id='1924'> +2.7410516E+03 </wgt>
<wgt id='1925'> +2.5039228E+03 </wgt>
<wgt id='1926'> +2.5897138E+03 </wgt>
<wgt id='1927'> +2.6974218E+03 </wgt>
<wgt id='1928'> +2.5226418E+03 </wgt>
<wgt id='1929'> +2.6159775E+03 </wgt>
<wgt id='1930'> +2.6850325E+03 </wgt>
<wgt id='1931'> +2.5771890E+03 </wgt>
<wgt id='1932'> +2.6838242E+03 </wgt>
<wgt id='1933'> +2.4702841E+03 </wgt>
<wgt id='1934'> +2.5939984E+03 </wgt>
<wgt id='1935'> +2.5563954E+03 </wgt>
<wgt id='1936'> +2.5698531E+03 </wgt>
<wgt id='1937'> +2.5717228E+03 </wgt>
<wgt id='1938'> +2.5247930E+03 </wgt>
<wgt id='1939'> +2.4754927E+03 </wgt>
<wgt id='1940'> +2.5665065E+03 </wgt>
<wgt id='1941'> +2.5852160E+03 </wgt>
<wgt id='1942'> +2.7336523E+03 </wgt>
<wgt id='1943'> +2.6107208E+03 </wgt>
<wgt id='1944'> +2.6691706E+03 </wgt>
<wgt id='1945'> +2.5844469E+03 </wgt>
<wgt id='1946'> +2.6189644E+03 </wgt>
<wgt id='1947'> +2.6403904E+03 </wgt>
<wgt id='1948'> +2.6203956E+03 </wgt>
<wgt id='1949'> +2.5678352E+03 </wgt>
<wgt id='1950'> +2.6244494E+03 </wgt>
<wgt id='1951'> +2.5749543E+03 </wgt>
<wgt id='1952'> +2.5944840E+03 </wgt>
<wgt id='1953'> +2.6427303E+03 </wgt>
<wgt id='1954'> +2.6148995E+03 </wgt>
<wgt id='1955'> +2.5810714E+03 </wgt>
<wgt id='1956'> +2.5348819E+03 </wgt>
<wgt id='1957'> +2.6498326E+03 </wgt>
<wgt id='1958'> +2.6023030E+03 </wgt>
<wgt id='1959'> +2.5160538E+03 </wgt>
<wgt id='1960'> +2.5583591E+03 </wgt>
<wgt id='1961'> +2.5846653E+03 </wgt>
<wgt id='1962'> +2.6131098E+03 </wgt>
<wgt id='1963'> +2.6062869E+03 </wgt>
<wgt id='1964'> +2.6155577E+03 </wgt>
<wgt id='1965'> +2.5701631E+03 </wgt>
<wgt id='1966'> +2.5908709E+03 </wgt>
<wgt id='1967'> +2.5488418E+03 </wgt>
<wgt id='1968'> +2.5936823E+03 </wgt>
<wgt id='1969'> +2.5756847E+03 </wgt>
<wgt id='1970'> +2.5846908E+03 </wgt>
<wgt id='1971'> +2.5874906E+03 </wgt>
<wgt id='1972'> +2.6456355E+03 </wgt>
<wgt id='1973'> +2.5979133E+03 </wgt>
<wgt id='1974'> +2.5909215E+03 </wgt>
<wgt id='1975'> +2.6038648E+03 </wgt>
<wgt id='1976'> +2.6002191E+03 </wgt>
<wgt id='1977'> +2.5849124E+03 </wgt>
<wgt id='1978'> +2.5987480E+03 </wgt>
<wgt id='1979'> +2.6054127E+03 </wgt>
<wgt id='1980'> +2.6130969E+03 </wgt>
<wgt id='1981'> +2.5923493E+03 </wgt>
<wgt id='1982'> +2.6057359E+03 </wgt>
<wgt id='1983'> +2.6002287E+03 </wgt>
<wgt id='1984'> +2.5793272E+03 </wgt>
<wgt id='1985'> +2.6104007E+03 </wgt>
<wgt id='1986'> +2.5951628E+03 </wgt>
<wgt id='1987'> +2.6105104E+03 </wgt>
<wgt id='1988'> +2.5810785E+03 </wgt>
<wgt id='1989'> +2.5873930E+03 </wgt>
<wgt id='1990'> +2.5897271E+03 </wgt>
<wgt id='1991'> +2.5983945E+03 </wgt>
<wgt id='1992'> +2.5863247E+03 </wgt>
<wgt id='1993'> +2.5914357E+03 </wgt>
<wgt id='1994'> +2.5918808E+03 </wgt>
<wgt id='1995'> +2.5941099E+03 </wgt>
<wgt id='1996'> +2.5973216E+03 </wgt>
<wgt id='1997'> +2.6081270E+03 </wgt>
<wgt id='1998'> +2.5864013E+03 </wgt>
<wgt id='1999'> +2.6095418E+03 </wgt>
<wgt id='2000'> +2.5710886E+03 </wgt>
<wgt id='2001'> +2.6026297E+03 </wgt>
<wgt id='2002'> +2.5927375E+03 </wgt>
<wgt id='2003'> +2.5927018E+03 </wgt>
<wgt id='2004'> +2.5927505E+03 </wgt>
<wgt id='2005'> +2.5927517E+03 </wgt>
<wgt id='2006'> +2.5927634E+03 </wgt>
<wgt id='2007'> +2.5927468E+03 </wgt>
<wgt id='2008'> +2.5927159E+03 </wgt>
<wgt id='2009'> +2.5949478E+03 </wgt>
<wgt id='2010'> +2.4588571E+03 </wgt>
<wgt id='2011'> +2.3982342E+03 </wgt>
<wgt id='2012'> +2.5900044E+03 </wgt>
<wgt id='2013'> +2.5665815E+03 </wgt>
<wgt id='2014'> +2.4343660E+03 </wgt>
<wgt id='2015'> +2.1889959E+03 </wgt>
<wgt id='2016'> +1.9994150E+03 </wgt>
<wgt id='2017'> +2.4986260E+03 </wgt>
<wgt id='2018'> +2.7312299E+03 </wgt>
<wgt id='2019'> +2.8530479E+03 </wgt>
<wgt id='2020'> +2.7348100E+03 </wgt>
<wgt id='2021'> +2.0176743E+03 </wgt>
<wgt id='2022'> +2.5540173E+03 </wgt>
<wgt id='2023'> +2.6677057E+03 </wgt>
<wgt id='2024'> +2.6075926E+03 </wgt>
<wgt id='2025'> +2.4634948E+03 </wgt>
<wgt id='2026'> +2.6195945E+03 </wgt>
<wgt id='2027'> +4.0219018E+03 </wgt>
<wgt id='2028'> +2.7217856E+03 </wgt>
<wgt id='2029'> +2.3966216E+03 </wgt>
<wgt id='2030'> +2.0933413E+03 </wgt>
<wgt id='2031'> +2.3322571E+03 </wgt>
<wgt id='2032'> +2.7567943E+03 </wgt>
<wgt id='2033'> +3.3538570E+03 </wgt>
<wgt id='2034'> +2.8805705E+03 </wgt>
<wgt id='2035'> +2.6765095E+03 </wgt>
<wgt id='2036'> +2.6838841E+03 </wgt>
<wgt id='2037'> +2.5109801E+03 </wgt>
<wgt id='2038'> +2.6320640E+03 </wgt>
<wgt id='2039'> +2.2886500E+03 </wgt>
<wgt id='2040'> +2.7009603E+03 </wgt>
<wgt id='2041'> +2.2439929E+03 </wgt>
<wgt id='2042'> +2.3676326E+03 </wgt>
<wgt id='2043'> +2.4704894E+03 </wgt>
<wgt id='2044'> +2.3924781E+03 </wgt>
<wgt id='2045'> +2.2611090E+03 </wgt>
<wgt id='2046'> +2.1309151E+03 </wgt>
<wgt id='2047'> +2.2034198E+03 </wgt>
<wgt id='2048'> +2.8960902E+03 </wgt>
<wgt id='2049'> +2.5426469E+03 </wgt>
<wgt id='2050'> +2.2884887E+03 </wgt>
<wgt id='2051'> +2.6128601E+03 </wgt>
<wgt id='2052'> +2.6488457E+03 </wgt>
<wgt id='2053'> +2.5842354E+03 </wgt>
<wgt id='2054'> +2.8017877E+03 </wgt>
<wgt id='2055'> +3.5325767E+03 </wgt>
<wgt id='2056'> +2.5086058E+03 </wgt>
<wgt id='2057'> +2.5519352E+03 </wgt>
<wgt id='2058'> +2.0272797E+03 </wgt>
<wgt id='2059'> +2.1817385E+03 </wgt>
<wgt id='2060'> +2.0113806E+03 </wgt>
<wgt id='2061'> +2.2784166E+03 </wgt>
<wgt id='2062'> +2.4688938E+03 </wgt>
<wgt id='2063'> +2.9799809E+03 </wgt>
<wgt id='2064'> +2.4868014E+03 </wgt>
<wgt id='2065'> +3.4347624E+03 </wgt>
<wgt id='2066'> +2.8229071E+03 </wgt>
<wgt id='2067'> +2.3289265E+03 </wgt>
<wgt id='2068'> +3.0021350E+03 </wgt>
<wgt id='2069'> +2.3647415E+03 </wgt>
<wgt id='2070'> +2.3794161E+03 </wgt>
<wgt id='2071'> +2.6234411E+03 </wgt>
<wgt id='2072'> +2.6656960E+03 </wgt>
<wgt id='2073'> +4.3465930E+03 </wgt>
<wgt id='2074'> +2.9732550E+03 </wgt>
<wgt id='2075'> +2.6220620E+03 </wgt>
<wgt id='2076'> +2.6511031E+03 </wgt>
<wgt id='2077'> +2.5074552E+03 </wgt>
<wgt id='2078'> +2.5042864E+03 </wgt>
<wgt id='2079'> +2.2157492E+03 </wgt>
<wgt id='2080'> +2.3900871E+03 </wgt>
<wgt id='2081'> +2.3039673E+03 </wgt>
<wgt id='2082'> +2.5126302E+03 </wgt>
<wgt id='2083'> +2.7505025E+03 </wgt>
<wgt id='2084'> +2.8956653E+03 </wgt>
<wgt id='2085'> +2.0162544E+03 </wgt>
<wgt id='2086'> +2.6277467E+03 </wgt>
<wgt id='2087'> +2.3800046E+03 </wgt>
<wgt id='2088'> +2.1722854E+03 </wgt>
<wgt id='2089'> +2.8320533E+03 </wgt>
<wgt id='2090'> +2.7589212E+03 </wgt>
<wgt id='2091'> +2.3985355E+03 </wgt>
<wgt id='2092'> +2.9947612E+03 </wgt>
<wgt id='2093'> +2.4820817E+03 </wgt>
<wgt id='2094'> +2.8572096E+03 </wgt>
<wgt id='2095'> +2.9826140E+03 </wgt>
<wgt id='2096'> +2.4178604E+03 </wgt>
<wgt id='2097'> +2.5691703E+03 </wgt>
<wgt id='2098'> +3.0780106E+03 </wgt>
<wgt id='2099'> +2.2606960E+03 </wgt>
<wgt id='2100'> +2.5730359E+03 </wgt>
<wgt id='2101'> +2.2874266E+03 </wgt>
<wgt id='2102'> +2.5608771E+03 </wgt>
<wgt id='2103'> +2.8397115E+03 </wgt>
<wgt id='2104'> +2.7347538E+03 </wgt>
<wgt id='2105'> +2.0963670E+03 </wgt>
<wgt id='2106'> +3.0860516E+03 </wgt>
<wgt id='2107'> +2.4596635E+03 </wgt>
<wgt id='2108'> +2.8131086E+03 </wgt>
<wgt id='2109'> +2.9417503E+03 </wgt>
<wgt id='2110'> +2.4376173E+03 </wgt>
<wgt id='2111'> +2.7090779E+03 </wgt>
<wgt id='2112'> +2.6993970E+03 </wgt>
<wgt id='2113'> +9.7412730E+02 </wgt>
<wgt id='2114'> +1.6221088E+03 </wgt>
<wgt id='2115'> +2.3265904E+03 </wgt>
<wgt id='2116'> +3.4943429E+03 </wgt>
</rwgt>
</event>
<event>
 5      0 +2.9771057E+03 7.76012000e+01 7.54677100e-03 1.20952900e-01
        2 -1    0    0  501    0 +0.0000000000e+00 +0.0000000000e+00 +2.5457699188e+02 2.5457699188e+02 0.0000000000e+00 0.0000e+00 -1.0000e+00
       -1 -1    0    0    0  501 -0.0000000000e+00 -0.0000000000e+00 -5.9136793449e+00 5.9136793449e+00 0.0000000000e+00 0.0000e+00 1.0000e+00
       24  2    1    2    0    0 +0.0000000000e+00 +0.0000000000e+00 +2.4866331253e+02 2.6049067122e+02 7.7601203562e+01 0.0000e+00 0.0000e+00
      -11  1    3    3    0    0 +3.6400839537e+01 -8.6832758335e+00 +1.5873934001e+02 1.6309076756e+02 0.0000000000e+00 0.0000e+00 1.0000e+00
       12  1    3    3    0    0 -3.6400839537e+01 +8.6832758335e+00 +8.9923972526e+01 9.7399903661e+01 0.0000000000e+00 0.0000e+00 -1.0000e+00
<scales pt_clust_4="13000.00000" pt_clust_5="13000.00000"></scales>
<mgrwt>
<rscale>  0 0.77601204E+02</rscale>
<asrwt>0</asrwt>
<pdfrwt beam="1">  1        2 0.39165682E-01 0.77601204E+02</pdfrwt>
<pdfrwt beam="2">  1       -1 0.90979702E-03 0.77601204E+02</pdfrwt>
<totfact> 0.27517453E+05</totfact>
</mgrwt>
<clustering>
<clus scale="   77.601">  4  5 -1 -1</clus>
<clus scale="   77.601">  1  4  2 -1</clus>
</clustering>
<rwgt>
<wgt id='1001'> +2.9771057E+03 </wgt>
<wgt id='1002'> +2.9576127E+03 </wgt>
<wgt id='1003'> +2.9576127E+03 </wgt>
<wgt id='1004'> +2.5709673E+03 </wgt>
<wgt id='1005'> +2.9771057E+03 </wgt>
<wgt id='1006'> +2.9771057E+03 </wgt>
<wgt id='1007'> +2.9576127E+03 </wgt>
<wgt id='1008'> +2.9576127E+03 </wgt>
<wgt id='1009'> +2.5709673E+03 </wgt>
<wgt id='1010'> +2.9771057E+03 </wgt>
<wgt id='1011'> +2.9771057E+03 </wgt>
<wgt id='1012'> +2.9576127E+03 </wgt>
<wgt id='1013'> +2.9576127E+03 </wgt>
<wgt id='1014'> +2.5709673E+03 </wgt>
<wgt id='1015'> +2.9771057E+03 </wgt>
<wgt id='1016'> +3.3363698E+03 </wgt>
<wgt id='1017'> +3.3182622E+03 </wgt>
<wgt id='1018'> +3.3182622E+03 </wgt>
<wgt id='1019'> +2.9576127E+03 </wgt>
<wgt id='1020'> +3.3363698E+03 </wgt>
<wgt id='1021'> +3.3363698E+03 </wgt>
<wgt id='1022'> +3.3182622E+03 </wgt>
<wgt id='1023'> +3.3182622E+03 </wgt>
<wgt id='1024'> +2.9576127E+03 </wgt>
<wgt id='1025'> +3.3363698E+03 </wgt>
<wgt id='1026'> +3.3363698E+03 </wgt>
<wgt id='1027'> +3.3182622E+03 </wgt>
<wgt id='1028'> +3.3182622E+03 </wgt>
<wgt id='1029'> +2.9576127E+03 </wgt>
<wgt id='1030'> +3.3363698E+03 </wgt>
<wgt id='1031'> +2.5917835E+03 </wgt>
<wgt id='1032'> +2.5709673E+03 </wgt>
<wgt id='1033'> +2.5709673E+03 </wgt>
<wgt id='1034'> +2.1591537E+03 </wgt>
<wgt id='1035'> +2.5917835E+03 </wgt>
<wgt id='1036'> +2.5917835E+03 </wgt>
<wgt id='1037'> +2.5709673E+03 </wgt>
<wgt id='1038'> +2.5709673E+03 </wgt>
<wgt id='1039'> +2.1591537E+03 </wgt>
<wgt id='1040'> +2.5917835E+03 </wgt>
<wgt id='1041'> +2.5917835E+03 </wgt>
<wgt id='1042'> +2.5709673E+03 </wgt>
<wgt id='1043'> +2.5709673E+03 </wgt>
<wgt id='1044'> +2.1591537E+03 </wgt>
<wgt id='1045'> +2.5917835E+03 </wgt>
<wgt id='1046'> +2.9771057E+03 </wgt>
<wgt id='1047'> +2.9747598E+03 </wgt>
<wgt id='1048'> +2.9766611E+03 </wgt>
<wgt id='1049'> +2.9757828E+03 </wgt>
<wgt id='1050'> +2.9903961E+03 </wgt>
<wgt id='1051'> +2.9765296E+03 </wgt>
<wgt id='1052'> +2.9686290E+03 </wgt>
<wgt id='1053'> +2.9782749E+03 </wgt>
<wgt id='1054'> +2.9679805E+03 </wgt>
<wgt id='1055'> +2.9820559E+03 </wgt>
<wgt id='1056'> +2.9628212E+03 </wgt>
<wgt id='1057'> +2.9651726E+03 </wgt>
<wgt id='1058'> +2.9859773E+03 </wgt>
<wgt id='1059'> +2.9702838E+03 </wgt>
<wgt id='1060'> +2.9744338E+03 </wgt>
<wgt id='1061'> +2.9925702E+03 </wgt>
<wgt id='1062'> +2.9884965E+03 </wgt>
<wgt id='1063'> +2.9652410E+03 </wgt>
<wgt id='1064'> +2.9720585E+03 </wgt>
<wgt id='1065'> +2.9679039E+03 </wgt>
<wgt id='1066'> +2.9729292E+03 </wgt>
<wgt id='1067'> +2.9894164E+03 </wgt>
<wgt id='1068'> +2.9791174E+03 </wgt>
<wgt id='1069'> +2.9691048E+03 </wgt>
<wgt id='1070'> +2.9979352E+03 </wgt>
<wgt id='1071'> +2.9805386E+03 </wgt>
<wgt id='1072'> +2.9636286E+03 </wgt>
<wgt id='1073'> +2.9758915E+03 </wgt>
<wgt id='1074'> +2.9770060E+03 </wgt>
<wgt id='1075'> +2.9630404E+03 </wgt>
<wgt id='1076'> +2.9911945E+03 </wgt>
<wgt id='1077'> +2.9800977E+03 </wgt>
<wgt id='1078'> +2.9720752E+03 </wgt>
<wgt id='1079'> +2.9739932E+03 </wgt>
<wgt id='1080'> +2.9779205E+03 </wgt>
<wgt id='1081'> +2.9763782E+03 </wgt>
<wgt id='1082'> +2.9757034E+03 </wgt>
<wgt id='1083'> +2.9734601E+03 </wgt>
<wgt id='1084'> +2.9779494E+03 </wgt>
<wgt id='1085'> +2.9756427E+03 </wgt>
<wgt id='1086'> +2.9752152E+03 </wgt>
<wgt id='1087'> +2.9747034E+03 </wgt>
<wgt id='1088'> +2.9770830E+03 </wgt>
<wgt id='1089'> +2.9806694E+03 </wgt>
<wgt id='1090'> +2.9745582E+03 </wgt>
<wgt id='1091'> +2.9769790E+03 </wgt>
<wgt id='1092'> +2.9800298E+03 </wgt>
<wgt id='1093'> +2.9806969E+03 </wgt>
<wgt id='1094'> +2.9776833E+03 </wgt>
<wgt id='1095'> +2.9696396E+03 </wgt>
<wgt id='1096'> +2.9728683E+03 </wgt>
<wgt id='1097'> +2.9775559E+03 </wgt>
<wgt id='1098'> +2.9760018E+03 </wgt>
<wgt id='1099'> +2.9787366E+03 </wgt>
<wgt id='1100'> +2.9773246E+03 </wgt>
<wgt id='1101'> +2.9797996E+03 </wgt>
<wgt id='1102'> +2.9762723E+03 </wgt>
<wgt id='1103'> +2.9793646E+03 </wgt>
<wgt id='1104'> +2.9820949E+03 </wgt>
<wgt id='1105'> +2.9733536E+03 </wgt>
<wgt id='1106'> +2.9778927E+03 </wgt>
<wgt id='1107'> +2.9790900E+03 </wgt>
<wgt id='1108'> +2.9752883E+03 </wgt>
<wgt id='1109'> +2.9764231E+03 </wgt>
<wgt id='1110'> +2.9774011E+03 </wgt>
<wgt id='1111'> +2.9766359E+03 </wgt>
<wgt id='1112'> +2.9763632E+03 </wgt>
<wgt id='1113'> +2.9767494E+03 </wgt>
<wgt id='1114'> +2.9777319E+03 </wgt>
<wgt id='1115'> +2.9799513E+03 </wgt>
<wgt id='1116'> +2.9755544E+03 </wgt>
<wgt id='1117'> +2.9768534E+03 </wgt>
<wgt id='1118'> +2.9780480E+03 </wgt>
<wgt id='1119'> +2.9831272E+03 </wgt>
<wgt id='1120'> +2.9763500E+03 </wgt>
<wgt id='1121'> +2.9790918E+03 </wgt>
<wgt id='1122'> +2.9776892E+03 </wgt>
<wgt id='1123'> +2.9755875E+03 </wgt>
<wgt id='1124'> +2.9783487E+03 </wgt>
<wgt id='1125'> +2.9779834E+03 </wgt>
<wgt id='1126'> +2.9755374E+03 </wgt>
<wgt id='1127'> +2.9787910E+03 </wgt>
<wgt id='1128'> +2.9776405E+03 </wgt>
<wgt id='1129'> +2.9780257E+03 </wgt>
<wgt id='1130'> +2.9768496E+03 </wgt>
<wgt id='1131'> +2.9765132E+03 </wgt>
<wgt id='1132'> +2.9769510E+03 </wgt>
<wgt id='1133'> +2.9754353E+03 </wgt>
<wgt id='1134'> +2.9780395E+03 </wgt>
<wgt id='1135'> +2.9759950E+03 </wgt>
<wgt id='1136'> +2.9736501E+03 </wgt>
<wgt id='1137'> +2.9769158E+03 </wgt>
<wgt id='1138'> +2.9786559E+03 </wgt>
<wgt id='1139'> +2.9776785E+03 </wgt>
<wgt id='1140'> +2.9760686E+03 </wgt>
<wgt id='1141'> +2.9765071E+03 </wgt>
<wgt id='1142'> +2.9770145E+03 </wgt>
<wgt id='1143'> +2.9781885E+03 </wgt>
<wgt id='1144'> +2.9770986E+03 </wgt>
<wgt id='1145'> +2.9781096E+03 </wgt>
<wgt id='1146'> +2.9791530E+03 </wgt>
<wgt id='1147'> +2.9529553E+03 </wgt>
<wgt id='1148'> +3.0015686E+03 </wgt>
<wgt id='1149'> +2.8872071E+03 </wgt>
<wgt id='1150'> +2.8991452E+03 </wgt>
<wgt id='1151'> +2.9093781E+03 </wgt>
<wgt id='1152'> +2.9333041E+03 </wgt>
<wgt id='1153'> +2.9787651E+03 </wgt>
<wgt id='1154'> +2.9891817E+03 </wgt>
<wgt id='1155'> +3.0294748E+03 </wgt>
<wgt id='1156'> +3.0393291E+03 </wgt>
<wgt id='1157'> +2.9232521E+03 </wgt>
<wgt id='1158'> +2.9242205E+03 </wgt>
<wgt id='1159'> +2.9296233E+03 </wgt>
<wgt id='1160'> +2.9174529E+03 </wgt>
<wgt id='1161'> +2.9381054E+03 </wgt>
<wgt id='1162'> +2.9239236E+03 </wgt>
<wgt id='1163'> +2.9122156E+03 </wgt>
<wgt id='1164'> +2.9287684E+03 </wgt>
<wgt id='1165'> +2.9320246E+03 </wgt>
<wgt id='1166'> +2.9286317E+03 </wgt>
<wgt id='1167'> +2.9103810E+03 </wgt>
<wgt id='1168'> +2.9191300E+03 </wgt>
<wgt id='1169'> +2.9266942E+03 </wgt>
<wgt id='1170'> +2.9354073E+03 </wgt>
<wgt id='1171'> +2.9217022E+03 </wgt>
<wgt id='1172'> +2.9156164E+03 </wgt>
<wgt id='1173'> +2.9408580E+03 </wgt>
<wgt id='1174'> +2.9159649E+03 </wgt>
<wgt id='1175'> +2.9318280E+03 </wgt>
<wgt id='1176'> +2.9259328E+03 </wgt>
<wgt id='1177'> +2.9174766E+03 </wgt>
<wgt id='1178'> +2.9332617E+03 </wgt>
<wgt id='1179'> +2.9210536E+03 </wgt>
<wgt id='1180'> +2.9126802E+03 </wgt>
<wgt id='1181'> +2.9416732E+03 </wgt>
<wgt id='1182'> +2.9162003E+03 </wgt>
<wgt id='1183'> +2.9251690E+03 </wgt>
<wgt id='1184'> +2.9214286E+03 </wgt>
<wgt id='1185'> +2.9217971E+03 </wgt>
<wgt id='1186'> +2.9445952E+03 </wgt>
<wgt id='1187'> +2.9223149E+03 </wgt>
<wgt id='1188'> +2.9111174E+03 </wgt>
<wgt id='1189'> +2.9286317E+03 </wgt>
<wgt id='1190'> +2.9204488E+03 </wgt>
<wgt id='1191'> +2.9256509E+03 </wgt>
<wgt id='1192'> +2.9273381E+03 </wgt>
<wgt id='1193'> +2.9251857E+03 </wgt>
<wgt id='1194'> +2.9193247E+03 </wgt>
<wgt id='1195'> +2.9238065E+03 </wgt>
<wgt id='1196'> +2.9215339E+03 </wgt>
<wgt id='1197'> +2.9226967E+03 </wgt>
<wgt id='1198'> +2.9206636E+03 </wgt>
<wgt id='1199'> +2.9222722E+03 </wgt>
<wgt id='1200'> +2.9214434E+03 </wgt>
<wgt id='1201'> +2.9229740E+03 </wgt>
<wgt id='1202'> +2.9241324E+03 </wgt>
<wgt id='1203'> +2.9218121E+03 </wgt>
<wgt id='1204'> +2.9215113E+03 </wgt>
<wgt id='1205'> +2.9279870E+03 </wgt>
<wgt id='1206'> +2.9293615E+03 </wgt>
<wgt id='1207'> +2.9205606E+03 </wgt>
<wgt id='1208'> +2.9198250E+03 </wgt>
<wgt id='1209'> +2.9230893E+03 </wgt>
<wgt id='1210'> +2.9193697E+03 </wgt>
<wgt id='1211'> +2.9252251E+03 </wgt>
<wgt id='1212'> +2.9253401E+03 </wgt>
<wgt id='1213'> +2.9272063E+03 </wgt>
<wgt id='1214'> +2.9207087E+03 </wgt>
<wgt id='1215'> +2.9182048E+03 </wgt>
<wgt id='1216'> +2.9225978E+03 </wgt>
<wgt id='1217'> +2.9263014E+03 </wgt>
<wgt id='1218'> +2.9237084E+03 </wgt>
<wgt id='1219'> +2.9224499E+03 </wgt>
<wgt id='1220'> +2.9245204E+03 </wgt>
<wgt id='1221'> +2.9246073E+03 </wgt>
<wgt id='1222'> +2.9257400E+03 </wgt>
<wgt id='1223'> +2.9205048E+03 </wgt>
<wgt id='1224'> +2.9211017E+03 </wgt>
<wgt id='1225'> +2.9244851E+03 </wgt>
<wgt id='1226'> +2.9201768E+03 </wgt>
<wgt id='1227'> +2.9236608E+03 </wgt>
<wgt id='1228'> +2.9246670E+03 </wgt>
<wgt id='1229'> +2.9275752E+03 </wgt>
<wgt id='1230'> +2.9221811E+03 </wgt>
<wgt id='1231'> +2.9232296E+03 </wgt>
<wgt id='1232'> +2.9192652E+03 </wgt>
<wgt id='1233'> +2.9222043E+03 </wgt>
<wgt id='1234'> +2.9249024E+03 </wgt>
<wgt id='1235'> +2.9234688E+03 </wgt>
<wgt id='1236'> +2.9216987E+03 </wgt>
<wgt id='1237'> +2.9245181E+03 </wgt>
<wgt id='1238'> +2.9256898E+03 </wgt>
<wgt id='1239'> +2.9241532E+03 </wgt>
<wgt id='1240'> +2.9259154E+03 </wgt>
<wgt id='1241'> +2.9227455E+03 </wgt>
<wgt id='1242'> +2.9245634E+03 </wgt>
<wgt id='1243'> +2.9220490E+03 </wgt>
<wgt id='1244'> +2.9233615E+03 </wgt>
<wgt id='1245'> +2.9215379E+03 </wgt>
<wgt id='1246'> +2.9218934E+03 </wgt>
<wgt id='1247'> +2.9233141E+03 </wgt>
<wgt id='1248'> +2.9234755E+03 </wgt>
<wgt id='1249'> +2.9232815E+03 </wgt>
<wgt id='1250'> +2.9244386E+03 </wgt>
<wgt id='1251'> +2.9241479E+03 </wgt>
<wgt id='1252'> +2.9249670E+03 </wgt>
<wgt id='1253'> +2.9234833E+03 </wgt>
<wgt id='1254'> +2.9246929E+03 </wgt>
<wgt id='1255'> +2.9214117E+03 </wgt>
<wgt id='1256'> +2.9253530E+03 </wgt>
<wgt id='1257'> +2.9212072E+03 </wgt>
<wgt id='1258'> +2.9004724E+03 </wgt>
<wgt id='1259'> +2.9506169E+03 </wgt>
<wgt id='1260'> +2.8993283E+03 </wgt>
<wgt id='1261'> +2.8716463E+03 </wgt>
<wgt id='1262'> +2.8774475E+03 </wgt>
<wgt id='1263'> +2.9173646E+03 </wgt>
<wgt id='1264'> +2.8972836E+03 </wgt>
<wgt id='1265'> +2.9144347E+03 </wgt>
<wgt id='1266'> +2.9237270E+03 </wgt>
<wgt id='1267'> +2.8980147E+03 </wgt>
<wgt id='1268'> +2.8673195E+03 </wgt>
<wgt id='1269'> +2.9535430E+03 </wgt>
<wgt id='1270'> +2.8685002E+03 </wgt>
<wgt id='1271'> +2.8935976E+03 </wgt>
<wgt id='1272'> +2.8777418E+03 </wgt>
<wgt id='1273'> +2.8760843E+03 </wgt>
<wgt id='1274'> +2.8631400E+03 </wgt>
<wgt id='1275'> +2.9139637E+03 </wgt>
<wgt id='1276'> +2.8426863E+03 </wgt>
<wgt id='1277'> +2.9224339E+03 </wgt>
<wgt id='1278'> +2.8770497E+03 </wgt>
<wgt id='1279'> +2.9329173E+03 </wgt>
<wgt id='1280'> +2.8817058E+03 </wgt>
<wgt id='1281'> +2.8972543E+03 </wgt>
<wgt id='1282'> +2.9000957E+03 </wgt>
<wgt id='1283'> +2.8739418E+03 </wgt>
<wgt id='1284'> +2.9273190E+03 </wgt>
<wgt id='1285'> +2.8657998E+03 </wgt>
<wgt id='1286'> +2.9286289E+03 </wgt>
<wgt id='1287'> +2.8571893E+03 </wgt>
<wgt id='1288'> +2.9628439E+03 </wgt>
<wgt id='1289'> +2.8563871E+03 </wgt>
<wgt id='1290'> +2.9252841E+03 </wgt>
<wgt id='1291'> +2.9003006E+03 </wgt>
<wgt id='1292'> +2.8948035E+03 </wgt>
<wgt id='1293'> +2.9678454E+03 </wgt>
<wgt id='1294'> +2.8342616E+03 </wgt>
<wgt id='1295'> +2.8690382E+03 </wgt>
<wgt id='1296'> +2.9277602E+03 </wgt>
<wgt id='1297'> +2.9647607E+03 </wgt>
<wgt id='1298'> +2.8268393E+03 </wgt>
<wgt id='1299'> +2.9411222E+03 </wgt>
<wgt id='1300'> +2.8464634E+03 </wgt>
<wgt id='1301'> +2.8926945E+03 </wgt>
<wgt id='1302'> +2.9111866E+03 </wgt>
<wgt id='1303'> +2.9070494E+03 </wgt>
<wgt id='1304'> +2.8576920E+03 </wgt>
<wgt id='1305'> +2.9046742E+03 </wgt>
<wgt id='1306'> +2.9358579E+03 </wgt>
<wgt id='1307'> +2.8924875E+03 </wgt>
<wgt id='1308'> +2.9444102E+03 </wgt>
<wgt id='1309'> +2.8951608E+03 </wgt>
<wgt id='1310'> +2.9661577E+03 </wgt>
<wgt id='1311'> +2.8930587E+03 </wgt>
<wgt id='1312'> +2.9295623E+03 </wgt>
<wgt id='1313'> +2.8908127E+03 </wgt>
<wgt id='1314'> +2.8946676E+03 </wgt>
<wgt id='1315'> +2.8425576E+03 </wgt>
<wgt id='1316'> +2.9796883E+03 </wgt>
<wgt id='1317'> +2.8626018E+03 </wgt>
<wgt id='1318'> +2.9362799E+03 </wgt>
<wgt id='1319'> +2.7774447E+03 </wgt>
<wgt id='1320'> +2.8040025E+03 </wgt>
<wgt id='1321'> +2.7539211E+03 </wgt>
<wgt id='1322'> +2.8181825E+03 </wgt>
<wgt id='1323'> +2.7940204E+03 </wgt>
<wgt id='1324'> +2.8402069E+03 </wgt>
<wgt id='1325'> +2.7674539E+03 </wgt>
<wgt id='1326'> +2.7714898E+03 </wgt>
<wgt id='1327'> +2.8285319E+03 </wgt>
<wgt id='1328'> +2.7641294E+03 </wgt>
<wgt id='1329'> +2.7873497E+03 </wgt>
<wgt id='1330'> +2.7589987E+03 </wgt>
<wgt id='1331'> +2.8035673E+03 </wgt>
<wgt id='1332'> +2.7061473E+03 </wgt>
<wgt id='1333'> +2.8046995E+03 </wgt>
<wgt id='1334'> +2.7964998E+03 </wgt>
<wgt id='1335'> +2.7375696E+03 </wgt>
<wgt id='1336'> +2.8445188E+03 </wgt>
<wgt id='1337'> +2.7028638E+03 </wgt>
<wgt id='1338'> +2.7987422E+03 </wgt>
<wgt id='1339'> +2.7529730E+03 </wgt>
<wgt id='1340'> +2.7886269E+03 </wgt>
<wgt id='1341'> +2.7557423E+03 </wgt>
<wgt id='1342'> +2.8282246E+03 </wgt>
<wgt id='1343'> +2.7251022E+03 </wgt>
<wgt id='1344'> +2.7778689E+03 </wgt>
<wgt id='1345'> +2.7828143E+03 </wgt>
<wgt id='1346'> +2.7915521E+03 </wgt>
<wgt id='1347'> +2.7583385E+03 </wgt>
<wgt id='1348'> +2.7189955E+03 </wgt>
<wgt id='1349'> +2.7972981E+03 </wgt>
<wgt id='1350'> +2.7592712E+03 </wgt>
<wgt id='1351'> +2.8007555E+03 </wgt>
<wgt id='1352'> +2.7653842E+03 </wgt>
<wgt id='1353'> +2.8017920E+03 </wgt>
<wgt id='1354'> +2.8275534E+03 </wgt>
<wgt id='1355'> +2.7319831E+03 </wgt>
<wgt id='1356'> +2.7835711E+03 </wgt>
<wgt id='1357'> +2.7545310E+03 </wgt>
<wgt id='1358'> +2.7666214E+03 </wgt>
<wgt id='1359'> +2.7681548E+03 </wgt>
<wgt id='1360'> +2.7749053E+03 </wgt>
<wgt id='1361'> +2.7854199E+03 </wgt>
<wgt id='1362'> +2.7708400E+03 </wgt>
<wgt id='1363'> +2.7736760E+03 </wgt>
<wgt id='1364'> +2.7647705E+03 </wgt>
<wgt id='1365'> +2.7693818E+03 </wgt>
<wgt id='1366'> +2.7423457E+03 </wgt>
<wgt id='1367'> +2.8010791E+03 </wgt>
<wgt id='1368'> +2.7788670E+03 </wgt>
<wgt id='1369'> +2.7824970E+03 </wgt>
<wgt id='1370'> +2.7527701E+03 </wgt>
<wgt id='1371'> +2.7578792E+03 </wgt>
<wgt id='1372'> +2.7474773E+03 </wgt>
<wgt id='1373'> +2.7451260E+03 </wgt>
<wgt id='1374'> +2.7229852E+03 </wgt>
<wgt id='1375'> +2.8446945E+03 </wgt>
<wgt id='1376'> +2.7417223E+03 </wgt>
<wgt id='1377'> +2.8090956E+03 </wgt>
<wgt id='1378'> +2.4433545E+03 </wgt>
<wgt id='1379'> +2.7757567E+03 </wgt>
<wgt id='1380'> +2.7813106E+03 </wgt>
<wgt id='1381'> +2.7698287E+03 </wgt>
<wgt id='1382'> +2.7655538E+03 </wgt>
<wgt id='1383'> +2.7827202E+03 </wgt>
<wgt id='1384'> +2.7636767E+03 </wgt>
<wgt id='1385'> +2.7870376E+03 </wgt>
<wgt id='1386'> +2.7706845E+03 </wgt>
<wgt id='1387'> +2.7814362E+03 </wgt>
<wgt id='1388'> +2.7756828E+03 </wgt>
<wgt id='1389'> +2.7758098E+03 </wgt>
<wgt id='1390'> +2.7784577E+03 </wgt>
<wgt id='1391'> +2.7698590E+03 </wgt>
<wgt id='1392'> +2.7698009E+03 </wgt>
<wgt id='1393'> +2.7864272E+03 </wgt>
<wgt id='1394'> +2.7763924E+03 </wgt>
<wgt id='1395'> +2.7753487E+03 </wgt>
<wgt id='1396'> +2.7844574E+03 </wgt>
<wgt id='1397'> +2.7656390E+03 </wgt>
<wgt id='1398'> +2.7848796E+03 </wgt>
<wgt id='1399'> +2.7677549E+03 </wgt>
<wgt id='1400'> +2.7736120E+03 </wgt>
<wgt id='1401'> +2.7790300E+03 </wgt>
<wgt id='1402'> +2.8034905E+03 </wgt>
<wgt id='1403'> +2.7576411E+03 </wgt>
<wgt id='1404'> +2.7818394E+03 </wgt>
<wgt id='1405'> +2.7552685E+03 </wgt>
<wgt id='1406'> +2.7929790E+03 </wgt>
<wgt id='1407'> +2.7706601E+03 </wgt>
<wgt id='1408'> +2.7924914E+03 </wgt>
<wgt id='1409'> +2.7552469E+03 </wgt>
<wgt id='1410'> +2.7873940E+03 </wgt>
<wgt id='1411'> +2.7615038E+03 </wgt>
<wgt id='1412'> +2.7679657E+03 </wgt>
<wgt id='1413'> +2.7838050E+03 </wgt>
<wgt id='1414'> +2.7636133E+03 </wgt>
<wgt id='1415'> +2.8137357E+03 </wgt>
<wgt id='1416'> +2.7687918E+03 </wgt>
<wgt id='1417'> +2.7852320E+03 </wgt>
<wgt id='1418'> +2.7779799E+03 </wgt>
<wgt id='1419'> +2.7727487E+03 </wgt>
<wgt id='1420'> +2.7353072E+03 </wgt>
<wgt id='1421'> +2.7988372E+03 </wgt>
<wgt id='1422'> +2.7999513E+03 </wgt>
<wgt id='1423'> +2.7557424E+03 </wgt>
<wgt id='1424'> +2.7647622E+03 </wgt>
<wgt id='1425'> +2.8022950E+03 </wgt>
<wgt id='1426'> +2.7786828E+03 </wgt>
<wgt id='1427'> +2.7702597E+03 </wgt>
<wgt id='1428'> +2.7718407E+03 </wgt>
<wgt id='1429'> +2.7762993E+03 </wgt>
<wgt id='1430'> +2.9631647E+03 </wgt>
<wgt id='1431'> +2.9672975E+03 </wgt>
<wgt id='1432'> +2.9577237E+03 </wgt>
<wgt id='1433'> +2.9661348E+03 </wgt>
<wgt id='1434'> +2.9601728E+03 </wgt>
<wgt id='1435'> +2.9477688E+03 </wgt>
<wgt id='1436'> +2.9694182E+03 </wgt>
<wgt id='1437'> +2.9450499E+03 </wgt>
<wgt id='1438'> +2.9811330E+03 </wgt>
<wgt id='1439'> +2.9609185E+03 </wgt>
<wgt id='1440'> +2.9654021E+03 </wgt>
<wgt id='1441'> +2.9561176E+03 </wgt>
<wgt id='1442'> +2.9662499E+03 </wgt>
<wgt id='1443'> +2.9610997E+03 </wgt>
<wgt id='1444'> +2.9656606E+03 </wgt>
<wgt id='1445'> +2.9548599E+03 </wgt>
<wgt id='1446'> +2.9722214E+03 </wgt>
<wgt id='1447'> +2.9624547E+03 </wgt>
<wgt id='1448'> +2.9630167E+03 </wgt>
<wgt id='1449'> +2.9611300E+03 </wgt>
<wgt id='1450'> +2.9655905E+03 </wgt>
<wgt id='1451'> +2.9728782E+03 </wgt>
<wgt id='1452'> +2.9561879E+03 </wgt>
<wgt id='1453'> +2.9524035E+03 </wgt>
<wgt id='1454'> +2.9696999E+03 </wgt>
<wgt id='1455'> +2.9496631E+03 </wgt>
<wgt id='1456'> +2.9959291E+03 </wgt>
<wgt id='1457'> +2.9789207E+03 </wgt>
<wgt id='1458'> +2.9599845E+03 </wgt>
<wgt id='1459'> +2.9520200E+03 </wgt>
<wgt id='1460'> +2.9863050E+03 </wgt>
<wgt id='1461'> +2.9641647E+03 </wgt>
<wgt id='1462'> +2.9631787E+03 </wgt>
<wgt id='1463'> +2.9548269E+03 </wgt>
<wgt id='1464'> +2.9837009E+03 </wgt>
<wgt id='1465'> +3.0099615E+03 </wgt>
<wgt id='1466'> +2.9454125E+03 </wgt>
<wgt id='1467'> +2.9625724E+03 </wgt>
<wgt id='1468'> +2.9695960E+03 </wgt>
<wgt id='1469'> +2.9672740E+03 </wgt>
<wgt id='1470'> +2.9593185E+03 </wgt>
<wgt id='1471'> +2.9833240E+03 </wgt>
<wgt id='1472'> +2.9146576E+03 </wgt>
<wgt id='1473'> +2.9678950E+03 </wgt>
<wgt id='1474'> +2.9302354E+03 </wgt>
<wgt id='1475'> +2.9488358E+03 </wgt>
<wgt id='1476'> +2.9793190E+03 </wgt>
<wgt id='1477'> +2.9851486E+03 </wgt>
<wgt id='1478'> +2.9544854E+03 </wgt>
<wgt id='1479'> +2.9711377E+03 </wgt>
<wgt id='1480'> +2.9614855E+03 </wgt>
<wgt id='1481'> +2.4791658E+03 </wgt>
<wgt id='1482'> +2.8437118E+03 </wgt>
<wgt id='1483'> +2.8432326E+03 </wgt>
<wgt id='1484'> +2.8429421E+03 </wgt>
<wgt id='1485'> +2.8447775E+03 </wgt>
<wgt id='1486'> +2.8437817E+03 </wgt>
<wgt id='1487'> +2.8470163E+03 </wgt>
<wgt id='1488'> +2.8322669E+03 </wgt>
<wgt id='1489'> +2.8445601E+03 </wgt>
<wgt id='1490'> +2.8388379E+03 </wgt>
<wgt id='1491'> +2.8378528E+03 </wgt>
<wgt id='1492'> +2.8527092E+03 </wgt>
<wgt id='1493'> +2.8418861E+03 </wgt>
<wgt id='1494'> +2.8412417E+03 </wgt>
<wgt id='1495'> +2.8467714E+03 </wgt>
<wgt id='1496'> +2.8396756E+03 </wgt>
<wgt id='1497'> +2.8471518E+03 </wgt>
<wgt id='1498'> +2.8437169E+03 </wgt>
<wgt id='1499'> +2.8433152E+03 </wgt>
<wgt id='1500'> +2.8471178E+03 </wgt>
<wgt id='1501'> +2.8449376E+03 </wgt>
<wgt id='1502'> +2.8334335E+03 </wgt>
<wgt id='1503'> +2.8396067E+03 </wgt>
<wgt id='1504'> +2.8382964E+03 </wgt>
<wgt id='1505'> +2.8484291E+03 </wgt>
<wgt id='1506'> +2.8494347E+03 </wgt>
<wgt id='1507'> +2.8528933E+03 </wgt>
<wgt id='1508'> +2.8411368E+03 </wgt>
<wgt id='1509'> +2.8462275E+03 </wgt>
<wgt id='1510'> +2.8360926E+03 </wgt>
<wgt id='1511'> +2.8266201E+03 </wgt>
<wgt id='1512'> +2.7650306E+03 </wgt>
<wgt id='1513'> +2.7611241E+03 </wgt>
<wgt id='1514'> +2.7539496E+03 </wgt>
<wgt id='1515'> +2.7954065E+03 </wgt>
<wgt id='1516'> +2.7592301E+03 </wgt>
<wgt id='1517'> +2.7675013E+03 </wgt>
<wgt id='1518'> +2.7460357E+03 </wgt>
<wgt id='1519'> +2.7739306E+03 </wgt>
<wgt id='1520'> +2.7891058E+03 </wgt>
<wgt id='1521'> +2.7768962E+03 </wgt>
<wgt id='1522'> +2.7744272E+03 </wgt>
<wgt id='1523'> +2.7482546E+03 </wgt>
<wgt id='1524'> +2.7481217E+03 </wgt>
<wgt id='1525'> +2.7433920E+03 </wgt>
<wgt id='1526'> +2.7637671E+03 </wgt>
<wgt id='1527'> +2.7517460E+03 </wgt>
<wgt id='1528'> +2.7591394E+03 </wgt>
<wgt id='1529'> +2.7618396E+03 </wgt>
<wgt id='1530'> +2.7919967E+03 </wgt>
<wgt id='1531'> +2.7547582E+03 </wgt>
<wgt id='1532'> +2.7811890E+03 </wgt>
<wgt id='1533'> +2.7617888E+03 </wgt>
<wgt id='1534'> +2.7630698E+03 </wgt>
<wgt id='1535'> +2.7729804E+03 </wgt>
<wgt id='1536'> +2.7604595E+03 </wgt>
<wgt id='1537'> +2.7681836E+03 </wgt>
<wgt id='1538'> +2.7589095E+03 </wgt>
<wgt id='1539'> +2.7637467E+03 </wgt>
<wgt id='1540'> +2.7626881E+03 </wgt>
<wgt id='1541'> +2.7601492E+03 </wgt>
<wgt id='1542'> +2.7546570E+03 </wgt>
<wgt id='1543'> +2.7687190E+03 </wgt>
<wgt id='1544'> +2.7589110E+03 </wgt>
<wgt id='1545'> +2.7456002E+03 </wgt>
<wgt id='1546'> +2.7678628E+03 </wgt>
<wgt id='1547'> +2.7674674E+03 </wgt>
<wgt id='1548'> +2.7639683E+03 </wgt>
<wgt id='1549'> +2.7591499E+03 </wgt>
<wgt id='1550'> +2.7689840E+03 </wgt>
<wgt id='1551'> +2.7713199E+03 </wgt>
<wgt id='1552'> +2.7667902E+03 </wgt>
<wgt id='1553'> +2.7692884E+03 </wgt>
<wgt id='1554'> +2.7650114E+03 </wgt>
<wgt id='1555'> +2.7645100E+03 </wgt>
<wgt id='1556'> +2.7693707E+03 </wgt>
<wgt id='1557'> +2.7659921E+03 </wgt>
<wgt id='1558'> +2.7648830E+03 </wgt>
<wgt id='1559'> +2.7564691E+03 </wgt>
<wgt id='1560'> +2.7655528E+03 </wgt>
<wgt id='1561'> +2.7649561E+03 </wgt>
<wgt id='1562'> +2.7664097E+03 </wgt>
<wgt id='1563'> +2.7642745E+03 </wgt>
<wgt id='1564'> +2.7686725E+03 </wgt>
<wgt id='1565'> +2.7679002E+03 </wgt>
<wgt id='1566'> +2.7643036E+03 </wgt>
<wgt id='1567'> +2.7679954E+03 </wgt>
<wgt id='1568'> +2.7658543E+03 </wgt>
<wgt id='1569'> +2.7655089E+03 </wgt>
<wgt id='1570'> +2.7688624E+03 </wgt>
<wgt id='1571'> +2.7649565E+03 </wgt>
<wgt id='1572'> +2.7619846E+03 </wgt>
<wgt id='1573'> +2.7670898E+03 </wgt>
<wgt id='1574'> +2.7650735E+03 </wgt>
<wgt id='1575'> +2.7646182E+03 </wgt>
<wgt id='1576'> +2.7671394E+03 </wgt>
<wgt id='1577'> +2.7647335E+03 </wgt>
<wgt id='1578'> +2.7655031E+03 </wgt>
<wgt id='1579'> +2.7661612E+03 </wgt>
<wgt id='1580'> +2.7659652E+03 </wgt>
<wgt id='1581'> +2.7655311E+03 </wgt>
<wgt id='1582'> +2.7613088E+03 </wgt>
<wgt id='1583'> +2.7644760E+03 </wgt>
<wgt id='1584'> +2.7666451E+03 </wgt>
<wgt id='1585'> +2.7649067E+03 </wgt>
<wgt id='1586'> +2.7643508E+03 </wgt>
<wgt id='1587'> +2.7630424E+03 </wgt>
<wgt id='1588'> +2.7661490E+03 </wgt>
<wgt id='1589'> +2.7656479E+03 </wgt>
<wgt id='1590'> +2.7649041E+03 </wgt>
<wgt id='1591'> +2.7654604E+03 </wgt>
<wgt id='1592'> +2.7652625E+03 </wgt>
<wgt id='1593'> +2.7665605E+03 </wgt>
<wgt id='1594'> +2.7649159E+03 </wgt>
<wgt id='1595'> +2.7643351E+03 </wgt>
<wgt id='1596'> +2.7657677E+03 </wgt>
<wgt id='1597'> +2.7639596E+03 </wgt>
<wgt id='1598'> +2.7654060E+03 </wgt>
<wgt id='1599'> +2.7648453E+03 </wgt>
<wgt id='1600'> +2.7654792E+03 </wgt>
<wgt id='1601'> +2.7641832E+03 </wgt>
<wgt id='1602'> +2.7655582E+03 </wgt>
<wgt id='1603'> +2.7645808E+03 </wgt>
<wgt id='1604'> +2.7641074E+03 </wgt>
<wgt id='1605'> +2.7651396E+03 </wgt>
<wgt id='1606'> +2.7646581E+03 </wgt>
<wgt id='1607'> +2.7658991E+03 </wgt>
<wgt id='1608'> +2.7638653E+03 </wgt>
<wgt id='1609'> +2.7653976E+03 </wgt>
<wgt id='1610'> +2.7653070E+03 </wgt>
<wgt id='1611'> +2.7643200E+03 </wgt>
<wgt id='1612'> +2.7652407E+03 </wgt>
<wgt id='1613'> +2.7362696E+03 </wgt>
<wgt id='1614'> +2.7953566E+03 </wgt>
<wgt id='1615'> +2.9130245E+03 </wgt>
<wgt id='1616'> +2.9319271E+03 </wgt>
<wgt id='1617'> +2.9074175E+03 </wgt>
<wgt id='1618'> +2.9187779E+03 </wgt>
<wgt id='1619'> +2.9287118E+03 </wgt>
<wgt id='1620'> +2.9369714E+03 </wgt>
<wgt id='1621'> +2.9269089E+03 </wgt>
<wgt id='1622'> +2.9196620E+03 </wgt>
<wgt id='1623'> +2.9149358E+03 </wgt>
<wgt id='1624'> +2.8950204E+03 </wgt>
<wgt id='1625'> +2.9243768E+03 </wgt>
<wgt id='1626'> +2.9228968E+03 </wgt>
<wgt id='1627'> +2.9014223E+03 </wgt>
<wgt id='1628'> +2.9119737E+03 </wgt>
<wgt id='1629'> +2.8900678E+03 </wgt>
<wgt id='1630'> +2.9680050E+03 </wgt>
<wgt id='1631'> +2.8954323E+03 </wgt>
<wgt id='1632'> +2.9178302E+03 </wgt>
<wgt id='1633'> +2.9194544E+03 </wgt>
<wgt id='1634'> +2.8836586E+03 </wgt>
<wgt id='1635'> +2.9212380E+03 </wgt>
<wgt id='1636'> +2.9176591E+03 </wgt>
<wgt id='1637'> +2.8989137E+03 </wgt>
<wgt id='1638'> +2.9171106E+03 </wgt>
<wgt id='1639'> +2.9092012E+03 </wgt>
<wgt id='1640'> +2.9170562E+03 </wgt>
<wgt id='1641'> +2.9084227E+03 </wgt>
<wgt id='1642'> +2.9086443E+03 </wgt>
<wgt id='1643'> +2.9149395E+03 </wgt>
<wgt id='1644'> +2.9207163E+03 </wgt>
<wgt id='1645'> +2.9223174E+03 </wgt>
<wgt id='1646'> +2.9172801E+03 </wgt>
<wgt id='1647'> +2.9239700E+03 </wgt>
<wgt id='1648'> +2.9367090E+03 </wgt>
<wgt id='1649'> +2.9215126E+03 </wgt>
<wgt id='1650'> +2.9145149E+03 </wgt>
<wgt id='1651'> +2.9115169E+03 </wgt>
<wgt id='1652'> +2.9054042E+03 </wgt>
<wgt id='1653'> +2.9106631E+03 </wgt>
<wgt id='1654'> +2.9174353E+03 </wgt>
<wgt id='1655'> +2.9133025E+03 </wgt>
<wgt id='1656'> +2.9175718E+03 </wgt>
<wgt id='1657'> +2.9136094E+03 </wgt>
<wgt id='1658'> +2.9107565E+03 </wgt>
<wgt id='1659'> +2.9098647E+03 </wgt>
<wgt id='1660'> +2.9084929E+03 </wgt>
<wgt id='1661'> +2.9071346E+03 </wgt>
<wgt id='1662'> +2.9103567E+03 </wgt>
<wgt id='1663'> +2.9152501E+03 </wgt>
<wgt id='1664'> +2.9143047E+03 </wgt>
<wgt id='1665'> +2.9136882E+03 </wgt>
<wgt id='1666'> +2.9097159E+03 </wgt>
<wgt id='1667'> +2.9085646E+03 </wgt>
<wgt id='1668'> +2.9167941E+03 </wgt>
<wgt id='1669'> +2.9102826E+03 </wgt>
<wgt id='1670'> +2.9158475E+03 </wgt>
<wgt id='1671'> +2.9176448E+03 </wgt>
<wgt id='1672'> +2.9125879E+03 </wgt>
<wgt id='1673'> +2.9141127E+03 </wgt>
<wgt id='1674'> +2.9101622E+03 </wgt>
<wgt id='1675'> +2.9113982E+03 </wgt>
<wgt id='1676'> +2.9147391E+03 </wgt>
<wgt id='1677'> +2.9143290E+03 </wgt>
<wgt id='1678'> +2.9134035E+03 </wgt>
<wgt id='1679'> +2.9144845E+03 </wgt>
<wgt id='1680'> +2.9141595E+03 </wgt>
<wgt id='1681'> +2.9121389E+03 </wgt>
<wgt id='1682'> +2.9137936E+03 </wgt>
<wgt id='1683'> +2.9153075E+03 </wgt>
<wgt id='1684'> +2.9123227E+03 </wgt>
<wgt id='1685'> +2.9125976E+03 </wgt>
<wgt id='1686'> +2.9148893E+03 </wgt>
<wgt id='1687'> +2.9131091E+03 </wgt>
<wgt id='1688'> +2.9124678E+03 </wgt>
<wgt id='1689'> +2.9139801E+03 </wgt>
<wgt id='1690'> +2.9145106E+03 </wgt>
<wgt id='1691'> +2.9127525E+03 </wgt>
<wgt id='1692'> +2.9118721E+03 </wgt>
<wgt id='1693'> +2.9125283E+03 </wgt>
<wgt id='1694'> +2.9114100E+03 </wgt>
<wgt id='1695'> +2.9145441E+03 </wgt>
<wgt id='1696'> +2.9116320E+03 </wgt>
<wgt id='1697'> +2.9131870E+03 </wgt>
<wgt id='1698'> +2.9113618E+03 </wgt>
<wgt id='1699'> +2.9122293E+03 </wgt>
<wgt id='1700'> +2.9126320E+03 </wgt>
<wgt id='1701'> +2.9127063E+03 </wgt>
<wgt id='1702'> +2.9125659E+03 </wgt>
<wgt id='1703'> +2.9118580E+03 </wgt>
<wgt id='1704'> +2.9123495E+03 </wgt>
<wgt id='1705'> +2.9125554E+03 </wgt>
<wgt id='1706'> +2.9140842E+03 </wgt>
<wgt id='1707'> +2.9132389E+03 </wgt>
<wgt id='1708'> +2.9130561E+03 </wgt>
<wgt id='1709'> +2.9130647E+03 </wgt>
<wgt id='1710'> +2.9136157E+03 </wgt>
<wgt id='1711'> +2.9132678E+03 </wgt>
<wgt id='1712'> +2.9134876E+03 </wgt>
<wgt id='1713'> +2.9127225E+03 </wgt>
<wgt id='1714'> +2.9127776E+03 </wgt>
<wgt id='1715'> +2.9132347E+03 </wgt>
<wgt id='1716'> +2.8700696E+03 </wgt>
<wgt id='1717'> +2.9367546E+03 </wgt>
<wgt id='1718'> +2.7649698E+03 </wgt>
<wgt id='1719'> +2.7723084E+03 </wgt>
<wgt id='1720'> +2.7508026E+03 </wgt>
<wgt id='1721'> +2.7658241E+03 </wgt>
<wgt id='1722'> +2.8084475E+03 </wgt>
<wgt id='1723'> +2.7846289E+03 </wgt>
<wgt id='1724'> +2.7822370E+03 </wgt>
<wgt id='1725'> +2.7652075E+03 </wgt>
<wgt id='1726'> +2.7712025E+03 </wgt>
<wgt id='1727'> +2.7842753E+03 </wgt>
<wgt id='1728'> +2.7682669E+03 </wgt>
<wgt id='1729'> +2.7482607E+03 </wgt>
<wgt id='1730'> +2.7659690E+03 </wgt>
<wgt id='1731'> +2.7657690E+03 </wgt>
<wgt id='1732'> +2.7291322E+03 </wgt>
<wgt id='1733'> +2.7681189E+03 </wgt>
<wgt id='1734'> +2.7650512E+03 </wgt>
<wgt id='1735'> +2.7511022E+03 </wgt>
<wgt id='1736'> +2.7647564E+03 </wgt>
<wgt id='1737'> +2.7683911E+03 </wgt>
<wgt id='1738'> +2.7643096E+03 </wgt>
<wgt id='1739'> +2.7654196E+03 </wgt>
<wgt id='1740'> +2.7622889E+03 </wgt>
<wgt id='1741'> +2.7636812E+03 </wgt>
<wgt id='1742'> +2.7596028E+03 </wgt>
<wgt id='1743'> +2.7691864E+03 </wgt>
<wgt id='1744'> +2.7625012E+03 </wgt>
<wgt id='1745'> +2.7715545E+03 </wgt>
<wgt id='1746'> +2.7678117E+03 </wgt>
<wgt id='1747'> +2.7795614E+03 </wgt>
<wgt id='1748'> +2.7637519E+03 </wgt>
<wgt id='1749'> +2.7362696E+03 </wgt>
<wgt id='1750'> +2.7953566E+03 </wgt>
<wgt id='1751'> +2.9129566E+03 </wgt>
<wgt id='1752'> +2.9327109E+03 </wgt>
<wgt id='1753'> +2.9769339E+03 </wgt>
<wgt id='1754'> +2.9116741E+03 </wgt>
<wgt id='1755'> +2.8817578E+03 </wgt>
<wgt id='1756'> +2.9010852E+03 </wgt>
<wgt id='1757'> +2.9133975E+03 </wgt>
<wgt id='1758'> +2.9099971E+03 </wgt>
<wgt id='1759'> +2.9200898E+03 </wgt>
<wgt id='1760'> +2.9028533E+03 </wgt>
<wgt id='1761'> +2.9292704E+03 </wgt>
<wgt id='1762'> +2.8993134E+03 </wgt>
<wgt id='1763'> +2.9110293E+03 </wgt>
<wgt id='1764'> +2.9080073E+03 </wgt>
<wgt id='1765'> +2.9103396E+03 </wgt>
<wgt id='1766'> +2.9175438E+03 </wgt>
<wgt id='1767'> +2.9151082E+03 </wgt>
<wgt id='1768'> +2.9056642E+03 </wgt>
<wgt id='1769'> +2.9134579E+03 </wgt>
<wgt id='1770'> +2.9192633E+03 </wgt>
<wgt id='1771'> +2.8708198E+03 </wgt>
<wgt id='1772'> +2.9099561E+03 </wgt>
<wgt id='1773'> +2.9209468E+03 </wgt>
<wgt id='1774'> +2.9112729E+03 </wgt>
<wgt id='1775'> +2.9123221E+03 </wgt>
<wgt id='1776'> +2.9069704E+03 </wgt>
<wgt id='1777'> +2.9138417E+03 </wgt>
<wgt id='1778'> +2.9125157E+03 </wgt>
<wgt id='1779'> +2.9107325E+03 </wgt>
<wgt id='1780'> +2.9106424E+03 </wgt>
<wgt id='1781'> +2.9141795E+03 </wgt>
<wgt id='1782'> +2.8700696E+03 </wgt>
<wgt id='1783'> +2.9367546E+03 </wgt>
<wgt id='1784'> +3.1913336E+03 </wgt>
<wgt id='1785'> +3.1975029E+03 </wgt>
<wgt id='1786'> +3.1852079E+03 </wgt>
<wgt id='1787'> +3.1922722E+03 </wgt>
<wgt id='1788'> +3.1903822E+03 </wgt>
<wgt id='1789'> +3.1935062E+03 </wgt>
<wgt id='1790'> +3.1891336E+03 </wgt>
<wgt id='1791'> +3.1785192E+03 </wgt>
<wgt id='1792'> +3.2037627E+03 </wgt>
<wgt id='1793'> +3.2034531E+03 </wgt>
<wgt id='1794'> +3.1791667E+03 </wgt>
<wgt id='1795'> +3.1981388E+03 </wgt>
<wgt id='1796'> +3.1825119E+03 </wgt>
<wgt id='1797'> +3.1851184E+03 </wgt>
<wgt id='1798'> +3.1972846E+03 </wgt>
<wgt id='1799'> +3.1868407E+03 </wgt>
<wgt id='1800'> +3.2012593E+03 </wgt>
<wgt id='1801'> +3.1843930E+03 </wgt>
<wgt id='1802'> +3.1923127E+03 </wgt>
<wgt id='1803'> +3.1890784E+03 </wgt>
<wgt id='1804'> +3.1956880E+03 </wgt>
<wgt id='1805'> +3.2030460E+03 </wgt>
<wgt id='1806'> +3.1761154E+03 </wgt>
<wgt id='1807'> +3.1749971E+03 </wgt>
<wgt id='1808'> +3.1955664E+03 </wgt>
<wgt id='1809'> +3.2061716E+03 </wgt>
<wgt id='1810'> +3.1811174E+03 </wgt>
<wgt id='1811'> +3.1744334E+03 </wgt>
<wgt id='1812'> +3.2047487E+03 </wgt>
<wgt id='1813'> +3.1913336E+03 </wgt>
<wgt id='1814'> +3.2289456E+03 </wgt>
<wgt id='1815'> +3.1458328E+03 </wgt>
<wgt id='1816'> +3.2372505E+03 </wgt>
<wgt id='1817'> +3.1651959E+03 </wgt>
<wgt id='1818'> +3.2097412E+03 </wgt>
<wgt id='1819'> +3.1787426E+03 </wgt>
<wgt id='1820'> +3.1852603E+03 </wgt>
<wgt id='1821'> +3.1975902E+03 </wgt>
<wgt id='1822'> +3.1617333E+03 </wgt>
<wgt id='1823'> +3.2215620E+03 </wgt>
<wgt id='1824'> +3.1890709E+03 </wgt>
<wgt id='1825'> +3.2236829E+03 </wgt>
<wgt id='1826'> +3.1044524E+03 </wgt>
<wgt id='1827'> +3.2716555E+03 </wgt>
<wgt id='1828'> +3.2787831E+03 </wgt>
<wgt id='1829'> +3.2656610E+03 </wgt>
<wgt id='1830'> +3.2724371E+03 </wgt>
<wgt id='1831'> +3.2719608E+03 </wgt>
<wgt id='1832'> +3.2754503E+03 </wgt>
<wgt id='1833'> +3.2689407E+03 </wgt>
<wgt id='1834'> +3.2582144E+03 </wgt>
<wgt id='1835'> +3.2855404E+03 </wgt>
<wgt id='1836'> +3.2822440E+03 </wgt>
<wgt id='1837'> +3.2617628E+03 </wgt>
<wgt id='1838'> +3.2728675E+03 </wgt>
<wgt id='1839'> +3.2714687E+03 </wgt>
<wgt id='1840'> +3.2621232E+03 </wgt>
<wgt id='1841'> +3.2825365E+03 </wgt>
<wgt id='1842'> +3.2725499E+03 </wgt>
<wgt id='1843'> +3.2799289E+03 </wgt>
<wgt id='1844'> +3.2710143E+03 </wgt>
<wgt id='1845'> +3.2726133E+03 </wgt>
<wgt id='1846'> +3.2772056E+03 </wgt>
<wgt id='1847'> +3.2668294E+03 </wgt>
<wgt id='1848'> +3.2468909E+03 </wgt>
<wgt id='1849'> +3.2935725E+03 </wgt>
<wgt id='1850'> +3.2745560E+03 </wgt>
<wgt id='1851'> +3.2704848E+03 </wgt>
<wgt id='1852'> +3.2614176E+03 </wgt>
<wgt id='1853'> +3.2761685E+03 </wgt>
<wgt id='1854'> +3.2648202E+03 </wgt>
<wgt id='1855'> +3.2766045E+03 </wgt>
<wgt id='1856'> +3.2716555E+03 </wgt>
<wgt id='1857'> +3.3126032E+03 </wgt>
<wgt id='1858'> +3.2164348E+03 </wgt>
<wgt id='1859'> +3.3209209E+03 </wgt>
<wgt id='1860'> +3.2429255E+03 </wgt>
<wgt id='1861'> +3.2725306E+03 </wgt>
<wgt id='1862'> +3.2546358E+03 </wgt>
<wgt id='1863'> +3.2658049E+03 </wgt>
<wgt id='1864'> +3.2841503E+03 </wgt>
<wgt id='1865'> +3.2163601E+03 </wgt>
<wgt id='1866'> +3.2971564E+03 </wgt>
<wgt id='1867'> +3.2357775E+03 </wgt>
<wgt id='1868'> +3.3270006E+03 </wgt>
<wgt id='1869'> +3.2141129E+03 </wgt>
<wgt id='1870'> +2.7572459E+03 </wgt>
<wgt id='1871'> +2.7564134E+03 </wgt>
<wgt id='1872'> +2.7555797E+03 </wgt>
<wgt id='1873'> +2.7547296E+03 </wgt>
<wgt id='1874'> +2.7539123E+03 </wgt>
<wgt id='1875'> +2.7530791E+03 </wgt>
<wgt id='1876'> +2.7522458E+03 </wgt>
<wgt id='1877'> +2.7514133E+03 </wgt>
<wgt id='1878'> +2.7505803E+03 </wgt>
<wgt id='1879'> +2.7497469E+03 </wgt>
<wgt id='1880'> +2.7489135E+03 </wgt>
<wgt id='1881'> +2.7480812E+03 </wgt>
<wgt id='1882'> +2.7472495E+03 </wgt>
<wgt id='1883'> +2.7464163E+03 </wgt>
<wgt id='1884'> +2.7456023E+03 </wgt>
<wgt id='1885'> +2.7447531E+03 </wgt>
<wgt id='1886'> +2.7439205E+03 </wgt>
<wgt id='1887'> +2.7431061E+03 </wgt>
<wgt id='1888'> +2.7422735E+03 </wgt>
<wgt id='1889'> +2.7414251E+03 </wgt>
<wgt id='1890'> +2.7405937E+03 </wgt>
<wgt id='1891'> +2.7397797E+03 </wgt>
<wgt id='1892'> +2.7389483E+03 </wgt>
<wgt id='1893'> +2.7381012E+03 </wgt>
<wgt id='1894'> +2.7372865E+03 </wgt>
<wgt id='1895'> +2.7364554E+03 </wgt>
<wgt id='1896'> +2.7356249E+03 </wgt>
<wgt id='1897'> +2.7347782E+03 </wgt>
<wgt id='1898'> +2.7339644E+03 </wgt>
<wgt id='1899'> +2.7331340E+03 </wgt>
<wgt id='1900'> +2.7323031E+03 </wgt>
<wgt id='1901'> +2.9023650E+03 </wgt>
<wgt id='1902'> +2.9206256E+03 </wgt>
<wgt id='1903'> +2.8966774E+03 </wgt>
<wgt id='1904'> +2.9080744E+03 </wgt>
<wgt id='1905'> +2.9178605E+03 </wgt>
<wgt id='1906'> +2.9262180E+03 </wgt>
<wgt id='1907'> +2.9166110E+03 </wgt>
<wgt id='1908'> +2.9093697E+03 </wgt>
<wgt id='1909'> +2.9042779E+03 </wgt>
<wgt id='1910'> +2.8844250E+03 </wgt>
<wgt id='1911'> +2.9135653E+03 </wgt>
<wgt id='1912'> +2.9128138E+03 </wgt>
<wgt id='1913'> +2.8911425E+03 </wgt>
<wgt id='1914'> +2.9015255E+03 </wgt>
<wgt id='1915'> +2.8794253E+03 </wgt>
<wgt id='1916'> +2.9565433E+03 </wgt>
<wgt id='1917'> +2.8854193E+03 </wgt>
<wgt id='1918'> +2.9069355E+03 </wgt>
<wgt id='1919'> +2.9086212E+03 </wgt>
<wgt id='1920'> +2.8734587E+03 </wgt>
<wgt id='1921'> +2.9109515E+03 </wgt>
<wgt id='1922'> +2.9067474E+03 </wgt>
<wgt id='1923'> +2.8882091E+03 </wgt>
<wgt id='1924'> +2.9066361E+03 </wgt>
<wgt id='1925'> +2.8983539E+03 </wgt>
<wgt id='1926'> +2.9059671E+03 </wgt>
<wgt id='1927'> +2.8973749E+03 </wgt>
<wgt id='1928'> +2.8984369E+03 </wgt>
<wgt id='1929'> +2.9044404E+03 </wgt>
<wgt id='1930'> +2.9097956E+03 </wgt>
<wgt id='1931'> +2.9113874E+03 </wgt>
<wgt id='1932'> +2.9070522E+03 </wgt>
<wgt id='1933'> +2.9130981E+03 </wgt>
<wgt id='1934'> +2.9258065E+03 </wgt>
<wgt id='1935'> +2.9108191E+03 </wgt>
<wgt id='1936'> +2.9036978E+03 </wgt>
<wgt id='1937'> +2.9009142E+03 </wgt>
<wgt id='1938'> +2.8948135E+03 </wgt>
<wgt id='1939'> +2.8999707E+03 </wgt>
<wgt id='1940'> +2.9065676E+03 </wgt>
<wgt id='1941'> +2.9026376E+03 </wgt>
<wgt id='1942'> +2.9068146E+03 </wgt>
<wgt id='1943'> +2.9029026E+03 </wgt>
<wgt id='1944'> +2.9002993E+03 </wgt>
<wgt id='1945'> +2.8992127E+03 </wgt>
<wgt id='1946'> +2.8978061E+03 </wgt>
<wgt id='1947'> +2.8966312E+03 </wgt>
<wgt id='1948'> +2.8996320E+03 </wgt>
<wgt id='1949'> +2.9047049E+03 </wgt>
<wgt id='1950'> +2.9035765E+03 </wgt>
<wgt id='1951'> +2.9030759E+03 </wgt>
<wgt id='1952'> +2.8990367E+03 </wgt>
<wgt id='1953'> +2.8979195E+03 </wgt>
<wgt id='1954'> +2.9061141E+03 </wgt>
<wgt id='1955'> +2.8997153E+03 </wgt>
<wgt id='1956'> +2.9052084E+03 </wgt>
<wgt id='1957'> +2.9068123E+03 </wgt>
<wgt id='1958'> +2.9019539E+03 </wgt>
<wgt id='1959'> +2.9035631E+03 </wgt>
<wgt id='1960'> +2.8995906E+03 </wgt>
<wgt id='1961'> +2.9008303E+03 </wgt>
<wgt id='1962'> +2.9040982E+03 </wgt>
<wgt id='1963'> +2.9035767E+03 </wgt>
<wgt id='1964'> +2.9026837E+03 </wgt>
<wgt id='1965'> +2.9038474E+03 </wgt>
<wgt id='1966'> +2.9034653E+03 </wgt>
<wgt id='1967'> +2.9014722E+03 </wgt>
<wgt id='1968'> +2.9030761E+03 </wgt>
<wgt id='1969'> +2.9046569E+03 </wgt>
<wgt id='1970'> +2.9016273E+03 </wgt>
<wgt id='1971'> +2.9019167E+03 </wgt>
<wgt id='1972'> +2.9042448E+03 </wgt>
<wgt id='1973'> +2.9024156E+03 </wgt>
<wgt id='1974'> +2.9018007E+03 </wgt>
<wgt id='1975'> +2.9033215E+03 </wgt>
<wgt id='1976'> +2.9038346E+03 </wgt>
<wgt id='1977'> +2.9021703E+03 </wgt>
<wgt id='1978'> +2.9012235E+03 </wgt>
<wgt id='1979'> +2.9019397E+03 </wgt>
<wgt id='1980'> +2.9007644E+03 </wgt>
<wgt id='1981'> +2.9038027E+03 </wgt>
<wgt id='1982'> +2.9010608E+03 </wgt>
<wgt id='1983'> +2.9025455E+03 </wgt>
<wgt id='1984'> +2.9007142E+03 </wgt>
<wgt id='1985'> +2.9015611E+03 </wgt>
<wgt id='1986'> +2.9020122E+03 </wgt>
<wgt id='1987'> +2.9021552E+03 </wgt>
<wgt id='1988'> +2.9018837E+03 </wgt>
<wgt id='1989'> +2.9011731E+03 </wgt>
<wgt id='1990'> +2.9016439E+03 </wgt>
<wgt id='1991'> +2.9018873E+03 </wgt>
<wgt id='1992'> +2.9033264E+03 </wgt>
<wgt id='1993'> +2.9025064E+03 </wgt>
<wgt id='1994'> +2.9023878E+03 </wgt>
<wgt id='1995'> +2.9023481E+03 </wgt>
<wgt id='1996'> +2.9029282E+03 </wgt>
<wgt id='1997'> +2.9026170E+03 </wgt>
<wgt id='1998'> +2.9028224E+03 </wgt>
<wgt id='1999'> +2.9020662E+03 </wgt>
<wgt id='2000'> +2.9021381E+03 </wgt>
<wgt id='2001'> +2.9025768E+03 </wgt>
<wgt id='2002'> +2.9023559E+03 </wgt>
<wgt id='2003'> +2.9023072E+03 </wgt>
<wgt id='2004'> +2.9023741E+03 </wgt>
<wgt id='2005'> +2.9023758E+03 </wgt>
<wgt id='2006'> +2.9023918E+03 </wgt>
<wgt id='2007'> +2.9023689E+03 </wgt>
<wgt id='2008'> +2.9023270E+03 </wgt>
<wgt id='2009'> +2.7435271E+03 </wgt>
<wgt id='2010'> +2.6089184E+03 </wgt>
<wgt id='2011'> +2.7677150E+03 </wgt>
<wgt id='2012'> +2.8276100E+03 </wgt>
<wgt id='2013'> +2.8002553E+03 </wgt>
<wgt id='2014'> +2.4477001E+03 </wgt>
<wgt id='2015'> +2.6290487E+03 </wgt>
<wgt id='2016'> +2.7854560E+03 </wgt>
<wgt id='2017'> +2.7342530E+03 </wgt>
<wgt id='2018'> +2.7312855E+03 </wgt>
<wgt id='2019'> +2.7441593E+03 </wgt>
<wgt id='2020'> +2.7153508E+03 </wgt>
<wgt id='2021'> +2.6742845E+03 </wgt>
<wgt id='2022'> +2.7709768E+03 </wgt>
<wgt id='2023'> +2.7864732E+03 </wgt>
<wgt id='2024'> +2.7478713E+03 </wgt>
<wgt id='2025'> +2.6525538E+03 </wgt>
<wgt id='2026'> +2.7454453E+03 </wgt>
<wgt id='2027'> +2.6084435E+03 </wgt>
<wgt id='2028'> +2.7968633E+03 </wgt>
<wgt id='2029'> +2.6779149E+03 </wgt>
<wgt id='2030'> +2.8599632E+03 </wgt>
<wgt id='2031'> +2.7597165E+03 </wgt>
<wgt id='2032'> +2.8486742E+03 </wgt>
<wgt id='2033'> +2.7356588E+03 </wgt>
<wgt id='2034'> +2.7622633E+03 </wgt>
<wgt id='2035'> +2.7686396E+03 </wgt>
<wgt id='2036'> +2.6805508E+03 </wgt>
<wgt id='2037'> +2.7765122E+03 </wgt>
<wgt id='2038'> +2.7198318E+03 </wgt>
<wgt id='2039'> +2.7306275E+03 </wgt>
<wgt id='2040'> +2.8315299E+03 </wgt>
<wgt id='2041'> +2.6966655E+03 </wgt>
<wgt id='2042'> +2.7994108E+03 </wgt>
<wgt id='2043'> +2.7095215E+03 </wgt>
<wgt id='2044'> +2.7705124E+03 </wgt>
<wgt id='2045'> +2.7424533E+03 </wgt>
<wgt id='2046'> +2.7127314E+03 </wgt>
<wgt id='2047'> +2.6032210E+03 </wgt>
<wgt id='2048'> +2.6969640E+03 </wgt>
<wgt id='2049'> +2.7790961E+03 </wgt>
<wgt id='2050'> +2.8540929E+03 </wgt>
<wgt id='2051'> +2.7937705E+03 </wgt>
<wgt id='2052'> +2.7570602E+03 </wgt>
<wgt id='2053'> +2.7272646E+03 </wgt>
<wgt id='2054'> +2.8298195E+03 </wgt>
<wgt id='2055'> +2.7254426E+03 </wgt>
<wgt id='2056'> +2.7249132E+03 </wgt>
<wgt id='2057'> +2.7387894E+03 </wgt>
<wgt id='2058'> +2.6013450E+03 </wgt>
<wgt id='2059'> +2.8168429E+03 </wgt>
<wgt id='2060'> +2.7991713E+03 </wgt>
<wgt id='2061'> +2.7085599E+03 </wgt>
<wgt id='2062'> +2.6914036E+03 </wgt>
<wgt id='2063'> +2.7914996E+03 </wgt>
<wgt id='2064'> +2.7708569E+03 </wgt>
<wgt id='2065'> +2.7421991E+03 </wgt>
<wgt id='2066'> +2.7754961E+03 </wgt>
<wgt id='2067'> +2.8008223E+03 </wgt>
<wgt id='2068'> +2.7988183E+03 </wgt>
<wgt id='2069'> +2.7623357E+03 </wgt>
<wgt id='2070'> +2.7242446E+03 </wgt>
<wgt id='2071'> +2.7534618E+03 </wgt>
<wgt id='2072'> +2.6859849E+03 </wgt>
<wgt id='2073'> +2.6741770E+03 </wgt>
<wgt id='2074'> +2.7870837E+03 </wgt>
<wgt id='2075'> +2.7375182E+03 </wgt>
<wgt id='2076'> +2.9100413E+03 </wgt>
<wgt id='2077'> +2.8056444E+03 </wgt>
<wgt id='2078'> +2.7312926E+03 </wgt>
<wgt id='2079'> +2.7158921E+03 </wgt>
<wgt id='2080'> +2.7676476E+03 </wgt>
<wgt id='2081'> +2.6485300E+03 </wgt>
<wgt id='2082'> +2.6274050E+03 </wgt>
<wgt id='2083'> +2.7529654E+03 </wgt>
<wgt id='2084'> +2.7867432E+03 </wgt>
<wgt id='2085'> +2.6521400E+03 </wgt>
<wgt id='2086'> +2.7252537E+03 </wgt>
<wgt id='2087'> +2.7761766E+03 </wgt>
<wgt id='2088'> +2.7069211E+03 </wgt>
<wgt id='2089'> +2.7860940E+03 </wgt>
<wgt id='2090'> +2.8341716E+03 </wgt>
<wgt id='2091'> +2.7567118E+03 </wgt>
<wgt id='2092'> +2.7224479E+03 </wgt>
<wgt id='2093'> +2.7916270E+03 </wgt>
<wgt id='2094'> +2.7405538E+03 </wgt>
<wgt id='2095'> +2.7698470E+03 </wgt>
<wgt id='2096'> +2.8054239E+03 </wgt>
<wgt id='2097'> +2.8024041E+03 </wgt>
<wgt id='2098'> +2.6971256E+03 </wgt>
<wgt id='2099'> +2.8155367E+03 </wgt>
<wgt id='2100'> +2.7653551E+03 </wgt>
<wgt id='2101'> +2.6763549E+03 </wgt>
<wgt id='2102'> +2.6962189E+03 </wgt>
<wgt id='2103'> +2.7969037E+03 </wgt>
<wgt id='2104'> +2.7010641E+03 </wgt>
<wgt id='2105'> +2.7761487E+03 </wgt>
<wgt id='2106'> +2.7770706E+03 </wgt>
<wgt id='2107'> +2.7969671E+03 </wgt>
<wgt id='2108'> +2.7811330E+03 </wgt>
<wgt id='2109'> +2.6442886E+03 </wgt>
<wgt id='2110'> +2.7260797E+03 </wgt>
<wgt id='2111'> +2.7587459E+03 </wgt>
<wgt id='2112'> +2.8692711E+03 </wgt>
<wgt id='2113'> +2.9130318E+03 </wgt>
<wgt id='2114'> +2.9013250E+03 </wgt>
<wgt id='2115'> +2.5581824E+03 </wgt>
<wgt id='2116'> +2.8229407E+03 </wgt>
</rwgt>
</event>
<event>
 6      1 +2.9771057E+03 7.88609000e+01 7.54677100e-03 1.20651700e-01
        2 -1    0    0  502    0 +0.0000000000e+00 +0.0000000000e+00 +4.9020362906e+03 4.9020362906e+03 0.0000000000e+00 0.0000e+00 -1.0000e+00
       -1 -1    0    0    0  501 -0.0000000000e+00 -0.0000000000e+00 -4.8405614334e-01 4.8405614334e-01 0.0000000000e+00 0.0000e+00 1.0000e+00
       24  2    1    2    0    0 -1.2351210824e+01 +5.7790478836e+00 +4.5802847495e+03 4.5809635917e+03 7.7672984143e+01 0.0000e+00 0.0000e+00
      -15  1    3    3    0    0 +5.7920832877e+00 -3.1866276345e+01 +1.2663392864e+03 1.2667546542e+03 1.7770000000e+00 0.0000e+00 1.0000e+00
       16  1    3    3    0    0 -1.8143294112e+01 +3.7645324229e+01 +3.3139454631e+03 3.3142089376e+03 0.0000000000e+00 0.0000e+00 -1.0000e+00
       21  1    1    2  502  501 +1.2351210824e+01 -5.7790478836e+00 +3.2126748498e+02 3.2155675504e+02 0.0000000000e+00 0.0000e+00 1.0000e+00
<scales pt_clust_4="13000.00000" pt_clust_5="13000.00000" pt_clust_6="13.63634"></scales>
<mgrwt>
<rscale>  0 0.78860905E+02</rscale>
<asrwt>  1 0.13636341E+02</asrwt>
<pdfrwt beam="1">  1        2 0.75411968E+00 0.78860905E+02</pdfrwt>
<pdfrwt beam="2">  1       -1 0.74474101E-04 0.78860905E+02</pdfrwt>
<totfact> 0.84049934E+02</totfact>
</mgrwt>
<clustering>
<clus scale="   13.636">  2  6  1 -1</clus>
<clus scale="   77.673">  4  5 -1 -1</clus>
<clus scale="   78.861">  1  4  2 -1</clus>
</clustering>
<rwgt>
<wgt id='1001'> +2.9771057E+03 </wgt>
<wgt id='1002'> +2.9755734E+03 </wgt>
<wgt id='1003'> +2.9755636E+03 </wgt>
<wgt id='1004'> +2.9725825E+03 </wgt>
<wgt id='1005'> +2.9735065E+03 </wgt>
<wgt id='1006'> +2.9771057E+03 </wgt>
<wgt id='1007'> +2.9755734E+03 </wgt>
<wgt id='1008'> +2.9755636E+03 </wgt>
<wgt id='1009'> +2.9725825E+03 </wgt>
<wgt id='1010'> +2.9735065E+03 </wgt>
<wgt id='1011'> +2.9771057E+03 </wgt>
<wgt id='1012'> +2.9755734E+03 </wgt>
<wgt id='1013'> +2.9755636E+03 </wgt>
<wgt id='1014'> +2.9725825E+03 </wgt>
<wgt id='1015'> +2.9735065E+03 </wgt>
<wgt id='1016'> +2.9569245E+03 </wgt>
<wgt id='1017'> +2.9519037E+03 </wgt>
<wgt id='1018'> +2.9518764E+03 </wgt>
<wgt id='1019'> +2.9755636E+03 </wgt>
<wgt id='1020'> +2.9466385E+03 </wgt>
<wgt id='1021'> +2.9569245E+03 </wgt>
<wgt id='1022'> +2.9519037E+03 </wgt>
<wgt id='1023'> +2.9518764E+03 </wgt>
<wgt id='1024'> +2.9755636E+03 </wgt>
<wgt id='1025'> +2.9466385E+03 </wgt>
<wgt id='1026'> +2.9569245E+03 </wgt>
<wgt id='1027'> +2.9519037E+03 </wgt>
<wgt id='1028'> +2.9518764E+03 </wgt>
<wgt id='1029'> +2.9755636E+03 </wgt>
<wgt id='1030'> +2.9466385E+03 </wgt>
<wgt id='1031'> +2.9689843E+03 </wgt>
<wgt id='1032'> +2.9725669E+03 </wgt>
<wgt id='1033'> +2.9725825E+03 </wgt>
<wgt id='1034'> +2.9311431E+03 </wgt>
<wgt id='1035'> +2.9750955E+03 </wgt>
<wgt id='1036'> +2.9689843E+03 </wgt>
<wgt id='1037'> +2.9725669E+03 </wgt>
<wgt id='1038'> +2.9725825E+03 </wgt>
<wgt id='1039'> +2.9311431E+03 </wgt>
<wgt id='1040'> +2.9750955E+03 </wgt>
<wgt id='1041'> +2.9689843E+03 </wgt>
<wgt id='1042'> +2.9725669E+03 </wgt>
<wgt id='1043'> +2.9725825E+03 </wgt>
<wgt id='1044'> +2.9311431E+03 </wgt>
<wgt id='1045'> +2.9750955E+03 </wgt>
<wgt id='1046'> +2.9771057E+03 </wgt>
<wgt id='1047'> +2.9375334E+03 </wgt>
<wgt id='1048'> +3.0520614E+03 </wgt>
<wgt id='1049'> +3.0606006E+03 </wgt>
<wgt id='1050'> +3.0068101E+03 </wgt>
<wgt id='1051'> +2.9668315E+03 </wgt>
<wgt id='1052'> +3.0437822E+03 </wgt>
<wgt id='1053'> +2.9166135E+03 </wgt>
<wgt id='1054'> +3.0074783E+03 </wgt>
<wgt id='1055'> +3.0074048E+03 </wgt>
<wgt id='1056'> +3.0298297E+03 </wgt>
<wgt id='1057'> +2.9607613E+03 </wgt>
<wgt id='1058'> +2.9366126E+03 </wgt>
<wgt id='1059'> +2.9254864E+03 </wgt>
<wgt id='1060'> +3.0804284E+03 </wgt>
<wgt id='1061'> +2.9467079E+03 </wgt>
<wgt id='1062'> +2.9708254E+03 </wgt>
<wgt id='1063'> +2.9666385E+03 </wgt>
<wgt id='1064'> +3.0103370E+03 </wgt>
<wgt id='1065'> +2.9587920E+03 </wgt>
<wgt id='1066'> +2.9164339E+03 </wgt>
<wgt id='1067'> +2.9728254E+03 </wgt>
<wgt id='1068'> +2.9541907E+03 </wgt>
<wgt id='1069'> +2.9496306E+03 </wgt>
<wgt id='1070'> +2.9868891E+03 </wgt>
<wgt id='1071'> +2.9662827E+03 </wgt>
<wgt id='1072'> +3.0330446E+03 </wgt>
<wgt id='1073'> +3.0834678E+03 </wgt>
<wgt id='1074'> +3.0075935E+03 </wgt>
<wgt id='1075'> +2.7329266E+03 </wgt>
<wgt id='1076'> +2.9352310E+03 </wgt>
<wgt id='1077'> +2.8057669E+03 </wgt>
<wgt id='1078'> +2.7501608E+03 </wgt>
<wgt id='1079'> +3.1959320E+03 </wgt>
<wgt id='1080'> +2.9248990E+03 </wgt>
<wgt id='1081'> +2.9538547E+03 </wgt>
<wgt id='1082'> +2.9551680E+03 </wgt>
<wgt id='1083'> +3.2097757E+03 </wgt>
<wgt id='1084'> +3.0587706E+03 </wgt>
<wgt id='1085'> +2.9789060E+03 </wgt>
<wgt id='1086'> +2.9162126E+03 </wgt>
<wgt id='1087'> +2.9602892E+03 </wgt>
<wgt id='1088'> +3.0140391E+03 </wgt>
<wgt id='1089'> +3.1377422E+03 </wgt>
<wgt id='1090'> +2.9659968E+03 </wgt>
<wgt id='1091'> +3.1159445E+03 </wgt>
<wgt id='1092'> +2.6800353E+03 </wgt>
<wgt id='1093'> +2.6457665E+03 </wgt>
<wgt id='1094'> +2.4775629E+03 </wgt>
<wgt id='1095'> +2.6747735E+03 </wgt>
<wgt id='1096'> +3.0008797E+03 </wgt>
<wgt id='1097'> +3.0804814E+03 </wgt>
<wgt id='1098'> +2.8344827E+03 </wgt>
<wgt id='1099'> +2.9634772E+03 </wgt>
<wgt id='1100'> +2.9700992E+03 </wgt>
<wgt id='1101'> +3.0406512E+03 </wgt>
<wgt id='1102'> +2.8631308E+03 </wgt>
<wgt id='1103'> +2.7517807E+03 </wgt>
<wgt id='1104'> +2.9963368E+03 </wgt>
<wgt id='1105'> +2.8759271E+03 </wgt>
<wgt id='1106'> +2.8912651E+03 </wgt>
<wgt id='1107'> +2.8953930E+03 </wgt>
<wgt id='1108'> +3.2566737E+03 </wgt>
<wgt id='1109'> +3.1531062E+03 </wgt>
<wgt id='1110'> +2.8099201E+03 </wgt>
<wgt id='1111'> +3.0244943E+03 </wgt>
<wgt id='1112'> +2.8631454E+03 </wgt>
<wgt id='1113'> +3.0225937E+03 </wgt>
<wgt id='1114'> +2.9727960E+03 </wgt>
<wgt id='1115'> +3.1284524E+03 </wgt>
<wgt id='1116'> +2.9178689E+03 </wgt>
<wgt id='1117'> +2.9863703E+03 </wgt>
<wgt id='1118'> +2.9635263E+03 </wgt>
<wgt id='1119'> +2.9747178E+03 </wgt>
<wgt id='1120'> +3.0070208E+03 </wgt>
<wgt id='1121'> +2.9516754E+03 </wgt>
<wgt id='1122'> +2.9697274E+03 </wgt>
<wgt id='1123'> +2.9253802E+03 </wgt>
<wgt id='1124'> +3.0654664E+03 </wgt>
<wgt id='1125'> +3.0414141E+03 </wgt>
<wgt id='1126'> +2.9528495E+03 </wgt>
<wgt id='1127'> +2.9232082E+03 </wgt>
<wgt id='1128'> +2.9860192E+03 </wgt>
<wgt id='1129'> +3.0696034E+03 </wgt>
<wgt id='1130'> +2.9877227E+03 </wgt>
<wgt id='1131'> +3.0314128E+03 </wgt>
<wgt id='1132'> +3.0400170E+03 </wgt>
<wgt id='1133'> +3.0275614E+03 </wgt>
<wgt id='1134'> +2.9209823E+03 </wgt>
<wgt id='1135'> +2.9464329E+03 </wgt>
<wgt id='1136'> +2.9859584E+03 </wgt>
<wgt id='1137'> +2.8936438E+03 </wgt>
<wgt id='1138'> +2.9563514E+03 </wgt>
<wgt id='1139'> +2.9005466E+03 </wgt>
<wgt id='1140'> +3.0132295E+03 </wgt>
<wgt id='1141'> +2.9680995E+03 </wgt>
<wgt id='1142'> +2.9775692E+03 </wgt>
<wgt id='1143'> +2.9328636E+03 </wgt>
<wgt id='1144'> +2.9976887E+03 </wgt>
<wgt id='1145'> +2.9818127E+03 </wgt>
<wgt id='1146'> +2.9440434E+03 </wgt>
<wgt id='1147'> +2.8450563E+03 </wgt>
<wgt id='1148'> +3.2861874E+03 </wgt>
<wgt id='1149'> +2.3399761E+03 </wgt>
<wgt id='1150'> +2.2863062E+03 </wgt>
<wgt id='1151'> +2.4105745E+03 </wgt>
<wgt id='1152'> +2.6739148E+03 </wgt>
<wgt id='1153'> +2.8912955E+03 </wgt>
<wgt id='1154'> +2.8867594E+03 </wgt>
<wgt id='1155'> +3.1733226E+03 </wgt>
<wgt id='1156'> +3.2282667E+03 </wgt>
<wgt id='1157'> +2.8702754E+03 </wgt>
<wgt id='1158'> +2.8914898E+03 </wgt>
<wgt id='1159'> +2.8426746E+03 </wgt>
<wgt id='1160'> +2.8724709E+03 </wgt>
<wgt id='1161'> +2.8828630E+03 </wgt>
<wgt id='1162'> +2.9083938E+03 </wgt>
<wgt id='1163'> +2.8742546E+03 </wgt>
<wgt id='1164'> +2.8615566E+03 </wgt>
<wgt id='1165'> +2.8407975E+03 </wgt>
<wgt id='1166'> +2.8551257E+03 </wgt>
<wgt id='1167'> +2.9031229E+03 </wgt>
<wgt id='1168'> +2.8060592E+03 </wgt>
<wgt id='1169'> +2.8588376E+03 </wgt>
<wgt id='1170'> +2.8473587E+03 </wgt>
<wgt id='1171'> +2.9074844E+03 </wgt>
<wgt id='1172'> +2.8065272E+03 </wgt>
<wgt id='1173'> +2.8934199E+03 </wgt>
<wgt id='1174'> +2.8091839E+03 </wgt>
<wgt id='1175'> +2.8494780E+03 </wgt>
<wgt id='1176'> +2.8819059E+03 </wgt>
<wgt id='1177'> +2.8517505E+03 </wgt>
<wgt id='1178'> +2.8985060E+03 </wgt>
<wgt id='1179'> +2.8806750E+03 </wgt>
<wgt id='1180'> +2.9419683E+03 </wgt>
<wgt id='1181'> +2.8816006E+03 </wgt>
<wgt id='1182'> +2.8392078E+03 </wgt>
<wgt id='1183'> +2.8776100E+03 </wgt>
<wgt id='1184'> +2.8635959E+03 </wgt>
<wgt id='1185'> +2.9203551E+03 </wgt>
<wgt id='1186'> +2.8928157E+03 </wgt>
<wgt id='1187'> +2.6156434E+03 </wgt>
<wgt id='1188'> +2.8805681E+03 </wgt>
<wgt id='1189'> +2.8933497E+03 </wgt>
<wgt id='1190'> +2.9241779E+03 </wgt>
<wgt id='1191'> +2.8446166E+03 </wgt>
<wgt id='1192'> +2.9317209E+03 </wgt>
<wgt id='1193'> +2.7941328E+03 </wgt>
<wgt id='1194'> +3.1749750E+03 </wgt>
<wgt id='1195'> +2.7037807E+03 </wgt>
<wgt id='1196'> +2.8474125E+03 </wgt>
<wgt id='1197'> +2.7545832E+03 </wgt>
<wgt id='1198'> +3.0102401E+03 </wgt>
<wgt id='1199'> +2.7903417E+03 </wgt>
<wgt id='1200'> +2.7544540E+03 </wgt>
<wgt id='1201'> +2.8238040E+03 </wgt>
<wgt id='1202'> +2.8333632E+03 </wgt>
<wgt id='1203'> +2.7669105E+03 </wgt>
<wgt id='1204'> +2.8145944E+03 </wgt>
<wgt id='1205'> +2.9403048E+03 </wgt>
<wgt id='1206'> +2.8612809E+03 </wgt>
<wgt id='1207'> +2.8120281E+03 </wgt>
<wgt id='1208'> +2.7582833E+03 </wgt>
<wgt id='1209'> +2.7473224E+03 </wgt>
<wgt id='1210'> +2.8966949E+03 </wgt>
<wgt id='1211'> +2.9935453E+03 </wgt>
<wgt id='1212'> +2.9470490E+03 </wgt>
<wgt id='1213'> +2.9849543E+03 </wgt>
<wgt id='1214'> +2.9336918E+03 </wgt>
<wgt id='1215'> +3.1478250E+03 </wgt>
<wgt id='1216'> +2.7348826E+03 </wgt>
<wgt id='1217'> +3.2187134E+03 </wgt>
<wgt id='1218'> +3.0052336E+03 </wgt>
<wgt id='1219'> +2.7691841E+03 </wgt>
<wgt id='1220'> +2.8319095E+03 </wgt>
<wgt id='1221'> +2.6367730E+03 </wgt>
<wgt id='1222'> +3.0303395E+03 </wgt>
<wgt id='1223'> +3.2321604E+03 </wgt>
<wgt id='1224'> +3.0406932E+03 </wgt>
<wgt id='1225'> +3.0101288E+03 </wgt>
<wgt id='1226'> +2.7685943E+03 </wgt>
<wgt id='1227'> +2.9268462E+03 </wgt>
<wgt id='1228'> +2.8476623E+03 </wgt>
<wgt id='1229'> +2.9003316E+03 </wgt>
<wgt id='1230'> +2.8058783E+03 </wgt>
<wgt id='1231'> +2.8782324E+03 </wgt>
<wgt id='1232'> +2.8914980E+03 </wgt>
<wgt id='1233'> +2.8588673E+03 </wgt>
<wgt id='1234'> +2.9128912E+03 </wgt>
<wgt id='1235'> +2.8255336E+03 </wgt>
<wgt id='1236'> +2.8059708E+03 </wgt>
<wgt id='1237'> +2.8579769E+03 </wgt>
<wgt id='1238'> +2.9671494E+03 </wgt>
<wgt id='1239'> +2.9774507E+03 </wgt>
<wgt id='1240'> +2.9064231E+03 </wgt>
<wgt id='1241'> +2.8968930E+03 </wgt>
<wgt id='1242'> +2.9105511E+03 </wgt>
<wgt id='1243'> +2.8985967E+03 </wgt>
<wgt id='1244'> +2.8015652E+03 </wgt>
<wgt id='1245'> +2.9508640E+03 </wgt>
<wgt id='1246'> +2.7730926E+03 </wgt>
<wgt id='1247'> +2.8162861E+03 </wgt>
<wgt id='1248'> +2.8638391E+03 </wgt>
<wgt id='1249'> +2.8724411E+03 </wgt>
<wgt id='1250'> +2.8756793E+03 </wgt>
<wgt id='1251'> +2.8058605E+03 </wgt>
<wgt id='1252'> +2.8938662E+03 </wgt>
<wgt id='1253'> +2.8602216E+03 </wgt>
<wgt id='1254'> +2.8361264E+03 </wgt>
<wgt id='1255'> +2.8744854E+03 </wgt>
<wgt id='1256'> +2.8037724E+03 </wgt>
<wgt id='1257'> +2.9218253E+03 </wgt>
<wgt id='1258'> +2.6465074E+03 </wgt>
<wgt id='1259'> +3.1353007E+03 </wgt>
<wgt id='1260'> +2.6436988E+03 </wgt>
<wgt id='1261'> +2.7462024E+03 </wgt>
<wgt id='1262'> +2.5017049E+03 </wgt>
<wgt id='1263'> +2.6853685E+03 </wgt>
<wgt id='1264'> +2.6468450E+03 </wgt>
<wgt id='1265'> +2.6703909E+03 </wgt>
<wgt id='1266'> +2.6916867E+03 </wgt>
<wgt id='1267'> +2.5966349E+03 </wgt>
<wgt id='1268'> +2.7533863E+03 </wgt>
<wgt id='1269'> +2.7633905E+03 </wgt>
<wgt id='1270'> +2.5700717E+03 </wgt>
<wgt id='1271'> +2.6362172E+03 </wgt>
<wgt id='1272'> +2.6340739E+03 </wgt>
<wgt id='1273'> +2.6400966E+03 </wgt>
<wgt id='1274'> +2.5683399E+03 </wgt>
<wgt id='1275'> +2.6736481E+03 </wgt>
<wgt id='1276'> +2.5554353E+03 </wgt>
<wgt id='1277'> +2.6298638E+03 </wgt>
<wgt id='1278'> +2.6456510E+03 </wgt>
<wgt id='1279'> +2.5931941E+03 </wgt>
<wgt id='1280'> +2.6950020E+03 </wgt>
<wgt id='1281'> +2.6573622E+03 </wgt>
<wgt id='1282'> +2.6347039E+03 </wgt>
<wgt id='1283'> +2.7594734E+03 </wgt>
<wgt id='1284'> +2.5205257E+03 </wgt>
<wgt id='1285'> +2.4876074E+03 </wgt>
<wgt id='1286'> +2.7811518E+03 </wgt>
<wgt id='1287'> +2.5914522E+03 </wgt>
<wgt id='1288'> +2.7265737E+03 </wgt>
<wgt id='1289'> +2.6542217E+03 </wgt>
<wgt id='1290'> +2.6347130E+03 </wgt>
<wgt id='1291'> +2.6593055E+03 </wgt>
<wgt id='1292'> +2.6175344E+03 </wgt>
<wgt id='1293'> +2.5719453E+03 </wgt>
<wgt id='1294'> +2.7095395E+03 </wgt>
<wgt id='1295'> +2.6176560E+03 </wgt>
<wgt id='1296'> +2.6718379E+03 </wgt>
<wgt id='1297'> +2.6763121E+03 </wgt>
<wgt id='1298'> +2.6040950E+03 </wgt>
<wgt id='1299'> +2.6414251E+03 </wgt>
<wgt id='1300'> +2.6385292E+03 </wgt>
<wgt id='1301'> +2.6609235E+03 </wgt>
<wgt id='1302'> +2.6399828E+03 </wgt>
<wgt id='1303'> +2.6836327E+03 </wgt>
<wgt id='1304'> +2.5806264E+03 </wgt>
<wgt id='1305'> +2.5371910E+03 </wgt>
<wgt id='1306'> +2.7793279E+03 </wgt>
<wgt id='1307'> +2.6996721E+03 </wgt>
<wgt id='1308'> +2.5845602E+03 </wgt>
<wgt id='1309'> +2.6322365E+03 </wgt>
<wgt id='1310'> +2.5383804E+03 </wgt>
<wgt id='1311'> +2.6415343E+03 </wgt>
<wgt id='1312'> +2.6538054E+03 </wgt>
<wgt id='1313'> +2.7864799E+03 </wgt>
<wgt id='1314'> +2.6052564E+03 </wgt>
<wgt id='1315'> +2.5713835E+03 </wgt>
<wgt id='1316'> +2.6231054E+03 </wgt>
<wgt id='1317'> +2.5761905E+03 </wgt>
<wgt id='1318'> +2.7116573E+03 </wgt>
<wgt id='1319'> +2.7948783E+03 </wgt>
<wgt id='1320'> +2.7912586E+03 </wgt>
<wgt id='1321'> +2.8218979E+03 </wgt>
<wgt id='1322'> +2.8151328E+03 </wgt>
<wgt id='1323'> +2.8567329E+03 </wgt>
<wgt id='1324'> +2.6880926E+03 </wgt>
<wgt id='1325'> +2.8093438E+03 </wgt>
<wgt id='1326'> +2.8053391E+03 </wgt>
<wgt id='1327'> +2.8278657E+03 </wgt>
<wgt id='1328'> +2.8032736E+03 </wgt>
<wgt id='1329'> +2.7151608E+03 </wgt>
<wgt id='1330'> +2.5898115E+03 </wgt>
<wgt id='1331'> +2.9253115E+03 </wgt>
<wgt id='1332'> +2.6246500E+03 </wgt>
<wgt id='1333'> +2.9163806E+03 </wgt>
<wgt id='1334'> +2.8065727E+03 </wgt>
<wgt id='1335'> +2.7788784E+03 </wgt>
<wgt id='1336'> +2.8332107E+03 </wgt>
<wgt id='1337'> +2.7507216E+03 </wgt>
<wgt id='1338'> +2.5925717E+03 </wgt>
<wgt id='1339'> +3.0130057E+03 </wgt>
<wgt id='1340'> +2.8577140E+03 </wgt>
<wgt id='1341'> +2.6913383E+03 </wgt>
<wgt id='1342'> +2.7233093E+03 </wgt>
<wgt id='1343'> +2.8696776E+03 </wgt>
<wgt id='1344'> +2.7741089E+03 </wgt>
<wgt id='1345'> +2.8210153E+03 </wgt>
<wgt id='1346'> +2.8415579E+03 </wgt>
<wgt id='1347'> +2.7306902E+03 </wgt>
<wgt id='1348'> +2.7809094E+03 </wgt>
<wgt id='1349'> +2.7989685E+03 </wgt>
<wgt id='1350'> +2.7856230E+03 </wgt>
<wgt id='1351'> +2.8065970E+03 </wgt>
<wgt id='1352'> +2.8164023E+03 </wgt>
<wgt id='1353'> +2.7454218E+03 </wgt>
<wgt id='1354'> +2.8454067E+03 </wgt>
<wgt id='1355'> +2.7426707E+03 </wgt>
<wgt id='1356'> +2.7880948E+03 </wgt>
<wgt id='1357'> +2.7928062E+03 </wgt>
<wgt id='1358'> +2.7817058E+03 </wgt>
<wgt id='1359'> +2.7923987E+03 </wgt>
<wgt id='1360'> +2.7385581E+03 </wgt>
<wgt id='1361'> +2.8556393E+03 </wgt>
<wgt id='1362'> +2.7511649E+03 </wgt>
<wgt id='1363'> +2.8290212E+03 </wgt>
<wgt id='1364'> +2.7552115E+03 </wgt>
<wgt id='1365'> +2.8372525E+03 </wgt>
<wgt id='1366'> +2.7148102E+03 </wgt>
<wgt id='1367'> +2.9065149E+03 </wgt>
<wgt id='1368'> +2.7835159E+03 </wgt>
<wgt id='1369'> +2.9079970E+03 </wgt>
<wgt id='1370'> +2.7072296E+03 </wgt>
<wgt id='1371'> +2.8898358E+03 </wgt>
<wgt id='1372'> +2.9907354E+03 </wgt>
<wgt id='1373'> +2.7147058E+03 </wgt>
<wgt id='1374'> +2.6754171E+03 </wgt>
<wgt id='1375'> +2.7738814E+03 </wgt>
<wgt id='1376'> +2.7081289E+03 </wgt>
<wgt id='1377'> +2.8806892E+03 </wgt>
<wgt id='1378'> +3.4096224E+03 </wgt>
<wgt id='1379'> +2.7010287E+03 </wgt>
<wgt id='1380'> +2.7209603E+03 </wgt>
<wgt id='1381'> +2.6796676E+03 </wgt>
<wgt id='1382'> +2.6995004E+03 </wgt>
<wgt id='1383'> +2.7020958E+03 </wgt>
<wgt id='1384'> +2.6565348E+03 </wgt>
<wgt id='1385'> +2.7418113E+03 </wgt>
<wgt id='1386'> +2.7453225E+03 </wgt>
<wgt id='1387'> +2.6521438E+03 </wgt>
<wgt id='1388'> +2.7081371E+03 </wgt>
<wgt id='1389'> +2.6940742E+03 </wgt>
<wgt id='1390'> +2.6997429E+03 </wgt>
<wgt id='1391'> +2.7036225E+03 </wgt>
<wgt id='1392'> +2.6974819E+03 </wgt>
<wgt id='1393'> +2.7074324E+03 </wgt>
<wgt id='1394'> +2.7018471E+03 </wgt>
<wgt id='1395'> +2.7004982E+03 </wgt>
<wgt id='1396'> +2.6727459E+03 </wgt>
<wgt id='1397'> +2.7341801E+03 </wgt>
<wgt id='1398'> +2.7271708E+03 </wgt>
<wgt id='1399'> +2.6786488E+03 </wgt>
<wgt id='1400'> +2.6902753E+03 </wgt>
<wgt id='1401'> +2.7157159E+03 </wgt>
<wgt id='1402'> +2.8429745E+03 </wgt>
<wgt id='1403'> +2.6141308E+03 </wgt>
<wgt id='1404'> +2.7061133E+03 </wgt>
<wgt id='1405'> +2.6943754E+03 </wgt>
<wgt id='1406'> +2.7354341E+03 </wgt>
<wgt id='1407'> +2.6899020E+03 </wgt>
<wgt id='1408'> +2.6895913E+03 </wgt>
<wgt id='1409'> +2.7111641E+03 </wgt>
<wgt id='1410'> +2.7452543E+03 </wgt>
<wgt id='1411'> +2.6502177E+03 </wgt>
<wgt id='1412'> +2.6903460E+03 </wgt>
<wgt id='1413'> +2.7104713E+03 </wgt>
<wgt id='1414'> +2.7102002E+03 </wgt>
<wgt id='1415'> +2.7014226E+03 </wgt>
<wgt id='1416'> +2.6806948E+03 </wgt>
<wgt id='1417'> +2.7244612E+03 </wgt>
<wgt id='1418'> +2.7018133E+03 </wgt>
<wgt id='1419'> +2.6996681E+03 </wgt>
<wgt id='1420'> +2.6985985E+03 </wgt>
<wgt id='1421'> +2.6832805E+03 </wgt>
<wgt id='1422'> +2.7846775E+03 </wgt>
<wgt id='1423'> +2.6605155E+03 </wgt>
<wgt id='1424'> +2.6954511E+03 </wgt>
<wgt id='1425'> +2.7151551E+03 </wgt>
<wgt id='1426'> +2.7274860E+03 </wgt>
<wgt id='1427'> +2.7050958E+03 </wgt>
<wgt id='1428'> +2.6895316E+03 </wgt>
<wgt id='1429'> +2.7100479E+03 </wgt>
<wgt id='1430'> +2.3052013E+03 </wgt>
<wgt id='1431'> +2.3297273E+03 </wgt>
<wgt id='1432'> +2.2736695E+03 </wgt>
<wgt id='1433'> +2.2804450E+03 </wgt>
<wgt id='1434'> +2.3298168E+03 </wgt>
<wgt id='1435'> +2.2895361E+03 </wgt>
<wgt id='1436'> +2.3114911E+03 </wgt>
<wgt id='1437'> +2.3259763E+03 </wgt>
<wgt id='1438'> +2.2844897E+03 </wgt>
<wgt id='1439'> +2.3031736E+03 </wgt>
<wgt id='1440'> +2.3071328E+03 </wgt>
<wgt id='1441'> +2.3065236E+03 </wgt>
<wgt id='1442'> +2.3043322E+03 </wgt>
<wgt id='1443'> +2.3067221E+03 </wgt>
<wgt id='1444'> +2.3033803E+03 </wgt>
<wgt id='1445'> +2.2930761E+03 </wgt>
<wgt id='1446'> +2.3183058E+03 </wgt>
<wgt id='1447'> +2.2728140E+03 </wgt>
<wgt id='1448'> +2.3234323E+03 </wgt>
<wgt id='1449'> +2.2696804E+03 </wgt>
<wgt id='1450'> +2.3545326E+03 </wgt>
<wgt id='1451'> +2.3000132E+03 </wgt>
<wgt id='1452'> +2.3089428E+03 </wgt>
<wgt id='1453'> +2.3260781E+03 </wgt>
<wgt id='1454'> +2.2812930E+03 </wgt>
<wgt id='1455'> +2.2664890E+03 </wgt>
<wgt id='1456'> +2.4078317E+03 </wgt>
<wgt id='1457'> +2.3466963E+03 </wgt>
<wgt id='1458'> +2.2921104E+03 </wgt>
<wgt id='1459'> +2.2990749E+03 </wgt>
<wgt id='1460'> +2.3047108E+03 </wgt>
<wgt id='1461'> +2.3358030E+03 </wgt>
<wgt id='1462'> +2.2491942E+03 </wgt>
<wgt id='1463'> +2.3058213E+03 </wgt>
<wgt id='1464'> +2.3152544E+03 </wgt>
<wgt id='1465'> +2.3191566E+03 </wgt>
<wgt id='1466'> +2.3085716E+03 </wgt>
<wgt id='1467'> +2.3163352E+03 </wgt>
<wgt id='1468'> +2.3029042E+03 </wgt>
<wgt id='1469'> +2.3060996E+03 </wgt>
<wgt id='1470'> +2.3036235E+03 </wgt>
<wgt id='1471'> +2.2986492E+03 </wgt>
<wgt id='1472'> +2.3238683E+03 </wgt>
<wgt id='1473'> +2.3166528E+03 </wgt>
<wgt id='1474'> +2.2424275E+03 </wgt>
<wgt id='1475'> +2.3179424E+03 </wgt>
<wgt id='1476'> +2.3421086E+03 </wgt>
<wgt id='1477'> +2.3268102E+03 </wgt>
<wgt id='1478'> +2.3023627E+03 </wgt>
<wgt id='1479'> +2.3357460E+03 </wgt>
<wgt id='1480'> +2.3268596E+03 </wgt>
<wgt id='1481'> +4.2141967E+03 </wgt>
<wgt id='1482'> +2.4483121E+03 </wgt>
<wgt id='1483'> +2.4479459E+03 </wgt>
<wgt id='1484'> +2.4486301E+03 </wgt>
<wgt id='1485'> +2.4462864E+03 </wgt>
<wgt id='1486'> +2.4482989E+03 </wgt>
<wgt id='1487'> +2.4465664E+03 </wgt>
<wgt id='1488'> +2.4430992E+03 </wgt>
<wgt id='1489'> +2.4436248E+03 </wgt>
<wgt id='1490'> +2.4367317E+03 </wgt>
<wgt id='1491'> +2.4399303E+03 </wgt>
<wgt id='1492'> +2.4566449E+03 </wgt>
<wgt id='1493'> +2.4754819E+03 </wgt>
<wgt id='1494'> +2.4492758E+03 </wgt>
<wgt id='1495'> +2.4551211E+03 </wgt>
<wgt id='1496'> +2.4407911E+03 </wgt>
<wgt id='1497'> +2.4450602E+03 </wgt>
<wgt id='1498'> +2.4689657E+03 </wgt>
<wgt id='1499'> +2.4396682E+03 </wgt>
<wgt id='1500'> +2.4410232E+03 </wgt>
<wgt id='1501'> +2.4804810E+03 </wgt>
<wgt id='1502'> +2.4500801E+03 </wgt>
<wgt id='1503'> +2.4351343E+03 </wgt>
<wgt id='1504'> +2.4591408E+03 </wgt>
<wgt id='1505'> +2.4485373E+03 </wgt>
<wgt id='1506'> +2.4437080E+03 </wgt>
<wgt id='1507'> +2.4745940E+03 </wgt>
<wgt id='1508'> +2.4479968E+03 </wgt>
<wgt id='1509'> +2.4341480E+03 </wgt>
<wgt id='1510'> +2.4249877E+03 </wgt>
<wgt id='1511'> +2.4245765E+03 </wgt>
<wgt id='1512'> +2.6174289E+03 </wgt>
<wgt id='1513'> +2.6637992E+03 </wgt>
<wgt id='1514'> +2.5413467E+03 </wgt>
<wgt id='1515'> +2.6755346E+03 </wgt>
<wgt id='1516'> +2.6478530E+03 </wgt>
<wgt id='1517'> +2.6066091E+03 </wgt>
<wgt id='1518'> +2.5692280E+03 </wgt>
<wgt id='1519'> +2.6631863E+03 </wgt>
<wgt id='1520'> +2.7173581E+03 </wgt>
<wgt id='1521'> +2.5971378E+03 </wgt>
<wgt id='1522'> +2.5453075E+03 </wgt>
<wgt id='1523'> +2.5926484E+03 </wgt>
<wgt id='1524'> +2.6126539E+03 </wgt>
<wgt id='1525'> +2.5917700E+03 </wgt>
<wgt id='1526'> +2.6745909E+03 </wgt>
<wgt id='1527'> +2.5744604E+03 </wgt>
<wgt id='1528'> +2.6265214E+03 </wgt>
<wgt id='1529'> +2.6313086E+03 </wgt>
<wgt id='1530'> +2.6322024E+03 </wgt>
<wgt id='1531'> +2.6404311E+03 </wgt>
<wgt id='1532'> +2.6397700E+03 </wgt>
<wgt id='1533'> +2.5880851E+03 </wgt>
<wgt id='1534'> +2.6035244E+03 </wgt>
<wgt id='1535'> +2.6266168E+03 </wgt>
<wgt id='1536'> +2.5892713E+03 </wgt>
<wgt id='1537'> +2.5872105E+03 </wgt>
<wgt id='1538'> +2.5922876E+03 </wgt>
<wgt id='1539'> +2.6202063E+03 </wgt>
<wgt id='1540'> +2.6352868E+03 </wgt>
<wgt id='1541'> +2.6003487E+03 </wgt>
<wgt id='1542'> +2.6341192E+03 </wgt>
<wgt id='1543'> +2.6134467E+03 </wgt>
<wgt id='1544'> +2.6261444E+03 </wgt>
<wgt id='1545'> +2.6159397E+03 </wgt>
<wgt id='1546'> +2.6006983E+03 </wgt>
<wgt id='1547'> +2.6479422E+03 </wgt>
<wgt id='1548'> +2.6064639E+03 </wgt>
<wgt id='1549'> +2.6549278E+03 </wgt>
<wgt id='1550'> +2.6310441E+03 </wgt>
<wgt id='1551'> +2.6336419E+03 </wgt>
<wgt id='1552'> +2.5938289E+03 </wgt>
<wgt id='1553'> +2.6422111E+03 </wgt>
<wgt id='1554'> +2.6034655E+03 </wgt>
<wgt id='1555'> +2.6224253E+03 </wgt>
<wgt id='1556'> +2.5716490E+03 </wgt>
<wgt id='1557'> +2.5948480E+03 </wgt>
<wgt id='1558'> +2.6639808E+03 </wgt>
<wgt id='1559'> +2.6452529E+03 </wgt>
<wgt id='1560'> +2.5937260E+03 </wgt>
<wgt id='1561'> +2.6177167E+03 </wgt>
<wgt id='1562'> +2.6373473E+03 </wgt>
<wgt id='1563'> +2.6301169E+03 </wgt>
<wgt id='1564'> +2.6667236E+03 </wgt>
<wgt id='1565'> +2.6570756E+03 </wgt>
<wgt id='1566'> +2.6296402E+03 </wgt>
<wgt id='1567'> +2.6492977E+03 </wgt>
<wgt id='1568'> +2.6165172E+03 </wgt>
<wgt id='1569'> +2.6475458E+03 </wgt>
<wgt id='1570'> +2.6087817E+03 </wgt>
<wgt id='1571'> +2.6253631E+03 </wgt>
<wgt id='1572'> +2.6181899E+03 </wgt>
<wgt id='1573'> +2.5787468E+03 </wgt>
<wgt id='1574'> +2.6414489E+03 </wgt>
<wgt id='1575'> +2.6571750E+03 </wgt>
<wgt id='1576'> +2.6090794E+03 </wgt>
<wgt id='1577'> +2.5918750E+03 </wgt>
<wgt id='1578'> +2.5950470E+03 </wgt>
<wgt id='1579'> +2.6129212E+03 </wgt>
<wgt id='1580'> +2.5729967E+03 </wgt>
<wgt id='1581'> +2.6341360E+03 </wgt>
<wgt id='1582'> +2.6506385E+03 </wgt>
<wgt id='1583'> +2.6253446E+03 </wgt>
<wgt id='1584'> +2.6299162E+03 </wgt>
<wgt id='1585'> +2.5971677E+03 </wgt>
<wgt id='1586'> +2.6250546E+03 </wgt>
<wgt id='1587'> +2.5919808E+03 </wgt>
<wgt id='1588'> +2.6155523E+03 </wgt>
<wgt id='1589'> +2.5810787E+03 </wgt>
<wgt id='1590'> +2.6600947E+03 </wgt>
<wgt id='1591'> +2.6585850E+03 </wgt>
<wgt id='1592'> +2.6346412E+03 </wgt>
<wgt id='1593'> +2.6062175E+03 </wgt>
<wgt id='1594'> +2.5815715E+03 </wgt>
<wgt id='1595'> +2.6612971E+03 </wgt>
<wgt id='1596'> +2.6078515E+03 </wgt>
<wgt id='1597'> +2.6139260E+03 </wgt>
<wgt id='1598'> +2.6135107E+03 </wgt>
<wgt id='1599'> +2.6059968E+03 </wgt>
<wgt id='1600'> +2.6135863E+03 </wgt>
<wgt id='1601'> +2.6185679E+03 </wgt>
<wgt id='1602'> +2.5700382E+03 </wgt>
<wgt id='1603'> +2.6112522E+03 </wgt>
<wgt id='1604'> +2.6370844E+03 </wgt>
<wgt id='1605'> +2.6167322E+03 </wgt>
<wgt id='1606'> +2.5395874E+03 </wgt>
<wgt id='1607'> +2.6515317E+03 </wgt>
<wgt id='1608'> +2.5700275E+03 </wgt>
<wgt id='1609'> +2.6254058E+03 </wgt>
<wgt id='1610'> +2.5883259E+03 </wgt>
<wgt id='1611'> +2.6089077E+03 </wgt>
<wgt id='1612'> +2.6376264E+03 </wgt>
<wgt id='1613'> +2.5585351E+03 </wgt>
<wgt id='1614'> +2.6824946E+03 </wgt>
<wgt id='1615'> +2.3986153E+03 </wgt>
<wgt id='1616'> +2.4244144E+03 </wgt>
<wgt id='1617'> +2.3081929E+03 </wgt>
<wgt id='1618'> +2.5038580E+03 </wgt>
<wgt id='1619'> +2.4323486E+03 </wgt>
<wgt id='1620'> +2.3972890E+03 </wgt>
<wgt id='1621'> +2.4494803E+03 </wgt>
<wgt id='1622'> +2.3785255E+03 </wgt>
<wgt id='1623'> +2.4161599E+03 </wgt>
<wgt id='1624'> +2.3819655E+03 </wgt>
<wgt id='1625'> +2.4489299E+03 </wgt>
<wgt id='1626'> +2.3984273E+03 </wgt>
<wgt id='1627'> +2.3900441E+03 </wgt>
<wgt id='1628'> +2.4355301E+03 </wgt>
<wgt id='1629'> +2.3482107E+03 </wgt>
<wgt id='1630'> +2.3623195E+03 </wgt>
<wgt id='1631'> +2.3753572E+03 </wgt>
<wgt id='1632'> +2.3948937E+03 </wgt>
<wgt id='1633'> +2.3751109E+03 </wgt>
<wgt id='1634'> +2.3984432E+03 </wgt>
<wgt id='1635'> +2.4267431E+03 </wgt>
<wgt id='1636'> +2.3854998E+03 </wgt>
<wgt id='1637'> +2.3929405E+03 </wgt>
<wgt id='1638'> +2.4034084E+03 </wgt>
<wgt id='1639'> +2.4175524E+03 </wgt>
<wgt id='1640'> +2.3986088E+03 </wgt>
<wgt id='1641'> +2.4001039E+03 </wgt>
<wgt id='1642'> +2.4306592E+03 </wgt>
<wgt id='1643'> +2.3976483E+03 </wgt>
<wgt id='1644'> +2.3997331E+03 </wgt>
<wgt id='1645'> +2.3966677E+03 </wgt>
<wgt id='1646'> +2.4127809E+03 </wgt>
<wgt id='1647'> +2.3866772E+03 </wgt>
<wgt id='1648'> +2.4003343E+03 </wgt>
<wgt id='1649'> +2.3778207E+03 </wgt>
<wgt id='1650'> +2.4177366E+03 </wgt>
<wgt id='1651'> +2.4063425E+03 </wgt>
<wgt id='1652'> +2.4150366E+03 </wgt>
<wgt id='1653'> +2.3988906E+03 </wgt>
<wgt id='1654'> +2.4315333E+03 </wgt>
<wgt id='1655'> +2.4017969E+03 </wgt>
<wgt id='1656'> +2.3860469E+03 </wgt>
<wgt id='1657'> +2.3853225E+03 </wgt>
<wgt id='1658'> +2.4538141E+03 </wgt>
<wgt id='1659'> +2.3866533E+03 </wgt>
<wgt id='1660'> +2.3792744E+03 </wgt>
<wgt id='1661'> +2.4287939E+03 </wgt>
<wgt id='1662'> +2.3935714E+03 </wgt>
<wgt id='1663'> +2.4095362E+03 </wgt>
<wgt id='1664'> +2.3816376E+03 </wgt>
<wgt id='1665'> +2.4118821E+03 </wgt>
<wgt id='1666'> +2.4215464E+03 </wgt>
<wgt id='1667'> +2.4181021E+03 </wgt>
<wgt id='1668'> +2.4538807E+03 </wgt>
<wgt id='1669'> +2.4337014E+03 </wgt>
<wgt id='1670'> +2.3907809E+03 </wgt>
<wgt id='1671'> +2.4093454E+03 </wgt>
<wgt id='1672'> +2.3856623E+03 </wgt>
<wgt id='1673'> +2.4295059E+03 </wgt>
<wgt id='1674'> +2.3671616E+03 </wgt>
<wgt id='1675'> +2.3964460E+03 </wgt>
<wgt id='1676'> +2.4226173E+03 </wgt>
<wgt id='1677'> +2.4310472E+03 </wgt>
<wgt id='1678'> +2.3808083E+03 </wgt>
<wgt id='1679'> +2.3683313E+03 </wgt>
<wgt id='1680'> +2.3937689E+03 </wgt>
<wgt id='1681'> +2.4137353E+03 </wgt>
<wgt id='1682'> +2.3645941E+03 </wgt>
<wgt id='1683'> +2.4154518E+03 </wgt>
<wgt id='1684'> +2.3836602E+03 </wgt>
<wgt id='1685'> +2.4168400E+03 </wgt>
<wgt id='1686'> +2.3618076E+03 </wgt>
<wgt id='1687'> +2.3982995E+03 </wgt>
<wgt id='1688'> +2.3411430E+03 </wgt>
<wgt id='1689'> +2.3751612E+03 </wgt>
<wgt id='1690'> +2.3755968E+03 </wgt>
<wgt id='1691'> +2.4020530E+03 </wgt>
<wgt id='1692'> +2.4548017E+03 </wgt>
<wgt id='1693'> +2.4182272E+03 </wgt>
<wgt id='1694'> +2.4061686E+03 </wgt>
<wgt id='1695'> +2.3592614E+03 </wgt>
<wgt id='1696'> +2.4279405E+03 </wgt>
<wgt id='1697'> +2.4051977E+03 </wgt>
<wgt id='1698'> +2.3817914E+03 </wgt>
<wgt id='1699'> +2.3790105E+03 </wgt>
<wgt id='1700'> +2.3731759E+03 </wgt>
<wgt id='1701'> +2.4088814E+03 </wgt>
<wgt id='1702'> +2.4012603E+03 </wgt>
<wgt id='1703'> +2.3745558E+03 </wgt>
<wgt id='1704'> +2.4219565E+03 </wgt>
<wgt id='1705'> +2.3413962E+03 </wgt>
<wgt id='1706'> +2.3836585E+03 </wgt>
<wgt id='1707'> +2.3481942E+03 </wgt>
<wgt id='1708'> +2.3888046E+03 </wgt>
<wgt id='1709'> +2.3803520E+03 </wgt>
<wgt id='1710'> +2.4136637E+03 </wgt>
<wgt id='1711'> +2.4221494E+03 </wgt>
<wgt id='1712'> +2.4410819E+03 </wgt>
<wgt id='1713'> +2.4312081E+03 </wgt>
<wgt id='1714'> +2.4303573E+03 </wgt>
<wgt id='1715'> +2.4199434E+03 </wgt>
<wgt id='1716'> +2.3666494E+03 </wgt>
<wgt id='1717'> +2.4490844E+03 </wgt>
<wgt id='1718'> +2.6190246E+03 </wgt>
<wgt id='1719'> +2.6286594E+03 </wgt>
<wgt id='1720'> +2.6457971E+03 </wgt>
<wgt id='1721'> +2.6142039E+03 </wgt>
<wgt id='1722'> +2.7524934E+03 </wgt>
<wgt id='1723'> +2.5943657E+03 </wgt>
<wgt id='1724'> +2.6766601E+03 </wgt>
<wgt id='1725'> +2.6273970E+03 </wgt>
<wgt id='1726'> +2.6053918E+03 </wgt>
<wgt id='1727'> +2.6956583E+03 </wgt>
<wgt id='1728'> +2.4436521E+03 </wgt>
<wgt id='1729'> +2.6139890E+03 </wgt>
<wgt id='1730'> +2.6736732E+03 </wgt>
<wgt id='1731'> +2.6253448E+03 </wgt>
<wgt id='1732'> +2.6078112E+03 </wgt>
<wgt id='1733'> +2.6374932E+03 </wgt>
<wgt id='1734'> +2.6183548E+03 </wgt>
<wgt id='1735'> +2.5563589E+03 </wgt>
<wgt id='1736'> +2.5885196E+03 </wgt>
<wgt id='1737'> +2.6018774E+03 </wgt>
<wgt id='1738'> +2.6176299E+03 </wgt>
<wgt id='1739'> +2.6253999E+03 </wgt>
<wgt id='1740'> +2.6239341E+03 </wgt>
<wgt id='1741'> +2.6226347E+03 </wgt>
<wgt id='1742'> +2.6255381E+03 </wgt>
<wgt id='1743'> +2.5394503E+03 </wgt>
<wgt id='1744'> +2.6158000E+03 </wgt>
<wgt id='1745'> +2.6109602E+03 </wgt>
<wgt id='1746'> +2.5845084E+03 </wgt>
<wgt id='1747'> +2.6135457E+03 </wgt>
<wgt id='1748'> +2.6223200E+03 </wgt>
<wgt id='1749'> +2.5585351E+03 </wgt>
<wgt id='1750'> +2.6824946E+03 </wgt>
<wgt id='1751'> +2.3987273E+03 </wgt>
<wgt id='1752'> +2.4069830E+03 </wgt>
<wgt id='1753'> +2.3719346E+03 </wgt>
<wgt id='1754'> +2.4100184E+03 </wgt>
<wgt id='1755'> +2.2829382E+03 </wgt>
<wgt id='1756'> +2.3750545E+03 </wgt>
<wgt id='1757'> +2.4052427E+03 </wgt>
<wgt id='1758'> +2.5642797E+03 </wgt>
<wgt id='1759'> +2.4148553E+03 </wgt>
<wgt id='1760'> +2.4314431E+03 </wgt>
<wgt id='1761'> +2.4330997E+03 </wgt>
<wgt id='1762'> +2.4043533E+03 </wgt>
<wgt id='1763'> +2.4282042E+03 </wgt>
<wgt id='1764'> +2.3300019E+03 </wgt>
<wgt id='1765'> +2.4105208E+03 </wgt>
<wgt id='1766'> +2.3835552E+03 </wgt>
<wgt id='1767'> +2.3682136E+03 </wgt>
<wgt id='1768'> +2.3664644E+03 </wgt>
<wgt id='1769'> +2.3683214E+03 </wgt>
<wgt id='1770'> +2.4245194E+03 </wgt>
<wgt id='1771'> +2.4138779E+03 </wgt>
<wgt id='1772'> +2.4020241E+03 </wgt>
<wgt id='1773'> +2.3940345E+03 </wgt>
<wgt id='1774'> +2.4688547E+03 </wgt>
<wgt id='1775'> +2.3887645E+03 </wgt>
<wgt id='1776'> +2.4168998E+03 </wgt>
<wgt id='1777'> +2.3855429E+03 </wgt>
<wgt id='1778'> +2.4089828E+03 </wgt>
<wgt id='1779'> +2.3870980E+03 </wgt>
<wgt id='1780'> +2.3929637E+03 </wgt>
<wgt id='1781'> +2.3966309E+03 </wgt>
<wgt id='1782'> +2.3666494E+03 </wgt>
<wgt id='1783'> +2.4490844E+03 </wgt>
<wgt id='1784'> +1.7195268E+03 </wgt>
<wgt id='1785'> +1.7210210E+03 </wgt>
<wgt id='1786'> +1.7180495E+03 </wgt>
<wgt id='1787'> +1.7221593E+03 </wgt>
<wgt id='1788'> +1.7168851E+03 </wgt>
<wgt id='1789'> +1.7089353E+03 </wgt>
<wgt id='1790'> +1.7301475E+03 </wgt>
<wgt id='1791'> +1.7186959E+03 </wgt>
<wgt id='1792'> +1.7201266E+03 </wgt>
<wgt id='1793'> +1.7408800E+03 </wgt>
<wgt id='1794'> +1.6983664E+03 </wgt>
<wgt id='1795'> +1.7197971E+03 </wgt>
<wgt id='1796'> +1.7155999E+03 </wgt>
<wgt id='1797'> +1.7886915E+03 </wgt>
<wgt id='1798'> +1.6527303E+03 </wgt>
<wgt id='1799'> +1.7517383E+03 </wgt>
<wgt id='1800'> +1.6995098E+03 </wgt>
<wgt id='1801'> +1.7587730E+03 </wgt>
<wgt id='1802'> +1.6748703E+03 </wgt>
<wgt id='1803'> +1.6953312E+03 </wgt>
<wgt id='1804'> +1.7468456E+03 </wgt>
<wgt id='1805'> +1.7466973E+03 </wgt>
<wgt id='1806'> +1.6905193E+03 </wgt>
<wgt id='1807'> +1.7264496E+03 </wgt>
<wgt id='1808'> +1.7057106E+03 </wgt>
<wgt id='1809'> +1.7605495E+03 </wgt>
<wgt id='1810'> +1.6680127E+03 </wgt>
<wgt id='1811'> +1.7445425E+03 </wgt>
<wgt id='1812'> +1.6935030E+03 </wgt>
<wgt id='1813'> +1.7195268E+03 </wgt>
<wgt id='1814'> +1.7264196E+03 </wgt>
<wgt id='1815'> +1.7059081E+03 </wgt>
<wgt id='1816'> +1.7260814E+03 </wgt>
<wgt id='1817'> +1.7105620E+03 </wgt>
<wgt id='1818'> +1.7688145E+03 </wgt>
<wgt id='1819'> +1.6803030E+03 </wgt>
<wgt id='1820'> +1.7174332E+03 </wgt>
<wgt id='1821'> +1.7225055E+03 </wgt>
<wgt id='1822'> +1.7078111E+03 </wgt>
<wgt id='1823'> +1.7326374E+03 </wgt>
<wgt id='1824'> +1.7207352E+03 </wgt>
<wgt id='1825'> +1.7290410E+03 </wgt>
<wgt id='1826'> +1.9058926E+03 </wgt>
<wgt id='1827'> +1.7107980E+03 </wgt>
<wgt id='1828'> +1.7124860E+03 </wgt>
<wgt id='1829'> +1.7084226E+03 </wgt>
<wgt id='1830'> +1.7168823E+03 </wgt>
<wgt id='1831'> +1.7039882E+03 </wgt>
<wgt id='1832'> +1.7015760E+03 </wgt>
<wgt id='1833'> +1.7193426E+03 </wgt>
<wgt id='1834'> +1.6992869E+03 </wgt>
<wgt id='1835'> +1.7210993E+03 </wgt>
<wgt id='1836'> +1.7249475E+03 </wgt>
<wgt id='1837'> +1.6951962E+03 </wgt>
<wgt id='1838'> +1.7289288E+03 </wgt>
<wgt id='1839'> +1.6919513E+03 </wgt>
<wgt id='1840'> +1.7698337E+03 </wgt>
<wgt id='1841'> +1.6534592E+03 </wgt>
<wgt id='1842'> +1.7357257E+03 </wgt>
<wgt id='1843'> +1.7010914E+03 </wgt>
<wgt id='1844'> +1.6606753E+03 </wgt>
<wgt id='1845'> +1.7609068E+03 </wgt>
<wgt id='1846'> +1.7065968E+03 </wgt>
<wgt id='1847'> +1.7135707E+03 </wgt>
<wgt id='1848'> +1.6753388E+03 </wgt>
<wgt id='1849'> +1.7435433E+03 </wgt>
<wgt id='1850'> +1.7475763E+03 </wgt>
<wgt id='1851'> +1.6604524E+03 </wgt>
<wgt id='1852'> +1.6556405E+03 </wgt>
<wgt id='1853'> +1.7537534E+03 </wgt>
<wgt id='1854'> +1.7159547E+03 </wgt>
<wgt id='1855'> +1.7072281E+03 </wgt>
<wgt id='1856'> +1.7088578E+03 </wgt>
<wgt id='1857'> +1.7125616E+03 </wgt>
<wgt id='1858'> +1.7624706E+03 </wgt>
<wgt id='1859'> +1.7018995E+03 </wgt>
<wgt id='1860'> +1.7056845E+03 </wgt>
<wgt id='1861'> +1.7908180E+03 </wgt>
<wgt id='1862'> +1.6209989E+03 </wgt>
<wgt id='1863'> +1.7074638E+03 </wgt>
<wgt id='1864'> +1.7249592E+03 </wgt>
<wgt id='1865'> +1.6659523E+03 </wgt>
<wgt id='1866'> +1.7451205E+03 </wgt>
<wgt id='1867'> +1.6621989E+03 </wgt>
<wgt id='1868'> +1.7701252E+03 </wgt>
<wgt id='1869'> +1.7712551E+03 </wgt>
<wgt id='1870'> +2.7156178E+03 </wgt>
<wgt id='1871'> +2.7151355E+03 </wgt>
<wgt id='1872'> +2.7146565E+03 </wgt>
<wgt id='1873'> +2.7141747E+03 </wgt>
<wgt id='1874'> +2.7136948E+03 </wgt>
<wgt id='1875'> +2.7132113E+03 </wgt>
<wgt id='1876'> +2.7127252E+03 </wgt>
<wgt id='1877'> +2.7122421E+03 </wgt>
<wgt id='1878'> +2.7117623E+03 </wgt>
<wgt id='1879'> +2.7112805E+03 </wgt>
<wgt id='1880'> +2.7108015E+03 </wgt>
<wgt id='1881'> +2.7103163E+03 </wgt>
<wgt id='1882'> +2.7098406E+03 </wgt>
<wgt id='1883'> +2.7093606E+03 </wgt>
<wgt id='1884'> +2.7088751E+03 </wgt>
<wgt id='1885'> +2.7083982E+03 </wgt>
<wgt id='1886'> +2.7079154E+03 </wgt>
<wgt id='1887'> +2.7074332E+03 </wgt>
<wgt id='1888'> +2.7069525E+03 </wgt>
<wgt id='1889'> +2.7064704E+03 </wgt>
<wgt id='1890'> +2.7059875E+03 </wgt>
<wgt id='1891'> +2.7055107E+03 </wgt>
<wgt id='1892'> +2.7050253E+03 </wgt>
<wgt id='1893'> +2.7045397E+03 </wgt>
<wgt id='1894'> +2.7040627E+03 </wgt>
<wgt id='1895'> +2.7035770E+03 </wgt>
<wgt id='1896'> +2.7031009E+03 </wgt>
<wgt id='1897'> +2.7026152E+03 </wgt>
<wgt id='1898'> +2.7021353E+03 </wgt>
<wgt id='1899'> +2.7016551E+03 </wgt>
<wgt id='1900'> +2.7011733E+03 </wgt>
<wgt id='1901'> +2.3619587E+03 </wgt>
<wgt id='1902'> +2.3867430E+03 </wgt>
<wgt id='1903'> +2.2725499E+03 </wgt>
<wgt id='1904'> +2.4658159E+03 </wgt>
<wgt id='1905'> +2.3950416E+03 </wgt>
<wgt id='1906'> +2.3607177E+03 </wgt>
<wgt id='1907'> +2.4127907E+03 </wgt>
<wgt id='1908'> +2.3426424E+03 </wgt>
<wgt id='1909'> +2.3791065E+03 </wgt>
<wgt id='1910'> +2.3456226E+03 </wgt>
<wgt id='1911'> +2.4115552E+03 </wgt>
<wgt id='1912'> +2.3624537E+03 </wgt>
<wgt id='1913'> +2.3538602E+03 </wgt>
<wgt id='1914'> +2.3986988E+03 </wgt>
<wgt id='1915'> +2.3121245E+03 </wgt>
<wgt id='1916'> +2.3251384E+03 </wgt>
<wgt id='1917'> +2.3397628E+03 </wgt>
<wgt id='1918'> +2.3580092E+03 </wgt>
<wgt id='1919'> +2.3386207E+03 </wgt>
<wgt id='1920'> +2.3622860E+03 </wgt>
<wgt id='1921'> +2.3903161E+03 </wgt>
<wgt id='1922'> +2.3486424E+03 </wgt>
<wgt id='1923'> +2.3562612E+03 </wgt>
<wgt id='1924'> +2.3669253E+03 </wgt>
<wgt id='1925'> +2.3802620E+03 </wgt>
<wgt id='1926'> +2.3613724E+03 </wgt>
<wgt id='1927'> +2.3628891E+03 </wgt>
<wgt id='1928'> +2.3941966E+03 </wgt>
<wgt id='1929'> +2.3612900E+03 </wgt>
<wgt id='1930'> +2.3627805E+03 </wgt>
<wgt id='1931'> +2.3597373E+03 </wgt>
<wgt id='1932'> +2.3765473E+03 </wgt>
<wgt id='1933'> +2.3499650E+03 </wgt>
<wgt id='1934'> +2.3635073E+03 </wgt>
<wgt id='1935'> +2.3414248E+03 </wgt>
<wgt id='1936'> +2.3807574E+03 </wgt>
<wgt id='1937'> +2.3696129E+03 </wgt>
<wgt id='1938'> +2.3780893E+03 </wgt>
<wgt id='1939'> +2.3621696E+03 </wgt>
<wgt id='1940'> +2.3941624E+03 </wgt>
<wgt id='1941'> +2.3651477E+03 </wgt>
<wgt id='1942'> +2.3493540E+03 </wgt>
<wgt id='1943'> +2.3487785E+03 </wgt>
<wgt id='1944'> +2.4168037E+03 </wgt>
<wgt id='1945'> +2.3501879E+03 </wgt>
<wgt id='1946'> +2.3428089E+03 </wgt>
<wgt id='1947'> +2.3919999E+03 </wgt>
<wgt id='1948'> +2.3568689E+03 </wgt>
<wgt id='1949'> +2.3727823E+03 </wgt>
<wgt id='1950'> +2.3451025E+03 </wgt>
<wgt id='1951'> +2.3750602E+03 </wgt>
<wgt id='1952'> +2.3844864E+03 </wgt>
<wgt id='1953'> +2.3811105E+03 </wgt>
<wgt id='1954'> +2.4164319E+03 </wgt>
<wgt id='1955'> +2.3966138E+03 </wgt>
<wgt id='1956'> +2.3543585E+03 </wgt>
<wgt id='1957'> +2.3723156E+03 </wgt>
<wgt id='1958'> +2.3491807E+03 </wgt>
<wgt id='1959'> +2.3925918E+03 </wgt>
<wgt id='1960'> +2.3310849E+03 </wgt>
<wgt id='1961'> +2.3599041E+03 </wgt>
<wgt id='1962'> +2.3857082E+03 </wgt>
<wgt id='1963'> +2.3938542E+03 </wgt>
<wgt id='1964'> +2.3442885E+03 </wgt>
<wgt id='1965'> +2.3321934E+03 </wgt>
<wgt id='1966'> +2.3572178E+03 </wgt>
<wgt id='1967'> +2.3768316E+03 </wgt>
<wgt id='1968'> +2.3283049E+03 </wgt>
<wgt id='1969'> +2.3785668E+03 </wgt>
<wgt id='1970'> +2.3470161E+03 </wgt>
<wgt id='1971'> +2.3799971E+03 </wgt>
<wgt id='1972'> +2.3257143E+03 </wgt>
<wgt id='1973'> +2.3615664E+03 </wgt>
<wgt id='1974'> +2.3052345E+03 </wgt>
<wgt id='1975'> +2.3388397E+03 </wgt>
<wgt id='1976'> +2.3393206E+03 </wgt>
<wgt id='1977'> +2.3655277E+03 </wgt>
<wgt id='1978'> +2.4174091E+03 </wgt>
<wgt id='1979'> +2.3814071E+03 </wgt>
<wgt id='1980'> +2.3694806E+03 </wgt>
<wgt id='1981'> +2.3230630E+03 </wgt>
<wgt id='1982'> +2.3909761E+03 </wgt>
<wgt id='1983'> +2.3684255E+03 </wgt>
<wgt id='1984'> +2.3454463E+03 </wgt>
<wgt id='1985'> +2.3426569E+03 </wgt>
<wgt id='1986'> +2.3367747E+03 </wgt>
<wgt id='1987'> +2.3722613E+03 </wgt>
<wgt id='1988'> +2.3645529E+03 </wgt>
<wgt id='1989'> +2.3382060E+03 </wgt>
<wgt id='1990'> +2.3848460E+03 </wgt>
<wgt id='1991'> +2.3054231E+03 </wgt>
<wgt id='1992'> +2.3471300E+03 </wgt>
<wgt id='1993'> +2.3121384E+03 </wgt>
<wgt id='1994'> +2.3522339E+03 </wgt>
<wgt id='1995'> +2.3437948E+03 </wgt>
<wgt id='1996'> +2.3769078E+03 </wgt>
<wgt id='1997'> +2.3852217E+03 </wgt>
<wgt id='1998'> +2.4039573E+03 </wgt>
<wgt id='1999'> +2.3941574E+03 </wgt>
<wgt id='2000'> +2.3933382E+03 </wgt>
<wgt id='2001'> +2.3830606E+03 </wgt>
<wgt id='2002'> +2.3619509E+03 </wgt>
<wgt id='2003'> +2.3619068E+03 </wgt>
<wgt id='2004'> +2.3619668E+03 </wgt>
<wgt id='2005'> +2.3619682E+03 </wgt>
<wgt id='2006'> +2.3619827E+03 </wgt>
<wgt id='2007'> +2.3619621E+03 </wgt>
<wgt id='2008'> +2.3619249E+03 </wgt>
<wgt id='2009'> +2.3299424E+03 </wgt>
<wgt id='2010'> +1.9838765E+03 </wgt>
<wgt id='2011'> +2.5180875E+03 </wgt>
<wgt id='2012'> +2.0846338E+03 </wgt>
<wgt id='2013'> +2.7046055E+03 </wgt>
<wgt id='2014'> +2.2978297E+03 </wgt>
<wgt id='2015'> +2.5342618E+03 </wgt>
<wgt id='2016'> +2.6688723E+03 </wgt>
<wgt id='2017'> +2.0819875E+03 </wgt>
<wgt id='2018'> +2.0883571E+03 </wgt>
<wgt id='2019'> +2.7436842E+03 </wgt>
<wgt id='2020'> +1.8816247E+03 </wgt>
<wgt id='2021'> +1.9386224E+03 </wgt>
<wgt id='2022'> +2.2414927E+03 </wgt>
<wgt id='2023'> +2.4795578E+03 </wgt>
<wgt id='2024'> +2.3944223E+03 </wgt>
<wgt id='2025'> +1.6160115E+03 </wgt>
<wgt id='2026'> +2.2793844E+03 </wgt>
<wgt id='2027'> +2.7473971E+03 </wgt>
<wgt id='2028'> +2.0817067E+03 </wgt>
<wgt id='2029'> +1.8589057E+03 </wgt>
<wgt id='2030'> +2.1140400E+03 </wgt>
<wgt id='2031'> +2.1431802E+03 </wgt>
<wgt id='2032'> +2.9838674E+03 </wgt>
<wgt id='2033'> +2.4591905E+03 </wgt>
<wgt id='2034'> +1.7199271E+03 </wgt>
<wgt id='2035'> +2.6594131E+03 </wgt>
<wgt id='2036'> +1.7544796E+03 </wgt>
<wgt id='2037'> +2.2925581E+03 </wgt>
<wgt id='2038'> +2.2805409E+03 </wgt>
<wgt id='2039'> +2.1089175E+03 </wgt>
<wgt id='2040'> +2.3816143E+03 </wgt>
<wgt id='2041'> +2.7380275E+03 </wgt>
<wgt id='2042'> +2.1410093E+03 </wgt>
<wgt id='2043'> +2.1177775E+03 </wgt>
<wgt id='2044'> +2.3300720E+03 </wgt>
<wgt id='2045'> +1.9888043E+03 </wgt>
<wgt id='2046'> +2.3851330E+03 </wgt>
<wgt id='2047'> +2.3697492E+03 </wgt>
<wgt id='2048'> +3.1337271E+03 </wgt>
<wgt id='2049'> +2.4601410E+03 </wgt>
<wgt id='2050'> +2.6745070E+03 </wgt>
<wgt id='2051'> +2.2558274E+03 </wgt>
<wgt id='2052'> +2.4303607E+03 </wgt>
<wgt id='2053'> +2.1947774E+03 </wgt>
<wgt id='2054'> +2.5787639E+03 </wgt>
<wgt id='2055'> +2.3190568E+03 </wgt>
<wgt id='2056'> +2.3978536E+03 </wgt>
<wgt id='2057'> +2.4637429E+03 </wgt>
<wgt id='2058'> +1.9617411E+03 </wgt>
<wgt id='2059'> +2.2318582E+03 </wgt>
<wgt id='2060'> +2.8087474E+03 </wgt>
<wgt id='2061'> +2.0785192E+03 </wgt>
<wgt id='2062'> +2.4299075E+03 </wgt>
<wgt id='2063'> +2.4179902E+03 </wgt>
<wgt id='2064'> +2.4533752E+03 </wgt>
<wgt id='2065'> +3.3495577E+03 </wgt>
<wgt id='2066'> +2.1911627E+03 </wgt>
<wgt id='2067'> +2.3509760E+03 </wgt>
<wgt id='2068'> +2.2720649E+03 </wgt>
<wgt id='2069'> +2.1559499E+03 </wgt>
<wgt id='2070'> +2.1587991E+03 </wgt>
<wgt id='2071'> +2.1117874E+03 </wgt>
<wgt id='2072'> +1.8129763E+03 </wgt>
<wgt id='2073'> +2.3369833E+03 </wgt>
<wgt id='2074'> +2.9992388E+03 </wgt>
<wgt id='2075'> +2.4473909E+03 </wgt>
<wgt id='2076'> +2.7966890E+03 </wgt>
<wgt id='2077'> +2.8101242E+03 </wgt>
<wgt id='2078'> +2.8670540E+03 </wgt>
<wgt id='2079'> +2.2706546E+03 </wgt>
<wgt id='2080'> +2.1894726E+03 </wgt>
<wgt id='2081'> +2.0455344E+03 </wgt>
<wgt id='2082'> +2.2888241E+03 </wgt>
<wgt id='2083'> +1.7996124E+03 </wgt>
<wgt id='2084'> +1.7247535E+03 </wgt>
<wgt id='2085'> +2.0519183E+03 </wgt>
<wgt id='2086'> +2.3475547E+03 </wgt>
<wgt id='2087'> +2.4611947E+03 </wgt>
<wgt id='2088'> +2.9076148E+03 </wgt>
<wgt id='2089'> +2.4368885E+03 </wgt>
<wgt id='2090'> +2.6424272E+03 </wgt>
<wgt id='2091'> +2.3048546E+03 </wgt>
<wgt id='2092'> +2.3656370E+03 </wgt>
<wgt id='2093'> +2.5332164E+03 </wgt>
<wgt id='2094'> +2.7650930E+03 </wgt>
<wgt id='2095'> +1.9497298E+03 </wgt>
<wgt id='2096'> +2.2546285E+03 </wgt>
<wgt id='2097'> +2.2730484E+03 </wgt>
<wgt id='2098'> +2.0645857E+03 </wgt>
<wgt id='2099'> +2.3213134E+03 </wgt>
<wgt id='2100'> +1.9336308E+03 </wgt>
<wgt id='2101'> +2.1843657E+03 </wgt>
<wgt id='2102'> +2.4521950E+03 </wgt>
<wgt id='2103'> +2.0119578E+03 </wgt>
<wgt id='2104'> +1.6666633E+03 </wgt>
<wgt id='2105'> +2.5127178E+03 </wgt>
<wgt id='2106'> +3.2989439E+03 </wgt>
<wgt id='2107'> +2.5448757E+03 </wgt>
<wgt id='2108'> +2.2809888E+03 </wgt>
<wgt id='2109'> +1.9688164E+03 </wgt>
<wgt id='2110'> +2.3021046E+03 </wgt>
<wgt id='2111'> +2.4661522E+03 </wgt>
<wgt id='2112'> +2.2532830E+03 </wgt>
<wgt id='2113'> +2.8099353E+03 </wgt>
<wgt id='2114'> +3.1611608E+03 </wgt>
<wgt id='2115'> +2.9677548E+03 </wgt>
<wgt id='2116'> +4.0448038E+03 </wgt>
</rwgt>
</event>
</LesHouchesEvents>
