<LesHouchesEvents version="3.0">
<header>
<!--
#*********************************************************************
#                                                                    *
#                         MadGraph5_aMC@NLO                          *
#                                                                    *
#                   http://madgraph.hep.uiuc.edu                     *
#                   http://madgraph.phys.ucl.ac.be                   *
#                   http://amcatnlo.cern.ch                          *
#                                                                    *
#                     The MadGraph5_aMC@NLO team                     *
#                                                                    *
#....................................................................*
#                                                                    *
# This file contains all the information necessary to reproduce      *
# the events generated                                               *
#                                                                    *
# 1. software version                                                *
# 2. proc_card.dat      : code generation info including model       *
# 3. param_card.dat     : model primary parameters in the LH format  *
# 4. run_card.dat       : running parameters (collider and cuts)     *
#                                                                    *
#                                                                    *
#*********************************************************************
-->
<MGVersion>
#5.2.6.5
</MGVersion>
<MG5ProcCard>
<![CDATA[
#************************************************************                                                                                         
#*                     MadGraph5_aMC@NLO                    *                                                                                         
#*                                                          *                                                                                         
#*                *                       *                 *                                                                                         
#*                  *        * *        *                   *                                                                                         
#*                    * * * * 5 * * * *                     *                                                                                         
#*                  *        * *        *                   *                                                                                         
#*                *                       *                 *                                                                                         
#*                                                          *                                                                                         
#*                                                          *                                                                                         
#*         VERSION 2.6.5                 2018-02-03         *                                                                                         
#*                                                          *                                                                                         
#*    The MadGraph5_aMC@NLO Development Team - Find us at   *                                                                                         
#*    https://server06.fynu.ucl.ac.be/projects/madgraph     *                                                                                         
#*                                                          *                                                                                         
#************************************************************                                                                                         
#*                                                          *                                                                                         
#*               Command File for MadGraph5_aMC@NLO         *                                                                                         
#*                                                          *                                                                                         
#*     run as ./bin/mg5_aMC  filename                       *                                                                                         
#*                                                          *                                                                                         
#************************************************************                                                                                         
set default_unset_couplings 99                                                                                                                        
set group_subprocesses Auto                                                                                                                           
set ignore_six_quark_processes False                                                                                                                  
set loop_optimized_output True                                                                                                                        
set loop_color_flows False                                                                                                                            
set gauge unitary                                                                                                                                     
set complex_mass_scheme False                                                                                                                         
set max_npoint_for_channel 0                                                                                                                          
import model HC_NLO_X0_UFO-heft                                                                                                                       
define p = g u c d s u~ c~ d~ s~                                                                                                                      
define j = g u c d s u~ c~ d~ s~                                                                                                                      
define l+ = e+ mu+                                                                                                                                    
define l- = e- mu-                                                                                                                                    
define vl = ve vm vt                                                                                                                                  
define vl~ = ve~ vm~ vt~                                                                                                                              
define p = 21 2 4 1 3 -2 -4 -1 -3 5 -5 # pass to 5 flavors                                                                                            
define j = p                                                                                                                                          
generate p p > x0 / t [QCD] @0                                                                                                                        
add process p p > x0 j / t [QCD] @1                                                                                                                   
add process p p > x0 j j / t [QCD] @2                                                                                                                 
output ggh012j_5f_NLO_FXFX_100 -nojpeg
]]>
</MG5ProcCard>
<MGRunCard>
<![CDATA[
#***********************************************************************                                                                              
#                        MadGraph5_aMC@NLO                             *                                                                              
#                                                                      *                                                                              
#                      run_card.dat aMC@NLO                            *                                                                              
#                                                                      *                                                                              
#  This file is used to set the parameters of the run.                 *                                                                              
#                                                                      *                                                                              
#  Some notation/conventions:                                          *                                                                              
#                                                                      *                                                                              
#   Lines starting with a hash (#) are info or comments                *                                                                              
#                                                                      *                                                                              
#   mind the format:   value    = variable     ! comment               *                                                                              
#                                                                      *                                                                              
#   Some of the values of variables can be list. These can either be   *                                                                              
#   comma or space separated.                                          *                                                                              
#                                                                      *                                                                              
#   To display additional parameter, you can use the command:          *                                                                              
#      update to_full                                                  *                                                                              
#***********************************************************************                                                                              
#                                                                                                                                                     
#*******************                                                                                                                                  
# Running parameters                                                                                                                                  
#*******************                                                                                                                                  
#                                                                                                                                                     
#***********************************************************************                                                                              
# Tag name for the run (one word)                                      *                                                                              
#***********************************************************************                                                                              
  tag_1	= run_tag ! name of the run                                                                                                                   
#***********************************************************************                                                                              
# Number of LHE events (and their normalization) and the required      *                                                                              
# (relative) accuracy on the Xsec.                                     *                                                                              
# These values are ignored for fixed order runs                        *                                                                              
#***********************************************************************                                                                              
         10 = nevents                                                                                                                                 
  0.001	= req_acc ! Required accuracy (-1=auto determined from nevents)                                                                               
  20	= nevt_job ! Max number of events per job in event generation.                                                                                   
                 !  (-1= no split).                                                                                                                   
#***********************************************************************                                                                              
# Normalize the weights of LHE events such that they sum or average to *                                                                              
# the total cross section                                              *                                                                              
#***********************************************************************                                                                              
  average	= event_norm ! valid settings: average, sum, bias                                                                                           
#***********************************************************************                                                                              
# Number of points per itegration channel (ignored for aMC@NLO runs)   *                                                                              
#***********************************************************************                                                                              
  0.01	= req_acc_fo ! Required accuracy (-1=ignored, and use the                                                                                      
 	                   ! number of points and iter. below)                                                                                              
# These numbers are ignored except if req_acc_FO is equal to -1                                                                                       
  5000	= npoints_fo_grid ! number of points to setup grids                                                                                            
  4	= niters_fo_grid ! number of iter. to setup grids                                                                                                 
  10000	= npoints_fo ! number of points to compute Xsec                                                                                               
  6	= niters_fo ! number of iter. to compute Xsec                                                                                                     
#***********************************************************************                                                                              
# Random number seed                                                   *                                                                              
#***********************************************************************                                                                              
          1 =  iseed                                                                                                                                  
#***********************************************************************                                                                              
# Collider type and energy                                             *                                                                              
#***********************************************************************                                                                              
  1	= lpp1 ! beam 1 type (0 = no PDF)                                                                                                                 
  1	= lpp2 ! beam 2 type (0 = no PDF)                                                                                                                 
  6500.0	= ebeam1 ! beam 1 energy in GeV                                                                                                              
  6500.0	= ebeam2 ! beam 2 energy in GeV                                                                                                              
#***********************************************************************                                                                              
# PDF choice: this automatically fixes also alpha_s(MZ) and its evol.  *                                                                              
#***********************************************************************                                                                              
  lhapdf	= pdlabel ! PDF set                                                                                                                          
  325300	= lhaid ! If pdlabel=lhapdf, this is the lhapdf number. Only                                                                                 
              ! numbers for central PDF sets are allowed. Can be a list;                                                                              
              ! PDF sets beyond the first are included via reweighting.                                                                               
#***********************************************************************                                                                              
# Include the NLO Monte Carlo subtr. terms for the following parton    *                                                                              
# shower (HERWIG6 | HERWIGPP | PYTHIA6Q | PYTHIA6PT | PYTHIA8)         *                                                                              
# WARNING: PYTHIA6PT works only for processes without FSR!!!!          *                                                                              
#***********************************************************************                                                                              
  PYTHIA8	= parton_shower                                                                                                                             
  1.0	= shower_scale_factor ! multiply default shower starting                                                                                        
                                  ! scale by this factor                                                                                              
#***********************************************************************                                                                              
# Renormalization and factorization scales                             *                                                                              
# (Default functional form for the non-fixed scales is the sum of      *                                                                              
# the transverse masses divided by two of all final state particles    *                                                                              
# and partons. This can be changed in SubProcesses/set_scales.f or via *                                                                              
# dynamical_scale_choice option)                                       *                                                                              
#***********************************************************************                                                                              
  False	= fixed_ren_scale ! if .true. use fixed ren scale                                                                                             
  False	= fixed_fac_scale ! if .true. use fixed fac scale                                                                                             
  91.188	= mur_ref_fixed ! fixed ren reference scale                                                                                                  
  91.188	= muf_ref_fixed ! fixed fact reference scale                                                                                                 
  -1	= dynamical_scale_choice ! Choose one (or more) of the predefined                                                                                
           ! dynamical choices. Can be a list; scale choices beyond the                                                                               
           ! first are included via reweighting                                                                                                       
  1.0	= mur_over_ref ! ratio of current muR over reference muR                                                                                        
  1.0	= muf_over_ref ! ratio of current muF over reference muF                                                                                        
#***********************************************************************                                                                              
# Reweight variables for scale dependence and PDF uncertainty          *                                                                              
#***********************************************************************                                                                              
  1.0, 2.0, 0.5	= rw_rscale ! muR factors to be included by reweighting                                                                               
  1.0, 2.0, 0.5	= rw_fscale ! muF factors to be included by reweighting                                                                               
  True	= reweight_scale ! Reweight to get scale variation using the                                                                                   
            ! rw_rscale and rw_fscale factors. Should be a list of                                                                                    
            ! booleans of equal length to dynamical_scale_choice to                                                                                   
            ! specify for which choice to include scale dependence.                                                                                   
  False	= reweight_pdf ! Reweight to get PDF uncertainty. Should be a                                                                                 
            ! list booleans of equal length to lhaid to specify for                                                                                   
            !  which PDF set to include the uncertainties.                                                                                            
#***********************************************************************                                                                              
# Store reweight information in the LHE file for off-line model-       *                                                                              
# parameter reweighting at NLO+PS accuracy                             *                                                                              
#***********************************************************************                                                                              
  True	= store_rwgt_info ! Store info for reweighting in LHE file                                                                                     
#***********************************************************************                                                                              
# ickkw parameter:                                                     *                                                                              
#   0: No merging                                                      *                                                                              
#   3: FxFx Merging - WARNING! Applies merging only at the hard-event  *                                                                              
#      level. After showering an MLM-type merging should be applied as *                                                                              
#      well. See http://amcatnlo.cern.ch/FxFx_merging.htm for details. *                                                                              
#   4: UNLOPS merging (with pythia8 only). No interface from within    *                                                                              
#      MG5_aMC available, but available in Pythia8.                    *                                                                              
#  -1: NNLL+NLO jet-veto computation. See arxiv:1412.8408 [hep-ph].    *                                                                              
#***********************************************************************                                                                              
  3	= ickkw                                                                                                                                           
#***********************************************************************                                                                              
#                                                                                                                                                     
#***********************************************************************                                                                              
# BW cutoff (M+/-bwcutoff*Gamma). Determines which resonances are      *                                                                              
# written in the LHE event file                                        *                                                                              
#***********************************************************************                                                                              
  15.0	= bwcutoff                                                                                                                                     
#***********************************************************************                                                                              
# Cuts on the jets. Jet clustering is performed by FastJet.            *                                                                              
#  - When matching to a parton shower, these generation cuts should be *                                                                              
#    considerably softer than the analysis cuts.                       *                                                                              
#  - More specific cuts can be specified in SubProcesses/cuts.f        *                                                                              
#***********************************************************************                                                                              
  1.0	= jetalgo ! FastJet jet algorithm (1=kT, 0=C/A, -1=anti-kT)                                                                                     
  1.0	= jetradius ! The radius parameter for the jet algorithm                                                                                        
  10.0	= ptj ! Min jet transverse momentum                                                                                                            
  -1.0	= etaj ! Max jet abs(pseudo-rap) (a value .lt.0 means no cut)                                                                                  
#***********************************************************************                                                                              
# Cuts on the charged leptons (e+, e-, mu+, mu-, tau+ and tau-)        *                                                                              
# More specific cuts can be specified in SubProcesses/cuts.f           *                                                                              
#***********************************************************************                                                                              
  0.0	= ptl ! Min lepton transverse momentum                                                                                                          
  -1.0	= etal ! Max lepton abs(pseudo-rap) (a value .lt.0 means no cut)                                                                               
  0.0	= drll ! Min distance between opposite sign lepton pairs                                                                                        
  0.0	= drll_sf ! Min distance between opp. sign same-flavor lepton pairs                                                                             
  0.0	= mll ! Min inv. mass of all opposite sign lepton pairs                                                                                         
  30.0	= mll_sf ! Min inv. mass of all opp. sign same-flavor lepton pairs                                                                             
#***********************************************************************                                                                              
# Photon-isolation cuts, according to hep-ph/9801442. When ptgmin=0,   *                                                                              
# all the other parameters are ignored.                                *                                                                              
# More specific cuts can be specified in SubProcesses/cuts.f           *                                                                              
#***********************************************************************                                                                              
  20.0	= ptgmin ! Min photon transverse momentum                                                                                                      
  -1.0	= etagamma ! Max photon abs(pseudo-rap)                                                                                                        
  0.4	= r0gamma ! Radius of isolation code                                                                                                            
  1.0	= xn ! n parameter of eq.(3.4) in hep-ph/9801442                                                                                                
  1.0	= epsgamma ! epsilon_gamma parameter of eq.(3.4) in hep-ph/9801442                                                                              
  True	= isoem ! isolate photons from EM energy (photons and leptons)                                                                                 
#***********************************************************************                                                                              
# Cuts associated to MASSIVE particles identified by their PDG codes.  *                                                                              
# All cuts are applied to both particles and anti-particles, so use    *                                                                              
# POSITIVE PDG CODES only. Example of the syntax is {6 : 100} or       *                                                                              
# {6:100, 25:200} for multiple particles                               *                                                                              
#***********************************************************************                                                                              
  {}	= pt_min_pdg ! Min pT for a massive particle                                                                                                     
  {}	= pt_max_pdg ! Max pT for a massive particle                                                                                                     
  {}	= mxx_min_pdg ! inv. mass for any pair of (anti)particles                                                                                        
#***********************************************************************                                                                              
# For aMCfast+APPLGRID use in PDF fitting (http://amcfast.hepforge.org)*                                                                              
#***********************************************************************                                                                              
  0	= iappl ! aMCfast switch (0=OFF, 1=prepare grids, 2=fill grids)                                                                                   
#***********************************************************************                                                                              
#*********************************************************************                                                                                
#  Additional hidden parameters                                                                                                                       
#*********************************************************************                                                                                
  1.0	= muf1_over_ref # hidden_parameter                                                                                                              
  1.0	= muf2_over_ref # hidden_parameter                                                                                                              
  91.188	= qes_ref_fixed # hidden_parameter                                                                                                           
  False	= fixed_qes_scale # hidden_parameter                                                                                                          
  0.5	= rw_rscale_down # hidden_parameter                                                                                                             
  91.188	= muf1_ref_fixed # hidden_parameter                                                                                                          
  1.0	= qes_over_ref # hidden_parameter                                                                                                               
  5	= maxjetflavor # hidden_parameter                                                                                                                 
  2.0	= rw_fscale_up # hidden_parameter                                                                                                               
  0.5	= rw_fscale_down # hidden_parameter                                                                                                             
  2.0	= rw_rscale_up # hidden_parameter                                                                                                               
  91.188	= muf2_ref_fixed # hidden_parameter
]]>
</MGRunCard>
<slha>
######################################################################                                                                                
## PARAM_CARD AUTOMATICALY GENERATED BY MG5                       ####                                                                                
######################################################################                                                                                
###################################                                                                                                                   
## INFORMATION FOR FRBLOCK                                                                                                                            
###################################                                                                                                                   
BLOCK FRBLOCK #                                                                                                                                       
      1 1.000000e+03 # lambda                                                                                                                         
      2 1.000000e+00 # cosa                                                                                                                           
      3 1.000000e+00 # ksm                                                                                                                            
      8 1.000000e+00 # khll                                                                                                                           
      9 1.000000e+00 # kall                                                                                                                           
      10 1.000000e+00 # khaa                                                                                                                          
      11 1.000000e+00 # kaaa                                                                                                                          
      12 1.000000e+00 # khza                                                                                                                          
      13 1.000000e+00 # kaza                                                                                                                          
      14 1.000000e+00 # khgg                                                                                                                          
      15 1.000000e+00 # kagg                                                                                                                          
      16 0.000000e+00 # khzz                                                                                                                          
      17 0.000000e+00 # kazz                                                                                                                          
      18 0.000000e+00 # khww                                                                                                                          
      19 0.000000e+00 # kaww                                                                                                                          
      20 0.000000e+00 # khda                                                                                                                          
      21 0.000000e+00 # khdz                                                                                                                          
      22 0.000000e+00 # khdwr (real part of khdw)                                                                                                     
      23 0.000000e+00 # khdwi (imaginary part of khdw)                                                                                                
###################################                                                                                                                   
## INFORMATION FOR LOOP                                                                                                                               
###################################                                                                                                                   
BLOCK LOOP #                                                                                                                                          
      1 9.118800e+01 # mu_r                                                                                                                           
###################################                                                                                                                   
## INFORMATION FOR SMINPUTS                                                                                                                           
###################################                                                                                                                   
BLOCK SMINPUTS #                                                                                                                                      
      1 1.325070e+02 # aewm1                                                                                                                          
      2 1.166390e-05 # gf                                                                                                                             
      3 1.180000e-01 # as                                                                                                                             
###################################                                                                                                                   
## INFORMATION FOR MASS                                                                                                                               
###################################                                                                                                                   
BLOCK MASS #                                                                                                                                          
      6 1.730000e+02 # mt                                                                                                                             
      15 1.777000e+00 # mta                                                                                                                           
      23 9.118800e+01 # mz                                                                                                                            
      25 1.000000e+02 # mx0                                                                                                                           
      1 0.000000e+00 # d : 0.0                                                                                                                        
      2 0.000000e+00 # u : 0.0                                                                                                                        
      3 0.000000e+00 # s : 0.0                                                                                                                        
      4 0.000000e+00 # c : 0.0                                                                                                                        
      5 0.000000e+00 # b : 0.0                                                                                                                        
      11 0.000000e+00 # e- : 0.0                                                                                                                      
      12 0.000000e+00 # ve : 0.0                                                                                                                      
      13 0.000000e+00 # mu- : 0.0                                                                                                                     
      14 0.000000e+00 # vm : 0.0                                                                                                                      
      16 0.000000e+00 # vt : 0.0                                                                                                                      
      21 0.000000e+00 # g : 0.0                                                                                                                       
      22 0.000000e+00 # a : 0.0                                                                                                                       
      24 8.041900e+01 # w+ : cmath.sqrt(mz__exp__2/2. + cmath.sqrt(mz__exp__4/4. - (aew*cmath.pi*mz__exp__2)/(gf*sqrt__2)))                           
      82 0.000000e+00 # gh : 0.0                                                                                                                      
###################################                                                                                                                   
## INFORMATION FOR YUKAWA                                                                                                                             
###################################                                                                                                                   
BLOCK YUKAWA #                                                                                                                                        
      15 1.777000e+00 # ymtau                                                                                                                         
###################################                                                                                                                   
## INFORMATION FOR DECAY                                                                                                                              
###################################                                                                                                                   
DECAY 6 1.491500e+00 # top width                                                                                                                      
DECAY 23 2.441404e+00 # z width                                                                                                                       
DECAY 24 2.047600e+00 # w width                                                                                                                       
DECAY 25 4.070000e-03 # x0 width                                                                                                                      
DECAY 1 0.000000e+00 # d : 0.0                                                                                                                        
DECAY 2 0.000000e+00 # u : 0.0                                                                                                                        
DECAY 3 0.000000e+00 # s : 0.0                                                                                                                        
DECAY 4 0.000000e+00 # c : 0.0                                                                                                                        
DECAY 5 0.000000e+00 # b : 0.0                                                                                                                        
DECAY 11 0.000000e+00 # e- : 0.0                                                                                                                      
DECAY 12 0.000000e+00 # ve : 0.0                                                                                                                      
DECAY 13 0.000000e+00 # mu- : 0.0                                                                                                                     
DECAY 14 0.000000e+00 # vm : 0.0                                                                                                                      
DECAY 15 0.000000e+00 # ta- : 0.0                                                                                                                     
DECAY 16 0.000000e+00 # vt : 0.0                                                                                                                      
DECAY 21 0.000000e+00 # g : 0.0                                                                                                                       
DECAY 22 0.000000e+00 # a : 0.0                                                                                                                       
DECAY 82 0.000000e+00 # gh : 0.0                                                                                                                      
###################################                                                                                                                   
## INFORMATION FOR QNUMBERS 82                                                                                                                        
###################################                                                                                                                   
BLOCK QNUMBERS 82 #  gh                                                                                                                               
      1 0 # 3 times electric charge                                                                                                                   
      2 1 # number of spin states (2s+1)                                                                                                              
      3 8 # colour rep (1: singlet, 3: triplet, 8: octet)                                                                                             
      4 1 # particle/antiparticle distinction (0=own anti)
</slha>
<initrwgt>
<weightgroup name="NNPDF31_nnlo_as_0118_mc_hessian_pdfas" combine="symmhessian+as"> # 325300: NNPDF3.1 NNLO global fit, alphas(MZ)=0.118. mem=0 ; average on replicas (setting negative replicas to zero); mem=1-100 ; PDF eig.; mem=101 ; central value (forced positive definite) Alphas(MZ)=0.116; mem=102 ; central value (forced positive definite) Alphas(MZ)=0.120
<weight id="1001" MUR="1.0" MUF="1.0" PDF="325300" >  </weight>
<weightgroup name="Central scale variation" combine="envelope">
</weightgroup> PDF 
<weight id="1002" MUR="2.0" MUF="1.0" PDF="325300" > MUR=2.0  </weight>
<weight id="1003" MUR="0.5" MUF="1.0" PDF="325300" > MUR=0.5  </weight>
<weight id="1004" MUR="1.0" MUF="2.0" PDF="325300" > MUF=2.0  </weight>
<weight id="1005" MUR="2.0" MUF="2.0" PDF="325300" > MUR=2.0 MUF=2.0  </weight>
<weight id="1006" MUR="0.5" MUF="2.0" PDF="325300" > MUR=0.5 MUF=2.0  </weight>
<weight id="1007" MUR="1.0" MUF="0.5" PDF="325300" > MUF=0.5  </weight>
<weight id="1008" MUR="2.0" MUF="0.5" PDF="325300" > MUR=2.0 MUF=0.5  </weight>
<weight id="1009" MUR="0.5" MUF="0.5" PDF="325300" > MUR=0.5 MUF=0.5  </weight>
</weightgroup> # scale
<weightgroup name="NNPDF31_nnlo_as_0118_mc_hessian_pdfas" combine="symmhessian+as"> # 325300: NNPDF3.1 NNLO global fit, alphas(MZ)=0.118. mem=0 ; average on replicas (setting negative replicas to zero); mem=1-100 ; PDF eig.; mem=101 ; central value (forced positive definite) Alphas(MZ)=0.116; mem=102 ; central value (forced positive definite) Alphas(MZ)=0.120
<weight id="1010" MUR="1.0" MUF="1.0" PDF="325300" >  </weight>
<weight id="1011" MUR="1.0" MUF="1.0" PDF="325301" > PDF=325300 MemberID=1 </weight>
<weight id="1012" MUR="1.0" MUF="1.0" PDF="325302" > PDF=325300 MemberID=2 </weight>
<weight id="1013" MUR="1.0" MUF="1.0" PDF="325303" > PDF=325300 MemberID=3 </weight>
<weight id="1014" MUR="1.0" MUF="1.0" PDF="325304" > PDF=325300 MemberID=4 </weight>
<weight id="1015" MUR="1.0" MUF="1.0" PDF="325305" > PDF=325300 MemberID=5 </weight>
<weight id="1016" MUR="1.0" MUF="1.0" PDF="325306" > PDF=325300 MemberID=6 </weight>
<weight id="1017" MUR="1.0" MUF="1.0" PDF="325307" > PDF=325300 MemberID=7 </weight>
<weight id="1018" MUR="1.0" MUF="1.0" PDF="325308" > PDF=325300 MemberID=8 </weight>
<weight id="1019" MUR="1.0" MUF="1.0" PDF="325309" > PDF=325300 MemberID=9 </weight>
<weight id="1020" MUR="1.0" MUF="1.0" PDF="325310" > PDF=325300 MemberID=10 </weight>
<weight id="1021" MUR="1.0" MUF="1.0" PDF="325311" > PDF=325300 MemberID=11 </weight>
<weight id="1022" MUR="1.0" MUF="1.0" PDF="325312" > PDF=325300 MemberID=12 </weight>
<weight id="1023" MUR="1.0" MUF="1.0" PDF="325313" > PDF=325300 MemberID=13 </weight>
<weight id="1024" MUR="1.0" MUF="1.0" PDF="325314" > PDF=325300 MemberID=14 </weight>
<weight id="1025" MUR="1.0" MUF="1.0" PDF="325315" > PDF=325300 MemberID=15 </weight>
<weight id="1026" MUR="1.0" MUF="1.0" PDF="325316" > PDF=325300 MemberID=16 </weight>
<weight id="1027" MUR="1.0" MUF="1.0" PDF="325317" > PDF=325300 MemberID=17 </weight>
<weight id="1028" MUR="1.0" MUF="1.0" PDF="325318" > PDF=325300 MemberID=18 </weight>
<weight id="1029" MUR="1.0" MUF="1.0" PDF="325319" > PDF=325300 MemberID=19 </weight>
<weight id="1030" MUR="1.0" MUF="1.0" PDF="325320" > PDF=325300 MemberID=20 </weight>
<weight id="1031" MUR="1.0" MUF="1.0" PDF="325321" > PDF=325300 MemberID=21 </weight>
<weight id="1032" MUR="1.0" MUF="1.0" PDF="325322" > PDF=325300 MemberID=22 </weight>
<weight id="1033" MUR="1.0" MUF="1.0" PDF="325323" > PDF=325300 MemberID=23 </weight>
<weight id="1034" MUR="1.0" MUF="1.0" PDF="325324" > PDF=325300 MemberID=24 </weight>
<weight id="1035" MUR="1.0" MUF="1.0" PDF="325325" > PDF=325300 MemberID=25 </weight>
<weight id="1036" MUR="1.0" MUF="1.0" PDF="325326" > PDF=325300 MemberID=26 </weight>
<weight id="1037" MUR="1.0" MUF="1.0" PDF="325327" > PDF=325300 MemberID=27 </weight>
<weight id="1038" MUR="1.0" MUF="1.0" PDF="325328" > PDF=325300 MemberID=28 </weight>
<weight id="1039" MUR="1.0" MUF="1.0" PDF="325329" > PDF=325300 MemberID=29 </weight>
<weight id="1040" MUR="1.0" MUF="1.0" PDF="325330" > PDF=325300 MemberID=30 </weight>
<weight id="1041" MUR="1.0" MUF="1.0" PDF="325331" > PDF=325300 MemberID=31 </weight>
<weight id="1042" MUR="1.0" MUF="1.0" PDF="325332" > PDF=325300 MemberID=32 </weight>
<weight id="1043" MUR="1.0" MUF="1.0" PDF="325333" > PDF=325300 MemberID=33 </weight>
<weight id="1044" MUR="1.0" MUF="1.0" PDF="325334" > PDF=325300 MemberID=34 </weight>
<weight id="1045" MUR="1.0" MUF="1.0" PDF="325335" > PDF=325300 MemberID=35 </weight>
<weight id="1046" MUR="1.0" MUF="1.0" PDF="325336" > PDF=325300 MemberID=36 </weight>
<weight id="1047" MUR="1.0" MUF="1.0" PDF="325337" > PDF=325300 MemberID=37 </weight>
<weight id="1048" MUR="1.0" MUF="1.0" PDF="325338" > PDF=325300 MemberID=38 </weight>
<weight id="1049" MUR="1.0" MUF="1.0" PDF="325339" > PDF=325300 MemberID=39 </weight>
<weight id="1050" MUR="1.0" MUF="1.0" PDF="325340" > PDF=325300 MemberID=40 </weight>
<weight id="1051" MUR="1.0" MUF="1.0" PDF="325341" > PDF=325300 MemberID=41 </weight>
<weight id="1052" MUR="1.0" MUF="1.0" PDF="325342" > PDF=325300 MemberID=42 </weight>
<weight id="1053" MUR="1.0" MUF="1.0" PDF="325343" > PDF=325300 MemberID=43 </weight>
<weight id="1054" MUR="1.0" MUF="1.0" PDF="325344" > PDF=325300 MemberID=44 </weight>
<weight id="1055" MUR="1.0" MUF="1.0" PDF="325345" > PDF=325300 MemberID=45 </weight>
<weight id="1056" MUR="1.0" MUF="1.0" PDF="325346" > PDF=325300 MemberID=46 </weight>
<weight id="1057" MUR="1.0" MUF="1.0" PDF="325347" > PDF=325300 MemberID=47 </weight>
<weight id="1058" MUR="1.0" MUF="1.0" PDF="325348" > PDF=325300 MemberID=48 </weight>
<weight id="1059" MUR="1.0" MUF="1.0" PDF="325349" > PDF=325300 MemberID=49 </weight>
<weight id="1060" MUR="1.0" MUF="1.0" PDF="325350" > PDF=325300 MemberID=50 </weight>
<weight id="1061" MUR="1.0" MUF="1.0" PDF="325351" > PDF=325300 MemberID=51 </weight>
<weight id="1062" MUR="1.0" MUF="1.0" PDF="325352" > PDF=325300 MemberID=52 </weight>
<weight id="1063" MUR="1.0" MUF="1.0" PDF="325353" > PDF=325300 MemberID=53 </weight>
<weight id="1064" MUR="1.0" MUF="1.0" PDF="325354" > PDF=325300 MemberID=54 </weight>
<weight id="1065" MUR="1.0" MUF="1.0" PDF="325355" > PDF=325300 MemberID=55 </weight>
<weight id="1066" MUR="1.0" MUF="1.0" PDF="325356" > PDF=325300 MemberID=56 </weight>
<weight id="1067" MUR="1.0" MUF="1.0" PDF="325357" > PDF=325300 MemberID=57 </weight>
<weight id="1068" MUR="1.0" MUF="1.0" PDF="325358" > PDF=325300 MemberID=58 </weight>
<weight id="1069" MUR="1.0" MUF="1.0" PDF="325359" > PDF=325300 MemberID=59 </weight>
<weight id="1070" MUR="1.0" MUF="1.0" PDF="325360" > PDF=325300 MemberID=60 </weight>
<weight id="1071" MUR="1.0" MUF="1.0" PDF="325361" > PDF=325300 MemberID=61 </weight>
<weight id="1072" MUR="1.0" MUF="1.0" PDF="325362" > PDF=325300 MemberID=62 </weight>
<weight id="1073" MUR="1.0" MUF="1.0" PDF="325363" > PDF=325300 MemberID=63 </weight>
<weight id="1074" MUR="1.0" MUF="1.0" PDF="325364" > PDF=325300 MemberID=64 </weight>
<weight id="1075" MUR="1.0" MUF="1.0" PDF="325365" > PDF=325300 MemberID=65 </weight>
<weight id="1076" MUR="1.0" MUF="1.0" PDF="325366" > PDF=325300 MemberID=66 </weight>
<weight id="1077" MUR="1.0" MUF="1.0" PDF="325367" > PDF=325300 MemberID=67 </weight>
<weight id="1078" MUR="1.0" MUF="1.0" PDF="325368" > PDF=325300 MemberID=68 </weight>
<weight id="1079" MUR="1.0" MUF="1.0" PDF="325369" > PDF=325300 MemberID=69 </weight>
<weight id="1080" MUR="1.0" MUF="1.0" PDF="325370" > PDF=325300 MemberID=70 </weight>
<weight id="1081" MUR="1.0" MUF="1.0" PDF="325371" > PDF=325300 MemberID=71 </weight>
<weight id="1082" MUR="1.0" MUF="1.0" PDF="325372" > PDF=325300 MemberID=72 </weight>
<weight id="1083" MUR="1.0" MUF="1.0" PDF="325373" > PDF=325300 MemberID=73 </weight>
<weight id="1084" MUR="1.0" MUF="1.0" PDF="325374" > PDF=325300 MemberID=74 </weight>
<weight id="1085" MUR="1.0" MUF="1.0" PDF="325375" > PDF=325300 MemberID=75 </weight>
<weight id="1086" MUR="1.0" MUF="1.0" PDF="325376" > PDF=325300 MemberID=76 </weight>
<weight id="1087" MUR="1.0" MUF="1.0" PDF="325377" > PDF=325300 MemberID=77 </weight>
<weight id="1088" MUR="1.0" MUF="1.0" PDF="325378" > PDF=325300 MemberID=78 </weight>
<weight id="1089" MUR="1.0" MUF="1.0" PDF="325379" > PDF=325300 MemberID=79 </weight>
<weight id="1090" MUR="1.0" MUF="1.0" PDF="325380" > PDF=325300 MemberID=80 </weight>
<weight id="1091" MUR="1.0" MUF="1.0" PDF="325381" > PDF=325300 MemberID=81 </weight>
<weight id="1092" MUR="1.0" MUF="1.0" PDF="325382" > PDF=325300 MemberID=82 </weight>
<weight id="1093" MUR="1.0" MUF="1.0" PDF="325383" > PDF=325300 MemberID=83 </weight>
<weight id="1094" MUR="1.0" MUF="1.0" PDF="325384" > PDF=325300 MemberID=84 </weight>
<weight id="1095" MUR="1.0" MUF="1.0" PDF="325385" > PDF=325300 MemberID=85 </weight>
<weight id="1096" MUR="1.0" MUF="1.0" PDF="325386" > PDF=325300 MemberID=86 </weight>
<weight id="1097" MUR="1.0" MUF="1.0" PDF="325387" > PDF=325300 MemberID=87 </weight>
<weight id="1098" MUR="1.0" MUF="1.0" PDF="325388" > PDF=325300 MemberID=88 </weight>
<weight id="1099" MUR="1.0" MUF="1.0" PDF="325389" > PDF=325300 MemberID=89 </weight>
<weight id="1100" MUR="1.0" MUF="1.0" PDF="325390" > PDF=325300 MemberID=90 </weight>
<weight id="1101" MUR="1.0" MUF="1.0" PDF="325391" > PDF=325300 MemberID=91 </weight>
<weight id="1102" MUR="1.0" MUF="1.0" PDF="325392" > PDF=325300 MemberID=92 </weight>
<weight id="1103" MUR="1.0" MUF="1.0" PDF="325393" > PDF=325300 MemberID=93 </weight>
<weight id="1104" MUR="1.0" MUF="1.0" PDF="325394" > PDF=325300 MemberID=94 </weight>
<weight id="1105" MUR="1.0" MUF="1.0" PDF="325395" > PDF=325300 MemberID=95 </weight>
<weight id="1106" MUR="1.0" MUF="1.0" PDF="325396" > PDF=325300 MemberID=96 </weight>
<weight id="1107" MUR="1.0" MUF="1.0" PDF="325397" > PDF=325300 MemberID=97 </weight>
<weight id="1108" MUR="1.0" MUF="1.0" PDF="325398" > PDF=325300 MemberID=98 </weight>
<weight id="1109" MUR="1.0" MUF="1.0" PDF="325399" > PDF=325300 MemberID=99 </weight>
<weight id="1110" MUR="1.0" MUF="1.0" PDF="325400" > PDF=325300 MemberID=100 </weight>
<weight id="1111" MUR="1.0" MUF="1.0" PDF="325401" > PDF=325300 MemberID=101 </weight>
<weight id="1112" MUR="1.0" MUF="1.0" PDF="325402" > PDF=325300 MemberID=102 </weight>
</weightgroup> # PDFSET -> PDFSET
<weightgroup name="NNPDF31_nnlo_as_0118_mc" combine="replicas"> # 316200: NNPDF3.1 NNLO global fit, alphas(MZ)=0.118. mem=0 ; average on replicas (setting negative replicas to zero); mem=1-100 ; PDF replicas
<weight id="1113" MUR="1.0" MUF="1.0" PDF="316200" > PDF=316200 MemberID=0 </weight>
<weight id="1114" MUR="1.0" MUF="1.0" PDF="316201" > PDF=316200 MemberID=1 </weight>
<weight id="1115" MUR="1.0" MUF="1.0" PDF="316202" > PDF=316200 MemberID=2 </weight>
<weight id="1116" MUR="1.0" MUF="1.0" PDF="316203" > PDF=316200 MemberID=3 </weight>
<weight id="1117" MUR="1.0" MUF="1.0" PDF="316204" > PDF=316200 MemberID=4 </weight>
<weight id="1118" MUR="1.0" MUF="1.0" PDF="316205" > PDF=316200 MemberID=5 </weight>
<weight id="1119" MUR="1.0" MUF="1.0" PDF="316206" > PDF=316200 MemberID=6 </weight>
<weight id="1120" MUR="1.0" MUF="1.0" PDF="316207" > PDF=316200 MemberID=7 </weight>
<weight id="1121" MUR="1.0" MUF="1.0" PDF="316208" > PDF=316200 MemberID=8 </weight>
<weight id="1122" MUR="1.0" MUF="1.0" PDF="316209" > PDF=316200 MemberID=9 </weight>
<weight id="1123" MUR="1.0" MUF="1.0" PDF="316210" > PDF=316200 MemberID=10 </weight>
<weight id="1124" MUR="1.0" MUF="1.0" PDF="316211" > PDF=316200 MemberID=11 </weight>
<weight id="1125" MUR="1.0" MUF="1.0" PDF="316212" > PDF=316200 MemberID=12 </weight>
<weight id="1126" MUR="1.0" MUF="1.0" PDF="316213" > PDF=316200 MemberID=13 </weight>
<weight id="1127" MUR="1.0" MUF="1.0" PDF="316214" > PDF=316200 MemberID=14 </weight>
<weight id="1128" MUR="1.0" MUF="1.0" PDF="316215" > PDF=316200 MemberID=15 </weight>
<weight id="1129" MUR="1.0" MUF="1.0" PDF="316216" > PDF=316200 MemberID=16 </weight>
<weight id="1130" MUR="1.0" MUF="1.0" PDF="316217" > PDF=316200 MemberID=17 </weight>
<weight id="1131" MUR="1.0" MUF="1.0" PDF="316218" > PDF=316200 MemberID=18 </weight>
<weight id="1132" MUR="1.0" MUF="1.0" PDF="316219" > PDF=316200 MemberID=19 </weight>
<weight id="1133" MUR="1.0" MUF="1.0" PDF="316220" > PDF=316200 MemberID=20 </weight>
<weight id="1134" MUR="1.0" MUF="1.0" PDF="316221" > PDF=316200 MemberID=21 </weight>
<weight id="1135" MUR="1.0" MUF="1.0" PDF="316222" > PDF=316200 MemberID=22 </weight>
<weight id="1136" MUR="1.0" MUF="1.0" PDF="316223" > PDF=316200 MemberID=23 </weight>
<weight id="1137" MUR="1.0" MUF="1.0" PDF="316224" > PDF=316200 MemberID=24 </weight>
<weight id="1138" MUR="1.0" MUF="1.0" PDF="316225" > PDF=316200 MemberID=25 </weight>
<weight id="1139" MUR="1.0" MUF="1.0" PDF="316226" > PDF=316200 MemberID=26 </weight>
<weight id="1140" MUR="1.0" MUF="1.0" PDF="316227" > PDF=316200 MemberID=27 </weight>
<weight id="1141" MUR="1.0" MUF="1.0" PDF="316228" > PDF=316200 MemberID=28 </weight>
<weight id="1142" MUR="1.0" MUF="1.0" PDF="316229" > PDF=316200 MemberID=29 </weight>
<weight id="1143" MUR="1.0" MUF="1.0" PDF="316230" > PDF=316200 MemberID=30 </weight>
<weight id="1144" MUR="1.0" MUF="1.0" PDF="316231" > PDF=316200 MemberID=31 </weight>
<weight id="1145" MUR="1.0" MUF="1.0" PDF="316232" > PDF=316200 MemberID=32 </weight>
<weight id="1146" MUR="1.0" MUF="1.0" PDF="316233" > PDF=316200 MemberID=33 </weight>
<weight id="1147" MUR="1.0" MUF="1.0" PDF="316234" > PDF=316200 MemberID=34 </weight>
<weight id="1148" MUR="1.0" MUF="1.0" PDF="316235" > PDF=316200 MemberID=35 </weight>
<weight id="1149" MUR="1.0" MUF="1.0" PDF="316236" > PDF=316200 MemberID=36 </weight>
<weight id="1150" MUR="1.0" MUF="1.0" PDF="316237" > PDF=316200 MemberID=37 </weight>
<weight id="1151" MUR="1.0" MUF="1.0" PDF="316238" > PDF=316200 MemberID=38 </weight>
<weight id="1152" MUR="1.0" MUF="1.0" PDF="316239" > PDF=316200 MemberID=39 </weight>
<weight id="1153" MUR="1.0" MUF="1.0" PDF="316240" > PDF=316200 MemberID=40 </weight>
<weight id="1154" MUR="1.0" MUF="1.0" PDF="316241" > PDF=316200 MemberID=41 </weight>
<weight id="1155" MUR="1.0" MUF="1.0" PDF="316242" > PDF=316200 MemberID=42 </weight>
<weight id="1156" MUR="1.0" MUF="1.0" PDF="316243" > PDF=316200 MemberID=43 </weight>
<weight id="1157" MUR="1.0" MUF="1.0" PDF="316244" > PDF=316200 MemberID=44 </weight>
<weight id="1158" MUR="1.0" MUF="1.0" PDF="316245" > PDF=316200 MemberID=45 </weight>
<weight id="1159" MUR="1.0" MUF="1.0" PDF="316246" > PDF=316200 MemberID=46 </weight>
<weight id="1160" MUR="1.0" MUF="1.0" PDF="316247" > PDF=316200 MemberID=47 </weight>
<weight id="1161" MUR="1.0" MUF="1.0" PDF="316248" > PDF=316200 MemberID=48 </weight>
<weight id="1162" MUR="1.0" MUF="1.0" PDF="316249" > PDF=316200 MemberID=49 </weight>
<weight id="1163" MUR="1.0" MUF="1.0" PDF="316250" > PDF=316200 MemberID=50 </weight>
<weight id="1164" MUR="1.0" MUF="1.0" PDF="316251" > PDF=316200 MemberID=51 </weight>
<weight id="1165" MUR="1.0" MUF="1.0" PDF="316252" > PDF=316200 MemberID=52 </weight>
<weight id="1166" MUR="1.0" MUF="1.0" PDF="316253" > PDF=316200 MemberID=53 </weight>
<weight id="1167" MUR="1.0" MUF="1.0" PDF="316254" > PDF=316200 MemberID=54 </weight>
<weight id="1168" MUR="1.0" MUF="1.0" PDF="316255" > PDF=316200 MemberID=55 </weight>
<weight id="1169" MUR="1.0" MUF="1.0" PDF="316256" > PDF=316200 MemberID=56 </weight>
<weight id="1170" MUR="1.0" MUF="1.0" PDF="316257" > PDF=316200 MemberID=57 </weight>
<weight id="1171" MUR="1.0" MUF="1.0" PDF="316258" > PDF=316200 MemberID=58 </weight>
<weight id="1172" MUR="1.0" MUF="1.0" PDF="316259" > PDF=316200 MemberID=59 </weight>
<weight id="1173" MUR="1.0" MUF="1.0" PDF="316260" > PDF=316200 MemberID=60 </weight>
<weight id="1174" MUR="1.0" MUF="1.0" PDF="316261" > PDF=316200 MemberID=61 </weight>
<weight id="1175" MUR="1.0" MUF="1.0" PDF="316262" > PDF=316200 MemberID=62 </weight>
<weight id="1176" MUR="1.0" MUF="1.0" PDF="316263" > PDF=316200 MemberID=63 </weight>
<weight id="1177" MUR="1.0" MUF="1.0" PDF="316264" > PDF=316200 MemberID=64 </weight>
<weight id="1178" MUR="1.0" MUF="1.0" PDF="316265" > PDF=316200 MemberID=65 </weight>
<weight id="1179" MUR="1.0" MUF="1.0" PDF="316266" > PDF=316200 MemberID=66 </weight>
<weight id="1180" MUR="1.0" MUF="1.0" PDF="316267" > PDF=316200 MemberID=67 </weight>
<weight id="1181" MUR="1.0" MUF="1.0" PDF="316268" > PDF=316200 MemberID=68 </weight>
<weight id="1182" MUR="1.0" MUF="1.0" PDF="316269" > PDF=316200 MemberID=69 </weight>
<weight id="1183" MUR="1.0" MUF="1.0" PDF="316270" > PDF=316200 MemberID=70 </weight>
<weight id="1184" MUR="1.0" MUF="1.0" PDF="316271" > PDF=316200 MemberID=71 </weight>
<weight id="1185" MUR="1.0" MUF="1.0" PDF="316272" > PDF=316200 MemberID=72 </weight>
<weight id="1186" MUR="1.0" MUF="1.0" PDF="316273" > PDF=316200 MemberID=73 </weight>
<weight id="1187" MUR="1.0" MUF="1.0" PDF="316274" > PDF=316200 MemberID=74 </weight>
<weight id="1188" MUR="1.0" MUF="1.0" PDF="316275" > PDF=316200 MemberID=75 </weight>
<weight id="1189" MUR="1.0" MUF="1.0" PDF="316276" > PDF=316200 MemberID=76 </weight>
<weight id="1190" MUR="1.0" MUF="1.0" PDF="316277" > PDF=316200 MemberID=77 </weight>
<weight id="1191" MUR="1.0" MUF="1.0" PDF="316278" > PDF=316200 MemberID=78 </weight>
<weight id="1192" MUR="1.0" MUF="1.0" PDF="316279" > PDF=316200 MemberID=79 </weight>
<weight id="1193" MUR="1.0" MUF="1.0" PDF="316280" > PDF=316200 MemberID=80 </weight>
<weight id="1194" MUR="1.0" MUF="1.0" PDF="316281" > PDF=316200 MemberID=81 </weight>
<weight id="1195" MUR="1.0" MUF="1.0" PDF="316282" > PDF=316200 MemberID=82 </weight>
<weight id="1196" MUR="1.0" MUF="1.0" PDF="316283" > PDF=316200 MemberID=83 </weight>
<weight id="1197" MUR="1.0" MUF="1.0" PDF="316284" > PDF=316200 MemberID=84 </weight>
<weight id="1198" MUR="1.0" MUF="1.0" PDF="316285" > PDF=316200 MemberID=85 </weight>
<weight id="1199" MUR="1.0" MUF="1.0" PDF="316286" > PDF=316200 MemberID=86 </weight>
<weight id="1200" MUR="1.0" MUF="1.0" PDF="316287" > PDF=316200 MemberID=87 </weight>
<weight id="1201" MUR="1.0" MUF="1.0" PDF="316288" > PDF=316200 MemberID=88 </weight>
<weight id="1202" MUR="1.0" MUF="1.0" PDF="316289" > PDF=316200 MemberID=89 </weight>
<weight id="1203" MUR="1.0" MUF="1.0" PDF="316290" > PDF=316200 MemberID=90 </weight>
<weight id="1204" MUR="1.0" MUF="1.0" PDF="316291" > PDF=316200 MemberID=91 </weight>
<weight id="1205" MUR="1.0" MUF="1.0" PDF="316292" > PDF=316200 MemberID=92 </weight>
<weight id="1206" MUR="1.0" MUF="1.0" PDF="316293" > PDF=316200 MemberID=93 </weight>
<weight id="1207" MUR="1.0" MUF="1.0" PDF="316294" > PDF=316200 MemberID=94 </weight>
<weight id="1208" MUR="1.0" MUF="1.0" PDF="316295" > PDF=316200 MemberID=95 </weight>
<weight id="1209" MUR="1.0" MUF="1.0" PDF="316296" > PDF=316200 MemberID=96 </weight>
<weight id="1210" MUR="1.0" MUF="1.0" PDF="316297" > PDF=316200 MemberID=97 </weight>
<weight id="1211" MUR="1.0" MUF="1.0" PDF="316298" > PDF=316200 MemberID=98 </weight>
<weight id="1212" MUR="1.0" MUF="1.0" PDF="316299" > PDF=316200 MemberID=99 </weight>
<weight id="1213" MUR="1.0" MUF="1.0" PDF="316300" > PDF=316200 MemberID=100 </weight>
</weightgroup> # PDFSET -> PDFSET
<weightgroup name="NNPDF31_nnlo_hessian_pdfas" combine="symmhessian+as"> # 306000: Hessian conversion of NNPDF31_nnlo_as_0118_1000, mem=0 central value ; Alphas(MZ)=0.118; mem=1-100 ; PDF eig.; mem=101 ; central value Alphas(MZ)=0.116; mem=102 ; central value Alphas(MZ)=0.120
<weight id="1214" MUR="1.0" MUF="1.0" PDF="306000" > PDF=306000 MemberID=0 </weight>
<weight id="1215" MUR="1.0" MUF="1.0" PDF="306001" > PDF=306000 MemberID=1 </weight>
<weight id="1216" MUR="1.0" MUF="1.0" PDF="306002" > PDF=306000 MemberID=2 </weight>
<weight id="1217" MUR="1.0" MUF="1.0" PDF="306003" > PDF=306000 MemberID=3 </weight>
<weight id="1218" MUR="1.0" MUF="1.0" PDF="306004" > PDF=306000 MemberID=4 </weight>
<weight id="1219" MUR="1.0" MUF="1.0" PDF="306005" > PDF=306000 MemberID=5 </weight>
<weight id="1220" MUR="1.0" MUF="1.0" PDF="306006" > PDF=306000 MemberID=6 </weight>
<weight id="1221" MUR="1.0" MUF="1.0" PDF="306007" > PDF=306000 MemberID=7 </weight>
<weight id="1222" MUR="1.0" MUF="1.0" PDF="306008" > PDF=306000 MemberID=8 </weight>
<weight id="1223" MUR="1.0" MUF="1.0" PDF="306009" > PDF=306000 MemberID=9 </weight>
<weight id="1224" MUR="1.0" MUF="1.0" PDF="306010" > PDF=306000 MemberID=10 </weight>
<weight id="1225" MUR="1.0" MUF="1.0" PDF="306011" > PDF=306000 MemberID=11 </weight>
<weight id="1226" MUR="1.0" MUF="1.0" PDF="306012" > PDF=306000 MemberID=12 </weight>
<weight id="1227" MUR="1.0" MUF="1.0" PDF="306013" > PDF=306000 MemberID=13 </weight>
<weight id="1228" MUR="1.0" MUF="1.0" PDF="306014" > PDF=306000 MemberID=14 </weight>
<weight id="1229" MUR="1.0" MUF="1.0" PDF="306015" > PDF=306000 MemberID=15 </weight>
<weight id="1230" MUR="1.0" MUF="1.0" PDF="306016" > PDF=306000 MemberID=16 </weight>
<weight id="1231" MUR="1.0" MUF="1.0" PDF="306017" > PDF=306000 MemberID=17 </weight>
<weight id="1232" MUR="1.0" MUF="1.0" PDF="306018" > PDF=306000 MemberID=18 </weight>
<weight id="1233" MUR="1.0" MUF="1.0" PDF="306019" > PDF=306000 MemberID=19 </weight>
<weight id="1234" MUR="1.0" MUF="1.0" PDF="306020" > PDF=306000 MemberID=20 </weight>
<weight id="1235" MUR="1.0" MUF="1.0" PDF="306021" > PDF=306000 MemberID=21 </weight>
<weight id="1236" MUR="1.0" MUF="1.0" PDF="306022" > PDF=306000 MemberID=22 </weight>
<weight id="1237" MUR="1.0" MUF="1.0" PDF="306023" > PDF=306000 MemberID=23 </weight>
<weight id="1238" MUR="1.0" MUF="1.0" PDF="306024" > PDF=306000 MemberID=24 </weight>
<weight id="1239" MUR="1.0" MUF="1.0" PDF="306025" > PDF=306000 MemberID=25 </weight>
<weight id="1240" MUR="1.0" MUF="1.0" PDF="306026" > PDF=306000 MemberID=26 </weight>
<weight id="1241" MUR="1.0" MUF="1.0" PDF="306027" > PDF=306000 MemberID=27 </weight>
<weight id="1242" MUR="1.0" MUF="1.0" PDF="306028" > PDF=306000 MemberID=28 </weight>
<weight id="1243" MUR="1.0" MUF="1.0" PDF="306029" > PDF=306000 MemberID=29 </weight>
<weight id="1244" MUR="1.0" MUF="1.0" PDF="306030" > PDF=306000 MemberID=30 </weight>
<weight id="1245" MUR="1.0" MUF="1.0" PDF="306031" > PDF=306000 MemberID=31 </weight>
<weight id="1246" MUR="1.0" MUF="1.0" PDF="306032" > PDF=306000 MemberID=32 </weight>
<weight id="1247" MUR="1.0" MUF="1.0" PDF="306033" > PDF=306000 MemberID=33 </weight>
<weight id="1248" MUR="1.0" MUF="1.0" PDF="306034" > PDF=306000 MemberID=34 </weight>
<weight id="1249" MUR="1.0" MUF="1.0" PDF="306035" > PDF=306000 MemberID=35 </weight>
<weight id="1250" MUR="1.0" MUF="1.0" PDF="306036" > PDF=306000 MemberID=36 </weight>
<weight id="1251" MUR="1.0" MUF="1.0" PDF="306037" > PDF=306000 MemberID=37 </weight>
<weight id="1252" MUR="1.0" MUF="1.0" PDF="306038" > PDF=306000 MemberID=38 </weight>
<weight id="1253" MUR="1.0" MUF="1.0" PDF="306039" > PDF=306000 MemberID=39 </weight>
<weight id="1254" MUR="1.0" MUF="1.0" PDF="306040" > PDF=306000 MemberID=40 </weight>
<weight id="1255" MUR="1.0" MUF="1.0" PDF="306041" > PDF=306000 MemberID=41 </weight>
<weight id="1256" MUR="1.0" MUF="1.0" PDF="306042" > PDF=306000 MemberID=42 </weight>
<weight id="1257" MUR="1.0" MUF="1.0" PDF="306043" > PDF=306000 MemberID=43 </weight>
<weight id="1258" MUR="1.0" MUF="1.0" PDF="306044" > PDF=306000 MemberID=44 </weight>
<weight id="1259" MUR="1.0" MUF="1.0" PDF="306045" > PDF=306000 MemberID=45 </weight>
<weight id="1260" MUR="1.0" MUF="1.0" PDF="306046" > PDF=306000 MemberID=46 </weight>
<weight id="1261" MUR="1.0" MUF="1.0" PDF="306047" > PDF=306000 MemberID=47 </weight>
<weight id="1262" MUR="1.0" MUF="1.0" PDF="306048" > PDF=306000 MemberID=48 </weight>
<weight id="1263" MUR="1.0" MUF="1.0" PDF="306049" > PDF=306000 MemberID=49 </weight>
<weight id="1264" MUR="1.0" MUF="1.0" PDF="306050" > PDF=306000 MemberID=50 </weight>
<weight id="1265" MUR="1.0" MUF="1.0" PDF="306051" > PDF=306000 MemberID=51 </weight>
<weight id="1266" MUR="1.0" MUF="1.0" PDF="306052" > PDF=306000 MemberID=52 </weight>
<weight id="1267" MUR="1.0" MUF="1.0" PDF="306053" > PDF=306000 MemberID=53 </weight>
<weight id="1268" MUR="1.0" MUF="1.0" PDF="306054" > PDF=306000 MemberID=54 </weight>
<weight id="1269" MUR="1.0" MUF="1.0" PDF="306055" > PDF=306000 MemberID=55 </weight>
<weight id="1270" MUR="1.0" MUF="1.0" PDF="306056" > PDF=306000 MemberID=56 </weight>
<weight id="1271" MUR="1.0" MUF="1.0" PDF="306057" > PDF=306000 MemberID=57 </weight>
<weight id="1272" MUR="1.0" MUF="1.0" PDF="306058" > PDF=306000 MemberID=58 </weight>
<weight id="1273" MUR="1.0" MUF="1.0" PDF="306059" > PDF=306000 MemberID=59 </weight>
<weight id="1274" MUR="1.0" MUF="1.0" PDF="306060" > PDF=306000 MemberID=60 </weight>
<weight id="1275" MUR="1.0" MUF="1.0" PDF="306061" > PDF=306000 MemberID=61 </weight>
<weight id="1276" MUR="1.0" MUF="1.0" PDF="306062" > PDF=306000 MemberID=62 </weight>
<weight id="1277" MUR="1.0" MUF="1.0" PDF="306063" > PDF=306000 MemberID=63 </weight>
<weight id="1278" MUR="1.0" MUF="1.0" PDF="306064" > PDF=306000 MemberID=64 </weight>
<weight id="1279" MUR="1.0" MUF="1.0" PDF="306065" > PDF=306000 MemberID=65 </weight>
<weight id="1280" MUR="1.0" MUF="1.0" PDF="306066" > PDF=306000 MemberID=66 </weight>
<weight id="1281" MUR="1.0" MUF="1.0" PDF="306067" > PDF=306000 MemberID=67 </weight>
<weight id="1282" MUR="1.0" MUF="1.0" PDF="306068" > PDF=306000 MemberID=68 </weight>
<weight id="1283" MUR="1.0" MUF="1.0" PDF="306069" > PDF=306000 MemberID=69 </weight>
<weight id="1284" MUR="1.0" MUF="1.0" PDF="306070" > PDF=306000 MemberID=70 </weight>
<weight id="1285" MUR="1.0" MUF="1.0" PDF="306071" > PDF=306000 MemberID=71 </weight>
<weight id="1286" MUR="1.0" MUF="1.0" PDF="306072" > PDF=306000 MemberID=72 </weight>
<weight id="1287" MUR="1.0" MUF="1.0" PDF="306073" > PDF=306000 MemberID=73 </weight>
<weight id="1288" MUR="1.0" MUF="1.0" PDF="306074" > PDF=306000 MemberID=74 </weight>
<weight id="1289" MUR="1.0" MUF="1.0" PDF="306075" > PDF=306000 MemberID=75 </weight>
<weight id="1290" MUR="1.0" MUF="1.0" PDF="306076" > PDF=306000 MemberID=76 </weight>
<weight id="1291" MUR="1.0" MUF="1.0" PDF="306077" > PDF=306000 MemberID=77 </weight>
<weight id="1292" MUR="1.0" MUF="1.0" PDF="306078" > PDF=306000 MemberID=78 </weight>
<weight id="1293" MUR="1.0" MUF="1.0" PDF="306079" > PDF=306000 MemberID=79 </weight>
<weight id="1294" MUR="1.0" MUF="1.0" PDF="306080" > PDF=306000 MemberID=80 </weight>
<weight id="1295" MUR="1.0" MUF="1.0" PDF="306081" > PDF=306000 MemberID=81 </weight>
<weight id="1296" MUR="1.0" MUF="1.0" PDF="306082" > PDF=306000 MemberID=82 </weight>
<weight id="1297" MUR="1.0" MUF="1.0" PDF="306083" > PDF=306000 MemberID=83 </weight>
<weight id="1298" MUR="1.0" MUF="1.0" PDF="306084" > PDF=306000 MemberID=84 </weight>
<weight id="1299" MUR="1.0" MUF="1.0" PDF="306085" > PDF=306000 MemberID=85 </weight>
<weight id="1300" MUR="1.0" MUF="1.0" PDF="306086" > PDF=306000 MemberID=86 </weight>
<weight id="1301" MUR="1.0" MUF="1.0" PDF="306087" > PDF=306000 MemberID=87 </weight>
<weight id="1302" MUR="1.0" MUF="1.0" PDF="306088" > PDF=306000 MemberID=88 </weight>
<weight id="1303" MUR="1.0" MUF="1.0" PDF="306089" > PDF=306000 MemberID=89 </weight>
<weight id="1304" MUR="1.0" MUF="1.0" PDF="306090" > PDF=306000 MemberID=90 </weight>
<weight id="1305" MUR="1.0" MUF="1.0" PDF="306091" > PDF=306000 MemberID=91 </weight>
<weight id="1306" MUR="1.0" MUF="1.0" PDF="306092" > PDF=306000 MemberID=92 </weight>
<weight id="1307" MUR="1.0" MUF="1.0" PDF="306093" > PDF=306000 MemberID=93 </weight>
<weight id="1308" MUR="1.0" MUF="1.0" PDF="306094" > PDF=306000 MemberID=94 </weight>
<weight id="1309" MUR="1.0" MUF="1.0" PDF="306095" > PDF=306000 MemberID=95 </weight>
<weight id="1310" MUR="1.0" MUF="1.0" PDF="306096" > PDF=306000 MemberID=96 </weight>
<weight id="1311" MUR="1.0" MUF="1.0" PDF="306097" > PDF=306000 MemberID=97 </weight>
<weight id="1312" MUR="1.0" MUF="1.0" PDF="306098" > PDF=306000 MemberID=98 </weight>
<weight id="1313" MUR="1.0" MUF="1.0" PDF="306099" > PDF=306000 MemberID=99 </weight>
<weight id="1314" MUR="1.0" MUF="1.0" PDF="306100" > PDF=306000 MemberID=100 </weight>
<weight id="1315" MUR="1.0" MUF="1.0" PDF="306101" > PDF=306000 MemberID=101 </weight>
<weight id="1316" MUR="1.0" MUF="1.0" PDF="306102" > PDF=306000 MemberID=102 </weight>
</weightgroup> # PDFSET -> PDF
<weight id="1317" MUR="1.0" MUF="1.0" PDF="322500" > PDF=322500 MemberID=0 </weight>
<weight id="1318" MUR="1.0" MUF="1.0" PDF="322700" > PDF=322700 MemberID=0 </weight>
<weight id="1319" MUR="1.0" MUF="1.0" PDF="322900" > PDF=322900 MemberID=0 </weight>
<weight id="1320" MUR="1.0" MUF="1.0" PDF="323100" > PDF=323100 MemberID=0 </weight>
<weight id="1321" MUR="1.0" MUF="1.0" PDF="323300" > PDF=323300 MemberID=0 </weight>
<weight id="1322" MUR="1.0" MUF="1.0" PDF="323500" > PDF=323500 MemberID=0 </weight>
<weight id="1323" MUR="1.0" MUF="1.0" PDF="323700" > PDF=323700 MemberID=0 </weight>
<weight id="1324" MUR="1.0" MUF="1.0" PDF="323900" > PDF=323900 MemberID=0 </weight>
<weightgroup name="NNPDF31_nlo_hessian_pdfas" combine="symmhessian+as"> # 305800: Hessian conversion of NNPDF31_nlo_as_0118_1000, mem=0 ; central value Alphas(MZ)=0.118; mem=1-100 ; PDF eig.; mem=101 ; central value Alphas(MZ)=0.116; mem=102 ; central value Alphas(MZ)=0.120
<weight id="1325" MUR="1.0" MUF="1.0" PDF="305800" > PDF=305800 MemberID=0 </weight>
<weight id="1326" MUR="1.0" MUF="1.0" PDF="305801" > PDF=305800 MemberID=1 </weight>
<weight id="1327" MUR="1.0" MUF="1.0" PDF="305802" > PDF=305800 MemberID=2 </weight>
<weight id="1328" MUR="1.0" MUF="1.0" PDF="305803" > PDF=305800 MemberID=3 </weight>
<weight id="1329" MUR="1.0" MUF="1.0" PDF="305804" > PDF=305800 MemberID=4 </weight>
<weight id="1330" MUR="1.0" MUF="1.0" PDF="305805" > PDF=305800 MemberID=5 </weight>
<weight id="1331" MUR="1.0" MUF="1.0" PDF="305806" > PDF=305800 MemberID=6 </weight>
<weight id="1332" MUR="1.0" MUF="1.0" PDF="305807" > PDF=305800 MemberID=7 </weight>
<weight id="1333" MUR="1.0" MUF="1.0" PDF="305808" > PDF=305800 MemberID=8 </weight>
<weight id="1334" MUR="1.0" MUF="1.0" PDF="305809" > PDF=305800 MemberID=9 </weight>
<weight id="1335" MUR="1.0" MUF="1.0" PDF="305810" > PDF=305800 MemberID=10 </weight>
<weight id="1336" MUR="1.0" MUF="1.0" PDF="305811" > PDF=305800 MemberID=11 </weight>
<weight id="1337" MUR="1.0" MUF="1.0" PDF="305812" > PDF=305800 MemberID=12 </weight>
<weight id="1338" MUR="1.0" MUF="1.0" PDF="305813" > PDF=305800 MemberID=13 </weight>
<weight id="1339" MUR="1.0" MUF="1.0" PDF="305814" > PDF=305800 MemberID=14 </weight>
<weight id="1340" MUR="1.0" MUF="1.0" PDF="305815" > PDF=305800 MemberID=15 </weight>
<weight id="1341" MUR="1.0" MUF="1.0" PDF="305816" > PDF=305800 MemberID=16 </weight>
<weight id="1342" MUR="1.0" MUF="1.0" PDF="305817" > PDF=305800 MemberID=17 </weight>
<weight id="1343" MUR="1.0" MUF="1.0" PDF="305818" > PDF=305800 MemberID=18 </weight>
<weight id="1344" MUR="1.0" MUF="1.0" PDF="305819" > PDF=305800 MemberID=19 </weight>
<weight id="1345" MUR="1.0" MUF="1.0" PDF="305820" > PDF=305800 MemberID=20 </weight>
<weight id="1346" MUR="1.0" MUF="1.0" PDF="305821" > PDF=305800 MemberID=21 </weight>
<weight id="1347" MUR="1.0" MUF="1.0" PDF="305822" > PDF=305800 MemberID=22 </weight>
<weight id="1348" MUR="1.0" MUF="1.0" PDF="305823" > PDF=305800 MemberID=23 </weight>
<weight id="1349" MUR="1.0" MUF="1.0" PDF="305824" > PDF=305800 MemberID=24 </weight>
<weight id="1350" MUR="1.0" MUF="1.0" PDF="305825" > PDF=305800 MemberID=25 </weight>
<weight id="1351" MUR="1.0" MUF="1.0" PDF="305826" > PDF=305800 MemberID=26 </weight>
<weight id="1352" MUR="1.0" MUF="1.0" PDF="305827" > PDF=305800 MemberID=27 </weight>
<weight id="1353" MUR="1.0" MUF="1.0" PDF="305828" > PDF=305800 MemberID=28 </weight>
<weight id="1354" MUR="1.0" MUF="1.0" PDF="305829" > PDF=305800 MemberID=29 </weight>
<weight id="1355" MUR="1.0" MUF="1.0" PDF="305830" > PDF=305800 MemberID=30 </weight>
<weight id="1356" MUR="1.0" MUF="1.0" PDF="305831" > PDF=305800 MemberID=31 </weight>
<weight id="1357" MUR="1.0" MUF="1.0" PDF="305832" > PDF=305800 MemberID=32 </weight>
<weight id="1358" MUR="1.0" MUF="1.0" PDF="305833" > PDF=305800 MemberID=33 </weight>
<weight id="1359" MUR="1.0" MUF="1.0" PDF="305834" > PDF=305800 MemberID=34 </weight>
<weight id="1360" MUR="1.0" MUF="1.0" PDF="305835" > PDF=305800 MemberID=35 </weight>
<weight id="1361" MUR="1.0" MUF="1.0" PDF="305836" > PDF=305800 MemberID=36 </weight>
<weight id="1362" MUR="1.0" MUF="1.0" PDF="305837" > PDF=305800 MemberID=37 </weight>
<weight id="1363" MUR="1.0" MUF="1.0" PDF="305838" > PDF=305800 MemberID=38 </weight>
<weight id="1364" MUR="1.0" MUF="1.0" PDF="305839" > PDF=305800 MemberID=39 </weight>
<weight id="1365" MUR="1.0" MUF="1.0" PDF="305840" > PDF=305800 MemberID=40 </weight>
<weight id="1366" MUR="1.0" MUF="1.0" PDF="305841" > PDF=305800 MemberID=41 </weight>
<weight id="1367" MUR="1.0" MUF="1.0" PDF="305842" > PDF=305800 MemberID=42 </weight>
<weight id="1368" MUR="1.0" MUF="1.0" PDF="305843" > PDF=305800 MemberID=43 </weight>
<weight id="1369" MUR="1.0" MUF="1.0" PDF="305844" > PDF=305800 MemberID=44 </weight>
<weight id="1370" MUR="1.0" MUF="1.0" PDF="305845" > PDF=305800 MemberID=45 </weight>
<weight id="1371" MUR="1.0" MUF="1.0" PDF="305846" > PDF=305800 MemberID=46 </weight>
<weight id="1372" MUR="1.0" MUF="1.0" PDF="305847" > PDF=305800 MemberID=47 </weight>
<weight id="1373" MUR="1.0" MUF="1.0" PDF="305848" > PDF=305800 MemberID=48 </weight>
<weight id="1374" MUR="1.0" MUF="1.0" PDF="305849" > PDF=305800 MemberID=49 </weight>
<weight id="1375" MUR="1.0" MUF="1.0" PDF="305850" > PDF=305800 MemberID=50 </weight>
<weight id="1376" MUR="1.0" MUF="1.0" PDF="305851" > PDF=305800 MemberID=51 </weight>
<weight id="1377" MUR="1.0" MUF="1.0" PDF="305852" > PDF=305800 MemberID=52 </weight>
<weight id="1378" MUR="1.0" MUF="1.0" PDF="305853" > PDF=305800 MemberID=53 </weight>
<weight id="1379" MUR="1.0" MUF="1.0" PDF="305854" > PDF=305800 MemberID=54 </weight>
<weight id="1380" MUR="1.0" MUF="1.0" PDF="305855" > PDF=305800 MemberID=55 </weight>
<weight id="1381" MUR="1.0" MUF="1.0" PDF="305856" > PDF=305800 MemberID=56 </weight>
<weight id="1382" MUR="1.0" MUF="1.0" PDF="305857" > PDF=305800 MemberID=57 </weight>
<weight id="1383" MUR="1.0" MUF="1.0" PDF="305858" > PDF=305800 MemberID=58 </weight>
<weight id="1384" MUR="1.0" MUF="1.0" PDF="305859" > PDF=305800 MemberID=59 </weight>
<weight id="1385" MUR="1.0" MUF="1.0" PDF="305860" > PDF=305800 MemberID=60 </weight>
<weight id="1386" MUR="1.0" MUF="1.0" PDF="305861" > PDF=305800 MemberID=61 </weight>
<weight id="1387" MUR="1.0" MUF="1.0" PDF="305862" > PDF=305800 MemberID=62 </weight>
<weight id="1388" MUR="1.0" MUF="1.0" PDF="305863" > PDF=305800 MemberID=63 </weight>
<weight id="1389" MUR="1.0" MUF="1.0" PDF="305864" > PDF=305800 MemberID=64 </weight>
<weight id="1390" MUR="1.0" MUF="1.0" PDF="305865" > PDF=305800 MemberID=65 </weight>
<weight id="1391" MUR="1.0" MUF="1.0" PDF="305866" > PDF=305800 MemberID=66 </weight>
<weight id="1392" MUR="1.0" MUF="1.0" PDF="305867" > PDF=305800 MemberID=67 </weight>
<weight id="1393" MUR="1.0" MUF="1.0" PDF="305868" > PDF=305800 MemberID=68 </weight>
<weight id="1394" MUR="1.0" MUF="1.0" PDF="305869" > PDF=305800 MemberID=69 </weight>
<weight id="1395" MUR="1.0" MUF="1.0" PDF="305870" > PDF=305800 MemberID=70 </weight>
<weight id="1396" MUR="1.0" MUF="1.0" PDF="305871" > PDF=305800 MemberID=71 </weight>
<weight id="1397" MUR="1.0" MUF="1.0" PDF="305872" > PDF=305800 MemberID=72 </weight>
<weight id="1398" MUR="1.0" MUF="1.0" PDF="305873" > PDF=305800 MemberID=73 </weight>
<weight id="1399" MUR="1.0" MUF="1.0" PDF="305874" > PDF=305800 MemberID=74 </weight>
<weight id="1400" MUR="1.0" MUF="1.0" PDF="305875" > PDF=305800 MemberID=75 </weight>
<weight id="1401" MUR="1.0" MUF="1.0" PDF="305876" > PDF=305800 MemberID=76 </weight>
<weight id="1402" MUR="1.0" MUF="1.0" PDF="305877" > PDF=305800 MemberID=77 </weight>
<weight id="1403" MUR="1.0" MUF="1.0" PDF="305878" > PDF=305800 MemberID=78 </weight>
<weight id="1404" MUR="1.0" MUF="1.0" PDF="305879" > PDF=305800 MemberID=79 </weight>
<weight id="1405" MUR="1.0" MUF="1.0" PDF="305880" > PDF=305800 MemberID=80 </weight>
<weight id="1406" MUR="1.0" MUF="1.0" PDF="305881" > PDF=305800 MemberID=81 </weight>
<weight id="1407" MUR="1.0" MUF="1.0" PDF="305882" > PDF=305800 MemberID=82 </weight>
<weight id="1408" MUR="1.0" MUF="1.0" PDF="305883" > PDF=305800 MemberID=83 </weight>
<weight id="1409" MUR="1.0" MUF="1.0" PDF="305884" > PDF=305800 MemberID=84 </weight>
<weight id="1410" MUR="1.0" MUF="1.0" PDF="305885" > PDF=305800 MemberID=85 </weight>
<weight id="1411" MUR="1.0" MUF="1.0" PDF="305886" > PDF=305800 MemberID=86 </weight>
<weight id="1412" MUR="1.0" MUF="1.0" PDF="305887" > PDF=305800 MemberID=87 </weight>
<weight id="1413" MUR="1.0" MUF="1.0" PDF="305888" > PDF=305800 MemberID=88 </weight>
<weight id="1414" MUR="1.0" MUF="1.0" PDF="305889" > PDF=305800 MemberID=89 </weight>
<weight id="1415" MUR="1.0" MUF="1.0" PDF="305890" > PDF=305800 MemberID=90 </weight>
<weight id="1416" MUR="1.0" MUF="1.0" PDF="305891" > PDF=305800 MemberID=91 </weight>
<weight id="1417" MUR="1.0" MUF="1.0" PDF="305892" > PDF=305800 MemberID=92 </weight>
<weight id="1418" MUR="1.0" MUF="1.0" PDF="305893" > PDF=305800 MemberID=93 </weight>
<weight id="1419" MUR="1.0" MUF="1.0" PDF="305894" > PDF=305800 MemberID=94 </weight>
<weight id="1420" MUR="1.0" MUF="1.0" PDF="305895" > PDF=305800 MemberID=95 </weight>
<weight id="1421" MUR="1.0" MUF="1.0" PDF="305896" > PDF=305800 MemberID=96 </weight>
<weight id="1422" MUR="1.0" MUF="1.0" PDF="305897" > PDF=305800 MemberID=97 </weight>
<weight id="1423" MUR="1.0" MUF="1.0" PDF="305898" > PDF=305800 MemberID=98 </weight>
<weight id="1424" MUR="1.0" MUF="1.0" PDF="305899" > PDF=305800 MemberID=99 </weight>
<weight id="1425" MUR="1.0" MUF="1.0" PDF="305900" > PDF=305800 MemberID=100 </weight>
<weight id="1426" MUR="1.0" MUF="1.0" PDF="305901" > PDF=305800 MemberID=101 </weight>
<weight id="1427" MUR="1.0" MUF="1.0" PDF="305902" > PDF=305800 MemberID=102 </weight>
</weightgroup> # PDFSET -> PDFSET
<weightgroup name="CT14nnlo" combine="hessian"> # 13000: CT14nnlo, 3-loop PDF evolution with HOPPET and HOPPET alphas_s running solution. This set has 57 member PDFs. mem=0 --.gt. central value; mem=1-56 --.gt. eigenvector sets 90%
<weight id="1428" MUR="1.0" MUF="1.0" PDF="13000" > PDF=13000 MemberID=0 </weight>
<weight id="1429" MUR="1.0" MUF="1.0" PDF="13001" > PDF=13000 MemberID=1 </weight>
<weight id="1430" MUR="1.0" MUF="1.0" PDF="13002" > PDF=13000 MemberID=2 </weight>
<weight id="1431" MUR="1.0" MUF="1.0" PDF="13003" > PDF=13000 MemberID=3 </weight>
<weight id="1432" MUR="1.0" MUF="1.0" PDF="13004" > PDF=13000 MemberID=4 </weight>
<weight id="1433" MUR="1.0" MUF="1.0" PDF="13005" > PDF=13000 MemberID=5 </weight>
<weight id="1434" MUR="1.0" MUF="1.0" PDF="13006" > PDF=13000 MemberID=6 </weight>
<weight id="1435" MUR="1.0" MUF="1.0" PDF="13007" > PDF=13000 MemberID=7 </weight>
<weight id="1436" MUR="1.0" MUF="1.0" PDF="13008" > PDF=13000 MemberID=8 </weight>
<weight id="1437" MUR="1.0" MUF="1.0" PDF="13009" > PDF=13000 MemberID=9 </weight>
<weight id="1438" MUR="1.0" MUF="1.0" PDF="13010" > PDF=13000 MemberID=10 </weight>
<weight id="1439" MUR="1.0" MUF="1.0" PDF="13011" > PDF=13000 MemberID=11 </weight>
<weight id="1440" MUR="1.0" MUF="1.0" PDF="13012" > PDF=13000 MemberID=12 </weight>
<weight id="1441" MUR="1.0" MUF="1.0" PDF="13013" > PDF=13000 MemberID=13 </weight>
<weight id="1442" MUR="1.0" MUF="1.0" PDF="13014" > PDF=13000 MemberID=14 </weight>
<weight id="1443" MUR="1.0" MUF="1.0" PDF="13015" > PDF=13000 MemberID=15 </weight>
<weight id="1444" MUR="1.0" MUF="1.0" PDF="13016" > PDF=13000 MemberID=16 </weight>
<weight id="1445" MUR="1.0" MUF="1.0" PDF="13017" > PDF=13000 MemberID=17 </weight>
<weight id="1446" MUR="1.0" MUF="1.0" PDF="13018" > PDF=13000 MemberID=18 </weight>
<weight id="1447" MUR="1.0" MUF="1.0" PDF="13019" > PDF=13000 MemberID=19 </weight>
<weight id="1448" MUR="1.0" MUF="1.0" PDF="13020" > PDF=13000 MemberID=20 </weight>
<weight id="1449" MUR="1.0" MUF="1.0" PDF="13021" > PDF=13000 MemberID=21 </weight>
<weight id="1450" MUR="1.0" MUF="1.0" PDF="13022" > PDF=13000 MemberID=22 </weight>
<weight id="1451" MUR="1.0" MUF="1.0" PDF="13023" > PDF=13000 MemberID=23 </weight>
<weight id="1452" MUR="1.0" MUF="1.0" PDF="13024" > PDF=13000 MemberID=24 </weight>
<weight id="1453" MUR="1.0" MUF="1.0" PDF="13025" > PDF=13000 MemberID=25 </weight>
<weight id="1454" MUR="1.0" MUF="1.0" PDF="13026" > PDF=13000 MemberID=26 </weight>
<weight id="1455" MUR="1.0" MUF="1.0" PDF="13027" > PDF=13000 MemberID=27 </weight>
<weight id="1456" MUR="1.0" MUF="1.0" PDF="13028" > PDF=13000 MemberID=28 </weight>
<weight id="1457" MUR="1.0" MUF="1.0" PDF="13029" > PDF=13000 MemberID=29 </weight>
<weight id="1458" MUR="1.0" MUF="1.0" PDF="13030" > PDF=13000 MemberID=30 </weight>
<weight id="1459" MUR="1.0" MUF="1.0" PDF="13031" > PDF=13000 MemberID=31 </weight>
<weight id="1460" MUR="1.0" MUF="1.0" PDF="13032" > PDF=13000 MemberID=32 </weight>
<weight id="1461" MUR="1.0" MUF="1.0" PDF="13033" > PDF=13000 MemberID=33 </weight>
<weight id="1462" MUR="1.0" MUF="1.0" PDF="13034" > PDF=13000 MemberID=34 </weight>
<weight id="1463" MUR="1.0" MUF="1.0" PDF="13035" > PDF=13000 MemberID=35 </weight>
<weight id="1464" MUR="1.0" MUF="1.0" PDF="13036" > PDF=13000 MemberID=36 </weight>
<weight id="1465" MUR="1.0" MUF="1.0" PDF="13037" > PDF=13000 MemberID=37 </weight>
<weight id="1466" MUR="1.0" MUF="1.0" PDF="13038" > PDF=13000 MemberID=38 </weight>
<weight id="1467" MUR="1.0" MUF="1.0" PDF="13039" > PDF=13000 MemberID=39 </weight>
<weight id="1468" MUR="1.0" MUF="1.0" PDF="13040" > PDF=13000 MemberID=40 </weight>
<weight id="1469" MUR="1.0" MUF="1.0" PDF="13041" > PDF=13000 MemberID=41 </weight>
<weight id="1470" MUR="1.0" MUF="1.0" PDF="13042" > PDF=13000 MemberID=42 </weight>
<weight id="1471" MUR="1.0" MUF="1.0" PDF="13043" > PDF=13000 MemberID=43 </weight>
<weight id="1472" MUR="1.0" MUF="1.0" PDF="13044" > PDF=13000 MemberID=44 </weight>
<weight id="1473" MUR="1.0" MUF="1.0" PDF="13045" > PDF=13000 MemberID=45 </weight>
<weight id="1474" MUR="1.0" MUF="1.0" PDF="13046" > PDF=13000 MemberID=46 </weight>
<weight id="1475" MUR="1.0" MUF="1.0" PDF="13047" > PDF=13000 MemberID=47 </weight>
<weight id="1476" MUR="1.0" MUF="1.0" PDF="13048" > PDF=13000 MemberID=48 </weight>
<weight id="1477" MUR="1.0" MUF="1.0" PDF="13049" > PDF=13000 MemberID=49 </weight>
<weight id="1478" MUR="1.0" MUF="1.0" PDF="13050" > PDF=13000 MemberID=50 </weight>
<weight id="1479" MUR="1.0" MUF="1.0" PDF="13051" > PDF=13000 MemberID=51 </weight>
<weight id="1480" MUR="1.0" MUF="1.0" PDF="13052" > PDF=13000 MemberID=52 </weight>
<weight id="1481" MUR="1.0" MUF="1.0" PDF="13053" > PDF=13000 MemberID=53 </weight>
<weight id="1482" MUR="1.0" MUF="1.0" PDF="13054" > PDF=13000 MemberID=54 </weight>
<weight id="1483" MUR="1.0" MUF="1.0" PDF="13055" > PDF=13000 MemberID=55 </weight>
<weight id="1484" MUR="1.0" MUF="1.0" PDF="13056" > PDF=13000 MemberID=56 </weight>
</weightgroup> # PDFSET -> PDF
<weight id="1485" MUR="1.0" MUF="1.0" PDF="13065" > PDF=13065 MemberID=0 </weight>
<weight id="1486" MUR="1.0" MUF="1.0" PDF="13069" > PDF=13069 MemberID=0 </weight>
<weightgroup name="CT14nlo" combine="hessian"> # 13100: CT14nlo, 2-loop PDF evolution with HOPPET and HOPPET alphas_s running solution. This set has 57 member PDFs. mem=0 --.gt. central value; mem=1-56 --.gt. eigenvector sets 90%
<weight id="1487" MUR="1.0" MUF="1.0" PDF="13100" > PDF=13100 MemberID=0 </weight>
<weight id="1488" MUR="1.0" MUF="1.0" PDF="13101" > PDF=13100 MemberID=1 </weight>
<weight id="1489" MUR="1.0" MUF="1.0" PDF="13102" > PDF=13100 MemberID=2 </weight>
<weight id="1490" MUR="1.0" MUF="1.0" PDF="13103" > PDF=13100 MemberID=3 </weight>
<weight id="1491" MUR="1.0" MUF="1.0" PDF="13104" > PDF=13100 MemberID=4 </weight>
<weight id="1492" MUR="1.0" MUF="1.0" PDF="13105" > PDF=13100 MemberID=5 </weight>
<weight id="1493" MUR="1.0" MUF="1.0" PDF="13106" > PDF=13100 MemberID=6 </weight>
<weight id="1494" MUR="1.0" MUF="1.0" PDF="13107" > PDF=13100 MemberID=7 </weight>
<weight id="1495" MUR="1.0" MUF="1.0" PDF="13108" > PDF=13100 MemberID=8 </weight>
<weight id="1496" MUR="1.0" MUF="1.0" PDF="13109" > PDF=13100 MemberID=9 </weight>
<weight id="1497" MUR="1.0" MUF="1.0" PDF="13110" > PDF=13100 MemberID=10 </weight>
<weight id="1498" MUR="1.0" MUF="1.0" PDF="13111" > PDF=13100 MemberID=11 </weight>
<weight id="1499" MUR="1.0" MUF="1.0" PDF="13112" > PDF=13100 MemberID=12 </weight>
<weight id="1500" MUR="1.0" MUF="1.0" PDF="13113" > PDF=13100 MemberID=13 </weight>
<weight id="1501" MUR="1.0" MUF="1.0" PDF="13114" > PDF=13100 MemberID=14 </weight>
<weight id="1502" MUR="1.0" MUF="1.0" PDF="13115" > PDF=13100 MemberID=15 </weight>
<weight id="1503" MUR="1.0" MUF="1.0" PDF="13116" > PDF=13100 MemberID=16 </weight>
<weight id="1504" MUR="1.0" MUF="1.0" PDF="13117" > PDF=13100 MemberID=17 </weight>
<weight id="1505" MUR="1.0" MUF="1.0" PDF="13118" > PDF=13100 MemberID=18 </weight>
<weight id="1506" MUR="1.0" MUF="1.0" PDF="13119" > PDF=13100 MemberID=19 </weight>
<weight id="1507" MUR="1.0" MUF="1.0" PDF="13120" > PDF=13100 MemberID=20 </weight>
<weight id="1508" MUR="1.0" MUF="1.0" PDF="13121" > PDF=13100 MemberID=21 </weight>
<weight id="1509" MUR="1.0" MUF="1.0" PDF="13122" > PDF=13100 MemberID=22 </weight>
<weight id="1510" MUR="1.0" MUF="1.0" PDF="13123" > PDF=13100 MemberID=23 </weight>
<weight id="1511" MUR="1.0" MUF="1.0" PDF="13124" > PDF=13100 MemberID=24 </weight>
<weight id="1512" MUR="1.0" MUF="1.0" PDF="13125" > PDF=13100 MemberID=25 </weight>
<weight id="1513" MUR="1.0" MUF="1.0" PDF="13126" > PDF=13100 MemberID=26 </weight>
<weight id="1514" MUR="1.0" MUF="1.0" PDF="13127" > PDF=13100 MemberID=27 </weight>
<weight id="1515" MUR="1.0" MUF="1.0" PDF="13128" > PDF=13100 MemberID=28 </weight>
<weight id="1516" MUR="1.0" MUF="1.0" PDF="13129" > PDF=13100 MemberID=29 </weight>
<weight id="1517" MUR="1.0" MUF="1.0" PDF="13130" > PDF=13100 MemberID=30 </weight>
<weight id="1518" MUR="1.0" MUF="1.0" PDF="13131" > PDF=13100 MemberID=31 </weight>
<weight id="1519" MUR="1.0" MUF="1.0" PDF="13132" > PDF=13100 MemberID=32 </weight>
<weight id="1520" MUR="1.0" MUF="1.0" PDF="13133" > PDF=13100 MemberID=33 </weight>
<weight id="1521" MUR="1.0" MUF="1.0" PDF="13134" > PDF=13100 MemberID=34 </weight>
<weight id="1522" MUR="1.0" MUF="1.0" PDF="13135" > PDF=13100 MemberID=35 </weight>
<weight id="1523" MUR="1.0" MUF="1.0" PDF="13136" > PDF=13100 MemberID=36 </weight>
<weight id="1524" MUR="1.0" MUF="1.0" PDF="13137" > PDF=13100 MemberID=37 </weight>
<weight id="1525" MUR="1.0" MUF="1.0" PDF="13138" > PDF=13100 MemberID=38 </weight>
<weight id="1526" MUR="1.0" MUF="1.0" PDF="13139" > PDF=13100 MemberID=39 </weight>
<weight id="1527" MUR="1.0" MUF="1.0" PDF="13140" > PDF=13100 MemberID=40 </weight>
<weight id="1528" MUR="1.0" MUF="1.0" PDF="13141" > PDF=13100 MemberID=41 </weight>
<weight id="1529" MUR="1.0" MUF="1.0" PDF="13142" > PDF=13100 MemberID=42 </weight>
<weight id="1530" MUR="1.0" MUF="1.0" PDF="13143" > PDF=13100 MemberID=43 </weight>
<weight id="1531" MUR="1.0" MUF="1.0" PDF="13144" > PDF=13100 MemberID=44 </weight>
<weight id="1532" MUR="1.0" MUF="1.0" PDF="13145" > PDF=13100 MemberID=45 </weight>
<weight id="1533" MUR="1.0" MUF="1.0" PDF="13146" > PDF=13100 MemberID=46 </weight>
<weight id="1534" MUR="1.0" MUF="1.0" PDF="13147" > PDF=13100 MemberID=47 </weight>
<weight id="1535" MUR="1.0" MUF="1.0" PDF="13148" > PDF=13100 MemberID=48 </weight>
<weight id="1536" MUR="1.0" MUF="1.0" PDF="13149" > PDF=13100 MemberID=49 </weight>
<weight id="1537" MUR="1.0" MUF="1.0" PDF="13150" > PDF=13100 MemberID=50 </weight>
<weight id="1538" MUR="1.0" MUF="1.0" PDF="13151" > PDF=13100 MemberID=51 </weight>
<weight id="1539" MUR="1.0" MUF="1.0" PDF="13152" > PDF=13100 MemberID=52 </weight>
<weight id="1540" MUR="1.0" MUF="1.0" PDF="13153" > PDF=13100 MemberID=53 </weight>
<weight id="1541" MUR="1.0" MUF="1.0" PDF="13154" > PDF=13100 MemberID=54 </weight>
<weight id="1542" MUR="1.0" MUF="1.0" PDF="13155" > PDF=13100 MemberID=55 </weight>
<weight id="1543" MUR="1.0" MUF="1.0" PDF="13156" > PDF=13100 MemberID=56 </weight>
</weightgroup> # PDFSET -> PDF
<weight id="1544" MUR="1.0" MUF="1.0" PDF="13163" > PDF=13163 MemberID=0 </weight>
<weight id="1545" MUR="1.0" MUF="1.0" PDF="13167" > PDF=13167 MemberID=0 </weight>
<weight id="1546" MUR="1.0" MUF="1.0" PDF="13200" > PDF=13200 MemberID=0 </weight>
<weightgroup name="MMHT2014nlo68clas118" combine="hessian"> # 25200: MMHT 2014 NLO (68% C.L.) alpha_S=0.118. mem=0 ; central value; mem=1-50 ; 25 eigenvector sets (+/- directions). See Section 6 of arXiv:0901.0002 for error calculation. Web address: www.hep.ucl.ac.uk/mmht
<weight id="1547" MUR="1.0" MUF="1.0" PDF="25200" > PDF=25200 MemberID=0 </weight>
<weight id="1548" MUR="1.0" MUF="1.0" PDF="25201" > PDF=25200 MemberID=1 </weight>
<weight id="1549" MUR="1.0" MUF="1.0" PDF="25202" > PDF=25200 MemberID=2 </weight>
<weight id="1550" MUR="1.0" MUF="1.0" PDF="25203" > PDF=25200 MemberID=3 </weight>
<weight id="1551" MUR="1.0" MUF="1.0" PDF="25204" > PDF=25200 MemberID=4 </weight>
<weight id="1552" MUR="1.0" MUF="1.0" PDF="25205" > PDF=25200 MemberID=5 </weight>
<weight id="1553" MUR="1.0" MUF="1.0" PDF="25206" > PDF=25200 MemberID=6 </weight>
<weight id="1554" MUR="1.0" MUF="1.0" PDF="25207" > PDF=25200 MemberID=7 </weight>
<weight id="1555" MUR="1.0" MUF="1.0" PDF="25208" > PDF=25200 MemberID=8 </weight>
<weight id="1556" MUR="1.0" MUF="1.0" PDF="25209" > PDF=25200 MemberID=9 </weight>
<weight id="1557" MUR="1.0" MUF="1.0" PDF="25210" > PDF=25200 MemberID=10 </weight>
<weight id="1558" MUR="1.0" MUF="1.0" PDF="25211" > PDF=25200 MemberID=11 </weight>
<weight id="1559" MUR="1.0" MUF="1.0" PDF="25212" > PDF=25200 MemberID=12 </weight>
<weight id="1560" MUR="1.0" MUF="1.0" PDF="25213" > PDF=25200 MemberID=13 </weight>
<weight id="1561" MUR="1.0" MUF="1.0" PDF="25214" > PDF=25200 MemberID=14 </weight>
<weight id="1562" MUR="1.0" MUF="1.0" PDF="25215" > PDF=25200 MemberID=15 </weight>
<weight id="1563" MUR="1.0" MUF="1.0" PDF="25216" > PDF=25200 MemberID=16 </weight>
<weight id="1564" MUR="1.0" MUF="1.0" PDF="25217" > PDF=25200 MemberID=17 </weight>
<weight id="1565" MUR="1.0" MUF="1.0" PDF="25218" > PDF=25200 MemberID=18 </weight>
<weight id="1566" MUR="1.0" MUF="1.0" PDF="25219" > PDF=25200 MemberID=19 </weight>
<weight id="1567" MUR="1.0" MUF="1.0" PDF="25220" > PDF=25200 MemberID=20 </weight>
<weight id="1568" MUR="1.0" MUF="1.0" PDF="25221" > PDF=25200 MemberID=21 </weight>
<weight id="1569" MUR="1.0" MUF="1.0" PDF="25222" > PDF=25200 MemberID=22 </weight>
<weight id="1570" MUR="1.0" MUF="1.0" PDF="25223" > PDF=25200 MemberID=23 </weight>
<weight id="1571" MUR="1.0" MUF="1.0" PDF="25224" > PDF=25200 MemberID=24 </weight>
<weight id="1572" MUR="1.0" MUF="1.0" PDF="25225" > PDF=25200 MemberID=25 </weight>
<weight id="1573" MUR="1.0" MUF="1.0" PDF="25226" > PDF=25200 MemberID=26 </weight>
<weight id="1574" MUR="1.0" MUF="1.0" PDF="25227" > PDF=25200 MemberID=27 </weight>
<weight id="1575" MUR="1.0" MUF="1.0" PDF="25228" > PDF=25200 MemberID=28 </weight>
<weight id="1576" MUR="1.0" MUF="1.0" PDF="25229" > PDF=25200 MemberID=29 </weight>
<weight id="1577" MUR="1.0" MUF="1.0" PDF="25230" > PDF=25200 MemberID=30 </weight>
<weight id="1578" MUR="1.0" MUF="1.0" PDF="25231" > PDF=25200 MemberID=31 </weight>
<weight id="1579" MUR="1.0" MUF="1.0" PDF="25232" > PDF=25200 MemberID=32 </weight>
<weight id="1580" MUR="1.0" MUF="1.0" PDF="25233" > PDF=25200 MemberID=33 </weight>
<weight id="1581" MUR="1.0" MUF="1.0" PDF="25234" > PDF=25200 MemberID=34 </weight>
<weight id="1582" MUR="1.0" MUF="1.0" PDF="25235" > PDF=25200 MemberID=35 </weight>
<weight id="1583" MUR="1.0" MUF="1.0" PDF="25236" > PDF=25200 MemberID=36 </weight>
<weight id="1584" MUR="1.0" MUF="1.0" PDF="25237" > PDF=25200 MemberID=37 </weight>
<weight id="1585" MUR="1.0" MUF="1.0" PDF="25238" > PDF=25200 MemberID=38 </weight>
<weight id="1586" MUR="1.0" MUF="1.0" PDF="25239" > PDF=25200 MemberID=39 </weight>
<weight id="1587" MUR="1.0" MUF="1.0" PDF="25240" > PDF=25200 MemberID=40 </weight>
<weight id="1588" MUR="1.0" MUF="1.0" PDF="25241" > PDF=25200 MemberID=41 </weight>
<weight id="1589" MUR="1.0" MUF="1.0" PDF="25242" > PDF=25200 MemberID=42 </weight>
<weight id="1590" MUR="1.0" MUF="1.0" PDF="25243" > PDF=25200 MemberID=43 </weight>
<weight id="1591" MUR="1.0" MUF="1.0" PDF="25244" > PDF=25200 MemberID=44 </weight>
<weight id="1592" MUR="1.0" MUF="1.0" PDF="25245" > PDF=25200 MemberID=45 </weight>
<weight id="1593" MUR="1.0" MUF="1.0" PDF="25246" > PDF=25200 MemberID=46 </weight>
<weight id="1594" MUR="1.0" MUF="1.0" PDF="25247" > PDF=25200 MemberID=47 </weight>
<weight id="1595" MUR="1.0" MUF="1.0" PDF="25248" > PDF=25200 MemberID=48 </weight>
<weight id="1596" MUR="1.0" MUF="1.0" PDF="25249" > PDF=25200 MemberID=49 </weight>
<weight id="1597" MUR="1.0" MUF="1.0" PDF="25250" > PDF=25200 MemberID=50 </weight>
</weightgroup> # PDFSET -> PDFSET
<weightgroup name="MMHT2014nnlo68cl" combine="hessian"> # 25300: MMHT 2014 NNLO (68% C.L.). mem=0 ; central value; mem=1-50 ; 25 eigenvector sets (+/- directions). See Section 6 of arXiv:0901.0002 for error calculation. Web address: www.hep.ucl.ac.uk/mmht
<weight id="1598" MUR="1.0" MUF="1.0" PDF="25300" > PDF=25300 MemberID=0 </weight>
<weight id="1599" MUR="1.0" MUF="1.0" PDF="25301" > PDF=25300 MemberID=1 </weight>
<weight id="1600" MUR="1.0" MUF="1.0" PDF="25302" > PDF=25300 MemberID=2 </weight>
<weight id="1601" MUR="1.0" MUF="1.0" PDF="25303" > PDF=25300 MemberID=3 </weight>
<weight id="1602" MUR="1.0" MUF="1.0" PDF="25304" > PDF=25300 MemberID=4 </weight>
<weight id="1603" MUR="1.0" MUF="1.0" PDF="25305" > PDF=25300 MemberID=5 </weight>
<weight id="1604" MUR="1.0" MUF="1.0" PDF="25306" > PDF=25300 MemberID=6 </weight>
<weight id="1605" MUR="1.0" MUF="1.0" PDF="25307" > PDF=25300 MemberID=7 </weight>
<weight id="1606" MUR="1.0" MUF="1.0" PDF="25308" > PDF=25300 MemberID=8 </weight>
<weight id="1607" MUR="1.0" MUF="1.0" PDF="25309" > PDF=25300 MemberID=9 </weight>
<weight id="1608" MUR="1.0" MUF="1.0" PDF="25310" > PDF=25300 MemberID=10 </weight>
<weight id="1609" MUR="1.0" MUF="1.0" PDF="25311" > PDF=25300 MemberID=11 </weight>
<weight id="1610" MUR="1.0" MUF="1.0" PDF="25312" > PDF=25300 MemberID=12 </weight>
<weight id="1611" MUR="1.0" MUF="1.0" PDF="25313" > PDF=25300 MemberID=13 </weight>
<weight id="1612" MUR="1.0" MUF="1.0" PDF="25314" > PDF=25300 MemberID=14 </weight>
<weight id="1613" MUR="1.0" MUF="1.0" PDF="25315" > PDF=25300 MemberID=15 </weight>
<weight id="1614" MUR="1.0" MUF="1.0" PDF="25316" > PDF=25300 MemberID=16 </weight>
<weight id="1615" MUR="1.0" MUF="1.0" PDF="25317" > PDF=25300 MemberID=17 </weight>
<weight id="1616" MUR="1.0" MUF="1.0" PDF="25318" > PDF=25300 MemberID=18 </weight>
<weight id="1617" MUR="1.0" MUF="1.0" PDF="25319" > PDF=25300 MemberID=19 </weight>
<weight id="1618" MUR="1.0" MUF="1.0" PDF="25320" > PDF=25300 MemberID=20 </weight>
<weight id="1619" MUR="1.0" MUF="1.0" PDF="25321" > PDF=25300 MemberID=21 </weight>
<weight id="1620" MUR="1.0" MUF="1.0" PDF="25322" > PDF=25300 MemberID=22 </weight>
<weight id="1621" MUR="1.0" MUF="1.0" PDF="25323" > PDF=25300 MemberID=23 </weight>
<weight id="1622" MUR="1.0" MUF="1.0" PDF="25324" > PDF=25300 MemberID=24 </weight>
<weight id="1623" MUR="1.0" MUF="1.0" PDF="25325" > PDF=25300 MemberID=25 </weight>
<weight id="1624" MUR="1.0" MUF="1.0" PDF="25326" > PDF=25300 MemberID=26 </weight>
<weight id="1625" MUR="1.0" MUF="1.0" PDF="25327" > PDF=25300 MemberID=27 </weight>
<weight id="1626" MUR="1.0" MUF="1.0" PDF="25328" > PDF=25300 MemberID=28 </weight>
<weight id="1627" MUR="1.0" MUF="1.0" PDF="25329" > PDF=25300 MemberID=29 </weight>
<weight id="1628" MUR="1.0" MUF="1.0" PDF="25330" > PDF=25300 MemberID=30 </weight>
<weight id="1629" MUR="1.0" MUF="1.0" PDF="25331" > PDF=25300 MemberID=31 </weight>
<weight id="1630" MUR="1.0" MUF="1.0" PDF="25332" > PDF=25300 MemberID=32 </weight>
<weight id="1631" MUR="1.0" MUF="1.0" PDF="25333" > PDF=25300 MemberID=33 </weight>
<weight id="1632" MUR="1.0" MUF="1.0" PDF="25334" > PDF=25300 MemberID=34 </weight>
<weight id="1633" MUR="1.0" MUF="1.0" PDF="25335" > PDF=25300 MemberID=35 </weight>
<weight id="1634" MUR="1.0" MUF="1.0" PDF="25336" > PDF=25300 MemberID=36 </weight>
<weight id="1635" MUR="1.0" MUF="1.0" PDF="25337" > PDF=25300 MemberID=37 </weight>
<weight id="1636" MUR="1.0" MUF="1.0" PDF="25338" > PDF=25300 MemberID=38 </weight>
<weight id="1637" MUR="1.0" MUF="1.0" PDF="25339" > PDF=25300 MemberID=39 </weight>
<weight id="1638" MUR="1.0" MUF="1.0" PDF="25340" > PDF=25300 MemberID=40 </weight>
<weight id="1639" MUR="1.0" MUF="1.0" PDF="25341" > PDF=25300 MemberID=41 </weight>
<weight id="1640" MUR="1.0" MUF="1.0" PDF="25342" > PDF=25300 MemberID=42 </weight>
<weight id="1641" MUR="1.0" MUF="1.0" PDF="25343" > PDF=25300 MemberID=43 </weight>
<weight id="1642" MUR="1.0" MUF="1.0" PDF="25344" > PDF=25300 MemberID=44 </weight>
<weight id="1643" MUR="1.0" MUF="1.0" PDF="25345" > PDF=25300 MemberID=45 </weight>
<weight id="1644" MUR="1.0" MUF="1.0" PDF="25346" > PDF=25300 MemberID=46 </weight>
<weight id="1645" MUR="1.0" MUF="1.0" PDF="25347" > PDF=25300 MemberID=47 </weight>
<weight id="1646" MUR="1.0" MUF="1.0" PDF="25348" > PDF=25300 MemberID=48 </weight>
<weight id="1647" MUR="1.0" MUF="1.0" PDF="25349" > PDF=25300 MemberID=49 </weight>
<weight id="1648" MUR="1.0" MUF="1.0" PDF="25350" > PDF=25300 MemberID=50 </weight>
</weightgroup> # PDFSET -> PDF
<weight id="1649" MUR="1.0" MUF="1.0" PDF="25000" > PDF=25000 MemberID=0 </weight>
<weightgroup name="ABMP16als118_5_nnlo" combine="symmhessian"> # 42780: NNLO 5-flavour PDFs with different alphas_s for the ABMP16 set
<weight id="1650" MUR="1.0" MUF="1.0" PDF="42780" > PDF=42780 MemberID=0 </weight>
<weight id="1651" MUR="1.0" MUF="1.0" PDF="42781" > PDF=42780 MemberID=1 </weight>
<weight id="1652" MUR="1.0" MUF="1.0" PDF="42782" > PDF=42780 MemberID=2 </weight>
<weight id="1653" MUR="1.0" MUF="1.0" PDF="42783" > PDF=42780 MemberID=3 </weight>
<weight id="1654" MUR="1.0" MUF="1.0" PDF="42784" > PDF=42780 MemberID=4 </weight>
<weight id="1655" MUR="1.0" MUF="1.0" PDF="42785" > PDF=42780 MemberID=5 </weight>
<weight id="1656" MUR="1.0" MUF="1.0" PDF="42786" > PDF=42780 MemberID=6 </weight>
<weight id="1657" MUR="1.0" MUF="1.0" PDF="42787" > PDF=42780 MemberID=7 </weight>
<weight id="1658" MUR="1.0" MUF="1.0" PDF="42788" > PDF=42780 MemberID=8 </weight>
<weight id="1659" MUR="1.0" MUF="1.0" PDF="42789" > PDF=42780 MemberID=9 </weight>
<weight id="1660" MUR="1.0" MUF="1.0" PDF="42790" > PDF=42780 MemberID=10 </weight>
<weight id="1661" MUR="1.0" MUF="1.0" PDF="42791" > PDF=42780 MemberID=11 </weight>
<weight id="1662" MUR="1.0" MUF="1.0" PDF="42792" > PDF=42780 MemberID=12 </weight>
<weight id="1663" MUR="1.0" MUF="1.0" PDF="42793" > PDF=42780 MemberID=13 </weight>
<weight id="1664" MUR="1.0" MUF="1.0" PDF="42794" > PDF=42780 MemberID=14 </weight>
<weight id="1665" MUR="1.0" MUF="1.0" PDF="42795" > PDF=42780 MemberID=15 </weight>
<weight id="1666" MUR="1.0" MUF="1.0" PDF="42796" > PDF=42780 MemberID=16 </weight>
<weight id="1667" MUR="1.0" MUF="1.0" PDF="42797" > PDF=42780 MemberID=17 </weight>
<weight id="1668" MUR="1.0" MUF="1.0" PDF="42798" > PDF=42780 MemberID=18 </weight>
<weight id="1669" MUR="1.0" MUF="1.0" PDF="42799" > PDF=42780 MemberID=19 </weight>
<weight id="1670" MUR="1.0" MUF="1.0" PDF="42800" > PDF=42780 MemberID=20 </weight>
<weight id="1671" MUR="1.0" MUF="1.0" PDF="42801" > PDF=42780 MemberID=21 </weight>
<weight id="1672" MUR="1.0" MUF="1.0" PDF="42802" > PDF=42780 MemberID=22 </weight>
<weight id="1673" MUR="1.0" MUF="1.0" PDF="42803" > PDF=42780 MemberID=23 </weight>
<weight id="1674" MUR="1.0" MUF="1.0" PDF="42804" > PDF=42780 MemberID=24 </weight>
<weight id="1675" MUR="1.0" MUF="1.0" PDF="42805" > PDF=42780 MemberID=25 </weight>
<weight id="1676" MUR="1.0" MUF="1.0" PDF="42806" > PDF=42780 MemberID=26 </weight>
<weight id="1677" MUR="1.0" MUF="1.0" PDF="42807" > PDF=42780 MemberID=27 </weight>
<weight id="1678" MUR="1.0" MUF="1.0" PDF="42808" > PDF=42780 MemberID=28 </weight>
<weight id="1679" MUR="1.0" MUF="1.0" PDF="42809" > PDF=42780 MemberID=29 </weight>
</weightgroup> # PDFSET -> PDFSET
<weightgroup name="PDF4LHC15_nlo_100_pdfas" combine="symmhessian+as"> # 90200: PDF4LHC15_nlo_100_pdfas. mem=0 ; alphas(MZ)=0.118 central value; mem=1-100 ; PDF symmetric eigenvectors; mem=101 ; alphas(MZ)=0.1165 central value; mem=102 ; alphas(MZ)=0.1195
<weight id="1680" MUR="1.0" MUF="1.0" PDF="90200" > PDF=90200 MemberID=0 </weight>
<weight id="1681" MUR="1.0" MUF="1.0" PDF="90201" > PDF=90200 MemberID=1 </weight>
<weight id="1682" MUR="1.0" MUF="1.0" PDF="90202" > PDF=90200 MemberID=2 </weight>
<weight id="1683" MUR="1.0" MUF="1.0" PDF="90203" > PDF=90200 MemberID=3 </weight>
<weight id="1684" MUR="1.0" MUF="1.0" PDF="90204" > PDF=90200 MemberID=4 </weight>
<weight id="1685" MUR="1.0" MUF="1.0" PDF="90205" > PDF=90200 MemberID=5 </weight>
<weight id="1686" MUR="1.0" MUF="1.0" PDF="90206" > PDF=90200 MemberID=6 </weight>
<weight id="1687" MUR="1.0" MUF="1.0" PDF="90207" > PDF=90200 MemberID=7 </weight>
<weight id="1688" MUR="1.0" MUF="1.0" PDF="90208" > PDF=90200 MemberID=8 </weight>
<weight id="1689" MUR="1.0" MUF="1.0" PDF="90209" > PDF=90200 MemberID=9 </weight>
<weight id="1690" MUR="1.0" MUF="1.0" PDF="90210" > PDF=90200 MemberID=10 </weight>
<weight id="1691" MUR="1.0" MUF="1.0" PDF="90211" > PDF=90200 MemberID=11 </weight>
<weight id="1692" MUR="1.0" MUF="1.0" PDF="90212" > PDF=90200 MemberID=12 </weight>
<weight id="1693" MUR="1.0" MUF="1.0" PDF="90213" > PDF=90200 MemberID=13 </weight>
<weight id="1694" MUR="1.0" MUF="1.0" PDF="90214" > PDF=90200 MemberID=14 </weight>
<weight id="1695" MUR="1.0" MUF="1.0" PDF="90215" > PDF=90200 MemberID=15 </weight>
<weight id="1696" MUR="1.0" MUF="1.0" PDF="90216" > PDF=90200 MemberID=16 </weight>
<weight id="1697" MUR="1.0" MUF="1.0" PDF="90217" > PDF=90200 MemberID=17 </weight>
<weight id="1698" MUR="1.0" MUF="1.0" PDF="90218" > PDF=90200 MemberID=18 </weight>
<weight id="1699" MUR="1.0" MUF="1.0" PDF="90219" > PDF=90200 MemberID=19 </weight>
<weight id="1700" MUR="1.0" MUF="1.0" PDF="90220" > PDF=90200 MemberID=20 </weight>
<weight id="1701" MUR="1.0" MUF="1.0" PDF="90221" > PDF=90200 MemberID=21 </weight>
<weight id="1702" MUR="1.0" MUF="1.0" PDF="90222" > PDF=90200 MemberID=22 </weight>
<weight id="1703" MUR="1.0" MUF="1.0" PDF="90223" > PDF=90200 MemberID=23 </weight>
<weight id="1704" MUR="1.0" MUF="1.0" PDF="90224" > PDF=90200 MemberID=24 </weight>
<weight id="1705" MUR="1.0" MUF="1.0" PDF="90225" > PDF=90200 MemberID=25 </weight>
<weight id="1706" MUR="1.0" MUF="1.0" PDF="90226" > PDF=90200 MemberID=26 </weight>
<weight id="1707" MUR="1.0" MUF="1.0" PDF="90227" > PDF=90200 MemberID=27 </weight>
<weight id="1708" MUR="1.0" MUF="1.0" PDF="90228" > PDF=90200 MemberID=28 </weight>
<weight id="1709" MUR="1.0" MUF="1.0" PDF="90229" > PDF=90200 MemberID=29 </weight>
<weight id="1710" MUR="1.0" MUF="1.0" PDF="90230" > PDF=90200 MemberID=30 </weight>
<weight id="1711" MUR="1.0" MUF="1.0" PDF="90231" > PDF=90200 MemberID=31 </weight>
<weight id="1712" MUR="1.0" MUF="1.0" PDF="90232" > PDF=90200 MemberID=32 </weight>
<weight id="1713" MUR="1.0" MUF="1.0" PDF="90233" > PDF=90200 MemberID=33 </weight>
<weight id="1714" MUR="1.0" MUF="1.0" PDF="90234" > PDF=90200 MemberID=34 </weight>
<weight id="1715" MUR="1.0" MUF="1.0" PDF="90235" > PDF=90200 MemberID=35 </weight>
<weight id="1716" MUR="1.0" MUF="1.0" PDF="90236" > PDF=90200 MemberID=36 </weight>
<weight id="1717" MUR="1.0" MUF="1.0" PDF="90237" > PDF=90200 MemberID=37 </weight>
<weight id="1718" MUR="1.0" MUF="1.0" PDF="90238" > PDF=90200 MemberID=38 </weight>
<weight id="1719" MUR="1.0" MUF="1.0" PDF="90239" > PDF=90200 MemberID=39 </weight>
<weight id="1720" MUR="1.0" MUF="1.0" PDF="90240" > PDF=90200 MemberID=40 </weight>
<weight id="1721" MUR="1.0" MUF="1.0" PDF="90241" > PDF=90200 MemberID=41 </weight>
<weight id="1722" MUR="1.0" MUF="1.0" PDF="90242" > PDF=90200 MemberID=42 </weight>
<weight id="1723" MUR="1.0" MUF="1.0" PDF="90243" > PDF=90200 MemberID=43 </weight>
<weight id="1724" MUR="1.0" MUF="1.0" PDF="90244" > PDF=90200 MemberID=44 </weight>
<weight id="1725" MUR="1.0" MUF="1.0" PDF="90245" > PDF=90200 MemberID=45 </weight>
<weight id="1726" MUR="1.0" MUF="1.0" PDF="90246" > PDF=90200 MemberID=46 </weight>
<weight id="1727" MUR="1.0" MUF="1.0" PDF="90247" > PDF=90200 MemberID=47 </weight>
<weight id="1728" MUR="1.0" MUF="1.0" PDF="90248" > PDF=90200 MemberID=48 </weight>
<weight id="1729" MUR="1.0" MUF="1.0" PDF="90249" > PDF=90200 MemberID=49 </weight>
<weight id="1730" MUR="1.0" MUF="1.0" PDF="90250" > PDF=90200 MemberID=50 </weight>
<weight id="1731" MUR="1.0" MUF="1.0" PDF="90251" > PDF=90200 MemberID=51 </weight>
<weight id="1732" MUR="1.0" MUF="1.0" PDF="90252" > PDF=90200 MemberID=52 </weight>
<weight id="1733" MUR="1.0" MUF="1.0" PDF="90253" > PDF=90200 MemberID=53 </weight>
<weight id="1734" MUR="1.0" MUF="1.0" PDF="90254" > PDF=90200 MemberID=54 </weight>
<weight id="1735" MUR="1.0" MUF="1.0" PDF="90255" > PDF=90200 MemberID=55 </weight>
<weight id="1736" MUR="1.0" MUF="1.0" PDF="90256" > PDF=90200 MemberID=56 </weight>
<weight id="1737" MUR="1.0" MUF="1.0" PDF="90257" > PDF=90200 MemberID=57 </weight>
<weight id="1738" MUR="1.0" MUF="1.0" PDF="90258" > PDF=90200 MemberID=58 </weight>
<weight id="1739" MUR="1.0" MUF="1.0" PDF="90259" > PDF=90200 MemberID=59 </weight>
<weight id="1740" MUR="1.0" MUF="1.0" PDF="90260" > PDF=90200 MemberID=60 </weight>
<weight id="1741" MUR="1.0" MUF="1.0" PDF="90261" > PDF=90200 MemberID=61 </weight>
<weight id="1742" MUR="1.0" MUF="1.0" PDF="90262" > PDF=90200 MemberID=62 </weight>
<weight id="1743" MUR="1.0" MUF="1.0" PDF="90263" > PDF=90200 MemberID=63 </weight>
<weight id="1744" MUR="1.0" MUF="1.0" PDF="90264" > PDF=90200 MemberID=64 </weight>
<weight id="1745" MUR="1.0" MUF="1.0" PDF="90265" > PDF=90200 MemberID=65 </weight>
<weight id="1746" MUR="1.0" MUF="1.0" PDF="90266" > PDF=90200 MemberID=66 </weight>
<weight id="1747" MUR="1.0" MUF="1.0" PDF="90267" > PDF=90200 MemberID=67 </weight>
<weight id="1748" MUR="1.0" MUF="1.0" PDF="90268" > PDF=90200 MemberID=68 </weight>
<weight id="1749" MUR="1.0" MUF="1.0" PDF="90269" > PDF=90200 MemberID=69 </weight>
<weight id="1750" MUR="1.0" MUF="1.0" PDF="90270" > PDF=90200 MemberID=70 </weight>
<weight id="1751" MUR="1.0" MUF="1.0" PDF="90271" > PDF=90200 MemberID=71 </weight>
<weight id="1752" MUR="1.0" MUF="1.0" PDF="90272" > PDF=90200 MemberID=72 </weight>
<weight id="1753" MUR="1.0" MUF="1.0" PDF="90273" > PDF=90200 MemberID=73 </weight>
<weight id="1754" MUR="1.0" MUF="1.0" PDF="90274" > PDF=90200 MemberID=74 </weight>
<weight id="1755" MUR="1.0" MUF="1.0" PDF="90275" > PDF=90200 MemberID=75 </weight>
<weight id="1756" MUR="1.0" MUF="1.0" PDF="90276" > PDF=90200 MemberID=76 </weight>
<weight id="1757" MUR="1.0" MUF="1.0" PDF="90277" > PDF=90200 MemberID=77 </weight>
<weight id="1758" MUR="1.0" MUF="1.0" PDF="90278" > PDF=90200 MemberID=78 </weight>
<weight id="1759" MUR="1.0" MUF="1.0" PDF="90279" > PDF=90200 MemberID=79 </weight>
<weight id="1760" MUR="1.0" MUF="1.0" PDF="90280" > PDF=90200 MemberID=80 </weight>
<weight id="1761" MUR="1.0" MUF="1.0" PDF="90281" > PDF=90200 MemberID=81 </weight>
<weight id="1762" MUR="1.0" MUF="1.0" PDF="90282" > PDF=90200 MemberID=82 </weight>
<weight id="1763" MUR="1.0" MUF="1.0" PDF="90283" > PDF=90200 MemberID=83 </weight>
<weight id="1764" MUR="1.0" MUF="1.0" PDF="90284" > PDF=90200 MemberID=84 </weight>
<weight id="1765" MUR="1.0" MUF="1.0" PDF="90285" > PDF=90200 MemberID=85 </weight>
<weight id="1766" MUR="1.0" MUF="1.0" PDF="90286" > PDF=90200 MemberID=86 </weight>
<weight id="1767" MUR="1.0" MUF="1.0" PDF="90287" > PDF=90200 MemberID=87 </weight>
<weight id="1768" MUR="1.0" MUF="1.0" PDF="90288" > PDF=90200 MemberID=88 </weight>
<weight id="1769" MUR="1.0" MUF="1.0" PDF="90289" > PDF=90200 MemberID=89 </weight>
<weight id="1770" MUR="1.0" MUF="1.0" PDF="90290" > PDF=90200 MemberID=90 </weight>
<weight id="1771" MUR="1.0" MUF="1.0" PDF="90291" > PDF=90200 MemberID=91 </weight>
<weight id="1772" MUR="1.0" MUF="1.0" PDF="90292" > PDF=90200 MemberID=92 </weight>
<weight id="1773" MUR="1.0" MUF="1.0" PDF="90293" > PDF=90200 MemberID=93 </weight>
<weight id="1774" MUR="1.0" MUF="1.0" PDF="90294" > PDF=90200 MemberID=94 </weight>
<weight id="1775" MUR="1.0" MUF="1.0" PDF="90295" > PDF=90200 MemberID=95 </weight>
<weight id="1776" MUR="1.0" MUF="1.0" PDF="90296" > PDF=90200 MemberID=96 </weight>
<weight id="1777" MUR="1.0" MUF="1.0" PDF="90297" > PDF=90200 MemberID=97 </weight>
<weight id="1778" MUR="1.0" MUF="1.0" PDF="90298" > PDF=90200 MemberID=98 </weight>
<weight id="1779" MUR="1.0" MUF="1.0" PDF="90299" > PDF=90200 MemberID=99 </weight>
<weight id="1780" MUR="1.0" MUF="1.0" PDF="90300" > PDF=90200 MemberID=100 </weight>
<weight id="1781" MUR="1.0" MUF="1.0" PDF="90301" > PDF=90200 MemberID=101 </weight>
<weight id="1782" MUR="1.0" MUF="1.0" PDF="90302" > PDF=90200 MemberID=102 </weight>
</weightgroup> # PDFSET -> PDFSET
<weightgroup name="PDF4LHC15_nnlo_100_pdfas" combine="symmhessian+as"> # 91200: PDF4LHC15_nnlo_100_pdfas. mem=0 ; alphas(MZ)=0.118 central value; mem=1-100 ; PDF symmetric eigenvectors; mem=101 ; alphas(MZ)=0.1165 central value; mem=102 ; alphas(MZ)=0.1195
<weight id="1783" MUR="1.0" MUF="1.0" PDF="91200" > PDF=91200 MemberID=0 </weight>
<weight id="1784" MUR="1.0" MUF="1.0" PDF="91201" > PDF=91200 MemberID=1 </weight>
<weight id="1785" MUR="1.0" MUF="1.0" PDF="91202" > PDF=91200 MemberID=2 </weight>
<weight id="1786" MUR="1.0" MUF="1.0" PDF="91203" > PDF=91200 MemberID=3 </weight>
<weight id="1787" MUR="1.0" MUF="1.0" PDF="91204" > PDF=91200 MemberID=4 </weight>
<weight id="1788" MUR="1.0" MUF="1.0" PDF="91205" > PDF=91200 MemberID=5 </weight>
<weight id="1789" MUR="1.0" MUF="1.0" PDF="91206" > PDF=91200 MemberID=6 </weight>
<weight id="1790" MUR="1.0" MUF="1.0" PDF="91207" > PDF=91200 MemberID=7 </weight>
<weight id="1791" MUR="1.0" MUF="1.0" PDF="91208" > PDF=91200 MemberID=8 </weight>
<weight id="1792" MUR="1.0" MUF="1.0" PDF="91209" > PDF=91200 MemberID=9 </weight>
<weight id="1793" MUR="1.0" MUF="1.0" PDF="91210" > PDF=91200 MemberID=10 </weight>
<weight id="1794" MUR="1.0" MUF="1.0" PDF="91211" > PDF=91200 MemberID=11 </weight>
<weight id="1795" MUR="1.0" MUF="1.0" PDF="91212" > PDF=91200 MemberID=12 </weight>
<weight id="1796" MUR="1.0" MUF="1.0" PDF="91213" > PDF=91200 MemberID=13 </weight>
<weight id="1797" MUR="1.0" MUF="1.0" PDF="91214" > PDF=91200 MemberID=14 </weight>
<weight id="1798" MUR="1.0" MUF="1.0" PDF="91215" > PDF=91200 MemberID=15 </weight>
<weight id="1799" MUR="1.0" MUF="1.0" PDF="91216" > PDF=91200 MemberID=16 </weight>
<weight id="1800" MUR="1.0" MUF="1.0" PDF="91217" > PDF=91200 MemberID=17 </weight>
<weight id="1801" MUR="1.0" MUF="1.0" PDF="91218" > PDF=91200 MemberID=18 </weight>
<weight id="1802" MUR="1.0" MUF="1.0" PDF="91219" > PDF=91200 MemberID=19 </weight>
<weight id="1803" MUR="1.0" MUF="1.0" PDF="91220" > PDF=91200 MemberID=20 </weight>
<weight id="1804" MUR="1.0" MUF="1.0" PDF="91221" > PDF=91200 MemberID=21 </weight>
<weight id="1805" MUR="1.0" MUF="1.0" PDF="91222" > PDF=91200 MemberID=22 </weight>
<weight id="1806" MUR="1.0" MUF="1.0" PDF="91223" > PDF=91200 MemberID=23 </weight>
<weight id="1807" MUR="1.0" MUF="1.0" PDF="91224" > PDF=91200 MemberID=24 </weight>
<weight id="1808" MUR="1.0" MUF="1.0" PDF="91225" > PDF=91200 MemberID=25 </weight>
<weight id="1809" MUR="1.0" MUF="1.0" PDF="91226" > PDF=91200 MemberID=26 </weight>
<weight id="1810" MUR="1.0" MUF="1.0" PDF="91227" > PDF=91200 MemberID=27 </weight>
<weight id="1811" MUR="1.0" MUF="1.0" PDF="91228" > PDF=91200 MemberID=28 </weight>
<weight id="1812" MUR="1.0" MUF="1.0" PDF="91229" > PDF=91200 MemberID=29 </weight>
<weight id="1813" MUR="1.0" MUF="1.0" PDF="91230" > PDF=91200 MemberID=30 </weight>
<weight id="1814" MUR="1.0" MUF="1.0" PDF="91231" > PDF=91200 MemberID=31 </weight>
<weight id="1815" MUR="1.0" MUF="1.0" PDF="91232" > PDF=91200 MemberID=32 </weight>
<weight id="1816" MUR="1.0" MUF="1.0" PDF="91233" > PDF=91200 MemberID=33 </weight>
<weight id="1817" MUR="1.0" MUF="1.0" PDF="91234" > PDF=91200 MemberID=34 </weight>
<weight id="1818" MUR="1.0" MUF="1.0" PDF="91235" > PDF=91200 MemberID=35 </weight>
<weight id="1819" MUR="1.0" MUF="1.0" PDF="91236" > PDF=91200 MemberID=36 </weight>
<weight id="1820" MUR="1.0" MUF="1.0" PDF="91237" > PDF=91200 MemberID=37 </weight>
<weight id="1821" MUR="1.0" MUF="1.0" PDF="91238" > PDF=91200 MemberID=38 </weight>
<weight id="1822" MUR="1.0" MUF="1.0" PDF="91239" > PDF=91200 MemberID=39 </weight>
<weight id="1823" MUR="1.0" MUF="1.0" PDF="91240" > PDF=91200 MemberID=40 </weight>
<weight id="1824" MUR="1.0" MUF="1.0" PDF="91241" > PDF=91200 MemberID=41 </weight>
<weight id="1825" MUR="1.0" MUF="1.0" PDF="91242" > PDF=91200 MemberID=42 </weight>
<weight id="1826" MUR="1.0" MUF="1.0" PDF="91243" > PDF=91200 MemberID=43 </weight>
<weight id="1827" MUR="1.0" MUF="1.0" PDF="91244" > PDF=91200 MemberID=44 </weight>
<weight id="1828" MUR="1.0" MUF="1.0" PDF="91245" > PDF=91200 MemberID=45 </weight>
<weight id="1829" MUR="1.0" MUF="1.0" PDF="91246" > PDF=91200 MemberID=46 </weight>
<weight id="1830" MUR="1.0" MUF="1.0" PDF="91247" > PDF=91200 MemberID=47 </weight>
<weight id="1831" MUR="1.0" MUF="1.0" PDF="91248" > PDF=91200 MemberID=48 </weight>
<weight id="1832" MUR="1.0" MUF="1.0" PDF="91249" > PDF=91200 MemberID=49 </weight>
<weight id="1833" MUR="1.0" MUF="1.0" PDF="91250" > PDF=91200 MemberID=50 </weight>
<weight id="1834" MUR="1.0" MUF="1.0" PDF="91251" > PDF=91200 MemberID=51 </weight>
<weight id="1835" MUR="1.0" MUF="1.0" PDF="91252" > PDF=91200 MemberID=52 </weight>
<weight id="1836" MUR="1.0" MUF="1.0" PDF="91253" > PDF=91200 MemberID=53 </weight>
<weight id="1837" MUR="1.0" MUF="1.0" PDF="91254" > PDF=91200 MemberID=54 </weight>
<weight id="1838" MUR="1.0" MUF="1.0" PDF="91255" > PDF=91200 MemberID=55 </weight>
<weight id="1839" MUR="1.0" MUF="1.0" PDF="91256" > PDF=91200 MemberID=56 </weight>
<weight id="1840" MUR="1.0" MUF="1.0" PDF="91257" > PDF=91200 MemberID=57 </weight>
<weight id="1841" MUR="1.0" MUF="1.0" PDF="91258" > PDF=91200 MemberID=58 </weight>
<weight id="1842" MUR="1.0" MUF="1.0" PDF="91259" > PDF=91200 MemberID=59 </weight>
<weight id="1843" MUR="1.0" MUF="1.0" PDF="91260" > PDF=91200 MemberID=60 </weight>
<weight id="1844" MUR="1.0" MUF="1.0" PDF="91261" > PDF=91200 MemberID=61 </weight>
<weight id="1845" MUR="1.0" MUF="1.0" PDF="91262" > PDF=91200 MemberID=62 </weight>
<weight id="1846" MUR="1.0" MUF="1.0" PDF="91263" > PDF=91200 MemberID=63 </weight>
<weight id="1847" MUR="1.0" MUF="1.0" PDF="91264" > PDF=91200 MemberID=64 </weight>
<weight id="1848" MUR="1.0" MUF="1.0" PDF="91265" > PDF=91200 MemberID=65 </weight>
<weight id="1849" MUR="1.0" MUF="1.0" PDF="91266" > PDF=91200 MemberID=66 </weight>
<weight id="1850" MUR="1.0" MUF="1.0" PDF="91267" > PDF=91200 MemberID=67 </weight>
<weight id="1851" MUR="1.0" MUF="1.0" PDF="91268" > PDF=91200 MemberID=68 </weight>
<weight id="1852" MUR="1.0" MUF="1.0" PDF="91269" > PDF=91200 MemberID=69 </weight>
<weight id="1853" MUR="1.0" MUF="1.0" PDF="91270" > PDF=91200 MemberID=70 </weight>
<weight id="1854" MUR="1.0" MUF="1.0" PDF="91271" > PDF=91200 MemberID=71 </weight>
<weight id="1855" MUR="1.0" MUF="1.0" PDF="91272" > PDF=91200 MemberID=72 </weight>
<weight id="1856" MUR="1.0" MUF="1.0" PDF="91273" > PDF=91200 MemberID=73 </weight>
<weight id="1857" MUR="1.0" MUF="1.0" PDF="91274" > PDF=91200 MemberID=74 </weight>
<weight id="1858" MUR="1.0" MUF="1.0" PDF="91275" > PDF=91200 MemberID=75 </weight>
<weight id="1859" MUR="1.0" MUF="1.0" PDF="91276" > PDF=91200 MemberID=76 </weight>
<weight id="1860" MUR="1.0" MUF="1.0" PDF="91277" > PDF=91200 MemberID=77 </weight>
<weight id="1861" MUR="1.0" MUF="1.0" PDF="91278" > PDF=91200 MemberID=78 </weight>
<weight id="1862" MUR="1.0" MUF="1.0" PDF="91279" > PDF=91200 MemberID=79 </weight>
<weight id="1863" MUR="1.0" MUF="1.0" PDF="91280" > PDF=91200 MemberID=80 </weight>
<weight id="1864" MUR="1.0" MUF="1.0" PDF="91281" > PDF=91200 MemberID=81 </weight>
<weight id="1865" MUR="1.0" MUF="1.0" PDF="91282" > PDF=91200 MemberID=82 </weight>
<weight id="1866" MUR="1.0" MUF="1.0" PDF="91283" > PDF=91200 MemberID=83 </weight>
<weight id="1867" MUR="1.0" MUF="1.0" PDF="91284" > PDF=91200 MemberID=84 </weight>
<weight id="1868" MUR="1.0" MUF="1.0" PDF="91285" > PDF=91200 MemberID=85 </weight>
<weight id="1869" MUR="1.0" MUF="1.0" PDF="91286" > PDF=91200 MemberID=86 </weight>
<weight id="1870" MUR="1.0" MUF="1.0" PDF="91287" > PDF=91200 MemberID=87 </weight>
<weight id="1871" MUR="1.0" MUF="1.0" PDF="91288" > PDF=91200 MemberID=88 </weight>
<weight id="1872" MUR="1.0" MUF="1.0" PDF="91289" > PDF=91200 MemberID=89 </weight>
<weight id="1873" MUR="1.0" MUF="1.0" PDF="91290" > PDF=91200 MemberID=90 </weight>
<weight id="1874" MUR="1.0" MUF="1.0" PDF="91291" > PDF=91200 MemberID=91 </weight>
<weight id="1875" MUR="1.0" MUF="1.0" PDF="91292" > PDF=91200 MemberID=92 </weight>
<weight id="1876" MUR="1.0" MUF="1.0" PDF="91293" > PDF=91200 MemberID=93 </weight>
<weight id="1877" MUR="1.0" MUF="1.0" PDF="91294" > PDF=91200 MemberID=94 </weight>
<weight id="1878" MUR="1.0" MUF="1.0" PDF="91295" > PDF=91200 MemberID=95 </weight>
<weight id="1879" MUR="1.0" MUF="1.0" PDF="91296" > PDF=91200 MemberID=96 </weight>
<weight id="1880" MUR="1.0" MUF="1.0" PDF="91297" > PDF=91200 MemberID=97 </weight>
<weight id="1881" MUR="1.0" MUF="1.0" PDF="91298" > PDF=91200 MemberID=98 </weight>
<weight id="1882" MUR="1.0" MUF="1.0" PDF="91299" > PDF=91200 MemberID=99 </weight>
<weight id="1883" MUR="1.0" MUF="1.0" PDF="91300" > PDF=91200 MemberID=100 </weight>
<weight id="1884" MUR="1.0" MUF="1.0" PDF="91301" > PDF=91200 MemberID=101 </weight>
<weight id="1885" MUR="1.0" MUF="1.0" PDF="91302" > PDF=91200 MemberID=102 </weight>
</weightgroup> # PDFSET -> PDFSET
<weightgroup name="PDF4LHC15_nlo_30_pdfas" combine="symmhessian+as"> # 90400: PDF4LHC15_nlo_30_pdfas. mem=0 ; alphas(MZ)=0.118 central value; mem=1-30 ; PDF symmetric eigenvectors; mem=31 ; alphas(MZ)=0.1165 central value; mem=32 ; alphas(MZ)=0.1195
<weight id="1886" MUR="1.0" MUF="1.0" PDF="90400" > PDF=90400 MemberID=0 </weight>
<weight id="1887" MUR="1.0" MUF="1.0" PDF="90401" > PDF=90400 MemberID=1 </weight>
<weight id="1888" MUR="1.0" MUF="1.0" PDF="90402" > PDF=90400 MemberID=2 </weight>
<weight id="1889" MUR="1.0" MUF="1.0" PDF="90403" > PDF=90400 MemberID=3 </weight>
<weight id="1890" MUR="1.0" MUF="1.0" PDF="90404" > PDF=90400 MemberID=4 </weight>
<weight id="1891" MUR="1.0" MUF="1.0" PDF="90405" > PDF=90400 MemberID=5 </weight>
<weight id="1892" MUR="1.0" MUF="1.0" PDF="90406" > PDF=90400 MemberID=6 </weight>
<weight id="1893" MUR="1.0" MUF="1.0" PDF="90407" > PDF=90400 MemberID=7 </weight>
<weight id="1894" MUR="1.0" MUF="1.0" PDF="90408" > PDF=90400 MemberID=8 </weight>
<weight id="1895" MUR="1.0" MUF="1.0" PDF="90409" > PDF=90400 MemberID=9 </weight>
<weight id="1896" MUR="1.0" MUF="1.0" PDF="90410" > PDF=90400 MemberID=10 </weight>
<weight id="1897" MUR="1.0" MUF="1.0" PDF="90411" > PDF=90400 MemberID=11 </weight>
<weight id="1898" MUR="1.0" MUF="1.0" PDF="90412" > PDF=90400 MemberID=12 </weight>
<weight id="1899" MUR="1.0" MUF="1.0" PDF="90413" > PDF=90400 MemberID=13 </weight>
<weight id="1900" MUR="1.0" MUF="1.0" PDF="90414" > PDF=90400 MemberID=14 </weight>
<weight id="1901" MUR="1.0" MUF="1.0" PDF="90415" > PDF=90400 MemberID=15 </weight>
<weight id="1902" MUR="1.0" MUF="1.0" PDF="90416" > PDF=90400 MemberID=16 </weight>
<weight id="1903" MUR="1.0" MUF="1.0" PDF="90417" > PDF=90400 MemberID=17 </weight>
<weight id="1904" MUR="1.0" MUF="1.0" PDF="90418" > PDF=90400 MemberID=18 </weight>
<weight id="1905" MUR="1.0" MUF="1.0" PDF="90419" > PDF=90400 MemberID=19 </weight>
<weight id="1906" MUR="1.0" MUF="1.0" PDF="90420" > PDF=90400 MemberID=20 </weight>
<weight id="1907" MUR="1.0" MUF="1.0" PDF="90421" > PDF=90400 MemberID=21 </weight>
<weight id="1908" MUR="1.0" MUF="1.0" PDF="90422" > PDF=90400 MemberID=22 </weight>
<weight id="1909" MUR="1.0" MUF="1.0" PDF="90423" > PDF=90400 MemberID=23 </weight>
<weight id="1910" MUR="1.0" MUF="1.0" PDF="90424" > PDF=90400 MemberID=24 </weight>
<weight id="1911" MUR="1.0" MUF="1.0" PDF="90425" > PDF=90400 MemberID=25 </weight>
<weight id="1912" MUR="1.0" MUF="1.0" PDF="90426" > PDF=90400 MemberID=26 </weight>
<weight id="1913" MUR="1.0" MUF="1.0" PDF="90427" > PDF=90400 MemberID=27 </weight>
<weight id="1914" MUR="1.0" MUF="1.0" PDF="90428" > PDF=90400 MemberID=28 </weight>
<weight id="1915" MUR="1.0" MUF="1.0" PDF="90429" > PDF=90400 MemberID=29 </weight>
<weight id="1916" MUR="1.0" MUF="1.0" PDF="90430" > PDF=90400 MemberID=30 </weight>
<weight id="1917" MUR="1.0" MUF="1.0" PDF="90431" > PDF=90400 MemberID=31 </weight>
<weight id="1918" MUR="1.0" MUF="1.0" PDF="90432" > PDF=90400 MemberID=32 </weight>
</weightgroup> # PDFSET -> PDFSET
<weightgroup name="PDF4LHC15_nnlo_30_pdfas" combine="symmhessian+as"> # 91400: PDF4LHC15_nnlo_30_pdfas. mem=0 ; alphas(MZ)=0.118 central value; mem=1-30 ; PDF symmetric eigenvectors; mem=31 ; alphas(MZ)=0.1165 central value; mem=32 ; alphas(MZ)=0.1195
<weight id="1919" MUR="1.0" MUF="1.0" PDF="91400" > PDF=91400 MemberID=0 </weight>
<weight id="1920" MUR="1.0" MUF="1.0" PDF="91401" > PDF=91400 MemberID=1 </weight>
<weight id="1921" MUR="1.0" MUF="1.0" PDF="91402" > PDF=91400 MemberID=2 </weight>
<weight id="1922" MUR="1.0" MUF="1.0" PDF="91403" > PDF=91400 MemberID=3 </weight>
<weight id="1923" MUR="1.0" MUF="1.0" PDF="91404" > PDF=91400 MemberID=4 </weight>
<weight id="1924" MUR="1.0" MUF="1.0" PDF="91405" > PDF=91400 MemberID=5 </weight>
<weight id="1925" MUR="1.0" MUF="1.0" PDF="91406" > PDF=91400 MemberID=6 </weight>
<weight id="1926" MUR="1.0" MUF="1.0" PDF="91407" > PDF=91400 MemberID=7 </weight>
<weight id="1927" MUR="1.0" MUF="1.0" PDF="91408" > PDF=91400 MemberID=8 </weight>
<weight id="1928" MUR="1.0" MUF="1.0" PDF="91409" > PDF=91400 MemberID=9 </weight>
<weight id="1929" MUR="1.0" MUF="1.0" PDF="91410" > PDF=91400 MemberID=10 </weight>
<weight id="1930" MUR="1.0" MUF="1.0" PDF="91411" > PDF=91400 MemberID=11 </weight>
<weight id="1931" MUR="1.0" MUF="1.0" PDF="91412" > PDF=91400 MemberID=12 </weight>
<weight id="1932" MUR="1.0" MUF="1.0" PDF="91413" > PDF=91400 MemberID=13 </weight>
<weight id="1933" MUR="1.0" MUF="1.0" PDF="91414" > PDF=91400 MemberID=14 </weight>
<weight id="1934" MUR="1.0" MUF="1.0" PDF="91415" > PDF=91400 MemberID=15 </weight>
<weight id="1935" MUR="1.0" MUF="1.0" PDF="91416" > PDF=91400 MemberID=16 </weight>
<weight id="1936" MUR="1.0" MUF="1.0" PDF="91417" > PDF=91400 MemberID=17 </weight>
<weight id="1937" MUR="1.0" MUF="1.0" PDF="91418" > PDF=91400 MemberID=18 </weight>
<weight id="1938" MUR="1.0" MUF="1.0" PDF="91419" > PDF=91400 MemberID=19 </weight>
<weight id="1939" MUR="1.0" MUF="1.0" PDF="91420" > PDF=91400 MemberID=20 </weight>
<weight id="1940" MUR="1.0" MUF="1.0" PDF="91421" > PDF=91400 MemberID=21 </weight>
<weight id="1941" MUR="1.0" MUF="1.0" PDF="91422" > PDF=91400 MemberID=22 </weight>
<weight id="1942" MUR="1.0" MUF="1.0" PDF="91423" > PDF=91400 MemberID=23 </weight>
<weight id="1943" MUR="1.0" MUF="1.0" PDF="91424" > PDF=91400 MemberID=24 </weight>
<weight id="1944" MUR="1.0" MUF="1.0" PDF="91425" > PDF=91400 MemberID=25 </weight>
<weight id="1945" MUR="1.0" MUF="1.0" PDF="91426" > PDF=91400 MemberID=26 </weight>
<weight id="1946" MUR="1.0" MUF="1.0" PDF="91427" > PDF=91400 MemberID=27 </weight>
<weight id="1947" MUR="1.0" MUF="1.0" PDF="91428" > PDF=91400 MemberID=28 </weight>
<weight id="1948" MUR="1.0" MUF="1.0" PDF="91429" > PDF=91400 MemberID=29 </weight>
<weight id="1949" MUR="1.0" MUF="1.0" PDF="91430" > PDF=91400 MemberID=30 </weight>
<weight id="1950" MUR="1.0" MUF="1.0" PDF="91431" > PDF=91400 MemberID=31 </weight>
<weight id="1951" MUR="1.0" MUF="1.0" PDF="91432" > PDF=91400 MemberID=32 </weight>
</weightgroup> # PDFSET -> PDFSET
<weightgroup name="HERAPDF20_NLO_EIG" combine="hessian"> # 61100: HERAPDF20 NLO (Q2min=3.5) fit and experimental uncertainty variations. The 28 error PDFs should be treated two by two as the up and down excursions along 14 eigenvectors, such that the symmetric error is calculated as the quadrature sum of [Sum i=1,14 of (var i+1 - var i)/2 ], or if asymmetric errors are desired according to Eqn 43 of Campbell, Huston and Stirling hep-ph/0611148. mem=0 ; central; mem=1-28 ; error eigenvectors.
<weight id="1952" MUR="1.0" MUF="1.0" PDF="61100" > PDF=61100 MemberID=0 </weight>
<weight id="1953" MUR="1.0" MUF="1.0" PDF="61101" > PDF=61100 MemberID=1 </weight>
<weight id="1954" MUR="1.0" MUF="1.0" PDF="61102" > PDF=61100 MemberID=2 </weight>
<weight id="1955" MUR="1.0" MUF="1.0" PDF="61103" > PDF=61100 MemberID=3 </weight>
<weight id="1956" MUR="1.0" MUF="1.0" PDF="61104" > PDF=61100 MemberID=4 </weight>
<weight id="1957" MUR="1.0" MUF="1.0" PDF="61105" > PDF=61100 MemberID=5 </weight>
<weight id="1958" MUR="1.0" MUF="1.0" PDF="61106" > PDF=61100 MemberID=6 </weight>
<weight id="1959" MUR="1.0" MUF="1.0" PDF="61107" > PDF=61100 MemberID=7 </weight>
<weight id="1960" MUR="1.0" MUF="1.0" PDF="61108" > PDF=61100 MemberID=8 </weight>
<weight id="1961" MUR="1.0" MUF="1.0" PDF="61109" > PDF=61100 MemberID=9 </weight>
<weight id="1962" MUR="1.0" MUF="1.0" PDF="61110" > PDF=61100 MemberID=10 </weight>
<weight id="1963" MUR="1.0" MUF="1.0" PDF="61111" > PDF=61100 MemberID=11 </weight>
<weight id="1964" MUR="1.0" MUF="1.0" PDF="61112" > PDF=61100 MemberID=12 </weight>
<weight id="1965" MUR="1.0" MUF="1.0" PDF="61113" > PDF=61100 MemberID=13 </weight>
<weight id="1966" MUR="1.0" MUF="1.0" PDF="61114" > PDF=61100 MemberID=14 </weight>
<weight id="1967" MUR="1.0" MUF="1.0" PDF="61115" > PDF=61100 MemberID=15 </weight>
<weight id="1968" MUR="1.0" MUF="1.0" PDF="61116" > PDF=61100 MemberID=16 </weight>
<weight id="1969" MUR="1.0" MUF="1.0" PDF="61117" > PDF=61100 MemberID=17 </weight>
<weight id="1970" MUR="1.0" MUF="1.0" PDF="61118" > PDF=61100 MemberID=18 </weight>
<weight id="1971" MUR="1.0" MUF="1.0" PDF="61119" > PDF=61100 MemberID=19 </weight>
<weight id="1972" MUR="1.0" MUF="1.0" PDF="61120" > PDF=61100 MemberID=20 </weight>
<weight id="1973" MUR="1.0" MUF="1.0" PDF="61121" > PDF=61100 MemberID=21 </weight>
<weight id="1974" MUR="1.0" MUF="1.0" PDF="61122" > PDF=61100 MemberID=22 </weight>
<weight id="1975" MUR="1.0" MUF="1.0" PDF="61123" > PDF=61100 MemberID=23 </weight>
<weight id="1976" MUR="1.0" MUF="1.0" PDF="61124" > PDF=61100 MemberID=24 </weight>
<weight id="1977" MUR="1.0" MUF="1.0" PDF="61125" > PDF=61100 MemberID=25 </weight>
<weight id="1978" MUR="1.0" MUF="1.0" PDF="61126" > PDF=61100 MemberID=26 </weight>
<weight id="1979" MUR="1.0" MUF="1.0" PDF="61127" > PDF=61100 MemberID=27 </weight>
<weight id="1980" MUR="1.0" MUF="1.0" PDF="61128" > PDF=61100 MemberID=28 </weight>
</weightgroup> # PDFSET -> PDFSET
<weightgroup name="HERAPDF20_NLO_VAR" combine="custom"> # 61130: HERAPDF20 NLO variations of fit parameters. Member 0 is the central fit. The 1-10 variations are considered as model errors and should be treated one by one, by taking the difference between the variation and the central value, and then adding in quadrature all positive (negative) differences to obtain the positive (negative) model error. Variations 11 to 13 are the maximal parametrisation variations; the largest positive (negative) difference between the variation and the central value is taken as the positive (negative) parametrisation error and added in quadrature to the model errors to form the parametrisation envelope. mem=0 ; central (fs=0.4,mb=4.5,mc=1.47,q20=1.9,q2min=3.5,a_s(MZ)=0.118); mem=1 ; fs=0.3;                mem=2 ; fs=0.5; mem=3 ; fs=hermesfs-03;        mem=4 ; fs=hermesfs-05 mem=5 ; q2cut=2.5;             mem=6 ; q2cut=5.; mem=7 ; mb=4.25;               mem=8 ; mb=4.75; mem=9 ; mc=1.41;               mem=10 ; mc=1.53; mem=11 ; par2(Q0 1.6, mc1.47); mem=12 ; par3 (Q0 2.2, mc1.53); mem=13 ; par4(Duv);
<weight id="1981" MUR="1.0" MUF="1.0" PDF="61130" > PDF=61130 MemberID=0 </weight>
<weight id="1982" MUR="1.0" MUF="1.0" PDF="61131" > PDF=61130 MemberID=1 </weight>
<weight id="1983" MUR="1.0" MUF="1.0" PDF="61132" > PDF=61130 MemberID=2 </weight>
<weight id="1984" MUR="1.0" MUF="1.0" PDF="61133" > PDF=61130 MemberID=3 </weight>
<weight id="1985" MUR="1.0" MUF="1.0" PDF="61134" > PDF=61130 MemberID=4 </weight>
<weight id="1986" MUR="1.0" MUF="1.0" PDF="61135" > PDF=61130 MemberID=5 </weight>
<weight id="1987" MUR="1.0" MUF="1.0" PDF="61136" > PDF=61130 MemberID=6 </weight>
<weight id="1988" MUR="1.0" MUF="1.0" PDF="61137" > PDF=61130 MemberID=7 </weight>
<weight id="1989" MUR="1.0" MUF="1.0" PDF="61138" > PDF=61130 MemberID=8 </weight>
<weight id="1990" MUR="1.0" MUF="1.0" PDF="61139" > PDF=61130 MemberID=9 </weight>
<weight id="1991" MUR="1.0" MUF="1.0" PDF="61140" > PDF=61130 MemberID=10 </weight>
<weight id="1992" MUR="1.0" MUF="1.0" PDF="61141" > PDF=61130 MemberID=11 </weight>
<weight id="1993" MUR="1.0" MUF="1.0" PDF="61142" > PDF=61130 MemberID=12 </weight>
<weight id="1994" MUR="1.0" MUF="1.0" PDF="61143" > PDF=61130 MemberID=13 </weight>
</weightgroup> # PDFSET -> PDFSET
<weightgroup name="HERAPDF20_NNLO_EIG" combine="hessian"> # 61200: HERAPDF20 NNLO (Q2min=3.5) fit and experimental uncertainty variations. The 28 error PDFs should be treated two by two as the up and down excursions along 14 eigenvectors, such that the symmetric error is calculated as the quadrature sum of [Sum i=1,14 of (var i+1 - var i)/2 ], or if asymmetric errors are desired according to Eqn 43 of Campbell, Huston and Stirling hep-ph/0611148. mem=0 ; central; mem=1-28 ; error eigenvectors.
<weight id="1995" MUR="1.0" MUF="1.0" PDF="61200" > PDF=61200 MemberID=0 </weight>
<weight id="1996" MUR="1.0" MUF="1.0" PDF="61201" > PDF=61200 MemberID=1 </weight>
<weight id="1997" MUR="1.0" MUF="1.0" PDF="61202" > PDF=61200 MemberID=2 </weight>
<weight id="1998" MUR="1.0" MUF="1.0" PDF="61203" > PDF=61200 MemberID=3 </weight>
<weight id="1999" MUR="1.0" MUF="1.0" PDF="61204" > PDF=61200 MemberID=4 </weight>
<weight id="2000" MUR="1.0" MUF="1.0" PDF="61205" > PDF=61200 MemberID=5 </weight>
<weight id="2001" MUR="1.0" MUF="1.0" PDF="61206" > PDF=61200 MemberID=6 </weight>
<weight id="2002" MUR="1.0" MUF="1.0" PDF="61207" > PDF=61200 MemberID=7 </weight>
<weight id="2003" MUR="1.0" MUF="1.0" PDF="61208" > PDF=61200 MemberID=8 </weight>
<weight id="2004" MUR="1.0" MUF="1.0" PDF="61209" > PDF=61200 MemberID=9 </weight>
<weight id="2005" MUR="1.0" MUF="1.0" PDF="61210" > PDF=61200 MemberID=10 </weight>
<weight id="2006" MUR="1.0" MUF="1.0" PDF="61211" > PDF=61200 MemberID=11 </weight>
<weight id="2007" MUR="1.0" MUF="1.0" PDF="61212" > PDF=61200 MemberID=12 </weight>
<weight id="2008" MUR="1.0" MUF="1.0" PDF="61213" > PDF=61200 MemberID=13 </weight>
<weight id="2009" MUR="1.0" MUF="1.0" PDF="61214" > PDF=61200 MemberID=14 </weight>
<weight id="2010" MUR="1.0" MUF="1.0" PDF="61215" > PDF=61200 MemberID=15 </weight>
<weight id="2011" MUR="1.0" MUF="1.0" PDF="61216" > PDF=61200 MemberID=16 </weight>
<weight id="2012" MUR="1.0" MUF="1.0" PDF="61217" > PDF=61200 MemberID=17 </weight>
<weight id="2013" MUR="1.0" MUF="1.0" PDF="61218" > PDF=61200 MemberID=18 </weight>
<weight id="2014" MUR="1.0" MUF="1.0" PDF="61219" > PDF=61200 MemberID=19 </weight>
<weight id="2015" MUR="1.0" MUF="1.0" PDF="61220" > PDF=61200 MemberID=20 </weight>
<weight id="2016" MUR="1.0" MUF="1.0" PDF="61221" > PDF=61200 MemberID=21 </weight>
<weight id="2017" MUR="1.0" MUF="1.0" PDF="61222" > PDF=61200 MemberID=22 </weight>
<weight id="2018" MUR="1.0" MUF="1.0" PDF="61223" > PDF=61200 MemberID=23 </weight>
<weight id="2019" MUR="1.0" MUF="1.0" PDF="61224" > PDF=61200 MemberID=24 </weight>
<weight id="2020" MUR="1.0" MUF="1.0" PDF="61225" > PDF=61200 MemberID=25 </weight>
<weight id="2021" MUR="1.0" MUF="1.0" PDF="61226" > PDF=61200 MemberID=26 </weight>
<weight id="2022" MUR="1.0" MUF="1.0" PDF="61227" > PDF=61200 MemberID=27 </weight>
<weight id="2023" MUR="1.0" MUF="1.0" PDF="61228" > PDF=61200 MemberID=28 </weight>
</weightgroup> # PDFSET -> PDFSET
<weightgroup name="HERAPDF20_NNLO_VAR" combine="custom"> # 61230: HERAPDF20 NNLO variations of fit parameters. Member 0 is the central fit. The 1-10 variations are considered as model errors and should be treated one by one, by taking the difference between the variation and the central value, and then adding in quadrature all positive (negative) differences to obtain the positive (negative) model error. Variations 11 to 13 are the maximal parametrisation variations; the largest positive (negative) difference between the variation and the central value is taken as the positive (negative) parametrisation error and added in quadrature to the model errors to form the parametrisation envelope. mem=0 ; central (fs=0.4,mb=4.5,mc=1.43,q20=1.9,q2min=3.5,a_s(MZ)=0.118); mem=1 ; fs=0.3;                mem=2 ; fs=0.5; mem=3 ; fs=hermesfs-03;        mem=4 ; fs=hermesfs-05 mem=5 ; q2cut=2.5;             mem=6 ; q2cut=5.; mem=7 ; mb=4.25;               mem=8 ; mb=4.75; mem=9 ; mc=1.37;               mem=10 ; mc=1.49; mem=11 ; par2(Q0 1.6, mc1.43); mem=12 ; par3 (Q0 2.2, mc1.49); mem=13 ; par4(Duv);
<weight id="2024" MUR="1.0" MUF="1.0" PDF="61230" > PDF=61230 MemberID=0 </weight>
<weight id="2025" MUR="1.0" MUF="1.0" PDF="61231" > PDF=61230 MemberID=1 </weight>
<weight id="2026" MUR="1.0" MUF="1.0" PDF="61232" > PDF=61230 MemberID=2 </weight>
<weight id="2027" MUR="1.0" MUF="1.0" PDF="61233" > PDF=61230 MemberID=3 </weight>
<weight id="2028" MUR="1.0" MUF="1.0" PDF="61234" > PDF=61230 MemberID=4 </weight>
<weight id="2029" MUR="1.0" MUF="1.0" PDF="61235" > PDF=61230 MemberID=5 </weight>
<weight id="2030" MUR="1.0" MUF="1.0" PDF="61236" > PDF=61230 MemberID=6 </weight>
<weight id="2031" MUR="1.0" MUF="1.0" PDF="61237" > PDF=61230 MemberID=7 </weight>
<weight id="2032" MUR="1.0" MUF="1.0" PDF="61238" > PDF=61230 MemberID=8 </weight>
<weight id="2033" MUR="1.0" MUF="1.0" PDF="61239" > PDF=61230 MemberID=9 </weight>
<weight id="2034" MUR="1.0" MUF="1.0" PDF="61240" > PDF=61230 MemberID=10 </weight>
<weight id="2035" MUR="1.0" MUF="1.0" PDF="61241" > PDF=61230 MemberID=11 </weight>
<weight id="2036" MUR="1.0" MUF="1.0" PDF="61242" > PDF=61230 MemberID=12 </weight>
<weight id="2037" MUR="1.0" MUF="1.0" PDF="61243" > PDF=61230 MemberID=13 </weight>
</weightgroup> # PDFSET -> PDFSET
<weightgroup name="CT14qed_inc_proton" combine="unknown"> # 13400: CT14qed_inc, NLO QCD + LO QED (inclusive photon) sets for the proton, based on CT14nlo with the initial photon PDF defined by the sum of the inelastic photon PDF and the elastic photon PDF, obtained from the equivalent photon approximation, at the initial scale Q0. The initial inelastic photon PDF is defined by the radiative ansatz and parametrized by its initial inelastic momentum fraction. (m=0 ; p=0.00%, mem=1 ; p=0.01%, mem=2 ; p=0.02%, etc., up to mem=30 ; p=0.30%). A limit of p=0.14% was found at the 90% CL in the Reference
<weight id="2038" MUR="1.0" MUF="1.0" PDF="13400" > PDF=13400 MemberID=0 </weight>
<weight id="2039" MUR="1.0" MUF="1.0" PDF="13401" > PDF=13400 MemberID=1 </weight>
<weight id="2040" MUR="1.0" MUF="1.0" PDF="13402" > PDF=13400 MemberID=2 </weight>
<weight id="2041" MUR="1.0" MUF="1.0" PDF="13403" > PDF=13400 MemberID=3 </weight>
<weight id="2042" MUR="1.0" MUF="1.0" PDF="13404" > PDF=13400 MemberID=4 </weight>
<weight id="2043" MUR="1.0" MUF="1.0" PDF="13405" > PDF=13400 MemberID=5 </weight>
<weight id="2044" MUR="1.0" MUF="1.0" PDF="13406" > PDF=13400 MemberID=6 </weight>
<weight id="2045" MUR="1.0" MUF="1.0" PDF="13407" > PDF=13400 MemberID=7 </weight>
<weight id="2046" MUR="1.0" MUF="1.0" PDF="13408" > PDF=13400 MemberID=8 </weight>
<weight id="2047" MUR="1.0" MUF="1.0" PDF="13409" > PDF=13400 MemberID=9 </weight>
<weight id="2048" MUR="1.0" MUF="1.0" PDF="13410" > PDF=13400 MemberID=10 </weight>
<weight id="2049" MUR="1.0" MUF="1.0" PDF="13411" > PDF=13400 MemberID=11 </weight>
<weight id="2050" MUR="1.0" MUF="1.0" PDF="13412" > PDF=13400 MemberID=12 </weight>
<weight id="2051" MUR="1.0" MUF="1.0" PDF="13413" > PDF=13400 MemberID=13 </weight>
<weight id="2052" MUR="1.0" MUF="1.0" PDF="13414" > PDF=13400 MemberID=14 </weight>
<weight id="2053" MUR="1.0" MUF="1.0" PDF="13415" > PDF=13400 MemberID=15 </weight>
<weight id="2054" MUR="1.0" MUF="1.0" PDF="13416" > PDF=13400 MemberID=16 </weight>
<weight id="2055" MUR="1.0" MUF="1.0" PDF="13417" > PDF=13400 MemberID=17 </weight>
<weight id="2056" MUR="1.0" MUF="1.0" PDF="13418" > PDF=13400 MemberID=18 </weight>
<weight id="2057" MUR="1.0" MUF="1.0" PDF="13419" > PDF=13400 MemberID=19 </weight>
<weight id="2058" MUR="1.0" MUF="1.0" PDF="13420" > PDF=13400 MemberID=20 </weight>
<weight id="2059" MUR="1.0" MUF="1.0" PDF="13421" > PDF=13400 MemberID=21 </weight>
<weight id="2060" MUR="1.0" MUF="1.0" PDF="13422" > PDF=13400 MemberID=22 </weight>
<weight id="2061" MUR="1.0" MUF="1.0" PDF="13423" > PDF=13400 MemberID=23 </weight>
<weight id="2062" MUR="1.0" MUF="1.0" PDF="13424" > PDF=13400 MemberID=24 </weight>
<weight id="2063" MUR="1.0" MUF="1.0" PDF="13425" > PDF=13400 MemberID=25 </weight>
<weight id="2064" MUR="1.0" MUF="1.0" PDF="13426" > PDF=13400 MemberID=26 </weight>
<weight id="2065" MUR="1.0" MUF="1.0" PDF="13427" > PDF=13400 MemberID=27 </weight>
<weight id="2066" MUR="1.0" MUF="1.0" PDF="13428" > PDF=13400 MemberID=28 </weight>
<weight id="2067" MUR="1.0" MUF="1.0" PDF="13429" > PDF=13400 MemberID=29 </weight>
<weight id="2068" MUR="1.0" MUF="1.0" PDF="13430" > PDF=13400 MemberID=30 </weight>
</weightgroup> # PDFSET -> PDFSET
<weightgroup name="LUXqed17_plus_PDF4LHC15_nnlo_100" combine="symmhessian"> # 82200: LUXqed17_plus_PDF4LHC15_nnlo_100: this set combines QCD partons from PDF4LHC15_nnlo_100 with the LUXqed photon determination.
PDF4LHC15_nnlo_100 description:
  PDF4LHC15_nnlo_100. mem=0 ; alphas(MZ)=0.118 central value; mem=1-100
  ; PDF symmetric eigenvectors
LUXqed description:
  Determination of the low Q^2 photon component from A1, CLAS and Hermes GD11-P
  fits. High-Q^2 part from the input QCD PDF with standard coefficient functions.
  Photon generated at scale 100.0 GeV, other partons matched at scale
  10.0 GeV, photon momentum absorbed by adjusting g(x) -.gt. g(x) -
  0.00699 * x^{0.000} g(x) at scale 10.0 GeV
Members:
  0 is central
  1-100 map to original PDF members
  101 replacement of CLAS resonance fit with Christy-Bosted fit
  102 rescale-R-0.5
  103 rescale R in high-Q^2 region with a higher-twist component
  104 use the A1 elastic fit result without the two-photon exchange corrections
  105 use the lower edge of the elastic fit error band
  106 lower the transition from Hermes GD11-P to the PDF-based F2,FL determinations to 5 GeV^2
  107 extremum of absolute variation obtained by adding the NNLO QCD contribution for each of three scale choices (mu_M/mu = 0.5, 1.0, 2.0)
Versioning info:
  DataVersion, below, is (10000 * PDF4LHC15_nnlo_100.DataVersion + 1 * LUXqed_version)
LUXqed version history for this PDF:
  This version corresponds to the long LUXqed17 paper.
<weight id="2069" MUR="1.0" MUF="1.0" PDF="82200" > PDF=82200 MemberID=0 </weight>
<weight id="2070" MUR="1.0" MUF="1.0" PDF="82201" > PDF=82200 MemberID=1 </weight>
<weight id="2071" MUR="1.0" MUF="1.0" PDF="82202" > PDF=82200 MemberID=2 </weight>
<weight id="2072" MUR="1.0" MUF="1.0" PDF="82203" > PDF=82200 MemberID=3 </weight>
<weight id="2073" MUR="1.0" MUF="1.0" PDF="82204" > PDF=82200 MemberID=4 </weight>
<weight id="2074" MUR="1.0" MUF="1.0" PDF="82205" > PDF=82200 MemberID=5 </weight>
<weight id="2075" MUR="1.0" MUF="1.0" PDF="82206" > PDF=82200 MemberID=6 </weight>
<weight id="2076" MUR="1.0" MUF="1.0" PDF="82207" > PDF=82200 MemberID=7 </weight>
<weight id="2077" MUR="1.0" MUF="1.0" PDF="82208" > PDF=82200 MemberID=8 </weight>
<weight id="2078" MUR="1.0" MUF="1.0" PDF="82209" > PDF=82200 MemberID=9 </weight>
<weight id="2079" MUR="1.0" MUF="1.0" PDF="82210" > PDF=82200 MemberID=10 </weight>
<weight id="2080" MUR="1.0" MUF="1.0" PDF="82211" > PDF=82200 MemberID=11 </weight>
<weight id="2081" MUR="1.0" MUF="1.0" PDF="82212" > PDF=82200 MemberID=12 </weight>
<weight id="2082" MUR="1.0" MUF="1.0" PDF="82213" > PDF=82200 MemberID=13 </weight>
<weight id="2083" MUR="1.0" MUF="1.0" PDF="82214" > PDF=82200 MemberID=14 </weight>
<weight id="2084" MUR="1.0" MUF="1.0" PDF="82215" > PDF=82200 MemberID=15 </weight>
<weight id="2085" MUR="1.0" MUF="1.0" PDF="82216" > PDF=82200 MemberID=16 </weight>
<weight id="2086" MUR="1.0" MUF="1.0" PDF="82217" > PDF=82200 MemberID=17 </weight>
<weight id="2087" MUR="1.0" MUF="1.0" PDF="82218" > PDF=82200 MemberID=18 </weight>
<weight id="2088" MUR="1.0" MUF="1.0" PDF="82219" > PDF=82200 MemberID=19 </weight>
<weight id="2089" MUR="1.0" MUF="1.0" PDF="82220" > PDF=82200 MemberID=20 </weight>
<weight id="2090" MUR="1.0" MUF="1.0" PDF="82221" > PDF=82200 MemberID=21 </weight>
<weight id="2091" MUR="1.0" MUF="1.0" PDF="82222" > PDF=82200 MemberID=22 </weight>
<weight id="2092" MUR="1.0" MUF="1.0" PDF="82223" > PDF=82200 MemberID=23 </weight>
<weight id="2093" MUR="1.0" MUF="1.0" PDF="82224" > PDF=82200 MemberID=24 </weight>
<weight id="2094" MUR="1.0" MUF="1.0" PDF="82225" > PDF=82200 MemberID=25 </weight>
<weight id="2095" MUR="1.0" MUF="1.0" PDF="82226" > PDF=82200 MemberID=26 </weight>
<weight id="2096" MUR="1.0" MUF="1.0" PDF="82227" > PDF=82200 MemberID=27 </weight>
<weight id="2097" MUR="1.0" MUF="1.0" PDF="82228" > PDF=82200 MemberID=28 </weight>
<weight id="2098" MUR="1.0" MUF="1.0" PDF="82229" > PDF=82200 MemberID=29 </weight>
<weight id="2099" MUR="1.0" MUF="1.0" PDF="82230" > PDF=82200 MemberID=30 </weight>
<weight id="2100" MUR="1.0" MUF="1.0" PDF="82231" > PDF=82200 MemberID=31 </weight>
<weight id="2101" MUR="1.0" MUF="1.0" PDF="82232" > PDF=82200 MemberID=32 </weight>
<weight id="2102" MUR="1.0" MUF="1.0" PDF="82233" > PDF=82200 MemberID=33 </weight>
<weight id="2103" MUR="1.0" MUF="1.0" PDF="82234" > PDF=82200 MemberID=34 </weight>
<weight id="2104" MUR="1.0" MUF="1.0" PDF="82235" > PDF=82200 MemberID=35 </weight>
<weight id="2105" MUR="1.0" MUF="1.0" PDF="82236" > PDF=82200 MemberID=36 </weight>
<weight id="2106" MUR="1.0" MUF="1.0" PDF="82237" > PDF=82200 MemberID=37 </weight>
<weight id="2107" MUR="1.0" MUF="1.0" PDF="82238" > PDF=82200 MemberID=38 </weight>
<weight id="2108" MUR="1.0" MUF="1.0" PDF="82239" > PDF=82200 MemberID=39 </weight>
<weight id="2109" MUR="1.0" MUF="1.0" PDF="82240" > PDF=82200 MemberID=40 </weight>
<weight id="2110" MUR="1.0" MUF="1.0" PDF="82241" > PDF=82200 MemberID=41 </weight>
<weight id="2111" MUR="1.0" MUF="1.0" PDF="82242" > PDF=82200 MemberID=42 </weight>
<weight id="2112" MUR="1.0" MUF="1.0" PDF="82243" > PDF=82200 MemberID=43 </weight>
<weight id="2113" MUR="1.0" MUF="1.0" PDF="82244" > PDF=82200 MemberID=44 </weight>
<weight id="2114" MUR="1.0" MUF="1.0" PDF="82245" > PDF=82200 MemberID=45 </weight>
<weight id="2115" MUR="1.0" MUF="1.0" PDF="82246" > PDF=82200 MemberID=46 </weight>
<weight id="2116" MUR="1.0" MUF="1.0" PDF="82247" > PDF=82200 MemberID=47 </weight>
<weight id="2117" MUR="1.0" MUF="1.0" PDF="82248" > PDF=82200 MemberID=48 </weight>
<weight id="2118" MUR="1.0" MUF="1.0" PDF="82249" > PDF=82200 MemberID=49 </weight>
<weight id="2119" MUR="1.0" MUF="1.0" PDF="82250" > PDF=82200 MemberID=50 </weight>
<weight id="2120" MUR="1.0" MUF="1.0" PDF="82251" > PDF=82200 MemberID=51 </weight>
<weight id="2121" MUR="1.0" MUF="1.0" PDF="82252" > PDF=82200 MemberID=52 </weight>
<weight id="2122" MUR="1.0" MUF="1.0" PDF="82253" > PDF=82200 MemberID=53 </weight>
<weight id="2123" MUR="1.0" MUF="1.0" PDF="82254" > PDF=82200 MemberID=54 </weight>
<weight id="2124" MUR="1.0" MUF="1.0" PDF="82255" > PDF=82200 MemberID=55 </weight>
<weight id="2125" MUR="1.0" MUF="1.0" PDF="82256" > PDF=82200 MemberID=56 </weight>
<weight id="2126" MUR="1.0" MUF="1.0" PDF="82257" > PDF=82200 MemberID=57 </weight>
<weight id="2127" MUR="1.0" MUF="1.0" PDF="82258" > PDF=82200 MemberID=58 </weight>
<weight id="2128" MUR="1.0" MUF="1.0" PDF="82259" > PDF=82200 MemberID=59 </weight>
<weight id="2129" MUR="1.0" MUF="1.0" PDF="82260" > PDF=82200 MemberID=60 </weight>
<weight id="2130" MUR="1.0" MUF="1.0" PDF="82261" > PDF=82200 MemberID=61 </weight>
<weight id="2131" MUR="1.0" MUF="1.0" PDF="82262" > PDF=82200 MemberID=62 </weight>
<weight id="2132" MUR="1.0" MUF="1.0" PDF="82263" > PDF=82200 MemberID=63 </weight>
<weight id="2133" MUR="1.0" MUF="1.0" PDF="82264" > PDF=82200 MemberID=64 </weight>
<weight id="2134" MUR="1.0" MUF="1.0" PDF="82265" > PDF=82200 MemberID=65 </weight>
<weight id="2135" MUR="1.0" MUF="1.0" PDF="82266" > PDF=82200 MemberID=66 </weight>
<weight id="2136" MUR="1.0" MUF="1.0" PDF="82267" > PDF=82200 MemberID=67 </weight>
<weight id="2137" MUR="1.0" MUF="1.0" PDF="82268" > PDF=82200 MemberID=68 </weight>
<weight id="2138" MUR="1.0" MUF="1.0" PDF="82269" > PDF=82200 MemberID=69 </weight>
<weight id="2139" MUR="1.0" MUF="1.0" PDF="82270" > PDF=82200 MemberID=70 </weight>
<weight id="2140" MUR="1.0" MUF="1.0" PDF="82271" > PDF=82200 MemberID=71 </weight>
<weight id="2141" MUR="1.0" MUF="1.0" PDF="82272" > PDF=82200 MemberID=72 </weight>
<weight id="2142" MUR="1.0" MUF="1.0" PDF="82273" > PDF=82200 MemberID=73 </weight>
<weight id="2143" MUR="1.0" MUF="1.0" PDF="82274" > PDF=82200 MemberID=74 </weight>
<weight id="2144" MUR="1.0" MUF="1.0" PDF="82275" > PDF=82200 MemberID=75 </weight>
<weight id="2145" MUR="1.0" MUF="1.0" PDF="82276" > PDF=82200 MemberID=76 </weight>
<weight id="2146" MUR="1.0" MUF="1.0" PDF="82277" > PDF=82200 MemberID=77 </weight>
<weight id="2147" MUR="1.0" MUF="1.0" PDF="82278" > PDF=82200 MemberID=78 </weight>
<weight id="2148" MUR="1.0" MUF="1.0" PDF="82279" > PDF=82200 MemberID=79 </weight>
<weight id="2149" MUR="1.0" MUF="1.0" PDF="82280" > PDF=82200 MemberID=80 </weight>
<weight id="2150" MUR="1.0" MUF="1.0" PDF="82281" > PDF=82200 MemberID=81 </weight>
<weight id="2151" MUR="1.0" MUF="1.0" PDF="82282" > PDF=82200 MemberID=82 </weight>
<weight id="2152" MUR="1.0" MUF="1.0" PDF="82283" > PDF=82200 MemberID=83 </weight>
<weight id="2153" MUR="1.0" MUF="1.0" PDF="82284" > PDF=82200 MemberID=84 </weight>
<weight id="2154" MUR="1.0" MUF="1.0" PDF="82285" > PDF=82200 MemberID=85 </weight>
<weight id="2155" MUR="1.0" MUF="1.0" PDF="82286" > PDF=82200 MemberID=86 </weight>
<weight id="2156" MUR="1.0" MUF="1.0" PDF="82287" > PDF=82200 MemberID=87 </weight>
<weight id="2157" MUR="1.0" MUF="1.0" PDF="82288" > PDF=82200 MemberID=88 </weight>
<weight id="2158" MUR="1.0" MUF="1.0" PDF="82289" > PDF=82200 MemberID=89 </weight>
<weight id="2159" MUR="1.0" MUF="1.0" PDF="82290" > PDF=82200 MemberID=90 </weight>
<weight id="2160" MUR="1.0" MUF="1.0" PDF="82291" > PDF=82200 MemberID=91 </weight>
<weight id="2161" MUR="1.0" MUF="1.0" PDF="82292" > PDF=82200 MemberID=92 </weight>
<weight id="2162" MUR="1.0" MUF="1.0" PDF="82293" > PDF=82200 MemberID=93 </weight>
<weight id="2163" MUR="1.0" MUF="1.0" PDF="82294" > PDF=82200 MemberID=94 </weight>
<weight id="2164" MUR="1.0" MUF="1.0" PDF="82295" > PDF=82200 MemberID=95 </weight>
<weight id="2165" MUR="1.0" MUF="1.0" PDF="82296" > PDF=82200 MemberID=96 </weight>
<weight id="2166" MUR="1.0" MUF="1.0" PDF="82297" > PDF=82200 MemberID=97 </weight>
<weight id="2167" MUR="1.0" MUF="1.0" PDF="82298" > PDF=82200 MemberID=98 </weight>
<weight id="2168" MUR="1.0" MUF="1.0" PDF="82299" > PDF=82200 MemberID=99 </weight>
<weight id="2169" MUR="1.0" MUF="1.0" PDF="82300" > PDF=82200 MemberID=100 </weight>
<weight id="2170" MUR="1.0" MUF="1.0" PDF="82301" > PDF=82200 MemberID=101 </weight>
<weight id="2171" MUR="1.0" MUF="1.0" PDF="82302" > PDF=82200 MemberID=102 </weight>
<weight id="2172" MUR="1.0" MUF="1.0" PDF="82303" > PDF=82200 MemberID=103 </weight>
<weight id="2173" MUR="1.0" MUF="1.0" PDF="82304" > PDF=82200 MemberID=104 </weight>
<weight id="2174" MUR="1.0" MUF="1.0" PDF="82305" > PDF=82200 MemberID=105 </weight>
<weight id="2175" MUR="1.0" MUF="1.0" PDF="82306" > PDF=82200 MemberID=106 </weight>
<weight id="2176" MUR="1.0" MUF="1.0" PDF="82307" > PDF=82200 MemberID=107 </weight>
</weightgroup> # PDFSET -> PDFSET
<weightgroup name="NNPDF30_nlo_nf_5_pdfas" combine="replicas+as"> # 292200: NNPDF3.0 NLO global fit; mem=0 to mem=100 with alphas(MZ)=0.118, mem=0 ; average on replicas 1-100; mem=1-100 ; PDF replicas with  alphas(MZ)=0.118; mem=101 ; central value for alphas=0.117; mem=102 ; central value for alphas=0.119 
<weight id="2177" MUR="1.0" MUF="1.0" PDF="292200" > PDF=292200 MemberID=0 </weight>
<weight id="2178" MUR="1.0" MUF="1.0" PDF="292201" > PDF=292200 MemberID=1 </weight>
<weight id="2179" MUR="1.0" MUF="1.0" PDF="292202" > PDF=292200 MemberID=2 </weight>
<weight id="2180" MUR="1.0" MUF="1.0" PDF="292203" > PDF=292200 MemberID=3 </weight>
<weight id="2181" MUR="1.0" MUF="1.0" PDF="292204" > PDF=292200 MemberID=4 </weight>
<weight id="2182" MUR="1.0" MUF="1.0" PDF="292205" > PDF=292200 MemberID=5 </weight>
<weight id="2183" MUR="1.0" MUF="1.0" PDF="292206" > PDF=292200 MemberID=6 </weight>
<weight id="2184" MUR="1.0" MUF="1.0" PDF="292207" > PDF=292200 MemberID=7 </weight>
<weight id="2185" MUR="1.0" MUF="1.0" PDF="292208" > PDF=292200 MemberID=8 </weight>
<weight id="2186" MUR="1.0" MUF="1.0" PDF="292209" > PDF=292200 MemberID=9 </weight>
<weight id="2187" MUR="1.0" MUF="1.0" PDF="292210" > PDF=292200 MemberID=10 </weight>
<weight id="2188" MUR="1.0" MUF="1.0" PDF="292211" > PDF=292200 MemberID=11 </weight>
<weight id="2189" MUR="1.0" MUF="1.0" PDF="292212" > PDF=292200 MemberID=12 </weight>
<weight id="2190" MUR="1.0" MUF="1.0" PDF="292213" > PDF=292200 MemberID=13 </weight>
<weight id="2191" MUR="1.0" MUF="1.0" PDF="292214" > PDF=292200 MemberID=14 </weight>
<weight id="2192" MUR="1.0" MUF="1.0" PDF="292215" > PDF=292200 MemberID=15 </weight>
<weight id="2193" MUR="1.0" MUF="1.0" PDF="292216" > PDF=292200 MemberID=16 </weight>
<weight id="2194" MUR="1.0" MUF="1.0" PDF="292217" > PDF=292200 MemberID=17 </weight>
<weight id="2195" MUR="1.0" MUF="1.0" PDF="292218" > PDF=292200 MemberID=18 </weight>
<weight id="2196" MUR="1.0" MUF="1.0" PDF="292219" > PDF=292200 MemberID=19 </weight>
<weight id="2197" MUR="1.0" MUF="1.0" PDF="292220" > PDF=292200 MemberID=20 </weight>
<weight id="2198" MUR="1.0" MUF="1.0" PDF="292221" > PDF=292200 MemberID=21 </weight>
<weight id="2199" MUR="1.0" MUF="1.0" PDF="292222" > PDF=292200 MemberID=22 </weight>
<weight id="2200" MUR="1.0" MUF="1.0" PDF="292223" > PDF=292200 MemberID=23 </weight>
<weight id="2201" MUR="1.0" MUF="1.0" PDF="292224" > PDF=292200 MemberID=24 </weight>
<weight id="2202" MUR="1.0" MUF="1.0" PDF="292225" > PDF=292200 MemberID=25 </weight>
<weight id="2203" MUR="1.0" MUF="1.0" PDF="292226" > PDF=292200 MemberID=26 </weight>
<weight id="2204" MUR="1.0" MUF="1.0" PDF="292227" > PDF=292200 MemberID=27 </weight>
<weight id="2205" MUR="1.0" MUF="1.0" PDF="292228" > PDF=292200 MemberID=28 </weight>
<weight id="2206" MUR="1.0" MUF="1.0" PDF="292229" > PDF=292200 MemberID=29 </weight>
<weight id="2207" MUR="1.0" MUF="1.0" PDF="292230" > PDF=292200 MemberID=30 </weight>
<weight id="2208" MUR="1.0" MUF="1.0" PDF="292231" > PDF=292200 MemberID=31 </weight>
<weight id="2209" MUR="1.0" MUF="1.0" PDF="292232" > PDF=292200 MemberID=32 </weight>
<weight id="2210" MUR="1.0" MUF="1.0" PDF="292233" > PDF=292200 MemberID=33 </weight>
<weight id="2211" MUR="1.0" MUF="1.0" PDF="292234" > PDF=292200 MemberID=34 </weight>
<weight id="2212" MUR="1.0" MUF="1.0" PDF="292235" > PDF=292200 MemberID=35 </weight>
<weight id="2213" MUR="1.0" MUF="1.0" PDF="292236" > PDF=292200 MemberID=36 </weight>
<weight id="2214" MUR="1.0" MUF="1.0" PDF="292237" > PDF=292200 MemberID=37 </weight>
<weight id="2215" MUR="1.0" MUF="1.0" PDF="292238" > PDF=292200 MemberID=38 </weight>
<weight id="2216" MUR="1.0" MUF="1.0" PDF="292239" > PDF=292200 MemberID=39 </weight>
<weight id="2217" MUR="1.0" MUF="1.0" PDF="292240" > PDF=292200 MemberID=40 </weight>
<weight id="2218" MUR="1.0" MUF="1.0" PDF="292241" > PDF=292200 MemberID=41 </weight>
<weight id="2219" MUR="1.0" MUF="1.0" PDF="292242" > PDF=292200 MemberID=42 </weight>
<weight id="2220" MUR="1.0" MUF="1.0" PDF="292243" > PDF=292200 MemberID=43 </weight>
<weight id="2221" MUR="1.0" MUF="1.0" PDF="292244" > PDF=292200 MemberID=44 </weight>
<weight id="2222" MUR="1.0" MUF="1.0" PDF="292245" > PDF=292200 MemberID=45 </weight>
<weight id="2223" MUR="1.0" MUF="1.0" PDF="292246" > PDF=292200 MemberID=46 </weight>
<weight id="2224" MUR="1.0" MUF="1.0" PDF="292247" > PDF=292200 MemberID=47 </weight>
<weight id="2225" MUR="1.0" MUF="1.0" PDF="292248" > PDF=292200 MemberID=48 </weight>
<weight id="2226" MUR="1.0" MUF="1.0" PDF="292249" > PDF=292200 MemberID=49 </weight>
<weight id="2227" MUR="1.0" MUF="1.0" PDF="292250" > PDF=292200 MemberID=50 </weight>
<weight id="2228" MUR="1.0" MUF="1.0" PDF="292251" > PDF=292200 MemberID=51 </weight>
<weight id="2229" MUR="1.0" MUF="1.0" PDF="292252" > PDF=292200 MemberID=52 </weight>
<weight id="2230" MUR="1.0" MUF="1.0" PDF="292253" > PDF=292200 MemberID=53 </weight>
<weight id="2231" MUR="1.0" MUF="1.0" PDF="292254" > PDF=292200 MemberID=54 </weight>
<weight id="2232" MUR="1.0" MUF="1.0" PDF="292255" > PDF=292200 MemberID=55 </weight>
<weight id="2233" MUR="1.0" MUF="1.0" PDF="292256" > PDF=292200 MemberID=56 </weight>
<weight id="2234" MUR="1.0" MUF="1.0" PDF="292257" > PDF=292200 MemberID=57 </weight>
<weight id="2235" MUR="1.0" MUF="1.0" PDF="292258" > PDF=292200 MemberID=58 </weight>
<weight id="2236" MUR="1.0" MUF="1.0" PDF="292259" > PDF=292200 MemberID=59 </weight>
<weight id="2237" MUR="1.0" MUF="1.0" PDF="292260" > PDF=292200 MemberID=60 </weight>
<weight id="2238" MUR="1.0" MUF="1.0" PDF="292261" > PDF=292200 MemberID=61 </weight>
<weight id="2239" MUR="1.0" MUF="1.0" PDF="292262" > PDF=292200 MemberID=62 </weight>
<weight id="2240" MUR="1.0" MUF="1.0" PDF="292263" > PDF=292200 MemberID=63 </weight>
<weight id="2241" MUR="1.0" MUF="1.0" PDF="292264" > PDF=292200 MemberID=64 </weight>
<weight id="2242" MUR="1.0" MUF="1.0" PDF="292265" > PDF=292200 MemberID=65 </weight>
<weight id="2243" MUR="1.0" MUF="1.0" PDF="292266" > PDF=292200 MemberID=66 </weight>
<weight id="2244" MUR="1.0" MUF="1.0" PDF="292267" > PDF=292200 MemberID=67 </weight>
<weight id="2245" MUR="1.0" MUF="1.0" PDF="292268" > PDF=292200 MemberID=68 </weight>
<weight id="2246" MUR="1.0" MUF="1.0" PDF="292269" > PDF=292200 MemberID=69 </weight>
<weight id="2247" MUR="1.0" MUF="1.0" PDF="292270" > PDF=292200 MemberID=70 </weight>
<weight id="2248" MUR="1.0" MUF="1.0" PDF="292271" > PDF=292200 MemberID=71 </weight>
<weight id="2249" MUR="1.0" MUF="1.0" PDF="292272" > PDF=292200 MemberID=72 </weight>
<weight id="2250" MUR="1.0" MUF="1.0" PDF="292273" > PDF=292200 MemberID=73 </weight>
<weight id="2251" MUR="1.0" MUF="1.0" PDF="292274" > PDF=292200 MemberID=74 </weight>
<weight id="2252" MUR="1.0" MUF="1.0" PDF="292275" > PDF=292200 MemberID=75 </weight>
<weight id="2253" MUR="1.0" MUF="1.0" PDF="292276" > PDF=292200 MemberID=76 </weight>
<weight id="2254" MUR="1.0" MUF="1.0" PDF="292277" > PDF=292200 MemberID=77 </weight>
<weight id="2255" MUR="1.0" MUF="1.0" PDF="292278" > PDF=292200 MemberID=78 </weight>
<weight id="2256" MUR="1.0" MUF="1.0" PDF="292279" > PDF=292200 MemberID=79 </weight>
<weight id="2257" MUR="1.0" MUF="1.0" PDF="292280" > PDF=292200 MemberID=80 </weight>
<weight id="2258" MUR="1.0" MUF="1.0" PDF="292281" > PDF=292200 MemberID=81 </weight>
<weight id="2259" MUR="1.0" MUF="1.0" PDF="292282" > PDF=292200 MemberID=82 </weight>
<weight id="2260" MUR="1.0" MUF="1.0" PDF="292283" > PDF=292200 MemberID=83 </weight>
<weight id="2261" MUR="1.0" MUF="1.0" PDF="292284" > PDF=292200 MemberID=84 </weight>
<weight id="2262" MUR="1.0" MUF="1.0" PDF="292285" > PDF=292200 MemberID=85 </weight>
<weight id="2263" MUR="1.0" MUF="1.0" PDF="292286" > PDF=292200 MemberID=86 </weight>
<weight id="2264" MUR="1.0" MUF="1.0" PDF="292287" > PDF=292200 MemberID=87 </weight>
<weight id="2265" MUR="1.0" MUF="1.0" PDF="292288" > PDF=292200 MemberID=88 </weight>
<weight id="2266" MUR="1.0" MUF="1.0" PDF="292289" > PDF=292200 MemberID=89 </weight>
<weight id="2267" MUR="1.0" MUF="1.0" PDF="292290" > PDF=292200 MemberID=90 </weight>
<weight id="2268" MUR="1.0" MUF="1.0" PDF="292291" > PDF=292200 MemberID=91 </weight>
<weight id="2269" MUR="1.0" MUF="1.0" PDF="292292" > PDF=292200 MemberID=92 </weight>
<weight id="2270" MUR="1.0" MUF="1.0" PDF="292293" > PDF=292200 MemberID=93 </weight>
<weight id="2271" MUR="1.0" MUF="1.0" PDF="292294" > PDF=292200 MemberID=94 </weight>
<weight id="2272" MUR="1.0" MUF="1.0" PDF="292295" > PDF=292200 MemberID=95 </weight>
<weight id="2273" MUR="1.0" MUF="1.0" PDF="292296" > PDF=292200 MemberID=96 </weight>
<weight id="2274" MUR="1.0" MUF="1.0" PDF="292297" > PDF=292200 MemberID=97 </weight>
<weight id="2275" MUR="1.0" MUF="1.0" PDF="292298" > PDF=292200 MemberID=98 </weight>
<weight id="2276" MUR="1.0" MUF="1.0" PDF="292299" > PDF=292200 MemberID=99 </weight>
<weight id="2277" MUR="1.0" MUF="1.0" PDF="292300" > PDF=292200 MemberID=100 </weight>
<weight id="2278" MUR="1.0" MUF="1.0" PDF="292301" > PDF=292200 MemberID=101 </weight>
<weight id="2279" MUR="1.0" MUF="1.0" PDF="292302" > PDF=292200 MemberID=102 </weight>
</weightgroup> # PDFSET -> PDF
<weight id="2280" MUR="1.0" MUF="1.0" PDF="292600" > PDF=292600 MemberID=0 </weight>
<weight id="2281" MUR="1.0" MUF="1.0" PDF="315000" > PDF=315000 MemberID=0 </weight>
<weight id="2282" MUR="1.0" MUF="1.0" PDF="315200" > PDF=315200 MemberID=0 </weight>
<weight id="2283" MUR="1.0" MUF="1.0" PDF="262000" > PDF=262000 MemberID=0 </weight>
<weight id="2284" MUR="1.0" MUF="1.0" PDF="263000" > PDF=263000 MemberID=0 </weight>
</initrwgt>
<montecarlomasses>
1   0.000000E+00
       2   0.000000E+00
       3   0.000000E+00
       4   0.000000E+00
       5   0.000000E+00
      11   0.000000E+00
      13   0.000000E+00
      15   0.000000E+00
      21   0.000000E+00
</montecarlomasses>
<scalesfunctionalform>
muR  FxFx merging scale
    muF1 FxFx merging scale
    muF2 FxFx merging scale
    QES  H_T/2 := sum_i mT(i)/2, i=final state
</scalesfunctionalform>
</header>
<init>
2212   2212 0.65000000E+04 0.65000000E+04 -1 -1 325300 325300 -4   3
 0.44501412E+02 0.47056879E-01 0.28781417E+03      0
 0.44811949E+02 0.13727734E+00 0.28781417E+03      1
 0.31089624E+02 0.15769447E+00 0.28781417E+03      2
</init>
<event npLO=" -1 " npNLO=" 0 ">
 3      0 +2.8781417e+02 2.97727020e+01 7.54677110e-03 1.16379770e-01
       21 -1    0    0  502  501 +0.0000000000e+00 +0.0000000000e+00 +5.2897718000e+02 5.2897718000e+02 0.0000000000e+00 0.0000e+00 9.0000e+00
       21 -1    0    0  501  502 +0.0000000000e+00 +0.0000000000e+00 -4.7261018000e+00 4.7261018000e+00 0.0000000000e+00 0.0000e+00 9.0000e+00
       25  1    1    2    0    0 +0.0000000000e+00 +0.0000000000e+00 +5.2425107000e+02 5.3370328000e+02 1.0000000000e+02 0.0000e+00 9.0000e+00
#aMCatNLO 1  0  0  1  2 0.12455520E+01 0.00000000E+00 -9  4  0 0.00000000E+00 0.00000000E+00 0.00000000E+00 0.00000000E+00 0.00000000E+00
<rwgt>
<wgt id='1001'> +2.8781417e+02 </wgt>
<wgt id='1002'> +2.2180494e+02 </wgt>
<wgt id='1003'> +3.8579314e+02 </wgt>
<wgt id='1004'> +3.4476248e+02 </wgt>
<wgt id='1005'> +2.6458889e+02 </wgt>
<wgt id='1006'> +4.6418656e+02 </wgt>
<wgt id='1007'> +2.3021081e+02 </wgt>
<wgt id='1008'> +1.7838667e+02 </wgt>
<wgt id='1009'> +3.0676293e+02 </wgt>
<wgt id='1010'> +2.8781417e+02 </wgt>
<wgt id='1011'> +2.8839184e+02 </wgt>
<wgt id='1012'> +2.8719441e+02 </wgt>
<wgt id='1013'> +2.8781670e+02 </wgt>
<wgt id='1014'> +2.8771293e+02 </wgt>
<wgt id='1015'> +2.8774710e+02 </wgt>
<wgt id='1016'> +2.8721414e+02 </wgt>
<wgt id='1017'> +2.8704581e+02 </wgt>
<wgt id='1018'> +2.8731387e+02 </wgt>
<wgt id='1019'> +2.8733197e+02 </wgt>
<wgt id='1020'> +2.8819491e+02 </wgt>
<wgt id='1021'> +2.8863763e+02 </wgt>
<wgt id='1022'> +2.8720499e+02 </wgt>
<wgt id='1023'> +2.8780801e+02 </wgt>
<wgt id='1024'> +2.8817592e+02 </wgt>
<wgt id='1025'> +2.8835291e+02 </wgt>
<wgt id='1026'> +2.8721850e+02 </wgt>
<wgt id='1027'> +2.8794217e+02 </wgt>
<wgt id='1028'> +2.8733980e+02 </wgt>
<wgt id='1029'> +2.8798597e+02 </wgt>
<wgt id='1030'> +2.8800405e+02 </wgt>
<wgt id='1031'> +2.8712765e+02 </wgt>
<wgt id='1032'> +2.8800030e+02 </wgt>
<wgt id='1033'> +2.8706324e+02 </wgt>
<wgt id='1034'> +2.8812117e+02 </wgt>
<wgt id='1035'> +2.8741254e+02 </wgt>
<wgt id='1036'> +2.8773038e+02 </wgt>
<wgt id='1037'> +2.8657051e+02 </wgt>
<wgt id='1038'> +2.8760109e+02 </wgt>
<wgt id='1039'> +2.8623350e+02 </wgt>
<wgt id='1040'> +2.8750524e+02 </wgt>
<wgt id='1041'> +2.8713278e+02 </wgt>
<wgt id='1042'> +2.8854836e+02 </wgt>
<wgt id='1043'> +2.8732817e+02 </wgt>
<wgt id='1044'> +2.8758681e+02 </wgt>
<wgt id='1045'> +2.8764610e+02 </wgt>
<wgt id='1046'> +2.8849070e+02 </wgt>
<wgt id='1047'> +2.8783112e+02 </wgt>
<wgt id='1048'> +2.8779305e+02 </wgt>
<wgt id='1049'> +2.8808466e+02 </wgt>
<wgt id='1050'> +2.8752887e+02 </wgt>
<wgt id='1051'> +2.8804566e+02 </wgt>
<wgt id='1052'> +2.8784956e+02 </wgt>
<wgt id='1053'> +2.8767041e+02 </wgt>
<wgt id='1054'> +2.8790088e+02 </wgt>
<wgt id='1055'> +2.8781729e+02 </wgt>
<wgt id='1056'> +2.8791998e+02 </wgt>
<wgt id='1057'> +2.8774789e+02 </wgt>
<wgt id='1058'> +2.8762502e+02 </wgt>
<wgt id='1059'> +2.8761443e+02 </wgt>
<wgt id='1060'> +2.8780503e+02 </wgt>
<wgt id='1061'> +2.8785843e+02 </wgt>
<wgt id='1062'> +2.8794194e+02 </wgt>
<wgt id='1063'> +2.8777784e+02 </wgt>
<wgt id='1064'> +2.8779580e+02 </wgt>
<wgt id='1065'> +2.8796733e+02 </wgt>
<wgt id='1066'> +2.8770643e+02 </wgt>
<wgt id='1067'> +2.8789143e+02 </wgt>
<wgt id='1068'> +2.8775853e+02 </wgt>
<wgt id='1069'> +2.8780275e+02 </wgt>
<wgt id='1070'> +2.8778528e+02 </wgt>
<wgt id='1071'> +2.8780697e+02 </wgt>
<wgt id='1072'> +2.8799914e+02 </wgt>
<wgt id='1073'> +2.8793365e+02 </wgt>
<wgt id='1074'> +2.8787315e+02 </wgt>
<wgt id='1075'> +2.8802563e+02 </wgt>
<wgt id='1076'> +2.8787192e+02 </wgt>
<wgt id='1077'> +2.8793408e+02 </wgt>
<wgt id='1078'> +2.8786207e+02 </wgt>
<wgt id='1079'> +2.8777397e+02 </wgt>
<wgt id='1080'> +2.8786218e+02 </wgt>
<wgt id='1081'> +2.8789432e+02 </wgt>
<wgt id='1082'> +2.8786668e+02 </wgt>
<wgt id='1083'> +2.8784253e+02 </wgt>
<wgt id='1084'> +2.8779374e+02 </wgt>
<wgt id='1085'> +2.8773025e+02 </wgt>
<wgt id='1086'> +2.8773450e+02 </wgt>
<wgt id='1087'> +2.8795162e+02 </wgt>
<wgt id='1088'> +2.8782619e+02 </wgt>
<wgt id='1089'> +2.8775903e+02 </wgt>
<wgt id='1090'> +2.8787961e+02 </wgt>
<wgt id='1091'> +2.8780494e+02 </wgt>
<wgt id='1092'> +2.8785112e+02 </wgt>
<wgt id='1093'> +2.8788612e+02 </wgt>
<wgt id='1094'> +2.8781782e+02 </wgt>
<wgt id='1095'> +2.8780277e+02 </wgt>
<wgt id='1096'> +2.8779996e+02 </wgt>
<wgt id='1097'> +2.8779746e+02 </wgt>
<wgt id='1098'> +2.8781181e+02 </wgt>
<wgt id='1099'> +2.8780943e+02 </wgt>
<wgt id='1100'> +2.8785757e+02 </wgt>
<wgt id='1101'> +2.8780517e+02 </wgt>
<wgt id='1102'> +2.8789842e+02 </wgt>
<wgt id='1103'> +2.8779091e+02 </wgt>
<wgt id='1104'> +2.8779449e+02 </wgt>
<wgt id='1105'> +2.8781426e+02 </wgt>
<wgt id='1106'> +2.8777754e+02 </wgt>
<wgt id='1107'> +2.8783253e+02 </wgt>
<wgt id='1108'> +2.8780822e+02 </wgt>
<wgt id='1109'> +2.8782392e+02 </wgt>
<wgt id='1110'> +2.8781423e+02 </wgt>
<wgt id='1111'> +2.7735842e+02 </wgt>
<wgt id='1112'> +2.9823931e+02 </wgt>
<wgt id='1113'> +2.8781423e+02 </wgt>
<wgt id='1114'> +2.9023390e+02 </wgt>
<wgt id='1115'> +2.8455288e+02 </wgt>
<wgt id='1116'> +2.7858356e+02 </wgt>
<wgt id='1117'> +2.8816068e+02 </wgt>
<wgt id='1118'> +2.8274101e+02 </wgt>
<wgt id='1119'> +2.9312759e+02 </wgt>
<wgt id='1120'> +2.9207048e+02 </wgt>
<wgt id='1121'> +2.8956536e+02 </wgt>
<wgt id='1122'> +2.8595596e+02 </wgt>
<wgt id='1123'> +2.8835211e+02 </wgt>
<wgt id='1124'> +2.9098804e+02 </wgt>
<wgt id='1125'> +2.9002344e+02 </wgt>
<wgt id='1126'> +2.9146088e+02 </wgt>
<wgt id='1127'> +2.8822487e+02 </wgt>
<wgt id='1128'> +2.8215714e+02 </wgt>
<wgt id='1129'> +2.8724237e+02 </wgt>
<wgt id='1130'> +2.8857194e+02 </wgt>
<wgt id='1131'> +2.8965608e+02 </wgt>
<wgt id='1132'> +2.8198106e+02 </wgt>
<wgt id='1133'> +2.8470787e+02 </wgt>
<wgt id='1134'> +2.8539129e+02 </wgt>
<wgt id='1135'> +2.8451609e+02 </wgt>
<wgt id='1136'> +2.8518815e+02 </wgt>
<wgt id='1137'> +2.8713687e+02 </wgt>
<wgt id='1138'> +2.8459010e+02 </wgt>
<wgt id='1139'> +2.8760962e+02 </wgt>
<wgt id='1140'> +2.8017675e+02 </wgt>
<wgt id='1141'> +2.8825783e+02 </wgt>
<wgt id='1142'> +2.8684178e+02 </wgt>
<wgt id='1143'> +2.9071737e+02 </wgt>
<wgt id='1144'> +2.9091835e+02 </wgt>
<wgt id='1145'> +2.9715950e+02 </wgt>
<wgt id='1146'> +2.8274420e+02 </wgt>
<wgt id='1147'> +2.9046106e+02 </wgt>
<wgt id='1148'> +2.8943029e+02 </wgt>
<wgt id='1149'> +2.9200540e+02 </wgt>
<wgt id='1150'> +2.8996889e+02 </wgt>
<wgt id='1151'> +2.8311840e+02 </wgt>
<wgt id='1152'> +2.8895767e+02 </wgt>
<wgt id='1153'> +2.9034567e+02 </wgt>
<wgt id='1154'> +2.8423109e+02 </wgt>
<wgt id='1155'> +2.9204385e+02 </wgt>
<wgt id='1156'> +2.8588287e+02 </wgt>
<wgt id='1157'> +2.8452326e+02 </wgt>
<wgt id='1158'> +2.8658229e+02 </wgt>
<wgt id='1159'> +2.9050168e+02 </wgt>
<wgt id='1160'> +2.8735828e+02 </wgt>
<wgt id='1161'> +2.9190702e+02 </wgt>
<wgt id='1162'> +2.8790970e+02 </wgt>
<wgt id='1163'> +2.9447632e+02 </wgt>
<wgt id='1164'> +2.8744749e+02 </wgt>
<wgt id='1165'> +2.9017080e+02 </wgt>
<wgt id='1166'> +2.8126483e+02 </wgt>
<wgt id='1167'> +2.8972119e+02 </wgt>
<wgt id='1168'> +2.8545853e+02 </wgt>
<wgt id='1169'> +2.8793854e+02 </wgt>
<wgt id='1170'> +2.9178555e+02 </wgt>
<wgt id='1171'> +2.8361616e+02 </wgt>
<wgt id='1172'> +2.8288913e+02 </wgt>
<wgt id='1173'> +2.9113126e+02 </wgt>
<wgt id='1174'> +2.9090436e+02 </wgt>
<wgt id='1175'> +2.8849404e+02 </wgt>
<wgt id='1176'> +2.8134275e+02 </wgt>
<wgt id='1177'> +2.8713065e+02 </wgt>
<wgt id='1178'> +2.8624914e+02 </wgt>
<wgt id='1179'> +2.8566105e+02 </wgt>
<wgt id='1180'> +2.8677932e+02 </wgt>
<wgt id='1181'> +2.8920804e+02 </wgt>
<wgt id='1182'> +2.8982611e+02 </wgt>
<wgt id='1183'> +2.9077499e+02 </wgt>
<wgt id='1184'> +2.8554445e+02 </wgt>
<wgt id='1185'> +2.8077680e+02 </wgt>
<wgt id='1186'> +2.8992968e+02 </wgt>
<wgt id='1187'> +2.8647674e+02 </wgt>
<wgt id='1188'> +2.9028130e+02 </wgt>
<wgt id='1189'> +2.8407024e+02 </wgt>
<wgt id='1190'> +2.9021403e+02 </wgt>
<wgt id='1191'> +2.8718524e+02 </wgt>
<wgt id='1192'> +2.8404380e+02 </wgt>
<wgt id='1193'> +2.8746843e+02 </wgt>
<wgt id='1194'> +2.8839315e+02 </wgt>
<wgt id='1195'> +2.8724237e+02 </wgt>
<wgt id='1196'> +2.8860889e+02 </wgt>
<wgt id='1197'> +2.8808579e+02 </wgt>
<wgt id='1198'> +2.8544798e+02 </wgt>
<wgt id='1199'> +2.8945629e+02 </wgt>
<wgt id='1200'> +2.8809596e+02 </wgt>
<wgt id='1201'> +2.9303532e+02 </wgt>
<wgt id='1202'> +2.9324888e+02 </wgt>
<wgt id='1203'> +2.8920528e+02 </wgt>
<wgt id='1204'> +2.8369914e+02 </wgt>
<wgt id='1205'> +2.8873989e+02 </wgt>
<wgt id='1206'> +2.8833103e+02 </wgt>
<wgt id='1207'> +2.8898139e+02 </wgt>
<wgt id='1208'> +2.9825690e+02 </wgt>
<wgt id='1209'> +2.8398632e+02 </wgt>
<wgt id='1210'> +2.8626939e+02 </wgt>
<wgt id='1211'> +2.8948525e+02 </wgt>
<wgt id='1212'> +2.9049794e+02 </wgt>
<wgt id='1213'> +2.8846080e+02 </wgt>
<wgt id='1214'> +2.8774405e+02 </wgt>
<wgt id='1215'> +2.8754534e+02 </wgt>
<wgt id='1216'> +2.8725490e+02 </wgt>
<wgt id='1217'> +2.8698171e+02 </wgt>
<wgt id='1218'> +2.8805868e+02 </wgt>
<wgt id='1219'> +2.8826467e+02 </wgt>
<wgt id='1220'> +2.8786960e+02 </wgt>
<wgt id='1221'> +2.8857445e+02 </wgt>
<wgt id='1222'> +2.8836056e+02 </wgt>
<wgt id='1223'> +2.8736863e+02 </wgt>
<wgt id='1224'> +2.8733621e+02 </wgt>
<wgt id='1225'> +2.8749418e+02 </wgt>
<wgt id='1226'> +2.8765555e+02 </wgt>
<wgt id='1227'> +2.8706104e+02 </wgt>
<wgt id='1228'> +2.8772800e+02 </wgt>
<wgt id='1229'> +2.8786618e+02 </wgt>
<wgt id='1230'> +2.8812125e+02 </wgt>
<wgt id='1231'> +2.8765786e+02 </wgt>
<wgt id='1232'> +2.8767261e+02 </wgt>
<wgt id='1233'> +2.8786587e+02 </wgt>
<wgt id='1234'> +2.8806107e+02 </wgt>
<wgt id='1235'> +2.8766804e+02 </wgt>
<wgt id='1236'> +2.8799818e+02 </wgt>
<wgt id='1237'> +2.8810695e+02 </wgt>
<wgt id='1238'> +2.8732382e+02 </wgt>
<wgt id='1239'> +2.8856281e+02 </wgt>
<wgt id='1240'> +2.8883156e+02 </wgt>
<wgt id='1241'> +2.8736235e+02 </wgt>
<wgt id='1242'> +2.8689432e+02 </wgt>
<wgt id='1243'> +2.8857629e+02 </wgt>
<wgt id='1244'> +2.8762524e+02 </wgt>
<wgt id='1245'> +2.8824039e+02 </wgt>
<wgt id='1246'> +2.8697988e+02 </wgt>
<wgt id='1247'> +2.8761915e+02 </wgt>
<wgt id='1248'> +2.8896976e+02 </wgt>
<wgt id='1249'> +2.8776563e+02 </wgt>
<wgt id='1250'> +2.8807901e+02 </wgt>
<wgt id='1251'> +2.8838170e+02 </wgt>
<wgt id='1252'> +2.8752172e+02 </wgt>
<wgt id='1253'> +2.8663110e+02 </wgt>
<wgt id='1254'> +2.8776085e+02 </wgt>
<wgt id='1255'> +2.8806317e+02 </wgt>
<wgt id='1256'> +2.8802194e+02 </wgt>
<wgt id='1257'> +2.8719758e+02 </wgt>
<wgt id='1258'> +2.8801058e+02 </wgt>
<wgt id='1259'> +2.8750983e+02 </wgt>
<wgt id='1260'> +2.8783664e+02 </wgt>
<wgt id='1261'> +2.8799234e+02 </wgt>
<wgt id='1262'> +2.8737321e+02 </wgt>
<wgt id='1263'> +2.8750755e+02 </wgt>
<wgt id='1264'> +2.8763467e+02 </wgt>
<wgt id='1265'> +2.8831786e+02 </wgt>
<wgt id='1266'> +2.8812563e+02 </wgt>
<wgt id='1267'> +2.8810756e+02 </wgt>
<wgt id='1268'> +2.8789680e+02 </wgt>
<wgt id='1269'> +2.8749673e+02 </wgt>
<wgt id='1270'> +2.8777522e+02 </wgt>
<wgt id='1271'> +2.8827489e+02 </wgt>
<wgt id='1272'> +2.8777208e+02 </wgt>
<wgt id='1273'> +2.8760239e+02 </wgt>
<wgt id='1274'> +2.8759310e+02 </wgt>
<wgt id='1275'> +2.8754842e+02 </wgt>
<wgt id='1276'> +2.8786650e+02 </wgt>
<wgt id='1277'> +2.8779572e+02 </wgt>
<wgt id='1278'> +2.8773857e+02 </wgt>
<wgt id='1279'> +2.8812829e+02 </wgt>
<wgt id='1280'> +2.8778556e+02 </wgt>
<wgt id='1281'> +2.8774000e+02 </wgt>
<wgt id='1282'> +2.8777636e+02 </wgt>
<wgt id='1283'> +2.8768750e+02 </wgt>
<wgt id='1284'> +2.8755010e+02 </wgt>
<wgt id='1285'> +2.8768113e+02 </wgt>
<wgt id='1286'> +2.8774286e+02 </wgt>
<wgt id='1287'> +2.8779117e+02 </wgt>
<wgt id='1288'> +2.8771623e+02 </wgt>
<wgt id='1289'> +2.8779149e+02 </wgt>
<wgt id='1290'> +2.8762536e+02 </wgt>
<wgt id='1291'> +2.8783147e+02 </wgt>
<wgt id='1292'> +2.8767274e+02 </wgt>
<wgt id='1293'> +2.8772360e+02 </wgt>
<wgt id='1294'> +2.8783952e+02 </wgt>
<wgt id='1295'> +2.8774063e+02 </wgt>
<wgt id='1296'> +2.8774191e+02 </wgt>
<wgt id='1297'> +2.8790775e+02 </wgt>
<wgt id='1298'> +2.8780858e+02 </wgt>
<wgt id='1299'> +2.8784268e+02 </wgt>
<wgt id='1300'> +2.8762742e+02 </wgt>
<wgt id='1301'> +2.8769543e+02 </wgt>
<wgt id='1302'> +2.8780074e+02 </wgt>
<wgt id='1303'> +2.8756536e+02 </wgt>
<wgt id='1304'> +2.8772037e+02 </wgt>
<wgt id='1305'> +2.8783468e+02 </wgt>
<wgt id='1306'> +2.8783110e+02 </wgt>
<wgt id='1307'> +2.8771769e+02 </wgt>
<wgt id='1308'> +2.8788160e+02 </wgt>
<wgt id='1309'> +2.8782270e+02 </wgt>
<wgt id='1310'> +2.8768885e+02 </wgt>
<wgt id='1311'> +2.8774241e+02 </wgt>
<wgt id='1312'> +2.8774425e+02 </wgt>
<wgt id='1313'> +2.8766480e+02 </wgt>
<wgt id='1314'> +2.8777242e+02 </wgt>
<wgt id='1315'> +2.7735842e+02 </wgt>
<wgt id='1316'> +2.9823931e+02 </wgt>
<wgt id='1317'> +2.3984439e+02 </wgt>
<wgt id='1318'> +2.4859863e+02 </wgt>
<wgt id='1319'> +2.5773281e+02 </wgt>
<wgt id='1320'> +2.6729605e+02 </wgt>
<wgt id='1321'> +2.8255703e+02 </wgt>
<wgt id='1322'> +2.9244172e+02 </wgt>
<wgt id='1323'> +3.0782629e+02 </wgt>
<wgt id='1324'> +3.1819033e+02 </wgt>
<wgt id='1325'> +2.9354813e+02 </wgt>
<wgt id='1326'> +2.9321096e+02 </wgt>
<wgt id='1327'> +2.9396981e+02 </wgt>
<wgt id='1328'> +2.9266291e+02 </wgt>
<wgt id='1329'> +2.9368581e+02 </wgt>
<wgt id='1330'> +2.9248233e+02 </wgt>
<wgt id='1331'> +2.9290282e+02 </wgt>
<wgt id='1332'> +2.9252466e+02 </wgt>
<wgt id='1333'> +2.9374694e+02 </wgt>
<wgt id='1334'> +2.9265786e+02 </wgt>
<wgt id='1335'> +2.9356899e+02 </wgt>
<wgt id='1336'> +2.9353441e+02 </wgt>
<wgt id='1337'> +2.9342170e+02 </wgt>
<wgt id='1338'> +2.9409626e+02 </wgt>
<wgt id='1339'> +2.9326840e+02 </wgt>
<wgt id='1340'> +2.9336042e+02 </wgt>
<wgt id='1341'> +2.9345162e+02 </wgt>
<wgt id='1342'> +2.9333264e+02 </wgt>
<wgt id='1343'> +2.9389171e+02 </wgt>
<wgt id='1344'> +2.9394588e+02 </wgt>
<wgt id='1345'> +2.9347989e+02 </wgt>
<wgt id='1346'> +2.9343007e+02 </wgt>
<wgt id='1347'> +2.9360920e+02 </wgt>
<wgt id='1348'> +2.9335347e+02 </wgt>
<wgt id='1349'> +2.9304779e+02 </wgt>
<wgt id='1350'> +2.9387119e+02 </wgt>
<wgt id='1351'> +2.9399348e+02 </wgt>
<wgt id='1352'> +2.9350749e+02 </wgt>
<wgt id='1353'> +2.9239639e+02 </wgt>
<wgt id='1354'> +2.9268745e+02 </wgt>
<wgt id='1355'> +2.9469510e+02 </wgt>
<wgt id='1356'> +2.9417674e+02 </wgt>
<wgt id='1357'> +2.9433381e+02 </wgt>
<wgt id='1358'> +2.9485081e+02 </wgt>
<wgt id='1359'> +2.9390117e+02 </wgt>
<wgt id='1360'> +2.9516685e+02 </wgt>
<wgt id='1361'> +2.9376261e+02 </wgt>
<wgt id='1362'> +2.9316450e+02 </wgt>
<wgt id='1363'> +2.9359357e+02 </wgt>
<wgt id='1364'> +2.9293107e+02 </wgt>
<wgt id='1365'> +2.9303147e+02 </wgt>
<wgt id='1366'> +2.9401972e+02 </wgt>
<wgt id='1367'> +2.9353037e+02 </wgt>
<wgt id='1368'> +2.9345522e+02 </wgt>
<wgt id='1369'> +2.9331129e+02 </wgt>
<wgt id='1370'> +2.9365723e+02 </wgt>
<wgt id='1371'> +2.9388277e+02 </wgt>
<wgt id='1372'> +2.9374191e+02 </wgt>
<wgt id='1373'> +2.9340048e+02 </wgt>
<wgt id='1374'> +2.9358418e+02 </wgt>
<wgt id='1375'> +2.9342406e+02 </wgt>
<wgt id='1376'> +2.9352689e+02 </wgt>
<wgt id='1377'> +2.9323092e+02 </wgt>
<wgt id='1378'> +2.9352851e+02 </wgt>
<wgt id='1379'> +2.9368854e+02 </wgt>
<wgt id='1380'> +2.9265934e+02 </wgt>
<wgt id='1381'> +2.9356152e+02 </wgt>
<wgt id='1382'> +2.9355824e+02 </wgt>
<wgt id='1383'> +2.9320916e+02 </wgt>
<wgt id='1384'> +2.9364603e+02 </wgt>
<wgt id='1385'> +2.9370226e+02 </wgt>
<wgt id='1386'> +2.9358385e+02 </wgt>
<wgt id='1387'> +2.9370763e+02 </wgt>
<wgt id='1388'> +2.9374872e+02 </wgt>
<wgt id='1389'> +2.9336899e+02 </wgt>
<wgt id='1390'> +2.9344594e+02 </wgt>
<wgt id='1391'> +2.9363064e+02 </wgt>
<wgt id='1392'> +2.9331375e+02 </wgt>
<wgt id='1393'> +2.9376490e+02 </wgt>
<wgt id='1394'> +2.9362201e+02 </wgt>
<wgt id='1395'> +2.9375340e+02 </wgt>
<wgt id='1396'> +2.9339184e+02 </wgt>
<wgt id='1397'> +2.9341442e+02 </wgt>
<wgt id='1398'> +2.9330187e+02 </wgt>
<wgt id='1399'> +2.9354344e+02 </wgt>
<wgt id='1400'> +2.9342431e+02 </wgt>
<wgt id='1401'> +2.9348082e+02 </wgt>
<wgt id='1402'> +2.9366111e+02 </wgt>
<wgt id='1403'> +2.9353046e+02 </wgt>
<wgt id='1404'> +2.9363602e+02 </wgt>
<wgt id='1405'> +2.9361557e+02 </wgt>
<wgt id='1406'> +2.9364823e+02 </wgt>
<wgt id='1407'> +2.9358758e+02 </wgt>
<wgt id='1408'> +2.9347908e+02 </wgt>
<wgt id='1409'> +2.9350515e+02 </wgt>
<wgt id='1410'> +2.9351677e+02 </wgt>
<wgt id='1411'> +2.9332930e+02 </wgt>
<wgt id='1412'> +2.9346364e+02 </wgt>
<wgt id='1413'> +2.9358643e+02 </wgt>
<wgt id='1414'> +2.9352377e+02 </wgt>
<wgt id='1415'> +2.9357439e+02 </wgt>
<wgt id='1416'> +2.9363873e+02 </wgt>
<wgt id='1417'> +2.9358670e+02 </wgt>
<wgt id='1418'> +2.9354550e+02 </wgt>
<wgt id='1419'> +2.9361015e+02 </wgt>
<wgt id='1420'> +2.9353034e+02 </wgt>
<wgt id='1421'> +2.9360644e+02 </wgt>
<wgt id='1422'> +2.9353634e+02 </wgt>
<wgt id='1423'> +2.9358659e+02 </wgt>
<wgt id='1424'> +2.9357534e+02 </wgt>
<wgt id='1425'> +2.9352920e+02 </wgt>
<wgt id='1426'> +2.8230788e+02 </wgt>
<wgt id='1427'> +3.0396754e+02 </wgt>
<wgt id='1428'> +2.7875153e+02 </wgt>
<wgt id='1429'> +2.7865191e+02 </wgt>
<wgt id='1430'> +2.7788403e+02 </wgt>
<wgt id='1431'> +2.7896053e+02 </wgt>
<wgt id='1432'> +2.7772992e+02 </wgt>
<wgt id='1433'> +2.7850263e+02 </wgt>
<wgt id='1434'> +2.7498410e+02 </wgt>
<wgt id='1435'> +2.7641049e+02 </wgt>
<wgt id='1436'> +2.7978857e+02 </wgt>
<wgt id='1437'> +2.7886970e+02 </wgt>
<wgt id='1438'> +2.7853559e+02 </wgt>
<wgt id='1439'> +2.7907625e+02 </wgt>
<wgt id='1440'> +2.7793629e+02 </wgt>
<wgt id='1441'> +2.7646771e+02 </wgt>
<wgt id='1442'> +2.8016767e+02 </wgt>
<wgt id='1443'> +2.7988895e+02 </wgt>
<wgt id='1444'> +2.7494522e+02 </wgt>
<wgt id='1445'> +2.7776459e+02 </wgt>
<wgt id='1446'> +2.7985025e+02 </wgt>
<wgt id='1447'> +2.7811578e+02 </wgt>
<wgt id='1448'> +2.7961823e+02 </wgt>
<wgt id='1449'> +2.7909217e+02 </wgt>
<wgt id='1450'> +2.7851069e+02 </wgt>
<wgt id='1451'> +2.7716492e+02 </wgt>
<wgt id='1452'> +2.8042140e+02 </wgt>
<wgt id='1453'> +2.7863440e+02 </wgt>
<wgt id='1454'> +2.7883434e+02 </wgt>
<wgt id='1455'> +2.8093447e+02 </wgt>
<wgt id='1456'> +2.7497781e+02 </wgt>
<wgt id='1457'> +2.7468528e+02 </wgt>
<wgt id='1458'> +2.8115905e+02 </wgt>
<wgt id='1459'> +2.7639929e+02 </wgt>
<wgt id='1460'> +2.8209609e+02 </wgt>
<wgt id='1461'> +2.7756342e+02 </wgt>
<wgt id='1462'> +2.7972629e+02 </wgt>
<wgt id='1463'> +2.7605179e+02 </wgt>
<wgt id='1464'> +2.8111097e+02 </wgt>
<wgt id='1465'> +2.7609996e+02 </wgt>
<wgt id='1466'> +2.8167218e+02 </wgt>
<wgt id='1467'> +2.8349017e+02 </wgt>
<wgt id='1468'> +2.7640941e+02 </wgt>
<wgt id='1469'> +2.7825492e+02 </wgt>
<wgt id='1470'> +2.7841465e+02 </wgt>
<wgt id='1471'> +2.7965179e+02 </wgt>
<wgt id='1472'> +2.7461588e+02 </wgt>
<wgt id='1473'> +2.7995150e+02 </wgt>
<wgt id='1474'> +2.7865703e+02 </wgt>
<wgt id='1475'> +2.7739311e+02 </wgt>
<wgt id='1476'> +2.8200901e+02 </wgt>
<wgt id='1477'> +2.7853758e+02 </wgt>
<wgt id='1478'> +2.7947341e+02 </wgt>
<wgt id='1479'> +2.7893849e+02 </wgt>
<wgt id='1480'> +2.7876114e+02 </wgt>
<wgt id='1481'> +2.7221126e+02 </wgt>
<wgt id='1482'> +2.7311760e+02 </wgt>
<wgt id='1483'> +2.7714758e+02 </wgt>
<wgt id='1484'> +2.8207306e+02 </wgt>
<wgt id='1485'> +2.6732492e+02 </wgt>
<wgt id='1486'> +2.9037354e+02 </wgt>
<wgt id='1487'> +2.8549714e+02 </wgt>
<wgt id='1488'> +2.8550039e+02 </wgt>
<wgt id='1489'> +2.8591249e+02 </wgt>
<wgt id='1490'> +2.8255223e+02 </wgt>
<wgt id='1491'> +2.8679548e+02 </wgt>
<wgt id='1492'> +2.8641773e+02 </wgt>
<wgt id='1493'> +2.8484811e+02 </wgt>
<wgt id='1494'> +2.8503289e+02 </wgt>
<wgt id='1495'> +2.8675653e+02 </wgt>
<wgt id='1496'> +2.8272146e+02 </wgt>
<wgt id='1497'> +2.8593593e+02 </wgt>
<wgt id='1498'> +2.8818930e+02 </wgt>
<wgt id='1499'> +2.8385780e+02 </wgt>
<wgt id='1500'> +2.7815146e+02 </wgt>
<wgt id='1501'> +2.8968958e+02 </wgt>
<wgt id='1502'> +2.8920751e+02 </wgt>
<wgt id='1503'> +2.8321316e+02 </wgt>
<wgt id='1504'> +2.8161420e+02 </wgt>
<wgt id='1505'> +2.9009976e+02 </wgt>
<wgt id='1506'> +2.8794223e+02 </wgt>
<wgt id='1507'> +2.8271807e+02 </wgt>
<wgt id='1508'> +2.8571012e+02 </wgt>
<wgt id='1509'> +2.8488779e+02 </wgt>
<wgt id='1510'> +2.8506001e+02 </wgt>
<wgt id='1511'> +2.8574888e+02 </wgt>
<wgt id='1512'> +2.8487145e+02 </wgt>
<wgt id='1513'> +2.8604270e+02 </wgt>
<wgt id='1514'> +2.8512166e+02 </wgt>
<wgt id='1515'> +2.8595339e+02 </wgt>
<wgt id='1516'> +2.8415251e+02 </wgt>
<wgt id='1517'> +2.8596383e+02 </wgt>
<wgt id='1518'> +2.8596367e+02 </wgt>
<wgt id='1519'> +2.8489266e+02 </wgt>
<wgt id='1520'> +2.8492373e+02 </wgt>
<wgt id='1521'> +2.8677209e+02 </wgt>
<wgt id='1522'> +2.8698977e+02 </wgt>
<wgt id='1523'> +2.8409912e+02 </wgt>
<wgt id='1524'> +2.8635546e+02 </wgt>
<wgt id='1525'> +2.8375561e+02 </wgt>
<wgt id='1526'> +2.8475755e+02 </wgt>
<wgt id='1527'> +2.8578129e+02 </wgt>
<wgt id='1528'> +2.8621012e+02 </wgt>
<wgt id='1529'> +2.8494301e+02 </wgt>
<wgt id='1530'> +2.8511776e+02 </wgt>
<wgt id='1531'> +2.8682103e+02 </wgt>
<wgt id='1532'> +2.8196144e+02 </wgt>
<wgt id='1533'> +2.8613519e+02 </wgt>
<wgt id='1534'> +2.8586882e+02 </wgt>
<wgt id='1535'> +2.8185360e+02 </wgt>
<wgt id='1536'> +2.8120971e+02 </wgt>
<wgt id='1537'> +2.8668426e+02 </wgt>
<wgt id='1538'> +2.8493393e+02 </wgt>
<wgt id='1539'> +2.8542335e+02 </wgt>
<wgt id='1540'> +2.7803466e+02 </wgt>
<wgt id='1541'> +2.8302616e+02 </wgt>
<wgt id='1542'> +2.8467297e+02 </wgt>
<wgt id='1543'> +2.8791995e+02 </wgt>
<wgt id='1544'> +2.7334205e+02 </wgt>
<wgt id='1545'> +2.9787421e+02 </wgt>
<wgt id='1546'> +3.0788709e+02 </wgt>
<wgt id='1547'> +2.8933322e+02 </wgt>
<wgt id='1548'> +2.8989300e+02 </wgt>
<wgt id='1549'> +2.8875301e+02 </wgt>
<wgt id='1550'> +2.8952940e+02 </wgt>
<wgt id='1551'> +2.8921588e+02 </wgt>
<wgt id='1552'> +2.8937648e+02 </wgt>
<wgt id='1553'> +2.8933653e+02 </wgt>
<wgt id='1554'> +2.8856093e+02 </wgt>
<wgt id='1555'> +2.9020562e+02 </wgt>
<wgt id='1556'> +2.9090952e+02 </wgt>
<wgt id='1557'> +2.8783582e+02 </wgt>
<wgt id='1558'> +2.9010494e+02 </wgt>
<wgt id='1559'> +2.8769320e+02 </wgt>
<wgt id='1560'> +2.8893257e+02 </wgt>
<wgt id='1561'> +2.9009067e+02 </wgt>
<wgt id='1562'> +2.8857271e+02 </wgt>
<wgt id='1563'> +2.8976748e+02 </wgt>
<wgt id='1564'> +2.8735558e+02 </wgt>
<wgt id='1565'> +2.9169771e+02 </wgt>
<wgt id='1566'> +2.8921879e+02 </wgt>
<wgt id='1567'> +2.8944667e+02 </wgt>
<wgt id='1568'> +2.8871666e+02 </wgt>
<wgt id='1569'> +2.9015800e+02 </wgt>
<wgt id='1570'> +2.8726002e+02 </wgt>
<wgt id='1571'> +2.9082034e+02 </wgt>
<wgt id='1572'> +2.8974462e+02 </wgt>
<wgt id='1573'> +2.8769008e+02 </wgt>
<wgt id='1574'> +2.9024978e+02 </wgt>
<wgt id='1575'> +2.8936829e+02 </wgt>
<wgt id='1576'> +2.8985520e+02 </wgt>
<wgt id='1577'> +2.8870839e+02 </wgt>
<wgt id='1578'> +2.8875482e+02 </wgt>
<wgt id='1579'> +2.8977870e+02 </wgt>
<wgt id='1580'> +2.9000459e+02 </wgt>
<wgt id='1581'> +2.8859613e+02 </wgt>
<wgt id='1582'> +2.8950279e+02 </wgt>
<wgt id='1583'> +2.8955782e+02 </wgt>
<wgt id='1584'> +2.8984518e+02 </wgt>
<wgt id='1585'> +2.8936183e+02 </wgt>
<wgt id='1586'> +2.8878718e+02 </wgt>
<wgt id='1587'> +2.8995715e+02 </wgt>
<wgt id='1588'> +2.8886678e+02 </wgt>
<wgt id='1589'> +2.8996936e+02 </wgt>
<wgt id='1590'> +2.9354092e+02 </wgt>
<wgt id='1591'> +2.8810113e+02 </wgt>
<wgt id='1592'> +2.8911463e+02 </wgt>
<wgt id='1593'> +2.8995578e+02 </wgt>
<wgt id='1594'> +2.9189287e+02 </wgt>
<wgt id='1595'> +2.8597779e+02 </wgt>
<wgt id='1596'> +2.9051080e+02 </wgt>
<wgt id='1597'> +2.8874001e+02 </wgt>
<wgt id='1598'> +2.7869085e+02 </wgt>
<wgt id='1599'> +2.7920828e+02 </wgt>
<wgt id='1600'> +2.7808382e+02 </wgt>
<wgt id='1601'> +2.7931591e+02 </wgt>
<wgt id='1602'> +2.7812089e+02 </wgt>
<wgt id='1603'> +2.7908015e+02 </wgt>
<wgt id='1604'> +2.7856513e+02 </wgt>
<wgt id='1605'> +2.7761901e+02 </wgt>
<wgt id='1606'> +2.7980922e+02 </wgt>
<wgt id='1607'> +2.7941057e+02 </wgt>
<wgt id='1608'> +2.7804271e+02 </wgt>
<wgt id='1609'> +2.7537785e+02 </wgt>
<wgt id='1610'> +2.8015811e+02 </wgt>
<wgt id='1611'> +2.7868072e+02 </wgt>
<wgt id='1612'> +2.7879044e+02 </wgt>
<wgt id='1613'> +2.7770717e+02 </wgt>
<wgt id='1614'> +2.7980379e+02 </wgt>
<wgt id='1615'> +2.7614812e+02 </wgt>
<wgt id='1616'> +2.8010270e+02 </wgt>
<wgt id='1617'> +2.7847572e+02 </wgt>
<wgt id='1618'> +2.7910023e+02 </wgt>
<wgt id='1619'> +2.7867024e+02 </wgt>
<wgt id='1620'> +2.7871944e+02 </wgt>
<wgt id='1621'> +2.7982091e+02 </wgt>
<wgt id='1622'> +2.7733918e+02 </wgt>
<wgt id='1623'> +2.7941098e+02 </wgt>
<wgt id='1624'> +2.7708203e+02 </wgt>
<wgt id='1625'> +2.7977364e+02 </wgt>
<wgt id='1626'> +2.7862251e+02 </wgt>
<wgt id='1627'> +2.7841677e+02 </wgt>
<wgt id='1628'> +2.7907287e+02 </wgt>
<wgt id='1629'> +2.7840328e+02 </wgt>
<wgt id='1630'> +2.7941798e+02 </wgt>
<wgt id='1631'> +2.7868527e+02 </wgt>
<wgt id='1632'> +2.7903371e+02 </wgt>
<wgt id='1633'> +2.7868417e+02 </wgt>
<wgt id='1634'> +2.7894653e+02 </wgt>
<wgt id='1635'> +2.7877008e+02 </wgt>
<wgt id='1636'> +2.7905825e+02 </wgt>
<wgt id='1637'> +2.7802763e+02 </wgt>
<wgt id='1638'> +2.7918520e+02 </wgt>
<wgt id='1639'> +2.7823825e+02 </wgt>
<wgt id='1640'> +2.7954670e+02 </wgt>
<wgt id='1641'> +2.7891553e+02 </wgt>
<wgt id='1642'> +2.7762230e+02 </wgt>
<wgt id='1643'> +2.7635425e+02 </wgt>
<wgt id='1644'> +2.8096517e+02 </wgt>
<wgt id='1645'> +2.7995600e+02 </wgt>
<wgt id='1646'> +2.7826565e+02 </wgt>
<wgt id='1647'> +2.7798052e+02 </wgt>
<wgt id='1648'> +2.7997970e+02 </wgt>
<wgt id='1649'> +4.8852782e+02 </wgt>
<wgt id='1650'> +2.8316086e+02 </wgt>
<wgt id='1651'> +2.8307257e+02 </wgt>
<wgt id='1652'> +2.8324290e+02 </wgt>
<wgt id='1653'> +2.8317465e+02 </wgt>
<wgt id='1654'> +2.8315160e+02 </wgt>
<wgt id='1655'> +2.8242602e+02 </wgt>
<wgt id='1656'> +2.8307914e+02 </wgt>
<wgt id='1657'> +2.8289304e+02 </wgt>
<wgt id='1658'> +2.8372060e+02 </wgt>
<wgt id='1659'> +2.8432526e+02 </wgt>
<wgt id='1660'> +2.8315578e+02 </wgt>
<wgt id='1661'> +2.8306137e+02 </wgt>
<wgt id='1662'> +2.8275555e+02 </wgt>
<wgt id='1663'> +2.8297148e+02 </wgt>
<wgt id='1664'> +2.8322684e+02 </wgt>
<wgt id='1665'> +2.8290867e+02 </wgt>
<wgt id='1666'> +2.8336374e+02 </wgt>
<wgt id='1667'> +2.8323874e+02 </wgt>
<wgt id='1668'> +2.8340864e+02 </wgt>
<wgt id='1669'> +2.8337251e+02 </wgt>
<wgt id='1670'> +2.8269198e+02 </wgt>
<wgt id='1671'> +2.8311720e+02 </wgt>
<wgt id='1672'> +2.8231473e+02 </wgt>
<wgt id='1673'> +2.8312829e+02 </wgt>
<wgt id='1674'> +2.8309654e+02 </wgt>
<wgt id='1675'> +2.8357245e+02 </wgt>
<wgt id='1676'> +2.8361769e+02 </wgt>
<wgt id='1677'> +2.8291626e+02 </wgt>
<wgt id='1678'> +2.8347433e+02 </wgt>
<wgt id='1679'> +2.8131255e+02 </wgt>
<wgt id='1680'> +2.9463069e+02 </wgt>
<wgt id='1681'> +2.9360021e+02 </wgt>
<wgt id='1682'> +2.9438610e+02 </wgt>
<wgt id='1683'> +2.9527308e+02 </wgt>
<wgt id='1684'> +2.9435007e+02 </wgt>
<wgt id='1685'> +2.9538976e+02 </wgt>
<wgt id='1686'> +2.9474414e+02 </wgt>
<wgt id='1687'> +2.9521362e+02 </wgt>
<wgt id='1688'> +2.9405781e+02 </wgt>
<wgt id='1689'> +2.9538165e+02 </wgt>
<wgt id='1690'> +2.9787909e+02 </wgt>
<wgt id='1691'> +2.9474639e+02 </wgt>
<wgt id='1692'> +2.9324656e+02 </wgt>
<wgt id='1693'> +2.9462338e+02 </wgt>
<wgt id='1694'> +2.9106449e+02 </wgt>
<wgt id='1695'> +2.9590089e+02 </wgt>
<wgt id='1696'> +2.9460946e+02 </wgt>
<wgt id='1697'> +2.9289729e+02 </wgt>
<wgt id='1698'> +2.9340461e+02 </wgt>
<wgt id='1699'> +2.9317135e+02 </wgt>
<wgt id='1700'> +2.9437545e+02 </wgt>
<wgt id='1701'> +2.9347449e+02 </wgt>
<wgt id='1702'> +2.9503697e+02 </wgt>
<wgt id='1703'> +2.9360264e+02 </wgt>
<wgt id='1704'> +2.9464607e+02 </wgt>
<wgt id='1705'> +2.9444922e+02 </wgt>
<wgt id='1706'> +2.9377560e+02 </wgt>
<wgt id='1707'> +2.9444919e+02 </wgt>
<wgt id='1708'> +2.9383291e+02 </wgt>
<wgt id='1709'> +2.9424888e+02 </wgt>
<wgt id='1710'> +2.9489826e+02 </wgt>
<wgt id='1711'> +2.9449530e+02 </wgt>
<wgt id='1712'> +2.9467976e+02 </wgt>
<wgt id='1713'> +2.9381830e+02 </wgt>
<wgt id='1714'> +2.9458939e+02 </wgt>
<wgt id='1715'> +2.9539349e+02 </wgt>
<wgt id='1716'> +2.9443743e+02 </wgt>
<wgt id='1717'> +2.9469787e+02 </wgt>
<wgt id='1718'> +2.9437771e+02 </wgt>
<wgt id='1719'> +2.9466232e+02 </wgt>
<wgt id='1720'> +2.9460479e+02 </wgt>
<wgt id='1721'> +2.9475344e+02 </wgt>
<wgt id='1722'> +2.9475346e+02 </wgt>
<wgt id='1723'> +2.9438284e+02 </wgt>
<wgt id='1724'> +2.9480531e+02 </wgt>
<wgt id='1725'> +2.9485141e+02 </wgt>
<wgt id='1726'> +2.9498420e+02 </wgt>
<wgt id='1727'> +2.9439239e+02 </wgt>
<wgt id='1728'> +2.9438921e+02 </wgt>
<wgt id='1729'> +2.9465726e+02 </wgt>
<wgt id='1730'> +2.9467718e+02 </wgt>
<wgt id='1731'> +2.9444059e+02 </wgt>
<wgt id='1732'> +2.9464224e+02 </wgt>
<wgt id='1733'> +2.9448804e+02 </wgt>
<wgt id='1734'> +2.9456645e+02 </wgt>
<wgt id='1735'> +2.9463664e+02 </wgt>
<wgt id='1736'> +2.9458314e+02 </wgt>
<wgt id='1737'> +2.9458774e+02 </wgt>
<wgt id='1738'> +2.9493254e+02 </wgt>
<wgt id='1739'> +2.9447685e+02 </wgt>
<wgt id='1740'> +2.9431151e+02 </wgt>
<wgt id='1741'> +2.9460174e+02 </wgt>
<wgt id='1742'> +2.9439305e+02 </wgt>
<wgt id='1743'> +2.9465947e+02 </wgt>
<wgt id='1744'> +2.9454197e+02 </wgt>
<wgt id='1745'> +2.9463001e+02 </wgt>
<wgt id='1746'> +2.9456848e+02 </wgt>
<wgt id='1747'> +2.9458621e+02 </wgt>
<wgt id='1748'> +2.9474655e+02 </wgt>
<wgt id='1749'> +2.9472078e+02 </wgt>
<wgt id='1750'> +2.9465122e+02 </wgt>
<wgt id='1751'> +2.9448567e+02 </wgt>
<wgt id='1752'> +2.9449005e+02 </wgt>
<wgt id='1753'> +2.9449440e+02 </wgt>
<wgt id='1754'> +2.9472082e+02 </wgt>
<wgt id='1755'> +2.9460062e+02 </wgt>
<wgt id='1756'> +2.9457111e+02 </wgt>
<wgt id='1757'> +2.9460990e+02 </wgt>
<wgt id='1758'> +2.9465453e+02 </wgt>
<wgt id='1759'> +2.9479296e+02 </wgt>
<wgt id='1760'> +2.9461750e+02 </wgt>
<wgt id='1761'> +2.9469679e+02 </wgt>
<wgt id='1762'> +2.9441644e+02 </wgt>
<wgt id='1763'> +2.9477371e+02 </wgt>
<wgt id='1764'> +2.9470495e+02 </wgt>
<wgt id='1765'> +2.9472122e+02 </wgt>
<wgt id='1766'> +2.9477463e+02 </wgt>
<wgt id='1767'> +2.9459441e+02 </wgt>
<wgt id='1768'> +2.9455333e+02 </wgt>
<wgt id='1769'> +2.9463129e+02 </wgt>
<wgt id='1770'> +2.9460639e+02 </wgt>
<wgt id='1771'> +2.9460155e+02 </wgt>
<wgt id='1772'> +2.9462696e+02 </wgt>
<wgt id='1773'> +2.9450754e+02 </wgt>
<wgt id='1774'> +2.9467850e+02 </wgt>
<wgt id='1775'> +2.9467771e+02 </wgt>
<wgt id='1776'> +2.9455094e+02 </wgt>
<wgt id='1777'> +2.9466680e+02 </wgt>
<wgt id='1778'> +2.9470485e+02 </wgt>
<wgt id='1779'> +2.9467191e+02 </wgt>
<wgt id='1780'> +2.9462842e+02 </wgt>
<wgt id='1781'> +2.8652175e+02 </wgt>
<wgt id='1782'> +3.0254959e+02 </wgt>
<wgt id='1783'> +2.8576069e+02 </wgt>
<wgt id='1784'> +2.8582858e+02 </wgt>
<wgt id='1785'> +2.8590193e+02 </wgt>
<wgt id='1786'> +2.8529740e+02 </wgt>
<wgt id='1787'> +2.8579130e+02 </wgt>
<wgt id='1788'> +2.8529165e+02 </wgt>
<wgt id='1789'> +2.8668252e+02 </wgt>
<wgt id='1790'> +2.8749262e+02 </wgt>
<wgt id='1791'> +2.8652811e+02 </wgt>
<wgt id='1792'> +2.8539422e+02 </wgt>
<wgt id='1793'> +2.8473776e+02 </wgt>
<wgt id='1794'> +2.8778842e+02 </wgt>
<wgt id='1795'> +2.8506215e+02 </wgt>
<wgt id='1796'> +2.8334641e+02 </wgt>
<wgt id='1797'> +2.8532043e+02 </wgt>
<wgt id='1798'> +2.8577272e+02 </wgt>
<wgt id='1799'> +2.8861767e+02 </wgt>
<wgt id='1800'> +2.8405236e+02 </wgt>
<wgt id='1801'> +2.8522379e+02 </wgt>
<wgt id='1802'> +2.8569817e+02 </wgt>
<wgt id='1803'> +2.8775211e+02 </wgt>
<wgt id='1804'> +2.8621190e+02 </wgt>
<wgt id='1805'> +2.8636813e+02 </wgt>
<wgt id='1806'> +2.8434586e+02 </wgt>
<wgt id='1807'> +2.8498998e+02 </wgt>
<wgt id='1808'> +2.8600553e+02 </wgt>
<wgt id='1809'> +2.8569179e+02 </wgt>
<wgt id='1810'> +2.8571216e+02 </wgt>
<wgt id='1811'> +2.8610484e+02 </wgt>
<wgt id='1812'> +2.8612222e+02 </wgt>
<wgt id='1813'> +2.8626048e+02 </wgt>
<wgt id='1814'> +2.8555568e+02 </wgt>
<wgt id='1815'> +2.8591473e+02 </wgt>
<wgt id='1816'> +2.8609890e+02 </wgt>
<wgt id='1817'> +2.8580147e+02 </wgt>
<wgt id='1818'> +2.8623704e+02 </wgt>
<wgt id='1819'> +2.8585358e+02 </wgt>
<wgt id='1820'> +2.8602439e+02 </wgt>
<wgt id='1821'> +2.8586402e+02 </wgt>
<wgt id='1822'> +2.8579821e+02 </wgt>
<wgt id='1823'> +2.8547290e+02 </wgt>
<wgt id='1824'> +2.8567413e+02 </wgt>
<wgt id='1825'> +2.8573061e+02 </wgt>
<wgt id='1826'> +2.8545570e+02 </wgt>
<wgt id='1827'> +2.8580187e+02 </wgt>
<wgt id='1828'> +2.8574225e+02 </wgt>
<wgt id='1829'> +2.8539689e+02 </wgt>
<wgt id='1830'> +2.8574397e+02 </wgt>
<wgt id='1831'> +2.8585590e+02 </wgt>
<wgt id='1832'> +2.8561264e+02 </wgt>
<wgt id='1833'> +2.8577714e+02 </wgt>
<wgt id='1834'> +2.8591416e+02 </wgt>
<wgt id='1835'> +2.8590921e+02 </wgt>
<wgt id='1836'> +2.8580425e+02 </wgt>
<wgt id='1837'> +2.8564619e+02 </wgt>
<wgt id='1838'> +2.8563704e+02 </wgt>
<wgt id='1839'> +2.8597391e+02 </wgt>
<wgt id='1840'> +2.8575053e+02 </wgt>
<wgt id='1841'> +2.8553326e+02 </wgt>
<wgt id='1842'> +2.8563568e+02 </wgt>
<wgt id='1843'> +2.8566140e+02 </wgt>
<wgt id='1844'> +2.8577735e+02 </wgt>
<wgt id='1845'> +2.8580409e+02 </wgt>
<wgt id='1846'> +2.8586821e+02 </wgt>
<wgt id='1847'> +2.8571786e+02 </wgt>
<wgt id='1848'> +2.8574157e+02 </wgt>
<wgt id='1849'> +2.8577206e+02 </wgt>
<wgt id='1850'> +2.8585738e+02 </wgt>
<wgt id='1851'> +2.8579405e+02 </wgt>
<wgt id='1852'> +2.8595533e+02 </wgt>
<wgt id='1853'> +2.8571435e+02 </wgt>
<wgt id='1854'> +2.8592627e+02 </wgt>
<wgt id='1855'> +2.8595394e+02 </wgt>
<wgt id='1856'> +2.8569386e+02 </wgt>
<wgt id='1857'> +2.8579445e+02 </wgt>
<wgt id='1858'> +2.8572638e+02 </wgt>
<wgt id='1859'> +2.8574227e+02 </wgt>
<wgt id='1860'> +2.8582446e+02 </wgt>
<wgt id='1861'> +2.8579375e+02 </wgt>
<wgt id='1862'> +2.8573480e+02 </wgt>
<wgt id='1863'> +2.8596315e+02 </wgt>
<wgt id='1864'> +2.8574640e+02 </wgt>
<wgt id='1865'> +2.8583148e+02 </wgt>
<wgt id='1866'> +2.8567818e+02 </wgt>
<wgt id='1867'> +2.8568045e+02 </wgt>
<wgt id='1868'> +2.8567395e+02 </wgt>
<wgt id='1869'> +2.8579555e+02 </wgt>
<wgt id='1870'> +2.8557190e+02 </wgt>
<wgt id='1871'> +2.8568588e+02 </wgt>
<wgt id='1872'> +2.8569270e+02 </wgt>
<wgt id='1873'> +2.8580600e+02 </wgt>
<wgt id='1874'> +2.8573727e+02 </wgt>
<wgt id='1875'> +2.8575743e+02 </wgt>
<wgt id='1876'> +2.8570197e+02 </wgt>
<wgt id='1877'> +2.8573963e+02 </wgt>
<wgt id='1878'> +2.8579147e+02 </wgt>
<wgt id='1879'> +2.8570037e+02 </wgt>
<wgt id='1880'> +2.8577510e+02 </wgt>
<wgt id='1881'> +2.8576388e+02 </wgt>
<wgt id='1882'> +2.8569399e+02 </wgt>
<wgt id='1883'> +2.8575897e+02 </wgt>
<wgt id='1884'> +2.7893307e+02 </wgt>
<wgt id='1885'> +2.9319656e+02 </wgt>
<wgt id='1886'> +2.9156666e+02 </wgt>
<wgt id='1887'> +2.9255910e+02 </wgt>
<wgt id='1888'> +2.8944569e+02 </wgt>
<wgt id='1889'> +2.9135792e+02 </wgt>
<wgt id='1890'> +2.8911754e+02 </wgt>
<wgt id='1891'> +2.9421382e+02 </wgt>
<wgt id='1892'> +2.9065942e+02 </wgt>
<wgt id='1893'> +2.9141904e+02 </wgt>
<wgt id='1894'> +2.9240179e+02 </wgt>
<wgt id='1895'> +2.9121900e+02 </wgt>
<wgt id='1896'> +2.9219722e+02 </wgt>
<wgt id='1897'> +2.9138757e+02 </wgt>
<wgt id='1898'> +2.9108826e+02 </wgt>
<wgt id='1899'> +2.9164921e+02 </wgt>
<wgt id='1900'> +2.9126172e+02 </wgt>
<wgt id='1901'> +2.9179013e+02 </wgt>
<wgt id='1902'> +2.9082442e+02 </wgt>
<wgt id='1903'> +2.8968387e+02 </wgt>
<wgt id='1904'> +2.9211375e+02 </wgt>
<wgt id='1905'> +2.9159444e+02 </wgt>
<wgt id='1906'> +2.9082132e+02 </wgt>
<wgt id='1907'> +2.9125713e+02 </wgt>
<wgt id='1908'> +2.9104039e+02 </wgt>
<wgt id='1909'> +2.9165413e+02 </wgt>
<wgt id='1910'> +2.9108159e+02 </wgt>
<wgt id='1911'> +2.9136392e+02 </wgt>
<wgt id='1912'> +2.9280611e+02 </wgt>
<wgt id='1913'> +2.9245625e+02 </wgt>
<wgt id='1914'> +2.9525947e+02 </wgt>
<wgt id='1915'> +2.9174373e+02 </wgt>
<wgt id='1916'> +2.9142618e+02 </wgt>
<wgt id='1917'> +2.8652175e+02 </wgt>
<wgt id='1918'> +3.0254959e+02 </wgt>
<wgt id='1919'> +2.8278385e+02 </wgt>
<wgt id='1920'> +2.7939065e+02 </wgt>
<wgt id='1921'> +2.8321354e+02 </wgt>
<wgt id='1922'> +2.8246322e+02 </wgt>
<wgt id='1923'> +2.8324881e+02 </wgt>
<wgt id='1924'> +2.8096620e+02 </wgt>
<wgt id='1925'> +2.8289538e+02 </wgt>
<wgt id='1926'> +2.8224651e+02 </wgt>
<wgt id='1927'> +2.8202235e+02 </wgt>
<wgt id='1928'> +2.8211951e+02 </wgt>
<wgt id='1929'> +2.8583725e+02 </wgt>
<wgt id='1930'> +2.8225800e+02 </wgt>
<wgt id='1931'> +2.8282613e+02 </wgt>
<wgt id='1932'> +2.8307693e+02 </wgt>
<wgt id='1933'> +2.8244885e+02 </wgt>
<wgt id='1934'> +2.8275859e+02 </wgt>
<wgt id='1935'> +2.8260012e+02 </wgt>
<wgt id='1936'> +2.8378792e+02 </wgt>
<wgt id='1937'> +2.8256297e+02 </wgt>
<wgt id='1938'> +2.8265823e+02 </wgt>
<wgt id='1939'> +2.8333599e+02 </wgt>
<wgt id='1940'> +2.8297928e+02 </wgt>
<wgt id='1941'> +2.8498694e+02 </wgt>
<wgt id='1942'> +2.8286908e+02 </wgt>
<wgt id='1943'> +2.8330706e+02 </wgt>
<wgt id='1944'> +2.8292766e+02 </wgt>
<wgt id='1945'> +2.8281665e+02 </wgt>
<wgt id='1946'> +2.8272644e+02 </wgt>
<wgt id='1947'> +2.8314551e+02 </wgt>
<wgt id='1948'> +2.8366893e+02 </wgt>
<wgt id='1949'> +2.8265873e+02 </wgt>
<wgt id='1950'> +2.7893307e+02 </wgt>
<wgt id='1951'> +2.9319656e+02 </wgt>
<wgt id='1952'> +2.9790940e+02 </wgt>
<wgt id='1953'> +2.9751006e+02 </wgt>
<wgt id='1954'> +2.9830769e+02 </wgt>
<wgt id='1955'> +2.9875590e+02 </wgt>
<wgt id='1956'> +2.9706461e+02 </wgt>
<wgt id='1957'> +2.9825057e+02 </wgt>
<wgt id='1958'> +2.9756973e+02 </wgt>
<wgt id='1959'> +2.9859350e+02 </wgt>
<wgt id='1960'> +2.9724229e+02 </wgt>
<wgt id='1961'> +2.9812028e+02 </wgt>
<wgt id='1962'> +2.9771184e+02 </wgt>
<wgt id='1963'> +2.9637210e+02 </wgt>
<wgt id='1964'> +2.9939246e+02 </wgt>
<wgt id='1965'> +2.9703698e+02 </wgt>
<wgt id='1966'> +2.9878243e+02 </wgt>
<wgt id='1967'> +2.9840428e+02 </wgt>
<wgt id='1968'> +2.9766255e+02 </wgt>
<wgt id='1969'> +2.9891170e+02 </wgt>
<wgt id='1970'> +2.9675316e+02 </wgt>
<wgt id='1971'> +2.9787549e+02 </wgt>
<wgt id='1972'> +2.9797577e+02 </wgt>
<wgt id='1973'> +2.9881302e+02 </wgt>
<wgt id='1974'> +2.9669913e+02 </wgt>
<wgt id='1975'> +2.9560299e+02 </wgt>
<wgt id='1976'> +2.9886083e+02 </wgt>
<wgt id='1977'> +2.9733538e+02 </wgt>
<wgt id='1978'> +2.9888884e+02 </wgt>
<wgt id='1979'> +2.9996536e+02 </wgt>
<wgt id='1980'> +2.9620419e+02 </wgt>
<wgt id='1981'> +2.9790940e+02 </wgt>
<wgt id='1982'> +2.9810857e+02 </wgt>
<wgt id='1983'> +2.9738910e+02 </wgt>
<wgt id='1984'> +2.9803728e+02 </wgt>
<wgt id='1985'> +2.9757693e+02 </wgt>
<wgt id='1986'> +2.9930930e+02 </wgt>
<wgt id='1987'> +2.9800424e+02 </wgt>
<wgt id='1988'> +2.9722059e+02 </wgt>
<wgt id='1989'> +2.9868433e+02 </wgt>
<wgt id='1990'> +2.9782661e+02 </wgt>
<wgt id='1991'> +2.9816361e+02 </wgt>
<wgt id='1992'> +2.9698009e+02 </wgt>
<wgt id='1993'> +2.9867178e+02 </wgt>
<wgt id='1994'> +2.9639477e+02 </wgt>
<wgt id='1995'> +2.8893301e+02 </wgt>
<wgt id='1996'> +2.8871598e+02 </wgt>
<wgt id='1997'> +2.8910978e+02 </wgt>
<wgt id='1998'> +2.8951226e+02 </wgt>
<wgt id='1999'> +2.8831461e+02 </wgt>
<wgt id='2000'> +2.8956881e+02 </wgt>
<wgt id='2001'> +2.8825953e+02 </wgt>
<wgt id='2002'> +2.8999492e+02 </wgt>
<wgt id='2003'> +2.8784558e+02 </wgt>
<wgt id='2004'> +2.8839891e+02 </wgt>
<wgt id='2005'> +2.8942490e+02 </wgt>
<wgt id='2006'> +2.8980673e+02 </wgt>
<wgt id='2007'> +2.8802546e+02 </wgt>
<wgt id='2008'> +2.8829839e+02 </wgt>
<wgt id='2009'> +2.8954174e+02 </wgt>
<wgt id='2010'> +2.8905340e+02 </wgt>
<wgt id='2011'> +2.8911918e+02 </wgt>
<wgt id='2012'> +2.8882568e+02 </wgt>
<wgt id='2013'> +2.8895418e+02 </wgt>
<wgt id='2014'> +2.8867300e+02 </wgt>
<wgt id='2015'> +2.8914096e+02 </wgt>
<wgt id='2016'> +2.8792705e+02 </wgt>
<wgt id='2017'> +2.8949505e+02 </wgt>
<wgt id='2018'> +2.8784248e+02 </wgt>
<wgt id='2019'> +2.8992541e+02 </wgt>
<wgt id='2020'> +2.8641756e+02 </wgt>
<wgt id='2021'> +2.9065795e+02 </wgt>
<wgt id='2022'> +2.8815610e+02 </wgt>
<wgt id='2023'> +2.9003040e+02 </wgt>
<wgt id='2024'> +2.8895446e+02 </wgt>
<wgt id='2025'> +2.8908030e+02 </wgt>
<wgt id='2026'> +2.8786820e+02 </wgt>
<wgt id='2027'> +2.8890888e+02 </wgt>
<wgt id='2028'> +2.8887256e+02 </wgt>
<wgt id='2029'> +2.8594859e+02 </wgt>
<wgt id='2030'> +2.8896412e+02 </wgt>
<wgt id='2031'> +2.8818607e+02 </wgt>
<wgt id='2032'> +2.9035813e+02 </wgt>
<wgt id='2033'> +2.8792818e+02 </wgt>
<wgt id='2034'> +2.8568894e+02 </wgt>
<wgt id='2035'> +2.8776614e+02 </wgt>
<wgt id='2036'> +2.9173580e+02 </wgt>
<wgt id='2037'> +2.8928337e+02 </wgt>
<wgt id='2038'> +2.8398025e+02 </wgt>
<wgt id='2039'> +2.8393682e+02 </wgt>
<wgt id='2040'> +2.8389322e+02 </wgt>
<wgt id='2041'> +2.8385064e+02 </wgt>
<wgt id='2042'> +2.8381547e+02 </wgt>
<wgt id='2043'> +2.8376960e+02 </wgt>
<wgt id='2044'> +2.8373005e+02 </wgt>
<wgt id='2045'> +2.8369046e+02 </wgt>
<wgt id='2046'> +2.8364513e+02 </wgt>
<wgt id='2047'> +2.8360999e+02 </wgt>
<wgt id='2048'> +2.8356713e+02 </wgt>
<wgt id='2049'> +2.8353011e+02 </wgt>
<wgt id='2050'> +2.8348118e+02 </wgt>
<wgt id='2051'> +2.8344094e+02 </wgt>
<wgt id='2052'> +2.8340660e+02 </wgt>
<wgt id='2053'> +2.8336107e+02 </wgt>
<wgt id='2054'> +2.8331695e+02 </wgt>
<wgt id='2055'> +2.8328137e+02 </wgt>
<wgt id='2056'> +2.8323542e+02 </wgt>
<wgt id='2057'> +2.8319730e+02 </wgt>
<wgt id='2058'> +2.8316047e+02 </wgt>
<wgt id='2059'> +2.8311702e+02 </wgt>
<wgt id='2060'> +2.8307163e+02 </wgt>
<wgt id='2061'> +2.8303159e+02 </wgt>
<wgt id='2062'> +2.8299705e+02 </wgt>
<wgt id='2063'> +2.8294733e+02 </wgt>
<wgt id='2064'> +2.8291175e+02 </wgt>
<wgt id='2065'> +2.8287217e+02 </wgt>
<wgt id='2066'> +2.8283340e+02 </wgt>
<wgt id='2067'> +2.8279148e+02 </wgt>
<wgt id='2068'> +2.8274802e+02 </wgt>
<wgt id='2069'> +2.7637860e+02 </wgt>
<wgt id='2070'> +2.7637851e+02 </wgt>
<wgt id='2071'> +2.7648000e+02 </wgt>
<wgt id='2072'> +2.7596104e+02 </wgt>
<wgt id='2073'> +2.7644136e+02 </wgt>
<wgt id='2074'> +2.7589871e+02 </wgt>
<wgt id='2075'> +2.7735904e+02 </wgt>
<wgt id='2076'> +2.7812103e+02 </wgt>
<wgt id='2077'> +2.7713464e+02 </wgt>
<wgt id='2078'> +2.7602406e+02 </wgt>
<wgt id='2079'> +2.7534364e+02 </wgt>
<wgt id='2080'> +2.7830702e+02 </wgt>
<wgt id='2081'> +2.7585899e+02 </wgt>
<wgt id='2082'> +2.7416003e+02 </wgt>
<wgt id='2083'> +2.7615143e+02 </wgt>
<wgt id='2084'> +2.7634076e+02 </wgt>
<wgt id='2085'> +2.7921851e+02 </wgt>
<wgt id='2086'> +2.7453355e+02 </wgt>
<wgt id='2087'> +2.7584285e+02 </wgt>
<wgt id='2088'> +2.7638749e+02 </wgt>
<wgt id='2089'> +2.7838405e+02 </wgt>
<wgt id='2090'> +2.7694289e+02 </wgt>
<wgt id='2091'> +2.7699872e+02 </wgt>
<wgt id='2092'> +2.7491534e+02 </wgt>
<wgt id='2093'> +2.7557560e+02 </wgt>
<wgt id='2094'> +2.7656758e+02 </wgt>
<wgt id='2095'> +2.7628954e+02 </wgt>
<wgt id='2096'> +2.7641843e+02 </wgt>
<wgt id='2097'> +2.7672892e+02 </wgt>
<wgt id='2098'> +2.7671349e+02 </wgt>
<wgt id='2099'> +2.7693272e+02 </wgt>
<wgt id='2100'> +2.7619624e+02 </wgt>
<wgt id='2101'> +2.7649197e+02 </wgt>
<wgt id='2102'> +2.7669421e+02 </wgt>
<wgt id='2103'> +2.7643487e+02 </wgt>
<wgt id='2104'> +2.7683847e+02 </wgt>
<wgt id='2105'> +2.7647757e+02 </wgt>
<wgt id='2106'> +2.7663921e+02 </wgt>
<wgt id='2107'> +2.7648104e+02 </wgt>
<wgt id='2108'> +2.7640063e+02 </wgt>
<wgt id='2109'> +2.7609747e+02 </wgt>
<wgt id='2110'> +2.7629043e+02 </wgt>
<wgt id='2111'> +2.7634465e+02 </wgt>
<wgt id='2112'> +2.7608824e+02 </wgt>
<wgt id='2113'> +2.7640800e+02 </wgt>
<wgt id='2114'> +2.7635649e+02 </wgt>
<wgt id='2115'> +2.7602868e+02 </wgt>
<wgt id='2116'> +2.7636372e+02 </wgt>
<wgt id='2117'> +2.7647771e+02 </wgt>
<wgt id='2118'> +2.7622956e+02 </wgt>
<wgt id='2119'> +2.7639272e+02 </wgt>
<wgt id='2120'> +2.7652731e+02 </wgt>
<wgt id='2121'> +2.7652782e+02 </wgt>
<wgt id='2122'> +2.7642005e+02 </wgt>
<wgt id='2123'> +2.7626929e+02 </wgt>
<wgt id='2124'> +2.7625178e+02 </wgt>
<wgt id='2125'> +2.7657396e+02 </wgt>
<wgt id='2126'> +2.7637133e+02 </wgt>
<wgt id='2127'> +2.7616238e+02 </wgt>
<wgt id='2128'> +2.7625854e+02 </wgt>
<wgt id='2129'> +2.7628030e+02 </wgt>
<wgt id='2130'> +2.7639613e+02 </wgt>
<wgt id='2131'> +2.7641707e+02 </wgt>
<wgt id='2132'> +2.7647755e+02 </wgt>
<wgt id='2133'> +2.7634309e+02 </wgt>
<wgt id='2134'> +2.7635661e+02 </wgt>
<wgt id='2135'> +2.7638495e+02 </wgt>
<wgt id='2136'> +2.7647093e+02 </wgt>
<wgt id='2137'> +2.7640729e+02 </wgt>
<wgt id='2138'> +2.7656590e+02 </wgt>
<wgt id='2139'> +2.7633133e+02 </wgt>
<wgt id='2140'> +2.7654611e+02 </wgt>
<wgt id='2141'> +2.7656732e+02 </wgt>
<wgt id='2142'> +2.7630959e+02 </wgt>
<wgt id='2143'> +2.7641110e+02 </wgt>
<wgt id='2144'> +2.7634176e+02 </wgt>
<wgt id='2145'> +2.7636893e+02 </wgt>
<wgt id='2146'> +2.7644499e+02 </wgt>
<wgt id='2147'> +2.7641318e+02 </wgt>
<wgt id='2148'> +2.7635534e+02 </wgt>
<wgt id='2149'> +2.7657636e+02 </wgt>
<wgt id='2150'> +2.7636901e+02 </wgt>
<wgt id='2151'> +2.7645118e+02 </wgt>
<wgt id='2152'> +2.7629671e+02 </wgt>
<wgt id='2153'> +2.7630010e+02 </wgt>
<wgt id='2154'> +2.7629758e+02 </wgt>
<wgt id='2155'> +2.7641682e+02 </wgt>
<wgt id='2156'> +2.7618656e+02 </wgt>
<wgt id='2157'> +2.7630214e+02 </wgt>
<wgt id='2158'> +2.7631011e+02 </wgt>
<wgt id='2159'> +2.7642196e+02 </wgt>
<wgt id='2160'> +2.7635150e+02 </wgt>
<wgt id='2161'> +2.7637396e+02 </wgt>
<wgt id='2162'> +2.7631884e+02 </wgt>
<wgt id='2163'> +2.7635162e+02 </wgt>
<wgt id='2164'> +2.7640887e+02 </wgt>
<wgt id='2165'> +2.7632235e+02 </wgt>
<wgt id='2166'> +2.7639153e+02 </wgt>
<wgt id='2167'> +2.7638302e+02 </wgt>
<wgt id='2168'> +2.7631882e+02 </wgt>
<wgt id='2169'> +2.7637733e+02 </wgt>
<wgt id='2170'> +2.7637510e+02 </wgt>
<wgt id='2171'> +2.7635557e+02 </wgt>
<wgt id='2172'> +2.7638228e+02 </wgt>
<wgt id='2173'> +2.7638288e+02 </wgt>
<wgt id='2174'> +2.7638925e+02 </wgt>
<wgt id='2175'> +2.7638018e+02 </wgt>
<wgt id='2176'> +2.7636326e+02 </wgt>
<wgt id='2177'> +2.9776416e+02 </wgt>
<wgt id='2178'> +2.8482662e+02 </wgt>
<wgt id='2179'> +2.9495956e+02 </wgt>
<wgt id='2180'> +3.0316727e+02 </wgt>
<wgt id='2181'> +2.9249848e+02 </wgt>
<wgt id='2182'> +2.8314248e+02 </wgt>
<wgt id='2183'> +3.0719724e+02 </wgt>
<wgt id='2184'> +2.9560657e+02 </wgt>
<wgt id='2185'> +2.9751346e+02 </wgt>
<wgt id='2186'> +3.0355074e+02 </wgt>
<wgt id='2187'> +2.9372356e+02 </wgt>
<wgt id='2188'> +2.8754420e+02 </wgt>
<wgt id='2189'> +3.0291164e+02 </wgt>
<wgt id='2190'> +3.0036397e+02 </wgt>
<wgt id='2191'> +2.9819547e+02 </wgt>
<wgt id='2192'> +3.0465105e+02 </wgt>
<wgt id='2193'> +2.9799790e+02 </wgt>
<wgt id='2194'> +2.9782733e+02 </wgt>
<wgt id='2195'> +2.9613361e+02 </wgt>
<wgt id='2196'> +3.0227141e+02 </wgt>
<wgt id='2197'> +3.0657913e+02 </wgt>
<wgt id='2198'> +3.0531974e+02 </wgt>
<wgt id='2199'> +2.9500420e+02 </wgt>
<wgt id='2200'> +3.1687075e+02 </wgt>
<wgt id='2201'> +3.0105434e+02 </wgt>
<wgt id='2202'> +2.9589902e+02 </wgt>
<wgt id='2203'> +2.9880064e+02 </wgt>
<wgt id='2204'> +2.9227974e+02 </wgt>
<wgt id='2205'> +2.9687927e+02 </wgt>
<wgt id='2206'> +3.0228118e+02 </wgt>
<wgt id='2207'> +3.0663326e+02 </wgt>
<wgt id='2208'> +2.9813752e+02 </wgt>
<wgt id='2209'> +2.9197824e+02 </wgt>
<wgt id='2210'> +2.9086537e+02 </wgt>
<wgt id='2211'> +3.0185196e+02 </wgt>
<wgt id='2212'> +3.0249955e+02 </wgt>
<wgt id='2213'> +2.9417573e+02 </wgt>
<wgt id='2214'> +3.0357484e+02 </wgt>
<wgt id='2215'> +2.9332217e+02 </wgt>
<wgt id='2216'> +2.9342481e+02 </wgt>
<wgt id='2217'> +2.9566259e+02 </wgt>
<wgt id='2218'> +2.9894585e+02 </wgt>
<wgt id='2219'> +2.9649295e+02 </wgt>
<wgt id='2220'> +2.9762713e+02 </wgt>
<wgt id='2221'> +3.0004883e+02 </wgt>
<wgt id='2222'> +2.9798467e+02 </wgt>
<wgt id='2223'> +3.0343027e+02 </wgt>
<wgt id='2224'> +2.9416788e+02 </wgt>
<wgt id='2225'> +2.9682210e+02 </wgt>
<wgt id='2226'> +2.9267202e+02 </wgt>
<wgt id='2227'> +2.9457902e+02 </wgt>
<wgt id='2228'> +2.9750775e+02 </wgt>
<wgt id='2229'> +2.9279840e+02 </wgt>
<wgt id='2230'> +3.0294993e+02 </wgt>
<wgt id='2231'> +2.9849606e+02 </wgt>
<wgt id='2232'> +2.9243894e+02 </wgt>
<wgt id='2233'> +2.9667986e+02 </wgt>
<wgt id='2234'> +2.9790224e+02 </wgt>
<wgt id='2235'> +2.9497974e+02 </wgt>
<wgt id='2236'> +3.0589771e+02 </wgt>
<wgt id='2237'> +2.9573738e+02 </wgt>
<wgt id='2238'> +2.9468764e+02 </wgt>
<wgt id='2239'> +3.0108698e+02 </wgt>
<wgt id='2240'> +2.9593139e+02 </wgt>
<wgt id='2241'> +2.9297010e+02 </wgt>
<wgt id='2242'> +2.9725177e+02 </wgt>
<wgt id='2243'> +2.9837416e+02 </wgt>
<wgt id='2244'> +3.1826515e+02 </wgt>
<wgt id='2245'> +2.9689061e+02 </wgt>
<wgt id='2246'> +2.8752780e+02 </wgt>
<wgt id='2247'> +2.9276304e+02 </wgt>
<wgt id='2248'> +2.9287950e+02 </wgt>
<wgt id='2249'> +3.0312094e+02 </wgt>
<wgt id='2250'> +2.8144360e+02 </wgt>
<wgt id='2251'> +3.0613469e+02 </wgt>
<wgt id='2252'> +2.9355986e+02 </wgt>
<wgt id='2253'> +2.9751976e+02 </wgt>
<wgt id='2254'> +2.9949923e+02 </wgt>
<wgt id='2255'> +3.0290345e+02 </wgt>
<wgt id='2256'> +2.9271110e+02 </wgt>
<wgt id='2257'> +2.9597708e+02 </wgt>
<wgt id='2258'> +3.0011375e+02 </wgt>
<wgt id='2259'> +2.8982547e+02 </wgt>
<wgt id='2260'> +3.0768374e+02 </wgt>
<wgt id='2261'> +2.9440512e+02 </wgt>
<wgt id='2262'> +2.9439236e+02 </wgt>
<wgt id='2263'> +2.9508187e+02 </wgt>
<wgt id='2264'> +2.9960143e+02 </wgt>
<wgt id='2265'> +2.9486778e+02 </wgt>
<wgt id='2266'> +3.0886131e+02 </wgt>
<wgt id='2267'> +2.9607907e+02 </wgt>
<wgt id='2268'> +2.9550040e+02 </wgt>
<wgt id='2269'> +2.9336449e+02 </wgt>
<wgt id='2270'> +2.9710868e+02 </wgt>
<wgt id='2271'> +3.0380391e+02 </wgt>
<wgt id='2272'> +2.9418599e+02 </wgt>
<wgt id='2273'> +2.9973738e+02 </wgt>
<wgt id='2274'> +2.9474190e+02 </wgt>
<wgt id='2275'> +2.9858395e+02 </wgt>
<wgt id='2276'> +2.9836193e+02 </wgt>
<wgt id='2277'> +3.0285614e+02 </wgt>
<wgt id='2278'> +2.9182657e+02 </wgt>
<wgt id='2279'> +3.0215881e+02 </wgt>
<wgt id='2280'> +2.9030194e+02 </wgt>
<wgt id='2281'> +3.3871346e+02 </wgt>
<wgt id='2282'> +4.4015909e+02 </wgt>
<wgt id='2283'> +3.7417247e+02 </wgt>
<wgt id='2284'> +4.5486777e+02 </wgt>
</rwgt>
</event>
<event npLO=" -1 " npNLO=" 0 ">
 3      0 +2.8781417e+02 5.00000000e+01 7.54677110e-03 1.15864650e-01
       21 -1    0    0  502  501 +0.0000000000e+00 +0.0000000000e+00 +1.2753896000e+01 1.2753896000e+01 0.0000000000e+00 0.0000e+00 9.0000e+00
       21 -1    0    0  501  502 +0.0000000000e+00 +0.0000000000e+00 -1.9601854000e+02 1.9601854000e+02 0.0000000000e+00 0.0000e+00 9.0000e+00
       25  1    1    2    0    0 +0.0000000000e+00 +0.0000000000e+00 -1.8326464000e+02 2.0877243000e+02 1.0000000000e+02 0.0000e+00 9.0000e+00
#aMCatNLO 1  0  0  2  1 0.52419031E+02 0.00000000E+00 -9  4  0 0.00000000E+00 0.00000000E+00 0.00000000E+00 0.00000000E+00 0.00000000E+00
<rwgt>
<wgt id='1001'> +2.8781417e+02 </wgt>
<wgt id='1002'> +2.6414217e+02 </wgt>
<wgt id='1003'> +3.0681150e+02 </wgt>
<wgt id='1004'> +3.0960005e+02 </wgt>
<wgt id='1005'> +2.8345544e+02 </wgt>
<wgt id='1006'> +3.3130541e+02 </wgt>
<wgt id='1007'> +2.6069148e+02 </wgt>
<wgt id='1008'> +2.3983848e+02 </wgt>
<wgt id='1009'> +2.7680119e+02 </wgt>
<wgt id='1010'> +2.8781417e+02 </wgt>
<wgt id='1011'> +2.8857743e+02 </wgt>
<wgt id='1012'> +2.8711017e+02 </wgt>
<wgt id='1013'> +2.8812115e+02 </wgt>
<wgt id='1014'> +2.8831630e+02 </wgt>
<wgt id='1015'> +2.8859775e+02 </wgt>
<wgt id='1016'> +2.8802492e+02 </wgt>
<wgt id='1017'> +2.8855489e+02 </wgt>
<wgt id='1018'> +2.8874064e+02 </wgt>
<wgt id='1019'> +2.8764745e+02 </wgt>
<wgt id='1020'> +2.8821704e+02 </wgt>
<wgt id='1021'> +2.8713109e+02 </wgt>
<wgt id='1022'> +2.8806929e+02 </wgt>
<wgt id='1023'> +2.8754421e+02 </wgt>
<wgt id='1024'> +2.8754856e+02 </wgt>
<wgt id='1025'> +2.8811764e+02 </wgt>
<wgt id='1026'> +2.8704686e+02 </wgt>
<wgt id='1027'> +2.8687635e+02 </wgt>
<wgt id='1028'> +2.8857912e+02 </wgt>
<wgt id='1029'> +2.8924561e+02 </wgt>
<wgt id='1030'> +2.8718291e+02 </wgt>
<wgt id='1031'> +2.8855605e+02 </wgt>
<wgt id='1032'> +2.8711881e+02 </wgt>
<wgt id='1033'> +2.8784234e+02 </wgt>
<wgt id='1034'> +2.8798205e+02 </wgt>
<wgt id='1035'> +2.8776093e+02 </wgt>
<wgt id='1036'> +2.8749704e+02 </wgt>
<wgt id='1037'> +2.8731680e+02 </wgt>
<wgt id='1038'> +2.8811980e+02 </wgt>
<wgt id='1039'> +2.8727549e+02 </wgt>
<wgt id='1040'> +2.8767948e+02 </wgt>
<wgt id='1041'> +2.8723824e+02 </wgt>
<wgt id='1042'> +2.8795836e+02 </wgt>
<wgt id='1043'> +2.8743430e+02 </wgt>
<wgt id='1044'> +2.8756775e+02 </wgt>
<wgt id='1045'> +2.8781390e+02 </wgt>
<wgt id='1046'> +2.8812486e+02 </wgt>
<wgt id='1047'> +2.8781446e+02 </wgt>
<wgt id='1048'> +2.8786367e+02 </wgt>
<wgt id='1049'> +2.8781203e+02 </wgt>
<wgt id='1050'> +2.8776314e+02 </wgt>
<wgt id='1051'> +2.8794527e+02 </wgt>
<wgt id='1052'> +2.8793255e+02 </wgt>
<wgt id='1053'> +2.8762487e+02 </wgt>
<wgt id='1054'> +2.8789217e+02 </wgt>
<wgt id='1055'> +2.8785123e+02 </wgt>
<wgt id='1056'> +2.8791480e+02 </wgt>
<wgt id='1057'> +2.8776339e+02 </wgt>
<wgt id='1058'> +2.8774312e+02 </wgt>
<wgt id='1059'> +2.8770651e+02 </wgt>
<wgt id='1060'> +2.8778769e+02 </wgt>
<wgt id='1061'> +2.8779995e+02 </wgt>
<wgt id='1062'> +2.8789910e+02 </wgt>
<wgt id='1063'> +2.8776843e+02 </wgt>
<wgt id='1064'> +2.8781155e+02 </wgt>
<wgt id='1065'> +2.8792064e+02 </wgt>
<wgt id='1066'> +2.8777258e+02 </wgt>
<wgt id='1067'> +2.8789944e+02 </wgt>
<wgt id='1068'> +2.8778937e+02 </wgt>
<wgt id='1069'> +2.8787543e+02 </wgt>
<wgt id='1070'> +2.8780367e+02 </wgt>
<wgt id='1071'> +2.8779812e+02 </wgt>
<wgt id='1072'> +2.8796692e+02 </wgt>
<wgt id='1073'> +2.8785622e+02 </wgt>
<wgt id='1074'> +2.8789420e+02 </wgt>
<wgt id='1075'> +2.8795784e+02 </wgt>
<wgt id='1076'> +2.8789575e+02 </wgt>
<wgt id='1077'> +2.8788528e+02 </wgt>
<wgt id='1078'> +2.8783981e+02 </wgt>
<wgt id='1079'> +2.8783289e+02 </wgt>
<wgt id='1080'> +2.8783351e+02 </wgt>
<wgt id='1081'> +2.8786680e+02 </wgt>
<wgt id='1082'> +2.8783073e+02 </wgt>
<wgt id='1083'> +2.8784719e+02 </wgt>
<wgt id='1084'> +2.8780649e+02 </wgt>
<wgt id='1085'> +2.8776263e+02 </wgt>
<wgt id='1086'> +2.8777881e+02 </wgt>
<wgt id='1087'> +2.8796870e+02 </wgt>
<wgt id='1088'> +2.8780483e+02 </wgt>
<wgt id='1089'> +2.8777182e+02 </wgt>
<wgt id='1090'> +2.8783942e+02 </wgt>
<wgt id='1091'> +2.8775746e+02 </wgt>
<wgt id='1092'> +2.8784554e+02 </wgt>
<wgt id='1093'> +2.8785760e+02 </wgt>
<wgt id='1094'> +2.8784327e+02 </wgt>
<wgt id='1095'> +2.8780093e+02 </wgt>
<wgt id='1096'> +2.8776900e+02 </wgt>
<wgt id='1097'> +2.8783029e+02 </wgt>
<wgt id='1098'> +2.8781684e+02 </wgt>
<wgt id='1099'> +2.8781879e+02 </wgt>
<wgt id='1100'> +2.8784517e+02 </wgt>
<wgt id='1101'> +2.8782298e+02 </wgt>
<wgt id='1102'> +2.8784424e+02 </wgt>
<wgt id='1103'> +2.8777675e+02 </wgt>
<wgt id='1104'> +2.8777129e+02 </wgt>
<wgt id='1105'> +2.8782101e+02 </wgt>
<wgt id='1106'> +2.8778980e+02 </wgt>
<wgt id='1107'> +2.8782025e+02 </wgt>
<wgt id='1108'> +2.8781898e+02 </wgt>
<wgt id='1109'> +2.8784182e+02 </wgt>
<wgt id='1110'> +2.8781417e+02 </wgt>
<wgt id='1111'> +2.8099123e+02 </wgt>
<wgt id='1112'> +2.9347697e+02 </wgt>
<wgt id='1113'> +2.8781417e+02 </wgt>
<wgt id='1114'> +2.8417767e+02 </wgt>
<wgt id='1115'> +2.8759235e+02 </wgt>
<wgt id='1116'> +2.9035219e+02 </wgt>
<wgt id='1117'> +2.8783630e+02 </wgt>
<wgt id='1118'> +2.8688747e+02 </wgt>
<wgt id='1119'> +2.8459703e+02 </wgt>
<wgt id='1120'> +2.8654782e+02 </wgt>
<wgt id='1121'> +2.8711208e+02 </wgt>
<wgt id='1122'> +2.9138412e+02 </wgt>
<wgt id='1123'> +2.9041154e+02 </wgt>
<wgt id='1124'> +2.9226335e+02 </wgt>
<wgt id='1125'> +2.8538077e+02 </wgt>
<wgt id='1126'> +2.8819770e+02 </wgt>
<wgt id='1127'> +2.8380885e+02 </wgt>
<wgt id='1128'> +2.9246856e+02 </wgt>
<wgt id='1129'> +2.9323822e+02 </wgt>
<wgt id='1130'> +2.9069216e+02 </wgt>
<wgt id='1131'> +2.8802779e+02 </wgt>
<wgt id='1132'> +2.8571745e+02 </wgt>
<wgt id='1133'> +2.8907257e+02 </wgt>
<wgt id='1134'> +2.8152047e+02 </wgt>
<wgt id='1135'> +2.8749153e+02 </wgt>
<wgt id='1136'> +2.8583815e+02 </wgt>
<wgt id='1137'> +2.8658637e+02 </wgt>
<wgt id='1138'> +2.8505240e+02 </wgt>
<wgt id='1139'> +2.9019974e+02 </wgt>
<wgt id='1140'> +2.8681033e+02 </wgt>
<wgt id='1141'> +2.8416631e+02 </wgt>
<wgt id='1142'> +2.8878630e+02 </wgt>
<wgt id='1143'> +2.9101516e+02 </wgt>
<wgt id='1144'> +2.8811960e+02 </wgt>
<wgt id='1145'> +2.8875380e+02 </wgt>
<wgt id='1146'> +2.8334517e+02 </wgt>
<wgt id='1147'> +2.8458095e+02 </wgt>
<wgt id='1148'> +2.9172761e+02 </wgt>
<wgt id='1149'> +2.8565388e+02 </wgt>
<wgt id='1150'> +2.9363402e+02 </wgt>
<wgt id='1151'> +2.8579467e+02 </wgt>
<wgt id='1152'> +2.8701657e+02 </wgt>
<wgt id='1153'> +2.8687581e+02 </wgt>
<wgt id='1154'> +2.8776308e+02 </wgt>
<wgt id='1155'> +2.8382040e+02 </wgt>
<wgt id='1156'> +2.8721790e+02 </wgt>
<wgt id='1157'> +2.8085353e+02 </wgt>
<wgt id='1158'> +2.8758453e+02 </wgt>
<wgt id='1159'> +2.9035018e+02 </wgt>
<wgt id='1160'> +2.8206599e+02 </wgt>
<wgt id='1161'> +2.8684049e+02 </wgt>
<wgt id='1162'> +2.9014780e+02 </wgt>
<wgt id='1163'> +2.9143564e+02 </wgt>
<wgt id='1164'> +2.8412035e+02 </wgt>
<wgt id='1165'> +2.8598902e+02 </wgt>
<wgt id='1166'> +2.8603259e+02 </wgt>
<wgt id='1167'> +2.8856188e+02 </wgt>
<wgt id='1168'> +2.8525342e+02 </wgt>
<wgt id='1169'> +2.8674226e+02 </wgt>
<wgt id='1170'> +2.9151439e+02 </wgt>
<wgt id='1171'> +2.8484134e+02 </wgt>
<wgt id='1172'> +2.9151151e+02 </wgt>
<wgt id='1173'> +2.8929359e+02 </wgt>
<wgt id='1174'> +2.8807398e+02 </wgt>
<wgt id='1175'> +2.8878659e+02 </wgt>
<wgt id='1176'> +2.8313569e+02 </wgt>
<wgt id='1177'> +2.8628938e+02 </wgt>
<wgt id='1178'> +2.8697059e+02 </wgt>
<wgt id='1179'> +2.8741159e+02 </wgt>
<wgt id='1180'> +2.8138852e+02 </wgt>
<wgt id='1181'> +2.9115663e+02 </wgt>
<wgt id='1182'> +2.8469492e+02 </wgt>
<wgt id='1183'> +2.8295720e+02 </wgt>
<wgt id='1184'> +2.9156060e+02 </wgt>
<wgt id='1185'> +2.9265879e+02 </wgt>
<wgt id='1186'> +2.9145809e+02 </wgt>
<wgt id='1187'> +2.9313808e+02 </wgt>
<wgt id='1188'> +2.9069083e+02 </wgt>
<wgt id='1189'> +2.8927134e+02 </wgt>
<wgt id='1190'> +2.8675254e+02 </wgt>
<wgt id='1191'> +2.8831241e+02 </wgt>
<wgt id='1192'> +2.8681511e+02 </wgt>
<wgt id='1193'> +2.8355284e+02 </wgt>
<wgt id='1194'> +2.8316098e+02 </wgt>
<wgt id='1195'> +2.9323822e+02 </wgt>
<wgt id='1196'> +2.8549078e+02 </wgt>
<wgt id='1197'> +2.9065740e+02 </wgt>
<wgt id='1198'> +2.9775681e+02 </wgt>
<wgt id='1199'> +2.8107829e+02 </wgt>
<wgt id='1200'> +2.9157759e+02 </wgt>
<wgt id='1201'> +2.8854819e+02 </wgt>
<wgt id='1202'> +2.9466689e+02 </wgt>
<wgt id='1203'> +2.8323663e+02 </wgt>
<wgt id='1204'> +2.8335514e+02 </wgt>
<wgt id='1205'> +2.9094261e+02 </wgt>
<wgt id='1206'> +2.9107867e+02 </wgt>
<wgt id='1207'> +2.8696393e+02 </wgt>
<wgt id='1208'> +2.8923336e+02 </wgt>
<wgt id='1209'> +2.8487805e+02 </wgt>
<wgt id='1210'> +2.8406648e+02 </wgt>
<wgt id='1211'> +2.9161413e+02 </wgt>
<wgt id='1212'> +2.9221004e+02 </wgt>
<wgt id='1213'> +2.9198384e+02 </wgt>
<wgt id='1214'> +2.8757031e+02 </wgt>
<wgt id='1215'> +2.8713429e+02 </wgt>
<wgt id='1216'> +2.8833287e+02 </wgt>
<wgt id='1217'> +2.8805686e+02 </wgt>
<wgt id='1218'> +2.8766186e+02 </wgt>
<wgt id='1219'> +2.8736939e+02 </wgt>
<wgt id='1220'> +2.8725572e+02 </wgt>
<wgt id='1221'> +2.8718193e+02 </wgt>
<wgt id='1222'> +2.8781401e+02 </wgt>
<wgt id='1223'> +2.8741107e+02 </wgt>
<wgt id='1224'> +2.8722859e+02 </wgt>
<wgt id='1225'> +2.8845276e+02 </wgt>
<wgt id='1226'> +2.8853718e+02 </wgt>
<wgt id='1227'> +2.8864065e+02 </wgt>
<wgt id='1228'> +2.8829762e+02 </wgt>
<wgt id='1229'> +2.8814543e+02 </wgt>
<wgt id='1230'> +2.8759831e+02 </wgt>
<wgt id='1231'> +2.8752843e+02 </wgt>
<wgt id='1232'> +2.8824210e+02 </wgt>
<wgt id='1233'> +2.8749314e+02 </wgt>
<wgt id='1234'> +2.8867156e+02 </wgt>
<wgt id='1235'> +2.8702841e+02 </wgt>
<wgt id='1236'> +2.8845023e+02 </wgt>
<wgt id='1237'> +2.8813589e+02 </wgt>
<wgt id='1238'> +2.8763412e+02 </wgt>
<wgt id='1239'> +2.8843340e+02 </wgt>
<wgt id='1240'> +2.8810321e+02 </wgt>
<wgt id='1241'> +2.8730487e+02 </wgt>
<wgt id='1242'> +2.8725262e+02 </wgt>
<wgt id='1243'> +2.8779262e+02 </wgt>
<wgt id='1244'> +2.8771278e+02 </wgt>
<wgt id='1245'> +2.8773088e+02 </wgt>
<wgt id='1246'> +2.8754998e+02 </wgt>
<wgt id='1247'> +2.8763271e+02 </wgt>
<wgt id='1248'> +2.8767906e+02 </wgt>
<wgt id='1249'> +2.8753148e+02 </wgt>
<wgt id='1250'> +2.8759131e+02 </wgt>
<wgt id='1251'> +2.8764055e+02 </wgt>
<wgt id='1252'> +2.8760935e+02 </wgt>
<wgt id='1253'> +2.8750729e+02 </wgt>
<wgt id='1254'> +2.8755796e+02 </wgt>
<wgt id='1255'> +2.8749372e+02 </wgt>
<wgt id='1256'> +2.8737265e+02 </wgt>
<wgt id='1257'> +2.8767160e+02 </wgt>
<wgt id='1258'> +2.8769844e+02 </wgt>
<wgt id='1259'> +2.8755785e+02 </wgt>
<wgt id='1260'> +2.8771295e+02 </wgt>
<wgt id='1261'> +2.8767527e+02 </wgt>
<wgt id='1262'> +2.8756783e+02 </wgt>
<wgt id='1263'> +2.8756205e+02 </wgt>
<wgt id='1264'> +2.8769493e+02 </wgt>
<wgt id='1265'> +2.8762213e+02 </wgt>
<wgt id='1266'> +2.8747267e+02 </wgt>
<wgt id='1267'> +2.8755035e+02 </wgt>
<wgt id='1268'> +2.8760798e+02 </wgt>
<wgt id='1269'> +2.8757612e+02 </wgt>
<wgt id='1270'> +2.8758398e+02 </wgt>
<wgt id='1271'> +2.8754856e+02 </wgt>
<wgt id='1272'> +2.8759903e+02 </wgt>
<wgt id='1273'> +2.8752691e+02 </wgt>
<wgt id='1274'> +2.8757397e+02 </wgt>
<wgt id='1275'> +2.8754413e+02 </wgt>
<wgt id='1276'> +2.8762006e+02 </wgt>
<wgt id='1277'> +2.8754307e+02 </wgt>
<wgt id='1278'> +2.8754001e+02 </wgt>
<wgt id='1279'> +2.8763145e+02 </wgt>
<wgt id='1280'> +2.8755995e+02 </wgt>
<wgt id='1281'> +2.8756177e+02 </wgt>
<wgt id='1282'> +2.8760770e+02 </wgt>
<wgt id='1283'> +2.8752642e+02 </wgt>
<wgt id='1284'> +2.8751504e+02 </wgt>
<wgt id='1285'> +2.8747193e+02 </wgt>
<wgt id='1286'> +2.8757146e+02 </wgt>
<wgt id='1287'> +2.8758146e+02 </wgt>
<wgt id='1288'> +2.8748408e+02 </wgt>
<wgt id='1289'> +2.8758141e+02 </wgt>
<wgt id='1290'> +2.8753738e+02 </wgt>
<wgt id='1291'> +2.8755170e+02 </wgt>
<wgt id='1292'> +2.8758087e+02 </wgt>
<wgt id='1293'> +2.8758491e+02 </wgt>
<wgt id='1294'> +2.8758091e+02 </wgt>
<wgt id='1295'> +2.8759059e+02 </wgt>
<wgt id='1296'> +2.8758099e+02 </wgt>
<wgt id='1297'> +2.8758408e+02 </wgt>
<wgt id='1298'> +2.8758930e+02 </wgt>
<wgt id='1299'> +2.8756771e+02 </wgt>
<wgt id='1300'> +2.8755696e+02 </wgt>
<wgt id='1301'> +2.8755984e+02 </wgt>
<wgt id='1302'> +2.8758097e+02 </wgt>
<wgt id='1303'> +2.8756355e+02 </wgt>
<wgt id='1304'> +2.8757400e+02 </wgt>
<wgt id='1305'> +2.8757301e+02 </wgt>
<wgt id='1306'> +2.8759115e+02 </wgt>
<wgt id='1307'> +2.8756026e+02 </wgt>
<wgt id='1308'> +2.8759885e+02 </wgt>
<wgt id='1309'> +2.8758058e+02 </wgt>
<wgt id='1310'> +2.8756030e+02 </wgt>
<wgt id='1311'> +2.8758005e+02 </wgt>
<wgt id='1312'> +2.8755951e+02 </wgt>
<wgt id='1313'> +2.8756977e+02 </wgt>
<wgt id='1314'> +2.8757310e+02 </wgt>
<wgt id='1315'> +2.8099123e+02 </wgt>
<wgt id='1316'> +2.9347697e+02 </wgt>
<wgt id='1317'> +2.5723363e+02 </wgt>
<wgt id='1318'> +2.6278475e+02 </wgt>
<wgt id='1319'> +2.6883838e+02 </wgt>
<wgt id='1320'> +2.7537471e+02 </wgt>
<wgt id='1321'> +2.8473280e+02 </wgt>
<wgt id='1322'> +2.9107862e+02 </wgt>
<wgt id='1323'> +2.9899538e+02 </wgt>
<wgt id='1324'> +3.0502927e+02 </wgt>
<wgt id='1325'> +2.9194317e+02 </wgt>
<wgt id='1326'> +2.9268862e+02 </wgt>
<wgt id='1327'> +2.9113831e+02 </wgt>
<wgt id='1328'> +2.9250137e+02 </wgt>
<wgt id='1329'> +2.9229614e+02 </wgt>
<wgt id='1330'> +2.9254643e+02 </wgt>
<wgt id='1331'> +2.9210399e+02 </wgt>
<wgt id='1332'> +2.9187802e+02 </wgt>
<wgt id='1333'> +2.9149410e+02 </wgt>
<wgt id='1334'> +2.9105654e+02 </wgt>
<wgt id='1335'> +2.9126709e+02 </wgt>
<wgt id='1336'> +2.9245240e+02 </wgt>
<wgt id='1337'> +2.9320405e+02 </wgt>
<wgt id='1338'> +2.9076370e+02 </wgt>
<wgt id='1339'> +2.9248093e+02 </wgt>
<wgt id='1340'> +2.9218286e+02 </wgt>
<wgt id='1341'> +2.9213867e+02 </wgt>
<wgt id='1342'> +2.9258894e+02 </wgt>
<wgt id='1343'> +2.9251146e+02 </wgt>
<wgt id='1344'> +2.9111650e+02 </wgt>
<wgt id='1345'> +2.9117451e+02 </wgt>
<wgt id='1346'> +2.9092037e+02 </wgt>
<wgt id='1347'> +2.9186326e+02 </wgt>
<wgt id='1348'> +2.9131516e+02 </wgt>
<wgt id='1349'> +2.9125201e+02 </wgt>
<wgt id='1350'> +2.9191178e+02 </wgt>
<wgt id='1351'> +2.9241830e+02 </wgt>
<wgt id='1352'> +2.9202824e+02 </wgt>
<wgt id='1353'> +2.9123424e+02 </wgt>
<wgt id='1354'> +2.9187947e+02 </wgt>
<wgt id='1355'> +2.9219938e+02 </wgt>
<wgt id='1356'> +2.9205016e+02 </wgt>
<wgt id='1357'> +2.9207409e+02 </wgt>
<wgt id='1358'> +2.9205636e+02 </wgt>
<wgt id='1359'> +2.9206864e+02 </wgt>
<wgt id='1360'> +2.9212063e+02 </wgt>
<wgt id='1361'> +2.9200560e+02 </wgt>
<wgt id='1362'> +2.9193738e+02 </wgt>
<wgt id='1363'> +2.9194114e+02 </wgt>
<wgt id='1364'> +2.9201263e+02 </wgt>
<wgt id='1365'> +2.9190468e+02 </wgt>
<wgt id='1366'> +2.9191933e+02 </wgt>
<wgt id='1367'> +2.9177321e+02 </wgt>
<wgt id='1368'> +2.9177234e+02 </wgt>
<wgt id='1369'> +2.9204531e+02 </wgt>
<wgt id='1370'> +2.9208979e+02 </wgt>
<wgt id='1371'> +2.9201680e+02 </wgt>
<wgt id='1372'> +2.9189152e+02 </wgt>
<wgt id='1373'> +2.9203485e+02 </wgt>
<wgt id='1374'> +2.9188282e+02 </wgt>
<wgt id='1375'> +2.9191329e+02 </wgt>
<wgt id='1376'> +2.9214171e+02 </wgt>
<wgt id='1377'> +2.9190715e+02 </wgt>
<wgt id='1378'> +2.9191007e+02 </wgt>
<wgt id='1379'> +2.9189926e+02 </wgt>
<wgt id='1380'> +2.9196969e+02 </wgt>
<wgt id='1381'> +2.9199166e+02 </wgt>
<wgt id='1382'> +2.9190249e+02 </wgt>
<wgt id='1383'> +2.9188246e+02 </wgt>
<wgt id='1384'> +2.9196520e+02 </wgt>
<wgt id='1385'> +2.9197010e+02 </wgt>
<wgt id='1386'> +2.9204210e+02 </wgt>
<wgt id='1387'> +2.9197477e+02 </wgt>
<wgt id='1388'> +2.9198436e+02 </wgt>
<wgt id='1389'> +2.9193543e+02 </wgt>
<wgt id='1390'> +2.9197121e+02 </wgt>
<wgt id='1391'> +2.9198001e+02 </wgt>
<wgt id='1392'> +2.9186300e+02 </wgt>
<wgt id='1393'> +2.9194512e+02 </wgt>
<wgt id='1394'> +2.9188045e+02 </wgt>
<wgt id='1395'> +2.9187526e+02 </wgt>
<wgt id='1396'> +2.9193721e+02 </wgt>
<wgt id='1397'> +2.9199314e+02 </wgt>
<wgt id='1398'> +2.9193684e+02 </wgt>
<wgt id='1399'> +2.9197647e+02 </wgt>
<wgt id='1400'> +2.9196792e+02 </wgt>
<wgt id='1401'> +2.9194843e+02 </wgt>
<wgt id='1402'> +2.9193709e+02 </wgt>
<wgt id='1403'> +2.9198580e+02 </wgt>
<wgt id='1404'> +2.9194847e+02 </wgt>
<wgt id='1405'> +2.9191895e+02 </wgt>
<wgt id='1406'> +2.9194393e+02 </wgt>
<wgt id='1407'> +2.9193100e+02 </wgt>
<wgt id='1408'> +2.9192977e+02 </wgt>
<wgt id='1409'> +2.9191370e+02 </wgt>
<wgt id='1410'> +2.9194296e+02 </wgt>
<wgt id='1411'> +2.9192968e+02 </wgt>
<wgt id='1412'> +2.9192707e+02 </wgt>
<wgt id='1413'> +2.9193880e+02 </wgt>
<wgt id='1414'> +2.9194279e+02 </wgt>
<wgt id='1415'> +2.9194924e+02 </wgt>
<wgt id='1416'> +2.9195798e+02 </wgt>
<wgt id='1417'> +2.9194805e+02 </wgt>
<wgt id='1418'> +2.9193397e+02 </wgt>
<wgt id='1419'> +2.9197020e+02 </wgt>
<wgt id='1420'> +2.9195321e+02 </wgt>
<wgt id='1421'> +2.9194317e+02 </wgt>
<wgt id='1422'> +2.9191831e+02 </wgt>
<wgt id='1423'> +2.9195576e+02 </wgt>
<wgt id='1424'> +2.9195733e+02 </wgt>
<wgt id='1425'> +2.9194980e+02 </wgt>
<wgt id='1426'> +2.8547933e+02 </wgt>
<wgt id='1427'> +2.9929569e+02 </wgt>
<wgt id='1428'> +2.7854008e+02 </wgt>
<wgt id='1429'> +2.7768372e+02 </wgt>
<wgt id='1430'> +2.7783984e+02 </wgt>
<wgt id='1431'> +2.7729489e+02 </wgt>
<wgt id='1432'> +2.7866249e+02 </wgt>
<wgt id='1433'> +2.7444032e+02 </wgt>
<wgt id='1434'> +2.8050490e+02 </wgt>
<wgt id='1435'> +2.7892074e+02 </wgt>
<wgt id='1436'> +2.7643142e+02 </wgt>
<wgt id='1437'> +2.8105153e+02 </wgt>
<wgt id='1438'> +2.7716664e+02 </wgt>
<wgt id='1439'> +2.7821210e+02 </wgt>
<wgt id='1440'> +2.7815886e+02 </wgt>
<wgt id='1441'> +2.7353562e+02 </wgt>
<wgt id='1442'> +2.7904445e+02 </wgt>
<wgt id='1443'> +2.8035591e+02 </wgt>
<wgt id='1444'> +2.7284304e+02 </wgt>
<wgt id='1445'> +2.7883994e+02 </wgt>
<wgt id='1446'> +2.7825582e+02 </wgt>
<wgt id='1447'> +2.7758230e+02 </wgt>
<wgt id='1448'> +2.7946389e+02 </wgt>
<wgt id='1449'> +2.7939049e+02 </wgt>
<wgt id='1450'> +2.7799023e+02 </wgt>
<wgt id='1451'> +2.7763221e+02 </wgt>
<wgt id='1452'> +2.7946312e+02 </wgt>
<wgt id='1453'> +2.7818899e+02 </wgt>
<wgt id='1454'> +2.7882443e+02 </wgt>
<wgt id='1455'> +2.8121137e+02 </wgt>
<wgt id='1456'> +2.7402017e+02 </wgt>
<wgt id='1457'> +2.7353852e+02 </wgt>
<wgt id='1458'> +2.8153838e+02 </wgt>
<wgt id='1459'> +2.7565587e+02 </wgt>
<wgt id='1460'> +2.8268439e+02 </wgt>
<wgt id='1461'> +2.7680444e+02 </wgt>
<wgt id='1462'> +2.7999498e+02 </wgt>
<wgt id='1463'> +2.7473550e+02 </wgt>
<wgt id='1464'> +2.8170077e+02 </wgt>
<wgt id='1465'> +2.7770711e+02 </wgt>
<wgt id='1466'> +2.7936138e+02 </wgt>
<wgt id='1467'> +2.8292679e+02 </wgt>
<wgt id='1468'> +2.7633592e+02 </wgt>
<wgt id='1469'> +2.7629879e+02 </wgt>
<wgt id='1470'> +2.7875064e+02 </wgt>
<wgt id='1471'> +2.8060640e+02 </wgt>
<wgt id='1472'> +2.7209431e+02 </wgt>
<wgt id='1473'> +2.8499419e+02 </wgt>
<wgt id='1474'> +2.7706016e+02 </wgt>
<wgt id='1475'> +2.7972232e+02 </wgt>
<wgt id='1476'> +2.8046588e+02 </wgt>
<wgt id='1477'> +2.7866012e+02 </wgt>
<wgt id='1478'> +2.7918181e+02 </wgt>
<wgt id='1479'> +2.7916995e+02 </wgt>
<wgt id='1480'> +2.7846218e+02 </wgt>
<wgt id='1481'> +2.7567360e+02 </wgt>
<wgt id='1482'> +2.8141852e+02 </wgt>
<wgt id='1483'> +2.7698206e+02 </wgt>
<wgt id='1484'> +2.8038555e+02 </wgt>
<wgt id='1485'> +2.7189946e+02 </wgt>
<wgt id='1486'> +2.8455756e+02 </wgt>
<wgt id='1487'> +2.8508305e+02 </wgt>
<wgt id='1488'> +2.8537697e+02 </wgt>
<wgt id='1489'> +2.8583753e+02 </wgt>
<wgt id='1490'> +2.8879484e+02 </wgt>
<wgt id='1491'> +2.8366590e+02 </wgt>
<wgt id='1492'> +2.8611410e+02 </wgt>
<wgt id='1493'> +2.8431555e+02 </wgt>
<wgt id='1494'> +2.8725600e+02 </wgt>
<wgt id='1495'> +2.8458005e+02 </wgt>
<wgt id='1496'> +2.8005445e+02 </wgt>
<wgt id='1497'> +2.8818378e+02 </wgt>
<wgt id='1498'> +2.8874634e+02 </wgt>
<wgt id='1499'> +2.8303643e+02 </wgt>
<wgt id='1500'> +2.7546646e+02 </wgt>
<wgt id='1501'> +2.9048075e+02 </wgt>
<wgt id='1502'> +2.8771154e+02 </wgt>
<wgt id='1503'> +2.8341724e+02 </wgt>
<wgt id='1504'> +2.8221686e+02 </wgt>
<wgt id='1505'> +2.8848869e+02 </wgt>
<wgt id='1506'> +2.8830819e+02 </wgt>
<wgt id='1507'> +2.8144778e+02 </wgt>
<wgt id='1508'> +2.8556814e+02 </wgt>
<wgt id='1509'> +2.8396067e+02 </wgt>
<wgt id='1510'> +2.8396482e+02 </wgt>
<wgt id='1511'> +2.8602992e+02 </wgt>
<wgt id='1512'> +2.8197009e+02 </wgt>
<wgt id='1513'> +2.8794031e+02 </wgt>
<wgt id='1514'> +2.8420923e+02 </wgt>
<wgt id='1515'> +2.8623817e+02 </wgt>
<wgt id='1516'> +2.8313920e+02 </wgt>
<wgt id='1517'> +2.8575199e+02 </wgt>
<wgt id='1518'> +2.8547527e+02 </wgt>
<wgt id='1519'> +2.8456789e+02 </wgt>
<wgt id='1520'> +2.8483932e+02 </wgt>
<wgt id='1521'> +2.8558861e+02 </wgt>
<wgt id='1522'> +2.8875030e+02 </wgt>
<wgt id='1523'> +2.8157174e+02 </wgt>
<wgt id='1524'> +2.8695574e+02 </wgt>
<wgt id='1525'> +2.8180164e+02 </wgt>
<wgt id='1526'> +2.8471522e+02 </wgt>
<wgt id='1527'> +2.8483740e+02 </wgt>
<wgt id='1528'> +2.8707551e+02 </wgt>
<wgt id='1529'> +2.8327742e+02 </wgt>
<wgt id='1530'> +2.8682733e+02 </wgt>
<wgt id='1531'> +2.8333331e+02 </wgt>
<wgt id='1532'> +2.8138627e+02 </wgt>
<wgt id='1533'> +2.8438279e+02 </wgt>
<wgt id='1534'> +2.8271780e+02 </wgt>
<wgt id='1535'> +2.8597738e+02 </wgt>
<wgt id='1536'> +2.8454268e+02 </wgt>
<wgt id='1537'> +2.8183487e+02 </wgt>
<wgt id='1538'> +2.8437907e+02 </wgt>
<wgt id='1539'> +2.8450934e+02 </wgt>
<wgt id='1540'> +2.7768257e+02 </wgt>
<wgt id='1541'> +2.8555800e+02 </wgt>
<wgt id='1542'> +2.8338476e+02 </wgt>
<wgt id='1543'> +2.8705913e+02 </wgt>
<wgt id='1544'> +2.7755094e+02 </wgt>
<wgt id='1545'> +2.9216706e+02 </wgt>
<wgt id='1546'> +2.9013901e+02 </wgt>
<wgt id='1547'> +2.8891350e+02 </wgt>
<wgt id='1548'> +2.8915061e+02 </wgt>
<wgt id='1549'> +2.8864601e+02 </wgt>
<wgt id='1550'> +2.8904064e+02 </wgt>
<wgt id='1551'> +2.8882754e+02 </wgt>
<wgt id='1552'> +2.8937586e+02 </wgt>
<wgt id='1553'> +2.8848460e+02 </wgt>
<wgt id='1554'> +2.8784050e+02 </wgt>
<wgt id='1555'> +2.9011685e+02 </wgt>
<wgt id='1556'> +2.9000963e+02 </wgt>
<wgt id='1557'> +2.8783756e+02 </wgt>
<wgt id='1558'> +2.8957151e+02 </wgt>
<wgt id='1559'> +2.8749432e+02 </wgt>
<wgt id='1560'> +2.8856916e+02 </wgt>
<wgt id='1561'> +2.8951417e+02 </wgt>
<wgt id='1562'> +2.8803282e+02 </wgt>
<wgt id='1563'> +2.8940495e+02 </wgt>
<wgt id='1564'> +2.8721263e+02 </wgt>
<wgt id='1565'> +2.9091992e+02 </wgt>
<wgt id='1566'> +2.8919004e+02 </wgt>
<wgt id='1567'> +2.8867505e+02 </wgt>
<wgt id='1568'> +2.8829870e+02 </wgt>
<wgt id='1569'> +2.8974328e+02 </wgt>
<wgt id='1570'> +2.8692473e+02 </wgt>
<wgt id='1571'> +2.9032232e+02 </wgt>
<wgt id='1572'> +2.8699090e+02 </wgt>
<wgt id='1573'> +2.9002498e+02 </wgt>
<wgt id='1574'> +2.8975066e+02 </wgt>
<wgt id='1575'> +2.8892736e+02 </wgt>
<wgt id='1576'> +2.9030385e+02 </wgt>
<wgt id='1577'> +2.8729504e+02 </wgt>
<wgt id='1578'> +2.8911550e+02 </wgt>
<wgt id='1579'> +2.8855036e+02 </wgt>
<wgt id='1580'> +2.8944736e+02 </wgt>
<wgt id='1581'> +2.8835180e+02 </wgt>
<wgt id='1582'> +2.8883903e+02 </wgt>
<wgt id='1583'> +2.8965482e+02 </wgt>
<wgt id='1584'> +2.8944374e+02 </wgt>
<wgt id='1585'> +2.8890623e+02 </wgt>
<wgt id='1586'> +2.8858199e+02 </wgt>
<wgt id='1587'> +2.8926985e+02 </wgt>
<wgt id='1588'> +2.8850009e+02 </wgt>
<wgt id='1589'> +2.8944480e+02 </wgt>
<wgt id='1590'> +2.9266179e+02 </wgt>
<wgt id='1591'> +2.8732937e+02 </wgt>
<wgt id='1592'> +2.8870505e+02 </wgt>
<wgt id='1593'> +2.8944881e+02 </wgt>
<wgt id='1594'> +2.8943528e+02 </wgt>
<wgt id='1595'> +2.8649156e+02 </wgt>
<wgt id='1596'> +2.8919621e+02 </wgt>
<wgt id='1597'> +2.8866617e+02 </wgt>
<wgt id='1598'> +2.7961421e+02 </wgt>
<wgt id='1599'> +2.7968561e+02 </wgt>
<wgt id='1600'> +2.7951117e+02 </wgt>
<wgt id='1601'> +2.8038377e+02 </wgt>
<wgt id='1602'> +2.7884586e+02 </wgt>
<wgt id='1603'> +2.8005984e+02 </wgt>
<wgt id='1604'> +2.7943180e+02 </wgt>
<wgt id='1605'> +2.7844662e+02 </wgt>
<wgt id='1606'> +2.8077050e+02 </wgt>
<wgt id='1607'> +2.8014508e+02 </wgt>
<wgt id='1608'> +2.7908411e+02 </wgt>
<wgt id='1609'> +2.7674221e+02 </wgt>
<wgt id='1610'> +2.8084644e+02 </wgt>
<wgt id='1611'> +2.7961391e+02 </wgt>
<wgt id='1612'> +2.7960135e+02 </wgt>
<wgt id='1613'> +2.7873353e+02 </wgt>
<wgt id='1614'> +2.8054502e+02 </wgt>
<wgt id='1615'> +2.7823340e+02 </wgt>
<wgt id='1616'> +2.8033830e+02 </wgt>
<wgt id='1617'> +2.7925904e+02 </wgt>
<wgt id='1618'> +2.8009464e+02 </wgt>
<wgt id='1619'> +2.7959042e+02 </wgt>
<wgt id='1620'> +2.7961982e+02 </wgt>
<wgt id='1621'> +2.8184667e+02 </wgt>
<wgt id='1622'> +2.7730053e+02 </wgt>
<wgt id='1623'> +2.8059436e+02 </wgt>
<wgt id='1624'> +2.7719616e+02 </wgt>
<wgt id='1625'> +2.8076949e+02 </wgt>
<wgt id='1626'> +2.7921645e+02 </wgt>
<wgt id='1627'> +2.7863038e+02 </wgt>
<wgt id='1628'> +2.8197671e+02 </wgt>
<wgt id='1629'> +2.7955997e+02 </wgt>
<wgt id='1630'> +2.7978597e+02 </wgt>
<wgt id='1631'> +2.7932328e+02 </wgt>
<wgt id='1632'> +2.8033174e+02 </wgt>
<wgt id='1633'> +2.8014041e+02 </wgt>
<wgt id='1634'> +2.7954219e+02 </wgt>
<wgt id='1635'> +2.7970943e+02 </wgt>
<wgt id='1636'> +2.7973122e+02 </wgt>
<wgt id='1637'> +2.7925421e+02 </wgt>
<wgt id='1638'> +2.7985237e+02 </wgt>
<wgt id='1639'> +2.7904273e+02 </wgt>
<wgt id='1640'> +2.8016275e+02 </wgt>
<wgt id='1641'> +2.7982721e+02 </wgt>
<wgt id='1642'> +2.7836588e+02 </wgt>
<wgt id='1643'> +2.7745870e+02 </wgt>
<wgt id='1644'> +2.8059028e+02 </wgt>
<wgt id='1645'> +2.8003619e+02 </wgt>
<wgt id='1646'> +2.7936345e+02 </wgt>
<wgt id='1647'> +2.7919315e+02 </wgt>
<wgt id='1648'> +2.7956621e+02 </wgt>
<wgt id='1649'> +4.2096251e+02 </wgt>
<wgt id='1650'> +2.8381558e+02 </wgt>
<wgt id='1651'> +2.8374154e+02 </wgt>
<wgt id='1652'> +2.8389275e+02 </wgt>
<wgt id='1653'> +2.8383952e+02 </wgt>
<wgt id='1654'> +2.8380747e+02 </wgt>
<wgt id='1655'> +2.8314524e+02 </wgt>
<wgt id='1656'> +2.8364531e+02 </wgt>
<wgt id='1657'> +2.8344384e+02 </wgt>
<wgt id='1658'> +2.8431059e+02 </wgt>
<wgt id='1659'> +2.8484643e+02 </wgt>
<wgt id='1660'> +2.8383150e+02 </wgt>
<wgt id='1661'> +2.8366890e+02 </wgt>
<wgt id='1662'> +2.8351057e+02 </wgt>
<wgt id='1663'> +2.8376487e+02 </wgt>
<wgt id='1664'> +2.8368768e+02 </wgt>
<wgt id='1665'> +2.8359203e+02 </wgt>
<wgt id='1666'> +2.8391830e+02 </wgt>
<wgt id='1667'> +2.8388120e+02 </wgt>
<wgt id='1668'> +2.8382905e+02 </wgt>
<wgt id='1669'> +2.8422134e+02 </wgt>
<wgt id='1670'> +2.8301401e+02 </wgt>
<wgt id='1671'> +2.8383286e+02 </wgt>
<wgt id='1672'> +2.8236367e+02 </wgt>
<wgt id='1673'> +2.8404839e+02 </wgt>
<wgt id='1674'> +2.8427630e+02 </wgt>
<wgt id='1675'> +2.8464117e+02 </wgt>
<wgt id='1676'> +2.8434843e+02 </wgt>
<wgt id='1677'> +2.8338031e+02 </wgt>
<wgt id='1678'> +2.8409808e+02 </wgt>
<wgt id='1679'> +2.8181333e+02 </wgt>
<wgt id='1680'> +2.8690729e+02 </wgt>
<wgt id='1681'> +2.8609944e+02 </wgt>
<wgt id='1682'> +2.8847094e+02 </wgt>
<wgt id='1683'> +2.8828838e+02 </wgt>
<wgt id='1684'> +2.8643520e+02 </wgt>
<wgt id='1685'> +2.8640131e+02 </wgt>
<wgt id='1686'> +2.8635178e+02 </wgt>
<wgt id='1687'> +2.8829285e+02 </wgt>
<wgt id='1688'> +2.8943673e+02 </wgt>
<wgt id='1689'> +2.8608605e+02 </wgt>
<wgt id='1690'> +2.9059338e+02 </wgt>
<wgt id='1691'> +2.8710465e+02 </wgt>
<wgt id='1692'> +2.8427385e+02 </wgt>
<wgt id='1693'> +2.8718649e+02 </wgt>
<wgt id='1694'> +2.8478834e+02 </wgt>
<wgt id='1695'> +2.8735548e+02 </wgt>
<wgt id='1696'> +2.8755259e+02 </wgt>
<wgt id='1697'> +2.8587499e+02 </wgt>
<wgt id='1698'> +2.8617176e+02 </wgt>
<wgt id='1699'> +2.8627118e+02 </wgt>
<wgt id='1700'> +2.8707860e+02 </wgt>
<wgt id='1701'> +2.8541947e+02 </wgt>
<wgt id='1702'> +2.8715271e+02 </wgt>
<wgt id='1703'> +2.8631430e+02 </wgt>
<wgt id='1704'> +2.8674313e+02 </wgt>
<wgt id='1705'> +2.8656104e+02 </wgt>
<wgt id='1706'> +2.8654142e+02 </wgt>
<wgt id='1707'> +2.8702994e+02 </wgt>
<wgt id='1708'> +2.8611620e+02 </wgt>
<wgt id='1709'> +2.8666241e+02 </wgt>
<wgt id='1710'> +2.8679803e+02 </wgt>
<wgt id='1711'> +2.8680849e+02 </wgt>
<wgt id='1712'> +2.8692902e+02 </wgt>
<wgt id='1713'> +2.8633592e+02 </wgt>
<wgt id='1714'> +2.8699090e+02 </wgt>
<wgt id='1715'> +2.8756581e+02 </wgt>
<wgt id='1716'> +2.8668213e+02 </wgt>
<wgt id='1717'> +2.8701055e+02 </wgt>
<wgt id='1718'> +2.8666610e+02 </wgt>
<wgt id='1719'> +2.8695448e+02 </wgt>
<wgt id='1720'> +2.8691992e+02 </wgt>
<wgt id='1721'> +2.8704434e+02 </wgt>
<wgt id='1722'> +2.8711307e+02 </wgt>
<wgt id='1723'> +2.8666881e+02 </wgt>
<wgt id='1724'> +2.8715247e+02 </wgt>
<wgt id='1725'> +2.8713201e+02 </wgt>
<wgt id='1726'> +2.8721433e+02 </wgt>
<wgt id='1727'> +2.8668158e+02 </wgt>
<wgt id='1728'> +2.8663032e+02 </wgt>
<wgt id='1729'> +2.8690833e+02 </wgt>
<wgt id='1730'> +2.8693990e+02 </wgt>
<wgt id='1731'> +2.8662971e+02 </wgt>
<wgt id='1732'> +2.8695960e+02 </wgt>
<wgt id='1733'> +2.8677570e+02 </wgt>
<wgt id='1734'> +2.8678937e+02 </wgt>
<wgt id='1735'> +2.8692681e+02 </wgt>
<wgt id='1736'> +2.8688519e+02 </wgt>
<wgt id='1737'> +2.8683488e+02 </wgt>
<wgt id='1738'> +2.8722439e+02 </wgt>
<wgt id='1739'> +2.8675135e+02 </wgt>
<wgt id='1740'> +2.8658569e+02 </wgt>
<wgt id='1741'> +2.8685522e+02 </wgt>
<wgt id='1742'> +2.8667918e+02 </wgt>
<wgt id='1743'> +2.8692394e+02 </wgt>
<wgt id='1744'> +2.8683948e+02 </wgt>
<wgt id='1745'> +2.8689494e+02 </wgt>
<wgt id='1746'> +2.8684212e+02 </wgt>
<wgt id='1747'> +2.8686662e+02 </wgt>
<wgt id='1748'> +2.8701360e+02 </wgt>
<wgt id='1749'> +2.8698295e+02 </wgt>
<wgt id='1750'> +2.8689817e+02 </wgt>
<wgt id='1751'> +2.8678242e+02 </wgt>
<wgt id='1752'> +2.8681811e+02 </wgt>
<wgt id='1753'> +2.8678597e+02 </wgt>
<wgt id='1754'> +2.8697940e+02 </wgt>
<wgt id='1755'> +2.8687559e+02 </wgt>
<wgt id='1756'> +2.8687286e+02 </wgt>
<wgt id='1757'> +2.8690570e+02 </wgt>
<wgt id='1758'> +2.8693368e+02 </wgt>
<wgt id='1759'> +2.8707994e+02 </wgt>
<wgt id='1760'> +2.8691400e+02 </wgt>
<wgt id='1761'> +2.8696100e+02 </wgt>
<wgt id='1762'> +2.8671190e+02 </wgt>
<wgt id='1763'> +2.8702635e+02 </wgt>
<wgt id='1764'> +2.8697042e+02 </wgt>
<wgt id='1765'> +2.8696377e+02 </wgt>
<wgt id='1766'> +2.8703215e+02 </wgt>
<wgt id='1767'> +2.8685710e+02 </wgt>
<wgt id='1768'> +2.8683141e+02 </wgt>
<wgt id='1769'> +2.8691784e+02 </wgt>
<wgt id='1770'> +2.8687463e+02 </wgt>
<wgt id='1771'> +2.8687914e+02 </wgt>
<wgt id='1772'> +2.8690379e+02 </wgt>
<wgt id='1773'> +2.8679786e+02 </wgt>
<wgt id='1774'> +2.8695288e+02 </wgt>
<wgt id='1775'> +2.8694236e+02 </wgt>
<wgt id='1776'> +2.8683847e+02 </wgt>
<wgt id='1777'> +2.8694079e+02 </wgt>
<wgt id='1778'> +2.8697460e+02 </wgt>
<wgt id='1779'> +2.8694349e+02 </wgt>
<wgt id='1780'> +2.8690178e+02 </wgt>
<wgt id='1781'> +2.8177322e+02 </wgt>
<wgt id='1782'> +2.9145323e+02 </wgt>
<wgt id='1783'> +2.8047550e+02 </wgt>
<wgt id='1784'> +2.8075232e+02 </wgt>
<wgt id='1785'> +2.8146999e+02 </wgt>
<wgt id='1786'> +2.7880349e+02 </wgt>
<wgt id='1787'> +2.8009015e+02 </wgt>
<wgt id='1788'> +2.8101987e+02 </wgt>
<wgt id='1789'> +2.8027241e+02 </wgt>
<wgt id='1790'> +2.8127221e+02 </wgt>
<wgt id='1791'> +2.8112113e+02 </wgt>
<wgt id='1792'> +2.8020051e+02 </wgt>
<wgt id='1793'> +2.7979585e+02 </wgt>
<wgt id='1794'> +2.8312934e+02 </wgt>
<wgt id='1795'> +2.7810811e+02 </wgt>
<wgt id='1796'> +2.7710784e+02 </wgt>
<wgt id='1797'> +2.7827387e+02 </wgt>
<wgt id='1798'> +2.8051692e+02 </wgt>
<wgt id='1799'> +2.8264465e+02 </wgt>
<wgt id='1800'> +2.8017654e+02 </wgt>
<wgt id='1801'> +2.7994095e+02 </wgt>
<wgt id='1802'> +2.7998193e+02 </wgt>
<wgt id='1803'> +2.8176021e+02 </wgt>
<wgt id='1804'> +2.8005589e+02 </wgt>
<wgt id='1805'> +2.8086108e+02 </wgt>
<wgt id='1806'> +2.7993222e+02 </wgt>
<wgt id='1807'> +2.8011111e+02 </wgt>
<wgt id='1808'> +2.8081882e+02 </wgt>
<wgt id='1809'> +2.8048655e+02 </wgt>
<wgt id='1810'> +2.8002872e+02 </wgt>
<wgt id='1811'> +2.8073696e+02 </wgt>
<wgt id='1812'> +2.8081529e+02 </wgt>
<wgt id='1813'> +2.8052437e+02 </wgt>
<wgt id='1814'> +2.8035953e+02 </wgt>
<wgt id='1815'> +2.8073732e+02 </wgt>
<wgt id='1816'> +2.8084043e+02 </wgt>
<wgt id='1817'> +2.8035033e+02 </wgt>
<wgt id='1818'> +2.8094422e+02 </wgt>
<wgt id='1819'> +2.8049586e+02 </wgt>
<wgt id='1820'> +2.8073955e+02 </wgt>
<wgt id='1821'> +2.8051843e+02 </wgt>
<wgt id='1822'> +2.8052921e+02 </wgt>
<wgt id='1823'> +2.8017778e+02 </wgt>
<wgt id='1824'> +2.8035646e+02 </wgt>
<wgt id='1825'> +2.8043116e+02 </wgt>
<wgt id='1826'> +2.8025743e+02 </wgt>
<wgt id='1827'> +2.8056853e+02 </wgt>
<wgt id='1828'> +2.8045077e+02 </wgt>
<wgt id='1829'> +2.8010779e+02 </wgt>
<wgt id='1830'> +2.8036859e+02 </wgt>
<wgt id='1831'> +2.8055904e+02 </wgt>
<wgt id='1832'> +2.8031707e+02 </wgt>
<wgt id='1833'> +2.8053135e+02 </wgt>
<wgt id='1834'> +2.8060451e+02 </wgt>
<wgt id='1835'> +2.8054776e+02 </wgt>
<wgt id='1836'> +2.8051287e+02 </wgt>
<wgt id='1837'> +2.8034200e+02 </wgt>
<wgt id='1838'> +2.8040812e+02 </wgt>
<wgt id='1839'> +2.8073020e+02 </wgt>
<wgt id='1840'> +2.8045732e+02 </wgt>
<wgt id='1841'> +2.8026487e+02 </wgt>
<wgt id='1842'> +2.8035307e+02 </wgt>
<wgt id='1843'> +2.8037506e+02 </wgt>
<wgt id='1844'> +2.8051327e+02 </wgt>
<wgt id='1845'> +2.8051879e+02 </wgt>
<wgt id='1846'> +2.8060975e+02 </wgt>
<wgt id='1847'> +2.8040049e+02 </wgt>
<wgt id='1848'> +2.8047225e+02 </wgt>
<wgt id='1849'> +2.8050972e+02 </wgt>
<wgt id='1850'> +2.8057163e+02 </wgt>
<wgt id='1851'> +2.8056522e+02 </wgt>
<wgt id='1852'> +2.8063081e+02 </wgt>
<wgt id='1853'> +2.8044474e+02 </wgt>
<wgt id='1854'> +2.8064074e+02 </wgt>
<wgt id='1855'> +2.8064830e+02 </wgt>
<wgt id='1856'> +2.8040036e+02 </wgt>
<wgt id='1857'> +2.8051612e+02 </wgt>
<wgt id='1858'> +2.8045666e+02 </wgt>
<wgt id='1859'> +2.8044455e+02 </wgt>
<wgt id='1860'> +2.8051726e+02 </wgt>
<wgt id='1861'> +2.8049739e+02 </wgt>
<wgt id='1862'> +2.8042709e+02 </wgt>
<wgt id='1863'> +2.8066586e+02 </wgt>
<wgt id='1864'> +2.8044012e+02 </wgt>
<wgt id='1865'> +2.8054091e+02 </wgt>
<wgt id='1866'> +2.8038313e+02 </wgt>
<wgt id='1867'> +2.8039679e+02 </wgt>
<wgt id='1868'> +2.8040205e+02 </wgt>
<wgt id='1869'> +2.8050631e+02 </wgt>
<wgt id='1870'> +2.8030528e+02 </wgt>
<wgt id='1871'> +2.8041728e+02 </wgt>
<wgt id='1872'> +2.8041396e+02 </wgt>
<wgt id='1873'> +2.8052148e+02 </wgt>
<wgt id='1874'> +2.8045210e+02 </wgt>
<wgt id='1875'> +2.8047131e+02 </wgt>
<wgt id='1876'> +2.8043048e+02 </wgt>
<wgt id='1877'> +2.8046151e+02 </wgt>
<wgt id='1878'> +2.8050753e+02 </wgt>
<wgt id='1879'> +2.8041660e+02 </wgt>
<wgt id='1880'> +2.8049175e+02 </wgt>
<wgt id='1881'> +2.8047651e+02 </wgt>
<wgt id='1882'> +2.8041331e+02 </wgt>
<wgt id='1883'> +2.8046784e+02 </wgt>
<wgt id='1884'> +2.7642613e+02 </wgt>
<wgt id='1885'> +2.8409176e+02 </wgt>
<wgt id='1886'> +2.8689847e+02 </wgt>
<wgt id='1887'> +2.8792862e+02 </wgt>
<wgt id='1888'> +2.8631624e+02 </wgt>
<wgt id='1889'> +2.8685830e+02 </wgt>
<wgt id='1890'> +2.8691318e+02 </wgt>
<wgt id='1891'> +2.9301863e+02 </wgt>
<wgt id='1892'> +2.8661706e+02 </wgt>
<wgt id='1893'> +2.8677038e+02 </wgt>
<wgt id='1894'> +2.8722688e+02 </wgt>
<wgt id='1895'> +2.8644960e+02 </wgt>
<wgt id='1896'> +2.8711792e+02 </wgt>
<wgt id='1897'> +2.8675756e+02 </wgt>
<wgt id='1898'> +2.8643245e+02 </wgt>
<wgt id='1899'> +2.8685060e+02 </wgt>
<wgt id='1900'> +2.8681383e+02 </wgt>
<wgt id='1901'> +2.8721702e+02 </wgt>
<wgt id='1902'> +2.8680780e+02 </wgt>
<wgt id='1903'> +2.8494774e+02 </wgt>
<wgt id='1904'> +2.8716180e+02 </wgt>
<wgt id='1905'> +2.8660232e+02 </wgt>
<wgt id='1906'> +2.8676109e+02 </wgt>
<wgt id='1907'> +2.8683042e+02 </wgt>
<wgt id='1908'> +2.8672182e+02 </wgt>
<wgt id='1909'> +2.8693947e+02 </wgt>
<wgt id='1910'> +2.8672538e+02 </wgt>
<wgt id='1911'> +2.8674211e+02 </wgt>
<wgt id='1912'> +2.8722678e+02 </wgt>
<wgt id='1913'> +2.8720292e+02 </wgt>
<wgt id='1914'> +2.8836723e+02 </wgt>
<wgt id='1915'> +2.8724469e+02 </wgt>
<wgt id='1916'> +2.8682656e+02 </wgt>
<wgt id='1917'> +2.8177322e+02 </wgt>
<wgt id='1918'> +2.9145323e+02 </wgt>
<wgt id='1919'> +2.8046505e+02 </wgt>
<wgt id='1920'> +2.7965990e+02 </wgt>
<wgt id='1921'> +2.8135442e+02 </wgt>
<wgt id='1922'> +2.8014747e+02 </wgt>
<wgt id='1923'> +2.8129082e+02 </wgt>
<wgt id='1924'> +2.7733181e+02 </wgt>
<wgt id='1925'> +2.8052599e+02 </wgt>
<wgt id='1926'> +2.7985135e+02 </wgt>
<wgt id='1927'> +2.7975858e+02 </wgt>
<wgt id='1928'> +2.7943861e+02 </wgt>
<wgt id='1929'> +2.8213713e+02 </wgt>
<wgt id='1930'> +2.7930525e+02 </wgt>
<wgt id='1931'> +2.8069014e+02 </wgt>
<wgt id='1932'> +2.8126842e+02 </wgt>
<wgt id='1933'> +2.7984043e+02 </wgt>
<wgt id='1934'> +2.8022493e+02 </wgt>
<wgt id='1935'> +2.8018646e+02 </wgt>
<wgt id='1936'> +2.8234186e+02 </wgt>
<wgt id='1937'> +2.8038093e+02 </wgt>
<wgt id='1938'> +2.8035805e+02 </wgt>
<wgt id='1939'> +2.8097799e+02 </wgt>
<wgt id='1940'> +2.8107856e+02 </wgt>
<wgt id='1941'> +2.8495414e+02 </wgt>
<wgt id='1942'> +2.8049015e+02 </wgt>
<wgt id='1943'> +2.8050721e+02 </wgt>
<wgt id='1944'> +2.8021373e+02 </wgt>
<wgt id='1945'> +2.8052607e+02 </wgt>
<wgt id='1946'> +2.8037388e+02 </wgt>
<wgt id='1947'> +2.8054940e+02 </wgt>
<wgt id='1948'> +2.8057742e+02 </wgt>
<wgt id='1949'> +2.8045330e+02 </wgt>
<wgt id='1950'> +2.7642613e+02 </wgt>
<wgt id='1951'> +2.8409176e+02 </wgt>
<wgt id='1952'> +3.0283506e+02 </wgt>
<wgt id='1953'> +3.0245060e+02 </wgt>
<wgt id='1954'> +3.0321805e+02 </wgt>
<wgt id='1955'> +3.0361894e+02 </wgt>
<wgt id='1956'> +3.0205248e+02 </wgt>
<wgt id='1957'> +3.0327454e+02 </wgt>
<wgt id='1958'> +3.0239621e+02 </wgt>
<wgt id='1959'> +3.0351264e+02 </wgt>
<wgt id='1960'> +3.0217695e+02 </wgt>
<wgt id='1961'> +3.0326446e+02 </wgt>
<wgt id='1962'> +3.0241458e+02 </wgt>
<wgt id='1963'> +3.0206792e+02 </wgt>
<wgt id='1964'> +3.0360214e+02 </wgt>
<wgt id='1965'> +3.0176763e+02 </wgt>
<wgt id='1966'> +3.0391021e+02 </wgt>
<wgt id='1967'> +3.0293633e+02 </wgt>
<wgt id='1968'> +3.0260719e+02 </wgt>
<wgt id='1969'> +3.0378876e+02 </wgt>
<wgt id='1970'> +3.0172738e+02 </wgt>
<wgt id='1971'> +3.0203638e+02 </wgt>
<wgt id='1972'> +3.0363171e+02 </wgt>
<wgt id='1973'> +3.0386985e+02 </wgt>
<wgt id='1974'> +3.0145899e+02 </wgt>
<wgt id='1975'> +3.0139504e+02 </wgt>
<wgt id='1976'> +3.0279573e+02 </wgt>
<wgt id='1977'> +3.0330009e+02 </wgt>
<wgt id='1978'> +3.0280332e+02 </wgt>
<wgt id='1979'> +3.0313400e+02 </wgt>
<wgt id='1980'> +3.0280865e+02 </wgt>
<wgt id='1981'> +3.0283506e+02 </wgt>
<wgt id='1982'> +3.0263914e+02 </wgt>
<wgt id='1983'> +3.0289312e+02 </wgt>
<wgt id='1984'> +3.0255937e+02 </wgt>
<wgt id='1985'> +3.0288619e+02 </wgt>
<wgt id='1986'> +3.0393225e+02 </wgt>
<wgt id='1987'> +3.0141917e+02 </wgt>
<wgt id='1988'> +3.0180587e+02 </wgt>
<wgt id='1989'> +3.0382953e+02 </wgt>
<wgt id='1990'> +3.0221870e+02 </wgt>
<wgt id='1991'> +3.0355759e+02 </wgt>
<wgt id='1992'> +3.0265119e+02 </wgt>
<wgt id='1993'> +3.0345360e+02 </wgt>
<wgt id='1994'> +3.0016916e+02 </wgt>
<wgt id='1995'> +2.8522598e+02 </wgt>
<wgt id='1996'> +2.8502851e+02 </wgt>
<wgt id='1997'> +2.8538803e+02 </wgt>
<wgt id='1998'> +2.8567016e+02 </wgt>
<wgt id='1999'> +2.8474734e+02 </wgt>
<wgt id='2000'> +2.8588473e+02 </wgt>
<wgt id='2001'> +2.8453391e+02 </wgt>
<wgt id='2002'> +2.8628527e+02 </wgt>
<wgt id='2003'> +2.8415411e+02 </wgt>
<wgt id='2004'> +2.8514374e+02 </wgt>
<wgt id='2005'> +2.8528154e+02 </wgt>
<wgt id='2006'> +2.8593516e+02 </wgt>
<wgt id='2007'> +2.8448376e+02 </wgt>
<wgt id='2008'> +2.8443255e+02 </wgt>
<wgt id='2009'> +2.8598951e+02 </wgt>
<wgt id='2010'> +2.8495975e+02 </wgt>
<wgt id='2011'> +2.8547334e+02 </wgt>
<wgt id='2012'> +2.8501689e+02 </wgt>
<wgt id='2013'> +2.8534432e+02 </wgt>
<wgt id='2014'> +2.8480449e+02 </wgt>
<wgt id='2015'> +2.8559086e+02 </wgt>
<wgt id='2016'> +2.8330575e+02 </wgt>
<wgt id='2017'> +2.8671126e+02 </wgt>
<wgt id='2018'> +2.8502267e+02 </wgt>
<wgt id='2019'> +2.8535953e+02 </wgt>
<wgt id='2020'> +2.8413358e+02 </wgt>
<wgt id='2021'> +2.8558434e+02 </wgt>
<wgt id='2022'> +2.8513871e+02 </wgt>
<wgt id='2023'> +2.8559614e+02 </wgt>
<wgt id='2024'> +2.8524227e+02 </wgt>
<wgt id='2025'> +2.8526795e+02 </wgt>
<wgt id='2026'> +2.8456000e+02 </wgt>
<wgt id='2027'> +2.8515451e+02 </wgt>
<wgt id='2028'> +2.8517207e+02 </wgt>
<wgt id='2029'> +2.8424033e+02 </wgt>
<wgt id='2030'> +2.8549879e+02 </wgt>
<wgt id='2031'> +2.8432769e+02 </wgt>
<wgt id='2032'> +2.8662858e+02 </wgt>
<wgt id='2033'> +2.8431672e+02 </wgt>
<wgt id='2034'> +2.8504691e+02 </wgt>
<wgt id='2035'> +2.8440054e+02 </wgt>
<wgt id='2036'> +2.8745726e+02 </wgt>
<wgt id='2037'> +2.8403240e+02 </wgt>
<wgt id='2038'> +2.8400219e+02 </wgt>
<wgt id='2039'> +2.8395737e+02 </wgt>
<wgt id='2040'> +2.8391187e+02 </wgt>
<wgt id='2041'> +2.8386513e+02 </wgt>
<wgt id='2042'> +2.8381992e+02 </wgt>
<wgt id='2043'> +2.8377379e+02 </wgt>
<wgt id='2044'> +2.8372826e+02 </wgt>
<wgt id='2045'> +2.8368319e+02 </wgt>
<wgt id='2046'> +2.8363774e+02 </wgt>
<wgt id='2047'> +2.8359196e+02 </wgt>
<wgt id='2048'> +2.8354523e+02 </wgt>
<wgt id='2049'> +2.8350058e+02 </wgt>
<wgt id='2050'> +2.8345462e+02 </wgt>
<wgt id='2051'> +2.8340995e+02 </wgt>
<wgt id='2052'> +2.8336335e+02 </wgt>
<wgt id='2053'> +2.8331850e+02 </wgt>
<wgt id='2054'> +2.8327191e+02 </wgt>
<wgt id='2055'> +2.8322705e+02 </wgt>
<wgt id='2056'> +2.8318151e+02 </wgt>
<wgt id='2057'> +2.8313566e+02 </wgt>
<wgt id='2058'> +2.8309015e+02 </wgt>
<wgt id='2059'> +2.8304428e+02 </wgt>
<wgt id='2060'> +2.8299959e+02 </wgt>
<wgt id='2061'> +2.8295297e+02 </wgt>
<wgt id='2062'> +2.8290891e+02 </wgt>
<wgt id='2063'> +2.8286261e+02 </wgt>
<wgt id='2064'> +2.8281782e+02 </wgt>
<wgt id='2065'> +2.8277128e+02 </wgt>
<wgt id='2066'> +2.8272546e+02 </wgt>
<wgt id='2067'> +2.8268079e+02 </wgt>
<wgt id='2068'> +2.8263485e+02 </wgt>
<wgt id='2069'> +2.7703638e+02 </wgt>
<wgt id='2070'> +2.7726980e+02 </wgt>
<wgt id='2071'> +2.7800722e+02 </wgt>
<wgt id='2072'> +2.7538884e+02 </wgt>
<wgt id='2073'> +2.7665027e+02 </wgt>
<wgt id='2074'> +2.7757818e+02 </wgt>
<wgt id='2075'> +2.7686830e+02 </wgt>
<wgt id='2076'> +2.7785172e+02 </wgt>
<wgt id='2077'> +2.7767493e+02 </wgt>
<wgt id='2078'> +2.7676986e+02 </wgt>
<wgt id='2079'> +2.7635753e+02 </wgt>
<wgt id='2080'> +2.7970166e+02 </wgt>
<wgt id='2081'> +2.7471569e+02 </wgt>
<wgt id='2082'> +2.7373019e+02 </wgt>
<wgt id='2083'> +2.7485526e+02 </wgt>
<wgt id='2084'> +2.7701310e+02 </wgt>
<wgt id='2085'> +2.7921963e+02 </wgt>
<wgt id='2086'> +2.7671946e+02 </wgt>
<wgt id='2087'> +2.7650336e+02 </wgt>
<wgt id='2088'> +2.7658401e+02 </wgt>
<wgt id='2089'> +2.7833904e+02 </wgt>
<wgt id='2090'> +2.7659532e+02 </wgt>
<wgt id='2091'> +2.7742001e+02 </wgt>
<wgt id='2092'> +2.7649067e+02 </wgt>
<wgt id='2093'> +2.7664689e+02 </wgt>
<wgt id='2094'> +2.7735376e+02 </wgt>
<wgt id='2095'> +2.7701809e+02 </wgt>
<wgt id='2096'> +2.7662820e+02 </wgt>
<wgt id='2097'> +2.7731113e+02 </wgt>
<wgt id='2098'> +2.7736023e+02 </wgt>
<wgt id='2099'> +2.7707206e+02 </wgt>
<wgt id='2100'> +2.7695150e+02 </wgt>
<wgt id='2101'> +2.7728217e+02 </wgt>
<wgt id='2102'> +2.7738775e+02 </wgt>
<wgt id='2103'> +2.7691496e+02 </wgt>
<wgt id='2104'> +2.7749581e+02 </wgt>
<wgt id='2105'> +2.7705725e+02 </wgt>
<wgt id='2106'> +2.7730038e+02 </wgt>
<wgt id='2107'> +2.7707569e+02 </wgt>
<wgt id='2108'> +2.7707537e+02 </wgt>
<wgt id='2109'> +2.7674095e+02 </wgt>
<wgt id='2110'> +2.7691190e+02 </wgt>
<wgt id='2111'> +2.7698898e+02 </wgt>
<wgt id='2112'> +2.7683589e+02 </wgt>
<wgt id='2113'> +2.7712701e+02 </wgt>
<wgt id='2114'> +2.7700867e+02 </wgt>
<wgt id='2115'> +2.7668042e+02 </wgt>
<wgt id='2116'> +2.7692497e+02 </wgt>
<wgt id='2117'> +2.7712396e+02 </wgt>
<wgt id='2118'> +2.7687643e+02 </wgt>
<wgt id='2119'> +2.7709386e+02 </wgt>
<wgt id='2120'> +2.7716175e+02 </wgt>
<wgt id='2121'> +2.7710674e+02 </wgt>
<wgt id='2122'> +2.7707372e+02 </wgt>
<wgt id='2123'> +2.7690744e+02 </wgt>
<wgt id='2124'> +2.7697404e+02 </wgt>
<wgt id='2125'> +2.7727781e+02 </wgt>
<wgt id='2126'> +2.7701869e+02 </wgt>
<wgt id='2127'> +2.7683681e+02 </wgt>
<wgt id='2128'> +2.7691963e+02 </wgt>
<wgt id='2129'> +2.7694285e+02 </wgt>
<wgt id='2130'> +2.7707507e+02 </wgt>
<wgt id='2131'> +2.7707650e+02 </wgt>
<wgt id='2132'> +2.7716503e+02 </wgt>
<wgt id='2133'> +2.7696700e+02 </wgt>
<wgt id='2134'> +2.7703091e+02 </wgt>
<wgt id='2135'> +2.7706852e+02 </wgt>
<wgt id='2136'> +2.7712639e+02 </wgt>
<wgt id='2137'> +2.7712685e+02 </wgt>
<wgt id='2138'> +2.7718583e+02 </wgt>
<wgt id='2139'> +2.7700420e+02 </wgt>
<wgt id='2140'> +2.7720386e+02 </wgt>
<wgt id='2141'> +2.7720473e+02 </wgt>
<wgt id='2142'> +2.7695779e+02 </wgt>
<wgt id='2143'> +2.7707774e+02 </wgt>
<wgt id='2144'> +2.7701871e+02 </wgt>
<wgt id='2145'> +2.7701237e+02 </wgt>
<wgt id='2146'> +2.7707829e+02 </wgt>
<wgt id='2147'> +2.7706276e+02 </wgt>
<wgt id='2148'> +2.7698659e+02 </wgt>
<wgt id='2149'> +2.7721955e+02 </wgt>
<wgt id='2150'> +2.7700653e+02 </wgt>
<wgt id='2151'> +2.7710324e+02 </wgt>
<wgt id='2152'> +2.7694504e+02 </wgt>
<wgt id='2153'> +2.7695594e+02 </wgt>
<wgt id='2154'> +2.7696526e+02 </wgt>
<wgt id='2155'> +2.7707476e+02 </wgt>
<wgt id='2156'> +2.7686541e+02 </wgt>
<wgt id='2157'> +2.7697604e+02 </wgt>
<wgt id='2158'> +2.7697268e+02 </wgt>
<wgt id='2159'> +2.7708032e+02 </wgt>
<wgt id='2160'> +2.7700859e+02 </wgt>
<wgt id='2161'> +2.7702844e+02 </wgt>
<wgt id='2162'> +2.7699307e+02 </wgt>
<wgt id='2163'> +2.7701645e+02 </wgt>
<wgt id='2164'> +2.7706820e+02 </wgt>
<wgt id='2165'> +2.7698040e+02 </wgt>
<wgt id='2166'> +2.7705280e+02 </wgt>
<wgt id='2167'> +2.7703565e+02 </wgt>
<wgt id='2168'> +2.7697691e+02 </wgt>
<wgt id='2169'> +2.7702995e+02 </wgt>
<wgt id='2170'> +2.7703299e+02 </wgt>
<wgt id='2171'> +2.7701416e+02 </wgt>
<wgt id='2172'> +2.7703991e+02 </wgt>
<wgt id='2173'> +2.7704048e+02 </wgt>
<wgt id='2174'> +2.7704668e+02 </wgt>
<wgt id='2175'> +2.7703788e+02 </wgt>
<wgt id='2176'> +2.7702156e+02 </wgt>
<wgt id='2177'> +2.8614100e+02 </wgt>
<wgt id='2178'> +2.6318931e+02 </wgt>
<wgt id='2179'> +2.8461909e+02 </wgt>
<wgt id='2180'> +2.8668941e+02 </wgt>
<wgt id='2181'> +2.8249198e+02 </wgt>
<wgt id='2182'> +2.5509820e+02 </wgt>
<wgt id='2183'> +2.9032033e+02 </wgt>
<wgt id='2184'> +2.8846515e+02 </wgt>
<wgt id='2185'> +2.8849773e+02 </wgt>
<wgt id='2186'> +2.8800540e+02 </wgt>
<wgt id='2187'> +2.7832973e+02 </wgt>
<wgt id='2188'> +2.8060063e+02 </wgt>
<wgt id='2189'> +2.9089512e+02 </wgt>
<wgt id='2190'> +2.9128770e+02 </wgt>
<wgt id='2191'> +2.8170164e+02 </wgt>
<wgt id='2192'> +2.9055817e+02 </wgt>
<wgt id='2193'> +2.8852829e+02 </wgt>
<wgt id='2194'> +2.8357499e+02 </wgt>
<wgt id='2195'> +2.8358510e+02 </wgt>
<wgt id='2196'> +2.9019500e+02 </wgt>
<wgt id='2197'> +2.9084718e+02 </wgt>
<wgt id='2198'> +2.8869626e+02 </wgt>
<wgt id='2199'> +2.8423392e+02 </wgt>
<wgt id='2200'> +3.0689679e+02 </wgt>
<wgt id='2201'> +2.8578798e+02 </wgt>
<wgt id='2202'> +2.8816980e+02 </wgt>
<wgt id='2203'> +2.8344061e+02 </wgt>
<wgt id='2204'> +2.8234912e+02 </wgt>
<wgt id='2205'> +2.8418557e+02 </wgt>
<wgt id='2206'> +2.8505942e+02 </wgt>
<wgt id='2207'> +2.9233094e+02 </wgt>
<wgt id='2208'> +2.8598693e+02 </wgt>
<wgt id='2209'> +2.7995173e+02 </wgt>
<wgt id='2210'> +2.8600182e+02 </wgt>
<wgt id='2211'> +2.8815780e+02 </wgt>
<wgt id='2212'> +2.9315240e+02 </wgt>
<wgt id='2213'> +2.9000428e+02 </wgt>
<wgt id='2214'> +2.9106418e+02 </wgt>
<wgt id='2215'> +2.8891600e+02 </wgt>
<wgt id='2216'> +2.7789491e+02 </wgt>
<wgt id='2217'> +2.8928167e+02 </wgt>
<wgt id='2218'> +2.8667488e+02 </wgt>
<wgt id='2219'> +2.8664704e+02 </wgt>
<wgt id='2220'> +2.8853569e+02 </wgt>
<wgt id='2221'> +2.8504215e+02 </wgt>
<wgt id='2222'> +2.8671053e+02 </wgt>
<wgt id='2223'> +2.9011223e+02 </wgt>
<wgt id='2224'> +2.8232786e+02 </wgt>
<wgt id='2225'> +2.8296419e+02 </wgt>
<wgt id='2226'> +2.8380256e+02 </wgt>
<wgt id='2227'> +2.8562914e+02 </wgt>
<wgt id='2228'> +2.8598327e+02 </wgt>
<wgt id='2229'> +2.8327239e+02 </wgt>
<wgt id='2230'> +2.9030825e+02 </wgt>
<wgt id='2231'> +2.8775000e+02 </wgt>
<wgt id='2232'> +2.8456063e+02 </wgt>
<wgt id='2233'> +2.8081549e+02 </wgt>
<wgt id='2234'> +2.9202513e+02 </wgt>
<wgt id='2235'> +2.8346385e+02 </wgt>
<wgt id='2236'> +2.8990382e+02 </wgt>
<wgt id='2237'> +2.8519509e+02 </wgt>
<wgt id='2238'> +2.8646317e+02 </wgt>
<wgt id='2239'> +2.8665744e+02 </wgt>
<wgt id='2240'> +2.8968463e+02 </wgt>
<wgt id='2241'> +2.8052175e+02 </wgt>
<wgt id='2242'> +2.8850949e+02 </wgt>
<wgt id='2243'> +2.8850039e+02 </wgt>
<wgt id='2244'> +3.0262838e+02 </wgt>
<wgt id='2245'> +2.8249612e+02 </wgt>
<wgt id='2246'> +2.7906731e+02 </wgt>
<wgt id='2247'> +2.8521029e+02 </wgt>
<wgt id='2248'> +2.8876397e+02 </wgt>
<wgt id='2249'> +2.8787874e+02 </wgt>
<wgt id='2250'> +2.6823941e+02 </wgt>
<wgt id='2251'> +2.8980733e+02 </wgt>
<wgt id='2252'> +2.8356064e+02 </wgt>
<wgt id='2253'> +2.8222643e+02 </wgt>
<wgt id='2254'> +2.8965588e+02 </wgt>
<wgt id='2255'> +2.9503274e+02 </wgt>
<wgt id='2256'> +2.8360925e+02 </wgt>
<wgt id='2257'> +2.8691208e+02 </wgt>
<wgt id='2258'> +2.8859098e+02 </wgt>
<wgt id='2259'> +2.8287501e+02 </wgt>
<wgt id='2260'> +2.8988212e+02 </wgt>
<wgt id='2261'> +2.8579382e+02 </wgt>
<wgt id='2262'> +2.7990747e+02 </wgt>
<wgt id='2263'> +2.8490352e+02 </wgt>
<wgt id='2264'> +2.8636434e+02 </wgt>
<wgt id='2265'> +2.8553984e+02 </wgt>
<wgt id='2266'> +2.9360855e+02 </wgt>
<wgt id='2267'> +2.8478757e+02 </wgt>
<wgt id='2268'> +2.8239898e+02 </wgt>
<wgt id='2269'> +2.8847410e+02 </wgt>
<wgt id='2270'> +2.8454616e+02 </wgt>
<wgt id='2271'> +2.9214962e+02 </wgt>
<wgt id='2272'> +2.8145537e+02 </wgt>
<wgt id='2273'> +2.9029284e+02 </wgt>
<wgt id='2274'> +2.8536482e+02 </wgt>
<wgt id='2275'> +2.9443152e+02 </wgt>
<wgt id='2276'> +2.9163787e+02 </wgt>
<wgt id='2277'> +2.8717810e+02 </wgt>
<wgt id='2278'> +2.8211323e+02 </wgt>
<wgt id='2279'> +2.8847857e+02 </wgt>
<wgt id='2280'> +2.8312694e+02 </wgt>
<wgt id='2281'> +3.3465287e+02 </wgt>
<wgt id='2282'> +3.9893701e+02 </wgt>
<wgt id='2283'> +3.4116638e+02 </wgt>
<wgt id='2284'> +3.9338960e+02 </wgt>
</rwgt>
</event>
<event npLO=" -1 " npNLO=" 1 ">
 5      1 -2.8781417e+02 2.36378750e+01 7.54677110e-03 1.23695530e-01
        2 -1    0    0  502    0 +0.0000000000e+00 +0.0000000000e+00 +9.1782247000e+02 9.1782247000e+02 0.0000000000e+00 0.0000e+00 9.0000e+00
       21 -1    0    0  503  502 +0.0000000000e+00 +0.0000000000e+00 -2.1090451000e+03 2.1090451000e+03 0.0000000000e+00 0.0000e+00 9.0000e+00
       25  1    1    2    0    0 +3.6332843000e+00 +2.0786609000e+01 -2.0419285000e+03 2.0444846000e+03 1.0000000000e+02 0.0000e+00 9.0000e+00
        2  1    1    2  501    0 +1.7567886000e+00 -2.8142929000e+01 +9.1601061000e+02 9.1644452000e+02 0.0000000000e+00 0.0000e+00 9.0000e+00
       21  1    1    2  503  501 -5.3900729000e+00 +7.3563196000e+00 -6.5304765000e+01 6.5938461000e+01 0.0000000000e+00 0.0000e+00 9.0000e+00
#aMCatNLO 2  0  0  2  4 0.91701192E+01 0.00000000E+00 -9  5  0 0.00000000E+00 0.00000000E+00 0.00000000E+00 0.00000000E+00 0.00000000E+00
<rwgt>
<wgt id='1001'> -2.8781417e+02 </wgt>
<wgt id='1002'> -1.8913371e+02 </wgt>
<wgt id='1003'> -4.6142063e+02 </wgt>
<wgt id='1004'> -2.3911914e+02 </wgt>
<wgt id='1005'> -1.5713437e+02 </wgt>
<wgt id='1006'> -3.8335325e+02 </wgt>
<wgt id='1007'> -3.5306198e+02 </wgt>
<wgt id='1008'> -2.3201052e+02 </wgt>
<wgt id='1009'> -5.6602536e+02 </wgt>
<wgt id='1010'> -2.8781417e+02 </wgt>
<wgt id='1011'> -2.8815060e+02 </wgt>
<wgt id='1012'> -2.8744306e+02 </wgt>
<wgt id='1013'> -2.8790911e+02 </wgt>
<wgt id='1014'> -2.8735386e+02 </wgt>
<wgt id='1015'> -2.8665947e+02 </wgt>
<wgt id='1016'> -2.8904508e+02 </wgt>
<wgt id='1017'> -2.8626851e+02 </wgt>
<wgt id='1018'> -2.8527674e+02 </wgt>
<wgt id='1019'> -2.8675137e+02 </wgt>
<wgt id='1020'> -2.8747051e+02 </wgt>
<wgt id='1021'> -2.9139591e+02 </wgt>
<wgt id='1022'> -2.8649616e+02 </wgt>
<wgt id='1023'> -2.8873427e+02 </wgt>
<wgt id='1024'> -2.8902088e+02 </wgt>
<wgt id='1025'> -2.8900498e+02 </wgt>
<wgt id='1026'> -2.8895515e+02 </wgt>
<wgt id='1027'> -2.9024150e+02 </wgt>
<wgt id='1028'> -2.8686741e+02 </wgt>
<wgt id='1029'> -2.8399053e+02 </wgt>
<wgt id='1030'> -2.8829073e+02 </wgt>
<wgt id='1031'> -2.8776220e+02 </wgt>
<wgt id='1032'> -2.8898848e+02 </wgt>
<wgt id='1033'> -2.8969052e+02 </wgt>
<wgt id='1034'> -2.8727976e+02 </wgt>
<wgt id='1035'> -2.8703338e+02 </wgt>
<wgt id='1036'> -2.8709116e+02 </wgt>
<wgt id='1037'> -2.8525859e+02 </wgt>
<wgt id='1038'> -2.8854328e+02 </wgt>
<wgt id='1039'> -2.8456958e+02 </wgt>
<wgt id='1040'> -2.8807948e+02 </wgt>
<wgt id='1041'> -2.8851656e+02 </wgt>
<wgt id='1042'> -2.8590681e+02 </wgt>
<wgt id='1043'> -2.8701597e+02 </wgt>
<wgt id='1044'> -2.8955748e+02 </wgt>
<wgt id='1045'> -2.8939970e+02 </wgt>
<wgt id='1046'> -2.8649615e+02 </wgt>
<wgt id='1047'> -2.8680372e+02 </wgt>
<wgt id='1048'> -2.9088024e+02 </wgt>
<wgt id='1049'> -2.8862396e+02 </wgt>
<wgt id='1050'> -2.8741592e+02 </wgt>
<wgt id='1051'> -2.8800047e+02 </wgt>
<wgt id='1052'> -2.8943079e+02 </wgt>
<wgt id='1053'> -2.8868675e+02 </wgt>
<wgt id='1054'> -2.8711457e+02 </wgt>
<wgt id='1055'> -2.8789427e+02 </wgt>
<wgt id='1056'> -2.8525484e+02 </wgt>
<wgt id='1057'> -2.8863595e+02 </wgt>
<wgt id='1058'> -2.8704804e+02 </wgt>
<wgt id='1059'> -2.8633560e+02 </wgt>
<wgt id='1060'> -2.8671687e+02 </wgt>
<wgt id='1061'> -2.8769751e+02 </wgt>
<wgt id='1062'> -2.8819973e+02 </wgt>
<wgt id='1063'> -2.8802120e+02 </wgt>
<wgt id='1064'> -2.8815560e+02 </wgt>
<wgt id='1065'> -2.8637595e+02 </wgt>
<wgt id='1066'> -2.8877251e+02 </wgt>
<wgt id='1067'> -2.8798108e+02 </wgt>
<wgt id='1068'> -2.8854001e+02 </wgt>
<wgt id='1069'> -2.8904192e+02 </wgt>
<wgt id='1070'> -2.8724002e+02 </wgt>
<wgt id='1071'> -2.8805744e+02 </wgt>
<wgt id='1072'> -2.8749879e+02 </wgt>
<wgt id='1073'> -2.8832538e+02 </wgt>
<wgt id='1074'> -2.8722525e+02 </wgt>
<wgt id='1075'> -2.8833959e+02 </wgt>
<wgt id='1076'> -2.8735491e+02 </wgt>
<wgt id='1077'> -2.8653051e+02 </wgt>
<wgt id='1078'> -2.8946783e+02 </wgt>
<wgt id='1079'> -2.8774648e+02 </wgt>
<wgt id='1080'> -2.8821403e+02 </wgt>
<wgt id='1081'> -2.8674999e+02 </wgt>
<wgt id='1082'> -2.8684989e+02 </wgt>
<wgt id='1083'> -2.8774304e+02 </wgt>
<wgt id='1084'> -2.8690137e+02 </wgt>
<wgt id='1085'> -2.8762306e+02 </wgt>
<wgt id='1086'> -2.8816244e+02 </wgt>
<wgt id='1087'> -2.8822400e+02 </wgt>
<wgt id='1088'> -2.8820127e+02 </wgt>
<wgt id='1089'> -2.8792138e+02 </wgt>
<wgt id='1090'> -2.8771169e+02 </wgt>
<wgt id='1091'> -2.8728648e+02 </wgt>
<wgt id='1092'> -2.8793844e+02 </wgt>
<wgt id='1093'> -2.8895811e+02 </wgt>
<wgt id='1094'> -2.8771675e+02 </wgt>
<wgt id='1095'> -2.8825181e+02 </wgt>
<wgt id='1096'> -2.8742074e+02 </wgt>
<wgt id='1097'> -2.8779920e+02 </wgt>
<wgt id='1098'> -2.8736852e+02 </wgt>
<wgt id='1099'> -2.8741598e+02 </wgt>
<wgt id='1100'> -2.8816606e+02 </wgt>
<wgt id='1101'> -2.8822593e+02 </wgt>
<wgt id='1102'> -2.8839220e+02 </wgt>
<wgt id='1103'> -2.8733971e+02 </wgt>
<wgt id='1104'> -2.8773275e+02 </wgt>
<wgt id='1105'> -2.8838650e+02 </wgt>
<wgt id='1106'> -2.8766381e+02 </wgt>
<wgt id='1107'> -2.8807278e+02 </wgt>
<wgt id='1108'> -2.8795677e+02 </wgt>
<wgt id='1109'> -2.8803424e+02 </wgt>
<wgt id='1110'> -2.8781415e+02 </wgt>
<wgt id='1111'> -2.6396181e+02 </wgt>
<wgt id='1112'> -3.1890311e+02 </wgt>
<wgt id='1113'> -2.8781415e+02 </wgt>
<wgt id='1114'> -2.8306146e+02 </wgt>
<wgt id='1115'> -2.8568189e+02 </wgt>
<wgt id='1116'> -2.7598696e+02 </wgt>
<wgt id='1117'> -2.8072333e+02 </wgt>
<wgt id='1118'> -2.7335125e+02 </wgt>
<wgt id='1119'> -3.0015295e+02 </wgt>
<wgt id='1120'> -2.9840907e+02 </wgt>
<wgt id='1121'> -2.8752388e+02 </wgt>
<wgt id='1122'> -2.7311069e+02 </wgt>
<wgt id='1123'> -2.8029713e+02 </wgt>
<wgt id='1124'> -2.6800138e+02 </wgt>
<wgt id='1125'> -3.0708959e+02 </wgt>
<wgt id='1126'> -2.8990773e+02 </wgt>
<wgt id='1127'> -3.0277796e+02 </wgt>
<wgt id='1128'> -2.7764024e+02 </wgt>
<wgt id='1129'> -2.7230866e+02 </wgt>
<wgt id='1130'> -2.8162803e+02 </wgt>
<wgt id='1131'> -2.8332116e+02 </wgt>
<wgt id='1132'> -2.7778361e+02 </wgt>
<wgt id='1133'> -2.7963556e+02 </wgt>
<wgt id='1134'> -2.8658927e+02 </wgt>
<wgt id='1135'> -2.8666022e+02 </wgt>
<wgt id='1136'> -2.7293523e+02 </wgt>
<wgt id='1137'> -2.9722833e+02 </wgt>
<wgt id='1138'> -2.9008028e+02 </wgt>
<wgt id='1139'> -2.7929662e+02 </wgt>
<wgt id='1140'> -2.8649538e+02 </wgt>
<wgt id='1141'> -2.8910644e+02 </wgt>
<wgt id='1142'> -2.8742242e+02 </wgt>
<wgt id='1143'> -3.0317811e+02 </wgt>
<wgt id='1144'> -2.8793605e+02 </wgt>
<wgt id='1145'> -2.8702623e+02 </wgt>
<wgt id='1146'> -2.9955264e+02 </wgt>
<wgt id='1147'> -2.9449050e+02 </wgt>
<wgt id='1148'> -2.5815337e+02 </wgt>
<wgt id='1149'> -3.0565051e+02 </wgt>
<wgt id='1150'> -2.7820830e+02 </wgt>
<wgt id='1151'> -3.0033868e+02 </wgt>
<wgt id='1152'> -3.0340913e+02 </wgt>
<wgt id='1153'> -2.9490210e+02 </wgt>
<wgt id='1154'> -2.8351542e+02 </wgt>
<wgt id='1155'> -3.0680507e+02 </wgt>
<wgt id='1156'> -2.8772453e+02 </wgt>
<wgt id='1157'> -2.8744586e+02 </wgt>
<wgt id='1158'> -2.7462911e+02 </wgt>
<wgt id='1159'> -3.0481036e+02 </wgt>
<wgt id='1160'> -2.8935841e+02 </wgt>
<wgt id='1161'> -3.0461191e+02 </wgt>
<wgt id='1162'> -2.8160083e+02 </wgt>
<wgt id='1163'> -2.7746139e+02 </wgt>
<wgt id='1164'> -2.9785930e+02 </wgt>
<wgt id='1165'> -2.9754300e+02 </wgt>
<wgt id='1166'> -2.8365039e+02 </wgt>
<wgt id='1167'> -2.9861621e+02 </wgt>
<wgt id='1168'> -2.8930557e+02 </wgt>
<wgt id='1169'> -2.9662493e+02 </wgt>
<wgt id='1170'> -2.8217403e+02 </wgt>
<wgt id='1171'> -3.1253557e+02 </wgt>
<wgt id='1172'> -2.7942265e+02 </wgt>
<wgt id='1173'> -2.9130523e+02 </wgt>
<wgt id='1174'> -2.8047459e+02 </wgt>
<wgt id='1175'> -2.8807806e+02 </wgt>
<wgt id='1176'> -2.8132517e+02 </wgt>
<wgt id='1177'> -2.8634394e+02 </wgt>
<wgt id='1178'> -2.8538156e+02 </wgt>
<wgt id='1179'> -3.1396605e+02 </wgt>
<wgt id='1180'> -2.8364694e+02 </wgt>
<wgt id='1181'> -2.9709420e+02 </wgt>
<wgt id='1182'> -2.8811367e+02 </wgt>
<wgt id='1183'> -2.8853776e+02 </wgt>
<wgt id='1184'> -2.8191466e+02 </wgt>
<wgt id='1185'> -2.6924246e+02 </wgt>
<wgt id='1186'> -2.7970067e+02 </wgt>
<wgt id='1187'> -2.6974644e+02 </wgt>
<wgt id='1188'> -2.7983038e+02 </wgt>
<wgt id='1189'> -2.9187409e+02 </wgt>
<wgt id='1190'> -2.8900659e+02 </wgt>
<wgt id='1191'> -2.6402592e+02 </wgt>
<wgt id='1192'> -2.7967401e+02 </wgt>
<wgt id='1193'> -2.9970996e+02 </wgt>
<wgt id='1194'> -2.9102639e+02 </wgt>
<wgt id='1195'> -2.7230866e+02 </wgt>
<wgt id='1196'> -2.9370554e+02 </wgt>
<wgt id='1197'> -2.8262096e+02 </wgt>
<wgt id='1198'> -2.8529935e+02 </wgt>
<wgt id='1199'> -3.1945001e+02 </wgt>
<wgt id='1200'> -2.8943519e+02 </wgt>
<wgt id='1201'> -2.9268062e+02 </wgt>
<wgt id='1202'> -3.0831745e+02 </wgt>
<wgt id='1203'> -2.9794184e+02 </wgt>
<wgt id='1204'> -2.7714211e+02 </wgt>
<wgt id='1205'> -3.0027131e+02 </wgt>
<wgt id='1206'> -2.8538902e+02 </wgt>
<wgt id='1207'> -2.8106440e+02 </wgt>
<wgt id='1208'> -2.8885986e+02 </wgt>
<wgt id='1209'> -2.6152386e+02 </wgt>
<wgt id='1210'> -3.0830812e+02 </wgt>
<wgt id='1211'> -2.8666255e+02 </wgt>
<wgt id='1212'> -2.8363233e+02 </wgt>
<wgt id='1213'> -2.7921594e+02 </wgt>
<wgt id='1214'> -2.8832986e+02 </wgt>
<wgt id='1215'> -2.8823186e+02 </wgt>
<wgt id='1216'> -2.8755093e+02 </wgt>
<wgt id='1217'> -2.8757948e+02 </wgt>
<wgt id='1218'> -2.8946347e+02 </wgt>
<wgt id='1219'> -2.8890381e+02 </wgt>
<wgt id='1220'> -2.8858286e+02 </wgt>
<wgt id='1221'> -2.8881770e+02 </wgt>
<wgt id='1222'> -2.8739981e+02 </wgt>
<wgt id='1223'> -2.8937845e+02 </wgt>
<wgt id='1224'> -2.8835221e+02 </wgt>
<wgt id='1225'> -2.8633837e+02 </wgt>
<wgt id='1226'> -2.8633072e+02 </wgt>
<wgt id='1227'> -2.8471259e+02 </wgt>
<wgt id='1228'> -2.8719899e+02 </wgt>
<wgt id='1229'> -2.8681278e+02 </wgt>
<wgt id='1230'> -2.8919716e+02 </wgt>
<wgt id='1231'> -2.8805247e+02 </wgt>
<wgt id='1232'> -2.8693563e+02 </wgt>
<wgt id='1233'> -2.8868813e+02 </wgt>
<wgt id='1234'> -2.8707287e+02 </wgt>
<wgt id='1235'> -2.8972351e+02 </wgt>
<wgt id='1236'> -2.8801971e+02 </wgt>
<wgt id='1237'> -2.8862263e+02 </wgt>
<wgt id='1238'> -2.8656724e+02 </wgt>
<wgt id='1239'> -2.8816833e+02 </wgt>
<wgt id='1240'> -2.8973284e+02 </wgt>
<wgt id='1241'> -2.8813847e+02 </wgt>
<wgt id='1242'> -2.8741622e+02 </wgt>
<wgt id='1243'> -2.8980976e+02 </wgt>
<wgt id='1244'> -2.8754903e+02 </wgt>
<wgt id='1245'> -2.8804410e+02 </wgt>
<wgt id='1246'> -2.8756965e+02 </wgt>
<wgt id='1247'> -2.8736916e+02 </wgt>
<wgt id='1248'> -2.9025640e+02 </wgt>
<wgt id='1249'> -2.8870475e+02 </wgt>
<wgt id='1250'> -2.8788699e+02 </wgt>
<wgt id='1251'> -2.9022691e+02 </wgt>
<wgt id='1252'> -2.8858532e+02 </wgt>
<wgt id='1253'> -2.8543170e+02 </wgt>
<wgt id='1254'> -2.8601311e+02 </wgt>
<wgt id='1255'> -2.8731446e+02 </wgt>
<wgt id='1256'> -2.9091659e+02 </wgt>
<wgt id='1257'> -2.8791862e+02 </wgt>
<wgt id='1258'> -2.8906115e+02 </wgt>
<wgt id='1259'> -2.8866413e+02 </wgt>
<wgt id='1260'> -2.8977246e+02 </wgt>
<wgt id='1261'> -2.8852556e+02 </wgt>
<wgt id='1262'> -2.8803745e+02 </wgt>
<wgt id='1263'> -2.8799901e+02 </wgt>
<wgt id='1264'> -2.8725658e+02 </wgt>
<wgt id='1265'> -2.8468448e+02 </wgt>
<wgt id='1266'> -2.8612440e+02 </wgt>
<wgt id='1267'> -2.8791678e+02 </wgt>
<wgt id='1268'> -2.8821996e+02 </wgt>
<wgt id='1269'> -2.8785526e+02 </wgt>
<wgt id='1270'> -2.8730266e+02 </wgt>
<wgt id='1271'> -2.8546062e+02 </wgt>
<wgt id='1272'> -2.8798714e+02 </wgt>
<wgt id='1273'> -2.8791464e+02 </wgt>
<wgt id='1274'> -2.8923557e+02 </wgt>
<wgt id='1275'> -2.8711055e+02 </wgt>
<wgt id='1276'> -2.8504685e+02 </wgt>
<wgt id='1277'> -2.9081957e+02 </wgt>
<wgt id='1278'> -2.8858875e+02 </wgt>
<wgt id='1279'> -2.9012759e+02 </wgt>
<wgt id='1280'> -2.9047276e+02 </wgt>
<wgt id='1281'> -2.8805040e+02 </wgt>
<wgt id='1282'> -2.8831736e+02 </wgt>
<wgt id='1283'> -2.8947413e+02 </wgt>
<wgt id='1284'> -2.8529914e+02 </wgt>
<wgt id='1285'> -2.8858082e+02 </wgt>
<wgt id='1286'> -2.8870865e+02 </wgt>
<wgt id='1287'> -2.8673170e+02 </wgt>
<wgt id='1288'> -2.8786380e+02 </wgt>
<wgt id='1289'> -2.8734521e+02 </wgt>
<wgt id='1290'> -2.8858676e+02 </wgt>
<wgt id='1291'> -2.8613311e+02 </wgt>
<wgt id='1292'> -2.8902850e+02 </wgt>
<wgt id='1293'> -2.8818465e+02 </wgt>
<wgt id='1294'> -2.8950618e+02 </wgt>
<wgt id='1295'> -2.8889810e+02 </wgt>
<wgt id='1296'> -2.8896271e+02 </wgt>
<wgt id='1297'> -2.8900353e+02 </wgt>
<wgt id='1298'> -2.8809929e+02 </wgt>
<wgt id='1299'> -2.8937785e+02 </wgt>
<wgt id='1300'> -2.8838079e+02 </wgt>
<wgt id='1301'> -2.8743572e+02 </wgt>
<wgt id='1302'> -2.8808479e+02 </wgt>
<wgt id='1303'> -2.8736207e+02 </wgt>
<wgt id='1304'> -2.8958414e+02 </wgt>
<wgt id='1305'> -2.8843480e+02 </wgt>
<wgt id='1306'> -2.8829296e+02 </wgt>
<wgt id='1307'> -2.8912500e+02 </wgt>
<wgt id='1308'> -2.8768147e+02 </wgt>
<wgt id='1309'> -2.8834369e+02 </wgt>
<wgt id='1310'> -2.8804169e+02 </wgt>
<wgt id='1311'> -2.8967015e+02 </wgt>
<wgt id='1312'> -2.8788902e+02 </wgt>
<wgt id='1313'> -2.8935295e+02 </wgt>
<wgt id='1314'> -2.8790921e+02 </wgt>
<wgt id='1315'> -2.6396181e+02 </wgt>
<wgt id='1316'> -3.1890311e+02 </wgt>
<wgt id='1317'> -1.8310662e+02 </wgt>
<wgt id='1318'> -2.0181458e+02 </wgt>
<wgt id='1319'> -2.1985738e+02 </wgt>
<wgt id='1320'> -2.3956223e+02 </wgt>
<wgt id='1321'> -2.7565353e+02 </wgt>
<wgt id='1322'> -3.0149904e+02 </wgt>
<wgt id='1323'> -3.4622097e+02 </wgt>
<wgt id='1324'> -3.7894358e+02 </wgt>
<wgt id='1325'> -3.0987562e+02 </wgt>
<wgt id='1326'> -3.0932271e+02 </wgt>
<wgt id='1327'> -3.0939846e+02 </wgt>
<wgt id='1328'> -3.0941059e+02 </wgt>
<wgt id='1329'> -3.1065756e+02 </wgt>
<wgt id='1330'> -3.0958123e+02 </wgt>
<wgt id='1331'> -3.0980597e+02 </wgt>
<wgt id='1332'> -3.1072605e+02 </wgt>
<wgt id='1333'> -3.1040709e+02 </wgt>
<wgt id='1334'> -3.1181579e+02 </wgt>
<wgt id='1335'> -3.1080630e+02 </wgt>
<wgt id='1336'> -3.0810582e+02 </wgt>
<wgt id='1337'> -3.0773335e+02 </wgt>
<wgt id='1338'> -3.1216036e+02 </wgt>
<wgt id='1339'> -3.0948503e+02 </wgt>
<wgt id='1340'> -3.0820338e+02 </wgt>
<wgt id='1341'> -3.0839163e+02 </wgt>
<wgt id='1342'> -3.0859971e+02 </wgt>
<wgt id='1343'> -3.1045642e+02 </wgt>
<wgt id='1344'> -3.1192063e+02 </wgt>
<wgt id='1345'> -3.1087457e+02 </wgt>
<wgt id='1346'> -3.1107437e+02 </wgt>
<wgt id='1347'> -3.1061999e+02 </wgt>
<wgt id='1348'> -3.1142913e+02 </wgt>
<wgt id='1349'> -3.0942575e+02 </wgt>
<wgt id='1350'> -3.1039871e+02 </wgt>
<wgt id='1351'> -3.1002741e+02 </wgt>
<wgt id='1352'> -3.0976347e+02 </wgt>
<wgt id='1353'> -3.0978045e+02 </wgt>
<wgt id='1354'> -3.0732270e+02 </wgt>
<wgt id='1355'> -3.1116710e+02 </wgt>
<wgt id='1356'> -3.1035474e+02 </wgt>
<wgt id='1357'> -3.1126089e+02 </wgt>
<wgt id='1358'> -3.1182771e+02 </wgt>
<wgt id='1359'> -3.0922228e+02 </wgt>
<wgt id='1360'> -3.1488637e+02 </wgt>
<wgt id='1361'> -3.1074115e+02 </wgt>
<wgt id='1362'> -3.0855614e+02 </wgt>
<wgt id='1363'> -3.1053784e+02 </wgt>
<wgt id='1364'> -3.1097184e+02 </wgt>
<wgt id='1365'> -3.0810928e+02 </wgt>
<wgt id='1366'> -3.0967426e+02 </wgt>
<wgt id='1367'> -3.1016972e+02 </wgt>
<wgt id='1368'> -3.1090018e+02 </wgt>
<wgt id='1369'> -3.0915908e+02 </wgt>
<wgt id='1370'> -3.1024095e+02 </wgt>
<wgt id='1371'> -3.0796303e+02 </wgt>
<wgt id='1372'> -3.1030101e+02 </wgt>
<wgt id='1373'> -3.0863192e+02 </wgt>
<wgt id='1374'> -3.0967860e+02 </wgt>
<wgt id='1375'> -3.1166919e+02 </wgt>
<wgt id='1376'> -3.0924892e+02 </wgt>
<wgt id='1377'> -3.1052673e+02 </wgt>
<wgt id='1378'> -3.0852944e+02 </wgt>
<wgt id='1379'> -3.0884703e+02 </wgt>
<wgt id='1380'> -3.1256386e+02 </wgt>
<wgt id='1381'> -3.0752351e+02 </wgt>
<wgt id='1382'> -3.0767170e+02 </wgt>
<wgt id='1383'> -3.1128609e+02 </wgt>
<wgt id='1384'> -3.0784746e+02 </wgt>
<wgt id='1385'> -3.1232590e+02 </wgt>
<wgt id='1386'> -3.0697857e+02 </wgt>
<wgt id='1387'> -3.1049867e+02 </wgt>
<wgt id='1388'> -3.0667084e+02 </wgt>
<wgt id='1389'> -3.1053063e+02 </wgt>
<wgt id='1390'> -3.0726518e+02 </wgt>
<wgt id='1391'> -3.1067503e+02 </wgt>
<wgt id='1392'> -3.0710163e+02 </wgt>
<wgt id='1393'> -3.1087991e+02 </wgt>
<wgt id='1394'> -3.0887196e+02 </wgt>
<wgt id='1395'> -3.0970903e+02 </wgt>
<wgt id='1396'> -3.0932447e+02 </wgt>
<wgt id='1397'> -3.0950232e+02 </wgt>
<wgt id='1398'> -3.0997324e+02 </wgt>
<wgt id='1399'> -3.1189976e+02 </wgt>
<wgt id='1400'> -3.1019095e+02 </wgt>
<wgt id='1401'> -3.1110853e+02 </wgt>
<wgt id='1402'> -3.1051105e+02 </wgt>
<wgt id='1403'> -3.0998212e+02 </wgt>
<wgt id='1404'> -3.0781572e+02 </wgt>
<wgt id='1405'> -3.0928643e+02 </wgt>
<wgt id='1406'> -3.0972596e+02 </wgt>
<wgt id='1407'> -3.0879581e+02 </wgt>
<wgt id='1408'> -3.0865098e+02 </wgt>
<wgt id='1409'> -3.0834580e+02 </wgt>
<wgt id='1410'> -3.1086842e+02 </wgt>
<wgt id='1411'> -3.0910664e+02 </wgt>
<wgt id='1412'> -3.0804244e+02 </wgt>
<wgt id='1413'> -3.0844539e+02 </wgt>
<wgt id='1414'> -3.0933131e+02 </wgt>
<wgt id='1415'> -3.0992321e+02 </wgt>
<wgt id='1416'> -3.0893876e+02 </wgt>
<wgt id='1417'> -3.1036473e+02 </wgt>
<wgt id='1418'> -3.1037927e+02 </wgt>
<wgt id='1419'> -3.1025686e+02 </wgt>
<wgt id='1420'> -3.1074518e+02 </wgt>
<wgt id='1421'> -3.0914307e+02 </wgt>
<wgt id='1422'> -3.0984662e+02 </wgt>
<wgt id='1423'> -3.1026533e+02 </wgt>
<wgt id='1424'> -3.1027039e+02 </wgt>
<wgt id='1425'> -3.1066778e+02 </wgt>
<wgt id='1426'> -2.8447484e+02 </wgt>
<wgt id='1427'> -3.3559900e+02 </wgt>
<wgt id='1428'> -3.4334768e+02 </wgt>
<wgt id='1429'> -3.5146665e+02 </wgt>
<wgt id='1430'> -3.4512893e+02 </wgt>
<wgt id='1431'> -3.4812915e+02 </wgt>
<wgt id='1432'> -3.4366169e+02 </wgt>
<wgt id='1433'> -3.6996081e+02 </wgt>
<wgt id='1434'> -3.5195510e+02 </wgt>
<wgt id='1435'> -3.5001951e+02 </wgt>
<wgt id='1436'> -3.5254555e+02 </wgt>
<wgt id='1437'> -3.4665466e+02 </wgt>
<wgt id='1438'> -3.4301080e+02 </wgt>
<wgt id='1439'> -3.5581412e+02 </wgt>
<wgt id='1440'> -3.3119261e+02 </wgt>
<wgt id='1441'> -3.3663287e+02 </wgt>
<wgt id='1442'> -3.5184319e+02 </wgt>
<wgt id='1443'> -3.2819871e+02 </wgt>
<wgt id='1444'> -3.8908145e+02 </wgt>
<wgt id='1445'> -3.4125349e+02 </wgt>
<wgt id='1446'> -3.4568302e+02 </wgt>
<wgt id='1447'> -3.3598249e+02 </wgt>
<wgt id='1448'> -3.4963592e+02 </wgt>
<wgt id='1449'> -3.3438705e+02 </wgt>
<wgt id='1450'> -3.4909306e+02 </wgt>
<wgt id='1451'> -3.3768285e+02 </wgt>
<wgt id='1452'> -3.5021386e+02 </wgt>
<wgt id='1453'> -3.4437897e+02 </wgt>
<wgt id='1454'> -3.4251607e+02 </wgt>
<wgt id='1455'> -3.3376018e+02 </wgt>
<wgt id='1456'> -3.6022616e+02 </wgt>
<wgt id='1457'> -3.6694886e+02 </wgt>
<wgt id='1458'> -3.2958489e+02 </wgt>
<wgt id='1459'> -3.5663219e+02 </wgt>
<wgt id='1460'> -3.2507645e+02 </wgt>
<wgt id='1461'> -3.4130154e+02 </wgt>
<wgt id='1462'> -3.4570250e+02 </wgt>
<wgt id='1463'> -3.4179696e+02 </wgt>
<wgt id='1464'> -3.4458072e+02 </wgt>
<wgt id='1465'> -3.3591193e+02 </wgt>
<wgt id='1466'> -3.5207546e+02 </wgt>
<wgt id='1467'> -3.4342114e+02 </wgt>
<wgt id='1468'> -3.4274343e+02 </wgt>
<wgt id='1469'> -3.6894596e+02 </wgt>
<wgt id='1470'> -3.3413774e+02 </wgt>
<wgt id='1471'> -3.0753072e+02 </wgt>
<wgt id='1472'> -3.8792828e+02 </wgt>
<wgt id='1473'> -3.4104323e+02 </wgt>
<wgt id='1474'> -3.4951556e+02 </wgt>
<wgt id='1475'> -3.4855947e+02 </wgt>
<wgt id='1476'> -3.3461042e+02 </wgt>
<wgt id='1477'> -3.4862377e+02 </wgt>
<wgt id='1478'> -3.3280568e+02 </wgt>
<wgt id='1479'> -3.3866980e+02 </wgt>
<wgt id='1480'> -3.4759307e+02 </wgt>
<wgt id='1481'> -3.0943759e+02 </wgt>
<wgt id='1482'> -3.0928108e+02 </wgt>
<wgt id='1483'> -3.4142545e+02 </wgt>
<wgt id='1484'> -3.5151091e+02 </wgt>
<wgt id='1485'> -3.0794851e+02 </wgt>
<wgt id='1486'> -3.8664341e+02 </wgt>
<wgt id='1487'> -3.3084283e+02 </wgt>
<wgt id='1488'> -3.3163692e+02 </wgt>
<wgt id='1489'> -3.2558621e+02 </wgt>
<wgt id='1490'> -3.2962239e+02 </wgt>
<wgt id='1491'> -3.3964460e+02 </wgt>
<wgt id='1492'> -3.1219562e+02 </wgt>
<wgt id='1493'> -3.4384364e+02 </wgt>
<wgt id='1494'> -3.2907827e+02 </wgt>
<wgt id='1495'> -3.3106593e+02 </wgt>
<wgt id='1496'> -3.6042199e+02 </wgt>
<wgt id='1497'> -3.0145868e+02 </wgt>
<wgt id='1498'> -3.3234860e+02 </wgt>
<wgt id='1499'> -3.2933626e+02 </wgt>
<wgt id='1500'> -3.8098394e+02 </wgt>
<wgt id='1501'> -3.0166536e+02 </wgt>
<wgt id='1502'> -3.4243025e+02 </wgt>
<wgt id='1503'> -3.2299112e+02 </wgt>
<wgt id='1504'> -3.2784143e+02 </wgt>
<wgt id='1505'> -3.3441947e+02 </wgt>
<wgt id='1506'> -3.1173018e+02 </wgt>
<wgt id='1507'> -3.5255979e+02 </wgt>
<wgt id='1508'> -3.2425974e+02 </wgt>
<wgt id='1509'> -3.4401310e+02 </wgt>
<wgt id='1510'> -3.4501263e+02 </wgt>
<wgt id='1511'> -3.1796446e+02 </wgt>
<wgt id='1512'> -3.3123414e+02 </wgt>
<wgt id='1513'> -3.3043278e+02 </wgt>
<wgt id='1514'> -3.3799390e+02 </wgt>
<wgt id='1515'> -3.2104042e+02 </wgt>
<wgt id='1516'> -3.3707425e+02 </wgt>
<wgt id='1517'> -3.2867182e+02 </wgt>
<wgt id='1518'> -3.2918819e+02 </wgt>
<wgt id='1519'> -3.3303908e+02 </wgt>
<wgt id='1520'> -3.3457175e+02 </wgt>
<wgt id='1521'> -3.2276621e+02 </wgt>
<wgt id='1522'> -3.1895321e+02 </wgt>
<wgt id='1523'> -3.4141202e+02 </wgt>
<wgt id='1524'> -3.1265862e+02 </wgt>
<wgt id='1525'> -3.5987410e+02 </wgt>
<wgt id='1526'> -3.2135066e+02 </wgt>
<wgt id='1527'> -3.3965861e+02 </wgt>
<wgt id='1528'> -3.3986049e+02 </wgt>
<wgt id='1529'> -3.1983418e+02 </wgt>
<wgt id='1530'> -3.4235984e+02 </wgt>
<wgt id='1531'> -3.1751528e+02 </wgt>
<wgt id='1532'> -3.3645686e+02 </wgt>
<wgt id='1533'> -3.3574419e+02 </wgt>
<wgt id='1534'> -3.4019684e+02 </wgt>
<wgt id='1535'> -3.4013178e+02 </wgt>
<wgt id='1536'> -3.3954475e+02 </wgt>
<wgt id='1537'> -3.5325927e+02 </wgt>
<wgt id='1538'> -3.3364318e+02 </wgt>
<wgt id='1539'> -3.3726277e+02 </wgt>
<wgt id='1540'> -3.1382193e+02 </wgt>
<wgt id='1541'> -3.3500756e+02 </wgt>
<wgt id='1542'> -3.2882915e+02 </wgt>
<wgt id='1543'> -3.3598657e+02 </wgt>
<wgt id='1544'> -3.0065033e+02 </wgt>
<wgt id='1545'> -3.6819787e+02 </wgt>
<wgt id='1546'> -4.0863630e+02 </wgt>
<wgt id='1547'> -2.9855768e+02 </wgt>
<wgt id='1548'> -2.9867692e+02 </wgt>
<wgt id='1549'> -2.9842529e+02 </wgt>
<wgt id='1550'> -2.9880656e+02 </wgt>
<wgt id='1551'> -2.9838456e+02 </wgt>
<wgt id='1552'> -3.0006088e+02 </wgt>
<wgt id='1553'> -2.9715929e+02 </wgt>
<wgt id='1554'> -2.9934277e+02 </wgt>
<wgt id='1555'> -2.9768764e+02 </wgt>
<wgt id='1556'> -2.9761698e+02 </wgt>
<wgt id='1557'> -2.9946530e+02 </wgt>
<wgt id='1558'> -2.9821714e+02 </wgt>
<wgt id='1559'> -2.9929065e+02 </wgt>
<wgt id='1560'> -2.9803271e+02 </wgt>
<wgt id='1561'> -2.9949168e+02 </wgt>
<wgt id='1562'> -2.9915528e+02 </wgt>
<wgt id='1563'> -2.9822209e+02 </wgt>
<wgt id='1564'> -2.9939375e+02 </wgt>
<wgt id='1565'> -2.9752495e+02 </wgt>
<wgt id='1566'> -2.9733925e+02 </wgt>
<wgt id='1567'> -2.9959924e+02 </wgt>
<wgt id='1568'> -2.9802099e+02 </wgt>
<wgt id='1569'> -2.9923304e+02 </wgt>
<wgt id='1570'> -3.0017610e+02 </wgt>
<wgt id='1571'> -2.9733476e+02 </wgt>
<wgt id='1572'> -3.0674891e+02 </wgt>
<wgt id='1573'> -2.9071068e+02 </wgt>
<wgt id='1574'> -2.9825831e+02 </wgt>
<wgt id='1575'> -2.9856254e+02 </wgt>
<wgt id='1576'> -2.9252240e+02 </wgt>
<wgt id='1577'> -3.0606800e+02 </wgt>
<wgt id='1578'> -2.8889282e+02 </wgt>
<wgt id='1579'> -3.1015685e+02 </wgt>
<wgt id='1580'> -3.0223674e+02 </wgt>
<wgt id='1581'> -2.9516003e+02 </wgt>
<wgt id='1582'> -3.0028034e+02 </wgt>
<wgt id='1583'> -2.9307087e+02 </wgt>
<wgt id='1584'> -2.9764494e+02 </wgt>
<wgt id='1585'> -2.9861518e+02 </wgt>
<wgt id='1586'> -2.9625302e+02 </wgt>
<wgt id='1587'> -3.0110425e+02 </wgt>
<wgt id='1588'> -2.9247888e+02 </wgt>
<wgt id='1589'> -3.0562851e+02 </wgt>
<wgt id='1590'> -2.9718828e+02 </wgt>
<wgt id='1591'> -3.0030048e+02 </wgt>
<wgt id='1592'> -2.9708682e+02 </wgt>
<wgt id='1593'> -3.0220408e+02 </wgt>
<wgt id='1594'> -2.9119356e+02 </wgt>
<wgt id='1595'> -3.1340846e+02 </wgt>
<wgt id='1596'> -2.9334671e+02 </wgt>
<wgt id='1597'> -3.0223949e+02 </wgt>
<wgt id='1598'> -3.4167512e+02 </wgt>
<wgt id='1599'> -3.4162449e+02 </wgt>
<wgt id='1600'> -3.4174189e+02 </wgt>
<wgt id='1601'> -3.4248641e+02 </wgt>
<wgt id='1602'> -3.4086605e+02 </wgt>
<wgt id='1603'> -3.4249269e+02 </wgt>
<wgt id='1604'> -3.4134883e+02 </wgt>
<wgt id='1605'> -3.4338297e+02 </wgt>
<wgt id='1606'> -3.3997654e+02 </wgt>
<wgt id='1607'> -3.4124506e+02 </wgt>
<wgt id='1608'> -3.4208717e+02 </wgt>
<wgt id='1609'> -3.4339364e+02 </wgt>
<wgt id='1610'> -3.4093490e+02 </wgt>
<wgt id='1611'> -3.4128730e+02 </wgt>
<wgt id='1612'> -3.4214694e+02 </wgt>
<wgt id='1613'> -3.4141642e+02 </wgt>
<wgt id='1614'> -3.4196394e+02 </wgt>
<wgt id='1615'> -3.4094144e+02 </wgt>
<wgt id='1616'> -3.4207503e+02 </wgt>
<wgt id='1617'> -3.4310444e+02 </wgt>
<wgt id='1618'> -3.3971480e+02 </wgt>
<wgt id='1619'> -3.4185169e+02 </wgt>
<wgt id='1620'> -3.4155165e+02 </wgt>
<wgt id='1621'> -3.3917192e+02 </wgt>
<wgt id='1622'> -3.4409777e+02 </wgt>
<wgt id='1623'> -3.3984307e+02 </wgt>
<wgt id='1624'> -3.4610920e+02 </wgt>
<wgt id='1625'> -3.3937661e+02 </wgt>
<wgt id='1626'> -3.4342697e+02 </wgt>
<wgt id='1627'> -3.4932111e+02 </wgt>
<wgt id='1628'> -3.2303115e+02 </wgt>
<wgt id='1629'> -3.3579301e+02 </wgt>
<wgt id='1630'> -3.5408399e+02 </wgt>
<wgt id='1631'> -3.4406537e+02 </wgt>
<wgt id='1632'> -3.3687024e+02 </wgt>
<wgt id='1633'> -3.3182791e+02 </wgt>
<wgt id='1634'> -3.4590269e+02 </wgt>
<wgt id='1635'> -3.4125254e+02 </wgt>
<wgt id='1636'> -3.4241009e+02 </wgt>
<wgt id='1637'> -3.3758711e+02 </wgt>
<wgt id='1638'> -3.4468743e+02 </wgt>
<wgt id='1639'> -3.5233564e+02 </wgt>
<wgt id='1640'> -3.2621928e+02 </wgt>
<wgt id='1641'> -3.4252750e+02 </wgt>
<wgt id='1642'> -3.3844629e+02 </wgt>
<wgt id='1643'> -3.5036378e+02 </wgt>
<wgt id='1644'> -3.3572570e+02 </wgt>
<wgt id='1645'> -3.3997193e+02 </wgt>
<wgt id='1646'> -3.4241396e+02 </wgt>
<wgt id='1647'> -3.5104178e+02 </wgt>
<wgt id='1648'> -3.3510188e+02 </wgt>
<wgt id='1649'> -5.3435065e+02 </wgt>
<wgt id='1650'> -2.7826740e+02 </wgt>
<wgt id='1651'> -2.7821348e+02 </wgt>
<wgt id='1652'> -2.7828850e+02 </wgt>
<wgt id='1653'> -2.7830071e+02 </wgt>
<wgt id='1654'> -2.7826261e+02 </wgt>
<wgt id='1655'> -2.7808337e+02 </wgt>
<wgt id='1656'> -2.7888021e+02 </wgt>
<wgt id='1657'> -2.7933006e+02 </wgt>
<wgt id='1658'> -2.7795590e+02 </wgt>
<wgt id='1659'> -2.7863155e+02 </wgt>
<wgt id='1660'> -2.7792247e+02 </wgt>
<wgt id='1661'> -2.7822425e+02 </wgt>
<wgt id='1662'> -2.7773071e+02 </wgt>
<wgt id='1663'> -2.7741450e+02 </wgt>
<wgt id='1664'> -2.7905361e+02 </wgt>
<wgt id='1665'> -2.7795781e+02 </wgt>
<wgt id='1666'> -2.7950460e+02 </wgt>
<wgt id='1667'> -2.7870195e+02 </wgt>
<wgt id='1668'> -2.8011817e+02 </wgt>
<wgt id='1669'> -2.7516096e+02 </wgt>
<wgt id='1670'> -2.8230859e+02 </wgt>
<wgt id='1671'> -2.7666705e+02 </wgt>
<wgt id='1672'> -2.8680928e+02 </wgt>
<wgt id='1673'> -2.7539353e+02 </wgt>
<wgt id='1674'> -2.7301987e+02 </wgt>
<wgt id='1675'> -2.7265326e+02 </wgt>
<wgt id='1676'> -2.7631490e+02 </wgt>
<wgt id='1677'> -2.7984872e+02 </wgt>
<wgt id='1678'> -2.7796035e+02 </wgt>
<wgt id='1679'> -3.0244612e+02 </wgt>
<wgt id='1680'> -3.2021480e+02 </wgt>
<wgt id='1681'> -3.1242760e+02 </wgt>
<wgt id='1682'> -3.1663867e+02 </wgt>
<wgt id='1683'> -3.2034355e+02 </wgt>
<wgt id='1684'> -3.1760268e+02 </wgt>
<wgt id='1685'> -3.2338848e+02 </wgt>
<wgt id='1686'> -3.2029199e+02 </wgt>
<wgt id='1687'> -3.1697636e+02 </wgt>
<wgt id='1688'> -3.0736213e+02 </wgt>
<wgt id='1689'> -3.2359123e+02 </wgt>
<wgt id='1690'> -3.1180655e+02 </wgt>
<wgt id='1691'> -3.1622562e+02 </wgt>
<wgt id='1692'> -3.2983031e+02 </wgt>
<wgt id='1693'> -3.2839294e+02 </wgt>
<wgt id='1694'> -3.2252776e+02 </wgt>
<wgt id='1695'> -3.2181625e+02 </wgt>
<wgt id='1696'> -3.1637791e+02 </wgt>
<wgt id='1697'> -3.2764484e+02 </wgt>
<wgt id='1698'> -3.2759117e+02 </wgt>
<wgt id='1699'> -3.2906902e+02 </wgt>
<wgt id='1700'> -3.0293424e+02 </wgt>
<wgt id='1701'> -3.2334089e+02 </wgt>
<wgt id='1702'> -3.2881544e+02 </wgt>
<wgt id='1703'> -3.1245209e+02 </wgt>
<wgt id='1704'> -3.2828379e+02 </wgt>
<wgt id='1705'> -3.2143616e+02 </wgt>
<wgt id='1706'> -3.1967061e+02 </wgt>
<wgt id='1707'> -3.2073581e+02 </wgt>
<wgt id='1708'> -3.2046512e+02 </wgt>
<wgt id='1709'> -3.1927611e+02 </wgt>
<wgt id='1710'> -3.1821321e+02 </wgt>
<wgt id='1711'> -3.1964602e+02 </wgt>
<wgt id='1712'> -3.1885319e+02 </wgt>
<wgt id='1713'> -3.1824540e+02 </wgt>
<wgt id='1714'> -3.2001593e+02 </wgt>
<wgt id='1715'> -3.2271695e+02 </wgt>
<wgt id='1716'> -3.1875545e+02 </wgt>
<wgt id='1717'> -3.1940852e+02 </wgt>
<wgt id='1718'> -3.2099984e+02 </wgt>
<wgt id='1719'> -3.2007167e+02 </wgt>
<wgt id='1720'> -3.2175991e+02 </wgt>
<wgt id='1721'> -3.2058338e+02 </wgt>
<wgt id='1722'> -3.1867714e+02 </wgt>
<wgt id='1723'> -3.1840412e+02 </wgt>
<wgt id='1724'> -3.2127043e+02 </wgt>
<wgt id='1725'> -3.2087188e+02 </wgt>
<wgt id='1726'> -3.2087372e+02 </wgt>
<wgt id='1727'> -3.1939040e+02 </wgt>
<wgt id='1728'> -3.1875708e+02 </wgt>
<wgt id='1729'> -3.2082885e+02 </wgt>
<wgt id='1730'> -3.1976781e+02 </wgt>
<wgt id='1731'> -3.2052011e+02 </wgt>
<wgt id='1732'> -3.1958739e+02 </wgt>
<wgt id='1733'> -3.1921584e+02 </wgt>
<wgt id='1734'> -3.2016297e+02 </wgt>
<wgt id='1735'> -3.1969190e+02 </wgt>
<wgt id='1736'> -3.2017358e+02 </wgt>
<wgt id='1737'> -3.2056577e+02 </wgt>
<wgt id='1738'> -3.2021278e+02 </wgt>
<wgt id='1739'> -3.2019147e+02 </wgt>
<wgt id='1740'> -3.1972950e+02 </wgt>
<wgt id='1741'> -3.2062865e+02 </wgt>
<wgt id='1742'> -3.2028583e+02 </wgt>
<wgt id='1743'> -3.2014094e+02 </wgt>
<wgt id='1744'> -3.1993479e+02 </wgt>
<wgt id='1745'> -3.2044519e+02 </wgt>
<wgt id='1746'> -3.2074506e+02 </wgt>
<wgt id='1747'> -3.2017060e+02 </wgt>
<wgt id='1748'> -3.2040157e+02 </wgt>
<wgt id='1749'> -3.2024128e+02 </wgt>
<wgt id='1750'> -3.2015096e+02 </wgt>
<wgt id='1751'> -3.1970930e+02 </wgt>
<wgt id='1752'> -3.1990859e+02 </wgt>
<wgt id='1753'> -3.1991507e+02 </wgt>
<wgt id='1754'> -3.1987003e+02 </wgt>
<wgt id='1755'> -3.2004767e+02 </wgt>
<wgt id='1756'> -3.2048263e+02 </wgt>
<wgt id='1757'> -3.1969193e+02 </wgt>
<wgt id='1758'> -3.2045505e+02 </wgt>
<wgt id='1759'> -3.2079499e+02 </wgt>
<wgt id='1760'> -3.1974200e+02 </wgt>
<wgt id='1761'> -3.2028083e+02 </wgt>
<wgt id='1762'> -3.1992736e+02 </wgt>
<wgt id='1763'> -3.2013320e+02 </wgt>
<wgt id='1764'> -3.2071270e+02 </wgt>
<wgt id='1765'> -3.2047393e+02 </wgt>
<wgt id='1766'> -3.2104496e+02 </wgt>
<wgt id='1767'> -3.2042430e+02 </wgt>
<wgt id='1768'> -3.2008328e+02 </wgt>
<wgt id='1769'> -3.2025465e+02 </wgt>
<wgt id='1770'> -3.2010326e+02 </wgt>
<wgt id='1771'> -3.1967401e+02 </wgt>
<wgt id='1772'> -3.2016657e+02 </wgt>
<wgt id='1773'> -3.1992097e+02 </wgt>
<wgt id='1774'> -3.2001423e+02 </wgt>
<wgt id='1775'> -3.2013777e+02 </wgt>
<wgt id='1776'> -3.2015239e+02 </wgt>
<wgt id='1777'> -3.2044981e+02 </wgt>
<wgt id='1778'> -3.2040463e+02 </wgt>
<wgt id='1779'> -3.2039920e+02 </wgt>
<wgt id='1780'> -3.2030127e+02 </wgt>
<wgt id='1781'> -2.9889256e+02 </wgt>
<wgt id='1782'> -3.4608821e+02 </wgt>
<wgt id='1783'> -3.3348226e+02 </wgt>
<wgt id='1784'> -3.3686900e+02 </wgt>
<wgt id='1785'> -3.3050216e+02 </wgt>
<wgt id='1786'> -3.3998889e+02 </wgt>
<wgt id='1787'> -3.3710344e+02 </wgt>
<wgt id='1788'> -3.3667980e+02 </wgt>
<wgt id='1789'> -3.3455432e+02 </wgt>
<wgt id='1790'> -3.3026378e+02 </wgt>
<wgt id='1791'> -3.2927357e+02 </wgt>
<wgt id='1792'> -3.3597825e+02 </wgt>
<wgt id='1793'> -3.3620722e+02 </wgt>
<wgt id='1794'> -3.2564739e+02 </wgt>
<wgt id='1795'> -3.4203808e+02 </wgt>
<wgt id='1796'> -3.4608818e+02 </wgt>
<wgt id='1797'> -3.4031772e+02 </wgt>
<wgt id='1798'> -3.3098924e+02 </wgt>
<wgt id='1799'> -3.2705274e+02 </wgt>
<wgt id='1800'> -3.3498464e+02 </wgt>
<wgt id='1801'> -3.3665153e+02 </wgt>
<wgt id='1802'> -3.3726836e+02 </wgt>
<wgt id='1803'> -3.1628546e+02 </wgt>
<wgt id='1804'> -3.2363518e+02 </wgt>
<wgt id='1805'> -3.3850768e+02 </wgt>
<wgt id='1806'> -3.1773149e+02 </wgt>
<wgt id='1807'> -3.2932628e+02 </wgt>
<wgt id='1808'> -3.3686275e+02 </wgt>
<wgt id='1809'> -3.2878510e+02 </wgt>
<wgt id='1810'> -3.3577161e+02 </wgt>
<wgt id='1811'> -3.3700037e+02 </wgt>
<wgt id='1812'> -3.3312058e+02 </wgt>
<wgt id='1813'> -3.3251963e+02 </wgt>
<wgt id='1814'> -3.3415619e+02 </wgt>
<wgt id='1815'> -3.3502743e+02 </wgt>
<wgt id='1816'> -3.3567245e+02 </wgt>
<wgt id='1817'> -3.3530745e+02 </wgt>
<wgt id='1818'> -3.3295469e+02 </wgt>
<wgt id='1819'> -3.3442517e+02 </wgt>
<wgt id='1820'> -3.3342008e+02 </wgt>
<wgt id='1821'> -3.3484958e+02 </wgt>
<wgt id='1822'> -3.3323706e+02 </wgt>
<wgt id='1823'> -3.3241237e+02 </wgt>
<wgt id='1824'> -3.3388165e+02 </wgt>
<wgt id='1825'> -3.3482096e+02 </wgt>
<wgt id='1826'> -3.3092013e+02 </wgt>
<wgt id='1827'> -3.3505380e+02 </wgt>
<wgt id='1828'> -3.3303233e+02 </wgt>
<wgt id='1829'> -3.3298425e+02 </wgt>
<wgt id='1830'> -3.3366742e+02 </wgt>
<wgt id='1831'> -3.3388267e+02 </wgt>
<wgt id='1832'> -3.3266267e+02 </wgt>
<wgt id='1833'> -3.3380007e+02 </wgt>
<wgt id='1834'> -3.3426895e+02 </wgt>
<wgt id='1835'> -3.3393991e+02 </wgt>
<wgt id='1836'> -3.3368914e+02 </wgt>
<wgt id='1837'> -3.3314549e+02 </wgt>
<wgt id='1838'> -3.3330254e+02 </wgt>
<wgt id='1839'> -3.3324966e+02 </wgt>
<wgt id='1840'> -3.3320802e+02 </wgt>
<wgt id='1841'> -3.3244380e+02 </wgt>
<wgt id='1842'> -3.3337533e+02 </wgt>
<wgt id='1843'> -3.3353700e+02 </wgt>
<wgt id='1844'> -3.3320800e+02 </wgt>
<wgt id='1845'> -3.3380237e+02 </wgt>
<wgt id='1846'> -3.3325407e+02 </wgt>
<wgt id='1847'> -3.3372529e+02 </wgt>
<wgt id='1848'> -3.3314295e+02 </wgt>
<wgt id='1849'> -3.3327760e+02 </wgt>
<wgt id='1850'> -3.3316222e+02 </wgt>
<wgt id='1851'> -3.3364040e+02 </wgt>
<wgt id='1852'> -3.3389483e+02 </wgt>
<wgt id='1853'> -3.3357001e+02 </wgt>
<wgt id='1854'> -3.3365258e+02 </wgt>
<wgt id='1855'> -3.3357748e+02 </wgt>
<wgt id='1856'> -3.3337699e+02 </wgt>
<wgt id='1857'> -3.3365524e+02 </wgt>
<wgt id='1858'> -3.3304958e+02 </wgt>
<wgt id='1859'> -3.3346790e+02 </wgt>
<wgt id='1860'> -3.3383364e+02 </wgt>
<wgt id='1861'> -3.3352020e+02 </wgt>
<wgt id='1862'> -3.3330921e+02 </wgt>
<wgt id='1863'> -3.3392897e+02 </wgt>
<wgt id='1864'> -3.3358019e+02 </wgt>
<wgt id='1865'> -3.3335752e+02 </wgt>
<wgt id='1866'> -3.3354091e+02 </wgt>
<wgt id='1867'> -3.3299748e+02 </wgt>
<wgt id='1868'> -3.3296000e+02 </wgt>
<wgt id='1869'> -3.3385683e+02 </wgt>
<wgt id='1870'> -3.3263518e+02 </wgt>
<wgt id='1871'> -3.3314535e+02 </wgt>
<wgt id='1872'> -3.3330069e+02 </wgt>
<wgt id='1873'> -3.3366200e+02 </wgt>
<wgt id='1874'> -3.3326464e+02 </wgt>
<wgt id='1875'> -3.3343428e+02 </wgt>
<wgt id='1876'> -3.3343300e+02 </wgt>
<wgt id='1877'> -3.3312342e+02 </wgt>
<wgt id='1878'> -3.3350899e+02 </wgt>
<wgt id='1879'> -3.3336278e+02 </wgt>
<wgt id='1880'> -3.3346383e+02 </wgt>
<wgt id='1881'> -3.3350874e+02 </wgt>
<wgt id='1882'> -3.3328597e+02 </wgt>
<wgt id='1883'> -3.3353583e+02 </wgt>
<wgt id='1884'> -3.0710285e+02 </wgt>
<wgt id='1885'> -3.6426322e+02 </wgt>
<wgt id='1886'> -3.2020683e+02 </wgt>
<wgt id='1887'> -3.1211943e+02 </wgt>
<wgt id='1888'> -3.0887547e+02 </wgt>
<wgt id='1889'> -3.1805042e+02 </wgt>
<wgt id='1890'> -3.1429007e+02 </wgt>
<wgt id='1891'> -3.0394745e+02 </wgt>
<wgt id='1892'> -3.0813443e+02 </wgt>
<wgt id='1893'> -3.2038281e+02 </wgt>
<wgt id='1894'> -3.1714886e+02 </wgt>
<wgt id='1895'> -3.1662713e+02 </wgt>
<wgt id='1896'> -3.1915246e+02 </wgt>
<wgt id='1897'> -3.1454108e+02 </wgt>
<wgt id='1898'> -3.1826625e+02 </wgt>
<wgt id='1899'> -3.2227425e+02 </wgt>
<wgt id='1900'> -3.1999091e+02 </wgt>
<wgt id='1901'> -3.2146420e+02 </wgt>
<wgt id='1902'> -3.1990477e+02 </wgt>
<wgt id='1903'> -3.2520113e+02 </wgt>
<wgt id='1904'> -3.2433286e+02 </wgt>
<wgt id='1905'> -3.1615227e+02 </wgt>
<wgt id='1906'> -3.2189785e+02 </wgt>
<wgt id='1907'> -3.1707691e+02 </wgt>
<wgt id='1908'> -3.4024910e+02 </wgt>
<wgt id='1909'> -3.2050713e+02 </wgt>
<wgt id='1910'> -3.1878677e+02 </wgt>
<wgt id='1911'> -3.2002280e+02 </wgt>
<wgt id='1912'> -3.1829876e+02 </wgt>
<wgt id='1913'> -3.1984567e+02 </wgt>
<wgt id='1914'> -3.1706654e+02 </wgt>
<wgt id='1915'> -3.2044625e+02 </wgt>
<wgt id='1916'> -3.2102926e+02 </wgt>
<wgt id='1917'> -2.9889256e+02 </wgt>
<wgt id='1918'> -3.4608821e+02 </wgt>
<wgt id='1919'> -3.3345890e+02 </wgt>
<wgt id='1920'> -3.3478443e+02 </wgt>
<wgt id='1921'> -3.2983091e+02 </wgt>
<wgt id='1922'> -3.3560350e+02 </wgt>
<wgt id='1923'> -3.2738527e+02 </wgt>
<wgt id='1924'> -3.6634399e+02 </wgt>
<wgt id='1925'> -3.3345127e+02 </wgt>
<wgt id='1926'> -3.3443424e+02 </wgt>
<wgt id='1927'> -3.3440702e+02 </wgt>
<wgt id='1928'> -3.3388883e+02 </wgt>
<wgt id='1929'> -3.2966913e+02 </wgt>
<wgt id='1930'> -3.3369795e+02 </wgt>
<wgt id='1931'> -3.3194035e+02 </wgt>
<wgt id='1932'> -3.3214254e+02 </wgt>
<wgt id='1933'> -3.3214095e+02 </wgt>
<wgt id='1934'> -3.2957387e+02 </wgt>
<wgt id='1935'> -3.3483526e+02 </wgt>
<wgt id='1936'> -3.3215468e+02 </wgt>
<wgt id='1937'> -3.3350298e+02 </wgt>
<wgt id='1938'> -3.3558169e+02 </wgt>
<wgt id='1939'> -3.3313489e+02 </wgt>
<wgt id='1940'> -3.3365206e+02 </wgt>
<wgt id='1941'> -3.3026645e+02 </wgt>
<wgt id='1942'> -3.3424974e+02 </wgt>
<wgt id='1943'> -3.3286827e+02 </wgt>
<wgt id='1944'> -3.3265107e+02 </wgt>
<wgt id='1945'> -3.3448505e+02 </wgt>
<wgt id='1946'> -3.3583065e+02 </wgt>
<wgt id='1947'> -3.3348424e+02 </wgt>
<wgt id='1948'> -3.2691997e+02 </wgt>
<wgt id='1949'> -3.3381398e+02 </wgt>
<wgt id='1950'> -3.0710285e+02 </wgt>
<wgt id='1951'> -3.6426322e+02 </wgt>
<wgt id='1952'> -1.9187798e+02 </wgt>
<wgt id='1953'> -1.9186425e+02 </wgt>
<wgt id='1954'> -1.9189172e+02 </wgt>
<wgt id='1955'> -1.9146758e+02 </wgt>
<wgt id='1956'> -1.9228860e+02 </wgt>
<wgt id='1957'> -1.9116034e+02 </wgt>
<wgt id='1958'> -1.9259682e+02 </wgt>
<wgt id='1959'> -1.9232826e+02 </wgt>
<wgt id='1960'> -1.9142886e+02 </wgt>
<wgt id='1961'> -1.9214985e+02 </wgt>
<wgt id='1962'> -1.9162799e+02 </wgt>
<wgt id='1963'> -1.9171924e+02 </wgt>
<wgt id='1964'> -1.9210289e+02 </wgt>
<wgt id='1965'> -1.9258920e+02 </wgt>
<wgt id='1966'> -1.9116829e+02 </wgt>
<wgt id='1967'> -1.9200062e+02 </wgt>
<wgt id='1968'> -1.9184296e+02 </wgt>
<wgt id='1969'> -1.9139290e+02 </wgt>
<wgt id='1970'> -1.9262143e+02 </wgt>
<wgt id='1971'> -1.9580106e+02 </wgt>
<wgt id='1972'> -1.8827009e+02 </wgt>
<wgt id='1973'> -1.9264495e+02 </wgt>
<wgt id='1974'> -1.9144680e+02 </wgt>
<wgt id='1975'> -1.8977336e+02 </wgt>
<wgt id='1976'> -1.9531662e+02 </wgt>
<wgt id='1977'> -1.8982035e+02 </wgt>
<wgt id='1978'> -1.9356620e+02 </wgt>
<wgt id='1979'> -1.9461065e+02 </wgt>
<wgt id='1980'> -1.8953154e+02 </wgt>
<wgt id='1981'> -1.9187798e+02 </wgt>
<wgt id='1982'> -1.9287962e+02 </wgt>
<wgt id='1983'> -1.9064475e+02 </wgt>
<wgt id='1984'> -1.9292226e+02 </wgt>
<wgt id='1985'> -1.9107424e+02 </wgt>
<wgt id='1986'> -1.8758838e+02 </wgt>
<wgt id='1987'> -2.0264164e+02 </wgt>
<wgt id='1988'> -1.9272364e+02 </wgt>
<wgt id='1989'> -1.9139232e+02 </wgt>
<wgt id='1990'> -1.9383139e+02 </wgt>
<wgt id='1991'> -1.9016509e+02 </wgt>
<wgt id='1992'> -1.9231554e+02 </wgt>
<wgt id='1993'> -1.9037885e+02 </wgt>
<wgt id='1994'> -2.0110267e+02 </wgt>
<wgt id='1995'> -2.6304236e+02 </wgt>
<wgt id='1996'> -2.6289388e+02 </wgt>
<wgt id='1997'> -2.6323983e+02 </wgt>
<wgt id='1998'> -2.6273085e+02 </wgt>
<wgt id='1999'> -2.6340396e+02 </wgt>
<wgt id='2000'> -2.6216062e+02 </wgt>
<wgt id='2001'> -2.6397395e+02 </wgt>
<wgt id='2002'> -2.6338920e+02 </wgt>
<wgt id='2003'> -2.6275991e+02 </wgt>
<wgt id='2004'> -2.6248100e+02 </wgt>
<wgt id='2005'> -2.6369063e+02 </wgt>
<wgt id='2006'> -2.6430447e+02 </wgt>
<wgt id='2007'> -2.6187921e+02 </wgt>
<wgt id='2008'> -2.6334343e+02 </wgt>
<wgt id='2009'> -2.6277978e+02 </wgt>
<wgt id='2010'> -2.6431300e+02 </wgt>
<wgt id='2011'> -2.6149343e+02 </wgt>
<wgt id='2012'> -2.6178689e+02 </wgt>
<wgt id='2013'> -2.6452959e+02 </wgt>
<wgt id='2014'> -2.6835478e+02 </wgt>
<wgt id='2015'> -2.5809504e+02 </wgt>
<wgt id='2016'> -2.7430936e+02 </wgt>
<wgt id='2017'> -2.5354916e+02 </wgt>
<wgt id='2018'> -2.5589702e+02 </wgt>
<wgt id='2019'> -2.7052856e+02 </wgt>
<wgt id='2020'> -2.5396672e+02 </wgt>
<wgt id='2021'> -2.7245790e+02 </wgt>
<wgt id='2022'> -2.5806381e+02 </wgt>
<wgt id='2023'> -2.6763042e+02 </wgt>
<wgt id='2024'> -2.6291949e+02 </wgt>
<wgt id='2025'> -2.6431595e+02 </wgt>
<wgt id='2026'> -2.5955335e+02 </wgt>
<wgt id='2027'> -2.6499279e+02 </wgt>
<wgt id='2028'> -2.6234506e+02 </wgt>
<wgt id='2029'> -2.4197943e+02 </wgt>
<wgt id='2030'> -2.7963213e+02 </wgt>
<wgt id='2031'> -2.6439478e+02 </wgt>
<wgt id='2032'> -2.6157467e+02 </wgt>
<wgt id='2033'> -2.6742950e+02 </wgt>
<wgt id='2034'> -2.3865134e+02 </wgt>
<wgt id='2035'> -2.6586532e+02 </wgt>
<wgt id='2036'> -2.5671311e+02 </wgt>
<wgt id='2037'> -2.7825240e+02 </wgt>
<wgt id='2038'> -3.2879900e+02 </wgt>
<wgt id='2039'> -3.2878269e+02 </wgt>
<wgt id='2040'> -3.2876722e+02 </wgt>
<wgt id='2041'> -3.2875140e+02 </wgt>
<wgt id='2042'> -3.2873558e+02 </wgt>
<wgt id='2043'> -3.2872018e+02 </wgt>
<wgt id='2044'> -3.2870448e+02 </wgt>
<wgt id='2045'> -3.2868889e+02 </wgt>
<wgt id='2046'> -3.2867280e+02 </wgt>
<wgt id='2047'> -3.2865726e+02 </wgt>
<wgt id='2048'> -3.2864186e+02 </wgt>
<wgt id='2049'> -3.2862634e+02 </wgt>
<wgt id='2050'> -3.2860996e+02 </wgt>
<wgt id='2051'> -3.2859451e+02 </wgt>
<wgt id='2052'> -3.2857895e+02 </wgt>
<wgt id='2053'> -3.2856294e+02 </wgt>
<wgt id='2054'> -3.2854734e+02 </wgt>
<wgt id='2055'> -3.2853179e+02 </wgt>
<wgt id='2056'> -3.2851627e+02 </wgt>
<wgt id='2057'> -3.2849920e+02 </wgt>
<wgt id='2058'> -3.2848366e+02 </wgt>
<wgt id='2059'> -3.2846827e+02 </wgt>
<wgt id='2060'> -3.2845266e+02 </wgt>
<wgt id='2061'> -3.2843660e+02 </wgt>
<wgt id='2062'> -3.2842111e+02 </wgt>
<wgt id='2063'> -3.2840534e+02 </wgt>
<wgt id='2064'> -3.2838969e+02 </wgt>
<wgt id='2065'> -3.2837371e+02 </wgt>
<wgt id='2066'> -3.2835812e+02 </wgt>
<wgt id='2067'> -3.2834273e+02 </wgt>
<wgt id='2068'> -3.2832724e+02 </wgt>
<wgt id='2069'> -3.3083864e+02 </wgt>
<wgt id='2070'> -3.3420126e+02 </wgt>
<wgt id='2071'> -3.2787208e+02 </wgt>
<wgt id='2072'> -3.3730519e+02 </wgt>
<wgt id='2073'> -3.3443621e+02 </wgt>
<wgt id='2074'> -3.3401920e+02 </wgt>
<wgt id='2075'> -3.3190811e+02 </wgt>
<wgt id='2076'> -3.2763825e+02 </wgt>
<wgt id='2077'> -3.2666420e+02 </wgt>
<wgt id='2078'> -3.3332155e+02 </wgt>
<wgt id='2079'> -3.3355076e+02 </wgt>
<wgt id='2080'> -3.2307141e+02 </wgt>
<wgt id='2081'> -3.3932043e+02 </wgt>
<wgt id='2082'> -3.4334950e+02 </wgt>
<wgt id='2083'> -3.3759965e+02 </wgt>
<wgt id='2084'> -3.2834718e+02 </wgt>
<wgt id='2085'> -3.2446240e+02 </wgt>
<wgt id='2086'> -3.3232943e+02 </wgt>
<wgt id='2087'> -3.3398266e+02 </wgt>
<wgt id='2088'> -3.3459338e+02 </wgt>
<wgt id='2089'> -3.1379891e+02 </wgt>
<wgt id='2090'> -3.2106420e+02 </wgt>
<wgt id='2091'> -3.3582677e+02 </wgt>
<wgt id='2092'> -3.1521503e+02 </wgt>
<wgt id='2093'> -3.2671536e+02 </wgt>
<wgt id='2094'> -3.3418864e+02 </wgt>
<wgt id='2095'> -3.2617961e+02 </wgt>
<wgt id='2096'> -3.3310880e+02 </wgt>
<wgt id='2097'> -3.3432751e+02 </wgt>
<wgt id='2098'> -3.3048193e+02 </wgt>
<wgt id='2099'> -3.2988524e+02 </wgt>
<wgt id='2100'> -3.3150703e+02 </wgt>
<wgt id='2101'> -3.3237474e+02 </wgt>
<wgt id='2102'> -3.3301310e+02 </wgt>
<wgt id='2103'> -3.3264648e+02 </wgt>
<wgt id='2104'> -3.3031769e+02 </wgt>
<wgt id='2105'> -3.3177181e+02 </wgt>
<wgt id='2106'> -3.3078340e+02 </wgt>
<wgt id='2107'> -3.3219616e+02 </wgt>
<wgt id='2108'> -3.3059630e+02 </wgt>
<wgt id='2109'> -3.2977992e+02 </wgt>
<wgt id='2110'> -3.3122736e+02 </wgt>
<wgt id='2111'> -3.3215940e+02 </wgt>
<wgt id='2112'> -3.2830391e+02 </wgt>
<wgt id='2113'> -3.3239825e+02 </wgt>
<wgt id='2114'> -3.3038958e+02 </wgt>
<wgt id='2115'> -3.3034402e+02 </wgt>
<wgt id='2116'> -3.3101603e+02 </wgt>
<wgt id='2117'> -3.3123571e+02 </wgt>
<wgt id='2118'> -3.3002176e+02 </wgt>
<wgt id='2119'> -3.3115365e+02 </wgt>
<wgt id='2120'> -3.3162185e+02 </wgt>
<wgt id='2121'> -3.3129484e+02 </wgt>
<wgt id='2122'> -3.3104728e+02 </wgt>
<wgt id='2123'> -3.3050415e+02 </wgt>
<wgt id='2124'> -3.3065975e+02 </wgt>
<wgt id='2125'> -3.3060816e+02 </wgt>
<wgt id='2126'> -3.3056474e+02 </wgt>
<wgt id='2127'> -3.2981190e+02 </wgt>
<wgt id='2128'> -3.3073365e+02 </wgt>
<wgt id='2129'> -3.3089594e+02 </wgt>
<wgt id='2130'> -3.3056618e+02 </wgt>
<wgt id='2131'> -3.3115602e+02 </wgt>
<wgt id='2132'> -3.3061576e+02 </wgt>
<wgt id='2133'> -3.3107980e+02 </wgt>
<wgt id='2134'> -3.3050251e+02 </wgt>
<wgt id='2135'> -3.3063665e+02 </wgt>
<wgt id='2136'> -3.3052050e+02 </wgt>
<wgt id='2137'> -3.3099637e+02 </wgt>
<wgt id='2138'> -3.3124897e+02 </wgt>
<wgt id='2139'> -3.3092484e+02 </wgt>
<wgt id='2140'> -3.3100948e+02 </wgt>
<wgt id='2141'> -3.3093535e+02 </wgt>
<wgt id='2142'> -3.3073105e+02 </wgt>
<wgt id='2143'> -3.3101101e+02 </wgt>
<wgt id='2144'> -3.3040986e+02 </wgt>
<wgt id='2145'> -3.3082735e+02 </wgt>
<wgt id='2146'> -3.3118813e+02 </wgt>
<wgt id='2147'> -3.3088157e+02 </wgt>
<wgt id='2148'> -3.3066595e+02 </wgt>
<wgt id='2149'> -3.3128008e+02 </wgt>
<wgt id='2150'> -3.3093505e+02 </wgt>
<wgt id='2151'> -3.3071547e+02 </wgt>
<wgt id='2152'> -3.3089484e+02 </wgt>
<wgt id='2153'> -3.3035777e+02 </wgt>
<wgt id='2154'> -3.3032125e+02 </wgt>
<wgt id='2155'> -3.3121112e+02 </wgt>
<wgt id='2156'> -3.2999851e+02 </wgt>
<wgt id='2157'> -3.3050483e+02 </wgt>
<wgt id='2158'> -3.3065779e+02 </wgt>
<wgt id='2159'> -3.3101699e+02 </wgt>
<wgt id='2160'> -3.3062474e+02 </wgt>
<wgt id='2161'> -3.3079147e+02 </wgt>
<wgt id='2162'> -3.3078940e+02 </wgt>
<wgt id='2163'> -3.3048153e+02 </wgt>
<wgt id='2164'> -3.3086723e+02 </wgt>
<wgt id='2165'> -3.3071892e+02 </wgt>
<wgt id='2166'> -3.3082103e+02 </wgt>
<wgt id='2167'> -3.3086479e+02 </wgt>
<wgt id='2168'> -3.3064187e+02 </wgt>
<wgt id='2169'> -3.3089151e+02 </wgt>
<wgt id='2170'> -3.3083673e+02 </wgt>
<wgt id='2171'> -3.3082600e+02 </wgt>
<wgt id='2172'> -3.3084066e+02 </wgt>
<wgt id='2173'> -3.3084098e+02 </wgt>
<wgt id='2174'> -3.3084451e+02 </wgt>
<wgt id='2175'> -3.3083950e+02 </wgt>
<wgt id='2176'> -3.3083019e+02 </wgt>
<wgt id='2177'> -3.3299584e+02 </wgt>
<wgt id='2178'> -3.3278649e+02 </wgt>
<wgt id='2179'> -3.4980028e+02 </wgt>
<wgt id='2180'> -3.3005854e+02 </wgt>
<wgt id='2181'> -3.4300539e+02 </wgt>
<wgt id='2182'> -3.2464009e+02 </wgt>
<wgt id='2183'> -3.5510206e+02 </wgt>
<wgt id='2184'> -3.0998446e+02 </wgt>
<wgt id='2185'> -3.3479724e+02 </wgt>
<wgt id='2186'> -3.4009934e+02 </wgt>
<wgt id='2187'> -3.1076785e+02 </wgt>
<wgt id='2188'> -3.6206635e+02 </wgt>
<wgt id='2189'> -3.2187563e+02 </wgt>
<wgt id='2190'> -3.4998492e+02 </wgt>
<wgt id='2191'> -3.5847069e+02 </wgt>
<wgt id='2192'> -3.3553802e+02 </wgt>
<wgt id='2193'> -3.1677406e+02 </wgt>
<wgt id='2194'> -4.1059442e+02 </wgt>
<wgt id='2195'> -3.4661708e+02 </wgt>
<wgt id='2196'> -3.2164489e+02 </wgt>
<wgt id='2197'> -3.1262683e+02 </wgt>
<wgt id='2198'> -3.2019654e+02 </wgt>
<wgt id='2199'> -2.7212630e+02 </wgt>
<wgt id='2200'> -2.7914013e+02 </wgt>
<wgt id='2201'> -2.8713677e+02 </wgt>
<wgt id='2202'> -3.3216762e+02 </wgt>
<wgt id='2203'> -3.3381844e+02 </wgt>
<wgt id='2204'> -4.0183352e+02 </wgt>
<wgt id='2205'> -3.7174987e+02 </wgt>
<wgt id='2206'> -3.6714175e+02 </wgt>
<wgt id='2207'> -3.1813779e+02 </wgt>
<wgt id='2208'> -3.1399378e+02 </wgt>
<wgt id='2209'> -3.3771221e+02 </wgt>
<wgt id='2210'> -3.2724664e+02 </wgt>
<wgt id='2211'> -3.0894569e+02 </wgt>
<wgt id='2212'> -3.6112816e+02 </wgt>
<wgt id='2213'> -3.1390626e+02 </wgt>
<wgt id='2214'> -3.5371597e+02 </wgt>
<wgt id='2215'> -3.0080682e+02 </wgt>
<wgt id='2216'> -3.2035378e+02 </wgt>
<wgt id='2217'> -3.2297847e+02 </wgt>
<wgt id='2218'> -3.0171316e+02 </wgt>
<wgt id='2219'> -3.5304372e+02 </wgt>
<wgt id='2220'> -2.9906470e+02 </wgt>
<wgt id='2221'> -3.2663101e+02 </wgt>
<wgt id='2222'> -2.7331125e+02 </wgt>
<wgt id='2223'> -2.7555551e+02 </wgt>
<wgt id='2224'> -3.6225998e+02 </wgt>
<wgt id='2225'> -3.5367809e+02 </wgt>
<wgt id='2226'> -3.4018069e+02 </wgt>
<wgt id='2227'> -3.3193499e+02 </wgt>
<wgt id='2228'> -3.3338137e+02 </wgt>
<wgt id='2229'> -3.0366281e+02 </wgt>
<wgt id='2230'> -3.2948837e+02 </wgt>
<wgt id='2231'> -3.6605950e+02 </wgt>
<wgt id='2232'> -3.3133559e+02 </wgt>
<wgt id='2233'> -3.7120406e+02 </wgt>
<wgt id='2234'> -3.1975629e+02 </wgt>
<wgt id='2235'> -3.4388653e+02 </wgt>
<wgt id='2236'> -3.2988033e+02 </wgt>
<wgt id='2237'> -3.1153065e+02 </wgt>
<wgt id='2238'> -3.3459589e+02 </wgt>
<wgt id='2239'> -3.0686099e+02 </wgt>
<wgt id='2240'> -3.8630376e+02 </wgt>
<wgt id='2241'> -3.6064236e+02 </wgt>
<wgt id='2242'> -3.7514511e+02 </wgt>
<wgt id='2243'> -3.2981734e+02 </wgt>
<wgt id='2244'> -2.9251462e+02 </wgt>
<wgt id='2245'> -3.5405009e+02 </wgt>
<wgt id='2246'> -3.6759974e+02 </wgt>
<wgt id='2247'> -3.6199110e+02 </wgt>
<wgt id='2248'> -2.7580030e+02 </wgt>
<wgt id='2249'> -3.2971499e+02 </wgt>
<wgt id='2250'> -3.5097039e+02 </wgt>
<wgt id='2251'> -3.6503695e+02 </wgt>
<wgt id='2252'> -3.2673371e+02 </wgt>
<wgt id='2253'> -3.0421132e+02 </wgt>
<wgt id='2254'> -3.0158102e+02 </wgt>
<wgt id='2255'> -3.5844659e+02 </wgt>
<wgt id='2256'> -3.2777454e+02 </wgt>
<wgt id='2257'> -3.2774491e+02 </wgt>
<wgt id='2258'> -2.9351856e+02 </wgt>
<wgt id='2259'> -3.2080385e+02 </wgt>
<wgt id='2260'> -3.6989256e+02 </wgt>
<wgt id='2261'> -3.1893280e+02 </wgt>
<wgt id='2262'> -3.4847045e+02 </wgt>
<wgt id='2263'> -3.5380685e+02 </wgt>
<wgt id='2264'> -3.4016323e+02 </wgt>
<wgt id='2265'> -3.6024910e+02 </wgt>
<wgt id='2266'> -3.3039674e+02 </wgt>
<wgt id='2267'> -3.2908554e+02 </wgt>
<wgt id='2268'> -3.3440624e+02 </wgt>
<wgt id='2269'> -3.0058265e+02 </wgt>
<wgt id='2270'> -3.4664350e+02 </wgt>
<wgt id='2271'> -3.2123993e+02 </wgt>
<wgt id='2272'> -3.8255952e+02 </wgt>
<wgt id='2273'> -3.4779851e+02 </wgt>
<wgt id='2274'> -3.1844581e+02 </wgt>
<wgt id='2275'> -2.6451207e+02 </wgt>
<wgt id='2276'> -3.4685181e+02 </wgt>
<wgt id='2277'> -3.5251836e+02 </wgt>
<wgt id='2278'> -3.1491227e+02 </wgt>
<wgt id='2279'> -3.5189877e+02 </wgt>
<wgt id='2280'> -3.1734237e+02 </wgt>
<wgt id='2281'> -2.1817405e+02 </wgt>
<wgt id='2282'> -3.4879437e+02 </wgt>
<wgt id='2283'> -2.7859826e+02 </wgt>
<wgt id='2284'> -3.5578334e+02 </wgt>
</rwgt>
</event>
<event npLO=" -1 " npNLO=" 1 ">
 4      1 +2.8781417e+02 2.98837960e+01 7.54677110e-03 1.21280080e-01
       21 -1    0    0  503  501 +0.0000000000e+00 +0.0000000000e+00 +1.2874764000e+02 1.2874764000e+02 0.0000000000e+00 0.0000e+00 9.0000e+00
       21 -1    0    0  501  502 +0.0000000000e+00 +0.0000000000e+00 -4.9280740000e+01 4.9280740000e+01 0.0000000000e+00 0.0000e+00 9.0000e+00
       25  1    1    2    0    0 -8.6763713000e+00 +2.8596535000e+01 +9.7748742000e+01 1.4299601000e+02 1.0000000000e+02 0.0000e+00 9.0000e+00
       21  1    1    2  503  502 +8.6763713000e+00 -2.8596535000e+01 -1.8281844000e+01 3.5032372000e+01 0.0000000000e+00 0.0000e+00 9.0000e+00
#aMCatNLO 1  0  0  2  4 0.42800241E+02 0.00000000E+00 -9  5  0 0.00000000E+00 0.00000000E+00 0.00000000E+00 0.00000000E+00 0.00000000E+00
<rwgt>
<wgt id='1001'> +2.8781417e+02 </wgt>
<wgt id='1002'> +2.2139920e+02 </wgt>
<wgt id='1003'> +3.8284805e+02 </wgt>
<wgt id='1004'> +3.6781802e+02 </wgt>
<wgt id='1005'> +2.7561999e+02 </wgt>
<wgt id='1006'> +5.0696553e+02 </wgt>
<wgt id='1007'> +2.1277080e+02 </wgt>
<wgt id='1008'> +1.6973476e+02 </wgt>
<wgt id='1009'> +2.6837322e+02 </wgt>
<wgt id='1010'> +2.8781417e+02 </wgt>
<wgt id='1011'> +2.8817081e+02 </wgt>
<wgt id='1012'> +2.8737152e+02 </wgt>
<wgt id='1013'> +2.8858593e+02 </wgt>
<wgt id='1014'> +2.8853269e+02 </wgt>
<wgt id='1015'> +2.8854053e+02 </wgt>
<wgt id='1016'> +2.8881057e+02 </wgt>
<wgt id='1017'> +2.9018051e+02 </wgt>
<wgt id='1018'> +2.9010681e+02 </wgt>
<wgt id='1019'> +2.8763432e+02 </wgt>
<wgt id='1020'> +2.8799056e+02 </wgt>
<wgt id='1021'> +2.8563864e+02 </wgt>
<wgt id='1022'> +2.8870341e+02 </wgt>
<wgt id='1023'> +2.8702719e+02 </wgt>
<wgt id='1024'> +2.8721908e+02 </wgt>
<wgt id='1025'> +2.8766131e+02 </wgt>
<wgt id='1026'> +2.8644172e+02 </wgt>
<wgt id='1027'> +2.8644097e+02 </wgt>
<wgt id='1028'> +2.8941458e+02 </wgt>
<wgt id='1029'> +2.8878625e+02 </wgt>
<wgt id='1030'> +2.8734861e+02 </wgt>
<wgt id='1031'> +2.8890968e+02 </wgt>
<wgt id='1032'> +2.8741586e+02 </wgt>
<wgt id='1033'> +2.8769450e+02 </wgt>
<wgt id='1034'> +2.8792492e+02 </wgt>
<wgt id='1035'> +2.8762391e+02 </wgt>
<wgt id='1036'> +2.8764878e+02 </wgt>
<wgt id='1037'> +2.8738831e+02 </wgt>
<wgt id='1038'> +2.8814781e+02 </wgt>
<wgt id='1039'> +2.8731497e+02 </wgt>
<wgt id='1040'> +2.8761162e+02 </wgt>
<wgt id='1041'> +2.8728443e+02 </wgt>
<wgt id='1042'> +2.8797225e+02 </wgt>
<wgt id='1043'> +2.8751399e+02 </wgt>
<wgt id='1044'> +2.8755810e+02 </wgt>
<wgt id='1045'> +2.8779681e+02 </wgt>
<wgt id='1046'> +2.8815947e+02 </wgt>
<wgt id='1047'> +2.8787661e+02 </wgt>
<wgt id='1048'> +2.8786035e+02 </wgt>
<wgt id='1049'> +2.8783297e+02 </wgt>
<wgt id='1050'> +2.8770854e+02 </wgt>
<wgt id='1051'> +2.8790421e+02 </wgt>
<wgt id='1052'> +2.8784655e+02 </wgt>
<wgt id='1053'> +2.8765036e+02 </wgt>
<wgt id='1054'> +2.8786343e+02 </wgt>
<wgt id='1055'> +2.8793015e+02 </wgt>
<wgt id='1056'> +2.8793108e+02 </wgt>
<wgt id='1057'> +2.8774672e+02 </wgt>
<wgt id='1058'> +2.8773780e+02 </wgt>
<wgt id='1059'> +2.8768353e+02 </wgt>
<wgt id='1060'> +2.8773776e+02 </wgt>
<wgt id='1061'> +2.8773619e+02 </wgt>
<wgt id='1062'> +2.8789231e+02 </wgt>
<wgt id='1063'> +2.8780987e+02 </wgt>
<wgt id='1064'> +2.8786106e+02 </wgt>
<wgt id='1065'> +2.8791165e+02 </wgt>
<wgt id='1066'> +2.8780940e+02 </wgt>
<wgt id='1067'> +2.8788616e+02 </wgt>
<wgt id='1068'> +2.8776506e+02 </wgt>
<wgt id='1069'> +2.8784994e+02 </wgt>
<wgt id='1070'> +2.8778200e+02 </wgt>
<wgt id='1071'> +2.8779649e+02 </wgt>
<wgt id='1072'> +2.8793639e+02 </wgt>
<wgt id='1073'> +2.8785413e+02 </wgt>
<wgt id='1074'> +2.8788775e+02 </wgt>
<wgt id='1075'> +2.8794278e+02 </wgt>
<wgt id='1076'> +2.8789541e+02 </wgt>
<wgt id='1077'> +2.8790225e+02 </wgt>
<wgt id='1078'> +2.8783215e+02 </wgt>
<wgt id='1079'> +2.8784260e+02 </wgt>
<wgt id='1080'> +2.8781507e+02 </wgt>
<wgt id='1081'> +2.8787444e+02 </wgt>
<wgt id='1082'> +2.8782076e+02 </wgt>
<wgt id='1083'> +2.8785073e+02 </wgt>
<wgt id='1084'> +2.8782717e+02 </wgt>
<wgt id='1085'> +2.8778851e+02 </wgt>
<wgt id='1086'> +2.8778316e+02 </wgt>
<wgt id='1087'> +2.8796691e+02 </wgt>
<wgt id='1088'> +2.8778397e+02 </wgt>
<wgt id='1089'> +2.8778722e+02 </wgt>
<wgt id='1090'> +2.8783641e+02 </wgt>
<wgt id='1091'> +2.8776807e+02 </wgt>
<wgt id='1092'> +2.8785297e+02 </wgt>
<wgt id='1093'> +2.8784741e+02 </wgt>
<wgt id='1094'> +2.8785919e+02 </wgt>
<wgt id='1095'> +2.8779646e+02 </wgt>
<wgt id='1096'> +2.8777427e+02 </wgt>
<wgt id='1097'> +2.8784167e+02 </wgt>
<wgt id='1098'> +2.8781464e+02 </wgt>
<wgt id='1099'> +2.8783219e+02 </wgt>
<wgt id='1100'> +2.8783191e+02 </wgt>
<wgt id='1101'> +2.8783974e+02 </wgt>
<wgt id='1102'> +2.8784519e+02 </wgt>
<wgt id='1103'> +2.8778666e+02 </wgt>
<wgt id='1104'> +2.8777322e+02 </wgt>
<wgt id='1105'> +2.8781811e+02 </wgt>
<wgt id='1106'> +2.8779890e+02 </wgt>
<wgt id='1107'> +2.8782115e+02 </wgt>
<wgt id='1108'> +2.8782029e+02 </wgt>
<wgt id='1109'> +2.8784090e+02 </wgt>
<wgt id='1110'> +2.8781416e+02 </wgt>
<wgt id='1111'> +2.7447876e+02 </wgt>
<wgt id='1112'> +2.9968866e+02 </wgt>
<wgt id='1113'> +2.8781416e+02 </wgt>
<wgt id='1114'> +2.7896947e+02 </wgt>
<wgt id='1115'> +2.8593916e+02 </wgt>
<wgt id='1116'> +2.8790312e+02 </wgt>
<wgt id='1117'> +2.8875333e+02 </wgt>
<wgt id='1118'> +2.9153259e+02 </wgt>
<wgt id='1119'> +2.8574587e+02 </wgt>
<wgt id='1120'> +2.8522408e+02 </wgt>
<wgt id='1121'> +2.8668601e+02 </wgt>
<wgt id='1122'> +2.9181140e+02 </wgt>
<wgt id='1123'> +2.9270675e+02 </wgt>
<wgt id='1124'> +2.9293364e+02 </wgt>
<wgt id='1125'> +2.8023921e+02 </wgt>
<wgt id='1126'> +2.8752543e+02 </wgt>
<wgt id='1127'> +2.8176636e+02 </wgt>
<wgt id='1128'> +2.9728228e+02 </wgt>
<wgt id='1129'> +2.9485810e+02 </wgt>
<wgt id='1130'> +2.9365426e+02 </wgt>
<wgt id='1131'> +2.8771333e+02 </wgt>
<wgt id='1132'> +2.8891016e+02 </wgt>
<wgt id='1133'> +2.9449161e+02 </wgt>
<wgt id='1134'> +2.8070030e+02 </wgt>
<wgt id='1135'> +2.8972185e+02 </wgt>
<wgt id='1136'> +2.8658648e+02 </wgt>
<wgt id='1137'> +2.8457190e+02 </wgt>
<wgt id='1138'> +2.8452274e+02 </wgt>
<wgt id='1139'> +2.9212508e+02 </wgt>
<wgt id='1140'> +2.8943623e+02 </wgt>
<wgt id='1141'> +2.7982075e+02 </wgt>
<wgt id='1142'> +2.9210710e+02 </wgt>
<wgt id='1143'> +2.9049611e+02 </wgt>
<wgt id='1144'> +2.8542670e+02 </wgt>
<wgt id='1145'> +2.8475145e+02 </wgt>
<wgt id='1146'> +2.8412402e+02 </wgt>
<wgt id='1147'> +2.8193779e+02 </wgt>
<wgt id='1148'> +2.9768150e+02 </wgt>
<wgt id='1149'> +2.8581348e+02 </wgt>
<wgt id='1150'> +2.9350594e+02 </wgt>
<wgt id='1151'> +2.9121541e+02 </wgt>
<wgt id='1152'> +2.8245843e+02 </wgt>
<wgt id='1153'> +2.8639884e+02 </wgt>
<wgt id='1154'> +2.9199397e+02 </wgt>
<wgt id='1155'> +2.7737742e+02 </wgt>
<wgt id='1156'> +2.8625325e+02 </wgt>
<wgt id='1157'> +2.8011484e+02 </wgt>
<wgt id='1158'> +2.8923201e+02 </wgt>
<wgt id='1159'> +2.9047698e+02 </wgt>
<wgt id='1160'> +2.7622025e+02 </wgt>
<wgt id='1161'> +2.8201151e+02 </wgt>
<wgt id='1162'> +2.9029210e+02 </wgt>
<wgt id='1163'> +2.9299624e+02 </wgt>
<wgt id='1164'> +2.8262349e+02 </wgt>
<wgt id='1165'> +2.8567773e+02 </wgt>
<wgt id='1166'> +2.8761202e+02 </wgt>
<wgt id='1167'> +2.8247762e+02 </wgt>
<wgt id='1168'> +2.8459307e+02 </wgt>
<wgt id='1169'> +2.8589449e+02 </wgt>
<wgt id='1170'> +2.8754544e+02 </wgt>
<wgt id='1171'> +2.8588864e+02 </wgt>
<wgt id='1172'> +3.0072561e+02 </wgt>
<wgt id='1173'> +2.8890272e+02 </wgt>
<wgt id='1174'> +2.8556071e+02 </wgt>
<wgt id='1175'> +2.8634531e+02 </wgt>
<wgt id='1176'> +2.9082247e+02 </wgt>
<wgt id='1177'> +2.8494865e+02 </wgt>
<wgt id='1178'> +2.8815980e+02 </wgt>
<wgt id='1179'> +2.8698083e+02 </wgt>
<wgt id='1180'> +2.7786085e+02 </wgt>
<wgt id='1181'> +2.9310045e+02 </wgt>
<wgt id='1182'> +2.8364043e+02 </wgt>
<wgt id='1183'> +2.7803977e+02 </wgt>
<wgt id='1184'> +2.9614892e+02 </wgt>
<wgt id='1185'> +2.9702821e+02 </wgt>
<wgt id='1186'> +2.9309723e+02 </wgt>
<wgt id='1187'> +2.9737293e+02 </wgt>
<wgt id='1188'> +2.9161730e+02 </wgt>
<wgt id='1189'> +2.9407006e+02 </wgt>
<wgt id='1190'> +2.8625079e+02 </wgt>
<wgt id='1191'> +2.8765261e+02 </wgt>
<wgt id='1192'> +2.9117164e+02 </wgt>
<wgt id='1193'> +2.8181451e+02 </wgt>
<wgt id='1194'> +2.7959983e+02 </wgt>
<wgt id='1195'> +2.9485810e+02 </wgt>
<wgt id='1196'> +2.8468570e+02 </wgt>
<wgt id='1197'> +2.9058016e+02 </wgt>
<wgt id='1198'> +2.9272620e+02 </wgt>
<wgt id='1199'> +2.7434100e+02 </wgt>
<wgt id='1200'> +2.9270240e+02 </wgt>
<wgt id='1201'> +2.8720391e+02 </wgt>
<wgt id='1202'> +3.0117961e+02 </wgt>
<wgt id='1203'> +2.8022326e+02 </wgt>
<wgt id='1204'> +2.8437297e+02 </wgt>
<wgt id='1205'> +2.9581998e+02 </wgt>
<wgt id='1206'> +2.9466325e+02 </wgt>
<wgt id='1207'> +2.8631658e+02 </wgt>
<wgt id='1208'> +2.8271949e+02 </wgt>
<wgt id='1209'> +2.8495694e+02 </wgt>
<wgt id='1210'> +2.8248969e+02 </wgt>
<wgt id='1211'> +2.9137667e+02 </wgt>
<wgt id='1212'> +2.9076979e+02 </wgt>
<wgt id='1213'> +2.9322285e+02 </wgt>
<wgt id='1214'> +2.8746904e+02 </wgt>
<wgt id='1215'> +2.8711825e+02 </wgt>
<wgt id='1216'> +2.8878932e+02 </wgt>
<wgt id='1217'> +2.8867968e+02 </wgt>
<wgt id='1218'> +2.8780156e+02 </wgt>
<wgt id='1219'> +2.8668141e+02 </wgt>
<wgt id='1220'> +2.8658605e+02 </wgt>
<wgt id='1221'> +2.8616678e+02 </wgt>
<wgt id='1222'> +2.8691748e+02 </wgt>
<wgt id='1223'> +2.8779035e+02 </wgt>
<wgt id='1224'> +2.8724472e+02 </wgt>
<wgt id='1225'> +2.8899273e+02 </wgt>
<wgt id='1226'> +2.8919086e+02 </wgt>
<wgt id='1227'> +2.9027265e+02 </wgt>
<wgt id='1228'> +2.8866736e+02 </wgt>
<wgt id='1229'> +2.8815781e+02 </wgt>
<wgt id='1230'> +2.8678809e+02 </wgt>
<wgt id='1231'> +2.8745112e+02 </wgt>
<wgt id='1232'> +2.8863986e+02 </wgt>
<wgt id='1233'> +2.8730458e+02 </wgt>
<wgt id='1234'> +2.8837901e+02 </wgt>
<wgt id='1235'> +2.8701948e+02 </wgt>
<wgt id='1236'> +2.8778746e+02 </wgt>
<wgt id='1237'> +2.8773475e+02 </wgt>
<wgt id='1238'> +2.8767605e+02 </wgt>
<wgt id='1239'> +2.8770240e+02 </wgt>
<wgt id='1240'> +2.8759559e+02 </wgt>
<wgt id='1241'> +2.8731011e+02 </wgt>
<wgt id='1242'> +2.8730891e+02 </wgt>
<wgt id='1243'> +2.8770788e+02 </wgt>
<wgt id='1244'> +2.8756889e+02 </wgt>
<wgt id='1245'> +2.8758383e+02 </wgt>
<wgt id='1246'> +2.8750816e+02 </wgt>
<wgt id='1247'> +2.8753255e+02 </wgt>
<wgt id='1248'> +2.8753651e+02 </wgt>
<wgt id='1249'> +2.8743311e+02 </wgt>
<wgt id='1250'> +2.8741462e+02 </wgt>
<wgt id='1251'> +2.8753570e+02 </wgt>
<wgt id='1252'> +2.8743281e+02 </wgt>
<wgt id='1253'> +2.8740684e+02 </wgt>
<wgt id='1254'> +2.8735397e+02 </wgt>
<wgt id='1255'> +2.8739122e+02 </wgt>
<wgt id='1256'> +2.8737474e+02 </wgt>
<wgt id='1257'> +2.8746755e+02 </wgt>
<wgt id='1258'> +2.8754426e+02 </wgt>
<wgt id='1259'> +2.8742995e+02 </wgt>
<wgt id='1260'> +2.8762328e+02 </wgt>
<wgt id='1261'> +2.8750791e+02 </wgt>
<wgt id='1262'> +2.8743487e+02 </wgt>
<wgt id='1263'> +2.8746311e+02 </wgt>
<wgt id='1264'> +2.8760373e+02 </wgt>
<wgt id='1265'> +2.8749381e+02 </wgt>
<wgt id='1266'> +2.8744029e+02 </wgt>
<wgt id='1267'> +2.8753034e+02 </wgt>
<wgt id='1268'> +2.8754989e+02 </wgt>
<wgt id='1269'> +2.8744721e+02 </wgt>
<wgt id='1270'> +2.8748447e+02 </wgt>
<wgt id='1271'> +2.8752297e+02 </wgt>
<wgt id='1272'> +2.8747342e+02 </wgt>
<wgt id='1273'> +2.8742297e+02 </wgt>
<wgt id='1274'> +2.8748824e+02 </wgt>
<wgt id='1275'> +2.8741410e+02 </wgt>
<wgt id='1276'> +2.8749615e+02 </wgt>
<wgt id='1277'> +2.8746858e+02 </wgt>
<wgt id='1278'> +2.8741925e+02 </wgt>
<wgt id='1279'> +2.8751079e+02 </wgt>
<wgt id='1280'> +2.8744707e+02 </wgt>
<wgt id='1281'> +2.8746595e+02 </wgt>
<wgt id='1282'> +2.8753123e+02 </wgt>
<wgt id='1283'> +2.8744025e+02 </wgt>
<wgt id='1284'> +2.8744837e+02 </wgt>
<wgt id='1285'> +2.8741923e+02 </wgt>
<wgt id='1286'> +2.8747251e+02 </wgt>
<wgt id='1287'> +2.8747044e+02 </wgt>
<wgt id='1288'> +2.8749349e+02 </wgt>
<wgt id='1289'> +2.8745337e+02 </wgt>
<wgt id='1290'> +2.8747061e+02 </wgt>
<wgt id='1291'> +2.8745706e+02 </wgt>
<wgt id='1292'> +2.8753410e+02 </wgt>
<wgt id='1293'> +2.8746866e+02 </wgt>
<wgt id='1294'> +2.8741205e+02 </wgt>
<wgt id='1295'> +2.8747152e+02 </wgt>
<wgt id='1296'> +2.8744417e+02 </wgt>
<wgt id='1297'> +2.8742574e+02 </wgt>
<wgt id='1298'> +2.8751331e+02 </wgt>
<wgt id='1299'> +2.8753606e+02 </wgt>
<wgt id='1300'> +2.8739138e+02 </wgt>
<wgt id='1301'> +2.8743530e+02 </wgt>
<wgt id='1302'> +2.8752232e+02 </wgt>
<wgt id='1303'> +2.8744417e+02 </wgt>
<wgt id='1304'> +2.8741933e+02 </wgt>
<wgt id='1305'> +2.8743640e+02 </wgt>
<wgt id='1306'> +2.8740275e+02 </wgt>
<wgt id='1307'> +2.8745990e+02 </wgt>
<wgt id='1308'> +2.8743612e+02 </wgt>
<wgt id='1309'> +2.8751018e+02 </wgt>
<wgt id='1310'> +2.8749958e+02 </wgt>
<wgt id='1311'> +2.8748066e+02 </wgt>
<wgt id='1312'> +2.8744644e+02 </wgt>
<wgt id='1313'> +2.8747852e+02 </wgt>
<wgt id='1314'> +2.8747560e+02 </wgt>
<wgt id='1315'> +2.7447876e+02 </wgt>
<wgt id='1316'> +2.9968866e+02 </wgt>
<wgt id='1317'> +2.2870926e+02 </wgt>
<wgt id='1318'> +2.3897408e+02 </wgt>
<wgt id='1319'> +2.5061144e+02 </wgt>
<wgt id='1320'> +2.6303824e+02 </wgt>
<wgt id='1321'> +2.8182116e+02 </wgt>
<wgt id='1322'> +2.9430877e+02 </wgt>
<wgt id='1323'> +3.1214438e+02 </wgt>
<wgt id='1324'> +3.2536372e+02 </wgt>
<wgt id='1325'> +2.9130722e+02 </wgt>
<wgt id='1326'> +2.9244151e+02 </wgt>
<wgt id='1327'> +2.9001763e+02 </wgt>
<wgt id='1328'> +2.9253819e+02 </wgt>
<wgt id='1329'> +2.9198230e+02 </wgt>
<wgt id='1330'> +2.9284730e+02 </wgt>
<wgt id='1331'> +2.9178603e+02 </wgt>
<wgt id='1332'> +2.9201635e+02 </wgt>
<wgt id='1333'> +2.9034618e+02 </wgt>
<wgt id='1334'> +2.9094763e+02 </wgt>
<wgt id='1335'> +2.9008726e+02 </wgt>
<wgt id='1336'> +2.9204041e+02 </wgt>
<wgt id='1337'> +2.9365620e+02 </wgt>
<wgt id='1338'> +2.8874294e+02 </wgt>
<wgt id='1339'> +2.9261889e+02 </wgt>
<wgt id='1340'> +2.9245022e+02 </wgt>
<wgt id='1341'> +2.9149584e+02 </wgt>
<wgt id='1342'> +2.9270860e+02 </wgt>
<wgt id='1343'> +2.9172160e+02 </wgt>
<wgt id='1344'> +2.9016285e+02 </wgt>
<wgt id='1345'> +2.9102953e+02 </wgt>
<wgt id='1346'> +2.9054193e+02 </wgt>
<wgt id='1347'> +2.9126170e+02 </wgt>
<wgt id='1348'> +2.9097178e+02 </wgt>
<wgt id='1349'> +2.9124790e+02 </wgt>
<wgt id='1350'> +2.9134003e+02 </wgt>
<wgt id='1351'> +2.9140975e+02 </wgt>
<wgt id='1352'> +2.9140964e+02 </wgt>
<wgt id='1353'> +2.9107606e+02 </wgt>
<wgt id='1354'> +2.9135982e+02 </wgt>
<wgt id='1355'> +2.9155015e+02 </wgt>
<wgt id='1356'> +2.9139412e+02 </wgt>
<wgt id='1357'> +2.9132301e+02 </wgt>
<wgt id='1358'> +2.9138761e+02 </wgt>
<wgt id='1359'> +2.9134392e+02 </wgt>
<wgt id='1360'> +2.9148785e+02 </wgt>
<wgt id='1361'> +2.9137555e+02 </wgt>
<wgt id='1362'> +2.9130327e+02 </wgt>
<wgt id='1363'> +2.9130905e+02 </wgt>
<wgt id='1364'> +2.9137497e+02 </wgt>
<wgt id='1365'> +2.9125365e+02 </wgt>
<wgt id='1366'> +2.9129638e+02 </wgt>
<wgt id='1367'> +2.9121254e+02 </wgt>
<wgt id='1368'> +2.9120240e+02 </wgt>
<wgt id='1369'> +2.9137955e+02 </wgt>
<wgt id='1370'> +2.9139470e+02 </wgt>
<wgt id='1371'> +2.9137774e+02 </wgt>
<wgt id='1372'> +2.9127588e+02 </wgt>
<wgt id='1373'> +2.9132100e+02 </wgt>
<wgt id='1374'> +2.9126168e+02 </wgt>
<wgt id='1375'> +2.9125595e+02 </wgt>
<wgt id='1376'> +2.9143492e+02 </wgt>
<wgt id='1377'> +2.9128330e+02 </wgt>
<wgt id='1378'> +2.9128216e+02 </wgt>
<wgt id='1379'> +2.9128437e+02 </wgt>
<wgt id='1380'> +2.9127713e+02 </wgt>
<wgt id='1381'> +2.9133646e+02 </wgt>
<wgt id='1382'> +2.9130606e+02 </wgt>
<wgt id='1383'> +2.9124182e+02 </wgt>
<wgt id='1384'> +2.9132282e+02 </wgt>
<wgt id='1385'> +2.9133543e+02 </wgt>
<wgt id='1386'> +2.9139222e+02 </wgt>
<wgt id='1387'> +2.9134058e+02 </wgt>
<wgt id='1388'> +2.9134610e+02 </wgt>
<wgt id='1389'> +2.9129281e+02 </wgt>
<wgt id='1390'> +2.9128485e+02 </wgt>
<wgt id='1391'> +2.9133273e+02 </wgt>
<wgt id='1392'> +2.9122528e+02 </wgt>
<wgt id='1393'> +2.9134338e+02 </wgt>
<wgt id='1394'> +2.9127794e+02 </wgt>
<wgt id='1395'> +2.9126913e+02 </wgt>
<wgt id='1396'> +2.9127234e+02 </wgt>
<wgt id='1397'> +2.9132888e+02 </wgt>
<wgt id='1398'> +2.9126394e+02 </wgt>
<wgt id='1399'> +2.9131144e+02 </wgt>
<wgt id='1400'> +2.9124455e+02 </wgt>
<wgt id='1401'> +2.9139333e+02 </wgt>
<wgt id='1402'> +2.9137167e+02 </wgt>
<wgt id='1403'> +2.9129913e+02 </wgt>
<wgt id='1404'> +2.9138586e+02 </wgt>
<wgt id='1405'> +2.9121768e+02 </wgt>
<wgt id='1406'> +2.9131780e+02 </wgt>
<wgt id='1407'> +2.9128068e+02 </wgt>
<wgt id='1408'> +2.9133339e+02 </wgt>
<wgt id='1409'> +2.9130841e+02 </wgt>
<wgt id='1410'> +2.9132990e+02 </wgt>
<wgt id='1411'> +2.9130033e+02 </wgt>
<wgt id='1412'> +2.9126985e+02 </wgt>
<wgt id='1413'> +2.9129955e+02 </wgt>
<wgt id='1414'> +2.9132535e+02 </wgt>
<wgt id='1415'> +2.9132475e+02 </wgt>
<wgt id='1416'> +2.9132817e+02 </wgt>
<wgt id='1417'> +2.9133185e+02 </wgt>
<wgt id='1418'> +2.9128810e+02 </wgt>
<wgt id='1419'> +2.9133232e+02 </wgt>
<wgt id='1420'> +2.9130568e+02 </wgt>
<wgt id='1421'> +2.9131138e+02 </wgt>
<wgt id='1422'> +2.9128591e+02 </wgt>
<wgt id='1423'> +2.9132528e+02 </wgt>
<wgt id='1424'> +2.9131967e+02 </wgt>
<wgt id='1425'> +2.9130558e+02 </wgt>
<wgt id='1426'> +2.7867540e+02 </wgt>
<wgt id='1427'> +3.0541015e+02 </wgt>
<wgt id='1428'> +2.7877081e+02 </wgt>
<wgt id='1429'> +2.7766168e+02 </wgt>
<wgt id='1430'> +2.7839509e+02 </wgt>
<wgt id='1431'> +2.7674134e+02 </wgt>
<wgt id='1432'> +2.7950646e+02 </wgt>
<wgt id='1433'> +2.7186977e+02 </wgt>
<wgt id='1434'> +2.8360714e+02 </wgt>
<wgt id='1435'> +2.8051449e+02 </wgt>
<wgt id='1436'> +2.7501729e+02 </wgt>
<wgt id='1437'> +2.8247242e+02 </wgt>
<wgt id='1438'> +2.7677440e+02 </wgt>
<wgt id='1439'> +2.7821866e+02 </wgt>
<wgt id='1440'> +2.7868421e+02 </wgt>
<wgt id='1441'> +2.7238141e+02 </wgt>
<wgt id='1442'> +2.7893614e+02 </wgt>
<wgt id='1443'> +2.8110719e+02 </wgt>
<wgt id='1444'> +2.7167141e+02 </wgt>
<wgt id='1445'> +2.7946677e+02 </wgt>
<wgt id='1446'> +2.7802045e+02 </wgt>
<wgt id='1447'> +2.7763630e+02 </wgt>
<wgt id='1448'> +2.7965173e+02 </wgt>
<wgt id='1449'> +2.7986501e+02 </wgt>
<wgt id='1450'> +2.7806369e+02 </wgt>
<wgt id='1451'> +2.7811956e+02 </wgt>
<wgt id='1452'> +2.7939751e+02 </wgt>
<wgt id='1453'> +2.7835255e+02 </wgt>
<wgt id='1454'> +2.7910480e+02 </wgt>
<wgt id='1455'> +2.8198596e+02 </wgt>
<wgt id='1456'> +2.7335949e+02 </wgt>
<wgt id='1457'> +2.7287789e+02 </wgt>
<wgt id='1458'> +2.8231416e+02 </wgt>
<wgt id='1459'> +2.7524822e+02 </wgt>
<wgt id='1460'> +2.8386275e+02 </wgt>
<wgt id='1461'> +2.7631501e+02 </wgt>
<wgt id='1462'> +2.8087290e+02 </wgt>
<wgt id='1463'> +2.7407043e+02 </wgt>
<wgt id='1464'> +2.8255304e+02 </wgt>
<wgt id='1465'> +2.7836769e+02 </wgt>
<wgt id='1466'> +2.7904286e+02 </wgt>
<wgt id='1467'> +2.8403591e+02 </wgt>
<wgt id='1468'> +2.7603760e+02 </wgt>
<wgt id='1469'> +2.7530424e+02 </wgt>
<wgt id='1470'> +2.7932697e+02 </wgt>
<wgt id='1471'> +2.8184907e+02 </wgt>
<wgt id='1472'> +2.7065612e+02 </wgt>
<wgt id='1473'> +2.8822804e+02 </wgt>
<wgt id='1474'> +2.7589633e+02 </wgt>
<wgt id='1475'> +2.8117983e+02 </wgt>
<wgt id='1476'> +2.7992897e+02 </wgt>
<wgt id='1477'> +2.7904077e+02 </wgt>
<wgt id='1478'> +2.7922987e+02 </wgt>
<wgt id='1479'> +2.7962455e+02 </wgt>
<wgt id='1480'> +2.7845427e+02 </wgt>
<wgt id='1481'> +2.7671625e+02 </wgt>
<wgt id='1482'> +2.8605219e+02 </wgt>
<wgt id='1483'> +2.7680933e+02 </wgt>
<wgt id='1484'> +2.8065568e+02 </wgt>
<wgt id='1485'> +2.6696433e+02 </wgt>
<wgt id='1486'> +2.8977270e+02 </wgt>
<wgt id='1487'> +2.8583163e+02 </wgt>
<wgt id='1488'> +2.8610534e+02 </wgt>
<wgt id='1489'> +2.8678141e+02 </wgt>
<wgt id='1490'> +2.9335032e+02 </wgt>
<wgt id='1491'> +2.8240914e+02 </wgt>
<wgt id='1492'> +2.8684673e+02 </wgt>
<wgt id='1493'> +2.8494230e+02 </wgt>
<wgt id='1494'> +2.8960964e+02 </wgt>
<wgt id='1495'> +2.8402563e+02 </wgt>
<wgt id='1496'> +2.7919408e+02 </wgt>
<wgt id='1497'> +2.9089334e+02 </wgt>
<wgt id='1498'> +2.9079691e+02 </wgt>
<wgt id='1499'> +2.8295832e+02 </wgt>
<wgt id='1500'> +2.7412916e+02 </wgt>
<wgt id='1501'> +2.9264893e+02 </wgt>
<wgt id='1502'> +2.8869346e+02 </wgt>
<wgt id='1503'> +2.8389938e+02 </wgt>
<wgt id='1504'> +2.8281969e+02 </wgt>
<wgt id='1505'> +2.8940560e+02 </wgt>
<wgt id='1506'> +2.8989783e+02 </wgt>
<wgt id='1507'> +2.8127829e+02 </wgt>
<wgt id='1508'> +2.8666864e+02 </wgt>
<wgt id='1509'> +2.8403830e+02 </wgt>
<wgt id='1510'> +2.8406798e+02 </wgt>
<wgt id='1511'> +2.8742490e+02 </wgt>
<wgt id='1512'> +2.8133586e+02 </wgt>
<wgt id='1513'> +2.8992604e+02 </wgt>
<wgt id='1514'> +2.8473624e+02 </wgt>
<wgt id='1515'> +2.8731003e+02 </wgt>
<wgt id='1516'> +2.8343155e+02 </wgt>
<wgt id='1517'> +2.8665745e+02 </wgt>
<wgt id='1518'> +2.8630925e+02 </wgt>
<wgt id='1519'> +2.8520366e+02 </wgt>
<wgt id='1520'> +2.8560708e+02 </wgt>
<wgt id='1521'> +2.8624826e+02 </wgt>
<wgt id='1522'> +2.9059139e+02 </wgt>
<wgt id='1523'> +2.8123297e+02 </wgt>
<wgt id='1524'> +2.8851442e+02 </wgt>
<wgt id='1525'> +2.8141848e+02 </wgt>
<wgt id='1526'> +2.8579510e+02 </wgt>
<wgt id='1527'> +2.8536407e+02 </wgt>
<wgt id='1528'> +2.8850146e+02 </wgt>
<wgt id='1529'> +2.8332449e+02 </wgt>
<wgt id='1530'> +2.8883237e+02 </wgt>
<wgt id='1531'> +2.8254458e+02 </wgt>
<wgt id='1532'> +2.8212396e+02 </wgt>
<wgt id='1533'> +2.8438105e+02 </wgt>
<wgt id='1534'> +2.8173534e+02 </wgt>
<wgt id='1535'> +2.8921501e+02 </wgt>
<wgt id='1536'> +2.8727479e+02 </wgt>
<wgt id='1537'> +2.7964844e+02 </wgt>
<wgt id='1538'> +2.8528893e+02 </wgt>
<wgt id='1539'> +2.8512164e+02 </wgt>
<wgt id='1540'> +2.7825166e+02 </wgt>
<wgt id='1541'> +2.8804497e+02 </wgt>
<wgt id='1542'> +2.8329161e+02 </wgt>
<wgt id='1543'> +2.8831584e+02 </wgt>
<wgt id='1544'> +2.7272946e+02 </wgt>
<wgt id='1545'> +2.9850598e+02 </wgt>
<wgt id='1546'> +2.7954722e+02 </wgt>
<wgt id='1547'> +2.9131502e+02 </wgt>
<wgt id='1548'> +2.9143643e+02 </wgt>
<wgt id='1549'> +2.9118798e+02 </wgt>
<wgt id='1550'> +2.9148860e+02 </wgt>
<wgt id='1551'> +2.9120059e+02 </wgt>
<wgt id='1552'> +2.9219997e+02 </wgt>
<wgt id='1553'> +2.9049555e+02 </wgt>
<wgt id='1554'> +2.8998090e+02 </wgt>
<wgt id='1555'> +2.9281031e+02 </wgt>
<wgt id='1556'> +2.9225582e+02 </wgt>
<wgt id='1557'> +2.9040571e+02 </wgt>
<wgt id='1558'> +2.9196579e+02 </wgt>
<wgt id='1559'> +2.8990769e+02 </wgt>
<wgt id='1560'> +2.9100222e+02 </wgt>
<wgt id='1561'> +2.9187367e+02 </wgt>
<wgt id='1562'> +2.9034662e+02 </wgt>
<wgt id='1563'> +2.9186535e+02 </wgt>
<wgt id='1564'> +2.8961028e+02 </wgt>
<wgt id='1565'> +2.9333023e+02 </wgt>
<wgt id='1566'> +2.9184649e+02 </wgt>
<wgt id='1567'> +2.9085911e+02 </wgt>
<wgt id='1568'> +2.9061467e+02 </wgt>
<wgt id='1569'> +2.9225702e+02 </wgt>
<wgt id='1570'> +2.8914695e+02 </wgt>
<wgt id='1571'> +2.9283268e+02 </wgt>
<wgt id='1572'> +2.8752734e+02 </wgt>
<wgt id='1573'> +2.9470353e+02 </wgt>
<wgt id='1574'> +2.9210225e+02 </wgt>
<wgt id='1575'> +2.9132115e+02 </wgt>
<wgt id='1576'> +2.9324721e+02 </wgt>
<wgt id='1577'> +2.8908099e+02 </wgt>
<wgt id='1578'> +2.9167211e+02 </wgt>
<wgt id='1579'> +2.9081144e+02 </wgt>
<wgt id='1580'> +2.9189730e+02 </wgt>
<wgt id='1581'> +2.9070318e+02 </wgt>
<wgt id='1582'> +2.9111248e+02 </wgt>
<wgt id='1583'> +2.9236004e+02 </wgt>
<wgt id='1584'> +2.9187538e+02 </wgt>
<wgt id='1585'> +2.9124484e+02 </wgt>
<wgt id='1586'> +2.9104455e+02 </wgt>
<wgt id='1587'> +2.9160821e+02 </wgt>
<wgt id='1588'> +2.9059240e+02 </wgt>
<wgt id='1589'> +2.9217859e+02 </wgt>
<wgt id='1590'> +2.9527769e+02 </wgt>
<wgt id='1591'> +2.8934276e+02 </wgt>
<wgt id='1592'> +2.9103743e+02 </wgt>
<wgt id='1593'> +2.9203233e+02 </wgt>
<wgt id='1594'> +2.9059789e+02 </wgt>
<wgt id='1595'> +2.8945362e+02 </wgt>
<wgt id='1596'> +2.9100312e+02 </wgt>
<wgt id='1597'> +2.9128285e+02 </wgt>
<wgt id='1598'> +2.8075470e+02 </wgt>
<wgt id='1599'> +2.8064418e+02 </wgt>
<wgt id='1600'> +2.8089702e+02 </wgt>
<wgt id='1601'> +2.8167973e+02 </wgt>
<wgt id='1602'> +2.7983691e+02 </wgt>
<wgt id='1603'> +2.8137184e+02 </wgt>
<wgt id='1604'> +2.8049949e+02 </wgt>
<wgt id='1605'> +2.7957835e+02 </wgt>
<wgt id='1606'> +2.8192015e+02 </wgt>
<wgt id='1607'> +2.8124177e+02 </wgt>
<wgt id='1608'> +2.8028012e+02 </wgt>
<wgt id='1609'> +2.7799563e+02 </wgt>
<wgt id='1610'> +2.8194825e+02 </wgt>
<wgt id='1611'> +2.8076985e+02 </wgt>
<wgt id='1612'> +2.8072912e+02 </wgt>
<wgt id='1613'> +2.7994794e+02 </wgt>
<wgt id='1614'> +2.8161844e+02 </wgt>
<wgt id='1615'> +2.8016163e+02 </wgt>
<wgt id='1616'> +2.8105918e+02 </wgt>
<wgt id='1617'> +2.8035192e+02 </wgt>
<wgt id='1618'> +2.8130062e+02 </wgt>
<wgt id='1619'> +2.8064089e+02 </wgt>
<wgt id='1620'> +2.8082884e+02 </wgt>
<wgt id='1621'> +2.8422780e+02 </wgt>
<wgt id='1622'> +2.7739818e+02 </wgt>
<wgt id='1623'> +2.8209343e+02 </wgt>
<wgt id='1624'> +2.7747221e+02 </wgt>
<wgt id='1625'> +2.8204526e+02 </wgt>
<wgt id='1626'> +2.8013510e+02 </wgt>
<wgt id='1627'> +2.7936818e+02 </wgt>
<wgt id='1628'> +2.8440020e+02 </wgt>
<wgt id='1629'> +2.8071758e+02 </wgt>
<wgt id='1630'> +2.8089378e+02 </wgt>
<wgt id='1631'> +2.8034348e+02 </wgt>
<wgt id='1632'> +2.8168502e+02 </wgt>
<wgt id='1633'> +2.8153260e+02 </wgt>
<wgt id='1634'> +2.8053371e+02 </wgt>
<wgt id='1635'> +2.8087743e+02 </wgt>
<wgt id='1636'> +2.8077713e+02 </wgt>
<wgt id='1637'> +2.8048268e+02 </wgt>
<wgt id='1638'> +2.8093430e+02 </wgt>
<wgt id='1639'> +2.8024836e+02 </wgt>
<wgt id='1640'> +2.8099121e+02 </wgt>
<wgt id='1641'> +2.8102300e+02 </wgt>
<wgt id='1642'> +2.7919857e+02 </wgt>
<wgt id='1643'> +2.7827776e+02 </wgt>
<wgt id='1644'> +2.8134362e+02 </wgt>
<wgt id='1645'> +2.8093214e+02 </wgt>
<wgt id='1646'> +2.8054681e+02 </wgt>
<wgt id='1647'> +2.8050379e+02 </wgt>
<wgt id='1648'> +2.7998926e+02 </wgt>
<wgt id='1649'> +4.9528615e+02 </wgt>
<wgt id='1650'> +2.8433457e+02 </wgt>
<wgt id='1651'> +2.8422248e+02 </wgt>
<wgt id='1652'> +2.8442543e+02 </wgt>
<wgt id='1653'> +2.8436248e+02 </wgt>
<wgt id='1654'> +2.8432534e+02 </wgt>
<wgt id='1655'> +2.8357955e+02 </wgt>
<wgt id='1656'> +2.8414720e+02 </wgt>
<wgt id='1657'> +2.8394669e+02 </wgt>
<wgt id='1658'> +2.8487461e+02 </wgt>
<wgt id='1659'> +2.8545937e+02 </wgt>
<wgt id='1660'> +2.8433777e+02 </wgt>
<wgt id='1661'> +2.8417977e+02 </wgt>
<wgt id='1662'> +2.8398690e+02 </wgt>
<wgt id='1663'> +2.8418697e+02 </wgt>
<wgt id='1664'> +2.8414469e+02 </wgt>
<wgt id='1665'> +2.8408741e+02 </wgt>
<wgt id='1666'> +2.8441274e+02 </wgt>
<wgt id='1667'> +2.8418712e+02 </wgt>
<wgt id='1668'> +2.8431948e+02 </wgt>
<wgt id='1669'> +2.8485534e+02 </wgt>
<wgt id='1670'> +2.8329778e+02 </wgt>
<wgt id='1671'> +2.8437510e+02 </wgt>
<wgt id='1672'> +2.8240350e+02 </wgt>
<wgt id='1673'> +2.8471895e+02 </wgt>
<wgt id='1674'> +2.8502338e+02 </wgt>
<wgt id='1675'> +2.8544363e+02 </wgt>
<wgt id='1676'> +2.8498352e+02 </wgt>
<wgt id='1677'> +2.8379825e+02 </wgt>
<wgt id='1678'> +2.8462597e+02 </wgt>
<wgt id='1679'> +2.8221154e+02 </wgt>
<wgt id='1680'> +2.8742854e+02 </wgt>
<wgt id='1681'> +2.8686294e+02 </wgt>
<wgt id='1682'> +2.9047284e+02 </wgt>
<wgt id='1683'> +2.8958461e+02 </wgt>
<wgt id='1684'> +2.8669313e+02 </wgt>
<wgt id='1685'> +2.8597361e+02 </wgt>
<wgt id='1686'> +2.8660020e+02 </wgt>
<wgt id='1687'> +2.8916343e+02 </wgt>
<wgt id='1688'> +2.9173280e+02 </wgt>
<wgt id='1689'> +2.8554553e+02 </wgt>
<wgt id='1690'> +2.9204524e+02 </wgt>
<wgt id='1691'> +2.8760683e+02 </wgt>
<wgt id='1692'> +2.8381651e+02 </wgt>
<wgt id='1693'> +2.8792130e+02 </wgt>
<wgt id='1694'> +2.8595231e+02 </wgt>
<wgt id='1695'> +2.8758947e+02 </wgt>
<wgt id='1696'> +2.8825796e+02 </wgt>
<wgt id='1697'> +2.8685221e+02 </wgt>
<wgt id='1698'> +2.8662030e+02 </wgt>
<wgt id='1699'> +2.8668970e+02 </wgt>
<wgt id='1700'> +2.8760494e+02 </wgt>
<wgt id='1701'> +2.8615777e+02 </wgt>
<wgt id='1702'> +2.8754502e+02 </wgt>
<wgt id='1703'> +2.8687362e+02 </wgt>
<wgt id='1704'> +2.8730256e+02 </wgt>
<wgt id='1705'> +2.8709136e+02 </wgt>
<wgt id='1706'> +2.8702661e+02 </wgt>
<wgt id='1707'> +2.8745494e+02 </wgt>
<wgt id='1708'> +2.8668668e+02 </wgt>
<wgt id='1709'> +2.8721110e+02 </wgt>
<wgt id='1710'> +2.8733259e+02 </wgt>
<wgt id='1711'> +2.8732929e+02 </wgt>
<wgt id='1712'> +2.8746264e+02 </wgt>
<wgt id='1713'> +2.8692277e+02 </wgt>
<wgt id='1714'> +2.8753368e+02 </wgt>
<wgt id='1715'> +2.8803848e+02 </wgt>
<wgt id='1716'> +2.8722378e+02 </wgt>
<wgt id='1717'> +2.8753307e+02 </wgt>
<wgt id='1718'> +2.8715319e+02 </wgt>
<wgt id='1719'> +2.8745735e+02 </wgt>
<wgt id='1720'> +2.8747001e+02 </wgt>
<wgt id='1721'> +2.8756803e+02 </wgt>
<wgt id='1722'> +2.8765040e+02 </wgt>
<wgt id='1723'> +2.8720071e+02 </wgt>
<wgt id='1724'> +2.8771303e+02 </wgt>
<wgt id='1725'> +2.8765901e+02 </wgt>
<wgt id='1726'> +2.8769161e+02 </wgt>
<wgt id='1727'> +2.8721263e+02 </wgt>
<wgt id='1728'> +2.8713385e+02 </wgt>
<wgt id='1729'> +2.8743508e+02 </wgt>
<wgt id='1730'> +2.8748247e+02 </wgt>
<wgt id='1731'> +2.8714003e+02 </wgt>
<wgt id='1732'> +2.8750021e+02 </wgt>
<wgt id='1733'> +2.8732326e+02 </wgt>
<wgt id='1734'> +2.8730172e+02 </wgt>
<wgt id='1735'> +2.8745270e+02 </wgt>
<wgt id='1736'> +2.8742240e+02 </wgt>
<wgt id='1737'> +2.8735111e+02 </wgt>
<wgt id='1738'> +2.8772817e+02 </wgt>
<wgt id='1739'> +2.8728006e+02 </wgt>
<wgt id='1740'> +2.8712978e+02 </wgt>
<wgt id='1741'> +2.8737267e+02 </wgt>
<wgt id='1742'> +2.8721370e+02 </wgt>
<wgt id='1743'> +2.8744165e+02 </wgt>
<wgt id='1744'> +2.8737770e+02 </wgt>
<wgt id='1745'> +2.8740484e+02 </wgt>
<wgt id='1746'> +2.8736741e+02 </wgt>
<wgt id='1747'> +2.8740781e+02 </wgt>
<wgt id='1748'> +2.8752417e+02 </wgt>
<wgt id='1749'> +2.8749561e+02 </wgt>
<wgt id='1750'> +2.8740141e+02 </wgt>
<wgt id='1751'> +2.8732549e+02 </wgt>
<wgt id='1752'> +2.8735724e+02 </wgt>
<wgt id='1753'> +2.8731012e+02 </wgt>
<wgt id='1754'> +2.8749863e+02 </wgt>
<wgt id='1755'> +2.8739962e+02 </wgt>
<wgt id='1756'> +2.8740420e+02 </wgt>
<wgt id='1757'> +2.8742020e+02 </wgt>
<wgt id='1758'> +2.8746352e+02 </wgt>
<wgt id='1759'> +2.8758990e+02 </wgt>
<wgt id='1760'> +2.8742988e+02 </wgt>
<wgt id='1761'> +2.8746597e+02 </wgt>
<wgt id='1762'> +2.8725683e+02 </wgt>
<wgt id='1763'> +2.8754194e+02 </wgt>
<wgt id='1764'> +2.8748831e+02 </wgt>
<wgt id='1765'> +2.8747343e+02 </wgt>
<wgt id='1766'> +2.8754916e+02 </wgt>
<wgt id='1767'> +2.8738697e+02 </wgt>
<wgt id='1768'> +2.8736201e+02 </wgt>
<wgt id='1769'> +2.8744253e+02 </wgt>
<wgt id='1770'> +2.8739568e+02 </wgt>
<wgt id='1771'> +2.8739487e+02 </wgt>
<wgt id='1772'> +2.8742290e+02 </wgt>
<wgt id='1773'> +2.8732387e+02 </wgt>
<wgt id='1774'> +2.8746865e+02 </wgt>
<wgt id='1775'> +2.8745699e+02 </wgt>
<wgt id='1776'> +2.8735678e+02 </wgt>
<wgt id='1777'> +2.8746702e+02 </wgt>
<wgt id='1778'> +2.8749076e+02 </wgt>
<wgt id='1779'> +2.8746841e+02 </wgt>
<wgt id='1780'> +2.8742566e+02 </wgt>
<wgt id='1781'> +2.7779445e+02 </wgt>
<wgt id='1782'> +2.9641448e+02 </wgt>
<wgt id='1783'> +2.8070143e+02 </wgt>
<wgt id='1784'> +2.8110336e+02 </wgt>
<wgt id='1785'> +2.8227197e+02 </wgt>
<wgt id='1786'> +2.7803406e+02 </wgt>
<wgt id='1787'> +2.8011892e+02 </wgt>
<wgt id='1788'> +2.8223660e+02 </wgt>
<wgt id='1789'> +2.7987967e+02 </wgt>
<wgt id='1790'> +2.8079092e+02 </wgt>
<wgt id='1791'> +2.8130858e+02 </wgt>
<wgt id='1792'> +2.8052747e+02 </wgt>
<wgt id='1793'> +2.8010768e+02 </wgt>
<wgt id='1794'> +2.8410541e+02 </wgt>
<wgt id='1795'> +2.7700952e+02 </wgt>
<wgt id='1796'> +2.7659227e+02 </wgt>
<wgt id='1797'> +2.7729348e+02 </wgt>
<wgt id='1798'> +2.8035708e+02 </wgt>
<wgt id='1799'> +2.8217545e+02 </wgt>
<wgt id='1800'> +2.8076102e+02 </wgt>
<wgt id='1801'> +2.8054707e+02 </wgt>
<wgt id='1802'> +2.8039592e+02 </wgt>
<wgt id='1803'> +2.8192273e+02 </wgt>
<wgt id='1804'> +2.8047218e+02 </wgt>
<wgt id='1805'> +2.8106452e+02 </wgt>
<wgt id='1806'> +2.8024981e+02 </wgt>
<wgt id='1807'> +2.8034078e+02 </wgt>
<wgt id='1808'> +2.8100329e+02 </wgt>
<wgt id='1809'> +2.8079492e+02 </wgt>
<wgt id='1810'> +2.8034308e+02 </wgt>
<wgt id='1811'> +2.8091534e+02 </wgt>
<wgt id='1812'> +2.8104455e+02 </wgt>
<wgt id='1813'> +2.8073160e+02 </wgt>
<wgt id='1814'> +2.8064778e+02 </wgt>
<wgt id='1815'> +2.8094802e+02 </wgt>
<wgt id='1816'> +2.8105516e+02 </wgt>
<wgt id='1817'> +2.8051007e+02 </wgt>
<wgt id='1818'> +2.8113628e+02 </wgt>
<wgt id='1819'> +2.8065951e+02 </wgt>
<wgt id='1820'> +2.8098721e+02 </wgt>
<wgt id='1821'> +2.8071818e+02 </wgt>
<wgt id='1822'> +2.8072749e+02 </wgt>
<wgt id='1823'> +2.8038815e+02 </wgt>
<wgt id='1824'> +2.8055668e+02 </wgt>
<wgt id='1825'> +2.8062813e+02 </wgt>
<wgt id='1826'> +2.8051971e+02 </wgt>
<wgt id='1827'> +2.8080271e+02 </wgt>
<wgt id='1828'> +2.8064936e+02 </wgt>
<wgt id='1829'> +2.8032953e+02 </wgt>
<wgt id='1830'> +2.8053651e+02 </wgt>
<wgt id='1831'> +2.8080069e+02 </wgt>
<wgt id='1832'> +2.8054474e+02 </wgt>
<wgt id='1833'> +2.8078068e+02 </wgt>
<wgt id='1834'> +2.8080324e+02 </wgt>
<wgt id='1835'> +2.8074415e+02 </wgt>
<wgt id='1836'> +2.8075605e+02 </wgt>
<wgt id='1837'> +2.8055760e+02 </wgt>
<wgt id='1838'> +2.8066311e+02 </wgt>
<wgt id='1839'> +2.8096458e+02 </wgt>
<wgt id='1840'> +2.8066675e+02 </wgt>
<wgt id='1841'> +2.8052161e+02 </wgt>
<wgt id='1842'> +2.8058488e+02 </wgt>
<wgt id='1843'> +2.8061478e+02 </wgt>
<wgt id='1844'> +2.8074814e+02 </wgt>
<wgt id='1845'> +2.8074242e+02 </wgt>
<wgt id='1846'> +2.8083226e+02 </wgt>
<wgt id='1847'> +2.8063142e+02 </wgt>
<wgt id='1848'> +2.8069879e+02 </wgt>
<wgt id='1849'> +2.8072999e+02 </wgt>
<wgt id='1850'> +2.8079250e+02 </wgt>
<wgt id='1851'> +2.8079865e+02 </wgt>
<wgt id='1852'> +2.8084457e+02 </wgt>
<wgt id='1853'> +2.8067296e+02 </wgt>
<wgt id='1854'> +2.8086523e+02 </wgt>
<wgt id='1855'> +2.8086368e+02 </wgt>
<wgt id='1856'> +2.8061979e+02 </wgt>
<wgt id='1857'> +2.8074437e+02 </wgt>
<wgt id='1858'> +2.8068406e+02 </wgt>
<wgt id='1859'> +2.8068068e+02 </wgt>
<wgt id='1860'> +2.8073983e+02 </wgt>
<wgt id='1861'> +2.8073047e+02 </wgt>
<wgt id='1862'> +2.8065170e+02 </wgt>
<wgt id='1863'> +2.8087182e+02 </wgt>
<wgt id='1864'> +2.8067460e+02 </wgt>
<wgt id='1865'> +2.8076647e+02 </wgt>
<wgt id='1866'> +2.8061468e+02 </wgt>
<wgt id='1867'> +2.8062815e+02 </wgt>
<wgt id='1868'> +2.8063873e+02 </wgt>
<wgt id='1869'> +2.8073538e+02 </wgt>
<wgt id='1870'> +2.8054216e+02 </wgt>
<wgt id='1871'> +2.8064428e+02 </wgt>
<wgt id='1872'> +2.8064082e+02 </wgt>
<wgt id='1873'> +2.8074301e+02 </wgt>
<wgt id='1874'> +2.8067865e+02 </wgt>
<wgt id='1875'> +2.8069496e+02 </wgt>
<wgt id='1876'> +2.8065961e+02 </wgt>
<wgt id='1877'> +2.8068523e+02 </wgt>
<wgt id='1878'> +2.8073409e+02 </wgt>
<wgt id='1879'> +2.8064802e+02 </wgt>
<wgt id='1880'> +2.8071723e+02 </wgt>
<wgt id='1881'> +2.8070229e+02 </wgt>
<wgt id='1882'> +2.8064206e+02 </wgt>
<wgt id='1883'> +2.8069505e+02 </wgt>
<wgt id='1884'> +2.7235404e+02 </wgt>
<wgt id='1885'> +2.8830445e+02 </wgt>
<wgt id='1886'> +2.8744109e+02 </wgt>
<wgt id='1887'> +2.8885321e+02 </wgt>
<wgt id='1888'> +2.8746850e+02 </wgt>
<wgt id='1889'> +2.8748652e+02 </wgt>
<wgt id='1890'> +2.8839173e+02 </wgt>
<wgt id='1891'> +2.9620898e+02 </wgt>
<wgt id='1892'> +2.8745204e+02 </wgt>
<wgt id='1893'> +2.8739720e+02 </wgt>
<wgt id='1894'> +2.8750908e+02 </wgt>
<wgt id='1895'> +2.8698980e+02 </wgt>
<wgt id='1896'> +2.8744877e+02 </wgt>
<wgt id='1897'> +2.8710591e+02 </wgt>
<wgt id='1898'> +2.8694743e+02 </wgt>
<wgt id='1899'> +2.8732995e+02 </wgt>
<wgt id='1900'> +2.8760976e+02 </wgt>
<wgt id='1901'> +2.8776692e+02 </wgt>
<wgt id='1902'> +2.8756771e+02 </wgt>
<wgt id='1903'> +2.8569484e+02 </wgt>
<wgt id='1904'> +2.8769024e+02 </wgt>
<wgt id='1905'> +2.8696546e+02 </wgt>
<wgt id='1906'> +2.8753568e+02 </wgt>
<wgt id='1907'> +2.8746050e+02 </wgt>
<wgt id='1908'> +2.8731545e+02 </wgt>
<wgt id='1909'> +2.8751806e+02 </wgt>
<wgt id='1910'> +2.8749171e+02 </wgt>
<wgt id='1911'> +2.8729726e+02 </wgt>
<wgt id='1912'> +2.8745405e+02 </wgt>
<wgt id='1913'> +2.8738546e+02 </wgt>
<wgt id='1914'> +2.8798442e+02 </wgt>
<wgt id='1915'> +2.8772918e+02 </wgt>
<wgt id='1916'> +2.8734533e+02 </wgt>
<wgt id='1917'> +2.7779445e+02 </wgt>
<wgt id='1918'> +2.9641448e+02 </wgt>
<wgt id='1919'> +2.8070262e+02 </wgt>
<wgt id='1920'> +2.8076980e+02 </wgt>
<wgt id='1921'> +2.8178544e+02 </wgt>
<wgt id='1922'> +2.8039394e+02 </wgt>
<wgt id='1923'> +2.8179417e+02 </wgt>
<wgt id='1924'> +2.7666137e+02 </wgt>
<wgt id='1925'> +2.8062723e+02 </wgt>
<wgt id='1926'> +2.8006359e+02 </wgt>
<wgt id='1927'> +2.8005156e+02 </wgt>
<wgt id='1928'> +2.7923027e+02 </wgt>
<wgt id='1929'> +2.8147727e+02 </wgt>
<wgt id='1930'> +2.7904238e+02 </wgt>
<wgt id='1931'> +2.8101119e+02 </wgt>
<wgt id='1932'> +2.8183884e+02 </wgt>
<wgt id='1933'> +2.7976458e+02 </wgt>
<wgt id='1934'> +2.8034138e+02 </wgt>
<wgt id='1935'> +2.8036529e+02 </wgt>
<wgt id='1936'> +2.8321363e+02 </wgt>
<wgt id='1937'> +2.8071410e+02 </wgt>
<wgt id='1938'> +2.8061090e+02 </wgt>
<wgt id='1939'> +2.8111410e+02 </wgt>
<wgt id='1940'> +2.8170237e+02 </wgt>
<wgt id='1941'> +2.8671236e+02 </wgt>
<wgt id='1942'> +2.8057541e+02 </wgt>
<wgt id='1943'> +2.8047991e+02 </wgt>
<wgt id='1944'> +2.7994898e+02 </wgt>
<wgt id='1945'> +2.8067128e+02 </wgt>
<wgt id='1946'> +2.8066695e+02 </wgt>
<wgt id='1947'> +2.8059454e+02 </wgt>
<wgt id='1948'> +2.8056856e+02 </wgt>
<wgt id='1949'> +2.8075598e+02 </wgt>
<wgt id='1950'> +2.7235404e+02 </wgt>
<wgt id='1951'> +2.8830445e+02 </wgt>
<wgt id='1952'> +3.0688995e+02 </wgt>
<wgt id='1953'> +3.0643355e+02 </wgt>
<wgt id='1954'> +3.0734473e+02 </wgt>
<wgt id='1955'> +3.0770552e+02 </wgt>
<wgt id='1956'> +3.0607603e+02 </wgt>
<wgt id='1957'> +3.0742044e+02 </wgt>
<wgt id='1958'> +3.0636042e+02 </wgt>
<wgt id='1959'> +3.0780701e+02 </wgt>
<wgt id='1960'> +3.0599953e+02 </wgt>
<wgt id='1961'> +3.0737776e+02 </wgt>
<wgt id='1962'> +3.0641179e+02 </wgt>
<wgt id='1963'> +3.0634343e+02 </wgt>
<wgt id='1964'> +3.0748739e+02 </wgt>
<wgt id='1965'> +3.0559846e+02 </wgt>
<wgt id='1966'> +3.0819643e+02 </wgt>
<wgt id='1967'> +3.0691136e+02 </wgt>
<wgt id='1968'> +3.0644140e+02 </wgt>
<wgt id='1969'> +3.0787316e+02 </wgt>
<wgt id='1970'> +3.0578787e+02 </wgt>
<wgt id='1971'> +3.0569871e+02 </wgt>
<wgt id='1972'> +3.0804038e+02 </wgt>
<wgt id='1973'> +3.0820507e+02 </wgt>
<wgt id='1974'> +3.0520721e+02 </wgt>
<wgt id='1975'> +3.0569341e+02 </wgt>
<wgt id='1976'> +3.0647519e+02 </wgt>
<wgt id='1977'> +3.0789623e+02 </wgt>
<wgt id='1978'> +3.0633996e+02 </wgt>
<wgt id='1979'> +3.0640670e+02 </wgt>
<wgt id='1980'> +3.0765392e+02 </wgt>
<wgt id='1981'> +3.0688995e+02 </wgt>
<wgt id='1982'> +3.0673311e+02 </wgt>
<wgt id='1983'> +3.0691915e+02 </wgt>
<wgt id='1984'> +3.0667785e+02 </wgt>
<wgt id='1985'> +3.0691234e+02 </wgt>
<wgt id='1986'> +3.0787192e+02 </wgt>
<wgt id='1987'> +3.0420731e+02 </wgt>
<wgt id='1988'> +3.0554160e+02 </wgt>
<wgt id='1989'> +3.0813412e+02 </wgt>
<wgt id='1990'> +3.0610528e+02 </wgt>
<wgt id='1991'> +3.0774833e+02 </wgt>
<wgt id='1992'> +3.0697972e+02 </wgt>
<wgt id='1993'> +3.0741358e+02 </wgt>
<wgt id='1994'> +3.0374404e+02 </wgt>
<wgt id='1995'> +2.8338580e+02 </wgt>
<wgt id='1996'> +2.8313965e+02 </wgt>
<wgt id='1997'> +2.8359192e+02 </wgt>
<wgt id='1998'> +2.8378489e+02 </wgt>
<wgt id='1999'> +2.8294815e+02 </wgt>
<wgt id='2000'> +2.8409336e+02 </wgt>
<wgt id='2001'> +2.8264046e+02 </wgt>
<wgt id='2002'> +2.8469610e+02 </wgt>
<wgt id='2003'> +2.8206998e+02 </wgt>
<wgt id='2004'> +2.8341161e+02 </wgt>
<wgt id='2005'> +2.8333771e+02 </wgt>
<wgt id='2006'> +2.8409345e+02 </wgt>
<wgt id='2007'> +2.8264054e+02 </wgt>
<wgt id='2008'> +2.8247954e+02 </wgt>
<wgt id='2009'> +2.8425047e+02 </wgt>
<wgt id='2010'> +2.8288119e+02 </wgt>
<wgt id='2011'> +2.8361286e+02 </wgt>
<wgt id='2012'> +2.8319035e+02 </wgt>
<wgt id='2013'> +2.8347903e+02 </wgt>
<wgt id='2014'> +2.8282956e+02 </wgt>
<wgt id='2015'> +2.8387842e+02 </wgt>
<wgt id='2016'> +2.8081478e+02 </wgt>
<wgt id='2017'> +2.8550335e+02 </wgt>
<wgt id='2018'> +2.8354456e+02 </wgt>
<wgt id='2019'> +2.8314654e+02 </wgt>
<wgt id='2020'> +2.8267448e+02 </wgt>
<wgt id='2021'> +2.8332440e+02 </wgt>
<wgt id='2022'> +2.8348865e+02 </wgt>
<wgt id='2023'> +2.8357026e+02 </wgt>
<wgt id='2024'> +2.8329702e+02 </wgt>
<wgt id='2025'> +2.8348669e+02 </wgt>
<wgt id='2026'> +2.8247659e+02 </wgt>
<wgt id='2027'> +2.8339258e+02 </wgt>
<wgt id='2028'> +2.8305093e+02 </wgt>
<wgt id='2029'> +2.8295192e+02 </wgt>
<wgt id='2030'> +2.8328507e+02 </wgt>
<wgt id='2031'> +2.8218509e+02 </wgt>
<wgt id='2032'> +2.8491591e+02 </wgt>
<wgt id='2033'> +2.8244422e+02 </wgt>
<wgt id='2034'> +2.8417512e+02 </wgt>
<wgt id='2035'> +2.8249156e+02 </wgt>
<wgt id='2036'> +2.8559206e+02 </wgt>
<wgt id='2037'> +2.8128980e+02 </wgt>
<wgt id='2038'> +2.8479037e+02 </wgt>
<wgt id='2039'> +2.8474897e+02 </wgt>
<wgt id='2040'> +2.8470286e+02 </wgt>
<wgt id='2041'> +2.8466150e+02 </wgt>
<wgt id='2042'> +2.8461552e+02 </wgt>
<wgt id='2043'> +2.8457405e+02 </wgt>
<wgt id='2044'> +2.8452913e+02 </wgt>
<wgt id='2045'> +2.8448576e+02 </wgt>
<wgt id='2046'> +2.8444107e+02 </wgt>
<wgt id='2047'> +2.8439835e+02 </wgt>
<wgt id='2048'> +2.8435706e+02 </wgt>
<wgt id='2049'> +2.8431199e+02 </wgt>
<wgt id='2050'> +2.8426942e+02 </wgt>
<wgt id='2051'> +2.8422450e+02 </wgt>
<wgt id='2052'> +2.8418227e+02 </wgt>
<wgt id='2053'> +2.8413741e+02 </wgt>
<wgt id='2054'> +2.8409471e+02 </wgt>
<wgt id='2055'> +2.8404977e+02 </wgt>
<wgt id='2056'> +2.8400831e+02 </wgt>
<wgt id='2057'> +2.8396275e+02 </wgt>
<wgt id='2058'> +2.8392130e+02 </wgt>
<wgt id='2059'> +2.8387538e+02 </wgt>
<wgt id='2060'> +2.8383408e+02 </wgt>
<wgt id='2061'> +2.8379240e+02 </wgt>
<wgt id='2062'> +2.8374678e+02 </wgt>
<wgt id='2063'> +2.8370546e+02 </wgt>
<wgt id='2064'> +2.8365945e+02 </wgt>
<wgt id='2065'> +2.8361813e+02 </wgt>
<wgt id='2066'> +2.8357321e+02 </wgt>
<wgt id='2067'> +2.8353094e+02 </wgt>
<wgt id='2068'> +2.8348595e+02 </wgt>
<wgt id='2069'> +2.7730100e+02 </wgt>
<wgt id='2070'> +2.7770703e+02 </wgt>
<wgt id='2071'> +2.7886282e+02 </wgt>
<wgt id='2072'> +2.7465962e+02 </wgt>
<wgt id='2073'> +2.7672885e+02 </wgt>
<wgt id='2074'> +2.7881892e+02 </wgt>
<wgt id='2075'> +2.7648214e+02 </wgt>
<wgt id='2076'> +2.7738796e+02 </wgt>
<wgt id='2077'> +2.7789844e+02 </wgt>
<wgt id='2078'> +2.7712532e+02 </wgt>
<wgt id='2079'> +2.7670636e+02 </wgt>
<wgt id='2080'> +2.8066271e+02 </wgt>
<wgt id='2081'> +2.7365167e+02 </wgt>
<wgt id='2082'> +2.7322758e+02 </wgt>
<wgt id='2083'> +2.7394291e+02 </wgt>
<wgt id='2084'> +2.7698094e+02 </wgt>
<wgt id='2085'> +2.7875514e+02 </wgt>
<wgt id='2086'> +2.7735817e+02 </wgt>
<wgt id='2087'> +2.7715569e+02 </wgt>
<wgt id='2088'> +2.7700119e+02 </wgt>
<wgt id='2089'> +2.7849690e+02 </wgt>
<wgt id='2090'> +2.7706485e+02 </wgt>
<wgt id='2091'> +2.7766951e+02 </wgt>
<wgt id='2092'> +2.7682703e+02 </wgt>
<wgt id='2093'> +2.7693858e+02 </wgt>
<wgt id='2094'> +2.7762039e+02 </wgt>
<wgt id='2095'> +2.7740171e+02 </wgt>
<wgt id='2096'> +2.7692922e+02 </wgt>
<wgt id='2097'> +2.7751117e+02 </wgt>
<wgt id='2098'> +2.7765140e+02 </wgt>
<wgt id='2099'> +2.7732920e+02 </wgt>
<wgt id='2100'> +2.7722855e+02 </wgt>
<wgt id='2101'> +2.7754914e+02 </wgt>
<wgt id='2102'> +2.7765574e+02 </wgt>
<wgt id='2103'> +2.7711321e+02 </wgt>
<wgt id='2104'> +2.7774098e+02 </wgt>
<wgt id='2105'> +2.7725839e+02 </wgt>
<wgt id='2106'> +2.7758232e+02 </wgt>
<wgt id='2107'> +2.7731814e+02 </wgt>
<wgt id='2108'> +2.7733089e+02 </wgt>
<wgt id='2109'> +2.7698822e+02 </wgt>
<wgt id='2110'> +2.7716396e+02 </wgt>
<wgt id='2111'> +2.7723571e+02 </wgt>
<wgt id='2112'> +2.7711036e+02 </wgt>
<wgt id='2113'> +2.7740468e+02 </wgt>
<wgt id='2114'> +2.7725317e+02 </wgt>
<wgt id='2115'> +2.7692832e+02 </wgt>
<wgt id='2116'> +2.7714341e+02 </wgt>
<wgt id='2117'> +2.7739787e+02 </wgt>
<wgt id='2118'> +2.7714889e+02 </wgt>
<wgt id='2119'> +2.7737879e+02 </wgt>
<wgt id='2120'> +2.7740273e+02 </wgt>
<wgt id='2121'> +2.7734388e+02 </wgt>
<wgt id='2122'> +2.7735064e+02 </wgt>
<wgt id='2123'> +2.7715539e+02 </wgt>
<wgt id='2124'> +2.7726059e+02 </wgt>
<wgt id='2125'> +2.7756680e+02 </wgt>
<wgt id='2126'> +2.7726785e+02 </wgt>
<wgt id='2127'> +2.7711790e+02 </wgt>
<wgt id='2128'> +2.7718294e+02 </wgt>
<wgt id='2129'> +2.7721378e+02 </wgt>
<wgt id='2130'> +2.7734546e+02 </wgt>
<wgt id='2131'> +2.7734337e+02 </wgt>
<wgt id='2132'> +2.7743273e+02 </wgt>
<wgt id='2133'> +2.7723149e+02 </wgt>
<wgt id='2134'> +2.7729757e+02 </wgt>
<wgt id='2135'> +2.7732992e+02 </wgt>
<wgt id='2136'> +2.7739401e+02 </wgt>
<wgt id='2137'> +2.7739651e+02 </wgt>
<wgt id='2138'> +2.7744453e+02 </wgt>
<wgt id='2139'> +2.7727313e+02 </wgt>
<wgt id='2140'> +2.7746155e+02 </wgt>
<wgt id='2141'> +2.7746226e+02 </wgt>
<wgt id='2142'> +2.7722224e+02 </wgt>
<wgt id='2143'> +2.7734285e+02 </wgt>
<wgt id='2144'> +2.7728305e+02 </wgt>
<wgt id='2145'> +2.7727780e+02 </wgt>
<wgt id='2146'> +2.7733629e+02 </wgt>
<wgt id='2147'> +2.7732730e+02 </wgt>
<wgt id='2148'> +2.7725258e+02 </wgt>
<wgt id='2149'> +2.7747302e+02 </wgt>
<wgt id='2150'> +2.7727216e+02 </wgt>
<wgt id='2151'> +2.7736528e+02 </wgt>
<wgt id='2152'> +2.7721480e+02 </wgt>
<wgt id='2153'> +2.7722893e+02 </wgt>
<wgt id='2154'> +2.7723661e+02 </wgt>
<wgt id='2155'> +2.7733202e+02 </wgt>
<wgt id='2156'> +2.7714248e+02 </wgt>
<wgt id='2157'> +2.7724517e+02 </wgt>
<wgt id='2158'> +2.7724044e+02 </wgt>
<wgt id='2159'> +2.7734283e+02 </wgt>
<wgt id='2160'> +2.7727944e+02 </wgt>
<wgt id='2161'> +2.7729562e+02 </wgt>
<wgt id='2162'> +2.7725915e+02 </wgt>
<wgt id='2163'> +2.7728671e+02 </wgt>
<wgt id='2164'> +2.7733309e+02 </wgt>
<wgt id='2165'> +2.7724683e+02 </wgt>
<wgt id='2166'> +2.7731756e+02 </wgt>
<wgt id='2167'> +2.7730203e+02 </wgt>
<wgt id='2168'> +2.7724132e+02 </wgt>
<wgt id='2169'> +2.7729436e+02 </wgt>
<wgt id='2170'> +2.7729745e+02 </wgt>
<wgt id='2171'> +2.7727772e+02 </wgt>
<wgt id='2172'> +2.7730470e+02 </wgt>
<wgt id='2173'> +2.7730529e+02 </wgt>
<wgt id='2174'> +2.7731178e+02 </wgt>
<wgt id='2175'> +2.7730256e+02 </wgt>
<wgt id='2176'> +2.7728547e+02 </wgt>
<wgt id='2177'> +2.8503944e+02 </wgt>
<wgt id='2178'> +2.5918475e+02 </wgt>
<wgt id='2179'> +2.8679700e+02 </wgt>
<wgt id='2180'> +2.8297924e+02 </wgt>
<wgt id='2181'> +2.8158887e+02 </wgt>
<wgt id='2182'> +2.4830036e+02 </wgt>
<wgt id='2183'> +2.8603311e+02 </wgt>
<wgt id='2184'> +2.8987732e+02 </wgt>
<wgt id='2185'> +2.8480389e+02 </wgt>
<wgt id='2186'> +2.8484063e+02 </wgt>
<wgt id='2187'> +2.7552940e+02 </wgt>
<wgt id='2188'> +2.8031945e+02 </wgt>
<wgt id='2189'> +2.9056421e+02 </wgt>
<wgt id='2190'> +2.9043444e+02 </wgt>
<wgt id='2191'> +2.7649528e+02 </wgt>
<wgt id='2192'> +2.8575977e+02 </wgt>
<wgt id='2193'> +2.9042180e+02 </wgt>
<wgt id='2194'> +2.7972827e+02 </wgt>
<wgt id='2195'> +2.8212491e+02 </wgt>
<wgt id='2196'> +2.8856174e+02 </wgt>
<wgt id='2197'> +2.8914342e+02 </wgt>
<wgt id='2198'> +2.8675671e+02 </wgt>
<wgt id='2199'> +2.8309686e+02 </wgt>
<wgt id='2200'> +3.0859167e+02 </wgt>
<wgt id='2201'> +2.8243074e+02 </wgt>
<wgt id='2202'> +2.8960365e+02 </wgt>
<wgt id='2203'> +2.7909905e+02 </wgt>
<wgt id='2204'> +2.8225278e+02 </wgt>
<wgt id='2205'> +2.8259407e+02 </wgt>
<wgt id='2206'> +2.8138719e+02 </wgt>
<wgt id='2207'> +2.9103411e+02 </wgt>
<wgt id='2208'> +2.8384962e+02 </wgt>
<wgt id='2209'> +2.7632958e+02 </wgt>
<wgt id='2210'> +2.9156584e+02 </wgt>
<wgt id='2211'> +2.8716760e+02 </wgt>
<wgt id='2212'> +2.9461691e+02 </wgt>
<wgt id='2213'> +2.9425966e+02 </wgt>
<wgt id='2214'> +2.8848118e+02 </wgt>
<wgt id='2215'> +2.8454436e+02 </wgt>
<wgt id='2216'> +2.7423882e+02 </wgt>
<wgt id='2217'> +2.8993740e+02 </wgt>
<wgt id='2218'> +2.8395993e+02 </wgt>
<wgt id='2219'> +2.8991549e+02 </wgt>
<wgt id='2220'> +2.8876324e+02 </wgt>
<wgt id='2221'> +2.8245783e+02 </wgt>
<wgt id='2222'> +2.8954339e+02 </wgt>
<wgt id='2223'> +2.8774406e+02 </wgt>
<wgt id='2224'> +2.7992974e+02 </wgt>
<wgt id='2225'> +2.7930989e+02 </wgt>
<wgt id='2226'> +2.8744424e+02 </wgt>
<wgt id='2227'> +2.8615755e+02 </wgt>
<wgt id='2228'> +2.8513289e+02 </wgt>
<wgt id='2229'> +2.8401127e+02 </wgt>
<wgt id='2230'> +2.8979301e+02 </wgt>
<wgt id='2231'> +2.8519865e+02 </wgt>
<wgt id='2232'> +2.8539182e+02 </wgt>
<wgt id='2233'> +2.7656858e+02 </wgt>
<wgt id='2234'> +2.9749939e+02 </wgt>
<wgt id='2235'> +2.8246035e+02 </wgt>
<wgt id='2236'> +2.8874392e+02 </wgt>
<wgt id='2237'> +2.8405886e+02 </wgt>
<wgt id='2238'> +2.8827342e+02 </wgt>
<wgt id='2239'> +2.8551658e+02 </wgt>
<wgt id='2240'> +2.9071375e+02 </wgt>
<wgt id='2241'> +2.8079915e+02 </wgt>
<wgt id='2242'> +2.8913123e+02 </wgt>
<wgt id='2243'> +2.8617248e+02 </wgt>
<wgt id='2244'> +3.0018202e+02 </wgt>
<wgt id='2245'> +2.8037756e+02 </wgt>
<wgt id='2246'> +2.7795596e+02 </wgt>
<wgt id='2247'> +2.8595260e+02 </wgt>
<wgt id='2248'> +2.9239698e+02 </wgt>
<wgt id='2249'> +2.8273556e+02 </wgt>
<wgt id='2250'> +2.6368601e+02 </wgt>
<wgt id='2251'> +2.8761504e+02 </wgt>
<wgt id='2252'> +2.8217081e+02 </wgt>
<wgt id='2253'> +2.7696043e+02 </wgt>
<wgt id='2254'> +2.8765328e+02 </wgt>
<wgt id='2255'> +2.9705785e+02 </wgt>
<wgt id='2256'> +2.8359038e+02 </wgt>
<wgt id='2257'> +2.8752610e+02 </wgt>
<wgt id='2258'> +2.8691643e+02 </wgt>
<wgt id='2259'> +2.8189228e+02 </wgt>
<wgt id='2260'> +2.8603211e+02 </wgt>
<wgt id='2261'> +2.8610816e+02 </wgt>
<wgt id='2262'> +2.7631541e+02 </wgt>
<wgt id='2263'> +2.8396292e+02 </wgt>
<wgt id='2264'> +2.8399306e+02 </wgt>
<wgt id='2265'> +2.8560433e+02 </wgt>
<wgt id='2266'> +2.9139006e+02 </wgt>
<wgt id='2267'> +2.8391986e+02 </wgt>
<wgt id='2268'> +2.7663552e+02 </wgt>
<wgt id='2269'> +2.9293565e+02 </wgt>
<wgt id='2270'> +2.8254725e+02 </wgt>
<wgt id='2271'> +2.9236948e+02 </wgt>
<wgt id='2272'> +2.7978568e+02 </wgt>
<wgt id='2273'> +2.8982964e+02 </wgt>
<wgt id='2274'> +2.8640305e+02 </wgt>
<wgt id='2275'> +2.9855016e+02 </wgt>
<wgt id='2276'> +2.9354898e+02 </wgt>
<wgt id='2277'> +2.8389962e+02 </wgt>
<wgt id='2278'> +2.7762084e+02 </wgt>
<wgt id='2279'> +2.8995369e+02 </wgt>
<wgt id='2280'> +2.8250932e+02 </wgt>
<wgt id='2281'> +3.3434615e+02 </wgt>
<wgt id='2282'> +4.5221184e+02 </wgt>
<wgt id='2283'> +3.2808732e+02 </wgt>
<wgt id='2284'> +4.3558443e+02 </wgt>
</rwgt>
</event>
<event npLO=" -1 " npNLO=" 1 ">
 4      1 +2.8781417e+02 4.38239460e+01 7.54677110e-03 1.15587130e-01
       21 -1    0    0  501  502 +0.0000000000e+00 +0.0000000000e+00 +8.3102334000e+02 8.3102334000e+02 0.0000000000e+00 0.0000e+00 9.0000e+00
        1 -1    0    0  502    0 +0.0000000000e+00 +0.0000000000e+00 -1.0352726000e+01 1.0352726000e+01 0.0000000000e+00 0.0000e+00 9.0000e+00
       25  1    1    2    0    0 +2.6730851000e+01 -4.7635030000e+01 +6.9598183000e+02 7.0524772000e+02 1.0000000000e+02 0.0000e+00 9.0000e+00
        1  1    1    2  501    0 -2.6730851000e+01 +4.7635030000e+01 +1.2468878000e+02 1.3612835000e+02 0.0000000000e+00 0.0000e+00 9.0000e+00
#aMCatNLO 1  0  0  2  1 0.33108362E+02 0.00000000E+00 -9  5  0 0.00000000E+00 0.00000000E+00 0.00000000E+00 0.00000000E+00 0.00000000E+00
<rwgt>
<wgt id='1001'> +2.8781417e+02 </wgt>
<wgt id='1002'> +2.1585514e+02 </wgt>
<wgt id='1003'> +3.9576971e+02 </wgt>
<wgt id='1004'> +2.7254831e+02 </wgt>
<wgt id='1005'> +2.0564716e+02 </wgt>
<wgt id='1006'> +3.7185589e+02 </wgt>
<wgt id='1007'> +3.0326151e+02 </wgt>
<wgt id='1008'> +2.2596728e+02 </wgt>
<wgt id='1009'> +4.2048068e+02 </wgt>
<wgt id='1010'> +2.8781417e+02 </wgt>
<wgt id='1011'> +2.8675689e+02 </wgt>
<wgt id='1012'> +2.8774431e+02 </wgt>
<wgt id='1013'> +2.8736979e+02 </wgt>
<wgt id='1014'> +2.8944898e+02 </wgt>
<wgt id='1015'> +2.8578703e+02 </wgt>
<wgt id='1016'> +2.8903744e+02 </wgt>
<wgt id='1017'> +2.8744430e+02 </wgt>
<wgt id='1018'> +2.8671746e+02 </wgt>
<wgt id='1019'> +2.8831283e+02 </wgt>
<wgt id='1020'> +2.8702715e+02 </wgt>
<wgt id='1021'> +2.8877852e+02 </wgt>
<wgt id='1022'> +2.8881695e+02 </wgt>
<wgt id='1023'> +2.8916454e+02 </wgt>
<wgt id='1024'> +2.8805692e+02 </wgt>
<wgt id='1025'> +2.8940865e+02 </wgt>
<wgt id='1026'> +2.8814670e+02 </wgt>
<wgt id='1027'> +2.8885053e+02 </wgt>
<wgt id='1028'> +2.8667386e+02 </wgt>
<wgt id='1029'> +2.8553940e+02 </wgt>
<wgt id='1030'> +2.9017883e+02 </wgt>
<wgt id='1031'> +2.8782900e+02 </wgt>
<wgt id='1032'> +2.8721135e+02 </wgt>
<wgt id='1033'> +2.8803834e+02 </wgt>
<wgt id='1034'> +2.8607322e+02 </wgt>
<wgt id='1035'> +2.8840593e+02 </wgt>
<wgt id='1036'> +2.8719443e+02 </wgt>
<wgt id='1037'> +2.9024080e+02 </wgt>
<wgt id='1038'> +2.8854238e+02 </wgt>
<wgt id='1039'> +2.8724730e+02 </wgt>
<wgt id='1040'> +2.8786940e+02 </wgt>
<wgt id='1041'> +2.8626565e+02 </wgt>
<wgt id='1042'> +2.8793498e+02 </wgt>
<wgt id='1043'> +2.8687847e+02 </wgt>
<wgt id='1044'> +2.8658996e+02 </wgt>
<wgt id='1045'> +2.8815304e+02 </wgt>
<wgt id='1046'> +2.8829382e+02 </wgt>
<wgt id='1047'> +2.8726135e+02 </wgt>
<wgt id='1048'> +2.8793542e+02 </wgt>
<wgt id='1049'> +2.8736156e+02 </wgt>
<wgt id='1050'> +2.8697600e+02 </wgt>
<wgt id='1051'> +2.8767654e+02 </wgt>
<wgt id='1052'> +2.8847356e+02 </wgt>
<wgt id='1053'> +2.8766000e+02 </wgt>
<wgt id='1054'> +2.8761452e+02 </wgt>
<wgt id='1055'> +2.8830751e+02 </wgt>
<wgt id='1056'> +2.8786136e+02 </wgt>
<wgt id='1057'> +2.8776562e+02 </wgt>
<wgt id='1058'> +2.8753366e+02 </wgt>
<wgt id='1059'> +2.8765612e+02 </wgt>
<wgt id='1060'> +2.8752616e+02 </wgt>
<wgt id='1061'> +2.8783422e+02 </wgt>
<wgt id='1062'> +2.8774627e+02 </wgt>
<wgt id='1063'> +2.8775003e+02 </wgt>
<wgt id='1064'> +2.8750439e+02 </wgt>
<wgt id='1065'> +2.8771945e+02 </wgt>
<wgt id='1066'> +2.8752059e+02 </wgt>
<wgt id='1067'> +2.8774617e+02 </wgt>
<wgt id='1068'> +2.8796222e+02 </wgt>
<wgt id='1069'> +2.8790334e+02 </wgt>
<wgt id='1070'> +2.8755303e+02 </wgt>
<wgt id='1071'> +2.8766761e+02 </wgt>
<wgt id='1072'> +2.8806428e+02 </wgt>
<wgt id='1073'> +2.8775792e+02 </wgt>
<wgt id='1074'> +2.8785579e+02 </wgt>
<wgt id='1075'> +2.8793476e+02 </wgt>
<wgt id='1076'> +2.8771792e+02 </wgt>
<wgt id='1077'> +2.8789287e+02 </wgt>
<wgt id='1078'> +2.8790295e+02 </wgt>
<wgt id='1079'> +2.8765415e+02 </wgt>
<wgt id='1080'> +2.8790408e+02 </wgt>
<wgt id='1081'> +2.8782785e+02 </wgt>
<wgt id='1082'> +2.8771387e+02 </wgt>
<wgt id='1083'> +2.8776581e+02 </wgt>
<wgt id='1084'> +2.8774928e+02 </wgt>
<wgt id='1085'> +2.8777899e+02 </wgt>
<wgt id='1086'> +2.8767157e+02 </wgt>
<wgt id='1087'> +2.8804593e+02 </wgt>
<wgt id='1088'> +2.8784315e+02 </wgt>
<wgt id='1089'> +2.8773580e+02 </wgt>
<wgt id='1090'> +2.8782287e+02 </wgt>
<wgt id='1091'> +2.8772614e+02 </wgt>
<wgt id='1092'> +2.8785782e+02 </wgt>
<wgt id='1093'> +2.8797724e+02 </wgt>
<wgt id='1094'> +2.8769037e+02 </wgt>
<wgt id='1095'> +2.8783675e+02 </wgt>
<wgt id='1096'> +2.8768779e+02 </wgt>
<wgt id='1097'> +2.8787549e+02 </wgt>
<wgt id='1098'> +2.8774576e+02 </wgt>
<wgt id='1099'> +2.8778020e+02 </wgt>
<wgt id='1100'> +2.8787570e+02 </wgt>
<wgt id='1101'> +2.8775926e+02 </wgt>
<wgt id='1102'> +2.8799053e+02 </wgt>
<wgt id='1103'> +2.8778221e+02 </wgt>
<wgt id='1104'> +2.8786440e+02 </wgt>
<wgt id='1105'> +2.8789880e+02 </wgt>
<wgt id='1106'> +2.8772642e+02 </wgt>
<wgt id='1107'> +2.8788322e+02 </wgt>
<wgt id='1108'> +2.8784636e+02 </wgt>
<wgt id='1109'> +2.8784196e+02 </wgt>
<wgt id='1110'> +2.8781419e+02 </wgt>
<wgt id='1111'> +2.7059811e+02 </wgt>
<wgt id='1112'> +3.0836117e+02 </wgt>
<wgt id='1113'> +2.8781419e+02 </wgt>
<wgt id='1114'> +2.9191513e+02 </wgt>
<wgt id='1115'> +2.8757562e+02 </wgt>
<wgt id='1116'> +2.8159958e+02 </wgt>
<wgt id='1117'> +2.9064105e+02 </wgt>
<wgt id='1118'> +2.9492772e+02 </wgt>
<wgt id='1119'> +2.9407933e+02 </wgt>
<wgt id='1120'> +2.8348131e+02 </wgt>
<wgt id='1121'> +2.7407322e+02 </wgt>
<wgt id='1122'> +2.8146630e+02 </wgt>
<wgt id='1123'> +2.9977532e+02 </wgt>
<wgt id='1124'> +2.8677782e+02 </wgt>
<wgt id='1125'> +2.8611579e+02 </wgt>
<wgt id='1126'> +2.8418256e+02 </wgt>
<wgt id='1127'> +2.8360653e+02 </wgt>
<wgt id='1128'> +2.7471286e+02 </wgt>
<wgt id='1129'> +2.8745916e+02 </wgt>
<wgt id='1130'> +2.9789158e+02 </wgt>
<wgt id='1131'> +2.8540247e+02 </wgt>
<wgt id='1132'> +2.8407842e+02 </wgt>
<wgt id='1133'> +2.7920880e+02 </wgt>
<wgt id='1134'> +2.7521569e+02 </wgt>
<wgt id='1135'> +2.8186486e+02 </wgt>
<wgt id='1136'> +2.8476192e+02 </wgt>
<wgt id='1137'> +2.8958932e+02 </wgt>
<wgt id='1138'> +2.8319243e+02 </wgt>
<wgt id='1139'> +2.7461755e+02 </wgt>
<wgt id='1140'> +3.0628323e+02 </wgt>
<wgt id='1141'> +2.8435155e+02 </wgt>
<wgt id='1142'> +2.9101644e+02 </wgt>
<wgt id='1143'> +2.9357563e+02 </wgt>
<wgt id='1144'> +2.8360757e+02 </wgt>
<wgt id='1145'> +2.8290147e+02 </wgt>
<wgt id='1146'> +2.8958199e+02 </wgt>
<wgt id='1147'> +2.9424707e+02 </wgt>
<wgt id='1148'> +2.8634773e+02 </wgt>
<wgt id='1149'> +2.8495569e+02 </wgt>
<wgt id='1150'> +2.7918956e+02 </wgt>
<wgt id='1151'> +2.9013246e+02 </wgt>
<wgt id='1152'> +2.7579183e+02 </wgt>
<wgt id='1153'> +2.8520470e+02 </wgt>
<wgt id='1154'> +2.8934534e+02 </wgt>
<wgt id='1155'> +2.9906818e+02 </wgt>
<wgt id='1156'> +3.0051739e+02 </wgt>
<wgt id='1157'> +2.9946267e+02 </wgt>
<wgt id='1158'> +2.8460022e+02 </wgt>
<wgt id='1159'> +2.8845516e+02 </wgt>
<wgt id='1160'> +2.9828533e+02 </wgt>
<wgt id='1161'> +2.8536272e+02 </wgt>
<wgt id='1162'> +2.9061053e+02 </wgt>
<wgt id='1163'> +2.9797506e+02 </wgt>
<wgt id='1164'> +2.7753984e+02 </wgt>
<wgt id='1165'> +2.8197540e+02 </wgt>
<wgt id='1166'> +2.9791220e+02 </wgt>
<wgt id='1167'> +2.8480713e+02 </wgt>
<wgt id='1168'> +2.8080250e+02 </wgt>
<wgt id='1169'> +2.9013228e+02 </wgt>
<wgt id='1170'> +2.8651333e+02 </wgt>
<wgt id='1171'> +2.9236529e+02 </wgt>
<wgt id='1172'> +2.8287677e+02 </wgt>
<wgt id='1173'> +2.7658045e+02 </wgt>
<wgt id='1174'> +2.8962491e+02 </wgt>
<wgt id='1175'> +2.8958820e+02 </wgt>
<wgt id='1176'> +2.9341869e+02 </wgt>
<wgt id='1177'> +2.8641367e+02 </wgt>
<wgt id='1178'> +2.8384671e+02 </wgt>
<wgt id='1179'> +2.9337159e+02 </wgt>
<wgt id='1180'> +2.8933016e+02 </wgt>
<wgt id='1181'> +2.8698230e+02 </wgt>
<wgt id='1182'> +2.9053207e+02 </wgt>
<wgt id='1183'> +2.9327458e+02 </wgt>
<wgt id='1184'> +2.8241102e+02 </wgt>
<wgt id='1185'> +2.8292184e+02 </wgt>
<wgt id='1186'> +2.8182301e+02 </wgt>
<wgt id='1187'> +2.7934196e+02 </wgt>
<wgt id='1188'> +2.8802057e+02 </wgt>
<wgt id='1189'> +2.9006594e+02 </wgt>
<wgt id='1190'> +2.9239418e+02 </wgt>
<wgt id='1191'> +2.8134597e+02 </wgt>
<wgt id='1192'> +2.8660065e+02 </wgt>
<wgt id='1193'> +3.0336208e+02 </wgt>
<wgt id='1194'> +2.9748920e+02 </wgt>
<wgt id='1195'> +2.8745916e+02 </wgt>
<wgt id='1196'> +2.9168748e+02 </wgt>
<wgt id='1197'> +2.8372943e+02 </wgt>
<wgt id='1198'> +2.8313854e+02 </wgt>
<wgt id='1199'> +3.0829271e+02 </wgt>
<wgt id='1200'> +2.8574542e+02 </wgt>
<wgt id='1201'> +3.0047383e+02 </wgt>
<wgt id='1202'> +2.8858827e+02 </wgt>
<wgt id='1203'> +2.9193037e+02 </wgt>
<wgt id='1204'> +2.8607810e+02 </wgt>
<wgt id='1205'> +2.8137617e+02 </wgt>
<wgt id='1206'> +2.8697804e+02 </wgt>
<wgt id='1207'> +2.9622100e+02 </wgt>
<wgt id='1208'> +2.8161556e+02 </wgt>
<wgt id='1209'> +2.8573759e+02 </wgt>
<wgt id='1210'> +3.0140520e+02 </wgt>
<wgt id='1211'> +2.8698416e+02 </wgt>
<wgt id='1212'> +2.7951160e+02 </wgt>
<wgt id='1213'> +2.8245357e+02 </wgt>
<wgt id='1214'> +2.8790505e+02 </wgt>
<wgt id='1215'> +2.8761844e+02 </wgt>
<wgt id='1216'> +2.8775321e+02 </wgt>
<wgt id='1217'> +2.8737826e+02 </wgt>
<wgt id='1218'> +2.8980842e+02 </wgt>
<wgt id='1219'> +2.8787667e+02 </wgt>
<wgt id='1220'> +2.8640844e+02 </wgt>
<wgt id='1221'> +2.8866484e+02 </wgt>
<wgt id='1222'> +2.8730723e+02 </wgt>
<wgt id='1223'> +2.8827560e+02 </wgt>
<wgt id='1224'> +2.8640293e+02 </wgt>
<wgt id='1225'> +2.8606782e+02 </wgt>
<wgt id='1226'> +2.8812231e+02 </wgt>
<wgt id='1227'> +2.8583916e+02 </wgt>
<wgt id='1228'> +2.8595947e+02 </wgt>
<wgt id='1229'> +2.8876868e+02 </wgt>
<wgt id='1230'> +2.8887657e+02 </wgt>
<wgt id='1231'> +2.8650394e+02 </wgt>
<wgt id='1232'> +2.8653475e+02 </wgt>
<wgt id='1233'> +2.8698585e+02 </wgt>
<wgt id='1234'> +2.8636736e+02 </wgt>
<wgt id='1235'> +2.8921428e+02 </wgt>
<wgt id='1236'> +2.8650409e+02 </wgt>
<wgt id='1237'> +2.8819601e+02 </wgt>
<wgt id='1238'> +2.8930580e+02 </wgt>
<wgt id='1239'> +2.8677473e+02 </wgt>
<wgt id='1240'> +2.8765725e+02 </wgt>
<wgt id='1241'> +2.8691791e+02 </wgt>
<wgt id='1242'> +2.8787210e+02 </wgt>
<wgt id='1243'> +2.9065444e+02 </wgt>
<wgt id='1244'> +2.8872405e+02 </wgt>
<wgt id='1245'> +2.8795610e+02 </wgt>
<wgt id='1246'> +2.8904019e+02 </wgt>
<wgt id='1247'> +2.8852446e+02 </wgt>
<wgt id='1248'> +2.8692561e+02 </wgt>
<wgt id='1249'> +2.8731723e+02 </wgt>
<wgt id='1250'> +2.8798733e+02 </wgt>
<wgt id='1251'> +2.8745378e+02 </wgt>
<wgt id='1252'> +2.8822685e+02 </wgt>
<wgt id='1253'> +2.8851576e+02 </wgt>
<wgt id='1254'> +2.8836632e+02 </wgt>
<wgt id='1255'> +2.8730488e+02 </wgt>
<wgt id='1256'> +2.8641791e+02 </wgt>
<wgt id='1257'> +2.8868007e+02 </wgt>
<wgt id='1258'> +2.8864504e+02 </wgt>
<wgt id='1259'> +2.8789508e+02 </wgt>
<wgt id='1260'> +2.8834917e+02 </wgt>
<wgt id='1261'> +2.8836736e+02 </wgt>
<wgt id='1262'> +2.8757221e+02 </wgt>
<wgt id='1263'> +2.8799963e+02 </wgt>
<wgt id='1264'> +2.8844407e+02 </wgt>
<wgt id='1265'> +2.8839870e+02 </wgt>
<wgt id='1266'> +2.8766523e+02 </wgt>
<wgt id='1267'> +2.8794300e+02 </wgt>
<wgt id='1268'> +2.8807257e+02 </wgt>
<wgt id='1269'> +2.8816026e+02 </wgt>
<wgt id='1270'> +2.8789991e+02 </wgt>
<wgt id='1271'> +2.8764828e+02 </wgt>
<wgt id='1272'> +2.8766912e+02 </wgt>
<wgt id='1273'> +2.8773244e+02 </wgt>
<wgt id='1274'> +2.8829975e+02 </wgt>
<wgt id='1275'> +2.8781893e+02 </wgt>
<wgt id='1276'> +2.8772174e+02 </wgt>
<wgt id='1277'> +2.8804990e+02 </wgt>
<wgt id='1278'> +2.8785563e+02 </wgt>
<wgt id='1279'> +2.8796402e+02 </wgt>
<wgt id='1280'> +2.8772083e+02 </wgt>
<wgt id='1281'> +2.8819826e+02 </wgt>
<wgt id='1282'> +2.8814806e+02 </wgt>
<wgt id='1283'> +2.8807096e+02 </wgt>
<wgt id='1284'> +2.8770764e+02 </wgt>
<wgt id='1285'> +2.8770851e+02 </wgt>
<wgt id='1286'> +2.8801012e+02 </wgt>
<wgt id='1287'> +2.8787321e+02 </wgt>
<wgt id='1288'> +2.8796155e+02 </wgt>
<wgt id='1289'> +2.8775493e+02 </wgt>
<wgt id='1290'> +2.8801731e+02 </wgt>
<wgt id='1291'> +2.8781040e+02 </wgt>
<wgt id='1292'> +2.8793004e+02 </wgt>
<wgt id='1293'> +2.8772584e+02 </wgt>
<wgt id='1294'> +2.8798558e+02 </wgt>
<wgt id='1295'> +2.8802332e+02 </wgt>
<wgt id='1296'> +2.8796274e+02 </wgt>
<wgt id='1297'> +2.8796379e+02 </wgt>
<wgt id='1298'> +2.8786748e+02 </wgt>
<wgt id='1299'> +2.8790706e+02 </wgt>
<wgt id='1300'> +2.8785179e+02 </wgt>
<wgt id='1301'> +2.8782880e+02 </wgt>
<wgt id='1302'> +2.8796169e+02 </wgt>
<wgt id='1303'> +2.8766539e+02 </wgt>
<wgt id='1304'> +2.8784837e+02 </wgt>
<wgt id='1305'> +2.8795892e+02 </wgt>
<wgt id='1306'> +2.8793598e+02 </wgt>
<wgt id='1307'> +2.8802442e+02 </wgt>
<wgt id='1308'> +2.8802165e+02 </wgt>
<wgt id='1309'> +2.8795469e+02 </wgt>
<wgt id='1310'> +2.8779393e+02 </wgt>
<wgt id='1311'> +2.8804015e+02 </wgt>
<wgt id='1312'> +2.8786921e+02 </wgt>
<wgt id='1313'> +2.8774260e+02 </wgt>
<wgt id='1314'> +2.8789493e+02 </wgt>
<wgt id='1315'> +2.7059811e+02 </wgt>
<wgt id='1316'> +3.0836117e+02 </wgt>
<wgt id='1317'> +2.0424077e+02 </wgt>
<wgt id='1318'> +2.1954654e+02 </wgt>
<wgt id='1319'> +2.3411175e+02 </wgt>
<wgt id='1320'> +2.4993716e+02 </wgt>
<wgt id='1321'> +2.7864395e+02 </wgt>
<wgt id='1322'> +2.9877778e+02 </wgt>
<wgt id='1323'> +3.3036422e+02 </wgt>
<wgt id='1324'> +3.5239106e+02 </wgt>
<wgt id='1325'> +2.9101008e+02 </wgt>
<wgt id='1326'> +2.9114243e+02 </wgt>
<wgt id='1327'> +2.9145717e+02 </wgt>
<wgt id='1328'> +2.8991749e+02 </wgt>
<wgt id='1329'> +2.9323133e+02 </wgt>
<wgt id='1330'> +2.9072296e+02 </wgt>
<wgt id='1331'> +2.8969437e+02 </wgt>
<wgt id='1332'> +2.9112042e+02 </wgt>
<wgt id='1333'> +2.9201201e+02 </wgt>
<wgt id='1334'> +2.9127369e+02 </wgt>
<wgt id='1335'> +2.8952082e+02 </wgt>
<wgt id='1336'> +2.9029994e+02 </wgt>
<wgt id='1337'> +2.9111771e+02 </wgt>
<wgt id='1338'> +2.9296910e+02 </wgt>
<wgt id='1339'> +2.8980899e+02 </wgt>
<wgt id='1340'> +2.8989917e+02 </wgt>
<wgt id='1341'> +2.9289980e+02 </wgt>
<wgt id='1342'> +2.8972228e+02 </wgt>
<wgt id='1343'> +2.9159137e+02 </wgt>
<wgt id='1344'> +2.9236367e+02 </wgt>
<wgt id='1345'> +2.9204822e+02 </wgt>
<wgt id='1346'> +2.9214634e+02 </wgt>
<wgt id='1347'> +2.9033004e+02 </wgt>
<wgt id='1348'> +2.8910759e+02 </wgt>
<wgt id='1349'> +2.9254524e+02 </wgt>
<wgt id='1350'> +2.9144871e+02 </wgt>
<wgt id='1351'> +2.9067125e+02 </wgt>
<wgt id='1352'> +2.9137480e+02 </wgt>
<wgt id='1353'> +2.9126412e+02 </wgt>
<wgt id='1354'> +2.9119419e+02 </wgt>
<wgt id='1355'> +2.9270354e+02 </wgt>
<wgt id='1356'> +2.9233303e+02 </wgt>
<wgt id='1357'> +2.8993059e+02 </wgt>
<wgt id='1358'> +2.8957054e+02 </wgt>
<wgt id='1359'> +2.9138953e+02 </wgt>
<wgt id='1360'> +2.8975207e+02 </wgt>
<wgt id='1361'> +2.9100537e+02 </wgt>
<wgt id='1362'> +2.9178777e+02 </wgt>
<wgt id='1363'> +2.9127853e+02 </wgt>
<wgt id='1364'> +2.9144103e+02 </wgt>
<wgt id='1365'> +2.9169589e+02 </wgt>
<wgt id='1366'> +2.9104892e+02 </wgt>
<wgt id='1367'> +2.8956052e+02 </wgt>
<wgt id='1368'> +2.9029512e+02 </wgt>
<wgt id='1369'> +2.9166512e+02 </wgt>
<wgt id='1370'> +2.9167796e+02 </wgt>
<wgt id='1371'> +2.9171259e+02 </wgt>
<wgt id='1372'> +2.9073265e+02 </wgt>
<wgt id='1373'> +2.9177351e+02 </wgt>
<wgt id='1374'> +2.9049108e+02 </wgt>
<wgt id='1375'> +2.9052799e+02 </wgt>
<wgt id='1376'> +2.9191158e+02 </wgt>
<wgt id='1377'> +2.9086503e+02 </wgt>
<wgt id='1378'> +2.9078512e+02 </wgt>
<wgt id='1379'> +2.9085183e+02 </wgt>
<wgt id='1380'> +2.9086400e+02 </wgt>
<wgt id='1381'> +2.9118972e+02 </wgt>
<wgt id='1382'> +2.9093389e+02 </wgt>
<wgt id='1383'> +2.9109893e+02 </wgt>
<wgt id='1384'> +2.9064055e+02 </wgt>
<wgt id='1385'> +2.9103838e+02 </wgt>
<wgt id='1386'> +2.9075578e+02 </wgt>
<wgt id='1387'> +2.9086875e+02 </wgt>
<wgt id='1388'> +2.9100911e+02 </wgt>
<wgt id='1389'> +2.9100746e+02 </wgt>
<wgt id='1390'> +2.9104892e+02 </wgt>
<wgt id='1391'> +2.9085842e+02 </wgt>
<wgt id='1392'> +2.9072788e+02 </wgt>
<wgt id='1393'> +2.9133417e+02 </wgt>
<wgt id='1394'> +2.9072600e+02 </wgt>
<wgt id='1395'> +2.9109263e+02 </wgt>
<wgt id='1396'> +2.9096570e+02 </wgt>
<wgt id='1397'> +2.9088460e+02 </wgt>
<wgt id='1398'> +2.9076790e+02 </wgt>
<wgt id='1399'> +2.9130655e+02 </wgt>
<wgt id='1400'> +2.9091761e+02 </wgt>
<wgt id='1401'> +2.9117555e+02 </wgt>
<wgt id='1402'> +2.9098890e+02 </wgt>
<wgt id='1403'> +2.9112473e+02 </wgt>
<wgt id='1404'> +2.9075606e+02 </wgt>
<wgt id='1405'> +2.9084863e+02 </wgt>
<wgt id='1406'> +2.9108224e+02 </wgt>
<wgt id='1407'> +2.9092641e+02 </wgt>
<wgt id='1408'> +2.9092217e+02 </wgt>
<wgt id='1409'> +2.9092658e+02 </wgt>
<wgt id='1410'> +2.9097862e+02 </wgt>
<wgt id='1411'> +2.9082035e+02 </wgt>
<wgt id='1412'> +2.9082135e+02 </wgt>
<wgt id='1413'> +2.9109688e+02 </wgt>
<wgt id='1414'> +2.9104852e+02 </wgt>
<wgt id='1415'> +2.9109236e+02 </wgt>
<wgt id='1416'> +2.9099835e+02 </wgt>
<wgt id='1417'> +2.9096276e+02 </wgt>
<wgt id='1418'> +2.9110655e+02 </wgt>
<wgt id='1419'> +2.9115242e+02 </wgt>
<wgt id='1420'> +2.9095592e+02 </wgt>
<wgt id='1421'> +2.9104912e+02 </wgt>
<wgt id='1422'> +2.9093376e+02 </wgt>
<wgt id='1423'> +2.9097506e+02 </wgt>
<wgt id='1424'> +2.9106667e+02 </wgt>
<wgt id='1425'> +2.9109116e+02 </wgt>
<wgt id='1426'> +2.7231949e+02 </wgt>
<wgt id='1427'> +3.1127828e+02 </wgt>
<wgt id='1428'> +2.9214836e+02 </wgt>
<wgt id='1429'> +2.8940292e+02 </wgt>
<wgt id='1430'> +2.9274715e+02 </wgt>
<wgt id='1431'> +2.9504415e+02 </wgt>
<wgt id='1432'> +2.9410206e+02 </wgt>
<wgt id='1433'> +2.9737145e+02 </wgt>
<wgt id='1434'> +2.8953023e+02 </wgt>
<wgt id='1435'> +2.8832733e+02 </wgt>
<wgt id='1436'> +2.9628919e+02 </wgt>
<wgt id='1437'> +2.9538523e+02 </wgt>
<wgt id='1438'> +2.8924160e+02 </wgt>
<wgt id='1439'> +2.9440131e+02 </wgt>
<wgt id='1440'> +2.8892919e+02 </wgt>
<wgt id='1441'> +3.0163255e+02 </wgt>
<wgt id='1442'> +2.8509891e+02 </wgt>
<wgt id='1443'> +2.9026649e+02 </wgt>
<wgt id='1444'> +2.9623184e+02 </wgt>
<wgt id='1445'> +2.9059266e+02 </wgt>
<wgt id='1446'> +2.9370940e+02 </wgt>
<wgt id='1447'> +2.9733654e+02 </wgt>
<wgt id='1448'> +2.8830217e+02 </wgt>
<wgt id='1449'> +2.9041916e+02 </wgt>
<wgt id='1450'> +2.9321429e+02 </wgt>
<wgt id='1451'> +2.8889188e+02 </wgt>
<wgt id='1452'> +2.9581940e+02 </wgt>
<wgt id='1453'> +2.9004641e+02 </wgt>
<wgt id='1454'> +2.9397075e+02 </wgt>
<wgt id='1455'> +2.8585931e+02 </wgt>
<wgt id='1456'> +3.0204368e+02 </wgt>
<wgt id='1457'> +2.9503948e+02 </wgt>
<wgt id='1458'> +2.9027436e+02 </wgt>
<wgt id='1459'> +2.9341679e+02 </wgt>
<wgt id='1460'> +2.9015777e+02 </wgt>
<wgt id='1461'> +2.9794766e+02 </wgt>
<wgt id='1462'> +2.8669036e+02 </wgt>
<wgt id='1463'> +2.9380995e+02 </wgt>
<wgt id='1464'> +2.9107920e+02 </wgt>
<wgt id='1465'> +2.8774662e+02 </wgt>
<wgt id='1466'> +2.9723900e+02 </wgt>
<wgt id='1467'> +2.9854299e+02 </wgt>
<wgt id='1468'> +2.8689496e+02 </wgt>
<wgt id='1469'> +2.9588097e+02 </wgt>
<wgt id='1470'> +2.9211571e+02 </wgt>
<wgt id='1471'> +2.9478903e+02 </wgt>
<wgt id='1472'> +2.9331874e+02 </wgt>
<wgt id='1473'> +2.8337403e+02 </wgt>
<wgt id='1474'> +2.9464918e+02 </wgt>
<wgt id='1475'> +2.9045661e+02 </wgt>
<wgt id='1476'> +2.9081499e+02 </wgt>
<wgt id='1477'> +2.8858283e+02 </wgt>
<wgt id='1478'> +2.9800821e+02 </wgt>
<wgt id='1479'> +2.8886910e+02 </wgt>
<wgt id='1480'> +2.9586139e+02 </wgt>
<wgt id='1481'> +2.8225975e+02 </wgt>
<wgt id='1482'> +2.8663350e+02 </wgt>
<wgt id='1483'> +2.8839300e+02 </wgt>
<wgt id='1484'> +2.9835052e+02 </wgt>
<wgt id='1485'> +2.7024064e+02 </wgt>
<wgt id='1486'> +3.1660549e+02 </wgt>
<wgt id='1487'> +2.7577008e+02 </wgt>
<wgt id='1488'> +2.7758354e+02 </wgt>
<wgt id='1489'> +2.7079351e+02 </wgt>
<wgt id='1490'> +2.7238602e+02 </wgt>
<wgt id='1491'> +2.7884139e+02 </wgt>
<wgt id='1492'> +2.8133153e+02 </wgt>
<wgt id='1493'> +2.7278449e+02 </wgt>
<wgt id='1494'> +2.7547368e+02 </wgt>
<wgt id='1495'> +2.7719001e+02 </wgt>
<wgt id='1496'> +2.8064762e+02 </wgt>
<wgt id='1497'> +2.7258637e+02 </wgt>
<wgt id='1498'> +2.7138093e+02 </wgt>
<wgt id='1499'> +2.7898723e+02 </wgt>
<wgt id='1500'> +2.7689880e+02 </wgt>
<wgt id='1501'> +2.7492889e+02 </wgt>
<wgt id='1502'> +2.8310369e+02 </wgt>
<wgt id='1503'> +2.6946902e+02 </wgt>
<wgt id='1504'> +2.7595561e+02 </wgt>
<wgt id='1505'> +2.7574485e+02 </wgt>
<wgt id='1506'> +2.7362941e+02 </wgt>
<wgt id='1507'> +2.7786784e+02 </wgt>
<wgt id='1508'> +2.7628138e+02 </wgt>
<wgt id='1509'> +2.7487024e+02 </wgt>
<wgt id='1510'> +2.8169869e+02 </wgt>
<wgt id='1511'> +2.6965802e+02 </wgt>
<wgt id='1512'> +2.8451586e+02 </wgt>
<wgt id='1513'> +2.6848915e+02 </wgt>
<wgt id='1514'> +2.7942529e+02 </wgt>
<wgt id='1515'> +2.7073364e+02 </wgt>
<wgt id='1516'> +2.7407834e+02 </wgt>
<wgt id='1517'> +2.7629547e+02 </wgt>
<wgt id='1518'> +2.7474254e+02 </wgt>
<wgt id='1519'> +2.7708430e+02 </wgt>
<wgt id='1520'> +2.7306620e+02 </wgt>
<wgt id='1521'> +2.8155513e+02 </wgt>
<wgt id='1522'> +2.7401326e+02 </wgt>
<wgt id='1523'> +2.7728403e+02 </wgt>
<wgt id='1524'> +2.7271030e+02 </wgt>
<wgt id='1525'> +2.7947538e+02 </wgt>
<wgt id='1526'> +2.7442536e+02 </wgt>
<wgt id='1527'> +2.7648906e+02 </wgt>
<wgt id='1528'> +2.7135798e+02 </wgt>
<wgt id='1529'> +2.8008801e+02 </wgt>
<wgt id='1530'> +2.6922507e+02 </wgt>
<wgt id='1531'> +2.8142726e+02 </wgt>
<wgt id='1532'> +2.8239113e+02 </wgt>
<wgt id='1533'> +2.7613862e+02 </wgt>
<wgt id='1534'> +2.7281416e+02 </wgt>
<wgt id='1535'> +2.7816774e+02 </wgt>
<wgt id='1536'> +2.7481861e+02 </wgt>
<wgt id='1537'> +2.8202806e+02 </wgt>
<wgt id='1538'> +2.7614614e+02 </wgt>
<wgt id='1539'> +2.7318712e+02 </wgt>
<wgt id='1540'> +2.6558451e+02 </wgt>
<wgt id='1541'> +2.7556159e+02 </wgt>
<wgt id='1542'> +2.7243907e+02 </wgt>
<wgt id='1543'> +2.8046828e+02 </wgt>
<wgt id='1544'> +2.5652382e+02 </wgt>
<wgt id='1545'> +2.9691205e+02 </wgt>
<wgt id='1546'> +2.7012753e+02 </wgt>
<wgt id='1547'> +2.8004487e+02 </wgt>
<wgt id='1548'> +2.8121348e+02 </wgt>
<wgt id='1549'> +2.7878393e+02 </wgt>
<wgt id='1550'> +2.7911290e+02 </wgt>
<wgt id='1551'> +2.8067000e+02 </wgt>
<wgt id='1552'> +2.8076239e+02 </wgt>
<wgt id='1553'> +2.7937999e+02 </wgt>
<wgt id='1554'> +2.7920521e+02 </wgt>
<wgt id='1555'> +2.8098224e+02 </wgt>
<wgt id='1556'> +2.8071124e+02 </wgt>
<wgt id='1557'> +2.7938036e+02 </wgt>
<wgt id='1558'> +2.8052913e+02 </wgt>
<wgt id='1559'> +2.7899106e+02 </wgt>
<wgt id='1560'> +2.7976758e+02 </wgt>
<wgt id='1561'> +2.8052592e+02 </wgt>
<wgt id='1562'> +2.7986046e+02 </wgt>
<wgt id='1563'> +2.8014822e+02 </wgt>
<wgt id='1564'> +2.8007758e+02 </wgt>
<wgt id='1565'> +2.8003284e+02 </wgt>
<wgt id='1566'> +2.8203001e+02 </wgt>
<wgt id='1567'> +2.7832632e+02 </wgt>
<wgt id='1568'> +2.7940346e+02 </wgt>
<wgt id='1569'> +2.8093351e+02 </wgt>
<wgt id='1570'> +2.7912053e+02 </wgt>
<wgt id='1571'> +2.8071088e+02 </wgt>
<wgt id='1572'> +2.8297145e+02 </wgt>
<wgt id='1573'> +2.7599088e+02 </wgt>
<wgt id='1574'> +2.8133320e+02 </wgt>
<wgt id='1575'> +2.7964993e+02 </wgt>
<wgt id='1576'> +2.7816546e+02 </wgt>
<wgt id='1577'> +2.8225601e+02 </wgt>
<wgt id='1578'> +2.7692894e+02 </wgt>
<wgt id='1579'> +2.8344929e+02 </wgt>
<wgt id='1580'> +2.8087655e+02 </wgt>
<wgt id='1581'> +2.7921116e+02 </wgt>
<wgt id='1582'> +2.8045260e+02 </wgt>
<wgt id='1583'> +2.7952871e+02 </wgt>
<wgt id='1584'> +2.7956323e+02 </wgt>
<wgt id='1585'> +2.8072450e+02 </wgt>
<wgt id='1586'> +2.7944181e+02 </wgt>
<wgt id='1587'> +2.8070973e+02 </wgt>
<wgt id='1588'> +2.7349673e+02 </wgt>
<wgt id='1589'> +2.8442120e+02 </wgt>
<wgt id='1590'> +2.8399278e+02 </wgt>
<wgt id='1591'> +2.7707663e+02 </wgt>
<wgt id='1592'> +2.7883894e+02 </wgt>
<wgt id='1593'> +2.8279869e+02 </wgt>
<wgt id='1594'> +2.8127632e+02 </wgt>
<wgt id='1595'> +2.7973793e+02 </wgt>
<wgt id='1596'> +2.8035225e+02 </wgt>
<wgt id='1597'> +2.8003498e+02 </wgt>
<wgt id='1598'> +2.9220596e+02 </wgt>
<wgt id='1599'> +2.9299582e+02 </wgt>
<wgt id='1600'> +2.9122746e+02 </wgt>
<wgt id='1601'> +2.9375965e+02 </wgt>
<wgt id='1602'> +2.9068320e+02 </wgt>
<wgt id='1603'> +2.9125048e+02 </wgt>
<wgt id='1604'> +2.9260958e+02 </wgt>
<wgt id='1605'> +2.9131252e+02 </wgt>
<wgt id='1606'> +2.9310425e+02 </wgt>
<wgt id='1607'> +2.9243852e+02 </wgt>
<wgt id='1608'> +2.9201154e+02 </wgt>
<wgt id='1609'> +2.9077748e+02 </wgt>
<wgt id='1610'> +2.9283966e+02 </wgt>
<wgt id='1611'> +2.9209070e+02 </wgt>
<wgt id='1612'> +2.9238527e+02 </wgt>
<wgt id='1613'> +2.9186341e+02 </wgt>
<wgt id='1614'> +2.9261252e+02 </wgt>
<wgt id='1615'> +2.9277094e+02 </wgt>
<wgt id='1616'> +2.9189033e+02 </wgt>
<wgt id='1617'> +2.9111585e+02 </wgt>
<wgt id='1618'> +2.9368318e+02 </wgt>
<wgt id='1619'> +2.9375539e+02 </wgt>
<wgt id='1620'> +2.9113171e+02 </wgt>
<wgt id='1621'> +2.9222200e+02 </wgt>
<wgt id='1622'> +2.9192286e+02 </wgt>
<wgt id='1623'> +2.9218096e+02 </wgt>
<wgt id='1624'> +2.9231477e+02 </wgt>
<wgt id='1625'> +2.9300367e+02 </wgt>
<wgt id='1626'> +2.9209264e+02 </wgt>
<wgt id='1627'> +2.9383431e+02 </wgt>
<wgt id='1628'> +2.8765917e+02 </wgt>
<wgt id='1629'> +2.9090439e+02 </wgt>
<wgt id='1630'> +2.9504263e+02 </wgt>
<wgt id='1631'> +2.9284353e+02 </wgt>
<wgt id='1632'> +2.9126265e+02 </wgt>
<wgt id='1633'> +2.9108636e+02 </wgt>
<wgt id='1634'> +2.9290360e+02 </wgt>
<wgt id='1635'> +2.9181585e+02 </wgt>
<wgt id='1636'> +2.9329670e+02 </wgt>
<wgt id='1637'> +2.9136887e+02 </wgt>
<wgt id='1638'> +2.9284446e+02 </wgt>
<wgt id='1639'> +2.9580473e+02 </wgt>
<wgt id='1640'> +2.8482184e+02 </wgt>
<wgt id='1641'> +2.9273944e+02 </wgt>
<wgt id='1642'> +2.8917671e+02 </wgt>
<wgt id='1643'> +2.8918699e+02 </wgt>
<wgt id='1644'> +2.9496460e+02 </wgt>
<wgt id='1645'> +2.9478536e+02 </wgt>
<wgt id='1646'> +2.9121843e+02 </wgt>
<wgt id='1647'> +2.9310783e+02 </wgt>
<wgt id='1648'> +2.9212122e+02 </wgt>
<wgt id='1649'> +4.3400556e+02 </wgt>
<wgt id='1650'> +2.7087608e+02 </wgt>
<wgt id='1651'> +2.7077170e+02 </wgt>
<wgt id='1652'> +2.7096315e+02 </wgt>
<wgt id='1653'> +2.7066120e+02 </wgt>
<wgt id='1654'> +2.7087737e+02 </wgt>
<wgt id='1655'> +2.7086361e+02 </wgt>
<wgt id='1656'> +2.7030285e+02 </wgt>
<wgt id='1657'> +2.7157576e+02 </wgt>
<wgt id='1658'> +2.7123964e+02 </wgt>
<wgt id='1659'> +2.7115631e+02 </wgt>
<wgt id='1660'> +2.7111939e+02 </wgt>
<wgt id='1661'> +2.7117844e+02 </wgt>
<wgt id='1662'> +2.6953288e+02 </wgt>
<wgt id='1663'> +2.7028067e+02 </wgt>
<wgt id='1664'> +2.7158338e+02 </wgt>
<wgt id='1665'> +2.7104453e+02 </wgt>
<wgt id='1666'> +2.7089990e+02 </wgt>
<wgt id='1667'> +2.7084508e+02 </wgt>
<wgt id='1668'> +2.7253069e+02 </wgt>
<wgt id='1669'> +2.7080066e+02 </wgt>
<wgt id='1670'> +2.7190077e+02 </wgt>
<wgt id='1671'> +2.6998865e+02 </wgt>
<wgt id='1672'> +2.7254485e+02 </wgt>
<wgt id='1673'> +2.7016460e+02 </wgt>
<wgt id='1674'> +2.6905484e+02 </wgt>
<wgt id='1675'> +2.6961046e+02 </wgt>
<wgt id='1676'> +2.7145287e+02 </wgt>
<wgt id='1677'> +2.7205268e+02 </wgt>
<wgt id='1678'> +2.7073933e+02 </wgt>
<wgt id='1679'> +2.7432334e+02 </wgt>
<wgt id='1680'> +2.8072518e+02 </wgt>
<wgt id='1681'> +2.7849894e+02 </wgt>
<wgt id='1682'> +2.8034781e+02 </wgt>
<wgt id='1683'> +2.8299364e+02 </wgt>
<wgt id='1684'> +2.7907985e+02 </wgt>
<wgt id='1685'> +2.8123584e+02 </wgt>
<wgt id='1686'> +2.8066879e+02 </wgt>
<wgt id='1687'> +2.7823845e+02 </wgt>
<wgt id='1688'> +2.7666439e+02 </wgt>
<wgt id='1689'> +2.8420638e+02 </wgt>
<wgt id='1690'> +2.8227439e+02 </wgt>
<wgt id='1691'> +2.7741604e+02 </wgt>
<wgt id='1692'> +2.8252164e+02 </wgt>
<wgt id='1693'> +2.7713507e+02 </wgt>
<wgt id='1694'> +2.8038901e+02 </wgt>
<wgt id='1695'> +2.8121425e+02 </wgt>
<wgt id='1696'> +2.7915350e+02 </wgt>
<wgt id='1697'> +2.8219683e+02 </wgt>
<wgt id='1698'> +2.8001623e+02 </wgt>
<wgt id='1699'> +2.7742375e+02 </wgt>
<wgt id='1700'> +2.8074691e+02 </wgt>
<wgt id='1701'> +2.7979358e+02 </wgt>
<wgt id='1702'> +2.8428794e+02 </wgt>
<wgt id='1703'> +2.7881379e+02 </wgt>
<wgt id='1704'> +2.8095839e+02 </wgt>
<wgt id='1705'> +2.8172720e+02 </wgt>
<wgt id='1706'> +2.8113028e+02 </wgt>
<wgt id='1707'> +2.8120060e+02 </wgt>
<wgt id='1708'> +2.7990033e+02 </wgt>
<wgt id='1709'> +2.8040421e+02 </wgt>
<wgt id='1710'> +2.8080602e+02 </wgt>
<wgt id='1711'> +2.8075611e+02 </wgt>
<wgt id='1712'> +2.8044709e+02 </wgt>
<wgt id='1713'> +2.8035527e+02 </wgt>
<wgt id='1714'> +2.8088545e+02 </wgt>
<wgt id='1715'> +2.8139307e+02 </wgt>
<wgt id='1716'> +2.8043572e+02 </wgt>
<wgt id='1717'> +2.8070047e+02 </wgt>
<wgt id='1718'> +2.8118787e+02 </wgt>
<wgt id='1719'> +2.8111853e+02 </wgt>
<wgt id='1720'> +2.8097982e+02 </wgt>
<wgt id='1721'> +2.8094760e+02 </wgt>
<wgt id='1722'> +2.8084905e+02 </wgt>
<wgt id='1723'> +2.8029554e+02 </wgt>
<wgt id='1724'> +2.8113964e+02 </wgt>
<wgt id='1725'> +2.8078435e+02 </wgt>
<wgt id='1726'> +2.8102345e+02 </wgt>
<wgt id='1727'> +2.8039187e+02 </wgt>
<wgt id='1728'> +2.8062876e+02 </wgt>
<wgt id='1729'> +2.8074639e+02 </wgt>
<wgt id='1730'> +2.8055192e+02 </wgt>
<wgt id='1731'> +2.8071594e+02 </wgt>
<wgt id='1732'> +2.8051877e+02 </wgt>
<wgt id='1733'> +2.8027801e+02 </wgt>
<wgt id='1734'> +2.8064412e+02 </wgt>
<wgt id='1735'> +2.8065153e+02 </wgt>
<wgt id='1736'> +2.8067957e+02 </wgt>
<wgt id='1737'> +2.8091748e+02 </wgt>
<wgt id='1738'> +2.8091148e+02 </wgt>
<wgt id='1739'> +2.8075212e+02 </wgt>
<wgt id='1740'> +2.8050396e+02 </wgt>
<wgt id='1741'> +2.8074553e+02 </wgt>
<wgt id='1742'> +2.8067294e+02 </wgt>
<wgt id='1743'> +2.8076537e+02 </wgt>
<wgt id='1744'> +2.8067978e+02 </wgt>
<wgt id='1745'> +2.8081768e+02 </wgt>
<wgt id='1746'> +2.8088160e+02 </wgt>
<wgt id='1747'> +2.8075328e+02 </wgt>
<wgt id='1748'> +2.8082900e+02 </wgt>
<wgt id='1749'> +2.8081012e+02 </wgt>
<wgt id='1750'> +2.8058707e+02 </wgt>
<wgt id='1751'> +2.8047308e+02 </wgt>
<wgt id='1752'> +2.8044178e+02 </wgt>
<wgt id='1753'> +2.8060125e+02 </wgt>
<wgt id='1754'> +2.8058992e+02 </wgt>
<wgt id='1755'> +2.8060876e+02 </wgt>
<wgt id='1756'> +2.8068748e+02 </wgt>
<wgt id='1757'> +2.8050023e+02 </wgt>
<wgt id='1758'> +2.8077312e+02 </wgt>
<wgt id='1759'> +2.8084154e+02 </wgt>
<wgt id='1760'> +2.8055605e+02 </wgt>
<wgt id='1761'> +2.8096550e+02 </wgt>
<wgt id='1762'> +2.8059240e+02 </wgt>
<wgt id='1763'> +2.8074560e+02 </wgt>
<wgt id='1764'> +2.8089232e+02 </wgt>
<wgt id='1765'> +2.8073331e+02 </wgt>
<wgt id='1766'> +2.8098945e+02 </wgt>
<wgt id='1767'> +2.8079657e+02 </wgt>
<wgt id='1768'> +2.8072778e+02 </wgt>
<wgt id='1769'> +2.8068087e+02 </wgt>
<wgt id='1770'> +2.8079189e+02 </wgt>
<wgt id='1771'> +2.8064381e+02 </wgt>
<wgt id='1772'> +2.8067778e+02 </wgt>
<wgt id='1773'> +2.8068530e+02 </wgt>
<wgt id='1774'> +2.8068244e+02 </wgt>
<wgt id='1775'> +2.8068518e+02 </wgt>
<wgt id='1776'> +2.8072546e+02 </wgt>
<wgt id='1777'> +2.8079391e+02 </wgt>
<wgt id='1778'> +2.8080563e+02 </wgt>
<wgt id='1779'> +2.8078415e+02 </wgt>
<wgt id='1780'> +2.8074764e+02 </wgt>
<wgt id='1781'> +2.6669956e+02 </wgt>
<wgt id='1782'> +2.9603456e+02 </wgt>
<wgt id='1783'> +2.9209509e+02 </wgt>
<wgt id='1784'> +2.9307519e+02 </wgt>
<wgt id='1785'> +2.9196858e+02 </wgt>
<wgt id='1786'> +2.9265979e+02 </wgt>
<wgt id='1787'> +2.9404606e+02 </wgt>
<wgt id='1788'> +2.9502776e+02 </wgt>
<wgt id='1789'> +2.9430037e+02 </wgt>
<wgt id='1790'> +2.9197255e+02 </wgt>
<wgt id='1791'> +2.9142131e+02 </wgt>
<wgt id='1792'> +2.9145040e+02 </wgt>
<wgt id='1793'> +2.9206658e+02 </wgt>
<wgt id='1794'> +2.9412394e+02 </wgt>
<wgt id='1795'> +2.9493592e+02 </wgt>
<wgt id='1796'> +2.9616620e+02 </wgt>
<wgt id='1797'> +2.9218936e+02 </wgt>
<wgt id='1798'> +2.9536450e+02 </wgt>
<wgt id='1799'> +2.9061322e+02 </wgt>
<wgt id='1800'> +2.9106694e+02 </wgt>
<wgt id='1801'> +2.9409079e+02 </wgt>
<wgt id='1802'> +2.9303735e+02 </wgt>
<wgt id='1803'> +2.9492682e+02 </wgt>
<wgt id='1804'> +2.8943584e+02 </wgt>
<wgt id='1805'> +2.9135686e+02 </wgt>
<wgt id='1806'> +2.9045097e+02 </wgt>
<wgt id='1807'> +2.8897886e+02 </wgt>
<wgt id='1808'> +2.9348210e+02 </wgt>
<wgt id='1809'> +2.9184235e+02 </wgt>
<wgt id='1810'> +2.9124263e+02 </wgt>
<wgt id='1811'> +2.9269504e+02 </wgt>
<wgt id='1812'> +2.9234610e+02 </wgt>
<wgt id='1813'> +2.9165778e+02 </wgt>
<wgt id='1814'> +2.9128341e+02 </wgt>
<wgt id='1815'> +2.9223699e+02 </wgt>
<wgt id='1816'> +2.9242524e+02 </wgt>
<wgt id='1817'> +2.9243561e+02 </wgt>
<wgt id='1818'> +2.9244283e+02 </wgt>
<wgt id='1819'> +2.9237915e+02 </wgt>
<wgt id='1820'> +2.9191998e+02 </wgt>
<wgt id='1821'> +2.9240315e+02 </wgt>
<wgt id='1822'> +2.9239826e+02 </wgt>
<wgt id='1823'> +2.9176469e+02 </wgt>
<wgt id='1824'> +2.9224047e+02 </wgt>
<wgt id='1825'> +2.9201672e+02 </wgt>
<wgt id='1826'> +2.9165955e+02 </wgt>
<wgt id='1827'> +2.9228131e+02 </wgt>
<wgt id='1828'> +2.9226663e+02 </wgt>
<wgt id='1829'> +2.9181339e+02 </wgt>
<wgt id='1830'> +2.9221613e+02 </wgt>
<wgt id='1831'> +2.9228251e+02 </wgt>
<wgt id='1832'> +2.9194462e+02 </wgt>
<wgt id='1833'> +2.9237404e+02 </wgt>
<wgt id='1834'> +2.9238221e+02 </wgt>
<wgt id='1835'> +2.9225250e+02 </wgt>
<wgt id='1836'> +2.9217815e+02 </wgt>
<wgt id='1837'> +2.9196820e+02 </wgt>
<wgt id='1838'> +2.9208607e+02 </wgt>
<wgt id='1839'> +2.9215041e+02 </wgt>
<wgt id='1840'> +2.9202456e+02 </wgt>
<wgt id='1841'> +2.9173487e+02 </wgt>
<wgt id='1842'> +2.9199535e+02 </wgt>
<wgt id='1843'> +2.9196149e+02 </wgt>
<wgt id='1844'> +2.9211381e+02 </wgt>
<wgt id='1845'> +2.9225714e+02 </wgt>
<wgt id='1846'> +2.9204876e+02 </wgt>
<wgt id='1847'> +2.9214640e+02 </wgt>
<wgt id='1848'> +2.9194125e+02 </wgt>
<wgt id='1849'> +2.9206536e+02 </wgt>
<wgt id='1850'> +2.9215326e+02 </wgt>
<wgt id='1851'> +2.9200069e+02 </wgt>
<wgt id='1852'> +2.9243226e+02 </wgt>
<wgt id='1853'> +2.9216940e+02 </wgt>
<wgt id='1854'> +2.9229353e+02 </wgt>
<wgt id='1855'> +2.9227060e+02 </wgt>
<wgt id='1856'> +2.9210540e+02 </wgt>
<wgt id='1857'> +2.9216596e+02 </wgt>
<wgt id='1858'> +2.9213376e+02 </wgt>
<wgt id='1859'> +2.9205302e+02 </wgt>
<wgt id='1860'> +2.9214548e+02 </wgt>
<wgt id='1861'> +2.9221152e+02 </wgt>
<wgt id='1862'> +2.9202993e+02 </wgt>
<wgt id='1863'> +2.9233832e+02 </wgt>
<wgt id='1864'> +2.9210513e+02 </wgt>
<wgt id='1865'> +2.9221016e+02 </wgt>
<wgt id='1866'> +2.9204243e+02 </wgt>
<wgt id='1867'> +2.9194225e+02 </wgt>
<wgt id='1868'> +2.9191637e+02 </wgt>
<wgt id='1869'> +2.9211441e+02 </wgt>
<wgt id='1870'> +2.9184072e+02 </wgt>
<wgt id='1871'> +2.9199227e+02 </wgt>
<wgt id='1872'> +2.9201827e+02 </wgt>
<wgt id='1873'> +2.9210090e+02 </wgt>
<wgt id='1874'> +2.9206481e+02 </wgt>
<wgt id='1875'> +2.9207467e+02 </wgt>
<wgt id='1876'> +2.9201528e+02 </wgt>
<wgt id='1877'> +2.9203378e+02 </wgt>
<wgt id='1878'> +2.9216847e+02 </wgt>
<wgt id='1879'> +2.9200898e+02 </wgt>
<wgt id='1880'> +2.9210610e+02 </wgt>
<wgt id='1881'> +2.9205382e+02 </wgt>
<wgt id='1882'> +2.9198069e+02 </wgt>
<wgt id='1883'> +2.9214908e+02 </wgt>
<wgt id='1884'> +2.7588650e+02 </wgt>
<wgt id='1885'> +3.0840384e+02 </wgt>
<wgt id='1886'> +2.8073244e+02 </wgt>
<wgt id='1887'> +2.8261245e+02 </wgt>
<wgt id='1888'> +2.7757693e+02 </wgt>
<wgt id='1889'> +2.8084136e+02 </wgt>
<wgt id='1890'> +2.7766696e+02 </wgt>
<wgt id='1891'> +2.7817308e+02 </wgt>
<wgt id='1892'> +2.8014417e+02 </wgt>
<wgt id='1893'> +2.8087290e+02 </wgt>
<wgt id='1894'> +2.8107056e+02 </wgt>
<wgt id='1895'> +2.8131007e+02 </wgt>
<wgt id='1896'> +2.8110281e+02 </wgt>
<wgt id='1897'> +2.7666980e+02 </wgt>
<wgt id='1898'> +2.7903144e+02 </wgt>
<wgt id='1899'> +2.8121164e+02 </wgt>
<wgt id='1900'> +2.7594422e+02 </wgt>
<wgt id='1901'> +2.8143139e+02 </wgt>
<wgt id='1902'> +2.8021039e+02 </wgt>
<wgt id='1903'> +2.8150484e+02 </wgt>
<wgt id='1904'> +2.8155214e+02 </wgt>
<wgt id='1905'> +2.7646468e+02 </wgt>
<wgt id='1906'> +2.7999752e+02 </wgt>
<wgt id='1907'> +2.8062846e+02 </wgt>
<wgt id='1908'> +2.8094263e+02 </wgt>
<wgt id='1909'> +2.8106811e+02 </wgt>
<wgt id='1910'> +2.8070308e+02 </wgt>
<wgt id='1911'> +2.8050488e+02 </wgt>
<wgt id='1912'> +2.8183895e+02 </wgt>
<wgt id='1913'> +2.8124409e+02 </wgt>
<wgt id='1914'> +2.8374493e+02 </wgt>
<wgt id='1915'> +2.8176633e+02 </wgt>
<wgt id='1916'> +2.8051079e+02 </wgt>
<wgt id='1917'> +2.6669956e+02 </wgt>
<wgt id='1918'> +2.9603456e+02 </wgt>
<wgt id='1919'> +2.9209542e+02 </wgt>
<wgt id='1920'> +2.8744844e+02 </wgt>
<wgt id='1921'> +2.9804313e+02 </wgt>
<wgt id='1922'> +2.9226329e+02 </wgt>
<wgt id='1923'> +2.8913657e+02 </wgt>
<wgt id='1924'> +2.9473358e+02 </wgt>
<wgt id='1925'> +2.9219695e+02 </wgt>
<wgt id='1926'> +2.9267474e+02 </wgt>
<wgt id='1927'> +2.9234978e+02 </wgt>
<wgt id='1928'> +2.9269468e+02 </wgt>
<wgt id='1929'> +2.9238456e+02 </wgt>
<wgt id='1930'> +2.9219522e+02 </wgt>
<wgt id='1931'> +2.9158942e+02 </wgt>
<wgt id='1932'> +2.9209176e+02 </wgt>
<wgt id='1933'> +2.9209643e+02 </wgt>
<wgt id='1934'> +2.9098181e+02 </wgt>
<wgt id='1935'> +2.9279929e+02 </wgt>
<wgt id='1936'> +2.9197057e+02 </wgt>
<wgt id='1937'> +2.9235054e+02 </wgt>
<wgt id='1938'> +2.9264894e+02 </wgt>
<wgt id='1939'> +2.9189563e+02 </wgt>
<wgt id='1940'> +2.9248799e+02 </wgt>
<wgt id='1941'> +2.9038550e+02 </wgt>
<wgt id='1942'> +2.9215103e+02 </wgt>
<wgt id='1943'> +2.9077103e+02 </wgt>
<wgt id='1944'> +2.9164396e+02 </wgt>
<wgt id='1945'> +2.9209598e+02 </wgt>
<wgt id='1946'> +2.9297126e+02 </wgt>
<wgt id='1947'> +2.9172856e+02 </wgt>
<wgt id='1948'> +2.8789354e+02 </wgt>
<wgt id='1949'> +2.9218571e+02 </wgt>
<wgt id='1950'> +2.7588650e+02 </wgt>
<wgt id='1951'> +3.0840384e+02 </wgt>
<wgt id='1952'> +2.4966678e+02 </wgt>
<wgt id='1953'> +2.4981629e+02 </wgt>
<wgt id='1954'> +2.4951858e+02 </wgt>
<wgt id='1955'> +2.4982271e+02 </wgt>
<wgt id='1956'> +2.4951070e+02 </wgt>
<wgt id='1957'> +2.4980475e+02 </wgt>
<wgt id='1958'> +2.4952917e+02 </wgt>
<wgt id='1959'> +2.5004091e+02 </wgt>
<wgt id='1960'> +2.4928175e+02 </wgt>
<wgt id='1961'> +2.5005555e+02 </wgt>
<wgt id='1962'> +2.4929874e+02 </wgt>
<wgt id='1963'> +2.4843725e+02 </wgt>
<wgt id='1964'> +2.5089024e+02 </wgt>
<wgt id='1965'> +2.4946096e+02 </wgt>
<wgt id='1966'> +2.4986830e+02 </wgt>
<wgt id='1967'> +2.5089433e+02 </wgt>
<wgt id='1968'> +2.4862922e+02 </wgt>
<wgt id='1969'> +2.4992221e+02 </wgt>
<wgt id='1970'> +2.4932022e+02 </wgt>
<wgt id='1971'> +2.5193898e+02 </wgt>
<wgt id='1972'> +2.4752018e+02 </wgt>
<wgt id='1973'> +2.4988772e+02 </wgt>
<wgt id='1974'> +2.4933177e+02 </wgt>
<wgt id='1975'> +2.4748012e+02 </wgt>
<wgt id='1976'> +2.5154533e+02 </wgt>
<wgt id='1977'> +2.4717448e+02 </wgt>
<wgt id='1978'> +2.5236120e+02 </wgt>
<wgt id='1979'> +2.5381130e+02 </wgt>
<wgt id='1980'> +2.4593321e+02 </wgt>
<wgt id='1981'> +2.4966678e+02 </wgt>
<wgt id='1982'> +2.5384302e+02 </wgt>
<wgt id='1983'> +2.4420035e+02 </wgt>
<wgt id='1984'> +2.5471044e+02 </wgt>
<wgt id='1985'> +2.4663955e+02 </wgt>
<wgt id='1986'> +2.4737274e+02 </wgt>
<wgt id='1987'> +2.5560557e+02 </wgt>
<wgt id='1988'> +2.5003776e+02 </wgt>
<wgt id='1989'> +2.4954846e+02 </wgt>
<wgt id='1990'> +2.5022710e+02 </wgt>
<wgt id='1991'> +2.4917295e+02 </wgt>
<wgt id='1992'> +2.4749749e+02 </wgt>
<wgt id='1993'> +2.5118471e+02 </wgt>
<wgt id='1994'> +2.5030334e+02 </wgt>
<wgt id='1995'> +2.9382704e+02 </wgt>
<wgt id='1996'> +2.9406060e+02 </wgt>
<wgt id='1997'> +2.9356309e+02 </wgt>
<wgt id='1998'> +2.9375826e+02 </wgt>
<wgt id='1999'> +2.9386446e+02 </wgt>
<wgt id='2000'> +2.9399692e+02 </wgt>
<wgt id='2001'> +2.9362599e+02 </wgt>
<wgt id='2002'> +2.9438193e+02 </wgt>
<wgt id='2003'> +2.9321759e+02 </wgt>
<wgt id='2004'> +2.9319360e+02 </wgt>
<wgt id='2005'> +2.9443189e+02 </wgt>
<wgt id='2006'> +2.9486310e+02 </wgt>
<wgt id='2007'> +2.9279323e+02 </wgt>
<wgt id='2008'> +2.9343288e+02 </wgt>
<wgt id='2009'> +2.9419626e+02 </wgt>
<wgt id='2010'> +2.9456521e+02 </wgt>
<wgt id='2011'> +2.9315639e+02 </wgt>
<wgt id='2012'> +2.9362501e+02 </wgt>
<wgt id='2013'> +2.9398999e+02 </wgt>
<wgt id='2014'> +2.9507056e+02 </wgt>
<wgt id='2015'> +2.9262679e+02 </wgt>
<wgt id='2016'> +2.9691865e+02 </wgt>
<wgt id='2017'> +2.9060552e+02 </wgt>
<wgt id='2018'> +2.9081346e+02 </wgt>
<wgt id='2019'> +2.9679730e+02 </wgt>
<wgt id='2020'> +2.8951942e+02 </wgt>
<wgt id='2021'> +2.9771444e+02 </wgt>
<wgt id='2022'> +2.9232961e+02 </wgt>
<wgt id='2023'> +2.9561777e+02 </wgt>
<wgt id='2024'> +2.9385946e+02 </wgt>
<wgt id='2025'> +2.9862425e+02 </wgt>
<wgt id='2026'> +2.8658466e+02 </wgt>
<wgt id='2027'> +2.9951594e+02 </wgt>
<wgt id='2028'> +2.9087366e+02 </wgt>
<wgt id='2029'> +2.8519437e+02 </wgt>
<wgt id='2030'> +2.9666042e+02 </wgt>
<wgt id='2031'> +2.9385027e+02 </wgt>
<wgt id='2032'> +2.9424261e+02 </wgt>
<wgt id='2033'> +2.9472605e+02 </wgt>
<wgt id='2034'> +2.8381841e+02 </wgt>
<wgt id='2035'> +2.9486420e+02 </wgt>
<wgt id='2036'> +2.9422988e+02 </wgt>
<wgt id='2037'> +2.9850083e+02 </wgt>
<wgt id='2038'> +2.7453245e+02 </wgt>
<wgt id='2039'> +2.7447168e+02 </wgt>
<wgt id='2040'> +2.7441140e+02 </wgt>
<wgt id='2041'> +2.7434996e+02 </wgt>
<wgt id='2042'> +2.7428961e+02 </wgt>
<wgt id='2043'> +2.7422884e+02 </wgt>
<wgt id='2044'> +2.7416847e+02 </wgt>
<wgt id='2045'> +2.7410773e+02 </wgt>
<wgt id='2046'> +2.7404679e+02 </wgt>
<wgt id='2047'> +2.7398631e+02 </wgt>
<wgt id='2048'> +2.7392561e+02 </wgt>
<wgt id='2049'> +2.7386545e+02 </wgt>
<wgt id='2050'> +2.7380458e+02 </wgt>
<wgt id='2051'> +2.7374403e+02 </wgt>
<wgt id='2052'> +2.7368362e+02 </wgt>
<wgt id='2053'> +2.7362309e+02 </wgt>
<wgt id='2054'> +2.7356235e+02 </wgt>
<wgt id='2055'> +2.7350140e+02 </wgt>
<wgt id='2056'> +2.7344069e+02 </wgt>
<wgt id='2057'> +2.7338004e+02 </wgt>
<wgt id='2058'> +2.7331979e+02 </wgt>
<wgt id='2059'> +2.7325912e+02 </wgt>
<wgt id='2060'> +2.7319874e+02 </wgt>
<wgt id='2061'> +2.7313795e+02 </wgt>
<wgt id='2062'> +2.7307761e+02 </wgt>
<wgt id='2063'> +2.7301701e+02 </wgt>
<wgt id='2064'> +2.7295621e+02 </wgt>
<wgt id='2065'> +2.7289582e+02 </wgt>
<wgt id='2066'> +2.7283518e+02 </wgt>
<wgt id='2067'> +2.7277493e+02 </wgt>
<wgt id='2068'> +2.7271404e+02 </wgt>
<wgt id='2069'> +2.8951966e+02 </wgt>
<wgt id='2070'> +2.9037820e+02 </wgt>
<wgt id='2071'> +2.8933047e+02 </wgt>
<wgt id='2072'> +2.9012670e+02 </wgt>
<wgt id='2073'> +2.9144182e+02 </wgt>
<wgt id='2074'> +2.9244523e+02 </wgt>
<wgt id='2075'> +2.9181142e+02 </wgt>
<wgt id='2076'> +2.8946224e+02 </wgt>
<wgt id='2077'> +2.8885281e+02 </wgt>
<wgt id='2078'> +2.8890762e+02 </wgt>
<wgt id='2079'> +2.8949566e+02 </wgt>
<wgt id='2080'> +2.9164901e+02 </wgt>
<wgt id='2081'> +2.9239444e+02 </wgt>
<wgt id='2082'> +2.9364178e+02 </wgt>
<wgt id='2083'> +2.8956430e+02 </wgt>
<wgt id='2084'> +2.9256008e+02 </wgt>
<wgt id='2085'> +2.8816982e+02 </wgt>
<wgt id='2086'> +2.8845507e+02 </wgt>
<wgt id='2087'> +2.9146083e+02 </wgt>
<wgt id='2088'> +2.9052683e+02 </wgt>
<wgt id='2089'> +2.9243548e+02 </wgt>
<wgt id='2090'> +2.8681819e+02 </wgt>
<wgt id='2091'> +2.8877642e+02 </wgt>
<wgt id='2092'> +2.8792655e+02 </wgt>
<wgt id='2093'> +2.8636830e+02 </wgt>
<wgt id='2094'> +2.9079013e+02 </wgt>
<wgt id='2095'> +2.8917371e+02 </wgt>
<wgt id='2096'> +2.8878223e+02 </wgt>
<wgt id='2097'> +2.9016392e+02 </wgt>
<wgt id='2098'> +2.8972110e+02 </wgt>
<wgt id='2099'> +2.8904531e+02 </wgt>
<wgt id='2100'> +2.8883673e+02 </wgt>
<wgt id='2101'> +2.8962758e+02 </wgt>
<wgt id='2102'> +2.8982129e+02 </wgt>
<wgt id='2103'> +2.8984849e+02 </wgt>
<wgt id='2104'> +2.8984330e+02 </wgt>
<wgt id='2105'> +2.8980466e+02 </wgt>
<wgt id='2106'> +2.8936016e+02 </wgt>
<wgt id='2107'> +2.8981298e+02 </wgt>
<wgt id='2108'> +2.8978462e+02 </wgt>
<wgt id='2109'> +2.8919236e+02 </wgt>
<wgt id='2110'> +2.8962551e+02 </wgt>
<wgt id='2111'> +2.8941484e+02 </wgt>
<wgt id='2112'> +2.8915691e+02 </wgt>
<wgt id='2113'> +2.8969624e+02 </wgt>
<wgt id='2114'> +2.8966981e+02 </wgt>
<wgt id='2115'> +2.8926978e+02 </wgt>
<wgt id='2116'> +2.8960904e+02 </wgt>
<wgt id='2117'> +2.8972397e+02 </wgt>
<wgt id='2118'> +2.8934911e+02 </wgt>
<wgt id='2119'> +2.8980859e+02 </wgt>
<wgt id='2120'> +2.8979753e+02 </wgt>
<wgt id='2121'> +2.8966768e+02 </wgt>
<wgt id='2122'> +2.8961454e+02 </wgt>
<wgt id='2123'> +2.8940797e+02 </wgt>
<wgt id='2124'> +2.8952251e+02 </wgt>
<wgt id='2125'> +2.8953826e+02 </wgt>
<wgt id='2126'> +2.8944692e+02 </wgt>
<wgt id='2127'> +2.8920256e+02 </wgt>
<wgt id='2128'> +2.8944096e+02 </wgt>
<wgt id='2129'> +2.8940506e+02 </wgt>
<wgt id='2130'> +2.8954604e+02 </wgt>
<wgt id='2131'> +2.8967030e+02 </wgt>
<wgt id='2132'> +2.8946302e+02 </wgt>
<wgt id='2133'> +2.8957916e+02 </wgt>
<wgt id='2134'> +2.8936618e+02 </wgt>
<wgt id='2135'> +2.8948976e+02 </wgt>
<wgt id='2136'> +2.8956388e+02 </wgt>
<wgt id='2137'> +2.8942919e+02 </wgt>
<wgt id='2138'> +2.8983663e+02 </wgt>
<wgt id='2139'> +2.8958752e+02 </wgt>
<wgt id='2140'> +2.8973148e+02 </wgt>
<wgt id='2141'> +2.8968636e+02 </wgt>
<wgt id='2142'> +2.8951617e+02 </wgt>
<wgt id='2143'> +2.8958955e+02 </wgt>
<wgt id='2144'> +2.8955680e+02 </wgt>
<wgt id='2145'> +2.8950501e+02 </wgt>
<wgt id='2146'> +2.8957364e+02 </wgt>
<wgt id='2147'> +2.8965703e+02 </wgt>
<wgt id='2148'> +2.8945373e+02 </wgt>
<wgt id='2149'> +2.8973815e+02 </wgt>
<wgt id='2150'> +2.8954938e+02 </wgt>
<wgt id='2151'> +2.8964111e+02 </wgt>
<wgt id='2152'> +2.8946563e+02 </wgt>
<wgt id='2153'> +2.8935980e+02 </wgt>
<wgt id='2154'> +2.8935445e+02 </wgt>
<wgt id='2155'> +2.8956280e+02 </wgt>
<wgt id='2156'> +2.8926012e+02 </wgt>
<wgt id='2157'> +2.8940767e+02 </wgt>
<wgt id='2158'> +2.8943224e+02 </wgt>
<wgt id='2159'> +2.8952140e+02 </wgt>
<wgt id='2160'> +2.8947704e+02 </wgt>
<wgt id='2161'> +2.8948944e+02 </wgt>
<wgt id='2162'> +2.8944431e+02 </wgt>
<wgt id='2163'> +2.8944156e+02 </wgt>
<wgt id='2164'> +2.8959319e+02 </wgt>
<wgt id='2165'> +2.8944019e+02 </wgt>
<wgt id='2166'> +2.8953156e+02 </wgt>
<wgt id='2167'> +2.8947655e+02 </wgt>
<wgt id='2168'> +2.8941194e+02 </wgt>
<wgt id='2169'> +2.8957680e+02 </wgt>
<wgt id='2170'> +2.8951746e+02 </wgt>
<wgt id='2171'> +2.8950514e+02 </wgt>
<wgt id='2172'> +2.8952195e+02 </wgt>
<wgt id='2173'> +2.8952234e+02 </wgt>
<wgt id='2174'> +2.8952640e+02 </wgt>
<wgt id='2175'> +2.8952064e+02 </wgt>
<wgt id='2176'> +2.8951002e+02 </wgt>
<wgt id='2177'> +2.8672387e+02 </wgt>
<wgt id='2178'> +2.7740391e+02 </wgt>
<wgt id='2179'> +2.9602502e+02 </wgt>
<wgt id='2180'> +3.0076960e+02 </wgt>
<wgt id='2181'> +2.7832350e+02 </wgt>
<wgt id='2182'> +2.6674798e+02 </wgt>
<wgt id='2183'> +2.6971310e+02 </wgt>
<wgt id='2184'> +2.8847642e+02 </wgt>
<wgt id='2185'> +2.9269873e+02 </wgt>
<wgt id='2186'> +2.8768298e+02 </wgt>
<wgt id='2187'> +2.9242845e+02 </wgt>
<wgt id='2188'> +2.7355802e+02 </wgt>
<wgt id='2189'> +2.7648570e+02 </wgt>
<wgt id='2190'> +2.8742991e+02 </wgt>
<wgt id='2191'> +2.9973714e+02 </wgt>
<wgt id='2192'> +2.8851674e+02 </wgt>
<wgt id='2193'> +2.8828614e+02 </wgt>
<wgt id='2194'> +2.9526346e+02 </wgt>
<wgt id='2195'> +2.8749192e+02 </wgt>
<wgt id='2196'> +2.8405466e+02 </wgt>
<wgt id='2197'> +2.9462157e+02 </wgt>
<wgt id='2198'> +2.8222904e+02 </wgt>
<wgt id='2199'> +2.8834069e+02 </wgt>
<wgt id='2200'> +2.8656401e+02 </wgt>
<wgt id='2201'> +2.8141054e+02 </wgt>
<wgt id='2202'> +2.8754418e+02 </wgt>
<wgt id='2203'> +2.7695426e+02 </wgt>
<wgt id='2204'> +3.0042513e+02 </wgt>
<wgt id='2205'> +2.9095758e+02 </wgt>
<wgt id='2206'> +2.9383746e+02 </wgt>
<wgt id='2207'> +2.8770510e+02 </wgt>
<wgt id='2208'> +2.9346493e+02 </wgt>
<wgt id='2209'> +2.7602523e+02 </wgt>
<wgt id='2210'> +2.8803850e+02 </wgt>
<wgt id='2211'> +2.7192748e+02 </wgt>
<wgt id='2212'> +3.0477581e+02 </wgt>
<wgt id='2213'> +2.8650633e+02 </wgt>
<wgt id='2214'> +2.9128050e+02 </wgt>
<wgt id='2215'> +2.7787215e+02 </wgt>
<wgt id='2216'> +2.8355653e+02 </wgt>
<wgt id='2217'> +2.8581669e+02 </wgt>
<wgt id='2218'> +2.8575910e+02 </wgt>
<wgt id='2219'> +2.8124759e+02 </wgt>
<wgt id='2220'> +2.7940682e+02 </wgt>
<wgt id='2221'> +2.8747896e+02 </wgt>
<wgt id='2222'> +2.9646946e+02 </wgt>
<wgt id='2223'> +2.8096755e+02 </wgt>
<wgt id='2224'> +2.8706444e+02 </wgt>
<wgt id='2225'> +2.8487670e+02 </wgt>
<wgt id='2226'> +2.8706625e+02 </wgt>
<wgt id='2227'> +2.9198850e+02 </wgt>
<wgt id='2228'> +2.8635145e+02 </wgt>
<wgt id='2229'> +2.8787432e+02 </wgt>
<wgt id='2230'> +2.7236628e+02 </wgt>
<wgt id='2231'> +2.8041370e+02 </wgt>
<wgt id='2232'> +2.8618073e+02 </wgt>
<wgt id='2233'> +2.9301411e+02 </wgt>
<wgt id='2234'> +2.9067395e+02 </wgt>
<wgt id='2235'> +2.8898650e+02 </wgt>
<wgt id='2236'> +2.9898653e+02 </wgt>
<wgt id='2237'> +2.8889359e+02 </wgt>
<wgt id='2238'> +2.8884950e+02 </wgt>
<wgt id='2239'> +2.9341629e+02 </wgt>
<wgt id='2240'> +2.6374201e+02 </wgt>
<wgt id='2241'> +2.9816850e+02 </wgt>
<wgt id='2242'> +2.8314267e+02 </wgt>
<wgt id='2243'> +2.8983389e+02 </wgt>
<wgt id='2244'> +2.9734966e+02 </wgt>
<wgt id='2245'> +2.9342375e+02 </wgt>
<wgt id='2246'> +2.8541362e+02 </wgt>
<wgt id='2247'> +2.8427311e+02 </wgt>
<wgt id='2248'> +2.8156875e+02 </wgt>
<wgt id='2249'> +2.7148305e+02 </wgt>
<wgt id='2250'> +2.7639067e+02 </wgt>
<wgt id='2251'> +2.7880739e+02 </wgt>
<wgt id='2252'> +2.9360427e+02 </wgt>
<wgt id='2253'> +2.6887247e+02 </wgt>
<wgt id='2254'> +2.7362162e+02 </wgt>
<wgt id='2255'> +2.8129219e+02 </wgt>
<wgt id='2256'> +2.8308700e+02 </wgt>
<wgt id='2257'> +2.8920715e+02 </wgt>
<wgt id='2258'> +2.9026983e+02 </wgt>
<wgt id='2259'> +2.8570240e+02 </wgt>
<wgt id='2260'> +2.8516231e+02 </wgt>
<wgt id='2261'> +2.9405165e+02 </wgt>
<wgt id='2262'> +2.9511891e+02 </wgt>
<wgt id='2263'> +2.8905605e+02 </wgt>
<wgt id='2264'> +2.9629100e+02 </wgt>
<wgt id='2265'> +2.9165836e+02 </wgt>
<wgt id='2266'> +2.7675969e+02 </wgt>
<wgt id='2267'> +2.8740382e+02 </wgt>
<wgt id='2268'> +2.9036238e+02 </wgt>
<wgt id='2269'> +2.7839811e+02 </wgt>
<wgt id='2270'> +2.9247163e+02 </wgt>
<wgt id='2271'> +2.8947352e+02 </wgt>
<wgt id='2272'> +3.0420120e+02 </wgt>
<wgt id='2273'> +2.8236117e+02 </wgt>
<wgt id='2274'> +2.9240826e+02 </wgt>
<wgt id='2275'> +2.8705410e+02 </wgt>
<wgt id='2276'> +2.9056783e+02 </wgt>
<wgt id='2277'> +3.0084856e+02 </wgt>
<wgt id='2278'> +2.7743074e+02 </wgt>
<wgt id='2279'> +2.9608563e+02 </wgt>
<wgt id='2280'> +2.9089897e+02 </wgt>
<wgt id='2281'> +2.9261632e+02 </wgt>
<wgt id='2282'> +4.0037792e+02 </wgt>
<wgt id='2283'> +2.7652778e+02 </wgt>
<wgt id='2284'> +3.7041876e+02 </wgt>
</rwgt>
</event>
<event npLO=" -1 " npNLO=" 1 ">
 5      1 -2.8781417e+02 1.41204540e+01 7.54677110e-03 1.28159540e-01
       21 -1    0    0  503  504 +0.0000000000e+00 +0.0000000000e+00 +4.3747360000e+02 4.3747360000e+02 0.0000000000e+00 0.0000e+00 9.0000e+00
       21 -1    0    0  501  502 +0.0000000000e+00 +0.0000000000e+00 -1.0266427000e+01 1.0266427000e+01 0.0000000000e+00 0.0000e+00 9.0000e+00
       25  1    1    2    0    0 +6.6518852000e+00 +1.3508010000e+01 +2.4736629000e+02 2.6723921000e+02 1.0000000000e+02 0.0000e+00 9.0000e+00
       21  1    1    2  503  502 -3.9690505000e+00 -1.1033645000e+01 +1.4276623000e+02 1.4324696000e+02 0.0000000000e+00 0.0000e+00 9.0000e+00
       21  1    1    2  501  504 -2.6828346000e+00 -2.4743647000e+00 +3.7074641000e+01 3.7253847000e+01 0.0000000000e+00 0.0000e+00 9.0000e+00
#aMCatNLO 2  0  0  1  2 0.38325649E+01 0.00000000E+00 -9  5  0 0.00000000E+00 0.00000000E+00 0.00000000E+00 0.00000000E+00 0.00000000E+00
<rwgt>
<wgt id='1001'> -2.8781417e+02 </wgt>
<wgt id='1002'> -1.8694319e+02 </wgt>
<wgt id='1003'> -4.6832620e+02 </wgt>
<wgt id='1004'> -3.0116302e+02 </wgt>
<wgt id='1005'> -1.9561363e+02 </wgt>
<wgt id='1006'> -4.9004723e+02 </wgt>
<wgt id='1007'> -2.6742418e+02 </wgt>
<wgt id='1008'> -1.7369933e+02 </wgt>
<wgt id='1009'> -4.3514794e+02 </wgt>
<wgt id='1010'> -2.8781417e+02 </wgt>
<wgt id='1011'> -2.8822423e+02 </wgt>
<wgt id='1012'> -2.8709216e+02 </wgt>
<wgt id='1013'> -2.8859877e+02 </wgt>
<wgt id='1014'> -2.8809188e+02 </wgt>
<wgt id='1015'> -2.8805708e+02 </wgt>
<wgt id='1016'> -2.8748214e+02 </wgt>
<wgt id='1017'> -2.8724106e+02 </wgt>
<wgt id='1018'> -2.8735483e+02 </wgt>
<wgt id='1019'> -2.8768356e+02 </wgt>
<wgt id='1020'> -2.8831439e+02 </wgt>
<wgt id='1021'> -2.8885239e+02 </wgt>
<wgt id='1022'> -2.8713332e+02 </wgt>
<wgt id='1023'> -2.8777355e+02 </wgt>
<wgt id='1024'> -2.8781105e+02 </wgt>
<wgt id='1025'> -2.8835525e+02 </wgt>
<wgt id='1026'> -2.8741825e+02 </wgt>
<wgt id='1027'> -2.8794902e+02 </wgt>
<wgt id='1028'> -2.8775609e+02 </wgt>
<wgt id='1029'> -2.8749682e+02 </wgt>
<wgt id='1030'> -2.8802062e+02 </wgt>
<wgt id='1031'> -2.8743329e+02 </wgt>
<wgt id='1032'> -2.8786895e+02 </wgt>
<wgt id='1033'> -2.8762270e+02 </wgt>
<wgt id='1034'> -2.8778442e+02 </wgt>
<wgt id='1035'> -2.8760425e+02 </wgt>
<wgt id='1036'> -2.8752830e+02 </wgt>
<wgt id='1037'> -2.8685554e+02 </wgt>
<wgt id='1038'> -2.8796228e+02 </wgt>
<wgt id='1039'> -2.8662724e+02 </wgt>
<wgt id='1040'> -2.8768246e+02 </wgt>
<wgt id='1041'> -2.8700087e+02 </wgt>
<wgt id='1042'> -2.8823843e+02 </wgt>
<wgt id='1043'> -2.8735563e+02 </wgt>
<wgt id='1044'> -2.8744632e+02 </wgt>
<wgt id='1045'> -2.8772450e+02 </wgt>
<wgt id='1046'> -2.8842998e+02 </wgt>
<wgt id='1047'> -2.8781298e+02 </wgt>
<wgt id='1048'> -2.8770621e+02 </wgt>
<wgt id='1049'> -2.8790625e+02 </wgt>
<wgt id='1050'> -2.8760263e+02 </wgt>
<wgt id='1051'> -2.8790570e+02 </wgt>
<wgt id='1052'> -2.8794028e+02 </wgt>
<wgt id='1053'> -2.8762127e+02 </wgt>
<wgt id='1054'> -2.8796886e+02 </wgt>
<wgt id='1055'> -2.8783738e+02 </wgt>
<wgt id='1056'> -2.8790585e+02 </wgt>
<wgt id='1057'> -2.8774812e+02 </wgt>
<wgt id='1058'> -2.8769072e+02 </wgt>
<wgt id='1059'> -2.8762884e+02 </wgt>
<wgt id='1060'> -2.8774786e+02 </wgt>
<wgt id='1061'> -2.8781314e+02 </wgt>
<wgt id='1062'> -2.8798171e+02 </wgt>
<wgt id='1063'> -2.8778722e+02 </wgt>
<wgt id='1064'> -2.8781162e+02 </wgt>
<wgt id='1065'> -2.8791721e+02 </wgt>
<wgt id='1066'> -2.8767168e+02 </wgt>
<wgt id='1067'> -2.8790513e+02 </wgt>
<wgt id='1068'> -2.8781349e+02 </wgt>
<wgt id='1069'> -2.8782283e+02 </wgt>
<wgt id='1070'> -2.8779580e+02 </wgt>
<wgt id='1071'> -2.8778707e+02 </wgt>
<wgt id='1072'> -2.8800348e+02 </wgt>
<wgt id='1073'> -2.8789289e+02 </wgt>
<wgt id='1074'> -2.8787383e+02 </wgt>
<wgt id='1075'> -2.8803143e+02 </wgt>
<wgt id='1076'> -2.8785592e+02 </wgt>
<wgt id='1077'> -2.8790705e+02 </wgt>
<wgt id='1078'> -2.8783693e+02 </wgt>
<wgt id='1079'> -2.8781163e+02 </wgt>
<wgt id='1080'> -2.8784888e+02 </wgt>
<wgt id='1081'> -2.8785658e+02 </wgt>
<wgt id='1082'> -2.8784962e+02 </wgt>
<wgt id='1083'> -2.8784465e+02 </wgt>
<wgt id='1084'> -2.8780477e+02 </wgt>
<wgt id='1085'> -2.8774236e+02 </wgt>
<wgt id='1086'> -2.8775528e+02 </wgt>
<wgt id='1087'> -2.8796759e+02 </wgt>
<wgt id='1088'> -2.8782521e+02 </wgt>
<wgt id='1089'> -2.8775528e+02 </wgt>
<wgt id='1090'> -2.8786517e+02 </wgt>
<wgt id='1091'> -2.8778640e+02 </wgt>
<wgt id='1092'> -2.8785510e+02 </wgt>
<wgt id='1093'> -2.8789054e+02 </wgt>
<wgt id='1094'> -2.8783168e+02 </wgt>
<wgt id='1095'> -2.8781163e+02 </wgt>
<wgt id='1096'> -2.8777991e+02 </wgt>
<wgt id='1097'> -2.8781966e+02 </wgt>
<wgt id='1098'> -2.8780694e+02 </wgt>
<wgt id='1099'> -2.8780539e+02 </wgt>
<wgt id='1100'> -2.8785752e+02 </wgt>
<wgt id='1101'> -2.8780856e+02 </wgt>
<wgt id='1102'> -2.8787872e+02 </wgt>
<wgt id='1103'> -2.8777612e+02 </wgt>
<wgt id='1104'> -2.8779645e+02 </wgt>
<wgt id='1105'> -2.8783105e+02 </wgt>
<wgt id='1106'> -2.8778233e+02 </wgt>
<wgt id='1107'> -2.8783960e+02 </wgt>
<wgt id='1108'> -2.8780637e+02 </wgt>
<wgt id='1109'> -2.8784321e+02 </wgt>
<wgt id='1110'> -2.8781417e+02 </wgt>
<wgt id='1111'> -2.7092993e+02 </wgt>
<wgt id='1112'> -3.0554227e+02 </wgt>
<wgt id='1113'> -2.8781417e+02 </wgt>
<wgt id='1114'> -2.8924538e+02 </wgt>
<wgt id='1115'> -2.8479059e+02 </wgt>
<wgt id='1116'> -2.8125765e+02 </wgt>
<wgt id='1117'> -2.8805280e+02 </wgt>
<wgt id='1118'> -2.8598615e+02 </wgt>
<wgt id='1119'> -2.9032631e+02 </wgt>
<wgt id='1120'> -2.8923994e+02 </wgt>
<wgt id='1121'> -2.8891212e+02 </wgt>
<wgt id='1122'> -2.8607692e+02 </wgt>
<wgt id='1123'> -2.8917784e+02 </wgt>
<wgt id='1124'> -2.9028429e+02 </wgt>
<wgt id='1125'> -2.9047834e+02 </wgt>
<wgt id='1126'> -2.8951535e+02 </wgt>
<wgt id='1127'> -2.8775664e+02 </wgt>
<wgt id='1128'> -2.8186353e+02 </wgt>
<wgt id='1129'> -2.8890426e+02 </wgt>
<wgt id='1130'> -2.8957232e+02 </wgt>
<wgt id='1131'> -2.8946661e+02 </wgt>
<wgt id='1132'> -2.8250051e+02 </wgt>
<wgt id='1133'> -2.8504706e+02 </wgt>
<wgt id='1134'> -2.8229996e+02 </wgt>
<wgt id='1135'> -2.8445255e+02 </wgt>
<wgt id='1136'> -2.8478835e+02 </wgt>
<wgt id='1137'> -2.9041855e+02 </wgt>
<wgt id='1138'> -2.8572929e+02 </wgt>
<wgt id='1139'> -2.8828187e+02 </wgt>
<wgt id='1140'> -2.8189948e+02 </wgt>
<wgt id='1141'> -2.8743465e+02 </wgt>
<wgt id='1142'> -2.8689563e+02 </wgt>
<wgt id='1143'> -2.8882328e+02 </wgt>
<wgt id='1144'> -2.8816330e+02 </wgt>
<wgt id='1145'> -2.9288793e+02 </wgt>
<wgt id='1146'> -2.8293245e+02 </wgt>
<wgt id='1147'> -2.9120646e+02 </wgt>
<wgt id='1148'> -2.8671214e+02 </wgt>
<wgt id='1149'> -2.8995538e+02 </wgt>
<wgt id='1150'> -2.9034973e+02 </wgt>
<wgt id='1151'> -2.8400969e+02 </wgt>
<wgt id='1152'> -2.8501690e+02 </wgt>
<wgt id='1153'> -2.8912556e+02 </wgt>
<wgt id='1154'> -2.8569165e+02 </wgt>
<wgt id='1155'> -2.9186183e+02 </wgt>
<wgt id='1156'> -2.8805454e+02 </wgt>
<wgt id='1157'> -2.8475604e+02 </wgt>
<wgt id='1158'> -2.8723511e+02 </wgt>
<wgt id='1159'> -2.9044547e+02 </wgt>
<wgt id='1160'> -2.8679063e+02 </wgt>
<wgt id='1161'> -2.9375051e+02 </wgt>
<wgt id='1162'> -2.8486149e+02 </wgt>
<wgt id='1163'> -2.9153504e+02 </wgt>
<wgt id='1164'> -2.8468069e+02 </wgt>
<wgt id='1165'> -2.8818268e+02 </wgt>
<wgt id='1166'> -2.8348395e+02 </wgt>
<wgt id='1167'> -2.8746079e+02 </wgt>
<wgt id='1168'> -2.8912087e+02 </wgt>
<wgt id='1169'> -2.8853198e+02 </wgt>
<wgt id='1170'> -2.9207690e+02 </wgt>
<wgt id='1171'> -2.8636849e+02 </wgt>
<wgt id='1172'> -2.8422036e+02 </wgt>
<wgt id='1173'> -2.8978231e+02 </wgt>
<wgt id='1174'> -2.8838639e+02 </wgt>
<wgt id='1175'> -2.8913242e+02 </wgt>
<wgt id='1176'> -2.8311458e+02 </wgt>
<wgt id='1177'> -2.8901871e+02 </wgt>
<wgt id='1178'> -2.8656613e+02 </wgt>
<wgt id='1179'> -2.8870178e+02 </wgt>
<wgt id='1180'> -2.8475311e+02 </wgt>
<wgt id='1181'> -2.8792995e+02 </wgt>
<wgt id='1182'> -2.8847157e+02 </wgt>
<wgt id='1183'> -2.8892141e+02 </wgt>
<wgt id='1184'> -2.8496703e+02 </wgt>
<wgt id='1185'> -2.8146770e+02 </wgt>
<wgt id='1186'> -2.9021675e+02 </wgt>
<wgt id='1187'> -2.8552182e+02 </wgt>
<wgt id='1188'> -2.9020965e+02 </wgt>
<wgt id='1189'> -2.8514070e+02 </wgt>
<wgt id='1190'> -2.9010821e+02 </wgt>
<wgt id='1191'> -2.8349004e+02 </wgt>
<wgt id='1192'> -2.8470628e+02 </wgt>
<wgt id='1193'> -2.8860382e+02 </wgt>
<wgt id='1194'> -2.8876766e+02 </wgt>
<wgt id='1195'> -2.8890426e+02 </wgt>
<wgt id='1196'> -2.8778029e+02 </wgt>
<wgt id='1197'> -2.9012080e+02 </wgt>
<wgt id='1198'> -2.8645892e+02 </wgt>
<wgt id='1199'> -2.9001338e+02 </wgt>
<wgt id='1200'> -2.8805783e+02 </wgt>
<wgt id='1201'> -2.9217664e+02 </wgt>
<wgt id='1202'> -2.9375464e+02 </wgt>
<wgt id='1203'> -2.9034743e+02 </wgt>
<wgt id='1204'> -2.8492988e+02 </wgt>
<wgt id='1205'> -2.8838987e+02 </wgt>
<wgt id='1206'> -2.8848594e+02 </wgt>
<wgt id='1207'> -2.8909596e+02 </wgt>
<wgt id='1208'> -2.9699045e+02 </wgt>
<wgt id='1209'> -2.8349353e+02 </wgt>
<wgt id='1210'> -2.8977829e+02 </wgt>
<wgt id='1211'> -2.9172484e+02 </wgt>
<wgt id='1212'> -2.9247309e+02 </wgt>
<wgt id='1213'> -2.9089390e+02 </wgt>
<wgt id='1214'> -2.8782762e+02 </wgt>
<wgt id='1215'> -2.8747317e+02 </wgt>
<wgt id='1216'> -2.8807195e+02 </wgt>
<wgt id='1217'> -2.8765667e+02 </wgt>
<wgt id='1218'> -2.8806159e+02 </wgt>
<wgt id='1219'> -2.8812989e+02 </wgt>
<wgt id='1220'> -2.8787584e+02 </wgt>
<wgt id='1221'> -2.8856944e+02 </wgt>
<wgt id='1222'> -2.8886471e+02 </wgt>
<wgt id='1223'> -2.8730782e+02 </wgt>
<wgt id='1224'> -2.8725406e+02 </wgt>
<wgt id='1225'> -2.8804473e+02 </wgt>
<wgt id='1226'> -2.8788732e+02 </wgt>
<wgt id='1227'> -2.8717566e+02 </wgt>
<wgt id='1228'> -2.8751157e+02 </wgt>
<wgt id='1229'> -2.8782806e+02 </wgt>
<wgt id='1230'> -2.8826983e+02 </wgt>
<wgt id='1231'> -2.8767791e+02 </wgt>
<wgt id='1232'> -2.8744505e+02 </wgt>
<wgt id='1233'> -2.8793287e+02 </wgt>
<wgt id='1234'> -2.8784909e+02 </wgt>
<wgt id='1235'> -2.8788863e+02 </wgt>
<wgt id='1236'> -2.8784965e+02 </wgt>
<wgt id='1237'> -2.8815539e+02 </wgt>
<wgt id='1238'> -2.8736283e+02 </wgt>
<wgt id='1239'> -2.8811984e+02 </wgt>
<wgt id='1240'> -2.8853510e+02 </wgt>
<wgt id='1241'> -2.8745542e+02 </wgt>
<wgt id='1242'> -2.8725982e+02 </wgt>
<wgt id='1243'> -2.8899216e+02 </wgt>
<wgt id='1244'> -2.8781293e+02 </wgt>
<wgt id='1245'> -2.8818517e+02 </wgt>
<wgt id='1246'> -2.8744871e+02 </wgt>
<wgt id='1247'> -2.8784169e+02 </wgt>
<wgt id='1248'> -2.8876418e+02 </wgt>
<wgt id='1249'> -2.8772173e+02 </wgt>
<wgt id='1250'> -2.8794531e+02 </wgt>
<wgt id='1251'> -2.8841107e+02 </wgt>
<wgt id='1252'> -2.8765665e+02 </wgt>
<wgt id='1253'> -2.8705307e+02 </wgt>
<wgt id='1254'> -2.8773847e+02 </wgt>
<wgt id='1255'> -2.8782373e+02 </wgt>
<wgt id='1256'> -2.8778242e+02 </wgt>
<wgt id='1257'> -2.8764691e+02 </wgt>
<wgt id='1258'> -2.8814147e+02 </wgt>
<wgt id='1259'> -2.8762390e+02 </wgt>
<wgt id='1260'> -2.8812193e+02 </wgt>
<wgt id='1261'> -2.8813214e+02 </wgt>
<wgt id='1262'> -2.8757587e+02 </wgt>
<wgt id='1263'> -2.8770035e+02 </wgt>
<wgt id='1264'> -2.8792792e+02 </wgt>
<wgt id='1265'> -2.8823820e+02 </wgt>
<wgt id='1266'> -2.8792927e+02 </wgt>
<wgt id='1267'> -2.8801000e+02 </wgt>
<wgt id='1268'> -2.8797042e+02 </wgt>
<wgt id='1269'> -2.8773924e+02 </wgt>
<wgt id='1270'> -2.8785652e+02 </wgt>
<wgt id='1271'> -2.8808493e+02 </wgt>
<wgt id='1272'> -2.8787577e+02 </wgt>
<wgt id='1273'> -2.8772762e+02 </wgt>
<wgt id='1274'> -2.8779823e+02 </wgt>
<wgt id='1275'> -2.8769960e+02 </wgt>
<wgt id='1276'> -2.8790946e+02 </wgt>
<wgt id='1277'> -2.8781875e+02 </wgt>
<wgt id='1278'> -2.8776193e+02 </wgt>
<wgt id='1279'> -2.8803389e+02 </wgt>
<wgt id='1280'> -2.8778668e+02 </wgt>
<wgt id='1281'> -2.8784592e+02 </wgt>
<wgt id='1282'> -2.8789574e+02 </wgt>
<wgt id='1283'> -2.8781755e+02 </wgt>
<wgt id='1284'> -2.8773963e+02 </wgt>
<wgt id='1285'> -2.8771177e+02 </wgt>
<wgt id='1286'> -2.8784055e+02 </wgt>
<wgt id='1287'> -2.8786835e+02 </wgt>
<wgt id='1288'> -2.8778136e+02 </wgt>
<wgt id='1289'> -2.8783270e+02 </wgt>
<wgt id='1290'> -2.8776758e+02 </wgt>
<wgt id='1291'> -2.8784095e+02 </wgt>
<wgt id='1292'> -2.8780260e+02 </wgt>
<wgt id='1293'> -2.8784257e+02 </wgt>
<wgt id='1294'> -2.8786102e+02 </wgt>
<wgt id='1295'> -2.8784214e+02 </wgt>
<wgt id='1296'> -2.8785342e+02 </wgt>
<wgt id='1297'> -2.8788972e+02 </wgt>
<wgt id='1298'> -2.8786207e+02 </wgt>
<wgt id='1299'> -2.8784906e+02 </wgt>
<wgt id='1300'> -2.8777304e+02 </wgt>
<wgt id='1301'> -2.8779965e+02 </wgt>
<wgt id='1302'> -2.8786461e+02 </wgt>
<wgt id='1303'> -2.8776824e+02 </wgt>
<wgt id='1304'> -2.8781756e+02 </wgt>
<wgt id='1305'> -2.8784876e+02 </wgt>
<wgt id='1306'> -2.8786216e+02 </wgt>
<wgt id='1307'> -2.8781274e+02 </wgt>
<wgt id='1308'> -2.8788183e+02 </wgt>
<wgt id='1309'> -2.8786247e+02 </wgt>
<wgt id='1310'> -2.8779708e+02 </wgt>
<wgt id='1311'> -2.8784643e+02 </wgt>
<wgt id='1312'> -2.8780933e+02 </wgt>
<wgt id='1313'> -2.8780834e+02 </wgt>
<wgt id='1314'> -2.8784281e+02 </wgt>
<wgt id='1315'> -2.7092993e+02 </wgt>
<wgt id='1316'> -3.0554227e+02 </wgt>
<wgt id='1317'> -2.1099122e+02 </wgt>
<wgt id='1318'> -2.2497048e+02 </wgt>
<wgt id='1319'> -2.3895551e+02 </wgt>
<wgt id='1320'> -2.5389993e+02 </wgt>
<wgt id='1321'> -2.7915629e+02 </wgt>
<wgt id='1322'> -2.9636119e+02 </wgt>
<wgt id='1323'> -3.2331915e+02 </wgt>
<wgt id='1324'> -3.4202261e+02 </wgt>
<wgt id='1325'> -2.9319880e+02 </wgt>
<wgt id='1326'> -2.9344575e+02 </wgt>
<wgt id='1327'> -2.9281890e+02 </wgt>
<wgt id='1328'> -2.9291533e+02 </wgt>
<wgt id='1329'> -2.9352840e+02 </wgt>
<wgt id='1330'> -2.9261267e+02 </wgt>
<wgt id='1331'> -2.9292660e+02 </wgt>
<wgt id='1332'> -2.9220909e+02 </wgt>
<wgt id='1333'> -2.9321475e+02 </wgt>
<wgt id='1334'> -2.9183418e+02 </wgt>
<wgt id='1335'> -2.9307507e+02 </wgt>
<wgt id='1336'> -2.9348083e+02 </wgt>
<wgt id='1337'> -2.9323354e+02 </wgt>
<wgt id='1338'> -2.9338515e+02 </wgt>
<wgt id='1339'> -2.9272466e+02 </wgt>
<wgt id='1340'> -2.9299537e+02 </wgt>
<wgt id='1341'> -2.9320525e+02 </wgt>
<wgt id='1342'> -2.9272027e+02 </wgt>
<wgt id='1343'> -2.9339245e+02 </wgt>
<wgt id='1344'> -2.9379131e+02 </wgt>
<wgt id='1345'> -2.9322019e+02 </wgt>
<wgt id='1346'> -2.9329271e+02 </wgt>
<wgt id='1347'> -2.9321847e+02 </wgt>
<wgt id='1348'> -2.9307559e+02 </wgt>
<wgt id='1349'> -2.9291869e+02 </wgt>
<wgt id='1350'> -2.9347811e+02 </wgt>
<wgt id='1351'> -2.9326917e+02 </wgt>
<wgt id='1352'> -2.9326904e+02 </wgt>
<wgt id='1353'> -2.9258545e+02 </wgt>
<wgt id='1354'> -2.9243154e+02 </wgt>
<wgt id='1355'> -2.9446309e+02 </wgt>
<wgt id='1356'> -2.9385604e+02 </wgt>
<wgt id='1357'> -2.9349467e+02 </wgt>
<wgt id='1358'> -2.9397193e+02 </wgt>
<wgt id='1359'> -2.9330501e+02 </wgt>
<wgt id='1360'> -2.9450333e+02 </wgt>
<wgt id='1361'> -2.9349064e+02 </wgt>
<wgt id='1362'> -2.9298094e+02 </wgt>
<wgt id='1363'> -2.9326659e+02 </wgt>
<wgt id='1364'> -2.9303675e+02 </wgt>
<wgt id='1365'> -2.9283435e+02 </wgt>
<wgt id='1366'> -2.9344269e+02 </wgt>
<wgt id='1367'> -2.9297039e+02 </wgt>
<wgt id='1368'> -2.9288904e+02 </wgt>
<wgt id='1369'> -2.9323936e+02 </wgt>
<wgt id='1370'> -2.9343128e+02 </wgt>
<wgt id='1371'> -2.9351175e+02 </wgt>
<wgt id='1372'> -2.9324981e+02 </wgt>
<wgt id='1373'> -2.9322057e+02 </wgt>
<wgt id='1374'> -2.9314107e+02 </wgt>
<wgt id='1375'> -2.9304134e+02 </wgt>
<wgt id='1376'> -2.9346477e+02 </wgt>
<wgt id='1377'> -2.9300943e+02 </wgt>
<wgt id='1378'> -2.9313319e+02 </wgt>
<wgt id='1379'> -2.9324661e+02 </wgt>
<wgt id='1380'> -2.9277101e+02 </wgt>
<wgt id='1381'> -2.9325583e+02 </wgt>
<wgt id='1382'> -2.9317684e+02 </wgt>
<wgt id='1383'> -2.9296782e+02 </wgt>
<wgt id='1384'> -2.9326058e+02 </wgt>
<wgt id='1385'> -2.9329127e+02 </wgt>
<wgt id='1386'> -2.9329120e+02 </wgt>
<wgt id='1387'> -2.9328994e+02 </wgt>
<wgt id='1388'> -2.9335463e+02 </wgt>
<wgt id='1389'> -2.9308582e+02 </wgt>
<wgt id='1390'> -2.9317631e+02 </wgt>
<wgt id='1391'> -2.9326301e+02 </wgt>
<wgt id='1392'> -2.9303100e+02 </wgt>
<wgt id='1393'> -2.9330363e+02 </wgt>
<wgt id='1394'> -2.9317822e+02 </wgt>
<wgt id='1395'> -2.9326499e+02 </wgt>
<wgt id='1396'> -2.9312815e+02 </wgt>
<wgt id='1397'> -2.9316329e+02 </wgt>
<wgt id='1398'> -2.9304835e+02 </wgt>
<wgt id='1399'> -2.9326522e+02 </wgt>
<wgt id='1400'> -2.9315336e+02 </wgt>
<wgt id='1401'> -2.9317296e+02 </wgt>
<wgt id='1402'> -2.9324830e+02 </wgt>
<wgt id='1403'> -2.9323244e+02 </wgt>
<wgt id='1404'> -2.9323026e+02 </wgt>
<wgt id='1405'> -2.9319987e+02 </wgt>
<wgt id='1406'> -2.9323508e+02 </wgt>
<wgt id='1407'> -2.9319028e+02 </wgt>
<wgt id='1408'> -2.9319505e+02 </wgt>
<wgt id='1409'> -2.9317796e+02 </wgt>
<wgt id='1410'> -2.9319071e+02 </wgt>
<wgt id='1411'> -2.9310707e+02 </wgt>
<wgt id='1412'> -2.9316605e+02 </wgt>
<wgt id='1413'> -2.9320904e+02 </wgt>
<wgt id='1414'> -2.9319717e+02 </wgt>
<wgt id='1415'> -2.9320100e+02 </wgt>
<wgt id='1416'> -2.9322781e+02 </wgt>
<wgt id='1417'> -2.9321969e+02 </wgt>
<wgt id='1418'> -2.9319947e+02 </wgt>
<wgt id='1419'> -2.9323567e+02 </wgt>
<wgt id='1420'> -2.9320125e+02 </wgt>
<wgt id='1421'> -2.9320203e+02 </wgt>
<wgt id='1422'> -2.9316467e+02 </wgt>
<wgt id='1423'> -2.9321257e+02 </wgt>
<wgt id='1424'> -2.9322725e+02 </wgt>
<wgt id='1425'> -2.9319169e+02 </wgt>
<wgt id='1426'> -2.7546887e+02 </wgt>
<wgt id='1427'> -3.1141984e+02 </wgt>
<wgt id='1428'> -2.8044227e+02 </wgt>
<wgt id='1429'> -2.8028935e+02 </wgt>
<wgt id='1430'> -2.7974523e+02 </wgt>
<wgt id='1431'> -2.8042598e+02 </wgt>
<wgt id='1432'> -2.7963026e+02 </wgt>
<wgt id='1433'> -2.8014320e+02 </wgt>
<wgt id='1434'> -2.7693519e+02 </wgt>
<wgt id='1435'> -2.7836960e+02 </wgt>
<wgt id='1436'> -2.8139500e+02 </wgt>
<wgt id='1437'> -2.8026172e+02 </wgt>
<wgt id='1438'> -2.8034451e+02 </wgt>
<wgt id='1439'> -2.8106206e+02 </wgt>
<wgt id='1440'> -2.7937293e+02 </wgt>
<wgt id='1441'> -2.7968346e+02 </wgt>
<wgt id='1442'> -2.8085457e+02 </wgt>
<wgt id='1443'> -2.8121687e+02 </wgt>
<wgt id='1444'> -2.7760210e+02 </wgt>
<wgt id='1445'> -2.7942181e+02 </wgt>
<wgt id='1446'> -2.8157486e+02 </wgt>
<wgt id='1447'> -2.7942126e+02 </wgt>
<wgt id='1448'> -2.8152493e+02 </wgt>
<wgt id='1449'> -2.8062328e+02 </wgt>
<wgt id='1450'> -2.8030888e+02 </wgt>
<wgt id='1451'> -2.7888924e+02 </wgt>
<wgt id='1452'> -2.8209299e+02 </wgt>
<wgt id='1453'> -2.8046744e+02 </wgt>
<wgt id='1454'> -2.8041703e+02 </wgt>
<wgt id='1455'> -2.8240865e+02 </wgt>
<wgt id='1456'> -2.7705658e+02 </wgt>
<wgt id='1457'> -2.7717415e+02 </wgt>
<wgt id='1458'> -2.8235423e+02 </wgt>
<wgt id='1459'> -2.7837686e+02 </wgt>
<wgt id='1460'> -2.8336144e+02 </wgt>
<wgt id='1461'> -2.7906713e+02 </wgt>
<wgt id='1462'> -2.8163599e+02 </wgt>
<wgt id='1463'> -2.7786737e+02 </wgt>
<wgt id='1464'> -2.8264684e+02 </wgt>
<wgt id='1465'> -2.7776690e+02 </wgt>
<wgt id='1466'> -2.8342421e+02 </wgt>
<wgt id='1467'> -2.8528095e+02 </wgt>
<wgt id='1468'> -2.7801910e+02 </wgt>
<wgt id='1469'> -2.7981979e+02 </wgt>
<wgt id='1470'> -2.8028160e+02 </wgt>
<wgt id='1471'> -2.8199257e+02 </wgt>
<wgt id='1472'> -2.7660738e+02 </wgt>
<wgt id='1473'> -2.8034980e+02 </wgt>
<wgt id='1474'> -2.8036718e+02 </wgt>
<wgt id='1475'> -2.7800785e+02 </wgt>
<wgt id='1476'> -2.8379532e+02 </wgt>
<wgt id='1477'> -2.8024755e+02 </wgt>
<wgt id='1478'> -2.8119937e+02 </wgt>
<wgt id='1479'> -2.8080078e+02 </wgt>
<wgt id='1480'> -2.8031813e+02 </wgt>
<wgt id='1481'> -2.7206132e+02 </wgt>
<wgt id='1482'> -2.7554686e+02 </wgt>
<wgt id='1483'> -2.7855542e+02 </wgt>
<wgt id='1484'> -2.8354928e+02 </wgt>
<wgt id='1485'> -2.6279018e+02 </wgt>
<wgt id='1486'> -2.9890027e+02 </wgt>
<wgt id='1487'> -2.8614166e+02 </wgt>
<wgt id='1488'> -2.8610722e+02 </wgt>
<wgt id='1489'> -2.8676875e+02 </wgt>
<wgt id='1490'> -2.8303707e+02 </wgt>
<wgt id='1491'> -2.8719266e+02 </wgt>
<wgt id='1492'> -2.8724297e+02 </wgt>
<wgt id='1493'> -2.8545673e+02 </wgt>
<wgt id='1494'> -2.8509429e+02 </wgt>
<wgt id='1495'> -2.8732506e+02 </wgt>
<wgt id='1496'> -2.8349404e+02 </wgt>
<wgt id='1497'> -2.8744851e+02 </wgt>
<wgt id='1498'> -2.8869542e+02 </wgt>
<wgt id='1499'> -2.8452601e+02 </wgt>
<wgt id='1500'> -2.7948443e+02 </wgt>
<wgt id='1501'> -2.9001512e+02 </wgt>
<wgt id='1502'> -2.8993858e+02 </wgt>
<wgt id='1503'> -2.8375088e+02 </wgt>
<wgt id='1504'> -2.8227838e+02 </wgt>
<wgt id='1505'> -2.9073139e+02 </wgt>
<wgt id='1506'> -2.8820119e+02 </wgt>
<wgt id='1507'> -2.8375214e+02 </wgt>
<wgt id='1508'> -2.8628222e+02 </wgt>
<wgt id='1509'> -2.8567551e+02 </wgt>
<wgt id='1510'> -2.8589136e+02 </wgt>
<wgt id='1511'> -2.8622773e+02 </wgt>
<wgt id='1512'> -2.8568041e+02 </wgt>
<wgt id='1513'> -2.8649200e+02 </wgt>
<wgt id='1514'> -2.8594460e+02 </wgt>
<wgt id='1515'> -2.8636104e+02 </wgt>
<wgt id='1516'> -2.8521162e+02 </wgt>
<wgt id='1517'> -2.8646470e+02 </wgt>
<wgt id='1518'> -2.8657324e+02 </wgt>
<wgt id='1519'> -2.8558163e+02 </wgt>
<wgt id='1520'> -2.8567644e+02 </wgt>
<wgt id='1521'> -2.8718192e+02 </wgt>
<wgt id='1522'> -2.8692553e+02 </wgt>
<wgt id='1523'> -2.8541488e+02 </wgt>
<wgt id='1524'> -2.8659098e+02 </wgt>
<wgt id='1525'> -2.8499630e+02 </wgt>
<wgt id='1526'> -2.8524937e+02 </wgt>
<wgt id='1527'> -2.8658583e+02 </wgt>
<wgt id='1528'> -2.8660423e+02 </wgt>
<wgt id='1529'> -2.8581951e+02 </wgt>
<wgt id='1530'> -2.8470373e+02 </wgt>
<wgt id='1531'> -2.8803746e+02 </wgt>
<wgt id='1532'> -2.8414712e+02 </wgt>
<wgt id='1533'> -2.8625332e+02 </wgt>
<wgt id='1534'> -2.8624091e+02 </wgt>
<wgt id='1535'> -2.8320524e+02 </wgt>
<wgt id='1536'> -2.8274373e+02 </wgt>
<wgt id='1537'> -2.8677951e+02 </wgt>
<wgt id='1538'> -2.8571767e+02 </wgt>
<wgt id='1539'> -2.8597191e+02 </wgt>
<wgt id='1540'> -2.7680057e+02 </wgt>
<wgt id='1541'> -2.8539248e+02 </wgt>
<wgt id='1542'> -2.8503574e+02 </wgt>
<wgt id='1543'> -2.8835210e+02 </wgt>
<wgt id='1544'> -2.6776683e+02 </wgt>
<wgt id='1545'> -3.0538656e+02 </wgt>
<wgt id='1546'> -3.0767871e+02 </wgt>
<wgt id='1547'> -2.8899140e+02 </wgt>
<wgt id='1548'> -2.8940113e+02 </wgt>
<wgt id='1549'> -2.8854720e+02 </wgt>
<wgt id='1550'> -2.8916070e+02 </wgt>
<wgt id='1551'> -2.8887436e+02 </wgt>
<wgt id='1552'> -2.8936023e+02 </wgt>
<wgt id='1553'> -2.8863280e+02 </wgt>
<wgt id='1554'> -2.8804909e+02 </wgt>
<wgt id='1555'> -2.9003709e+02 </wgt>
<wgt id='1556'> -2.9030426e+02 </wgt>
<wgt id='1557'> -2.8771501e+02 </wgt>
<wgt id='1558'> -2.8967047e+02 </wgt>
<wgt id='1559'> -2.8749764e+02 </wgt>
<wgt id='1560'> -2.8861499e+02 </wgt>
<wgt id='1561'> -2.8964444e+02 </wgt>
<wgt id='1562'> -2.8822100e+02 </wgt>
<wgt id='1563'> -2.8942514e+02 </wgt>
<wgt id='1564'> -2.8713241e+02 </wgt>
<wgt id='1565'> -2.9118747e+02 </wgt>
<wgt id='1566'> -2.8901491e+02 </wgt>
<wgt id='1567'> -2.8896645e+02 </wgt>
<wgt id='1568'> -2.8836266e+02 </wgt>
<wgt id='1569'> -2.8984028e+02 </wgt>
<wgt id='1570'> -2.8688107e+02 </wgt>
<wgt id='1571'> -2.9048992e+02 </wgt>
<wgt id='1572'> -2.8929706e+02 </wgt>
<wgt id='1573'> -2.8760816e+02 </wgt>
<wgt id='1574'> -2.8981578e+02 </wgt>
<wgt id='1575'> -2.8898916e+02 </wgt>
<wgt id='1576'> -2.8943264e+02 </wgt>
<wgt id='1577'> -2.8846439e+02 </wgt>
<wgt id='1578'> -2.8815747e+02 </wgt>
<wgt id='1579'> -2.8976512e+02 </wgt>
<wgt id='1580'> -2.8977006e+02 </wgt>
<wgt id='1581'> -2.8816047e+02 </wgt>
<wgt id='1582'> -2.8919419e+02 </wgt>
<wgt id='1583'> -2.8905928e+02 </wgt>
<wgt id='1584'> -2.8950533e+02 </wgt>
<wgt id='1585'> -2.8899041e+02 </wgt>
<wgt id='1586'> -2.8842889e+02 </wgt>
<wgt id='1587'> -2.8961050e+02 </wgt>
<wgt id='1588'> -2.8823319e+02 </wgt>
<wgt id='1589'> -2.8992086e+02 </wgt>
<wgt id='1590'> -2.9300973e+02 </wgt>
<wgt id='1591'> -2.8756889e+02 </wgt>
<wgt id='1592'> -2.8871707e+02 </wgt>
<wgt id='1593'> -2.8968645e+02 </wgt>
<wgt id='1594'> -2.9091921e+02 </wgt>
<wgt id='1595'> -2.8628306e+02 </wgt>
<wgt id='1596'> -2.8982495e+02 </wgt>
<wgt id='1597'> -2.8854578e+02 </wgt>
<wgt id='1598'> -2.7931946e+02 </wgt>
<wgt id='1599'> -2.7958910e+02 </wgt>
<wgt id='1600'> -2.7895329e+02 </wgt>
<wgt id='1601'> -2.8004686e+02 </wgt>
<wgt id='1602'> -2.7858592e+02 </wgt>
<wgt id='1603'> -2.7977098e+02 </wgt>
<wgt id='1604'> -2.7912779e+02 </wgt>
<wgt id='1605'> -2.7826441e+02 </wgt>
<wgt id='1606'> -2.8035174e+02 </wgt>
<wgt id='1607'> -2.7993332e+02 </wgt>
<wgt id='1608'> -2.7871500e+02 </wgt>
<wgt id='1609'> -2.7631551e+02 </wgt>
<wgt id='1610'> -2.8060705e+02 </wgt>
<wgt id='1611'> -2.7927825e+02 </wgt>
<wgt id='1612'> -2.7935814e+02 </wgt>
<wgt id='1613'> -2.7841650e+02 </wgt>
<wgt id='1614'> -2.8027771e+02 </wgt>
<wgt id='1615'> -2.7720903e+02 </wgt>
<wgt id='1616'> -2.8044728e+02 </wgt>
<wgt id='1617'> -2.7903229e+02 </wgt>
<wgt id='1618'> -2.7970220e+02 </wgt>
<wgt id='1619'> -2.7930869e+02 </wgt>
<wgt id='1620'> -2.7930772e+02 </wgt>
<wgt id='1621'> -2.8063077e+02 </wgt>
<wgt id='1622'> -2.7779932e+02 </wgt>
<wgt id='1623'> -2.8003534e+02 </wgt>
<wgt id='1624'> -2.7755548e+02 </wgt>
<wgt id='1625'> -2.8026125e+02 </wgt>
<wgt id='1626'> -2.7912913e+02 </wgt>
<wgt id='1627'> -2.7910102e+02 </wgt>
<wgt id='1628'> -2.7954501e+02 </wgt>
<wgt id='1629'> -2.7888788e+02 </wgt>
<wgt id='1630'> -2.8025443e+02 </wgt>
<wgt id='1631'> -2.7931744e+02 </wgt>
<wgt id='1632'> -2.7950987e+02 </wgt>
<wgt id='1633'> -2.7905207e+02 </wgt>
<wgt id='1634'> -2.7961033e+02 </wgt>
<wgt id='1635'> -2.7936257e+02 </wgt>
<wgt id='1636'> -2.7955986e+02 </wgt>
<wgt id='1637'> -2.7863110e+02 </wgt>
<wgt id='1638'> -2.7979209e+02 </wgt>
<wgt id='1639'> -2.7906443e+02 </wgt>
<wgt id='1640'> -2.7965848e+02 </wgt>
<wgt id='1641'> -2.7951961e+02 </wgt>
<wgt id='1642'> -2.7809521e+02 </wgt>
<wgt id='1643'> -2.7693215e+02 </wgt>
<wgt id='1644'> -2.8118773e+02 </wgt>
<wgt id='1645'> -2.8034031e+02 </wgt>
<wgt id='1646'> -2.7891000e+02 </wgt>
<wgt id='1647'> -2.7865674e+02 </wgt>
<wgt id='1648'> -2.8009157e+02 </wgt>
<wgt id='1649'> -5.6608113e+02 </wgt>
<wgt id='1650'> -2.8461385e+02 </wgt>
<wgt id='1651'> -2.8449053e+02 </wgt>
<wgt id='1652'> -2.8469761e+02 </wgt>
<wgt id='1653'> -2.8462918e+02 </wgt>
<wgt id='1654'> -2.8460495e+02 </wgt>
<wgt id='1655'> -2.8390814e+02 </wgt>
<wgt id='1656'> -2.8455683e+02 </wgt>
<wgt id='1657'> -2.8442617e+02 </wgt>
<wgt id='1658'> -2.8517824e+02 </wgt>
<wgt id='1659'> -2.8577079e+02 </wgt>
<wgt id='1660'> -2.8456549e+02 </wgt>
<wgt id='1661'> -2.8452928e+02 </wgt>
<wgt id='1662'> -2.8414080e+02 </wgt>
<wgt id='1663'> -2.8427969e+02 </wgt>
<wgt id='1664'> -2.8469056e+02 </wgt>
<wgt id='1665'> -2.8434411e+02 </wgt>
<wgt id='1666'> -2.8482463e+02 </wgt>
<wgt id='1667'> -2.8447993e+02 </wgt>
<wgt id='1668'> -2.8496018e+02 </wgt>
<wgt id='1669'> -2.8473223e+02 </wgt>
<wgt id='1670'> -2.8426182e+02 </wgt>
<wgt id='1671'> -2.8449687e+02 </wgt>
<wgt id='1672'> -2.8394147e+02 </wgt>
<wgt id='1673'> -2.8452416e+02 </wgt>
<wgt id='1674'> -2.8438973e+02 </wgt>
<wgt id='1675'> -2.8487714e+02 </wgt>
<wgt id='1676'> -2.8505185e+02 </wgt>
<wgt id='1677'> -2.8443214e+02 </wgt>
<wgt id='1678'> -2.8489271e+02 </wgt>
<wgt id='1679'> -2.8350439e+02 </wgt>
<wgt id='1680'> -2.8947781e+02 </wgt>
<wgt id='1681'> -2.8796192e+02 </wgt>
<wgt id='1682'> -2.8971879e+02 </wgt>
<wgt id='1683'> -2.9024982e+02 </wgt>
<wgt id='1684'> -2.8886103e+02 </wgt>
<wgt id='1685'> -2.8999917e+02 </wgt>
<wgt id='1686'> -2.8952255e+02 </wgt>
<wgt id='1687'> -2.9012003e+02 </wgt>
<wgt id='1688'> -2.8909548e+02 </wgt>
<wgt id='1689'> -2.9008643e+02 </wgt>
<wgt id='1690'> -2.9226298e+02 </wgt>
<wgt id='1691'> -2.8950054e+02 </wgt>
<wgt id='1692'> -2.8882711e+02 </wgt>
<wgt id='1693'> -2.8925853e+02 </wgt>
<wgt id='1694'> -2.8663732e+02 </wgt>
<wgt id='1695'> -2.9085482e+02 </wgt>
<wgt id='1696'> -2.8940262e+02 </wgt>
<wgt id='1697'> -2.8819617e+02 </wgt>
<wgt id='1698'> -2.8789435e+02 </wgt>
<wgt id='1699'> -2.8769199e+02 </wgt>
<wgt id='1700'> -2.8932309e+02 </wgt>
<wgt id='1701'> -2.8821256e+02 </wgt>
<wgt id='1702'> -2.8999642e+02 </wgt>
<wgt id='1703'> -2.8848983e+02 </wgt>
<wgt id='1704'> -2.8964249e+02 </wgt>
<wgt id='1705'> -2.8928244e+02 </wgt>
<wgt id='1706'> -2.8872996e+02 </wgt>
<wgt id='1707'> -2.8942653e+02 </wgt>
<wgt id='1708'> -2.8868319e+02 </wgt>
<wgt id='1709'> -2.8920114e+02 </wgt>
<wgt id='1710'> -2.8961874e+02 </wgt>
<wgt id='1711'> -2.8936088e+02 </wgt>
<wgt id='1712'> -2.8951139e+02 </wgt>
<wgt id='1713'> -2.8871486e+02 </wgt>
<wgt id='1714'> -2.8946277e+02 </wgt>
<wgt id='1715'> -2.9021829e+02 </wgt>
<wgt id='1716'> -2.8924357e+02 </wgt>
<wgt id='1717'> -2.8954378e+02 </wgt>
<wgt id='1718'> -2.8925665e+02 </wgt>
<wgt id='1719'> -2.8953362e+02 </wgt>
<wgt id='1720'> -2.8947760e+02 </wgt>
<wgt id='1721'> -2.8963945e+02 </wgt>
<wgt id='1722'> -2.8962508e+02 </wgt>
<wgt id='1723'> -2.8924002e+02 </wgt>
<wgt id='1724'> -2.8969941e+02 </wgt>
<wgt id='1725'> -2.8970021e+02 </wgt>
<wgt id='1726'> -2.8984272e+02 </wgt>
<wgt id='1727'> -2.8920189e+02 </wgt>
<wgt id='1728'> -2.8923386e+02 </wgt>
<wgt id='1729'> -2.8950504e+02 </wgt>
<wgt id='1730'> -2.8947615e+02 </wgt>
<wgt id='1731'> -2.8927839e+02 </wgt>
<wgt id='1732'> -2.8946898e+02 </wgt>
<wgt id='1733'> -2.8929649e+02 </wgt>
<wgt id='1734'> -2.8938155e+02 </wgt>
<wgt id='1735'> -2.8949149e+02 </wgt>
<wgt id='1736'> -2.8941676e+02 </wgt>
<wgt id='1737'> -2.8944716e+02 </wgt>
<wgt id='1738'> -2.8980771e+02 </wgt>
<wgt id='1739'> -2.8933651e+02 </wgt>
<wgt id='1740'> -2.8913254e+02 </wgt>
<wgt id='1741'> -2.8947164e+02 </wgt>
<wgt id='1742'> -2.8924707e+02 </wgt>
<wgt id='1743'> -2.8950036e+02 </wgt>
<wgt id='1744'> -2.8938558e+02 </wgt>
<wgt id='1745'> -2.8949181e+02 </wgt>
<wgt id='1746'> -2.8941743e+02 </wgt>
<wgt id='1747'> -2.8942254e+02 </wgt>
<wgt id='1748'> -2.8960994e+02 </wgt>
<wgt id='1749'> -2.8957005e+02 </wgt>
<wgt id='1750'> -2.8949609e+02 </wgt>
<wgt id='1751'> -2.8930978e+02 </wgt>
<wgt id='1752'> -2.8933786e+02 </wgt>
<wgt id='1753'> -2.8935629e+02 </wgt>
<wgt id='1754'> -2.8953549e+02 </wgt>
<wgt id='1755'> -2.8943828e+02 </wgt>
<wgt id='1756'> -2.8942476e+02 </wgt>
<wgt id='1757'> -2.8946503e+02 </wgt>
<wgt id='1758'> -2.8948302e+02 </wgt>
<wgt id='1759'> -2.8965107e+02 </wgt>
<wgt id='1760'> -2.8947689e+02 </wgt>
<wgt id='1761'> -2.8956567e+02 </wgt>
<wgt id='1762'> -2.8925900e+02 </wgt>
<wgt id='1763'> -2.8960837e+02 </wgt>
<wgt id='1764'> -2.8955502e+02 </wgt>
<wgt id='1765'> -2.8956388e+02 </wgt>
<wgt id='1766'> -2.8962353e+02 </wgt>
<wgt id='1767'> -2.8943344e+02 </wgt>
<wgt id='1768'> -2.8940166e+02 </wgt>
<wgt id='1769'> -2.8947837e+02 </wgt>
<wgt id='1770'> -2.8946082e+02 </wgt>
<wgt id='1771'> -2.8944557e+02 </wgt>
<wgt id='1772'> -2.8947167e+02 </wgt>
<wgt id='1773'> -2.8936288e+02 </wgt>
<wgt id='1774'> -2.8952202e+02 </wgt>
<wgt id='1775'> -2.8951857e+02 </wgt>
<wgt id='1776'> -2.8941565e+02 </wgt>
<wgt id='1777'> -2.8950593e+02 </wgt>
<wgt id='1778'> -2.8954620e+02 </wgt>
<wgt id='1779'> -2.8950961e+02 </wgt>
<wgt id='1780'> -2.8947423e+02 </wgt>
<wgt id='1781'> -2.7649018e+02 </wgt>
<wgt id='1782'> -3.0264808e+02 </wgt>
<wgt id='1783'> -2.8198169e+02 </wgt>
<wgt id='1784'> -2.8214483e+02 </wgt>
<wgt id='1785'> -2.8233018e+02 </wgt>
<wgt id='1786'> -2.8126257e+02 </wgt>
<wgt id='1787'> -2.8218502e+02 </wgt>
<wgt id='1788'> -2.8196386e+02 </wgt>
<wgt id='1789'> -2.8287387e+02 </wgt>
<wgt id='1790'> -2.8362111e+02 </wgt>
<wgt id='1791'> -2.8279462e+02 </wgt>
<wgt id='1792'> -2.8171192e+02 </wgt>
<wgt id='1793'> -2.8122865e+02 </wgt>
<wgt id='1794'> -2.8372020e+02 </wgt>
<wgt id='1795'> -2.8105256e+02 </wgt>
<wgt id='1796'> -2.8044960e+02 </wgt>
<wgt id='1797'> -2.8170018e+02 </wgt>
<wgt id='1798'> -2.8172509e+02 </wgt>
<wgt id='1799'> -2.8413093e+02 </wgt>
<wgt id='1800'> -2.8032938e+02 </wgt>
<wgt id='1801'> -2.8178445e+02 </wgt>
<wgt id='1802'> -2.8208727e+02 </wgt>
<wgt id='1803'> -2.8416244e+02 </wgt>
<wgt id='1804'> -2.8215796e+02 </wgt>
<wgt id='1805'> -2.8254795e+02 </wgt>
<wgt id='1806'> -2.8061936e+02 </wgt>
<wgt id='1807'> -2.8119169e+02 </wgt>
<wgt id='1808'> -2.8257582e+02 </wgt>
<wgt id='1809'> -2.8201466e+02 </wgt>
<wgt id='1810'> -2.8174651e+02 </wgt>
<wgt id='1811'> -2.8230940e+02 </wgt>
<wgt id='1812'> -2.8228020e+02 </wgt>
<wgt id='1813'> -2.8232841e+02 </wgt>
<wgt id='1814'> -2.8174807e+02 </wgt>
<wgt id='1815'> -2.8219897e+02 </wgt>
<wgt id='1816'> -2.8235974e+02 </wgt>
<wgt id='1817'> -2.8198094e+02 </wgt>
<wgt id='1818'> -2.8245284e+02 </wgt>
<wgt id='1819'> -2.8206240e+02 </wgt>
<wgt id='1820'> -2.8224585e+02 </wgt>
<wgt id='1821'> -2.8210615e+02 </wgt>
<wgt id='1822'> -2.8206217e+02 </wgt>
<wgt id='1823'> -2.8167266e+02 </wgt>
<wgt id='1824'> -2.8191587e+02 </wgt>
<wgt id='1825'> -2.8200435e+02 </wgt>
<wgt id='1826'> -2.8165562e+02 </wgt>
<wgt id='1827'> -2.8204561e+02 </wgt>
<wgt id='1828'> -2.8200214e+02 </wgt>
<wgt id='1829'> -2.8159695e+02 </wgt>
<wgt id='1830'> -2.8196624e+02 </wgt>
<wgt id='1831'> -2.8207585e+02 </wgt>
<wgt id='1832'> -2.8183252e+02 </wgt>
<wgt id='1833'> -2.8199225e+02 </wgt>
<wgt id='1834'> -2.8215498e+02 </wgt>
<wgt id='1835'> -2.8212564e+02 </wgt>
<wgt id='1836'> -2.8200503e+02 </wgt>
<wgt id='1837'> -2.8184352e+02 </wgt>
<wgt id='1838'> -2.8184921e+02 </wgt>
<wgt id='1839'> -2.8221850e+02 </wgt>
<wgt id='1840'> -2.8197583e+02 </wgt>
<wgt id='1841'> -2.8172281e+02 </wgt>
<wgt id='1842'> -2.8183583e+02 </wgt>
<wgt id='1843'> -2.8186468e+02 </wgt>
<wgt id='1844'> -2.8200056e+02 </wgt>
<wgt id='1845'> -2.8202930e+02 </wgt>
<wgt id='1846'> -2.8210085e+02 </wgt>
<wgt id='1847'> -2.8192692e+02 </wgt>
<wgt id='1848'> -2.8196766e+02 </wgt>
<wgt id='1849'> -2.8199916e+02 </wgt>
<wgt id='1850'> -2.8208944e+02 </wgt>
<wgt id='1851'> -2.8202827e+02 </wgt>
<wgt id='1852'> -2.8218184e+02 </wgt>
<wgt id='1853'> -2.8193661e+02 </wgt>
<wgt id='1854'> -2.8215365e+02 </wgt>
<wgt id='1855'> -2.8218142e+02 </wgt>
<wgt id='1856'> -2.8191660e+02 </wgt>
<wgt id='1857'> -2.8201623e+02 </wgt>
<wgt id='1858'> -2.8194985e+02 </wgt>
<wgt id='1859'> -2.8194327e+02 </wgt>
<wgt id='1860'> -2.8204267e+02 </wgt>
<wgt id='1861'> -2.8199628e+02 </wgt>
<wgt id='1862'> -2.8195075e+02 </wgt>
<wgt id='1863'> -2.8220903e+02 </wgt>
<wgt id='1864'> -2.8194888e+02 </wgt>
<wgt id='1865'> -2.8204963e+02 </wgt>
<wgt id='1866'> -2.8189190e+02 </wgt>
<wgt id='1867'> -2.8189975e+02 </wgt>
<wgt id='1868'> -2.8188859e+02 </wgt>
<wgt id='1869'> -2.8200695e+02 </wgt>
<wgt id='1870'> -2.8179074e+02 </wgt>
<wgt id='1871'> -2.8191446e+02 </wgt>
<wgt id='1872'> -2.8191893e+02 </wgt>
<wgt id='1873'> -2.8203438e+02 </wgt>
<wgt id='1874'> -2.8195684e+02 </wgt>
<wgt id='1875'> -2.8198037e+02 </wgt>
<wgt id='1876'> -2.8192142e+02 </wgt>
<wgt id='1877'> -2.8196413e+02 </wgt>
<wgt id='1878'> -2.8201165e+02 </wgt>
<wgt id='1879'> -2.8191634e+02 </wgt>
<wgt id='1880'> -2.8199926e+02 </wgt>
<wgt id='1881'> -2.8198221e+02 </wgt>
<wgt id='1882'> -2.8191200e+02 </wgt>
<wgt id='1883'> -2.8197508e+02 </wgt>
<wgt id='1884'> -2.7012935e+02 </wgt>
<wgt id='1885'> -2.9453842e+02 </wgt>
<wgt id='1886'> -2.8948596e+02 </wgt>
<wgt id='1887'> -2.9035754e+02 </wgt>
<wgt id='1888'> -2.8760520e+02 </wgt>
<wgt id='1889'> -2.8936743e+02 </wgt>
<wgt id='1890'> -2.8763915e+02 </wgt>
<wgt id='1891'> -2.9190440e+02 </wgt>
<wgt id='1892'> -2.8853301e+02 </wgt>
<wgt id='1893'> -2.8936115e+02 </wgt>
<wgt id='1894'> -2.9023103e+02 </wgt>
<wgt id='1895'> -2.8868900e+02 </wgt>
<wgt id='1896'> -2.9004137e+02 </wgt>
<wgt id='1897'> -2.8883588e+02 </wgt>
<wgt id='1898'> -2.8877926e+02 </wgt>
<wgt id='1899'> -2.8955297e+02 </wgt>
<wgt id='1900'> -2.8930427e+02 </wgt>
<wgt id='1901'> -2.8986852e+02 </wgt>
<wgt id='1902'> -2.8889100e+02 </wgt>
<wgt id='1903'> -2.8770009e+02 </wgt>
<wgt id='1904'> -2.9007724e+02 </wgt>
<wgt id='1905'> -2.8887151e+02 </wgt>
<wgt id='1906'> -2.8878599e+02 </wgt>
<wgt id='1907'> -2.8922288e+02 </wgt>
<wgt id='1908'> -2.8893725e+02 </wgt>
<wgt id='1909'> -2.8964647e+02 </wgt>
<wgt id='1910'> -2.8916601e+02 </wgt>
<wgt id='1911'> -2.8923434e+02 </wgt>
<wgt id='1912'> -2.9057980e+02 </wgt>
<wgt id='1913'> -2.9019808e+02 </wgt>
<wgt id='1914'> -2.9298355e+02 </wgt>
<wgt id='1915'> -2.8982290e+02 </wgt>
<wgt id='1916'> -2.8935870e+02 </wgt>
<wgt id='1917'> -2.7649018e+02 </wgt>
<wgt id='1918'> -3.0264808e+02 </wgt>
<wgt id='1919'> -2.8196274e+02 </wgt>
<wgt id='1920'> -2.7858413e+02 </wgt>
<wgt id='1921'> -2.8221074e+02 </wgt>
<wgt id='1922'> -2.8167019e+02 </wgt>
<wgt id='1923'> -2.8207902e+02 </wgt>
<wgt id='1924'> -2.8033505e+02 </wgt>
<wgt id='1925'> -2.8204098e+02 </wgt>
<wgt id='1926'> -2.8154326e+02 </wgt>
<wgt id='1927'> -2.8130229e+02 </wgt>
<wgt id='1928'> -2.8137252e+02 </wgt>
<wgt id='1929'> -2.8477214e+02 </wgt>
<wgt id='1930'> -2.8141983e+02 </wgt>
<wgt id='1931'> -2.8198122e+02 </wgt>
<wgt id='1932'> -2.8245402e+02 </wgt>
<wgt id='1933'> -2.8167170e+02 </wgt>
<wgt id='1934'> -2.8178580e+02 </wgt>
<wgt id='1935'> -2.8188268e+02 </wgt>
<wgt id='1936'> -2.8289231e+02 </wgt>
<wgt id='1937'> -2.8189666e+02 </wgt>
<wgt id='1938'> -2.8191155e+02 </wgt>
<wgt id='1939'> -2.8233387e+02 </wgt>
<wgt id='1940'> -2.8226699e+02 </wgt>
<wgt id='1941'> -2.8396419e+02 </wgt>
<wgt id='1942'> -2.8199458e+02 </wgt>
<wgt id='1943'> -2.8217267e+02 </wgt>
<wgt id='1944'> -2.8169842e+02 </wgt>
<wgt id='1945'> -2.8201254e+02 </wgt>
<wgt id='1946'> -2.8199814e+02 </wgt>
<wgt id='1947'> -2.8217883e+02 </wgt>
<wgt id='1948'> -2.8209586e+02 </wgt>
<wgt id='1949'> -2.8193176e+02 </wgt>
<wgt id='1950'> -2.7012935e+02 </wgt>
<wgt id='1951'> -2.9453842e+02 </wgt>
<wgt id='1952'> -2.9260135e+02 </wgt>
<wgt id='1953'> -2.9221347e+02 </wgt>
<wgt id='1954'> -2.9298772e+02 </wgt>
<wgt id='1955'> -2.9334619e+02 </wgt>
<wgt id='1956'> -2.9185730e+02 </wgt>
<wgt id='1957'> -2.9295831e+02 </wgt>
<wgt id='1958'> -2.9224468e+02 </wgt>
<wgt id='1959'> -2.9333373e+02 </wgt>
<wgt id='1960'> -2.9188719e+02 </wgt>
<wgt id='1961'> -2.9278938e+02 </wgt>
<wgt id='1962'> -2.9242434e+02 </wgt>
<wgt id='1963'> -2.9117537e+02 </wgt>
<wgt id='1964'> -2.9401921e+02 </wgt>
<wgt id='1965'> -2.9172408e+02 </wgt>
<wgt id='1966'> -2.9348222e+02 </wgt>
<wgt id='1967'> -2.9326059e+02 </wgt>
<wgt id='1968'> -2.9201685e+02 </wgt>
<wgt id='1969'> -2.9365186e+02 </wgt>
<wgt id='1970'> -2.9144620e+02 </wgt>
<wgt id='1971'> -2.9271632e+02 </wgt>
<wgt id='1972'> -2.9249300e+02 </wgt>
<wgt id='1973'> -2.9337842e+02 </wgt>
<wgt id='1974'> -2.9154071e+02 </wgt>
<wgt id='1975'> -2.9027822e+02 </wgt>
<wgt id='1976'> -2.9367792e+02 </wgt>
<wgt id='1977'> -2.9188821e+02 </wgt>
<wgt id='1978'> -2.9369483e+02 </wgt>
<wgt id='1979'> -2.9478021e+02 </wgt>
<wgt id='1980'> -2.9075672e+02 </wgt>
<wgt id='1981'> -2.9260135e+02 </wgt>
<wgt id='1982'> -2.9291059e+02 </wgt>
<wgt id='1983'> -2.9191839e+02 </wgt>
<wgt id='1984'> -2.9285046e+02 </wgt>
<wgt id='1985'> -2.9215975e+02 </wgt>
<wgt id='1986'> -2.9323869e+02 </wgt>
<wgt id='1987'> -2.9344350e+02 </wgt>
<wgt id='1988'> -2.9199779e+02 </wgt>
<wgt id='1989'> -2.9329858e+02 </wgt>
<wgt id='1990'> -2.9277378e+02 </wgt>
<wgt id='1991'> -2.9258227e+02 </wgt>
<wgt id='1992'> -2.9153197e+02 </wgt>
<wgt id='1993'> -2.9327880e+02 </wgt>
<wgt id='1994'> -2.9173904e+02 </wgt>
<wgt id='1995'> -2.8876638e+02 </wgt>
<wgt id='1996'> -2.8853194e+02 </wgt>
<wgt id='1997'> -2.8895293e+02 </wgt>
<wgt id='1998'> -2.8923219e+02 </wgt>
<wgt id='1999'> -2.8825300e+02 </wgt>
<wgt id='2000'> -2.8937734e+02 </wgt>
<wgt id='2001'> -2.8810943e+02 </wgt>
<wgt id='2002'> -2.8991870e+02 </wgt>
<wgt id='2003'> -2.8758809e+02 </wgt>
<wgt id='2004'> -2.8823741e+02 </wgt>
<wgt id='2005'> -2.8925530e+02 </wgt>
<wgt id='2006'> -2.8962296e+02 </wgt>
<wgt id='2007'> -2.8786954e+02 </wgt>
<wgt id='2008'> -2.8808412e+02 </wgt>
<wgt id='2009'> -2.8940935e+02 </wgt>
<wgt id='2010'> -2.8886330e+02 </wgt>
<wgt id='2011'> -2.8875781e+02 </wgt>
<wgt id='2012'> -2.8852944e+02 </wgt>
<wgt id='2013'> -2.8891339e+02 </wgt>
<wgt id='2014'> -2.8859882e+02 </wgt>
<wgt id='2015'> -2.8887810e+02 </wgt>
<wgt id='2016'> -2.8816767e+02 </wgt>
<wgt id='2017'> -2.8894944e+02 </wgt>
<wgt id='2018'> -2.8752502e+02 </wgt>
<wgt id='2019'> -2.8992445e+02 </wgt>
<wgt id='2020'> -2.8618929e+02 </wgt>
<wgt id='2021'> -2.9061865e+02 </wgt>
<wgt id='2022'> -2.8794975e+02 </wgt>
<wgt id='2023'> -2.8987289e+02 </wgt>
<wgt id='2024'> -2.8854958e+02 </wgt>
<wgt id='2025'> -2.8881536e+02 </wgt>
<wgt id='2026'> -2.8711562e+02 </wgt>
<wgt id='2027'> -2.8865709e+02 </wgt>
<wgt id='2028'> -2.8835600e+02 </wgt>
<wgt id='2029'> -2.8490799e+02 </wgt>
<wgt id='2030'> -2.8925346e+02 </wgt>
<wgt id='2031'> -2.8783048e+02 </wgt>
<wgt id='2032'> -2.8985501e+02 </wgt>
<wgt id='2033'> -2.8809446e+02 </wgt>
<wgt id='2034'> -2.8457563e+02 </wgt>
<wgt id='2035'> -2.8781781e+02 </wgt>
<wgt id='2036'> -2.9065660e+02 </wgt>
<wgt id='2037'> -2.8919822e+02 </wgt>
<wgt id='2038'> -2.8526026e+02 </wgt>
<wgt id='2039'> -2.8521955e+02 </wgt>
<wgt id='2040'> -2.8517879e+02 </wgt>
<wgt id='2041'> -2.8513682e+02 </wgt>
<wgt id='2042'> -2.8509610e+02 </wgt>
<wgt id='2043'> -2.8505409e+02 </wgt>
<wgt id='2044'> -2.8501268e+02 </wgt>
<wgt id='2045'> -2.8497130e+02 </wgt>
<wgt id='2046'> -2.8492988e+02 </wgt>
<wgt id='2047'> -2.8488877e+02 </wgt>
<wgt id='2048'> -2.8484735e+02 </wgt>
<wgt id='2049'> -2.8480747e+02 </wgt>
<wgt id='2050'> -2.8476542e+02 </wgt>
<wgt id='2051'> -2.8472365e+02 </wgt>
<wgt id='2052'> -2.8468326e+02 </wgt>
<wgt id='2053'> -2.8464171e+02 </wgt>
<wgt id='2054'> -2.8460065e+02 </wgt>
<wgt id='2055'> -2.8455914e+02 </wgt>
<wgt id='2056'> -2.8451789e+02 </wgt>
<wgt id='2057'> -2.8447653e+02 </wgt>
<wgt id='2058'> -2.8443511e+02 </wgt>
<wgt id='2059'> -2.8439453e+02 </wgt>
<wgt id='2060'> -2.8435262e+02 </wgt>
<wgt id='2061'> -2.8431193e+02 </wgt>
<wgt id='2062'> -2.8427120e+02 </wgt>
<wgt id='2063'> -2.8423004e+02 </wgt>
<wgt id='2064'> -2.8418871e+02 </wgt>
<wgt id='2065'> -2.8414580e+02 </wgt>
<wgt id='2066'> -2.8410601e+02 </wgt>
<wgt id='2067'> -2.8406459e+02 </wgt>
<wgt id='2068'> -2.8402343e+02 </wgt>
<wgt id='2069'> -2.7809325e+02 </wgt>
<wgt id='2070'> -2.7817652e+02 </wgt>
<wgt id='2071'> -2.7839485e+02 </wgt>
<wgt id='2072'> -2.7741564e+02 </wgt>
<wgt id='2073'> -2.7828561e+02 </wgt>
<wgt id='2074'> -2.7808330e+02 </wgt>
<wgt id='2075'> -2.7905302e+02 </wgt>
<wgt id='2076'> -2.7976775e+02 </wgt>
<wgt id='2077'> -2.7889828e+02 </wgt>
<wgt id='2078'> -2.7784317e+02 </wgt>
<wgt id='2079'> -2.7735506e+02 </wgt>
<wgt id='2080'> -2.7988843e+02 </wgt>
<wgt id='2081'> -2.7720981e+02 </wgt>
<wgt id='2082'> -2.7664787e+02 </wgt>
<wgt id='2083'> -2.7778445e+02 </wgt>
<wgt id='2084'> -2.7768429e+02 </wgt>
<wgt id='2085'> -2.8029368e+02 </wgt>
<wgt id='2086'> -2.7643010e+02 </wgt>
<wgt id='2087'> -2.7788770e+02 </wgt>
<wgt id='2088'> -2.7826208e+02 </wgt>
<wgt id='2089'> -2.8033172e+02 </wgt>
<wgt id='2090'> -2.7820574e+02 </wgt>
<wgt id='2091'> -2.7864840e+02 </wgt>
<wgt id='2092'> -2.7676015e+02 </wgt>
<wgt id='2093'> -2.7726283e+02 </wgt>
<wgt id='2094'> -2.7863321e+02 </wgt>
<wgt id='2095'> -2.7805805e+02 </wgt>
<wgt id='2096'> -2.7792634e+02 </wgt>
<wgt id='2097'> -2.7845612e+02 </wgt>
<wgt id='2098'> -2.7835338e+02 </wgt>
<wgt id='2099'> -2.7839427e+02 </wgt>
<wgt id='2100'> -2.7794639e+02 </wgt>
<wgt id='2101'> -2.7828863e+02 </wgt>
<wgt id='2102'> -2.7845164e+02 </wgt>
<wgt id='2103'> -2.7808254e+02 </wgt>
<wgt id='2104'> -2.7854472e+02 </wgt>
<wgt id='2105'> -2.7817650e+02 </wgt>
<wgt id='2106'> -2.7836446e+02 </wgt>
<wgt id='2107'> -2.7820931e+02 </wgt>
<wgt id='2108'> -2.7815003e+02 </wgt>
<wgt id='2109'> -2.7778478e+02 </wgt>
<wgt id='2110'> -2.7800521e+02 </wgt>
<wgt id='2111'> -2.7810463e+02 </wgt>
<wgt id='2112'> -2.7781852e+02 </wgt>
<wgt id='2113'> -2.7815113e+02 </wgt>
<wgt id='2114'> -2.7810417e+02 </wgt>
<wgt id='2115'> -2.7773309e+02 </wgt>
<wgt id='2116'> -2.7805853e+02 </wgt>
<wgt id='2117'> -2.7820029e+02 </wgt>
<wgt id='2118'> -2.7793323e+02 </wgt>
<wgt id='2119'> -2.7811314e+02 </wgt>
<wgt id='2120'> -2.7825949e+02 </wgt>
<wgt id='2121'> -2.7823197e+02 </wgt>
<wgt id='2122'> -2.7812417e+02 </wgt>
<wgt id='2123'> -2.7796488e+02 </wgt>
<wgt id='2124'> -2.7796966e+02 </wgt>
<wgt id='2125'> -2.7830059e+02 </wgt>
<wgt id='2126'> -2.7808478e+02 </wgt>
<wgt id='2127'> -2.7786671e+02 </wgt>
<wgt id='2128'> -2.7796222e+02 </wgt>
<wgt id='2129'> -2.7798885e+02 </wgt>
<wgt id='2130'> -2.7811641e+02 </wgt>
<wgt id='2131'> -2.7813213e+02 </wgt>
<wgt id='2132'> -2.7820393e+02 </wgt>
<wgt id='2133'> -2.7804831e+02 </wgt>
<wgt id='2134'> -2.7807580e+02 </wgt>
<wgt id='2135'> -2.7810804e+02 </wgt>
<wgt id='2136'> -2.7818778e+02 </wgt>
<wgt id='2137'> -2.7814230e+02 </wgt>
<wgt id='2138'> -2.7827778e+02 </wgt>
<wgt id='2139'> -2.7804444e+02 </wgt>
<wgt id='2140'> -2.7827220e+02 </wgt>
<wgt id='2141'> -2.7828373e+02 </wgt>
<wgt id='2142'> -2.7801909e+02 </wgt>
<wgt id='2143'> -2.7812683e+02 </wgt>
<wgt id='2144'> -2.7806128e+02 </wgt>
<wgt id='2145'> -2.7807478e+02 </wgt>
<wgt id='2146'> -2.7815564e+02 </wgt>
<wgt id='2147'> -2.7812232e+02 </wgt>
<wgt id='2148'> -2.7806141e+02 </wgt>
<wgt id='2149'> -2.7830226e+02 </wgt>
<wgt id='2150'> -2.7807381e+02 </wgt>
<wgt id='2151'> -2.7816535e+02 </wgt>
<wgt id='2152'> -2.7800282e+02 </wgt>
<wgt id='2153'> -2.7800671e+02 </wgt>
<wgt id='2154'> -2.7800886e+02 </wgt>
<wgt id='2155'> -2.7813553e+02 </wgt>
<wgt id='2156'> -2.7789755e+02 </wgt>
<wgt id='2157'> -2.7801980e+02 </wgt>
<wgt id='2158'> -2.7802332e+02 </wgt>
<wgt id='2159'> -2.7814092e+02 </wgt>
<wgt id='2160'> -2.7805968e+02 </wgt>
<wgt id='2161'> -2.7808472e+02 </wgt>
<wgt id='2162'> -2.7803596e+02 </wgt>
<wgt id='2163'> -2.7806446e+02 </wgt>
<wgt id='2164'> -2.7812426e+02 </wgt>
<wgt id='2165'> -2.7803348e+02 </wgt>
<wgt id='2166'> -2.7811170e+02 </wgt>
<wgt id='2167'> -2.7809231e+02 </wgt>
<wgt id='2168'> -2.7802891e+02 </wgt>
<wgt id='2169'> -2.7808950e+02 </wgt>
<wgt id='2170'> -2.7808976e+02 </wgt>
<wgt id='2171'> -2.7807036e+02 </wgt>
<wgt id='2172'> -2.7809688e+02 </wgt>
<wgt id='2173'> -2.7809747e+02 </wgt>
<wgt id='2174'> -2.7810385e+02 </wgt>
<wgt id='2175'> -2.7809479e+02 </wgt>
<wgt id='2176'> -2.7807799e+02 </wgt>
<wgt id='2177'> -2.9183192e+02 </wgt>
<wgt id='2178'> -2.7897431e+02 </wgt>
<wgt id='2179'> -2.9168538e+02 </wgt>
<wgt id='2180'> -2.9806427e+02 </wgt>
<wgt id='2181'> -2.8485866e+02 </wgt>
<wgt id='2182'> -2.7817617e+02 </wgt>
<wgt id='2183'> -2.9771168e+02 </wgt>
<wgt id='2184'> -2.9193668e+02 </wgt>
<wgt id='2185'> -2.9147555e+02 </wgt>
<wgt id='2186'> -2.9670908e+02 </wgt>
<wgt id='2187'> -2.8973409e+02 </wgt>
<wgt id='2188'> -2.8578436e+02 </wgt>
<wgt id='2189'> -2.9563530e+02 </wgt>
<wgt id='2190'> -2.9244043e+02 </wgt>
<wgt id='2191'> -2.9366821e+02 </wgt>
<wgt id='2192'> -2.9885008e+02 </wgt>
<wgt id='2193'> -2.9384653e+02 </wgt>
<wgt id='2194'> -2.9272873e+02 </wgt>
<wgt id='2195'> -2.9090216e+02 </wgt>
<wgt id='2196'> -2.9394349e+02 </wgt>
<wgt id='2197'> -3.0040621e+02 </wgt>
<wgt id='2198'> -2.9584852e+02 </wgt>
<wgt id='2199'> -2.9109176e+02 </wgt>
<wgt id='2200'> -3.0887834e+02 </wgt>
<wgt id='2201'> -2.9363937e+02 </wgt>
<wgt id='2202'> -2.9041001e+02 </wgt>
<wgt id='2203'> -2.9054685e+02 </wgt>
<wgt id='2204'> -2.8880079e+02 </wgt>
<wgt id='2205'> -2.9022504e+02 </wgt>
<wgt id='2206'> -2.9651810e+02 </wgt>
<wgt id='2207'> -3.0035100e+02 </wgt>
<wgt id='2208'> -2.9130348e+02 </wgt>
<wgt id='2209'> -2.8653114e+02 </wgt>
<wgt id='2210'> -2.8631953e+02 </wgt>
<wgt id='2211'> -2.9409997e+02 </wgt>
<wgt id='2212'> -2.9791691e+02 </wgt>
<wgt id='2213'> -2.8797557e+02 </wgt>
<wgt id='2214'> -2.9736653e+02 </wgt>
<wgt id='2215'> -2.8822203e+02 </wgt>
<wgt id='2216'> -2.8644418e+02 </wgt>
<wgt id='2217'> -2.9001978e+02 </wgt>
<wgt id='2218'> -2.9117726e+02 </wgt>
<wgt id='2219'> -2.9050196e+02 </wgt>
<wgt id='2220'> -2.9116213e+02 </wgt>
<wgt id='2221'> -2.9393197e+02 </wgt>
<wgt id='2222'> -2.9336567e+02 </wgt>
<wgt id='2223'> -2.9566381e+02 </wgt>
<wgt id='2224'> -2.8791913e+02 </wgt>
<wgt id='2225'> -2.8982418e+02 </wgt>
<wgt id='2226'> -2.8875614e+02 </wgt>
<wgt id='2227'> -2.8906955e+02 </wgt>
<wgt id='2228'> -2.9066263e+02 </wgt>
<wgt id='2229'> -2.8909549e+02 </wgt>
<wgt id='2230'> -2.9664350e+02 </wgt>
<wgt id='2231'> -2.9025002e+02 </wgt>
<wgt id='2232'> -2.8664887e+02 </wgt>
<wgt id='2233'> -2.9083354e+02 </wgt>
<wgt id='2234'> -2.9086837e+02 </wgt>
<wgt id='2235'> -2.8888537e+02 </wgt>
<wgt id='2236'> -3.0037879e+02 </wgt>
<wgt id='2237'> -2.8948545e+02 </wgt>
<wgt id='2238'> -2.8901627e+02 </wgt>
<wgt id='2239'> -2.9598301e+02 </wgt>
<wgt id='2240'> -2.8841303e+02 </wgt>
<wgt id='2241'> -2.8934553e+02 </wgt>
<wgt id='2242'> -2.8975694e+02 </wgt>
<wgt id='2243'> -2.9394659e+02 </wgt>
<wgt id='2244'> -3.1003115e+02 </wgt>
<wgt id='2245'> -2.9021348e+02 </wgt>
<wgt id='2246'> -2.8275925e+02 </wgt>
<wgt id='2247'> -2.8672229e+02 </wgt>
<wgt id='2248'> -2.8830243e+02 </wgt>
<wgt id='2249'> -2.9547583e+02 </wgt>
<wgt id='2250'> -2.7826766e+02 </wgt>
<wgt id='2251'> -2.9800457e+02 </wgt>
<wgt id='2252'> -2.8842106e+02 </wgt>
<wgt id='2253'> -2.9033588e+02 </wgt>
<wgt id='2254'> -2.9383042e+02 </wgt>
<wgt id='2255'> -2.9616930e+02 </wgt>
<wgt id='2256'> -2.8744942e+02 </wgt>
<wgt id='2257'> -2.9031278e+02 </wgt>
<wgt id='2258'> -2.9410883e+02 </wgt>
<wgt id='2259'> -2.8536022e+02 </wgt>
<wgt id='2260'> -2.9907022e+02 </wgt>
<wgt id='2261'> -2.8926314e+02 </wgt>
<wgt id='2262'> -2.8964414e+02 </wgt>
<wgt id='2263'> -2.9004406e+02 </wgt>
<wgt id='2264'> -2.9517834e+02 </wgt>
<wgt id='2265'> -2.8980588e+02 </wgt>
<wgt id='2266'> -2.9987143e+02 </wgt>
<wgt id='2267'> -2.9045173e+02 </wgt>
<wgt id='2268'> -2.8740249e+02 </wgt>
<wgt id='2269'> -2.8814831e+02 </wgt>
<wgt id='2270'> -2.9133383e+02 </wgt>
<wgt id='2271'> -3.0001494e+02 </wgt>
<wgt id='2272'> -2.9040477e+02 </wgt>
<wgt id='2273'> -2.9308393e+02 </wgt>
<wgt id='2274'> -2.8950818e+02 </wgt>
<wgt id='2275'> -2.9279395e+02 </wgt>
<wgt id='2276'> -2.9204806e+02 </wgt>
<wgt id='2277'> -2.9728089e+02 </wgt>
<wgt id='2278'> -2.8235367e+02 </wgt>
<wgt id='2279'> -2.9940911e+02 </wgt>
<wgt id='2280'> -2.8559017e+02 </wgt>
<wgt id='2281'> -3.3000011e+02 </wgt>
<wgt id='2282'> -4.8654252e+02 </wgt>
<wgt id='2283'> -3.5222758e+02 </wgt>
<wgt id='2284'> -4.8715643e+02 </wgt>
</rwgt>
</event>
<event npLO=" -1 " npNLO=" 0 ">
 3      0 +2.8781417e+02 2.70126040e+01 7.54677110e-03 1.16342550e-01
       21 -1    0    0  502  501 +0.0000000000e+00 +0.0000000000e+00 +3.5321568000e+01 3.5321568000e+01 0.0000000000e+00 0.0000e+00 9.0000e+00
       21 -1    0    0  501  502 +0.0000000000e+00 +0.0000000000e+00 -7.0778285000e+01 7.0778285000e+01 0.0000000000e+00 0.0000e+00 9.0000e+00
       25  1    1    2    0    0 +0.0000000000e+00 +0.0000000000e+00 -3.5456718000e+01 1.0609985000e+02 1.0000000000e+02 0.0000e+00 9.0000e+00
#aMCatNLO 1  0  0  2  1 0.13746994E+02 0.00000000E+00 -9  4  0 0.00000000E+00 0.00000000E+00 0.00000000E+00 0.00000000E+00 0.00000000E+00
<rwgt>
<wgt id='1001'> +2.8781417e+02 </wgt>
<wgt id='1002'> +2.4562138e+02 </wgt>
<wgt id='1003'> +3.4135583e+02 </wgt>
<wgt id='1004'> +3.0928812e+02 </wgt>
<wgt id='1005'> +2.6381119e+02 </wgt>
<wgt id='1006'> +3.6707852e+02 </wgt>
<wgt id='1007'> +2.6091588e+02 </wgt>
<wgt id='1008'> +2.2275848e+02 </wgt>
<wgt id='1009'> +3.0928165e+02 </wgt>
<wgt id='1010'> +2.8781417e+02 </wgt>
<wgt id='1011'> +2.8813047e+02 </wgt>
<wgt id='1012'> +2.8745822e+02 </wgt>
<wgt id='1013'> +2.8873157e+02 </wgt>
<wgt id='1014'> +2.8857434e+02 </wgt>
<wgt id='1015'> +2.8855806e+02 </wgt>
<wgt id='1016'> +2.8865685e+02 </wgt>
<wgt id='1017'> +2.9004285e+02 </wgt>
<wgt id='1018'> +2.8992779e+02 </wgt>
<wgt id='1019'> +2.8763608e+02 </wgt>
<wgt id='1020'> +2.8799280e+02 </wgt>
<wgt id='1021'> +2.8600691e+02 </wgt>
<wgt id='1022'> +2.8858111e+02 </wgt>
<wgt id='1023'> +2.8689534e+02 </wgt>
<wgt id='1024'> +2.8711376e+02 </wgt>
<wgt id='1025'> +2.8757240e+02 </wgt>
<wgt id='1026'> +2.8646578e+02 </wgt>
<wgt id='1027'> +2.8653750e+02 </wgt>
<wgt id='1028'> +2.8937637e+02 </wgt>
<wgt id='1029'> +2.8850882e+02 </wgt>
<wgt id='1030'> +2.8759979e+02 </wgt>
<wgt id='1031'> +2.8874157e+02 </wgt>
<wgt id='1032'> +2.8756040e+02 </wgt>
<wgt id='1033'> +2.8759023e+02 </wgt>
<wgt id='1034'> +2.8792194e+02 </wgt>
<wgt id='1035'> +2.8775376e+02 </wgt>
<wgt id='1036'> +2.8769117e+02 </wgt>
<wgt id='1037'> +2.8743151e+02 </wgt>
<wgt id='1038'> +2.8797166e+02 </wgt>
<wgt id='1039'> +2.8738075e+02 </wgt>
<wgt id='1040'> +2.8759670e+02 </wgt>
<wgt id='1041'> +2.8738060e+02 </wgt>
<wgt id='1042'> +2.8787355e+02 </wgt>
<wgt id='1043'> +2.8750682e+02 </wgt>
<wgt id='1044'> +2.8767884e+02 </wgt>
<wgt id='1045'> +2.8780505e+02 </wgt>
<wgt id='1046'> +2.8816038e+02 </wgt>
<wgt id='1047'> +2.8784049e+02 </wgt>
<wgt id='1048'> +2.8790732e+02 </wgt>
<wgt id='1049'> +2.8781710e+02 </wgt>
<wgt id='1050'> +2.8773667e+02 </wgt>
<wgt id='1051'> +2.8794713e+02 </wgt>
<wgt id='1052'> +2.8786831e+02 </wgt>
<wgt id='1053'> +2.8767206e+02 </wgt>
<wgt id='1054'> +2.8781308e+02 </wgt>
<wgt id='1055'> +2.8791166e+02 </wgt>
<wgt id='1056'> +2.8788629e+02 </wgt>
<wgt id='1057'> +2.8777322e+02 </wgt>
<wgt id='1058'> +2.8775162e+02 </wgt>
<wgt id='1059'> +2.8771932e+02 </wgt>
<wgt id='1060'> +2.8777701e+02 </wgt>
<wgt id='1061'> +2.8778229e+02 </wgt>
<wgt id='1062'> +2.8791169e+02 </wgt>
<wgt id='1063'> +2.8774911e+02 </wgt>
<wgt id='1064'> +2.8779806e+02 </wgt>
<wgt id='1065'> +2.8789260e+02 </wgt>
<wgt id='1066'> +2.8780172e+02 </wgt>
<wgt id='1067'> +2.8789940e+02 </wgt>
<wgt id='1068'> +2.8780036e+02 </wgt>
<wgt id='1069'> +2.8787527e+02 </wgt>
<wgt id='1070'> +2.8781470e+02 </wgt>
<wgt id='1071'> +2.8783563e+02 </wgt>
<wgt id='1072'> +2.8796137e+02 </wgt>
<wgt id='1073'> +2.8783692e+02 </wgt>
<wgt id='1074'> +2.8790724e+02 </wgt>
<wgt id='1075'> +2.8792589e+02 </wgt>
<wgt id='1076'> +2.8788363e+02 </wgt>
<wgt id='1077'> +2.8787994e+02 </wgt>
<wgt id='1078'> +2.8782688e+02 </wgt>
<wgt id='1079'> +2.8787478e+02 </wgt>
<wgt id='1080'> +2.8782905e+02 </wgt>
<wgt id='1081'> +2.8785160e+02 </wgt>
<wgt id='1082'> +2.8781994e+02 </wgt>
<wgt id='1083'> +2.8784482e+02 </wgt>
<wgt id='1084'> +2.8784150e+02 </wgt>
<wgt id='1085'> +2.8774581e+02 </wgt>
<wgt id='1086'> +2.8782107e+02 </wgt>
<wgt id='1087'> +2.8794251e+02 </wgt>
<wgt id='1088'> +2.8782123e+02 </wgt>
<wgt id='1089'> +2.8776706e+02 </wgt>
<wgt id='1090'> +2.8783753e+02 </wgt>
<wgt id='1091'> +2.8777422e+02 </wgt>
<wgt id='1092'> +2.8785696e+02 </wgt>
<wgt id='1093'> +2.8784224e+02 </wgt>
<wgt id='1094'> +2.8786870e+02 </wgt>
<wgt id='1095'> +2.8780539e+02 </wgt>
<wgt id='1096'> +2.8776875e+02 </wgt>
<wgt id='1097'> +2.8784642e+02 </wgt>
<wgt id='1098'> +2.8783092e+02 </wgt>
<wgt id='1099'> +2.8782037e+02 </wgt>
<wgt id='1100'> +2.8783196e+02 </wgt>
<wgt id='1101'> +2.8781752e+02 </wgt>
<wgt id='1102'> +2.8783828e+02 </wgt>
<wgt id='1103'> +2.8780041e+02 </wgt>
<wgt id='1104'> +2.8776778e+02 </wgt>
<wgt id='1105'> +2.8781971e+02 </wgt>
<wgt id='1106'> +2.8779175e+02 </wgt>
<wgt id='1107'> +2.8782378e+02 </wgt>
<wgt id='1108'> +2.8782852e+02 </wgt>
<wgt id='1109'> +2.8784425e+02 </wgt>
<wgt id='1110'> +2.8781418e+02 </wgt>
<wgt id='1111'> +2.8005499e+02 </wgt>
<wgt id='1112'> +2.9384915e+02 </wgt>
<wgt id='1113'> +2.8781418e+02 </wgt>
<wgt id='1114'> +2.7902621e+02 </wgt>
<wgt id='1115'> +2.8528948e+02 </wgt>
<wgt id='1116'> +2.8647824e+02 </wgt>
<wgt id='1117'> +2.8831616e+02 </wgt>
<wgt id='1118'> +2.9180369e+02 </wgt>
<wgt id='1119'> +2.8608850e+02 </wgt>
<wgt id='1120'> +2.8538016e+02 </wgt>
<wgt id='1121'> +2.8728874e+02 </wgt>
<wgt id='1122'> +2.9067408e+02 </wgt>
<wgt id='1123'> +2.9190370e+02 </wgt>
<wgt id='1124'> +2.9250974e+02 </wgt>
<wgt id='1125'> +2.8036486e+02 </wgt>
<wgt id='1126'> +2.8802738e+02 </wgt>
<wgt id='1127'> +2.8239006e+02 </wgt>
<wgt id='1128'> +2.9557554e+02 </wgt>
<wgt id='1129'> +2.9389266e+02 </wgt>
<wgt id='1130'> +2.9293738e+02 </wgt>
<wgt id='1131'> +2.8637948e+02 </wgt>
<wgt id='1132'> +2.8951995e+02 </wgt>
<wgt id='1133'> +2.9475865e+02 </wgt>
<wgt id='1134'> +2.8110904e+02 </wgt>
<wgt id='1135'> +2.9030431e+02 </wgt>
<wgt id='1136'> +2.8698035e+02 </wgt>
<wgt id='1137'> +2.8576570e+02 </wgt>
<wgt id='1138'> +2.8527288e+02 </wgt>
<wgt id='1139'> +2.9222514e+02 </wgt>
<wgt id='1140'> +2.8972540e+02 </wgt>
<wgt id='1141'> +2.8060090e+02 </wgt>
<wgt id='1142'> +2.9154073e+02 </wgt>
<wgt id='1143'> +2.8933623e+02 </wgt>
<wgt id='1144'> +2.8472115e+02 </wgt>
<wgt id='1145'> +2.8431891e+02 </wgt>
<wgt id='1146'> +2.8431116e+02 </wgt>
<wgt id='1147'> +2.8259805e+02 </wgt>
<wgt id='1148'> +2.9707346e+02 </wgt>
<wgt id='1149'> +2.8711277e+02 </wgt>
<wgt id='1150'> +2.9549394e+02 </wgt>
<wgt id='1151'> +2.9061860e+02 </wgt>
<wgt id='1152'> +2.8372739e+02 </wgt>
<wgt id='1153'> +2.8634978e+02 </wgt>
<wgt id='1154'> +2.9187386e+02 </wgt>
<wgt id='1155'> +2.7795559e+02 </wgt>
<wgt id='1156'> +2.8637324e+02 </wgt>
<wgt id='1157'> +2.8014916e+02 </wgt>
<wgt id='1158'> +2.8914066e+02 </wgt>
<wgt id='1159'> +2.9027507e+02 </wgt>
<wgt id='1160'> +2.7822128e+02 </wgt>
<wgt id='1161'> +2.8342596e+02 </wgt>
<wgt id='1162'> +2.8942409e+02 </wgt>
<wgt id='1163'> +2.9306544e+02 </wgt>
<wgt id='1164'> +2.8237231e+02 </wgt>
<wgt id='1165'> +2.8632055e+02 </wgt>
<wgt id='1166'> +2.8771611e+02 </wgt>
<wgt id='1167'> +2.8154209e+02 </wgt>
<wgt id='1168'> +2.8585391e+02 </wgt>
<wgt id='1169'> +2.8629555e+02 </wgt>
<wgt id='1170'> +2.8795758e+02 </wgt>
<wgt id='1171'> +2.8706039e+02 </wgt>
<wgt id='1172'> +2.9960263e+02 </wgt>
<wgt id='1173'> +2.8873911e+02 </wgt>
<wgt id='1174'> +2.8491873e+02 </wgt>
<wgt id='1175'> +2.8674318e+02 </wgt>
<wgt id='1176'> +2.9170819e+02 </wgt>
<wgt id='1177'> +2.8551198e+02 </wgt>
<wgt id='1178'> +2.8837707e+02 </wgt>
<wgt id='1179'> +2.8686806e+02 </wgt>
<wgt id='1180'> +2.7832115e+02 </wgt>
<wgt id='1181'> +2.9242173e+02 </wgt>
<wgt id='1182'> +2.8407972e+02 </wgt>
<wgt id='1183'> +2.7881272e+02 </wgt>
<wgt id='1184'> +2.9501831e+02 </wgt>
<wgt id='1185'> +2.9595291e+02 </wgt>
<wgt id='1186'> +2.9261553e+02 </wgt>
<wgt id='1187'> +2.9621586e+02 </wgt>
<wgt id='1188'> +2.9107380e+02 </wgt>
<wgt id='1189'> +2.9310738e+02 </wgt>
<wgt id='1190'> +2.8681548e+02 </wgt>
<wgt id='1191'> +2.8660941e+02 </wgt>
<wgt id='1192'> +2.9123032e+02 </wgt>
<wgt id='1193'> +2.8225034e+02 </wgt>
<wgt id='1194'> +2.8077985e+02 </wgt>
<wgt id='1195'> +2.9389266e+02 </wgt>
<wgt id='1196'> +2.8463561e+02 </wgt>
<wgt id='1197'> +2.9069129e+02 </wgt>
<wgt id='1198'> +2.9022637e+02 </wgt>
<wgt id='1199'> +2.7555054e+02 </wgt>
<wgt id='1200'> +2.9202879e+02 </wgt>
<wgt id='1201'> +2.8657436e+02 </wgt>
<wgt id='1202'> +3.0027418e+02 </wgt>
<wgt id='1203'> +2.8077218e+02 </wgt>
<wgt id='1204'> +2.8484863e+02 </wgt>
<wgt id='1205'> +2.9534731e+02 </wgt>
<wgt id='1206'> +2.9426685e+02 </wgt>
<wgt id='1207'> +2.8628848e+02 </wgt>
<wgt id='1208'> +2.8318861e+02 </wgt>
<wgt id='1209'> +2.8500657e+02 </wgt>
<wgt id='1210'> +2.8320116e+02 </wgt>
<wgt id='1211'> +2.9131780e+02 </wgt>
<wgt id='1212'> +2.9123294e+02 </wgt>
<wgt id='1213'> +2.9355317e+02 </wgt>
<wgt id='1214'> +2.8743555e+02 </wgt>
<wgt id='1215'> +2.8710595e+02 </wgt>
<wgt id='1216'> +2.8872639e+02 </wgt>
<wgt id='1217'> +2.8859656e+02 </wgt>
<wgt id='1218'> +2.8771641e+02 </wgt>
<wgt id='1219'> +2.8671410e+02 </wgt>
<wgt id='1220'> +2.8666470e+02 </wgt>
<wgt id='1221'> +2.8633237e+02 </wgt>
<wgt id='1222'> +2.8711209e+02 </wgt>
<wgt id='1223'> +2.8763883e+02 </wgt>
<wgt id='1224'> +2.8715680e+02 </wgt>
<wgt id='1225'> +2.8901902e+02 </wgt>
<wgt id='1226'> +2.8909313e+02 </wgt>
<wgt id='1227'> +2.9012527e+02 </wgt>
<wgt id='1228'> +2.8836859e+02 </wgt>
<wgt id='1229'> +2.8799385e+02 </wgt>
<wgt id='1230'> +2.8668877e+02 </wgt>
<wgt id='1231'> +2.8741859e+02 </wgt>
<wgt id='1232'> +2.8846545e+02 </wgt>
<wgt id='1233'> +2.8729017e+02 </wgt>
<wgt id='1234'> +2.8807078e+02 </wgt>
<wgt id='1235'> +2.8710538e+02 </wgt>
<wgt id='1236'> +2.8753239e+02 </wgt>
<wgt id='1237'> +2.8762083e+02 </wgt>
<wgt id='1238'> +2.8761298e+02 </wgt>
<wgt id='1239'> +2.8745883e+02 </wgt>
<wgt id='1240'> +2.8741888e+02 </wgt>
<wgt id='1241'> +2.8731813e+02 </wgt>
<wgt id='1242'> +2.8736666e+02 </wgt>
<wgt id='1243'> +2.8764157e+02 </wgt>
<wgt id='1244'> +2.8752380e+02 </wgt>
<wgt id='1245'> +2.8751307e+02 </wgt>
<wgt id='1246'> +2.8740978e+02 </wgt>
<wgt id='1247'> +2.8747540e+02 </wgt>
<wgt id='1248'> +2.8754494e+02 </wgt>
<wgt id='1249'> +2.8738894e+02 </wgt>
<wgt id='1250'> +2.8747271e+02 </wgt>
<wgt id='1251'> +2.8751248e+02 </wgt>
<wgt id='1252'> +2.8741640e+02 </wgt>
<wgt id='1253'> +2.8734115e+02 </wgt>
<wgt id='1254'> +2.8744073e+02 </wgt>
<wgt id='1255'> +2.8742344e+02 </wgt>
<wgt id='1256'> +2.8736772e+02 </wgt>
<wgt id='1257'> +2.8742626e+02 </wgt>
<wgt id='1258'> +2.8751562e+02 </wgt>
<wgt id='1259'> +2.8742586e+02 </wgt>
<wgt id='1260'> +2.8752935e+02 </wgt>
<wgt id='1261'> +2.8751618e+02 </wgt>
<wgt id='1262'> +2.8741725e+02 </wgt>
<wgt id='1263'> +2.8743823e+02 </wgt>
<wgt id='1264'> +2.8749178e+02 </wgt>
<wgt id='1265'> +2.8751449e+02 </wgt>
<wgt id='1266'> +2.8741553e+02 </wgt>
<wgt id='1267'> +2.8745428e+02 </wgt>
<wgt id='1268'> +2.8744731e+02 </wgt>
<wgt id='1269'> +2.8744143e+02 </wgt>
<wgt id='1270'> +2.8744016e+02 </wgt>
<wgt id='1271'> +2.8746099e+02 </wgt>
<wgt id='1272'> +2.8747325e+02 </wgt>
<wgt id='1273'> +2.8740249e+02 </wgt>
<wgt id='1274'> +2.8743085e+02 </wgt>
<wgt id='1275'> +2.8738351e+02 </wgt>
<wgt id='1276'> +2.8743392e+02 </wgt>
<wgt id='1277'> +2.8743564e+02 </wgt>
<wgt id='1278'> +2.8738057e+02 </wgt>
<wgt id='1279'> +2.8749368e+02 </wgt>
<wgt id='1280'> +2.8739351e+02 </wgt>
<wgt id='1281'> +2.8743869e+02 </wgt>
<wgt id='1282'> +2.8746933e+02 </wgt>
<wgt id='1283'> +2.8742606e+02 </wgt>
<wgt id='1284'> +2.8742966e+02 </wgt>
<wgt id='1285'> +2.8738400e+02 </wgt>
<wgt id='1286'> +2.8746355e+02 </wgt>
<wgt id='1287'> +2.8747000e+02 </wgt>
<wgt id='1288'> +2.8743159e+02 </wgt>
<wgt id='1289'> +2.8740685e+02 </wgt>
<wgt id='1290'> +2.8744954e+02 </wgt>
<wgt id='1291'> +2.8740358e+02 </wgt>
<wgt id='1292'> +2.8739682e+02 </wgt>
<wgt id='1293'> +2.8746240e+02 </wgt>
<wgt id='1294'> +2.8745206e+02 </wgt>
<wgt id='1295'> +2.8746429e+02 </wgt>
<wgt id='1296'> +2.8745201e+02 </wgt>
<wgt id='1297'> +2.8744684e+02 </wgt>
<wgt id='1298'> +2.8742179e+02 </wgt>
<wgt id='1299'> +2.8739472e+02 </wgt>
<wgt id='1300'> +2.8743066e+02 </wgt>
<wgt id='1301'> +2.8742874e+02 </wgt>
<wgt id='1302'> +2.8741630e+02 </wgt>
<wgt id='1303'> +2.8744143e+02 </wgt>
<wgt id='1304'> +2.8746184e+02 </wgt>
<wgt id='1305'> +2.8742202e+02 </wgt>
<wgt id='1306'> +2.8745731e+02 </wgt>
<wgt id='1307'> +2.8743748e+02 </wgt>
<wgt id='1308'> +2.8745998e+02 </wgt>
<wgt id='1309'> +2.8742394e+02 </wgt>
<wgt id='1310'> +2.8742274e+02 </wgt>
<wgt id='1311'> +2.8743676e+02 </wgt>
<wgt id='1312'> +2.8743287e+02 </wgt>
<wgt id='1313'> +2.8744027e+02 </wgt>
<wgt id='1314'> +2.8743683e+02 </wgt>
<wgt id='1315'> +2.8005499e+02 </wgt>
<wgt id='1316'> +2.9384915e+02 </wgt>
<wgt id='1317'> +2.5356877e+02 </wgt>
<wgt id='1318'> +2.5930100e+02 </wgt>
<wgt id='1319'> +2.6602045e+02 </wgt>
<wgt id='1320'> +2.7354864e+02 </wgt>
<wgt id='1321'> +2.8449593e+02 </wgt>
<wgt id='1322'> +2.9145188e+02 </wgt>
<wgt id='1323'> +3.0048737e+02 </wgt>
<wgt id='1324'> +3.0744236e+02 </wgt>
<wgt id='1325'> +2.9063081e+02 </wgt>
<wgt id='1326'> +2.9173069e+02 </wgt>
<wgt id='1327'> +2.8935641e+02 </wgt>
<wgt id='1328'> +2.9178624e+02 </wgt>
<wgt id='1329'> +2.9125315e+02 </wgt>
<wgt id='1330'> +2.9201497e+02 </wgt>
<wgt id='1331'> +2.9109687e+02 </wgt>
<wgt id='1332'> +2.9116378e+02 </wgt>
<wgt id='1333'> +2.8972403e+02 </wgt>
<wgt id='1334'> +2.9008710e+02 </wgt>
<wgt id='1335'> +2.8952540e+02 </wgt>
<wgt id='1336'> +2.9143554e+02 </wgt>
<wgt id='1337'> +2.9281813e+02 </wgt>
<wgt id='1338'> +2.8814009e+02 </wgt>
<wgt id='1339'> +2.9176329e+02 </wgt>
<wgt id='1340'> +2.9184332e+02 </wgt>
<wgt id='1341'> +2.9073870e+02 </wgt>
<wgt id='1342'> +2.9186313e+02 </wgt>
<wgt id='1343'> +2.9089235e+02 </wgt>
<wgt id='1344'> +2.8977400e+02 </wgt>
<wgt id='1345'> +2.9059249e+02 </wgt>
<wgt id='1346'> +2.9007483e+02 </wgt>
<wgt id='1347'> +2.9059160e+02 </wgt>
<wgt id='1348'> +2.9042513e+02 </wgt>
<wgt id='1349'> +2.9074254e+02 </wgt>
<wgt id='1350'> +2.9069438e+02 </wgt>
<wgt id='1351'> +2.9062882e+02 </wgt>
<wgt id='1352'> +2.9074723e+02 </wgt>
<wgt id='1353'> +2.9054350e+02 </wgt>
<wgt id='1354'> +2.9069348e+02 </wgt>
<wgt id='1355'> +2.9083058e+02 </wgt>
<wgt id='1356'> +2.9071305e+02 </wgt>
<wgt id='1357'> +2.9062246e+02 </wgt>
<wgt id='1358'> +2.9070203e+02 </wgt>
<wgt id='1359'> +2.9067098e+02 </wgt>
<wgt id='1360'> +2.9082614e+02 </wgt>
<wgt id='1361'> +2.9070236e+02 </wgt>
<wgt id='1362'> +2.9063250e+02 </wgt>
<wgt id='1363'> +2.9065215e+02 </wgt>
<wgt id='1364'> +2.9060007e+02 </wgt>
<wgt id='1365'> +2.9058596e+02 </wgt>
<wgt id='1366'> +2.9066164e+02 </wgt>
<wgt id='1367'> +2.9056338e+02 </wgt>
<wgt id='1368'> +2.9057082e+02 </wgt>
<wgt id='1369'> +2.9066785e+02 </wgt>
<wgt id='1370'> +2.9071973e+02 </wgt>
<wgt id='1371'> +2.9069129e+02 </wgt>
<wgt id='1372'> +2.9061404e+02 </wgt>
<wgt id='1373'> +2.9066109e+02 </wgt>
<wgt id='1374'> +2.9060479e+02 </wgt>
<wgt id='1375'> +2.9061638e+02 </wgt>
<wgt id='1376'> +2.9073584e+02 </wgt>
<wgt id='1377'> +2.9059379e+02 </wgt>
<wgt id='1378'> +2.9059971e+02 </wgt>
<wgt id='1379'> +2.9060221e+02 </wgt>
<wgt id='1380'> +2.9058728e+02 </wgt>
<wgt id='1381'> +2.9066229e+02 </wgt>
<wgt id='1382'> +2.9058092e+02 </wgt>
<wgt id='1383'> +2.9057348e+02 </wgt>
<wgt id='1384'> +2.9063386e+02 </wgt>
<wgt id='1385'> +2.9064252e+02 </wgt>
<wgt id='1386'> +2.9065610e+02 </wgt>
<wgt id='1387'> +2.9068584e+02 </wgt>
<wgt id='1388'> +2.9070138e+02 </wgt>
<wgt id='1389'> +2.9061411e+02 </wgt>
<wgt id='1390'> +2.9065383e+02 </wgt>
<wgt id='1391'> +2.9065988e+02 </wgt>
<wgt id='1392'> +2.9058241e+02 </wgt>
<wgt id='1393'> +2.9062062e+02 </wgt>
<wgt id='1394'> +2.9060438e+02 </wgt>
<wgt id='1395'> +2.9063776e+02 </wgt>
<wgt id='1396'> +2.9063620e+02 </wgt>
<wgt id='1397'> +2.9066868e+02 </wgt>
<wgt id='1398'> +2.9058403e+02 </wgt>
<wgt id='1399'> +2.9069725e+02 </wgt>
<wgt id='1400'> +2.9066909e+02 </wgt>
<wgt id='1401'> +2.9057519e+02 </wgt>
<wgt id='1402'> +2.9061081e+02 </wgt>
<wgt id='1403'> +2.9067050e+02 </wgt>
<wgt id='1404'> +2.9060857e+02 </wgt>
<wgt id='1405'> +2.9066128e+02 </wgt>
<wgt id='1406'> +2.9062898e+02 </wgt>
<wgt id='1407'> +2.9062430e+02 </wgt>
<wgt id='1408'> +2.9061835e+02 </wgt>
<wgt id='1409'> +2.9061113e+02 </wgt>
<wgt id='1410'> +2.9060615e+02 </wgt>
<wgt id='1411'> +2.9061102e+02 </wgt>
<wgt id='1412'> +2.9063023e+02 </wgt>
<wgt id='1413'> +2.9063916e+02 </wgt>
<wgt id='1414'> +2.9063220e+02 </wgt>
<wgt id='1415'> +2.9063462e+02 </wgt>
<wgt id='1416'> +2.9063055e+02 </wgt>
<wgt id='1417'> +2.9064313e+02 </wgt>
<wgt id='1418'> +2.9063620e+02 </wgt>
<wgt id='1419'> +2.9065090e+02 </wgt>
<wgt id='1420'> +2.9063067e+02 </wgt>
<wgt id='1421'> +2.9061157e+02 </wgt>
<wgt id='1422'> +2.9061056e+02 </wgt>
<wgt id='1423'> +2.9062913e+02 </wgt>
<wgt id='1424'> +2.9063505e+02 </wgt>
<wgt id='1425'> +2.9063652e+02 </wgt>
<wgt id='1426'> +2.8361747e+02 </wgt>
<wgt id='1427'> +2.9875999e+02 </wgt>
<wgt id='1428'> +2.7920590e+02 </wgt>
<wgt id='1429'> +2.7792492e+02 </wgt>
<wgt id='1430'> +2.7857772e+02 </wgt>
<wgt id='1431'> +2.7726529e+02 </wgt>
<wgt id='1432'> +2.7990809e+02 </wgt>
<wgt id='1433'> +2.7305251e+02 </wgt>
<wgt id='1434'> +2.8417465e+02 </wgt>
<wgt id='1435'> +2.8098202e+02 </wgt>
<wgt id='1436'> +2.7541609e+02 </wgt>
<wgt id='1437'> +2.8287051e+02 </wgt>
<wgt id='1438'> +2.7729524e+02 </wgt>
<wgt id='1439'> +2.7859978e+02 </wgt>
<wgt id='1440'> +2.7894487e+02 </wgt>
<wgt id='1441'> +2.7298506e+02 </wgt>
<wgt id='1442'> +2.7885090e+02 </wgt>
<wgt id='1443'> +2.8142812e+02 </wgt>
<wgt id='1444'> +2.7233556e+02 </wgt>
<wgt id='1445'> +2.8027066e+02 </wgt>
<wgt id='1446'> +2.7807451e+02 </wgt>
<wgt id='1447'> +2.7763107e+02 </wgt>
<wgt id='1448'> +2.8049836e+02 </wgt>
<wgt id='1449'> +2.8025129e+02 </wgt>
<wgt id='1450'> +2.7852955e+02 </wgt>
<wgt id='1451'> +2.7856840e+02 </wgt>
<wgt id='1452'> +2.7982058e+02 </wgt>
<wgt id='1453'> +2.7867158e+02 </wgt>
<wgt id='1454'> +2.7963955e+02 </wgt>
<wgt id='1455'> +2.8225856e+02 </wgt>
<wgt id='1456'> +2.7407040e+02 </wgt>
<wgt id='1457'> +2.7376009e+02 </wgt>
<wgt id='1458'> +2.8246255e+02 </wgt>
<wgt id='1459'> +2.7598060e+02 </wgt>
<wgt id='1460'> +2.8384282e+02 </wgt>
<wgt id='1461'> +2.7693052e+02 </wgt>
<wgt id='1462'> +2.8114556e+02 </wgt>
<wgt id='1463'> +2.7438000e+02 </wgt>
<wgt id='1464'> +2.8314132e+02 </wgt>
<wgt id='1465'> +2.7954713e+02 </wgt>
<wgt id='1466'> +2.7868348e+02 </wgt>
<wgt id='1467'> +2.8358453e+02 </wgt>
<wgt id='1468'> +2.7700592e+02 </wgt>
<wgt id='1469'> +2.7577283e+02 </wgt>
<wgt id='1470'> +2.7985144e+02 </wgt>
<wgt id='1471'> +2.8225205e+02 </wgt>
<wgt id='1472'> +2.7121504e+02 </wgt>
<wgt id='1473'> +2.8742323e+02 </wgt>
<wgt id='1474'> +2.7736094e+02 </wgt>
<wgt id='1475'> +2.8087435e+02 </wgt>
<wgt id='1476'> +2.8100021e+02 </wgt>
<wgt id='1477'> +2.7940911e+02 </wgt>
<wgt id='1478'> +2.7985387e+02 </wgt>
<wgt id='1479'> +2.8012030e+02 </wgt>
<wgt id='1480'> +2.7895838e+02 </wgt>
<wgt id='1481'> +2.7677359e+02 </wgt>
<wgt id='1482'> +2.8617107e+02 </wgt>
<wgt id='1483'> +2.7749957e+02 </wgt>
<wgt id='1484'> +2.8047445e+02 </wgt>
<wgt id='1485'> +2.7278271e+02 </wgt>
<wgt id='1486'> +2.8466165e+02 </wgt>
<wgt id='1487'> +2.8645647e+02 </wgt>
<wgt id='1488'> +2.8682765e+02 </wgt>
<wgt id='1489'> +2.8743722e+02 </wgt>
<wgt id='1490'> +2.9373732e+02 </wgt>
<wgt id='1491'> +2.8356431e+02 </wgt>
<wgt id='1492'> +2.8776732e+02 </wgt>
<wgt id='1493'> +2.8541624e+02 </wgt>
<wgt id='1494'> +2.8972301e+02 </wgt>
<wgt id='1495'> +2.8537235e+02 </wgt>
<wgt id='1496'> +2.7986482e+02 </wgt>
<wgt id='1497'> +2.9169428e+02 </wgt>
<wgt id='1498'> +2.9056646e+02 </wgt>
<wgt id='1499'> +2.8420443e+02 </wgt>
<wgt id='1500'> +2.7498426e+02 </wgt>
<wgt id='1501'> +2.9301910e+02 </wgt>
<wgt id='1502'> +2.8852510e+02 </wgt>
<wgt id='1503'> +2.8513041e+02 </wgt>
<wgt id='1504'> +2.8404553e+02 </wgt>
<wgt id='1505'> +2.8933684e+02 </wgt>
<wgt id='1506'> +2.9010721e+02 </wgt>
<wgt id='1507'> +2.8231785e+02 </wgt>
<wgt id='1508'> +2.8710223e+02 </wgt>
<wgt id='1509'> +2.8500643e+02 </wgt>
<wgt id='1510'> +2.8502241e+02 </wgt>
<wgt id='1511'> +2.8769602e+02 </wgt>
<wgt id='1512'> +2.8163721e+02 </wgt>
<wgt id='1513'> +2.9090176e+02 </wgt>
<wgt id='1514'> +2.8535545e+02 </wgt>
<wgt id='1515'> +2.8792244e+02 </wgt>
<wgt id='1516'> +2.8421872e+02 </wgt>
<wgt id='1517'> +2.8722322e+02 </wgt>
<wgt id='1518'> +2.8682434e+02 </wgt>
<wgt id='1519'> +2.8597128e+02 </wgt>
<wgt id='1520'> +2.8648769e+02 </wgt>
<wgt id='1521'> +2.8631753e+02 </wgt>
<wgt id='1522'> +2.9126522e+02 </wgt>
<wgt id='1523'> +2.8182869e+02 </wgt>
<wgt id='1524'> +2.8899676e+02 </wgt>
<wgt id='1525'> +2.8214151e+02 </wgt>
<wgt id='1526'> +2.8619830e+02 </wgt>
<wgt id='1527'> +2.8597787e+02 </wgt>
<wgt id='1528'> +2.8906438e+02 </wgt>
<wgt id='1529'> +2.8401457e+02 </wgt>
<wgt id='1530'> +2.8902928e+02 </wgt>
<wgt id='1531'> +2.8325848e+02 </wgt>
<wgt id='1532'> +2.8300231e+02 </wgt>
<wgt id='1533'> +2.8484506e+02 </wgt>
<wgt id='1534'> +2.8246068e+02 </wgt>
<wgt id='1535'> +2.9008033e+02 </wgt>
<wgt id='1536'> +2.8823051e+02 </wgt>
<wgt id='1537'> +2.8052038e+02 </wgt>
<wgt id='1538'> +2.8568986e+02 </wgt>
<wgt id='1539'> +2.8555948e+02 </wgt>
<wgt id='1540'> +2.7874432e+02 </wgt>
<wgt id='1541'> +2.8822641e+02 </wgt>
<wgt id='1542'> +2.8424021e+02 </wgt>
<wgt id='1543'> +2.8831588e+02 </wgt>
<wgt id='1544'> +2.7885659e+02 </wgt>
<wgt id='1545'> +2.9335510e+02 </wgt>
<wgt id='1546'> +2.8372399e+02 </wgt>
<wgt id='1547'> +2.9098286e+02 </wgt>
<wgt id='1548'> +2.9105715e+02 </wgt>
<wgt id='1549'> +2.9088505e+02 </wgt>
<wgt id='1550'> +2.9106876e+02 </wgt>
<wgt id='1551'> +2.9092123e+02 </wgt>
<wgt id='1552'> +2.9170070e+02 </wgt>
<wgt id='1553'> +2.9030372e+02 </wgt>
<wgt id='1554'> +2.8972248e+02 </wgt>
<wgt id='1555'> +2.9238477e+02 </wgt>
<wgt id='1556'> +2.9187477e+02 </wgt>
<wgt id='1557'> +2.9008562e+02 </wgt>
<wgt id='1558'> +2.9160282e+02 </wgt>
<wgt id='1559'> +2.8960437e+02 </wgt>
<wgt id='1560'> +2.9066787e+02 </wgt>
<wgt id='1561'> +2.9153762e+02 </wgt>
<wgt id='1562'> +2.9002032e+02 </wgt>
<wgt id='1563'> +2.9152421e+02 </wgt>
<wgt id='1564'> +2.8935773e+02 </wgt>
<wgt id='1565'> +2.9288128e+02 </wgt>
<wgt id='1566'> +2.9147349e+02 </wgt>
<wgt id='1567'> +2.9055774e+02 </wgt>
<wgt id='1568'> +2.9033912e+02 </wgt>
<wgt id='1569'> +2.9184243e+02 </wgt>
<wgt id='1570'> +2.8895736e+02 </wgt>
<wgt id='1571'> +2.9238794e+02 </wgt>
<wgt id='1572'> +2.8738382e+02 </wgt>
<wgt id='1573'> +2.9413114e+02 </wgt>
<wgt id='1574'> +2.9176729e+02 </wgt>
<wgt id='1575'> +2.9098834e+02 </wgt>
<wgt id='1576'> +2.9292204e+02 </wgt>
<wgt id='1577'> +2.8871278e+02 </wgt>
<wgt id='1578'> +2.9156278e+02 </wgt>
<wgt id='1579'> +2.9022676e+02 </wgt>
<wgt id='1580'> +2.9146887e+02 </wgt>
<wgt id='1581'> +2.9043685e+02 </wgt>
<wgt id='1582'> +2.9074162e+02 </wgt>
<wgt id='1583'> +2.9210156e+02 </wgt>
<wgt id='1584'> +2.9152866e+02 </wgt>
<wgt id='1585'> +2.9091656e+02 </wgt>
<wgt id='1586'> +2.9075392e+02 </wgt>
<wgt id='1587'> +2.9122822e+02 </wgt>
<wgt id='1588'> +2.9056403e+02 </wgt>
<wgt id='1589'> +2.9150071e+02 </wgt>
<wgt id='1590'> +2.9466759e+02 </wgt>
<wgt id='1591'> +2.8913646e+02 </wgt>
<wgt id='1592'> +2.9074895e+02 </wgt>
<wgt id='1593'> +2.9155346e+02 </wgt>
<wgt id='1594'> +2.8989816e+02 </wgt>
<wgt id='1595'> +2.8972520e+02 </wgt>
<wgt id='1596'> +2.9049268e+02 </wgt>
<wgt id='1597'> +2.9104722e+02 </wgt>
<wgt id='1598'> +2.8118605e+02 </wgt>
<wgt id='1599'> +2.8104266e+02 </wgt>
<wgt id='1600'> +2.8136140e+02 </wgt>
<wgt id='1601'> +2.8205404e+02 </wgt>
<wgt id='1602'> +2.8031822e+02 </wgt>
<wgt id='1603'> +2.8165737e+02 </wgt>
<wgt id='1604'> +2.8100329e+02 </wgt>
<wgt id='1605'> +2.7999240e+02 </wgt>
<wgt id='1606'> +2.8238027e+02 </wgt>
<wgt id='1607'> +2.8166307e+02 </wgt>
<wgt id='1608'> +2.8073967e+02 </wgt>
<wgt id='1609'> +2.7847414e+02 </wgt>
<wgt id='1610'> +2.8237614e+02 </wgt>
<wgt id='1611'> +2.8122079e+02 </wgt>
<wgt id='1612'> +2.8116631e+02 </wgt>
<wgt id='1613'> +2.8035824e+02 </wgt>
<wgt id='1614'> +2.8209452e+02 </wgt>
<wgt id='1615'> +2.8050882e+02 </wgt>
<wgt id='1616'> +2.8154749e+02 </wgt>
<wgt id='1617'> +2.8079131e+02 </wgt>
<wgt id='1618'> +2.8173816e+02 </wgt>
<wgt id='1619'> +2.8112984e+02 </wgt>
<wgt id='1620'> +2.8121622e+02 </wgt>
<wgt id='1621'> +2.8431201e+02 </wgt>
<wgt id='1622'> +2.7814176e+02 </wgt>
<wgt id='1623'> +2.8243408e+02 </wgt>
<wgt id='1624'> +2.7815898e+02 </wgt>
<wgt id='1625'> +2.8245391e+02 </wgt>
<wgt id='1626'> +2.8062779e+02 </wgt>
<wgt id='1627'> +2.7980005e+02 </wgt>
<wgt id='1628'> +2.8485241e+02 </wgt>
<wgt id='1629'> +2.8124529e+02 </wgt>
<wgt id='1630'> +2.8112511e+02 </wgt>
<wgt id='1631'> +2.8074160e+02 </wgt>
<wgt id='1632'> +2.8219311e+02 </wgt>
<wgt id='1633'> +2.8206258e+02 </wgt>
<wgt id='1634'> +2.8094209e+02 </wgt>
<wgt id='1635'> +2.8132134e+02 </wgt>
<wgt id='1636'> +2.8122199e+02 </wgt>
<wgt id='1637'> +2.8097221e+02 </wgt>
<wgt id='1638'> +2.8133429e+02 </wgt>
<wgt id='1639'> +2.8057009e+02 </wgt>
<wgt id='1640'> +2.8161144e+02 </wgt>
<wgt id='1641'> +2.8143847e+02 </wgt>
<wgt id='1642'> +2.7980399e+02 </wgt>
<wgt id='1643'> +2.7911509e+02 </wgt>
<wgt id='1644'> +2.8149520e+02 </wgt>
<wgt id='1645'> +2.8116751e+02 </wgt>
<wgt id='1646'> +2.8108417e+02 </wgt>
<wgt id='1647'> +2.8104929e+02 </wgt>
<wgt id='1648'> +2.8035345e+02 </wgt>
<wgt id='1649'> +4.2475666e+02 </wgt>
<wgt id='1650'> +2.8510832e+02 </wgt>
<wgt id='1651'> +2.8502510e+02 </wgt>
<wgt id='1652'> +2.8518584e+02 </wgt>
<wgt id='1653'> +2.8513812e+02 </wgt>
<wgt id='1654'> +2.8510040e+02 </wgt>
<wgt id='1655'> +2.8444106e+02 </wgt>
<wgt id='1656'> +2.8488856e+02 </wgt>
<wgt id='1657'> +2.8466383e+02 </wgt>
<wgt id='1658'> +2.8558968e+02 </wgt>
<wgt id='1659'> +2.8611826e+02 </wgt>
<wgt id='1660'> +2.8513279e+02 </wgt>
<wgt id='1661'> +2.8494011e+02 </wgt>
<wgt id='1662'> +2.8485462e+02 </wgt>
<wgt id='1663'> +2.8508944e+02 </wgt>
<wgt id='1664'> +2.8487398e+02 </wgt>
<wgt id='1665'> +2.8489671e+02 </wgt>
<wgt id='1666'> +2.8516091e+02 </wgt>
<wgt id='1667'> +2.8508583e+02 </wgt>
<wgt id='1668'> +2.8501775e+02 </wgt>
<wgt id='1669'> +2.8562023e+02 </wgt>
<wgt id='1670'> +2.8410546e+02 </wgt>
<wgt id='1671'> +2.8515840e+02 </wgt>
<wgt id='1672'> +2.8327743e+02 </wgt>
<wgt id='1673'> +2.8548951e+02 </wgt>
<wgt id='1674'> +2.8585546e+02 </wgt>
<wgt id='1675'> +2.8618989e+02 </wgt>
<wgt id='1676'> +2.8570497e+02 </wgt>
<wgt id='1677'> +2.8455848e+02 </wgt>
<wgt id='1678'> +2.8538110e+02 </wgt>
<wgt id='1679'> +2.8309250e+02 </wgt>
<wgt id='1680'> +2.8706766e+02 </wgt>
<wgt id='1681'> +2.8648874e+02 </wgt>
<wgt id='1682'> +2.8976851e+02 </wgt>
<wgt id='1683'> +2.8901920e+02 </wgt>
<wgt id='1684'> +2.8641871e+02 </wgt>
<wgt id='1685'> +2.8577261e+02 </wgt>
<wgt id='1686'> +2.8608465e+02 </wgt>
<wgt id='1687'> +2.8917838e+02 </wgt>
<wgt id='1688'> +2.9177202e+02 </wgt>
<wgt id='1689'> +2.8506118e+02 </wgt>
<wgt id='1690'> +2.9116095e+02 </wgt>
<wgt id='1691'> +2.8730133e+02 </wgt>
<wgt id='1692'> +2.8373701e+02 </wgt>
<wgt id='1693'> +2.8745080e+02 </wgt>
<wgt id='1694'> +2.8606495e+02 </wgt>
<wgt id='1695'> +2.8706933e+02 </wgt>
<wgt id='1696'> +2.8799561e+02 </wgt>
<wgt id='1697'> +2.8658322e+02 </wgt>
<wgt id='1698'> +2.8635011e+02 </wgt>
<wgt id='1699'> +2.8629943e+02 </wgt>
<wgt id='1700'> +2.8736357e+02 </wgt>
<wgt id='1701'> +2.8589679e+02 </wgt>
<wgt id='1702'> +2.8714768e+02 </wgt>
<wgt id='1703'> +2.8659500e+02 </wgt>
<wgt id='1704'> +2.8702928e+02 </wgt>
<wgt id='1705'> +2.8678434e+02 </wgt>
<wgt id='1706'> +2.8662931e+02 </wgt>
<wgt id='1707'> +2.8706362e+02 </wgt>
<wgt id='1708'> +2.8630407e+02 </wgt>
<wgt id='1709'> +2.8689409e+02 </wgt>
<wgt id='1710'> +2.8705827e+02 </wgt>
<wgt id='1711'> +2.8695990e+02 </wgt>
<wgt id='1712'> +2.8712237e+02 </wgt>
<wgt id='1713'> +2.8648901e+02 </wgt>
<wgt id='1714'> +2.8722001e+02 </wgt>
<wgt id='1715'> +2.8770256e+02 </wgt>
<wgt id='1716'> +2.8685673e+02 </wgt>
<wgt id='1717'> +2.8719063e+02 </wgt>
<wgt id='1718'> +2.8675437e+02 </wgt>
<wgt id='1719'> +2.8712737e+02 </wgt>
<wgt id='1720'> +2.8711805e+02 </wgt>
<wgt id='1721'> +2.8719065e+02 </wgt>
<wgt id='1722'> +2.8727717e+02 </wgt>
<wgt id='1723'> +2.8682018e+02 </wgt>
<wgt id='1724'> +2.8735379e+02 </wgt>
<wgt id='1725'> +2.8731175e+02 </wgt>
<wgt id='1726'> +2.8732838e+02 </wgt>
<wgt id='1727'> +2.8683593e+02 </wgt>
<wgt id='1728'> +2.8678630e+02 </wgt>
<wgt id='1729'> +2.8708058e+02 </wgt>
<wgt id='1730'> +2.8713871e+02 </wgt>
<wgt id='1731'> +2.8679614e+02 </wgt>
<wgt id='1732'> +2.8714026e+02 </wgt>
<wgt id='1733'> +2.8696916e+02 </wgt>
<wgt id='1734'> +2.8694569e+02 </wgt>
<wgt id='1735'> +2.8710446e+02 </wgt>
<wgt id='1736'> +2.8705278e+02 </wgt>
<wgt id='1737'> +2.8699682e+02 </wgt>
<wgt id='1738'> +2.8735909e+02 </wgt>
<wgt id='1739'> +2.8693410e+02 </wgt>
<wgt id='1740'> +2.8677621e+02 </wgt>
<wgt id='1741'> +2.8702624e+02 </wgt>
<wgt id='1742'> +2.8685609e+02 </wgt>
<wgt id='1743'> +2.8708006e+02 </wgt>
<wgt id='1744'> +2.8701913e+02 </wgt>
<wgt id='1745'> +2.8704622e+02 </wgt>
<wgt id='1746'> +2.8700930e+02 </wgt>
<wgt id='1747'> +2.8704928e+02 </wgt>
<wgt id='1748'> +2.8716421e+02 </wgt>
<wgt id='1749'> +2.8713731e+02 </wgt>
<wgt id='1750'> +2.8704720e+02 </wgt>
<wgt id='1751'> +2.8696364e+02 </wgt>
<wgt id='1752'> +2.8699207e+02 </wgt>
<wgt id='1753'> +2.8695154e+02 </wgt>
<wgt id='1754'> +2.8713520e+02 </wgt>
<wgt id='1755'> +2.8703866e+02 </wgt>
<wgt id='1756'> +2.8704217e+02 </wgt>
<wgt id='1757'> +2.8705833e+02 </wgt>
<wgt id='1758'> +2.8710115e+02 </wgt>
<wgt id='1759'> +2.8722261e+02 </wgt>
<wgt id='1760'> +2.8706472e+02 </wgt>
<wgt id='1761'> +2.8710572e+02 </wgt>
<wgt id='1762'> +2.8690061e+02 </wgt>
<wgt id='1763'> +2.8718086e+02 </wgt>
<wgt id='1764'> +2.8712254e+02 </wgt>
<wgt id='1765'> +2.8711274e+02 </wgt>
<wgt id='1766'> +2.8718554e+02 </wgt>
<wgt id='1767'> +2.8702577e+02 </wgt>
<wgt id='1768'> +2.8700145e+02 </wgt>
<wgt id='1769'> +2.8708351e+02 </wgt>
<wgt id='1770'> +2.8703861e+02 </wgt>
<wgt id='1771'> +2.8703418e+02 </wgt>
<wgt id='1772'> +2.8706128e+02 </wgt>
<wgt id='1773'> +2.8696721e+02 </wgt>
<wgt id='1774'> +2.8710646e+02 </wgt>
<wgt id='1775'> +2.8709662e+02 </wgt>
<wgt id='1776'> +2.8699971e+02 </wgt>
<wgt id='1777'> +2.8710254e+02 </wgt>
<wgt id='1778'> +2.8712496e+02 </wgt>
<wgt id='1779'> +2.8710540e+02 </wgt>
<wgt id='1780'> +2.8706555e+02 </wgt>
<wgt id='1781'> +2.8150744e+02 </wgt>
<wgt id='1782'> +2.9187317e+02 </wgt>
<wgt id='1783'> +2.8081504e+02 </wgt>
<wgt id='1784'> +2.8134348e+02 </wgt>
<wgt id='1785'> +2.8221974e+02 </wgt>
<wgt id='1786'> +2.7835274e+02 </wgt>
<wgt id='1787'> +2.8026269e+02 </wgt>
<wgt id='1788'> +2.8210561e+02 </wgt>
<wgt id='1789'> +2.8011068e+02 </wgt>
<wgt id='1790'> +2.8119265e+02 </wgt>
<wgt id='1791'> +2.8154360e+02 </wgt>
<wgt id='1792'> +2.8061313e+02 </wgt>
<wgt id='1793'> +2.8049508e+02 </wgt>
<wgt id='1794'> +2.8374110e+02 </wgt>
<wgt id='1795'> +2.7695298e+02 </wgt>
<wgt id='1796'> +2.7712018e+02 </wgt>
<wgt id='1797'> +2.7748741e+02 </wgt>
<wgt id='1798'> +2.8051177e+02 </wgt>
<wgt id='1799'> +2.8178666e+02 </wgt>
<wgt id='1800'> +2.8103697e+02 </wgt>
<wgt id='1801'> +2.8070963e+02 </wgt>
<wgt id='1802'> +2.8049500e+02 </wgt>
<wgt id='1803'> +2.8198240e+02 </wgt>
<wgt id='1804'> +2.8073379e+02 </wgt>
<wgt id='1805'> +2.8112823e+02 </wgt>
<wgt id='1806'> +2.8051579e+02 </wgt>
<wgt id='1807'> +2.8041784e+02 </wgt>
<wgt id='1808'> +2.8115111e+02 </wgt>
<wgt id='1809'> +2.8091467e+02 </wgt>
<wgt id='1810'> +2.8052035e+02 </wgt>
<wgt id='1811'> +2.8106439e+02 </wgt>
<wgt id='1812'> +2.8107619e+02 </wgt>
<wgt id='1813'> +2.8094909e+02 </wgt>
<wgt id='1814'> +2.8079775e+02 </wgt>
<wgt id='1815'> +2.8099628e+02 </wgt>
<wgt id='1816'> +2.8118201e+02 </wgt>
<wgt id='1817'> +2.8062335e+02 </wgt>
<wgt id='1818'> +2.8131469e+02 </wgt>
<wgt id='1819'> +2.8078114e+02 </wgt>
<wgt id='1820'> +2.8108694e+02 </wgt>
<wgt id='1821'> +2.8079222e+02 </wgt>
<wgt id='1822'> +2.8082614e+02 </wgt>
<wgt id='1823'> +2.8045222e+02 </wgt>
<wgt id='1824'> +2.8066557e+02 </wgt>
<wgt id='1825'> +2.8074037e+02 </wgt>
<wgt id='1826'> +2.8060901e+02 </wgt>
<wgt id='1827'> +2.8089603e+02 </wgt>
<wgt id='1828'> +2.8074064e+02 </wgt>
<wgt id='1829'> +2.8042045e+02 </wgt>
<wgt id='1830'> +2.8064584e+02 </wgt>
<wgt id='1831'> +2.8091397e+02 </wgt>
<wgt id='1832'> +2.8067273e+02 </wgt>
<wgt id='1833'> +2.8088589e+02 </wgt>
<wgt id='1834'> +2.8090089e+02 </wgt>
<wgt id='1835'> +2.8086892e+02 </wgt>
<wgt id='1836'> +2.8085928e+02 </wgt>
<wgt id='1837'> +2.8067111e+02 </wgt>
<wgt id='1838'> +2.8077283e+02 </wgt>
<wgt id='1839'> +2.8107407e+02 </wgt>
<wgt id='1840'> +2.8078771e+02 </wgt>
<wgt id='1841'> +2.8063742e+02 </wgt>
<wgt id='1842'> +2.8070229e+02 </wgt>
<wgt id='1843'> +2.8073688e+02 </wgt>
<wgt id='1844'> +2.8086020e+02 </wgt>
<wgt id='1845'> +2.8085847e+02 </wgt>
<wgt id='1846'> +2.8093277e+02 </wgt>
<wgt id='1847'> +2.8075719e+02 </wgt>
<wgt id='1848'> +2.8080775e+02 </wgt>
<wgt id='1849'> +2.8083527e+02 </wgt>
<wgt id='1850'> +2.8089967e+02 </wgt>
<wgt id='1851'> +2.8090182e+02 </wgt>
<wgt id='1852'> +2.8095662e+02 </wgt>
<wgt id='1853'> +2.8078567e+02 </wgt>
<wgt id='1854'> +2.8097044e+02 </wgt>
<wgt id='1855'> +2.8097174e+02 </wgt>
<wgt id='1856'> +2.8073967e+02 </wgt>
<wgt id='1857'> +2.8085345e+02 </wgt>
<wgt id='1858'> +2.8080001e+02 </wgt>
<wgt id='1859'> +2.8079457e+02 </wgt>
<wgt id='1860'> +2.8085451e+02 </wgt>
<wgt id='1861'> +2.8083869e+02 </wgt>
<wgt id='1862'> +2.8077040e+02 </wgt>
<wgt id='1863'> +2.8098545e+02 </wgt>
<wgt id='1864'> +2.8078964e+02 </wgt>
<wgt id='1865'> +2.8087639e+02 </wgt>
<wgt id='1866'> +2.8073030e+02 </wgt>
<wgt id='1867'> +2.8074221e+02 </wgt>
<wgt id='1868'> +2.8075158e+02 </wgt>
<wgt id='1869'> +2.8085011e+02 </wgt>
<wgt id='1870'> +2.8065676e+02 </wgt>
<wgt id='1871'> +2.8075847e+02 </wgt>
<wgt id='1872'> +2.8075446e+02 </wgt>
<wgt id='1873'> +2.8085561e+02 </wgt>
<wgt id='1874'> +2.8078879e+02 </wgt>
<wgt id='1875'> +2.8080664e+02 </wgt>
<wgt id='1876'> +2.8077362e+02 </wgt>
<wgt id='1877'> +2.8079575e+02 </wgt>
<wgt id='1878'> +2.8084468e+02 </wgt>
<wgt id='1879'> +2.8076317e+02 </wgt>
<wgt id='1880'> +2.8083238e+02 </wgt>
<wgt id='1881'> +2.8081355e+02 </wgt>
<wgt id='1882'> +2.8075636e+02 </wgt>
<wgt id='1883'> +2.8080931e+02 </wgt>
<wgt id='1884'> +2.7640436e+02 </wgt>
<wgt id='1885'> +2.8435270e+02 </wgt>
<wgt id='1886'> +2.8706897e+02 </wgt>
<wgt id='1887'> +2.8823653e+02 </wgt>
<wgt id='1888'> +2.8732792e+02 </wgt>
<wgt id='1889'> +2.8715105e+02 </wgt>
<wgt id='1890'> +2.8852407e+02 </wgt>
<wgt id='1891'> +2.9525768e+02 </wgt>
<wgt id='1892'> +2.8717241e+02 </wgt>
<wgt id='1893'> +2.8701534e+02 </wgt>
<wgt id='1894'> +2.8737482e+02 </wgt>
<wgt id='1895'> +2.8662479e+02 </wgt>
<wgt id='1896'> +2.8708869e+02 </wgt>
<wgt id='1897'> +2.8690285e+02 </wgt>
<wgt id='1898'> +2.8657082e+02 </wgt>
<wgt id='1899'> +2.8694626e+02 </wgt>
<wgt id='1900'> +2.8723600e+02 </wgt>
<wgt id='1901'> +2.8746883e+02 </wgt>
<wgt id='1902'> +2.8729122e+02 </wgt>
<wgt id='1903'> +2.8491880e+02 </wgt>
<wgt id='1904'> +2.8731917e+02 </wgt>
<wgt id='1905'> +2.8660358e+02 </wgt>
<wgt id='1906'> +2.8729839e+02 </wgt>
<wgt id='1907'> +2.8713024e+02 </wgt>
<wgt id='1908'> +2.8696968e+02 </wgt>
<wgt id='1909'> +2.8720065e+02 </wgt>
<wgt id='1910'> +2.8712141e+02 </wgt>
<wgt id='1911'> +2.8691612e+02 </wgt>
<wgt id='1912'> +2.8695470e+02 </wgt>
<wgt id='1913'> +2.8698439e+02 </wgt>
<wgt id='1914'> +2.8740685e+02 </wgt>
<wgt id='1915'> +2.8739337e+02 </wgt>
<wgt id='1916'> +2.8696089e+02 </wgt>
<wgt id='1917'> +2.8150744e+02 </wgt>
<wgt id='1918'> +2.9187317e+02 </wgt>
<wgt id='1919'> +2.8081334e+02 </wgt>
<wgt id='1920'> +2.8129713e+02 </wgt>
<wgt id='1921'> +2.8169167e+02 </wgt>
<wgt id='1922'> +2.8050738e+02 </wgt>
<wgt id='1923'> +2.8164750e+02 </wgt>
<wgt id='1924'> +2.7693921e+02 </wgt>
<wgt id='1925'> +2.8072350e+02 </wgt>
<wgt id='1926'> +2.8023926e+02 </wgt>
<wgt id='1927'> +2.8020501e+02 </wgt>
<wgt id='1928'> +2.7951678e+02 </wgt>
<wgt id='1929'> +2.8193752e+02 </wgt>
<wgt id='1930'> +2.7924259e+02 </wgt>
<wgt id='1931'> +2.8105092e+02 </wgt>
<wgt id='1932'> +2.8191844e+02 </wgt>
<wgt id='1933'> +2.7996773e+02 </wgt>
<wgt id='1934'> +2.8046932e+02 </wgt>
<wgt id='1935'> +2.8053468e+02 </wgt>
<wgt id='1936'> +2.8309979e+02 </wgt>
<wgt id='1937'> +2.8087761e+02 </wgt>
<wgt id='1938'> +2.8078400e+02 </wgt>
<wgt id='1939'> +2.8101635e+02 </wgt>
<wgt id='1940'> +2.8174335e+02 </wgt>
<wgt id='1941'> +2.8621011e+02 </wgt>
<wgt id='1942'> +2.8065495e+02 </wgt>
<wgt id='1943'> +2.8053791e+02 </wgt>
<wgt id='1944'> +2.8003782e+02 </wgt>
<wgt id='1945'> +2.8080528e+02 </wgt>
<wgt id='1946'> +2.8074765e+02 </wgt>
<wgt id='1947'> +2.8064678e+02 </wgt>
<wgt id='1948'> +2.8065260e+02 </wgt>
<wgt id='1949'> +2.8085942e+02 </wgt>
<wgt id='1950'> +2.7640436e+02 </wgt>
<wgt id='1951'> +2.8435270e+02 </wgt>
<wgt id='1952'> +3.0599746e+02 </wgt>
<wgt id='1953'> +3.0560194e+02 </wgt>
<wgt id='1954'> +3.0639172e+02 </wgt>
<wgt id='1955'> +3.0678222e+02 </wgt>
<wgt id='1956'> +3.0521436e+02 </wgt>
<wgt id='1957'> +3.0650790e+02 </wgt>
<wgt id='1958'> +3.0548786e+02 </wgt>
<wgt id='1959'> +3.0673168e+02 </wgt>
<wgt id='1960'> +3.0528558e+02 </wgt>
<wgt id='1961'> +3.0656178e+02 </wgt>
<wgt id='1962'> +3.0544186e+02 </wgt>
<wgt id='1963'> +3.0560830e+02 </wgt>
<wgt id='1964'> +3.0641916e+02 </wgt>
<wgt id='1965'> +3.0479305e+02 </wgt>
<wgt id='1966'> +3.0721475e+02 </wgt>
<wgt id='1967'> +3.0603685e+02 </wgt>
<wgt id='1968'> +3.0557963e+02 </wgt>
<wgt id='1969'> +3.0684129e+02 </wgt>
<wgt id='1970'> +3.0497662e+02 </wgt>
<wgt id='1971'> +3.0487296e+02 </wgt>
<wgt id='1972'> +3.0710442e+02 </wgt>
<wgt id='1973'> +3.0723148e+02 </wgt>
<wgt id='1974'> +3.0438706e+02 </wgt>
<wgt id='1975'> +3.0493070e+02 </wgt>
<wgt id='1976'> +3.0547121e+02 </wgt>
<wgt id='1977'> +3.0697403e+02 </wgt>
<wgt id='1978'> +3.0547724e+02 </wgt>
<wgt id='1979'> +3.0536024e+02 </wgt>
<wgt id='1980'> +3.0689586e+02 </wgt>
<wgt id='1981'> +3.0599746e+02 </wgt>
<wgt id='1982'> +3.0554786e+02 </wgt>
<wgt id='1983'> +3.0640638e+02 </wgt>
<wgt id='1984'> +3.0545409e+02 </wgt>
<wgt id='1985'> +3.0628113e+02 </wgt>
<wgt id='1986'> +3.0688420e+02 </wgt>
<wgt id='1987'> +3.0348875e+02 </wgt>
<wgt id='1988'> +3.0476416e+02 </wgt>
<wgt id='1989'> +3.0712533e+02 </wgt>
<wgt id='1990'> +3.0508264e+02 </wgt>
<wgt id='1991'> +3.0697636e+02 </wgt>
<wgt id='1992'> +3.0603156e+02 </wgt>
<wgt id='1993'> +3.0672056e+02 </wgt>
<wgt id='1994'> +3.0299767e+02 </wgt>
<wgt id='1995'> +2.8399886e+02 </wgt>
<wgt id='1996'> +2.8380450e+02 </wgt>
<wgt id='1997'> +2.8415816e+02 </wgt>
<wgt id='1998'> +2.8438635e+02 </wgt>
<wgt id='1999'> +2.8357774e+02 </wgt>
<wgt id='2000'> +2.8469344e+02 </wgt>
<wgt id='2001'> +2.8327149e+02 </wgt>
<wgt id='2002'> +2.8511130e+02 </wgt>
<wgt id='2003'> +2.8287945e+02 </wgt>
<wgt id='2004'> +2.8415107e+02 </wgt>
<wgt id='2005'> +2.8382657e+02 </wgt>
<wgt id='2006'> +2.8465695e+02 </wgt>
<wgt id='2007'> +2.8330748e+02 </wgt>
<wgt id='2008'> +2.8310390e+02 </wgt>
<wgt id='2009'> +2.8485949e+02 </wgt>
<wgt id='2010'> +2.8354844e+02 </wgt>
<wgt id='2011'> +2.8424462e+02 </wgt>
<wgt id='2012'> +2.8377828e+02 </wgt>
<wgt id='2013'> +2.8411936e+02 </wgt>
<wgt id='2014'> +2.8351658e+02 </wgt>
<wgt id='2015'> +2.8441848e+02 </wgt>
<wgt id='2016'> +2.8149993e+02 </wgt>
<wgt id='2017'> +2.8604363e+02 </wgt>
<wgt id='2018'> +2.8420265e+02 </wgt>
<wgt id='2019'> +2.8372125e+02 </wgt>
<wgt id='2020'> +2.8354290e+02 </wgt>
<wgt id='2021'> +2.8369834e+02 </wgt>
<wgt id='2022'> +2.8423928e+02 </wgt>
<wgt id='2023'> +2.8404270e+02 </wgt>
<wgt id='2024'> +2.8401774e+02 </wgt>
<wgt id='2025'> +2.8390486e+02 </wgt>
<wgt id='2026'> +2.8360958e+02 </wgt>
<wgt id='2027'> +2.8377499e+02 </wgt>
<wgt id='2028'> +2.8402797e+02 </wgt>
<wgt id='2029'> +2.8382686e+02 </wgt>
<wgt id='2030'> +2.8424269e+02 </wgt>
<wgt id='2031'> +2.8299753e+02 </wgt>
<wgt id='2032'> +2.8546967e+02 </wgt>
<wgt id='2033'> +2.8311488e+02 </wgt>
<wgt id='2034'> +2.8521859e+02 </wgt>
<wgt id='2035'> +2.8331440e+02 </wgt>
<wgt id='2036'> +2.8612231e+02 </wgt>
<wgt id='2037'> +2.8204907e+02 </wgt>
<wgt id='2038'> +2.8519769e+02 </wgt>
<wgt id='2039'> +2.8515035e+02 </wgt>
<wgt id='2040'> +2.8510256e+02 </wgt>
<wgt id='2041'> +2.8505419e+02 </wgt>
<wgt id='2042'> +2.8500663e+02 </wgt>
<wgt id='2043'> +2.8495929e+02 </wgt>
<wgt id='2044'> +2.8491175e+02 </wgt>
<wgt id='2045'> +2.8486414e+02 </wgt>
<wgt id='2046'> +2.8481588e+02 </wgt>
<wgt id='2047'> +2.8476874e+02 </wgt>
<wgt id='2048'> +2.8472097e+02 </wgt>
<wgt id='2049'> +2.8467344e+02 </wgt>
<wgt id='2050'> +2.8462550e+02 </wgt>
<wgt id='2051'> +2.8457849e+02 </wgt>
<wgt id='2052'> +2.8453056e+02 </wgt>
<wgt id='2053'> +2.8448266e+02 </wgt>
<wgt id='2054'> +2.8443539e+02 </wgt>
<wgt id='2055'> +2.8438735e+02 </wgt>
<wgt id='2056'> +2.8434021e+02 </wgt>
<wgt id='2057'> +2.8429211e+02 </wgt>
<wgt id='2058'> +2.8424486e+02 </wgt>
<wgt id='2059'> +2.8419746e+02 </wgt>
<wgt id='2060'> +2.8414952e+02 </wgt>
<wgt id='2061'> +2.8410184e+02 </wgt>
<wgt id='2062'> +2.8405436e+02 </wgt>
<wgt id='2063'> +2.8400718e+02 </wgt>
<wgt id='2064'> +2.8396007e+02 </wgt>
<wgt id='2065'> +2.8391136e+02 </wgt>
<wgt id='2066'> +2.8386411e+02 </wgt>
<wgt id='2067'> +2.8381672e+02 </wgt>
<wgt id='2068'> +2.8376867e+02 </wgt>
<wgt id='2069'> +2.7748930e+02 </wgt>
<wgt id='2070'> +2.7801549e+02 </wgt>
<wgt id='2071'> +2.7887495e+02 </wgt>
<wgt id='2072'> +2.7506288e+02 </wgt>
<wgt id='2073'> +2.7694950e+02 </wgt>
<wgt id='2074'> +2.7877338e+02 </wgt>
<wgt id='2075'> +2.7679500e+02 </wgt>
<wgt id='2076'> +2.7785589e+02 </wgt>
<wgt id='2077'> +2.7820547e+02 </wgt>
<wgt id='2078'> +2.7729316e+02 </wgt>
<wgt id='2079'> +2.7717538e+02 </wgt>
<wgt id='2080'> +2.8038106e+02 </wgt>
<wgt id='2081'> +2.7367392e+02 </wgt>
<wgt id='2082'> +2.7384354e+02 </wgt>
<wgt id='2083'> +2.7419860e+02 </wgt>
<wgt id='2084'> +2.7718366e+02 </wgt>
<wgt id='2085'> +2.7845056e+02 </wgt>
<wgt id='2086'> +2.7770599e+02 </wgt>
<wgt id='2087'> +2.7738854e+02 </wgt>
<wgt id='2088'> +2.7717695e+02 </wgt>
<wgt id='2089'> +2.7864363e+02 </wgt>
<wgt id='2090'> +2.7739145e+02 </wgt>
<wgt id='2091'> +2.7780856e+02 </wgt>
<wgt id='2092'> +2.7717062e+02 </wgt>
<wgt id='2093'> +2.7708843e+02 </wgt>
<wgt id='2094'> +2.7783058e+02 </wgt>
<wgt id='2095'> +2.7758653e+02 </wgt>
<wgt id='2096'> +2.7718987e+02 </wgt>
<wgt id='2097'> +2.7773916e+02 </wgt>
<wgt id='2098'> +2.7775356e+02 </wgt>
<wgt id='2099'> +2.7761860e+02 </wgt>
<wgt id='2100'> +2.7746624e+02 </wgt>
<wgt id='2101'> +2.7767192e+02 </wgt>
<wgt id='2102'> +2.7785516e+02 </wgt>
<wgt id='2103'> +2.7730072e+02 </wgt>
<wgt id='2104'> +2.7799019e+02 </wgt>
<wgt id='2105'> +2.7745397e+02 </wgt>
<wgt id='2106'> +2.7776200e+02 </wgt>
<wgt id='2107'> +2.7746829e+02 </wgt>
<wgt id='2108'> +2.7750243e+02 </wgt>
<wgt id='2109'> +2.7712785e+02 </wgt>
<wgt id='2110'> +2.7734031e+02 </wgt>
<wgt id='2111'> +2.7741632e+02 </wgt>
<wgt id='2112'> +2.7728345e+02 </wgt>
<wgt id='2113'> +2.7757215e+02 </wgt>
<wgt id='2114'> +2.7741573e+02 </wgt>
<wgt id='2115'> +2.7709640e+02 </wgt>
<wgt id='2116'> +2.7732253e+02 </wgt>
<wgt id='2117'> +2.7758616e+02 </wgt>
<wgt id='2118'> +2.7734768e+02 </wgt>
<wgt id='2119'> +2.7755941e+02 </wgt>
<wgt id='2120'> +2.7757531e+02 </wgt>
<wgt id='2121'> +2.7754238e+02 </wgt>
<wgt id='2122'> +2.7753335e+02 </wgt>
<wgt id='2123'> +2.7734600e+02 </wgt>
<wgt id='2124'> +2.7744594e+02 </wgt>
<wgt id='2125'> +2.7774668e+02 </wgt>
<wgt id='2126'> +2.7746190e+02 </wgt>
<wgt id='2127'> +2.7731326e+02 </wgt>
<wgt id='2128'> +2.7737623e+02 </wgt>
<wgt id='2129'> +2.7741144e+02 </wgt>
<wgt id='2130'> +2.7753344e+02 </wgt>
<wgt id='2131'> +2.7753182e+02 </wgt>
<wgt id='2132'> +2.7760732e+02 </wgt>
<wgt id='2133'> +2.7743046e+02 </wgt>
<wgt id='2134'> +2.7748220e+02 </wgt>
<wgt id='2135'> +2.7750922e+02 </wgt>
<wgt id='2136'> +2.7757471e+02 </wgt>
<wgt id='2137'> +2.7757483e+02 </wgt>
<wgt id='2138'> +2.7763106e+02 </wgt>
<wgt id='2139'> +2.7745951e+02 </wgt>
<wgt id='2140'> +2.7764570e+02 </wgt>
<wgt id='2141'> +2.7764659e+02 </wgt>
<wgt id='2142'> +2.7741387e+02 </wgt>
<wgt id='2143'> +2.7752775e+02 </wgt>
<wgt id='2144'> +2.7747397e+02 </wgt>
<wgt id='2145'> +2.7746968e+02 </wgt>
<wgt id='2146'> +2.7752770e+02 </wgt>
<wgt id='2147'> +2.7751418e+02 </wgt>
<wgt id='2148'> +2.7744515e+02 </wgt>
<wgt id='2149'> +2.7765866e+02 </wgt>
<wgt id='2150'> +2.7746398e+02 </wgt>
<wgt id='2151'> +2.7755059e+02 </wgt>
<wgt id='2152'> +2.7740511e+02 </wgt>
<wgt id='2153'> +2.7741656e+02 </wgt>
<wgt id='2154'> +2.7742579e+02 </wgt>
<wgt id='2155'> +2.7752281e+02 </wgt>
<wgt id='2156'> +2.7733156e+02 </wgt>
<wgt id='2157'> +2.7743350e+02 </wgt>
<wgt id='2158'> +2.7742916e+02 </wgt>
<wgt id='2159'> +2.7753067e+02 </wgt>
<wgt id='2160'> +2.7746350e+02 </wgt>
<wgt id='2161'> +2.7748171e+02 </wgt>
<wgt id='2162'> +2.7744812e+02 </wgt>
<wgt id='2163'> +2.7747065e+02 </wgt>
<wgt id='2164'> +2.7751962e+02 </wgt>
<wgt id='2165'> +2.7743715e+02 </wgt>
<wgt id='2166'> +2.7750626e+02 </wgt>
<wgt id='2167'> +2.7748881e+02 </wgt>
<wgt id='2168'> +2.7743154e+02 </wgt>
<wgt id='2169'> +2.7748313e+02 </wgt>
<wgt id='2170'> +2.7748592e+02 </wgt>
<wgt id='2171'> +2.7746709e+02 </wgt>
<wgt id='2172'> +2.7749283e+02 </wgt>
<wgt id='2173'> +2.7749340e+02 </wgt>
<wgt id='2174'> +2.7749958e+02 </wgt>
<wgt id='2175'> +2.7749080e+02 </wgt>
<wgt id='2176'> +2.7747448e+02 </wgt>
<wgt id='2177'> +2.8374856e+02 </wgt>
<wgt id='2178'> +2.5809482e+02 </wgt>
<wgt id='2179'> +2.8587275e+02 </wgt>
<wgt id='2180'> +2.8196978e+02 </wgt>
<wgt id='2181'> +2.8022066e+02 </wgt>
<wgt id='2182'> +2.4869133e+02 </wgt>
<wgt id='2183'> +2.8400779e+02 </wgt>
<wgt id='2184'> +2.8857092e+02 </wgt>
<wgt id='2185'> +2.8184564e+02 </wgt>
<wgt id='2186'> +2.8349827e+02 </wgt>
<wgt id='2187'> +2.7670390e+02 </wgt>
<wgt id='2188'> +2.8149997e+02 </wgt>
<wgt id='2189'> +2.8858738e+02 </wgt>
<wgt id='2190'> +2.8855804e+02 </wgt>
<wgt id='2191'> +2.7669084e+02 </wgt>
<wgt id='2192'> +2.8446421e+02 </wgt>
<wgt id='2193'> +2.8873485e+02 </wgt>
<wgt id='2194'> +2.7895168e+02 </wgt>
<wgt id='2195'> +2.8041546e+02 </wgt>
<wgt id='2196'> +2.8616690e+02 </wgt>
<wgt id='2197'> +2.8664343e+02 </wgt>
<wgt id='2198'> +2.8519786e+02 </wgt>
<wgt id='2199'> +2.8267677e+02 </wgt>
<wgt id='2200'> +3.0597510e+02 </wgt>
<wgt id='2201'> +2.8112276e+02 </wgt>
<wgt id='2202'> +2.8810332e+02 </wgt>
<wgt id='2203'> +2.7798552e+02 </wgt>
<wgt id='2204'> +2.8089471e+02 </wgt>
<wgt id='2205'> +2.8194784e+02 </wgt>
<wgt id='2206'> +2.7973721e+02 </wgt>
<wgt id='2207'> +2.8911149e+02 </wgt>
<wgt id='2208'> +2.8281786e+02 </wgt>
<wgt id='2209'> +2.7664185e+02 </wgt>
<wgt id='2210'> +2.9097448e+02 </wgt>
<wgt id='2211'> +2.8623613e+02 </wgt>
<wgt id='2212'> +2.9269387e+02 </wgt>
<wgt id='2213'> +2.9180704e+02 </wgt>
<wgt id='2214'> +2.8678721e+02 </wgt>
<wgt id='2215'> +2.8062293e+02 </wgt>
<wgt id='2216'> +2.7257596e+02 </wgt>
<wgt id='2217'> +2.8831229e+02 </wgt>
<wgt id='2218'> +2.8213535e+02 </wgt>
<wgt id='2219'> +2.8893131e+02 </wgt>
<wgt id='2220'> +2.8742084e+02 </wgt>
<wgt id='2221'> +2.8172569e+02 </wgt>
<wgt id='2222'> +2.8965456e+02 </wgt>
<wgt id='2223'> +2.8530670e+02 </wgt>
<wgt id='2224'> +2.7881764e+02 </wgt>
<wgt id='2225'> +2.7793835e+02 </wgt>
<wgt id='2226'> +2.8659879e+02 </wgt>
<wgt id='2227'> +2.8491648e+02 </wgt>
<wgt id='2228'> +2.8399877e+02 </wgt>
<wgt id='2229'> +2.8338364e+02 </wgt>
<wgt id='2230'> +2.8926478e+02 </wgt>
<wgt id='2231'> +2.8384400e+02 </wgt>
<wgt id='2232'> +2.8458010e+02 </wgt>
<wgt id='2233'> +2.7569304e+02 </wgt>
<wgt id='2234'> +2.9502466e+02 </wgt>
<wgt id='2235'> +2.8165719e+02 </wgt>
<wgt id='2236'> +2.8745922e+02 </wgt>
<wgt id='2237'> +2.8271612e+02 </wgt>
<wgt id='2238'> +2.8675022e+02 </wgt>
<wgt id='2239'> +2.8430390e+02 </wgt>
<wgt id='2240'> +2.8918229e+02 </wgt>
<wgt id='2241'> +2.8046262e+02 </wgt>
<wgt id='2242'> +2.8758478e+02 </wgt>
<wgt id='2243'> +2.8532953e+02 </wgt>
<wgt id='2244'> +2.9737693e+02 </wgt>
<wgt id='2245'> +2.7980674e+02 </wgt>
<wgt id='2246'> +2.7741189e+02 </wgt>
<wgt id='2247'> +2.8489903e+02 </wgt>
<wgt id='2248'> +2.9129337e+02 </wgt>
<wgt id='2249'> +2.8161725e+02 </wgt>
<wgt id='2250'> +2.6236287e+02 </wgt>
<wgt id='2251'> +2.8669511e+02 </wgt>
<wgt id='2252'> +2.8066014e+02 </wgt>
<wgt id='2253'> +2.7697080e+02 </wgt>
<wgt id='2254'> +2.8679768e+02 </wgt>
<wgt id='2255'> +2.9509219e+02 </wgt>
<wgt id='2256'> +2.8224690e+02 </wgt>
<wgt id='2257'> +2.8628301e+02 </wgt>
<wgt id='2258'> +2.8588128e+02 </wgt>
<wgt id='2259'> +2.8082335e+02 </wgt>
<wgt id='2260'> +2.8355682e+02 </wgt>
<wgt id='2261'> +2.8476733e+02 </wgt>
<wgt id='2262'> +2.7564637e+02 </wgt>
<wgt id='2263'> +2.8311325e+02 </wgt>
<wgt id='2264'> +2.8338885e+02 </wgt>
<wgt id='2265'> +2.8415345e+02 </wgt>
<wgt id='2266'> +2.8860125e+02 </wgt>
<wgt id='2267'> +2.8292890e+02 </wgt>
<wgt id='2268'> +2.7474954e+02 </wgt>
<wgt id='2269'> +2.9121736e+02 </wgt>
<wgt id='2270'> +2.8100790e+02 </wgt>
<wgt id='2271'> +2.9120649e+02 </wgt>
<wgt id='2272'> +2.7899953e+02 </wgt>
<wgt id='2273'> +2.8800467e+02 </wgt>
<wgt id='2274'> +2.8516406e+02 </wgt>
<wgt id='2275'> +2.9620344e+02 </wgt>
<wgt id='2276'> +2.9120739e+02 </wgt>
<wgt id='2277'> +2.8212108e+02 </wgt>
<wgt id='2278'> +2.7896181e+02 </wgt>
<wgt id='2279'> +2.8587778e+02 </wgt>
<wgt id='2280'> +2.8200191e+02 </wgt>
<wgt id='2281'> +3.3696646e+02 </wgt>
<wgt id='2282'> +4.0517190e+02 </wgt>
<wgt id='2283'> +3.2950658e+02 </wgt>
<wgt id='2284'> +3.9272374e+02 </wgt>
</rwgt>
</event>
<event npLO=" -1 " npNLO=" 2 ">
 5      2 +2.8781417e+02 1.48538450e+01 7.54677110e-03 1.20939100e-01
       21 -1    0    0  502  501 +0.0000000000e+00 +0.0000000000e+00 +2.5029172000e+02 2.5029172000e+02 0.0000000000e+00 0.0000e+00 9.0000e+00
       21 -1    0    0  503  502 +0.0000000000e+00 +0.0000000000e+00 -5.8651384000e+02 5.8651384000e+02 0.0000000000e+00 0.0000e+00 9.0000e+00
       25  1    1    2    0    0 +4.8647544000e+01 +1.8051974000e+01 +2.3536344000e+02 2.6093755000e+02 1.0000000000e+02 0.0000e+00 9.0000e+00
       21  1    1    2  503  504 -3.3919027000e+01 -1.6126490000e+01 -5.3590021000e+02 5.3721467000e+02 0.0000000000e+00 0.0000e+00 9.0000e+00
       21  1    1    2  504  501 -1.4728517000e+01 -1.9254837000e+00 -3.5685347000e+01 3.8653340000e+01 0.0000000000e+00 0.0000e+00 9.0000e+00
#aMCatNLO 1  0  0  1  4 0.28078893E+02 0.00000000E+00 -9  6  0 0.00000000E+00 0.00000000E+00 0.00000000E+00 0.00000000E+00 0.00000000E+00
<rwgt>
<wgt id='1001'> +2.8781417e+02 </wgt>
<wgt id='1002'> +2.0535917e+02 </wgt>
<wgt id='1003'> +4.1084980e+02 </wgt>
<wgt id='1004'> +2.6155914e+02 </wgt>
<wgt id='1005'> +1.8637833e+02 </wgt>
<wgt id='1006'> +3.7414732e+02 </wgt>
<wgt id='1007'> +3.1744819e+02 </wgt>
<wgt id='1008'> +2.2680834e+02 </wgt>
<wgt id='1009'> +4.5219584e+02 </wgt>
<wgt id='1010'> +2.8781417e+02 </wgt>
<wgt id='1011'> +2.8754137e+02 </wgt>
<wgt id='1012'> +2.8711547e+02 </wgt>
<wgt id='1013'> +2.8801839e+02 </wgt>
<wgt id='1014'> +2.8825734e+02 </wgt>
<wgt id='1015'> +2.8762473e+02 </wgt>
<wgt id='1016'> +2.8838890e+02 </wgt>
<wgt id='1017'> +2.8760231e+02 </wgt>
<wgt id='1018'> +2.8822495e+02 </wgt>
<wgt id='1019'> +2.8755356e+02 </wgt>
<wgt id='1020'> +2.8768367e+02 </wgt>
<wgt id='1021'> +2.8789935e+02 </wgt>
<wgt id='1022'> +2.8784338e+02 </wgt>
<wgt id='1023'> +2.8863797e+02 </wgt>
<wgt id='1024'> +2.8890489e+02 </wgt>
<wgt id='1025'> +2.8847530e+02 </wgt>
<wgt id='1026'> +2.8850936e+02 </wgt>
<wgt id='1027'> +2.8873935e+02 </wgt>
<wgt id='1028'> +2.8705736e+02 </wgt>
<wgt id='1029'> +2.8703673e+02 </wgt>
<wgt id='1030'> +2.8786439e+02 </wgt>
<wgt id='1031'> +2.8698866e+02 </wgt>
<wgt id='1032'> +2.8766329e+02 </wgt>
<wgt id='1033'> +2.8853162e+02 </wgt>
<wgt id='1034'> +2.8717770e+02 </wgt>
<wgt id='1035'> +2.8761593e+02 </wgt>
<wgt id='1036'> +2.8699778e+02 </wgt>
<wgt id='1037'> +2.8661351e+02 </wgt>
<wgt id='1038'> +2.8852154e+02 </wgt>
<wgt id='1039'> +2.8632954e+02 </wgt>
<wgt id='1040'> +2.8799813e+02 </wgt>
<wgt id='1041'> +2.8639873e+02 </wgt>
<wgt id='1042'> +2.8800053e+02 </wgt>
<wgt id='1043'> +2.8729636e+02 </wgt>
<wgt id='1044'> +2.8699659e+02 </wgt>
<wgt id='1045'> +2.8780301e+02 </wgt>
<wgt id='1046'> +2.8858558e+02 </wgt>
<wgt id='1047'> +2.8777614e+02 </wgt>
<wgt id='1048'> +2.8747706e+02 </wgt>
<wgt id='1049'> +2.8763585e+02 </wgt>
<wgt id='1050'> +2.8774858e+02 </wgt>
<wgt id='1051'> +2.8759057e+02 </wgt>
<wgt id='1052'> +2.8825427e+02 </wgt>
<wgt id='1053'> +2.8742013e+02 </wgt>
<wgt id='1054'> +2.8821431e+02 </wgt>
<wgt id='1055'> +2.8773208e+02 </wgt>
<wgt id='1056'> +2.8786380e+02 </wgt>
<wgt id='1057'> +2.8779522e+02 </wgt>
<wgt id='1058'> +2.8774646e+02 </wgt>
<wgt id='1059'> +2.8753313e+02 </wgt>
<wgt id='1060'> +2.8766758e+02 </wgt>
<wgt id='1061'> +2.8771914e+02 </wgt>
<wgt id='1062'> +2.8811003e+02 </wgt>
<wgt id='1063'> +2.8777821e+02 </wgt>
<wgt id='1064'> +2.8781579e+02 </wgt>
<wgt id='1065'> +2.8788622e+02 </wgt>
<wgt id='1066'> +2.8752579e+02 </wgt>
<wgt id='1067'> +2.8795228e+02 </wgt>
<wgt id='1068'> +2.8791710e+02 </wgt>
<wgt id='1069'> +2.8776469e+02 </wgt>
<wgt id='1070'> +2.8784390e+02 </wgt>
<wgt id='1071'> +2.8770234e+02 </wgt>
<wgt id='1072'> +2.8808305e+02 </wgt>
<wgt id='1073'> +2.8787686e+02 </wgt>
<wgt id='1074'> +2.8785219e+02 </wgt>
<wgt id='1075'> +2.8815622e+02 </wgt>
<wgt id='1076'> +2.8774312e+02 </wgt>
<wgt id='1077'> +2.8788657e+02 </wgt>
<wgt id='1078'> +2.8785187e+02 </wgt>
<wgt id='1079'> +2.8782405e+02 </wgt>
<wgt id='1080'> +2.8784307e+02 </wgt>
<wgt id='1081'> +2.8778560e+02 </wgt>
<wgt id='1082'> +2.8781083e+02 </wgt>
<wgt id='1083'> +2.8787167e+02 </wgt>
<wgt id='1084'> +2.8776261e+02 </wgt>
<wgt id='1085'> +2.8775376e+02 </wgt>
<wgt id='1086'> +2.8773607e+02 </wgt>
<wgt id='1087'> +2.8799679e+02 </wgt>
<wgt id='1088'> +2.8787104e+02 </wgt>
<wgt id='1089'> +2.8774889e+02 </wgt>
<wgt id='1090'> +2.8787035e+02 </wgt>
<wgt id='1091'> +2.8777997e+02 </wgt>
<wgt id='1092'> +2.8785367e+02 </wgt>
<wgt id='1093'> +2.8794556e+02 </wgt>
<wgt id='1094'> +2.8783324e+02 </wgt>
<wgt id='1095'> +2.8782810e+02 </wgt>
<wgt id='1096'> +2.8774117e+02 </wgt>
<wgt id='1097'> +2.8787447e+02 </wgt>
<wgt id='1098'> +2.8778017e+02 </wgt>
<wgt id='1099'> +2.8775863e+02 </wgt>
<wgt id='1100'> +2.8787465e+02 </wgt>
<wgt id='1101'> +2.8780742e+02 </wgt>
<wgt id='1102'> +2.8788630e+02 </wgt>
<wgt id='1103'> +2.8774745e+02 </wgt>
<wgt id='1104'> +2.8784475e+02 </wgt>
<wgt id='1105'> +2.8789659e+02 </wgt>
<wgt id='1106'> +2.8777626e+02 </wgt>
<wgt id='1107'> +2.8786641e+02 </wgt>
<wgt id='1108'> +2.8779157e+02 </wgt>
<wgt id='1109'> +2.8787247e+02 </wgt>
<wgt id='1110'> +2.8781417e+02 </wgt>
<wgt id='1111'> +2.6643611e+02 </wgt>
<wgt id='1112'> +3.1191462e+02 </wgt>
<wgt id='1113'> +2.8781417e+02 </wgt>
<wgt id='1114'> +2.8858709e+02 </wgt>
<wgt id='1115'> +2.8344471e+02 </wgt>
<wgt id='1116'> +2.8582384e+02 </wgt>
<wgt id='1117'> +2.9207233e+02 </wgt>
<wgt id='1118'> +2.8804329e+02 </wgt>
<wgt id='1119'> +2.9811906e+02 </wgt>
<wgt id='1120'> +2.8579311e+02 </wgt>
<wgt id='1121'> +2.8498160e+02 </wgt>
<wgt id='1122'> +2.8761228e+02 </wgt>
<wgt id='1123'> +2.9464608e+02 </wgt>
<wgt id='1124'> +2.8986800e+02 </wgt>
<wgt id='1125'> +2.9281390e+02 </wgt>
<wgt id='1126'> +2.8261342e+02 </wgt>
<wgt id='1127'> +2.8772623e+02 </wgt>
<wgt id='1128'> +2.8271476e+02 </wgt>
<wgt id='1129'> +2.8941060e+02 </wgt>
<wgt id='1130'> +2.9395074e+02 </wgt>
<wgt id='1131'> +2.8883069e+02 </wgt>
<wgt id='1132'> +2.7928494e+02 </wgt>
<wgt id='1133'> +2.8232112e+02 </wgt>
<wgt id='1134'> +2.8008720e+02 </wgt>
<wgt id='1135'> +2.7756572e+02 </wgt>
<wgt id='1136'> +2.8087834e+02 </wgt>
<wgt id='1137'> +2.8657417e+02 </wgt>
<wgt id='1138'> +2.8329682e+02 </wgt>
<wgt id='1139'> +2.8299210e+02 </wgt>
<wgt id='1140'> +2.8028854e+02 </wgt>
<wgt id='1141'> +2.8991654e+02 </wgt>
<wgt id='1142'> +2.9177128e+02 </wgt>
<wgt id='1143'> +2.9217927e+02 </wgt>
<wgt id='1144'> +2.8849976e+02 </wgt>
<wgt id='1145'> +2.9290747e+02 </wgt>
<wgt id='1146'> +2.8481869e+02 </wgt>
<wgt id='1147'> +2.9459943e+02 </wgt>
<wgt id='1148'> +2.8357873e+02 </wgt>
<wgt id='1149'> +2.8512576e+02 </wgt>
<wgt id='1150'> +2.8281714e+02 </wgt>
<wgt id='1151'> +2.8782445e+02 </wgt>
<wgt id='1152'> +2.8588841e+02 </wgt>
<wgt id='1153'> +2.8947199e+02 </wgt>
<wgt id='1154'> +2.8878552e+02 </wgt>
<wgt id='1155'> +2.9328113e+02 </wgt>
<wgt id='1156'> +2.9027163e+02 </wgt>
<wgt id='1157'> +2.9202334e+02 </wgt>
<wgt id='1158'> +2.8928180e+02 </wgt>
<wgt id='1159'> +2.9043990e+02 </wgt>
<wgt id='1160'> +2.8827909e+02 </wgt>
<wgt id='1161'> +2.8708956e+02 </wgt>
<wgt id='1162'> +2.8343600e+02 </wgt>
<wgt id='1163'> +2.8766038e+02 </wgt>
<wgt id='1164'> +2.8768488e+02 </wgt>
<wgt id='1165'> +2.8177969e+02 </wgt>
<wgt id='1166'> +2.8632097e+02 </wgt>
<wgt id='1167'> +2.8664363e+02 </wgt>
<wgt id='1168'> +2.8601142e+02 </wgt>
<wgt id='1169'> +2.8791064e+02 </wgt>
<wgt id='1170'> +2.8407402e+02 </wgt>
<wgt id='1171'> +2.8425244e+02 </wgt>
<wgt id='1172'> +2.8872751e+02 </wgt>
<wgt id='1173'> +2.8696200e+02 </wgt>
<wgt id='1174'> +2.8751942e+02 </wgt>
<wgt id='1175'> +2.8711502e+02 </wgt>
<wgt id='1176'> +2.8159661e+02 </wgt>
<wgt id='1177'> +2.9012554e+02 </wgt>
<wgt id='1178'> +2.8405655e+02 </wgt>
<wgt id='1179'> +2.9242771e+02 </wgt>
<wgt id='1180'> +2.8415741e+02 </wgt>
<wgt id='1181'> +2.8750721e+02 </wgt>
<wgt id='1182'> +2.8898793e+02 </wgt>
<wgt id='1183'> +2.8766993e+02 </wgt>
<wgt id='1184'> +2.8707303e+02 </wgt>
<wgt id='1185'> +2.7948453e+02 </wgt>
<wgt id='1186'> +2.9055029e+02 </wgt>
<wgt id='1187'> +2.8585470e+02 </wgt>
<wgt id='1188'> +2.9297770e+02 </wgt>
<wgt id='1189'> +2.9236629e+02 </wgt>
<wgt id='1190'> +2.8773682e+02 </wgt>
<wgt id='1191'> +2.8414853e+02 </wgt>
<wgt id='1192'> +2.8541828e+02 </wgt>
<wgt id='1193'> +2.9417134e+02 </wgt>
<wgt id='1194'> +2.8675050e+02 </wgt>
<wgt id='1195'> +2.8941060e+02 </wgt>
<wgt id='1196'> +2.9086162e+02 </wgt>
<wgt id='1197'> +2.8668163e+02 </wgt>
<wgt id='1198'> +2.8887127e+02 </wgt>
<wgt id='1199'> +2.9060035e+02 </wgt>
<wgt id='1200'> +2.8845170e+02 </wgt>
<wgt id='1201'> +2.9671300e+02 </wgt>
<wgt id='1202'> +2.9971863e+02 </wgt>
<wgt id='1203'> +2.9475068e+02 </wgt>
<wgt id='1204'> +2.8806162e+02 </wgt>
<wgt id='1205'> +2.9093391e+02 </wgt>
<wgt id='1206'> +2.8854382e+02 </wgt>
<wgt id='1207'> +2.9043524e+02 </wgt>
<wgt id='1208'> +2.9196177e+02 </wgt>
<wgt id='1209'> +2.8432156e+02 </wgt>
<wgt id='1210'> +2.9120252e+02 </wgt>
<wgt id='1211'> +2.9212755e+02 </wgt>
<wgt id='1212'> +2.8347842e+02 </wgt>
<wgt id='1213'> +2.8487823e+02 </wgt>
<wgt id='1214'> +2.8840555e+02 </wgt>
<wgt id='1215'> +2.8817174e+02 </wgt>
<wgt id='1216'> +2.8851423e+02 </wgt>
<wgt id='1217'> +2.8834847e+02 </wgt>
<wgt id='1218'> +2.8928710e+02 </wgt>
<wgt id='1219'> +2.8831510e+02 </wgt>
<wgt id='1220'> +2.8768634e+02 </wgt>
<wgt id='1221'> +2.8810835e+02 </wgt>
<wgt id='1222'> +2.8765493e+02 </wgt>
<wgt id='1223'> +2.8879161e+02 </wgt>
<wgt id='1224'> +2.8834755e+02 </wgt>
<wgt id='1225'> +2.8724025e+02 </wgt>
<wgt id='1226'> +2.8786942e+02 </wgt>
<wgt id='1227'> +2.8716276e+02 </wgt>
<wgt id='1228'> +2.8830556e+02 </wgt>
<wgt id='1229'> +2.8839169e+02 </wgt>
<wgt id='1230'> +2.8890651e+02 </wgt>
<wgt id='1231'> +2.8817475e+02 </wgt>
<wgt id='1232'> +2.8797039e+02 </wgt>
<wgt id='1233'> +2.8856433e+02 </wgt>
<wgt id='1234'> +2.8831060e+02 </wgt>
<wgt id='1235'> +2.8849561e+02 </wgt>
<wgt id='1236'> +2.8821214e+02 </wgt>
<wgt id='1237'> +2.8890212e+02 </wgt>
<wgt id='1238'> +2.8759213e+02 </wgt>
<wgt id='1239'> +2.8869035e+02 </wgt>
<wgt id='1240'> +2.8938013e+02 </wgt>
<wgt id='1241'> +2.8768700e+02 </wgt>
<wgt id='1242'> +2.8753075e+02 </wgt>
<wgt id='1243'> +2.9064480e+02 </wgt>
<wgt id='1244'> +2.8847438e+02 </wgt>
<wgt id='1245'> +2.8884305e+02 </wgt>
<wgt id='1246'> +2.8833438e+02 </wgt>
<wgt id='1247'> +2.8860235e+02 </wgt>
<wgt id='1248'> +2.8939427e+02 </wgt>
<wgt id='1249'> +2.8808781e+02 </wgt>
<wgt id='1250'> +2.8825325e+02 </wgt>
<wgt id='1251'> +2.8924564e+02 </wgt>
<wgt id='1252'> +2.8825767e+02 </wgt>
<wgt id='1253'> +2.8771637e+02 </wgt>
<wgt id='1254'> +2.8807424e+02 </wgt>
<wgt id='1255'> +2.8793602e+02 </wgt>
<wgt id='1256'> +2.8784708e+02 </wgt>
<wgt id='1257'> +2.8863426e+02 </wgt>
<wgt id='1258'> +2.8900667e+02 </wgt>
<wgt id='1259'> +2.8815787e+02 </wgt>
<wgt id='1260'> +2.8909077e+02 </wgt>
<wgt id='1261'> +2.8902378e+02 </wgt>
<wgt id='1262'> +2.8818530e+02 </wgt>
<wgt id='1263'> +2.8832051e+02 </wgt>
<wgt id='1264'> +2.8883990e+02 </wgt>
<wgt id='1265'> +2.8879369e+02 </wgt>
<wgt id='1266'> +2.8812682e+02 </wgt>
<wgt id='1267'> +2.8838580e+02 </wgt>
<wgt id='1268'> +2.8859139e+02 </wgt>
<wgt id='1269'> +2.8854888e+02 </wgt>
<wgt id='1270'> +2.8841938e+02 </wgt>
<wgt id='1271'> +2.8834239e+02 </wgt>
<wgt id='1272'> +2.8851366e+02 </wgt>
<wgt id='1273'> +2.8832166e+02 </wgt>
<wgt id='1274'> +2.8849755e+02 </wgt>
<wgt id='1275'> +2.8838829e+02 </wgt>
<wgt id='1276'> +2.8854409e+02 </wgt>
<wgt id='1277'> +2.8826476e+02 </wgt>
<wgt id='1278'> +2.8827868e+02 </wgt>
<wgt id='1279'> +2.8846803e+02 </wgt>
<wgt id='1280'> +2.8826137e+02 </wgt>
<wgt id='1281'> +2.8846294e+02 </wgt>
<wgt id='1282'> +2.8853044e+02 </wgt>
<wgt id='1283'> +2.8842114e+02 </wgt>
<wgt id='1284'> +2.8834502e+02 </wgt>
<wgt id='1285'> +2.8812478e+02 </wgt>
<wgt id='1286'> +2.8843839e+02 </wgt>
<wgt id='1287'> +2.8841001e+02 </wgt>
<wgt id='1288'> +2.8816020e+02 </wgt>
<wgt id='1289'> +2.8843271e+02 </wgt>
<wgt id='1290'> +2.8836642e+02 </wgt>
<wgt id='1291'> +2.8829967e+02 </wgt>
<wgt id='1292'> +2.8847184e+02 </wgt>
<wgt id='1293'> +2.8852759e+02 </wgt>
<wgt id='1294'> +2.8833040e+02 </wgt>
<wgt id='1295'> +2.8846207e+02 </wgt>
<wgt id='1296'> +2.8845697e+02 </wgt>
<wgt id='1297'> +2.8836002e+02 </wgt>
<wgt id='1298'> +2.8836876e+02 </wgt>
<wgt id='1299'> +2.8828129e+02 </wgt>
<wgt id='1300'> +2.8845186e+02 </wgt>
<wgt id='1301'> +2.8841984e+02 </wgt>
<wgt id='1302'> +2.8844747e+02 </wgt>
<wgt id='1303'> +2.8851511e+02 </wgt>
<wgt id='1304'> +2.8847251e+02 </wgt>
<wgt id='1305'> +2.8832587e+02 </wgt>
<wgt id='1306'> +2.8839929e+02 </wgt>
<wgt id='1307'> +2.8840144e+02 </wgt>
<wgt id='1308'> +2.8835174e+02 </wgt>
<wgt id='1309'> +2.8835838e+02 </wgt>
<wgt id='1310'> +2.8838113e+02 </wgt>
<wgt id='1311'> +2.8852113e+02 </wgt>
<wgt id='1312'> +2.8831226e+02 </wgt>
<wgt id='1313'> +2.8851536e+02 </wgt>
<wgt id='1314'> +2.8835886e+02 </wgt>
<wgt id='1315'> +2.6643611e+02 </wgt>
<wgt id='1316'> +3.1191462e+02 </wgt>
<wgt id='1317'> +1.9316038e+02 </wgt>
<wgt id='1318'> +2.1023148e+02 </wgt>
<wgt id='1319'> +2.2783175e+02 </wgt>
<wgt id='1320'> +2.4590417e+02 </wgt>
<wgt id='1321'> +2.7747763e+02 </wgt>
<wgt id='1322'> +3.0008074e+02 </wgt>
<wgt id='1323'> +3.3523525e+02 </wgt>
<wgt id='1324'> +3.6088237e+02 </wgt>
<wgt id='1325'> +2.9365248e+02 </wgt>
<wgt id='1326'> +2.9382569e+02 </wgt>
<wgt id='1327'> +2.9355478e+02 </wgt>
<wgt id='1328'> +2.9334713e+02 </wgt>
<wgt id='1329'> +2.9451892e+02 </wgt>
<wgt id='1330'> +2.9356649e+02 </wgt>
<wgt id='1331'> +2.9333396e+02 </wgt>
<wgt id='1332'> +2.9396872e+02 </wgt>
<wgt id='1333'> +2.9373996e+02 </wgt>
<wgt id='1334'> +2.9440744e+02 </wgt>
<wgt id='1335'> +2.9337962e+02 </wgt>
<wgt id='1336'> +2.9292886e+02 </wgt>
<wgt id='1337'> +2.9346592e+02 </wgt>
<wgt id='1338'> +2.9447736e+02 </wgt>
<wgt id='1339'> +2.9344337e+02 </wgt>
<wgt id='1340'> +2.9292497e+02 </wgt>
<wgt id='1341'> +2.9373857e+02 </wgt>
<wgt id='1342'> +2.9327618e+02 </wgt>
<wgt id='1343'> +2.9396208e+02 </wgt>
<wgt id='1344'> +2.9418938e+02 </wgt>
<wgt id='1345'> +2.9382161e+02 </wgt>
<wgt id='1346'> +2.9393331e+02 </wgt>
<wgt id='1347'> +2.9363608e+02 </wgt>
<wgt id='1348'> +2.9358326e+02 </wgt>
<wgt id='1349'> +2.9333756e+02 </wgt>
<wgt id='1350'> +2.9407355e+02 </wgt>
<wgt id='1351'> +2.9348345e+02 </wgt>
<wgt id='1352'> +2.9387660e+02 </wgt>
<wgt id='1353'> +2.9292764e+02 </wgt>
<wgt id='1354'> +2.9247237e+02 </wgt>
<wgt id='1355'> +2.9586236e+02 </wgt>
<wgt id='1356'> +2.9478105e+02 </wgt>
<wgt id='1357'> +2.9367179e+02 </wgt>
<wgt id='1358'> +2.9429702e+02 </wgt>
<wgt id='1359'> +2.9362665e+02 </wgt>
<wgt id='1360'> +2.9524734e+02 </wgt>
<wgt id='1361'> +2.9419615e+02 </wgt>
<wgt id='1362'> +2.9346989e+02 </wgt>
<wgt id='1363'> +2.9378524e+02 </wgt>
<wgt id='1364'> +2.9420895e+02 </wgt>
<wgt id='1365'> +2.9316933e+02 </wgt>
<wgt id='1366'> +2.9367226e+02 </wgt>
<wgt id='1367'> +2.9304849e+02 </wgt>
<wgt id='1368'> +2.9283519e+02 </wgt>
<wgt id='1369'> +2.9414621e+02 </wgt>
<wgt id='1370'> +2.9414900e+02 </wgt>
<wgt id='1371'> +2.9411109e+02 </wgt>
<wgt id='1372'> +2.9353312e+02 </wgt>
<wgt id='1373'> +2.9382103e+02 </wgt>
<wgt id='1374'> +2.9341944e+02 </wgt>
<wgt id='1375'> +2.9330578e+02 </wgt>
<wgt id='1376'> +2.9448079e+02 </wgt>
<wgt id='1377'> +2.9354105e+02 </wgt>
<wgt id='1378'> +2.9360911e+02 </wgt>
<wgt id='1379'> +2.9365886e+02 </wgt>
<wgt id='1380'> +2.9371738e+02 </wgt>
<wgt id='1381'> +2.9381851e+02 </wgt>
<wgt id='1382'> +2.9364841e+02 </wgt>
<wgt id='1383'> +2.9342749e+02 </wgt>
<wgt id='1384'> +2.9376076e+02 </wgt>
<wgt id='1385'> +2.9377351e+02 </wgt>
<wgt id='1386'> +2.9403373e+02 </wgt>
<wgt id='1387'> +2.9371043e+02 </wgt>
<wgt id='1388'> +2.9374414e+02 </wgt>
<wgt id='1389'> +2.9359603e+02 </wgt>
<wgt id='1390'> +2.9373169e+02 </wgt>
<wgt id='1391'> +2.9375966e+02 </wgt>
<wgt id='1392'> +2.9343174e+02 </wgt>
<wgt id='1393'> +2.9365421e+02 </wgt>
<wgt id='1394'> +2.9336506e+02 </wgt>
<wgt id='1395'> +2.9341785e+02 </wgt>
<wgt id='1396'> +2.9366511e+02 </wgt>
<wgt id='1397'> +2.9387745e+02 </wgt>
<wgt id='1398'> +2.9369209e+02 </wgt>
<wgt id='1399'> +2.9375728e+02 </wgt>
<wgt id='1400'> +2.9380974e+02 </wgt>
<wgt id='1401'> +2.9363606e+02 </wgt>
<wgt id='1402'> +2.9356105e+02 </wgt>
<wgt id='1403'> +2.9381775e+02 </wgt>
<wgt id='1404'> +2.9357217e+02 </wgt>
<wgt id='1405'> +2.9354296e+02 </wgt>
<wgt id='1406'> +2.9357815e+02 </wgt>
<wgt id='1407'> +2.9361141e+02 </wgt>
<wgt id='1408'> +2.9365532e+02 </wgt>
<wgt id='1409'> +2.9356547e+02 </wgt>
<wgt id='1410'> +2.9375413e+02 </wgt>
<wgt id='1411'> +2.9376591e+02 </wgt>
<wgt id='1412'> +2.9366178e+02 </wgt>
<wgt id='1413'> +2.9356271e+02 </wgt>
<wgt id='1414'> +2.9368586e+02 </wgt>
<wgt id='1415'> +2.9368905e+02 </wgt>
<wgt id='1416'> +2.9360227e+02 </wgt>
<wgt id='1417'> +2.9357395e+02 </wgt>
<wgt id='1418'> +2.9368048e+02 </wgt>
<wgt id='1419'> +2.9368671e+02 </wgt>
<wgt id='1420'> +2.9367807e+02 </wgt>
<wgt id='1421'> +2.9354616e+02 </wgt>
<wgt id='1422'> +2.9358000e+02 </wgt>
<wgt id='1423'> +2.9355148e+02 </wgt>
<wgt id='1424'> +2.9368729e+02 </wgt>
<wgt id='1425'> +2.9370232e+02 </wgt>
<wgt id='1426'> +2.7146583e+02 </wgt>
<wgt id='1427'> +3.1667274e+02 </wgt>
<wgt id='1428'> +2.8685986e+02 </wgt>
<wgt id='1429'> +2.8758985e+02 </wgt>
<wgt id='1430'> +2.8770748e+02 </wgt>
<wgt id='1431'> +2.8738111e+02 </wgt>
<wgt id='1432'> +2.8537106e+02 </wgt>
<wgt id='1433'> +2.8339784e+02 </wgt>
<wgt id='1434'> +2.7713836e+02 </wgt>
<wgt id='1435'> +2.8226508e+02 </wgt>
<wgt id='1436'> +2.8926301e+02 </wgt>
<wgt id='1437'> +2.8393908e+02 </wgt>
<wgt id='1438'> +2.8714346e+02 </wgt>
<wgt id='1439'> +2.8855947e+02 </wgt>
<wgt id='1440'> +2.8597210e+02 </wgt>
<wgt id='1441'> +2.9301040e+02 </wgt>
<wgt id='1442'> +2.9039617e+02 </wgt>
<wgt id='1443'> +2.8630041e+02 </wgt>
<wgt id='1444'> +2.8834544e+02 </wgt>
<wgt id='1445'> +2.8071692e+02 </wgt>
<wgt id='1446'> +2.9338371e+02 </wgt>
<wgt id='1447'> +2.9120953e+02 </wgt>
<wgt id='1448'> +2.8274785e+02 </wgt>
<wgt id='1449'> +2.8582575e+02 </wgt>
<wgt id='1450'> +2.8750575e+02 </wgt>
<wgt id='1451'> +2.8500985e+02 </wgt>
<wgt id='1452'> +2.8888815e+02 </wgt>
<wgt id='1453'> +2.8894786e+02 </wgt>
<wgt id='1454'> +2.8514244e+02 </wgt>
<wgt id='1455'> +2.8759384e+02 </wgt>
<wgt id='1456'> +2.8557143e+02 </wgt>
<wgt id='1457'> +2.8625472e+02 </wgt>
<wgt id='1458'> +2.8722499e+02 </wgt>
<wgt id='1459'> +2.8558372e+02 </wgt>
<wgt id='1460'> +2.8873705e+02 </wgt>
<wgt id='1461'> +2.8679894e+02 </wgt>
<wgt id='1462'> +2.8693862e+02 </wgt>
<wgt id='1463'> +2.9063263e+02 </wgt>
<wgt id='1464'> +2.8343250e+02 </wgt>
<wgt id='1465'> +2.7756321e+02 </wgt>
<wgt id='1466'> +2.9747504e+02 </wgt>
<wgt id='1467'> +2.9493357e+02 </wgt>
<wgt id='1468'> +2.8250940e+02 </wgt>
<wgt id='1469'> +2.8812094e+02 </wgt>
<wgt id='1470'> +2.8634800e+02 </wgt>
<wgt id='1471'> +2.8904094e+02 </wgt>
<wgt id='1472'> +2.8722417e+02 </wgt>
<wgt id='1473'> +2.8790243e+02 </wgt>
<wgt id='1474'> +2.7835067e+02 </wgt>
<wgt id='1475'> +2.8652044e+02 </wgt>
<wgt id='1476'> +2.8382116e+02 </wgt>
<wgt id='1477'> +2.8707215e+02 </wgt>
<wgt id='1478'> +2.8631252e+02 </wgt>
<wgt id='1479'> +2.8662115e+02 </wgt>
<wgt id='1480'> +2.8666105e+02 </wgt>
<wgt id='1481'> +2.7778784e+02 </wgt>
<wgt id='1482'> +2.8028857e+02 </wgt>
<wgt id='1483'> +2.8400019e+02 </wgt>
<wgt id='1484'> +2.9313773e+02 </wgt>
<wgt id='1485'> +2.6397358e+02 </wgt>
<wgt id='1486'> +3.1165665e+02 </wgt>
<wgt id='1487'> +2.8118513e+02 </wgt>
<wgt id='1488'> +2.8065687e+02 </wgt>
<wgt id='1489'> +2.8135110e+02 </wgt>
<wgt id='1490'> +2.7411731e+02 </wgt>
<wgt id='1491'> +2.7846133e+02 </wgt>
<wgt id='1492'> +2.8044334e+02 </wgt>
<wgt id='1493'> +2.8211621e+02 </wgt>
<wgt id='1494'> +2.8124087e+02 </wgt>
<wgt id='1495'> +2.7783847e+02 </wgt>
<wgt id='1496'> +2.8239659e+02 </wgt>
<wgt id='1497'> +2.7964087e+02 </wgt>
<wgt id='1498'> +2.8722790e+02 </wgt>
<wgt id='1499'> +2.7648125e+02 </wgt>
<wgt id='1500'> +2.8156121e+02 </wgt>
<wgt id='1501'> +2.8161489e+02 </wgt>
<wgt id='1502'> +2.8884094e+02 </wgt>
<wgt id='1503'> +2.7601399e+02 </wgt>
<wgt id='1504'> +2.7467602e+02 </wgt>
<wgt id='1505'> +2.8891994e+02 </wgt>
<wgt id='1506'> +2.8367632e+02 </wgt>
<wgt id='1507'> +2.7858490e+02 </wgt>
<wgt id='1508'> +2.8225128e+02 </wgt>
<wgt id='1509'> +2.7911752e+02 </wgt>
<wgt id='1510'> +2.8099710e+02 </wgt>
<wgt id='1511'> +2.8139051e+02 </wgt>
<wgt id='1512'> +2.8879335e+02 </wgt>
<wgt id='1513'> +2.7397000e+02 </wgt>
<wgt id='1514'> +2.8223612e+02 </wgt>
<wgt id='1515'> +2.7978377e+02 </wgt>
<wgt id='1516'> +2.8155580e+02 </wgt>
<wgt id='1517'> +2.8108292e+02 </wgt>
<wgt id='1518'> +2.8247609e+02 </wgt>
<wgt id='1519'> +2.7951692e+02 </wgt>
<wgt id='1520'> +2.7858999e+02 </wgt>
<wgt id='1521'> +2.8694033e+02 </wgt>
<wgt id='1522'> +2.7543317e+02 </wgt>
<wgt id='1523'> +2.8698868e+02 </wgt>
<wgt id='1524'> +2.8021166e+02 </wgt>
<wgt id='1525'> +2.8275183e+02 </wgt>
<wgt id='1526'> +2.8086247e+02 </wgt>
<wgt id='1527'> +2.8213709e+02 </wgt>
<wgt id='1528'> +2.7944223e+02 </wgt>
<wgt id='1529'> +2.8316094e+02 </wgt>
<wgt id='1530'> +2.7865520e+02 </wgt>
<wgt id='1531'> +2.8671028e+02 </wgt>
<wgt id='1532'> +2.8118883e+02 </wgt>
<wgt id='1533'> +2.8274864e+02 </wgt>
<wgt id='1534'> +2.8146674e+02 </wgt>
<wgt id='1535'> +2.7354919e+02 </wgt>
<wgt id='1536'> +2.7403742e+02 </wgt>
<wgt id='1537'> +2.8151168e+02 </wgt>
<wgt id='1538'> +2.8211802e+02 </wgt>
<wgt id='1539'> +2.8171142e+02 </wgt>
<wgt id='1540'> +2.7147756e+02 </wgt>
<wgt id='1541'> +2.8516107e+02 </wgt>
<wgt id='1542'> +2.7878221e+02 </wgt>
<wgt id='1543'> +2.8624940e+02 </wgt>
<wgt id='1544'> +2.5962511e+02 </wgt>
<wgt id='1545'> +3.0464409e+02 </wgt>
<wgt id='1546'> +2.5906395e+02 </wgt>
<wgt id='1547'> +2.8812754e+02 </wgt>
<wgt id='1548'> +2.8835805e+02 </wgt>
<wgt id='1549'> +2.8787604e+02 </wgt>
<wgt id='1550'> +2.8847398e+02 </wgt>
<wgt id='1551'> +2.8789371e+02 </wgt>
<wgt id='1552'> +2.9001440e+02 </wgt>
<wgt id='1553'> +2.8638464e+02 </wgt>
<wgt id='1554'> +2.8691258e+02 </wgt>
<wgt id='1555'> +2.8948793e+02 </wgt>
<wgt id='1556'> +2.8854703e+02 </wgt>
<wgt id='1557'> +2.8771607e+02 </wgt>
<wgt id='1558'> +2.8844356e+02 </wgt>
<wgt id='1559'> +2.8742155e+02 </wgt>
<wgt id='1560'> +2.8799740e+02 </wgt>
<wgt id='1561'> +2.8834687e+02 </wgt>
<wgt id='1562'> +2.8766160e+02 </wgt>
<wgt id='1563'> +2.8838425e+02 </wgt>
<wgt id='1564'> +2.8675666e+02 </wgt>
<wgt id='1565'> +2.8974373e+02 </wgt>
<wgt id='1566'> +2.8819993e+02 </wgt>
<wgt id='1567'> +2.8807404e+02 </wgt>
<wgt id='1568'> +2.8745568e+02 </wgt>
<wgt id='1569'> +2.8901381e+02 </wgt>
<wgt id='1570'> +2.8616423e+02 </wgt>
<wgt id='1571'> +2.8945129e+02 </wgt>
<wgt id='1572'> +2.8916681e+02 </wgt>
<wgt id='1573'> +2.8714012e+02 </wgt>
<wgt id='1574'> +2.8832239e+02 </wgt>
<wgt id='1575'> +2.8800738e+02 </wgt>
<wgt id='1576'> +2.8677059e+02 </wgt>
<wgt id='1577'> +2.8977574e+02 </wgt>
<wgt id='1578'> +2.8422633e+02 </wgt>
<wgt id='1579'> +2.9254240e+02 </wgt>
<wgt id='1580'> +2.8980989e+02 </wgt>
<wgt id='1581'> +2.8648841e+02 </wgt>
<wgt id='1582'> +2.8877884e+02 </wgt>
<wgt id='1583'> +2.8652514e+02 </wgt>
<wgt id='1584'> +2.8842222e+02 </wgt>
<wgt id='1585'> +2.8800121e+02 </wgt>
<wgt id='1586'> +2.8720220e+02 </wgt>
<wgt id='1587'> +2.8916857e+02 </wgt>
<wgt id='1588'> +2.8541421e+02 </wgt>
<wgt id='1589'> +2.9122074e+02 </wgt>
<wgt id='1590'> +2.9091784e+02 </wgt>
<wgt id='1591'> +2.8675034e+02 </wgt>
<wgt id='1592'> +2.8770850e+02 </wgt>
<wgt id='1593'> +2.8917219e+02 </wgt>
<wgt id='1594'> +2.9259525e+02 </wgt>
<wgt id='1595'> +2.8233560e+02 </wgt>
<wgt id='1596'> +2.9008681e+02 </wgt>
<wgt id='1597'> +2.8713914e+02 </wgt>
<wgt id='1598'> +2.8321568e+02 </wgt>
<wgt id='1599'> +2.8313448e+02 </wgt>
<wgt id='1600'> +2.8332425e+02 </wgt>
<wgt id='1601'> +2.8426243e+02 </wgt>
<wgt id='1602'> +2.8217389e+02 </wgt>
<wgt id='1603'> +2.8417112e+02 </wgt>
<wgt id='1604'> +2.8283075e+02 </wgt>
<wgt id='1605'> +2.8298805e+02 </wgt>
<wgt id='1606'> +2.8343994e+02 </wgt>
<wgt id='1607'> +2.8349373e+02 </wgt>
<wgt id='1608'> +2.8294805e+02 </wgt>
<wgt id='1609'> +2.8227270e+02 </wgt>
<wgt id='1610'> +2.8363088e+02 </wgt>
<wgt id='1611'> +2.8316367e+02 </wgt>
<wgt id='1612'> +2.8328214e+02 </wgt>
<wgt id='1613'> +2.8312443e+02 </wgt>
<wgt id='1614'> +2.8332487e+02 </wgt>
<wgt id='1615'> +2.8331936e+02 </wgt>
<wgt id='1616'> +2.8315709e+02 </wgt>
<wgt id='1617'> +2.8330911e+02 </wgt>
<wgt id='1618'> +2.8308637e+02 </wgt>
<wgt id='1619'> +2.8259503e+02 </wgt>
<wgt id='1620'> +2.8364764e+02 </wgt>
<wgt id='1621'> +2.8594756e+02 </wgt>
<wgt id='1622'> +2.8063949e+02 </wgt>
<wgt id='1623'> +2.8408683e+02 </wgt>
<wgt id='1624'> +2.8102822e+02 </wgt>
<wgt id='1625'> +2.8336146e+02 </wgt>
<wgt id='1626'> +2.8280704e+02 </wgt>
<wgt id='1627'> +2.8434324e+02 </wgt>
<wgt id='1628'> +2.8049896e+02 </wgt>
<wgt id='1629'> +2.8157018e+02 </wgt>
<wgt id='1630'> +2.8660232e+02 </wgt>
<wgt id='1631'> +2.8373152e+02 </wgt>
<wgt id='1632'> +2.8216226e+02 </wgt>
<wgt id='1633'> +2.8093424e+02 </wgt>
<wgt id='1634'> +2.8418941e+02 </wgt>
<wgt id='1635'> +2.8310205e+02 </wgt>
<wgt id='1636'> +2.8322611e+02 </wgt>
<wgt id='1637'> +2.8192322e+02 </wgt>
<wgt id='1638'> +2.8420574e+02 </wgt>
<wgt id='1639'> +2.8370071e+02 </wgt>
<wgt id='1640'> +2.8235127e+02 </wgt>
<wgt id='1641'> +2.8352711e+02 </wgt>
<wgt id='1642'> +2.8143684e+02 </wgt>
<wgt id='1643'> +2.7841714e+02 </wgt>
<wgt id='1644'> +2.8665029e+02 </wgt>
<wgt id='1645'> +2.8537649e+02 </wgt>
<wgt id='1646'> +2.8226662e+02 </wgt>
<wgt id='1647'> +2.8095482e+02 </wgt>
<wgt id='1648'> +2.8470683e+02 </wgt>
<wgt id='1649'> +4.9507624e+02 </wgt>
<wgt id='1650'> +2.8392552e+02 </wgt>
<wgt id='1651'> +2.8382537e+02 </wgt>
<wgt id='1652'> +2.8402481e+02 </wgt>
<wgt id='1653'> +2.8392699e+02 </wgt>
<wgt id='1654'> +2.8391712e+02 </wgt>
<wgt id='1655'> +2.8333594e+02 </wgt>
<wgt id='1656'> +2.8436021e+02 </wgt>
<wgt id='1657'> +2.8474128e+02 </wgt>
<wgt id='1658'> +2.8471065e+02 </wgt>
<wgt id='1659'> +2.8538836e+02 </wgt>
<wgt id='1660'> +2.8349666e+02 </wgt>
<wgt id='1661'> +2.8405091e+02 </wgt>
<wgt id='1662'> +2.8256911e+02 </wgt>
<wgt id='1663'> +2.8297583e+02 </wgt>
<wgt id='1664'> +2.8488242e+02 </wgt>
<wgt id='1665'> +2.8371882e+02 </wgt>
<wgt id='1666'> +2.8431456e+02 </wgt>
<wgt id='1667'> +2.8377780e+02 </wgt>
<wgt id='1668'> +2.8503092e+02 </wgt>
<wgt id='1669'> +2.8394554e+02 </wgt>
<wgt id='1670'> +2.8403669e+02 </wgt>
<wgt id='1671'> +2.8356318e+02 </wgt>
<wgt id='1672'> +2.8404535e+02 </wgt>
<wgt id='1673'> +2.8339646e+02 </wgt>
<wgt id='1674'> +2.8247150e+02 </wgt>
<wgt id='1675'> +2.8343276e+02 </wgt>
<wgt id='1676'> +2.8430594e+02 </wgt>
<wgt id='1677'> +2.8430707e+02 </wgt>
<wgt id='1678'> +2.8415064e+02 </wgt>
<wgt id='1679'> +2.8420643e+02 </wgt>
<wgt id='1680'> +2.9015678e+02 </wgt>
<wgt id='1681'> +2.8777416e+02 </wgt>
<wgt id='1682'> +2.9216337e+02 </wgt>
<wgt id='1683'> +2.9089376e+02 </wgt>
<wgt id='1684'> +2.8853533e+02 </wgt>
<wgt id='1685'> +2.8989662e+02 </wgt>
<wgt id='1686'> +2.9244566e+02 </wgt>
<wgt id='1687'> +2.8603330e+02 </wgt>
<wgt id='1688'> +2.8348203e+02 </wgt>
<wgt id='1689'> +2.9296467e+02 </wgt>
<wgt id='1690'> +2.9348033e+02 </wgt>
<wgt id='1691'> +2.8949095e+02 </wgt>
<wgt id='1692'> +2.9030515e+02 </wgt>
<wgt id='1693'> +2.9031837e+02 </wgt>
<wgt id='1694'> +2.8531995e+02 </wgt>
<wgt id='1695'> +2.9277877e+02 </wgt>
<wgt id='1696'> +2.8894591e+02 </wgt>
<wgt id='1697'> +2.8890666e+02 </wgt>
<wgt id='1698'> +2.8765738e+02 </wgt>
<wgt id='1699'> +2.8705570e+02 </wgt>
<wgt id='1700'> +2.8892670e+02 </wgt>
<wgt id='1701'> +2.8907785e+02 </wgt>
<wgt id='1702'> +2.9159526e+02 </wgt>
<wgt id='1703'> +2.8860777e+02 </wgt>
<wgt id='1704'> +2.9083485e+02 </wgt>
<wgt id='1705'> +2.9074474e+02 </wgt>
<wgt id='1706'> +2.8980914e+02 </wgt>
<wgt id='1707'> +2.9011958e+02 </wgt>
<wgt id='1708'> +2.8981422e+02 </wgt>
<wgt id='1709'> +2.9002842e+02 </wgt>
<wgt id='1710'> +2.9022631e+02 </wgt>
<wgt id='1711'> +2.9010872e+02 </wgt>
<wgt id='1712'> +2.9010748e+02 </wgt>
<wgt id='1713'> +2.8970305e+02 </wgt>
<wgt id='1714'> +2.9028911e+02 </wgt>
<wgt id='1715'> +2.9069731e+02 </wgt>
<wgt id='1716'> +2.8985534e+02 </wgt>
<wgt id='1717'> +2.9016056e+02 </wgt>
<wgt id='1718'> +2.9006567e+02 </wgt>
<wgt id='1719'> +2.9034175e+02 </wgt>
<wgt id='1720'> +2.9034040e+02 </wgt>
<wgt id='1721'> +2.9044754e+02 </wgt>
<wgt id='1722'> +2.9030170e+02 </wgt>
<wgt id='1723'> +2.8993001e+02 </wgt>
<wgt id='1724'> +2.9059791e+02 </wgt>
<wgt id='1725'> +2.9029100e+02 </wgt>
<wgt id='1726'> +2.9047090e+02 </wgt>
<wgt id='1727'> +2.8988793e+02 </wgt>
<wgt id='1728'> +2.8999259e+02 </wgt>
<wgt id='1729'> +2.9030747e+02 </wgt>
<wgt id='1730'> +2.8985297e+02 </wgt>
<wgt id='1731'> +2.9003519e+02 </wgt>
<wgt id='1732'> +2.8993399e+02 </wgt>
<wgt id='1733'> +2.8974428e+02 </wgt>
<wgt id='1734'> +2.8997807e+02 </wgt>
<wgt id='1735'> +2.9015659e+02 </wgt>
<wgt id='1736'> +2.9005290e+02 </wgt>
<wgt id='1737'> +2.9026094e+02 </wgt>
<wgt id='1738'> +2.9049451e+02 </wgt>
<wgt id='1739'> +2.9011980e+02 </wgt>
<wgt id='1740'> +2.8980741e+02 </wgt>
<wgt id='1741'> +2.9033539e+02 </wgt>
<wgt id='1742'> +2.9001506e+02 </wgt>
<wgt id='1743'> +2.9015331e+02 </wgt>
<wgt id='1744'> +2.9003505e+02 </wgt>
<wgt id='1745'> +2.9024928e+02 </wgt>
<wgt id='1746'> +2.9032665e+02 </wgt>
<wgt id='1747'> +2.9016225e+02 </wgt>
<wgt id='1748'> +2.9036644e+02 </wgt>
<wgt id='1749'> +2.9029227e+02 </wgt>
<wgt id='1750'> +2.9004612e+02 </wgt>
<wgt id='1751'> +2.8991172e+02 </wgt>
<wgt id='1752'> +2.8997766e+02 </wgt>
<wgt id='1753'> +2.9001492e+02 </wgt>
<wgt id='1754'> +2.8998459e+02 </wgt>
<wgt id='1755'> +2.9009948e+02 </wgt>
<wgt id='1756'> +2.9016684e+02 </wgt>
<wgt id='1757'> +2.8997050e+02 </wgt>
<wgt id='1758'> +2.9011099e+02 </wgt>
<wgt id='1759'> +2.9036464e+02 </wgt>
<wgt id='1760'> +2.9011289e+02 </wgt>
<wgt id='1761'> +2.9030383e+02 </wgt>
<wgt id='1762'> +2.9001976e+02 </wgt>
<wgt id='1763'> +2.9024013e+02 </wgt>
<wgt id='1764'> +2.9036142e+02 </wgt>
<wgt id='1765'> +2.9025147e+02 </wgt>
<wgt id='1766'> +2.9047623e+02 </wgt>
<wgt id='1767'> +2.9023533e+02 </wgt>
<wgt id='1768'> +2.9017318e+02 </wgt>
<wgt id='1769'> +2.9014122e+02 </wgt>
<wgt id='1770'> +2.9018734e+02 </wgt>
<wgt id='1771'> +2.8999785e+02 </wgt>
<wgt id='1772'> +2.9012337e+02 </wgt>
<wgt id='1773'> +2.9008945e+02 </wgt>
<wgt id='1774'> +2.9009364e+02 </wgt>
<wgt id='1775'> +2.9012100e+02 </wgt>
<wgt id='1776'> +2.9012770e+02 </wgt>
<wgt id='1777'> +2.9022539e+02 </wgt>
<wgt id='1778'> +2.9021945e+02 </wgt>
<wgt id='1779'> +2.9018333e+02 </wgt>
<wgt id='1780'> +2.9016243e+02 </wgt>
<wgt id='1781'> +2.7517389e+02 </wgt>
<wgt id='1782'> +3.0591348e+02 </wgt>
<wgt id='1783'> +2.8658051e+02 </wgt>
<wgt id='1784'> +2.8625134e+02 </wgt>
<wgt id='1785'> +2.8727242e+02 </wgt>
<wgt id='1786'> +2.8537699e+02 </wgt>
<wgt id='1787'> +2.8719949e+02 </wgt>
<wgt id='1788'> +2.8841515e+02 </wgt>
<wgt id='1789'> +2.8675580e+02 </wgt>
<wgt id='1790'> +2.8469470e+02 </wgt>
<wgt id='1791'> +2.8584437e+02 </wgt>
<wgt id='1792'> +2.8679899e+02 </wgt>
<wgt id='1793'> +2.8472798e+02 </wgt>
<wgt id='1794'> +2.8901701e+02 </wgt>
<wgt id='1795'> +2.8940095e+02 </wgt>
<wgt id='1796'> +2.8590961e+02 </wgt>
<wgt id='1797'> +2.8762325e+02 </wgt>
<wgt id='1798'> +2.8519594e+02 </wgt>
<wgt id='1799'> +2.9020487e+02 </wgt>
<wgt id='1800'> +2.8372270e+02 </wgt>
<wgt id='1801'> +2.8702266e+02 </wgt>
<wgt id='1802'> +2.8768673e+02 </wgt>
<wgt id='1803'> +2.8999546e+02 </wgt>
<wgt id='1804'> +2.8596629e+02 </wgt>
<wgt id='1805'> +2.8730277e+02 </wgt>
<wgt id='1806'> +2.8427389e+02 </wgt>
<wgt id='1807'> +2.8540669e+02 </wgt>
<wgt id='1808'> +2.8778459e+02 </wgt>
<wgt id='1809'> +2.8649157e+02 </wgt>
<wgt id='1810'> +2.8621646e+02 </wgt>
<wgt id='1811'> +2.8698530e+02 </wgt>
<wgt id='1812'> +2.8672804e+02 </wgt>
<wgt id='1813'> +2.8650947e+02 </wgt>
<wgt id='1814'> +2.8635563e+02 </wgt>
<wgt id='1815'> +2.8687821e+02 </wgt>
<wgt id='1816'> +2.8690670e+02 </wgt>
<wgt id='1817'> +2.8664738e+02 </wgt>
<wgt id='1818'> +2.8681929e+02 </wgt>
<wgt id='1819'> +2.8669347e+02 </wgt>
<wgt id='1820'> +2.8684755e+02 </wgt>
<wgt id='1821'> +2.8685158e+02 </wgt>
<wgt id='1822'> +2.8666078e+02 </wgt>
<wgt id='1823'> +2.8629793e+02 </wgt>
<wgt id='1824'> +2.8664139e+02 </wgt>
<wgt id='1825'> +2.8680934e+02 </wgt>
<wgt id='1826'> +2.8623584e+02 </wgt>
<wgt id='1827'> +2.8666641e+02 </wgt>
<wgt id='1828'> +2.8680009e+02 </wgt>
<wgt id='1829'> +2.8620616e+02 </wgt>
<wgt id='1830'> +2.8668288e+02 </wgt>
<wgt id='1831'> +2.8679194e+02 </wgt>
<wgt id='1832'> +2.8641752e+02 </wgt>
<wgt id='1833'> +2.8659922e+02 </wgt>
<wgt id='1834'> +2.8678316e+02 </wgt>
<wgt id='1835'> +2.8682837e+02 </wgt>
<wgt id='1836'> +2.8655104e+02 </wgt>
<wgt id='1837'> +2.8639820e+02 </wgt>
<wgt id='1838'> +2.8639520e+02 </wgt>
<wgt id='1839'> +2.8675901e+02 </wgt>
<wgt id='1840'> +2.8660158e+02 </wgt>
<wgt id='1841'> +2.8624699e+02 </wgt>
<wgt id='1842'> +2.8639382e+02 </wgt>
<wgt id='1843'> +2.8643691e+02 </wgt>
<wgt id='1844'> +2.8658775e+02 </wgt>
<wgt id='1845'> +2.8662350e+02 </wgt>
<wgt id='1846'> +2.8665387e+02 </wgt>
<wgt id='1847'> +2.8661987e+02 </wgt>
<wgt id='1848'> +2.8650816e+02 </wgt>
<wgt id='1849'> +2.8654410e+02 </wgt>
<wgt id='1850'> +2.8668734e+02 </wgt>
<wgt id='1851'> +2.8662091e+02 </wgt>
<wgt id='1852'> +2.8682667e+02 </wgt>
<wgt id='1853'> +2.8650606e+02 </wgt>
<wgt id='1854'> +2.8679660e+02 </wgt>
<wgt id='1855'> +2.8679834e+02 </wgt>
<wgt id='1856'> +2.8651425e+02 </wgt>
<wgt id='1857'> +2.8661973e+02 </wgt>
<wgt id='1858'> +2.8654455e+02 </wgt>
<wgt id='1859'> +2.8655852e+02 </wgt>
<wgt id='1860'> +2.8666312e+02 </wgt>
<wgt id='1861'> +2.8659433e+02 </wgt>
<wgt id='1862'> +2.8654629e+02 </wgt>
<wgt id='1863'> +2.8688843e+02 </wgt>
<wgt id='1864'> +2.8659206e+02 </wgt>
<wgt id='1865'> +2.8668310e+02 </wgt>
<wgt id='1866'> +2.8648900e+02 </wgt>
<wgt id='1867'> +2.8645382e+02 </wgt>
<wgt id='1868'> +2.8642729e+02 </wgt>
<wgt id='1869'> +2.8666724e+02 </wgt>
<wgt id='1870'> +2.8626915e+02 </wgt>
<wgt id='1871'> +2.8644747e+02 </wgt>
<wgt id='1872'> +2.8645598e+02 </wgt>
<wgt id='1873'> +2.8661971e+02 </wgt>
<wgt id='1874'> +2.8650385e+02 </wgt>
<wgt id='1875'> +2.8653982e+02 </wgt>
<wgt id='1876'> +2.8650319e+02 </wgt>
<wgt id='1877'> +2.8650319e+02 </wgt>
<wgt id='1878'> +2.8660841e+02 </wgt>
<wgt id='1879'> +2.8652766e+02 </wgt>
<wgt id='1880'> +2.8661630e+02 </wgt>
<wgt id='1881'> +2.8654944e+02 </wgt>
<wgt id='1882'> +2.8650544e+02 </wgt>
<wgt id='1883'> +2.8658696e+02 </wgt>
<wgt id='1884'> +2.7167031e+02 </wgt>
<wgt id='1885'> +3.0250407e+02 </wgt>
<wgt id='1886'> +2.9017509e+02 </wgt>
<wgt id='1887'> +2.9196791e+02 </wgt>
<wgt id='1888'> +2.8633252e+02 </wgt>
<wgt id='1889'> +2.8995380e+02 </wgt>
<wgt id='1890'> +2.8335575e+02 </wgt>
<wgt id='1891'> +2.9084054e+02 </wgt>
<wgt id='1892'> +2.8786126e+02 </wgt>
<wgt id='1893'> +2.9016449e+02 </wgt>
<wgt id='1894'> +2.9086965e+02 </wgt>
<wgt id='1895'> +2.8830701e+02 </wgt>
<wgt id='1896'> +2.9133163e+02 </wgt>
<wgt id='1897'> +2.8764452e+02 </wgt>
<wgt id='1898'> +2.8976598e+02 </wgt>
<wgt id='1899'> +2.9065615e+02 </wgt>
<wgt id='1900'> +2.8960922e+02 </wgt>
<wgt id='1901'> +2.9014511e+02 </wgt>
<wgt id='1902'> +2.8843509e+02 </wgt>
<wgt id='1903'> +2.9380089e+02 </wgt>
<wgt id='1904'> +2.9102766e+02 </wgt>
<wgt id='1905'> +2.8840228e+02 </wgt>
<wgt id='1906'> +2.8876348e+02 </wgt>
<wgt id='1907'> +2.8964226e+02 </wgt>
<wgt id='1908'> +2.8946355e+02 </wgt>
<wgt id='1909'> +2.9042551e+02 </wgt>
<wgt id='1910'> +2.8976861e+02 </wgt>
<wgt id='1911'> +2.8984816e+02 </wgt>
<wgt id='1912'> +2.9219017e+02 </wgt>
<wgt id='1913'> +2.9125644e+02 </wgt>
<wgt id='1914'> +2.9606961e+02 </wgt>
<wgt id='1915'> +2.9032642e+02 </wgt>
<wgt id='1916'> +2.9004374e+02 </wgt>
<wgt id='1917'> +2.7517389e+02 </wgt>
<wgt id='1918'> +3.0591348e+02 </wgt>
<wgt id='1919'> +2.8657375e+02 </wgt>
<wgt id='1920'> +2.7881462e+02 </wgt>
<wgt id='1921'> +2.8715195e+02 </wgt>
<wgt id='1922'> +2.8651832e+02 </wgt>
<wgt id='1923'> +2.8707432e+02 </wgt>
<wgt id='1924'> +2.8659150e+02 </wgt>
<wgt id='1925'> +2.8675954e+02 </wgt>
<wgt id='1926'> +2.8631361e+02 </wgt>
<wgt id='1927'> +2.8658800e+02 </wgt>
<wgt id='1928'> +2.8608990e+02 </wgt>
<wgt id='1929'> +2.8477173e+02 </wgt>
<wgt id='1930'> +2.8603829e+02 </wgt>
<wgt id='1931'> +2.8655515e+02 </wgt>
<wgt id='1932'> +2.8691422e+02 </wgt>
<wgt id='1933'> +2.8619878e+02 </wgt>
<wgt id='1934'> +2.8618992e+02 </wgt>
<wgt id='1935'> +2.8660895e+02 </wgt>
<wgt id='1936'> +2.8761737e+02 </wgt>
<wgt id='1937'> +2.8643021e+02 </wgt>
<wgt id='1938'> +2.8651939e+02 </wgt>
<wgt id='1939'> +2.8729834e+02 </wgt>
<wgt id='1940'> +2.8692674e+02 </wgt>
<wgt id='1941'> +2.8876006e+02 </wgt>
<wgt id='1942'> +2.8676178e+02 </wgt>
<wgt id='1943'> +2.8660204e+02 </wgt>
<wgt id='1944'> +2.8661964e+02 </wgt>
<wgt id='1945'> +2.8659233e+02 </wgt>
<wgt id='1946'> +2.8678574e+02 </wgt>
<wgt id='1947'> +2.8676108e+02 </wgt>
<wgt id='1948'> +2.8581032e+02 </wgt>
<wgt id='1949'> +2.8656306e+02 </wgt>
<wgt id='1950'> +2.7167031e+02 </wgt>
<wgt id='1951'> +3.0250407e+02 </wgt>
<wgt id='1952'> +2.6755239e+02 </wgt>
<wgt id='1953'> +2.6712581e+02 </wgt>
<wgt id='1954'> +2.6797827e+02 </wgt>
<wgt id='1955'> +2.6771648e+02 </wgt>
<wgt id='1956'> +2.6738817e+02 </wgt>
<wgt id='1957'> +2.6800721e+02 </wgt>
<wgt id='1958'> +2.6709963e+02 </wgt>
<wgt id='1959'> +2.6929364e+02 </wgt>
<wgt id='1960'> +2.6584955e+02 </wgt>
<wgt id='1961'> +2.6710218e+02 </wgt>
<wgt id='1962'> +2.6801441e+02 </wgt>
<wgt id='1963'> +2.6513868e+02 </wgt>
<wgt id='1964'> +2.7021446e+02 </wgt>
<wgt id='1965'> +2.6665071e+02 </wgt>
<wgt id='1966'> +2.6847174e+02 </wgt>
<wgt id='1967'> +2.6850435e+02 </wgt>
<wgt id='1968'> +2.6608356e+02 </wgt>
<wgt id='1969'> +2.6914595e+02 </wgt>
<wgt id='1970'> +2.6658097e+02 </wgt>
<wgt id='1971'> +2.6822625e+02 </wgt>
<wgt id='1972'> +2.6660927e+02 </wgt>
<wgt id='1973'> +2.6795063e+02 </wgt>
<wgt id='1974'> +2.6716523e+02 </wgt>
<wgt id='1975'> +2.6439367e+02 </wgt>
<wgt id='1976'> +2.7025366e+02 </wgt>
<wgt id='1977'> +2.6583311e+02 </wgt>
<wgt id='1978'> +2.6941259e+02 </wgt>
<wgt id='1979'> +2.7248516e+02 </wgt>
<wgt id='1980'> +2.6302977e+02 </wgt>
<wgt id='1981'> +2.6755239e+02 </wgt>
<wgt id='1982'> +2.6892465e+02 </wgt>
<wgt id='1983'> +2.6538157e+02 </wgt>
<wgt id='1984'> +2.6895476e+02 </wgt>
<wgt id='1985'> +2.6610160e+02 </wgt>
<wgt id='1986'> +2.6710073e+02 </wgt>
<wgt id='1987'> +2.7046895e+02 </wgt>
<wgt id='1988'> +2.6755208e+02 </wgt>
<wgt id='1989'> +2.6780533e+02 </wgt>
<wgt id='1990'> +2.6979586e+02 </wgt>
<wgt id='1991'> +2.6546945e+02 </wgt>
<wgt id='1992'> +2.6578089e+02 </wgt>
<wgt id='1993'> +2.6672267e+02 </wgt>
<wgt id='1994'> +2.6745058e+02 </wgt>
<wgt id='1995'> +2.8278362e+02 </wgt>
<wgt id='1996'> +2.8237360e+02 </wgt>
<wgt id='1997'> +2.8310508e+02 </wgt>
<wgt id='1998'> +2.8259311e+02 </wgt>
<wgt id='1999'> +2.8288730e+02 </wgt>
<wgt id='2000'> +2.8312256e+02 </wgt>
<wgt id='2001'> +2.8235738e+02 </wgt>
<wgt id='2002'> +2.8490026e+02 </wgt>
<wgt id='2003'> +2.8064003e+02 </wgt>
<wgt id='2004'> +2.8104616e+02 </wgt>
<wgt id='2005'> +2.8448774e+02 </wgt>
<wgt id='2006'> +2.8400331e+02 </wgt>
<wgt id='2007'> +2.8149593e+02 </wgt>
<wgt id='2008'> +2.8232009e+02 </wgt>
<wgt id='2009'> +2.8312644e+02 </wgt>
<wgt id='2010'> +2.8261995e+02 </wgt>
<wgt id='2011'> +2.8192020e+02 </wgt>
<wgt id='2012'> +2.8285377e+02 </wgt>
<wgt id='2013'> +2.8265230e+02 </wgt>
<wgt id='2014'> +2.8241910e+02 </wgt>
<wgt id='2015'> +2.8311346e+02 </wgt>
<wgt id='2016'> +2.8431167e+02 </wgt>
<wgt id='2017'> +2.8115416e+02 </wgt>
<wgt id='2018'> +2.8059084e+02 </wgt>
<wgt id='2019'> +2.8493965e+02 </wgt>
<wgt id='2020'> +2.7777198e+02 </wgt>
<wgt id='2021'> +2.8746444e+02 </wgt>
<wgt id='2022'> +2.8068178e+02 </wgt>
<wgt id='2023'> +2.8503145e+02 </wgt>
<wgt id='2024'> +2.8255679e+02 </wgt>
<wgt id='2025'> +2.8378027e+02 </wgt>
<wgt id='2026'> +2.7933793e+02 </wgt>
<wgt id='2027'> +2.8359040e+02 </wgt>
<wgt id='2028'> +2.8161315e+02 </wgt>
<wgt id='2029'> +2.7624194e+02 </wgt>
<wgt id='2030'> +2.8120752e+02 </wgt>
<wgt id='2031'> +2.8228176e+02 </wgt>
<wgt id='2032'> +2.8373322e+02 </wgt>
<wgt id='2033'> +2.8412776e+02 </wgt>
<wgt id='2034'> +2.7281795e+02 </wgt>
<wgt id='2035'> +2.8211693e+02 </wgt>
<wgt id='2036'> +2.8390698e+02 </wgt>
<wgt id='2037'> +2.8500614e+02 </wgt>
<wgt id='2038'> +2.8072323e+02 </wgt>
<wgt id='2039'> +2.8069626e+02 </wgt>
<wgt id='2040'> +2.8066707e+02 </wgt>
<wgt id='2041'> +2.8064039e+02 </wgt>
<wgt id='2042'> +2.8061260e+02 </wgt>
<wgt id='2043'> +2.8058422e+02 </wgt>
<wgt id='2044'> +2.8055707e+02 </wgt>
<wgt id='2045'> +2.8052950e+02 </wgt>
<wgt id='2046'> +2.8050166e+02 </wgt>
<wgt id='2047'> +2.8047391e+02 </wgt>
<wgt id='2048'> +2.8044666e+02 </wgt>
<wgt id='2049'> +2.8041809e+02 </wgt>
<wgt id='2050'> +2.8039090e+02 </wgt>
<wgt id='2051'> +2.8036317e+02 </wgt>
<wgt id='2052'> +2.8033492e+02 </wgt>
<wgt id='2053'> +2.8030769e+02 </wgt>
<wgt id='2054'> +2.8028030e+02 </wgt>
<wgt id='2055'> +2.8025188e+02 </wgt>
<wgt id='2056'> +2.8022404e+02 </wgt>
<wgt id='2057'> +2.8019704e+02 </wgt>
<wgt id='2058'> +2.8016840e+02 </wgt>
<wgt id='2059'> +2.8014175e+02 </wgt>
<wgt id='2060'> +2.8011385e+02 </wgt>
<wgt id='2061'> +2.8008549e+02 </wgt>
<wgt id='2062'> +2.8005850e+02 </wgt>
<wgt id='2063'> +2.8003098e+02 </wgt>
<wgt id='2064'> +2.8000276e+02 </wgt>
<wgt id='2065'> +2.7997485e+02 </wgt>
<wgt id='2066'> +2.7994780e+02 </wgt>
<wgt id='2067'> +2.7991924e+02 </wgt>
<wgt id='2068'> +2.7989204e+02 </wgt>
<wgt id='2069'> +2.8359894e+02 </wgt>
<wgt id='2070'> +2.8330803e+02 </wgt>
<wgt id='2071'> +2.8426195e+02 </wgt>
<wgt id='2072'> +2.8244552e+02 </wgt>
<wgt id='2073'> +2.8422844e+02 </wgt>
<wgt id='2074'> +2.8544083e+02 </wgt>
<wgt id='2075'> +2.8376434e+02 </wgt>
<wgt id='2076'> +2.8168742e+02 </wgt>
<wgt id='2077'> +2.8285927e+02 </wgt>
<wgt id='2078'> +2.8383127e+02 </wgt>
<wgt id='2079'> +2.8179908e+02 </wgt>
<wgt id='2080'> +2.8599125e+02 </wgt>
<wgt id='2081'> +2.8636554e+02 </wgt>
<wgt id='2082'> +2.8294390e+02 </wgt>
<wgt id='2083'> +2.8457812e+02 </wgt>
<wgt id='2084'> +2.8221319e+02 </wgt>
<wgt id='2085'> +2.8716212e+02 </wgt>
<wgt id='2086'> +2.8080573e+02 </wgt>
<wgt id='2087'> +2.8404204e+02 </wgt>
<wgt id='2088'> +2.8467833e+02 </wgt>
<wgt id='2089'> +2.8696996e+02 </wgt>
<wgt id='2090'> +2.8294692e+02 </wgt>
<wgt id='2091'> +2.8433361e+02 </wgt>
<wgt id='2092'> +2.8129750e+02 </wgt>
<wgt id='2093'> +2.8243764e+02 </wgt>
<wgt id='2094'> +2.8480921e+02 </wgt>
<wgt id='2095'> +2.8351804e+02 </wgt>
<wgt id='2096'> +2.8321138e+02 </wgt>
<wgt id='2097'> +2.8400148e+02 </wgt>
<wgt id='2098'> +2.8376304e+02 </wgt>
<wgt id='2099'> +2.8352365e+02 </wgt>
<wgt id='2100'> +2.8336794e+02 </wgt>
<wgt id='2101'> +2.8391029e+02 </wgt>
<wgt id='2102'> +2.8393875e+02 </wgt>
<wgt id='2103'> +2.8365749e+02 </wgt>
<wgt id='2104'> +2.8384616e+02 </wgt>
<wgt id='2105'> +2.8370609e+02 </wgt>
<wgt id='2106'> +2.8387338e+02 </wgt>
<wgt id='2107'> +2.8387029e+02 </wgt>
<wgt id='2108'> +2.8368853e+02 </wgt>
<wgt id='2109'> +2.8331653e+02 </wgt>
<wgt id='2110'> +2.8365005e+02 </wgt>
<wgt id='2111'> +2.8381821e+02 </wgt>
<wgt id='2112'> +2.8326020e+02 </wgt>
<wgt id='2113'> +2.8369058e+02 </wgt>
<wgt id='2114'> +2.8381031e+02 </wgt>
<wgt id='2115'> +2.8322360e+02 </wgt>
<wgt id='2116'> +2.8369051e+02 </wgt>
<wgt id='2117'> +2.8380452e+02 </wgt>
<wgt id='2118'> +2.8343061e+02 </wgt>
<wgt id='2119'> +2.8362082e+02 </wgt>
<wgt id='2120'> +2.8380561e+02 </wgt>
<wgt id='2121'> +2.8384215e+02 </wgt>
<wgt id='2122'> +2.8357873e+02 </wgt>
<wgt id='2123'> +2.8341725e+02 </wgt>
<wgt id='2124'> +2.8341478e+02 </wgt>
<wgt id='2125'> +2.8378200e+02 </wgt>
<wgt id='2126'> +2.8361287e+02 </wgt>
<wgt id='2127'> +2.8327277e+02 </wgt>
<wgt id='2128'> +2.8341303e+02 </wgt>
<wgt id='2129'> +2.8345436e+02 </wgt>
<wgt id='2130'> +2.8360597e+02 </wgt>
<wgt id='2131'> +2.8364056e+02 </wgt>
<wgt id='2132'> +2.8368079e+02 </wgt>
<wgt id='2133'> +2.8363040e+02 </wgt>
<wgt id='2134'> +2.8353055e+02 </wgt>
<wgt id='2135'> +2.8356689e+02 </wgt>
<wgt id='2136'> +2.8370569e+02 </wgt>
<wgt id='2137'> +2.8364073e+02 </wgt>
<wgt id='2138'> +2.8384560e+02 </wgt>
<wgt id='2139'> +2.8352536e+02 </wgt>
<wgt id='2140'> +2.8381668e+02 </wgt>
<wgt id='2141'> +2.8382006e+02 </wgt>
<wgt id='2142'> +2.8352917e+02 </wgt>
<wgt id='2143'> +2.8363894e+02 </wgt>
<wgt id='2144'> +2.8356034e+02 </wgt>
<wgt id='2145'> +2.8357818e+02 </wgt>
<wgt id='2146'> +2.8368204e+02 </wgt>
<wgt id='2147'> +2.8361901e+02 </wgt>
<wgt id='2148'> +2.8356284e+02 </wgt>
<wgt id='2149'> +2.8390234e+02 </wgt>
<wgt id='2150'> +2.8360797e+02 </wgt>
<wgt id='2151'> +2.8370037e+02 </wgt>
<wgt id='2152'> +2.8350508e+02 </wgt>
<wgt id='2153'> +2.8347352e+02 </wgt>
<wgt id='2154'> +2.8345015e+02 </wgt>
<wgt id='2155'> +2.8368358e+02 </wgt>
<wgt id='2156'> +2.8329192e+02 </wgt>
<wgt id='2157'> +2.8346884e+02 </wgt>
<wgt id='2158'> +2.8347715e+02 </wgt>
<wgt id='2159'> +2.8363973e+02 </wgt>
<wgt id='2160'> +2.8352636e+02 </wgt>
<wgt id='2161'> +2.8356151e+02 </wgt>
<wgt id='2162'> +2.8352124e+02 </wgt>
<wgt id='2163'> +2.8352618e+02 </wgt>
<wgt id='2164'> +2.8362875e+02 </wgt>
<wgt id='2165'> +2.8354394e+02 </wgt>
<wgt id='2166'> +2.8363236e+02 </wgt>
<wgt id='2167'> +2.8357120e+02 </wgt>
<wgt id='2168'> +2.8352255e+02 </wgt>
<wgt id='2169'> +2.8360468e+02 </wgt>
<wgt id='2170'> +2.8359547e+02 </wgt>
<wgt id='2171'> +2.8357615e+02 </wgt>
<wgt id='2172'> +2.8360255e+02 </wgt>
<wgt id='2173'> +2.8360313e+02 </wgt>
<wgt id='2174'> +2.8360949e+02 </wgt>
<wgt id='2175'> +2.8360048e+02 </wgt>
<wgt id='2176'> +2.8358373e+02 </wgt>
<wgt id='2177'> +3.0263829e+02 </wgt>
<wgt id='2178'> +3.0248661e+02 </wgt>
<wgt id='2179'> +3.0419244e+02 </wgt>
<wgt id='2180'> +3.1068632e+02 </wgt>
<wgt id='2181'> +2.9364880e+02 </wgt>
<wgt id='2182'> +2.9429894e+02 </wgt>
<wgt id='2183'> +3.0778413e+02 </wgt>
<wgt id='2184'> +3.0128299e+02 </wgt>
<wgt id='2185'> +3.0619821e+02 </wgt>
<wgt id='2186'> +3.0934836e+02 </wgt>
<wgt id='2187'> +2.9689655e+02 </wgt>
<wgt id='2188'> +2.8184025e+02 </wgt>
<wgt id='2189'> +3.0662751e+02 </wgt>
<wgt id='2190'> +2.9819066e+02 </wgt>
<wgt id='2191'> +3.0206282e+02 </wgt>
<wgt id='2192'> +3.1101726e+02 </wgt>
<wgt id='2193'> +3.0890204e+02 </wgt>
<wgt id='2194'> +3.0768989e+02 </wgt>
<wgt id='2195'> +3.0990976e+02 </wgt>
<wgt id='2196'> +3.0603879e+02 </wgt>
<wgt id='2197'> +3.2013727e+02 </wgt>
<wgt id='2198'> +3.0245653e+02 </wgt>
<wgt id='2199'> +2.9699390e+02 </wgt>
<wgt id='2200'> +3.1399358e+02 </wgt>
<wgt id='2201'> +3.0179056e+02 </wgt>
<wgt id='2202'> +2.9890320e+02 </wgt>
<wgt id='2203'> +3.0276884e+02 </wgt>
<wgt id='2204'> +3.0805910e+02 </wgt>
<wgt id='2205'> +2.9957256e+02 </wgt>
<wgt id='2206'> +3.1249151e+02 </wgt>
<wgt id='2207'> +3.1270081e+02 </wgt>
<wgt id='2208'> +2.9663180e+02 </wgt>
<wgt id='2209'> +2.9343209e+02 </wgt>
<wgt id='2210'> +2.9327970e+02 </wgt>
<wgt id='2211'> +2.9943087e+02 </wgt>
<wgt id='2212'> +3.1122971e+02 </wgt>
<wgt id='2213'> +3.0146014e+02 </wgt>
<wgt id='2214'> +3.0884759e+02 </wgt>
<wgt id='2215'> +3.0663808e+02 </wgt>
<wgt id='2216'> +3.0139250e+02 </wgt>
<wgt id='2217'> +2.9685045e+02 </wgt>
<wgt id='2218'> +3.0447520e+02 </wgt>
<wgt id='2219'> +2.9804340e+02 </wgt>
<wgt id='2220'> +2.9629821e+02 </wgt>
<wgt id='2221'> +3.0332155e+02 </wgt>
<wgt id='2222'> +3.0024152e+02 </wgt>
<wgt id='2223'> +3.0820405e+02 </wgt>
<wgt id='2224'> +3.0070005e+02 </wgt>
<wgt id='2225'> +3.0353451e+02 </wgt>
<wgt id='2226'> +3.0155513e+02 </wgt>
<wgt id='2227'> +2.9816245e+02 </wgt>
<wgt id='2228'> +2.9875417e+02 </wgt>
<wgt id='2229'> +2.9850170e+02 </wgt>
<wgt id='2230'> +3.0548894e+02 </wgt>
<wgt id='2231'> +2.9595148e+02 </wgt>
<wgt id='2232'> +2.9562861e+02 </wgt>
<wgt id='2233'> +3.0423675e+02 </wgt>
<wgt id='2234'> +3.0361062e+02 </wgt>
<wgt id='2235'> +2.9603503e+02 </wgt>
<wgt id='2236'> +3.1356923e+02 </wgt>
<wgt id='2237'> +3.0123377e+02 </wgt>
<wgt id='2238'> +3.0190612e+02 </wgt>
<wgt id='2239'> +3.0884072e+02 </wgt>
<wgt id='2240'> +2.9484483e+02 </wgt>
<wgt id='2241'> +3.0248201e+02 </wgt>
<wgt id='2242'> +3.0175612e+02 </wgt>
<wgt id='2243'> +2.9948501e+02 </wgt>
<wgt id='2244'> +3.2499370e+02 </wgt>
<wgt id='2245'> +3.0059454e+02 </wgt>
<wgt id='2246'> +2.9185830e+02 </wgt>
<wgt id='2247'> +2.9232798e+02 </wgt>
<wgt id='2248'> +2.9721368e+02 </wgt>
<wgt id='2249'> +3.0495501e+02 </wgt>
<wgt id='2250'> +2.9709226e+02 </wgt>
<wgt id='2251'> +3.0564848e+02 </wgt>
<wgt id='2252'> +3.0191026e+02 </wgt>
<wgt id='2253'> +2.9132146e+02 </wgt>
<wgt id='2254'> +2.9568149e+02 </wgt>
<wgt id='2255'> +3.0387539e+02 </wgt>
<wgt id='2256'> +3.0098428e+02 </wgt>
<wgt id='2257'> +2.9734681e+02 </wgt>
<wgt id='2258'> +3.0197742e+02 </wgt>
<wgt id='2259'> +2.9398046e+02 </wgt>
<wgt id='2260'> +3.1774836e+02 </wgt>
<wgt id='2261'> +3.0113802e+02 </wgt>
<wgt id='2262'> +3.0216580e+02 </wgt>
<wgt id='2263'> +2.9907585e+02 </wgt>
<wgt id='2264'> +3.0505808e+02 </wgt>
<wgt id='2265'> +3.0250861e+02 </wgt>
<wgt id='2266'> +3.1607263e+02 </wgt>
<wgt id='2267'> +2.9675290e+02 </wgt>
<wgt id='2268'> +3.0058538e+02 </wgt>
<wgt id='2269'> +2.9946611e+02 </wgt>
<wgt id='2270'> +3.0698109e+02 </wgt>
<wgt id='2271'> +3.1034269e+02 </wgt>
<wgt id='2272'> +3.0195766e+02 </wgt>
<wgt id='2273'> +3.0530966e+02 </wgt>
<wgt id='2274'> +3.0338561e+02 </wgt>
<wgt id='2275'> +3.0291535e+02 </wgt>
<wgt id='2276'> +3.0650255e+02 </wgt>
<wgt id='2277'> +3.1033271e+02 </wgt>
<wgt id='2278'> +2.9171463e+02 </wgt>
<wgt id='2279'> +3.1190995e+02 </wgt>
<wgt id='2280'> +2.9132931e+02 </wgt>
<wgt id='2281'> +2.7323427e+02 </wgt>
<wgt id='2282'> +4.2335808e+02 </wgt>
<wgt id='2283'> +3.0726232e+02 </wgt>
<wgt id='2284'> +4.1048389e+02 </wgt>
</rwgt>
</event>
<event npLO=" -1 " npNLO=" 2 ">
 5      2 +2.8781417e+02 1.92575560e+01 7.54677110e-03 1.17336820e-01
       21 -1    0    0  501  502 +0.0000000000e+00 +0.0000000000e+00 +5.9460051000e+01 5.9460051000e+01 0.0000000000e+00 0.0000e+00 9.0000e+00
        2 -1    0    0  503    0 +0.0000000000e+00 +0.0000000000e+00 -9.0014896000e+02 9.0014896000e+02 0.0000000000e+00 0.0000e+00 9.0000e+00
       25  1    1    2    0    0 +3.6545788000e+01 -3.4918490000e+01 -1.9797307000e+01 1.1378413000e+02 1.0000000000e+02 0.0000e+00 9.0000e+00
        2  1    1    2  501    0 -1.9010219000e+01 +2.6958763000e+01 -8.2538999000e+02 8.2604891000e+02 0.0000000000e+00 0.0000e+00 9.0000e+00
       21  1    1    2  503  502 -1.7535570000e+01 +7.9597266000e+00 +4.4983878000e+00 1.9775969000e+01 0.0000000000e+00 0.0000e+00 9.0000e+00
#aMCatNLO 1  0  0  1  2 0.73897225E+01 0.00000000E+00 -9  6  0 0.00000000E+00 0.00000000E+00 0.00000000E+00 0.00000000E+00 0.00000000E+00
<rwgt>
<wgt id='1001'> +2.8781417e+02 </wgt>
<wgt id='1002'> +2.0751856e+02 </wgt>
<wgt id='1003'> +4.0310122e+02 </wgt>
<wgt id='1004'> +3.2849350e+02 </wgt>
<wgt id='1005'> +2.3215295e+02 </wgt>
<wgt id='1006'> +4.7503496e+02 </wgt>
<wgt id='1007'> +2.5431515e+02 </wgt>
<wgt id='1008'> +1.8603633e+02 </wgt>
<wgt id='1009'> +3.4767476e+02 </wgt>
<wgt id='1010'> +2.8781417e+02 </wgt>
<wgt id='1011'> +2.8818777e+02 </wgt>
<wgt id='1012'> +2.8744594e+02 </wgt>
<wgt id='1013'> +2.8852410e+02 </wgt>
<wgt id='1014'> +2.8772078e+02 </wgt>
<wgt id='1015'> +2.8926934e+02 </wgt>
<wgt id='1016'> +2.8763992e+02 </wgt>
<wgt id='1017'> +2.8936693e+02 </wgt>
<wgt id='1018'> +2.8878186e+02 </wgt>
<wgt id='1019'> +2.8817966e+02 </wgt>
<wgt id='1020'> +2.8758722e+02 </wgt>
<wgt id='1021'> +2.8660251e+02 </wgt>
<wgt id='1022'> +2.8768730e+02 </wgt>
<wgt id='1023'> +2.8695387e+02 </wgt>
<wgt id='1024'> +2.8755387e+02 </wgt>
<wgt id='1025'> +2.8758371e+02 </wgt>
<wgt id='1026'> +2.8718198e+02 </wgt>
<wgt id='1027'> +2.8727498e+02 </wgt>
<wgt id='1028'> +2.8875437e+02 </wgt>
<wgt id='1029'> +2.8820840e+02 </wgt>
<wgt id='1030'> +2.8702995e+02 </wgt>
<wgt id='1031'> +2.8817301e+02 </wgt>
<wgt id='1032'> +2.8834041e+02 </wgt>
<wgt id='1033'> +2.8763080e+02 </wgt>
<wgt id='1034'> +2.8833395e+02 </wgt>
<wgt id='1035'> +2.8767941e+02 </wgt>
<wgt id='1036'> +2.8772350e+02 </wgt>
<wgt id='1037'> +2.8743887e+02 </wgt>
<wgt id='1038'> +2.8816123e+02 </wgt>
<wgt id='1039'> +2.8905991e+02 </wgt>
<wgt id='1040'> +2.8768564e+02 </wgt>
<wgt id='1041'> +2.8940119e+02 </wgt>
<wgt id='1042'> +2.8777419e+02 </wgt>
<wgt id='1043'> +2.8823916e+02 </wgt>
<wgt id='1044'> +2.8846870e+02 </wgt>
<wgt id='1045'> +2.8764746e+02 </wgt>
<wgt id='1046'> +2.8722599e+02 </wgt>
<wgt id='1047'> +2.8858097e+02 </wgt>
<wgt id='1048'> +2.8765230e+02 </wgt>
<wgt id='1049'> +2.8772451e+02 </wgt>
<wgt id='1050'> +2.8848843e+02 </wgt>
<wgt id='1051'> +2.8887993e+02 </wgt>
<wgt id='1052'> +2.8816155e+02 </wgt>
<wgt id='1053'> +2.8782602e+02 </wgt>
<wgt id='1054'> +2.8725019e+02 </wgt>
<wgt id='1055'> +2.8772823e+02 </wgt>
<wgt id='1056'> +2.8754093e+02 </wgt>
<wgt id='1057'> +2.8752933e+02 </wgt>
<wgt id='1058'> +2.8704248e+02 </wgt>
<wgt id='1059'> +2.8800567e+02 </wgt>
<wgt id='1060'> +2.8743848e+02 </wgt>
<wgt id='1061'> +2.8769601e+02 </wgt>
<wgt id='1062'> +2.8800454e+02 </wgt>
<wgt id='1063'> +2.8796671e+02 </wgt>
<wgt id='1064'> +2.8813196e+02 </wgt>
<wgt id='1065'> +2.8806353e+02 </wgt>
<wgt id='1066'> +2.8808888e+02 </wgt>
<wgt id='1067'> +2.8817858e+02 </wgt>
<wgt id='1068'> +2.8780448e+02 </wgt>
<wgt id='1069'> +2.8812604e+02 </wgt>
<wgt id='1070'> +2.8766679e+02 </wgt>
<wgt id='1071'> +2.8797447e+02 </wgt>
<wgt id='1072'> +2.8766871e+02 </wgt>
<wgt id='1073'> +2.8764830e+02 </wgt>
<wgt id='1074'> +2.8760185e+02 </wgt>
<wgt id='1075'> +2.8793124e+02 </wgt>
<wgt id='1076'> +2.8777633e+02 </wgt>
<wgt id='1077'> +2.8790521e+02 </wgt>
<wgt id='1078'> +2.8769173e+02 </wgt>
<wgt id='1079'> +2.8786930e+02 </wgt>
<wgt id='1080'> +2.8760200e+02 </wgt>
<wgt id='1081'> +2.8774851e+02 </wgt>
<wgt id='1082'> +2.8795233e+02 </wgt>
<wgt id='1083'> +2.8766772e+02 </wgt>
<wgt id='1084'> +2.8787408e+02 </wgt>
<wgt id='1085'> +2.8774585e+02 </wgt>
<wgt id='1086'> +2.8797915e+02 </wgt>
<wgt id='1087'> +2.8813656e+02 </wgt>
<wgt id='1088'> +2.8786232e+02 </wgt>
<wgt id='1089'> +2.8794519e+02 </wgt>
<wgt id='1090'> +2.8790130e+02 </wgt>
<wgt id='1091'> +2.8765539e+02 </wgt>
<wgt id='1092'> +2.8778626e+02 </wgt>
<wgt id='1093'> +2.8777435e+02 </wgt>
<wgt id='1094'> +2.8796002e+02 </wgt>
<wgt id='1095'> +2.8788880e+02 </wgt>
<wgt id='1096'> +2.8763636e+02 </wgt>
<wgt id='1097'> +2.8770103e+02 </wgt>
<wgt id='1098'> +2.8756994e+02 </wgt>
<wgt id='1099'> +2.8776652e+02 </wgt>
<wgt id='1100'> +2.8796001e+02 </wgt>
<wgt id='1101'> +2.8787324e+02 </wgt>
<wgt id='1102'> +2.8795736e+02 </wgt>
<wgt id='1103'> +2.8783035e+02 </wgt>
<wgt id='1104'> +2.8772600e+02 </wgt>
<wgt id='1105'> +2.8803813e+02 </wgt>
<wgt id='1106'> +2.8778983e+02 </wgt>
<wgt id='1107'> +2.8781052e+02 </wgt>
<wgt id='1108'> +2.8784858e+02 </wgt>
<wgt id='1109'> +2.8789546e+02 </wgt>
<wgt id='1110'> +2.8781416e+02 </wgt>
<wgt id='1111'> +2.6536444e+02 </wgt>
<wgt id='1112'> +3.0995894e+02 </wgt>
<wgt id='1113'> +2.8781416e+02 </wgt>
<wgt id='1114'> +2.8414785e+02 </wgt>
<wgt id='1115'> +2.9160266e+02 </wgt>
<wgt id='1116'> +2.8680961e+02 </wgt>
<wgt id='1117'> +2.8205623e+02 </wgt>
<wgt id='1118'> +2.8780157e+02 </wgt>
<wgt id='1119'> +2.8386090e+02 </wgt>
<wgt id='1120'> +2.9188901e+02 </wgt>
<wgt id='1121'> +2.9053585e+02 </wgt>
<wgt id='1122'> +2.8919017e+02 </wgt>
<wgt id='1123'> +2.7731586e+02 </wgt>
<wgt id='1124'> +2.8833281e+02 </wgt>
<wgt id='1125'> +2.8177701e+02 </wgt>
<wgt id='1126'> +2.8681158e+02 </wgt>
<wgt id='1127'> +2.9035318e+02 </wgt>
<wgt id='1128'> +2.9552110e+02 </wgt>
<wgt id='1129'> +2.9013070e+02 </wgt>
<wgt id='1130'> +2.8888148e+02 </wgt>
<wgt id='1131'> +2.8759923e+02 </wgt>
<wgt id='1132'> +2.9346031e+02 </wgt>
<wgt id='1133'> +2.9067656e+02 </wgt>
<wgt id='1134'> +2.8558963e+02 </wgt>
<wgt id='1135'> +2.9238968e+02 </wgt>
<wgt id='1136'> +2.9225770e+02 </wgt>
<wgt id='1137'> +2.8429145e+02 </wgt>
<wgt id='1138'> +2.9269551e+02 </wgt>
<wgt id='1139'> +2.9772192e+02 </wgt>
<wgt id='1140'> +2.7927188e+02 </wgt>
<wgt id='1141'> +2.8742798e+02 </wgt>
<wgt id='1142'> +2.8927996e+02 </wgt>
<wgt id='1143'> +2.8946116e+02 </wgt>
<wgt id='1144'> +2.8574866e+02 </wgt>
<wgt id='1145'> +2.8466981e+02 </wgt>
<wgt id='1146'> +2.8903653e+02 </wgt>
<wgt id='1147'> +2.8012676e+02 </wgt>
<wgt id='1148'> +2.8871132e+02 </wgt>
<wgt id='1149'> +2.9189406e+02 </wgt>
<wgt id='1150'> +2.9196248e+02 </wgt>
<wgt id='1151'> +2.8846384e+02 </wgt>
<wgt id='1152'> +2.8717926e+02 </wgt>
<wgt id='1153'> +2.8900105e+02 </wgt>
<wgt id='1154'> +2.9233966e+02 </wgt>
<wgt id='1155'> +2.8168960e+02 </wgt>
<wgt id='1156'> +2.8254564e+02 </wgt>
<wgt id='1157'> +2.8226684e+02 </wgt>
<wgt id='1158'> +2.9340479e+02 </wgt>
<wgt id='1159'> +2.8804867e+02 </wgt>
<wgt id='1160'> +2.8250440e+02 </wgt>
<wgt id='1161'> +2.8727962e+02 </wgt>
<wgt id='1162'> +2.9207059e+02 </wgt>
<wgt id='1163'> +2.8451754e+02 </wgt>
<wgt id='1164'> +2.8538025e+02 </wgt>
<wgt id='1165'> +2.8919118e+02 </wgt>
<wgt id='1166'> +2.8992140e+02 </wgt>
<wgt id='1167'> +2.8313369e+02 </wgt>
<wgt id='1168'> +2.9204683e+02 </wgt>
<wgt id='1169'> +2.8579272e+02 </wgt>
<wgt id='1170'> +2.8839899e+02 </wgt>
<wgt id='1171'> +2.9266124e+02 </wgt>
<wgt id='1172'> +2.9929137e+02 </wgt>
<wgt id='1173'> +2.9231287e+02 </wgt>
<wgt id='1174'> +2.8198446e+02 </wgt>
<wgt id='1175'> +2.8560133e+02 </wgt>
<wgt id='1176'> +2.8769967e+02 </wgt>
<wgt id='1177'> +2.9079404e+02 </wgt>
<wgt id='1178'> +2.9052529e+02 </wgt>
<wgt id='1179'> +2.9477430e+02 </wgt>
<wgt id='1180'> +2.8412236e+02 </wgt>
<wgt id='1181'> +2.9129472e+02 </wgt>
<wgt id='1182'> +2.8810883e+02 </wgt>
<wgt id='1183'> +2.7888342e+02 </wgt>
<wgt id='1184'> +2.9222508e+02 </wgt>
<wgt id='1185'> +2.9178698e+02 </wgt>
<wgt id='1186'> +2.8730196e+02 </wgt>
<wgt id='1187'> +2.9044862e+02 </wgt>
<wgt id='1188'> +2.8769788e+02 </wgt>
<wgt id='1189'> +2.9398972e+02 </wgt>
<wgt id='1190'> +2.8103996e+02 </wgt>
<wgt id='1191'> +2.9277413e+02 </wgt>
<wgt id='1192'> +2.9045704e+02 </wgt>
<wgt id='1193'> +2.8055086e+02 </wgt>
<wgt id='1194'> +2.8017437e+02 </wgt>
<wgt id='1195'> +2.9013070e+02 </wgt>
<wgt id='1196'> +2.7725281e+02 </wgt>
<wgt id='1197'> +2.8891553e+02 </wgt>
<wgt id='1198'> +2.8821394e+02 </wgt>
<wgt id='1199'> +2.7949336e+02 </wgt>
<wgt id='1200'> +2.9091416e+02 </wgt>
<wgt id='1201'> +2.7796156e+02 </wgt>
<wgt id='1202'> +2.8191103e+02 </wgt>
<wgt id='1203'> +2.8424730e+02 </wgt>
<wgt id='1204'> +2.9010243e+02 </wgt>
<wgt id='1205'> +2.9172595e+02 </wgt>
<wgt id='1206'> +2.9027036e+02 </wgt>
<wgt id='1207'> +2.8510743e+02 </wgt>
<wgt id='1208'> +2.8064224e+02 </wgt>
<wgt id='1209'> +2.8992678e+02 </wgt>
<wgt id='1210'> +2.8242433e+02 </wgt>
<wgt id='1211'> +2.9142845e+02 </wgt>
<wgt id='1212'> +2.9386059e+02 </wgt>
<wgt id='1213'> +2.9322198e+02 </wgt>
<wgt id='1214'> +2.8758347e+02 </wgt>
<wgt id='1215'> +2.8748938e+02 </wgt>
<wgt id='1216'> +2.8842344e+02 </wgt>
<wgt id='1217'> +2.8841764e+02 </wgt>
<wgt id='1218'> +2.8743291e+02 </wgt>
<wgt id='1219'> +2.8717155e+02 </wgt>
<wgt id='1220'> +2.8765632e+02 </wgt>
<wgt id='1221'> +2.8652283e+02 </wgt>
<wgt id='1222'> +2.8728890e+02 </wgt>
<wgt id='1223'> +2.8781073e+02 </wgt>
<wgt id='1224'> +2.8786721e+02 </wgt>
<wgt id='1225'> +2.8852470e+02 </wgt>
<wgt id='1226'> +2.8833849e+02 </wgt>
<wgt id='1227'> +2.8953999e+02 </wgt>
<wgt id='1228'> +2.8893059e+02 </wgt>
<wgt id='1229'> +2.8757104e+02 </wgt>
<wgt id='1230'> +2.8708015e+02 </wgt>
<wgt id='1231'> +2.8783522e+02 </wgt>
<wgt id='1232'> +2.8827912e+02 </wgt>
<wgt id='1233'> +2.8770644e+02 </wgt>
<wgt id='1234'> +2.8827374e+02 </wgt>
<wgt id='1235'> +2.8747265e+02 </wgt>
<wgt id='1236'> +2.8806230e+02 </wgt>
<wgt id='1237'> +2.8690106e+02 </wgt>
<wgt id='1238'> +2.8772968e+02 </wgt>
<wgt id='1239'> +2.8751335e+02 </wgt>
<wgt id='1240'> +2.8658832e+02 </wgt>
<wgt id='1241'> +2.8844743e+02 </wgt>
<wgt id='1242'> +2.8833261e+02 </wgt>
<wgt id='1243'> +2.8475931e+02 </wgt>
<wgt id='1244'> +2.8715323e+02 </wgt>
<wgt id='1245'> +2.8734817e+02 </wgt>
<wgt id='1246'> +2.8701796e+02 </wgt>
<wgt id='1247'> +2.8719512e+02 </wgt>
<wgt id='1248'> +2.8777420e+02 </wgt>
<wgt id='1249'> +2.8715972e+02 </wgt>
<wgt id='1250'> +2.8730903e+02 </wgt>
<wgt id='1251'> +2.8780204e+02 </wgt>
<wgt id='1252'> +2.8730856e+02 </wgt>
<wgt id='1253'> +2.8770185e+02 </wgt>
<wgt id='1254'> +2.8734003e+02 </wgt>
<wgt id='1255'> +2.8762431e+02 </wgt>
<wgt id='1256'> +2.8751244e+02 </wgt>
<wgt id='1257'> +2.8794600e+02 </wgt>
<wgt id='1258'> +2.8765210e+02 </wgt>
<wgt id='1259'> +2.8739714e+02 </wgt>
<wgt id='1260'> +2.8798982e+02 </wgt>
<wgt id='1261'> +2.8828160e+02 </wgt>
<wgt id='1262'> +2.8752011e+02 </wgt>
<wgt id='1263'> +2.8757883e+02 </wgt>
<wgt id='1264'> +2.8728593e+02 </wgt>
<wgt id='1265'> +2.8764723e+02 </wgt>
<wgt id='1266'> +2.8764222e+02 </wgt>
<wgt id='1267'> +2.8756037e+02 </wgt>
<wgt id='1268'> +2.8762535e+02 </wgt>
<wgt id='1269'> +2.8729489e+02 </wgt>
<wgt id='1270'> +2.8757326e+02 </wgt>
<wgt id='1271'> +2.8758914e+02 </wgt>
<wgt id='1272'> +2.8734730e+02 </wgt>
<wgt id='1273'> +2.8758098e+02 </wgt>
<wgt id='1274'> +2.8825238e+02 </wgt>
<wgt id='1275'> +2.8769418e+02 </wgt>
<wgt id='1276'> +2.8769470e+02 </wgt>
<wgt id='1277'> +2.8758284e+02 </wgt>
<wgt id='1278'> +2.8744852e+02 </wgt>
<wgt id='1279'> +2.8770377e+02 </wgt>
<wgt id='1280'> +2.8752964e+02 </wgt>
<wgt id='1281'> +2.8774086e+02 </wgt>
<wgt id='1282'> +2.8798765e+02 </wgt>
<wgt id='1283'> +2.8763180e+02 </wgt>
<wgt id='1284'> +2.8742734e+02 </wgt>
<wgt id='1285'> +2.8751670e+02 </wgt>
<wgt id='1286'> +2.8763232e+02 </wgt>
<wgt id='1287'> +2.8770188e+02 </wgt>
<wgt id='1288'> +2.8737453e+02 </wgt>
<wgt id='1289'> +2.8737500e+02 </wgt>
<wgt id='1290'> +2.8750719e+02 </wgt>
<wgt id='1291'> +2.8757259e+02 </wgt>
<wgt id='1292'> +2.8779158e+02 </wgt>
<wgt id='1293'> +2.8727064e+02 </wgt>
<wgt id='1294'> +2.8783661e+02 </wgt>
<wgt id='1295'> +2.8770198e+02 </wgt>
<wgt id='1296'> +2.8762409e+02 </wgt>
<wgt id='1297'> +2.8767505e+02 </wgt>
<wgt id='1298'> +2.8774024e+02 </wgt>
<wgt id='1299'> +2.8758572e+02 </wgt>
<wgt id='1300'> +2.8735386e+02 </wgt>
<wgt id='1301'> +2.8744015e+02 </wgt>
<wgt id='1302'> +2.8740436e+02 </wgt>
<wgt id='1303'> +2.8767791e+02 </wgt>
<wgt id='1304'> +2.8772035e+02 </wgt>
<wgt id='1305'> +2.8736377e+02 </wgt>
<wgt id='1306'> +2.8764258e+02 </wgt>
<wgt id='1307'> +2.8746048e+02 </wgt>
<wgt id='1308'> +2.8774700e+02 </wgt>
<wgt id='1309'> +2.8760426e+02 </wgt>
<wgt id='1310'> +2.8774078e+02 </wgt>
<wgt id='1311'> +2.8763655e+02 </wgt>
<wgt id='1312'> +2.8766231e+02 </wgt>
<wgt id='1313'> +2.8766278e+02 </wgt>
<wgt id='1314'> +2.8762825e+02 </wgt>
<wgt id='1315'> +2.6536444e+02 </wgt>
<wgt id='1316'> +3.0995894e+02 </wgt>
<wgt id='1317'> +1.9192095e+02 </wgt>
<wgt id='1318'> +2.0807059e+02 </wgt>
<wgt id='1319'> +2.2694574e+02 </wgt>
<wgt id='1320'> +2.4652581e+02 </wgt>
<wgt id='1321'> +2.7755845e+02 </wgt>
<wgt id='1322'> +2.9885818e+02 </wgt>
<wgt id='1323'> +3.3378814e+02 </wgt>
<wgt id='1324'> +3.5895703e+02 </wgt>
<wgt id='1325'> +2.8623077e+02 </wgt>
<wgt id='1326'> +2.8694206e+02 </wgt>
<wgt id='1327'> +2.8540137e+02 </wgt>
<wgt id='1328'> +2.8712369e+02 </wgt>
<wgt id='1329'> +2.8608599e+02 </wgt>
<wgt id='1330'> +2.8734535e+02 </wgt>
<wgt id='1331'> +2.8693308e+02 </wgt>
<wgt id='1332'> +2.8693417e+02 </wgt>
<wgt id='1333'> +2.8552623e+02 </wgt>
<wgt id='1334'> +2.8640061e+02 </wgt>
<wgt id='1335'> +2.8591058e+02 </wgt>
<wgt id='1336'> +2.8655105e+02 </wgt>
<wgt id='1337'> +2.8695690e+02 </wgt>
<wgt id='1338'> +2.8440610e+02 </wgt>
<wgt id='1339'> +2.8735585e+02 </wgt>
<wgt id='1340'> +2.8683510e+02 </wgt>
<wgt id='1341'> +2.8574473e+02 </wgt>
<wgt id='1342'> +2.8716356e+02 </wgt>
<wgt id='1343'> +2.8603818e+02 </wgt>
<wgt id='1344'> +2.8533756e+02 </wgt>
<wgt id='1345'> +2.8559533e+02 </wgt>
<wgt id='1346'> +2.8617015e+02 </wgt>
<wgt id='1347'> +2.8659266e+02 </wgt>
<wgt id='1348'> +2.8704934e+02 </wgt>
<wgt id='1349'> +2.8629967e+02 </wgt>
<wgt id='1350'> +2.8556588e+02 </wgt>
<wgt id='1351'> +2.8604684e+02 </wgt>
<wgt id='1352'> +2.8604481e+02 </wgt>
<wgt id='1353'> +2.8698474e+02 </wgt>
<wgt id='1354'> +2.8729390e+02 </wgt>
<wgt id='1355'> +2.8369378e+02 </wgt>
<wgt id='1356'> +2.8485729e+02 </wgt>
<wgt id='1357'> +2.8677495e+02 </wgt>
<wgt id='1358'> +2.8651765e+02 </wgt>
<wgt id='1359'> +2.8611575e+02 </wgt>
<wgt id='1360'> +2.8682757e+02 </wgt>
<wgt id='1361'> +2.8657790e+02 </wgt>
<wgt id='1362'> +2.8548300e+02 </wgt>
<wgt id='1363'> +2.8645316e+02 </wgt>
<wgt id='1364'> +2.8627984e+02 </wgt>
<wgt id='1365'> +2.8602910e+02 </wgt>
<wgt id='1366'> +2.8660481e+02 </wgt>
<wgt id='1367'> +2.8651049e+02 </wgt>
<wgt id='1368'> +2.8580653e+02 </wgt>
<wgt id='1369'> +2.8625859e+02 </wgt>
<wgt id='1370'> +2.8644788e+02 </wgt>
<wgt id='1371'> +2.8612159e+02 </wgt>
<wgt id='1372'> +2.8621921e+02 </wgt>
<wgt id='1373'> +2.8662660e+02 </wgt>
<wgt id='1374'> +2.8604771e+02 </wgt>
<wgt id='1375'> +2.8603550e+02 </wgt>
<wgt id='1376'> +2.8634307e+02 </wgt>
<wgt id='1377'> +2.8649317e+02 </wgt>
<wgt id='1378'> +2.8589196e+02 </wgt>
<wgt id='1379'> +2.8610355e+02 </wgt>
<wgt id='1380'> +2.8608932e+02 </wgt>
<wgt id='1381'> +2.8589443e+02 </wgt>
<wgt id='1382'> +2.8642597e+02 </wgt>
<wgt id='1383'> +2.8604752e+02 </wgt>
<wgt id='1384'> +2.8627629e+02 </wgt>
<wgt id='1385'> +2.8613172e+02 </wgt>
<wgt id='1386'> +2.8615760e+02 </wgt>
<wgt id='1387'> +2.8582852e+02 </wgt>
<wgt id='1388'> +2.8644077e+02 </wgt>
<wgt id='1389'> +2.8600234e+02 </wgt>
<wgt id='1390'> +2.8629570e+02 </wgt>
<wgt id='1391'> +2.8621623e+02 </wgt>
<wgt id='1392'> +2.8576161e+02 </wgt>
<wgt id='1393'> +2.8652123e+02 </wgt>
<wgt id='1394'> +2.8601630e+02 </wgt>
<wgt id='1395'> +2.8601751e+02 </wgt>
<wgt id='1396'> +2.8616200e+02 </wgt>
<wgt id='1397'> +2.8618306e+02 </wgt>
<wgt id='1398'> +2.8620723e+02 </wgt>
<wgt id='1399'> +2.8672562e+02 </wgt>
<wgt id='1400'> +2.8609900e+02 </wgt>
<wgt id='1401'> +2.8637057e+02 </wgt>
<wgt id='1402'> +2.8607436e+02 </wgt>
<wgt id='1403'> +2.8631725e+02 </wgt>
<wgt id='1404'> +2.8626387e+02 </wgt>
<wgt id='1405'> +2.8632123e+02 </wgt>
<wgt id='1406'> +2.8667969e+02 </wgt>
<wgt id='1407'> +2.8609991e+02 </wgt>
<wgt id='1408'> +2.8637961e+02 </wgt>
<wgt id='1409'> +2.8602257e+02 </wgt>
<wgt id='1410'> +2.8617759e+02 </wgt>
<wgt id='1411'> +2.8625192e+02 </wgt>
<wgt id='1412'> +2.8631553e+02 </wgt>
<wgt id='1413'> +2.8611633e+02 </wgt>
<wgt id='1414'> +2.8618535e+02 </wgt>
<wgt id='1415'> +2.8633794e+02 </wgt>
<wgt id='1416'> +2.8638108e+02 </wgt>
<wgt id='1417'> +2.8635576e+02 </wgt>
<wgt id='1418'> +2.8617379e+02 </wgt>
<wgt id='1419'> +2.8618588e+02 </wgt>
<wgt id='1420'> +2.8635660e+02 </wgt>
<wgt id='1421'> +2.8593711e+02 </wgt>
<wgt id='1422'> +2.8616268e+02 </wgt>
<wgt id='1423'> +2.8634372e+02 </wgt>
<wgt id='1424'> +2.8611664e+02 </wgt>
<wgt id='1425'> +2.8627652e+02 </wgt>
<wgt id='1426'> +2.6522550e+02 </wgt>
<wgt id='1427'> +3.0952159e+02 </wgt>
<wgt id='1428'> +2.8335243e+02 </wgt>
<wgt id='1429'> +2.8522789e+02 </wgt>
<wgt id='1430'> +2.8427511e+02 </wgt>
<wgt id='1431'> +2.8237366e+02 </wgt>
<wgt id='1432'> +2.8394618e+02 </wgt>
<wgt id='1433'> +2.7986133e+02 </wgt>
<wgt id='1434'> +2.8659982e+02 </wgt>
<wgt id='1435'> +2.8622191e+02 </wgt>
<wgt id='1436'> +2.7993781e+02 </wgt>
<wgt id='1437'> +2.8532060e+02 </wgt>
<wgt id='1438'> +2.8257127e+02 </wgt>
<wgt id='1439'> +2.8374259e+02 </wgt>
<wgt id='1440'> +2.8201383e+02 </wgt>
<wgt id='1441'> +2.7961867e+02 </wgt>
<wgt id='1442'> +2.8323282e+02 </wgt>
<wgt id='1443'> +2.8450083e+02 </wgt>
<wgt id='1444'> +2.7979377e+02 </wgt>
<wgt id='1445'> +2.8466799e+02 </wgt>
<wgt id='1446'> +2.8233867e+02 </wgt>
<wgt id='1447'> +2.8311878e+02 </wgt>
<wgt id='1448'> +2.8368252e+02 </wgt>
<wgt id='1449'> +2.8320337e+02 </wgt>
<wgt id='1450'> +2.8338513e+02 </wgt>
<wgt id='1451'> +2.8291164e+02 </wgt>
<wgt id='1452'> +2.8378010e+02 </wgt>
<wgt id='1453'> +2.8270365e+02 </wgt>
<wgt id='1454'> +2.8387924e+02 </wgt>
<wgt id='1455'> +2.8603372e+02 </wgt>
<wgt id='1456'> +2.7883063e+02 </wgt>
<wgt id='1457'> +2.7821455e+02 </wgt>
<wgt id='1458'> +2.8649963e+02 </wgt>
<wgt id='1459'> +2.8133607e+02 </wgt>
<wgt id='1460'> +2.8625631e+02 </wgt>
<wgt id='1461'> +2.8268798e+02 </wgt>
<wgt id='1462'> +2.8395283e+02 </wgt>
<wgt id='1463'> +2.8165212e+02 </wgt>
<wgt id='1464'> +2.8470507e+02 </wgt>
<wgt id='1465'> +2.8633630e+02 </wgt>
<wgt id='1466'> +2.7983201e+02 </wgt>
<wgt id='1467'> +2.8650164e+02 </wgt>
<wgt id='1468'> +2.8119439e+02 </wgt>
<wgt id='1469'> +2.8031805e+02 </wgt>
<wgt id='1470'> +2.8376222e+02 </wgt>
<wgt id='1471'> +2.8446267e+02 </wgt>
<wgt id='1472'> +2.7920672e+02 </wgt>
<wgt id='1473'> +2.9068884e+02 </wgt>
<wgt id='1474'> +2.8060356e+02 </wgt>
<wgt id='1475'> +2.8097036e+02 </wgt>
<wgt id='1476'> +2.8776723e+02 </wgt>
<wgt id='1477'> +2.8527795e+02 </wgt>
<wgt id='1478'> +2.8244380e+02 </wgt>
<wgt id='1479'> +2.8415101e+02 </wgt>
<wgt id='1480'> +2.8370747e+02 </wgt>
<wgt id='1481'> +2.8178827e+02 </wgt>
<wgt id='1482'> +2.8675457e+02 </wgt>
<wgt id='1483'> +2.8177100e+02 </wgt>
<wgt id='1484'> +2.8478622e+02 </wgt>
<wgt id='1485'> +2.6332038e+02 </wgt>
<wgt id='1486'> +3.0369624e+02 </wgt>
<wgt id='1487'> +2.8593134e+02 </wgt>
<wgt id='1488'> +2.8652966e+02 </wgt>
<wgt id='1489'> +2.8636471e+02 </wgt>
<wgt id='1490'> +2.9042938e+02 </wgt>
<wgt id='1491'> +2.8402897e+02 </wgt>
<wgt id='1492'> +2.8432068e+02 </wgt>
<wgt id='1493'> +2.8758324e+02 </wgt>
<wgt id='1494'> +2.8629304e+02 </wgt>
<wgt id='1495'> +2.8619127e+02 </wgt>
<wgt id='1496'> +2.8084902e+02 </wgt>
<wgt id='1497'> +2.9184969e+02 </wgt>
<wgt id='1498'> +2.9197620e+02 </wgt>
<wgt id='1499'> +2.8228875e+02 </wgt>
<wgt id='1500'> +2.7903347e+02 </wgt>
<wgt id='1501'> +2.8970146e+02 </wgt>
<wgt id='1502'> +2.8658055e+02 </wgt>
<wgt id='1503'> +2.8495490e+02 </wgt>
<wgt id='1504'> +2.8673916e+02 </wgt>
<wgt id='1505'> +2.8495457e+02 </wgt>
<wgt id='1506'> +2.9060357e+02 </wgt>
<wgt id='1507'> +2.8097333e+02 </wgt>
<wgt id='1508'> +2.8571777e+02 </wgt>
<wgt id='1509'> +2.8596451e+02 </wgt>
<wgt id='1510'> +2.8415203e+02 </wgt>
<wgt id='1511'> +2.8792215e+02 </wgt>
<wgt id='1512'> +2.8265075e+02 </wgt>
<wgt id='1513'> +2.8889821e+02 </wgt>
<wgt id='1514'> +2.8571902e+02 </wgt>
<wgt id='1515'> +2.8619171e+02 </wgt>
<wgt id='1516'> +2.8340906e+02 </wgt>
<wgt id='1517'> +2.8680636e+02 </wgt>
<wgt id='1518'> +2.8644087e+02 </wgt>
<wgt id='1519'> +2.8527234e+02 </wgt>
<wgt id='1520'> +2.8662495e+02 </wgt>
<wgt id='1521'> +2.8432179e+02 </wgt>
<wgt id='1522'> +2.8804499e+02 </wgt>
<wgt id='1523'> +2.8384020e+02 </wgt>
<wgt id='1524'> +2.8714016e+02 </wgt>
<wgt id='1525'> +2.8379376e+02 </wgt>
<wgt id='1526'> +2.8465417e+02 </wgt>
<wgt id='1527'> +2.8629070e+02 </wgt>
<wgt id='1528'> +2.8831660e+02 </wgt>
<wgt id='1529'> +2.8364146e+02 </wgt>
<wgt id='1530'> +2.8754302e+02 </wgt>
<wgt id='1531'> +2.8406692e+02 </wgt>
<wgt id='1532'> +2.8497425e+02 </wgt>
<wgt id='1533'> +2.8481031e+02 </wgt>
<wgt id='1534'> +2.8430978e+02 </wgt>
<wgt id='1535'> +2.8783772e+02 </wgt>
<wgt id='1536'> +2.8777776e+02 </wgt>
<wgt id='1537'> +2.8191963e+02 </wgt>
<wgt id='1538'> +2.8687290e+02 </wgt>
<wgt id='1539'> +2.8828103e+02 </wgt>
<wgt id='1540'> +2.8232651e+02 </wgt>
<wgt id='1541'> +2.8689570e+02 </wgt>
<wgt id='1542'> +2.8435225e+02 </wgt>
<wgt id='1543'> +2.8727690e+02 </wgt>
<wgt id='1544'> +2.6488827e+02 </wgt>
<wgt id='1545'> +3.0749626e+02 </wgt>
<wgt id='1546'> +2.5875460e+02 </wgt>
<wgt id='1547'> +2.8051805e+02 </wgt>
<wgt id='1548'> +2.8044037e+02 </wgt>
<wgt id='1549'> +2.8060115e+02 </wgt>
<wgt id='1550'> +2.8067237e+02 </wgt>
<wgt id='1551'> +2.8041566e+02 </wgt>
<wgt id='1552'> +2.8100237e+02 </wgt>
<wgt id='1553'> +2.8007089e+02 </wgt>
<wgt id='1554'> +2.8053577e+02 </wgt>
<wgt id='1555'> +2.8049448e+02 </wgt>
<wgt id='1556'> +2.7998869e+02 </wgt>
<wgt id='1557'> +2.8103099e+02 </wgt>
<wgt id='1558'> +2.8060053e+02 </wgt>
<wgt id='1559'> +2.8034307e+02 </wgt>
<wgt id='1560'> +2.7979737e+02 </wgt>
<wgt id='1561'> +2.8180654e+02 </wgt>
<wgt id='1562'> +2.8026022e+02 </wgt>
<wgt id='1563'> +2.8066451e+02 </wgt>
<wgt id='1564'> +2.8147371e+02 </wgt>
<wgt id='1565'> +2.7936501e+02 </wgt>
<wgt id='1566'> +2.7987971e+02 </wgt>
<wgt id='1567'> +2.8106876e+02 </wgt>
<wgt id='1568'> +2.8065117e+02 </wgt>
<wgt id='1569'> +2.8036369e+02 </wgt>
<wgt id='1570'> +2.8283629e+02 </wgt>
<wgt id='1571'> +2.7897523e+02 </wgt>
<wgt id='1572'> +2.7882515e+02 </wgt>
<wgt id='1573'> +2.8201768e+02 </wgt>
<wgt id='1574'> +2.8120664e+02 </wgt>
<wgt id='1575'> +2.8031948e+02 </wgt>
<wgt id='1576'> +2.8260111e+02 </wgt>
<wgt id='1577'> +2.7810621e+02 </wgt>
<wgt id='1578'> +2.8228842e+02 </wgt>
<wgt id='1579'> +2.7838157e+02 </wgt>
<wgt id='1580'> +2.8052601e+02 </wgt>
<wgt id='1581'> +2.8055722e+02 </wgt>
<wgt id='1582'> +2.7990965e+02 </wgt>
<wgt id='1583'> +2.8093787e+02 </wgt>
<wgt id='1584'> +2.8030275e+02 </wgt>
<wgt id='1585'> +2.8087977e+02 </wgt>
<wgt id='1586'> +2.8038644e+02 </wgt>
<wgt id='1587'> +2.8055969e+02 </wgt>
<wgt id='1588'> +2.8023718e+02 </wgt>
<wgt id='1589'> +2.8095268e+02 </wgt>
<wgt id='1590'> +2.8146445e+02 </wgt>
<wgt id='1591'> +2.7997874e+02 </wgt>
<wgt id='1592'> +2.8000080e+02 </wgt>
<wgt id='1593'> +2.8174568e+02 </wgt>
<wgt id='1594'> +2.8003157e+02 </wgt>
<wgt id='1595'> +2.7987395e+02 </wgt>
<wgt id='1596'> +2.8039885e+02 </wgt>
<wgt id='1597'> +2.8106850e+02 </wgt>
<wgt id='1598'> +2.8199999e+02 </wgt>
<wgt id='1599'> +2.8181828e+02 </wgt>
<wgt id='1600'> +2.8223232e+02 </wgt>
<wgt id='1601'> +2.8236881e+02 </wgt>
<wgt id='1602'> +2.8163248e+02 </wgt>
<wgt id='1603'> +2.8243653e+02 </wgt>
<wgt id='1604'> +2.8182633e+02 </wgt>
<wgt id='1605'> +2.8209628e+02 </wgt>
<wgt id='1606'> +2.8189437e+02 </wgt>
<wgt id='1607'> +2.8168473e+02 </wgt>
<wgt id='1608'> +2.8230528e+02 </wgt>
<wgt id='1609'> +2.8195649e+02 </wgt>
<wgt id='1610'> +2.8201132e+02 </wgt>
<wgt id='1611'> +2.8181062e+02 </wgt>
<wgt id='1612'> +2.8223205e+02 </wgt>
<wgt id='1613'> +2.8115405e+02 </wgt>
<wgt id='1614'> +2.8291280e+02 </wgt>
<wgt id='1615'> +2.8330461e+02 </wgt>
<wgt id='1616'> +2.8124109e+02 </wgt>
<wgt id='1617'> +2.8303393e+02 </wgt>
<wgt id='1618'> +2.8057631e+02 </wgt>
<wgt id='1619'> +2.8155199e+02 </wgt>
<wgt id='1620'> +2.8231336e+02 </wgt>
<wgt id='1621'> +2.8236409e+02 </wgt>
<wgt id='1622'> +2.8163556e+02 </wgt>
<wgt id='1623'> +2.8135955e+02 </wgt>
<wgt id='1624'> +2.8353491e+02 </wgt>
<wgt id='1625'> +2.8259526e+02 </wgt>
<wgt id='1626'> +2.8176149e+02 </wgt>
<wgt id='1627'> +2.8046320e+02 </wgt>
<wgt id='1628'> +2.8614864e+02 </wgt>
<wgt id='1629'> +2.8241525e+02 </wgt>
<wgt id='1630'> +2.8078351e+02 </wgt>
<wgt id='1631'> +2.8111985e+02 </wgt>
<wgt id='1632'> +2.8338555e+02 </wgt>
<wgt id='1633'> +2.8297245e+02 </wgt>
<wgt id='1634'> +2.8119139e+02 </wgt>
<wgt id='1635'> +2.8217971e+02 </wgt>
<wgt id='1636'> +2.8180891e+02 </wgt>
<wgt id='1637'> +2.8188089e+02 </wgt>
<wgt id='1638'> +2.8196823e+02 </wgt>
<wgt id='1639'> +2.8199802e+02 </wgt>
<wgt id='1640'> +2.8124439e+02 </wgt>
<wgt id='1641'> +2.8226664e+02 </wgt>
<wgt id='1642'> +2.8149505e+02 </wgt>
<wgt id='1643'> +2.8115906e+02 </wgt>
<wgt id='1644'> +2.8193018e+02 </wgt>
<wgt id='1645'> +2.8280575e+02 </wgt>
<wgt id='1646'> +2.8154040e+02 </wgt>
<wgt id='1647'> +2.8165269e+02 </wgt>
<wgt id='1648'> +2.8162017e+02 </wgt>
<wgt id='1649'> +4.7912028e+02 </wgt>
<wgt id='1650'> +2.9241477e+02 </wgt>
<wgt id='1651'> +2.9228088e+02 </wgt>
<wgt id='1652'> +2.9242507e+02 </wgt>
<wgt id='1653'> +2.9250421e+02 </wgt>
<wgt id='1654'> +2.9241107e+02 </wgt>
<wgt id='1655'> +2.9210803e+02 </wgt>
<wgt id='1656'> +2.9232648e+02 </wgt>
<wgt id='1657'> +2.9228604e+02 </wgt>
<wgt id='1658'> +2.9204088e+02 </wgt>
<wgt id='1659'> +2.9262880e+02 </wgt>
<wgt id='1660'> +2.9251412e+02 </wgt>
<wgt id='1661'> +2.9183457e+02 </wgt>
<wgt id='1662'> +2.9268193e+02 </wgt>
<wgt id='1663'> +2.9215016e+02 </wgt>
<wgt id='1664'> +2.9207417e+02 </wgt>
<wgt id='1665'> +2.9220743e+02 </wgt>
<wgt id='1666'> +2.9279609e+02 </wgt>
<wgt id='1667'> +2.9159177e+02 </wgt>
<wgt id='1668'> +2.9205367e+02 </wgt>
<wgt id='1669'> +2.9247463e+02 </wgt>
<wgt id='1670'> +2.9093152e+02 </wgt>
<wgt id='1671'> +2.9237045e+02 </wgt>
<wgt id='1672'> +2.9101445e+02 </wgt>
<wgt id='1673'> +2.9302756e+02 </wgt>
<wgt id='1674'> +2.9334072e+02 </wgt>
<wgt id='1675'> +2.9346005e+02 </wgt>
<wgt id='1676'> +2.9208345e+02 </wgt>
<wgt id='1677'> +2.9180376e+02 </wgt>
<wgt id='1678'> +2.9240734e+02 </wgt>
<wgt id='1679'> +2.9002246e+02 </wgt>
<wgt id='1680'> +2.8244219e+02 </wgt>
<wgt id='1681'> +2.8162071e+02 </wgt>
<wgt id='1682'> +2.8296191e+02 </wgt>
<wgt id='1683'> +2.8347165e+02 </wgt>
<wgt id='1684'> +2.8182463e+02 </wgt>
<wgt id='1685'> +2.8212576e+02 </wgt>
<wgt id='1686'> +2.8101760e+02 </wgt>
<wgt id='1687'> +2.8411469e+02 </wgt>
<wgt id='1688'> +2.8523843e+02 </wgt>
<wgt id='1689'> +2.8044555e+02 </wgt>
<wgt id='1690'> +2.8322689e+02 </wgt>
<wgt id='1691'> +2.8208994e+02 </wgt>
<wgt id='1692'> +2.8008425e+02 </wgt>
<wgt id='1693'> +2.8449098e+02 </wgt>
<wgt id='1694'> +2.8186189e+02 </wgt>
<wgt id='1695'> +2.8194301e+02 </wgt>
<wgt id='1696'> +2.8237954e+02 </wgt>
<wgt id='1697'> +2.8169038e+02 </wgt>
<wgt id='1698'> +2.8368201e+02 </wgt>
<wgt id='1699'> +2.8173534e+02 </wgt>
<wgt id='1700'> +2.8264876e+02 </wgt>
<wgt id='1701'> +2.8257728e+02 </wgt>
<wgt id='1702'> +2.8125019e+02 </wgt>
<wgt id='1703'> +2.8375152e+02 </wgt>
<wgt id='1704'> +2.8224140e+02 </wgt>
<wgt id='1705'> +2.8365473e+02 </wgt>
<wgt id='1706'> +2.8252964e+02 </wgt>
<wgt id='1707'> +2.8166220e+02 </wgt>
<wgt id='1708'> +2.8361596e+02 </wgt>
<wgt id='1709'> +2.8210066e+02 </wgt>
<wgt id='1710'> +2.8168049e+02 </wgt>
<wgt id='1711'> +2.8255690e+02 </wgt>
<wgt id='1712'> +2.8210167e+02 </wgt>
<wgt id='1713'> +2.8167212e+02 </wgt>
<wgt id='1714'> +2.8269333e+02 </wgt>
<wgt id='1715'> +2.8324324e+02 </wgt>
<wgt id='1716'> +2.8197283e+02 </wgt>
<wgt id='1717'> +2.8190375e+02 </wgt>
<wgt id='1718'> +2.8240662e+02 </wgt>
<wgt id='1719'> +2.8284808e+02 </wgt>
<wgt id='1720'> +2.8282193e+02 </wgt>
<wgt id='1721'> +2.8287371e+02 </wgt>
<wgt id='1722'> +2.8242092e+02 </wgt>
<wgt id='1723'> +2.8207295e+02 </wgt>
<wgt id='1724'> +2.8306624e+02 </wgt>
<wgt id='1725'> +2.8274297e+02 </wgt>
<wgt id='1726'> +2.8220498e+02 </wgt>
<wgt id='1727'> +2.8204737e+02 </wgt>
<wgt id='1728'> +2.8194373e+02 </wgt>
<wgt id='1729'> +2.8247112e+02 </wgt>
<wgt id='1730'> +2.8237739e+02 </wgt>
<wgt id='1731'> +2.8212191e+02 </wgt>
<wgt id='1732'> +2.8242152e+02 </wgt>
<wgt id='1733'> +2.8227396e+02 </wgt>
<wgt id='1734'> +2.8253862e+02 </wgt>
<wgt id='1735'> +2.8221511e+02 </wgt>
<wgt id='1736'> +2.8276631e+02 </wgt>
<wgt id='1737'> +2.8227834e+02 </wgt>
<wgt id='1738'> +2.8252049e+02 </wgt>
<wgt id='1739'> +2.8220370e+02 </wgt>
<wgt id='1740'> +2.8212984e+02 </wgt>
<wgt id='1741'> +2.8218969e+02 </wgt>
<wgt id='1742'> +2.8215692e+02 </wgt>
<wgt id='1743'> +2.8239427e+02 </wgt>
<wgt id='1744'> +2.8216610e+02 </wgt>
<wgt id='1745'> +2.8234781e+02 </wgt>
<wgt id='1746'> +2.8219058e+02 </wgt>
<wgt id='1747'> +2.8223662e+02 </wgt>
<wgt id='1748'> +2.8241812e+02 </wgt>
<wgt id='1749'> +2.8248062e+02 </wgt>
<wgt id='1750'> +2.8252003e+02 </wgt>
<wgt id='1751'> +2.8245422e+02 </wgt>
<wgt id='1752'> +2.8232535e+02 </wgt>
<wgt id='1753'> +2.8238516e+02 </wgt>
<wgt id='1754'> +2.8227523e+02 </wgt>
<wgt id='1755'> +2.8253527e+02 </wgt>
<wgt id='1756'> +2.8241846e+02 </wgt>
<wgt id='1757'> +2.8230934e+02 </wgt>
<wgt id='1758'> +2.8239398e+02 </wgt>
<wgt id='1759'> +2.8264297e+02 </wgt>
<wgt id='1760'> +2.8236473e+02 </wgt>
<wgt id='1761'> +2.8239502e+02 </wgt>
<wgt id='1762'> +2.8235769e+02 </wgt>
<wgt id='1763'> +2.8246172e+02 </wgt>
<wgt id='1764'> +2.8252660e+02 </wgt>
<wgt id='1765'> +2.8261620e+02 </wgt>
<wgt id='1766'> +2.8259223e+02 </wgt>
<wgt id='1767'> +2.8248185e+02 </wgt>
<wgt id='1768'> +2.8226981e+02 </wgt>
<wgt id='1769'> +2.8249140e+02 </wgt>
<wgt id='1770'> +2.8236721e+02 </wgt>
<wgt id='1771'> +2.8236461e+02 </wgt>
<wgt id='1772'> +2.8238120e+02 </wgt>
<wgt id='1773'> +2.8234375e+02 </wgt>
<wgt id='1774'> +2.8245221e+02 </wgt>
<wgt id='1775'> +2.8246324e+02 </wgt>
<wgt id='1776'> +2.8243505e+02 </wgt>
<wgt id='1777'> +2.8248139e+02 </wgt>
<wgt id='1778'> +2.8246765e+02 </wgt>
<wgt id='1779'> +2.8245866e+02 </wgt>
<wgt id='1780'> +2.8247756e+02 </wgt>
<wgt id='1781'> +2.6631389e+02 </wgt>
<wgt id='1782'> +2.9861517e+02 </wgt>
<wgt id='1783'> +2.8255084e+02 </wgt>
<wgt id='1784'> +2.8292394e+02 </wgt>
<wgt id='1785'> +2.8285294e+02 </wgt>
<wgt id='1786'> +2.8138508e+02 </wgt>
<wgt id='1787'> +2.8250187e+02 </wgt>
<wgt id='1788'> +2.8347497e+02 </wgt>
<wgt id='1789'> +2.8226093e+02 </wgt>
<wgt id='1790'> +2.8262276e+02 </wgt>
<wgt id='1791'> +2.8308587e+02 </wgt>
<wgt id='1792'> +2.8274908e+02 </wgt>
<wgt id='1793'> +2.8274790e+02 </wgt>
<wgt id='1794'> +2.8428420e+02 </wgt>
<wgt id='1795'> +2.8014095e+02 </wgt>
<wgt id='1796'> +2.8076462e+02 </wgt>
<wgt id='1797'> +2.7997796e+02 </wgt>
<wgt id='1798'> +2.8171917e+02 </wgt>
<wgt id='1799'> +2.8297901e+02 </wgt>
<wgt id='1800'> +2.8298647e+02 </wgt>
<wgt id='1801'> +2.8271837e+02 </wgt>
<wgt id='1802'> +2.8117441e+02 </wgt>
<wgt id='1803'> +2.8332736e+02 </wgt>
<wgt id='1804'> +2.8325972e+02 </wgt>
<wgt id='1805'> +2.8186725e+02 </wgt>
<wgt id='1806'> +2.8365338e+02 </wgt>
<wgt id='1807'> +2.8376934e+02 </wgt>
<wgt id='1808'> +2.8235821e+02 </wgt>
<wgt id='1809'> +2.8238111e+02 </wgt>
<wgt id='1810'> +2.8293966e+02 </wgt>
<wgt id='1811'> +2.8237514e+02 </wgt>
<wgt id='1812'> +2.8221342e+02 </wgt>
<wgt id='1813'> +2.8272846e+02 </wgt>
<wgt id='1814'> +2.8352186e+02 </wgt>
<wgt id='1815'> +2.8326057e+02 </wgt>
<wgt id='1816'> +2.8376007e+02 </wgt>
<wgt id='1817'> +2.8320696e+02 </wgt>
<wgt id='1818'> +2.8193123e+02 </wgt>
<wgt id='1819'> +2.8289852e+02 </wgt>
<wgt id='1820'> +2.8247810e+02 </wgt>
<wgt id='1821'> +2.8277986e+02 </wgt>
<wgt id='1822'> +2.8228746e+02 </wgt>
<wgt id='1823'> +2.8223074e+02 </wgt>
<wgt id='1824'> +2.8248764e+02 </wgt>
<wgt id='1825'> +2.8277797e+02 </wgt>
<wgt id='1826'> +2.8181564e+02 </wgt>
<wgt id='1827'> +2.8285973e+02 </wgt>
<wgt id='1828'> +2.8216653e+02 </wgt>
<wgt id='1829'> +2.8267008e+02 </wgt>
<wgt id='1830'> +2.8224274e+02 </wgt>
<wgt id='1831'> +2.8318434e+02 </wgt>
<wgt id='1832'> +2.8213946e+02 </wgt>
<wgt id='1833'> +2.8285588e+02 </wgt>
<wgt id='1834'> +2.8263499e+02 </wgt>
<wgt id='1835'> +2.8234915e+02 </wgt>
<wgt id='1836'> +2.8245899e+02 </wgt>
<wgt id='1837'> +2.8231686e+02 </wgt>
<wgt id='1838'> +2.8255896e+02 </wgt>
<wgt id='1839'> +2.8252099e+02 </wgt>
<wgt id='1840'> +2.8232273e+02 </wgt>
<wgt id='1841'> +2.8212537e+02 </wgt>
<wgt id='1842'> +2.8264753e+02 </wgt>
<wgt id='1843'> +2.8243255e+02 </wgt>
<wgt id='1844'> +2.8259996e+02 </wgt>
<wgt id='1845'> +2.8267071e+02 </wgt>
<wgt id='1846'> +2.8252080e+02 </wgt>
<wgt id='1847'> +2.8213041e+02 </wgt>
<wgt id='1848'> +2.8262830e+02 </wgt>
<wgt id='1849'> +2.8274343e+02 </wgt>
<wgt id='1850'> +2.8263881e+02 </wgt>
<wgt id='1851'> +2.8262394e+02 </wgt>
<wgt id='1852'> +2.8268840e+02 </wgt>
<wgt id='1853'> +2.8261227e+02 </wgt>
<wgt id='1854'> +2.8273630e+02 </wgt>
<wgt id='1855'> +2.8270046e+02 </wgt>
<wgt id='1856'> +2.8250533e+02 </wgt>
<wgt id='1857'> +2.8241921e+02 </wgt>
<wgt id='1858'> +2.8245866e+02 </wgt>
<wgt id='1859'> +2.8250410e+02 </wgt>
<wgt id='1860'> +2.8272964e+02 </wgt>
<wgt id='1861'> +2.8242701e+02 </wgt>
<wgt id='1862'> +2.8268757e+02 </wgt>
<wgt id='1863'> +2.8270843e+02 </wgt>
<wgt id='1864'> +2.8262044e+02 </wgt>
<wgt id='1865'> +2.8261600e+02 </wgt>
<wgt id='1866'> +2.8261150e+02 </wgt>
<wgt id='1867'> +2.8250003e+02 </wgt>
<wgt id='1868'> +2.8240841e+02 </wgt>
<wgt id='1869'> +2.8269050e+02 </wgt>
<wgt id='1870'> +2.8233699e+02 </wgt>
<wgt id='1871'> +2.8245967e+02 </wgt>
<wgt id='1872'> +2.8248756e+02 </wgt>
<wgt id='1873'> +2.8264066e+02 </wgt>
<wgt id='1874'> +2.8253078e+02 </wgt>
<wgt id='1875'> +2.8254684e+02 </wgt>
<wgt id='1876'> +2.8253742e+02 </wgt>
<wgt id='1877'> +2.8244253e+02 </wgt>
<wgt id='1878'> +2.8257655e+02 </wgt>
<wgt id='1879'> +2.8251727e+02 </wgt>
<wgt id='1880'> +2.8256800e+02 </wgt>
<wgt id='1881'> +2.8259727e+02 </wgt>
<wgt id='1882'> +2.8256761e+02 </wgt>
<wgt id='1883'> +2.8254675e+02 </wgt>
<wgt id='1884'> +2.6669294e+02 </wgt>
<wgt id='1885'> +2.9776904e+02 </wgt>
<wgt id='1886'> +2.8249087e+02 </wgt>
<wgt id='1887'> +2.8090716e+02 </wgt>
<wgt id='1888'> +2.8129399e+02 </wgt>
<wgt id='1889'> +2.8250926e+02 </wgt>
<wgt id='1890'> +2.8526141e+02 </wgt>
<wgt id='1891'> +2.8646798e+02 </wgt>
<wgt id='1892'> +2.8258432e+02 </wgt>
<wgt id='1893'> +2.8234971e+02 </wgt>
<wgt id='1894'> +2.8312108e+02 </wgt>
<wgt id='1895'> +2.8202106e+02 </wgt>
<wgt id='1896'> +2.8273386e+02 </wgt>
<wgt id='1897'> +2.8262983e+02 </wgt>
<wgt id='1898'> +2.8411527e+02 </wgt>
<wgt id='1899'> +2.8244553e+02 </wgt>
<wgt id='1900'> +2.8265743e+02 </wgt>
<wgt id='1901'> +2.8315414e+02 </wgt>
<wgt id='1902'> +2.8268484e+02 </wgt>
<wgt id='1903'> +2.8130481e+02 </wgt>
<wgt id='1904'> +2.8245759e+02 </wgt>
<wgt id='1905'> +2.8320411e+02 </wgt>
<wgt id='1906'> +2.8353282e+02 </wgt>
<wgt id='1907'> +2.8184332e+02 </wgt>
<wgt id='1908'> +2.8182992e+02 </wgt>
<wgt id='1909'> +2.8262948e+02 </wgt>
<wgt id='1910'> +2.8164748e+02 </wgt>
<wgt id='1911'> +2.8289369e+02 </wgt>
<wgt id='1912'> +2.8168210e+02 </wgt>
<wgt id='1913'> +2.8277836e+02 </wgt>
<wgt id='1914'> +2.8190587e+02 </wgt>
<wgt id='1915'> +2.8246946e+02 </wgt>
<wgt id='1916'> +2.8276412e+02 </wgt>
<wgt id='1917'> +2.6631389e+02 </wgt>
<wgt id='1918'> +2.9861517e+02 </wgt>
<wgt id='1919'> +2.8256395e+02 </wgt>
<wgt id='1920'> +2.8374706e+02 </wgt>
<wgt id='1921'> +2.8245328e+02 </wgt>
<wgt id='1922'> +2.8238616e+02 </wgt>
<wgt id='1923'> +2.8176278e+02 </wgt>
<wgt id='1924'> +2.7893676e+02 </wgt>
<wgt id='1925'> +2.8254459e+02 </wgt>
<wgt id='1926'> +2.8219112e+02 </wgt>
<wgt id='1927'> +2.8201537e+02 </wgt>
<wgt id='1928'> +2.8108299e+02 </wgt>
<wgt id='1929'> +2.8244494e+02 </wgt>
<wgt id='1930'> +2.8189614e+02 </wgt>
<wgt id='1931'> +2.8269622e+02 </wgt>
<wgt id='1932'> +2.8300104e+02 </wgt>
<wgt id='1933'> +2.8202947e+02 </wgt>
<wgt id='1934'> +2.8180220e+02 </wgt>
<wgt id='1935'> +2.8206853e+02 </wgt>
<wgt id='1936'> +2.8247148e+02 </wgt>
<wgt id='1937'> +2.8261411e+02 </wgt>
<wgt id='1938'> +2.8300365e+02 </wgt>
<wgt id='1939'> +2.8135929e+02 </wgt>
<wgt id='1940'> +2.8275664e+02 </wgt>
<wgt id='1941'> +2.8554223e+02 </wgt>
<wgt id='1942'> +2.8233231e+02 </wgt>
<wgt id='1943'> +2.8270041e+02 </wgt>
<wgt id='1944'> +2.8231330e+02 </wgt>
<wgt id='1945'> +2.8308456e+02 </wgt>
<wgt id='1946'> +2.8280127e+02 </wgt>
<wgt id='1947'> +2.8286084e+02 </wgt>
<wgt id='1948'> +2.8287091e+02 </wgt>
<wgt id='1949'> +2.8323986e+02 </wgt>
<wgt id='1950'> +2.6669294e+02 </wgt>
<wgt id='1951'> +2.9776904e+02 </wgt>
<wgt id='1952'> +3.0853080e+02 </wgt>
<wgt id='1953'> +3.0841357e+02 </wgt>
<wgt id='1954'> +3.0864728e+02 </wgt>
<wgt id='1955'> +3.0859870e+02 </wgt>
<wgt id='1956'> +3.0846185e+02 </wgt>
<wgt id='1957'> +3.0834866e+02 </wgt>
<wgt id='1958'> +3.0871037e+02 </wgt>
<wgt id='1959'> +3.0879612e+02 </wgt>
<wgt id='1960'> +3.0827029e+02 </wgt>
<wgt id='1961'> +3.1005223e+02 </wgt>
<wgt id='1962'> +3.0701013e+02 </wgt>
<wgt id='1963'> +3.0861414e+02 </wgt>
<wgt id='1964'> +3.0847048e+02 </wgt>
<wgt id='1965'> +3.0696241e+02 </wgt>
<wgt id='1966'> +3.1010061e+02 </wgt>
<wgt id='1967'> +3.0771594e+02 </wgt>
<wgt id='1968'> +3.0909639e+02 </wgt>
<wgt id='1969'> +3.0814367e+02 </wgt>
<wgt id='1970'> +3.0882198e+02 </wgt>
<wgt id='1971'> +3.0777065e+02 </wgt>
<wgt id='1972'> +3.0927805e+02 </wgt>
<wgt id='1973'> +3.0984051e+02 </wgt>
<wgt id='1974'> +3.0712845e+02 </wgt>
<wgt id='1975'> +3.0651253e+02 </wgt>
<wgt id='1976'> +3.0963323e+02 </wgt>
<wgt id='1977'> +3.1066514e+02 </wgt>
<wgt id='1978'> +3.0657116e+02 </wgt>
<wgt id='1979'> +3.0706195e+02 </wgt>
<wgt id='1980'> +3.0948440e+02 </wgt>
<wgt id='1981'> +3.0853080e+02 </wgt>
<wgt id='1982'> +3.0776133e+02 </wgt>
<wgt id='1983'> +3.0939202e+02 </wgt>
<wgt id='1984'> +3.0760094e+02 </wgt>
<wgt id='1985'> +3.0914143e+02 </wgt>
<wgt id='1986'> +3.1064227e+02 </wgt>
<wgt id='1987'> +3.0603810e+02 </wgt>
<wgt id='1988'> +3.0783349e+02 </wgt>
<wgt id='1989'> +3.0923313e+02 </wgt>
<wgt id='1990'> +3.0769992e+02 </wgt>
<wgt id='1991'> +3.0945712e+02 </wgt>
<wgt id='1992'> +3.0844497e+02 </wgt>
<wgt id='1993'> +3.0934903e+02 </wgt>
<wgt id='1994'> +3.1131069e+02 </wgt>
<wgt id='1995'> +2.9961382e+02 </wgt>
<wgt id='1996'> +2.9958412e+02 </wgt>
<wgt id='1997'> +2.9973266e+02 </wgt>
<wgt id='1998'> +2.9974460e+02 </wgt>
<wgt id='1999'> +2.9957259e+02 </wgt>
<wgt id='2000'> +2.9951526e+02 </wgt>
<wgt id='2001'> +2.9979808e+02 </wgt>
<wgt id='2002'> +2.9971863e+02 </wgt>
<wgt id='2003'> +2.9960578e+02 </wgt>
<wgt id='2004'> +3.0056894e+02 </wgt>
<wgt id='2005'> +2.9875317e+02 </wgt>
<wgt id='2006'> +3.0059568e+02 </wgt>
<wgt id='2007'> +2.9872082e+02 </wgt>
<wgt id='2008'> +2.9819712e+02 </wgt>
<wgt id='2009'> +3.0111609e+02 </wgt>
<wgt id='2010'> +2.9893075e+02 </wgt>
<wgt id='2011'> +3.0025316e+02 </wgt>
<wgt id='2012'> +3.0036556e+02 </wgt>
<wgt id='2013'> +2.9891606e+02 </wgt>
<wgt id='2014'> +2.9956668e+02 </wgt>
<wgt id='2015'> +2.9974672e+02 </wgt>
<wgt id='2016'> +2.9704915e+02 </wgt>
<wgt id='2017'> +3.0214394e+02 </wgt>
<wgt id='2018'> +3.0100818e+02 </wgt>
<wgt id='2019'> +2.9831540e+02 </wgt>
<wgt id='2020'> +2.9840373e+02 </wgt>
<wgt id='2021'> +3.0025763e+02 </wgt>
<wgt id='2022'> +2.9848778e+02 </wgt>
<wgt id='2023'> +3.0009071e+02 </wgt>
<wgt id='2024'> +2.9933183e+02 </wgt>
<wgt id='2025'> +2.9896664e+02 </wgt>
<wgt id='2026'> +2.9926281e+02 </wgt>
<wgt id='2027'> +2.9871566e+02 </wgt>
<wgt id='2028'> +2.9953658e+02 </wgt>
<wgt id='2029'> +3.0127181e+02 </wgt>
<wgt id='2030'> +2.9569317e+02 </wgt>
<wgt id='2031'> +2.9874196e+02 </wgt>
<wgt id='2032'> +3.0082291e+02 </wgt>
<wgt id='2033'> +2.9578625e+02 </wgt>
<wgt id='2034'> +3.0123707e+02 </wgt>
<wgt id='2035'> +2.9544739e+02 </wgt>
<wgt id='2036'> +3.0344248e+02 </wgt>
<wgt id='2037'> +2.9634748e+02 </wgt>
<wgt id='2038'> +2.8429982e+02 </wgt>
<wgt id='2039'> +2.8426380e+02 </wgt>
<wgt id='2040'> +2.8422761e+02 </wgt>
<wgt id='2041'> +2.8419162e+02 </wgt>
<wgt id='2042'> +2.8415548e+02 </wgt>
<wgt id='2043'> +2.8411927e+02 </wgt>
<wgt id='2044'> +2.8408342e+02 </wgt>
<wgt id='2045'> +2.8404724e+02 </wgt>
<wgt id='2046'> +2.8401106e+02 </wgt>
<wgt id='2047'> +2.8397487e+02 </wgt>
<wgt id='2048'> +2.8393873e+02 </wgt>
<wgt id='2049'> +2.8390293e+02 </wgt>
<wgt id='2050'> +2.8386700e+02 </wgt>
<wgt id='2051'> +2.8383086e+02 </wgt>
<wgt id='2052'> +2.8379495e+02 </wgt>
<wgt id='2053'> +2.8375875e+02 </wgt>
<wgt id='2054'> +2.8372268e+02 </wgt>
<wgt id='2055'> +2.8368685e+02 </wgt>
<wgt id='2056'> +2.8365079e+02 </wgt>
<wgt id='2057'> +2.8361471e+02 </wgt>
<wgt id='2058'> +2.8357881e+02 </wgt>
<wgt id='2059'> +2.8354256e+02 </wgt>
<wgt id='2060'> +2.8350657e+02 </wgt>
<wgt id='2061'> +2.8347053e+02 </wgt>
<wgt id='2062'> +2.8343463e+02 </wgt>
<wgt id='2063'> +2.8339858e+02 </wgt>
<wgt id='2064'> +2.8336254e+02 </wgt>
<wgt id='2065'> +2.8332673e+02 </wgt>
<wgt id='2066'> +2.8329078e+02 </wgt>
<wgt id='2067'> +2.8325472e+02 </wgt>
<wgt id='2068'> +2.8321868e+02 </wgt>
<wgt id='2069'> +2.8063839e+02 </wgt>
<wgt id='2070'> +2.8100732e+02 </wgt>
<wgt id='2071'> +2.8094236e+02 </wgt>
<wgt id='2072'> +2.7947580e+02 </wgt>
<wgt id='2073'> +2.8058942e+02 </wgt>
<wgt id='2074'> +2.8155744e+02 </wgt>
<wgt id='2075'> +2.8034818e+02 </wgt>
<wgt id='2076'> +2.8071046e+02 </wgt>
<wgt id='2077'> +2.8116825e+02 </wgt>
<wgt id='2078'> +2.8083360e+02 </wgt>
<wgt id='2079'> +2.8082972e+02 </wgt>
<wgt id='2080'> +2.8236534e+02 </wgt>
<wgt id='2081'> +2.7824634e+02 </wgt>
<wgt id='2082'> +2.7886029e+02 </wgt>
<wgt id='2083'> +2.7808476e+02 </wgt>
<wgt id='2084'> +2.7981475e+02 </wgt>
<wgt id='2085'> +2.8106426e+02 </wgt>
<wgt id='2086'> +2.8106891e+02 </wgt>
<wgt id='2087'> +2.8080873e+02 </wgt>
<wgt id='2088'> +2.7927579e+02 </wgt>
<wgt id='2089'> +2.8140864e+02 </wgt>
<wgt id='2090'> +2.8133708e+02 </wgt>
<wgt id='2091'> +2.7996333e+02 </wgt>
<wgt id='2092'> +2.8172204e+02 </wgt>
<wgt id='2093'> +2.8184161e+02 </wgt>
<wgt id='2094'> +2.8045657e+02 </wgt>
<wgt id='2095'> +2.8047148e+02 </wgt>
<wgt id='2096'> +2.8102247e+02 </wgt>
<wgt id='2097'> +2.8046484e+02 </wgt>
<wgt id='2098'> +2.8030205e+02 </wgt>
<wgt id='2099'> +2.8081806e+02 </wgt>
<wgt id='2100'> +2.8159678e+02 </wgt>
<wgt id='2101'> +2.8134134e+02 </wgt>
<wgt id='2102'> +2.8183846e+02 </wgt>
<wgt id='2103'> +2.8129268e+02 </wgt>
<wgt id='2104'> +2.8002553e+02 </wgt>
<wgt id='2105'> +2.8098378e+02 </wgt>
<wgt id='2106'> +2.8056708e+02 </wgt>
<wgt id='2107'> +2.8086617e+02 </wgt>
<wgt id='2108'> +2.8037614e+02 </wgt>
<wgt id='2109'> +2.8031957e+02 </wgt>
<wgt id='2110'> +2.8057750e+02 </wgt>
<wgt id='2111'> +2.8086594e+02 </wgt>
<wgt id='2112'> +2.7990491e+02 </wgt>
<wgt id='2113'> +2.8094609e+02 </wgt>
<wgt id='2114'> +2.8025807e+02 </wgt>
<wgt id='2115'> +2.8075414e+02 </wgt>
<wgt id='2116'> +2.8033352e+02 </wgt>
<wgt id='2117'> +2.8126637e+02 </wgt>
<wgt id='2118'> +2.8023010e+02 </wgt>
<wgt id='2119'> +2.8094182e+02 </wgt>
<wgt id='2120'> +2.8072285e+02 </wgt>
<wgt id='2121'> +2.8043978e+02 </wgt>
<wgt id='2122'> +2.8054477e+02 </wgt>
<wgt id='2123'> +2.8040433e+02 </wgt>
<wgt id='2124'> +2.8064505e+02 </wgt>
<wgt id='2125'> +2.8061019e+02 </wgt>
<wgt id='2126'> +2.8041278e+02 </wgt>
<wgt id='2127'> +2.8021325e+02 </wgt>
<wgt id='2128'> +2.8073341e+02 </wgt>
<wgt id='2129'> +2.8052044e+02 </wgt>
<wgt id='2130'> +2.8068682e+02 </wgt>
<wgt id='2131'> +2.8075744e+02 </wgt>
<wgt id='2132'> +2.8060743e+02 </wgt>
<wgt id='2133'> +2.8022175e+02 </wgt>
<wgt id='2134'> +2.8071465e+02 </wgt>
<wgt id='2135'> +2.8082965e+02 </wgt>
<wgt id='2136'> +2.8072608e+02 </wgt>
<wgt id='2137'> +2.8071134e+02 </wgt>
<wgt id='2138'> +2.8077540e+02 </wgt>
<wgt id='2139'> +2.8069873e+02 </wgt>
<wgt id='2140'> +2.8082192e+02 </wgt>
<wgt id='2141'> +2.8078676e+02 </wgt>
<wgt id='2142'> +2.8059250e+02 </wgt>
<wgt id='2143'> +2.8050741e+02 </wgt>
<wgt id='2144'> +2.8054791e+02 </wgt>
<wgt id='2145'> +2.8059189e+02 </wgt>
<wgt id='2146'> +2.8081604e+02 </wgt>
<wgt id='2147'> +2.8051466e+02 </wgt>
<wgt id='2148'> +2.8077426e+02 </wgt>
<wgt id='2149'> +2.8079666e+02 </wgt>
<wgt id='2150'> +2.8070598e+02 </wgt>
<wgt id='2151'> +2.8070217e+02 </wgt>
<wgt id='2152'> +2.8069776e+02 </wgt>
<wgt id='2153'> +2.8058751e+02 </wgt>
<wgt id='2154'> +2.8049647e+02 </wgt>
<wgt id='2155'> +2.8077611e+02 </wgt>
<wgt id='2156'> +2.8042563e+02 </wgt>
<wgt id='2157'> +2.8054820e+02 </wgt>
<wgt id='2158'> +2.8057550e+02 </wgt>
<wgt id='2159'> +2.8072694e+02 </wgt>
<wgt id='2160'> +2.8061918e+02 </wgt>
<wgt id='2161'> +2.8063490e+02 </wgt>
<wgt id='2162'> +2.8062547e+02 </wgt>
<wgt id='2163'> +2.8052938e+02 </wgt>
<wgt id='2164'> +2.8066500e+02 </wgt>
<wgt id='2165'> +2.8060563e+02 </wgt>
<wgt id='2166'> +2.8065450e+02 </wgt>
<wgt id='2167'> +2.8068411e+02 </wgt>
<wgt id='2168'> +2.8065382e+02 </wgt>
<wgt id='2169'> +2.8063494e+02 </wgt>
<wgt id='2170'> +2.8063661e+02 </wgt>
<wgt id='2171'> +2.8062669e+02 </wgt>
<wgt id='2172'> +2.8064025e+02 </wgt>
<wgt id='2173'> +2.8064055e+02 </wgt>
<wgt id='2174'> +2.8064381e+02 </wgt>
<wgt id='2175'> +2.8063918e+02 </wgt>
<wgt id='2176'> +2.8063058e+02 </wgt>
<wgt id='2177'> +2.8048675e+02 </wgt>
<wgt id='2178'> +2.6648479e+02 </wgt>
<wgt id='2179'> +2.7923175e+02 </wgt>
<wgt id='2180'> +2.8244481e+02 </wgt>
<wgt id='2181'> +2.8253060e+02 </wgt>
<wgt id='2182'> +2.6651893e+02 </wgt>
<wgt id='2183'> +2.8142209e+02 </wgt>
<wgt id='2184'> +2.8185383e+02 </wgt>
<wgt id='2185'> +2.7473600e+02 </wgt>
<wgt id='2186'> +2.7906890e+02 </wgt>
<wgt id='2187'> +2.7806091e+02 </wgt>
<wgt id='2188'> +2.8197309e+02 </wgt>
<wgt id='2189'> +2.8637409e+02 </wgt>
<wgt id='2190'> +2.8623064e+02 </wgt>
<wgt id='2191'> +2.7586409e+02 </wgt>
<wgt id='2192'> +2.7780568e+02 </wgt>
<wgt id='2193'> +2.7873469e+02 </wgt>
<wgt id='2194'> +2.7389919e+02 </wgt>
<wgt id='2195'> +2.7298102e+02 </wgt>
<wgt id='2196'> +2.8034960e+02 </wgt>
<wgt id='2197'> +2.7458240e+02 </wgt>
<wgt id='2198'> +2.8474705e+02 </wgt>
<wgt id='2199'> +2.7769701e+02 </wgt>
<wgt id='2200'> +2.9659909e+02 </wgt>
<wgt id='2201'> +2.7808583e+02 </wgt>
<wgt id='2202'> +2.8387941e+02 </wgt>
<wgt id='2203'> +2.7852209e+02 </wgt>
<wgt id='2204'> +2.7386632e+02 </wgt>
<wgt id='2205'> +2.7891145e+02 </wgt>
<wgt id='2206'> +2.7415595e+02 </wgt>
<wgt id='2207'> +2.8227104e+02 </wgt>
<wgt id='2208'> +2.7943623e+02 </wgt>
<wgt id='2209'> +2.7964170e+02 </wgt>
<wgt id='2210'> +2.8557374e+02 </wgt>
<wgt id='2211'> +2.8543204e+02 </wgt>
<wgt id='2212'> +2.8614038e+02 </wgt>
<wgt id='2213'> +2.8774173e+02 </wgt>
<wgt id='2214'> +2.7590193e+02 </wgt>
<wgt id='2215'> +2.7818417e+02 </wgt>
<wgt id='2216'> +2.7322831e+02 </wgt>
<wgt id='2217'> +2.8218716e+02 </wgt>
<wgt id='2218'> +2.8301148e+02 </wgt>
<wgt id='2219'> +2.8760633e+02 </wgt>
<wgt id='2220'> +2.8460798e+02 </wgt>
<wgt id='2221'> +2.7844891e+02 </wgt>
<wgt id='2222'> +2.8342268e+02 </wgt>
<wgt id='2223'> +2.8409638e+02 </wgt>
<wgt id='2224'> +2.7729149e+02 </wgt>
<wgt id='2225'> +2.7579273e+02 </wgt>
<wgt id='2226'> +2.8258543e+02 </wgt>
<wgt id='2227'> +2.8310688e+02 </wgt>
<wgt id='2228'> +2.8422022e+02 </wgt>
<wgt id='2229'> +2.8392918e+02 </wgt>
<wgt id='2230'> +2.8655818e+02 </wgt>
<wgt id='2231'> +2.8017297e+02 </wgt>
<wgt id='2232'> +2.8453251e+02 </wgt>
<wgt id='2233'> +2.7210730e+02 </wgt>
<wgt id='2234'> +2.8982618e+02 </wgt>
<wgt id='2235'> +2.8308588e+02 </wgt>
<wgt id='2236'> +2.7650642e+02 </wgt>
<wgt id='2237'> +2.8162032e+02 </wgt>
<wgt id='2238'> +2.8387684e+02 </wgt>
<wgt id='2239'> +2.7940370e+02 </wgt>
<wgt id='2240'> +2.9036169e+02 </wgt>
<wgt id='2241'> +2.6884199e+02 </wgt>
<wgt id='2242'> +2.8759526e+02 </wgt>
<wgt id='2243'> +2.7800204e+02 </wgt>
<wgt id='2244'> +2.8693782e+02 </wgt>
<wgt id='2245'> +2.8043198e+02 </wgt>
<wgt id='2246'> +2.7842596e+02 </wgt>
<wgt id='2247'> +2.7760537e+02 </wgt>
<wgt id='2248'> +2.8941757e+02 </wgt>
<wgt id='2249'> +2.8200916e+02 </wgt>
<wgt id='2250'> +2.7139254e+02 </wgt>
<wgt id='2251'> +2.8686588e+02 </wgt>
<wgt id='2252'> +2.7899668e+02 </wgt>
<wgt id='2253'> +2.8283853e+02 </wgt>
<wgt id='2254'> +2.8071820e+02 </wgt>
<wgt id='2255'> +2.8813607e+02 </wgt>
<wgt id='2256'> +2.8133421e+02 </wgt>
<wgt id='2257'> +2.8017794e+02 </wgt>
<wgt id='2258'> +2.8277815e+02 </wgt>
<wgt id='2259'> +2.8221429e+02 </wgt>
<wgt id='2260'> +2.7279322e+02 </wgt>
<wgt id='2261'> +2.8006279e+02 </wgt>
<wgt id='2262'> +2.7470572e+02 </wgt>
<wgt id='2263'> +2.7696615e+02 </wgt>
<wgt id='2264'> +2.8226618e+02 </wgt>
<wgt id='2265'> +2.8447139e+02 </wgt>
<wgt id='2266'> +2.7727583e+02 </wgt>
<wgt id='2267'> +2.7823556e+02 </wgt>
<wgt id='2268'> +2.7428160e+02 </wgt>
<wgt id='2269'> +2.8366811e+02 </wgt>
<wgt id='2270'> +2.7482897e+02 </wgt>
<wgt id='2271'> +2.8329910e+02 </wgt>
<wgt id='2272'> +2.7140397e+02 </wgt>
<wgt id='2273'> +2.8307998e+02 </wgt>
<wgt id='2274'> +2.7908718e+02 </wgt>
<wgt id='2275'> +2.9248737e+02 </wgt>
<wgt id='2276'> +2.8448149e+02 </wgt>
<wgt id='2277'> +2.7086787e+02 </wgt>
<wgt id='2278'> +2.6949067e+02 </wgt>
<wgt id='2279'> +2.9074175e+02 </wgt>
<wgt id='2280'> +2.8154827e+02 </wgt>
<wgt id='2281'> +2.7965188e+02 </wgt>
<wgt id='2282'> +4.4504177e+02 </wgt>
<wgt id='2283'> +2.7531379e+02 </wgt>
<wgt id='2284'> +4.4647133e+02 </wgt>
</rwgt>
</event>
<event npLO=" -1 " npNLO=" 1 ">
 5      1 +2.8781417e+02 7.90629320e+00 7.54677110e-03 1.31244500e-01
        1 -1    0    0  503    0 +0.0000000000e+00 +0.0000000000e+00 +2.4042598000e+03 2.4042598000e+03 0.0000000000e+00 0.0000e+00 9.0000e+00
       21 -1    0    0  501  502 +0.0000000000e+00 +0.0000000000e+00 -1.0309883000e+01 1.0309883000e+01 0.0000000000e+00 0.0000e+00 9.0000e+00
       25  1    1    2    0    0 -1.6384821000e+00 -5.8330947000e+00 +2.5482695000e+02 2.7381287000e+02 1.0000000000e+02 0.0000e+00 9.0000e+00
        1  1    1    2  501    0 +5.0597543000e+00 +8.8364694000e+00 +2.1334895000e+03 2.1335138000e+03 0.0000000000e+00 0.0000e+00 9.0000e+00
       21  1    1    2  503  502 -3.4212722000e+00 -3.0033747000e+00 +5.6334508000e+00 7.2430057000e+00 0.0000000000e+00 0.0000e+00 9.0000e+00
#aMCatNLO 2  0  0  1  4 0.14810370E+01 0.00000000E+00 -9  5  0 0.00000000E+00 0.00000000E+00 0.00000000E+00 0.00000000E+00 0.00000000E+00
<rwgt>
<wgt id='1001'> +2.8781417e+02 </wgt>
<wgt id='1002'> +1.8502733e+02 </wgt>
<wgt id='1003'> +4.7457808e+02 </wgt>
<wgt id='1004'> +2.8723061e+02 </wgt>
<wgt id='1005'> +1.8465218e+02 </wgt>
<wgt id='1006'> +4.7361586e+02 </wgt>
<wgt id='1007'> +2.8285861e+02 </wgt>
<wgt id='1008'> +1.8184155e+02 </wgt>
<wgt id='1009'> +4.6640684e+02 </wgt>
<wgt id='1010'> +2.8781417e+02 </wgt>
<wgt id='1011'> +2.8768480e+02 </wgt>
<wgt id='1012'> +2.8474494e+02 </wgt>
<wgt id='1013'> +2.9182869e+02 </wgt>
<wgt id='1014'> +2.8536716e+02 </wgt>
<wgt id='1015'> +2.8984717e+02 </wgt>
<wgt id='1016'> +2.8764957e+02 </wgt>
<wgt id='1017'> +2.8440199e+02 </wgt>
<wgt id='1018'> +2.8740140e+02 </wgt>
<wgt id='1019'> +2.8965122e+02 </wgt>
<wgt id='1020'> +2.9272417e+02 </wgt>
<wgt id='1021'> +2.8683138e+02 </wgt>
<wgt id='1022'> +2.9003441e+02 </wgt>
<wgt id='1023'> +2.8800556e+02 </wgt>
<wgt id='1024'> +2.8534893e+02 </wgt>
<wgt id='1025'> +2.8710502e+02 </wgt>
<wgt id='1026'> +2.8966450e+02 </wgt>
<wgt id='1027'> +2.8621494e+02 </wgt>
<wgt id='1028'> +2.8886789e+02 </wgt>
<wgt id='1029'> +2.8711280e+02 </wgt>
<wgt id='1030'> +2.8516596e+02 </wgt>
<wgt id='1031'> +2.8830995e+02 </wgt>
<wgt id='1032'> +2.9024431e+02 </wgt>
<wgt id='1033'> +2.8867992e+02 </wgt>
<wgt id='1034'> +2.9160620e+02 </wgt>
<wgt id='1035'> +2.8196460e+02 </wgt>
<wgt id='1036'> +2.8860020e+02 </wgt>
<wgt id='1037'> +2.9025172e+02 </wgt>
<wgt id='1038'> +2.9066466e+02 </wgt>
<wgt id='1039'> +2.9093406e+02 </wgt>
<wgt id='1040'> +2.8272564e+02 </wgt>
<wgt id='1041'> +2.8992059e+02 </wgt>
<wgt id='1042'> +2.8806290e+02 </wgt>
<wgt id='1043'> +2.8166913e+02 </wgt>
<wgt id='1044'> +2.8918577e+02 </wgt>
<wgt id='1045'> +2.8671307e+02 </wgt>
<wgt id='1046'> +2.8530941e+02 </wgt>
<wgt id='1047'> +2.8358600e+02 </wgt>
<wgt id='1048'> +2.8460939e+02 </wgt>
<wgt id='1049'> +2.8857994e+02 </wgt>
<wgt id='1050'> +2.8987129e+02 </wgt>
<wgt id='1051'> +2.8594897e+02 </wgt>
<wgt id='1052'> +2.8193503e+02 </wgt>
<wgt id='1053'> +2.8653008e+02 </wgt>
<wgt id='1054'> +2.8606421e+02 </wgt>
<wgt id='1055'> +2.8757724e+02 </wgt>
<wgt id='1056'> +2.8699998e+02 </wgt>
<wgt id='1057'> +2.8833681e+02 </wgt>
<wgt id='1058'> +2.8878533e+02 </wgt>
<wgt id='1059'> +2.9135933e+02 </wgt>
<wgt id='1060'> +2.8741152e+02 </wgt>
<wgt id='1061'> +2.8851982e+02 </wgt>
<wgt id='1062'> +2.8806653e+02 </wgt>
<wgt id='1063'> +2.8792547e+02 </wgt>
<wgt id='1064'> +2.8873531e+02 </wgt>
<wgt id='1065'> +2.8788864e+02 </wgt>
<wgt id='1066'> +2.9066395e+02 </wgt>
<wgt id='1067'> +2.8602041e+02 </wgt>
<wgt id='1068'> +2.8907125e+02 </wgt>
<wgt id='1069'> +2.8765438e+02 </wgt>
<wgt id='1070'> +2.8882941e+02 </wgt>
<wgt id='1071'> +2.8773188e+02 </wgt>
<wgt id='1072'> +2.8812092e+02 </wgt>
<wgt id='1073'> +2.8628658e+02 </wgt>
<wgt id='1074'> +2.8734942e+02 </wgt>
<wgt id='1075'> +2.8766807e+02 </wgt>
<wgt id='1076'> +2.8813648e+02 </wgt>
<wgt id='1077'> +2.8930501e+02 </wgt>
<wgt id='1078'> +2.8772809e+02 </wgt>
<wgt id='1079'> +2.8703909e+02 </wgt>
<wgt id='1080'> +2.8594298e+02 </wgt>
<wgt id='1081'> +2.8781683e+02 </wgt>
<wgt id='1082'> +2.8743763e+02 </wgt>
<wgt id='1083'> +2.8946643e+02 </wgt>
<wgt id='1084'> +2.8884174e+02 </wgt>
<wgt id='1085'> +2.8695455e+02 </wgt>
<wgt id='1086'> +2.8771510e+02 </wgt>
<wgt id='1087'> +2.8836783e+02 </wgt>
<wgt id='1088'> +2.8782972e+02 </wgt>
<wgt id='1089'> +2.8825152e+02 </wgt>
<wgt id='1090'> +2.8704650e+02 </wgt>
<wgt id='1091'> +2.8715028e+02 </wgt>
<wgt id='1092'> +2.8684894e+02 </wgt>
<wgt id='1093'> +2.8822188e+02 </wgt>
<wgt id='1094'> +2.8804377e+02 </wgt>
<wgt id='1095'> +2.8667026e+02 </wgt>
<wgt id='1096'> +2.8703628e+02 </wgt>
<wgt id='1097'> +2.8774545e+02 </wgt>
<wgt id='1098'> +2.8746624e+02 </wgt>
<wgt id='1099'> +2.8762603e+02 </wgt>
<wgt id='1100'> +2.8807627e+02 </wgt>
<wgt id='1101'> +2.8765940e+02 </wgt>
<wgt id='1102'> +2.8769692e+02 </wgt>
<wgt id='1103'> +2.8751094e+02 </wgt>
<wgt id='1104'> +2.8763567e+02 </wgt>
<wgt id='1105'> +2.8771195e+02 </wgt>
<wgt id='1106'> +2.8790776e+02 </wgt>
<wgt id='1107'> +2.8805633e+02 </wgt>
<wgt id='1108'> +2.8835324e+02 </wgt>
<wgt id='1109'> +2.8794972e+02 </wgt>
<wgt id='1110'> +2.8781416e+02 </wgt>
<wgt id='1111'> +2.7048577e+02 </wgt>
<wgt id='1112'> +3.0987777e+02 </wgt>
<wgt id='1113'> +2.8781416e+02 </wgt>
<wgt id='1114'> +2.9214057e+02 </wgt>
<wgt id='1115'> +2.9389443e+02 </wgt>
<wgt id='1116'> +2.8140439e+02 </wgt>
<wgt id='1117'> +3.1931835e+02 </wgt>
<wgt id='1118'> +2.9781853e+02 </wgt>
<wgt id='1119'> +2.6918410e+02 </wgt>
<wgt id='1120'> +2.6819841e+02 </wgt>
<wgt id='1121'> +2.8097475e+02 </wgt>
<wgt id='1122'> +3.0516496e+02 </wgt>
<wgt id='1123'> +2.6656715e+02 </wgt>
<wgt id='1124'> +2.8581436e+02 </wgt>
<wgt id='1125'> +3.1467538e+02 </wgt>
<wgt id='1126'> +2.7622686e+02 </wgt>
<wgt id='1127'> +2.9591561e+02 </wgt>
<wgt id='1128'> +2.6041582e+02 </wgt>
<wgt id='1129'> +2.8729419e+02 </wgt>
<wgt id='1130'> +2.8916927e+02 </wgt>
<wgt id='1131'> +2.9536890e+02 </wgt>
<wgt id='1132'> +3.0282684e+02 </wgt>
<wgt id='1133'> +2.6278152e+02 </wgt>
<wgt id='1134'> +3.0238740e+02 </wgt>
<wgt id='1135'> +2.9670636e+02 </wgt>
<wgt id='1136'> +3.1238632e+02 </wgt>
<wgt id='1137'> +3.1117532e+02 </wgt>
<wgt id='1138'> +3.0235979e+02 </wgt>
<wgt id='1139'> +2.8709046e+02 </wgt>
<wgt id='1140'> +2.9901728e+02 </wgt>
<wgt id='1141'> +2.8821131e+02 </wgt>
<wgt id='1142'> +2.9875134e+02 </wgt>
<wgt id='1143'> +2.5331710e+02 </wgt>
<wgt id='1144'> +2.7815679e+02 </wgt>
<wgt id='1145'> +2.8267521e+02 </wgt>
<wgt id='1146'> +2.8976794e+02 </wgt>
<wgt id='1147'> +2.8516930e+02 </wgt>
<wgt id='1148'> +2.6633139e+02 </wgt>
<wgt id='1149'> +2.6848739e+02 </wgt>
<wgt id='1150'> +2.7401873e+02 </wgt>
<wgt id='1151'> +2.8144682e+02 </wgt>
<wgt id='1152'> +2.4409342e+02 </wgt>
<wgt id='1153'> +2.6139540e+02 </wgt>
<wgt id='1154'> +3.2284193e+02 </wgt>
<wgt id='1155'> +3.1748713e+02 </wgt>
<wgt id='1156'> +3.0032680e+02 </wgt>
<wgt id='1157'> +2.8628709e+02 </wgt>
<wgt id='1158'> +2.7901390e+02 </wgt>
<wgt id='1159'> +2.8828567e+02 </wgt>
<wgt id='1160'> +2.6889740e+02 </wgt>
<wgt id='1161'> +3.1312873e+02 </wgt>
<wgt id='1162'> +3.0801122e+02 </wgt>
<wgt id='1163'> +2.7288636e+02 </wgt>
<wgt id='1164'> +3.2326273e+02 </wgt>
<wgt id='1165'> +2.9077273e+02 </wgt>
<wgt id='1166'> +2.7171358e+02 </wgt>
<wgt id='1167'> +3.2259319e+02 </wgt>
<wgt id='1168'> +2.6640022e+02 </wgt>
<wgt id='1169'> +3.0641998e+02 </wgt>
<wgt id='1170'> +2.9201362e+02 </wgt>
<wgt id='1171'> +2.8578398e+02 </wgt>
<wgt id='1172'> +2.8788666e+02 </wgt>
<wgt id='1173'> +3.2458248e+02 </wgt>
<wgt id='1174'> +2.7326468e+02 </wgt>
<wgt id='1175'> +3.0172952e+02 </wgt>
<wgt id='1176'> +2.7771881e+02 </wgt>
<wgt id='1177'> +2.9877562e+02 </wgt>
<wgt id='1178'> +3.1382099e+02 </wgt>
<wgt id='1179'> +2.7479704e+02 </wgt>
<wgt id='1180'> +3.0489470e+02 </wgt>
<wgt id='1181'> +2.9244533e+02 </wgt>
<wgt id='1182'> +2.9290605e+02 </wgt>
<wgt id='1183'> +2.6665404e+02 </wgt>
<wgt id='1184'> +2.7502953e+02 </wgt>
<wgt id='1185'> +3.0175026e+02 </wgt>
<wgt id='1186'> +3.0276802e+02 </wgt>
<wgt id='1187'> +2.9658157e+02 </wgt>
<wgt id='1188'> +2.6741864e+02 </wgt>
<wgt id='1189'> +2.8144811e+02 </wgt>
<wgt id='1190'> +2.6150926e+02 </wgt>
<wgt id='1191'> +2.9934347e+02 </wgt>
<wgt id='1192'> +3.0257842e+02 </wgt>
<wgt id='1193'> +2.4360204e+02 </wgt>
<wgt id='1194'> +2.8202068e+02 </wgt>
<wgt id='1195'> +2.8729419e+02 </wgt>
<wgt id='1196'> +2.6198731e+02 </wgt>
<wgt id='1197'> +3.0643741e+02 </wgt>
<wgt id='1198'> +2.7254348e+02 </wgt>
<wgt id='1199'> +2.4412371e+02 </wgt>
<wgt id='1200'> +2.9528835e+02 </wgt>
<wgt id='1201'> +2.2746912e+02 </wgt>
<wgt id='1202'> +2.9275597e+02 </wgt>
<wgt id='1203'> +2.6496083e+02 </wgt>
<wgt id='1204'> +2.8130721e+02 </wgt>
<wgt id='1205'> +2.7835868e+02 </wgt>
<wgt id='1206'> +2.9475290e+02 </wgt>
<wgt id='1207'> +3.1225700e+02 </wgt>
<wgt id='1208'> +3.1440241e+02 </wgt>
<wgt id='1209'> +2.7799933e+02 </wgt>
<wgt id='1210'> +3.0537544e+02 </wgt>
<wgt id='1211'> +2.8177459e+02 </wgt>
<wgt id='1212'> +2.9448889e+02 </wgt>
<wgt id='1213'> +3.2112640e+02 </wgt>
<wgt id='1214'> +2.8763214e+02 </wgt>
<wgt id='1215'> +2.8616506e+02 </wgt>
<wgt id='1216'> +2.9104641e+02 </wgt>
<wgt id='1217'> +2.8816732e+02 </wgt>
<wgt id='1218'> +2.8561388e+02 </wgt>
<wgt id='1219'> +2.8804212e+02 </wgt>
<wgt id='1220'> +2.8943718e+02 </wgt>
<wgt id='1221'> +2.8832607e+02 </wgt>
<wgt id='1222'> +2.9072786e+02 </wgt>
<wgt id='1223'> +2.8617824e+02 </wgt>
<wgt id='1224'> +2.8827278e+02 </wgt>
<wgt id='1225'> +2.8741695e+02 </wgt>
<wgt id='1226'> +2.8726406e+02 </wgt>
<wgt id='1227'> +2.8730578e+02 </wgt>
<wgt id='1228'> +2.8807953e+02 </wgt>
<wgt id='1229'> +2.8783492e+02 </wgt>
<wgt id='1230'> +2.8857476e+02 </wgt>
<wgt id='1231'> +2.8791919e+02 </wgt>
<wgt id='1232'> +2.8714857e+02 </wgt>
<wgt id='1233'> +2.8663206e+02 </wgt>
<wgt id='1234'> +2.8686114e+02 </wgt>
<wgt id='1235'> +2.8741247e+02 </wgt>
<wgt id='1236'> +2.8783427e+02 </wgt>
<wgt id='1237'> +2.8542645e+02 </wgt>
<wgt id='1238'> +2.8989013e+02 </wgt>
<wgt id='1239'> +2.8603480e+02 </wgt>
<wgt id='1240'> +2.8759962e+02 </wgt>
<wgt id='1241'> +2.9026158e+02 </wgt>
<wgt id='1242'> +2.8683175e+02 </wgt>
<wgt id='1243'> +2.8555118e+02 </wgt>
<wgt id='1244'> +2.9011071e+02 </wgt>
<wgt id='1245'> +2.8462721e+02 </wgt>
<wgt id='1246'> +2.8301584e+02 </wgt>
<wgt id='1247'> +2.9548371e+02 </wgt>
<wgt id='1248'> +2.8498650e+02 </wgt>
<wgt id='1249'> +2.9314349e+02 </wgt>
<wgt id='1250'> +2.8834292e+02 </wgt>
<wgt id='1251'> +2.8880045e+02 </wgt>
<wgt id='1252'> +2.8108195e+02 </wgt>
<wgt id='1253'> +2.8636414e+02 </wgt>
<wgt id='1254'> +2.8750892e+02 </wgt>
<wgt id='1255'> +2.8753649e+02 </wgt>
<wgt id='1256'> +2.8685498e+02 </wgt>
<wgt id='1257'> +2.8847618e+02 </wgt>
<wgt id='1258'> +2.8667807e+02 </wgt>
<wgt id='1259'> +2.8958883e+02 </wgt>
<wgt id='1260'> +2.8826000e+02 </wgt>
<wgt id='1261'> +2.8731711e+02 </wgt>
<wgt id='1262'> +2.9012576e+02 </wgt>
<wgt id='1263'> +2.8756188e+02 </wgt>
<wgt id='1264'> +2.8919072e+02 </wgt>
<wgt id='1265'> +2.8865794e+02 </wgt>
<wgt id='1266'> +2.8691537e+02 </wgt>
<wgt id='1267'> +2.8890442e+02 </wgt>
<wgt id='1268'> +2.8846314e+02 </wgt>
<wgt id='1269'> +2.9083416e+02 </wgt>
<wgt id='1270'> +2.9192820e+02 </wgt>
<wgt id='1271'> +2.8757004e+02 </wgt>
<wgt id='1272'> +2.8805871e+02 </wgt>
<wgt id='1273'> +2.8966945e+02 </wgt>
<wgt id='1274'> +2.8758499e+02 </wgt>
<wgt id='1275'> +2.8581917e+02 </wgt>
<wgt id='1276'> +2.9083341e+02 </wgt>
<wgt id='1277'> +2.9017555e+02 </wgt>
<wgt id='1278'> +2.8785329e+02 </wgt>
<wgt id='1279'> +2.8787383e+02 </wgt>
<wgt id='1280'> +2.8683031e+02 </wgt>
<wgt id='1281'> +2.8647551e+02 </wgt>
<wgt id='1282'> +2.8749583e+02 </wgt>
<wgt id='1283'> +2.8804491e+02 </wgt>
<wgt id='1284'> +2.8701156e+02 </wgt>
<wgt id='1285'> +2.8953735e+02 </wgt>
<wgt id='1286'> +2.8877364e+02 </wgt>
<wgt id='1287'> +2.8631005e+02 </wgt>
<wgt id='1288'> +2.8648425e+02 </wgt>
<wgt id='1289'> +2.8694176e+02 </wgt>
<wgt id='1290'> +2.8685944e+02 </wgt>
<wgt id='1291'> +2.8813582e+02 </wgt>
<wgt id='1292'> +2.8779195e+02 </wgt>
<wgt id='1293'> +2.8741491e+02 </wgt>
<wgt id='1294'> +2.8749282e+02 </wgt>
<wgt id='1295'> +2.8844714e+02 </wgt>
<wgt id='1296'> +2.8840335e+02 </wgt>
<wgt id='1297'> +2.8765955e+02 </wgt>
<wgt id='1298'> +2.8695458e+02 </wgt>
<wgt id='1299'> +2.8764439e+02 </wgt>
<wgt id='1300'> +2.8746904e+02 </wgt>
<wgt id='1301'> +2.8693616e+02 </wgt>
<wgt id='1302'> +2.8790936e+02 </wgt>
<wgt id='1303'> +2.8779406e+02 </wgt>
<wgt id='1304'> +2.8693376e+02 </wgt>
<wgt id='1305'> +2.8861375e+02 </wgt>
<wgt id='1306'> +2.8780970e+02 </wgt>
<wgt id='1307'> +2.8786379e+02 </wgt>
<wgt id='1308'> +2.8703941e+02 </wgt>
<wgt id='1309'> +2.8622237e+02 </wgt>
<wgt id='1310'> +2.8696091e+02 </wgt>
<wgt id='1311'> +2.8738990e+02 </wgt>
<wgt id='1312'> +2.8659524e+02 </wgt>
<wgt id='1313'> +2.8752016e+02 </wgt>
<wgt id='1314'> +2.8854067e+02 </wgt>
<wgt id='1315'> +2.7048577e+02 </wgt>
<wgt id='1316'> +3.0987777e+02 </wgt>
<wgt id='1317'> +2.0137749e+02 </wgt>
<wgt id='1318'> +2.1491135e+02 </wgt>
<wgt id='1319'> +2.3005770e+02 </wgt>
<wgt id='1320'> +2.4691173e+02 </wgt>
<wgt id='1321'> +2.7733456e+02 </wgt>
<wgt id='1322'> +2.9779936e+02 </wgt>
<wgt id='1323'> +3.2831015e+02 </wgt>
<wgt id='1324'> +3.4794924e+02 </wgt>
<wgt id='1325'> +2.7197462e+02 </wgt>
<wgt id='1326'> +2.7398580e+02 </wgt>
<wgt id='1327'> +2.6911500e+02 </wgt>
<wgt id='1328'> +2.7310268e+02 </wgt>
<wgt id='1329'> +2.6993256e+02 </wgt>
<wgt id='1330'> +2.7211184e+02 </wgt>
<wgt id='1331'> +2.7381556e+02 </wgt>
<wgt id='1332'> +2.7100202e+02 </wgt>
<wgt id='1333'> +2.7113971e+02 </wgt>
<wgt id='1334'> +2.7029523e+02 </wgt>
<wgt id='1335'> +2.7341730e+02 </wgt>
<wgt id='1336'> +2.7178842e+02 </wgt>
<wgt id='1337'> +2.7068348e+02 </wgt>
<wgt id='1338'> +2.7189345e+02 </wgt>
<wgt id='1339'> +2.7210441e+02 </wgt>
<wgt id='1340'> +2.7083277e+02 </wgt>
<wgt id='1341'> +2.7389966e+02 </wgt>
<wgt id='1342'> +2.6998014e+02 </wgt>
<wgt id='1343'> +2.7092195e+02 </wgt>
<wgt id='1344'> +2.7023444e+02 </wgt>
<wgt id='1345'> +2.7084424e+02 </wgt>
<wgt id='1346'> +2.7397652e+02 </wgt>
<wgt id='1347'> +2.7215606e+02 </wgt>
<wgt id='1348'> +2.7260344e+02 </wgt>
<wgt id='1349'> +2.7323043e+02 </wgt>
<wgt id='1350'> +2.7144215e+02 </wgt>
<wgt id='1351'> +2.7138577e+02 </wgt>
<wgt id='1352'> +2.7122608e+02 </wgt>
<wgt id='1353'> +2.7236438e+02 </wgt>
<wgt id='1354'> +2.7413976e+02 </wgt>
<wgt id='1355'> +2.6788582e+02 </wgt>
<wgt id='1356'> +2.7067504e+02 </wgt>
<wgt id='1357'> +2.7269962e+02 </wgt>
<wgt id='1358'> +2.7288802e+02 </wgt>
<wgt id='1359'> +2.7119934e+02 </wgt>
<wgt id='1360'> +2.7355836e+02 </wgt>
<wgt id='1361'> +2.6712690e+02 </wgt>
<wgt id='1362'> +2.7972647e+02 </wgt>
<wgt id='1363'> +2.6553172e+02 </wgt>
<wgt id='1364'> +2.7071760e+02 </wgt>
<wgt id='1365'> +2.6767117e+02 </wgt>
<wgt id='1366'> +2.7355146e+02 </wgt>
<wgt id='1367'> +2.7194237e+02 </wgt>
<wgt id='1368'> +2.7172514e+02 </wgt>
<wgt id='1369'> +2.7434093e+02 </wgt>
<wgt id='1370'> +2.7397201e+02 </wgt>
<wgt id='1371'> +2.7255520e+02 </wgt>
<wgt id='1372'> +2.7199717e+02 </wgt>
<wgt id='1373'> +2.7213917e+02 </wgt>
<wgt id='1374'> +2.7258793e+02 </wgt>
<wgt id='1375'> +2.7181182e+02 </wgt>
<wgt id='1376'> +2.7199520e+02 </wgt>
<wgt id='1377'> +2.7138808e+02 </wgt>
<wgt id='1378'> +2.7423098e+02 </wgt>
<wgt id='1379'> +2.7167703e+02 </wgt>
<wgt id='1380'> +2.7298493e+02 </wgt>
<wgt id='1381'> +2.7417358e+02 </wgt>
<wgt id='1382'> +2.7136234e+02 </wgt>
<wgt id='1383'> +2.6983596e+02 </wgt>
<wgt id='1384'> +2.7180803e+02 </wgt>
<wgt id='1385'> +2.6892058e+02 </wgt>
<wgt id='1386'> +2.7084681e+02 </wgt>
<wgt id='1387'> +2.7431236e+02 </wgt>
<wgt id='1388'> +2.6971529e+02 </wgt>
<wgt id='1389'> +2.6890770e+02 </wgt>
<wgt id='1390'> +2.7373222e+02 </wgt>
<wgt id='1391'> +2.7443081e+02 </wgt>
<wgt id='1392'> +2.7341369e+02 </wgt>
<wgt id='1393'> +2.7419333e+02 </wgt>
<wgt id='1394'> +2.7201417e+02 </wgt>
<wgt id='1395'> +2.7232674e+02 </wgt>
<wgt id='1396'> +2.7130160e+02 </wgt>
<wgt id='1397'> +2.7189762e+02 </wgt>
<wgt id='1398'> +2.7224962e+02 </wgt>
<wgt id='1399'> +2.7317902e+02 </wgt>
<wgt id='1400'> +2.7310797e+02 </wgt>
<wgt id='1401'> +2.7413395e+02 </wgt>
<wgt id='1402'> +2.7165069e+02 </wgt>
<wgt id='1403'> +2.7170540e+02 </wgt>
<wgt id='1404'> +2.7199085e+02 </wgt>
<wgt id='1405'> +2.7206986e+02 </wgt>
<wgt id='1406'> +2.7120319e+02 </wgt>
<wgt id='1407'> +2.7190918e+02 </wgt>
<wgt id='1408'> +2.7210874e+02 </wgt>
<wgt id='1409'> +2.7304972e+02 </wgt>
<wgt id='1410'> +2.7254601e+02 </wgt>
<wgt id='1411'> +2.7122633e+02 </wgt>
<wgt id='1412'> +2.7320000e+02 </wgt>
<wgt id='1413'> +2.7091813e+02 </wgt>
<wgt id='1414'> +2.7299662e+02 </wgt>
<wgt id='1415'> +2.7307128e+02 </wgt>
<wgt id='1416'> +2.7119097e+02 </wgt>
<wgt id='1417'> +2.7135361e+02 </wgt>
<wgt id='1418'> +2.7148368e+02 </wgt>
<wgt id='1419'> +2.7185008e+02 </wgt>
<wgt id='1420'> +2.7242912e+02 </wgt>
<wgt id='1421'> +2.7248255e+02 </wgt>
<wgt id='1422'> +2.7213856e+02 </wgt>
<wgt id='1423'> +2.7155891e+02 </wgt>
<wgt id='1424'> +2.7387555e+02 </wgt>
<wgt id='1425'> +2.7103970e+02 </wgt>
<wgt id='1426'> +2.5769558e+02 </wgt>
<wgt id='1427'> +2.9404103e+02 </wgt>
<wgt id='1428'> +2.8200701e+02 </wgt>
<wgt id='1429'> +2.8632815e+02 </wgt>
<wgt id='1430'> +2.8838362e+02 </wgt>
<wgt id='1431'> +2.8231407e+02 </wgt>
<wgt id='1432'> +2.8259719e+02 </wgt>
<wgt id='1433'> +2.7898059e+02 </wgt>
<wgt id='1434'> +2.8586598e+02 </wgt>
<wgt id='1435'> +2.8377200e+02 </wgt>
<wgt id='1436'> +2.7771971e+02 </wgt>
<wgt id='1437'> +2.6714798e+02 </wgt>
<wgt id='1438'> +2.9389095e+02 </wgt>
<wgt id='1439'> +2.8309030e+02 </wgt>
<wgt id='1440'> +2.7973811e+02 </wgt>
<wgt id='1441'> +2.7699600e+02 </wgt>
<wgt id='1442'> +2.8236476e+02 </wgt>
<wgt id='1443'> +2.8248827e+02 </wgt>
<wgt id='1444'> +2.8155160e+02 </wgt>
<wgt id='1445'> +2.8783662e+02 </wgt>
<wgt id='1446'> +2.7610309e+02 </wgt>
<wgt id='1447'> +2.8249344e+02 </wgt>
<wgt id='1448'> +2.8245712e+02 </wgt>
<wgt id='1449'> +2.8456319e+02 </wgt>
<wgt id='1450'> +2.8051865e+02 </wgt>
<wgt id='1451'> +2.8603215e+02 </wgt>
<wgt id='1452'> +2.7753168e+02 </wgt>
<wgt id='1453'> +2.7990712e+02 </wgt>
<wgt id='1454'> +2.8373569e+02 </wgt>
<wgt id='1455'> +2.8257242e+02 </wgt>
<wgt id='1456'> +2.8095079e+02 </wgt>
<wgt id='1457'> +2.7924557e+02 </wgt>
<wgt id='1458'> +2.8361283e+02 </wgt>
<wgt id='1459'> +2.8221595e+02 </wgt>
<wgt id='1460'> +2.8169566e+02 </wgt>
<wgt id='1461'> +2.8353055e+02 </wgt>
<wgt id='1462'> +2.8046622e+02 </wgt>
<wgt id='1463'> +2.7719386e+02 </wgt>
<wgt id='1464'> +2.8628060e+02 </wgt>
<wgt id='1465'> +2.8624141e+02 </wgt>
<wgt id='1466'> +2.7733894e+02 </wgt>
<wgt id='1467'> +2.8020083e+02 </wgt>
<wgt id='1468'> +2.8282244e+02 </wgt>
<wgt id='1469'> +2.7916899e+02 </wgt>
<wgt id='1470'> +2.8401262e+02 </wgt>
<wgt id='1471'> +2.8767099e+02 </wgt>
<wgt id='1472'> +2.7449412e+02 </wgt>
<wgt id='1473'> +2.7723312e+02 </wgt>
<wgt id='1474'> +2.8968575e+02 </wgt>
<wgt id='1475'> +2.8981306e+02 </wgt>
<wgt id='1476'> +2.8188882e+02 </wgt>
<wgt id='1477'> +2.7856532e+02 </wgt>
<wgt id='1478'> +2.8630867e+02 </wgt>
<wgt id='1479'> +2.7680505e+02 </wgt>
<wgt id='1480'> +2.7019652e+02 </wgt>
<wgt id='1481'> +2.7967908e+02 </wgt>
<wgt id='1482'> +2.8357657e+02 </wgt>
<wgt id='1483'> +2.8318246e+02 </wgt>
<wgt id='1484'> +2.7973210e+02 </wgt>
<wgt id='1485'> +2.6566455e+02 </wgt>
<wgt id='1486'> +2.9838698e+02 </wgt>
<wgt id='1487'> +2.9457788e+02 </wgt>
<wgt id='1488'> +2.8212160e+02 </wgt>
<wgt id='1489'> +2.8603123e+02 </wgt>
<wgt id='1490'> +2.9710154e+02 </wgt>
<wgt id='1491'> +2.9693894e+02 </wgt>
<wgt id='1492'> +3.0018341e+02 </wgt>
<wgt id='1493'> +2.9015955e+02 </wgt>
<wgt id='1494'> +2.9751722e+02 </wgt>
<wgt id='1495'> +2.9548029e+02 </wgt>
<wgt id='1496'> +2.9446227e+02 </wgt>
<wgt id='1497'> +2.9834604e+02 </wgt>
<wgt id='1498'> +2.8242607e+02 </wgt>
<wgt id='1499'> +3.0230437e+02 </wgt>
<wgt id='1500'> +2.9027926e+02 </wgt>
<wgt id='1501'> +3.0393833e+02 </wgt>
<wgt id='1502'> +2.9243432e+02 </wgt>
<wgt id='1503'> +2.9565615e+02 </wgt>
<wgt id='1504'> +2.9761364e+02 </wgt>
<wgt id='1505'> +2.9089150e+02 </wgt>
<wgt id='1506'> +2.9727080e+02 </wgt>
<wgt id='1507'> +2.9193074e+02 </wgt>
<wgt id='1508'> +2.9647568e+02 </wgt>
<wgt id='1509'> +2.9340390e+02 </wgt>
<wgt id='1510'> +2.9219443e+02 </wgt>
<wgt id='1511'> +2.9499746e+02 </wgt>
<wgt id='1512'> +2.8903169e+02 </wgt>
<wgt id='1513'> +2.9983844e+02 </wgt>
<wgt id='1514'> +2.9345704e+02 </wgt>
<wgt id='1515'> +2.9556945e+02 </wgt>
<wgt id='1516'> +2.9335155e+02 </wgt>
<wgt id='1517'> +2.9494648e+02 </wgt>
<wgt id='1518'> +2.9447796e+02 </wgt>
<wgt id='1519'> +2.9471908e+02 </wgt>
<wgt id='1520'> +2.9503315e+02 </wgt>
<wgt id='1521'> +2.9349356e+02 </wgt>
<wgt id='1522'> +2.9934418e+02 </wgt>
<wgt id='1523'> +2.8902146e+02 </wgt>
<wgt id='1524'> +2.9212604e+02 </wgt>
<wgt id='1525'> +2.9775574e+02 </wgt>
<wgt id='1526'> +2.9351291e+02 </wgt>
<wgt id='1527'> +2.9475568e+02 </wgt>
<wgt id='1528'> +2.8513950e+02 </wgt>
<wgt id='1529'> +2.9815826e+02 </wgt>
<wgt id='1530'> +3.0589174e+02 </wgt>
<wgt id='1531'> +2.8575701e+02 </wgt>
<wgt id='1532'> +2.9642050e+02 </wgt>
<wgt id='1533'> +2.9208650e+02 </wgt>
<wgt id='1534'> +3.0866483e+02 </wgt>
<wgt id='1535'> +2.9350441e+02 </wgt>
<wgt id='1536'> +3.0158829e+02 </wgt>
<wgt id='1537'> +2.9087928e+02 </wgt>
<wgt id='1538'> +2.9783693e+02 </wgt>
<wgt id='1539'> +2.9747436e+02 </wgt>
<wgt id='1540'> +2.8820434e+02 </wgt>
<wgt id='1541'> +2.9180954e+02 </wgt>
<wgt id='1542'> +2.9558374e+02 </wgt>
<wgt id='1543'> +2.9223169e+02 </wgt>
<wgt id='1544'> +2.7612816e+02 </wgt>
<wgt id='1545'> +3.1310426e+02 </wgt>
<wgt id='1546'> +3.2168000e+02 </wgt>
<wgt id='1547'> +3.1592915e+02 </wgt>
<wgt id='1548'> +3.1624211e+02 </wgt>
<wgt id='1549'> +3.1559747e+02 </wgt>
<wgt id='1550'> +3.1594599e+02 </wgt>
<wgt id='1551'> +3.1592331e+02 </wgt>
<wgt id='1552'> +3.1545462e+02 </wgt>
<wgt id='1553'> +3.1636037e+02 </wgt>
<wgt id='1554'> +3.1567472e+02 </wgt>
<wgt id='1555'> +3.1620509e+02 </wgt>
<wgt id='1556'> +3.1813284e+02 </wgt>
<wgt id='1557'> +3.1379252e+02 </wgt>
<wgt id='1558'> +3.1514099e+02 </wgt>
<wgt id='1559'> +3.1762558e+02 </wgt>
<wgt id='1560'> +3.1822844e+02 </wgt>
<wgt id='1561'> +3.1184451e+02 </wgt>
<wgt id='1562'> +3.2256638e+02 </wgt>
<wgt id='1563'> +3.1218864e+02 </wgt>
<wgt id='1564'> +3.1727293e+02 </wgt>
<wgt id='1565'> +3.1436669e+02 </wgt>
<wgt id='1566'> +3.1319649e+02 </wgt>
<wgt id='1567'> +3.1829001e+02 </wgt>
<wgt id='1568'> +3.1080529e+02 </wgt>
<wgt id='1569'> +3.2250058e+02 </wgt>
<wgt id='1570'> +3.1257396e+02 </wgt>
<wgt id='1571'> +3.1798986e+02 </wgt>
<wgt id='1572'> +3.1528284e+02 </wgt>
<wgt id='1573'> +3.1536087e+02 </wgt>
<wgt id='1574'> +3.1174373e+02 </wgt>
<wgt id='1575'> +3.1460642e+02 </wgt>
<wgt id='1576'> +3.1813743e+02 </wgt>
<wgt id='1577'> +3.1298882e+02 </wgt>
<wgt id='1578'> +3.2043544e+02 </wgt>
<wgt id='1579'> +3.1096309e+02 </wgt>
<wgt id='1580'> +3.1310246e+02 </wgt>
<wgt id='1581'> +3.1872188e+02 </wgt>
<wgt id='1582'> +3.1577943e+02 </wgt>
<wgt id='1583'> +3.1710699e+02 </wgt>
<wgt id='1584'> +3.1195820e+02 </wgt>
<wgt id='1585'> +3.1752843e+02 </wgt>
<wgt id='1586'> +3.1535005e+02 </wgt>
<wgt id='1587'> +3.1639491e+02 </wgt>
<wgt id='1588'> +3.1678257e+02 </wgt>
<wgt id='1589'> +3.1496816e+02 </wgt>
<wgt id='1590'> +3.1776277e+02 </wgt>
<wgt id='1591'> +3.1618624e+02 </wgt>
<wgt id='1592'> +3.1392991e+02 </wgt>
<wgt id='1593'> +3.2089912e+02 </wgt>
<wgt id='1594'> +3.1573150e+02 </wgt>
<wgt id='1595'> +3.1477423e+02 </wgt>
<wgt id='1596'> +3.1659765e+02 </wgt>
<wgt id='1597'> +3.1442694e+02 </wgt>
<wgt id='1598'> +2.9898257e+02 </wgt>
<wgt id='1599'> +2.9930255e+02 </wgt>
<wgt id='1600'> +2.9856079e+02 </wgt>
<wgt id='1601'> +2.9925807e+02 </wgt>
<wgt id='1602'> +2.9869948e+02 </wgt>
<wgt id='1603'> +2.9902006e+02 </wgt>
<wgt id='1604'> +2.9896932e+02 </wgt>
<wgt id='1605'> +2.9891994e+02 </wgt>
<wgt id='1606'> +2.9903007e+02 </wgt>
<wgt id='1607'> +3.0113458e+02 </wgt>
<wgt id='1608'> +2.9691650e+02 </wgt>
<wgt id='1609'> +3.0034994e+02 </wgt>
<wgt id='1610'> +2.9835573e+02 </wgt>
<wgt id='1611'> +2.9746895e+02 </wgt>
<wgt id='1612'> +3.0082057e+02 </wgt>
<wgt id='1613'> +3.0462680e+02 </wgt>
<wgt id='1614'> +2.9287250e+02 </wgt>
<wgt id='1615'> +2.9117458e+02 </wgt>
<wgt id='1616'> +3.0336516e+02 </wgt>
<wgt id='1617'> +3.0149956e+02 </wgt>
<wgt id='1618'> +2.9552837e+02 </wgt>
<wgt id='1619'> +3.0278127e+02 </wgt>
<wgt id='1620'> +2.9629348e+02 </wgt>
<wgt id='1621'> +2.9871880e+02 </wgt>
<wgt id='1622'> +2.9892684e+02 </wgt>
<wgt id='1623'> +2.9925828e+02 </wgt>
<wgt id='1624'> +2.9824399e+02 </wgt>
<wgt id='1625'> +2.9611046e+02 </wgt>
<wgt id='1626'> +2.9628384e+02 </wgt>
<wgt id='1627'> +2.9663809e+02 </wgt>
<wgt id='1628'> +3.0463384e+02 </wgt>
<wgt id='1629'> +3.0182618e+02 </wgt>
<wgt id='1630'> +2.9282441e+02 </wgt>
<wgt id='1631'> +2.9905807e+02 </wgt>
<wgt id='1632'> +2.9895416e+02 </wgt>
<wgt id='1633'> +3.0189742e+02 </wgt>
<wgt id='1634'> +2.9791877e+02 </wgt>
<wgt id='1635'> +2.9809772e+02 </wgt>
<wgt id='1636'> +3.0133251e+02 </wgt>
<wgt id='1637'> +2.9856034e+02 </wgt>
<wgt id='1638'> +2.9910588e+02 </wgt>
<wgt id='1639'> +2.9946318e+02 </wgt>
<wgt id='1640'> +2.9732381e+02 </wgt>
<wgt id='1641'> +2.9811397e+02 </wgt>
<wgt id='1642'> +3.0005455e+02 </wgt>
<wgt id='1643'> +2.9898856e+02 </wgt>
<wgt id='1644'> +2.9917335e+02 </wgt>
<wgt id='1645'> +3.0425011e+02 </wgt>
<wgt id='1646'> +2.9684945e+02 </wgt>
<wgt id='1647'> +2.9847231e+02 </wgt>
<wgt id='1648'> +2.9988917e+02 </wgt>
<wgt id='1649'> +6.8431577e+02 </wgt>
<wgt id='1650'> +2.6898907e+02 </wgt>
<wgt id='1651'> +2.6888542e+02 </wgt>
<wgt id='1652'> +2.6901730e+02 </wgt>
<wgt id='1653'> +2.6900929e+02 </wgt>
<wgt id='1654'> +2.6897029e+02 </wgt>
<wgt id='1655'> +2.6854924e+02 </wgt>
<wgt id='1656'> +2.6875211e+02 </wgt>
<wgt id='1657'> +2.6849894e+02 </wgt>
<wgt id='1658'> +2.6954336e+02 </wgt>
<wgt id='1659'> +2.6720956e+02 </wgt>
<wgt id='1660'> +2.6992479e+02 </wgt>
<wgt id='1661'> +2.6950989e+02 </wgt>
<wgt id='1662'> +2.7091873e+02 </wgt>
<wgt id='1663'> +2.6887259e+02 </wgt>
<wgt id='1664'> +2.6853635e+02 </wgt>
<wgt id='1665'> +2.7121802e+02 </wgt>
<wgt id='1666'> +2.6867030e+02 </wgt>
<wgt id='1667'> +2.6849163e+02 </wgt>
<wgt id='1668'> +2.6838605e+02 </wgt>
<wgt id='1669'> +2.6882175e+02 </wgt>
<wgt id='1670'> +2.7099214e+02 </wgt>
<wgt id='1671'> +2.6991448e+02 </wgt>
<wgt id='1672'> +2.6781498e+02 </wgt>
<wgt id='1673'> +2.7224715e+02 </wgt>
<wgt id='1674'> +2.7099331e+02 </wgt>
<wgt id='1675'> +2.6974685e+02 </wgt>
<wgt id='1676'> +2.6909390e+02 </wgt>
<wgt id='1677'> +2.6970114e+02 </wgt>
<wgt id='1678'> +2.6470603e+02 </wgt>
<wgt id='1679'> +2.6604248e+02 </wgt>
<wgt id='1680'> +2.9683551e+02 </wgt>
<wgt id='1681'> +2.9849970e+02 </wgt>
<wgt id='1682'> +2.9729408e+02 </wgt>
<wgt id='1683'> +2.9830662e+02 </wgt>
<wgt id='1684'> +2.9863998e+02 </wgt>
<wgt id='1685'> +2.9452573e+02 </wgt>
<wgt id='1686'> +2.9572141e+02 </wgt>
<wgt id='1687'> +2.9928475e+02 </wgt>
<wgt id='1688'> +3.0619626e+02 </wgt>
<wgt id='1689'> +2.9520892e+02 </wgt>
<wgt id='1690'> +2.9763138e+02 </wgt>
<wgt id='1691'> +2.9989545e+02 </wgt>
<wgt id='1692'> +2.9594816e+02 </wgt>
<wgt id='1693'> +2.9237898e+02 </wgt>
<wgt id='1694'> +3.0034543e+02 </wgt>
<wgt id='1695'> +2.9556119e+02 </wgt>
<wgt id='1696'> +2.9994526e+02 </wgt>
<wgt id='1697'> +2.9860723e+02 </wgt>
<wgt id='1698'> +2.9549590e+02 </wgt>
<wgt id='1699'> +2.9897314e+02 </wgt>
<wgt id='1700'> +3.0267652e+02 </wgt>
<wgt id='1701'> +2.9290491e+02 </wgt>
<wgt id='1702'> +2.9410660e+02 </wgt>
<wgt id='1703'> +3.0264236e+02 </wgt>
<wgt id='1704'> +2.9239028e+02 </wgt>
<wgt id='1705'> +2.8972642e+02 </wgt>
<wgt id='1706'> +2.9316122e+02 </wgt>
<wgt id='1707'> +3.0068961e+02 </wgt>
<wgt id='1708'> +2.9168460e+02 </wgt>
<wgt id='1709'> +2.9577113e+02 </wgt>
<wgt id='1710'> +2.9793808e+02 </wgt>
<wgt id='1711'> +2.9544507e+02 </wgt>
<wgt id='1712'> +2.9814945e+02 </wgt>
<wgt id='1713'> +2.9514537e+02 </wgt>
<wgt id='1714'> +2.9577844e+02 </wgt>
<wgt id='1715'> +2.9947738e+02 </wgt>
<wgt id='1716'> +2.9635406e+02 </wgt>
<wgt id='1717'> +2.9060587e+02 </wgt>
<wgt id='1718'> +2.9529830e+02 </wgt>
<wgt id='1719'> +2.9793378e+02 </wgt>
<wgt id='1720'> +2.9718948e+02 </wgt>
<wgt id='1721'> +2.9883390e+02 </wgt>
<wgt id='1722'> +2.9401096e+02 </wgt>
<wgt id='1723'> +2.9640451e+02 </wgt>
<wgt id='1724'> +2.9859113e+02 </wgt>
<wgt id='1725'> +2.9367511e+02 </wgt>
<wgt id='1726'> +2.9683652e+02 </wgt>
<wgt id='1727'> +2.9989953e+02 </wgt>
<wgt id='1728'> +2.9524907e+02 </wgt>
<wgt id='1729'> +2.9816212e+02 </wgt>
<wgt id='1730'> +2.9572965e+02 </wgt>
<wgt id='1731'> +2.9859018e+02 </wgt>
<wgt id='1732'> +2.9716308e+02 </wgt>
<wgt id='1733'> +2.9548525e+02 </wgt>
<wgt id='1734'> +2.9716962e+02 </wgt>
<wgt id='1735'> +2.9696145e+02 </wgt>
<wgt id='1736'> +2.9563525e+02 </wgt>
<wgt id='1737'> +2.9535900e+02 </wgt>
<wgt id='1738'> +2.9631930e+02 </wgt>
<wgt id='1739'> +2.9700830e+02 </wgt>
<wgt id='1740'> +2.9655059e+02 </wgt>
<wgt id='1741'> +2.9709532e+02 </wgt>
<wgt id='1742'> +2.9617436e+02 </wgt>
<wgt id='1743'> +2.9821555e+02 </wgt>
<wgt id='1744'> +2.9633773e+02 </wgt>
<wgt id='1745'> +2.9773089e+02 </wgt>
<wgt id='1746'> +2.9760734e+02 </wgt>
<wgt id='1747'> +2.9736288e+02 </wgt>
<wgt id='1748'> +2.9747243e+02 </wgt>
<wgt id='1749'> +2.9658397e+02 </wgt>
<wgt id='1750'> +2.9647797e+02 </wgt>
<wgt id='1751'> +2.9645501e+02 </wgt>
<wgt id='1752'> +2.9633285e+02 </wgt>
<wgt id='1753'> +2.9669684e+02 </wgt>
<wgt id='1754'> +2.9747768e+02 </wgt>
<wgt id='1755'> +2.9637633e+02 </wgt>
<wgt id='1756'> +2.9694168e+02 </wgt>
<wgt id='1757'> +2.9701483e+02 </wgt>
<wgt id='1758'> +2.9678414e+02 </wgt>
<wgt id='1759'> +2.9702112e+02 </wgt>
<wgt id='1760'> +2.9680001e+02 </wgt>
<wgt id='1761'> +2.9733585e+02 </wgt>
<wgt id='1762'> +2.9646108e+02 </wgt>
<wgt id='1763'> +2.9673559e+02 </wgt>
<wgt id='1764'> +2.9721252e+02 </wgt>
<wgt id='1765'> +2.9693547e+02 </wgt>
<wgt id='1766'> +2.9740285e+02 </wgt>
<wgt id='1767'> +2.9693922e+02 </wgt>
<wgt id='1768'> +2.9652981e+02 </wgt>
<wgt id='1769'> +2.9694334e+02 </wgt>
<wgt id='1770'> +2.9685775e+02 </wgt>
<wgt id='1771'> +2.9669539e+02 </wgt>
<wgt id='1772'> +2.9697362e+02 </wgt>
<wgt id='1773'> +2.9683611e+02 </wgt>
<wgt id='1774'> +2.9694952e+02 </wgt>
<wgt id='1775'> +2.9690794e+02 </wgt>
<wgt id='1776'> +2.9679263e+02 </wgt>
<wgt id='1777'> +2.9703076e+02 </wgt>
<wgt id='1778'> +2.9708526e+02 </wgt>
<wgt id='1779'> +2.9688287e+02 </wgt>
<wgt id='1780'> +2.9673216e+02 </wgt>
<wgt id='1781'> +2.8171203e+02 </wgt>
<wgt id='1782'> +3.0956969e+02 </wgt>
<wgt id='1783'> +2.8662595e+02 </wgt>
<wgt id='1784'> +2.9047406e+02 </wgt>
<wgt id='1785'> +2.8592789e+02 </wgt>
<wgt id='1786'> +2.8563537e+02 </wgt>
<wgt id='1787'> +2.8716405e+02 </wgt>
<wgt id='1788'> +2.8674765e+02 </wgt>
<wgt id='1789'> +2.8625575e+02 </wgt>
<wgt id='1790'> +2.8658260e+02 </wgt>
<wgt id='1791'> +2.8783542e+02 </wgt>
<wgt id='1792'> +2.8487566e+02 </wgt>
<wgt id='1793'> +2.8841097e+02 </wgt>
<wgt id='1794'> +2.8374534e+02 </wgt>
<wgt id='1795'> +2.8307160e+02 </wgt>
<wgt id='1796'> +2.8401592e+02 </wgt>
<wgt id='1797'> +2.8478347e+02 </wgt>
<wgt id='1798'> +2.9030075e+02 </wgt>
<wgt id='1799'> +2.8277890e+02 </wgt>
<wgt id='1800'> +2.8851410e+02 </wgt>
<wgt id='1801'> +2.8723720e+02 </wgt>
<wgt id='1802'> +2.8325191e+02 </wgt>
<wgt id='1803'> +2.8674828e+02 </wgt>
<wgt id='1804'> +2.8844554e+02 </wgt>
<wgt id='1805'> +2.8498603e+02 </wgt>
<wgt id='1806'> +2.8815192e+02 </wgt>
<wgt id='1807'> +2.8981592e+02 </wgt>
<wgt id='1808'> +2.8755725e+02 </wgt>
<wgt id='1809'> +2.8762130e+02 </wgt>
<wgt id='1810'> +2.8493376e+02 </wgt>
<wgt id='1811'> +2.8515230e+02 </wgt>
<wgt id='1812'> +2.8694864e+02 </wgt>
<wgt id='1813'> +2.8836130e+02 </wgt>
<wgt id='1814'> +2.8173755e+02 </wgt>
<wgt id='1815'> +2.8849706e+02 </wgt>
<wgt id='1816'> +2.8685437e+02 </wgt>
<wgt id='1817'> +2.8301671e+02 </wgt>
<wgt id='1818'> +2.8938347e+02 </wgt>
<wgt id='1819'> +2.8657177e+02 </wgt>
<wgt id='1820'> +2.8650631e+02 </wgt>
<wgt id='1821'> +2.8583876e+02 </wgt>
<wgt id='1822'> +2.9205011e+02 </wgt>
<wgt id='1823'> +2.9281512e+02 </wgt>
<wgt id='1824'> +2.8408415e+02 </wgt>
<wgt id='1825'> +2.8914790e+02 </wgt>
<wgt id='1826'> +2.8563425e+02 </wgt>
<wgt id='1827'> +2.8779934e+02 </wgt>
<wgt id='1828'> +2.8435070e+02 </wgt>
<wgt id='1829'> +2.8722955e+02 </wgt>
<wgt id='1830'> +2.8665622e+02 </wgt>
<wgt id='1831'> +2.8930898e+02 </wgt>
<wgt id='1832'> +2.8422212e+02 </wgt>
<wgt id='1833'> +2.8531178e+02 </wgt>
<wgt id='1834'> +2.8781940e+02 </wgt>
<wgt id='1835'> +2.8885168e+02 </wgt>
<wgt id='1836'> +2.8719430e+02 </wgt>
<wgt id='1837'> +2.8636575e+02 </wgt>
<wgt id='1838'> +2.8629964e+02 </wgt>
<wgt id='1839'> +2.8689003e+02 </wgt>
<wgt id='1840'> +2.8683341e+02 </wgt>
<wgt id='1841'> +2.8582745e+02 </wgt>
<wgt id='1842'> +2.8746797e+02 </wgt>
<wgt id='1843'> +2.8674864e+02 </wgt>
<wgt id='1844'> +2.8690010e+02 </wgt>
<wgt id='1845'> +2.8603893e+02 </wgt>
<wgt id='1846'> +2.8659314e+02 </wgt>
<wgt id='1847'> +2.8832540e+02 </wgt>
<wgt id='1848'> +2.8667999e+02 </wgt>
<wgt id='1849'> +2.8584455e+02 </wgt>
<wgt id='1850'> +2.8541803e+02 </wgt>
<wgt id='1851'> +2.8646120e+02 </wgt>
<wgt id='1852'> +2.8666161e+02 </wgt>
<wgt id='1853'> +2.8701825e+02 </wgt>
<wgt id='1854'> +2.8687474e+02 </wgt>
<wgt id='1855'> +2.8744714e+02 </wgt>
<wgt id='1856'> +2.8731138e+02 </wgt>
<wgt id='1857'> +2.8745599e+02 </wgt>
<wgt id='1858'> +2.8673773e+02 </wgt>
<wgt id='1859'> +2.8697912e+02 </wgt>
<wgt id='1860'> +2.8658902e+02 </wgt>
<wgt id='1861'> +2.8675142e+02 </wgt>
<wgt id='1862'> +2.8624508e+02 </wgt>
<wgt id='1863'> +2.8707778e+02 </wgt>
<wgt id='1864'> +2.8662187e+02 </wgt>
<wgt id='1865'> +2.8690704e+02 </wgt>
<wgt id='1866'> +2.8644285e+02 </wgt>
<wgt id='1867'> +2.8673121e+02 </wgt>
<wgt id='1868'> +2.8638870e+02 </wgt>
<wgt id='1869'> +2.8673142e+02 </wgt>
<wgt id='1870'> +2.8614100e+02 </wgt>
<wgt id='1871'> +2.8655853e+02 </wgt>
<wgt id='1872'> +2.8657919e+02 </wgt>
<wgt id='1873'> +2.8673825e+02 </wgt>
<wgt id='1874'> +2.8641924e+02 </wgt>
<wgt id='1875'> +2.8640373e+02 </wgt>
<wgt id='1876'> +2.8651881e+02 </wgt>
<wgt id='1877'> +2.8658701e+02 </wgt>
<wgt id='1878'> +2.8665689e+02 </wgt>
<wgt id='1879'> +2.8643666e+02 </wgt>
<wgt id='1880'> +2.8664496e+02 </wgt>
<wgt id='1881'> +2.8670344e+02 </wgt>
<wgt id='1882'> +2.8651464e+02 </wgt>
<wgt id='1883'> +2.8689876e+02 </wgt>
<wgt id='1884'> +2.7303522e+02 </wgt>
<wgt id='1885'> +2.9732368e+02 </wgt>
<wgt id='1886'> +2.9687441e+02 </wgt>
<wgt id='1887'> +3.0237284e+02 </wgt>
<wgt id='1888'> +3.0301088e+02 </wgt>
<wgt id='1889'> +2.9605184e+02 </wgt>
<wgt id='1890'> +3.0547435e+02 </wgt>
<wgt id='1891'> +3.0177821e+02 </wgt>
<wgt id='1892'> +3.0564451e+02 </wgt>
<wgt id='1893'> +2.9448335e+02 </wgt>
<wgt id='1894'> +2.9546460e+02 </wgt>
<wgt id='1895'> +2.9632848e+02 </wgt>
<wgt id='1896'> +2.9648879e+02 </wgt>
<wgt id='1897'> +2.9813810e+02 </wgt>
<wgt id='1898'> +2.9164456e+02 </wgt>
<wgt id='1899'> +2.9595665e+02 </wgt>
<wgt id='1900'> +2.9836775e+02 </wgt>
<wgt id='1901'> +2.9389570e+02 </wgt>
<wgt id='1902'> +2.9594837e+02 </wgt>
<wgt id='1903'> +2.9389899e+02 </wgt>
<wgt id='1904'> +2.8466191e+02 </wgt>
<wgt id='1905'> +2.9625874e+02 </wgt>
<wgt id='1906'> +2.9615470e+02 </wgt>
<wgt id='1907'> +2.9681065e+02 </wgt>
<wgt id='1908'> +2.9714762e+02 </wgt>
<wgt id='1909'> +2.9700862e+02 </wgt>
<wgt id='1910'> +2.9872240e+02 </wgt>
<wgt id='1911'> +2.9782308e+02 </wgt>
<wgt id='1912'> +2.9747070e+02 </wgt>
<wgt id='1913'> +2.9678845e+02 </wgt>
<wgt id='1914'> +2.9680791e+02 </wgt>
<wgt id='1915'> +2.9718144e+02 </wgt>
<wgt id='1916'> +2.9661357e+02 </wgt>
<wgt id='1917'> +2.8171203e+02 </wgt>
<wgt id='1918'> +3.0956969e+02 </wgt>
<wgt id='1919'> +2.8661485e+02 </wgt>
<wgt id='1920'> +2.9255656e+02 </wgt>
<wgt id='1921'> +2.8848614e+02 </wgt>
<wgt id='1922'> +2.8670864e+02 </wgt>
<wgt id='1923'> +2.8612439e+02 </wgt>
<wgt id='1924'> +2.8340859e+02 </wgt>
<wgt id='1925'> +2.8593088e+02 </wgt>
<wgt id='1926'> +2.8666610e+02 </wgt>
<wgt id='1927'> +2.9975612e+02 </wgt>
<wgt id='1928'> +2.8426388e+02 </wgt>
<wgt id='1929'> +2.8991939e+02 </wgt>
<wgt id='1930'> +2.8526792e+02 </wgt>
<wgt id='1931'> +2.8773343e+02 </wgt>
<wgt id='1932'> +2.8783911e+02 </wgt>
<wgt id='1933'> +2.8703360e+02 </wgt>
<wgt id='1934'> +2.8832425e+02 </wgt>
<wgt id='1935'> +2.8825351e+02 </wgt>
<wgt id='1936'> +2.8575741e+02 </wgt>
<wgt id='1937'> +2.8705421e+02 </wgt>
<wgt id='1938'> +2.8715918e+02 </wgt>
<wgt id='1939'> +2.8507701e+02 </wgt>
<wgt id='1940'> +2.8562770e+02 </wgt>
<wgt id='1941'> +2.8768565e+02 </wgt>
<wgt id='1942'> +2.8542147e+02 </wgt>
<wgt id='1943'> +2.8566431e+02 </wgt>
<wgt id='1944'> +2.8617138e+02 </wgt>
<wgt id='1945'> +2.8571437e+02 </wgt>
<wgt id='1946'> +2.8632189e+02 </wgt>
<wgt id='1947'> +2.8447607e+02 </wgt>
<wgt id='1948'> +2.8747671e+02 </wgt>
<wgt id='1949'> +2.8631231e+02 </wgt>
<wgt id='1950'> +2.7303522e+02 </wgt>
<wgt id='1951'> +2.9732368e+02 </wgt>
<wgt id='1952'> +3.2772602e+02 </wgt>
<wgt id='1953'> +3.2759257e+02 </wgt>
<wgt id='1954'> +3.2785850e+02 </wgt>
<wgt id='1955'> +3.2827543e+02 </wgt>
<wgt id='1956'> +3.2717642e+02 </wgt>
<wgt id='1957'> +3.2765067e+02 </wgt>
<wgt id='1958'> +3.2780046e+02 </wgt>
<wgt id='1959'> +3.2706412e+02 </wgt>
<wgt id='1960'> +3.2838910e+02 </wgt>
<wgt id='1961'> +3.1724784e+02 </wgt>
<wgt id='1962'> +3.3832661e+02 </wgt>
<wgt id='1963'> +3.3230387e+02 </wgt>
<wgt id='1964'> +3.2301089e+02 </wgt>
<wgt id='1965'> +3.2866629e+02 </wgt>
<wgt id='1966'> +3.2677758e+02 </wgt>
<wgt id='1967'> +3.2084021e+02 </wgt>
<wgt id='1968'> +3.3518125e+02 </wgt>
<wgt id='1969'> +3.1740221e+02 </wgt>
<wgt id='1970'> +3.3784947e+02 </wgt>
<wgt id='1971'> +3.3684769e+02 </wgt>
<wgt id='1972'> +3.1868484e+02 </wgt>
<wgt id='1973'> +3.3246905e+02 </wgt>
<wgt id='1974'> +3.2280349e+02 </wgt>
<wgt id='1975'> +3.2277243e+02 </wgt>
<wgt id='1976'> +3.3364796e+02 </wgt>
<wgt id='1977'> +3.3130432e+02 </wgt>
<wgt id='1978'> +3.2435983e+02 </wgt>
<wgt id='1979'> +3.2045440e+02 </wgt>
<wgt id='1980'> +3.3557363e+02 </wgt>
<wgt id='1981'> +3.2772602e+02 </wgt>
<wgt id='1982'> +3.2649057e+02 </wgt>
<wgt id='1983'> +3.3039530e+02 </wgt>
<wgt id='1984'> +3.3724038e+02 </wgt>
<wgt id='1985'> +3.3890113e+02 </wgt>
<wgt id='1986'> +3.2837149e+02 </wgt>
<wgt id='1987'> +3.2720395e+02 </wgt>
<wgt id='1988'> +3.2710294e+02 </wgt>
<wgt id='1989'> +3.2848579e+02 </wgt>
<wgt id='1990'> +3.2547599e+02 </wgt>
<wgt id='1991'> +3.3022144e+02 </wgt>
<wgt id='1992'> +3.2576613e+02 </wgt>
<wgt id='1993'> +3.3082661e+02 </wgt>
<wgt id='1994'> +3.5688116e+02 </wgt>
<wgt id='1995'> +3.1169062e+02 </wgt>
<wgt id='1996'> +3.1192047e+02 </wgt>
<wgt id='1997'> +3.1198276e+02 </wgt>
<wgt id='1998'> +3.1252078e+02 </wgt>
<wgt id='1999'> +3.1138195e+02 </wgt>
<wgt id='2000'> +3.1221189e+02 </wgt>
<wgt id='2001'> +3.1169147e+02 </wgt>
<wgt id='2002'> +3.1178626e+02 </wgt>
<wgt id='2003'> +3.1210941e+02 </wgt>
<wgt id='2004'> +3.1023799e+02 </wgt>
<wgt id='2005'> +3.1364771e+02 </wgt>
<wgt id='2006'> +3.0141078e+02 </wgt>
<wgt id='2007'> +3.2263611e+02 </wgt>
<wgt id='2008'> +3.1437678e+02 </wgt>
<wgt id='2009'> +3.0955871e+02 </wgt>
<wgt id='2010'> +3.1158954e+02 </wgt>
<wgt id='2011'> +3.1301480e+02 </wgt>
<wgt id='2012'> +3.1969217e+02 </wgt>
<wgt id='2013'> +3.0433763e+02 </wgt>
<wgt id='2014'> +3.2030409e+02 </wgt>
<wgt id='2015'> +3.0349073e+02 </wgt>
<wgt id='2016'> +3.0951332e+02 </wgt>
<wgt id='2017'> +3.1404825e+02 </wgt>
<wgt id='2018'> +3.1649713e+02 </wgt>
<wgt id='2019'> +3.0754979e+02 </wgt>
<wgt id='2020'> +3.1527557e+02 </wgt>
<wgt id='2021'> +3.0873841e+02 </wgt>
<wgt id='2022'> +3.0945721e+02 </wgt>
<wgt id='2023'> +3.1480745e+02 </wgt>
<wgt id='2024'> +3.1138469e+02 </wgt>
<wgt id='2025'> +3.1146276e+02 </wgt>
<wgt id='2026'> +3.2830235e+02 </wgt>
<wgt id='2027'> +3.1399727e+02 </wgt>
<wgt id='2028'> +3.1235032e+02 </wgt>
<wgt id='2029'> +3.1135014e+02 </wgt>
<wgt id='2030'> +3.1289850e+02 </wgt>
<wgt id='2031'> +3.1066320e+02 </wgt>
<wgt id='2032'> +3.1289619e+02 </wgt>
<wgt id='2033'> +3.0593978e+02 </wgt>
<wgt id='2034'> +3.1683946e+02 </wgt>
<wgt id='2035'> +3.0677989e+02 </wgt>
<wgt id='2036'> +3.1367671e+02 </wgt>
<wgt id='2037'> +3.1859091e+02 </wgt>
<wgt id='2038'> +2.9267941e+02 </wgt>
<wgt id='2039'> +2.9264326e+02 </wgt>
<wgt id='2040'> +2.9260636e+02 </wgt>
<wgt id='2041'> +2.9256908e+02 </wgt>
<wgt id='2042'> +2.9253193e+02 </wgt>
<wgt id='2043'> +2.9249520e+02 </wgt>
<wgt id='2044'> +2.9245887e+02 </wgt>
<wgt id='2045'> +2.9242197e+02 </wgt>
<wgt id='2046'> +2.9238421e+02 </wgt>
<wgt id='2047'> +2.9234782e+02 </wgt>
<wgt id='2048'> +2.9231093e+02 </wgt>
<wgt id='2049'> +2.9227477e+02 </wgt>
<wgt id='2050'> +2.9223828e+02 </wgt>
<wgt id='2051'> +2.9219997e+02 </wgt>
<wgt id='2052'> +2.9216407e+02 </wgt>
<wgt id='2053'> +2.9212770e+02 </wgt>
<wgt id='2054'> +2.9209102e+02 </wgt>
<wgt id='2055'> +2.9205420e+02 </wgt>
<wgt id='2056'> +2.9201664e+02 </wgt>
<wgt id='2057'> +2.9197974e+02 </wgt>
<wgt id='2058'> +2.9194293e+02 </wgt>
<wgt id='2059'> +2.9190716e+02 </wgt>
<wgt id='2060'> +2.9186945e+02 </wgt>
<wgt id='2061'> +2.9183207e+02 </wgt>
<wgt id='2062'> +2.9179682e+02 </wgt>
<wgt id='2063'> +2.9176004e+02 </wgt>
<wgt id='2064'> +2.9172331e+02 </wgt>
<wgt id='2065'> +2.9168557e+02 </wgt>
<wgt id='2066'> +2.9164880e+02 </wgt>
<wgt id='2067'> +2.9161202e+02 </wgt>
<wgt id='2068'> +2.9157556e+02 </wgt>
<wgt id='2069'> +2.8438715e+02 </wgt>
<wgt id='2070'> +2.8814225e+02 </wgt>
<wgt id='2071'> +2.8367775e+02 </wgt>
<wgt id='2072'> +2.8340604e+02 </wgt>
<wgt id='2073'> +2.8490849e+02 </wgt>
<wgt id='2074'> +2.8450590e+02 </wgt>
<wgt id='2075'> +2.8406620e+02 </wgt>
<wgt id='2076'> +2.8438574e+02 </wgt>
<wgt id='2077'> +2.8558991e+02 </wgt>
<wgt id='2078'> +2.8265770e+02 </wgt>
<wgt id='2079'> +2.8614530e+02 </wgt>
<wgt id='2080'> +2.8159484e+02 </wgt>
<wgt id='2081'> +2.8088578e+02 </wgt>
<wgt id='2082'> +2.8181927e+02 </wgt>
<wgt id='2083'> +2.8255000e+02 </wgt>
<wgt id='2084'> +2.8794007e+02 </wgt>
<wgt id='2085'> +2.8063931e+02 </wgt>
<wgt id='2086'> +2.8622910e+02 </wgt>
<wgt id='2087'> +2.8498063e+02 </wgt>
<wgt id='2088'> +2.8108251e+02 </wgt>
<wgt id='2089'> +2.8455484e+02 </wgt>
<wgt id='2090'> +2.8615872e+02 </wgt>
<wgt id='2091'> +2.8275730e+02 </wgt>
<wgt id='2092'> +2.8591252e+02 </wgt>
<wgt id='2093'> +2.8751821e+02 </wgt>
<wgt id='2094'> +2.8526364e+02 </wgt>
<wgt id='2095'> +2.8532646e+02 </wgt>
<wgt id='2096'> +2.8275984e+02 </wgt>
<wgt id='2097'> +2.8295115e+02 </wgt>
<wgt id='2098'> +2.8468749e+02 </wgt>
<wgt id='2099'> +2.8608074e+02 </wgt>
<wgt id='2100'> +2.7959089e+02 </wgt>
<wgt id='2101'> +2.8622886e+02 </wgt>
<wgt id='2102'> +2.8460064e+02 </wgt>
<wgt id='2103'> +2.8080489e+02 </wgt>
<wgt id='2104'> +2.8711425e+02 </wgt>
<wgt id='2105'> +2.8433476e+02 </wgt>
<wgt id='2106'> +2.8427156e+02 </wgt>
<wgt id='2107'> +2.8359095e+02 </wgt>
<wgt id='2108'> +2.8974716e+02 </wgt>
<wgt id='2109'> +2.9053493e+02 </wgt>
<wgt id='2110'> +2.8184986e+02 </wgt>
<wgt id='2111'> +2.8687839e+02 </wgt>
<wgt id='2112'> +2.8342928e+02 </wgt>
<wgt id='2113'> +2.8554600e+02 </wgt>
<wgt id='2114'> +2.8212823e+02 </wgt>
<wgt id='2115'> +2.8499759e+02 </wgt>
<wgt id='2116'> +2.8440829e+02 </wgt>
<wgt id='2117'> +2.8705959e+02 </wgt>
<wgt id='2118'> +2.8200015e+02 </wgt>
<wgt id='2119'> +2.8308656e+02 </wgt>
<wgt id='2120'> +2.8556708e+02 </wgt>
<wgt id='2121'> +2.8659261e+02 </wgt>
<wgt id='2122'> +2.8495268e+02 </wgt>
<wgt id='2123'> +2.8413395e+02 </wgt>
<wgt id='2124'> +2.8406609e+02 </wgt>
<wgt id='2125'> +2.8463139e+02 </wgt>
<wgt id='2126'> +2.8459918e+02 </wgt>
<wgt id='2127'> +2.8360611e+02 </wgt>
<wgt id='2128'> +2.8523065e+02 </wgt>
<wgt id='2129'> +2.8452048e+02 </wgt>
<wgt id='2130'> +2.8466026e+02 </wgt>
<wgt id='2131'> +2.8380228e+02 </wgt>
<wgt id='2132'> +2.8435091e+02 </wgt>
<wgt id='2133'> +2.8607742e+02 </wgt>
<wgt id='2134'> +2.8443690e+02 </wgt>
<wgt id='2135'> +2.8360996e+02 </wgt>
<wgt id='2136'> +2.8318229e+02 </wgt>
<wgt id='2137'> +2.8422619e+02 </wgt>
<wgt id='2138'> +2.8442411e+02 </wgt>
<wgt id='2139'> +2.8477226e+02 </wgt>
<wgt id='2140'> +2.8464147e+02 </wgt>
<wgt id='2141'> +2.8518608e+02 </wgt>
<wgt id='2142'> +2.8506397e+02 </wgt>
<wgt id='2143'> +2.8520720e+02 </wgt>
<wgt id='2144'> +2.8449905e+02 </wgt>
<wgt id='2145'> +2.8474711e+02 </wgt>
<wgt id='2146'> +2.8435474e+02 </wgt>
<wgt id='2147'> +2.8451796e+02 </wgt>
<wgt id='2148'> +2.8401012e+02 </wgt>
<wgt id='2149'> +2.8482498e+02 </wgt>
<wgt id='2150'> +2.8438977e+02 </wgt>
<wgt id='2151'> +2.8466833e+02 </wgt>
<wgt id='2152'> +2.8420461e+02 </wgt>
<wgt id='2153'> +2.8447892e+02 </wgt>
<wgt id='2154'> +2.8415682e+02 </wgt>
<wgt id='2155'> +2.8450144e+02 </wgt>
<wgt id='2156'> +2.8390450e+02 </wgt>
<wgt id='2157'> +2.8432012e+02 </wgt>
<wgt id='2158'> +2.8433354e+02 </wgt>
<wgt id='2159'> +2.8449559e+02 </wgt>
<wgt id='2160'> +2.8417862e+02 </wgt>
<wgt id='2161'> +2.8416204e+02 </wgt>
<wgt id='2162'> +2.8427452e+02 </wgt>
<wgt id='2163'> +2.8433926e+02 </wgt>
<wgt id='2164'> +2.8441708e+02 </wgt>
<wgt id='2165'> +2.8420236e+02 </wgt>
<wgt id='2166'> +2.8440846e+02 </wgt>
<wgt id='2167'> +2.8445640e+02 </wgt>
<wgt id='2168'> +2.8427797e+02 </wgt>
<wgt id='2169'> +2.8465554e+02 </wgt>
<wgt id='2170'> +2.8438533e+02 </wgt>
<wgt id='2171'> +2.8437516e+02 </wgt>
<wgt id='2172'> +2.8438905e+02 </wgt>
<wgt id='2173'> +2.8438936e+02 </wgt>
<wgt id='2174'> +2.8439269e+02 </wgt>
<wgt id='2175'> +2.8438795e+02 </wgt>
<wgt id='2176'> +2.8437916e+02 </wgt>
<wgt id='2177'> +2.7574324e+02 </wgt>
<wgt id='2178'> +2.6804834e+02 </wgt>
<wgt id='2179'> +2.7920308e+02 </wgt>
<wgt id='2180'> +2.6710449e+02 </wgt>
<wgt id='2181'> +2.7558763e+02 </wgt>
<wgt id='2182'> +2.5523835e+02 </wgt>
<wgt id='2183'> +2.8266915e+02 </wgt>
<wgt id='2184'> +2.9562569e+02 </wgt>
<wgt id='2185'> +2.7380301e+02 </wgt>
<wgt id='2186'> +2.7787080e+02 </wgt>
<wgt id='2187'> +2.7529602e+02 </wgt>
<wgt id='2188'> +2.9591901e+02 </wgt>
<wgt id='2189'> +2.8063197e+02 </wgt>
<wgt id='2190'> +2.9821197e+02 </wgt>
<wgt id='2191'> +2.6937090e+02 </wgt>
<wgt id='2192'> +2.7699780e+02 </wgt>
<wgt id='2193'> +2.7624762e+02 </wgt>
<wgt id='2194'> +2.5279489e+02 </wgt>
<wgt id='2195'> +2.5527134e+02 </wgt>
<wgt id='2196'> +2.6242686e+02 </wgt>
<wgt id='2197'> +2.6897527e+02 </wgt>
<wgt id='2198'> +3.1471623e+02 </wgt>
<wgt id='2199'> +3.0007735e+02 </wgt>
<wgt id='2200'> +3.0353423e+02 </wgt>
<wgt id='2201'> +2.6563465e+02 </wgt>
<wgt id='2202'> +2.9676797e+02 </wgt>
<wgt id='2203'> +2.7133810e+02 </wgt>
<wgt id='2204'> +2.4024634e+02 </wgt>
<wgt id='2205'> +2.8906959e+02 </wgt>
<wgt id='2206'> +2.7575655e+02 </wgt>
<wgt id='2207'> +2.7121746e+02 </wgt>
<wgt id='2208'> +2.7869483e+02 </wgt>
<wgt id='2209'> +2.9636555e+02 </wgt>
<wgt id='2210'> +2.6802437e+02 </wgt>
<wgt id='2211'> +2.7974683e+02 </wgt>
<wgt id='2212'> +2.7848959e+02 </wgt>
<wgt id='2213'> +2.7458568e+02 </wgt>
<wgt id='2214'> +2.4857815e+02 </wgt>
<wgt id='2215'> +2.6820000e+02 </wgt>
<wgt id='2216'> +2.7436841e+02 </wgt>
<wgt id='2217'> +2.6854969e+02 </wgt>
<wgt id='2218'> +2.9001895e+02 </wgt>
<wgt id='2219'> +2.4692401e+02 </wgt>
<wgt id='2220'> +2.6983023e+02 </wgt>
<wgt id='2221'> +2.7172043e+02 </wgt>
<wgt id='2222'> +2.8447301e+02 </wgt>
<wgt id='2223'> +2.6189052e+02 </wgt>
<wgt id='2224'> +2.7752881e+02 </wgt>
<wgt id='2225'> +2.6902278e+02 </wgt>
<wgt id='2226'> +2.2984706e+02 </wgt>
<wgt id='2227'> +2.7579174e+02 </wgt>
<wgt id='2228'> +2.8811410e+02 </wgt>
<wgt id='2229'> +2.9129089e+02 </wgt>
<wgt id='2230'> +2.7372605e+02 </wgt>
<wgt id='2231'> +3.0891896e+02 </wgt>
<wgt id='2232'> +2.7553765e+02 </wgt>
<wgt id='2233'> +2.7924602e+02 </wgt>
<wgt id='2234'> +2.6423346e+02 </wgt>
<wgt id='2235'> +2.9521391e+02 </wgt>
<wgt id='2236'> +2.4937981e+02 </wgt>
<wgt id='2237'> +3.0296690e+02 </wgt>
<wgt id='2238'> +2.9930199e+02 </wgt>
<wgt id='2239'> +2.3363325e+02 </wgt>
<wgt id='2240'> +3.0566562e+02 </wgt>
<wgt id='2241'> +2.7366456e+02 </wgt>
<wgt id='2242'> +2.6183324e+02 </wgt>
<wgt id='2243'> +3.1016764e+02 </wgt>
<wgt id='2244'> +3.0517377e+02 </wgt>
<wgt id='2245'> +2.6393244e+02 </wgt>
<wgt id='2246'> +2.5833616e+02 </wgt>
<wgt id='2247'> +2.8254230e+02 </wgt>
<wgt id='2248'> +2.9284356e+02 </wgt>
<wgt id='2249'> +2.8077993e+02 </wgt>
<wgt id='2250'> +2.7793471e+02 </wgt>
<wgt id='2251'> +2.8755811e+02 </wgt>
<wgt id='2252'> +2.5007281e+02 </wgt>
<wgt id='2253'> +2.9607825e+02 </wgt>
<wgt id='2254'> +2.7606150e+02 </wgt>
<wgt id='2255'> +2.9029090e+02 </wgt>
<wgt id='2256'> +2.7432566e+02 </wgt>
<wgt id='2257'> +2.5186566e+02 </wgt>
<wgt id='2258'> +2.8742077e+02 </wgt>
<wgt id='2259'> +2.8342634e+02 </wgt>
<wgt id='2260'> +2.4922968e+02 </wgt>
<wgt id='2261'> +2.8366802e+02 </wgt>
<wgt id='2262'> +2.5373914e+02 </wgt>
<wgt id='2263'> +2.7439436e+02 </wgt>
<wgt id='2264'> +2.7328442e+02 </wgt>
<wgt id='2265'> +2.7352388e+02 </wgt>
<wgt id='2266'> +2.8385911e+02 </wgt>
<wgt id='2267'> +2.8920511e+02 </wgt>
<wgt id='2268'> +2.7650403e+02 </wgt>
<wgt id='2269'> +2.9510131e+02 </wgt>
<wgt id='2270'> +2.7895743e+02 </wgt>
<wgt id='2271'> +2.7166500e+02 </wgt>
<wgt id='2272'> +2.2454546e+02 </wgt>
<wgt id='2273'> +2.7962595e+02 </wgt>
<wgt id='2274'> +2.8641632e+02 </wgt>
<wgt id='2275'> +2.7339528e+02 </wgt>
<wgt id='2276'> +2.7872605e+02 </wgt>
<wgt id='2277'> +2.3162935e+02 </wgt>
<wgt id='2278'> +2.7126478e+02 </wgt>
<wgt id='2279'> +2.8530582e+02 </wgt>
<wgt id='2280'> +2.7559546e+02 </wgt>
<wgt id='2281'> +2.8865965e+02 </wgt>
<wgt id='2282'> +4.4120106e+02 </wgt>
<wgt id='2283'> +3.3608366e+02 </wgt>
<wgt id='2284'> +5.3772721e+02 </wgt>
</rwgt>
</event>
<event npLO=" -1 " npNLO=" 0 ">
 3      0 +2.8781417e+02 2.96924380e+01 7.54677110e-03 1.15857800e-01
       21 -1    0    0  502  501 +0.0000000000e+00 +0.0000000000e+00 +1.9075530000e+02 1.9075530000e+02 0.0000000000e+00 0.0000e+00 9.0000e+00
       21 -1    0    0  501  502 +0.0000000000e+00 +0.0000000000e+00 -1.3105796000e+01 1.3105796000e+01 0.0000000000e+00 0.0000e+00 9.0000e+00
       25  1    1    2    0    0 +0.0000000000e+00 +0.0000000000e+00 +1.7764951000e+02 2.0386110000e+02 1.0000000000e+02 0.0000e+00 9.0000e+00
#aMCatNLO 1  0  0  2  1 0.29738700E+02 0.00000000E+00 -9  4  0 0.00000000E+00 0.00000000E+00 0.00000000E+00 0.00000000E+00 0.00000000E+00
<rwgt>
<wgt id='1001'> +2.8781417e+02 </wgt>
<wgt id='1002'> +2.5157474e+02 </wgt>
<wgt id='1003'> +3.3020369e+02 </wgt>
<wgt id='1004'> +3.6799865e+02 </wgt>
<wgt id='1005'> +3.1363970e+02 </wgt>
<wgt id='1006'> +4.3717817e+02 </wgt>
<wgt id='1007'> +2.1516506e+02 </wgt>
<wgt id='1008'> +1.9436845e+02 </wgt>
<wgt id='1009'> +2.3510040e+02 </wgt>
<wgt id='1010'> +2.8781417e+02 </wgt>
<wgt id='1011'> +2.8878904e+02 </wgt>
<wgt id='1012'> +2.8689495e+02 </wgt>
<wgt id='1013'> +2.8795903e+02 </wgt>
<wgt id='1014'> +2.8826435e+02 </wgt>
<wgt id='1015'> +2.8865386e+02 </wgt>
<wgt id='1016'> +2.8763709e+02 </wgt>
<wgt id='1017'> +2.8797288e+02 </wgt>
<wgt id='1018'> +2.8811944e+02 </wgt>
<wgt id='1019'> +2.8766730e+02 </wgt>
<wgt id='1020'> +2.8830003e+02 </wgt>
<wgt id='1021'> +2.8763563e+02 </wgt>
<wgt id='1022'> +2.8789573e+02 </wgt>
<wgt id='1023'> +2.8751926e+02 </wgt>
<wgt id='1024'> +2.8746367e+02 </wgt>
<wgt id='1025'> +2.8834777e+02 </wgt>
<wgt id='1026'> +2.8708218e+02 </wgt>
<wgt id='1027'> +2.8686239e+02 </wgt>
<wgt id='1028'> +2.8875643e+02 </wgt>
<wgt id='1029'> +2.8931887e+02 </wgt>
<wgt id='1030'> +2.8714884e+02 </wgt>
<wgt id='1031'> +2.8855286e+02 </wgt>
<wgt id='1032'> +2.8723139e+02 </wgt>
<wgt id='1033'> +2.8790291e+02 </wgt>
<wgt id='1034'> +2.8798880e+02 </wgt>
<wgt id='1035'> +2.8775321e+02 </wgt>
<wgt id='1036'> +2.8752086e+02 </wgt>
<wgt id='1037'> +2.8734790e+02 </wgt>
<wgt id='1038'> +2.8809016e+02 </wgt>
<wgt id='1039'> +2.8729592e+02 </wgt>
<wgt id='1040'> +2.8765075e+02 </wgt>
<wgt id='1041'> +2.8723670e+02 </wgt>
<wgt id='1042'> +2.8794553e+02 </wgt>
<wgt id='1043'> +2.8742939e+02 </wgt>
<wgt id='1044'> +2.8755293e+02 </wgt>
<wgt id='1045'> +2.8782946e+02 </wgt>
<wgt id='1046'> +2.8810467e+02 </wgt>
<wgt id='1047'> +2.8783263e+02 </wgt>
<wgt id='1048'> +2.8786835e+02 </wgt>
<wgt id='1049'> +2.8781433e+02 </wgt>
<wgt id='1050'> +2.8775401e+02 </wgt>
<wgt id='1051'> +2.8796693e+02 </wgt>
<wgt id='1052'> +2.8791756e+02 </wgt>
<wgt id='1053'> +2.8763969e+02 </wgt>
<wgt id='1054'> +2.8789213e+02 </wgt>
<wgt id='1055'> +2.8784613e+02 </wgt>
<wgt id='1056'> +2.8791665e+02 </wgt>
<wgt id='1057'> +2.8777186e+02 </wgt>
<wgt id='1058'> +2.8774399e+02 </wgt>
<wgt id='1059'> +2.8771527e+02 </wgt>
<wgt id='1060'> +2.8779272e+02 </wgt>
<wgt id='1061'> +2.8780005e+02 </wgt>
<wgt id='1062'> +2.8790095e+02 </wgt>
<wgt id='1063'> +2.8775988e+02 </wgt>
<wgt id='1064'> +2.8780678e+02 </wgt>
<wgt id='1065'> +2.8792836e+02 </wgt>
<wgt id='1066'> +2.8778770e+02 </wgt>
<wgt id='1067'> +2.8789913e+02 </wgt>
<wgt id='1068'> +2.8778715e+02 </wgt>
<wgt id='1069'> +2.8787588e+02 </wgt>
<wgt id='1070'> +2.8780980e+02 </wgt>
<wgt id='1071'> +2.8780707e+02 </wgt>
<wgt id='1072'> +2.8795992e+02 </wgt>
<wgt id='1073'> +2.8784993e+02 </wgt>
<wgt id='1074'> +2.8789260e+02 </wgt>
<wgt id='1075'> +2.8795953e+02 </wgt>
<wgt id='1076'> +2.8788922e+02 </wgt>
<wgt id='1077'> +2.8788313e+02 </wgt>
<wgt id='1078'> +2.8783986e+02 </wgt>
<wgt id='1079'> +2.8783461e+02 </wgt>
<wgt id='1080'> +2.8783281e+02 </wgt>
<wgt id='1081'> +2.8786684e+02 </wgt>
<wgt id='1082'> +2.8782637e+02 </wgt>
<wgt id='1083'> +2.8784426e+02 </wgt>
<wgt id='1084'> +2.8780866e+02 </wgt>
<wgt id='1085'> +2.8776397e+02 </wgt>
<wgt id='1086'> +2.8777687e+02 </wgt>
<wgt id='1087'> +2.8796598e+02 </wgt>
<wgt id='1088'> +2.8781171e+02 </wgt>
<wgt id='1089'> +2.8777633e+02 </wgt>
<wgt id='1090'> +2.8784024e+02 </wgt>
<wgt id='1091'> +2.8775391e+02 </wgt>
<wgt id='1092'> +2.8784310e+02 </wgt>
<wgt id='1093'> +2.8785579e+02 </wgt>
<wgt id='1094'> +2.8784570e+02 </wgt>
<wgt id='1095'> +2.8780414e+02 </wgt>
<wgt id='1096'> +2.8776882e+02 </wgt>
<wgt id='1097'> +2.8782733e+02 </wgt>
<wgt id='1098'> +2.8781384e+02 </wgt>
<wgt id='1099'> +2.8781698e+02 </wgt>
<wgt id='1100'> +2.8784302e+02 </wgt>
<wgt id='1101'> +2.8781967e+02 </wgt>
<wgt id='1102'> +2.8784356e+02 </wgt>
<wgt id='1103'> +2.8778002e+02 </wgt>
<wgt id='1104'> +2.8776996e+02 </wgt>
<wgt id='1105'> +2.8782092e+02 </wgt>
<wgt id='1106'> +2.8779072e+02 </wgt>
<wgt id='1107'> +2.8781641e+02 </wgt>
<wgt id='1108'> +2.8781940e+02 </wgt>
<wgt id='1109'> +2.8784165e+02 </wgt>
<wgt id='1110'> +2.8781415e+02 </wgt>
<wgt id='1111'> +2.8059774e+02 </wgt>
<wgt id='1112'> +2.9397226e+02 </wgt>
<wgt id='1113'> +2.8781415e+02 </wgt>
<wgt id='1114'> +2.8593622e+02 </wgt>
<wgt id='1115'> +2.8826896e+02 </wgt>
<wgt id='1116'> +2.8975410e+02 </wgt>
<wgt id='1117'> +2.8733735e+02 </wgt>
<wgt id='1118'> +2.8530048e+02 </wgt>
<wgt id='1119'> +2.8318229e+02 </wgt>
<wgt id='1120'> +2.8716256e+02 </wgt>
<wgt id='1121'> +2.8762632e+02 </wgt>
<wgt id='1122'> +2.9140330e+02 </wgt>
<wgt id='1123'> +2.8931337e+02 </wgt>
<wgt id='1124'> +2.9147576e+02 </wgt>
<wgt id='1125'> +2.8611606e+02 </wgt>
<wgt id='1126'> +2.8897727e+02 </wgt>
<wgt id='1127'> +2.8439180e+02 </wgt>
<wgt id='1128'> +2.9183296e+02 </wgt>
<wgt id='1129'> +2.9317594e+02 </wgt>
<wgt id='1130'> +2.8959021e+02 </wgt>
<wgt id='1131'> +2.8732967e+02 </wgt>
<wgt id='1132'> +2.8549190e+02 </wgt>
<wgt id='1133'> +2.8799359e+02 </wgt>
<wgt id='1134'> +2.8177760e+02 </wgt>
<wgt id='1135'> +2.8814975e+02 </wgt>
<wgt id='1136'> +2.8660121e+02 </wgt>
<wgt id='1137'> +2.8795527e+02 </wgt>
<wgt id='1138'> +2.8542080e+02 </wgt>
<wgt id='1139'> +2.9016063e+02 </wgt>
<wgt id='1140'> +2.8715687e+02 </wgt>
<wgt id='1141'> +2.8425035e+02 </wgt>
<wgt id='1142'> +2.8714841e+02 </wgt>
<wgt id='1143'> +2.9141708e+02 </wgt>
<wgt id='1144'> +2.8877178e+02 </wgt>
<wgt id='1145'> +2.8925818e+02 </wgt>
<wgt id='1146'> +2.8275186e+02 </wgt>
<wgt id='1147'> +2.8481986e+02 </wgt>
<wgt id='1148'> +2.8915640e+02 </wgt>
<wgt id='1149'> +2.8590990e+02 </wgt>
<wgt id='1150'> +2.9303816e+02 </wgt>
<wgt id='1151'> +2.8322101e+02 </wgt>
<wgt id='1152'> +2.8797106e+02 </wgt>
<wgt id='1153'> +2.8754263e+02 </wgt>
<wgt id='1154'> +2.8620126e+02 </wgt>
<wgt id='1155'> +2.8568331e+02 </wgt>
<wgt id='1156'> +2.8748623e+02 </wgt>
<wgt id='1157'> +2.8049449e+02 </wgt>
<wgt id='1158'> +2.8701234e+02 </wgt>
<wgt id='1159'> +2.9023654e+02 </wgt>
<wgt id='1160'> +2.8220351e+02 </wgt>
<wgt id='1161'> +2.8968113e+02 </wgt>
<wgt id='1162'> +2.9016584e+02 </wgt>
<wgt id='1163'> +2.9061510e+02 </wgt>
<wgt id='1164'> +2.8376706e+02 </wgt>
<wgt id='1165'> +2.8664998e+02 </wgt>
<wgt id='1166'> +2.8572674e+02 </wgt>
<wgt id='1167'> +2.8966269e+02 </wgt>
<wgt id='1168'> +2.8574594e+02 </wgt>
<wgt id='1169'> +2.8703409e+02 </wgt>
<wgt id='1170'> +2.9404095e+02 </wgt>
<wgt id='1171'> +2.8485349e+02 </wgt>
<wgt id='1172'> +2.8855540e+02 </wgt>
<wgt id='1173'> +2.8959575e+02 </wgt>
<wgt id='1174'> +2.8959746e+02 </wgt>
<wgt id='1175'> +2.8934814e+02 </wgt>
<wgt id='1176'> +2.7959088e+02 </wgt>
<wgt id='1177'> +2.8688696e+02 </wgt>
<wgt id='1178'> +2.8639673e+02 </wgt>
<wgt id='1179'> +2.8747457e+02 </wgt>
<wgt id='1180'> +2.8260786e+02 </wgt>
<wgt id='1181'> +2.9119711e+02 </wgt>
<wgt id='1182'> +2.8492554e+02 </wgt>
<wgt id='1183'> +2.8512234e+02 </wgt>
<wgt id='1184'> +2.9042086e+02 </wgt>
<wgt id='1185'> +2.9210654e+02 </wgt>
<wgt id='1186'> +2.9127273e+02 </wgt>
<wgt id='1187'> +2.9212824e+02 </wgt>
<wgt id='1188'> +2.8989972e+02 </wgt>
<wgt id='1189'> +2.8722263e+02 </wgt>
<wgt id='1190'> +2.8791847e+02 </wgt>
<wgt id='1191'> +2.8795825e+02 </wgt>
<wgt id='1192'> +2.8540215e+02 </wgt>
<wgt id='1193'> +2.8296980e+02 </wgt>
<wgt id='1194'> +2.8491034e+02 </wgt>
<wgt id='1195'> +2.9317594e+02 </wgt>
<wgt id='1196'> +2.8565549e+02 </wgt>
<wgt id='1197'> +2.9154301e+02 </wgt>
<wgt id='1198'> +2.9767777e+02 </wgt>
<wgt id='1199'> +2.8311023e+02 </wgt>
<wgt id='1200'> +2.9023487e+02 </wgt>
<wgt id='1201'> +2.8816388e+02 </wgt>
<wgt id='1202'> +2.9263885e+02 </wgt>
<wgt id='1203'> +2.8332626e+02 </wgt>
<wgt id='1204'> +2.8215282e+02 </wgt>
<wgt id='1205'> +2.8896992e+02 </wgt>
<wgt id='1206'> +2.9043345e+02 </wgt>
<wgt id='1207'> +2.8729114e+02 </wgt>
<wgt id='1208'> +2.9159311e+02 </wgt>
<wgt id='1209'> +2.8485184e+02 </wgt>
<wgt id='1210'> +2.8535381e+02 </wgt>
<wgt id='1211'> +2.9225344e+02 </wgt>
<wgt id='1212'> +2.9480396e+02 </wgt>
<wgt id='1213'> +2.9280740e+02 </wgt>
<wgt id='1214'> +2.8750838e+02 </wgt>
<wgt id='1215'> +2.8703160e+02 </wgt>
<wgt id='1216'> +2.8812267e+02 </wgt>
<wgt id='1217'> +2.8772089e+02 </wgt>
<wgt id='1218'> +2.8751611e+02 </wgt>
<wgt id='1219'> +2.8757525e+02 </wgt>
<wgt id='1220'> +2.8742969e+02 </wgt>
<wgt id='1221'> +2.8759983e+02 </wgt>
<wgt id='1222'> +2.8825315e+02 </wgt>
<wgt id='1223'> +2.8712084e+02 </wgt>
<wgt id='1224'> +2.8695621e+02 </wgt>
<wgt id='1225'> +2.8833704e+02 </wgt>
<wgt id='1226'> +2.8842301e+02 </wgt>
<wgt id='1227'> +2.8816897e+02 </wgt>
<wgt id='1228'> +2.8821236e+02 </wgt>
<wgt id='1229'> +2.8812401e+02 </wgt>
<wgt id='1230'> +2.8779643e+02 </wgt>
<wgt id='1231'> +2.8742419e+02 </wgt>
<wgt id='1232'> +2.8810076e+02 </wgt>
<wgt id='1233'> +2.8744094e+02 </wgt>
<wgt id='1234'> +2.8877269e+02 </wgt>
<wgt id='1235'> +2.8688440e+02 </wgt>
<wgt id='1236'> +2.8850356e+02 </wgt>
<wgt id='1237'> +2.8812369e+02 </wgt>
<wgt id='1238'> +2.8754614e+02 </wgt>
<wgt id='1239'> +2.8825468e+02 </wgt>
<wgt id='1240'> +2.8798034e+02 </wgt>
<wgt id='1241'> +2.8729960e+02 </wgt>
<wgt id='1242'> +2.8732793e+02 </wgt>
<wgt id='1243'> +2.8775012e+02 </wgt>
<wgt id='1244'> +2.8767909e+02 </wgt>
<wgt id='1245'> +2.8761677e+02 </wgt>
<wgt id='1246'> +2.8752958e+02 </wgt>
<wgt id='1247'> +2.8757076e+02 </wgt>
<wgt id='1248'> +2.8765324e+02 </wgt>
<wgt id='1249'> +2.8748012e+02 </wgt>
<wgt id='1250'> +2.8752606e+02 </wgt>
<wgt id='1251'> +2.8757653e+02 </wgt>
<wgt id='1252'> +2.8755434e+02 </wgt>
<wgt id='1253'> +2.8741138e+02 </wgt>
<wgt id='1254'> +2.8753406e+02 </wgt>
<wgt id='1255'> +2.8745493e+02 </wgt>
<wgt id='1256'> +2.8731476e+02 </wgt>
<wgt id='1257'> +2.8763241e+02 </wgt>
<wgt id='1258'> +2.8762006e+02 </wgt>
<wgt id='1259'> +2.8749371e+02 </wgt>
<wgt id='1260'> +2.8763390e+02 </wgt>
<wgt id='1261'> +2.8761409e+02 </wgt>
<wgt id='1262'> +2.8751445e+02 </wgt>
<wgt id='1263'> +2.8748816e+02 </wgt>
<wgt id='1264'> +2.8764275e+02 </wgt>
<wgt id='1265'> +2.8753680e+02 </wgt>
<wgt id='1266'> +2.8740989e+02 </wgt>
<wgt id='1267'> +2.8749477e+02 </wgt>
<wgt id='1268'> +2.8757952e+02 </wgt>
<wgt id='1269'> +2.8750202e+02 </wgt>
<wgt id='1270'> +2.8751955e+02 </wgt>
<wgt id='1271'> +2.8748625e+02 </wgt>
<wgt id='1272'> +2.8752326e+02 </wgt>
<wgt id='1273'> +2.8746329e+02 </wgt>
<wgt id='1274'> +2.8750467e+02 </wgt>
<wgt id='1275'> +2.8748569e+02 </wgt>
<wgt id='1276'> +2.8757444e+02 </wgt>
<wgt id='1277'> +2.8748253e+02 </wgt>
<wgt id='1278'> +2.8747364e+02 </wgt>
<wgt id='1279'> +2.8756856e+02 </wgt>
<wgt id='1280'> +2.8749950e+02 </wgt>
<wgt id='1281'> +2.8748791e+02 </wgt>
<wgt id='1282'> +2.8754680e+02 </wgt>
<wgt id='1283'> +2.8743410e+02 </wgt>
<wgt id='1284'> +2.8742319e+02 </wgt>
<wgt id='1285'> +2.8742470e+02 </wgt>
<wgt id='1286'> +2.8749672e+02 </wgt>
<wgt id='1287'> +2.8753402e+02 </wgt>
<wgt id='1288'> +2.8744260e+02 </wgt>
<wgt id='1289'> +2.8752480e+02 </wgt>
<wgt id='1290'> +2.8750082e+02 </wgt>
<wgt id='1291'> +2.8748314e+02 </wgt>
<wgt id='1292'> +2.8751224e+02 </wgt>
<wgt id='1293'> +2.8753098e+02 </wgt>
<wgt id='1294'> +2.8753052e+02 </wgt>
<wgt id='1295'> +2.8755241e+02 </wgt>
<wgt id='1296'> +2.8750280e+02 </wgt>
<wgt id='1297'> +2.8751616e+02 </wgt>
<wgt id='1298'> +2.8752165e+02 </wgt>
<wgt id='1299'> +2.8750276e+02 </wgt>
<wgt id='1300'> +2.8749878e+02 </wgt>
<wgt id='1301'> +2.8750118e+02 </wgt>
<wgt id='1302'> +2.8750995e+02 </wgt>
<wgt id='1303'> +2.8750158e+02 </wgt>
<wgt id='1304'> +2.8751429e+02 </wgt>
<wgt id='1305'> +2.8751745e+02 </wgt>
<wgt id='1306'> +2.8753820e+02 </wgt>
<wgt id='1307'> +2.8749356e+02 </wgt>
<wgt id='1308'> +2.8753831e+02 </wgt>
<wgt id='1309'> +2.8751010e+02 </wgt>
<wgt id='1310'> +2.8749274e+02 </wgt>
<wgt id='1311'> +2.8752392e+02 </wgt>
<wgt id='1312'> +2.8750765e+02 </wgt>
<wgt id='1313'> +2.8750165e+02 </wgt>
<wgt id='1314'> +2.8750409e+02 </wgt>
<wgt id='1315'> +2.8059774e+02 </wgt>
<wgt id='1316'> +2.9397226e+02 </wgt>
<wgt id='1317'> +2.5481156e+02 </wgt>
<wgt id='1318'> +2.6091353e+02 </wgt>
<wgt id='1319'> +2.6715144e+02 </wgt>
<wgt id='1320'> +2.7420217e+02 </wgt>
<wgt id='1321'> +2.8434644e+02 </wgt>
<wgt id='1322'> +2.9119851e+02 </wgt>
<wgt id='1323'> +3.0002155e+02 </wgt>
<wgt id='1324'> +3.0649257e+02 </wgt>
<wgt id='1325'> +2.9318326e+02 </wgt>
<wgt id='1326'> +2.9385273e+02 </wgt>
<wgt id='1327'> +2.9246887e+02 </wgt>
<wgt id='1328'> +2.9350971e+02 </wgt>
<wgt id='1329'> +2.9344977e+02 </wgt>
<wgt id='1330'> +2.9341367e+02 </wgt>
<wgt id='1331'> +2.9321501e+02 </wgt>
<wgt id='1332'> +2.9263345e+02 </wgt>
<wgt id='1333'> +2.9282494e+02 </wgt>
<wgt id='1334'> +2.9179064e+02 </wgt>
<wgt id='1335'> +2.9252663e+02 </wgt>
<wgt id='1336'> +2.9375387e+02 </wgt>
<wgt id='1337'> +2.9424094e+02 </wgt>
<wgt id='1338'> +2.9225266e+02 </wgt>
<wgt id='1339'> +2.9354324e+02 </wgt>
<wgt id='1340'> +2.9313682e+02 </wgt>
<wgt id='1341'> +2.9346096e+02 </wgt>
<wgt id='1342'> +2.9363780e+02 </wgt>
<wgt id='1343'> +2.9380724e+02 </wgt>
<wgt id='1344'> +2.9234524e+02 </wgt>
<wgt id='1345'> +2.9223887e+02 </wgt>
<wgt id='1346'> +2.9206404e+02 </wgt>
<wgt id='1347'> +2.9309150e+02 </wgt>
<wgt id='1348'> +2.9251437e+02 </wgt>
<wgt id='1349'> +2.9241170e+02 </wgt>
<wgt id='1350'> +2.9313205e+02 </wgt>
<wgt id='1351'> +2.9362266e+02 </wgt>
<wgt id='1352'> +2.9327103e+02 </wgt>
<wgt id='1353'> +2.9257558e+02 </wgt>
<wgt id='1354'> +2.9312876e+02 </wgt>
<wgt id='1355'> +2.9344580e+02 </wgt>
<wgt id='1356'> +2.9328585e+02 </wgt>
<wgt id='1357'> +2.9321546e+02 </wgt>
<wgt id='1358'> +2.9321106e+02 </wgt>
<wgt id='1359'> +2.9322919e+02 </wgt>
<wgt id='1360'> +2.9338531e+02 </wgt>
<wgt id='1361'> +2.9326912e+02 </wgt>
<wgt id='1362'> +2.9317621e+02 </wgt>
<wgt id='1363'> +2.9317597e+02 </wgt>
<wgt id='1364'> +2.9327016e+02 </wgt>
<wgt id='1365'> +2.9310359e+02 </wgt>
<wgt id='1366'> +2.9316706e+02 </wgt>
<wgt id='1367'> +2.9304720e+02 </wgt>
<wgt id='1368'> +2.9303087e+02 </wgt>
<wgt id='1369'> +2.9325247e+02 </wgt>
<wgt id='1370'> +2.9332799e+02 </wgt>
<wgt id='1371'> +2.9326923e+02 </wgt>
<wgt id='1372'> +2.9314032e+02 </wgt>
<wgt id='1373'> +2.9327227e+02 </wgt>
<wgt id='1374'> +2.9313878e+02 </wgt>
<wgt id='1375'> +2.9314347e+02 </wgt>
<wgt id='1376'> +2.9336701e+02 </wgt>
<wgt id='1377'> +2.9314780e+02 </wgt>
<wgt id='1378'> +2.9315183e+02 </wgt>
<wgt id='1379'> +2.9314254e+02 </wgt>
<wgt id='1380'> +2.9318747e+02 </wgt>
<wgt id='1381'> +2.9322418e+02 </wgt>
<wgt id='1382'> +2.9312776e+02 </wgt>
<wgt id='1383'> +2.9313016e+02 </wgt>
<wgt id='1384'> +2.9319838e+02 </wgt>
<wgt id='1385'> +2.9320747e+02 </wgt>
<wgt id='1386'> +2.9327376e+02 </wgt>
<wgt id='1387'> +2.9321089e+02 </wgt>
<wgt id='1388'> +2.9322231e+02 </wgt>
<wgt id='1389'> +2.9317853e+02 </wgt>
<wgt id='1390'> +2.9322111e+02 </wgt>
<wgt id='1391'> +2.9322372e+02 </wgt>
<wgt id='1392'> +2.9310908e+02 </wgt>
<wgt id='1393'> +2.9318310e+02 </wgt>
<wgt id='1394'> +2.9311539e+02 </wgt>
<wgt id='1395'> +2.9310523e+02 </wgt>
<wgt id='1396'> +2.9318305e+02 </wgt>
<wgt id='1397'> +2.9324166e+02 </wgt>
<wgt id='1398'> +2.9318849e+02 </wgt>
<wgt id='1399'> +2.9321500e+02 </wgt>
<wgt id='1400'> +2.9321833e+02 </wgt>
<wgt id='1401'> +2.9318755e+02 </wgt>
<wgt id='1402'> +2.9317710e+02 </wgt>
<wgt id='1403'> +2.9323021e+02 </wgt>
<wgt id='1404'> +2.9318369e+02 </wgt>
<wgt id='1405'> +2.9317450e+02 </wgt>
<wgt id='1406'> +2.9318609e+02 </wgt>
<wgt id='1407'> +2.9317289e+02 </wgt>
<wgt id='1408'> +2.9315721e+02 </wgt>
<wgt id='1409'> +2.9314852e+02 </wgt>
<wgt id='1410'> +2.9316926e+02 </wgt>
<wgt id='1411'> +2.9315107e+02 </wgt>
<wgt id='1412'> +2.9316650e+02 </wgt>
<wgt id='1413'> +2.9318527e+02 </wgt>
<wgt id='1414'> +2.9318247e+02 </wgt>
<wgt id='1415'> +2.9318768e+02 </wgt>
<wgt id='1416'> +2.9320178e+02 </wgt>
<wgt id='1417'> +2.9319696e+02 </wgt>
<wgt id='1418'> +2.9317416e+02 </wgt>
<wgt id='1419'> +2.9320386e+02 </wgt>
<wgt id='1420'> +2.9319538e+02 </wgt>
<wgt id='1421'> +2.9318886e+02 </wgt>
<wgt id='1422'> +2.9316805e+02 </wgt>
<wgt id='1423'> +2.9320144e+02 </wgt>
<wgt id='1424'> +2.9319627e+02 </wgt>
<wgt id='1425'> +2.9318913e+02 </wgt>
<wgt id='1426'> +2.8610616e+02 </wgt>
<wgt id='1427'> +3.0123632e+02 </wgt>
<wgt id='1428'> +2.7853645e+02 </wgt>
<wgt id='1429'> +2.7775810e+02 </wgt>
<wgt id='1430'> +2.7768109e+02 </wgt>
<wgt id='1431'> +2.7740674e+02 </wgt>
<wgt id='1432'> +2.7859547e+02 </wgt>
<wgt id='1433'> +2.7575599e+02 </wgt>
<wgt id='1434'> +2.8062064e+02 </wgt>
<wgt id='1435'> +2.7894631e+02 </wgt>
<wgt id='1436'> +2.7689677e+02 </wgt>
<wgt id='1437'> +2.8096677e+02 </wgt>
<wgt id='1438'> +2.7737958e+02 </wgt>
<wgt id='1439'> +2.7828003e+02 </wgt>
<wgt id='1440'> +2.7801926e+02 </wgt>
<wgt id='1441'> +2.7323881e+02 </wgt>
<wgt id='1442'> +2.7849766e+02 </wgt>
<wgt id='1443'> +2.8035185e+02 </wgt>
<wgt id='1444'> +2.7278518e+02 </wgt>
<wgt id='1445'> +2.7946957e+02 </wgt>
<wgt id='1446'> +2.7763385e+02 </wgt>
<wgt id='1447'> +2.7662481e+02 </wgt>
<wgt id='1448'> +2.8044510e+02 </wgt>
<wgt id='1449'> +2.7945002e+02 </wgt>
<wgt id='1450'> +2.7794975e+02 </wgt>
<wgt id='1451'> +2.7756760e+02 </wgt>
<wgt id='1452'> +2.7952931e+02 </wgt>
<wgt id='1453'> +2.7794594e+02 </wgt>
<wgt id='1454'> +2.7902403e+02 </wgt>
<wgt id='1455'> +2.8130305e+02 </wgt>
<wgt id='1456'> +2.7385557e+02 </wgt>
<wgt id='1457'> +2.7344506e+02 </wgt>
<wgt id='1458'> +2.8157693e+02 </wgt>
<wgt id='1459'> +2.7564362e+02 </wgt>
<wgt id='1460'> +2.8267922e+02 </wgt>
<wgt id='1461'> +2.7649079e+02 </wgt>
<wgt id='1462'> +2.8028901e+02 </wgt>
<wgt id='1463'> +2.7381898e+02 </wgt>
<wgt id='1464'> +2.8255948e+02 </wgt>
<wgt id='1465'> +2.7837909e+02 </wgt>
<wgt id='1466'> +2.7864148e+02 </wgt>
<wgt id='1467'> +2.8273219e+02 </wgt>
<wgt id='1468'> +2.7644225e+02 </wgt>
<wgt id='1469'> +2.7627601e+02 </wgt>
<wgt id='1470'> +2.7871677e+02 </wgt>
<wgt id='1471'> +2.8032757e+02 </wgt>
<wgt id='1472'> +2.7200375e+02 </wgt>
<wgt id='1473'> +2.8373773e+02 </wgt>
<wgt id='1474'> +2.7877012e+02 </wgt>
<wgt id='1475'> +2.7872216e+02 </wgt>
<wgt id='1476'> +2.8180767e+02 </wgt>
<wgt id='1477'> +2.7856699e+02 </wgt>
<wgt id='1478'> +2.7933533e+02 </wgt>
<wgt id='1479'> +2.7922439e+02 </wgt>
<wgt id='1480'> +2.7840754e+02 </wgt>
<wgt id='1481'> +2.7543076e+02 </wgt>
<wgt id='1482'> +2.8035817e+02 </wgt>
<wgt id='1483'> +2.7688626e+02 </wgt>
<wgt id='1484'> +2.8032371e+02 </wgt>
<wgt id='1485'> +2.7121531e+02 </wgt>
<wgt id='1486'> +2.8532704e+02 </wgt>
<wgt id='1487'> +2.8782137e+02 </wgt>
<wgt id='1488'> +2.8809148e+02 </wgt>
<wgt id='1489'> +2.8866932e+02 </wgt>
<wgt id='1490'> +2.9094412e+02 </wgt>
<wgt id='1491'> +2.8760752e+02 </wgt>
<wgt id='1492'> +2.8907961e+02 </wgt>
<wgt id='1493'> +2.8684066e+02 </wgt>
<wgt id='1494'> +2.8909040e+02 </wgt>
<wgt id='1495'> +2.8844417e+02 </wgt>
<wgt id='1496'> +2.8266115e+02 </wgt>
<wgt id='1497'> +2.9096064e+02 </wgt>
<wgt id='1498'> +2.9076903e+02 </wgt>
<wgt id='1499'> +2.8633803e+02 </wgt>
<wgt id='1500'> +2.7763329e+02 </wgt>
<wgt id='1501'> +2.9352079e+02 </wgt>
<wgt id='1502'> +2.9025764e+02 </wgt>
<wgt id='1503'> +2.8628939e+02 </wgt>
<wgt id='1504'> +2.8508861e+02 </wgt>
<wgt id='1505'> +2.9107039e+02 </wgt>
<wgt id='1506'> +2.9072339e+02 </wgt>
<wgt id='1507'> +2.8449638e+02 </wgt>
<wgt id='1508'> +2.8806624e+02 </wgt>
<wgt id='1509'> +2.8714666e+02 </wgt>
<wgt id='1510'> +2.8679393e+02 </wgt>
<wgt id='1511'> +2.8866020e+02 </wgt>
<wgt id='1512'> +2.8370694e+02 </wgt>
<wgt id='1513'> +2.9166006e+02 </wgt>
<wgt id='1514'> +2.8688537e+02 </wgt>
<wgt id='1515'> +2.8905684e+02 </wgt>
<wgt id='1516'> +2.8586301e+02 </wgt>
<wgt id='1517'> +2.8849249e+02 </wgt>
<wgt id='1518'> +2.8808305e+02 </wgt>
<wgt id='1519'> +2.8747727e+02 </wgt>
<wgt id='1520'> +2.8792205e+02 </wgt>
<wgt id='1521'> +2.8759797e+02 </wgt>
<wgt id='1522'> +2.9211159e+02 </wgt>
<wgt id='1523'> +2.8370492e+02 </wgt>
<wgt id='1524'> +2.8965139e+02 </wgt>
<wgt id='1525'> +2.8455078e+02 </wgt>
<wgt id='1526'> +2.8729961e+02 </wgt>
<wgt id='1527'> +2.8766039e+02 </wgt>
<wgt id='1528'> +2.8993995e+02 </wgt>
<wgt id='1529'> +2.8585849e+02 </wgt>
<wgt id='1530'> +2.8915167e+02 </wgt>
<wgt id='1531'> +2.8613009e+02 </wgt>
<wgt id='1532'> +2.8410525e+02 </wgt>
<wgt id='1533'> +2.8702141e+02 </wgt>
<wgt id='1534'> +2.8602364e+02 </wgt>
<wgt id='1535'> +2.8884379e+02 </wgt>
<wgt id='1536'> +2.8741748e+02 </wgt>
<wgt id='1537'> +2.8552172e+02 </wgt>
<wgt id='1538'> +2.8701429e+02 </wgt>
<wgt id='1539'> +2.8729569e+02 </wgt>
<wgt id='1540'> +2.8052008e+02 </wgt>
<wgt id='1541'> +2.8694860e+02 </wgt>
<wgt id='1542'> +2.8627427e+02 </wgt>
<wgt id='1543'> +2.8955528e+02 </wgt>
<wgt id='1544'> +2.7929219e+02 </wgt>
<wgt id='1545'> +2.9595773e+02 </wgt>
<wgt id='1546'> +3.0939637e+02 </wgt>
<wgt id='1547'> +2.8998739e+02 </wgt>
<wgt id='1548'> +2.9029630e+02 </wgt>
<wgt id='1549'> +2.8963260e+02 </wgt>
<wgt id='1550'> +2.9013304e+02 </wgt>
<wgt id='1551'> +2.8987836e+02 </wgt>
<wgt id='1552'> +2.9009625e+02 </wgt>
<wgt id='1553'> +2.8987434e+02 </wgt>
<wgt id='1554'> +2.8902816e+02 </wgt>
<wgt id='1555'> +2.9102781e+02 </wgt>
<wgt id='1556'> +2.9132765e+02 </wgt>
<wgt id='1557'> +2.8865114e+02 </wgt>
<wgt id='1558'> +2.9072319e+02 </wgt>
<wgt id='1559'> +2.8836882e+02 </wgt>
<wgt id='1560'> +2.8959279e+02 </wgt>
<wgt id='1561'> +2.9065343e+02 </wgt>
<wgt id='1562'> +2.8906322e+02 </wgt>
<wgt id='1563'> +2.9048360e+02 </wgt>
<wgt id='1564'> +2.8817416e+02 </wgt>
<wgt id='1565'> +2.9211078e+02 </wgt>
<wgt id='1566'> +2.9027226e+02 </wgt>
<wgt id='1567'> +2.8972892e+02 </wgt>
<wgt id='1568'> +2.8934795e+02 </wgt>
<wgt id='1569'> +2.9082857e+02 </wgt>
<wgt id='1570'> +2.8790003e+02 </wgt>
<wgt id='1571'> +2.9147898e+02 </wgt>
<wgt id='1572'> +2.8858406e+02 </wgt>
<wgt id='1573'> +2.9024736e+02 </wgt>
<wgt id='1574'> +2.9094409e+02 </wgt>
<wgt id='1575'> +2.9001186e+02 </wgt>
<wgt id='1576'> +2.9145578e+02 </wgt>
<wgt id='1577'> +2.8825870e+02 </wgt>
<wgt id='1578'> +2.9047768e+02 </wgt>
<wgt id='1579'> +2.8925716e+02 </wgt>
<wgt id='1580'> +2.9042480e+02 </wgt>
<wgt id='1581'> +2.8951235e+02 </wgt>
<wgt id='1582'> +2.8989599e+02 </wgt>
<wgt id='1583'> +2.9085142e+02 </wgt>
<wgt id='1584'> +2.9055831e+02 </wgt>
<wgt id='1585'> +2.9001393e+02 </wgt>
<wgt id='1586'> +2.8965266e+02 </wgt>
<wgt id='1587'> +2.9032585e+02 </wgt>
<wgt id='1588'> +2.8968244e+02 </wgt>
<wgt id='1589'> +2.9037725e+02 </wgt>
<wgt id='1590'> +2.9421177e+02 </wgt>
<wgt id='1591'> +2.8833373e+02 </wgt>
<wgt id='1592'> +2.8974134e+02 </wgt>
<wgt id='1593'> +2.9058026e+02 </wgt>
<wgt id='1594'> +2.9053018e+02 </wgt>
<wgt id='1595'> +2.8789286e+02 </wgt>
<wgt id='1596'> +2.9027640e+02 </wgt>
<wgt id='1597'> +2.8975603e+02 </wgt>
<wgt id='1598'> +2.7851856e+02 </wgt>
<wgt id='1599'> +2.7871893e+02 </wgt>
<wgt id='1600'> +2.7823469e+02 </wgt>
<wgt id='1601'> +2.7917840e+02 </wgt>
<wgt id='1602'> +2.7788107e+02 </wgt>
<wgt id='1603'> +2.7892735e+02 </wgt>
<wgt id='1604'> +2.7835320e+02 </wgt>
<wgt id='1605'> +2.7725890e+02 </wgt>
<wgt id='1606'> +2.7977455e+02 </wgt>
<wgt id='1607'> +2.7915188e+02 </wgt>
<wgt id='1608'> +2.7788900e+02 </wgt>
<wgt id='1609'> +2.7516989e+02 </wgt>
<wgt id='1610'> +2.7996326e+02 </wgt>
<wgt id='1611'> +2.7852108e+02 </wgt>
<wgt id='1612'> +2.7851296e+02 </wgt>
<wgt id='1613'> +2.7748765e+02 </wgt>
<wgt id='1614'> +2.7960121e+02 </wgt>
<wgt id='1615'> +2.7652288e+02 </wgt>
<wgt id='1616'> +2.7957136e+02 </wgt>
<wgt id='1617'> +2.7804614e+02 </wgt>
<wgt id='1618'> +2.7917435e+02 </wgt>
<wgt id='1619'> +2.7871470e+02 </wgt>
<wgt id='1620'> +2.7836901e+02 </wgt>
<wgt id='1621'> +2.8016065e+02 </wgt>
<wgt id='1622'> +2.7666384e+02 </wgt>
<wgt id='1623'> +2.7938769e+02 </wgt>
<wgt id='1624'> +2.7636946e+02 </wgt>
<wgt id='1625'> +2.7976184e+02 </wgt>
<wgt id='1626'> +2.7823160e+02 </wgt>
<wgt id='1627'> +2.7750814e+02 </wgt>
<wgt id='1628'> +2.8080059e+02 </wgt>
<wgt id='1629'> +2.7859514e+02 </wgt>
<wgt id='1630'> +2.7846897e+02 </wgt>
<wgt id='1631'> +2.7822279e+02 </wgt>
<wgt id='1632'> +2.7931447e+02 </wgt>
<wgt id='1633'> +2.7921623e+02 </wgt>
<wgt id='1634'> +2.7844253e+02 </wgt>
<wgt id='1635'> +2.7863164e+02 </wgt>
<wgt id='1636'> +2.7871148e+02 </wgt>
<wgt id='1637'> +2.7819418e+02 </wgt>
<wgt id='1638'> +2.7872235e+02 </wgt>
<wgt id='1639'> +2.7802003e+02 </wgt>
<wgt id='1640'> +2.7906434e+02 </wgt>
<wgt id='1641'> +2.7872019e+02 </wgt>
<wgt id='1642'> +2.7731730e+02 </wgt>
<wgt id='1643'> +2.7670533e+02 </wgt>
<wgt id='1644'> +2.7953385e+02 </wgt>
<wgt id='1645'> +2.7896381e+02 </wgt>
<wgt id='1646'> +2.7828710e+02 </wgt>
<wgt id='1647'> +2.7843366e+02 </wgt>
<wgt id='1648'> +2.7855771e+02 </wgt>
<wgt id='1649'> +4.6456776e+02 </wgt>
<wgt id='1650'> +2.8413496e+02 </wgt>
<wgt id='1651'> +2.8405113e+02 </wgt>
<wgt id='1652'> +2.8421840e+02 </wgt>
<wgt id='1653'> +2.8416100e+02 </wgt>
<wgt id='1654'> +2.8412597e+02 </wgt>
<wgt id='1655'> +2.8339406e+02 </wgt>
<wgt id='1656'> +2.8389673e+02 </wgt>
<wgt id='1657'> +2.8362362e+02 </wgt>
<wgt id='1658'> +2.8461512e+02 </wgt>
<wgt id='1659'> +2.8515934e+02 </wgt>
<wgt id='1660'> +2.8420487e+02 </wgt>
<wgt id='1661'> +2.8395688e+02 </wgt>
<wgt id='1662'> +2.8393643e+02 </wgt>
<wgt id='1663'> +2.8414969e+02 </wgt>
<wgt id='1664'> +2.8386604e+02 </wgt>
<wgt id='1665'> +2.8387381e+02 </wgt>
<wgt id='1666'> +2.8423090e+02 </wgt>
<wgt id='1667'> +2.8422859e+02 </wgt>
<wgt id='1668'> +2.8406873e+02 </wgt>
<wgt id='1669'> +2.8449474e+02 </wgt>
<wgt id='1670'> +2.8336114e+02 </wgt>
<wgt id='1671'> +2.8414586e+02 </wgt>
<wgt id='1672'> +2.8272955e+02 </wgt>
<wgt id='1673'> +2.8436221e+02 </wgt>
<wgt id='1674'> +2.8465557e+02 </wgt>
<wgt id='1675'> +2.8494843e+02 </wgt>
<wgt id='1676'> +2.8466136e+02 </wgt>
<wgt id='1677'> +2.8364683e+02 </wgt>
<wgt id='1678'> +2.8442514e+02 </wgt>
<wgt id='1679'> +2.8208492e+02 </wgt>
<wgt id='1680'> +2.8833837e+02 </wgt>
<wgt id='1681'> +2.8757043e+02 </wgt>
<wgt id='1682'> +2.8908338e+02 </wgt>
<wgt id='1683'> +2.8978428e+02 </wgt>
<wgt id='1684'> +2.8803943e+02 </wgt>
<wgt id='1685'> +2.8827939e+02 </wgt>
<wgt id='1686'> +2.8741573e+02 </wgt>
<wgt id='1687'> +2.9041919e+02 </wgt>
<wgt id='1688'> +2.9134578e+02 </wgt>
<wgt id='1689'> +2.8741512e+02 </wgt>
<wgt id='1690'> +2.9167714e+02 </wgt>
<wgt id='1691'> +2.8850996e+02 </wgt>
<wgt id='1692'> +2.8588383e+02 </wgt>
<wgt id='1693'> +2.8858745e+02 </wgt>
<wgt id='1694'> +2.8638868e+02 </wgt>
<wgt id='1695'> +2.8867635e+02 </wgt>
<wgt id='1696'> +2.8915586e+02 </wgt>
<wgt id='1697'> +2.8737912e+02 </wgt>
<wgt id='1698'> +2.8756752e+02 </wgt>
<wgt id='1699'> +2.8780419e+02 </wgt>
<wgt id='1700'> +2.8862989e+02 </wgt>
<wgt id='1701'> +2.8662532e+02 </wgt>
<wgt id='1702'> +2.8853273e+02 </wgt>
<wgt id='1703'> +2.8779186e+02 </wgt>
<wgt id='1704'> +2.8818239e+02 </wgt>
<wgt id='1705'> +2.8784027e+02 </wgt>
<wgt id='1706'> +2.8790293e+02 </wgt>
<wgt id='1707'> +2.8849788e+02 </wgt>
<wgt id='1708'> +2.8747168e+02 </wgt>
<wgt id='1709'> +2.8808913e+02 </wgt>
<wgt id='1710'> +2.8817236e+02 </wgt>
<wgt id='1711'> +2.8822927e+02 </wgt>
<wgt id='1712'> +2.8838210e+02 </wgt>
<wgt id='1713'> +2.8772046e+02 </wgt>
<wgt id='1714'> +2.8835614e+02 </wgt>
<wgt id='1715'> +2.8903899e+02 </wgt>
<wgt id='1716'> +2.8809763e+02 </wgt>
<wgt id='1717'> +2.8844209e+02 </wgt>
<wgt id='1718'> +2.8807114e+02 </wgt>
<wgt id='1719'> +2.8834183e+02 </wgt>
<wgt id='1720'> +2.8831391e+02 </wgt>
<wgt id='1721'> +2.8845643e+02 </wgt>
<wgt id='1722'> +2.8854105e+02 </wgt>
<wgt id='1723'> +2.8811553e+02 </wgt>
<wgt id='1724'> +2.8854471e+02 </wgt>
<wgt id='1725'> +2.8857785e+02 </wgt>
<wgt id='1726'> +2.8867185e+02 </wgt>
<wgt id='1727'> +2.8811649e+02 </wgt>
<wgt id='1728'> +2.8801830e+02 </wgt>
<wgt id='1729'> +2.8831468e+02 </wgt>
<wgt id='1730'> +2.8841825e+02 </wgt>
<wgt id='1731'> +2.8804230e+02 </wgt>
<wgt id='1732'> +2.8843818e+02 </wgt>
<wgt id='1733'> +2.8824982e+02 </wgt>
<wgt id='1734'> +2.8824228e+02 </wgt>
<wgt id='1735'> +2.8834866e+02 </wgt>
<wgt id='1736'> +2.8833064e+02 </wgt>
<wgt id='1737'> +2.8823667e+02 </wgt>
<wgt id='1738'> +2.8865885e+02 </wgt>
<wgt id='1739'> +2.8815392e+02 </wgt>
<wgt id='1740'> +2.8801114e+02 </wgt>
<wgt id='1741'> +2.8824117e+02 </wgt>
<wgt id='1742'> +2.8808116e+02 </wgt>
<wgt id='1743'> +2.8836463e+02 </wgt>
<wgt id='1744'> +2.8826908e+02 </wgt>
<wgt id='1745'> +2.8830574e+02 </wgt>
<wgt id='1746'> +2.8823336e+02 </wgt>
<wgt id='1747'> +2.8829006e+02 </wgt>
<wgt id='1748'> +2.8843109e+02 </wgt>
<wgt id='1749'> +2.8840910e+02 </wgt>
<wgt id='1750'> +2.8835521e+02 </wgt>
<wgt id='1751'> +2.8822531e+02 </wgt>
<wgt id='1752'> +2.8824771e+02 </wgt>
<wgt id='1753'> +2.8820335e+02 </wgt>
<wgt id='1754'> +2.8846559e+02 </wgt>
<wgt id='1755'> +2.8831281e+02 </wgt>
<wgt id='1756'> +2.8828789e+02 </wgt>
<wgt id='1757'> +2.8836306e+02 </wgt>
<wgt id='1758'> +2.8838331e+02 </wgt>
<wgt id='1759'> +2.8851196e+02 </wgt>
<wgt id='1760'> +2.8834568e+02 </wgt>
<wgt id='1761'> +2.8837744e+02 </wgt>
<wgt id='1762'> +2.8811937e+02 </wgt>
<wgt id='1763'> +2.8847985e+02 </wgt>
<wgt id='1764'> +2.8838266e+02 </wgt>
<wgt id='1765'> +2.8839825e+02 </wgt>
<wgt id='1766'> +2.8844537e+02 </wgt>
<wgt id='1767'> +2.8826596e+02 </wgt>
<wgt id='1768'> +2.8823951e+02 </wgt>
<wgt id='1769'> +2.8835441e+02 </wgt>
<wgt id='1770'> +2.8829254e+02 </wgt>
<wgt id='1771'> +2.8832890e+02 </wgt>
<wgt id='1772'> +2.8833972e+02 </wgt>
<wgt id='1773'> +2.8820948e+02 </wgt>
<wgt id='1774'> +2.8840578e+02 </wgt>
<wgt id='1775'> +2.8838957e+02 </wgt>
<wgt id='1776'> +2.8825169e+02 </wgt>
<wgt id='1777'> +2.8837037e+02 </wgt>
<wgt id='1778'> +2.8841239e+02 </wgt>
<wgt id='1779'> +2.8838188e+02 </wgt>
<wgt id='1780'> +2.8833130e+02 </wgt>
<wgt id='1781'> +2.8245222e+02 </wgt>
<wgt id='1782'> +2.9364330e+02 </wgt>
<wgt id='1783'> +2.8005907e+02 </wgt>
<wgt id='1784'> +2.8034194e+02 </wgt>
<wgt id='1785'> +2.8074087e+02 </wgt>
<wgt id='1786'> +2.7888173e+02 </wgt>
<wgt id='1787'> +2.7980320e+02 </wgt>
<wgt id='1788'> +2.8015523e+02 </wgt>
<wgt id='1789'> +2.8034507e+02 </wgt>
<wgt id='1790'> +2.8168188e+02 </wgt>
<wgt id='1791'> +2.8095411e+02 </wgt>
<wgt id='1792'> +2.7973412e+02 </wgt>
<wgt id='1793'> +2.7948345e+02 </wgt>
<wgt id='1794'> +2.8264561e+02 </wgt>
<wgt id='1795'> +2.7754609e+02 </wgt>
<wgt id='1796'> +2.7689188e+02 </wgt>
<wgt id='1797'> +2.7791045e+02 </wgt>
<wgt id='1798'> +2.8011082e+02 </wgt>
<wgt id='1799'> +2.8223162e+02 </wgt>
<wgt id='1800'> +2.7982859e+02 </wgt>
<wgt id='1801'> +2.7950831e+02 </wgt>
<wgt id='1802'> +2.7950003e+02 </wgt>
<wgt id='1803'> +2.8130069e+02 </wgt>
<wgt id='1804'> +2.7956863e+02 </wgt>
<wgt id='1805'> +2.8045818e+02 </wgt>
<wgt id='1806'> +2.7956274e+02 </wgt>
<wgt id='1807'> +2.7970610e+02 </wgt>
<wgt id='1808'> +2.8043717e+02 </wgt>
<wgt id='1809'> +2.8010970e+02 </wgt>
<wgt id='1810'> +2.7964506e+02 </wgt>
<wgt id='1811'> +2.8030381e+02 </wgt>
<wgt id='1812'> +2.8040057e+02 </wgt>
<wgt id='1813'> +2.8013264e+02 </wgt>
<wgt id='1814'> +2.7994956e+02 </wgt>
<wgt id='1815'> +2.8033327e+02 </wgt>
<wgt id='1816'> +2.8043660e+02 </wgt>
<wgt id='1817'> +2.7991446e+02 </wgt>
<wgt id='1818'> +2.8053231e+02 </wgt>
<wgt id='1819'> +2.8006794e+02 </wgt>
<wgt id='1820'> +2.8033040e+02 </wgt>
<wgt id='1821'> +2.8010102e+02 </wgt>
<wgt id='1822'> +2.8011797e+02 </wgt>
<wgt id='1823'> +2.7976254e+02 </wgt>
<wgt id='1824'> +2.7991731e+02 </wgt>
<wgt id='1825'> +2.7999507e+02 </wgt>
<wgt id='1826'> +2.7986040e+02 </wgt>
<wgt id='1827'> +2.8015412e+02 </wgt>
<wgt id='1828'> +2.8001500e+02 </wgt>
<wgt id='1829'> +2.7969815e+02 </wgt>
<wgt id='1830'> +2.7992877e+02 </wgt>
<wgt id='1831'> +2.8013624e+02 </wgt>
<wgt id='1832'> +2.7989532e+02 </wgt>
<wgt id='1833'> +2.8011195e+02 </wgt>
<wgt id='1834'> +2.8020041e+02 </wgt>
<wgt id='1835'> +2.8011465e+02 </wgt>
<wgt id='1836'> +2.8011599e+02 </wgt>
<wgt id='1837'> +2.7992835e+02 </wgt>
<wgt id='1838'> +2.7999431e+02 </wgt>
<wgt id='1839'> +2.8031609e+02 </wgt>
<wgt id='1840'> +2.8003213e+02 </wgt>
<wgt id='1841'> +2.7986808e+02 </wgt>
<wgt id='1842'> +2.7994197e+02 </wgt>
<wgt id='1843'> +2.7996220e+02 </wgt>
<wgt id='1844'> +2.8009726e+02 </wgt>
<wgt id='1845'> +2.8009930e+02 </wgt>
<wgt id='1846'> +2.8019995e+02 </wgt>
<wgt id='1847'> +2.7997328e+02 </wgt>
<wgt id='1848'> +2.8006323e+02 </wgt>
<wgt id='1849'> +2.8009975e+02 </wgt>
<wgt id='1850'> +2.8015630e+02 </wgt>
<wgt id='1851'> +2.8014659e+02 </wgt>
<wgt id='1852'> +2.8021142e+02 </wgt>
<wgt id='1853'> +2.8002811e+02 </wgt>
<wgt id='1854'> +2.8022420e+02 </wgt>
<wgt id='1855'> +2.8023376e+02 </wgt>
<wgt id='1856'> +2.7998037e+02 </wgt>
<wgt id='1857'> +2.8009738e+02 </wgt>
<wgt id='1858'> +2.8003635e+02 </wgt>
<wgt id='1859'> +2.8003378e+02 </wgt>
<wgt id='1860'> +2.8009991e+02 </wgt>
<wgt id='1861'> +2.8009167e+02 </wgt>
<wgt id='1862'> +2.8001357e+02 </wgt>
<wgt id='1863'> +2.8023687e+02 </wgt>
<wgt id='1864'> +2.8002316e+02 </wgt>
<wgt id='1865'> +2.8012182e+02 </wgt>
<wgt id='1866'> +2.7996457e+02 </wgt>
<wgt id='1867'> +2.7998156e+02 </wgt>
<wgt id='1868'> +2.7999424e+02 </wgt>
<wgt id='1869'> +2.8008677e+02 </wgt>
<wgt id='1870'> +2.7989804e+02 </wgt>
<wgt id='1871'> +2.8000534e+02 </wgt>
<wgt id='1872'> +2.8000064e+02 </wgt>
<wgt id='1873'> +2.8010762e+02 </wgt>
<wgt id='1874'> +2.8004109e+02 </wgt>
<wgt id='1875'> +2.8005919e+02 </wgt>
<wgt id='1876'> +2.8001477e+02 </wgt>
<wgt id='1877'> +2.8005042e+02 </wgt>
<wgt id='1878'> +2.8009250e+02 </wgt>
<wgt id='1879'> +2.7999701e+02 </wgt>
<wgt id='1880'> +2.8007278e+02 </wgt>
<wgt id='1881'> +2.8006563e+02 </wgt>
<wgt id='1882'> +2.7999673e+02 </wgt>
<wgt id='1883'> +2.8005048e+02 </wgt>
<wgt id='1884'> +2.7551164e+02 </wgt>
<wgt id='1885'> +2.8436489e+02 </wgt>
<wgt id='1886'> +2.8833164e+02 </wgt>
<wgt id='1887'> +2.8919568e+02 </wgt>
<wgt id='1888'> +2.8783311e+02 </wgt>
<wgt id='1889'> +2.8830749e+02 </wgt>
<wgt id='1890'> +2.8898363e+02 </wgt>
<wgt id='1891'> +2.9405654e+02 </wgt>
<wgt id='1892'> +2.8811196e+02 </wgt>
<wgt id='1893'> +2.8815732e+02 </wgt>
<wgt id='1894'> +2.8869707e+02 </wgt>
<wgt id='1895'> +2.8813857e+02 </wgt>
<wgt id='1896'> +2.8846254e+02 </wgt>
<wgt id='1897'> +2.8831818e+02 </wgt>
<wgt id='1898'> +2.8771671e+02 </wgt>
<wgt id='1899'> +2.8823261e+02 </wgt>
<wgt id='1900'> +2.8830724e+02 </wgt>
<wgt id='1901'> +2.8872346e+02 </wgt>
<wgt id='1902'> +2.8838238e+02 </wgt>
<wgt id='1903'> +2.8539649e+02 </wgt>
<wgt id='1904'> +2.8856313e+02 </wgt>
<wgt id='1905'> +2.8804360e+02 </wgt>
<wgt id='1906'> +2.8816591e+02 </wgt>
<wgt id='1907'> +2.8825729e+02 </wgt>
<wgt id='1908'> +2.8819922e+02 </wgt>
<wgt id='1909'> +2.8839142e+02 </wgt>
<wgt id='1910'> +2.8815998e+02 </wgt>
<wgt id='1911'> +2.8816770e+02 </wgt>
<wgt id='1912'> +2.8869906e+02 </wgt>
<wgt id='1913'> +2.8864531e+02 </wgt>
<wgt id='1914'> +2.8981133e+02 </wgt>
<wgt id='1915'> +2.8861973e+02 </wgt>
<wgt id='1916'> +2.8826474e+02 </wgt>
<wgt id='1917'> +2.8245222e+02 </wgt>
<wgt id='1918'> +2.9364330e+02 </wgt>
<wgt id='1919'> +2.8005044e+02 </wgt>
<wgt id='1920'> +2.7947475e+02 </wgt>
<wgt id='1921'> +2.8078619e+02 </wgt>
<wgt id='1922'> +2.7971462e+02 </wgt>
<wgt id='1923'> +2.8042250e+02 </wgt>
<wgt id='1924'> +2.7698255e+02 </wgt>
<wgt id='1925'> +2.8011864e+02 </wgt>
<wgt id='1926'> +2.7943683e+02 </wgt>
<wgt id='1927'> +2.7919903e+02 </wgt>
<wgt id='1928'> +2.7909409e+02 </wgt>
<wgt id='1929'> +2.8275108e+02 </wgt>
<wgt id='1930'> +2.7902552e+02 </wgt>
<wgt id='1931'> +2.8025555e+02 </wgt>
<wgt id='1932'> +2.8076382e+02 </wgt>
<wgt id='1933'> +2.7948140e+02 </wgt>
<wgt id='1934'> +2.7982857e+02 </wgt>
<wgt id='1935'> +2.7980577e+02 </wgt>
<wgt id='1936'> +2.8175928e+02 </wgt>
<wgt id='1937'> +2.7995909e+02 </wgt>
<wgt id='1938'> +2.7991901e+02 </wgt>
<wgt id='1939'> +2.8059267e+02 </wgt>
<wgt id='1940'> +2.8061101e+02 </wgt>
<wgt id='1941'> +2.8418106e+02 </wgt>
<wgt id='1942'> +2.8009738e+02 </wgt>
<wgt id='1943'> +2.8011982e+02 </wgt>
<wgt id='1944'> +2.7987530e+02 </wgt>
<wgt id='1945'> +2.8010507e+02 </wgt>
<wgt id='1946'> +2.7997311e+02 </wgt>
<wgt id='1947'> +2.8013779e+02 </wgt>
<wgt id='1948'> +2.8014692e+02 </wgt>
<wgt id='1949'> +2.8004975e+02 </wgt>
<wgt id='1950'> +2.7551164e+02 </wgt>
<wgt id='1951'> +2.8436489e+02 </wgt>
<wgt id='1952'> +3.0655308e+02 </wgt>
<wgt id='1953'> +3.0615650e+02 </wgt>
<wgt id='1954'> +3.0694791e+02 </wgt>
<wgt id='1955'> +3.0746812e+02 </wgt>
<wgt id='1956'> +3.0563956e+02 </wgt>
<wgt id='1957'> +3.0693793e+02 </wgt>
<wgt id='1958'> +3.0616823e+02 </wgt>
<wgt id='1959'> +3.0702787e+02 </wgt>
<wgt id='1960'> +3.0609505e+02 </wgt>
<wgt id='1961'> +3.0703420e+02 </wgt>
<wgt id='1962'> +3.0608144e+02 </wgt>
<wgt id='1963'> +3.0580697e+02 </wgt>
<wgt id='1964'> +3.0723886e+02 </wgt>
<wgt id='1965'> +3.0554211e+02 </wgt>
<wgt id='1966'> +3.0756732e+02 </wgt>
<wgt id='1967'> +3.0669301e+02 </wgt>
<wgt id='1968'> +3.0650248e+02 </wgt>
<wgt id='1969'> +3.0745663e+02 </wgt>
<wgt id='1970'> +3.0535963e+02 </wgt>
<wgt id='1971'> +3.0583629e+02 </wgt>
<wgt id='1972'> +3.0733135e+02 </wgt>
<wgt id='1973'> +3.0759406e+02 </wgt>
<wgt id='1974'> +3.0512787e+02 </wgt>
<wgt id='1975'> +3.0510062e+02 </wgt>
<wgt id='1976'> +3.0642747e+02 </wgt>
<wgt id='1977'> +3.0696220e+02 </wgt>
<wgt id='1978'> +3.0661639e+02 </wgt>
<wgt id='1979'> +3.0671886e+02 </wgt>
<wgt id='1980'> +3.0667401e+02 </wgt>
<wgt id='1981'> +3.0655308e+02 </wgt>
<wgt id='1982'> +3.0641909e+02 </wgt>
<wgt id='1983'> +3.0654725e+02 </wgt>
<wgt id='1984'> +3.0635093e+02 </wgt>
<wgt id='1985'> +3.0656073e+02 </wgt>
<wgt id='1986'> +3.0783301e+02 </wgt>
<wgt id='1987'> +3.0529066e+02 </wgt>
<wgt id='1988'> +3.0543172e+02 </wgt>
<wgt id='1989'> +3.0763479e+02 </wgt>
<wgt id='1990'> +3.0568858e+02 </wgt>
<wgt id='1991'> +3.0754625e+02 </wgt>
<wgt id='1992'> +3.0636998e+02 </wgt>
<wgt id='1993'> +3.0745693e+02 </wgt>
<wgt id='1994'> +3.0412536e+02 </wgt>
<wgt id='1995'> +2.8694389e+02 </wgt>
<wgt id='1996'> +2.8675072e+02 </wgt>
<wgt id='1997'> +2.8710576e+02 </wgt>
<wgt id='1998'> +2.8754617e+02 </wgt>
<wgt id='1999'> +2.8631102e+02 </wgt>
<wgt id='2000'> +2.8764227e+02 </wgt>
<wgt id='2001'> +2.8621635e+02 </wgt>
<wgt id='2002'> +2.8784979e+02 </wgt>
<wgt id='2003'> +2.8602333e+02 </wgt>
<wgt id='2004'> +2.8694966e+02 </wgt>
<wgt id='2005'> +2.8690702e+02 </wgt>
<wgt id='2006'> +2.8761909e+02 </wgt>
<wgt id='2007'> +2.8623798e+02 </wgt>
<wgt id='2008'> +2.8615173e+02 </wgt>
<wgt id='2009'> +2.8771948e+02 </wgt>
<wgt id='2010'> +2.8682291e+02 </wgt>
<wgt id='2011'> +2.8731635e+02 </wgt>
<wgt id='2012'> +2.8665891e+02 </wgt>
<wgt id='2013'> +2.8713376e+02 </wgt>
<wgt id='2014'> +2.8661737e+02 </wgt>
<wgt id='2015'> +2.8720885e+02 </wgt>
<wgt id='2016'> +2.8496537e+02 </wgt>
<wgt id='2017'> +2.8844521e+02 </wgt>
<wgt id='2018'> +2.8665806e+02 </wgt>
<wgt id='2019'> +2.8715125e+02 </wgt>
<wgt id='2020'> +2.8595651e+02 </wgt>
<wgt id='2021'> +2.8714101e+02 </wgt>
<wgt id='2022'> +2.8691319e+02 </wgt>
<wgt id='2023'> +2.8728426e+02 </wgt>
<wgt id='2024'> +2.8696595e+02 </wgt>
<wgt id='2025'> +2.8706495e+02 </wgt>
<wgt id='2026'> +2.8621297e+02 </wgt>
<wgt id='2027'> +2.8699033e+02 </wgt>
<wgt id='2028'> +2.8683901e+02 </wgt>
<wgt id='2029'> +2.8585052e+02 </wgt>
<wgt id='2030'> +2.8780951e+02 </wgt>
<wgt id='2031'> +2.8596463e+02 </wgt>
<wgt id='2032'> +2.8839604e+02 </wgt>
<wgt id='2033'> +2.8572531e+02 </wgt>
<wgt id='2034'> +2.8698453e+02 </wgt>
<wgt id='2035'> +2.8605616e+02 </wgt>
<wgt id='2036'> +2.8932099e+02 </wgt>
<wgt id='2037'> +2.8590047e+02 </wgt>
<wgt id='2038'> +2.8669621e+02 </wgt>
<wgt id='2039'> +2.8665158e+02 </wgt>
<wgt id='2040'> +2.8660565e+02 </wgt>
<wgt id='2041'> +2.8655759e+02 </wgt>
<wgt id='2042'> +2.8651260e+02 </wgt>
<wgt id='2043'> +2.8646563e+02 </wgt>
<wgt id='2044'> +2.8641995e+02 </wgt>
<wgt id='2045'> +2.8637462e+02 </wgt>
<wgt id='2046'> +2.8632857e+02 </wgt>
<wgt id='2047'> +2.8628215e+02 </wgt>
<wgt id='2048'> +2.8623458e+02 </wgt>
<wgt id='2049'> +2.8618993e+02 </wgt>
<wgt id='2050'> +2.8614355e+02 </wgt>
<wgt id='2051'> +2.8609831e+02 </wgt>
<wgt id='2052'> +2.8605095e+02 </wgt>
<wgt id='2053'> +2.8600631e+02 </wgt>
<wgt id='2054'> +2.8595898e+02 </wgt>
<wgt id='2055'> +2.8591360e+02 </wgt>
<wgt id='2056'> +2.8586798e+02 </wgt>
<wgt id='2057'> +2.8582126e+02 </wgt>
<wgt id='2058'> +2.8577539e+02 </wgt>
<wgt id='2059'> +2.8572904e+02 </wgt>
<wgt id='2060'> +2.8568411e+02 </wgt>
<wgt id='2061'> +2.8563636e+02 </wgt>
<wgt id='2062'> +2.8559232e+02 </wgt>
<wgt id='2063'> +2.8554559e+02 </wgt>
<wgt id='2064'> +2.8550091e+02 </wgt>
<wgt id='2065'> +2.8545359e+02 </wgt>
<wgt id='2066'> +2.8540700e+02 </wgt>
<wgt id='2067'> +2.8536229e+02 </wgt>
<wgt id='2068'> +2.8531559e+02 </wgt>
<wgt id='2069'> +2.7661630e+02 </wgt>
<wgt id='2070'> +2.7688112e+02 </wgt>
<wgt id='2071'> +2.7729100e+02 </wgt>
<wgt id='2072'> +2.7544963e+02 </wgt>
<wgt id='2073'> +2.7636354e+02 </wgt>
<wgt id='2074'> +2.7671586e+02 </wgt>
<wgt id='2075'> +2.7691204e+02 </wgt>
<wgt id='2076'> +2.7823363e+02 </wgt>
<wgt id='2077'> +2.7750076e+02 </wgt>
<wgt id='2078'> +2.7629662e+02 </wgt>
<wgt id='2079'> +2.7604202e+02 </wgt>
<wgt id='2080'> +2.7918965e+02 </wgt>
<wgt id='2081'> +2.7413979e+02 </wgt>
<wgt id='2082'> +2.7349516e+02 </wgt>
<wgt id='2083'> +2.7449468e+02 </wgt>
<wgt id='2084'> +2.7664197e+02 </wgt>
<wgt id='2085'> +2.7877533e+02 </wgt>
<wgt id='2086'> +2.7637710e+02 </wgt>
<wgt id='2087'> +2.7607658e+02 </wgt>
<wgt id='2088'> +2.7608479e+02 </wgt>
<wgt id='2089'> +2.7785470e+02 </wgt>
<wgt id='2090'> +2.7611779e+02 </wgt>
<wgt id='2091'> +2.7701917e+02 </wgt>
<wgt id='2092'> +2.7610422e+02 </wgt>
<wgt id='2093'> +2.7624708e+02 </wgt>
<wgt id='2094'> +2.7698919e+02 </wgt>
<wgt id='2095'> +2.7665696e+02 </wgt>
<wgt id='2096'> +2.7622055e+02 </wgt>
<wgt id='2097'> +2.7686542e+02 </wgt>
<wgt id='2098'> +2.7695307e+02 </wgt>
<wgt id='2099'> +2.7668770e+02 </wgt>
<wgt id='2100'> +2.7651237e+02 </wgt>
<wgt id='2101'> +2.7688142e+02 </wgt>
<wgt id='2102'> +2.7698686e+02 </wgt>
<wgt id='2103'> +2.7647673e+02 </wgt>
<wgt id='2104'> +2.7708490e+02 </wgt>
<wgt id='2105'> +2.7662386e+02 </wgt>
<wgt id='2106'> +2.7688595e+02 </wgt>
<wgt id='2107'> +2.7665830e+02 </wgt>
<wgt id='2108'> +2.7666661e+02 </wgt>
<wgt id='2109'> +2.7632165e+02 </wgt>
<wgt id='2110'> +2.7647594e+02 </wgt>
<wgt id='2111'> +2.7655407e+02 </wgt>
<wgt id='2112'> +2.7642144e+02 </wgt>
<wgt id='2113'> +2.7671185e+02 </wgt>
<wgt id='2114'> +2.7657228e+02 </wgt>
<wgt id='2115'> +2.7626134e+02 </wgt>
<wgt id='2116'> +2.7648515e+02 </wgt>
<wgt id='2117'> +2.7669412e+02 </wgt>
<wgt id='2118'> +2.7645441e+02 </wgt>
<wgt id='2119'> +2.7666768e+02 </wgt>
<wgt id='2120'> +2.7675512e+02 </wgt>
<wgt id='2121'> +2.7667142e+02 </wgt>
<wgt id='2122'> +2.7667049e+02 </wgt>
<wgt id='2123'> +2.7648633e+02 </wgt>
<wgt id='2124'> +2.7655525e+02 </wgt>
<wgt id='2125'> +2.7686656e+02 </wgt>
<wgt id='2126'> +2.7658909e+02 </wgt>
<wgt id='2127'> +2.7642726e+02 </wgt>
<wgt id='2128'> +2.7649991e+02 </wgt>
<wgt id='2129'> +2.7652375e+02 </wgt>
<wgt id='2130'> +2.7665457e+02 </wgt>
<wgt id='2131'> +2.7665606e+02 </wgt>
<wgt id='2132'> +2.7675444e+02 </wgt>
<wgt id='2133'> +2.7653485e+02 </wgt>
<wgt id='2134'> +2.7661859e+02 </wgt>
<wgt id='2135'> +2.7665467e+02 </wgt>
<wgt id='2136'> +2.7670934e+02 </wgt>
<wgt id='2137'> +2.7670480e+02 </wgt>
<wgt id='2138'> +2.7676726e+02 </wgt>
<wgt id='2139'> +2.7658692e+02 </wgt>
<wgt id='2140'> +2.7678209e+02 </wgt>
<wgt id='2141'> +2.7678859e+02 </wgt>
<wgt id='2142'> +2.7653516e+02 </wgt>
<wgt id='2143'> +2.7665710e+02 </wgt>
<wgt id='2144'> +2.7659407e+02 </wgt>
<wgt id='2145'> +2.7659187e+02 </wgt>
<wgt id='2146'> +2.7665819e+02 </wgt>
<wgt id='2147'> +2.7664927e+02 </wgt>
<wgt id='2148'> +2.7656792e+02 </wgt>
<wgt id='2149'> +2.7679116e+02 </wgt>
<wgt id='2150'> +2.7658090e+02 </wgt>
<wgt id='2151'> +2.7667973e+02 </wgt>
<wgt id='2152'> +2.7652311e+02 </wgt>
<wgt id='2153'> +2.7654029e+02 </wgt>
<wgt id='2154'> +2.7655226e+02 </wgt>
<wgt id='2155'> +2.7664687e+02 </wgt>
<wgt id='2156'> +2.7645738e+02 </wgt>
<wgt id='2157'> +2.7656324e+02 </wgt>
<wgt id='2158'> +2.7655923e+02 </wgt>
<wgt id='2159'> +2.7666423e+02 </wgt>
<wgt id='2160'> +2.7659708e+02 </wgt>
<wgt id='2161'> +2.7661446e+02 </wgt>
<wgt id='2162'> +2.7657347e+02 </wgt>
<wgt id='2163'> +2.7660500e+02 </wgt>
<wgt id='2164'> +2.7665039e+02 </wgt>
<wgt id='2165'> +2.7655551e+02 </wgt>
<wgt id='2166'> +2.7663184e+02 </wgt>
<wgt id='2167'> +2.7662069e+02 </wgt>
<wgt id='2168'> +2.7655397e+02 </wgt>
<wgt id='2169'> +2.7660674e+02 </wgt>
<wgt id='2170'> +2.7661282e+02 </wgt>
<wgt id='2171'> +2.7659343e+02 </wgt>
<wgt id='2172'> +2.7661993e+02 </wgt>
<wgt id='2173'> +2.7662053e+02 </wgt>
<wgt id='2174'> +2.7662692e+02 </wgt>
<wgt id='2175'> +2.7661785e+02 </wgt>
<wgt id='2176'> +2.7660106e+02 </wgt>
<wgt id='2177'> +2.8617895e+02 </wgt>
<wgt id='2178'> +2.6196993e+02 </wgt>
<wgt id='2179'> +2.8351782e+02 </wgt>
<wgt id='2180'> +2.8800649e+02 </wgt>
<wgt id='2181'> +2.8241978e+02 </wgt>
<wgt id='2182'> +2.5529348e+02 </wgt>
<wgt id='2183'> +2.9108380e+02 </wgt>
<wgt id='2184'> +2.8789586e+02 </wgt>
<wgt id='2185'> +2.8861441e+02 </wgt>
<wgt id='2186'> +2.8830614e+02 </wgt>
<wgt id='2187'> +2.7911639e+02 </wgt>
<wgt id='2188'> +2.8167711e+02 </wgt>
<wgt id='2189'> +2.9070257e+02 </wgt>
<wgt id='2190'> +2.9152082e+02 </wgt>
<wgt id='2191'> +2.8353827e+02 </wgt>
<wgt id='2192'> +2.9029721e+02 </wgt>
<wgt id='2193'> +2.8719166e+02 </wgt>
<wgt id='2194'> +2.8393352e+02 </wgt>
<wgt id='2195'> +2.8285202e+02 </wgt>
<wgt id='2196'> +2.9023984e+02 </wgt>
<wgt id='2197'> +2.9017854e+02 </wgt>
<wgt id='2198'> +2.8958831e+02 </wgt>
<wgt id='2199'> +2.8476482e+02 </wgt>
<wgt id='2200'> +3.0618811e+02 </wgt>
<wgt id='2201'> +2.8730986e+02 </wgt>
<wgt id='2202'> +2.8813882e+02 </wgt>
<wgt id='2203'> +2.8363007e+02 </wgt>
<wgt id='2204'> +2.8105156e+02 </wgt>
<wgt id='2205'> +2.8528446e+02 </wgt>
<wgt id='2206'> +2.8540311e+02 </wgt>
<wgt id='2207'> +2.9226708e+02 </wgt>
<wgt id='2208'> +2.8750176e+02 </wgt>
<wgt id='2209'> +2.8029724e+02 </wgt>
<wgt id='2210'> +2.8510609e+02 </wgt>
<wgt id='2211'> +2.8896345e+02 </wgt>
<wgt id='2212'> +2.9237263e+02 </wgt>
<wgt id='2213'> +2.8910283e+02 </wgt>
<wgt id='2214'> +2.9142150e+02 </wgt>
<wgt id='2215'> +2.8746571e+02 </wgt>
<wgt id='2216'> +2.7748211e+02 </wgt>
<wgt id='2217'> +2.8959515e+02 </wgt>
<wgt id='2218'> +2.8673433e+02 </wgt>
<wgt id='2219'> +2.8586676e+02 </wgt>
<wgt id='2220'> +2.8897364e+02 </wgt>
<wgt id='2221'> +2.8581262e+02 </wgt>
<wgt id='2222'> +2.8730401e+02 </wgt>
<wgt id='2223'> +2.9026657e+02 </wgt>
<wgt id='2224'> +2.8243726e+02 </wgt>
<wgt id='2225'> +2.8341089e+02 </wgt>
<wgt id='2226'> +2.8311175e+02 </wgt>
<wgt id='2227'> +2.8597053e+02 </wgt>
<wgt id='2228'> +2.8660616e+02 </wgt>
<wgt id='2229'> +2.8336344e+02 </wgt>
<wgt id='2230'> +2.9021682e+02 </wgt>
<wgt id='2231'> +2.8799593e+02 </wgt>
<wgt id='2232'> +2.8488392e+02 </wgt>
<wgt id='2233'> +2.8180620e+02 </wgt>
<wgt id='2234'> +2.9053099e+02 </wgt>
<wgt id='2235'> +2.8460705e+02 </wgt>
<wgt id='2236'> +2.8972140e+02 </wgt>
<wgt id='2237'> +2.8520138e+02 </wgt>
<wgt id='2238'> +2.8604705e+02 </wgt>
<wgt id='2239'> +2.8690698e+02 </wgt>
<wgt id='2240'> +2.9025532e+02 </wgt>
<wgt id='2241'> +2.7981284e+02 </wgt>
<wgt id='2242'> +2.8825747e+02 </wgt>
<wgt id='2243'> +2.8995525e+02 </wgt>
<wgt id='2244'> +3.0031356e+02 </wgt>
<wgt id='2245'> +2.8333302e+02 </wgt>
<wgt id='2246'> +2.7891505e+02 </wgt>
<wgt id='2247'> +2.8606693e+02 </wgt>
<wgt id='2248'> +2.8794511e+02 </wgt>
<wgt id='2249'> +2.8837248e+02 </wgt>
<wgt id='2250'> +2.6583117e+02 </wgt>
<wgt id='2251'> +2.9074504e+02 </wgt>
<wgt id='2252'> +2.8354973e+02 </wgt>
<wgt id='2253'> +2.8409993e+02 </wgt>
<wgt id='2254'> +2.9068477e+02 </wgt>
<wgt id='2255'> +2.9422182e+02 </wgt>
<wgt id='2256'> +2.8276526e+02 </wgt>
<wgt id='2257'> +2.8679282e+02 </wgt>
<wgt id='2258'> +2.8924761e+02 </wgt>
<wgt id='2259'> +2.8320634e+02 </wgt>
<wgt id='2260'> +2.8955838e+02 </wgt>
<wgt id='2261'> +2.8604993e+02 </wgt>
<wgt id='2262'> +2.8071306e+02 </wgt>
<wgt id='2263'> +2.8518009e+02 </wgt>
<wgt id='2264'> +2.8717382e+02 </wgt>
<wgt id='2265'> +2.8521761e+02 </wgt>
<wgt id='2266'> +2.9272423e+02 </wgt>
<wgt id='2267'> +2.8536502e+02 </wgt>
<wgt id='2268'> +2.8353359e+02 </wgt>
<wgt id='2269'> +2.8710119e+02 </wgt>
<wgt id='2270'> +2.8430245e+02 </wgt>
<wgt id='2271'> +2.9215103e+02 </wgt>
<wgt id='2272'> +2.8251193e+02 </wgt>
<wgt id='2273'> +2.8959697e+02 </wgt>
<wgt id='2274'> +2.8436783e+02 </wgt>
<wgt id='2275'> +2.9353791e+02 </wgt>
<wgt id='2276'> +2.9086819e+02 </wgt>
<wgt id='2277'> +2.8639775e+02 </wgt>
<wgt id='2278'> +2.8186099e+02 </wgt>
<wgt id='2279'> +2.8919857e+02 </wgt>
<wgt id='2280'> +2.8275709e+02 </wgt>
<wgt id='2281'> +3.5425397e+02 </wgt>
<wgt id='2282'> +4.3311921e+02 </wgt>
<wgt id='2283'> +3.6100896e+02 </wgt>
<wgt id='2284'> +4.2963516e+02 </wgt>
</rwgt>
</event>
<event npLO=" -1 " npNLO=" 0 ">
 3      0 +2.8781417e+02 2.55542580e+01 7.54677110e-03 1.16380120e-01
       21 -1    0    0  502  501 +0.0000000000e+00 +0.0000000000e+00 +1.6126585000e+01 1.6126585000e+01 0.0000000000e+00 0.0000e+00 9.0000e+00
       21 -1    0    0  501  502 +0.0000000000e+00 +0.0000000000e+00 -1.5502352000e+02 1.5502352000e+02 0.0000000000e+00 0.0000e+00 9.0000e+00
       25  1    1    2    0    0 +0.0000000000e+00 +0.0000000000e+00 -1.3889693000e+02 1.7115010000e+02 1.0000000000e+02 0.0000e+00 9.0000e+00
#aMCatNLO 1  0  0  1  2 0.90784026E+00 0.00000000E+00 -9  4  0 0.00000000E+00 0.00000000E+00 0.00000000E+00 0.00000000E+00 0.00000000E+00
<rwgt>
<wgt id='1001'> +2.8781417e+02 </wgt>
<wgt id='1002'> +2.2521930e+02 </wgt>
<wgt id='1003'> +3.7942041e+02 </wgt>
<wgt id='1004'> +3.5490546e+02 </wgt>
<wgt id='1005'> +2.7591287e+02 </wgt>
<wgt id='1006'> +4.7123710e+02 </wgt>
<wgt id='1007'> +2.2268166e+02 </wgt>
<wgt id='1008'> +1.7576685e+02 </wgt>
<wgt id='1009'> +2.9073141e+02 </wgt>
<wgt id='1010'> +2.8781417e+02 </wgt>
<wgt id='1011'> +2.8865179e+02 </wgt>
<wgt id='1012'> +2.8700099e+02 </wgt>
<wgt id='1013'> +2.8811645e+02 </wgt>
<wgt id='1014'> +2.8835300e+02 </wgt>
<wgt id='1015'> +2.8865699e+02 </wgt>
<wgt id='1016'> +2.8787055e+02 </wgt>
<wgt id='1017'> +2.8847410e+02 </wgt>
<wgt id='1018'> +2.8860139e+02 </wgt>
<wgt id='1019'> +2.8761429e+02 </wgt>
<wgt id='1020'> +2.8819753e+02 </wgt>
<wgt id='1021'> +2.8716647e+02 </wgt>
<wgt id='1022'> +2.8806638e+02 </wgt>
<wgt id='1023'> +2.8739250e+02 </wgt>
<wgt id='1024'> +2.8734665e+02 </wgt>
<wgt id='1025'> +2.8820025e+02 </wgt>
<wgt id='1026'> +2.8696387e+02 </wgt>
<wgt id='1027'> +2.8673129e+02 </wgt>
<wgt id='1028'> +2.8899111e+02 </wgt>
<wgt id='1029'> +2.8921145e+02 </wgt>
<wgt id='1030'> +2.8719893e+02 </wgt>
<wgt id='1031'> +2.8871019e+02 </wgt>
<wgt id='1032'> +2.8738396e+02 </wgt>
<wgt id='1033'> +2.8803618e+02 </wgt>
<wgt id='1034'> +2.8795190e+02 </wgt>
<wgt id='1035'> +2.8764753e+02 </wgt>
<wgt id='1036'> +2.8758523e+02 </wgt>
<wgt id='1037'> +2.8742165e+02 </wgt>
<wgt id='1038'> +2.8803871e+02 </wgt>
<wgt id='1039'> +2.8734000e+02 </wgt>
<wgt id='1040'> +2.8767787e+02 </wgt>
<wgt id='1041'> +2.8726677e+02 </wgt>
<wgt id='1042'> +2.8799236e+02 </wgt>
<wgt id='1043'> +2.8745386e+02 </wgt>
<wgt id='1044'> +2.8758253e+02 </wgt>
<wgt id='1045'> +2.8781183e+02 </wgt>
<wgt id='1046'> +2.8810828e+02 </wgt>
<wgt id='1047'> +2.8784422e+02 </wgt>
<wgt id='1048'> +2.8787764e+02 </wgt>
<wgt id='1049'> +2.8784270e+02 </wgt>
<wgt id='1050'> +2.8773651e+02 </wgt>
<wgt id='1051'> +2.8796573e+02 </wgt>
<wgt id='1052'> +2.8789450e+02 </wgt>
<wgt id='1053'> +2.8766261e+02 </wgt>
<wgt id='1054'> +2.8786595e+02 </wgt>
<wgt id='1055'> +2.8787147e+02 </wgt>
<wgt id='1056'> +2.8790424e+02 </wgt>
<wgt id='1057'> +2.8775729e+02 </wgt>
<wgt id='1058'> +2.8773918e+02 </wgt>
<wgt id='1059'> +2.8772301e+02 </wgt>
<wgt id='1060'> +2.8777214e+02 </wgt>
<wgt id='1061'> +2.8778969e+02 </wgt>
<wgt id='1062'> +2.8789497e+02 </wgt>
<wgt id='1063'> +2.8776230e+02 </wgt>
<wgt id='1064'> +2.8780240e+02 </wgt>
<wgt id='1065'> +2.8792030e+02 </wgt>
<wgt id='1066'> +2.8779946e+02 </wgt>
<wgt id='1067'> +2.8790064e+02 </wgt>
<wgt id='1068'> +2.8777928e+02 </wgt>
<wgt id='1069'> +2.8787289e+02 </wgt>
<wgt id='1070'> +2.8780551e+02 </wgt>
<wgt id='1071'> +2.8781433e+02 </wgt>
<wgt id='1072'> +2.8795345e+02 </wgt>
<wgt id='1073'> +2.8784798e+02 </wgt>
<wgt id='1074'> +2.8789598e+02 </wgt>
<wgt id='1075'> +2.8795439e+02 </wgt>
<wgt id='1076'> +2.8788844e+02 </wgt>
<wgt id='1077'> +2.8788189e+02 </wgt>
<wgt id='1078'> +2.8783589e+02 </wgt>
<wgt id='1079'> +2.8783808e+02 </wgt>
<wgt id='1080'> +2.8782989e+02 </wgt>
<wgt id='1081'> +2.8786868e+02 </wgt>
<wgt id='1082'> +2.8782482e+02 </wgt>
<wgt id='1083'> +2.8783609e+02 </wgt>
<wgt id='1084'> +2.8781471e+02 </wgt>
<wgt id='1085'> +2.8776807e+02 </wgt>
<wgt id='1086'> +2.8777906e+02 </wgt>
<wgt id='1087'> +2.8796581e+02 </wgt>
<wgt id='1088'> +2.8780894e+02 </wgt>
<wgt id='1089'> +2.8777528e+02 </wgt>
<wgt id='1090'> +2.8783761e+02 </wgt>
<wgt id='1091'> +2.8775613e+02 </wgt>
<wgt id='1092'> +2.8784156e+02 </wgt>
<wgt id='1093'> +2.8785539e+02 </wgt>
<wgt id='1094'> +2.8785347e+02 </wgt>
<wgt id='1095'> +2.8780548e+02 </wgt>
<wgt id='1096'> +2.8777144e+02 </wgt>
<wgt id='1097'> +2.8782645e+02 </wgt>
<wgt id='1098'> +2.8782030e+02 </wgt>
<wgt id='1099'> +2.8782081e+02 </wgt>
<wgt id='1100'> +2.8784135e+02 </wgt>
<wgt id='1101'> +2.8781881e+02 </wgt>
<wgt id='1102'> +2.8784292e+02 </wgt>
<wgt id='1103'> +2.8778247e+02 </wgt>
<wgt id='1104'> +2.8776770e+02 </wgt>
<wgt id='1105'> +2.8781863e+02 </wgt>
<wgt id='1106'> +2.8779394e+02 </wgt>
<wgt id='1107'> +2.8781330e+02 </wgt>
<wgt id='1108'> +2.8781818e+02 </wgt>
<wgt id='1109'> +2.8783921e+02 </wgt>
<wgt id='1110'> +2.8781394e+02 </wgt>
<wgt id='1111'> +2.7852275e+02 </wgt>
<wgt id='1112'> +2.9591899e+02 </wgt>
<wgt id='1113'> +2.8781394e+02 </wgt>
<wgt id='1114'> +2.8426139e+02 </wgt>
<wgt id='1115'> +2.8780558e+02 </wgt>
<wgt id='1116'> +2.8897622e+02 </wgt>
<wgt id='1117'> +2.8764730e+02 </wgt>
<wgt id='1118'> +2.8691435e+02 </wgt>
<wgt id='1119'> +2.8285197e+02 </wgt>
<wgt id='1120'> +2.8647042e+02 </wgt>
<wgt id='1121'> +2.8748593e+02 </wgt>
<wgt id='1122'> +2.9165154e+02 </wgt>
<wgt id='1123'> +2.9005225e+02 </wgt>
<wgt id='1124'> +2.9118315e+02 </wgt>
<wgt id='1125'> +2.8480269e+02 </wgt>
<wgt id='1126'> +2.8876646e+02 </wgt>
<wgt id='1127'> +2.8373120e+02 </wgt>
<wgt id='1128'> +2.9351005e+02 </wgt>
<wgt id='1129'> +2.9365534e+02 </wgt>
<wgt id='1130'> +2.9048610e+02 </wgt>
<wgt id='1131'> +2.8720652e+02 </wgt>
<wgt id='1132'> +2.8658507e+02 </wgt>
<wgt id='1133'> +2.8968618e+02 </wgt>
<wgt id='1134'> +2.8158640e+02 </wgt>
<wgt id='1135'> +2.8874345e+02 </wgt>
<wgt id='1136'> +2.8672035e+02 </wgt>
<wgt id='1137'> +2.8758859e+02 </wgt>
<wgt id='1138'> +2.8549954e+02 </wgt>
<wgt id='1139'> +2.9070168e+02 </wgt>
<wgt id='1140'> +2.8798719e+02 </wgt>
<wgt id='1141'> +2.8195584e+02 </wgt>
<wgt id='1142'> +2.8835135e+02 </wgt>
<wgt id='1143'> +2.9114637e+02 </wgt>
<wgt id='1144'> +2.8791200e+02 </wgt>
<wgt id='1145'> +2.8809731e+02 </wgt>
<wgt id='1146'> +2.8328341e+02 </wgt>
<wgt id='1147'> +2.8417031e+02 </wgt>
<wgt id='1148'> +2.9096996e+02 </wgt>
<wgt id='1149'> +2.8546670e+02 </wgt>
<wgt id='1150'> +2.9257699e+02 </wgt>
<wgt id='1151'> +2.8447576e+02 </wgt>
<wgt id='1152'> +2.8773785e+02 </wgt>
<wgt id='1153'> +2.8719227e+02 </wgt>
<wgt id='1154'> +2.8771328e+02 </wgt>
<wgt id='1155'> +2.8364878e+02 </wgt>
<wgt id='1156'> +2.8758654e+02 </wgt>
<wgt id='1157'> +2.8035603e+02 </wgt>
<wgt id='1158'> +2.8764586e+02 </wgt>
<wgt id='1159'> +2.9041984e+02 </wgt>
<wgt id='1160'> +2.7980465e+02 </wgt>
<wgt id='1161'> +2.8796126e+02 </wgt>
<wgt id='1162'> +2.9019945e+02 </wgt>
<wgt id='1163'> +2.9052016e+02 </wgt>
<wgt id='1164'> +2.8349935e+02 </wgt>
<wgt id='1165'> +2.8638029e+02 </wgt>
<wgt id='1166'> +2.8647266e+02 </wgt>
<wgt id='1167'> +2.8830294e+02 </wgt>
<wgt id='1168'> +2.8569536e+02 </wgt>
<wgt id='1169'> +2.8690796e+02 </wgt>
<wgt id='1170'> +2.9284054e+02 </wgt>
<wgt id='1171'> +2.8534492e+02 </wgt>
<wgt id='1172'> +2.9144834e+02 </wgt>
<wgt id='1173'> +2.8919121e+02 </wgt>
<wgt id='1174'> +2.8834111e+02 </wgt>
<wgt id='1175'> +2.8899707e+02 </wgt>
<wgt id='1176'> +2.8211110e+02 </wgt>
<wgt id='1177'> +2.8665060e+02 </wgt>
<wgt id='1178'> +2.8690515e+02 </wgt>
<wgt id='1179'> +2.8751266e+02 </wgt>
<wgt id='1180'> +2.8148111e+02 </wgt>
<wgt id='1181'> +2.9160112e+02 </wgt>
<wgt id='1182'> +2.8459926e+02 </wgt>
<wgt id='1183'> +2.8337355e+02 </wgt>
<wgt id='1184'> +2.9180053e+02 </wgt>
<wgt id='1185'> +2.9345276e+02 </wgt>
<wgt id='1186'> +2.9171989e+02 </wgt>
<wgt id='1187'> +2.9353553e+02 </wgt>
<wgt id='1188'> +2.9032329e+02 </wgt>
<wgt id='1189'> +2.8888690e+02 </wgt>
<wgt id='1190'> +2.8749262e+02 </wgt>
<wgt id='1191'> +2.8785178e+02 </wgt>
<wgt id='1192'> +2.8670958e+02 </wgt>
<wgt id='1193'> +2.8274552e+02 </wgt>
<wgt id='1194'> +2.8373558e+02 </wgt>
<wgt id='1195'> +2.9365534e+02 </wgt>
<wgt id='1196'> +2.8538464e+02 </wgt>
<wgt id='1197'> +2.9141405e+02 </wgt>
<wgt id='1198'> +2.9587648e+02 </wgt>
<wgt id='1199'> +2.8104295e+02 </wgt>
<wgt id='1200'> +2.9100703e+02 </wgt>
<wgt id='1201'> +2.8771136e+02 </wgt>
<wgt id='1202'> +2.9436784e+02 </wgt>
<wgt id='1203'> +2.8254583e+02 </wgt>
<wgt id='1204'> +2.8286936e+02 </wgt>
<wgt id='1205'> +2.9062219e+02 </wgt>
<wgt id='1206'> +2.9143040e+02 </wgt>
<wgt id='1207'> +2.8702937e+02 </wgt>
<wgt id='1208'> +2.8948252e+02 </wgt>
<wgt id='1209'> +2.8505729e+02 </wgt>
<wgt id='1210'> +2.8460432e+02 </wgt>
<wgt id='1211'> +2.9247734e+02 </wgt>
<wgt id='1212'> +2.9395110e+02 </wgt>
<wgt id='1213'> +2.9312774e+02 </wgt>
<wgt id='1214'> +2.8750400e+02 </wgt>
<wgt id='1215'> +2.8704261e+02 </wgt>
<wgt id='1216'> +2.8832629e+02 </wgt>
<wgt id='1217'> +2.8798107e+02 </wgt>
<wgt id='1218'> +2.8755074e+02 </wgt>
<wgt id='1219'> +2.8736557e+02 </wgt>
<wgt id='1220'> +2.8726046e+02 </wgt>
<wgt id='1221'> +2.8725944e+02 </wgt>
<wgt id='1222'> +2.8798029e+02 </wgt>
<wgt id='1223'> +2.8726090e+02 </wgt>
<wgt id='1224'> +2.8704895e+02 </wgt>
<wgt id='1225'> +2.8852216e+02 </wgt>
<wgt id='1226'> +2.8860918e+02 </wgt>
<wgt id='1227'> +2.8867828e+02 </wgt>
<wgt id='1228'> +2.8827726e+02 </wgt>
<wgt id='1229'> +2.8813151e+02 </wgt>
<wgt id='1230'> +2.8754940e+02 </wgt>
<wgt id='1231'> +2.8743327e+02 </wgt>
<wgt id='1232'> +2.8822457e+02 </wgt>
<wgt id='1233'> +2.8740914e+02 </wgt>
<wgt id='1234'> +2.8869265e+02 </wgt>
<wgt id='1235'> +2.8690932e+02 </wgt>
<wgt id='1236'> +2.8837128e+02 </wgt>
<wgt id='1237'> +2.8805698e+02 </wgt>
<wgt id='1238'> +2.8759298e+02 </wgt>
<wgt id='1239'> +2.8809554e+02 </wgt>
<wgt id='1240'> +2.8781611e+02 </wgt>
<wgt id='1241'> +2.8732885e+02 </wgt>
<wgt id='1242'> +2.8742370e+02 </wgt>
<wgt id='1243'> +2.8771549e+02 </wgt>
<wgt id='1244'> +2.8769025e+02 </wgt>
<wgt id='1245'> +2.8752436e+02 </wgt>
<wgt id='1246'> +2.8761901e+02 </wgt>
<wgt id='1247'> +2.8758788e+02 </wgt>
<wgt id='1248'> +2.8755816e+02 </wgt>
<wgt id='1249'> +2.8747518e+02 </wgt>
<wgt id='1250'> +2.8744095e+02 </wgt>
<wgt id='1251'> +2.8756627e+02 </wgt>
<wgt id='1252'> +2.8751383e+02 </wgt>
<wgt id='1253'> +2.8739174e+02 </wgt>
<wgt id='1254'> +2.8745750e+02 </wgt>
<wgt id='1255'> +2.8739139e+02 </wgt>
<wgt id='1256'> +2.8736953e+02 </wgt>
<wgt id='1257'> +2.8753953e+02 </wgt>
<wgt id='1258'> +2.8760420e+02 </wgt>
<wgt id='1259'> +2.8748270e+02 </wgt>
<wgt id='1260'> +2.8765199e+02 </wgt>
<wgt id='1261'> +2.8756808e+02 </wgt>
<wgt id='1262'> +2.8749526e+02 </wgt>
<wgt id='1263'> +2.8747416e+02 </wgt>
<wgt id='1264'> +2.8763101e+02 </wgt>
<wgt id='1265'> +2.8752847e+02 </wgt>
<wgt id='1266'> +2.8743511e+02 </wgt>
<wgt id='1267'> +2.8753660e+02 </wgt>
<wgt id='1268'> +2.8760221e+02 </wgt>
<wgt id='1269'> +2.8747320e+02 </wgt>
<wgt id='1270'> +2.8751591e+02 </wgt>
<wgt id='1271'> +2.8751547e+02 </wgt>
<wgt id='1272'> +2.8750856e+02 </wgt>
<wgt id='1273'> +2.8744943e+02 </wgt>
<wgt id='1274'> +2.8750226e+02 </wgt>
<wgt id='1275'> +2.8747271e+02 </wgt>
<wgt id='1276'> +2.8755835e+02 </wgt>
<wgt id='1277'> +2.8749733e+02 </wgt>
<wgt id='1278'> +2.8745854e+02 </wgt>
<wgt id='1279'> +2.8754450e+02 </wgt>
<wgt id='1280'> +2.8748225e+02 </wgt>
<wgt id='1281'> +2.8748941e+02 </wgt>
<wgt id='1282'> +2.8754035e+02 </wgt>
<wgt id='1283'> +2.8742251e+02 </wgt>
<wgt id='1284'> +2.8742075e+02 </wgt>
<wgt id='1285'> +2.8742607e+02 </wgt>
<wgt id='1286'> +2.8748350e+02 </wgt>
<wgt id='1287'> +2.8752911e+02 </wgt>
<wgt id='1288'> +2.8746155e+02 </wgt>
<wgt id='1289'> +2.8751828e+02 </wgt>
<wgt id='1290'> +2.8750799e+02 </wgt>
<wgt id='1291'> +2.8748255e+02 </wgt>
<wgt id='1292'> +2.8751228e+02 </wgt>
<wgt id='1293'> +2.8752579e+02 </wgt>
<wgt id='1294'> +2.8752569e+02 </wgt>
<wgt id='1295'> +2.8755189e+02 </wgt>
<wgt id='1296'> +2.8748334e+02 </wgt>
<wgt id='1297'> +2.8750902e+02 </wgt>
<wgt id='1298'> +2.8752185e+02 </wgt>
<wgt id='1299'> +2.8751069e+02 </wgt>
<wgt id='1300'> +2.8748709e+02 </wgt>
<wgt id='1301'> +2.8749665e+02 </wgt>
<wgt id='1302'> +2.8750751e+02 </wgt>
<wgt id='1303'> +2.8749392e+02 </wgt>
<wgt id='1304'> +2.8750184e+02 </wgt>
<wgt id='1305'> +2.8751272e+02 </wgt>
<wgt id='1306'> +2.8752477e+02 </wgt>
<wgt id='1307'> +2.8748791e+02 </wgt>
<wgt id='1308'> +2.8752449e+02 </wgt>
<wgt id='1309'> +2.8751163e+02 </wgt>
<wgt id='1310'> +2.8749521e+02 </wgt>
<wgt id='1311'> +2.8751580e+02 </wgt>
<wgt id='1312'> +2.8750858e+02 </wgt>
<wgt id='1313'> +2.8749611e+02 </wgt>
<wgt id='1314'> +2.8749836e+02 </wgt>
<wgt id='1315'> +2.7852275e+02 </wgt>
<wgt id='1316'> +2.9591899e+02 </wgt>
<wgt id='1317'> +2.4557413e+02 </wgt>
<wgt id='1318'> +2.5331062e+02 </wgt>
<wgt id='1319'> +2.6136321e+02 </wgt>
<wgt id='1320'> +2.7028223e+02 </wgt>
<wgt id='1321'> +2.8345272e+02 </wgt>
<wgt id='1322'> +2.9225108e+02 </wgt>
<wgt id='1323'> +3.0418557e+02 </wgt>
<wgt id='1324'> +3.1283401e+02 </wgt>
<wgt id='1325'> +2.9238884e+02 </wgt>
<wgt id='1326'> +2.9320140e+02 </wgt>
<wgt id='1327'> +2.9149525e+02 </wgt>
<wgt id='1328'> +2.9295944e+02 </wgt>
<wgt id='1329'> +2.9274790e+02 </wgt>
<wgt id='1330'> +2.9294532e+02 </wgt>
<wgt id='1331'> +2.9255058e+02 </wgt>
<wgt id='1332'> +2.9213973e+02 </wgt>
<wgt id='1333'> +2.9188849e+02 </wgt>
<wgt id='1334'> +2.9123368e+02 </wgt>
<wgt id='1335'> +2.9163400e+02 </wgt>
<wgt id='1336'> +2.9302174e+02 </wgt>
<wgt id='1337'> +2.9374734e+02 </wgt>
<wgt id='1338'> +2.9104524e+02 </wgt>
<wgt id='1339'> +2.9294536e+02 </wgt>
<wgt id='1340'> +2.9265987e+02 </wgt>
<wgt id='1341'> +2.9263130e+02 </wgt>
<wgt id='1342'> +2.9306345e+02 </wgt>
<wgt id='1343'> +2.9294788e+02 </wgt>
<wgt id='1344'> +2.9148346e+02 </wgt>
<wgt id='1345'> +2.9159858e+02 </wgt>
<wgt id='1346'> +2.9134391e+02 </wgt>
<wgt id='1347'> +2.9230147e+02 </wgt>
<wgt id='1348'> +2.9179390e+02 </wgt>
<wgt id='1349'> +2.9180689e+02 </wgt>
<wgt id='1350'> +2.9234392e+02 </wgt>
<wgt id='1351'> +2.9272668e+02 </wgt>
<wgt id='1352'> +2.9248175e+02 </wgt>
<wgt id='1353'> +2.9192216e+02 </wgt>
<wgt id='1354'> +2.9242660e+02 </wgt>
<wgt id='1355'> +2.9261293e+02 </wgt>
<wgt id='1356'> +2.9247077e+02 </wgt>
<wgt id='1357'> +2.9235382e+02 </wgt>
<wgt id='1358'> +2.9234765e+02 </wgt>
<wgt id='1359'> +2.9242184e+02 </wgt>
<wgt id='1360'> +2.9257369e+02 </wgt>
<wgt id='1361'> +2.9246964e+02 </wgt>
<wgt id='1362'> +2.9235782e+02 </wgt>
<wgt id='1363'> +2.9237454e+02 </wgt>
<wgt id='1364'> +2.9257635e+02 </wgt>
<wgt id='1365'> +2.9224297e+02 </wgt>
<wgt id='1366'> +2.9232392e+02 </wgt>
<wgt id='1367'> +2.9229702e+02 </wgt>
<wgt id='1368'> +2.9226478e+02 </wgt>
<wgt id='1369'> +2.9247479e+02 </wgt>
<wgt id='1370'> +2.9250362e+02 </wgt>
<wgt id='1371'> +2.9246248e+02 </wgt>
<wgt id='1372'> +2.9237424e+02 </wgt>
<wgt id='1373'> +2.9242102e+02 </wgt>
<wgt id='1374'> +2.9234376e+02 </wgt>
<wgt id='1375'> +2.9231936e+02 </wgt>
<wgt id='1376'> +2.9253111e+02 </wgt>
<wgt id='1377'> +2.9234745e+02 </wgt>
<wgt id='1378'> +2.9235679e+02 </wgt>
<wgt id='1379'> +2.9236479e+02 </wgt>
<wgt id='1380'> +2.9235449e+02 </wgt>
<wgt id='1381'> +2.9242771e+02 </wgt>
<wgt id='1382'> +2.9237092e+02 </wgt>
<wgt id='1383'> +2.9232243e+02 </wgt>
<wgt id='1384'> +2.9240953e+02 </wgt>
<wgt id='1385'> +2.9242148e+02 </wgt>
<wgt id='1386'> +2.9247708e+02 </wgt>
<wgt id='1387'> +2.9243441e+02 </wgt>
<wgt id='1388'> +2.9242887e+02 </wgt>
<wgt id='1389'> +2.9237570e+02 </wgt>
<wgt id='1390'> +2.9239740e+02 </wgt>
<wgt id='1391'> +2.9242941e+02 </wgt>
<wgt id='1392'> +2.9230752e+02 </wgt>
<wgt id='1393'> +2.9240995e+02 </wgt>
<wgt id='1394'> +2.9234391e+02 </wgt>
<wgt id='1395'> +2.9233488e+02 </wgt>
<wgt id='1396'> +2.9236872e+02 </wgt>
<wgt id='1397'> +2.9242512e+02 </wgt>
<wgt id='1398'> +2.9236919e+02 </wgt>
<wgt id='1399'> +2.9240705e+02 </wgt>
<wgt id='1400'> +2.9238691e+02 </wgt>
<wgt id='1401'> +2.9241372e+02 </wgt>
<wgt id='1402'> +2.9241607e+02 </wgt>
<wgt id='1403'> +2.9241217e+02 </wgt>
<wgt id='1404'> +2.9241995e+02 </wgt>
<wgt id='1405'> +2.9235961e+02 </wgt>
<wgt id='1406'> +2.9239669e+02 </wgt>
<wgt id='1407'> +2.9237516e+02 </wgt>
<wgt id='1408'> +2.9237786e+02 </wgt>
<wgt id='1409'> +2.9236289e+02 </wgt>
<wgt id='1410'> +2.9238444e+02 </wgt>
<wgt id='1411'> +2.9235789e+02 </wgt>
<wgt id='1412'> +2.9236729e+02 </wgt>
<wgt id='1413'> +2.9239679e+02 </wgt>
<wgt id='1414'> +2.9238885e+02 </wgt>
<wgt id='1415'> +2.9240069e+02 </wgt>
<wgt id='1416'> +2.9240854e+02 </wgt>
<wgt id='1417'> +2.9240944e+02 </wgt>
<wgt id='1418'> +2.9237840e+02 </wgt>
<wgt id='1419'> +2.9241253e+02 </wgt>
<wgt id='1420'> +2.9239696e+02 </wgt>
<wgt id='1421'> +2.9239005e+02 </wgt>
<wgt id='1422'> +2.9237618e+02 </wgt>
<wgt id='1423'> +2.9240639e+02 </wgt>
<wgt id='1424'> +2.9239389e+02 </wgt>
<wgt id='1425'> +2.9239004e+02 </wgt>
<wgt id='1426'> +2.8338268e+02 </wgt>
<wgt id='1427'> +3.0247323e+02 </wgt>
<wgt id='1428'> +2.7865639e+02 </wgt>
<wgt id='1429'> +2.7771114e+02 </wgt>
<wgt id='1430'> +2.7784586e+02 </wgt>
<wgt id='1431'> +2.7727770e+02 </wgt>
<wgt id='1432'> +2.7892464e+02 </wgt>
<wgt id='1433'> +2.7485493e+02 </wgt>
<wgt id='1434'> +2.8161407e+02 </wgt>
<wgt id='1435'> +2.7946506e+02 </wgt>
<wgt id='1436'> +2.7634765e+02 </wgt>
<wgt id='1437'> +2.8150101e+02 </wgt>
<wgt id='1438'> +2.7724565e+02 </wgt>
<wgt id='1439'> +2.7826923e+02 </wgt>
<wgt id='1440'> +2.7822103e+02 </wgt>
<wgt id='1441'> +2.7299738e+02 </wgt>
<wgt id='1442'> +2.7858755e+02 </wgt>
<wgt id='1443'> +2.8060137e+02 </wgt>
<wgt id='1444'> +2.7253855e+02 </wgt>
<wgt id='1445'> +2.7959956e+02 </wgt>
<wgt id='1446'> +2.7771282e+02 </wgt>
<wgt id='1447'> +2.7692676e+02 </wgt>
<wgt id='1448'> +2.8031481e+02 </wgt>
<wgt id='1449'> +2.7962230e+02 </wgt>
<wgt id='1450'> +2.7803015e+02 </wgt>
<wgt id='1451'> +2.7778590e+02 </wgt>
<wgt id='1452'> +2.7953365e+02 </wgt>
<wgt id='1453'> +2.7807800e+02 </wgt>
<wgt id='1454'> +2.7912972e+02 </wgt>
<wgt id='1455'> +2.8149423e+02 </wgt>
<wgt id='1456'> +2.7385758e+02 </wgt>
<wgt id='1457'> +2.7341112e+02 </wgt>
<wgt id='1458'> +2.8179219e+02 </wgt>
<wgt id='1459'> +2.7566331e+02 </wgt>
<wgt id='1460'> +2.8294770e+02 </wgt>
<wgt id='1461'> +2.7661104e+02 </wgt>
<wgt id='1462'> +2.8039342e+02 </wgt>
<wgt id='1463'> +2.7397958e+02 </wgt>
<wgt id='1464'> +2.8259766e+02 </wgt>
<wgt id='1465'> +2.7862191e+02 </wgt>
<wgt id='1466'> +2.7859725e+02 </wgt>
<wgt id='1467'> +2.8284709e+02 </wgt>
<wgt id='1468'> +2.7656833e+02 </wgt>
<wgt id='1469'> +2.7608908e+02 </wgt>
<wgt id='1470'> +2.7895529e+02 </wgt>
<wgt id='1471'> +2.8079130e+02 </wgt>
<wgt id='1472'> +2.7167820e+02 </wgt>
<wgt id='1473'> +2.8494207e+02 </wgt>
<wgt id='1474'> +2.7821188e+02 </wgt>
<wgt id='1475'> +2.7942737e+02 </wgt>
<wgt id='1476'> +2.8141288e+02 </wgt>
<wgt id='1477'> +2.7873306e+02 </wgt>
<wgt id='1478'> +2.7942329e+02 </wgt>
<wgt id='1479'> +2.7939223e+02 </wgt>
<wgt id='1480'> +2.7852022e+02 </wgt>
<wgt id='1481'> +2.7605526e+02 </wgt>
<wgt id='1482'> +2.8211314e+02 </wgt>
<wgt id='1483'> +2.7707244e+02 </wgt>
<wgt id='1484'> +2.8020502e+02 </wgt>
<wgt id='1485'> +2.6970211e+02 </wgt>
<wgt id='1486'> +2.8701589e+02 </wgt>
<wgt id='1487'> +2.8716272e+02 </wgt>
<wgt id='1488'> +2.8748204e+02 </wgt>
<wgt id='1489'> +2.8802391e+02 </wgt>
<wgt id='1490'> +2.9156102e+02 </wgt>
<wgt id='1491'> +2.8616087e+02 </wgt>
<wgt id='1492'> +2.8842727e+02 </wgt>
<wgt id='1493'> +2.8617436e+02 </wgt>
<wgt id='1494'> +2.8913002e+02 </wgt>
<wgt id='1495'> +2.8723489e+02 </wgt>
<wgt id='1496'> +2.8159046e+02 </wgt>
<wgt id='1497'> +2.9085100e+02 </wgt>
<wgt id='1498'> +2.9046830e+02 </wgt>
<wgt id='1499'> +2.8545228e+02 </wgt>
<wgt id='1500'> +2.7660783e+02 </wgt>
<wgt id='1501'> +2.9308839e+02 </wgt>
<wgt id='1502'> +2.8944721e+02 </wgt>
<wgt id='1503'> +2.8573514e+02 </wgt>
<wgt id='1504'> +2.8454928e+02 </wgt>
<wgt id='1505'> +2.9027717e+02 </wgt>
<wgt id='1506'> +2.9030680e+02 </wgt>
<wgt id='1507'> +2.8357888e+02 </wgt>
<wgt id='1508'> +2.8753239e+02 </wgt>
<wgt id='1509'> +2.8624715e+02 </wgt>
<wgt id='1510'> +2.8602180e+02 </wgt>
<wgt id='1511'> +2.8811394e+02 </wgt>
<wgt id='1512'> +2.8291211e+02 </wgt>
<wgt id='1513'> +2.9112361e+02 </wgt>
<wgt id='1514'> +2.8616099e+02 </wgt>
<wgt id='1515'> +2.8848723e+02 </wgt>
<wgt id='1516'> +2.8509530e+02 </wgt>
<wgt id='1517'> +2.8787205e+02 </wgt>
<wgt id='1518'> +2.8745256e+02 </wgt>
<wgt id='1519'> +2.8678289e+02 </wgt>
<wgt id='1520'> +2.8722275e+02 </wgt>
<wgt id='1521'> +2.8701004e+02 </wgt>
<wgt id='1522'> +2.9163477e+02 </wgt>
<wgt id='1523'> +2.8287055e+02 </wgt>
<wgt id='1524'> +2.8920300e+02 </wgt>
<wgt id='1525'> +2.8357821e+02 </wgt>
<wgt id='1526'> +2.8671798e+02 </wgt>
<wgt id='1527'> +2.8689363e+02 </wgt>
<wgt id='1528'> +2.8944404e+02 </wgt>
<wgt id='1529'> +2.8504692e+02 </wgt>
<wgt id='1530'> +2.8893788e+02 </wgt>
<wgt id='1531'> +2.8497369e+02 </wgt>
<wgt id='1532'> +2.8343974e+02 </wgt>
<wgt id='1533'> +2.8615589e+02 </wgt>
<wgt id='1534'> +2.8471010e+02 </wgt>
<wgt id='1535'> +2.8892377e+02 </wgt>
<wgt id='1536'> +2.8735245e+02 </wgt>
<wgt id='1537'> +2.8381943e+02 </wgt>
<wgt id='1538'> +2.8634590e+02 </wgt>
<wgt id='1539'> +2.8651641e+02 </wgt>
<wgt id='1540'> +2.7986986e+02 </wgt>
<wgt id='1541'> +2.8703176e+02 </wgt>
<wgt id='1542'> +2.8548157e+02 </wgt>
<wgt id='1543'> +2.8886954e+02 </wgt>
<wgt id='1544'> +2.7699648e+02 </wgt>
<wgt id='1545'> +2.9692535e+02 </wgt>
<wgt id='1546'> +3.0087304e+02 </wgt>
<wgt id='1547'> +2.8980635e+02 </wgt>
<wgt id='1548'> +2.9005100e+02 </wgt>
<wgt id='1549'> +2.8952735e+02 </wgt>
<wgt id='1550'> +2.8992557e+02 </wgt>
<wgt id='1551'> +2.8972132e+02 </wgt>
<wgt id='1552'> +2.9009463e+02 </wgt>
<wgt id='1553'> +2.8953530e+02 </wgt>
<wgt id='1554'> +2.8876076e+02 </wgt>
<wgt id='1555'> +2.9095799e+02 </wgt>
<wgt id='1556'> +2.9102166e+02 </wgt>
<wgt id='1557'> +2.8860592e+02 </wgt>
<wgt id='1558'> +2.9051205e+02 </wgt>
<wgt id='1559'> +2.8826867e+02 </wgt>
<wgt id='1560'> +2.8943447e+02 </wgt>
<wgt id='1561'> +2.9044773e+02 </wgt>
<wgt id='1562'> +2.8887553e+02 </wgt>
<wgt id='1563'> +2.9031572e+02 </wgt>
<wgt id='1564'> +2.8804535e+02 </wgt>
<wgt id='1565'> +2.9187439e+02 </wgt>
<wgt id='1566'> +2.9012702e+02 </wgt>
<wgt id='1567'> +2.8952023e+02 </wgt>
<wgt id='1568'> +2.8917191e+02 </wgt>
<wgt id='1569'> +2.9065086e+02 </wgt>
<wgt id='1570'> +2.8775323e+02 </wgt>
<wgt id='1571'> +2.9127062e+02 </wgt>
<wgt id='1572'> +2.8778489e+02 </wgt>
<wgt id='1573'> +2.9087581e+02 </wgt>
<wgt id='1574'> +2.9072012e+02 </wgt>
<wgt id='1575'> +2.8982854e+02 </wgt>
<wgt id='1576'> +2.9141503e+02 </wgt>
<wgt id='1577'> +2.8792687e+02 </wgt>
<wgt id='1578'> +2.9034304e+02 </wgt>
<wgt id='1579'> +2.8904980e+02 </wgt>
<wgt id='1580'> +2.9025595e+02 </wgt>
<wgt id='1581'> +2.8932344e+02 </wgt>
<wgt id='1582'> +2.8967697e+02 </wgt>
<wgt id='1583'> +2.9075000e+02 </wgt>
<wgt id='1584'> +2.9037350e+02 </wgt>
<wgt id='1585'> +2.8980912e+02 </wgt>
<wgt id='1586'> +2.8950495e+02 </wgt>
<wgt id='1587'> +2.9011732e+02 </wgt>
<wgt id='1588'> +2.8951261e+02 </wgt>
<wgt id='1589'> +2.9019435e+02 </wgt>
<wgt id='1590'> +2.9383362e+02 </wgt>
<wgt id='1591'> +2.8813378e+02 </wgt>
<wgt id='1592'> +2.8957819e+02 </wgt>
<wgt id='1593'> +2.9036913e+02 </wgt>
<wgt id='1594'> +2.8991772e+02 </wgt>
<wgt id='1595'> +2.8788064e+02 </wgt>
<wgt id='1596'> +2.8989806e+02 </wgt>
<wgt id='1597'> +2.8965071e+02 </wgt>
<wgt id='1598'> +2.7912620e+02 </wgt>
<wgt id='1599'> +2.7922771e+02 </wgt>
<wgt id='1600'> +2.7897364e+02 </wgt>
<wgt id='1601'> +2.7985667e+02 </wgt>
<wgt id='1602'> +2.7841221e+02 </wgt>
<wgt id='1603'> +2.7953889e+02 </wgt>
<wgt id='1604'> +2.7895814e+02 </wgt>
<wgt id='1605'> +2.7787448e+02 </wgt>
<wgt id='1606'> +2.8036941e+02 </wgt>
<wgt id='1607'> +2.7970964e+02 </wgt>
<wgt id='1608'> +2.7854562e+02 </wgt>
<wgt id='1609'> +2.7596616e+02 </wgt>
<wgt id='1610'> +2.8048629e+02 </wgt>
<wgt id='1611'> +2.7913538e+02 </wgt>
<wgt id='1612'> +2.7910904e+02 </wgt>
<wgt id='1613'> +2.7814950e+02 </wgt>
<wgt id='1614'> +2.8015399e+02 </wgt>
<wgt id='1615'> +2.7749099e+02 </wgt>
<wgt id='1616'> +2.7998600e+02 </wgt>
<wgt id='1617'> +2.7869086e+02 </wgt>
<wgt id='1618'> +2.7972713e+02 </wgt>
<wgt id='1619'> +2.7922965e+02 </wgt>
<wgt id='1620'> +2.7904309e+02 </wgt>
<wgt id='1621'> +2.8118858e+02 </wgt>
<wgt id='1622'> +2.7692897e+02 </wgt>
<wgt id='1623'> +2.8009277e+02 </wgt>
<wgt id='1624'> +2.7673473e+02 </wgt>
<wgt id='1625'> +2.8037358e+02 </wgt>
<wgt id='1626'> +2.7875480e+02 </wgt>
<wgt id='1627'> +2.7799945e+02 </wgt>
<wgt id='1628'> +2.8180989e+02 </wgt>
<wgt id='1629'> +2.7920257e+02 </wgt>
<wgt id='1630'> +2.7905545e+02 </wgt>
<wgt id='1631'> +2.7878252e+02 </wgt>
<wgt id='1632'> +2.7998050e+02 </wgt>
<wgt id='1633'> +2.7987784e+02 </wgt>
<wgt id='1634'> +2.7899401e+02 </wgt>
<wgt id='1635'> +2.7924043e+02 </wgt>
<wgt id='1636'> +2.7926971e+02 </wgt>
<wgt id='1637'> +2.7883336e+02 </wgt>
<wgt id='1638'> +2.7930553e+02 </wgt>
<wgt id='1639'> +2.7855881e+02 </wgt>
<wgt id='1640'> +2.7967677e+02 </wgt>
<wgt id='1641'> +2.7933157e+02 </wgt>
<wgt id='1642'> +2.7788973e+02 </wgt>
<wgt id='1643'> +2.7724593e+02 </wgt>
<wgt id='1644'> +2.7991556e+02 </wgt>
<wgt id='1645'> +2.7942014e+02 </wgt>
<wgt id='1646'> +2.7892952e+02 </wgt>
<wgt id='1647'> +2.7899616e+02 </wgt>
<wgt id='1648'> +2.7892185e+02 </wgt>
<wgt id='1649'> +4.7394553e+02 </wgt>
<wgt id='1650'> +2.8410465e+02 </wgt>
<wgt id='1651'> +2.8401112e+02 </wgt>
<wgt id='1652'> +2.8418467e+02 </wgt>
<wgt id='1653'> +2.8413129e+02 </wgt>
<wgt id='1654'> +2.8409611e+02 </wgt>
<wgt id='1655'> +2.8339481e+02 </wgt>
<wgt id='1656'> +2.8387293e+02 </wgt>
<wgt id='1657'> +2.8361284e+02 </wgt>
<wgt id='1658'> +2.8458171e+02 </wgt>
<wgt id='1659'> +2.8511805e+02 </wgt>
<wgt id='1660'> +2.8416150e+02 </wgt>
<wgt id='1661'> +2.8393310e+02 </wgt>
<wgt id='1662'> +2.8389598e+02 </wgt>
<wgt id='1663'> +2.8408103e+02 </wgt>
<wgt id='1664'> +2.8384861e+02 </wgt>
<wgt id='1665'> +2.8385782e+02 </wgt>
<wgt id='1666'> +2.8418825e+02 </wgt>
<wgt id='1667'> +2.8409787e+02 </wgt>
<wgt id='1668'> +2.8404558e+02 </wgt>
<wgt id='1669'> +2.8449653e+02 </wgt>
<wgt id='1670'> +2.8326887e+02 </wgt>
<wgt id='1671'> +2.8412953e+02 </wgt>
<wgt id='1672'> +2.8257667e+02 </wgt>
<wgt id='1673'> +2.8438040e+02 </wgt>
<wgt id='1674'> +2.8468431e+02 </wgt>
<wgt id='1675'> +2.8499693e+02 </wgt>
<wgt id='1676'> +2.8465047e+02 </wgt>
<wgt id='1677'> +2.8360473e+02 </wgt>
<wgt id='1678'> +2.8438870e+02 </wgt>
<wgt id='1679'> +2.8204546e+02 </wgt>
<wgt id='1680'> +2.8759358e+02 </wgt>
<wgt id='1681'> +2.8682485e+02 </wgt>
<wgt id='1682'> +2.8885376e+02 </wgt>
<wgt id='1683'> +2.8910327e+02 </wgt>
<wgt id='1684'> +2.8720474e+02 </wgt>
<wgt id='1685'> +2.8724446e+02 </wgt>
<wgt id='1686'> +2.8663948e+02 </wgt>
<wgt id='1687'> +2.8966467e+02 </wgt>
<wgt id='1688'> +2.9099777e+02 </wgt>
<wgt id='1689'> +2.8639319e+02 </wgt>
<wgt id='1690'> +2.9110941e+02 </wgt>
<wgt id='1691'> +2.8775681e+02 </wgt>
<wgt id='1692'> +2.8481787e+02 </wgt>
<wgt id='1693'> +2.8797984e+02 </wgt>
<wgt id='1694'> +2.8581189e+02 </wgt>
<wgt id='1695'> +2.8780916e+02 </wgt>
<wgt id='1696'> +2.8841088e+02 </wgt>
<wgt id='1697'> +2.8670158e+02 </wgt>
<wgt id='1698'> +2.8694568e+02 </wgt>
<wgt id='1699'> +2.8702589e+02 </wgt>
<wgt id='1700'> +2.8784633e+02 </wgt>
<wgt id='1701'> +2.8604267e+02 </wgt>
<wgt id='1702'> +2.8779941e+02 </wgt>
<wgt id='1703'> +2.8707394e+02 </wgt>
<wgt id='1704'> +2.8748895e+02 </wgt>
<wgt id='1705'> +2.8726671e+02 </wgt>
<wgt id='1706'> +2.8722768e+02 </wgt>
<wgt id='1707'> +2.8772004e+02 </wgt>
<wgt id='1708'> +2.8679508e+02 </wgt>
<wgt id='1709'> +2.8739533e+02 </wgt>
<wgt id='1710'> +2.8744876e+02 </wgt>
<wgt id='1711'> +2.8748731e+02 </wgt>
<wgt id='1712'> +2.8764320e+02 </wgt>
<wgt id='1713'> +2.8702403e+02 </wgt>
<wgt id='1714'> +2.8767503e+02 </wgt>
<wgt id='1715'> +2.8824744e+02 </wgt>
<wgt id='1716'> +2.8735467e+02 </wgt>
<wgt id='1717'> +2.8770226e+02 </wgt>
<wgt id='1718'> +2.8730665e+02 </wgt>
<wgt id='1719'> +2.8761354e+02 </wgt>
<wgt id='1720'> +2.8759060e+02 </wgt>
<wgt id='1721'> +2.8769715e+02 </wgt>
<wgt id='1722'> +2.8779010e+02 </wgt>
<wgt id='1723'> +2.8737061e+02 </wgt>
<wgt id='1724'> +2.8781348e+02 </wgt>
<wgt id='1725'> +2.8782489e+02 </wgt>
<wgt id='1726'> +2.8788680e+02 </wgt>
<wgt id='1727'> +2.8740480e+02 </wgt>
<wgt id='1728'> +2.8728758e+02 </wgt>
<wgt id='1729'> +2.8758110e+02 </wgt>
<wgt id='1730'> +2.8766237e+02 </wgt>
<wgt id='1731'> +2.8729817e+02 </wgt>
<wgt id='1732'> +2.8768253e+02 </wgt>
<wgt id='1733'> +2.8750298e+02 </wgt>
<wgt id='1734'> +2.8749238e+02 </wgt>
<wgt id='1735'> +2.8760272e+02 </wgt>
<wgt id='1736'> +2.8759229e+02 </wgt>
<wgt id='1737'> +2.8749511e+02 </wgt>
<wgt id='1738'> +2.8789190e+02 </wgt>
<wgt id='1739'> +2.8742501e+02 </wgt>
<wgt id='1740'> +2.8728961e+02 </wgt>
<wgt id='1741'> +2.8750738e+02 </wgt>
<wgt id='1742'> +2.8735342e+02 </wgt>
<wgt id='1743'> +2.8761408e+02 </wgt>
<wgt id='1744'> +2.8752923e+02 </wgt>
<wgt id='1745'> +2.8755938e+02 </wgt>
<wgt id='1746'> +2.8752137e+02 </wgt>
<wgt id='1747'> +2.8756269e+02 </wgt>
<wgt id='1748'> +2.8768221e+02 </wgt>
<wgt id='1749'> +2.8766027e+02 </wgt>
<wgt id='1750'> +2.8758850e+02 </wgt>
<wgt id='1751'> +2.8749690e+02 </wgt>
<wgt id='1752'> +2.8751414e+02 </wgt>
<wgt id='1753'> +2.8745484e+02 </wgt>
<wgt id='1754'> +2.8769645e+02 </wgt>
<wgt id='1755'> +2.8757238e+02 </wgt>
<wgt id='1756'> +2.8755855e+02 </wgt>
<wgt id='1757'> +2.8759536e+02 </wgt>
<wgt id='1758'> +2.8764020e+02 </wgt>
<wgt id='1759'> +2.8776196e+02 </wgt>
<wgt id='1760'> +2.8759640e+02 </wgt>
<wgt id='1761'> +2.8761895e+02 </wgt>
<wgt id='1762'> +2.8740494e+02 </wgt>
<wgt id='1763'> +2.8772323e+02 </wgt>
<wgt id='1764'> +2.8764649e+02 </wgt>
<wgt id='1765'> +2.8764345e+02 </wgt>
<wgt id='1766'> +2.8771362e+02 </wgt>
<wgt id='1767'> +2.8753962e+02 </wgt>
<wgt id='1768'> +2.8750978e+02 </wgt>
<wgt id='1769'> +2.8761223e+02 </wgt>
<wgt id='1770'> +2.8754978e+02 </wgt>
<wgt id='1771'> +2.8756762e+02 </wgt>
<wgt id='1772'> +2.8759279e+02 </wgt>
<wgt id='1773'> +2.8747419e+02 </wgt>
<wgt id='1774'> +2.8764465e+02 </wgt>
<wgt id='1775'> +2.8763146e+02 </wgt>
<wgt id='1776'> +2.8750597e+02 </wgt>
<wgt id='1777'> +2.8763335e+02 </wgt>
<wgt id='1778'> +2.8766276e+02 </wgt>
<wgt id='1779'> +2.8764012e+02 </wgt>
<wgt id='1780'> +2.8758871e+02 </wgt>
<wgt id='1781'> +2.8036629e+02 </wgt>
<wgt id='1782'> +2.9422720e+02 </wgt>
<wgt id='1783'> +2.8014625e+02 </wgt>
<wgt id='1784'> +2.8041745e+02 </wgt>
<wgt id='1785'> +2.8103082e+02 </wgt>
<wgt id='1786'> +2.7860331e+02 </wgt>
<wgt id='1787'> +2.7975546e+02 </wgt>
<wgt id='1788'> +2.8053834e+02 </wgt>
<wgt id='1789'> +2.8015655e+02 </wgt>
<wgt id='1790'> +2.8142985e+02 </wgt>
<wgt id='1791'> +2.8097503e+02 </wgt>
<wgt id='1792'> +2.7984824e+02 </wgt>
<wgt id='1793'> +2.7961734e+02 </wgt>
<wgt id='1794'> +2.8289874e+02 </wgt>
<wgt id='1795'> +2.7733133e+02 </wgt>
<wgt id='1796'> +2.7678939e+02 </wgt>
<wgt id='1797'> +2.7763553e+02 </wgt>
<wgt id='1798'> +2.8005673e+02 </wgt>
<wgt id='1799'> +2.8215508e+02 </wgt>
<wgt id='1800'> +2.8006519e+02 </wgt>
<wgt id='1801'> +2.7964648e+02 </wgt>
<wgt id='1802'> +2.7963724e+02 </wgt>
<wgt id='1803'> +2.8139835e+02 </wgt>
<wgt id='1804'> +2.7965223e+02 </wgt>
<wgt id='1805'> +2.8049382e+02 </wgt>
<wgt id='1806'> +2.7977031e+02 </wgt>
<wgt id='1807'> +2.7976999e+02 </wgt>
<wgt id='1808'> +2.8048521e+02 </wgt>
<wgt id='1809'> +2.8015083e+02 </wgt>
<wgt id='1810'> +2.7978605e+02 </wgt>
<wgt id='1811'> +2.8042335e+02 </wgt>
<wgt id='1812'> +2.8042762e+02 </wgt>
<wgt id='1813'> +2.8018395e+02 </wgt>
<wgt id='1814'> +2.8012691e+02 </wgt>
<wgt id='1815'> +2.8038282e+02 </wgt>
<wgt id='1816'> +2.8050746e+02 </wgt>
<wgt id='1817'> +2.7998650e+02 </wgt>
<wgt id='1818'> +2.8061614e+02 </wgt>
<wgt id='1819'> +2.8015430e+02 </wgt>
<wgt id='1820'> +2.8042083e+02 </wgt>
<wgt id='1821'> +2.8016313e+02 </wgt>
<wgt id='1822'> +2.8018079e+02 </wgt>
<wgt id='1823'> +2.7983635e+02 </wgt>
<wgt id='1824'> +2.7998935e+02 </wgt>
<wgt id='1825'> +2.8007496e+02 </wgt>
<wgt id='1826'> +2.7998274e+02 </wgt>
<wgt id='1827'> +2.8023249e+02 </wgt>
<wgt id='1828'> +2.8009355e+02 </wgt>
<wgt id='1829'> +2.7979545e+02 </wgt>
<wgt id='1830'> +2.7999683e+02 </wgt>
<wgt id='1831'> +2.8023752e+02 </wgt>
<wgt id='1832'> +2.7998008e+02 </wgt>
<wgt id='1833'> +2.8020917e+02 </wgt>
<wgt id='1834'> +2.8026981e+02 </wgt>
<wgt id='1835'> +2.8019706e+02 </wgt>
<wgt id='1836'> +2.8019990e+02 </wgt>
<wgt id='1837'> +2.8001921e+02 </wgt>
<wgt id='1838'> +2.8009407e+02 </wgt>
<wgt id='1839'> +2.8038367e+02 </wgt>
<wgt id='1840'> +2.8011972e+02 </wgt>
<wgt id='1841'> +2.7997592e+02 </wgt>
<wgt id='1842'> +2.8004007e+02 </wgt>
<wgt id='1843'> +2.8006084e+02 </wgt>
<wgt id='1844'> +2.8019039e+02 </wgt>
<wgt id='1845'> +2.8018264e+02 </wgt>
<wgt id='1846'> +2.8027655e+02 </wgt>
<wgt id='1847'> +2.8007159e+02 </wgt>
<wgt id='1848'> +2.8014636e+02 </wgt>
<wgt id='1849'> +2.8018168e+02 </wgt>
<wgt id='1850'> +2.8023283e+02 </wgt>
<wgt id='1851'> +2.8023920e+02 </wgt>
<wgt id='1852'> +2.8028411e+02 </wgt>
<wgt id='1853'> +2.8011475e+02 </wgt>
<wgt id='1854'> +2.8031334e+02 </wgt>
<wgt id='1855'> +2.8030913e+02 </wgt>
<wgt id='1856'> +2.8006322e+02 </wgt>
<wgt id='1857'> +2.8018563e+02 </wgt>
<wgt id='1858'> +2.8012623e+02 </wgt>
<wgt id='1859'> +2.8013319e+02 </wgt>
<wgt id='1860'> +2.8018636e+02 </wgt>
<wgt id='1861'> +2.8018424e+02 </wgt>
<wgt id='1862'> +2.8009887e+02 </wgt>
<wgt id='1863'> +2.8031074e+02 </wgt>
<wgt id='1864'> +2.8012231e+02 </wgt>
<wgt id='1865'> +2.8021219e+02 </wgt>
<wgt id='1866'> +2.8005462e+02 </wgt>
<wgt id='1867'> +2.8006643e+02 </wgt>
<wgt id='1868'> +2.8008627e+02 </wgt>
<wgt id='1869'> +2.8018724e+02 </wgt>
<wgt id='1870'> +2.7998247e+02 </wgt>
<wgt id='1871'> +2.8008645e+02 </wgt>
<wgt id='1872'> +2.8008258e+02 </wgt>
<wgt id='1873'> +2.8018919e+02 </wgt>
<wgt id='1874'> +2.8012023e+02 </wgt>
<wgt id='1875'> +2.8013912e+02 </wgt>
<wgt id='1876'> +2.8010530e+02 </wgt>
<wgt id='1877'> +2.8012730e+02 </wgt>
<wgt id='1878'> +2.8017886e+02 </wgt>
<wgt id='1879'> +2.8009098e+02 </wgt>
<wgt id='1880'> +2.8016032e+02 </wgt>
<wgt id='1881'> +2.8014955e+02 </wgt>
<wgt id='1882'> +2.8008997e+02 </wgt>
<wgt id='1883'> +2.8014104e+02 </wgt>
<wgt id='1884'> +2.7420462e+02 </wgt>
<wgt id='1885'> +2.8566986e+02 </wgt>
<wgt id='1886'> +2.8787962e+02 </wgt>
<wgt id='1887'> +2.8882283e+02 </wgt>
<wgt id='1888'> +2.8760001e+02 </wgt>
<wgt id='1889'> +2.8788738e+02 </wgt>
<wgt id='1890'> +2.8872681e+02 </wgt>
<wgt id='1891'> +2.9433833e+02 </wgt>
<wgt id='1892'> +2.8775048e+02 </wgt>
<wgt id='1893'> +2.8774214e+02 </wgt>
<wgt id='1894'> +2.8821186e+02 </wgt>
<wgt id='1895'> +2.8762212e+02 </wgt>
<wgt id='1896'> +2.8798019e+02 </wgt>
<wgt id='1897'> +2.8788914e+02 </wgt>
<wgt id='1898'> +2.8731695e+02 </wgt>
<wgt id='1899'> +2.8778237e+02 </wgt>
<wgt id='1900'> +2.8788383e+02 </wgt>
<wgt id='1901'> +2.8826954e+02 </wgt>
<wgt id='1902'> +2.8798485e+02 </wgt>
<wgt id='1903'> +2.8520673e+02 </wgt>
<wgt id='1904'> +2.8810334e+02 </wgt>
<wgt id='1905'> +2.8756604e+02 </wgt>
<wgt id='1906'> +2.8783645e+02 </wgt>
<wgt id='1907'> +2.8784572e+02 </wgt>
<wgt id='1908'> +2.8776778e+02 </wgt>
<wgt id='1909'> +2.8794649e+02 </wgt>
<wgt id='1910'> +2.8775168e+02 </wgt>
<wgt id='1911'> +2.8774235e+02 </wgt>
<wgt id='1912'> +2.8809897e+02 </wgt>
<wgt id='1913'> +2.8809688e+02 </wgt>
<wgt id='1914'> +2.8903489e+02 </wgt>
<wgt id='1915'> +2.8818724e+02 </wgt>
<wgt id='1916'> +2.8780765e+02 </wgt>
<wgt id='1917'> +2.8036629e+02 </wgt>
<wgt id='1918'> +2.9422720e+02 </wgt>
<wgt id='1919'> +2.8039543e+02 </wgt>
<wgt id='1920'> +2.8014079e+02 </wgt>
<wgt id='1921'> +2.8121436e+02 </wgt>
<wgt id='1922'> +2.8007124e+02 </wgt>
<wgt id='1923'> +2.8098063e+02 </wgt>
<wgt id='1924'> +2.7706572e+02 </wgt>
<wgt id='1925'> +2.8043584e+02 </wgt>
<wgt id='1926'> +2.7977861e+02 </wgt>
<wgt id='1927'> +2.7960178e+02 </wgt>
<wgt id='1928'> +2.7935395e+02 </wgt>
<wgt id='1929'> +2.8261812e+02 </wgt>
<wgt id='1930'> +2.7921263e+02 </wgt>
<wgt id='1931'> +2.8062342e+02 </wgt>
<wgt id='1932'> +2.8120614e+02 </wgt>
<wgt id='1933'> +2.7975647e+02 </wgt>
<wgt id='1934'> +2.8013736e+02 </wgt>
<wgt id='1935'> +2.8011753e+02 </wgt>
<wgt id='1936'> +2.8229300e+02 </wgt>
<wgt id='1937'> +2.8033644e+02 </wgt>
<wgt id='1938'> +2.8028719e+02 </wgt>
<wgt id='1939'> +2.8087136e+02 </wgt>
<wgt id='1940'> +2.8105165e+02 </wgt>
<wgt id='1941'> +2.8496967e+02 </wgt>
<wgt id='1942'> +2.8039917e+02 </wgt>
<wgt id='1943'> +2.8038340e+02 </wgt>
<wgt id='1944'> +2.8011725e+02 </wgt>
<wgt id='1945'> +2.8044659e+02 </wgt>
<wgt id='1946'> +2.8031474e+02 </wgt>
<wgt id='1947'> +2.8042464e+02 </wgt>
<wgt id='1948'> +2.8040889e+02 </wgt>
<wgt id='1949'> +2.8040074e+02 </wgt>
<wgt id='1950'> +2.7420462e+02 </wgt>
<wgt id='1951'> +2.8566986e+02 </wgt>
<wgt id='1952'> +3.0650916e+02 </wgt>
<wgt id='1953'> +3.0611724e+02 </wgt>
<wgt id='1954'> +3.0689890e+02 </wgt>
<wgt id='1955'> +3.0738493e+02 </wgt>
<wgt id='1956'> +3.0563478e+02 </wgt>
<wgt id='1957'> +3.0693112e+02 </wgt>
<wgt id='1958'> +3.0608688e+02 </wgt>
<wgt id='1959'> +3.0705345e+02 </wgt>
<wgt id='1960'> +3.0598266e+02 </wgt>
<wgt id='1961'> +3.0702000e+02 </wgt>
<wgt id='1962'> +3.0600751e+02 </wgt>
<wgt id='1963'> +3.0587099e+02 </wgt>
<wgt id='1964'> +3.0711287e+02 </wgt>
<wgt id='1965'> +3.0544378e+02 </wgt>
<wgt id='1966'> +3.0758065e+02 </wgt>
<wgt id='1967'> +3.0659528e+02 </wgt>
<wgt id='1968'> +3.0638397e+02 </wgt>
<wgt id='1969'> +3.0739737e+02 </wgt>
<wgt id='1970'> +3.0536403e+02 </wgt>
<wgt id='1971'> +3.0565948e+02 </wgt>
<wgt id='1972'> +3.0739836e+02 </wgt>
<wgt id='1973'> +3.0760318e+02 </wgt>
<wgt id='1974'> +3.0503233e+02 </wgt>
<wgt id='1975'> +3.0517365e+02 </wgt>
<wgt id='1976'> +3.0625836e+02 </wgt>
<wgt id='1977'> +3.0709433e+02 </wgt>
<wgt id='1978'> +3.0639330e+02 </wgt>
<wgt id='1979'> +3.0643675e+02 </wgt>
<wgt id='1980'> +3.0685953e+02 </wgt>
<wgt id='1981'> +3.0650916e+02 </wgt>
<wgt id='1982'> +3.0624598e+02 </wgt>
<wgt id='1983'> +3.0667242e+02 </wgt>
<wgt id='1984'> +3.0616585e+02 </wgt>
<wgt id='1985'> +3.0663043e+02 </wgt>
<wgt id='1986'> +3.0770349e+02 </wgt>
<wgt id='1987'> +3.0488726e+02 </wgt>
<wgt id='1988'> +3.0536334e+02 </wgt>
<wgt id='1989'> +3.0759633e+02 </wgt>
<wgt id='1990'> +3.0561717e+02 </wgt>
<wgt id='1991'> +3.0751191e+02 </wgt>
<wgt id='1992'> +3.0641361e+02 </wgt>
<wgt id='1993'> +3.0734893e+02 </wgt>
<wgt id='1994'> +3.0383882e+02 </wgt>
<wgt id='1995'> +2.8614216e+02 </wgt>
<wgt id='1996'> +2.8595421e+02 </wgt>
<wgt id='1997'> +2.8629941e+02 </wgt>
<wgt id='1998'> +2.8668010e+02 </wgt>
<wgt id='1999'> +2.8557429e+02 </wgt>
<wgt id='2000'> +2.8683932e+02 </wgt>
<wgt id='2001'> +2.8541623e+02 </wgt>
<wgt id='2002'> +2.8709930e+02 </wgt>
<wgt id='2003'> +2.8517379e+02 </wgt>
<wgt id='2004'> +2.8619623e+02 </wgt>
<wgt id='2005'> +2.8606211e+02 </wgt>
<wgt id='2006'> +2.8681289e+02 </wgt>
<wgt id='2007'> +2.8544150e+02 </wgt>
<wgt id='2008'> +2.8532198e+02 </wgt>
<wgt id='2009'> +2.8694253e+02 </wgt>
<wgt id='2010'> +2.8592035e+02 </wgt>
<wgt id='2011'> +2.8648812e+02 </wgt>
<wgt id='2012'> +2.8588154e+02 </wgt>
<wgt id='2013'> +2.8630796e+02 </wgt>
<wgt id='2014'> +2.8576488e+02 </wgt>
<wgt id='2015'> +2.8645878e+02 </wgt>
<wgt id='2016'> +2.8399975e+02 </wgt>
<wgt id='2017'> +2.8781511e+02 </wgt>
<wgt id='2018'> +2.8601324e+02 </wgt>
<wgt id='2019'> +2.8619605e+02 </wgt>
<wgt id='2020'> +2.8531751e+02 </wgt>
<wgt id='2021'> +2.8618692e+02 </wgt>
<wgt id='2022'> +2.8619671e+02 </wgt>
<wgt id='2023'> +2.8639169e+02 </wgt>
<wgt id='2024'> +2.8616321e+02 </wgt>
<wgt id='2025'> +2.8616170e+02 </wgt>
<wgt id='2026'> +2.8557266e+02 </wgt>
<wgt id='2027'> +2.8606737e+02 </wgt>
<wgt id='2028'> +2.8610993e+02 </wgt>
<wgt id='2029'> +2.8536706e+02 </wgt>
<wgt id='2030'> +2.8679653e+02 </wgt>
<wgt id='2031'> +2.8516652e+02 </wgt>
<wgt id='2032'> +2.8759054e+02 </wgt>
<wgt id='2033'> +2.8500090e+02 </wgt>
<wgt id='2034'> +2.8657434e+02 </wgt>
<wgt id='2035'> +2.8529773e+02 </wgt>
<wgt id='2036'> +2.8845980e+02 </wgt>
<wgt id='2037'> +2.8480939e+02 </wgt>
<wgt id='2038'> +2.8611940e+02 </wgt>
<wgt id='2039'> +2.8607277e+02 </wgt>
<wgt id='2040'> +2.8602505e+02 </wgt>
<wgt id='2041'> +2.8597894e+02 </wgt>
<wgt id='2042'> +2.8593363e+02 </wgt>
<wgt id='2043'> +2.8588545e+02 </wgt>
<wgt id='2044'> +2.8583964e+02 </wgt>
<wgt id='2045'> +2.8579176e+02 </wgt>
<wgt id='2046'> +2.8574568e+02 </wgt>
<wgt id='2047'> +2.8569796e+02 </wgt>
<wgt id='2048'> +2.8565137e+02 </wgt>
<wgt id='2049'> +2.8560598e+02 </wgt>
<wgt id='2050'> +2.8555708e+02 </wgt>
<wgt id='2051'> +2.8551107e+02 </wgt>
<wgt id='2052'> +2.8546373e+02 </wgt>
<wgt id='2053'> +2.8541806e+02 </wgt>
<wgt id='2054'> +2.8537048e+02 </wgt>
<wgt id='2055'> +2.8532377e+02 </wgt>
<wgt id='2056'> +2.8527828e+02 </wgt>
<wgt id='2057'> +2.8522984e+02 </wgt>
<wgt id='2058'> +2.8518333e+02 </wgt>
<wgt id='2059'> +2.8513794e+02 </wgt>
<wgt id='2060'> +2.8509127e+02 </wgt>
<wgt id='2061'> +2.8504345e+02 </wgt>
<wgt id='2062'> +2.8499636e+02 </wgt>
<wgt id='2063'> +2.8495105e+02 </wgt>
<wgt id='2064'> +2.8490301e+02 </wgt>
<wgt id='2065'> +2.8485634e+02 </wgt>
<wgt id='2066'> +2.8481031e+02 </wgt>
<wgt id='2067'> +2.8476217e+02 </wgt>
<wgt id='2068'> +2.8471554e+02 </wgt>
<wgt id='2069'> +2.7703145e+02 </wgt>
<wgt id='2070'> +2.7735136e+02 </wgt>
<wgt id='2071'> +2.7792019e+02 </wgt>
<wgt id='2072'> +2.7550611e+02 </wgt>
<wgt id='2073'> +2.7665810e+02 </wgt>
<wgt id='2074'> +2.7742065e+02 </wgt>
<wgt id='2075'> +2.7700807e+02 </wgt>
<wgt id='2076'> +2.7826423e+02 </wgt>
<wgt id='2077'> +2.7784249e+02 </wgt>
<wgt id='2078'> +2.7672982e+02 </wgt>
<wgt id='2079'> +2.7651050e+02 </wgt>
<wgt id='2080'> +2.7971260e+02 </wgt>
<wgt id='2081'> +2.7423297e+02 </wgt>
<wgt id='2082'> +2.7368217e+02 </wgt>
<wgt id='2083'> +2.7455226e+02 </wgt>
<wgt id='2084'> +2.7701221e+02 </wgt>
<wgt id='2085'> +2.7897117e+02 </wgt>
<wgt id='2086'> +2.7697137e+02 </wgt>
<wgt id='2087'> +2.7655904e+02 </wgt>
<wgt id='2088'> +2.7650698e+02 </wgt>
<wgt id='2089'> +2.7823081e+02 </wgt>
<wgt id='2090'> +2.7654411e+02 </wgt>
<wgt id='2091'> +2.7739398e+02 </wgt>
<wgt id='2092'> +2.7661540e+02 </wgt>
<wgt id='2093'> +2.7666935e+02 </wgt>
<wgt id='2094'> +2.7741786e+02 </wgt>
<wgt id='2095'> +2.7706861e+02 </wgt>
<wgt id='2096'> +2.7662269e+02 </wgt>
<wgt id='2097'> +2.7729431e+02 </wgt>
<wgt id='2098'> +2.7733069e+02 </wgt>
<wgt id='2099'> +2.7708659e+02 </wgt>
<wgt id='2100'> +2.7695934e+02 </wgt>
<wgt id='2101'> +2.7727809e+02 </wgt>
<wgt id='2102'> +2.7740288e+02 </wgt>
<wgt id='2103'> +2.7687798e+02 </wgt>
<wgt id='2104'> +2.7750748e+02 </wgt>
<wgt id='2105'> +2.7703415e+02 </wgt>
<wgt id='2106'> +2.7730358e+02 </wgt>
<wgt id='2107'> +2.7705663e+02 </wgt>
<wgt id='2108'> +2.7707848e+02 </wgt>
<wgt id='2109'> +2.7672253e+02 </wgt>
<wgt id='2110'> +2.7689006e+02 </wgt>
<wgt id='2111'> +2.7697207e+02 </wgt>
<wgt id='2112'> +2.7684202e+02 </wgt>
<wgt id='2113'> +2.7712503e+02 </wgt>
<wgt id='2114'> +2.7698696e+02 </wgt>
<wgt id='2115'> +2.7667044e+02 </wgt>
<wgt id='2116'> +2.7689307e+02 </wgt>
<wgt id='2117'> +2.7711401e+02 </wgt>
<wgt id='2118'> +2.7687247e+02 </wgt>
<wgt id='2119'> +2.7709025e+02 </wgt>
<wgt id='2120'> +2.7715502e+02 </wgt>
<wgt id='2121'> +2.7708612e+02 </wgt>
<wgt id='2122'> +2.7707945e+02 </wgt>
<wgt id='2123'> +2.7689778e+02 </wgt>
<wgt id='2124'> +2.7697490e+02 </wgt>
<wgt id='2125'> +2.7728018e+02 </wgt>
<wgt id='2126'> +2.7700338e+02 </wgt>
<wgt id='2127'> +2.7684666e+02 </wgt>
<wgt id='2128'> +2.7691679e+02 </wgt>
<wgt id='2129'> +2.7694094e+02 </wgt>
<wgt id='2130'> +2.7707156e+02 </wgt>
<wgt id='2131'> +2.7707122e+02 </wgt>
<wgt id='2132'> +2.7716645e+02 </wgt>
<wgt id='2133'> +2.7695491e+02 </wgt>
<wgt id='2134'> +2.7703227e+02 </wgt>
<wgt id='2135'> +2.7706614e+02 </wgt>
<wgt id='2136'> +2.7712325e+02 </wgt>
<wgt id='2137'> +2.7712251e+02 </wgt>
<wgt id='2138'> +2.7717712e+02 </wgt>
<wgt id='2139'> +2.7700340e+02 </wgt>
<wgt id='2140'> +2.7719434e+02 </wgt>
<wgt id='2141'> +2.7719720e+02 </wgt>
<wgt id='2142'> +2.7695184e+02 </wgt>
<wgt id='2143'> +2.7707294e+02 </wgt>
<wgt id='2144'> +2.7701080e+02 </wgt>
<wgt id='2145'> +2.7700790e+02 </wgt>
<wgt id='2146'> +2.7707023e+02 </wgt>
<wgt id='2147'> +2.7706195e+02 </wgt>
<wgt id='2148'> +2.7698184e+02 </wgt>
<wgt id='2149'> +2.7720332e+02 </wgt>
<wgt id='2150'> +2.7699914e+02 </wgt>
<wgt id='2151'> +2.7709483e+02 </wgt>
<wgt id='2152'> +2.7694153e+02 </wgt>
<wgt id='2153'> +2.7695699e+02 </wgt>
<wgt id='2154'> +2.7696785e+02 </wgt>
<wgt id='2155'> +2.7706279e+02 </wgt>
<wgt id='2156'> +2.7687301e+02 </wgt>
<wgt id='2157'> +2.7697697e+02 </wgt>
<wgt id='2158'> +2.7697367e+02 </wgt>
<wgt id='2159'> +2.7707630e+02 </wgt>
<wgt id='2160'> +2.7701123e+02 </wgt>
<wgt id='2161'> +2.7702779e+02 </wgt>
<wgt id='2162'> +2.7698982e+02 </wgt>
<wgt id='2163'> +2.7701847e+02 </wgt>
<wgt id='2164'> +2.7706436e+02 </wgt>
<wgt id='2165'> +2.7697398e+02 </wgt>
<wgt id='2166'> +2.7704657e+02 </wgt>
<wgt id='2167'> +2.7703457e+02 </wgt>
<wgt id='2168'> +2.7697168e+02 </wgt>
<wgt id='2169'> +2.7702333e+02 </wgt>
<wgt id='2170'> +2.7702801e+02 </wgt>
<wgt id='2171'> +2.7700886e+02 </wgt>
<wgt id='2172'> +2.7703504e+02 </wgt>
<wgt id='2173'> +2.7703563e+02 </wgt>
<wgt id='2174'> +2.7704193e+02 </wgt>
<wgt id='2175'> +2.7703298e+02 </wgt>
<wgt id='2176'> +2.7701639e+02 </wgt>
<wgt id='2177'> +2.8536816e+02 </wgt>
<wgt id='2178'> +2.6024027e+02 </wgt>
<wgt id='2179'> +2.8353194e+02 </wgt>
<wgt id='2180'> +2.8600300e+02 </wgt>
<wgt id='2181'> +2.8181772e+02 </wgt>
<wgt id='2182'> +2.5230407e+02 </wgt>
<wgt id='2183'> +2.8908597e+02 </wgt>
<wgt id='2184'> +2.8792871e+02 </wgt>
<wgt id='2185'> +2.8704387e+02 </wgt>
<wgt id='2186'> +2.8685462e+02 </wgt>
<wgt id='2187'> +2.7802110e+02 </wgt>
<wgt id='2188'> +2.8138830e+02 </wgt>
<wgt id='2189'> +2.8999160e+02 </wgt>
<wgt id='2190'> +2.9059612e+02 </wgt>
<wgt id='2191'> +2.8142798e+02 </wgt>
<wgt id='2192'> +2.8877934e+02 </wgt>
<wgt id='2193'> +2.8738671e+02 </wgt>
<wgt id='2194'> +2.8248813e+02 </wgt>
<wgt id='2195'> +2.8207997e+02 </wgt>
<wgt id='2196'> +2.8920577e+02 </wgt>
<wgt id='2197'> +2.8898339e+02 </wgt>
<wgt id='2198'> +2.8798570e+02 </wgt>
<wgt id='2199'> +2.8404220e+02 </wgt>
<wgt id='2200'> +3.0589532e+02 </wgt>
<wgt id='2201'> +2.8545743e+02 </wgt>
<wgt id='2202'> +2.8798875e+02 </wgt>
<wgt id='2203'> +2.8213464e+02 </wgt>
<wgt id='2204'> +2.8085909e+02 </wgt>
<wgt id='2205'> +2.8423132e+02 </wgt>
<wgt id='2206'> +2.8352599e+02 </wgt>
<wgt id='2207'> +2.9116789e+02 </wgt>
<wgt id='2208'> +2.8603923e+02 </wgt>
<wgt id='2209'> +2.7935786e+02 </wgt>
<wgt id='2210'> +2.8634441e+02 </wgt>
<wgt id='2211'> +2.8799140e+02 </wgt>
<wgt id='2212'> +2.9203366e+02 </wgt>
<wgt id='2213'> +2.8985184e+02 </wgt>
<wgt id='2214'> +2.9017387e+02 </wgt>
<wgt id='2215'> +2.8642216e+02 </wgt>
<wgt id='2216'> +2.7599741e+02 </wgt>
<wgt id='2217'> +2.8929361e+02 </wgt>
<wgt id='2218'> +2.8556470e+02 </wgt>
<wgt id='2219'> +2.8623270e+02 </wgt>
<wgt id='2220'> +2.8847926e+02 </wgt>
<wgt id='2221'> +2.8446014e+02 </wgt>
<wgt id='2222'> +2.8736413e+02 </wgt>
<wgt id='2223'> +2.8885392e+02 </wgt>
<wgt id='2224'> +2.8145571e+02 </wgt>
<wgt id='2225'> +2.8191567e+02 </wgt>
<wgt id='2226'> +2.8354755e+02 </wgt>
<wgt id='2227'> +2.8551619e+02 </wgt>
<wgt id='2228'> +2.8577588e+02 </wgt>
<wgt id='2229'> +2.8304477e+02 </wgt>
<wgt id='2230'> +2.8983017e+02 </wgt>
<wgt id='2231'> +2.8687321e+02 </wgt>
<wgt id='2232'> +2.8477179e+02 </wgt>
<wgt id='2233'> +2.7995764e+02 </wgt>
<wgt id='2234'> +2.9141823e+02 </wgt>
<wgt id='2235'> +2.8358261e+02 </wgt>
<wgt id='2236'> +2.8866129e+02 </wgt>
<wgt id='2237'> +2.8451178e+02 </wgt>
<wgt id='2238'> +2.8610781e+02 </wgt>
<wgt id='2239'> +2.8583750e+02 </wgt>
<wgt id='2240'> +2.9006117e+02 </wgt>
<wgt id='2241'> +2.7955514e+02 </wgt>
<wgt id='2242'> +2.8808108e+02 </wgt>
<wgt id='2243'> +2.8869450e+02 </wgt>
<wgt id='2244'> +2.9936693e+02 </wgt>
<wgt id='2245'> +2.8211338e+02 </wgt>
<wgt id='2246'> +2.7849753e+02 </wgt>
<wgt id='2247'> +2.8567980e+02 </wgt>
<wgt id='2248'> +2.8887693e+02 </wgt>
<wgt id='2249'> +2.8670607e+02 </wgt>
<wgt id='2250'> +2.6467721e+02 </wgt>
<wgt id='2251'> +2.8927519e+02 </wgt>
<wgt id='2252'> +2.8273620e+02 </wgt>
<wgt id='2253'> +2.8216022e+02 </wgt>
<wgt id='2254'> +2.8970032e+02 </wgt>
<wgt id='2255'> +2.9435364e+02 </wgt>
<wgt id='2256'> +2.8261626e+02 </wgt>
<wgt id='2257'> +2.8646113e+02 </wgt>
<wgt id='2258'> +2.8823955e+02 </wgt>
<wgt id='2259'> +2.8262752e+02 </wgt>
<wgt id='2260'> +2.8789486e+02 </wgt>
<wgt id='2261'> +2.8561813e+02 </wgt>
<wgt id='2262'> +2.7912482e+02 </wgt>
<wgt id='2263'> +2.8452370e+02 </wgt>
<wgt id='2264'> +2.8589920e+02 </wgt>
<wgt id='2265'> +2.8481141e+02 </wgt>
<wgt id='2266'> +2.9162220e+02 </wgt>
<wgt id='2267'> +2.8441751e+02 </wgt>
<wgt id='2268'> +2.8140050e+02 </wgt>
<wgt id='2269'> +2.8807652e+02 </wgt>
<wgt id='2270'> +2.8333053e+02 </wgt>
<wgt id='2271'> +2.9158379e+02 </wgt>
<wgt id='2272'> +2.8120067e+02 </wgt>
<wgt id='2273'> +2.8925768e+02 </wgt>
<wgt id='2274'> +2.8444837e+02 </wgt>
<wgt id='2275'> +2.9413678e+02 </wgt>
<wgt id='2276'> +2.9103745e+02 </wgt>
<wgt id='2277'> +2.8479807e+02 </wgt>
<wgt id='2278'> +2.7999685e+02 </wgt>
<wgt id='2279'> +2.8917220e+02 </wgt>
<wgt id='2280'> +2.8264491e+02 </wgt>
<wgt id='2281'> +3.4800969e+02 </wgt>
<wgt id='2282'> +4.3921792e+02 </wgt>
<wgt id='2283'> +3.5099981e+02 </wgt>
<wgt id='2284'> +4.3322045e+02 </wgt>
</rwgt>
</event>
<event npLO=" -1 " npNLO=" 2 ">
 6      2 +2.8781417e+02 7.15504790e+00 7.54677110e-03 1.31535050e-01
        1 -1    0    0  503    0 +0.0000000000e+00 +0.0000000000e+00 +1.9818847000e+03 1.9818847000e+03 0.0000000000e+00 0.0000e+00 9.0000e+00
       21 -1    0    0  501  502 +0.0000000000e+00 +0.0000000000e+00 -1.5132470000e+01 1.5132470000e+01 0.0000000000e+00 0.0000e+00 9.0000e+00
       25  1    1    2    0    0 +1.0923765000e+01 +4.3001337000e+01 +2.5476236000e+02 2.7725855000e+02 1.0000000000e+02 0.0000e+00 9.0000e+00
        1  1    1    2  501    0 +1.1330534000e+01 +4.7600610000e+00 +1.4183002000e+03 1.4183534000e+03 0.0000000000e+00 0.0000e+00 9.0000e+00
       21  1    1    2  503  504 -3.5272002000e+00 -9.6447692000e+00 +1.7579356000e+02 1.7609327000e+02 0.0000000000e+00 0.0000e+00 9.0000e+00
       21  1    1    2  504  502 -1.8727099000e+01 -3.8116628000e+01 +1.1789613000e+02 1.2531193000e+02 0.0000000000e+00 0.0000e+00 9.0000e+00
#aMCatNLO 2  0  0  1  4 0.20311065E+02 0.00000000E+00 -9  6  0 0.00000000E+00 0.00000000E+00 0.00000000E+00 0.00000000E+00 0.00000000E+00
<rwgt>
<wgt id='1001'> +2.8781417e+02 </wgt>
<wgt id='1002'> +1.6547747e+02 </wgt>
<wgt id='1003'> +5.3862169e+02 </wgt>
<wgt id='1004'> +2.8776506e+02 </wgt>
<wgt id='1005'> +1.6544923e+02 </wgt>
<wgt id='1006'> +5.3852980e+02 </wgt>
<wgt id='1007'> +2.8277499e+02 </wgt>
<wgt id='1008'> +1.6258021e+02 </wgt>
<wgt id='1009'> +5.2919126e+02 </wgt>
<wgt id='1010'> +2.8781417e+02 </wgt>
<wgt id='1011'> +2.8827009e+02 </wgt>
<wgt id='1012'> +2.8600507e+02 </wgt>
<wgt id='1013'> +2.9106611e+02 </wgt>
<wgt id='1014'> +2.8618444e+02 </wgt>
<wgt id='1015'> +2.9092387e+02 </wgt>
<wgt id='1016'> +2.8612225e+02 </wgt>
<wgt id='1017'> +2.8598413e+02 </wgt>
<wgt id='1018'> +2.8769502e+02 </wgt>
<wgt id='1019'> +2.8822004e+02 </wgt>
<wgt id='1020'> +2.9073172e+02 </wgt>
<wgt id='1021'> +2.8792517e+02 </wgt>
<wgt id='1022'> +2.8856293e+02 </wgt>
<wgt id='1023'> +2.8776193e+02 </wgt>
<wgt id='1024'> +2.8578495e+02 </wgt>
<wgt id='1025'> +2.8764163e+02 </wgt>
<wgt id='1026'> +2.8767044e+02 </wgt>
<wgt id='1027'> +2.8634062e+02 </wgt>
<wgt id='1028'> +2.8903274e+02 </wgt>
<wgt id='1029'> +2.8774308e+02 </wgt>
<wgt id='1030'> +2.8797076e+02 </wgt>
<wgt id='1031'> +2.8848480e+02 </wgt>
<wgt id='1032'> +2.8869099e+02 </wgt>
<wgt id='1033'> +2.8680395e+02 </wgt>
<wgt id='1034'> +2.8969157e+02 </wgt>
<wgt id='1035'> +2.8492227e+02 </wgt>
<wgt id='1036'> +2.8859985e+02 </wgt>
<wgt id='1037'> +2.8887051e+02 </wgt>
<wgt id='1038'> +2.9085800e+02 </wgt>
<wgt id='1039'> +2.8967337e+02 </wgt>
<wgt id='1040'> +2.8580095e+02 </wgt>
<wgt id='1041'> +2.8941668e+02 </wgt>
<wgt id='1042'> +2.8824207e+02 </wgt>
<wgt id='1043'> +2.8661781e+02 </wgt>
<wgt id='1044'> +2.8849199e+02 </wgt>
<wgt id='1045'> +2.8862777e+02 </wgt>
<wgt id='1046'> +2.8491464e+02 </wgt>
<wgt id='1047'> +2.8721050e+02 </wgt>
<wgt id='1048'> +2.8617048e+02 </wgt>
<wgt id='1049'> +2.8864330e+02 </wgt>
<wgt id='1050'> +2.8872500e+02 </wgt>
<wgt id='1051'> +2.8801680e+02 </wgt>
<wgt id='1052'> +2.8492156e+02 </wgt>
<wgt id='1053'> +2.8719478e+02 </wgt>
<wgt id='1054'> +2.8648557e+02 </wgt>
<wgt id='1055'> +2.8683414e+02 </wgt>
<wgt id='1056'> +2.8799675e+02 </wgt>
<wgt id='1057'> +2.8826780e+02 </wgt>
<wgt id='1058'> +2.8797286e+02 </wgt>
<wgt id='1059'> +2.9074474e+02 </wgt>
<wgt id='1060'> +2.8793418e+02 </wgt>
<wgt id='1061'> +2.8712415e+02 </wgt>
<wgt id='1062'> +2.8765123e+02 </wgt>
<wgt id='1063'> +2.8833346e+02 </wgt>
<wgt id='1064'> +2.8808450e+02 </wgt>
<wgt id='1065'> +2.8691349e+02 </wgt>
<wgt id='1066'> +2.8795237e+02 </wgt>
<wgt id='1067'> +2.8657047e+02 </wgt>
<wgt id='1068'> +2.8886780e+02 </wgt>
<wgt id='1069'> +2.8816198e+02 </wgt>
<wgt id='1070'> +2.8726886e+02 </wgt>
<wgt id='1071'> +2.8810902e+02 </wgt>
<wgt id='1072'> +2.8798717e+02 </wgt>
<wgt id='1073'> +2.8686738e+02 </wgt>
<wgt id='1074'> +2.8761740e+02 </wgt>
<wgt id='1075'> +2.8787796e+02 </wgt>
<wgt id='1076'> +2.8823133e+02 </wgt>
<wgt id='1077'> +2.8798149e+02 </wgt>
<wgt id='1078'> +2.8790230e+02 </wgt>
<wgt id='1079'> +2.8718239e+02 </wgt>
<wgt id='1080'> +2.8703099e+02 </wgt>
<wgt id='1081'> +2.8765946e+02 </wgt>
<wgt id='1082'> +2.8782925e+02 </wgt>
<wgt id='1083'> +2.8910288e+02 </wgt>
<wgt id='1084'> +2.8887104e+02 </wgt>
<wgt id='1085'> +2.8720553e+02 </wgt>
<wgt id='1086'> +2.8810213e+02 </wgt>
<wgt id='1087'> +2.8798322e+02 </wgt>
<wgt id='1088'> +2.8826866e+02 </wgt>
<wgt id='1089'> +2.8843649e+02 </wgt>
<wgt id='1090'> +2.8756255e+02 </wgt>
<wgt id='1091'> +2.8805773e+02 </wgt>
<wgt id='1092'> +2.8789349e+02 </wgt>
<wgt id='1093'> +2.8824442e+02 </wgt>
<wgt id='1094'> +2.8777108e+02 </wgt>
<wgt id='1095'> +2.8725497e+02 </wgt>
<wgt id='1096'> +2.8783127e+02 </wgt>
<wgt id='1097'> +2.8778330e+02 </wgt>
<wgt id='1098'> +2.8804357e+02 </wgt>
<wgt id='1099'> +2.8730466e+02 </wgt>
<wgt id='1100'> +2.8818092e+02 </wgt>
<wgt id='1101'> +2.8752586e+02 </wgt>
<wgt id='1102'> +2.8778280e+02 </wgt>
<wgt id='1103'> +2.8781788e+02 </wgt>
<wgt id='1104'> +2.8792333e+02 </wgt>
<wgt id='1105'> +2.8749788e+02 </wgt>
<wgt id='1106'> +2.8802732e+02 </wgt>
<wgt id='1107'> +2.8826390e+02 </wgt>
<wgt id='1108'> +2.8796838e+02 </wgt>
<wgt id='1109'> +2.8812816e+02 </wgt>
<wgt id='1110'> +2.8781417e+02 </wgt>
<wgt id='1111'> +2.6440716e+02 </wgt>
<wgt id='1112'> +3.1293412e+02 </wgt>
<wgt id='1113'> +2.8781417e+02 </wgt>
<wgt id='1114'> +2.9535911e+02 </wgt>
<wgt id='1115'> +2.9198011e+02 </wgt>
<wgt id='1116'> +2.7940856e+02 </wgt>
<wgt id='1117'> +2.9969167e+02 </wgt>
<wgt id='1118'> +2.9962237e+02 </wgt>
<wgt id='1119'> +2.7893486e+02 </wgt>
<wgt id='1120'> +2.8745874e+02 </wgt>
<wgt id='1121'> +2.8802712e+02 </wgt>
<wgt id='1122'> +2.9501580e+02 </wgt>
<wgt id='1123'> +2.7205701e+02 </wgt>
<wgt id='1124'> +2.7853865e+02 </wgt>
<wgt id='1125'> +3.0541476e+02 </wgt>
<wgt id='1126'> +2.7726157e+02 </wgt>
<wgt id='1127'> +2.9198708e+02 </wgt>
<wgt id='1128'> +2.8375318e+02 </wgt>
<wgt id='1129'> +2.9610344e+02 </wgt>
<wgt id='1130'> +2.8424966e+02 </wgt>
<wgt id='1131'> +2.9611499e+02 </wgt>
<wgt id='1132'> +2.9959417e+02 </wgt>
<wgt id='1133'> +2.8892251e+02 </wgt>
<wgt id='1134'> +2.9470432e+02 </wgt>
<wgt id='1135'> +2.9209906e+02 </wgt>
<wgt id='1136'> +3.0690945e+02 </wgt>
<wgt id='1137'> +3.0025398e+02 </wgt>
<wgt id='1138'> +3.0702407e+02 </wgt>
<wgt id='1139'> +2.9934093e+02 </wgt>
<wgt id='1140'> +2.8236773e+02 </wgt>
<wgt id='1141'> +2.8776747e+02 </wgt>
<wgt id='1142'> +2.8905918e+02 </wgt>
<wgt id='1143'> +2.5987002e+02 </wgt>
<wgt id='1144'> +2.6670969e+02 </wgt>
<wgt id='1145'> +2.8315741e+02 </wgt>
<wgt id='1146'> +2.9088545e+02 </wgt>
<wgt id='1147'> +2.8007266e+02 </wgt>
<wgt id='1148'> +2.7086846e+02 </wgt>
<wgt id='1149'> +2.8055832e+02 </wgt>
<wgt id='1150'> +2.9370090e+02 </wgt>
<wgt id='1151'> +2.7309575e+02 </wgt>
<wgt id='1152'> +2.5974778e+02 </wgt>
<wgt id='1153'> +2.7343347e+02 </wgt>
<wgt id='1154'> +2.9544973e+02 </wgt>
<wgt id='1155'> +2.9720127e+02 </wgt>
<wgt id='1156'> +2.9098695e+02 </wgt>
<wgt id='1157'> +2.7939113e+02 </wgt>
<wgt id='1158'> +2.8854498e+02 </wgt>
<wgt id='1159'> +2.8576148e+02 </wgt>
<wgt id='1160'> +2.8242436e+02 </wgt>
<wgt id='1161'> +2.9762537e+02 </wgt>
<wgt id='1162'> +2.8827048e+02 </wgt>
<wgt id='1163'> +2.8776063e+02 </wgt>
<wgt id='1164'> +2.9155813e+02 </wgt>
<wgt id='1165'> +3.0646460e+02 </wgt>
<wgt id='1166'> +2.7850616e+02 </wgt>
<wgt id='1167'> +3.0369321e+02 </wgt>
<wgt id='1168'> +2.7362919e+02 </wgt>
<wgt id='1169'> +2.9375848e+02 </wgt>
<wgt id='1170'> +3.0028450e+02 </wgt>
<wgt id='1171'> +2.8471761e+02 </wgt>
<wgt id='1172'> +2.8998360e+02 </wgt>
<wgt id='1173'> +3.0842440e+02 </wgt>
<wgt id='1174'> +2.8004461e+02 </wgt>
<wgt id='1175'> +3.0207743e+02 </wgt>
<wgt id='1176'> +2.8351720e+02 </wgt>
<wgt id='1177'> +2.8291887e+02 </wgt>
<wgt id='1178'> +3.0097943e+02 </wgt>
<wgt id='1179'> +2.9147375e+02 </wgt>
<wgt id='1180'> +2.9798655e+02 </wgt>
<wgt id='1181'> +2.9311324e+02 </wgt>
<wgt id='1182'> +2.8852496e+02 </wgt>
<wgt id='1183'> +2.7321071e+02 </wgt>
<wgt id='1184'> +2.8608711e+02 </wgt>
<wgt id='1185'> +2.8828819e+02 </wgt>
<wgt id='1186'> +2.9787958e+02 </wgt>
<wgt id='1187'> +2.9275342e+02 </wgt>
<wgt id='1188'> +2.7801269e+02 </wgt>
<wgt id='1189'> +2.7767701e+02 </wgt>
<wgt id='1190'> +2.7166301e+02 </wgt>
<wgt id='1191'> +2.9315336e+02 </wgt>
<wgt id='1192'> +2.9860933e+02 </wgt>
<wgt id='1193'> +2.5086723e+02 </wgt>
<wgt id='1194'> +2.8619378e+02 </wgt>
<wgt id='1195'> +2.9610344e+02 </wgt>
<wgt id='1196'> +2.6846924e+02 </wgt>
<wgt id='1197'> +2.9561906e+02 </wgt>
<wgt id='1198'> +2.8558392e+02 </wgt>
<wgt id='1199'> +2.7676126e+02 </wgt>
<wgt id='1200'> +2.9075297e+02 </wgt>
<wgt id='1201'> +2.6015437e+02 </wgt>
<wgt id='1202'> +2.8098530e+02 </wgt>
<wgt id='1203'> +2.7627681e+02 </wgt>
<wgt id='1204'> +2.8273072e+02 </wgt>
<wgt id='1205'> +2.8411360e+02 </wgt>
<wgt id='1206'> +2.9553370e+02 </wgt>
<wgt id='1207'> +3.0103544e+02 </wgt>
<wgt id='1208'> +2.9730434e+02 </wgt>
<wgt id='1209'> +2.8229658e+02 </wgt>
<wgt id='1210'> +2.9786533e+02 </wgt>
<wgt id='1211'> +2.8166118e+02 </wgt>
<wgt id='1212'> +3.0794101e+02 </wgt>
<wgt id='1213'> +3.0098574e+02 </wgt>
<wgt id='1214'> +2.8796440e+02 </wgt>
<wgt id='1215'> +2.8687369e+02 </wgt>
<wgt id='1216'> +2.9008441e+02 </wgt>
<wgt id='1217'> +2.8904026e+02 </wgt>
<wgt id='1218'> +2.8645612e+02 </wgt>
<wgt id='1219'> +2.8790060e+02 </wgt>
<wgt id='1220'> +2.8937554e+02 </wgt>
<wgt id='1221'> +2.8800366e+02 </wgt>
<wgt id='1222'> +2.8996359e+02 </wgt>
<wgt id='1223'> +2.8626565e+02 </wgt>
<wgt id='1224'> +2.8837440e+02 </wgt>
<wgt id='1225'> +2.8847822e+02 </wgt>
<wgt id='1226'> +2.8799447e+02 </wgt>
<wgt id='1227'> +2.8849328e+02 </wgt>
<wgt id='1228'> +2.8825488e+02 </wgt>
<wgt id='1229'> +2.8815424e+02 </wgt>
<wgt id='1230'> +2.8846930e+02 </wgt>
<wgt id='1231'> +2.8847875e+02 </wgt>
<wgt id='1232'> +2.8795788e+02 </wgt>
<wgt id='1233'> +2.8684849e+02 </wgt>
<wgt id='1234'> +2.8721295e+02 </wgt>
<wgt id='1235'> +2.8754521e+02 </wgt>
<wgt id='1236'> +2.8846452e+02 </wgt>
<wgt id='1237'> +2.8656276e+02 </wgt>
<wgt id='1238'> +2.8980928e+02 </wgt>
<wgt id='1239'> +2.8729637e+02 </wgt>
<wgt id='1240'> +2.8788103e+02 </wgt>
<wgt id='1241'> +2.9015366e+02 </wgt>
<wgt id='1242'> +2.8859005e+02 </wgt>
<wgt id='1243'> +2.8473458e+02 </wgt>
<wgt id='1244'> +2.8761814e+02 </wgt>
<wgt id='1245'> +2.8695647e+02 </wgt>
<wgt id='1246'> +2.8574343e+02 </wgt>
<wgt id='1247'> +2.8991366e+02 </wgt>
<wgt id='1248'> +2.8727116e+02 </wgt>
<wgt id='1249'> +2.8910128e+02 </wgt>
<wgt id='1250'> +2.8820254e+02 </wgt>
<wgt id='1251'> +2.8869671e+02 </wgt>
<wgt id='1252'> +2.8523399e+02 </wgt>
<wgt id='1253'> +2.8726597e+02 </wgt>
<wgt id='1254'> +2.8801997e+02 </wgt>
<wgt id='1255'> +2.8710929e+02 </wgt>
<wgt id='1256'> +2.8785738e+02 </wgt>
<wgt id='1257'> +2.8846981e+02 </wgt>
<wgt id='1258'> +2.8755841e+02 </wgt>
<wgt id='1259'> +2.8902557e+02 </wgt>
<wgt id='1260'> +2.8770030e+02 </wgt>
<wgt id='1261'> +2.8707568e+02 </wgt>
<wgt id='1262'> +2.8926539e+02 </wgt>
<wgt id='1263'> +2.8723880e+02 </wgt>
<wgt id='1264'> +2.8949968e+02 </wgt>
<wgt id='1265'> +2.8918011e+02 </wgt>
<wgt id='1266'> +2.8740605e+02 </wgt>
<wgt id='1267'> +2.8908106e+02 </wgt>
<wgt id='1268'> +2.8846052e+02 </wgt>
<wgt id='1269'> +2.9056145e+02 </wgt>
<wgt id='1270'> +2.9030366e+02 </wgt>
<wgt id='1271'> +2.8764176e+02 </wgt>
<wgt id='1272'> +2.8733925e+02 </wgt>
<wgt id='1273'> +2.8850702e+02 </wgt>
<wgt id='1274'> +2.8731609e+02 </wgt>
<wgt id='1275'> +2.8675430e+02 </wgt>
<wgt id='1276'> +2.8933419e+02 </wgt>
<wgt id='1277'> +2.8799014e+02 </wgt>
<wgt id='1278'> +2.8867166e+02 </wgt>
<wgt id='1279'> +2.8853072e+02 </wgt>
<wgt id='1280'> +2.8670708e+02 </wgt>
<wgt id='1281'> +2.8695092e+02 </wgt>
<wgt id='1282'> +2.8649894e+02 </wgt>
<wgt id='1283'> +2.8895734e+02 </wgt>
<wgt id='1284'> +2.8704755e+02 </wgt>
<wgt id='1285'> +2.8890843e+02 </wgt>
<wgt id='1286'> +2.8814548e+02 </wgt>
<wgt id='1287'> +2.8788999e+02 </wgt>
<wgt id='1288'> +2.8754541e+02 </wgt>
<wgt id='1289'> +2.8773894e+02 </wgt>
<wgt id='1290'> +2.8710885e+02 </wgt>
<wgt id='1291'> +2.8796126e+02 </wgt>
<wgt id='1292'> +2.8772897e+02 </wgt>
<wgt id='1293'> +2.8639858e+02 </wgt>
<wgt id='1294'> +2.8846289e+02 </wgt>
<wgt id='1295'> +2.8852410e+02 </wgt>
<wgt id='1296'> +2.8880074e+02 </wgt>
<wgt id='1297'> +2.8727359e+02 </wgt>
<wgt id='1298'> +2.8807136e+02 </wgt>
<wgt id='1299'> +2.8745149e+02 </wgt>
<wgt id='1300'> +2.8721202e+02 </wgt>
<wgt id='1301'> +2.8789768e+02 </wgt>
<wgt id='1302'> +2.8784142e+02 </wgt>
<wgt id='1303'> +2.8832056e+02 </wgt>
<wgt id='1304'> +2.8790794e+02 </wgt>
<wgt id='1305'> +2.8816206e+02 </wgt>
<wgt id='1306'> +2.8735843e+02 </wgt>
<wgt id='1307'> +2.8762689e+02 </wgt>
<wgt id='1308'> +2.8768173e+02 </wgt>
<wgt id='1309'> +2.8752121e+02 </wgt>
<wgt id='1310'> +2.8756513e+02 </wgt>
<wgt id='1311'> +2.8822966e+02 </wgt>
<wgt id='1312'> +2.8749710e+02 </wgt>
<wgt id='1313'> +2.8774115e+02 </wgt>
<wgt id='1314'> +2.8813687e+02 </wgt>
<wgt id='1315'> +2.6440716e+02 </wgt>
<wgt id='1316'> +3.1293412e+02 </wgt>
<wgt id='1317'> +1.8452406e+02 </wgt>
<wgt id='1318'> +2.0138429e+02 </wgt>
<wgt id='1319'> +2.2055478e+02 </wgt>
<wgt id='1320'> +2.4130995e+02 </wgt>
<wgt id='1321'> +2.7579519e+02 </wgt>
<wgt id='1322'> +3.0037221e+02 </wgt>
<wgt id='1323'> +3.3889073e+02 </wgt>
<wgt id='1324'> +3.6495303e+02 </wgt>
<wgt id='1325'> +2.7789790e+02 </wgt>
<wgt id='1326'> +2.7962068e+02 </wgt>
<wgt id='1327'> +2.7566010e+02 </wgt>
<wgt id='1328'> +2.7928926e+02 </wgt>
<wgt id='1329'> +2.7610948e+02 </wgt>
<wgt id='1330'> +2.7817947e+02 </wgt>
<wgt id='1331'> +2.7934294e+02 </wgt>
<wgt id='1332'> +2.7779612e+02 </wgt>
<wgt id='1333'> +2.7776295e+02 </wgt>
<wgt id='1334'> +2.7668168e+02 </wgt>
<wgt id='1335'> +2.7896778e+02 </wgt>
<wgt id='1336'> +2.7819970e+02 </wgt>
<wgt id='1337'> +2.7737810e+02 </wgt>
<wgt id='1338'> +2.7738268e+02 </wgt>
<wgt id='1339'> +2.7772727e+02 </wgt>
<wgt id='1340'> +2.7766400e+02 </wgt>
<wgt id='1341'> +2.7930307e+02 </wgt>
<wgt id='1342'> +2.7684313e+02 </wgt>
<wgt id='1343'> +2.7681976e+02 </wgt>
<wgt id='1344'> +2.7689112e+02 </wgt>
<wgt id='1345'> +2.7722494e+02 </wgt>
<wgt id='1346'> +2.7848261e+02 </wgt>
<wgt id='1347'> +2.7792663e+02 </wgt>
<wgt id='1348'> +2.7785258e+02 </wgt>
<wgt id='1349'> +2.7879395e+02 </wgt>
<wgt id='1350'> +2.7773082e+02 </wgt>
<wgt id='1351'> +2.7767002e+02 </wgt>
<wgt id='1352'> +2.7719768e+02 </wgt>
<wgt id='1353'> +2.7868622e+02 </wgt>
<wgt id='1354'> +2.7901205e+02 </wgt>
<wgt id='1355'> +2.7414774e+02 </wgt>
<wgt id='1356'> +2.7677741e+02 </wgt>
<wgt id='1357'> +2.7851721e+02 </wgt>
<wgt id='1358'> +2.7860885e+02 </wgt>
<wgt id='1359'> +2.7713302e+02 </wgt>
<wgt id='1360'> +2.7860268e+02 </wgt>
<wgt id='1361'> +2.7646970e+02 </wgt>
<wgt id='1362'> +2.7966287e+02 </wgt>
<wgt id='1363'> +2.7569932e+02 </wgt>
<wgt id='1364'> +2.7748261e+02 </wgt>
<wgt id='1365'> +2.7603508e+02 </wgt>
<wgt id='1366'> +2.7880171e+02 </wgt>
<wgt id='1367'> +2.7777893e+02 </wgt>
<wgt id='1368'> +2.7781507e+02 </wgt>
<wgt id='1369'> +2.7884229e+02 </wgt>
<wgt id='1370'> +2.7907557e+02 </wgt>
<wgt id='1371'> +2.7811509e+02 </wgt>
<wgt id='1372'> +2.7780060e+02 </wgt>
<wgt id='1373'> +2.7897152e+02 </wgt>
<wgt id='1374'> +2.7793161e+02 </wgt>
<wgt id='1375'> +2.7775525e+02 </wgt>
<wgt id='1376'> +2.7846554e+02 </wgt>
<wgt id='1377'> +2.7729732e+02 </wgt>
<wgt id='1378'> +2.8023155e+02 </wgt>
<wgt id='1379'> +2.7873565e+02 </wgt>
<wgt id='1380'> +2.7845415e+02 </wgt>
<wgt id='1381'> +2.7990270e+02 </wgt>
<wgt id='1382'> +2.7730960e+02 </wgt>
<wgt id='1383'> +2.7710499e+02 </wgt>
<wgt id='1384'> +2.7677484e+02 </wgt>
<wgt id='1385'> +2.7703355e+02 </wgt>
<wgt id='1386'> +2.7751348e+02 </wgt>
<wgt id='1387'> +2.7973310e+02 </wgt>
<wgt id='1388'> +2.7671209e+02 </wgt>
<wgt id='1389'> +2.7660287e+02 </wgt>
<wgt id='1390'> +2.7889087e+02 </wgt>
<wgt id='1391'> +2.7994112e+02 </wgt>
<wgt id='1392'> +2.7874307e+02 </wgt>
<wgt id='1393'> +2.7902790e+02 </wgt>
<wgt id='1394'> +2.7796289e+02 </wgt>
<wgt id='1395'> +2.7870459e+02 </wgt>
<wgt id='1396'> +2.7803421e+02 </wgt>
<wgt id='1397'> +2.7754917e+02 </wgt>
<wgt id='1398'> +2.7840284e+02 </wgt>
<wgt id='1399'> +2.7817933e+02 </wgt>
<wgt id='1400'> +2.7700788e+02 </wgt>
<wgt id='1401'> +2.7882639e+02 </wgt>
<wgt id='1402'> +2.7790481e+02 </wgt>
<wgt id='1403'> +2.7847048e+02 </wgt>
<wgt id='1404'> +2.7827942e+02 </wgt>
<wgt id='1405'> +2.7817933e+02 </wgt>
<wgt id='1406'> +2.7743815e+02 </wgt>
<wgt id='1407'> +2.7656970e+02 </wgt>
<wgt id='1408'> +2.7700174e+02 </wgt>
<wgt id='1409'> +2.7824506e+02 </wgt>
<wgt id='1410'> +2.7684526e+02 </wgt>
<wgt id='1411'> +2.7815931e+02 </wgt>
<wgt id='1412'> +2.7801198e+02 </wgt>
<wgt id='1413'> +2.7713587e+02 </wgt>
<wgt id='1414'> +2.7800167e+02 </wgt>
<wgt id='1415'> +2.7807757e+02 </wgt>
<wgt id='1416'> +2.7829016e+02 </wgt>
<wgt id='1417'> +2.7685138e+02 </wgt>
<wgt id='1418'> +2.7748023e+02 </wgt>
<wgt id='1419'> +2.7774355e+02 </wgt>
<wgt id='1420'> +2.7768106e+02 </wgt>
<wgt id='1421'> +2.7756612e+02 </wgt>
<wgt id='1422'> +2.7743355e+02 </wgt>
<wgt id='1423'> +2.7799847e+02 </wgt>
<wgt id='1424'> +2.7877039e+02 </wgt>
<wgt id='1425'> +2.7793039e+02 </wgt>
<wgt id='1426'> +2.5620787e+02 </wgt>
<wgt id='1427'> +3.0522514e+02 </wgt>
<wgt id='1428'> +2.7272431e+02 </wgt>
<wgt id='1429'> +2.7545648e+02 </wgt>
<wgt id='1430'> +2.7675868e+02 </wgt>
<wgt id='1431'> +2.7294942e+02 </wgt>
<wgt id='1432'> +2.7381930e+02 </wgt>
<wgt id='1433'> +2.6909066e+02 </wgt>
<wgt id='1434'> +2.7706295e+02 </wgt>
<wgt id='1435'> +2.7209383e+02 </wgt>
<wgt id='1436'> +2.7514019e+02 </wgt>
<wgt id='1437'> +2.6498561e+02 </wgt>
<wgt id='1438'> +2.7830348e+02 </wgt>
<wgt id='1439'> +2.7370230e+02 </wgt>
<wgt id='1440'> +2.7061171e+02 </wgt>
<wgt id='1441'> +2.6932902e+02 </wgt>
<wgt id='1442'> +2.7117940e+02 </wgt>
<wgt id='1443'> +2.7395430e+02 </wgt>
<wgt id='1444'> +2.7006790e+02 </wgt>
<wgt id='1445'> +2.7651894e+02 </wgt>
<wgt id='1446'> +2.6882631e+02 </wgt>
<wgt id='1447'> +2.7150139e+02 </wgt>
<wgt id='1448'> +2.7436483e+02 </wgt>
<wgt id='1449'> +2.7549662e+02 </wgt>
<wgt id='1450'> +2.7111385e+02 </wgt>
<wgt id='1451'> +2.7516717e+02 </wgt>
<wgt id='1452'> +2.6995548e+02 </wgt>
<wgt id='1453'> +2.7148742e+02 </wgt>
<wgt id='1454'> +2.7374892e+02 </wgt>
<wgt id='1455'> +2.7396721e+02 </wgt>
<wgt id='1456'> +2.7057373e+02 </wgt>
<wgt id='1457'> +2.6936960e+02 </wgt>
<wgt id='1458'> +2.7472758e+02 </wgt>
<wgt id='1459'> +2.7207286e+02 </wgt>
<wgt id='1460'> +2.7368210e+02 </wgt>
<wgt id='1461'> +2.7429408e+02 </wgt>
<wgt id='1462'> +2.7115615e+02 </wgt>
<wgt id='1463'> +2.6844592e+02 </wgt>
<wgt id='1464'> +2.7646590e+02 </wgt>
<wgt id='1465'> +2.7706938e+02 </wgt>
<wgt id='1466'> +2.6789481e+02 </wgt>
<wgt id='1467'> +2.7173306e+02 </wgt>
<wgt id='1468'> +2.7292505e+02 </wgt>
<wgt id='1469'> +2.6804908e+02 </wgt>
<wgt id='1470'> +2.7529865e+02 </wgt>
<wgt id='1471'> +2.7697774e+02 </wgt>
<wgt id='1472'> +2.6642628e+02 </wgt>
<wgt id='1473'> +2.6900381e+02 </wgt>
<wgt id='1474'> +2.7916017e+02 </wgt>
<wgt id='1475'> +2.8018050e+02 </wgt>
<wgt id='1476'> +2.7141723e+02 </wgt>
<wgt id='1477'> +2.7154695e+02 </wgt>
<wgt id='1478'> +2.7441311e+02 </wgt>
<wgt id='1479'> +2.6864691e+02 </wgt>
<wgt id='1480'> +2.6357408e+02 </wgt>
<wgt id='1481'> +2.7203587e+02 </wgt>
<wgt id='1482'> +2.7658347e+02 </wgt>
<wgt id='1483'> +2.7352369e+02 </wgt>
<wgt id='1484'> +2.7085950e+02 </wgt>
<wgt id='1485'> +2.5263531e+02 </wgt>
<wgt id='1486'> +2.9331306e+02 </wgt>
<wgt id='1487'> +2.8480901e+02 </wgt>
<wgt id='1488'> +2.7491926e+02 </wgt>
<wgt id='1489'> +2.7914210e+02 </wgt>
<wgt id='1490'> +2.8793657e+02 </wgt>
<wgt id='1491'> +2.8626929e+02 </wgt>
<wgt id='1492'> +2.8794452e+02 </wgt>
<wgt id='1493'> +2.8222787e+02 </wgt>
<wgt id='1494'> +2.8704836e+02 </wgt>
<wgt id='1495'> +2.8592988e+02 </wgt>
<wgt id='1496'> +2.8520992e+02 </wgt>
<wgt id='1497'> +2.8580681e+02 </wgt>
<wgt id='1498'> +2.7509268e+02 </wgt>
<wgt id='1499'> +2.9090416e+02 </wgt>
<wgt id='1500'> +2.7680141e+02 </wgt>
<wgt id='1501'> +2.9513726e+02 </wgt>
<wgt id='1502'> +2.8257919e+02 </wgt>
<wgt id='1503'> +2.8576130e+02 </wgt>
<wgt id='1504'> +2.8734923e+02 </wgt>
<wgt id='1505'> +2.8167575e+02 </wgt>
<wgt id='1506'> +2.8828001e+02 </wgt>
<wgt id='1507'> +2.8125502e+02 </wgt>
<wgt id='1508'> +2.8662009e+02 </wgt>
<wgt id='1509'> +2.8312733e+02 </wgt>
<wgt id='1510'> +2.8168446e+02 </wgt>
<wgt id='1511'> +2.8655627e+02 </wgt>
<wgt id='1512'> +2.7990531e+02 </wgt>
<wgt id='1513'> +2.8943041e+02 </wgt>
<wgt id='1514'> +2.8364392e+02 </wgt>
<wgt id='1515'> +2.8605222e+02 </wgt>
<wgt id='1516'> +2.8412054e+02 </wgt>
<wgt id='1517'> +2.8499730e+02 </wgt>
<wgt id='1518'> +2.8470318e+02 </wgt>
<wgt id='1519'> +2.8495395e+02 </wgt>
<wgt id='1520'> +2.8512101e+02 </wgt>
<wgt id='1521'> +2.8405462e+02 </wgt>
<wgt id='1522'> +2.8909156e+02 </wgt>
<wgt id='1523'> +2.7996632e+02 </wgt>
<wgt id='1524'> +2.8346581e+02 </wgt>
<wgt id='1525'> +2.8629466e+02 </wgt>
<wgt id='1526'> +2.8328646e+02 </wgt>
<wgt id='1527'> +2.8535579e+02 </wgt>
<wgt id='1528'> +2.7752422e+02 </wgt>
<wgt id='1529'> +2.8797686e+02 </wgt>
<wgt id='1530'> +2.9160972e+02 </wgt>
<wgt id='1531'> +2.7932622e+02 </wgt>
<wgt id='1532'> +2.8498774e+02 </wgt>
<wgt id='1533'> +2.8379520e+02 </wgt>
<wgt id='1534'> +2.9031432e+02 </wgt>
<wgt id='1535'> +2.8821572e+02 </wgt>
<wgt id='1536'> +2.8884175e+02 </wgt>
<wgt id='1537'> +2.8432244e+02 </wgt>
<wgt id='1538'> +2.8705772e+02 </wgt>
<wgt id='1539'> +2.8589717e+02 </wgt>
<wgt id='1540'> +2.7858521e+02 </wgt>
<wgt id='1541'> +2.8320943e+02 </wgt>
<wgt id='1542'> +2.8603525e+02 </wgt>
<wgt id='1543'> +2.8309494e+02 </wgt>
<wgt id='1544'> +2.6249685e+02 </wgt>
<wgt id='1545'> +3.0777742e+02 </wgt>
<wgt id='1546'> +3.0676926e+02 </wgt>
<wgt id='1547'> +3.0398043e+02 </wgt>
<wgt id='1548'> +3.0417716e+02 </wgt>
<wgt id='1549'> +3.0375271e+02 </wgt>
<wgt id='1550'> +3.0400450e+02 </wgt>
<wgt id='1551'> +3.0395785e+02 </wgt>
<wgt id='1552'> +3.0382594e+02 </wgt>
<wgt id='1553'> +3.0411635e+02 </wgt>
<wgt id='1554'> +3.0348153e+02 </wgt>
<wgt id='1555'> +3.0451546e+02 </wgt>
<wgt id='1556'> +3.0573757e+02 </wgt>
<wgt id='1557'> +3.0226153e+02 </wgt>
<wgt id='1558'> +3.0338782e+02 </wgt>
<wgt id='1559'> +3.0525490e+02 </wgt>
<wgt id='1560'> +3.0585204e+02 </wgt>
<wgt id='1561'> +3.0063937e+02 </wgt>
<wgt id='1562'> +3.0879694e+02 </wgt>
<wgt id='1563'> +3.0125022e+02 </wgt>
<wgt id='1564'> +3.0478255e+02 </wgt>
<wgt id='1565'> +3.0303828e+02 </wgt>
<wgt id='1566'> +3.0200160e+02 </wgt>
<wgt id='1567'> +3.0566190e+02 </wgt>
<wgt id='1568'> +3.0179153e+02 </wgt>
<wgt id='1569'> +3.0674860e+02 </wgt>
<wgt id='1570'> +3.0338709e+02 </wgt>
<wgt id='1571'> +3.0430974e+02 </wgt>
<wgt id='1572'> +3.0319608e+02 </wgt>
<wgt id='1573'> +3.0383282e+02 </wgt>
<wgt id='1574'> +3.0035020e+02 </wgt>
<wgt id='1575'> +3.0317618e+02 </wgt>
<wgt id='1576'> +3.0653172e+02 </wgt>
<wgt id='1577'> +3.0076742e+02 </wgt>
<wgt id='1578'> +3.0827136e+02 </wgt>
<wgt id='1579'> +2.9921407e+02 </wgt>
<wgt id='1580'> +3.0208512e+02 </wgt>
<wgt id='1581'> +3.0585590e+02 </wgt>
<wgt id='1582'> +3.0377323e+02 </wgt>
<wgt id='1583'> +3.0516483e+02 </wgt>
<wgt id='1584'> +3.0299976e+02 </wgt>
<wgt id='1585'> +3.0460066e+02 </wgt>
<wgt id='1586'> +3.0324194e+02 </wgt>
<wgt id='1587'> +3.0459909e+02 </wgt>
<wgt id='1588'> +3.0308468e+02 </wgt>
<wgt id='1589'> +3.0494972e+02 </wgt>
<wgt id='1590'> +3.0553022e+02 </wgt>
<wgt id='1591'> +3.0408993e+02 </wgt>
<wgt id='1592'> +3.0220772e+02 </wgt>
<wgt id='1593'> +3.0837919e+02 </wgt>
<wgt id='1594'> +3.0242442e+02 </wgt>
<wgt id='1595'> +3.0401842e+02 </wgt>
<wgt id='1596'> +3.0459560e+02 </wgt>
<wgt id='1597'> +3.0199471e+02 </wgt>
<wgt id='1598'> +2.9403398e+02 </wgt>
<wgt id='1599'> +2.9422263e+02 </wgt>
<wgt id='1600'> +2.9381294e+02 </wgt>
<wgt id='1601'> +2.9441073e+02 </wgt>
<wgt id='1602'> +2.9365314e+02 </wgt>
<wgt id='1603'> +2.9419333e+02 </wgt>
<wgt id='1604'> +2.9397758e+02 </wgt>
<wgt id='1605'> +2.9369151e+02 </wgt>
<wgt id='1606'> +2.9436761e+02 </wgt>
<wgt id='1607'> +2.9576862e+02 </wgt>
<wgt id='1608'> +2.9237473e+02 </wgt>
<wgt id='1609'> +2.9478521e+02 </wgt>
<wgt id='1610'> +2.9368299e+02 </wgt>
<wgt id='1611'> +2.9299817e+02 </wgt>
<wgt id='1612'> +2.9529191e+02 </wgt>
<wgt id='1613'> +2.9823151e+02 </wgt>
<wgt id='1614'> +2.8947563e+02 </wgt>
<wgt id='1615'> +2.8921123e+02 </wgt>
<wgt id='1616'> +2.9672135e+02 </wgt>
<wgt id='1617'> +2.9523450e+02 </wgt>
<wgt id='1618'> +2.9239804e+02 </wgt>
<wgt id='1619'> +2.9503157e+02 </wgt>
<wgt id='1620'> +2.9332583e+02 </wgt>
<wgt id='1621'> +2.9276646e+02 </wgt>
<wgt id='1622'> +2.9501617e+02 </wgt>
<wgt id='1623'> +2.9379999e+02 </wgt>
<wgt id='1624'> +2.9465677e+02 </wgt>
<wgt id='1625'> +2.9186171e+02 </wgt>
<wgt id='1626'> +2.9168573e+02 </wgt>
<wgt id='1627'> +2.9170074e+02 </wgt>
<wgt id='1628'> +2.9989254e+02 </wgt>
<wgt id='1629'> +2.9629511e+02 </wgt>
<wgt id='1630'> +2.8903055e+02 </wgt>
<wgt id='1631'> +2.9354741e+02 </wgt>
<wgt id='1632'> +2.9499959e+02 </wgt>
<wgt id='1633'> +2.9600951e+02 </wgt>
<wgt id='1634'> +2.9321267e+02 </wgt>
<wgt id='1635'> +2.9401407e+02 </wgt>
<wgt id='1636'> +2.9415693e+02 </wgt>
<wgt id='1637'> +2.9339986e+02 </wgt>
<wgt id='1638'> +2.9427844e+02 </wgt>
<wgt id='1639'> +2.9527818e+02 </wgt>
<wgt id='1640'> +2.9103291e+02 </wgt>
<wgt id='1641'> +2.9289772e+02 </wgt>
<wgt id='1642'> +2.9544526e+02 </wgt>
<wgt id='1643'> +2.9342188e+02 </wgt>
<wgt id='1644'> +2.9439765e+02 </wgt>
<wgt id='1645'> +2.9763314e+02 </wgt>
<wgt id='1646'> +2.9252287e+02 </wgt>
<wgt id='1647'> +2.9388815e+02 </wgt>
<wgt id='1648'> +2.9424982e+02 </wgt>
<wgt id='1649'> +7.2134536e+02 </wgt>
<wgt id='1650'> +2.7220558e+02 </wgt>
<wgt id='1651'> +2.7207186e+02 </wgt>
<wgt id='1652'> +2.7223755e+02 </wgt>
<wgt id='1653'> +2.7220884e+02 </wgt>
<wgt id='1654'> +2.7219190e+02 </wgt>
<wgt id='1655'> +2.7181342e+02 </wgt>
<wgt id='1656'> +2.7194045e+02 </wgt>
<wgt id='1657'> +2.7181418e+02 </wgt>
<wgt id='1658'> +2.7274091e+02 </wgt>
<wgt id='1659'> +2.7058254e+02 </wgt>
<wgt id='1660'> +2.7306336e+02 </wgt>
<wgt id='1661'> +2.7270728e+02 </wgt>
<wgt id='1662'> +2.7388993e+02 </wgt>
<wgt id='1663'> +2.7198355e+02 </wgt>
<wgt id='1664'> +2.7181775e+02 </wgt>
<wgt id='1665'> +2.7337487e+02 </wgt>
<wgt id='1666'> +2.7169366e+02 </wgt>
<wgt id='1667'> +2.7138257e+02 </wgt>
<wgt id='1668'> +2.7156970e+02 </wgt>
<wgt id='1669'> +2.7241520e+02 </wgt>
<wgt id='1670'> +2.7282828e+02 </wgt>
<wgt id='1671'> +2.7247583e+02 </wgt>
<wgt id='1672'> +2.7135589e+02 </wgt>
<wgt id='1673'> +2.7403466e+02 </wgt>
<wgt id='1674'> +2.7369543e+02 </wgt>
<wgt id='1675'> +2.7299568e+02 </wgt>
<wgt id='1676'> +2.7313336e+02 </wgt>
<wgt id='1677'> +2.7271135e+02 </wgt>
<wgt id='1678'> +2.6758619e+02 </wgt>
<wgt id='1679'> +2.6941729e+02 </wgt>
<wgt id='1680'> +2.8817236e+02 </wgt>
<wgt id='1681'> +2.8969829e+02 </wgt>
<wgt id='1682'> +2.8892456e+02 </wgt>
<wgt id='1683'> +2.8939575e+02 </wgt>
<wgt id='1684'> +2.8925337e+02 </wgt>
<wgt id='1685'> +2.8603229e+02 </wgt>
<wgt id='1686'> +2.8702729e+02 </wgt>
<wgt id='1687'> +2.9019500e+02 </wgt>
<wgt id='1688'> +2.9602349e+02 </wgt>
<wgt id='1689'> +2.8710566e+02 </wgt>
<wgt id='1690'> +2.9017295e+02 </wgt>
<wgt id='1691'> +2.9020858e+02 </wgt>
<wgt id='1692'> +2.8769980e+02 </wgt>
<wgt id='1693'> +2.8385918e+02 </wgt>
<wgt id='1694'> +2.9097192e+02 </wgt>
<wgt id='1695'> +2.8729666e+02 </wgt>
<wgt id='1696'> +2.9013554e+02 </wgt>
<wgt id='1697'> +2.8913387e+02 </wgt>
<wgt id='1698'> +2.8764895e+02 </wgt>
<wgt id='1699'> +2.8920314e+02 </wgt>
<wgt id='1700'> +2.9292863e+02 </wgt>
<wgt id='1701'> +2.8552062e+02 </wgt>
<wgt id='1702'> +2.8622556e+02 </wgt>
<wgt id='1703'> +2.9316206e+02 </wgt>
<wgt id='1704'> +2.8508204e+02 </wgt>
<wgt id='1705'> +2.8265891e+02 </wgt>
<wgt id='1706'> +2.8569253e+02 </wgt>
<wgt id='1707'> +2.9107258e+02 </wgt>
<wgt id='1708'> +2.8544146e+02 </wgt>
<wgt id='1709'> +2.8650512e+02 </wgt>
<wgt id='1710'> +2.8868203e+02 </wgt>
<wgt id='1711'> +2.8699199e+02 </wgt>
<wgt id='1712'> +2.8922251e+02 </wgt>
<wgt id='1713'> +2.8717606e+02 </wgt>
<wgt id='1714'> +2.8604327e+02 </wgt>
<wgt id='1715'> +2.9095052e+02 </wgt>
<wgt id='1716'> +2.8765357e+02 </wgt>
<wgt id='1717'> +2.8590580e+02 </wgt>
<wgt id='1718'> +2.8694328e+02 </wgt>
<wgt id='1719'> +2.8792484e+02 </wgt>
<wgt id='1720'> +2.8750416e+02 </wgt>
<wgt id='1721'> +2.8961447e+02 </wgt>
<wgt id='1722'> +2.8606426e+02 </wgt>
<wgt id='1723'> +2.8760073e+02 </wgt>
<wgt id='1724'> +2.9022109e+02 </wgt>
<wgt id='1725'> +2.8596962e+02 </wgt>
<wgt id='1726'> +2.8931729e+02 </wgt>
<wgt id='1727'> +2.8845245e+02 </wgt>
<wgt id='1728'> +2.8834370e+02 </wgt>
<wgt id='1729'> +2.8870416e+02 </wgt>
<wgt id='1730'> +2.8732300e+02 </wgt>
<wgt id='1731'> +2.8935165e+02 </wgt>
<wgt id='1732'> +2.8839168e+02 </wgt>
<wgt id='1733'> +2.8683178e+02 </wgt>
<wgt id='1734'> +2.8860168e+02 </wgt>
<wgt id='1735'> +2.8783208e+02 </wgt>
<wgt id='1736'> +2.8757133e+02 </wgt>
<wgt id='1737'> +2.8737346e+02 </wgt>
<wgt id='1738'> +2.8803969e+02 </wgt>
<wgt id='1739'> +2.8818249e+02 </wgt>
<wgt id='1740'> +2.8752406e+02 </wgt>
<wgt id='1741'> +2.8812476e+02 </wgt>
<wgt id='1742'> +2.8797062e+02 </wgt>
<wgt id='1743'> +2.8825442e+02 </wgt>
<wgt id='1744'> +2.8782963e+02 </wgt>
<wgt id='1745'> +2.8909232e+02 </wgt>
<wgt id='1746'> +2.8822827e+02 </wgt>
<wgt id='1747'> +2.8882571e+02 </wgt>
<wgt id='1748'> +2.8795996e+02 </wgt>
<wgt id='1749'> +2.8812730e+02 </wgt>
<wgt id='1750'> +2.8820405e+02 </wgt>
<wgt id='1751'> +2.8776138e+02 </wgt>
<wgt id='1752'> +2.8789932e+02 </wgt>
<wgt id='1753'> +2.8756223e+02 </wgt>
<wgt id='1754'> +2.8790749e+02 </wgt>
<wgt id='1755'> +2.8839601e+02 </wgt>
<wgt id='1756'> +2.8817673e+02 </wgt>
<wgt id='1757'> +2.8792161e+02 </wgt>
<wgt id='1758'> +2.8829231e+02 </wgt>
<wgt id='1759'> +2.8801859e+02 </wgt>
<wgt id='1760'> +2.8832899e+02 </wgt>
<wgt id='1761'> +2.8830505e+02 </wgt>
<wgt id='1762'> +2.8804213e+02 </wgt>
<wgt id='1763'> +2.8819484e+02 </wgt>
<wgt id='1764'> +2.8832768e+02 </wgt>
<wgt id='1765'> +2.8821929e+02 </wgt>
<wgt id='1766'> +2.8827595e+02 </wgt>
<wgt id='1767'> +2.8804748e+02 </wgt>
<wgt id='1768'> +2.8818907e+02 </wgt>
<wgt id='1769'> +2.8795017e+02 </wgt>
<wgt id='1770'> +2.8821919e+02 </wgt>
<wgt id='1771'> +2.8795511e+02 </wgt>
<wgt id='1772'> +2.8806357e+02 </wgt>
<wgt id='1773'> +2.8797796e+02 </wgt>
<wgt id='1774'> +2.8821147e+02 </wgt>
<wgt id='1775'> +2.8797976e+02 </wgt>
<wgt id='1776'> +2.8798571e+02 </wgt>
<wgt id='1777'> +2.8829676e+02 </wgt>
<wgt id='1778'> +2.8808312e+02 </wgt>
<wgt id='1779'> +2.8794785e+02 </wgt>
<wgt id='1780'> +2.8812743e+02 </wgt>
<wgt id='1781'> +2.7033492e+02 </wgt>
<wgt id='1782'> +3.0501334e+02 </wgt>
<wgt id='1783'> +2.8016355e+02 </wgt>
<wgt id='1784'> +2.8384567e+02 </wgt>
<wgt id='1785'> +2.8057527e+02 </wgt>
<wgt id='1786'> +2.7871195e+02 </wgt>
<wgt id='1787'> +2.8072576e+02 </wgt>
<wgt id='1788'> +2.7997950e+02 </wgt>
<wgt id='1789'> +2.7903896e+02 </wgt>
<wgt id='1790'> +2.8050592e+02 </wgt>
<wgt id='1791'> +2.8110586e+02 </wgt>
<wgt id='1792'> +2.7842822e+02 </wgt>
<wgt id='1793'> +2.8110872e+02 </wgt>
<wgt id='1794'> +2.7820926e+02 </wgt>
<wgt id='1795'> +2.7658631e+02 </wgt>
<wgt id='1796'> +2.7755971e+02 </wgt>
<wgt id='1797'> +2.7907216e+02 </wgt>
<wgt id='1798'> +2.8505798e+02 </wgt>
<wgt id='1799'> +2.7639489e+02 </wgt>
<wgt id='1800'> +2.8196901e+02 </wgt>
<wgt id='1801'> +2.8053497e+02 </wgt>
<wgt id='1802'> +2.7700569e+02 </wgt>
<wgt id='1803'> +2.7951686e+02 </wgt>
<wgt id='1804'> +2.8254487e+02 </wgt>
<wgt id='1805'> +2.7815783e+02 </wgt>
<wgt id='1806'> +2.8116600e+02 </wgt>
<wgt id='1807'> +2.8379365e+02 </wgt>
<wgt id='1808'> +2.8175885e+02 </wgt>
<wgt id='1809'> +2.8129518e+02 </wgt>
<wgt id='1810'> +2.7829216e+02 </wgt>
<wgt id='1811'> +2.7845297e+02 </wgt>
<wgt id='1812'> +2.7993688e+02 </wgt>
<wgt id='1813'> +2.8149160e+02 </wgt>
<wgt id='1814'> +2.7589458e+02 </wgt>
<wgt id='1815'> +2.8267554e+02 </wgt>
<wgt id='1816'> +2.8014691e+02 </wgt>
<wgt id='1817'> +2.7798868e+02 </wgt>
<wgt id='1818'> +2.8195064e+02 </wgt>
<wgt id='1819'> +2.7995243e+02 </wgt>
<wgt id='1820'> +2.8109259e+02 </wgt>
<wgt id='1821'> +2.8082012e+02 </wgt>
<wgt id='1822'> +2.8398721e+02 </wgt>
<wgt id='1823'> +2.8330803e+02 </wgt>
<wgt id='1824'> +2.7896643e+02 </wgt>
<wgt id='1825'> +2.8131148e+02 </wgt>
<wgt id='1826'> +2.7974112e+02 </wgt>
<wgt id='1827'> +2.8026612e+02 </wgt>
<wgt id='1828'> +2.7921395e+02 </wgt>
<wgt id='1829'> +2.7961301e+02 </wgt>
<wgt id='1830'> +2.8164864e+02 </wgt>
<wgt id='1831'> +2.8212015e+02 </wgt>
<wgt id='1832'> +2.7900366e+02 </wgt>
<wgt id='1833'> +2.7880578e+02 </wgt>
<wgt id='1834'> +2.8029610e+02 </wgt>
<wgt id='1835'> +2.8110373e+02 </wgt>
<wgt id='1836'> +2.8092397e+02 </wgt>
<wgt id='1837'> +2.7972129e+02 </wgt>
<wgt id='1838'> +2.7949941e+02 </wgt>
<wgt id='1839'> +2.8043681e+02 </wgt>
<wgt id='1840'> +2.7983394e+02 </wgt>
<wgt id='1841'> +2.7870497e+02 </wgt>
<wgt id='1842'> +2.8124954e+02 </wgt>
<wgt id='1843'> +2.8053459e+02 </wgt>
<wgt id='1844'> +2.8018726e+02 </wgt>
<wgt id='1845'> +2.8044279e+02 </wgt>
<wgt id='1846'> +2.7974680e+02 </wgt>
<wgt id='1847'> +2.8035575e+02 </wgt>
<wgt id='1848'> +2.7968772e+02 </wgt>
<wgt id='1849'> +2.7949661e+02 </wgt>
<wgt id='1850'> +2.8020595e+02 </wgt>
<wgt id='1851'> +2.8013937e+02 </wgt>
<wgt id='1852'> +2.8041992e+02 </wgt>
<wgt id='1853'> +2.8005397e+02 </wgt>
<wgt id='1854'> +2.8062427e+02 </wgt>
<wgt id='1855'> +2.8007584e+02 </wgt>
<wgt id='1856'> +2.8007445e+02 </wgt>
<wgt id='1857'> +2.8031191e+02 </wgt>
<wgt id='1858'> +2.8024105e+02 </wgt>
<wgt id='1859'> +2.8051711e+02 </wgt>
<wgt id='1860'> +2.8045716e+02 </wgt>
<wgt id='1861'> +2.8011889e+02 </wgt>
<wgt id='1862'> +2.7984755e+02 </wgt>
<wgt id='1863'> +2.8035346e+02 </wgt>
<wgt id='1864'> +2.8027433e+02 </wgt>
<wgt id='1865'> +2.8017358e+02 </wgt>
<wgt id='1866'> +2.8006102e+02 </wgt>
<wgt id='1867'> +2.7977380e+02 </wgt>
<wgt id='1868'> +2.8025434e+02 </wgt>
<wgt id='1869'> +2.8004534e+02 </wgt>
<wgt id='1870'> +2.7999347e+02 </wgt>
<wgt id='1871'> +2.8016693e+02 </wgt>
<wgt id='1872'> +2.7995807e+02 </wgt>
<wgt id='1873'> +2.8005625e+02 </wgt>
<wgt id='1874'> +2.8028208e+02 </wgt>
<wgt id='1875'> +2.8016328e+02 </wgt>
<wgt id='1876'> +2.7983731e+02 </wgt>
<wgt id='1877'> +2.8026279e+02 </wgt>
<wgt id='1878'> +2.7992840e+02 </wgt>
<wgt id='1879'> +2.7994813e+02 </wgt>
<wgt id='1880'> +2.8019599e+02 </wgt>
<wgt id='1881'> +2.8003664e+02 </wgt>
<wgt id='1882'> +2.8001564e+02 </wgt>
<wgt id='1883'> +2.8019430e+02 </wgt>
<wgt id='1884'> +2.6372708e+02 </wgt>
<wgt id='1885'> +2.9521682e+02 </wgt>
<wgt id='1886'> +2.8822326e+02 </wgt>
<wgt id='1887'> +2.9237762e+02 </wgt>
<wgt id='1888'> +2.9247272e+02 </wgt>
<wgt id='1889'> +2.8802711e+02 </wgt>
<wgt id='1890'> +2.9463234e+02 </wgt>
<wgt id='1891'> +2.9291525e+02 </wgt>
<wgt id='1892'> +2.9812277e+02 </wgt>
<wgt id='1893'> +2.8725193e+02 </wgt>
<wgt id='1894'> +2.8743447e+02 </wgt>
<wgt id='1895'> +2.8780943e+02 </wgt>
<wgt id='1896'> +2.8783148e+02 </wgt>
<wgt id='1897'> +2.8884604e+02 </wgt>
<wgt id='1898'> +2.8507508e+02 </wgt>
<wgt id='1899'> +2.8741744e+02 </wgt>
<wgt id='1900'> +2.8946750e+02 </wgt>
<wgt id='1901'> +2.8670120e+02 </wgt>
<wgt id='1902'> +2.8789073e+02 </wgt>
<wgt id='1903'> +2.8549344e+02 </wgt>
<wgt id='1904'> +2.8244354e+02 </wgt>
<wgt id='1905'> +2.8745072e+02 </wgt>
<wgt id='1906'> +2.8760030e+02 </wgt>
<wgt id='1907'> +2.8824289e+02 </wgt>
<wgt id='1908'> +2.8855243e+02 </wgt>
<wgt id='1909'> +2.8821647e+02 </wgt>
<wgt id='1910'> +2.8985436e+02 </wgt>
<wgt id='1911'> +2.8869332e+02 </wgt>
<wgt id='1912'> +2.8917114e+02 </wgt>
<wgt id='1913'> +2.8806547e+02 </wgt>
<wgt id='1914'> +2.8805185e+02 </wgt>
<wgt id='1915'> +2.8857339e+02 </wgt>
<wgt id='1916'> +2.8789698e+02 </wgt>
<wgt id='1917'> +2.7033492e+02 </wgt>
<wgt id='1918'> +3.0501334e+02 </wgt>
<wgt id='1919'> +2.8015042e+02 </wgt>
<wgt id='1920'> +2.8608046e+02 </wgt>
<wgt id='1921'> +2.8291839e+02 </wgt>
<wgt id='1922'> +2.8020847e+02 </wgt>
<wgt id='1923'> +2.8091204e+02 </wgt>
<wgt id='1924'> +2.7769149e+02 </wgt>
<wgt id='1925'> +2.7990884e+02 </wgt>
<wgt id='1926'> +2.7964132e+02 </wgt>
<wgt id='1927'> +2.8760120e+02 </wgt>
<wgt id='1928'> +2.7670364e+02 </wgt>
<wgt id='1929'> +2.8263136e+02 </wgt>
<wgt id='1930'> +2.7880723e+02 </wgt>
<wgt id='1931'> +2.8091566e+02 </wgt>
<wgt id='1932'> +2.8170594e+02 </wgt>
<wgt id='1933'> +2.8056955e+02 </wgt>
<wgt id='1934'> +2.8248155e+02 </wgt>
<wgt id='1935'> +2.8220959e+02 </wgt>
<wgt id='1936'> +2.7857554e+02 </wgt>
<wgt id='1937'> +2.8056860e+02 </wgt>
<wgt id='1938'> +2.8081424e+02 </wgt>
<wgt id='1939'> +2.7791585e+02 </wgt>
<wgt id='1940'> +2.7830917e+02 </wgt>
<wgt id='1941'> +2.8132129e+02 </wgt>
<wgt id='1942'> +2.7936951e+02 </wgt>
<wgt id='1943'> +2.7917305e+02 </wgt>
<wgt id='1944'> +2.7931492e+02 </wgt>
<wgt id='1945'> +2.7875525e+02 </wgt>
<wgt id='1946'> +2.8006948e+02 </wgt>
<wgt id='1947'> +2.7731095e+02 </wgt>
<wgt id='1948'> +2.8169668e+02 </wgt>
<wgt id='1949'> +2.7956463e+02 </wgt>
<wgt id='1950'> +2.6372708e+02 </wgt>
<wgt id='1951'> +2.9521682e+02 </wgt>
<wgt id='1952'> +3.1026127e+02 </wgt>
<wgt id='1953'> +3.1013628e+02 </wgt>
<wgt id='1954'> +3.1038525e+02 </wgt>
<wgt id='1955'> +3.1070324e+02 </wgt>
<wgt id='1956'> +3.0981885e+02 </wgt>
<wgt id='1957'> +3.1025921e+02 </wgt>
<wgt id='1958'> +3.1026259e+02 </wgt>
<wgt id='1959'> +3.0974573e+02 </wgt>
<wgt id='1960'> +3.1077900e+02 </wgt>
<wgt id='1961'> +3.0145817e+02 </wgt>
<wgt id='1962'> +3.1911692e+02 </wgt>
<wgt id='1963'> +3.1416877e+02 </wgt>
<wgt id='1964'> +3.0625764e+02 </wgt>
<wgt id='1965'> +3.1093595e+02 </wgt>
<wgt id='1966'> +3.0958078e+02 </wgt>
<wgt id='1967'> +3.0662996e+02 </wgt>
<wgt id='1968'> +3.1414200e+02 </wgt>
<wgt id='1969'> +3.0414548e+02 </wgt>
<wgt id='1970'> +3.1606148e+02 </wgt>
<wgt id='1971'> +3.1267436e+02 </wgt>
<wgt id='1972'> +3.0762903e+02 </wgt>
<wgt id='1973'> +3.1065228e+02 </wgt>
<wgt id='1974'> +3.0956835e+02 </wgt>
<wgt id='1975'> +3.0382714e+02 </wgt>
<wgt id='1976'> +3.1730144e+02 </wgt>
<wgt id='1977'> +3.1492298e+02 </wgt>
<wgt id='1978'> +3.0580947e+02 </wgt>
<wgt id='1979'> +3.0471431e+02 </wgt>
<wgt id='1980'> +3.1624443e+02 </wgt>
<wgt id='1981'> +3.1026127e+02 </wgt>
<wgt id='1982'> +3.1134270e+02 </wgt>
<wgt id='1983'> +3.1043926e+02 </wgt>
<wgt id='1984'> +3.2329931e+02 </wgt>
<wgt id='1985'> +3.2217583e+02 </wgt>
<wgt id='1986'> +3.1250544e+02 </wgt>
<wgt id='1987'> +3.0874010e+02 </wgt>
<wgt id='1988'> +3.0962076e+02 </wgt>
<wgt id='1989'> +3.1097290e+02 </wgt>
<wgt id='1990'> +3.0875205e+02 </wgt>
<wgt id='1991'> +3.1196786e+02 </wgt>
<wgt id='1992'> +3.0898838e+02 </wgt>
<wgt id='1993'> +3.1233981e+02 </wgt>
<wgt id='1994'> +3.3587911e+02 </wgt>
<wgt id='1995'> +3.0762948e+02 </wgt>
<wgt id='1996'> +3.0774710e+02 </wgt>
<wgt id='1997'> +3.0784032e+02 </wgt>
<wgt id='1998'> +3.0825479e+02 </wgt>
<wgt id='1999'> +3.0733236e+02 </wgt>
<wgt id='2000'> +3.0806468e+02 </wgt>
<wgt id='2001'> +3.0752298e+02 </wgt>
<wgt id='2002'> +3.0777825e+02 </wgt>
<wgt id='2003'> +3.0780728e+02 </wgt>
<wgt id='2004'> +3.0632054e+02 </wgt>
<wgt id='2005'> +3.0925575e+02 </wgt>
<wgt id='2006'> +2.9865070e+02 </wgt>
<wgt id='2007'> +3.1700275e+02 </wgt>
<wgt id='2008'> +3.0977174e+02 </wgt>
<wgt id='2009'> +3.0583504e+02 </wgt>
<wgt id='2010'> +3.0739081e+02 </wgt>
<wgt id='2011'> +3.0867372e+02 </wgt>
<wgt id='2012'> +3.1195177e+02 </wgt>
<wgt id='2013'> +3.0362508e+02 </wgt>
<wgt id='2014'> +3.0978435e+02 </wgt>
<wgt id='2015'> +3.0545547e+02 </wgt>
<wgt id='2016'> +3.0609089e+02 </wgt>
<wgt id='2017'> +3.0918071e+02 </wgt>
<wgt id='2018'> +3.1182852e+02 </wgt>
<wgt id='2019'> +3.0393560e+02 </wgt>
<wgt id='2020'> +3.0829135e+02 </wgt>
<wgt id='2021'> +3.0763544e+02 </wgt>
<wgt id='2022'> +3.0398447e+02 </wgt>
<wgt id='2023'> +3.1209020e+02 </wgt>
<wgt id='2024'> +3.0724224e+02 </wgt>
<wgt id='2025'> +3.0775091e+02 </wgt>
<wgt id='2026'> +3.1628752e+02 </wgt>
<wgt id='2027'> +3.1116668e+02 </wgt>
<wgt id='2028'> +3.0899327e+02 </wgt>
<wgt id='2029'> +3.1198120e+02 </wgt>
<wgt id='2030'> +3.0333721e+02 </wgt>
<wgt id='2031'> +3.0664746e+02 </wgt>
<wgt id='2032'> +3.0910585e+02 </wgt>
<wgt id='2033'> +2.9899472e+02 </wgt>
<wgt id='2034'> +3.1343633e+02 </wgt>
<wgt id='2035'> +2.9832803e+02 </wgt>
<wgt id='2036'> +3.1217047e+02 </wgt>
<wgt id='2037'> +3.0568149e+02 </wgt>
<wgt id='2038'> +2.8311579e+02 </wgt>
<wgt id='2039'> +2.8307817e+02 </wgt>
<wgt id='2040'> +2.8304016e+02 </wgt>
<wgt id='2041'> +2.8300217e+02 </wgt>
<wgt id='2042'> +2.8296430e+02 </wgt>
<wgt id='2043'> +2.8292642e+02 </wgt>
<wgt id='2044'> +2.8288842e+02 </wgt>
<wgt id='2045'> +2.8285018e+02 </wgt>
<wgt id='2046'> +2.8281248e+02 </wgt>
<wgt id='2047'> +2.8277449e+02 </wgt>
<wgt id='2048'> +2.8273649e+02 </wgt>
<wgt id='2049'> +2.8269859e+02 </wgt>
<wgt id='2050'> +2.8266079e+02 </wgt>
<wgt id='2051'> +2.8262301e+02 </wgt>
<wgt id='2052'> +2.8258490e+02 </wgt>
<wgt id='2053'> +2.8254698e+02 </wgt>
<wgt id='2054'> +2.8250907e+02 </wgt>
<wgt id='2055'> +2.8247123e+02 </wgt>
<wgt id='2056'> +2.8243320e+02 </wgt>
<wgt id='2057'> +2.8239532e+02 </wgt>
<wgt id='2058'> +2.8235764e+02 </wgt>
<wgt id='2059'> +2.8231962e+02 </wgt>
<wgt id='2060'> +2.8228179e+02 </wgt>
<wgt id='2061'> +2.8224395e+02 </wgt>
<wgt id='2062'> +2.8220603e+02 </wgt>
<wgt id='2063'> +2.8216830e+02 </wgt>
<wgt id='2064'> +2.8213031e+02 </wgt>
<wgt id='2065'> +2.8209248e+02 </wgt>
<wgt id='2066'> +2.8205444e+02 </wgt>
<wgt id='2067'> +2.8201656e+02 </wgt>
<wgt id='2068'> +2.8197885e+02 </wgt>
<wgt id='2069'> +2.7812893e+02 </wgt>
<wgt id='2070'> +2.8177224e+02 </wgt>
<wgt id='2071'> +2.7853478e+02 </wgt>
<wgt id='2072'> +2.7668883e+02 </wgt>
<wgt id='2073'> +2.7868437e+02 </wgt>
<wgt id='2074'> +2.7794706e+02 </wgt>
<wgt id='2075'> +2.7702067e+02 </wgt>
<wgt id='2076'> +2.7847319e+02 </wgt>
<wgt id='2077'> +2.7906335e+02 </wgt>
<wgt id='2078'> +2.7640859e+02 </wgt>
<wgt id='2079'> +2.7906510e+02 </wgt>
<wgt id='2080'> +2.7619881e+02 </wgt>
<wgt id='2081'> +2.7458404e+02 </wgt>
<wgt id='2082'> +2.7554542e+02 </wgt>
<wgt id='2083'> +2.7704305e+02 </wgt>
<wgt id='2084'> +2.8296553e+02 </wgt>
<wgt id='2085'> +2.7440328e+02 </wgt>
<wgt id='2086'> +2.7991389e+02 </wgt>
<wgt id='2087'> +2.7849758e+02 </wgt>
<wgt id='2088'> +2.7500605e+02 </wgt>
<wgt id='2089'> +2.7749971e+02 </wgt>
<wgt id='2090'> +2.8047804e+02 </wgt>
<wgt id='2091'> +2.7614079e+02 </wgt>
<wgt id='2092'> +2.7911603e+02 </wgt>
<wgt id='2093'> +2.8172179e+02 </wgt>
<wgt id='2094'> +2.7970796e+02 </wgt>
<wgt id='2095'> +2.7924205e+02 </wgt>
<wgt id='2096'> +2.7627790e+02 </wgt>
<wgt id='2097'> +2.7643534e+02 </wgt>
<wgt id='2098'> +2.7790209e+02 </wgt>
<wgt id='2099'> +2.7944402e+02 </wgt>
<wgt id='2100'> +2.7389823e+02 </wgt>
<wgt id='2101'> +2.8061746e+02 </wgt>
<wgt id='2102'> +2.7811059e+02 </wgt>
<wgt id='2103'> +2.7597083e+02 </wgt>
<wgt id='2104'> +2.7990515e+02 </wgt>
<wgt id='2105'> +2.7791836e+02 </wgt>
<wgt id='2106'> +2.7904990e+02 </wgt>
<wgt id='2107'> +2.7877862e+02 </wgt>
<wgt id='2108'> +2.8192209e+02 </wgt>
<wgt id='2109'> +2.8125182e+02 </wgt>
<wgt id='2110'> +2.7693692e+02 </wgt>
<wgt id='2111'> +2.7926879e+02 </wgt>
<wgt id='2112'> +2.7771129e+02 </wgt>
<wgt id='2113'> +2.7823118e+02 </wgt>
<wgt id='2114'> +2.7718384e+02 </wgt>
<wgt id='2115'> +2.7758364e+02 </wgt>
<wgt id='2116'> +2.7960062e+02 </wgt>
<wgt id='2117'> +2.8007378e+02 </wgt>
<wgt id='2118'> +2.7697689e+02 </wgt>
<wgt id='2119'> +2.7678153e+02 </wgt>
<wgt id='2120'> +2.7826071e+02 </wgt>
<wgt id='2121'> +2.7906399e+02 </wgt>
<wgt id='2122'> +2.7888462e+02 </wgt>
<wgt id='2123'> +2.7769093e+02 </wgt>
<wgt id='2124'> +2.7747209e+02 </wgt>
<wgt id='2125'> +2.7839600e+02 </wgt>
<wgt id='2126'> +2.7780311e+02 </wgt>
<wgt id='2127'> +2.7668540e+02 </wgt>
<wgt id='2128'> +2.7920809e+02 </wgt>
<wgt id='2129'> +2.7850014e+02 </wgt>
<wgt id='2130'> +2.7815251e+02 </wgt>
<wgt id='2131'> +2.7840353e+02 </wgt>
<wgt id='2132'> +2.7771398e+02 </wgt>
<wgt id='2133'> +2.7832421e+02 </wgt>
<wgt id='2134'> +2.7765498e+02 </wgt>
<wgt id='2135'> +2.7746571e+02 </wgt>
<wgt id='2136'> +2.7816805e+02 </wgt>
<wgt id='2137'> +2.7810490e+02 </wgt>
<wgt id='2138'> +2.7838309e+02 </wgt>
<wgt id='2139'> +2.7801945e+02 </wgt>
<wgt id='2140'> +2.7858788e+02 </wgt>
<wgt id='2141'> +2.7804437e+02 </wgt>
<wgt id='2142'> +2.7803936e+02 </wgt>
<wgt id='2143'> +2.7827760e+02 </wgt>
<wgt id='2144'> +2.7820752e+02 </wgt>
<wgt id='2145'> +2.7847968e+02 </wgt>
<wgt id='2146'> +2.7841953e+02 </wgt>
<wgt id='2147'> +2.7808806e+02 </wgt>
<wgt id='2148'> +2.7781627e+02 </wgt>
<wgt id='2149'> +2.7831562e+02 </wgt>
<wgt id='2150'> +2.7824071e+02 </wgt>
<wgt id='2151'> +2.7814157e+02 </wgt>
<wgt id='2152'> +2.7802738e+02 </wgt>
<wgt id='2153'> +2.7774237e+02 </wgt>
<wgt id='2154'> +2.7821869e+02 </wgt>
<wgt id='2155'> +2.7801473e+02 </wgt>
<wgt id='2156'> +2.7795884e+02 </wgt>
<wgt id='2157'> +2.7813106e+02 </wgt>
<wgt id='2158'> +2.7792399e+02 </wgt>
<wgt id='2159'> +2.7802223e+02 </wgt>
<wgt id='2160'> +2.7824401e+02 </wgt>
<wgt id='2161'> +2.7812612e+02 </wgt>
<wgt id='2162'> +2.7780670e+02 </wgt>
<wgt id='2163'> +2.7822569e+02 </wgt>
<wgt id='2164'> +2.7789872e+02 </wgt>
<wgt id='2165'> +2.7791347e+02 </wgt>
<wgt id='2166'> +2.7816102e+02 </wgt>
<wgt id='2167'> +2.7800179e+02 </wgt>
<wgt id='2168'> +2.7798382e+02 </wgt>
<wgt id='2169'> +2.7816002e+02 </wgt>
<wgt id='2170'> +2.7812717e+02 </wgt>
<wgt id='2171'> +2.7811726e+02 </wgt>
<wgt id='2172'> +2.7813077e+02 </wgt>
<wgt id='2173'> +2.7813108e+02 </wgt>
<wgt id='2174'> +2.7813434e+02 </wgt>
<wgt id='2175'> +2.7812972e+02 </wgt>
<wgt id='2176'> +2.7812113e+02 </wgt>
<wgt id='2177'> +2.7328638e+02 </wgt>
<wgt id='2178'> +2.5962637e+02 </wgt>
<wgt id='2179'> +2.6820799e+02 </wgt>
<wgt id='2180'> +2.7127084e+02 </wgt>
<wgt id='2181'> +2.6765649e+02 </wgt>
<wgt id='2182'> +2.6058684e+02 </wgt>
<wgt id='2183'> +2.7694463e+02 </wgt>
<wgt id='2184'> +2.8773129e+02 </wgt>
<wgt id='2185'> +2.7224807e+02 </wgt>
<wgt id='2186'> +2.7538008e+02 </wgt>
<wgt id='2187'> +2.7281220e+02 </wgt>
<wgt id='2188'> +2.8373562e+02 </wgt>
<wgt id='2189'> +2.7763942e+02 </wgt>
<wgt id='2190'> +2.8562432e+02 </wgt>
<wgt id='2191'> +2.6906531e+02 </wgt>
<wgt id='2192'> +2.7055707e+02 </wgt>
<wgt id='2193'> +2.7363155e+02 </wgt>
<wgt id='2194'> +2.5697713e+02 </wgt>
<wgt id='2195'> +2.6123396e+02 </wgt>
<wgt id='2196'> +2.7331222e+02 </wgt>
<wgt id='2197'> +2.6049368e+02 </wgt>
<wgt id='2198'> +2.9672981e+02 </wgt>
<wgt id='2199'> +2.7940107e+02 </wgt>
<wgt id='2200'> +2.9895073e+02 </wgt>
<wgt id='2201'> +2.8196856e+02 </wgt>
<wgt id='2202'> +2.7766579e+02 </wgt>
<wgt id='2203'> +2.7928595e+02 </wgt>
<wgt id='2204'> +2.5865319e+02 </wgt>
<wgt id='2205'> +2.7210613e+02 </wgt>
<wgt id='2206'> +2.7091960e+02 </wgt>
<wgt id='2207'> +2.7532235e+02 </wgt>
<wgt id='2208'> +2.7388411e+02 </wgt>
<wgt id='2209'> +2.9140271e+02 </wgt>
<wgt id='2210'> +2.6231227e+02 </wgt>
<wgt id='2211'> +2.8156277e+02 </wgt>
<wgt id='2212'> +2.8728619e+02 </wgt>
<wgt id='2213'> +2.7936729e+02 </wgt>
<wgt id='2214'> +2.5905745e+02 </wgt>
<wgt id='2215'> +2.8452670e+02 </wgt>
<wgt id='2216'> +2.6283710e+02 </wgt>
<wgt id='2217'> +2.6875583e+02 </wgt>
<wgt id='2218'> +2.8145356e+02 </wgt>
<wgt id='2219'> +2.6053060e+02 </wgt>
<wgt id='2220'> +2.6778647e+02 </wgt>
<wgt id='2221'> +2.6861329e+02 </wgt>
<wgt id='2222'> +2.8989677e+02 </wgt>
<wgt id='2223'> +2.6327610e+02 </wgt>
<wgt id='2224'> +2.7174725e+02 </wgt>
<wgt id='2225'> +2.7017338e+02 </wgt>
<wgt id='2226'> +2.4873186e+02 </wgt>
<wgt id='2227'> +2.7030044e+02 </wgt>
<wgt id='2228'> +2.7936412e+02 </wgt>
<wgt id='2229'> +2.8996388e+02 </wgt>
<wgt id='2230'> +2.6033369e+02 </wgt>
<wgt id='2231'> +2.8982893e+02 </wgt>
<wgt id='2232'> +2.7354792e+02 </wgt>
<wgt id='2233'> +2.6590456e+02 </wgt>
<wgt id='2234'> +2.5933877e+02 </wgt>
<wgt id='2235'> +2.7653075e+02 </wgt>
<wgt id='2236'> +2.5651489e+02 </wgt>
<wgt id='2237'> +2.8674237e+02 </wgt>
<wgt id='2238'> +2.7907783e+02 </wgt>
<wgt id='2239'> +2.5375724e+02 </wgt>
<wgt id='2240'> +2.9505818e+02 </wgt>
<wgt id='2241'> +2.5719375e+02 </wgt>
<wgt id='2242'> +2.6666698e+02 </wgt>
<wgt id='2243'> +2.8671893e+02 </wgt>
<wgt id='2244'> +3.0491827e+02 </wgt>
<wgt id='2245'> +2.6396386e+02 </wgt>
<wgt id='2246'> +2.7908123e+02 </wgt>
<wgt id='2247'> +2.7037131e+02 </wgt>
<wgt id='2248'> +2.8249304e+02 </wgt>
<wgt id='2249'> +2.7351040e+02 </wgt>
<wgt id='2250'> +2.7762038e+02 </wgt>
<wgt id='2251'> +2.8045920e+02 </wgt>
<wgt id='2252'> +2.6084718e+02 </wgt>
<wgt id='2253'> +2.8210977e+02 </wgt>
<wgt id='2254'> +2.8002708e+02 </wgt>
<wgt id='2255'> +2.8752563e+02 </wgt>
<wgt id='2256'> +2.5979531e+02 </wgt>
<wgt id='2257'> +2.7036079e+02 </wgt>
<wgt id='2258'> +2.7723199e+02 </wgt>
<wgt id='2259'> +2.8524722e+02 </wgt>
<wgt id='2260'> +2.4376989e+02 </wgt>
<wgt id='2261'> +2.7424191e+02 </wgt>
<wgt id='2262'> +2.7114255e+02 </wgt>
<wgt id='2263'> +2.8235357e+02 </wgt>
<wgt id='2264'> +2.6769244e+02 </wgt>
<wgt id='2265'> +2.7142781e+02 </wgt>
<wgt id='2266'> +2.7076498e+02 </wgt>
<wgt id='2267'> +2.8303935e+02 </wgt>
<wgt id='2268'> +2.7573260e+02 </wgt>
<wgt id='2269'> +2.8275333e+02 </wgt>
<wgt id='2270'> +2.6612570e+02 </wgt>
<wgt id='2271'> +2.7057260e+02 </wgt>
<wgt id='2272'> +2.5002483e+02 </wgt>
<wgt id='2273'> +2.8122217e+02 </wgt>
<wgt id='2274'> +2.7660250e+02 </wgt>
<wgt id='2275'> +2.7795093e+02 </wgt>
<wgt id='2276'> +2.7258821e+02 </wgt>
<wgt id='2277'> +2.4061188e+02 </wgt>
<wgt id='2278'> +2.6342992e+02 </wgt>
<wgt id='2279'> +2.8463322e+02 </wgt>
<wgt id='2280'> +2.7125502e+02 </wgt>
<wgt id='2281'> +2.9750402e+02 </wgt>
<wgt id='2282'> +5.0296101e+02 </wgt>
<wgt id='2283'> +3.1628487e+02 </wgt>
<wgt id='2284'> +5.5636133e+02 </wgt>
</rwgt>
</event>
<event npLO=" -1 " npNLO=" 1 ">
 5      1 -2.8781417e+02 2.53192600e+01 7.54677110e-03 1.22950430e-01
       21 -1    0    0  504  501 +0.0000000000e+00 +0.0000000000e+00 +3.7948495000e+02 3.7948495000e+02 0.0000000000e+00 0.0000e+00 9.0000e+00
       21 -1    0    0  501  502 +0.0000000000e+00 +0.0000000000e+00 -1.2481081000e+01 1.2481081000e+01 0.0000000000e+00 0.0000e+00 9.0000e+00
       25  1    1    2    0    0 -1.1911999000e+01 +2.7069607000e+01 +2.5122458000e+02 2.7200818000e+02 1.0000000000e+02 0.0000e+00 9.0000e+00
       21  1    1    2  503  502 +6.2045333000e+00 -1.6492901000e+01 +4.8241834000e+01 5.1359386000e+01 0.0000000000e+00 0.0000e+00 9.0000e+00
       21  1    1    2  504  503 +5.7074660000e+00 -1.0576706000e+01 +6.7537452000e+01 6.8598464000e+01 0.0000000000e+00 0.0000e+00 9.0000e+00
#aMCatNLO 2  0  0  1  4 0.13366750E+02 0.00000000E+00 -9  5  0 0.00000000E+00 0.00000000E+00 0.00000000E+00 0.00000000E+00 0.00000000E+00
<rwgt>
<wgt id='1001'> -2.8781417e+02 </wgt>
<wgt id='1002'> -1.9022951e+02 </wgt>
<wgt id='1003'> -4.5806626e+02 </wgt>
<wgt id='1004'> -2.9959543e+02 </wgt>
<wgt id='1005'> -1.9801627e+02 </wgt>
<wgt id='1006'> -4.7681652e+02 </wgt>
<wgt id='1007'> -2.6954875e+02 </wgt>
<wgt id='1008'> -1.7815705e+02 </wgt>
<wgt id='1009'> -4.2899619e+02 </wgt>
<wgt id='1010'> -2.8781417e+02 </wgt>
<wgt id='1011'> -2.8830705e+02 </wgt>
<wgt id='1012'> -2.8710453e+02 </wgt>
<wgt id='1013'> -2.8859873e+02 </wgt>
<wgt id='1014'> -2.8822433e+02 </wgt>
<wgt id='1015'> -2.8819292e+02 </wgt>
<wgt id='1016'> -2.8766165e+02 </wgt>
<wgt id='1017'> -2.8753850e+02 </wgt>
<wgt id='1018'> -2.8770874e+02 </wgt>
<wgt id='1019'> -2.8771037e+02 </wgt>
<wgt id='1020'> -2.8833466e+02 </wgt>
<wgt id='1021'> -2.8853959e+02 </wgt>
<wgt id='1022'> -2.8725164e+02 </wgt>
<wgt id='1023'> -2.8776483e+02 </wgt>
<wgt id='1024'> -2.8781860e+02 </wgt>
<wgt id='1025'> -2.8836728e+02 </wgt>
<wgt id='1026'> -2.8732125e+02 </wgt>
<wgt id='1027'> -2.8779279e+02 </wgt>
<wgt id='1028'> -2.8765100e+02 </wgt>
<wgt id='1029'> -2.8790428e+02 </wgt>
<wgt id='1030'> -2.8781159e+02 </wgt>
<wgt id='1031'> -2.8752181e+02 </wgt>
<wgt id='1032'> -2.8767446e+02 </wgt>
<wgt id='1033'> -2.8751753e+02 </wgt>
<wgt id='1034'> -2.8785259e+02 </wgt>
<wgt id='1035'> -2.8770665e+02 </wgt>
<wgt id='1036'> -2.8756354e+02 </wgt>
<wgt id='1037'> -2.8686566e+02 </wgt>
<wgt id='1038'> -2.8799978e+02 </wgt>
<wgt id='1039'> -2.8673428e+02 </wgt>
<wgt id='1040'> -2.8760739e+02 </wgt>
<wgt id='1041'> -2.8701224e+02 </wgt>
<wgt id='1042'> -2.8813071e+02 </wgt>
<wgt id='1043'> -2.8739414e+02 </wgt>
<wgt id='1044'> -2.8747396e+02 </wgt>
<wgt id='1045'> -2.8775814e+02 </wgt>
<wgt id='1046'> -2.8841112e+02 </wgt>
<wgt id='1047'> -2.8781331e+02 </wgt>
<wgt id='1048'> -2.8772200e+02 </wgt>
<wgt id='1049'> -2.8791604e+02 </wgt>
<wgt id='1050'> -2.8758457e+02 </wgt>
<wgt id='1051'> -2.8791969e+02 </wgt>
<wgt id='1052'> -2.8788984e+02 </wgt>
<wgt id='1053'> -2.8764878e+02 </wgt>
<wgt id='1054'> -2.8795828e+02 </wgt>
<wgt id='1055'> -2.8788141e+02 </wgt>
<wgt id='1056'> -2.8790818e+02 </wgt>
<wgt id='1057'> -2.8773388e+02 </wgt>
<wgt id='1058'> -2.8769362e+02 </wgt>
<wgt id='1059'> -2.8763942e+02 </wgt>
<wgt id='1060'> -2.8773747e+02 </wgt>
<wgt id='1061'> -2.8782243e+02 </wgt>
<wgt id='1062'> -2.8799275e+02 </wgt>
<wgt id='1063'> -2.8778827e+02 </wgt>
<wgt id='1064'> -2.8780469e+02 </wgt>
<wgt id='1065'> -2.8790335e+02 </wgt>
<wgt id='1066'> -2.8770245e+02 </wgt>
<wgt id='1067'> -2.8790402e+02 </wgt>
<wgt id='1068'> -2.8781606e+02 </wgt>
<wgt id='1069'> -2.8784594e+02 </wgt>
<wgt id='1070'> -2.8779908e+02 </wgt>
<wgt id='1071'> -2.8779427e+02 </wgt>
<wgt id='1072'> -2.8800275e+02 </wgt>
<wgt id='1073'> -2.8788609e+02 </wgt>
<wgt id='1074'> -2.8787212e+02 </wgt>
<wgt id='1075'> -2.8802859e+02 </wgt>
<wgt id='1076'> -2.8786137e+02 </wgt>
<wgt id='1077'> -2.8790637e+02 </wgt>
<wgt id='1078'> -2.8783447e+02 </wgt>
<wgt id='1079'> -2.8781762e+02 </wgt>
<wgt id='1080'> -2.8784894e+02 </wgt>
<wgt id='1081'> -2.8785489e+02 </wgt>
<wgt id='1082'> -2.8784770e+02 </wgt>
<wgt id='1083'> -2.8784269e+02 </wgt>
<wgt id='1084'> -2.8780467e+02 </wgt>
<wgt id='1085'> -2.8774978e+02 </wgt>
<wgt id='1086'> -2.8776285e+02 </wgt>
<wgt id='1087'> -2.8796546e+02 </wgt>
<wgt id='1088'> -2.8782710e+02 </wgt>
<wgt id='1089'> -2.8775544e+02 </wgt>
<wgt id='1090'> -2.8785920e+02 </wgt>
<wgt id='1091'> -2.8778277e+02 </wgt>
<wgt id='1092'> -2.8784990e+02 </wgt>
<wgt id='1093'> -2.8788991e+02 </wgt>
<wgt id='1094'> -2.8783848e+02 </wgt>
<wgt id='1095'> -2.8781105e+02 </wgt>
<wgt id='1096'> -2.8778013e+02 </wgt>
<wgt id='1097'> -2.8781911e+02 </wgt>
<wgt id='1098'> -2.8780712e+02 </wgt>
<wgt id='1099'> -2.8780787e+02 </wgt>
<wgt id='1100'> -2.8785428e+02 </wgt>
<wgt id='1101'> -2.8780741e+02 </wgt>
<wgt id='1102'> -2.8787484e+02 </wgt>
<wgt id='1103'> -2.8777486e+02 </wgt>
<wgt id='1104'> -2.8779689e+02 </wgt>
<wgt id='1105'> -2.8783107e+02 </wgt>
<wgt id='1106'> -2.8778265e+02 </wgt>
<wgt id='1107'> -2.8783592e+02 </wgt>
<wgt id='1108'> -2.8780735e+02 </wgt>
<wgt id='1109'> -2.8784651e+02 </wgt>
<wgt id='1110'> -2.8781418e+02 </wgt>
<wgt id='1111'> -2.7166258e+02 </wgt>
<wgt id='1112'> -3.0445971e+02 </wgt>
<wgt id='1113'> -2.8781418e+02 </wgt>
<wgt id='1114'> -2.8898221e+02 </wgt>
<wgt id='1115'> -2.8495550e+02 </wgt>
<wgt id='1116'> -2.8439183e+02 </wgt>
<wgt id='1117'> -2.8787833e+02 </wgt>
<wgt id='1118'> -2.8620199e+02 </wgt>
<wgt id='1119'> -2.9078067e+02 </wgt>
<wgt id='1120'> -2.8880093e+02 </wgt>
<wgt id='1121'> -2.8836522e+02 </wgt>
<wgt id='1122'> -2.8682161e+02 </wgt>
<wgt id='1123'> -2.8949921e+02 </wgt>
<wgt id='1124'> -2.9175710e+02 </wgt>
<wgt id='1125'> -2.8986414e+02 </wgt>
<wgt id='1126'> -2.8921688e+02 </wgt>
<wgt id='1127'> -2.8696924e+02 </wgt>
<wgt id='1128'> -2.8263104e+02 </wgt>
<wgt id='1129'> -2.8945550e+02 </wgt>
<wgt id='1130'> -2.8993300e+02 </wgt>
<wgt id='1131'> -2.8939443e+02 </wgt>
<wgt id='1132'> -2.8256168e+02 </wgt>
<wgt id='1133'> -2.8546983e+02 </wgt>
<wgt id='1134'> -2.8205889e+02 </wgt>
<wgt id='1135'> -2.8439277e+02 </wgt>
<wgt id='1136'> -2.8442324e+02 </wgt>
<wgt id='1137'> -2.8984911e+02 </wgt>
<wgt id='1138'> -2.8548774e+02 </wgt>
<wgt id='1139'> -2.8881984e+02 </wgt>
<wgt id='1140'> -2.8212212e+02 </wgt>
<wgt id='1141'> -2.8767709e+02 </wgt>
<wgt id='1142'> -2.8735652e+02 </wgt>
<wgt id='1143'> -2.8910759e+02 </wgt>
<wgt id='1144'> -2.8835025e+02 </wgt>
<wgt id='1145'> -2.9241710e+02 </wgt>
<wgt id='1146'> -2.8289364e+02 </wgt>
<wgt id='1147'> -2.8991381e+02 </wgt>
<wgt id='1148'> -2.8856660e+02 </wgt>
<wgt id='1149'> -2.9025207e+02 </wgt>
<wgt id='1150'> -2.9176329e+02 </wgt>
<wgt id='1151'> -2.8451705e+02 </wgt>
<wgt id='1152'> -2.8510663e+02 </wgt>
<wgt id='1153'> -2.8824730e+02 </wgt>
<wgt id='1154'> -2.8597869e+02 </wgt>
<wgt id='1155'> -2.8999748e+02 </wgt>
<wgt id='1156'> -2.8770074e+02 </wgt>
<wgt id='1157'> -2.8386362e+02 </wgt>
<wgt id='1158'> -2.8701645e+02 </wgt>
<wgt id='1159'> -2.9058000e+02 </wgt>
<wgt id='1160'> -2.8619966e+02 </wgt>
<wgt id='1161'> -2.9197940e+02 </wgt>
<wgt id='1162'> -2.8589974e+02 </wgt>
<wgt id='1163'> -2.9264530e+02 </wgt>
<wgt id='1164'> -2.8474832e+02 </wgt>
<wgt id='1165'> -2.8793357e+02 </wgt>
<wgt id='1166'> -2.8357895e+02 </wgt>
<wgt id='1167'> -2.8779003e+02 </wgt>
<wgt id='1168'> -2.8837789e+02 </wgt>
<wgt id='1169'> -2.8805407e+02 </wgt>
<wgt id='1170'> -2.9217996e+02 </wgt>
<wgt id='1171'> -2.8584540e+02 </wgt>
<wgt id='1172'> -2.8568848e+02 </wgt>
<wgt id='1173'> -2.9008352e+02 </wgt>
<wgt id='1174'> -2.8803839e+02 </wgt>
<wgt id='1175'> -2.8930205e+02 </wgt>
<wgt id='1176'> -2.8347728e+02 </wgt>
<wgt id='1177'> -2.8817788e+02 </wgt>
<wgt id='1178'> -2.8690459e+02 </wgt>
<wgt id='1179'> -2.8827343e+02 </wgt>
<wgt id='1180'> -2.8371472e+02 </wgt>
<wgt id='1181'> -2.8823861e+02 </wgt>
<wgt id='1182'> -2.8759924e+02 </wgt>
<wgt id='1183'> -2.8717618e+02 </wgt>
<wgt id='1184'> -2.8613027e+02 </wgt>
<wgt id='1185'> -2.8306798e+02 </wgt>
<wgt id='1186'> -2.9020754e+02 </wgt>
<wgt id='1187'> -2.8660787e+02 </wgt>
<wgt id='1188'> -2.9044349e+02 </wgt>
<wgt id='1189'> -2.8597463e+02 </wgt>
<wgt id='1190'> -2.8884381e+02 </wgt>
<wgt id='1191'> -2.8466385e+02 </wgt>
<wgt id='1192'> -2.8507399e+02 </wgt>
<wgt id='1193'> -2.8800152e+02 </wgt>
<wgt id='1194'> -2.8713670e+02 </wgt>
<wgt id='1195'> -2.8945550e+02 </wgt>
<wgt id='1196'> -2.8711718e+02 </wgt>
<wgt id='1197'> -2.8987174e+02 </wgt>
<wgt id='1198'> -2.8895074e+02 </wgt>
<wgt id='1199'> -2.8810405e+02 </wgt>
<wgt id='1200'> -2.8898261e+02 </wgt>
<wgt id='1201'> -2.9173401e+02 </wgt>
<wgt id='1202'> -2.9374053e+02 </wgt>
<wgt id='1203'> -2.8907109e+02 </wgt>
<wgt id='1204'> -2.8466356e+02 </wgt>
<wgt id='1205'> -2.8893783e+02 </wgt>
<wgt id='1206'> -2.8872084e+02 </wgt>
<wgt id='1207'> -2.8843383e+02 </wgt>
<wgt id='1208'> -2.9556273e+02 </wgt>
<wgt id='1209'> -2.8340074e+02 </wgt>
<wgt id='1210'> -2.8832968e+02 </wgt>
<wgt id='1211'> -2.9224321e+02 </wgt>
<wgt id='1212'> -2.9195744e+02 </wgt>
<wgt id='1213'> -2.9110745e+02 </wgt>
<wgt id='1214'> -2.8780275e+02 </wgt>
<wgt id='1215'> -2.8740416e+02 </wgt>
<wgt id='1216'> -2.8819152e+02 </wgt>
<wgt id='1217'> -2.8783002e+02 </wgt>
<wgt id='1218'> -2.8801804e+02 </wgt>
<wgt id='1219'> -2.8794369e+02 </wgt>
<wgt id='1220'> -2.8774895e+02 </wgt>
<wgt id='1221'> -2.8822863e+02 </wgt>
<wgt id='1222'> -2.8864225e+02 </wgt>
<wgt id='1223'> -2.8736501e+02 </wgt>
<wgt id='1224'> -2.8729573e+02 </wgt>
<wgt id='1225'> -2.8815630e+02 </wgt>
<wgt id='1226'> -2.8799683e+02 </wgt>
<wgt id='1227'> -2.8743806e+02 </wgt>
<wgt id='1228'> -2.8765438e+02 </wgt>
<wgt id='1229'> -2.8788909e+02 </wgt>
<wgt id='1230'> -2.8819165e+02 </wgt>
<wgt id='1231'> -2.8768882e+02 </wgt>
<wgt id='1232'> -2.8756827e+02 </wgt>
<wgt id='1233'> -2.8788800e+02 </wgt>
<wgt id='1234'> -2.8802447e+02 </wgt>
<wgt id='1235'> -2.8776483e+02 </wgt>
<wgt id='1236'> -2.8807725e+02 </wgt>
<wgt id='1237'> -2.8818880e+02 </wgt>
<wgt id='1238'> -2.8741929e+02 </wgt>
<wgt id='1239'> -2.8837809e+02 </wgt>
<wgt id='1240'> -2.8859122e+02 </wgt>
<wgt id='1241'> -2.8744096e+02 </wgt>
<wgt id='1242'> -2.8720699e+02 </wgt>
<wgt id='1243'> -2.8874566e+02 </wgt>
<wgt id='1244'> -2.8779747e+02 </wgt>
<wgt id='1245'> -2.8816498e+02 </wgt>
<wgt id='1246'> -2.8742916e+02 </wgt>
<wgt id='1247'> -2.8780956e+02 </wgt>
<wgt id='1248'> -2.8861568e+02 </wgt>
<wgt id='1249'> -2.8771862e+02 </wgt>
<wgt id='1250'> -2.8795863e+02 </wgt>
<wgt id='1251'> -2.8828093e+02 </wgt>
<wgt id='1252'> -2.8768333e+02 </wgt>
<wgt id='1253'> -2.8717061e+02 </wgt>
<wgt id='1254'> -2.8782503e+02 </wgt>
<wgt id='1255'> -2.8786183e+02 </wgt>
<wgt id='1256'> -2.8770860e+02 </wgt>
<wgt id='1257'> -2.8769093e+02 </wgt>
<wgt id='1258'> -2.8808375e+02 </wgt>
<wgt id='1259'> -2.8763772e+02 </wgt>
<wgt id='1260'> -2.8802399e+02 </wgt>
<wgt id='1261'> -2.8808320e+02 </wgt>
<wgt id='1262'> -2.8760350e+02 </wgt>
<wgt id='1263'> -2.8770487e+02 </wgt>
<wgt id='1264'> -2.8787169e+02 </wgt>
<wgt id='1265'> -2.8818268e+02 </wgt>
<wgt id='1266'> -2.8789493e+02 </wgt>
<wgt id='1267'> -2.8794874e+02 </wgt>
<wgt id='1268'> -2.8790098e+02 </wgt>
<wgt id='1269'> -2.8772409e+02 </wgt>
<wgt id='1270'> -2.8782754e+02 </wgt>
<wgt id='1271'> -2.8803589e+02 </wgt>
<wgt id='1272'> -2.8786682e+02 </wgt>
<wgt id='1273'> -2.8772636e+02 </wgt>
<wgt id='1274'> -2.8780282e+02 </wgt>
<wgt id='1275'> -2.8765542e+02 </wgt>
<wgt id='1276'> -2.8782699e+02 </wgt>
<wgt id='1277'> -2.8782959e+02 </wgt>
<wgt id='1278'> -2.8770517e+02 </wgt>
<wgt id='1279'> -2.8795514e+02 </wgt>
<wgt id='1280'> -2.8773592e+02 </wgt>
<wgt id='1281'> -2.8781018e+02 </wgt>
<wgt id='1282'> -2.8786977e+02 </wgt>
<wgt id='1283'> -2.8780489e+02 </wgt>
<wgt id='1284'> -2.8773318e+02 </wgt>
<wgt id='1285'> -2.8771640e+02 </wgt>
<wgt id='1286'> -2.8781258e+02 </wgt>
<wgt id='1287'> -2.8784443e+02 </wgt>
<wgt id='1288'> -2.8781384e+02 </wgt>
<wgt id='1289'> -2.8778340e+02 </wgt>
<wgt id='1290'> -2.8777998e+02 </wgt>
<wgt id='1291'> -2.8779942e+02 </wgt>
<wgt id='1292'> -2.8777476e+02 </wgt>
<wgt id='1293'> -2.8781014e+02 </wgt>
<wgt id='1294'> -2.8784263e+02 </wgt>
<wgt id='1295'> -2.8783347e+02 </wgt>
<wgt id='1296'> -2.8783065e+02 </wgt>
<wgt id='1297'> -2.8784131e+02 </wgt>
<wgt id='1298'> -2.8783968e+02 </wgt>
<wgt id='1299'> -2.8782760e+02 </wgt>
<wgt id='1300'> -2.8774566e+02 </wgt>
<wgt id='1301'> -2.8776995e+02 </wgt>
<wgt id='1302'> -2.8783171e+02 </wgt>
<wgt id='1303'> -2.8774467e+02 </wgt>
<wgt id='1304'> -2.8777979e+02 </wgt>
<wgt id='1305'> -2.8782320e+02 </wgt>
<wgt id='1306'> -2.8782220e+02 </wgt>
<wgt id='1307'> -2.8778714e+02 </wgt>
<wgt id='1308'> -2.8784202e+02 </wgt>
<wgt id='1309'> -2.8784247e+02 </wgt>
<wgt id='1310'> -2.8777897e+02 </wgt>
<wgt id='1311'> -2.8781642e+02 </wgt>
<wgt id='1312'> -2.8779734e+02 </wgt>
<wgt id='1313'> -2.8777428e+02 </wgt>
<wgt id='1314'> -2.8782379e+02 </wgt>
<wgt id='1315'> -2.7166258e+02 </wgt>
<wgt id='1316'> -3.0445971e+02 </wgt>
<wgt id='1317'> -2.1434146e+02 </wgt>
<wgt id='1318'> -2.2769321e+02 </wgt>
<wgt id='1319'> -2.4135817e+02 </wgt>
<wgt id='1320'> -2.5576397e+02 </wgt>
<wgt id='1321'> -2.7966096e+02 </wgt>
<wgt id='1322'> -2.9596807e+02 </wgt>
<wgt id='1323'> -3.2105931e+02 </wgt>
<wgt id='1324'> -3.3860248e+02 </wgt>
<wgt id='1325'> -2.9282960e+02 </wgt>
<wgt id='1326'> -2.9316678e+02 </wgt>
<wgt id='1327'> -2.9235676e+02 </wgt>
<wgt id='1328'> -2.9278008e+02 </wgt>
<wgt id='1329'> -2.9316924e+02 </wgt>
<wgt id='1330'> -2.9256033e+02 </wgt>
<wgt id='1331'> -2.9268614e+02 </wgt>
<wgt id='1332'> -2.9210144e+02 </wgt>
<wgt id='1333'> -2.9274626e+02 </wgt>
<wgt id='1334'> -2.9158964e+02 </wgt>
<wgt id='1335'> -2.9263518e+02 </wgt>
<wgt id='1336'> -2.9315523e+02 </wgt>
<wgt id='1337'> -2.9307123e+02 </wgt>
<wgt id='1338'> -2.9279242e+02 </wgt>
<wgt id='1339'> -2.9251871e+02 </wgt>
<wgt id='1340'> -2.9271633e+02 </wgt>
<wgt id='1341'> -2.9285301e+02 </wgt>
<wgt id='1342'> -2.9251374e+02 </wgt>
<wgt id='1343'> -2.9310157e+02 </wgt>
<wgt id='1344'> -2.9322218e+02 </wgt>
<wgt id='1345'> -2.9265013e+02 </wgt>
<wgt id='1346'> -2.9267661e+02 </wgt>
<wgt id='1347'> -2.9283809e+02 </wgt>
<wgt id='1348'> -2.9255293e+02 </wgt>
<wgt id='1349'> -2.9233453e+02 </wgt>
<wgt id='1350'> -2.9303057e+02 </wgt>
<wgt id='1351'> -2.9311275e+02 </wgt>
<wgt id='1352'> -2.9288410e+02 </wgt>
<wgt id='1353'> -2.9203524e+02 </wgt>
<wgt id='1354'> -2.9214545e+02 </wgt>
<wgt id='1355'> -2.9384840e+02 </wgt>
<wgt id='1356'> -2.9336659e+02 </wgt>
<wgt id='1357'> -2.9319324e+02 </wgt>
<wgt id='1358'> -2.9355580e+02 </wgt>
<wgt id='1359'> -2.9298627e+02 </wgt>
<wgt id='1360'> -2.9388450e+02 </wgt>
<wgt id='1361'> -2.9306070e+02 </wgt>
<wgt id='1362'> -2.9268602e+02 </wgt>
<wgt id='1363'> -2.9289122e+02 </wgt>
<wgt id='1364'> -2.9256544e+02 </wgt>
<wgt id='1365'> -2.9260581e+02 </wgt>
<wgt id='1366'> -2.9309385e+02 </wgt>
<wgt id='1367'> -2.9259207e+02 </wgt>
<wgt id='1368'> -2.9256168e+02 </wgt>
<wgt id='1369'> -2.9281376e+02 </wgt>
<wgt id='1370'> -2.9304671e+02 </wgt>
<wgt id='1371'> -2.9310972e+02 </wgt>
<wgt id='1372'> -2.9286813e+02 </wgt>
<wgt id='1373'> -2.9291238e+02 </wgt>
<wgt id='1374'> -2.9279711e+02 </wgt>
<wgt id='1375'> -2.9273983e+02 </wgt>
<wgt id='1376'> -2.9307416e+02 </wgt>
<wgt id='1377'> -2.9265426e+02 </wgt>
<wgt id='1378'> -2.9273058e+02 </wgt>
<wgt id='1379'> -2.9284130e+02 </wgt>
<wgt id='1380'> -2.9242975e+02 </wgt>
<wgt id='1381'> -2.9286663e+02 </wgt>
<wgt id='1382'> -2.9274446e+02 </wgt>
<wgt id='1383'> -2.9264119e+02 </wgt>
<wgt id='1384'> -2.9284690e+02 </wgt>
<wgt id='1385'> -2.9289623e+02 </wgt>
<wgt id='1386'> -2.9284828e+02 </wgt>
<wgt id='1387'> -2.9289437e+02 </wgt>
<wgt id='1388'> -2.9299186e+02 </wgt>
<wgt id='1389'> -2.9272591e+02 </wgt>
<wgt id='1390'> -2.9282316e+02 </wgt>
<wgt id='1391'> -2.9287542e+02 </wgt>
<wgt id='1392'> -2.9270575e+02 </wgt>
<wgt id='1393'> -2.9291224e+02 </wgt>
<wgt id='1394'> -2.9281562e+02 </wgt>
<wgt id='1395'> -2.9291075e+02 </wgt>
<wgt id='1396'> -2.9278117e+02 </wgt>
<wgt id='1397'> -2.9278525e+02 </wgt>
<wgt id='1398'> -2.9268831e+02 </wgt>
<wgt id='1399'> -2.9291444e+02 </wgt>
<wgt id='1400'> -2.9277575e+02 </wgt>
<wgt id='1401'> -2.9281879e+02 </wgt>
<wgt id='1402'> -2.9289232e+02 </wgt>
<wgt id='1403'> -2.9285172e+02 </wgt>
<wgt id='1404'> -2.9285229e+02 </wgt>
<wgt id='1405'> -2.9282311e+02 </wgt>
<wgt id='1406'> -2.9285874e+02 </wgt>
<wgt id='1407'> -2.9280544e+02 </wgt>
<wgt id='1408'> -2.9284575e+02 </wgt>
<wgt id='1409'> -2.9282711e+02 </wgt>
<wgt id='1410'> -2.9282291e+02 </wgt>
<wgt id='1411'> -2.9275124e+02 </wgt>
<wgt id='1412'> -2.9280406e+02 </wgt>
<wgt id='1413'> -2.9284697e+02 </wgt>
<wgt id='1414'> -2.9282655e+02 </wgt>
<wgt id='1415'> -2.9283348e+02 </wgt>
<wgt id='1416'> -2.9285122e+02 </wgt>
<wgt id='1417'> -2.9285632e+02 </wgt>
<wgt id='1418'> -2.9282972e+02 </wgt>
<wgt id='1419'> -2.9286102e+02 </wgt>
<wgt id='1420'> -2.9283282e+02 </wgt>
<wgt id='1421'> -2.9282628e+02 </wgt>
<wgt id='1422'> -2.9279616e+02 </wgt>
<wgt id='1423'> -2.9284084e+02 </wgt>
<wgt id='1424'> -2.9285243e+02 </wgt>
<wgt id='1425'> -2.9282201e+02 </wgt>
<wgt id='1426'> -2.7606247e+02 </wgt>
<wgt id='1427'> -3.1020611e+02 </wgt>
<wgt id='1428'> -2.7997045e+02 </wgt>
<wgt id='1429'> -2.7973598e+02 </wgt>
<wgt id='1430'> -2.7932748e+02 </wgt>
<wgt id='1431'> -2.7975962e+02 </wgt>
<wgt id='1432'> -2.7924906e+02 </wgt>
<wgt id='1433'> -2.7876706e+02 </wgt>
<wgt id='1434'> -2.7716084e+02 </wgt>
<wgt id='1435'> -2.7823162e+02 </wgt>
<wgt id='1436'> -2.8039531e+02 </wgt>
<wgt id='1437'> -2.8018453e+02 </wgt>
<wgt id='1438'> -2.7964461e+02 </wgt>
<wgt id='1439'> -2.8041999e+02 </wgt>
<wgt id='1440'> -2.7908638e+02 </wgt>
<wgt id='1441'> -2.7855633e+02 </wgt>
<wgt id='1442'> -2.8068006e+02 </wgt>
<wgt id='1443'> -2.8091108e+02 </wgt>
<wgt id='1444'> -2.7671046e+02 </wgt>
<wgt id='1445'> -2.7899154e+02 </wgt>
<wgt id='1446'> -2.8105019e+02 </wgt>
<wgt id='1447'> -2.7922347e+02 </wgt>
<wgt id='1448'> -2.8076468e+02 </wgt>
<wgt id='1449'> -2.8025373e+02 </wgt>
<wgt id='1450'> -2.7977518e+02 </wgt>
<wgt id='1451'> -2.7853766e+02 </wgt>
<wgt id='1452'> -2.8148778e+02 </wgt>
<wgt id='1453'> -2.8001163e+02 </wgt>
<wgt id='1454'> -2.7993365e+02 </wgt>
<wgt id='1455'> -2.8203964e+02 </wgt>
<wgt id='1456'> -2.7642562e+02 </wgt>
<wgt id='1457'> -2.7644851e+02 </wgt>
<wgt id='1458'> -2.8204845e+02 </wgt>
<wgt id='1459'> -2.7778155e+02 </wgt>
<wgt id='1460'> -2.8308244e+02 </wgt>
<wgt id='1461'> -2.7861447e+02 </wgt>
<wgt id='1462'> -2.8113506e+02 </wgt>
<wgt id='1463'> -2.7746937e+02 </wgt>
<wgt id='1464'> -2.8207814e+02 </wgt>
<wgt id='1465'> -2.7737150e+02 </wgt>
<wgt id='1466'> -2.8284497e+02 </wgt>
<wgt id='1467'> -2.8481439e+02 </wgt>
<wgt id='1468'> -2.7752618e+02 </wgt>
<wgt id='1469'> -2.7915402e+02 </wgt>
<wgt id='1470'> -2.7983519e+02 </wgt>
<wgt id='1471'> -2.8152952e+02 </wgt>
<wgt id='1472'> -2.7584948e+02 </wgt>
<wgt id='1473'> -2.8125893e+02 </wgt>
<wgt id='1474'> -2.7920397e+02 </wgt>
<wgt id='1475'> -2.7844418e+02 </wgt>
<wgt id='1476'> -2.8270134e+02 </wgt>
<wgt id='1477'> -2.7987262e+02 </wgt>
<wgt id='1478'> -2.8062802e+02 </wgt>
<wgt id='1479'> -2.8034418e+02 </wgt>
<wgt id='1480'> -2.7986765e+02 </wgt>
<wgt id='1481'> -2.7234986e+02 </wgt>
<wgt id='1482'> -2.7629667e+02 </wgt>
<wgt id='1483'> -2.7807432e+02 </wgt>
<wgt id='1484'> -2.8299781e+02 </wgt>
<wgt id='1485'> -2.6327267e+02 </wgt>
<wgt id='1486'> -2.9725083e+02 </wgt>
<wgt id='1487'> -2.8523981e+02 </wgt>
<wgt id='1488'> -2.8525471e+02 </wgt>
<wgt id='1489'> -2.8585875e+02 </wgt>
<wgt id='1490'> -2.8323900e+02 </wgt>
<wgt id='1491'> -2.8560686e+02 </wgt>
<wgt id='1492'> -2.8620243e+02 </wgt>
<wgt id='1493'> -2.8464133e+02 </wgt>
<wgt id='1494'> -2.8489899e+02 </wgt>
<wgt id='1495'> -2.8584691e+02 </wgt>
<wgt id='1496'> -2.8232513e+02 </wgt>
<wgt id='1497'> -2.8663834e+02 </wgt>
<wgt id='1498'> -2.8817031e+02 </wgt>
<wgt id='1499'> -2.8339090e+02 </wgt>
<wgt id='1500'> -2.7835763e+02 </wgt>
<wgt id='1501'> -2.8921521e+02 </wgt>
<wgt id='1502'> -2.8895607e+02 </wgt>
<wgt id='1503'> -2.8287529e+02 </wgt>
<wgt id='1504'> -2.8148310e+02 </wgt>
<wgt id='1505'> -2.8969989e+02 </wgt>
<wgt id='1506'> -2.8756872e+02 </wgt>
<wgt id='1507'> -2.8257814e+02 </wgt>
<wgt id='1508'> -2.8548888e+02 </wgt>
<wgt id='1509'> -2.8457067e+02 </wgt>
<wgt id='1510'> -2.8479892e+02 </wgt>
<wgt id='1511'> -2.8552633e+02 </wgt>
<wgt id='1512'> -2.8463183e+02 </wgt>
<wgt id='1513'> -2.8571917e+02 </wgt>
<wgt id='1514'> -2.8493656e+02 </wgt>
<wgt id='1515'> -2.8560977e+02 </wgt>
<wgt id='1516'> -2.8416196e+02 </wgt>
<wgt id='1517'> -2.8561393e+02 </wgt>
<wgt id='1518'> -2.8570326e+02 </wgt>
<wgt id='1519'> -2.8463653e+02 </wgt>
<wgt id='1520'> -2.8472038e+02 </wgt>
<wgt id='1521'> -2.8638924e+02 </wgt>
<wgt id='1522'> -2.8633224e+02 </wgt>
<wgt id='1523'> -2.8421872e+02 </wgt>
<wgt id='1524'> -2.8592928e+02 </wgt>
<wgt id='1525'> -2.8376684e+02 </wgt>
<wgt id='1526'> -2.8450230e+02 </wgt>
<wgt id='1527'> -2.8555510e+02 </wgt>
<wgt id='1528'> -2.8591891e+02 </wgt>
<wgt id='1529'> -2.8471856e+02 </wgt>
<wgt id='1530'> -2.8447889e+02 </wgt>
<wgt id='1531'> -2.8653321e+02 </wgt>
<wgt id='1532'> -2.8284787e+02 </wgt>
<wgt id='1533'> -2.8531958e+02 </wgt>
<wgt id='1534'> -2.8489499e+02 </wgt>
<wgt id='1535'> -2.8272046e+02 </wgt>
<wgt id='1536'> -2.8212683e+02 </wgt>
<wgt id='1537'> -2.8510102e+02 </wgt>
<wgt id='1538'> -2.8481354e+02 </wgt>
<wgt id='1539'> -2.8504003e+02 </wgt>
<wgt id='1540'> -2.7606956e+02 </wgt>
<wgt id='1541'> -2.8514247e+02 </wgt>
<wgt id='1542'> -2.8392270e+02 </wgt>
<wgt id='1543'> -2.8756278e+02 </wgt>
<wgt id='1544'> -2.6785592e+02 </wgt>
<wgt id='1545'> -3.0328795e+02 </wgt>
<wgt id='1546'> -3.0035620e+02 </wgt>
<wgt id='1547'> -2.8801623e+02 </wgt>
<wgt id='1548'> -2.8837400e+02 </wgt>
<wgt id='1549'> -2.8762428e+02 </wgt>
<wgt id='1550'> -2.8818030e+02 </wgt>
<wgt id='1551'> -2.8789928e+02 </wgt>
<wgt id='1552'> -2.8850858e+02 </wgt>
<wgt id='1553'> -2.8753319e+02 </wgt>
<wgt id='1554'> -2.8702217e+02 </wgt>
<wgt id='1555'> -2.8911358e+02 </wgt>
<wgt id='1556'> -2.8920613e+02 </wgt>
<wgt id='1557'> -2.8684590e+02 </wgt>
<wgt id='1558'> -2.8866561e+02 </wgt>
<wgt id='1559'> -2.8659910e+02 </wgt>
<wgt id='1560'> -2.8766388e+02 </wgt>
<wgt id='1561'> -2.8862566e+02 </wgt>
<wgt id='1562'> -2.8724209e+02 </wgt>
<wgt id='1563'> -2.8844945e+02 </wgt>
<wgt id='1564'> -2.8622498e+02 </wgt>
<wgt id='1565'> -2.9010886e+02 </wgt>
<wgt id='1566'> -2.8809094e+02 </wgt>
<wgt id='1567'> -2.8793578e+02 </wgt>
<wgt id='1568'> -2.8737816e+02 </wgt>
<wgt id='1569'> -2.8884388e+02 </wgt>
<wgt id='1570'> -2.8595400e+02 </wgt>
<wgt id='1571'> -2.8946920e+02 </wgt>
<wgt id='1572'> -2.8786758e+02 </wgt>
<wgt id='1573'> -2.8721564e+02 </wgt>
<wgt id='1574'> -2.8879742e+02 </wgt>
<wgt id='1575'> -2.8799494e+02 </wgt>
<wgt id='1576'> -2.8857949e+02 </wgt>
<wgt id='1577'> -2.8734739e+02 </wgt>
<wgt id='1578'> -2.8725887e+02 </wgt>
<wgt id='1579'> -2.8870355e+02 </wgt>
<wgt id='1580'> -2.8876901e+02 </wgt>
<wgt id='1581'> -2.8721194e+02 </wgt>
<wgt id='1582'> -2.8817981e+02 </wgt>
<wgt id='1583'> -2.8813679e+02 </wgt>
<wgt id='1584'> -2.8851258e+02 </wgt>
<wgt id='1585'> -2.8798991e+02 </wgt>
<wgt id='1586'> -2.8748106e+02 </wgt>
<wgt id='1587'> -2.8859009e+02 </wgt>
<wgt id='1588'> -2.8723795e+02 </wgt>
<wgt id='1589'> -2.8895046e+02 </wgt>
<wgt id='1590'> -2.9187251e+02 </wgt>
<wgt id='1591'> -2.8654023e+02 </wgt>
<wgt id='1592'> -2.8775998e+02 </wgt>
<wgt id='1593'> -2.8868787e+02 </wgt>
<wgt id='1594'> -2.8978593e+02 </wgt>
<wgt id='1595'> -2.8516833e+02 </wgt>
<wgt id='1596'> -2.8880503e+02 </wgt>
<wgt id='1597'> -2.8757753e+02 </wgt>
<wgt id='1598'> -2.7890957e+02 </wgt>
<wgt id='1599'> -2.7910625e+02 </wgt>
<wgt id='1600'> -2.7864334e+02 </wgt>
<wgt id='1601'> -2.7968801e+02 </wgt>
<wgt id='1602'> -2.7813314e+02 </wgt>
<wgt id='1603'> -2.7938886e+02 </wgt>
<wgt id='1604'> -2.7870932e+02 </wgt>
<wgt id='1605'> -2.7788440e+02 </wgt>
<wgt id='1606'> -2.7992838e+02 </wgt>
<wgt id='1607'> -2.7948491e+02 </wgt>
<wgt id='1608'> -2.7834953e+02 </wgt>
<wgt id='1609'> -2.7607464e+02 </wgt>
<wgt id='1610'> -2.8013355e+02 </wgt>
<wgt id='1611'> -2.7888553e+02 </wgt>
<wgt id='1612'> -2.7893561e+02 </wgt>
<wgt id='1613'> -2.7806356e+02 </wgt>
<wgt id='1614'> -2.7981655e+02 </wgt>
<wgt id='1615'> -2.7710356e+02 </wgt>
<wgt id='1616'> -2.7987036e+02 </wgt>
<wgt id='1617'> -2.7862574e+02 </wgt>
<wgt id='1618'> -2.7928911e+02 </wgt>
<wgt id='1619'> -2.7885364e+02 </wgt>
<wgt id='1620'> -2.7892440e+02 </wgt>
<wgt id='1621'> -2.8051076e+02 </wgt>
<wgt id='1622'> -2.7717598e+02 </wgt>
<wgt id='1623'> -2.7969368e+02 </wgt>
<wgt id='1624'> -2.7698532e+02 </wgt>
<wgt id='1625'> -2.7985039e+02 </wgt>
<wgt id='1626'> -2.7866199e+02 </wgt>
<wgt id='1627'> -2.7859274e+02 </wgt>
<wgt id='1628'> -2.7947396e+02 </wgt>
<wgt id='1629'> -2.7850427e+02 </wgt>
<wgt id='1630'> -2.7979558e+02 </wgt>
<wgt id='1631'> -2.7887444e+02 </wgt>
<wgt id='1632'> -2.7915469e+02 </wgt>
<wgt id='1633'> -2.7871235e+02 </wgt>
<wgt id='1634'> -2.7915608e+02 </wgt>
<wgt id='1635'> -2.7894971e+02 </wgt>
<wgt id='1636'> -2.7911397e+02 </wgt>
<wgt id='1637'> -2.7828755e+02 </wgt>
<wgt id='1638'> -2.7935218e+02 </wgt>
<wgt id='1639'> -2.7861310e+02 </wgt>
<wgt id='1640'> -2.7924239e+02 </wgt>
<wgt id='1641'> -2.7910779e+02 </wgt>
<wgt id='1642'> -2.7766696e+02 </wgt>
<wgt id='1643'> -2.7643195e+02 </wgt>
<wgt id='1644'> -2.8064333e+02 </wgt>
<wgt id='1645'> -2.7985613e+02 </wgt>
<wgt id='1646'> -2.7851108e+02 </wgt>
<wgt id='1647'> -2.7819693e+02 </wgt>
<wgt id='1648'> -2.7952357e+02 </wgt>
<wgt id='1649'> -5.4491775e+02 </wgt>
<wgt id='1650'> -2.8363411e+02 </wgt>
<wgt id='1651'> -2.8351661e+02 </wgt>
<wgt id='1652'> -2.8371631e+02 </wgt>
<wgt id='1653'> -2.8365101e+02 </wgt>
<wgt id='1654'> -2.8362549e+02 </wgt>
<wgt id='1655'> -2.8294830e+02 </wgt>
<wgt id='1656'> -2.8358037e+02 </wgt>
<wgt id='1657'> -2.8346272e+02 </wgt>
<wgt id='1658'> -2.8419032e+02 </wgt>
<wgt id='1659'> -2.8477032e+02 </wgt>
<wgt id='1660'> -2.8357912e+02 </wgt>
<wgt id='1661'> -2.8354973e+02 </wgt>
<wgt id='1662'> -2.8315387e+02 </wgt>
<wgt id='1663'> -2.8331000e+02 </wgt>
<wgt id='1664'> -2.8371057e+02 </wgt>
<wgt id='1665'> -2.8337843e+02 </wgt>
<wgt id='1666'> -2.8382849e+02 </wgt>
<wgt id='1667'> -2.8350035e+02 </wgt>
<wgt id='1668'> -2.8395260e+02 </wgt>
<wgt id='1669'> -2.8380570e+02 </wgt>
<wgt id='1670'> -2.8320811e+02 </wgt>
<wgt id='1671'> -2.8353409e+02 </wgt>
<wgt id='1672'> -2.8282702e+02 </wgt>
<wgt id='1673'> -2.8359677e+02 </wgt>
<wgt id='1674'> -2.8349637e+02 </wgt>
<wgt id='1675'> -2.8398254e+02 </wgt>
<wgt id='1676'> -2.8409015e+02 </wgt>
<wgt id='1677'> -2.8343121e+02 </wgt>
<wgt id='1678'> -2.8390919e+02 </wgt>
<wgt id='1679'> -2.8238958e+02 </wgt>
<wgt id='1680'> -2.8812459e+02 </wgt>
<wgt id='1681'> -2.8663768e+02 </wgt>
<wgt id='1682'> -2.8876637e+02 </wgt>
<wgt id='1683'> -2.8898988e+02 </wgt>
<wgt id='1684'> -2.8746378e+02 </wgt>
<wgt id='1685'> -2.8839773e+02 </wgt>
<wgt id='1686'> -2.8818362e+02 </wgt>
<wgt id='1687'> -2.8867761e+02 </wgt>
<wgt id='1688'> -2.8793218e+02 </wgt>
<wgt id='1689'> -2.8859668e+02 </wgt>
<wgt id='1690'> -2.9113583e+02 </wgt>
<wgt id='1691'> -2.8816586e+02 </wgt>
<wgt id='1692'> -2.8715883e+02 </wgt>
<wgt id='1693'> -2.8802910e+02 </wgt>
<wgt id='1694'> -2.8523178e+02 </wgt>
<wgt id='1695'> -2.8943163e+02 </wgt>
<wgt id='1696'> -2.8807437e+02 </wgt>
<wgt id='1697'> -2.8677053e+02 </wgt>
<wgt id='1698'> -2.8674068e+02 </wgt>
<wgt id='1699'> -2.8657018e+02 </wgt>
<wgt id='1700'> -2.8793476e+02 </wgt>
<wgt id='1701'> -2.8690288e+02 </wgt>
<wgt id='1702'> -2.8860810e+02 </wgt>
<wgt id='1703'> -2.8717359e+02 </wgt>
<wgt id='1704'> -2.8819567e+02 </wgt>
<wgt id='1705'> -2.8796748e+02 </wgt>
<wgt id='1706'> -2.8744135e+02 </wgt>
<wgt id='1707'> -2.8803060e+02 </wgt>
<wgt id='1708'> -2.8737625e+02 </wgt>
<wgt id='1709'> -2.8781601e+02 </wgt>
<wgt id='1710'> -2.8830232e+02 </wgt>
<wgt id='1711'> -2.8800350e+02 </wgt>
<wgt id='1712'> -2.8816140e+02 </wgt>
<wgt id='1713'> -2.8737948e+02 </wgt>
<wgt id='1714'> -2.8813484e+02 </wgt>
<wgt id='1715'> -2.8886247e+02 </wgt>
<wgt id='1716'> -2.8792056e+02 </wgt>
<wgt id='1717'> -2.8819450e+02 </wgt>
<wgt id='1718'> -2.8790912e+02 </wgt>
<wgt id='1719'> -2.8818619e+02 </wgt>
<wgt id='1720'> -2.8815101e+02 </wgt>
<wgt id='1721'> -2.8827763e+02 </wgt>
<wgt id='1722'> -2.8827647e+02 </wgt>
<wgt id='1723'> -2.8786296e+02 </wgt>
<wgt id='1724'> -2.8834908e+02 </wgt>
<wgt id='1725'> -2.8834098e+02 </wgt>
<wgt id='1726'> -2.8847030e+02 </wgt>
<wgt id='1727'> -2.8787308e+02 </wgt>
<wgt id='1728'> -2.8789659e+02 </wgt>
<wgt id='1729'> -2.8813715e+02 </wgt>
<wgt id='1730'> -2.8812559e+02 </wgt>
<wgt id='1731'> -2.8791603e+02 </wgt>
<wgt id='1732'> -2.8811066e+02 </wgt>
<wgt id='1733'> -2.8794378e+02 </wgt>
<wgt id='1734'> -2.8802402e+02 </wgt>
<wgt id='1735'> -2.8814035e+02 </wgt>
<wgt id='1736'> -2.8806822e+02 </wgt>
<wgt id='1737'> -2.8809157e+02 </wgt>
<wgt id='1738'> -2.8844737e+02 </wgt>
<wgt id='1739'> -2.8798451e+02 </wgt>
<wgt id='1740'> -2.8778555e+02 </wgt>
<wgt id='1741'> -2.8811867e+02 </wgt>
<wgt id='1742'> -2.8789701e+02 </wgt>
<wgt id='1743'> -2.8814521e+02 </wgt>
<wgt id='1744'> -2.8803332e+02 </wgt>
<wgt id='1745'> -2.8813784e+02 </wgt>
<wgt id='1746'> -2.8808073e+02 </wgt>
<wgt id='1747'> -2.8807528e+02 </wgt>
<wgt id='1748'> -2.8825522e+02 </wgt>
<wgt id='1749'> -2.8821600e+02 </wgt>
<wgt id='1750'> -2.8813404e+02 </wgt>
<wgt id='1751'> -2.8796589e+02 </wgt>
<wgt id='1752'> -2.8798735e+02 </wgt>
<wgt id='1753'> -2.8800323e+02 </wgt>
<wgt id='1754'> -2.8817294e+02 </wgt>
<wgt id='1755'> -2.8808675e+02 </wgt>
<wgt id='1756'> -2.8808216e+02 </wgt>
<wgt id='1757'> -2.8810112e+02 </wgt>
<wgt id='1758'> -2.8812915e+02 </wgt>
<wgt id='1759'> -2.8829851e+02 </wgt>
<wgt id='1760'> -2.8812450e+02 </wgt>
<wgt id='1761'> -2.8820555e+02 </wgt>
<wgt id='1762'> -2.8791833e+02 </wgt>
<wgt id='1763'> -2.8824739e+02 </wgt>
<wgt id='1764'> -2.8820414e+02 </wgt>
<wgt id='1765'> -2.8820475e+02 </wgt>
<wgt id='1766'> -2.8827673e+02 </wgt>
<wgt id='1767'> -2.8808435e+02 </wgt>
<wgt id='1768'> -2.8805395e+02 </wgt>
<wgt id='1769'> -2.8812895e+02 </wgt>
<wgt id='1770'> -2.8810711e+02 </wgt>
<wgt id='1771'> -2.8808328e+02 </wgt>
<wgt id='1772'> -2.8811771e+02 </wgt>
<wgt id='1773'> -2.8801424e+02 </wgt>
<wgt id='1774'> -2.8816180e+02 </wgt>
<wgt id='1775'> -2.8815863e+02 </wgt>
<wgt id='1776'> -2.8806208e+02 </wgt>
<wgt id='1777'> -2.8815569e+02 </wgt>
<wgt id='1778'> -2.8818973e+02 </wgt>
<wgt id='1779'> -2.8815708e+02 </wgt>
<wgt id='1780'> -2.8812227e+02 </wgt>
<wgt id='1781'> -2.7586342e+02 </wgt>
<wgt id='1782'> -3.0043917e+02 </wgt>
<wgt id='1783'> -2.8114216e+02 </wgt>
<wgt id='1784'> -2.8126011e+02 </wgt>
<wgt id='1785'> -2.8167498e+02 </wgt>
<wgt id='1786'> -2.8013912e+02 </wgt>
<wgt id='1787'> -2.8124141e+02 </wgt>
<wgt id='1788'> -2.8133417e+02 </wgt>
<wgt id='1789'> -2.8176393e+02 </wgt>
<wgt id='1790'> -2.8248013e+02 </wgt>
<wgt id='1791'> -2.8187701e+02 </wgt>
<wgt id='1792'> -2.8089573e+02 </wgt>
<wgt id='1793'> -2.8032407e+02 </wgt>
<wgt id='1794'> -2.8306702e+02 </wgt>
<wgt id='1795'> -2.8010629e+02 </wgt>
<wgt id='1796'> -2.7929038e+02 </wgt>
<wgt id='1797'> -2.8065461e+02 </wgt>
<wgt id='1798'> -2.8092712e+02 </wgt>
<wgt id='1799'> -2.8338786e+02 </wgt>
<wgt id='1800'> -2.7959485e+02 </wgt>
<wgt id='1801'> -2.8081947e+02 </wgt>
<wgt id='1802'> -2.8116636e+02 </wgt>
<wgt id='1803'> -2.8315135e+02 </wgt>
<wgt id='1804'> -2.8128453e+02 </wgt>
<wgt id='1805'> -2.8170546e+02 </wgt>
<wgt id='1806'> -2.7987323e+02 </wgt>
<wgt id='1807'> -2.8042354e+02 </wgt>
<wgt id='1808'> -2.8158554e+02 </wgt>
<wgt id='1809'> -2.8114861e+02 </wgt>
<wgt id='1810'> -2.8092223e+02 </wgt>
<wgt id='1811'> -2.8145322e+02 </wgt>
<wgt id='1812'> -2.8145675e+02 </wgt>
<wgt id='1813'> -2.8150522e+02 </wgt>
<wgt id='1814'> -2.8092101e+02 </wgt>
<wgt id='1815'> -2.8133228e+02 </wgt>
<wgt id='1816'> -2.8149630e+02 </wgt>
<wgt id='1817'> -2.8114828e+02 </wgt>
<wgt id='1818'> -2.8161237e+02 </wgt>
<wgt id='1819'> -2.8122120e+02 </wgt>
<wgt id='1820'> -2.8139649e+02 </wgt>
<wgt id='1821'> -2.8124867e+02 </wgt>
<wgt id='1822'> -2.8119280e+02 </wgt>
<wgt id='1823'> -2.8084729e+02 </wgt>
<wgt id='1824'> -2.8106523e+02 </wgt>
<wgt id='1825'> -2.8113330e+02 </wgt>
<wgt id='1826'> -2.8082722e+02 </wgt>
<wgt id='1827'> -2.8120267e+02 </wgt>
<wgt id='1828'> -2.8114067e+02 </wgt>
<wgt id='1829'> -2.8076288e+02 </wgt>
<wgt id='1830'> -2.8112118e+02 </wgt>
<wgt id='1831'> -2.8123006e+02 </wgt>
<wgt id='1832'> -2.8099048e+02 </wgt>
<wgt id='1833'> -2.8115736e+02 </wgt>
<wgt id='1834'> -2.8130914e+02 </wgt>
<wgt id='1835'> -2.8128045e+02 </wgt>
<wgt id='1836'> -2.8116680e+02 </wgt>
<wgt id='1837'> -2.8101715e+02 </wgt>
<wgt id='1838'> -2.8102126e+02 </wgt>
<wgt id='1839'> -2.8137748e+02 </wgt>
<wgt id='1840'> -2.8114428e+02 </wgt>
<wgt id='1841'> -2.8088548e+02 </wgt>
<wgt id='1842'> -2.8100537e+02 </wgt>
<wgt id='1843'> -2.8103441e+02 </wgt>
<wgt id='1844'> -2.8116549e+02 </wgt>
<wgt id='1845'> -2.8118955e+02 </wgt>
<wgt id='1846'> -2.8126008e+02 </wgt>
<wgt id='1847'> -2.8108375e+02 </wgt>
<wgt id='1848'> -2.8112698e+02 </wgt>
<wgt id='1849'> -2.8116389e+02 </wgt>
<wgt id='1850'> -2.8124247e+02 </wgt>
<wgt id='1851'> -2.8119551e+02 </wgt>
<wgt id='1852'> -2.8133447e+02 </wgt>
<wgt id='1853'> -2.8109533e+02 </wgt>
<wgt id='1854'> -2.8131698e+02 </wgt>
<wgt id='1855'> -2.8133963e+02 </wgt>
<wgt id='1856'> -2.8107472e+02 </wgt>
<wgt id='1857'> -2.8117757e+02 </wgt>
<wgt id='1858'> -2.8111763e+02 </wgt>
<wgt id='1859'> -2.8110734e+02 </wgt>
<wgt id='1860'> -2.8120208e+02 </wgt>
<wgt id='1861'> -2.8115824e+02 </wgt>
<wgt id='1862'> -2.8110960e+02 </wgt>
<wgt id='1863'> -2.8136538e+02 </wgt>
<wgt id='1864'> -2.8110945e+02 </wgt>
<wgt id='1865'> -2.8121119e+02 </wgt>
<wgt id='1866'> -2.8104960e+02 </wgt>
<wgt id='1867'> -2.8105373e+02 </wgt>
<wgt id='1868'> -2.8104894e+02 </wgt>
<wgt id='1869'> -2.8117343e+02 </wgt>
<wgt id='1870'> -2.8095101e+02 </wgt>
<wgt id='1871'> -2.8107475e+02 </wgt>
<wgt id='1872'> -2.8107606e+02 </wgt>
<wgt id='1873'> -2.8119531e+02 </wgt>
<wgt id='1874'> -2.8111254e+02 </wgt>
<wgt id='1875'> -2.8113709e+02 </wgt>
<wgt id='1876'> -2.8108601e+02 </wgt>
<wgt id='1877'> -2.8112092e+02 </wgt>
<wgt id='1878'> -2.8117141e+02 </wgt>
<wgt id='1879'> -2.8107828e+02 </wgt>
<wgt id='1880'> -2.8116016e+02 </wgt>
<wgt id='1881'> -2.8114119e+02 </wgt>
<wgt id='1882'> -2.8107298e+02 </wgt>
<wgt id='1883'> -2.8113654e+02 </wgt>
<wgt id='1884'> -2.6996947e+02 </wgt>
<wgt id='1885'> -2.9283467e+02 </wgt>
<wgt id='1886'> -2.8811178e+02 </wgt>
<wgt id='1887'> -2.8907194e+02 </wgt>
<wgt id='1888'> -2.8630275e+02 </wgt>
<wgt id='1889'> -2.8800475e+02 </wgt>
<wgt id='1890'> -2.8622808e+02 </wgt>
<wgt id='1891'> -2.9116520e+02 </wgt>
<wgt id='1892'> -2.8723460e+02 </wgt>
<wgt id='1893'> -2.8796936e+02 </wgt>
<wgt id='1894'> -2.8896244e+02 </wgt>
<wgt id='1895'> -2.8725885e+02 </wgt>
<wgt id='1896'> -2.8869748e+02 </wgt>
<wgt id='1897'> -2.8744487e+02 </wgt>
<wgt id='1898'> -2.8753611e+02 </wgt>
<wgt id='1899'> -2.8820077e+02 </wgt>
<wgt id='1900'> -2.8790621e+02 </wgt>
<wgt id='1901'> -2.8844571e+02 </wgt>
<wgt id='1902'> -2.8751148e+02 </wgt>
<wgt id='1903'> -2.8657056e+02 </wgt>
<wgt id='1904'> -2.8866118e+02 </wgt>
<wgt id='1905'> -2.8760872e+02 </wgt>
<wgt id='1906'> -2.8749462e+02 </wgt>
<wgt id='1907'> -2.8788657e+02 </wgt>
<wgt id='1908'> -2.8764422e+02 </wgt>
<wgt id='1909'> -2.8826700e+02 </wgt>
<wgt id='1910'> -2.8779434e+02 </wgt>
<wgt id='1911'> -2.8783697e+02 </wgt>
<wgt id='1912'> -2.8910039e+02 </wgt>
<wgt id='1913'> -2.8879154e+02 </wgt>
<wgt id='1914'> -2.9129491e+02 </wgt>
<wgt id='1915'> -2.8848549e+02 </wgt>
<wgt id='1916'> -2.8798647e+02 </wgt>
<wgt id='1917'> -2.7586342e+02 </wgt>
<wgt id='1918'> -3.0043917e+02 </wgt>
<wgt id='1919'> -2.8112392e+02 </wgt>
<wgt id='1920'> -2.7804826e+02 </wgt>
<wgt id='1921'> -2.8153461e+02 </wgt>
<wgt id='1922'> -2.8081840e+02 </wgt>
<wgt id='1923'> -2.8151783e+02 </wgt>
<wgt id='1924'> -2.7928245e+02 </wgt>
<wgt id='1925'> -2.8120788e+02 </wgt>
<wgt id='1926'> -2.8064902e+02 </wgt>
<wgt id='1927'> -2.8047927e+02 </wgt>
<wgt id='1928'> -2.8042430e+02 </wgt>
<wgt id='1929'> -2.8348207e+02 </wgt>
<wgt id='1930'> -2.8048744e+02 </wgt>
<wgt id='1931'> -2.8117663e+02 </wgt>
<wgt id='1932'> -2.8170834e+02 </wgt>
<wgt id='1933'> -2.8078186e+02 </wgt>
<wgt id='1934'> -2.8093864e+02 </wgt>
<wgt id='1935'> -2.8101676e+02 </wgt>
<wgt id='1936'> -2.8222252e+02 </wgt>
<wgt id='1937'> -2.8105366e+02 </wgt>
<wgt id='1938'> -2.8104467e+02 </wgt>
<wgt id='1939'> -2.8156248e+02 </wgt>
<wgt id='1940'> -2.8148747e+02 </wgt>
<wgt id='1941'> -2.8356723e+02 </wgt>
<wgt id='1942'> -2.8115776e+02 </wgt>
<wgt id='1943'> -2.8136638e+02 </wgt>
<wgt id='1944'> -2.8081859e+02 </wgt>
<wgt id='1945'> -2.8118270e+02 </wgt>
<wgt id='1946'> -2.8114251e+02 </wgt>
<wgt id='1947'> -2.8136929e+02 </wgt>
<wgt id='1948'> -2.8135048e+02 </wgt>
<wgt id='1949'> -2.8109925e+02 </wgt>
<wgt id='1950'> -2.6996947e+02 </wgt>
<wgt id='1951'> -2.9283467e+02 </wgt>
<wgt id='1952'> -2.9325382e+02 </wgt>
<wgt id='1953'> -2.9286609e+02 </wgt>
<wgt id='1954'> -2.9364006e+02 </wgt>
<wgt id='1955'> -2.9396802e+02 </wgt>
<wgt id='1956'> -2.9253991e+02 </wgt>
<wgt id='1957'> -2.9363338e+02 </wgt>
<wgt id='1958'> -2.9287448e+02 </wgt>
<wgt id='1959'> -2.9403111e+02 </wgt>
<wgt id='1960'> -2.9249579e+02 </wgt>
<wgt id='1961'> -2.9345587e+02 </wgt>
<wgt id='1962'> -2.9306185e+02 </wgt>
<wgt id='1963'> -2.9192810e+02 </wgt>
<wgt id='1964'> -2.9458866e+02 </wgt>
<wgt id='1965'> -2.9233465e+02 </wgt>
<wgt id='1966'> -2.9417813e+02 </wgt>
<wgt id='1967'> -2.9379695e+02 </wgt>
<wgt id='1968'> -2.9269758e+02 </wgt>
<wgt id='1969'> -2.9431190e+02 </wgt>
<wgt id='1970'> -2.9212212e+02 </wgt>
<wgt id='1971'> -2.9319099e+02 </wgt>
<wgt id='1972'> -2.9330360e+02 </wgt>
<wgt id='1973'> -2.9405895e+02 </wgt>
<wgt id='1974'> -2.9217069e+02 </wgt>
<wgt id='1975'> -2.9109073e+02 </wgt>
<wgt id='1976'> -2.9417073e+02 </wgt>
<wgt id='1977'> -2.9275057e+02 </wgt>
<wgt id='1978'> -2.9413107e+02 </wgt>
<wgt id='1979'> -2.9515877e+02 </wgt>
<wgt id='1980'> -2.9166441e+02 </wgt>
<wgt id='1981'> -2.9325382e+02 </wgt>
<wgt id='1982'> -2.9351390e+02 </wgt>
<wgt id='1983'> -2.9264840e+02 </wgt>
<wgt id='1984'> -2.9345550e+02 </wgt>
<wgt id='1985'> -2.9286248e+02 </wgt>
<wgt id='1986'> -2.9392984e+02 </wgt>
<wgt id='1987'> -2.9369070e+02 </wgt>
<wgt id='1988'> -2.9259312e+02 </wgt>
<wgt id='1989'> -2.9398794e+02 </wgt>
<wgt id='1990'> -2.9337276e+02 </wgt>
<wgt id='1991'> -2.9327573e+02 </wgt>
<wgt id='1992'> -2.9234058e+02 </wgt>
<wgt id='1993'> -2.9382346e+02 </wgt>
<wgt id='1994'> -2.9203506e+02 </wgt>
<wgt id='1995'> -2.8738977e+02 </wgt>
<wgt id='1996'> -2.8715498e+02 </wgt>
<wgt id='1997'> -2.8757745e+02 </wgt>
<wgt id='1998'> -2.8780926e+02 </wgt>
<wgt id='1999'> -2.8692371e+02 </wgt>
<wgt id='2000'> -2.8799291e+02 </wgt>
<wgt id='2001'> -2.8674143e+02 </wgt>
<wgt id='2002'> -2.8857265e+02 </wgt>
<wgt id='2003'> -2.8618421e+02 </wgt>
<wgt id='2004'> -2.8690733e+02 </wgt>
<wgt id='2005'> -2.8783611e+02 </wgt>
<wgt id='2006'> -2.8822147e+02 </wgt>
<wgt id='2007'> -2.8651827e+02 </wgt>
<wgt id='2008'> -2.8669363e+02 </wgt>
<wgt id='2009'> -2.8804428e+02 </wgt>
<wgt id='2010'> -2.8738416e+02 </wgt>
<wgt id='2011'> -2.8738898e+02 </wgt>
<wgt id='2012'> -2.8717421e+02 </wgt>
<wgt id='2013'> -2.8751711e+02 </wgt>
<wgt id='2014'> -2.8715104e+02 </wgt>
<wgt id='2015'> -2.8757394e+02 </wgt>
<wgt id='2016'> -2.8659664e+02 </wgt>
<wgt id='2017'> -2.8777950e+02 </wgt>
<wgt id='2018'> -2.8634749e+02 </wgt>
<wgt id='2019'> -2.8835450e+02 </wgt>
<wgt id='2020'> -2.8504037e+02 </wgt>
<wgt id='2021'> -2.8903708e+02 </wgt>
<wgt id='2022'> -2.8667456e+02 </wgt>
<wgt id='2023'> -2.8838212e+02 </wgt>
<wgt id='2024'> -2.8729418e+02 </wgt>
<wgt id='2025'> -2.8755572e+02 </wgt>
<wgt id='2026'> -2.8594104e+02 </wgt>
<wgt id='2027'> -2.8740606e+02 </wgt>
<wgt id='2028'> -2.8708976e+02 </wgt>
<wgt id='2029'> -2.8413448e+02 </wgt>
<wgt id='2030'> -2.8778993e+02 </wgt>
<wgt id='2031'> -2.8655603e+02 </wgt>
<wgt id='2032'> -2.8860829e+02 </wgt>
<wgt id='2033'> -2.8685421e+02 </wgt>
<wgt id='2034'> -2.8389941e+02 </wgt>
<wgt id='2035'> -2.8656370e+02 </wgt>
<wgt id='2036'> -2.8936475e+02 </wgt>
<wgt id='2037'> -2.8759493e+02 </wgt>
<wgt id='2038'> -2.8408369e+02 </wgt>
<wgt id='2039'> -2.8404209e+02 </wgt>
<wgt id='2040'> -2.8400148e+02 </wgt>
<wgt id='2041'> -2.8395763e+02 </wgt>
<wgt id='2042'> -2.8391569e+02 </wgt>
<wgt id='2043'> -2.8387398e+02 </wgt>
<wgt id='2044'> -2.8383358e+02 </wgt>
<wgt id='2045'> -2.8379174e+02 </wgt>
<wgt id='2046'> -2.8374977e+02 </wgt>
<wgt id='2047'> -2.8370891e+02 </wgt>
<wgt id='2048'> -2.8366751e+02 </wgt>
<wgt id='2049'> -2.8362630e+02 </wgt>
<wgt id='2050'> -2.8358520e+02 </wgt>
<wgt id='2051'> -2.8354319e+02 </wgt>
<wgt id='2052'> -2.8350163e+02 </wgt>
<wgt id='2053'> -2.8346094e+02 </wgt>
<wgt id='2054'> -2.8341928e+02 </wgt>
<wgt id='2055'> -2.8337800e+02 </wgt>
<wgt id='2056'> -2.8333581e+02 </wgt>
<wgt id='2057'> -2.8329522e+02 </wgt>
<wgt id='2058'> -2.8325373e+02 </wgt>
<wgt id='2059'> -2.8321207e+02 </wgt>
<wgt id='2060'> -2.8317124e+02 </wgt>
<wgt id='2061'> -2.8312950e+02 </wgt>
<wgt id='2062'> -2.8308791e+02 </wgt>
<wgt id='2063'> -2.8304712e+02 </wgt>
<wgt id='2064'> -2.8300572e+02 </wgt>
<wgt id='2065'> -2.8296365e+02 </wgt>
<wgt id='2066'> -2.8292239e+02 </wgt>
<wgt id='2067'> -2.8288165e+02 </wgt>
<wgt id='2068'> -2.8284008e+02 </wgt>
<wgt id='2069'> -2.7767925e+02 </wgt>
<wgt id='2070'> -2.7774413e+02 </wgt>
<wgt id='2071'> -2.7817400e+02 </wgt>
<wgt id='2072'> -2.7671395e+02 </wgt>
<wgt id='2073'> -2.7777059e+02 </wgt>
<wgt id='2074'> -2.7787935e+02 </wgt>
<wgt id='2075'> -2.7834940e+02 </wgt>
<wgt id='2076'> -2.7903706e+02 </wgt>
<wgt id='2077'> -2.7840492e+02 </wgt>
<wgt id='2078'> -2.7744821e+02 </wgt>
<wgt id='2079'> -2.7688108e+02 </wgt>
<wgt id='2080'> -2.7964188e+02 </wgt>
<wgt id='2081'> -2.7666939e+02 </wgt>
<wgt id='2082'> -2.7589582e+02 </wgt>
<wgt id='2083'> -2.7715669e+02 </wgt>
<wgt id='2084'> -2.7734742e+02 </wgt>
<wgt id='2085'> -2.7995094e+02 </wgt>
<wgt id='2086'> -2.7614076e+02 </wgt>
<wgt id='2087'> -2.7735973e+02 </wgt>
<wgt id='2088'> -2.7774993e+02 </wgt>
<wgt id='2089'> -2.7972819e+02 </wgt>
<wgt id='2090'> -2.7775667e+02 </wgt>
<wgt id='2091'> -2.7823177e+02 </wgt>
<wgt id='2092'> -2.7643417e+02 </wgt>
<wgt id='2093'> -2.7693192e+02 </wgt>
<wgt id='2094'> -2.7809688e+02 </wgt>
<wgt id='2095'> -2.7763562e+02 </wgt>
<wgt id='2096'> -2.7750139e+02 </wgt>
<wgt id='2097'> -2.7801637e+02 </wgt>
<wgt id='2098'> -2.7796420e+02 </wgt>
<wgt id='2099'> -2.7799619e+02 </wgt>
<wgt id='2100'> -2.7752240e+02 </wgt>
<wgt id='2101'> -2.7785904e+02 </wgt>
<wgt id='2102'> -2.7802306e+02 </wgt>
<wgt id='2103'> -2.7767384e+02 </wgt>
<wgt id='2104'> -2.7813407e+02 </wgt>
<wgt id='2105'> -2.7775890e+02 </wgt>
<wgt id='2106'> -2.7793922e+02 </wgt>
<wgt id='2107'> -2.7778086e+02 </wgt>
<wgt id='2108'> -2.7771523e+02 </wgt>
<wgt id='2109'> -2.7738373e+02 </wgt>
<wgt id='2110'> -2.7758597e+02 </wgt>
<wgt id='2111'> -2.7766591e+02 </wgt>
<wgt id='2112'> -2.7740383e+02 </wgt>
<wgt id='2113'> -2.7773676e+02 </wgt>
<wgt id='2114'> -2.7767206e+02 </wgt>
<wgt id='2115'> -2.7731847e+02 </wgt>
<wgt id='2116'> -2.7764104e+02 </wgt>
<wgt id='2117'> -2.7777792e+02 </wgt>
<wgt id='2118'> -2.7751984e+02 </wgt>
<wgt id='2119'> -2.7770086e+02 </wgt>
<wgt id='2120'> -2.7784010e+02 </wgt>
<wgt id='2121'> -2.7781167e+02 </wgt>
<wgt id='2122'> -2.7770901e+02 </wgt>
<wgt id='2123'> -2.7755980e+02 </wgt>
<wgt id='2124'> -2.7756570e+02 </wgt>
<wgt id='2125'> -2.7789259e+02 </wgt>
<wgt id='2126'> -2.7767813e+02 </wgt>
<wgt id='2127'> -2.7744810e+02 </wgt>
<wgt id='2128'> -2.7755143e+02 </wgt>
<wgt id='2129'> -2.7757922e+02 </wgt>
<wgt id='2130'> -2.7770579e+02 </wgt>
<wgt id='2131'> -2.7772025e+02 </wgt>
<wgt id='2132'> -2.7779070e+02 </wgt>
<wgt id='2133'> -2.7762811e+02 </wgt>
<wgt id='2134'> -2.7766167e+02 </wgt>
<wgt id='2135'> -2.7769886e+02 </wgt>
<wgt id='2136'> -2.7776984e+02 </wgt>
<wgt id='2137'> -2.7773470e+02 </wgt>
<wgt id='2138'> -2.7786053e+02 </wgt>
<wgt id='2139'> -2.7763056e+02 </wgt>
<wgt id='2140'> -2.7785854e+02 </wgt>
<wgt id='2141'> -2.7786934e+02 </wgt>
<wgt id='2142'> -2.7760438e+02 </wgt>
<wgt id='2143'> -2.7771441e+02 </wgt>
<wgt id='2144'> -2.7765374e+02 </wgt>
<wgt id='2145'> -2.7765833e+02 </wgt>
<wgt id='2146'> -2.7774103e+02 </wgt>
<wgt id='2147'> -2.7770599e+02 </wgt>
<wgt id='2148'> -2.7764484e+02 </wgt>
<wgt id='2149'> -2.7788835e+02 </wgt>
<wgt id='2150'> -2.7765686e+02 </wgt>
<wgt id='2151'> -2.7775139e+02 </wgt>
<wgt id='2152'> -2.7758636e+02 </wgt>
<wgt id='2153'> -2.7758895e+02 </wgt>
<wgt id='2154'> -2.7759281e+02 </wgt>
<wgt id='2155'> -2.7772404e+02 </wgt>
<wgt id='2156'> -2.7748497e+02 </wgt>
<wgt id='2157'> -2.7760694e+02 </wgt>
<wgt id='2158'> -2.7760899e+02 </wgt>
<wgt id='2159'> -2.7772784e+02 </wgt>
<wgt id='2160'> -2.7764320e+02 </wgt>
<wgt id='2161'> -2.7766921e+02 </wgt>
<wgt id='2162'> -2.7762444e+02 </wgt>
<wgt id='2163'> -2.7764988e+02 </wgt>
<wgt id='2164'> -2.7771049e+02 </wgt>
<wgt id='2165'> -2.7761917e+02 </wgt>
<wgt id='2166'> -2.7769850e+02 </wgt>
<wgt id='2167'> -2.7767669e+02 </wgt>
<wgt id='2168'> -2.7761378e+02 </wgt>
<wgt id='2169'> -2.7767558e+02 </wgt>
<wgt id='2170'> -2.7767579e+02 </wgt>
<wgt id='2171'> -2.7765662e+02 </wgt>
<wgt id='2172'> -2.7768284e+02 </wgt>
<wgt id='2173'> -2.7768342e+02 </wgt>
<wgt id='2174'> -2.7768973e+02 </wgt>
<wgt id='2175'> -2.7768076e+02 </wgt>
<wgt id='2176'> -2.7766416e+02 </wgt>
<wgt id='2177'> -2.9059388e+02 </wgt>
<wgt id='2178'> -2.7723072e+02 </wgt>
<wgt id='2179'> -2.9052960e+02 </wgt>
<wgt id='2180'> -2.9563390e+02 </wgt>
<wgt id='2181'> -2.8430450e+02 </wgt>
<wgt id='2182'> -2.7541970e+02 </wgt>
<wgt id='2183'> -2.9664896e+02 </wgt>
<wgt id='2184'> -2.9114535e+02 </wgt>
<wgt id='2185'> -2.9051599e+02 </wgt>
<wgt id='2186'> -2.9507347e+02 </wgt>
<wgt id='2187'> -2.8690670e+02 </wgt>
<wgt id='2188'> -2.8414862e+02 </wgt>
<wgt id='2189'> -2.9473677e+02 </wgt>
<wgt id='2190'> -2.9280454e+02 </wgt>
<wgt id='2191'> -2.9079376e+02 </wgt>
<wgt id='2192'> -2.9783582e+02 </wgt>
<wgt id='2193'> -2.9286100e+02 </wgt>
<wgt id='2194'> -2.9087039e+02 </wgt>
<wgt id='2195'> -2.8957022e+02 </wgt>
<wgt id='2196'> -2.9312613e+02 </wgt>
<wgt id='2197'> -2.9898740e+02 </wgt>
<wgt id='2198'> -2.9439772e+02 </wgt>
<wgt id='2199'> -2.8935691e+02 </wgt>
<wgt id='2200'> -3.0931985e+02 </wgt>
<wgt id='2201'> -2.9166656e+02 </wgt>
<wgt id='2202'> -2.8960360e+02 </wgt>
<wgt id='2203'> -2.8922616e+02 </wgt>
<wgt id='2204'> -2.8766409e+02 </wgt>
<wgt id='2205'> -2.8825482e+02 </wgt>
<wgt id='2206'> -2.9451829e+02 </wgt>
<wgt id='2207'> -2.9909265e+02 </wgt>
<wgt id='2208'> -2.8984891e+02 </wgt>
<wgt id='2209'> -2.8484151e+02 </wgt>
<wgt id='2210'> -2.8569033e+02 </wgt>
<wgt id='2211'> -2.9250928e+02 </wgt>
<wgt id='2212'> -2.9669273e+02 </wgt>
<wgt id='2213'> -2.8766941e+02 </wgt>
<wgt id='2214'> -2.9614803e+02 </wgt>
<wgt id='2215'> -2.8800643e+02 </wgt>
<wgt id='2216'> -2.8522333e+02 </wgt>
<wgt id='2217'> -2.8926859e+02 </wgt>
<wgt id='2218'> -2.9027667e+02 </wgt>
<wgt id='2219'> -2.8960299e+02 </wgt>
<wgt id='2220'> -2.9018890e+02 </wgt>
<wgt id='2221'> -2.9187903e+02 </wgt>
<wgt id='2222'> -2.9111321e+02 </wgt>
<wgt id='2223'> -2.9459586e+02 </wgt>
<wgt id='2224'> -2.8657947e+02 </wgt>
<wgt id='2225'> -2.8837605e+02 </wgt>
<wgt id='2226'> -2.8741371e+02 </wgt>
<wgt id='2227'> -2.8786552e+02 </wgt>
<wgt id='2228'> -2.8921281e+02 </wgt>
<wgt id='2229'> -2.8759780e+02 </wgt>
<wgt id='2230'> -2.9496531e+02 </wgt>
<wgt id='2231'> -2.9026843e+02 </wgt>
<wgt id='2232'> -2.8545173e+02 </wgt>
<wgt id='2233'> -2.8864713e+02 </wgt>
<wgt id='2234'> -2.9109122e+02 </wgt>
<wgt id='2235'> -2.8713830e+02 </wgt>
<wgt id='2236'> -2.9862108e+02 </wgt>
<wgt id='2237'> -2.8832799e+02 </wgt>
<wgt id='2238'> -2.8808002e+02 </wgt>
<wgt id='2239'> -2.9399790e+02 </wgt>
<wgt id='2240'> -2.8784853e+02 </wgt>
<wgt id='2241'> -2.8748145e+02 </wgt>
<wgt id='2242'> -2.8903142e+02 </wgt>
<wgt id='2243'> -2.9246306e+02 </wgt>
<wgt id='2244'> -3.0970717e+02 </wgt>
<wgt id='2245'> -2.8848776e+02 </wgt>
<wgt id='2246'> -2.8173808e+02 </wgt>
<wgt id='2247'> -2.8558972e+02 </wgt>
<wgt id='2248'> -2.8770835e+02 </wgt>
<wgt id='2249'> -2.9404993e+02 </wgt>
<wgt id='2250'> -2.7697062e+02 </wgt>
<wgt id='2251'> -2.9596749e+02 </wgt>
<wgt id='2252'> -2.8727747e+02 </wgt>
<wgt id='2253'> -2.8815579e+02 </wgt>
<wgt id='2254'> -2.9293189e+02 </wgt>
<wgt id='2255'> -2.9603353e+02 </wgt>
<wgt id='2256'> -2.8653967e+02 </wgt>
<wgt id='2257'> -2.8959402e+02 </wgt>
<wgt id='2258'> -2.9263598e+02 </wgt>
<wgt id='2259'> -2.8436939e+02 </wgt>
<wgt id='2260'> -2.9763084e+02 </wgt>
<wgt id='2261'> -2.8795074e+02 </wgt>
<wgt id='2262'> -2.8752803e+02 </wgt>
<wgt id='2263'> -2.8869109e+02 </wgt>
<wgt id='2264'> -2.9314425e+02 </wgt>
<wgt id='2265'> -2.8879625e+02 </wgt>
<wgt id='2266'> -2.9924512e+02 </wgt>
<wgt id='2267'> -2.8915779e+02 </wgt>
<wgt id='2268'> -2.8612103e+02 </wgt>
<wgt id='2269'> -2.8781949e+02 </wgt>
<wgt id='2270'> -2.9000982e+02 </wgt>
<wgt id='2271'> -2.9840786e+02 </wgt>
<wgt id='2272'> -2.8825301e+02 </wgt>
<wgt id='2273'> -2.9249803e+02 </wgt>
<wgt id='2274'> -2.8868164e+02 </wgt>
<wgt id='2275'> -2.9262821e+02 </wgt>
<wgt id='2276'> -2.9161944e+02 </wgt>
<wgt id='2277'> -2.9710275e+02 </wgt>
<wgt id='2278'> -2.8159479e+02 </wgt>
<wgt id='2279'> -2.9767051e+02 </wgt>
<wgt id='2280'> -2.8483659e+02 </wgt>
<wgt id='2281'> -3.2843463e+02 </wgt>
<wgt id='2282'> -4.7514093e+02 </wgt>
<wgt id='2283'> -3.4800517e+02 </wgt>
<wgt id='2284'> -4.7347345e+02 </wgt>
</rwgt>
</event>
<event npLO=" -1 " npNLO=" 2 ">
 5      2 -2.8781417e+02 2.21025170e+01 7.54677110e-03 1.23562090e-01
       21 -1    0    0  502  501 +0.0000000000e+00 +0.0000000000e+00 +4.9648868000e+01 4.9648868000e+01 0.0000000000e+00 0.0000e+00 9.0000e+00
       21 -1    0    0  504  502 +0.0000000000e+00 +0.0000000000e+00 -1.4629615000e+03 1.4629615000e+03 0.0000000000e+00 0.0000e+00 9.0000e+00
       25  1    1    2    0    0 -5.0062710000e+01 -3.7304909000e+01 -3.4189616000e+01 1.2274714000e+02 1.0000000000e+02 0.0000e+00 9.0000e+00
       21  1    1    2  503  501 +7.8913923000e+00 -2.0645755000e+01 -2.3184551000e+01 3.2031932000e+01 0.0000000000e+00 0.0000e+00 9.0000e+00
       21  1    1    2  504  503 +4.2171318000e+01 +5.7950664000e+01 -1.3559385000e+03 1.3578313000e+03 0.0000000000e+00 0.0000e+00 9.0000e+00
#aMCatNLO 1  0  0  1  5 0.49425145E+01 0.00000000E+00 -9  6  0 0.00000000E+00 0.00000000E+00 0.00000000E+00 0.00000000E+00 0.00000000E+00
<rwgt>
<wgt id='1001'> -2.8781417e+02 </wgt>
<wgt id='1002'> -1.7015941e+02 </wgt>
<wgt id='1003'> -5.1858939e+02 </wgt>
<wgt id='1004'> -2.5884380e+02 </wgt>
<wgt id='1005'> -1.5300052e+02 </wgt>
<wgt id='1006'> -4.6648391e+02 </wgt>
<wgt id='1007'> -3.2170344e+02 </wgt>
<wgt id='1008'> -1.9024865e+02 </wgt>
<wgt id='1009'> -5.7949130e+02 </wgt>
<wgt id='1010'> -2.8781417e+02 </wgt>
<wgt id='1011'> -2.8767259e+02 </wgt>
<wgt id='1012'> -2.8761865e+02 </wgt>
<wgt id='1013'> -2.8680463e+02 </wgt>
<wgt id='1014'> -2.8918239e+02 </wgt>
<wgt id='1015'> -2.8594496e+02 </wgt>
<wgt id='1016'> -2.8804531e+02 </wgt>
<wgt id='1017'> -2.8761181e+02 </wgt>
<wgt id='1018'> -2.8790515e+02 </wgt>
<wgt id='1019'> -2.8681664e+02 </wgt>
<wgt id='1020'> -2.8642989e+02 </wgt>
<wgt id='1021'> -2.8851381e+02 </wgt>
<wgt id='1022'> -2.8961262e+02 </wgt>
<wgt id='1023'> -2.8775550e+02 </wgt>
<wgt id='1024'> -2.8813585e+02 </wgt>
<wgt id='1025'> -2.8931456e+02 </wgt>
<wgt id='1026'> -2.8766746e+02 </wgt>
<wgt id='1027'> -2.8788223e+02 </wgt>
<wgt id='1028'> -2.8653042e+02 </wgt>
<wgt id='1029'> -2.8875156e+02 </wgt>
<wgt id='1030'> -2.8743127e+02 </wgt>
<wgt id='1031'> -2.8833233e+02 </wgt>
<wgt id='1032'> -2.8862593e+02 </wgt>
<wgt id='1033'> -2.8606441e+02 </wgt>
<wgt id='1034'> -2.8902058e+02 </wgt>
<wgt id='1035'> -2.8615746e+02 </wgt>
<wgt id='1036'> -2.8630333e+02 </wgt>
<wgt id='1037'> -2.8990203e+02 </wgt>
<wgt id='1038'> -2.8456105e+02 </wgt>
<wgt id='1039'> -2.8676928e+02 </wgt>
<wgt id='1040'> -2.8959354e+02 </wgt>
<wgt id='1041'> -2.8610107e+02 </wgt>
<wgt id='1042'> -2.8738499e+02 </wgt>
<wgt id='1043'> -2.8701893e+02 </wgt>
<wgt id='1044'> -2.8583494e+02 </wgt>
<wgt id='1045'> -2.8956873e+02 </wgt>
<wgt id='1046'> -2.8850972e+02 </wgt>
<wgt id='1047'> -2.8721282e+02 </wgt>
<wgt id='1048'> -2.8732748e+02 </wgt>
<wgt id='1049'> -2.8763231e+02 </wgt>
<wgt id='1050'> -2.8741186e+02 </wgt>
<wgt id='1051'> -2.8665788e+02 </wgt>
<wgt id='1052'> -2.8847177e+02 </wgt>
<wgt id='1053'> -2.8788719e+02 </wgt>
<wgt id='1054'> -2.8799811e+02 </wgt>
<wgt id='1055'> -2.8827879e+02 </wgt>
<wgt id='1056'> -2.8646005e+02 </wgt>
<wgt id='1057'> -2.8801195e+02 </wgt>
<wgt id='1058'> -2.8768096e+02 </wgt>
<wgt id='1059'> -2.8714551e+02 </wgt>
<wgt id='1060'> -2.8758588e+02 </wgt>
<wgt id='1061'> -2.8729807e+02 </wgt>
<wgt id='1062'> -2.8858345e+02 </wgt>
<wgt id='1063'> -2.8788070e+02 </wgt>
<wgt id='1064'> -2.8779723e+02 </wgt>
<wgt id='1065'> -2.8728846e+02 </wgt>
<wgt id='1066'> -2.8756410e+02 </wgt>
<wgt id='1067'> -2.8786531e+02 </wgt>
<wgt id='1068'> -2.8812875e+02 </wgt>
<wgt id='1069'> -2.8811491e+02 </wgt>
<wgt id='1070'> -2.8760937e+02 </wgt>
<wgt id='1071'> -2.8754142e+02 </wgt>
<wgt id='1072'> -2.8811749e+02 </wgt>
<wgt id='1073'> -2.8777272e+02 </wgt>
<wgt id='1074'> -2.8790712e+02 </wgt>
<wgt id='1075'> -2.8822342e+02 </wgt>
<wgt id='1076'> -2.8759122e+02 </wgt>
<wgt id='1077'> -2.8737647e+02 </wgt>
<wgt id='1078'> -2.8850564e+02 </wgt>
<wgt id='1079'> -2.8780109e+02 </wgt>
<wgt id='1080'> -2.8810501e+02 </wgt>
<wgt id='1081'> -2.8753896e+02 </wgt>
<wgt id='1082'> -2.8753557e+02 </wgt>
<wgt id='1083'> -2.8795526e+02 </wgt>
<wgt id='1084'> -2.8762156e+02 </wgt>
<wgt id='1085'> -2.8772238e+02 </wgt>
<wgt id='1086'> -2.8782348e+02 </wgt>
<wgt id='1087'> -2.8810627e+02 </wgt>
<wgt id='1088'> -2.8792809e+02 </wgt>
<wgt id='1089'> -2.8764837e+02 </wgt>
<wgt id='1090'> -2.8779850e+02 </wgt>
<wgt id='1091'> -2.8765478e+02 </wgt>
<wgt id='1092'> -2.8790025e+02 </wgt>
<wgt id='1093'> -2.8829106e+02 </wgt>
<wgt id='1094'> -2.8778596e+02 </wgt>
<wgt id='1095'> -2.8795320e+02 </wgt>
<wgt id='1096'> -2.8774251e+02 </wgt>
<wgt id='1097'> -2.8787940e+02 </wgt>
<wgt id='1098'> -2.8773874e+02 </wgt>
<wgt id='1099'> -2.8770823e+02 </wgt>
<wgt id='1100'> -2.8792311e+02 </wgt>
<wgt id='1101'> -2.8788546e+02 </wgt>
<wgt id='1102'> -2.8806829e+02 </wgt>
<wgt id='1103'> -2.8760548e+02 </wgt>
<wgt id='1104'> -2.8782328e+02 </wgt>
<wgt id='1105'> -2.8799057e+02 </wgt>
<wgt id='1106'> -2.8771408e+02 </wgt>
<wgt id='1107'> -2.8794601e+02 </wgt>
<wgt id='1108'> -2.8787253e+02 </wgt>
<wgt id='1109'> -2.8790011e+02 </wgt>
<wgt id='1110'> -2.8781414e+02 </wgt>
<wgt id='1111'> -2.6254868e+02 </wgt>
<wgt id='1112'> -3.1353769e+02 </wgt>
<wgt id='1113'> -2.8781414e+02 </wgt>
<wgt id='1114'> -3.0243787e+02 </wgt>
<wgt id='1115'> -2.8044864e+02 </wgt>
<wgt id='1116'> -2.7395113e+02 </wgt>
<wgt id='1117'> -2.9035506e+02 </wgt>
<wgt id='1118'> -2.8598750e+02 </wgt>
<wgt id='1119'> -2.9402890e+02 </wgt>
<wgt id='1120'> -2.7710943e+02 </wgt>
<wgt id='1121'> -2.7326550e+02 </wgt>
<wgt id='1122'> -2.8346350e+02 </wgt>
<wgt id='1123'> -3.1167571e+02 </wgt>
<wgt id='1124'> -2.9814870e+02 </wgt>
<wgt id='1125'> -2.8844101e+02 </wgt>
<wgt id='1126'> -2.9466131e+02 </wgt>
<wgt id='1127'> -2.8753568e+02 </wgt>
<wgt id='1128'> -2.9283439e+02 </wgt>
<wgt id='1129'> -2.8702527e+02 </wgt>
<wgt id='1130'> -2.8759114e+02 </wgt>
<wgt id='1131'> -2.7706775e+02 </wgt>
<wgt id='1132'> -2.8205630e+02 </wgt>
<wgt id='1133'> -2.8669009e+02 </wgt>
<wgt id='1134'> -2.8847272e+02 </wgt>
<wgt id='1135'> -2.8010934e+02 </wgt>
<wgt id='1136'> -2.7832583e+02 </wgt>
<wgt id='1137'> -2.8539849e+02 </wgt>
<wgt id='1138'> -2.7565373e+02 </wgt>
<wgt id='1139'> -2.8536689e+02 </wgt>
<wgt id='1140'> -2.9912582e+02 </wgt>
<wgt id='1141'> -2.7037659e+02 </wgt>
<wgt id='1142'> -2.9285368e+02 </wgt>
<wgt id='1143'> -2.9233001e+02 </wgt>
<wgt id='1144'> -2.7438391e+02 </wgt>
<wgt id='1145'> -3.0661613e+02 </wgt>
<wgt id='1146'> -2.8220947e+02 </wgt>
<wgt id='1147'> -2.8511220e+02 </wgt>
<wgt id='1148'> -2.8947663e+02 </wgt>
<wgt id='1149'> -2.9159750e+02 </wgt>
<wgt id='1150'> -2.8586984e+02 </wgt>
<wgt id='1151'> -2.8585237e+02 </wgt>
<wgt id='1152'> -2.9893386e+02 </wgt>
<wgt id='1153'> -2.8017387e+02 </wgt>
<wgt id='1154'> -2.8304971e+02 </wgt>
<wgt id='1155'> -2.8303309e+02 </wgt>
<wgt id='1156'> -2.9216893e+02 </wgt>
<wgt id='1157'> -2.9012089e+02 </wgt>
<wgt id='1158'> -2.8413054e+02 </wgt>
<wgt id='1159'> -2.9083106e+02 </wgt>
<wgt id='1160'> -2.9251612e+02 </wgt>
<wgt id='1161'> -2.9077399e+02 </wgt>
<wgt id='1162'> -3.0465054e+02 </wgt>
<wgt id='1163'> -2.9442032e+02 </wgt>
<wgt id='1164'> -2.9730484e+02 </wgt>
<wgt id='1165'> -2.7961500e+02 </wgt>
<wgt id='1166'> -2.9531263e+02 </wgt>
<wgt id='1167'> -2.8911514e+02 </wgt>
<wgt id='1168'> -2.8126602e+02 </wgt>
<wgt id='1169'> -2.8449683e+02 </wgt>
<wgt id='1170'> -2.8665444e+02 </wgt>
<wgt id='1171'> -2.9161459e+02 </wgt>
<wgt id='1172'> -2.7473443e+02 </wgt>
<wgt id='1173'> -2.9107011e+02 </wgt>
<wgt id='1174'> -2.9669060e+02 </wgt>
<wgt id='1175'> -2.8246577e+02 </wgt>
<wgt id='1176'> -2.8941496e+02 </wgt>
<wgt id='1177'> -2.9102819e+02 </wgt>
<wgt id='1178'> -2.8187098e+02 </wgt>
<wgt id='1179'> -2.7676601e+02 </wgt>
<wgt id='1180'> -2.7530643e+02 </wgt>
<wgt id='1181'> -2.8915612e+02 </wgt>
<wgt id='1182'> -2.8891822e+02 </wgt>
<wgt id='1183'> -2.9781143e+02 </wgt>
<wgt id='1184'> -2.9460175e+02 </wgt>
<wgt id='1185'> -2.9707720e+02 </wgt>
<wgt id='1186'> -2.8395215e+02 </wgt>
<wgt id='1187'> -2.8438888e+02 </wgt>
<wgt id='1188'> -2.8805213e+02 </wgt>
<wgt id='1189'> -2.9358015e+02 </wgt>
<wgt id='1190'> -2.8923029e+02 </wgt>
<wgt id='1191'> -2.9525211e+02 </wgt>
<wgt id='1192'> -2.9182952e+02 </wgt>
<wgt id='1193'> -3.0217908e+02 </wgt>
<wgt id='1194'> -2.8869815e+02 </wgt>
<wgt id='1195'> -2.8702527e+02 </wgt>
<wgt id='1196'> -2.9042960e+02 </wgt>
<wgt id='1197'> -2.7960829e+02 </wgt>
<wgt id='1198'> -2.9102360e+02 </wgt>
<wgt id='1199'> -2.9636274e+02 </wgt>
<wgt id='1200'> -2.8346483e+02 </wgt>
<wgt id='1201'> -2.9087678e+02 </wgt>
<wgt id='1202'> -2.7687938e+02 </wgt>
<wgt id='1203'> -2.7847632e+02 </wgt>
<wgt id='1204'> -2.7101451e+02 </wgt>
<wgt id='1205'> -3.0075447e+02 </wgt>
<wgt id='1206'> -2.8753410e+02 </wgt>
<wgt id='1207'> -2.8881502e+02 </wgt>
<wgt id='1208'> -2.9164099e+02 </wgt>
<wgt id='1209'> -2.8083246e+02 </wgt>
<wgt id='1210'> -3.0568288e+02 </wgt>
<wgt id='1211'> -2.8553104e+02 </wgt>
<wgt id='1212'> -2.7612270e+02 </wgt>
<wgt id='1213'> -2.7887958e+02 </wgt>
<wgt id='1214'> -2.8669552e+02 </wgt>
<wgt id='1215'> -2.8629151e+02 </wgt>
<wgt id='1216'> -2.8652552e+02 </wgt>
<wgt id='1217'> -2.8609906e+02 </wgt>
<wgt id='1218'> -2.8797786e+02 </wgt>
<wgt id='1219'> -2.8668740e+02 </wgt>
<wgt id='1220'> -2.8569191e+02 </wgt>
<wgt id='1221'> -2.8592417e+02 </wgt>
<wgt id='1222'> -2.8539818e+02 </wgt>
<wgt id='1223'> -2.8741584e+02 </wgt>
<wgt id='1224'> -2.8580571e+02 </wgt>
<wgt id='1225'> -2.8573466e+02 </wgt>
<wgt id='1226'> -2.8704069e+02 </wgt>
<wgt id='1227'> -2.8635999e+02 </wgt>
<wgt id='1228'> -2.8681884e+02 </wgt>
<wgt id='1229'> -2.8696300e+02 </wgt>
<wgt id='1230'> -2.8754672e+02 </wgt>
<wgt id='1231'> -2.8676320e+02 </wgt>
<wgt id='1232'> -2.8675782e+02 </wgt>
<wgt id='1233'> -2.8688629e+02 </wgt>
<wgt id='1234'> -2.8787229e+02 </wgt>
<wgt id='1235'> -2.8651510e+02 </wgt>
<wgt id='1236'> -2.8756677e+02 </wgt>
<wgt id='1237'> -2.8802272e+02 </wgt>
<wgt id='1238'> -2.8643473e+02 </wgt>
<wgt id='1239'> -2.8770723e+02 </wgt>
<wgt id='1240'> -2.8766122e+02 </wgt>
<wgt id='1241'> -2.8591331e+02 </wgt>
<wgt id='1242'> -2.8589907e+02 </wgt>
<wgt id='1243'> -2.8859510e+02 </wgt>
<wgt id='1244'> -2.8747885e+02 </wgt>
<wgt id='1245'> -2.8673342e+02 </wgt>
<wgt id='1246'> -2.8716661e+02 </wgt>
<wgt id='1247'> -2.8667429e+02 </wgt>
<wgt id='1248'> -2.8561430e+02 </wgt>
<wgt id='1249'> -2.8720447e+02 </wgt>
<wgt id='1250'> -2.8758355e+02 </wgt>
<wgt id='1251'> -2.8489523e+02 </wgt>
<wgt id='1252'> -2.8604802e+02 </wgt>
<wgt id='1253'> -2.8739593e+02 </wgt>
<wgt id='1254'> -2.8893203e+02 </wgt>
<wgt id='1255'> -2.8857236e+02 </wgt>
<wgt id='1256'> -2.8635970e+02 </wgt>
<wgt id='1257'> -2.8331176e+02 </wgt>
<wgt id='1258'> -2.8563074e+02 </wgt>
<wgt id='1259'> -2.8666223e+02 </wgt>
<wgt id='1260'> -2.8844150e+02 </wgt>
<wgt id='1261'> -2.8833747e+02 </wgt>
<wgt id='1262'> -2.8448299e+02 </wgt>
<wgt id='1263'> -2.8540884e+02 </wgt>
<wgt id='1264'> -2.8764079e+02 </wgt>
<wgt id='1265'> -2.8635190e+02 </wgt>
<wgt id='1266'> -2.8663996e+02 </wgt>
<wgt id='1267'> -2.8709418e+02 </wgt>
<wgt id='1268'> -2.8723830e+02 </wgt>
<wgt id='1269'> -2.8739739e+02 </wgt>
<wgt id='1270'> -2.8615938e+02 </wgt>
<wgt id='1271'> -2.8620411e+02 </wgt>
<wgt id='1272'> -2.8629246e+02 </wgt>
<wgt id='1273'> -2.8677678e+02 </wgt>
<wgt id='1274'> -2.8658596e+02 </wgt>
<wgt id='1275'> -2.8689491e+02 </wgt>
<wgt id='1276'> -2.8687749e+02 </wgt>
<wgt id='1277'> -2.8634858e+02 </wgt>
<wgt id='1278'> -2.8660089e+02 </wgt>
<wgt id='1279'> -2.8635689e+02 </wgt>
<wgt id='1280'> -2.8699716e+02 </wgt>
<wgt id='1281'> -2.8682670e+02 </wgt>
<wgt id='1282'> -2.8707832e+02 </wgt>
<wgt id='1283'> -2.8692621e+02 </wgt>
<wgt id='1284'> -2.8607867e+02 </wgt>
<wgt id='1285'> -2.8605152e+02 </wgt>
<wgt id='1286'> -2.8669846e+02 </wgt>
<wgt id='1287'> -2.8595453e+02 </wgt>
<wgt id='1288'> -2.8615110e+02 </wgt>
<wgt id='1289'> -2.8622519e+02 </wgt>
<wgt id='1290'> -2.8725222e+02 </wgt>
<wgt id='1291'> -2.8556650e+02 </wgt>
<wgt id='1292'> -2.8695542e+02 </wgt>
<wgt id='1293'> -2.8701936e+02 </wgt>
<wgt id='1294'> -2.8678055e+02 </wgt>
<wgt id='1295'> -2.8687226e+02 </wgt>
<wgt id='1296'> -2.8707207e+02 </wgt>
<wgt id='1297'> -2.8643362e+02 </wgt>
<wgt id='1298'> -2.8650689e+02 </wgt>
<wgt id='1299'> -2.8639303e+02 </wgt>
<wgt id='1300'> -2.8662721e+02 </wgt>
<wgt id='1301'> -2.8663257e+02 </wgt>
<wgt id='1302'> -2.8676601e+02 </wgt>
<wgt id='1303'> -2.8689025e+02 </wgt>
<wgt id='1304'> -2.8651585e+02 </wgt>
<wgt id='1305'> -2.8645336e+02 </wgt>
<wgt id='1306'> -2.8636351e+02 </wgt>
<wgt id='1307'> -2.8687699e+02 </wgt>
<wgt id='1308'> -2.8666630e+02 </wgt>
<wgt id='1309'> -2.8682215e+02 </wgt>
<wgt id='1310'> -2.8651944e+02 </wgt>
<wgt id='1311'> -2.8693675e+02 </wgt>
<wgt id='1312'> -2.8665417e+02 </wgt>
<wgt id='1313'> -2.8647852e+02 </wgt>
<wgt id='1314'> -2.8681182e+02 </wgt>
<wgt id='1315'> -2.6254868e+02 </wgt>
<wgt id='1316'> -3.1353769e+02 </wgt>
<wgt id='1317'> -1.8396982e+02 </wgt>
<wgt id='1318'> -2.0166630e+02 </wgt>
<wgt id='1319'> -2.2215269e+02 </wgt>
<wgt id='1320'> -2.4086913e+02 </wgt>
<wgt id='1321'> -2.7413673e+02 </wgt>
<wgt id='1322'> -3.0098613e+02 </wgt>
<wgt id='1323'> -3.3872751e+02 </wgt>
<wgt id='1324'> -3.7205473e+02 </wgt>
<wgt id='1325'> -3.0471742e+02 </wgt>
<wgt id='1326'> -3.0456749e+02 </wgt>
<wgt id='1327'> -3.0510895e+02 </wgt>
<wgt id='1328'> -3.0460635e+02 </wgt>
<wgt id='1329'> -3.0625307e+02 </wgt>
<wgt id='1330'> -3.0499823e+02 </wgt>
<wgt id='1331'> -3.0439202e+02 </wgt>
<wgt id='1332'> -3.0525563e+02 </wgt>
<wgt id='1333'> -3.0402182e+02 </wgt>
<wgt id='1334'> -3.0527957e+02 </wgt>
<wgt id='1335'> -3.0405008e+02 </wgt>
<wgt id='1336'> -3.0431978e+02 </wgt>
<wgt id='1337'> -3.0533535e+02 </wgt>
<wgt id='1338'> -3.0560156e+02 </wgt>
<wgt id='1339'> -3.0513634e+02 </wgt>
<wgt id='1340'> -3.0389003e+02 </wgt>
<wgt id='1341'> -3.0517601e+02 </wgt>
<wgt id='1342'> -3.0493331e+02 </wgt>
<wgt id='1343'> -3.0576858e+02 </wgt>
<wgt id='1344'> -3.0421658e+02 </wgt>
<wgt id='1345'> -3.0418224e+02 </wgt>
<wgt id='1346'> -3.0356598e+02 </wgt>
<wgt id='1347'> -3.0437207e+02 </wgt>
<wgt id='1348'> -3.0374251e+02 </wgt>
<wgt id='1349'> -3.0360444e+02 </wgt>
<wgt id='1350'> -3.0513732e+02 </wgt>
<wgt id='1351'> -3.0538877e+02 </wgt>
<wgt id='1352'> -3.0491583e+02 </wgt>
<wgt id='1353'> -3.0320382e+02 </wgt>
<wgt id='1354'> -3.0437932e+02 </wgt>
<wgt id='1355'> -3.0653787e+02 </wgt>
<wgt id='1356'> -3.0498546e+02 </wgt>
<wgt id='1357'> -3.0490065e+02 </wgt>
<wgt id='1358'> -3.0510081e+02 </wgt>
<wgt id='1359'> -3.0467229e+02 </wgt>
<wgt id='1360'> -3.0346774e+02 </wgt>
<wgt id='1361'> -3.0423292e+02 </wgt>
<wgt id='1362'> -3.0577209e+02 </wgt>
<wgt id='1363'> -3.0415481e+02 </wgt>
<wgt id='1364'> -3.0339425e+02 </wgt>
<wgt id='1365'> -3.0524753e+02 </wgt>
<wgt id='1366'> -3.0555976e+02 </wgt>
<wgt id='1367'> -3.0581922e+02 </wgt>
<wgt id='1368'> -3.0577413e+02 </wgt>
<wgt id='1369'> -3.0408929e+02 </wgt>
<wgt id='1370'> -3.0335532e+02 </wgt>
<wgt id='1371'> -3.0733345e+02 </wgt>
<wgt id='1372'> -3.0592511e+02 </wgt>
<wgt id='1373'> -3.0295416e+02 </wgt>
<wgt id='1374'> -3.0486394e+02 </wgt>
<wgt id='1375'> -3.0174528e+02 </wgt>
<wgt id='1376'> -3.0643253e+02 </wgt>
<wgt id='1377'> -3.0387063e+02 </wgt>
<wgt id='1378'> -3.0469016e+02 </wgt>
<wgt id='1379'> -3.0549678e+02 </wgt>
<wgt id='1380'> -3.0574495e+02 </wgt>
<wgt id='1381'> -3.0433517e+02 </wgt>
<wgt id='1382'> -3.0556938e+02 </wgt>
<wgt id='1383'> -3.0449243e+02 </wgt>
<wgt id='1384'> -3.0417289e+02 </wgt>
<wgt id='1385'> -3.0520613e+02 </wgt>
<wgt id='1386'> -3.0505266e+02 </wgt>
<wgt id='1387'> -3.0481991e+02 </wgt>
<wgt id='1388'> -3.0428591e+02 </wgt>
<wgt id='1389'> -3.0530119e+02 </wgt>
<wgt id='1390'> -3.0425116e+02 </wgt>
<wgt id='1391'> -3.0494892e+02 </wgt>
<wgt id='1392'> -3.0469303e+02 </wgt>
<wgt id='1393'> -3.0447000e+02 </wgt>
<wgt id='1394'> -3.0408906e+02 </wgt>
<wgt id='1395'> -3.0417815e+02 </wgt>
<wgt id='1396'> -3.0484335e+02 </wgt>
<wgt id='1397'> -3.0506377e+02 </wgt>
<wgt id='1398'> -3.0454238e+02 </wgt>
<wgt id='1399'> -3.0633265e+02 </wgt>
<wgt id='1400'> -3.0484814e+02 </wgt>
<wgt id='1401'> -3.0514839e+02 </wgt>
<wgt id='1402'> -3.0505111e+02 </wgt>
<wgt id='1403'> -3.0517789e+02 </wgt>
<wgt id='1404'> -3.0384766e+02 </wgt>
<wgt id='1405'> -3.0393198e+02 </wgt>
<wgt id='1406'> -3.0457898e+02 </wgt>
<wgt id='1407'> -3.0410737e+02 </wgt>
<wgt id='1408'> -3.0502959e+02 </wgt>
<wgt id='1409'> -3.0495610e+02 </wgt>
<wgt id='1410'> -3.0474072e+02 </wgt>
<wgt id='1411'> -3.0442733e+02 </wgt>
<wgt id='1412'> -3.0453925e+02 </wgt>
<wgt id='1413'> -3.0459423e+02 </wgt>
<wgt id='1414'> -3.0470496e+02 </wgt>
<wgt id='1415'> -3.0433277e+02 </wgt>
<wgt id='1416'> -3.0441846e+02 </wgt>
<wgt id='1417'> -3.0486431e+02 </wgt>
<wgt id='1418'> -3.0501906e+02 </wgt>
<wgt id='1419'> -3.0489786e+02 </wgt>
<wgt id='1420'> -3.0465001e+02 </wgt>
<wgt id='1421'> -3.0465422e+02 </wgt>
<wgt id='1422'> -3.0464144e+02 </wgt>
<wgt id='1423'> -3.0491057e+02 </wgt>
<wgt id='1424'> -3.0491799e+02 </wgt>
<wgt id='1425'> -3.0478092e+02 </wgt>
<wgt id='1426'> -2.8223544e+02 </wgt>
<wgt id='1427'> -3.3076530e+02 </wgt>
<wgt id='1428'> -3.2541234e+02 </wgt>
<wgt id='1429'> -3.2581196e+02 </wgt>
<wgt id='1430'> -3.2758935e+02 </wgt>
<wgt id='1431'> -3.2448299e+02 </wgt>
<wgt id='1432'> -3.2938534e+02 </wgt>
<wgt id='1433'> -3.2767768e+02 </wgt>
<wgt id='1434'> -3.3196591e+02 </wgt>
<wgt id='1435'> -3.2875932e+02 </wgt>
<wgt id='1436'> -3.2621265e+02 </wgt>
<wgt id='1437'> -3.2627764e+02 </wgt>
<wgt id='1438'> -3.2449413e+02 </wgt>
<wgt id='1439'> -3.3257897e+02 </wgt>
<wgt id='1440'> -3.1854176e+02 </wgt>
<wgt id='1441'> -3.3577501e+02 </wgt>
<wgt id='1442'> -3.1791398e+02 </wgt>
<wgt id='1443'> -3.1806908e+02 </wgt>
<wgt id='1444'> -3.4585023e+02 </wgt>
<wgt id='1445'> -3.1964060e+02 </wgt>
<wgt id='1446'> -3.3134167e+02 </wgt>
<wgt id='1447'> -3.2354872e+02 </wgt>
<wgt id='1448'> -3.2625163e+02 </wgt>
<wgt id='1449'> -3.2064227e+02 </wgt>
<wgt id='1450'> -3.2844222e+02 </wgt>
<wgt id='1451'> -3.2220803e+02 </wgt>
<wgt id='1452'> -3.2917090e+02 </wgt>
<wgt id='1453'> -3.2772321e+02 </wgt>
<wgt id='1454'> -3.2351960e+02 </wgt>
<wgt id='1455'> -3.2098185e+02 </wgt>
<wgt id='1456'> -3.3295882e+02 </wgt>
<wgt id='1457'> -3.3781602e+02 </wgt>
<wgt id='1458'> -3.1783846e+02 </wgt>
<wgt id='1459'> -3.3008548e+02 </wgt>
<wgt id='1460'> -3.1865157e+02 </wgt>
<wgt id='1461'> -3.2250172e+02 </wgt>
<wgt id='1462'> -3.2840428e+02 </wgt>
<wgt id='1463'> -3.2644268e+02 </wgt>
<wgt id='1464'> -3.2420281e+02 </wgt>
<wgt id='1465'> -3.1572949e+02 </wgt>
<wgt id='1466'> -3.3671587e+02 </wgt>
<wgt id='1467'> -3.3240575e+02 </wgt>
<wgt id='1468'> -3.2186443e+02 </wgt>
<wgt id='1469'> -3.3110554e+02 </wgt>
<wgt id='1470'> -3.2438399e+02 </wgt>
<wgt id='1471'> -3.2142222e+02 </wgt>
<wgt id='1472'> -3.3641458e+02 </wgt>
<wgt id='1473'> -3.2548389e+02 </wgt>
<wgt id='1474'> -3.2206234e+02 </wgt>
<wgt id='1475'> -3.2308971e+02 </wgt>
<wgt id='1476'> -3.2019045e+02 </wgt>
<wgt id='1477'> -3.2596157e+02 </wgt>
<wgt id='1478'> -3.2279603e+02 </wgt>
<wgt id='1479'> -3.2476269e+02 </wgt>
<wgt id='1480'> -3.2503358e+02 </wgt>
<wgt id='1481'> -3.1864508e+02 </wgt>
<wgt id='1482'> -3.2525006e+02 </wgt>
<wgt id='1483'> -3.2427597e+02 </wgt>
<wgt id='1484'> -3.2800128e+02 </wgt>
<wgt id='1485'> -2.9544558e+02 </wgt>
<wgt id='1486'> -3.5915541e+02 </wgt>
<wgt id='1487'> -3.1856246e+02 </wgt>
<wgt id='1488'> -3.1784235e+02 </wgt>
<wgt id='1489'> -3.1778522e+02 </wgt>
<wgt id='1490'> -3.1925102e+02 </wgt>
<wgt id='1491'> -3.1815753e+02 </wgt>
<wgt id='1492'> -3.1447472e+02 </wgt>
<wgt id='1493'> -3.2116142e+02 </wgt>
<wgt id='1494'> -3.1813256e+02 </wgt>
<wgt id='1495'> -3.1639855e+02 </wgt>
<wgt id='1496'> -3.2766888e+02 </wgt>
<wgt id='1497'> -3.1344936e+02 </wgt>
<wgt id='1498'> -3.2204025e+02 </wgt>
<wgt id='1499'> -3.1564416e+02 </wgt>
<wgt id='1500'> -3.3487996e+02 </wgt>
<wgt id='1501'> -3.0891367e+02 </wgt>
<wgt id='1502'> -3.2817322e+02 </wgt>
<wgt id='1503'> -3.1241227e+02 </wgt>
<wgt id='1504'> -3.1173925e+02 </wgt>
<wgt id='1505'> -3.2677246e+02 </wgt>
<wgt id='1506'> -3.1070885e+02 </wgt>
<wgt id='1507'> -3.2689707e+02 </wgt>
<wgt id='1508'> -3.1734609e+02 </wgt>
<wgt id='1509'> -3.2112637e+02 </wgt>
<wgt id='1510'> -3.2545511e+02 </wgt>
<wgt id='1511'> -3.1177871e+02 </wgt>
<wgt id='1512'> -3.2369849e+02 </wgt>
<wgt id='1513'> -3.1362983e+02 </wgt>
<wgt id='1514'> -3.2306469e+02 </wgt>
<wgt id='1515'> -3.1233086e+02 </wgt>
<wgt id='1516'> -3.2323040e+02 </wgt>
<wgt id='1517'> -3.1694358e+02 </wgt>
<wgt id='1518'> -3.1848815e+02 </wgt>
<wgt id='1519'> -3.1866822e+02 </wgt>
<wgt id='1520'> -3.1851447e+02 </wgt>
<wgt id='1521'> -3.1864281e+02 </wgt>
<wgt id='1522'> -3.0688860e+02 </wgt>
<wgt id='1523'> -3.2951720e+02 </wgt>
<wgt id='1524'> -3.0954385e+02 </wgt>
<wgt id='1525'> -3.3208863e+02 </wgt>
<wgt id='1526'> -3.1382384e+02 </wgt>
<wgt id='1527'> -3.2309924e+02 </wgt>
<wgt id='1528'> -3.1892811e+02 </wgt>
<wgt id='1529'> -3.1695622e+02 </wgt>
<wgt id='1530'> -3.1377406e+02 </wgt>
<wgt id='1531'> -3.1982028e+02 </wgt>
<wgt id='1532'> -3.3102489e+02 </wgt>
<wgt id='1533'> -3.1618178e+02 </wgt>
<wgt id='1534'> -3.1734679e+02 </wgt>
<wgt id='1535'> -3.2654371e+02 </wgt>
<wgt id='1536'> -3.2584630e+02 </wgt>
<wgt id='1537'> -3.2064030e+02 </wgt>
<wgt id='1538'> -3.2040035e+02 </wgt>
<wgt id='1539'> -3.1856126e+02 </wgt>
<wgt id='1540'> -3.0655174e+02 </wgt>
<wgt id='1541'> -3.2334823e+02 </wgt>
<wgt id='1542'> -3.1667666e+02 </wgt>
<wgt id='1543'> -3.2108654e+02 </wgt>
<wgt id='1544'> -2.9136032e+02 </wgt>
<wgt id='1545'> -3.4965615e+02 </wgt>
<wgt id='1546'> -3.6271727e+02 </wgt>
<wgt id='1547'> -3.0780765e+02 </wgt>
<wgt id='1548'> -3.0795236e+02 </wgt>
<wgt id='1549'> -3.0765001e+02 </wgt>
<wgt id='1550'> -3.0796780e+02 </wgt>
<wgt id='1551'> -3.0770362e+02 </wgt>
<wgt id='1552'> -3.0970929e+02 </wgt>
<wgt id='1553'> -3.0604360e+02 </wgt>
<wgt id='1554'> -3.0682939e+02 </wgt>
<wgt id='1555'> -3.0890267e+02 </wgt>
<wgt id='1556'> -3.0820398e+02 </wgt>
<wgt id='1557'> -3.0740832e+02 </wgt>
<wgt id='1558'> -3.0804858e+02 </wgt>
<wgt id='1559'> -3.0727128e+02 </wgt>
<wgt id='1560'> -3.0770062e+02 </wgt>
<wgt id='1561'> -3.0798278e+02 </wgt>
<wgt id='1562'> -3.0755892e+02 </wgt>
<wgt id='1563'> -3.0795083e+02 </wgt>
<wgt id='1564'> -3.0627772e+02 </wgt>
<wgt id='1565'> -3.0960370e+02 </wgt>
<wgt id='1566'> -3.0782068e+02 </wgt>
<wgt id='1567'> -3.0779685e+02 </wgt>
<wgt id='1568'> -3.0682285e+02 </wgt>
<wgt id='1569'> -3.0909426e+02 </wgt>
<wgt id='1570'> -3.0527257e+02 </wgt>
<wgt id='1571'> -3.0945351e+02 </wgt>
<wgt id='1572'> -3.1217679e+02 </wgt>
<wgt id='1573'> -3.0355778e+02 </wgt>
<wgt id='1574'> -3.0773412e+02 </wgt>
<wgt id='1575'> -3.0784686e+02 </wgt>
<wgt id='1576'> -3.0363916e+02 </wgt>
<wgt id='1577'> -3.1291009e+02 </wgt>
<wgt id='1578'> -2.9977509e+02 </wgt>
<wgt id='1579'> -3.1723241e+02 </wgt>
<wgt id='1580'> -3.1103523e+02 </wgt>
<wgt id='1581'> -3.0472476e+02 </wgt>
<wgt id='1582'> -3.0930480e+02 </wgt>
<wgt id='1583'> -3.0432223e+02 </wgt>
<wgt id='1584'> -3.0797911e+02 </wgt>
<wgt id='1585'> -3.0757614e+02 </wgt>
<wgt id='1586'> -3.0600034e+02 </wgt>
<wgt id='1587'> -3.0987101e+02 </wgt>
<wgt id='1588'> -3.0311498e+02 </wgt>
<wgt id='1589'> -3.1323179e+02 </wgt>
<wgt id='1590'> -3.0987378e+02 </wgt>
<wgt id='1591'> -3.0726983e+02 </wgt>
<wgt id='1592'> -3.0697867e+02 </wgt>
<wgt id='1593'> -3.0991519e+02 </wgt>
<wgt id='1594'> -3.0561881e+02 </wgt>
<wgt id='1595'> -3.1226182e+02 </wgt>
<wgt id='1596'> -3.0580954e+02 </wgt>
<wgt id='1597'> -3.0894330e+02 </wgt>
<wgt id='1598'> -3.1021608e+02 </wgt>
<wgt id='1599'> -3.1004272e+02 </wgt>
<wgt id='1600'> -3.1044922e+02 </wgt>
<wgt id='1601'> -3.1137027e+02 </wgt>
<wgt id='1602'> -3.0906920e+02 </wgt>
<wgt id='1603'> -3.1094016e+02 </wgt>
<wgt id='1604'> -3.0993110e+02 </wgt>
<wgt id='1605'> -3.1023743e+02 </wgt>
<wgt id='1606'> -3.1021041e+02 </wgt>
<wgt id='1607'> -3.1054330e+02 </wgt>
<wgt id='1608'> -3.0991493e+02 </wgt>
<wgt id='1609'> -3.0935655e+02 </wgt>
<wgt id='1610'> -3.1059427e+02 </wgt>
<wgt id='1611'> -3.1010997e+02 </wgt>
<wgt id='1612'> -3.1035453e+02 </wgt>
<wgt id='1613'> -3.1016481e+02 </wgt>
<wgt id='1614'> -3.1027698e+02 </wgt>
<wgt id='1615'> -3.0904876e+02 </wgt>
<wgt id='1616'> -3.1088752e+02 </wgt>
<wgt id='1617'> -3.1019552e+02 </wgt>
<wgt id='1618'> -3.1024652e+02 </wgt>
<wgt id='1619'> -3.1023106e+02 </wgt>
<wgt id='1620'> -3.1020952e+02 </wgt>
<wgt id='1621'> -3.1179657e+02 </wgt>
<wgt id='1622'> -3.0873397e+02 </wgt>
<wgt id='1623'> -3.1080479e+02 </wgt>
<wgt id='1624'> -3.0871270e+02 </wgt>
<wgt id='1625'> -3.0953338e+02 </wgt>
<wgt id='1626'> -3.1052867e+02 </wgt>
<wgt id='1627'> -3.1424118e+02 </wgt>
<wgt id='1628'> -3.0022655e+02 </wgt>
<wgt id='1629'> -3.0655131e+02 </wgt>
<wgt id='1630'> -3.1808994e+02 </wgt>
<wgt id='1631'> -3.1171385e+02 </wgt>
<wgt id='1632'> -3.0743427e+02 </wgt>
<wgt id='1633'> -3.0463318e+02 </wgt>
<wgt id='1634'> -3.1286421e+02 </wgt>
<wgt id='1635'> -3.1000196e+02 </wgt>
<wgt id='1636'> -3.1062628e+02 </wgt>
<wgt id='1637'> -3.0765013e+02 </wgt>
<wgt id='1638'> -3.1219494e+02 </wgt>
<wgt id='1639'> -3.1466260e+02 </wgt>
<wgt id='1640'> -3.0370905e+02 </wgt>
<wgt id='1641'> -3.1070588e+02 </wgt>
<wgt id='1642'> -3.0754456e+02 </wgt>
<wgt id='1643'> -3.1045389e+02 </wgt>
<wgt id='1644'> -3.0990426e+02 </wgt>
<wgt id='1645'> -3.1033355e+02 </wgt>
<wgt id='1646'> -3.1015529e+02 </wgt>
<wgt id='1647'> -3.1288154e+02 </wgt>
<wgt id='1648'> -3.0810027e+02 </wgt>
<wgt id='1649'> -6.3655263e+02 </wgt>
<wgt id='1650'> -2.8464454e+02 </wgt>
<wgt id='1651'> -2.8454237e+02 </wgt>
<wgt id='1652'> -2.8472591e+02 </wgt>
<wgt id='1653'> -2.8464046e+02 </wgt>
<wgt id='1654'> -2.8463736e+02 </wgt>
<wgt id='1655'> -2.8418952e+02 </wgt>
<wgt id='1656'> -2.8518614e+02 </wgt>
<wgt id='1657'> -2.8561648e+02 </wgt>
<wgt id='1658'> -2.8534904e+02 </wgt>
<wgt id='1659'> -2.8600076e+02 </wgt>
<wgt id='1660'> -2.8413217e+02 </wgt>
<wgt id='1661'> -2.8489753e+02 </wgt>
<wgt id='1662'> -2.8329201e+02 </wgt>
<wgt id='1663'> -2.8359559e+02 </wgt>
<wgt id='1664'> -2.8573689e+02 </wgt>
<wgt id='1665'> -2.8440304e+02 </wgt>
<wgt id='1666'> -2.8533869e+02 </wgt>
<wgt id='1667'> -2.8485693e+02 </wgt>
<wgt id='1668'> -2.8651332e+02 </wgt>
<wgt id='1669'> -2.8316159e+02 </wgt>
<wgt id='1670'> -2.8713912e+02 </wgt>
<wgt id='1671'> -2.8361459e+02 </wgt>
<wgt id='1672'> -2.8910241e+02 </wgt>
<wgt id='1673'> -2.8266748e+02 </wgt>
<wgt id='1674'> -2.8079876e+02 </wgt>
<wgt id='1675'> -2.8136986e+02 </wgt>
<wgt id='1676'> -2.8426112e+02 </wgt>
<wgt id='1677'> -2.8577370e+02 </wgt>
<wgt id='1678'> -2.8458510e+02 </wgt>
<wgt id='1679'> -2.9708559e+02 </wgt>
<wgt id='1680'> -3.1366406e+02 </wgt>
<wgt id='1681'> -3.0925677e+02 </wgt>
<wgt id='1682'> -3.1387959e+02 </wgt>
<wgt id='1683'> -3.1495333e+02 </wgt>
<wgt id='1684'> -3.1206478e+02 </wgt>
<wgt id='1685'> -3.1382819e+02 </wgt>
<wgt id='1686'> -3.1330854e+02 </wgt>
<wgt id='1687'> -3.1123456e+02 </wgt>
<wgt id='1688'> -3.0888558e+02 </wgt>
<wgt id='1689'> -3.1455229e+02 </wgt>
<wgt id='1690'> -3.1003450e+02 </wgt>
<wgt id='1691'> -3.1084602e+02 </wgt>
<wgt id='1692'> -3.1731015e+02 </wgt>
<wgt id='1693'> -3.1705613e+02 </wgt>
<wgt id='1694'> -3.1583851e+02 </wgt>
<wgt id='1695'> -3.1457845e+02 </wgt>
<wgt id='1696'> -3.1281983e+02 </wgt>
<wgt id='1697'> -3.1746948e+02 </wgt>
<wgt id='1698'> -3.1363009e+02 </wgt>
<wgt id='1699'> -3.1387867e+02 </wgt>
<wgt id='1700'> -3.0546080e+02 </wgt>
<wgt id='1701'> -3.0924280e+02 </wgt>
<wgt id='1702'> -3.2019791e+02 </wgt>
<wgt id='1703'> -3.0960784e+02 </wgt>
<wgt id='1704'> -3.1301123e+02 </wgt>
<wgt id='1705'> -3.1502793e+02 </wgt>
<wgt id='1706'> -3.1333423e+02 </wgt>
<wgt id='1707'> -3.1363777e+02 </wgt>
<wgt id='1708'> -3.1297420e+02 </wgt>
<wgt id='1709'> -3.1287819e+02 </wgt>
<wgt id='1710'> -3.1416194e+02 </wgt>
<wgt id='1711'> -3.1389886e+02 </wgt>
<wgt id='1712'> -3.1345108e+02 </wgt>
<wgt id='1713'> -3.1266049e+02 </wgt>
<wgt id='1714'> -3.1386226e+02 </wgt>
<wgt id='1715'> -3.1441429e+02 </wgt>
<wgt id='1716'> -3.1264312e+02 </wgt>
<wgt id='1717'> -3.1364059e+02 </wgt>
<wgt id='1718'> -3.1325098e+02 </wgt>
<wgt id='1719'> -3.1387554e+02 </wgt>
<wgt id='1720'> -3.1402319e+02 </wgt>
<wgt id='1721'> -3.1406486e+02 </wgt>
<wgt id='1722'> -3.1364358e+02 </wgt>
<wgt id='1723'> -3.1350625e+02 </wgt>
<wgt id='1724'> -3.1436629e+02 </wgt>
<wgt id='1725'> -3.1379835e+02 </wgt>
<wgt id='1726'> -3.1423914e+02 </wgt>
<wgt id='1727'> -3.1301594e+02 </wgt>
<wgt id='1728'> -3.1321001e+02 </wgt>
<wgt id='1729'> -3.1413256e+02 </wgt>
<wgt id='1730'> -3.1327394e+02 </wgt>
<wgt id='1731'> -3.1373243e+02 </wgt>
<wgt id='1732'> -3.1333998e+02 </wgt>
<wgt id='1733'> -3.1300744e+02 </wgt>
<wgt id='1734'> -3.1351109e+02 </wgt>
<wgt id='1735'> -3.1369377e+02 </wgt>
<wgt id='1736'> -3.1345110e+02 </wgt>
<wgt id='1737'> -3.1382254e+02 </wgt>
<wgt id='1738'> -3.1399743e+02 </wgt>
<wgt id='1739'> -3.1358132e+02 </wgt>
<wgt id='1740'> -3.1342449e+02 </wgt>
<wgt id='1741'> -3.1390318e+02 </wgt>
<wgt id='1742'> -3.1356649e+02 </wgt>
<wgt id='1743'> -3.1364402e+02 </wgt>
<wgt id='1744'> -3.1371394e+02 </wgt>
<wgt id='1745'> -3.1399097e+02 </wgt>
<wgt id='1746'> -3.1413050e+02 </wgt>
<wgt id='1747'> -3.1381785e+02 </wgt>
<wgt id='1748'> -3.1386225e+02 </wgt>
<wgt id='1749'> -3.1392382e+02 </wgt>
<wgt id='1750'> -3.1352863e+02 </wgt>
<wgt id='1751'> -3.1333887e+02 </wgt>
<wgt id='1752'> -3.1333847e+02 </wgt>
<wgt id='1753'> -3.1344576e+02 </wgt>
<wgt id='1754'> -3.1357689e+02 </wgt>
<wgt id='1755'> -3.1355218e+02 </wgt>
<wgt id='1756'> -3.1382691e+02 </wgt>
<wgt id='1757'> -3.1328842e+02 </wgt>
<wgt id='1758'> -3.1371103e+02 </wgt>
<wgt id='1759'> -3.1401673e+02 </wgt>
<wgt id='1760'> -3.1344503e+02 </wgt>
<wgt id='1761'> -3.1386657e+02 </wgt>
<wgt id='1762'> -3.1353383e+02 </wgt>
<wgt id='1763'> -3.1373456e+02 </wgt>
<wgt id='1764'> -3.1397906e+02 </wgt>
<wgt id='1765'> -3.1376511e+02 </wgt>
<wgt id='1766'> -3.1412671e+02 </wgt>
<wgt id='1767'> -3.1374865e+02 </wgt>
<wgt id='1768'> -3.1368634e+02 </wgt>
<wgt id='1769'> -3.1364561e+02 </wgt>
<wgt id='1770'> -3.1364994e+02 </wgt>
<wgt id='1771'> -3.1338929e+02 </wgt>
<wgt id='1772'> -3.1359505e+02 </wgt>
<wgt id='1773'> -3.1356334e+02 </wgt>
<wgt id='1774'> -3.1358100e+02 </wgt>
<wgt id='1775'> -3.1362365e+02 </wgt>
<wgt id='1776'> -3.1361039e+02 </wgt>
<wgt id='1777'> -3.1378977e+02 </wgt>
<wgt id='1778'> -3.1378935e+02 </wgt>
<wgt id='1779'> -3.1370728e+02 </wgt>
<wgt id='1780'> -3.1367484e+02 </wgt>
<wgt id='1781'> -2.9456482e+02 </wgt>
<wgt id='1782'> -3.3503326e+02 </wgt>
<wgt id='1783'> -3.1287144e+02 </wgt>
<wgt id='1784'> -3.1488430e+02 </wgt>
<wgt id='1785'> -3.1102822e+02 </wgt>
<wgt id='1786'> -3.1580888e+02 </wgt>
<wgt id='1787'> -3.1554932e+02 </wgt>
<wgt id='1788'> -3.1639228e+02 </wgt>
<wgt id='1789'> -3.1394597e+02 </wgt>
<wgt id='1790'> -3.0918558e+02 </wgt>
<wgt id='1791'> -3.1065354e+02 </wgt>
<wgt id='1792'> -3.1516864e+02 </wgt>
<wgt id='1793'> -3.1457725e+02 </wgt>
<wgt id='1794'> -3.1208481e+02 </wgt>
<wgt id='1795'> -3.1663180e+02 </wgt>
<wgt id='1796'> -3.1938531e+02 </wgt>
<wgt id='1797'> -3.1286181e+02 </wgt>
<wgt id='1798'> -3.0702915e+02 </wgt>
<wgt id='1799'> -3.1019735e+02 </wgt>
<wgt id='1800'> -3.1391427e+02 </wgt>
<wgt id='1801'> -3.1591956e+02 </wgt>
<wgt id='1802'> -3.1569700e+02 </wgt>
<wgt id='1803'> -3.1265093e+02 </wgt>
<wgt id='1804'> -3.0311672e+02 </wgt>
<wgt id='1805'> -3.1408684e+02 </wgt>
<wgt id='1806'> -3.0691651e+02 </wgt>
<wgt id='1807'> -3.1047164e+02 </wgt>
<wgt id='1808'> -3.1233913e+02 </wgt>
<wgt id='1809'> -3.1128961e+02 </wgt>
<wgt id='1810'> -3.1324231e+02 </wgt>
<wgt id='1811'> -3.1354398e+02 </wgt>
<wgt id='1812'> -3.1425546e+02 </wgt>
<wgt id='1813'> -3.1333521e+02 </wgt>
<wgt id='1814'> -3.1185105e+02 </wgt>
<wgt id='1815'> -3.1309428e+02 </wgt>
<wgt id='1816'> -3.1340425e+02 </wgt>
<wgt id='1817'> -3.1355124e+02 </wgt>
<wgt id='1818'> -3.1375159e+02 </wgt>
<wgt id='1819'> -3.1319846e+02 </wgt>
<wgt id='1820'> -3.1341204e+02 </wgt>
<wgt id='1821'> -3.1342255e+02 </wgt>
<wgt id='1822'> -3.1273640e+02 </wgt>
<wgt id='1823'> -3.1214777e+02 </wgt>
<wgt id='1824'> -3.1299746e+02 </wgt>
<wgt id='1825'> -3.1355066e+02 </wgt>
<wgt id='1826'> -3.1218982e+02 </wgt>
<wgt id='1827'> -3.1294776e+02 </wgt>
<wgt id='1828'> -3.1310252e+02 </wgt>
<wgt id='1829'> -3.1230185e+02 </wgt>
<wgt id='1830'> -3.1302163e+02 </wgt>
<wgt id='1831'> -3.1339379e+02 </wgt>
<wgt id='1832'> -3.1263993e+02 </wgt>
<wgt id='1833'> -3.1283761e+02 </wgt>
<wgt id='1834'> -3.1321818e+02 </wgt>
<wgt id='1835'> -3.1342725e+02 </wgt>
<wgt id='1836'> -3.1290262e+02 </wgt>
<wgt id='1837'> -3.1229169e+02 </wgt>
<wgt id='1838'> -3.1253053e+02 </wgt>
<wgt id='1839'> -3.1303514e+02 </wgt>
<wgt id='1840'> -3.1266645e+02 </wgt>
<wgt id='1841'> -3.1252377e+02 </wgt>
<wgt id='1842'> -3.1262593e+02 </wgt>
<wgt id='1843'> -3.1277024e+02 </wgt>
<wgt id='1844'> -3.1277055e+02 </wgt>
<wgt id='1845'> -3.1297660e+02 </wgt>
<wgt id='1846'> -3.1295073e+02 </wgt>
<wgt id='1847'> -3.1318124e+02 </wgt>
<wgt id='1848'> -3.1268490e+02 </wgt>
<wgt id='1849'> -3.1261860e+02 </wgt>
<wgt id='1850'> -3.1282120e+02 </wgt>
<wgt id='1851'> -3.1294916e+02 </wgt>
<wgt id='1852'> -3.1327477e+02 </wgt>
<wgt id='1853'> -3.1281976e+02 </wgt>
<wgt id='1854'> -3.1302999e+02 </wgt>
<wgt id='1855'> -3.1307413e+02 </wgt>
<wgt id='1856'> -3.1279457e+02 </wgt>
<wgt id='1857'> -3.1294658e+02 </wgt>
<wgt id='1858'> -3.1286069e+02 </wgt>
<wgt id='1859'> -3.1284057e+02 </wgt>
<wgt id='1860'> -3.1299528e+02 </wgt>
<wgt id='1861'> -3.1299522e+02 </wgt>
<wgt id='1862'> -3.1269873e+02 </wgt>
<wgt id='1863'> -3.1320765e+02 </wgt>
<wgt id='1864'> -3.1289413e+02 </wgt>
<wgt id='1865'> -3.1293813e+02 </wgt>
<wgt id='1866'> -3.1281580e+02 </wgt>
<wgt id='1867'> -3.1256290e+02 </wgt>
<wgt id='1868'> -3.1255030e+02 </wgt>
<wgt id='1869'> -3.1302207e+02 </wgt>
<wgt id='1870'> -3.1244650e+02 </wgt>
<wgt id='1871'> -3.1264595e+02 </wgt>
<wgt id='1872'> -3.1270281e+02 </wgt>
<wgt id='1873'> -3.1294380e+02 </wgt>
<wgt id='1874'> -3.1276493e+02 </wgt>
<wgt id='1875'> -3.1277887e+02 </wgt>
<wgt id='1876'> -3.1278376e+02 </wgt>
<wgt id='1877'> -3.1277113e+02 </wgt>
<wgt id='1878'> -3.1292144e+02 </wgt>
<wgt id='1879'> -3.1273973e+02 </wgt>
<wgt id='1880'> -3.1290307e+02 </wgt>
<wgt id='1881'> -3.1283314e+02 </wgt>
<wgt id='1882'> -3.1274818e+02 </wgt>
<wgt id='1883'> -3.1290354e+02 </wgt>
<wgt id='1884'> -2.9202824e+02 </wgt>
<wgt id='1885'> -3.3541999e+02 </wgt>
<wgt id='1886'> -3.1365571e+02 </wgt>
<wgt id='1887'> -3.1092530e+02 </wgt>
<wgt id='1888'> -3.0955015e+02 </wgt>
<wgt id='1889'> -3.1271918e+02 </wgt>
<wgt id='1890'> -3.1236698e+02 </wgt>
<wgt id='1891'> -3.0905021e+02 </wgt>
<wgt id='1892'> -3.0761047e+02 </wgt>
<wgt id='1893'> -3.1318183e+02 </wgt>
<wgt id='1894'> -3.1021504e+02 </wgt>
<wgt id='1895'> -3.1163057e+02 </wgt>
<wgt id='1896'> -3.1228815e+02 </wgt>
<wgt id='1897'> -3.1002701e+02 </wgt>
<wgt id='1898'> -3.1107064e+02 </wgt>
<wgt id='1899'> -3.1440193e+02 </wgt>
<wgt id='1900'> -3.1397329e+02 </wgt>
<wgt id='1901'> -3.1524409e+02 </wgt>
<wgt id='1902'> -3.1424357e+02 </wgt>
<wgt id='1903'> -3.1688433e+02 </wgt>
<wgt id='1904'> -3.1477839e+02 </wgt>
<wgt id='1905'> -3.0330398e+02 </wgt>
<wgt id='1906'> -3.1421691e+02 </wgt>
<wgt id='1907'> -3.1315268e+02 </wgt>
<wgt id='1908'> -3.1850398e+02 </wgt>
<wgt id='1909'> -3.1355021e+02 </wgt>
<wgt id='1910'> -3.1331478e+02 </wgt>
<wgt id='1911'> -3.1359777e+02 </wgt>
<wgt id='1912'> -3.1313891e+02 </wgt>
<wgt id='1913'> -3.1346391e+02 </wgt>
<wgt id='1914'> -3.1297024e+02 </wgt>
<wgt id='1915'> -3.1387417e+02 </wgt>
<wgt id='1916'> -3.1369599e+02 </wgt>
<wgt id='1917'> -2.9456482e+02 </wgt>
<wgt id='1918'> -3.3503326e+02 </wgt>
<wgt id='1919'> -3.1284936e+02 </wgt>
<wgt id='1920'> -3.0972940e+02 </wgt>
<wgt id='1921'> -3.0979370e+02 </wgt>
<wgt id='1922'> -3.1370944e+02 </wgt>
<wgt id='1923'> -3.0643140e+02 </wgt>
<wgt id='1924'> -3.2174447e+02 </wgt>
<wgt id='1925'> -3.1335595e+02 </wgt>
<wgt id='1926'> -3.1429713e+02 </wgt>
<wgt id='1927'> -3.1359566e+02 </wgt>
<wgt id='1928'> -3.1418729e+02 </wgt>
<wgt id='1929'> -3.0843189e+02 </wgt>
<wgt id='1930'> -3.1197325e+02 </wgt>
<wgt id='1931'> -3.1119253e+02 </wgt>
<wgt id='1932'> -3.1239822e+02 </wgt>
<wgt id='1933'> -3.1163961e+02 </wgt>
<wgt id='1934'> -3.0901806e+02 </wgt>
<wgt id='1935'> -3.1401323e+02 </wgt>
<wgt id='1936'> -3.1527568e+02 </wgt>
<wgt id='1937'> -3.1292842e+02 </wgt>
<wgt id='1938'> -3.1480975e+02 </wgt>
<wgt id='1939'> -3.1391587e+02 </wgt>
<wgt id='1940'> -3.1443911e+02 </wgt>
<wgt id='1941'> -3.1155882e+02 </wgt>
<wgt id='1942'> -3.1355924e+02 </wgt>
<wgt id='1943'> -3.0990250e+02 </wgt>
<wgt id='1944'> -3.1177129e+02 </wgt>
<wgt id='1945'> -3.1297796e+02 </wgt>
<wgt id='1946'> -3.1549497e+02 </wgt>
<wgt id='1947'> -3.1218942e+02 </wgt>
<wgt id='1948'> -3.0261450e+02 </wgt>
<wgt id='1949'> -3.1266990e+02 </wgt>
<wgt id='1950'> -2.9202824e+02 </wgt>
<wgt id='1951'> -3.3541999e+02 </wgt>
<wgt id='1952'> -2.1670938e+02 </wgt>
<wgt id='1953'> -2.1646724e+02 </wgt>
<wgt id='1954'> -2.1695089e+02 </wgt>
<wgt id='1955'> -2.1670934e+02 </wgt>
<wgt id='1956'> -2.1670917e+02 </wgt>
<wgt id='1957'> -2.1678218e+02 </wgt>
<wgt id='1958'> -2.1663765e+02 </wgt>
<wgt id='1959'> -2.1783888e+02 </wgt>
<wgt id='1960'> -2.1560140e+02 </wgt>
<wgt id='1961'> -2.1626064e+02 </wgt>
<wgt id='1962'> -2.1717856e+02 </wgt>
<wgt id='1963'> -2.1513531e+02 </wgt>
<wgt id='1964'> -2.1845685e+02 </wgt>
<wgt id='1965'> -2.1675445e+02 </wgt>
<wgt id='1966'> -2.1667482e+02 </wgt>
<wgt id='1967'> -2.1826427e+02 </wgt>
<wgt id='1968'> -2.1492842e+02 </wgt>
<wgt id='1969'> -2.1773524e+02 </wgt>
<wgt id='1970'> -2.1607810e+02 </wgt>
<wgt id='1971'> -2.1989049e+02 </wgt>
<wgt id='1972'> -2.1354841e+02 </wgt>
<wgt id='1973'> -2.1678749e+02 </wgt>
<wgt id='1974'> -2.1672803e+02 </wgt>
<wgt id='1975'> -2.1354003e+02 </wgt>
<wgt id='1976'> -2.2029183e+02 </wgt>
<wgt id='1977'> -2.1322737e+02 </wgt>
<wgt id='1978'> -2.2022586e+02 </wgt>
<wgt id='1979'> -2.2230100e+02 </wgt>
<wgt id='1980'> -2.1190970e+02 </wgt>
<wgt id='1981'> -2.1670938e+02 </wgt>
<wgt id='1982'> -2.1810165e+02 </wgt>
<wgt id='1983'> -2.1462758e+02 </wgt>
<wgt id='1984'> -2.1812119e+02 </wgt>
<wgt id='1985'> -2.1533238e+02 </wgt>
<wgt id='1986'> -2.1175726e+02 </wgt>
<wgt id='1987'> -2.2746844e+02 </wgt>
<wgt id='1988'> -2.1749303e+02 </wgt>
<wgt id='1989'> -2.1631504e+02 </wgt>
<wgt id='1990'> -2.1953303e+02 </wgt>
<wgt id='1991'> -2.1410484e+02 </wgt>
<wgt id='1992'> -2.1536135e+02 </wgt>
<wgt id='1993'> -2.1570493e+02 </wgt>
<wgt id='1994'> -2.2196791e+02 </wgt>
<wgt id='1995'> -2.7403313e+02 </wgt>
<wgt id='1996'> -2.7369379e+02 </wgt>
<wgt id='1997'> -2.7427935e+02 </wgt>
<wgt id='1998'> -2.7376652e+02 </wgt>
<wgt id='1999'> -2.7420820e+02 </wgt>
<wgt id='2000'> -2.7413437e+02 </wgt>
<wgt id='2001'> -2.7383991e+02 </wgt>
<wgt id='2002'> -2.7573238e+02 </wgt>
<wgt id='2003'> -2.7228886e+02 </wgt>
<wgt id='2004'> -2.7223069e+02 </wgt>
<wgt id='2005'> -2.7580342e+02 </wgt>
<wgt id='2006'> -2.7526501e+02 </wgt>
<wgt id='2007'> -2.7274851e+02 </wgt>
<wgt id='2008'> -2.7402074e+02 </wgt>
<wgt id='2009'> -2.7392977e+02 </wgt>
<wgt id='2010'> -2.7492216e+02 </wgt>
<wgt id='2011'> -2.7230265e+02 </wgt>
<wgt id='2012'> -2.7295646e+02 </wgt>
<wgt id='2013'> -2.7508925e+02 </wgt>
<wgt id='2014'> -2.7646650e+02 </wgt>
<wgt id='2015'> -2.7162481e+02 </wgt>
<wgt id='2016'> -2.8164385e+02 </wgt>
<wgt id='2017'> -2.6691083e+02 </wgt>
<wgt id='2018'> -2.6793644e+02 </wgt>
<wgt id='2019'> -2.8019470e+02 </wgt>
<wgt id='2020'> -2.6626111e+02 </wgt>
<wgt id='2021'> -2.8168516e+02 </wgt>
<wgt id='2022'> -2.7061068e+02 </wgt>
<wgt id='2023'> -2.7770020e+02 </wgt>
<wgt id='2024'> -2.7391881e+02 </wgt>
<wgt id='2025'> -2.7509824e+02 </wgt>
<wgt id='2026'> -2.7005783e+02 </wgt>
<wgt id='2027'> -2.7523935e+02 </wgt>
<wgt id='2028'> -2.7332257e+02 </wgt>
<wgt id='2029'> -2.5673719e+02 </wgt>
<wgt id='2030'> -2.8349475e+02 </wgt>
<wgt id='2031'> -2.7459614e+02 </wgt>
<wgt id='2032'> -2.7357094e+02 </wgt>
<wgt id='2033'> -2.7882338e+02 </wgt>
<wgt id='2034'> -2.5313406e+02 </wgt>
<wgt id='2035'> -2.7699543e+02 </wgt>
<wgt id='2036'> -2.7005245e+02 </wgt>
<wgt id='2037'> -2.8441361e+02 </wgt>
<wgt id='2038'> -3.1767356e+02 </wgt>
<wgt id='2039'> -3.1764274e+02 </wgt>
<wgt id='2040'> -3.1760877e+02 </wgt>
<wgt id='2041'> -3.1757520e+02 </wgt>
<wgt id='2042'> -3.1754151e+02 </wgt>
<wgt id='2043'> -3.1750775e+02 </wgt>
<wgt id='2044'> -3.1747694e+02 </wgt>
<wgt id='2045'> -3.1744316e+02 </wgt>
<wgt id='2046'> -3.1740957e+02 </wgt>
<wgt id='2047'> -3.1737573e+02 </wgt>
<wgt id='2048'> -3.1734470e+02 </wgt>
<wgt id='2049'> -3.1731133e+02 </wgt>
<wgt id='2050'> -3.1727742e+02 </wgt>
<wgt id='2051'> -3.1724381e+02 </wgt>
<wgt id='2052'> -3.1721166e+02 </wgt>
<wgt id='2053'> -3.1718047e+02 </wgt>
<wgt id='2054'> -3.1714703e+02 </wgt>
<wgt id='2055'> -3.1711322e+02 </wgt>
<wgt id='2056'> -3.1707956e+02 </wgt>
<wgt id='2057'> -3.1704847e+02 </wgt>
<wgt id='2058'> -3.1701489e+02 </wgt>
<wgt id='2059'> -3.1698130e+02 </wgt>
<wgt id='2060'> -3.1694748e+02 </wgt>
<wgt id='2061'> -3.1691634e+02 </wgt>
<wgt id='2062'> -3.1688277e+02 </wgt>
<wgt id='2063'> -3.1684913e+02 </wgt>
<wgt id='2064'> -3.1681565e+02 </wgt>
<wgt id='2065'> -3.1678182e+02 </wgt>
<wgt id='2066'> -3.1675068e+02 </wgt>
<wgt id='2067'> -3.1671731e+02 </wgt>
<wgt id='2068'> -3.1668345e+02 </wgt>
<wgt id='2069'> -3.0915495e+02 </wgt>
<wgt id='2070'> -3.1114096e+02 </wgt>
<wgt id='2071'> -3.0732260e+02 </wgt>
<wgt id='2072'> -3.1207068e+02 </wgt>
<wgt id='2073'> -3.1180501e+02 </wgt>
<wgt id='2074'> -3.1264347e+02 </wgt>
<wgt id='2075'> -3.1022689e+02 </wgt>
<wgt id='2076'> -3.0550965e+02 </wgt>
<wgt id='2077'> -3.0696116e+02 </wgt>
<wgt id='2078'> -3.1143233e+02 </wgt>
<wgt id='2079'> -3.1084612e+02 </wgt>
<wgt id='2080'> -3.0838707e+02 </wgt>
<wgt id='2081'> -3.1287031e+02 </wgt>
<wgt id='2082'> -3.1560034e+02 </wgt>
<wgt id='2083'> -3.0912801e+02 </wgt>
<wgt id='2084'> -3.0335441e+02 </wgt>
<wgt id='2085'> -3.0652008e+02 </wgt>
<wgt id='2086'> -3.1018451e+02 </wgt>
<wgt id='2087'> -3.1216882e+02 </wgt>
<wgt id='2088'> -3.1195580e+02 </wgt>
<wgt id='2089'> -3.0895298e+02 </wgt>
<wgt id='2090'> -2.9949832e+02 </wgt>
<wgt id='2091'> -3.1036538e+02 </wgt>
<wgt id='2092'> -3.0325814e+02 </wgt>
<wgt id='2093'> -3.0677236e+02 </wgt>
<wgt id='2094'> -3.0863240e+02 </wgt>
<wgt id='2095'> -3.0758593e+02 </wgt>
<wgt id='2096'> -3.0952313e+02 </wgt>
<wgt id='2097'> -3.0982527e+02 </wgt>
<wgt id='2098'> -3.1052333e+02 </wgt>
<wgt id='2099'> -3.0960896e+02 </wgt>
<wgt id='2100'> -3.0815165e+02 </wgt>
<wgt id='2101'> -3.0937540e+02 </wgt>
<wgt id='2102'> -3.0968347e+02 </wgt>
<wgt id='2103'> -3.0982612e+02 </wgt>
<wgt id='2104'> -3.1002826e+02 </wgt>
<wgt id='2105'> -3.0947685e+02 </wgt>
<wgt id='2106'> -3.0969170e+02 </wgt>
<wgt id='2107'> -3.0969951e+02 </wgt>
<wgt id='2108'> -3.0901870e+02 </wgt>
<wgt id='2109'> -3.0843893e+02 </wgt>
<wgt id='2110'> -3.0927267e+02 </wgt>
<wgt id='2111'> -3.0981969e+02 </wgt>
<wgt id='2112'> -3.0848415e+02 </wgt>
<wgt id='2113'> -3.0923314e+02 </wgt>
<wgt id='2114'> -3.0937771e+02 </wgt>
<wgt id='2115'> -3.0858999e+02 </wgt>
<wgt id='2116'> -3.0930020e+02 </wgt>
<wgt id='2117'> -3.0967059e+02 </wgt>
<wgt id='2118'> -3.0892185e+02 </wgt>
<wgt id='2119'> -3.0912330e+02 </wgt>
<wgt id='2120'> -3.0949855e+02 </wgt>
<wgt id='2121'> -3.0970224e+02 </wgt>
<wgt id='2122'> -3.0918983e+02 </wgt>
<wgt id='2123'> -3.0858488e+02 </wgt>
<wgt id='2124'> -3.0881881e+02 </wgt>
<wgt id='2125'> -3.0931530e+02 </wgt>
<wgt id='2126'> -3.0895245e+02 </wgt>
<wgt id='2127'> -3.0881435e+02 </wgt>
<wgt id='2128'> -3.0891344e+02 </wgt>
<wgt id='2129'> -3.0905695e+02 </wgt>
<wgt id='2130'> -3.0905490e+02 </wgt>
<wgt id='2131'> -3.0925786e+02 </wgt>
<wgt id='2132'> -3.0923405e+02 </wgt>
<wgt id='2133'> -3.0945948e+02 </wgt>
<wgt id='2134'> -3.0897111e+02 </wgt>
<wgt id='2135'> -3.0890680e+02 </wgt>
<wgt id='2136'> -3.0910657e+02 </wgt>
<wgt id='2137'> -3.0922971e+02 </wgt>
<wgt id='2138'> -3.0955373e+02 </wgt>
<wgt id='2139'> -3.0910240e+02 </wgt>
<wgt id='2140'> -3.0931548e+02 </wgt>
<wgt id='2141'> -3.0935647e+02 </wgt>
<wgt id='2142'> -3.0907618e+02 </wgt>
<wgt id='2143'> -3.0923072e+02 </wgt>
<wgt id='2144'> -3.0914242e+02 </wgt>
<wgt id='2145'> -3.0912882e+02 </wgt>
<wgt id='2146'> -3.0927728e+02 </wgt>
<wgt id='2147'> -3.0928209e+02 </wgt>
<wgt id='2148'> -3.0898302e+02 </wgt>
<wgt id='2149'> -3.0948521e+02 </wgt>
<wgt id='2150'> -3.0917994e+02 </wgt>
<wgt id='2151'> -3.0922094e+02 </wgt>
<wgt id='2152'> -3.0909938e+02 </wgt>
<wgt id='2153'> -3.0885098e+02 </wgt>
<wgt id='2154'> -3.0883966e+02 </wgt>
<wgt id='2155'> -3.0930469e+02 </wgt>
<wgt id='2156'> -3.0873240e+02 </wgt>
<wgt id='2157'> -3.0893178e+02 </wgt>
<wgt id='2158'> -3.0898719e+02 </wgt>
<wgt id='2159'> -3.0922681e+02 </wgt>
<wgt id='2160'> -3.0904876e+02 </wgt>
<wgt id='2161'> -3.0906339e+02 </wgt>
<wgt id='2162'> -3.0906673e+02 </wgt>
<wgt id='2163'> -3.0905362e+02 </wgt>
<wgt id='2164'> -3.0920363e+02 </wgt>
<wgt id='2165'> -3.0902612e+02 </wgt>
<wgt id='2166'> -3.0918722e+02 </wgt>
<wgt id='2167'> -3.0911712e+02 </wgt>
<wgt id='2168'> -3.0903404e+02 </wgt>
<wgt id='2169'> -3.0918553e+02 </wgt>
<wgt id='2170'> -3.0915138e+02 </wgt>
<wgt id='2171'> -3.0913152e+02 </wgt>
<wgt id='2172'> -3.0915867e+02 </wgt>
<wgt id='2173'> -3.0915928e+02 </wgt>
<wgt id='2174'> -3.0916580e+02 </wgt>
<wgt id='2175'> -3.0915653e+02 </wgt>
<wgt id='2176'> -3.0913933e+02 </wgt>
<wgt id='2177'> -3.1531204e+02 </wgt>
<wgt id='2178'> -3.0279900e+02 </wgt>
<wgt id='2179'> -3.1924653e+02 </wgt>
<wgt id='2180'> -2.9639588e+02 </wgt>
<wgt id='2181'> -3.0376544e+02 </wgt>
<wgt id='2182'> -2.9523666e+02 </wgt>
<wgt id='2183'> -3.2327369e+02 </wgt>
<wgt id='2184'> -3.1618808e+02 </wgt>
<wgt id='2185'> -3.2444562e+02 </wgt>
<wgt id='2186'> -3.0576141e+02 </wgt>
<wgt id='2187'> -2.9956708e+02 </wgt>
<wgt id='2188'> -3.1852410e+02 </wgt>
<wgt id='2189'> -3.1893591e+02 </wgt>
<wgt id='2190'> -3.3689501e+02 </wgt>
<wgt id='2191'> -3.3153621e+02 </wgt>
<wgt id='2192'> -3.3237147e+02 </wgt>
<wgt id='2193'> -3.1529955e+02 </wgt>
<wgt id='2194'> -3.3732489e+02 </wgt>
<wgt id='2195'> -3.2381252e+02 </wgt>
<wgt id='2196'> -3.1556889e+02 </wgt>
<wgt id='2197'> -3.0672011e+02 </wgt>
<wgt id='2198'> -3.1663901e+02 </wgt>
<wgt id='2199'> -2.9953704e+02 </wgt>
<wgt id='2200'> -3.0809229e+02 </wgt>
<wgt id='2201'> -2.8174454e+02 </wgt>
<wgt id='2202'> -3.1683286e+02 </wgt>
<wgt id='2203'> -3.0794169e+02 </wgt>
<wgt id='2204'> -3.4470610e+02 </wgt>
<wgt id='2205'> -3.2999680e+02 </wgt>
<wgt id='2206'> -3.1615747e+02 </wgt>
<wgt id='2207'> -3.0421253e+02 </wgt>
<wgt id='2208'> -3.0606045e+02 </wgt>
<wgt id='2209'> -3.1510197e+02 </wgt>
<wgt id='2210'> -3.1259469e+02 </wgt>
<wgt id='2211'> -2.9708337e+02 </wgt>
<wgt id='2212'> -3.2853588e+02 </wgt>
<wgt id='2213'> -3.2102169e+02 </wgt>
<wgt id='2214'> -3.3718853e+02 </wgt>
<wgt id='2215'> -3.1953448e+02 </wgt>
<wgt id='2216'> -3.0934394e+02 </wgt>
<wgt id='2217'> -3.0709784e+02 </wgt>
<wgt id='2218'> -3.1319589e+02 </wgt>
<wgt id='2219'> -3.1471296e+02 </wgt>
<wgt id='2220'> -2.9327664e+02 </wgt>
<wgt id='2221'> -2.9213429e+02 </wgt>
<wgt id='2222'> -3.0206201e+02 </wgt>
<wgt id='2223'> -2.9987181e+02 </wgt>
<wgt id='2224'> -3.2240312e+02 </wgt>
<wgt id='2225'> -3.2014840e+02 </wgt>
<wgt id='2226'> -3.2590130e+02 </wgt>
<wgt id='2227'> -3.1751545e+02 </wgt>
<wgt id='2228'> -3.0630580e+02 </wgt>
<wgt id='2229'> -3.0380494e+02 </wgt>
<wgt id='2230'> -2.9296623e+02 </wgt>
<wgt id='2231'> -3.2625128e+02 </wgt>
<wgt id='2232'> -3.1390795e+02 </wgt>
<wgt id='2233'> -3.2528361e+02 </wgt>
<wgt id='2234'> -3.2922439e+02 </wgt>
<wgt id='2235'> -3.1572948e+02 </wgt>
<wgt id='2236'> -3.1512465e+02 </wgt>
<wgt id='2237'> -3.1486703e+02 </wgt>
<wgt id='2238'> -3.2600713e+02 </wgt>
<wgt id='2239'> -3.0123984e+02 </wgt>
<wgt id='2240'> -3.1635272e+02 </wgt>
<wgt id='2241'> -3.2749280e+02 </wgt>
<wgt id='2242'> -3.0297061e+02 </wgt>
<wgt id='2243'> -3.1079445e+02 </wgt>
<wgt id='2244'> -3.1297676e+02 </wgt>
<wgt id='2245'> -3.2003895e+02 </wgt>
<wgt id='2246'> -3.1877777e+02 </wgt>
<wgt id='2247'> -3.2231277e+02 </wgt>
<wgt id='2248'> -3.0147328e+02 </wgt>
<wgt id='2249'> -3.1492321e+02 </wgt>
<wgt id='2250'> -3.1596098e+02 </wgt>
<wgt id='2251'> -3.1503970e+02 </wgt>
<wgt id='2252'> -3.2144929e+02 </wgt>
<wgt id='2253'> -2.8918728e+02 </wgt>
<wgt id='2254'> -3.0777702e+02 </wgt>
<wgt id='2255'> -3.3058154e+02 </wgt>
<wgt id='2256'> -3.1624816e+02 </wgt>
<wgt id='2257'> -3.1967394e+02 </wgt>
<wgt id='2258'> -3.1060381e+02 </wgt>
<wgt id='2259'> -3.1406446e+02 </wgt>
<wgt id='2260'> -3.2077650e+02 </wgt>
<wgt id='2261'> -3.2131565e+02 </wgt>
<wgt id='2262'> -3.1443596e+02 </wgt>
<wgt id='2263'> -3.2002629e+02 </wgt>
<wgt id='2264'> -3.1677019e+02 </wgt>
<wgt id='2265'> -3.2435810e+02 </wgt>
<wgt id='2266'> -3.2712200e+02 </wgt>
<wgt id='2267'> -3.0972964e+02 </wgt>
<wgt id='2268'> -3.1874798e+02 </wgt>
<wgt id='2269'> -3.0703339e+02 </wgt>
<wgt id='2270'> -3.2882781e+02 </wgt>
<wgt id='2271'> -3.1308394e+02 </wgt>
<wgt id='2272'> -3.4322843e+02 </wgt>
<wgt id='2273'> -3.1421465e+02 </wgt>
<wgt id='2274'> -3.1103812e+02 </wgt>
<wgt id='2275'> -3.0934889e+02 </wgt>
<wgt id='2276'> -3.3404232e+02 </wgt>
<wgt id='2277'> -3.2945452e+02 </wgt>
<wgt id='2278'> -3.0082429e+02 </wgt>
<wgt id='2279'> -3.2853241e+02 </wgt>
<wgt id='2280'> -3.0244653e+02 </wgt>
<wgt id='2281'> -2.7483126e+02 </wgt>
<wgt id='2282'> -4.3579518e+02 </wgt>
<wgt id='2283'> -3.0541055e+02 </wgt>
<wgt id='2284'> -4.2232872e+02 </wgt>
</rwgt>
</event>
<event npLO=" -1 " npNLO=" 1 ">
 4      1 +2.8781417e+02 5.42830580e+01 7.54677110e-03 1.18311280e-01
       21 -1    0    0  502  501 +0.0000000000e+00 +0.0000000000e+00 +5.0694509000e+00 5.0694509000e+00 0.0000000000e+00 0.0000e+00 9.0000e+00
       21 -1    0    0  503  502 +0.0000000000e+00 +0.0000000000e+00 -1.5944107000e+03 1.5944107000e+03 0.0000000000e+00 0.0000e+00 9.0000e+00
       25  1    1    2    0    0 +1.3036280000e+01 +5.5596598000e+01 -1.2574650000e+03 1.2627269000e+03 1.0000000000e+02 0.0000e+00 9.0000e+00
       21  1    1    2  503  501 -1.3036280000e+01 -5.5596598000e+01 -3.3187624000e+02 3.3675327000e+02 0.0000000000e+00 0.0000e+00 9.0000e+00
#aMCatNLO 1  0  0  1  4 0.21431497E+02 0.00000000E+00 -9  5  0 0.00000000E+00 0.00000000E+00 0.00000000E+00 0.00000000E+00 0.00000000E+00
<rwgt>
<wgt id='1001'> +2.8781417e+02 </wgt>
<wgt id='1002'> +2.1121118e+02 </wgt>
<wgt id='1003'> +4.0766474e+02 </wgt>
<wgt id='1004'> +2.9756977e+02 </wgt>
<wgt id='1005'> +2.1759496e+02 </wgt>
<wgt id='1006'> +4.2325747e+02 </wgt>
<wgt id='1007'> +2.7690845e+02 </wgt>
<wgt id='1008'> +2.0376866e+02 </wgt>
<wgt id='1009'> +3.9093888e+02 </wgt>
<wgt id='1010'> +2.8781417e+02 </wgt>
<wgt id='1011'> +2.8780110e+02 </wgt>
<wgt id='1012'> +2.8776264e+02 </wgt>
<wgt id='1013'> +2.8727822e+02 </wgt>
<wgt id='1014'> +2.8806660e+02 </wgt>
<wgt id='1015'> +2.8520661e+02 </wgt>
<wgt id='1016'> +2.8704131e+02 </wgt>
<wgt id='1017'> +2.8592334e+02 </wgt>
<wgt id='1018'> +2.8505082e+02 </wgt>
<wgt id='1019'> +2.8626436e+02 </wgt>
<wgt id='1020'> +2.8658340e+02 </wgt>
<wgt id='1021'> +2.9130036e+02 </wgt>
<wgt id='1022'> +2.8841756e+02 </wgt>
<wgt id='1023'> +2.8747825e+02 </wgt>
<wgt id='1024'> +2.8727189e+02 </wgt>
<wgt id='1025'> +2.8889561e+02 </wgt>
<wgt id='1026'> +2.8737416e+02 </wgt>
<wgt id='1027'> +2.8837528e+02 </wgt>
<wgt id='1028'> +2.8721753e+02 </wgt>
<wgt id='1029'> +2.8748087e+02 </wgt>
<wgt id='1030'> +2.8881396e+02 </wgt>
<wgt id='1031'> +2.8809901e+02 </wgt>
<wgt id='1032'> +2.8904269e+02 </wgt>
<wgt id='1033'> +2.8606516e+02 </wgt>
<wgt id='1034'> +2.9051840e+02 </wgt>
<wgt id='1035'> +2.8527147e+02 </wgt>
<wgt id='1036'> +2.8563334e+02 </wgt>
<wgt id='1037'> +2.8887056e+02 </wgt>
<wgt id='1038'> +2.8525820e+02 </wgt>
<wgt id='1039'> +2.8711411e+02 </wgt>
<wgt id='1040'> +2.8905317e+02 </wgt>
<wgt id='1041'> +2.8656858e+02 </wgt>
<wgt id='1042'> +2.8672787e+02 </wgt>
<wgt id='1043'> +2.8737718e+02 </wgt>
<wgt id='1044'> +2.8679869e+02 </wgt>
<wgt id='1045'> +2.8948875e+02 </wgt>
<wgt id='1046'> +2.8841889e+02 </wgt>
<wgt id='1047'> +2.8685682e+02 </wgt>
<wgt id='1048'> +2.8827516e+02 </wgt>
<wgt id='1049'> +2.8773755e+02 </wgt>
<wgt id='1050'> +2.8696160e+02 </wgt>
<wgt id='1051'> +2.8672373e+02 </wgt>
<wgt id='1052'> +2.8889345e+02 </wgt>
<wgt id='1053'> +2.8794119e+02 </wgt>
<wgt id='1054'> +2.8814830e+02 </wgt>
<wgt id='1055'> +2.8806583e+02 </wgt>
<wgt id='1056'> +2.8622349e+02 </wgt>
<wgt id='1057'> +2.8809692e+02 </wgt>
<wgt id='1058'> +2.8769128e+02 </wgt>
<wgt id='1059'> +2.8713190e+02 </wgt>
<wgt id='1060'> +2.8740601e+02 </wgt>
<wgt id='1061'> +2.8734528e+02 </wgt>
<wgt id='1062'> +2.8846323e+02 </wgt>
<wgt id='1063'> +2.8773652e+02 </wgt>
<wgt id='1064'> +2.8763242e+02 </wgt>
<wgt id='1065'> +2.8699644e+02 </wgt>
<wgt id='1066'> +2.8784046e+02 </wgt>
<wgt id='1067'> +2.8788470e+02 </wgt>
<wgt id='1068'> +2.8825771e+02 </wgt>
<wgt id='1069'> +2.8822163e+02 </wgt>
<wgt id='1070'> +2.8753106e+02 </wgt>
<wgt id='1071'> +2.8750209e+02 </wgt>
<wgt id='1072'> +2.8809740e+02 </wgt>
<wgt id='1073'> +2.8793239e+02 </wgt>
<wgt id='1074'> +2.8788369e+02 </wgt>
<wgt id='1075'> +2.8827469e+02 </wgt>
<wgt id='1076'> +2.8759006e+02 </wgt>
<wgt id='1077'> +2.8718223e+02 </wgt>
<wgt id='1078'> +2.8867068e+02 </wgt>
<wgt id='1079'> +2.8774472e+02 </wgt>
<wgt id='1080'> +2.8822592e+02 </wgt>
<wgt id='1081'> +2.8746570e+02 </wgt>
<wgt id='1082'> +2.8734857e+02 </wgt>
<wgt id='1083'> +2.8792615e+02 </wgt>
<wgt id='1084'> +2.8747033e+02 </wgt>
<wgt id='1085'> +2.8770868e+02 </wgt>
<wgt id='1086'> +2.8787326e+02 </wgt>
<wgt id='1087'> +2.8804406e+02 </wgt>
<wgt id='1088'> +2.8795455e+02 </wgt>
<wgt id='1089'> +2.8768953e+02 </wgt>
<wgt id='1090'> +2.8773341e+02 </wgt>
<wgt id='1091'> +2.8759225e+02 </wgt>
<wgt id='1092'> +2.8788024e+02 </wgt>
<wgt id='1093'> +2.8840044e+02 </wgt>
<wgt id='1094'> +2.8771726e+02 </wgt>
<wgt id='1095'> +2.8799897e+02 </wgt>
<wgt id='1096'> +2.8776319e+02 </wgt>
<wgt id='1097'> +2.8784015e+02 </wgt>
<wgt id='1098'> +2.8768249e+02 </wgt>
<wgt id='1099'> +2.8767090e+02 </wgt>
<wgt id='1100'> +2.8793935e+02 </wgt>
<wgt id='1101'> +2.8795348e+02 </wgt>
<wgt id='1102'> +2.8810175e+02 </wgt>
<wgt id='1103'> +2.8751444e+02 </wgt>
<wgt id='1104'> +2.8781675e+02 </wgt>
<wgt id='1105'> +2.8799784e+02 </wgt>
<wgt id='1106'> +2.8770757e+02 </wgt>
<wgt id='1107'> +2.8798066e+02 </wgt>
<wgt id='1108'> +2.8789892e+02 </wgt>
<wgt id='1109'> +2.8789845e+02 </wgt>
<wgt id='1110'> +2.8781417e+02 </wgt>
<wgt id='1111'> +2.7053025e+02 </wgt>
<wgt id='1112'> +3.0611556e+02 </wgt>
<wgt id='1113'> +2.8781417e+02 </wgt>
<wgt id='1114'> +2.9970081e+02 </wgt>
<wgt id='1115'> +2.8303267e+02 </wgt>
<wgt id='1116'> +2.6118609e+02 </wgt>
<wgt id='1117'> +2.8798147e+02 </wgt>
<wgt id='1118'> +2.8082757e+02 </wgt>
<wgt id='1119'> +2.9223480e+02 </wgt>
<wgt id='1120'> +2.8608330e+02 </wgt>
<wgt id='1121'> +2.8133392e+02 </wgt>
<wgt id='1122'> +2.7870781e+02 </wgt>
<wgt id='1123'> +2.9605888e+02 </wgt>
<wgt id='1124'> +2.9370068e+02 </wgt>
<wgt id='1125'> +2.9365942e+02 </wgt>
<wgt id='1126'> +2.9952928e+02 </wgt>
<wgt id='1127'> +2.9285221e+02 </wgt>
<wgt id='1128'> +2.8749807e+02 </wgt>
<wgt id='1129'> +2.7856155e+02 </wgt>
<wgt id='1130'> +2.8315516e+02 </wgt>
<wgt id='1131'> +2.8085278e+02 </wgt>
<wgt id='1132'> +2.8298415e+02 </wgt>
<wgt id='1133'> +2.8744650e+02 </wgt>
<wgt id='1134'> +2.8990502e+02 </wgt>
<wgt id='1135'> +2.8695145e+02 </wgt>
<wgt id='1136'> +2.8165692e+02 </wgt>
<wgt id='1137'> +2.9249798e+02 </wgt>
<wgt id='1138'> +2.7912346e+02 </wgt>
<wgt id='1139'> +2.8535660e+02 </wgt>
<wgt id='1140'> +3.0025963e+02 </wgt>
<wgt id='1141'> +2.7619406e+02 </wgt>
<wgt id='1142'> +2.8877574e+02 </wgt>
<wgt id='1143'> +2.9263940e+02 </wgt>
<wgt id='1144'> +2.6891258e+02 </wgt>
<wgt id='1145'> +3.0243895e+02 </wgt>
<wgt id='1146'> +2.8460169e+02 </wgt>
<wgt id='1147'> +2.8922264e+02 </wgt>
<wgt id='1148'> +2.6600272e+02 </wgt>
<wgt id='1149'> +2.9483057e+02 </wgt>
<wgt id='1150'> +2.8694563e+02 </wgt>
<wgt id='1151'> +2.8616869e+02 </wgt>
<wgt id='1152'> +2.9877448e+02 </wgt>
<wgt id='1153'> +2.8548673e+02 </wgt>
<wgt id='1154'> +2.7909838e+02 </wgt>
<wgt id='1155'> +2.9165817e+02 </wgt>
<wgt id='1156'> +2.9111389e+02 </wgt>
<wgt id='1157'> +2.8769968e+02 </wgt>
<wgt id='1158'> +2.8093557e+02 </wgt>
<wgt id='1159'> +2.9556694e+02 </wgt>
<wgt id='1160'> +2.9931636e+02 </wgt>
<wgt id='1161'> +3.0340884e+02 </wgt>
<wgt id='1162'> +2.9951843e+02 </wgt>
<wgt id='1163'> +2.8784627e+02 </wgt>
<wgt id='1164'> +2.9903537e+02 </wgt>
<wgt id='1165'> +2.8736654e+02 </wgt>
<wgt id='1166'> +2.8977203e+02 </wgt>
<wgt id='1167'> +2.9355367e+02 </wgt>
<wgt id='1168'> +2.8553725e+02 </wgt>
<wgt id='1169'> +2.8945131e+02 </wgt>
<wgt id='1170'> +2.9237943e+02 </wgt>
<wgt id='1171'> +2.9754526e+02 </wgt>
<wgt id='1172'> +2.6603595e+02 </wgt>
<wgt id='1173'> +2.9341240e+02 </wgt>
<wgt id='1174'> +2.9829094e+02 </wgt>
<wgt id='1175'> +2.7879994e+02 </wgt>
<wgt id='1176'> +2.9092412e+02 </wgt>
<wgt id='1177'> +2.9085787e+02 </wgt>
<wgt id='1178'> +2.8399828e+02 </wgt>
<wgt id='1179'> +2.7101728e+02 </wgt>
<wgt id='1180'> +2.7149828e+02 </wgt>
<wgt id='1181'> +2.9157349e+02 </wgt>
<wgt id='1182'> +2.9201420e+02 </wgt>
<wgt id='1183'> +3.0716901e+02 </wgt>
<wgt id='1184'> +2.8833626e+02 </wgt>
<wgt id='1185'> +2.9142004e+02 </wgt>
<wgt id='1186'> +2.8405735e+02 </wgt>
<wgt id='1187'> +2.7967547e+02 </wgt>
<wgt id='1188'> +2.8416327e+02 </wgt>
<wgt id='1189'> +2.7544469e+02 </wgt>
<wgt id='1190'> +2.9696950e+02 </wgt>
<wgt id='1191'> +2.8820938e+02 </wgt>
<wgt id='1192'> +2.8841238e+02 </wgt>
<wgt id='1193'> +3.0163731e+02 </wgt>
<wgt id='1194'> +2.9655457e+02 </wgt>
<wgt id='1195'> +2.7856155e+02 </wgt>
<wgt id='1196'> +2.9369421e+02 </wgt>
<wgt id='1197'> +2.8106554e+02 </wgt>
<wgt id='1198'> +2.8368200e+02 </wgt>
<wgt id='1199'> +3.0862000e+02 </wgt>
<wgt id='1200'> +2.8216664e+02 </wgt>
<wgt id='1201'> +2.9335358e+02 </wgt>
<wgt id='1202'> +2.7149987e+02 </wgt>
<wgt id='1203'> +2.8240628e+02 </wgt>
<wgt id='1204'> +2.6806881e+02 </wgt>
<wgt id='1205'> +2.9950043e+02 </wgt>
<wgt id='1206'> +2.8730212e+02 </wgt>
<wgt id='1207'> +2.8990942e+02 </wgt>
<wgt id='1208'> +3.0221476e+02 </wgt>
<wgt id='1209'> +2.7396944e+02 </wgt>
<wgt id='1210'> +3.1043903e+02 </wgt>
<wgt id='1211'> +2.8476176e+02 </wgt>
<wgt id='1212'> +2.8325917e+02 </wgt>
<wgt id='1213'> +2.8193463e+02 </wgt>
<wgt id='1214'> +2.8690452e+02 </wgt>
<wgt id='1215'> +2.8671809e+02 </wgt>
<wgt id='1216'> +2.8595088e+02 </wgt>
<wgt id='1217'> +2.8518480e+02 </wgt>
<wgt id='1218'> +2.8776306e+02 </wgt>
<wgt id='1219'> +2.8793150e+02 </wgt>
<wgt id='1220'> +2.8702718e+02 </wgt>
<wgt id='1221'> +2.8822755e+02 </wgt>
<wgt id='1222'> +2.8720050e+02 </wgt>
<wgt id='1223'> +2.8677166e+02 </wgt>
<wgt id='1224'> +2.8564055e+02 </wgt>
<wgt id='1225'> +2.8595666e+02 </wgt>
<wgt id='1226'> +2.8662282e+02 </wgt>
<wgt id='1227'> +2.8558604e+02 </wgt>
<wgt id='1228'> +2.8605684e+02 </wgt>
<wgt id='1229'> +2.8675798e+02 </wgt>
<wgt id='1230'> +2.8761166e+02 </wgt>
<wgt id='1231'> +2.8694506e+02 </wgt>
<wgt id='1232'> +2.8644988e+02 </wgt>
<wgt id='1233'> +2.8706837e+02 </wgt>
<wgt id='1234'> +2.8701966e+02 </wgt>
<wgt id='1235'> +2.8741382e+02 </wgt>
<wgt id='1236'> +2.8727472e+02 </wgt>
<wgt id='1237'> +2.8795935e+02 </wgt>
<wgt id='1238'> +2.8634716e+02 </wgt>
<wgt id='1239'> +2.8766627e+02 </wgt>
<wgt id='1240'> +2.8802862e+02 </wgt>
<wgt id='1241'> +2.8620776e+02 </wgt>
<wgt id='1242'> +2.8594782e+02 </wgt>
<wgt id='1243'> +2.8893371e+02 </wgt>
<wgt id='1244'> +2.8715814e+02 </wgt>
<wgt id='1245'> +2.8698939e+02 </wgt>
<wgt id='1246'> +2.8668923e+02 </wgt>
<wgt id='1247'> +2.8643762e+02 </wgt>
<wgt id='1248'> +2.8650231e+02 </wgt>
<wgt id='1249'> +2.8775540e+02 </wgt>
<wgt id='1250'> +2.8791294e+02 </wgt>
<wgt id='1251'> +2.8573198e+02 </wgt>
<wgt id='1252'> +2.8617441e+02 </wgt>
<wgt id='1253'> +2.8621799e+02 </wgt>
<wgt id='1254'> +2.8830686e+02 </wgt>
<wgt id='1255'> +2.8850591e+02 </wgt>
<wgt id='1256'> +2.8798729e+02 </wgt>
<wgt id='1257'> +2.8327749e+02 </wgt>
<wgt id='1258'> +2.8590087e+02 </wgt>
<wgt id='1259'> +2.8699916e+02 </wgt>
<wgt id='1260'> +2.8899995e+02 </wgt>
<wgt id='1261'> +2.8841282e+02 </wgt>
<wgt id='1262'> +2.8508923e+02 </wgt>
<wgt id='1263'> +2.8559640e+02 </wgt>
<wgt id='1264'> +2.8801633e+02 </wgt>
<wgt id='1265'> +2.8534340e+02 </wgt>
<wgt id='1266'> +2.8614564e+02 </wgt>
<wgt id='1267'> +2.8666645e+02 </wgt>
<wgt id='1268'> +2.8720223e+02 </wgt>
<wgt id='1269'> +2.8787001e+02 </wgt>
<wgt id='1270'> +2.8622263e+02 </wgt>
<wgt id='1271'> +2.8538014e+02 </wgt>
<wgt id='1272'> +2.8660978e+02 </wgt>
<wgt id='1273'> +2.8720628e+02 </wgt>
<wgt id='1274'> +2.8716274e+02 </wgt>
<wgt id='1275'> +2.8707300e+02 </wgt>
<wgt id='1276'> +2.8672999e+02 </wgt>
<wgt id='1277'> +2.8670339e+02 </wgt>
<wgt id='1278'> +2.8671884e+02 </wgt>
<wgt id='1279'> +2.8622372e+02 </wgt>
<wgt id='1280'> +2.8718987e+02 </wgt>
<wgt id='1281'> +2.8698387e+02 </wgt>
<wgt id='1282'> +2.8704540e+02 </wgt>
<wgt id='1283'> +2.8751501e+02 </wgt>
<wgt id='1284'> +2.8622992e+02 </wgt>
<wgt id='1285'> +2.8652447e+02 </wgt>
<wgt id='1286'> +2.8685061e+02 </wgt>
<wgt id='1287'> +2.8597861e+02 </wgt>
<wgt id='1288'> +2.8658018e+02 </wgt>
<wgt id='1289'> +2.8627968e+02 </wgt>
<wgt id='1290'> +2.8782622e+02 </wgt>
<wgt id='1291'> +2.8551765e+02 </wgt>
<wgt id='1292'> +2.8715152e+02 </wgt>
<wgt id='1293'> +2.8715696e+02 </wgt>
<wgt id='1294'> +2.8736495e+02 </wgt>
<wgt id='1295'> +2.8723025e+02 </wgt>
<wgt id='1296'> +2.8745133e+02 </wgt>
<wgt id='1297'> +2.8687422e+02 </wgt>
<wgt id='1298'> +2.8676409e+02 </wgt>
<wgt id='1299'> +2.8699842e+02 </wgt>
<wgt id='1300'> +2.8691379e+02 </wgt>
<wgt id='1301'> +2.8655145e+02 </wgt>
<wgt id='1302'> +2.8709377e+02 </wgt>
<wgt id='1303'> +2.8655356e+02 </wgt>
<wgt id='1304'> +2.8692785e+02 </wgt>
<wgt id='1305'> +2.8699929e+02 </wgt>
<wgt id='1306'> +2.8670907e+02 </wgt>
<wgt id='1307'> +2.8706011e+02 </wgt>
<wgt id='1308'> +2.8701930e+02 </wgt>
<wgt id='1309'> +2.8726627e+02 </wgt>
<wgt id='1310'> +2.8661408e+02 </wgt>
<wgt id='1311'> +2.8730710e+02 </wgt>
<wgt id='1312'> +2.8673868e+02 </wgt>
<wgt id='1313'> +2.8670988e+02 </wgt>
<wgt id='1314'> +2.8707324e+02 </wgt>
<wgt id='1315'> +2.7053025e+02 </wgt>
<wgt id='1316'> +3.0611556e+02 </wgt>
<wgt id='1317'> +2.1254844e+02 </wgt>
<wgt id='1318'> +2.2645780e+02 </wgt>
<wgt id='1319'> +2.4060960e+02 </wgt>
<wgt id='1320'> +2.5349211e+02 </wgt>
<wgt id='1321'> +2.7782037e+02 </wgt>
<wgt id='1322'> +2.9602749e+02 </wgt>
<wgt id='1323'> +3.2292110e+02 </wgt>
<wgt id='1324'> +3.4518798e+02 </wgt>
<wgt id='1325'> +3.0926442e+02 </wgt>
<wgt id='1326'> +3.0847595e+02 </wgt>
<wgt id='1327'> +3.0998012e+02 </wgt>
<wgt id='1328'> +3.0812817e+02 </wgt>
<wgt id='1329'> +3.1026381e+02 </wgt>
<wgt id='1330'> +3.0782360e+02 </wgt>
<wgt id='1331'> +3.0851137e+02 </wgt>
<wgt id='1332'> +3.0807925e+02 </wgt>
<wgt id='1333'> +3.0916106e+02 </wgt>
<wgt id='1334'> +3.0824782e+02 </wgt>
<wgt id='1335'> +3.0924641e+02 </wgt>
<wgt id='1336'> +3.0911265e+02 </wgt>
<wgt id='1337'> +3.0896490e+02 </wgt>
<wgt id='1338'> +3.1081556e+02 </wgt>
<wgt id='1339'> +3.0884914e+02 </wgt>
<wgt id='1340'> +3.0830063e+02 </wgt>
<wgt id='1341'> +3.0938452e+02 </wgt>
<wgt id='1342'> +3.0876263e+02 </wgt>
<wgt id='1343'> +3.1000369e+02 </wgt>
<wgt id='1344'> +3.1003972e+02 </wgt>
<wgt id='1345'> +3.0969549e+02 </wgt>
<wgt id='1346'> +3.0901066e+02 </wgt>
<wgt id='1347'> +3.0912336e+02 </wgt>
<wgt id='1348'> +3.0900331e+02 </wgt>
<wgt id='1349'> +3.0877401e+02 </wgt>
<wgt id='1350'> +3.0992703e+02 </wgt>
<wgt id='1351'> +3.0990382e+02 </wgt>
<wgt id='1352'> +3.0945479e+02 </wgt>
<wgt id='1353'> +3.0803049e+02 </wgt>
<wgt id='1354'> +3.0822610e+02 </wgt>
<wgt id='1355'> +3.1143100e+02 </wgt>
<wgt id='1356'> +3.0981195e+02 </wgt>
<wgt id='1357'> +3.0981818e+02 </wgt>
<wgt id='1358'> +3.1029852e+02 </wgt>
<wgt id='1359'> +3.0898844e+02 </wgt>
<wgt id='1360'> +3.0987248e+02 </wgt>
<wgt id='1361'> +3.0876084e+02 </wgt>
<wgt id='1362'> +3.0987623e+02 </wgt>
<wgt id='1363'> +3.0874903e+02 </wgt>
<wgt id='1364'> +3.0813707e+02 </wgt>
<wgt id='1365'> +3.0904666e+02 </wgt>
<wgt id='1366'> +3.0969806e+02 </wgt>
<wgt id='1367'> +3.1067491e+02 </wgt>
<wgt id='1368'> +3.1113682e+02 </wgt>
<wgt id='1369'> +3.0837700e+02 </wgt>
<wgt id='1370'> +3.0791636e+02 </wgt>
<wgt id='1371'> +3.1119292e+02 </wgt>
<wgt id='1372'> +3.1063442e+02 </wgt>
<wgt id='1373'> +3.0704377e+02 </wgt>
<wgt id='1374'> +3.0938984e+02 </wgt>
<wgt id='1375'> +3.0689617e+02 </wgt>
<wgt id='1376'> +3.1102607e+02 </wgt>
<wgt id='1377'> +3.0867455e+02 </wgt>
<wgt id='1378'> +3.0873415e+02 </wgt>
<wgt id='1379'> +3.0981865e+02 </wgt>
<wgt id='1380'> +3.1158271e+02 </wgt>
<wgt id='1381'> +3.0860605e+02 </wgt>
<wgt id='1382'> +3.0959170e+02 </wgt>
<wgt id='1383'> +3.0964950e+02 </wgt>
<wgt id='1384'> +3.0822059e+02 </wgt>
<wgt id='1385'> +3.0977016e+02 </wgt>
<wgt id='1386'> +3.0886338e+02 </wgt>
<wgt id='1387'> +3.0910237e+02 </wgt>
<wgt id='1388'> +3.0854113e+02 </wgt>
<wgt id='1389'> +3.0990207e+02 </wgt>
<wgt id='1390'> +3.0861392e+02 </wgt>
<wgt id='1391'> +3.0953726e+02 </wgt>
<wgt id='1392'> +3.0940943e+02 </wgt>
<wgt id='1393'> +3.0900975e+02 </wgt>
<wgt id='1394'> +3.0857663e+02 </wgt>
<wgt id='1395'> +3.0888151e+02 </wgt>
<wgt id='1396'> +3.0950196e+02 </wgt>
<wgt id='1397'> +3.0916893e+02 </wgt>
<wgt id='1398'> +3.0910836e+02 </wgt>
<wgt id='1399'> +3.1098196e+02 </wgt>
<wgt id='1400'> +3.0919512e+02 </wgt>
<wgt id='1401'> +3.0979583e+02 </wgt>
<wgt id='1402'> +3.1002041e+02 </wgt>
<wgt id='1403'> +3.0959267e+02 </wgt>
<wgt id='1404'> +3.0804813e+02 </wgt>
<wgt id='1405'> +3.0861192e+02 </wgt>
<wgt id='1406'> +3.0902329e+02 </wgt>
<wgt id='1407'> +3.0868256e+02 </wgt>
<wgt id='1408'> +3.0897776e+02 </wgt>
<wgt id='1409'> +3.0908200e+02 </wgt>
<wgt id='1410'> +3.0981124e+02 </wgt>
<wgt id='1411'> +3.0844064e+02 </wgt>
<wgt id='1412'> +3.0876738e+02 </wgt>
<wgt id='1413'> +3.0899694e+02 </wgt>
<wgt id='1414'> +3.0912974e+02 </wgt>
<wgt id='1415'> +3.0936994e+02 </wgt>
<wgt id='1416'> +3.0929504e+02 </wgt>
<wgt id='1417'> +3.0921248e+02 </wgt>
<wgt id='1418'> +3.0945154e+02 </wgt>
<wgt id='1419'> +3.0970419e+02 </wgt>
<wgt id='1420'> +3.0914526e+02 </wgt>
<wgt id='1421'> +3.0922316e+02 </wgt>
<wgt id='1422'> +3.0928298e+02 </wgt>
<wgt id='1423'> +3.0908964e+02 </wgt>
<wgt id='1424'> +3.0935641e+02 </wgt>
<wgt id='1425'> +3.0947300e+02 </wgt>
<wgt id='1426'> +2.9373259e+02 </wgt>
<wgt id='1427'> +3.2675599e+02 </wgt>
<wgt id='1428'> +3.2938372e+02 </wgt>
<wgt id='1429'> +3.3059554e+02 </wgt>
<wgt id='1430'> +3.3011438e+02 </wgt>
<wgt id='1431'> +3.2978849e+02 </wgt>
<wgt id='1432'> +3.3347811e+02 </wgt>
<wgt id='1433'> +3.4290484e+02 </wgt>
<wgt id='1434'> +3.4027127e+02 </wgt>
<wgt id='1435'> +3.3449473e+02 </wgt>
<wgt id='1436'> +3.3309160e+02 </wgt>
<wgt id='1437'> +3.3180951e+02 </wgt>
<wgt id='1438'> +3.2907542e+02 </wgt>
<wgt id='1439'> +3.3754331e+02 </wgt>
<wgt id='1440'> +3.2086131e+02 </wgt>
<wgt id='1441'> +3.3284182e+02 </wgt>
<wgt id='1442'> +3.2079116e+02 </wgt>
<wgt id='1443'> +3.2079893e+02 </wgt>
<wgt id='1444'> +3.5327354e+02 </wgt>
<wgt id='1445'> +3.2829937e+02 </wgt>
<wgt id='1446'> +3.3045843e+02 </wgt>
<wgt id='1447'> +3.2056183e+02 </wgt>
<wgt id='1448'> +3.3730341e+02 </wgt>
<wgt id='1449'> +3.2464331e+02 </wgt>
<wgt id='1450'> +3.3239614e+02 </wgt>
<wgt id='1451'> +3.2544536e+02 </wgt>
<wgt id='1452'> +3.3401741e+02 </wgt>
<wgt id='1453'> +3.2956655e+02 </wgt>
<wgt id='1454'> +3.2924676e+02 </wgt>
<wgt id='1455'> +3.2424081e+02 </wgt>
<wgt id='1456'> +3.3814555e+02 </wgt>
<wgt id='1457'> +3.4311165e+02 </wgt>
<wgt id='1458'> +3.2098848e+02 </wgt>
<wgt id='1459'> +3.3568238e+02 </wgt>
<wgt id='1460'> +3.2031430e+02 </wgt>
<wgt id='1461'> +3.2497257e+02 </wgt>
<wgt id='1462'> +3.3377753e+02 </wgt>
<wgt id='1463'> +3.2384923e+02 </wgt>
<wgt id='1464'> +3.3427108e+02 </wgt>
<wgt id='1465'> +3.2440088e+02 </wgt>
<wgt id='1466'> +3.3541179e+02 </wgt>
<wgt id='1467'> +3.3265426e+02 </wgt>
<wgt id='1468'> +3.2800385e+02 </wgt>
<wgt id='1469'> +3.3866702e+02 </wgt>
<wgt id='1470'> +3.2670382e+02 </wgt>
<wgt id='1471'> +3.1794668e+02 </wgt>
<wgt id='1472'> +3.4466149e+02 </wgt>
<wgt id='1473'> +3.2328304e+02 </wgt>
<wgt id='1474'> +3.3838284e+02 </wgt>
<wgt id='1475'> +3.2465170e+02 </wgt>
<wgt id='1476'> +3.3013205e+02 </wgt>
<wgt id='1477'> +3.2967938e+02 </wgt>
<wgt id='1478'> +3.2673786e+02 </wgt>
<wgt id='1479'> +3.2812888e+02 </wgt>
<wgt id='1480'> +3.2957405e+02 </wgt>
<wgt id='1481'> +3.1613469e+02 </wgt>
<wgt id='1482'> +3.1957203e+02 </wgt>
<wgt id='1483'> +3.2936886e+02 </wgt>
<wgt id='1484'> +3.3059199e+02 </wgt>
<wgt id='1485'> +3.0604390e+02 </wgt>
<wgt id='1486'> +3.5619392e+02 </wgt>
<wgt id='1487'> +3.3429479e+02 </wgt>
<wgt id='1488'> +3.3374271e+02 </wgt>
<wgt id='1489'> +3.3272422e+02 </wgt>
<wgt id='1490'> +3.3462853e+02 </wgt>
<wgt id='1491'> +3.4211135e+02 </wgt>
<wgt id='1492'> +3.2910760e+02 </wgt>
<wgt id='1493'> +3.3697634e+02 </wgt>
<wgt id='1494'> +3.3070065e+02 </wgt>
<wgt id='1495'> +3.3821767e+02 </wgt>
<wgt id='1496'> +3.4634385e+02 </wgt>
<wgt id='1497'> +3.2477959e+02 </wgt>
<wgt id='1498'> +3.3244257e+02 </wgt>
<wgt id='1499'> +3.3550920e+02 </wgt>
<wgt id='1500'> +3.5326474e+02 </wgt>
<wgt id='1501'> +3.2238529e+02 </wgt>
<wgt id='1502'> +3.4218415e+02 </wgt>
<wgt id='1503'> +3.2957841e+02 </wgt>
<wgt id='1504'> +3.2915632e+02 </wgt>
<wgt id='1505'> +3.4051603e+02 </wgt>
<wgt id='1506'> +3.2147094e+02 </wgt>
<wgt id='1507'> +3.4810373e+02 </wgt>
<wgt id='1508'> +3.3090584e+02 </wgt>
<wgt id='1509'> +3.4109899e+02 </wgt>
<wgt id='1510'> +3.4389175e+02 </wgt>
<wgt id='1511'> +3.2486606e+02 </wgt>
<wgt id='1512'> +3.3229076e+02 </wgt>
<wgt id='1513'> +3.3630144e+02 </wgt>
<wgt id='1514'> +3.3879031e+02 </wgt>
<wgt id='1515'> +3.2796064e+02 </wgt>
<wgt id='1516'> +3.3922792e+02 </wgt>
<wgt id='1517'> +3.3255090e+02 </wgt>
<wgt id='1518'> +3.3279992e+02 </wgt>
<wgt id='1519'> +3.3626793e+02 </wgt>
<wgt id='1520'> +3.3706676e+02 </wgt>
<wgt id='1521'> +3.2836396e+02 </wgt>
<wgt id='1522'> +3.2681179e+02 </wgt>
<wgt id='1523'> +3.4064895e+02 </wgt>
<wgt id='1524'> +3.2305174e+02 </wgt>
<wgt id='1525'> +3.5104644e+02 </wgt>
<wgt id='1526'> +3.2767084e+02 </wgt>
<wgt id='1527'> +3.4004154e+02 </wgt>
<wgt id='1528'> +3.3753595e+02 </wgt>
<wgt id='1529'> +3.2925941e+02 </wgt>
<wgt id='1530'> +3.3142839e+02 </wgt>
<wgt id='1531'> +3.3117507e+02 </wgt>
<wgt id='1532'> +3.4608675e+02 </wgt>
<wgt id='1533'> +3.3223796e+02 </wgt>
<wgt id='1534'> +3.3682368e+02 </wgt>
<wgt id='1535'> +3.4674314e+02 </wgt>
<wgt id='1536'> +3.4531730e+02 </wgt>
<wgt id='1537'> +3.4444469e+02 </wgt>
<wgt id='1538'> +3.3530836e+02 </wgt>
<wgt id='1539'> +3.3478447e+02 </wgt>
<wgt id='1540'> +3.2098413e+02 </wgt>
<wgt id='1541'> +3.3166924e+02 </wgt>
<wgt id='1542'> +3.3452467e+02 </wgt>
<wgt id='1543'> +3.3444742e+02 </wgt>
<wgt id='1544'> +3.1231465e+02 </wgt>
<wgt id='1545'> +3.5985905e+02 </wgt>
<wgt id='1546'> +4.8592216e+02 </wgt>
<wgt id='1547'> +3.1359521e+02 </wgt>
<wgt id='1548'> +3.1424691e+02 </wgt>
<wgt id='1549'> +3.1288920e+02 </wgt>
<wgt id='1550'> +3.1371669e+02 </wgt>
<wgt id='1551'> +3.1350589e+02 </wgt>
<wgt id='1552'> +3.1376751e+02 </wgt>
<wgt id='1553'> +3.1342149e+02 </wgt>
<wgt id='1554'> +3.1333341e+02 </wgt>
<wgt id='1555'> +3.1387455e+02 </wgt>
<wgt id='1556'> +3.1517016e+02 </wgt>
<wgt id='1557'> +3.1204489e+02 </wgt>
<wgt id='1558'> +3.1419505e+02 </wgt>
<wgt id='1559'> +3.1228641e+02 </wgt>
<wgt id='1560'> +3.1325305e+02 </wgt>
<wgt id='1561'> +3.1420223e+02 </wgt>
<wgt id='1562'> +3.1334223e+02 </wgt>
<wgt id='1563'> +3.1372925e+02 </wgt>
<wgt id='1564'> +3.1138228e+02 </wgt>
<wgt id='1565'> +3.1619287e+02 </wgt>
<wgt id='1566'> +3.1312442e+02 </wgt>
<wgt id='1567'> +3.1399459e+02 </wgt>
<wgt id='1568'> +3.1253371e+02 </wgt>
<wgt id='1569'> +3.1499879e+02 </wgt>
<wgt id='1570'> +3.1087875e+02 </wgt>
<wgt id='1571'> +3.1545113e+02 </wgt>
<wgt id='1572'> +3.2013510e+02 </wgt>
<wgt id='1573'> +3.0585687e+02 </wgt>
<wgt id='1574'> +3.1403296e+02 </wgt>
<wgt id='1575'> +3.1377855e+02 </wgt>
<wgt id='1576'> +3.0957167e+02 </wgt>
<wgt id='1577'> +3.1848054e+02 </wgt>
<wgt id='1578'> +3.0669364e+02 </wgt>
<wgt id='1579'> +3.2163094e+02 </wgt>
<wgt id='1580'> +3.1638759e+02 </wgt>
<wgt id='1581'> +3.1088327e+02 </wgt>
<wgt id='1582'> +3.1510459e+02 </wgt>
<wgt id='1583'> +3.1066427e+02 </wgt>
<wgt id='1584'> +3.1377631e+02 </wgt>
<wgt id='1585'> +3.1351751e+02 </wgt>
<wgt id='1586'> +3.1174820e+02 </wgt>
<wgt id='1587'> +3.1569158e+02 </wgt>
<wgt id='1588'> +3.1001219e+02 </wgt>
<wgt id='1589'> +3.1781669e+02 </wgt>
<wgt id='1590'> +3.1683653e+02 </wgt>
<wgt id='1591'> +3.1370754e+02 </wgt>
<wgt id='1592'> +3.1271669e+02 </wgt>
<wgt id='1593'> +3.1586219e+02 </wgt>
<wgt id='1594'> +3.0876882e+02 </wgt>
<wgt id='1595'> +3.2360349e+02 </wgt>
<wgt id='1596'> +3.1009491e+02 </wgt>
<wgt id='1597'> +3.1563729e+02 </wgt>
<wgt id='1598'> +3.1605794e+02 </wgt>
<wgt id='1599'> +3.1668091e+02 </wgt>
<wgt id='1600'> +3.1527061e+02 </wgt>
<wgt id='1601'> +3.1679347e+02 </wgt>
<wgt id='1602'> +3.1533463e+02 </wgt>
<wgt id='1603'> +3.1638186e+02 </wgt>
<wgt id='1604'> +3.1594434e+02 </wgt>
<wgt id='1605'> +3.1553874e+02 </wgt>
<wgt id='1606'> +3.1657608e+02 </wgt>
<wgt id='1607'> +3.1690671e+02 </wgt>
<wgt id='1608'> +3.1524013e+02 </wgt>
<wgt id='1609'> +3.1293618e+02 </wgt>
<wgt id='1610'> +3.1740932e+02 </wgt>
<wgt id='1611'> +3.1590104e+02 </wgt>
<wgt id='1612'> +3.1627280e+02 </wgt>
<wgt id='1613'> +3.1522405e+02 </wgt>
<wgt id='1614'> +3.1697612e+02 </wgt>
<wgt id='1615'> +3.1123805e+02 </wgt>
<wgt id='1616'> +3.1873200e+02 </wgt>
<wgt id='1617'> +3.1577762e+02 </wgt>
<wgt id='1618'> +3.1647217e+02 </wgt>
<wgt id='1619'> +3.1677037e+02 </wgt>
<wgt id='1620'> +3.1555140e+02 </wgt>
<wgt id='1621'> +3.1492096e+02 </wgt>
<wgt id='1622'> +3.1676902e+02 </wgt>
<wgt id='1623'> +3.1610570e+02 </wgt>
<wgt id='1624'> +3.1597804e+02 </wgt>
<wgt id='1625'> +3.1574794e+02 </wgt>
<wgt id='1626'> +3.1707932e+02 </wgt>
<wgt id='1627'> +3.2036787e+02 </wgt>
<wgt id='1628'> +3.0474194e+02 </wgt>
<wgt id='1629'> +3.1271363e+02 </wgt>
<wgt id='1630'> +3.2342445e+02 </wgt>
<wgt id='1631'> +3.1768249e+02 </wgt>
<wgt id='1632'> +3.1344878e+02 </wgt>
<wgt id='1633'> +3.1085616e+02 </wgt>
<wgt id='1634'> +3.1885917e+02 </wgt>
<wgt id='1635'> +3.1588169e+02 </wgt>
<wgt id='1636'> +3.1704125e+02 </wgt>
<wgt id='1637'> +3.1345315e+02 </wgt>
<wgt id='1638'> +3.1802055e+02 </wgt>
<wgt id='1639'> +3.2138781e+02 </wgt>
<wgt id='1640'> +3.0879427e+02 </wgt>
<wgt id='1641'> +3.1648352e+02 </wgt>
<wgt id='1642'> +3.1377903e+02 </wgt>
<wgt id='1643'> +3.2039712e+02 </wgt>
<wgt id='1644'> +3.1403014e+02 </wgt>
<wgt id='1645'> +3.1519941e+02 </wgt>
<wgt id='1646'> +3.1661104e+02 </wgt>
<wgt id='1647'> +3.2186113e+02 </wgt>
<wgt id='1648'> +3.1314520e+02 </wgt>
<wgt id='1649'> +7.0562476e+02 </wgt>
<wgt id='1650'> +2.8707122e+02 </wgt>
<wgt id='1651'> +2.8697859e+02 </wgt>
<wgt id='1652'> +2.8714665e+02 </wgt>
<wgt id='1653'> +2.8706388e+02 </wgt>
<wgt id='1654'> +2.8706183e+02 </wgt>
<wgt id='1655'> +2.8643371e+02 </wgt>
<wgt id='1656'> +2.8726423e+02 </wgt>
<wgt id='1657'> +2.8723709e+02 </wgt>
<wgt id='1658'> +2.8754904e+02 </wgt>
<wgt id='1659'> +2.8814053e+02 </wgt>
<wgt id='1660'> +2.8691177e+02 </wgt>
<wgt id='1661'> +2.8721267e+02 </wgt>
<wgt id='1662'> +2.8651132e+02 </wgt>
<wgt id='1663'> +2.8658285e+02 </wgt>
<wgt id='1664'> +2.8750737e+02 </wgt>
<wgt id='1665'> +2.8673863e+02 </wgt>
<wgt id='1666'> +2.8775995e+02 </wgt>
<wgt id='1667'> +2.8765751e+02 </wgt>
<wgt id='1668'> +2.8851777e+02 </wgt>
<wgt id='1669'> +2.8515597e+02 </wgt>
<wgt id='1670'> +2.9004840e+02 </wgt>
<wgt id='1671'> +2.8608370e+02 </wgt>
<wgt id='1672'> +2.9245136e+02 </wgt>
<wgt id='1673'> +2.8492375e+02 </wgt>
<wgt id='1674'> +2.8339583e+02 </wgt>
<wgt id='1675'> +2.8341802e+02 </wgt>
<wgt id='1676'> +2.8644093e+02 </wgt>
<wgt id='1677'> +2.8803830e+02 </wgt>
<wgt id='1678'> +2.8702979e+02 </wgt>
<wgt id='1679'> +3.0197288e+02 </wgt>
<wgt id='1680'> +3.2155329e+02 </wgt>
<wgt id='1681'> +3.1694830e+02 </wgt>
<wgt id='1682'> +3.1799862e+02 </wgt>
<wgt id='1683'> +3.2212075e+02 </wgt>
<wgt id='1684'> +3.2080433e+02 </wgt>
<wgt id='1685'> +3.2403473e+02 </wgt>
<wgt id='1686'> +3.1947420e+02 </wgt>
<wgt id='1687'> +3.2305534e+02 </wgt>
<wgt id='1688'> +3.1896420e+02 </wgt>
<wgt id='1689'> +3.2203893e+02 </wgt>
<wgt id='1690'> +3.1564180e+02 </wgt>
<wgt id='1691'> +3.1884247e+02 </wgt>
<wgt id='1692'> +3.2704352e+02 </wgt>
<wgt id='1693'> +3.2534585e+02 </wgt>
<wgt id='1694'> +3.2542006e+02 </wgt>
<wgt id='1695'> +3.2199085e+02 </wgt>
<wgt id='1696'> +3.2069022e+02 </wgt>
<wgt id='1697'> +3.2631959e+02 </wgt>
<wgt id='1698'> +3.2314208e+02 </wgt>
<wgt id='1699'> +3.2412278e+02 </wgt>
<wgt id='1700'> +3.1154739e+02 </wgt>
<wgt id='1701'> +3.1814756e+02 </wgt>
<wgt id='1702'> +3.2861124e+02 </wgt>
<wgt id='1703'> +3.1649166e+02 </wgt>
<wgt id='1704'> +3.2218758e+02 </wgt>
<wgt id='1705'> +3.2214572e+02 </wgt>
<wgt id='1706'> +3.2031988e+02 </wgt>
<wgt id='1707'> +3.2188738e+02 </wgt>
<wgt id='1708'> +3.2023907e+02 </wgt>
<wgt id='1709'> +3.2112770e+02 </wgt>
<wgt id='1710'> +3.2159389e+02 </wgt>
<wgt id='1711'> +3.2158666e+02 </wgt>
<wgt id='1712'> +3.2118923e+02 </wgt>
<wgt id='1713'> +3.2023686e+02 </wgt>
<wgt id='1714'> +3.2126034e+02 </wgt>
<wgt id='1715'> +3.2253153e+02 </wgt>
<wgt id='1716'> +3.2007556e+02 </wgt>
<wgt id='1717'> +3.2148590e+02 </wgt>
<wgt id='1718'> +3.2129221e+02 </wgt>
<wgt id='1719'> +3.2148299e+02 </wgt>
<wgt id='1720'> +3.2178885e+02 </wgt>
<wgt id='1721'> +3.2192800e+02 </wgt>
<wgt id='1722'> +3.2124039e+02 </wgt>
<wgt id='1723'> +3.2103992e+02 </wgt>
<wgt id='1724'> +3.2199023e+02 </wgt>
<wgt id='1725'> +3.2171378e+02 </wgt>
<wgt id='1726'> +3.2236574e+02 </wgt>
<wgt id='1727'> +3.2093534e+02 </wgt>
<wgt id='1728'> +3.2086133e+02 </wgt>
<wgt id='1729'> +3.2176846e+02 </wgt>
<wgt id='1730'> +3.2155048e+02 </wgt>
<wgt id='1731'> +3.2176230e+02 </wgt>
<wgt id='1732'> +3.2122333e+02 </wgt>
<wgt id='1733'> +3.2095056e+02 </wgt>
<wgt id='1734'> +3.2150900e+02 </wgt>
<wgt id='1735'> +3.2157400e+02 </wgt>
<wgt id='1736'> +3.2136326e+02 </wgt>
<wgt id='1737'> +3.2160524e+02 </wgt>
<wgt id='1738'> +3.2186853e+02 </wgt>
<wgt id='1739'> +3.2136494e+02 </wgt>
<wgt id='1740'> +3.2134367e+02 </wgt>
<wgt id='1741'> +3.2165568e+02 </wgt>
<wgt id='1742'> +3.2138366e+02 </wgt>
<wgt id='1743'> +3.2160345e+02 </wgt>
<wgt id='1744'> +3.2157882e+02 </wgt>
<wgt id='1745'> +3.2185596e+02 </wgt>
<wgt id='1746'> +3.2193092e+02 </wgt>
<wgt id='1747'> +3.2170369e+02 </wgt>
<wgt id='1748'> +3.2173235e+02 </wgt>
<wgt id='1749'> +3.2177261e+02 </wgt>
<wgt id='1750'> +3.2155186e+02 </wgt>
<wgt id='1751'> +3.2117006e+02 </wgt>
<wgt id='1752'> +3.2123941e+02 </wgt>
<wgt id='1753'> +3.2120913e+02 </wgt>
<wgt id='1754'> +3.2162676e+02 </wgt>
<wgt id='1755'> +3.2133443e+02 </wgt>
<wgt id='1756'> +3.2163832e+02 </wgt>
<wgt id='1757'> +3.2125149e+02 </wgt>
<wgt id='1758'> +3.2170310e+02 </wgt>
<wgt id='1759'> +3.2197342e+02 </wgt>
<wgt id='1760'> +3.2132231e+02 </wgt>
<wgt id='1761'> +3.2171898e+02 </wgt>
<wgt id='1762'> +3.2130898e+02 </wgt>
<wgt id='1763'> +3.2172354e+02 </wgt>
<wgt id='1764'> +3.2187311e+02 </wgt>
<wgt id='1765'> +3.2169231e+02 </wgt>
<wgt id='1766'> +3.2205427e+02 </wgt>
<wgt id='1767'> +3.2157805e+02 </wgt>
<wgt id='1768'> +3.2151823e+02 </wgt>
<wgt id='1769'> +3.2159693e+02 </wgt>
<wgt id='1770'> +3.2145934e+02 </wgt>
<wgt id='1771'> +3.2138986e+02 </wgt>
<wgt id='1772'> +3.2148412e+02 </wgt>
<wgt id='1773'> +3.2135194e+02 </wgt>
<wgt id='1774'> +3.2156314e+02 </wgt>
<wgt id='1775'> +3.2154347e+02 </wgt>
<wgt id='1776'> +3.2141913e+02 </wgt>
<wgt id='1777'> +3.2168024e+02 </wgt>
<wgt id='1778'> +3.2169257e+02 </wgt>
<wgt id='1779'> +3.2163421e+02 </wgt>
<wgt id='1780'> +3.2155091e+02 </wgt>
<wgt id='1781'> +3.0642702e+02 </wgt>
<wgt id='1782'> +3.3895964e+02 </wgt>
<wgt id='1783'> +3.1639984e+02 </wgt>
<wgt id='1784'> +3.1920593e+02 </wgt>
<wgt id='1785'> +3.1317247e+02 </wgt>
<wgt id='1786'> +3.2178431e+02 </wgt>
<wgt id='1787'> +3.1935256e+02 </wgt>
<wgt id='1788'> +3.1746462e+02 </wgt>
<wgt id='1789'> +3.1923693e+02 </wgt>
<wgt id='1790'> +3.1682146e+02 </wgt>
<wgt id='1791'> +3.1520520e+02 </wgt>
<wgt id='1792'> +3.1823069e+02 </wgt>
<wgt id='1793'> +3.1937782e+02 </wgt>
<wgt id='1794'> +3.1310293e+02 </wgt>
<wgt id='1795'> +3.1878654e+02 </wgt>
<wgt id='1796'> +3.2454867e+02 </wgt>
<wgt id='1797'> +3.1755924e+02 </wgt>
<wgt id='1798'> +3.1170566e+02 </wgt>
<wgt id='1799'> +3.1182945e+02 </wgt>
<wgt id='1800'> +3.1791983e+02 </wgt>
<wgt id='1801'> +3.1926642e+02 </wgt>
<wgt id='1802'> +3.1929525e+02 </wgt>
<wgt id='1803'> +3.1242352e+02 </wgt>
<wgt id='1804'> +3.0667593e+02 </wgt>
<wgt id='1805'> +3.1841747e+02 </wgt>
<wgt id='1806'> +3.0836162e+02 </wgt>
<wgt id='1807'> +3.1331847e+02 </wgt>
<wgt id='1808'> +3.1629437e+02 </wgt>
<wgt id='1809'> +3.1415707e+02 </wgt>
<wgt id='1810'> +3.1731118e+02 </wgt>
<wgt id='1811'> +3.1781075e+02 </wgt>
<wgt id='1812'> +3.1755732e+02 </wgt>
<wgt id='1813'> +3.1698991e+02 </wgt>
<wgt id='1814'> +3.1553970e+02 </wgt>
<wgt id='1815'> +3.1676044e+02 </wgt>
<wgt id='1816'> +3.1718033e+02 </wgt>
<wgt id='1817'> +3.1702157e+02 </wgt>
<wgt id='1818'> +3.1728114e+02 </wgt>
<wgt id='1819'> +3.1678125e+02 </wgt>
<wgt id='1820'> +3.1700735e+02 </wgt>
<wgt id='1821'> +3.1714633e+02 </wgt>
<wgt id='1822'> +3.1653909e+02 </wgt>
<wgt id='1823'> +3.1557247e+02 </wgt>
<wgt id='1824'> +3.1648513e+02 </wgt>
<wgt id='1825'> +3.1741671e+02 </wgt>
<wgt id='1826'> +3.1564551e+02 </wgt>
<wgt id='1827'> +3.1668030e+02 </wgt>
<wgt id='1828'> +3.1665717e+02 </wgt>
<wgt id='1829'> +3.1582024e+02 </wgt>
<wgt id='1830'> +3.1654724e+02 </wgt>
<wgt id='1831'> +3.1678090e+02 </wgt>
<wgt id='1832'> +3.1613870e+02 </wgt>
<wgt id='1833'> +3.1636785e+02 </wgt>
<wgt id='1834'> +3.1685865e+02 </wgt>
<wgt id='1835'> +3.1702987e+02 </wgt>
<wgt id='1836'> +3.1660987e+02 </wgt>
<wgt id='1837'> +3.1596066e+02 </wgt>
<wgt id='1838'> +3.1616525e+02 </wgt>
<wgt id='1839'> +3.1650233e+02 </wgt>
<wgt id='1840'> +3.1623761e+02 </wgt>
<wgt id='1841'> +3.1609232e+02 </wgt>
<wgt id='1842'> +3.1621068e+02 </wgt>
<wgt id='1843'> +3.1643585e+02 </wgt>
<wgt id='1844'> +3.1623060e+02 </wgt>
<wgt id='1845'> +3.1654848e+02 </wgt>
<wgt id='1846'> +3.1651288e+02 </wgt>
<wgt id='1847'> +3.1659238e+02 </wgt>
<wgt id='1848'> +3.1620820e+02 </wgt>
<wgt id='1849'> +3.1620254e+02 </wgt>
<wgt id='1850'> +3.1619561e+02 </wgt>
<wgt id='1851'> +3.1641463e+02 </wgt>
<wgt id='1852'> +3.1680449e+02 </wgt>
<wgt id='1853'> +3.1632986e+02 </wgt>
<wgt id='1854'> +3.1650251e+02 </wgt>
<wgt id='1855'> +3.1658546e+02 </wgt>
<wgt id='1856'> +3.1633632e+02 </wgt>
<wgt id='1857'> +3.1658140e+02 </wgt>
<wgt id='1858'> +3.1644814e+02 </wgt>
<wgt id='1859'> +3.1637353e+02 </wgt>
<wgt id='1860'> +3.1655841e+02 </wgt>
<wgt id='1861'> +3.1662495e+02 </wgt>
<wgt id='1862'> +3.1619106e+02 </wgt>
<wgt id='1863'> +3.1672702e+02 </wgt>
<wgt id='1864'> +3.1638877e+02 </wgt>
<wgt id='1865'> +3.1642813e+02 </wgt>
<wgt id='1866'> +3.1632372e+02 </wgt>
<wgt id='1867'> +3.1609080e+02 </wgt>
<wgt id='1868'> +3.1606436e+02 </wgt>
<wgt id='1869'> +3.1654608e+02 </wgt>
<wgt id='1870'> +3.1595989e+02 </wgt>
<wgt id='1871'> +3.1619777e+02 </wgt>
<wgt id='1872'> +3.1624582e+02 </wgt>
<wgt id='1873'> +3.1651983e+02 </wgt>
<wgt id='1874'> +3.1629722e+02 </wgt>
<wgt id='1875'> +3.1633367e+02 </wgt>
<wgt id='1876'> +3.1626297e+02 </wgt>
<wgt id='1877'> +3.1625608e+02 </wgt>
<wgt id='1878'> +3.1640576e+02 </wgt>
<wgt id='1879'> +3.1628517e+02 </wgt>
<wgt id='1880'> +3.1644196e+02 </wgt>
<wgt id='1881'> +3.1637593e+02 </wgt>
<wgt id='1882'> +3.1627199e+02 </wgt>
<wgt id='1883'> +3.1639810e+02 </wgt>
<wgt id='1884'> +3.0011130e+02 </wgt>
<wgt id='1885'> +3.3512071e+02 </wgt>
<wgt id='1886'> +3.2149711e+02 </wgt>
<wgt id='1887'> +3.1681429e+02 </wgt>
<wgt id='1888'> +3.1707690e+02 </wgt>
<wgt id='1889'> +3.2018792e+02 </wgt>
<wgt id='1890'> +3.2288346e+02 </wgt>
<wgt id='1891'> +3.1352270e+02 </wgt>
<wgt id='1892'> +3.1479199e+02 </wgt>
<wgt id='1893'> +3.2105588e+02 </wgt>
<wgt id='1894'> +3.1754331e+02 </wgt>
<wgt id='1895'> +3.2031053e+02 </wgt>
<wgt id='1896'> +3.1955868e+02 </wgt>
<wgt id='1897'> +3.1903327e+02 </wgt>
<wgt id='1898'> +3.1790528e+02 </wgt>
<wgt id='1899'> +3.2206743e+02 </wgt>
<wgt id='1900'> +3.2216149e+02 </wgt>
<wgt id='1901'> +3.2342388e+02 </wgt>
<wgt id='1902'> +3.2291467e+02 </wgt>
<wgt id='1903'> +3.1992191e+02 </wgt>
<wgt id='1904'> +3.2305378e+02 </wgt>
<wgt id='1905'> +3.1230606e+02 </wgt>
<wgt id='1906'> +3.2229068e+02 </wgt>
<wgt id='1907'> +3.2064248e+02 </wgt>
<wgt id='1908'> +3.2964627e+02 </wgt>
<wgt id='1909'> +3.2136207e+02 </wgt>
<wgt id='1910'> +3.2110790e+02 </wgt>
<wgt id='1911'> +3.2138474e+02 </wgt>
<wgt id='1912'> +3.2040605e+02 </wgt>
<wgt id='1913'> +3.2097800e+02 </wgt>
<wgt id='1914'> +3.1933604e+02 </wgt>
<wgt id='1915'> +3.2182972e+02 </wgt>
<wgt id='1916'> +3.2163832e+02 </wgt>
<wgt id='1917'> +3.0642702e+02 </wgt>
<wgt id='1918'> +3.3895964e+02 </wgt>
<wgt id='1919'> +3.1634223e+02 </wgt>
<wgt id='1920'> +3.1647410e+02 </wgt>
<wgt id='1921'> +3.1237022e+02 </wgt>
<wgt id='1922'> +3.1732778e+02 </wgt>
<wgt id='1923'> +3.0880046e+02 </wgt>
<wgt id='1924'> +3.2994897e+02 </wgt>
<wgt id='1925'> +3.1663196e+02 </wgt>
<wgt id='1926'> +3.1779268e+02 </wgt>
<wgt id='1927'> +3.1669444e+02 </wgt>
<wgt id='1928'> +3.1795511e+02 </wgt>
<wgt id='1929'> +3.1750434e+02 </wgt>
<wgt id='1930'> +3.1585835e+02 </wgt>
<wgt id='1931'> +3.1456394e+02 </wgt>
<wgt id='1932'> +3.1543755e+02 </wgt>
<wgt id='1933'> +3.1519263e+02 </wgt>
<wgt id='1934'> +3.1268262e+02 </wgt>
<wgt id='1935'> +3.1774288e+02 </wgt>
<wgt id='1936'> +3.1769615e+02 </wgt>
<wgt id='1937'> +3.1639733e+02 </wgt>
<wgt id='1938'> +3.1841619e+02 </wgt>
<wgt id='1939'> +3.1707728e+02 </wgt>
<wgt id='1940'> +3.1743408e+02 </wgt>
<wgt id='1941'> +3.1308002e+02 </wgt>
<wgt id='1942'> +3.1708009e+02 </wgt>
<wgt id='1943'> +3.1390429e+02 </wgt>
<wgt id='1944'> +3.1524306e+02 </wgt>
<wgt id='1945'> +3.1652771e+02 </wgt>
<wgt id='1946'> +3.1890145e+02 </wgt>
<wgt id='1947'> +3.1563895e+02 </wgt>
<wgt id='1948'> +3.0682005e+02 </wgt>
<wgt id='1949'> +3.1602064e+02 </wgt>
<wgt id='1950'> +3.0011130e+02 </wgt>
<wgt id='1951'> +3.3512071e+02 </wgt>
<wgt id='1952'> +2.2596055e+02 </wgt>
<wgt id='1953'> +2.2576630e+02 </wgt>
<wgt id='1954'> +2.2615476e+02 </wgt>
<wgt id='1955'> +2.2634965e+02 </wgt>
<wgt id='1956'> +2.2557137e+02 </wgt>
<wgt id='1957'> +2.2571420e+02 </wgt>
<wgt id='1958'> +2.2620779e+02 </wgt>
<wgt id='1959'> +2.2624117e+02 </wgt>
<wgt id='1960'> +2.2568578e+02 </wgt>
<wgt id='1961'> +2.2573430e+02 </wgt>
<wgt id='1962'> +2.2621405e+02 </wgt>
<wgt id='1963'> +2.2507762e+02 </wgt>
<wgt id='1964'> +2.2678333e+02 </wgt>
<wgt id='1965'> +2.2652421e+02 </wgt>
<wgt id='1966'> +2.2539601e+02 </wgt>
<wgt id='1967'> +2.2738500e+02 </wgt>
<wgt id='1968'> +2.2503373e+02 </wgt>
<wgt id='1969'> +2.2631719e+02 </wgt>
<wgt id='1970'> +2.2543931e+02 </wgt>
<wgt id='1971'> +2.2968215e+02 </wgt>
<wgt id='1972'> +2.2257887e+02 </wgt>
<wgt id='1973'> +2.2630266e+02 </wgt>
<wgt id='1974'> +2.2559460e+02 </wgt>
<wgt id='1975'> +2.2340955e+02 </wgt>
<wgt id='1976'> +2.2884792e+02 </wgt>
<wgt id='1977'> +2.2257524e+02 </wgt>
<wgt id='1978'> +2.2942958e+02 </wgt>
<wgt id='1979'> +2.3003094e+02 </wgt>
<wgt id='1980'> +2.2273083e+02 </wgt>
<wgt id='1981'> +2.2596055e+02 </wgt>
<wgt id='1982'> +2.2713543e+02 </wgt>
<wgt id='1983'> +2.2434966e+02 </wgt>
<wgt id='1984'> +2.2716976e+02 </wgt>
<wgt id='1985'> +2.2489788e+02 </wgt>
<wgt id='1986'> +2.2122603e+02 </wgt>
<wgt id='1987'> +2.3709568e+02 </wgt>
<wgt id='1988'> +2.2653516e+02 </wgt>
<wgt id='1989'> +2.2571841e+02 </wgt>
<wgt id='1990'> +2.2759212e+02 </wgt>
<wgt id='1991'> +2.2457644e+02 </wgt>
<wgt id='1992'> +2.2526585e+02 </wgt>
<wgt id='1993'> +2.2578367e+02 </wgt>
<wgt id='1994'> +2.3249670e+02 </wgt>
<wgt id='1995'> +2.7992135e+02 </wgt>
<wgt id='1996'> +2.7971323e+02 </wgt>
<wgt id='1997'> +2.8007902e+02 </wgt>
<wgt id='1998'> +2.8034630e+02 </wgt>
<wgt id='1999'> +2.7944512e+02 </wgt>
<wgt id='2000'> +2.8007091e+02 </wgt>
<wgt id='2001'> +2.7972223e+02 </wgt>
<wgt id='2002'> +2.8066654e+02 </wgt>
<wgt id='2003'> +2.7913418e+02 </wgt>
<wgt id='2004'> +2.7888636e+02 </wgt>
<wgt id='2005'> +2.8091956e+02 </wgt>
<wgt id='2006'> +2.8076711e+02 </wgt>
<wgt id='2007'> +2.7906172e+02 </wgt>
<wgt id='2008'> +2.8014372e+02 </wgt>
<wgt id='2009'> +2.7967184e+02 </wgt>
<wgt id='2010'> +2.8157752e+02 </wgt>
<wgt id='2011'> +2.7872959e+02 </wgt>
<wgt id='2012'> +2.7837089e+02 </wgt>
<wgt id='2013'> +2.8147448e+02 </wgt>
<wgt id='2014'> +2.8348779e+02 </wgt>
<wgt id='2015'> +2.7642817e+02 </wgt>
<wgt id='2016'> +2.8785241e+02 </wgt>
<wgt id='2017'> +2.7248434e+02 </wgt>
<wgt id='2018'> +2.7317966e+02 </wgt>
<wgt id='2019'> +2.8672515e+02 </wgt>
<wgt id='2020'> +2.7277095e+02 </wgt>
<wgt id='2021'> +2.8673282e+02 </wgt>
<wgt id='2022'> +2.7675755e+02 </wgt>
<wgt id='2023'> +2.8348770e+02 </wgt>
<wgt id='2024'> +2.7990227e+02 </wgt>
<wgt id='2025'> +2.8079005e+02 </wgt>
<wgt id='2026'> +2.7689499e+02 </wgt>
<wgt id='2027'> +2.8115010e+02 </wgt>
<wgt id='2028'> +2.7964898e+02 </wgt>
<wgt id='2029'> +2.6128838e+02 </wgt>
<wgt id='2030'> +2.9443810e+02 </wgt>
<wgt id='2031'> +2.8048920e+02 </wgt>
<wgt id='2032'> +2.7931900e+02 </wgt>
<wgt id='2033'> +2.8378256e+02 </wgt>
<wgt id='2034'> +2.5970255e+02 </wgt>
<wgt id='2035'> +2.8335737e+02 </wgt>
<wgt id='2036'> +2.7566090e+02 </wgt>
<wgt id='2037'> +2.9204342e+02 </wgt>
<wgt id='2038'> +3.3255306e+02 </wgt>
<wgt id='2039'> +3.3251394e+02 </wgt>
<wgt id='2040'> +3.3247393e+02 </wgt>
<wgt id='2041'> +3.3243521e+02 </wgt>
<wgt id='2042'> +3.3239593e+02 </wgt>
<wgt id='2043'> +3.3235625e+02 </wgt>
<wgt id='2044'> +3.3231752e+02 </wgt>
<wgt id='2045'> +3.3227825e+02 </wgt>
<wgt id='2046'> +3.3223933e+02 </wgt>
<wgt id='2047'> +3.3219934e+02 </wgt>
<wgt id='2048'> +3.3216057e+02 </wgt>
<wgt id='2049'> +3.3212160e+02 </wgt>
<wgt id='2050'> +3.3208240e+02 </wgt>
<wgt id='2051'> +3.3204307e+02 </wgt>
<wgt id='2052'> +3.3200382e+02 </wgt>
<wgt id='2053'> +3.3196461e+02 </wgt>
<wgt id='2054'> +3.3192507e+02 </wgt>
<wgt id='2055'> +3.3188623e+02 </wgt>
<wgt id='2056'> +3.3184690e+02 </wgt>
<wgt id='2057'> +3.3180774e+02 </wgt>
<wgt id='2058'> +3.3176836e+02 </wgt>
<wgt id='2059'> +3.3172915e+02 </wgt>
<wgt id='2060'> +3.3169056e+02 </wgt>
<wgt id='2061'> +3.3165156e+02 </wgt>
<wgt id='2062'> +3.3161150e+02 </wgt>
<wgt id='2063'> +3.3157221e+02 </wgt>
<wgt id='2064'> +3.3153352e+02 </wgt>
<wgt id='2065'> +3.3149445e+02 </wgt>
<wgt id='2066'> +3.3145454e+02 </wgt>
<wgt id='2067'> +3.3141573e+02 </wgt>
<wgt id='2068'> +3.3137621e+02 </wgt>
<wgt id='2069'> +3.1258434e+02 </wgt>
<wgt id='2070'> +3.1535835e+02 </wgt>
<wgt id='2071'> +3.0939810e+02 </wgt>
<wgt id='2072'> +3.1790334e+02 </wgt>
<wgt id='2073'> +3.1550320e+02 </wgt>
<wgt id='2074'> +3.1364247e+02 </wgt>
<wgt id='2075'> +3.1538808e+02 </wgt>
<wgt id='2076'> +3.1299661e+02 </wgt>
<wgt id='2077'> +3.1140260e+02 </wgt>
<wgt id='2078'> +3.1439305e+02 </wgt>
<wgt id='2079'> +3.1552470e+02 </wgt>
<wgt id='2080'> +3.0933433e+02 </wgt>
<wgt id='2081'> +3.1493762e+02 </wgt>
<wgt id='2082'> +3.2062731e+02 </wgt>
<wgt id='2083'> +3.1372159e+02 </wgt>
<wgt id='2084'> +3.0794320e+02 </wgt>
<wgt id='2085'> +3.0807421e+02 </wgt>
<wgt id='2086'> +3.1408316e+02 </wgt>
<wgt id='2087'> +3.1541955e+02 </wgt>
<wgt id='2088'> +3.1544944e+02 </wgt>
<wgt id='2089'> +3.0866251e+02 </wgt>
<wgt id='2090'> +3.0296715e+02 </wgt>
<wgt id='2091'> +3.1458656e+02 </wgt>
<wgt id='2092'> +3.0462424e+02 </wgt>
<wgt id='2093'> +3.0953372e+02 </wgt>
<wgt id='2094'> +3.1248843e+02 </wgt>
<wgt id='2095'> +3.1036895e+02 </wgt>
<wgt id='2096'> +3.1347904e+02 </wgt>
<wgt id='2097'> +3.1397906e+02 </wgt>
<wgt id='2098'> +3.1373668e+02 </wgt>
<wgt id='2099'> +3.1316822e+02 </wgt>
<wgt id='2100'> +3.1172722e+02 </wgt>
<wgt id='2101'> +3.1294321e+02 </wgt>
<wgt id='2102'> +3.1335852e+02 </wgt>
<wgt id='2103'> +3.1320076e+02 </wgt>
<wgt id='2104'> +3.1346114e+02 </wgt>
<wgt id='2105'> +3.1296034e+02 </wgt>
<wgt id='2106'> +3.1318875e+02 </wgt>
<wgt id='2107'> +3.1332437e+02 </wgt>
<wgt id='2108'> +3.1272388e+02 </wgt>
<wgt id='2109'> +3.1176870e+02 </wgt>
<wgt id='2110'> +3.1266891e+02 </wgt>
<wgt id='2111'> +3.1358712e+02 </wgt>
<wgt id='2112'> +3.1183825e+02 </wgt>
<wgt id='2113'> +3.1286379e+02 </wgt>
<wgt id='2114'> +3.1283653e+02 </wgt>
<wgt id='2115'> +3.1200943e+02 </wgt>
<wgt id='2116'> +3.1272923e+02 </wgt>
<wgt id='2117'> +3.1296171e+02 </wgt>
<wgt id='2118'> +3.1232440e+02 </wgt>
<wgt id='2119'> +3.1255057e+02 </wgt>
<wgt id='2120'> +3.1303779e+02 </wgt>
<wgt id='2121'> +3.1320565e+02 </wgt>
<wgt id='2122'> +3.1279213e+02 </wgt>
<wgt id='2123'> +3.1214694e+02 </wgt>
<wgt id='2124'> +3.1234861e+02 </wgt>
<wgt id='2125'> +3.1268516e+02 </wgt>
<wgt id='2126'> +3.1242119e+02 </wgt>
<wgt id='2127'> +3.1227993e+02 </wgt>
<wgt id='2128'> +3.1239490e+02 </wgt>
<wgt id='2129'> +3.1261828e+02 </wgt>
<wgt id='2130'> +3.1241791e+02 </wgt>
<wgt id='2131'> +3.1273051e+02 </wgt>
<wgt id='2132'> +3.1269695e+02 </wgt>
<wgt id='2133'> +3.1277913e+02 </wgt>
<wgt id='2134'> +3.1239413e+02 </wgt>
<wgt id='2135'> +3.1238727e+02 </wgt>
<wgt id='2136'> +3.1238339e+02 </wgt>
<wgt id='2137'> +3.1260097e+02 </wgt>
<wgt id='2138'> +3.1298761e+02 </wgt>
<wgt id='2139'> +3.1251471e+02 </wgt>
<wgt id='2140'> +3.1268847e+02 </wgt>
<wgt id='2141'> +3.1276894e+02 </wgt>
<wgt id='2142'> +3.1252029e+02 </wgt>
<wgt id='2143'> +3.1276350e+02 </wgt>
<wgt id='2144'> +3.1262907e+02 </wgt>
<wgt id='2145'> +3.1255817e+02 </wgt>
<wgt id='2146'> +3.1274037e+02 </wgt>
<wgt id='2147'> +3.1280631e+02 </wgt>
<wgt id='2148'> +3.1237572e+02 </wgt>
<wgt id='2149'> +3.1290656e+02 </wgt>
<wgt id='2150'> +3.1257232e+02 </wgt>
<wgt id='2151'> +3.1261106e+02 </wgt>
<wgt id='2152'> +3.1251029e+02 </wgt>
<wgt id='2153'> +3.1227718e+02 </wgt>
<wgt id='2154'> +3.1225271e+02 </wgt>
<wgt id='2155'> +3.1272953e+02 </wgt>
<wgt id='2156'> +3.1214902e+02 </wgt>
<wgt id='2157'> +3.1238422e+02 </wgt>
<wgt id='2158'> +3.1243335e+02 </wgt>
<wgt id='2159'> +3.1270335e+02 </wgt>
<wgt id='2160'> +3.1248306e+02 </wgt>
<wgt id='2161'> +3.1251788e+02 </wgt>
<wgt id='2162'> +3.1245109e+02 </wgt>
<wgt id='2163'> +3.1244449e+02 </wgt>
<wgt id='2164'> +3.1259296e+02 </wgt>
<wgt id='2165'> +3.1246716e+02 </wgt>
<wgt id='2166'> +3.1262605e+02 </wgt>
<wgt id='2167'> +3.1256099e+02 </wgt>
<wgt id='2168'> +3.1245420e+02 </wgt>
<wgt id='2169'> +3.1258354e+02 </wgt>
<wgt id='2170'> +3.1258061e+02 </wgt>
<wgt id='2171'> +3.1255990e+02 </wgt>
<wgt id='2172'> +3.1258823e+02 </wgt>
<wgt id='2173'> +3.1258884e+02 </wgt>
<wgt id='2174'> +3.1259566e+02 </wgt>
<wgt id='2175'> +3.1258598e+02 </wgt>
<wgt id='2176'> +3.1256804e+02 </wgt>
<wgt id='2177'> +3.1808606e+02 </wgt>
<wgt id='2178'> +2.9958027e+02 </wgt>
<wgt id='2179'> +3.2163466e+02 </wgt>
<wgt id='2180'> +2.9932600e+02 </wgt>
<wgt id='2181'> +3.0999760e+02 </wgt>
<wgt id='2182'> +3.0100973e+02 </wgt>
<wgt id='2183'> +3.3056504e+02 </wgt>
<wgt id='2184'> +3.1477928e+02 </wgt>
<wgt id='2185'> +3.2402583e+02 </wgt>
<wgt id='2186'> +3.1247973e+02 </wgt>
<wgt id='2187'> +3.0054352e+02 </wgt>
<wgt id='2188'> +3.3877508e+02 </wgt>
<wgt id='2189'> +3.1715972e+02 </wgt>
<wgt id='2190'> +3.3709945e+02 </wgt>
<wgt id='2191'> +3.4498413e+02 </wgt>
<wgt id='2192'> +3.3301687e+02 </wgt>
<wgt id='2193'> +3.1062947e+02 </wgt>
<wgt id='2194'> +3.5043791e+02 </wgt>
<wgt id='2195'> +3.2206105e+02 </wgt>
<wgt id='2196'> +3.1542974e+02 </wgt>
<wgt id='2197'> +3.0335459e+02 </wgt>
<wgt id='2198'> +3.2218755e+02 </wgt>
<wgt id='2199'> +2.9741628e+02 </wgt>
<wgt id='2200'> +2.9914569e+02 </wgt>
<wgt id='2201'> +2.8403982e+02 </wgt>
<wgt id='2202'> +3.1879103e+02 </wgt>
<wgt id='2203'> +3.1534830e+02 </wgt>
<wgt id='2204'> +3.4835617e+02 </wgt>
<wgt id='2205'> +3.4411120e+02 </wgt>
<wgt id='2206'> +3.2561206e+02 </wgt>
<wgt id='2207'> +3.0595876e+02 </wgt>
<wgt id='2208'> +3.1175141e+02 </wgt>
<wgt id='2209'> +3.2391360e+02 </wgt>
<wgt id='2210'> +3.1367908e+02 </wgt>
<wgt id='2211'> +3.0815965e+02 </wgt>
<wgt id='2212'> +3.2907248e+02 </wgt>
<wgt id='2213'> +3.1218995e+02 </wgt>
<wgt id='2214'> +3.4200145e+02 </wgt>
<wgt id='2215'> +3.0840892e+02 </wgt>
<wgt id='2216'> +3.0957136e+02 </wgt>
<wgt id='2217'> +3.1073739e+02 </wgt>
<wgt id='2218'> +3.0665421e+02 </wgt>
<wgt id='2219'> +3.2308944e+02 </wgt>
<wgt id='2220'> +2.9513862e+02 </wgt>
<wgt id='2221'> +2.9877806e+02 </wgt>
<wgt id='2222'> +2.9773929e+02 </wgt>
<wgt id='2223'> +2.9239604e+02 </wgt>
<wgt id='2224'> +3.2812541e+02 </wgt>
<wgt id='2225'> +3.2490026e+02 </wgt>
<wgt id='2226'> +3.2529330e+02 </wgt>
<wgt id='2227'> +3.1947831e+02 </wgt>
<wgt id='2228'> +3.1227692e+02 </wgt>
<wgt id='2229'> +3.0215381e+02 </wgt>
<wgt id='2230'> +3.1195113e+02 </wgt>
<wgt id='2231'> +3.3377781e+02 </wgt>
<wgt id='2232'> +3.1559072e+02 </wgt>
<wgt id='2233'> +3.3540847e+02 </wgt>
<wgt id='2234'> +3.1887101e+02 </wgt>
<wgt id='2235'> +3.2375822e+02 </wgt>
<wgt id='2236'> +3.1994703e+02 </wgt>
<wgt id='2237'> +3.1220311e+02 </wgt>
<wgt id='2238'> +3.2465450e+02 </wgt>
<wgt id='2239'> +3.0164635e+02 </wgt>
<wgt id='2240'> +3.3004972e+02 </wgt>
<wgt id='2241'> +3.3455406e+02 </wgt>
<wgt id='2242'> +3.0659910e+02 </wgt>
<wgt id='2243'> +3.1922316e+02 </wgt>
<wgt id='2244'> +3.0465108e+02 </wgt>
<wgt id='2245'> +3.2674516e+02 </wgt>
<wgt id='2246'> +3.2769673e+02 </wgt>
<wgt id='2247'> +3.3370683e+02 </wgt>
<wgt id='2248'> +2.9193391e+02 </wgt>
<wgt id='2249'> +3.2002843e+02 </wgt>
<wgt id='2250'> +3.1800116e+02 </wgt>
<wgt id='2251'> +3.3470647e+02 </wgt>
<wgt id='2252'> +3.1834150e+02 </wgt>
<wgt id='2253'> +3.0076736e+02 </wgt>
<wgt id='2254'> +3.1160912e+02 </wgt>
<wgt id='2255'> +3.3484485e+02 </wgt>
<wgt id='2256'> +3.1373171e+02 </wgt>
<wgt id='2257'> +3.2161648e+02 </wgt>
<wgt id='2258'> +3.1164409e+02 </wgt>
<wgt id='2259'> +3.1458943e+02 </wgt>
<wgt id='2260'> +3.3187470e+02 </wgt>
<wgt id='2261'> +3.1919855e+02 </wgt>
<wgt id='2262'> +3.2077315e+02 </wgt>
<wgt id='2263'> +3.2751813e+02 </wgt>
<wgt id='2264'> +3.2273337e+02 </wgt>
<wgt id='2265'> +3.2719820e+02 </wgt>
<wgt id='2266'> +3.2351769e+02 </wgt>
<wgt id='2267'> +3.1704266e+02 </wgt>
<wgt id='2268'> +3.2076670e+02 </wgt>
<wgt id='2269'> +3.0008325e+02 </wgt>
<wgt id='2270'> +3.2967749e+02 </wgt>
<wgt id='2271'> +3.1757289e+02 </wgt>
<wgt id='2272'> +3.5526630e+02 </wgt>
<wgt id='2273'> +3.1628817e+02 </wgt>
<wgt id='2274'> +3.0739854e+02 </wgt>
<wgt id='2275'> +2.9248246e+02 </wgt>
<wgt id='2276'> +3.2993501e+02 </wgt>
<wgt id='2277'> +3.2813511e+02 </wgt>
<wgt id='2278'> +3.0565398e+02 </wgt>
<wgt id='2279'> +3.2861390e+02 </wgt>
<wgt id='2280'> +3.0434940e+02 </wgt>
<wgt id='2281'> +3.3206517e+02 </wgt>
<wgt id='2282'> +4.6966925e+02 </wgt>
<wgt id='2283'> +3.7210831e+02 </wgt>
<wgt id='2284'> +4.7782698e+02 </wgt>
</rwgt>
</event>
<event npLO=" -1 " npNLO=" 0 ">
 3      0 +2.8781417e+02 5.00000000e+01 7.54677110e-03 1.12981050e-01
       21 -1    0    0  502  501 +0.0000000000e+00 +0.0000000000e+00 +4.8238030000e+01 4.8238030000e+01 0.0000000000e+00 0.0000e+00 9.0000e+00
       21 -1    0    0  501  502 +0.0000000000e+00 +0.0000000000e+00 -5.1826328000e+01 5.1826328000e+01 0.0000000000e+00 0.0000e+00 9.0000e+00
       25  1    1    2    0    0 +0.0000000000e+00 +0.0000000000e+00 -3.5882978000e+00 1.0006436000e+02 1.0000000000e+02 0.0000e+00 9.0000e+00
#aMCatNLO 1  0  0  1  2 0.17075130E+03 0.00000000E+00 -9  4  0 0.00000000E+00 0.00000000E+00 0.00000000E+00 0.00000000E+00 0.00000000E+00
<rwgt>
<wgt id='1001'> +2.8781417e+02 </wgt>
<wgt id='1002'> +2.5285343e+02 </wgt>
<wgt id='1003'> +3.2787130e+02 </wgt>
<wgt id='1004'> +3.1126168e+02 </wgt>
<wgt id='1005'> +2.7304297e+02 </wgt>
<wgt id='1006'> +3.5534670e+02 </wgt>
<wgt id='1007'> +2.5900531e+02 </wgt>
<wgt id='1008'> +2.2789186e+02 </wgt>
<wgt id='1009'> +2.9440393e+02 </wgt>
<wgt id='1010'> +2.8781417e+02 </wgt>
<wgt id='1011'> +2.8805671e+02 </wgt>
<wgt id='1012'> +2.8753169e+02 </wgt>
<wgt id='1013'> +2.8894624e+02 </wgt>
<wgt id='1014'> +2.8851596e+02 </wgt>
<wgt id='1015'> +2.8852598e+02 </wgt>
<wgt id='1016'> +2.8882892e+02 </wgt>
<wgt id='1017'> +2.9023152e+02 </wgt>
<wgt id='1018'> +2.8994213e+02 </wgt>
<wgt id='1019'> +2.8774960e+02 </wgt>
<wgt id='1020'> +2.8806687e+02 </wgt>
<wgt id='1021'> +2.8596068e+02 </wgt>
<wgt id='1022'> +2.8853613e+02 </wgt>
<wgt id='1023'> +2.8679177e+02 </wgt>
<wgt id='1024'> +2.8700479e+02 </wgt>
<wgt id='1025'> +2.8744971e+02 </wgt>
<wgt id='1026'> +2.8627812e+02 </wgt>
<wgt id='1027'> +2.8650283e+02 </wgt>
<wgt id='1028'> +2.8941582e+02 </wgt>
<wgt id='1029'> +2.8826715e+02 </wgt>
<wgt id='1030'> +2.8767475e+02 </wgt>
<wgt id='1031'> +2.8874029e+02 </wgt>
<wgt id='1032'> +2.8747714e+02 </wgt>
<wgt id='1033'> +2.8740047e+02 </wgt>
<wgt id='1034'> +2.8798790e+02 </wgt>
<wgt id='1035'> +2.8785757e+02 </wgt>
<wgt id='1036'> +2.8765364e+02 </wgt>
<wgt id='1037'> +2.8745059e+02 </wgt>
<wgt id='1038'> +2.8801007e+02 </wgt>
<wgt id='1039'> +2.8743155e+02 </wgt>
<wgt id='1040'> +2.8756043e+02 </wgt>
<wgt id='1041'> +2.8736885e+02 </wgt>
<wgt id='1042'> +2.8787543e+02 </wgt>
<wgt id='1043'> +2.8749269e+02 </wgt>
<wgt id='1044'> +2.8761673e+02 </wgt>
<wgt id='1045'> +2.8780740e+02 </wgt>
<wgt id='1046'> +2.8809133e+02 </wgt>
<wgt id='1047'> +2.8786032e+02 </wgt>
<wgt id='1048'> +2.8787391e+02 </wgt>
<wgt id='1049'> +2.8780359e+02 </wgt>
<wgt id='1050'> +2.8774198e+02 </wgt>
<wgt id='1051'> +2.8794818e+02 </wgt>
<wgt id='1052'> +2.8786892e+02 </wgt>
<wgt id='1053'> +2.8765853e+02 </wgt>
<wgt id='1054'> +2.8783571e+02 </wgt>
<wgt id='1055'> +2.8789249e+02 </wgt>
<wgt id='1056'> +2.8791580e+02 </wgt>
<wgt id='1057'> +2.8777178e+02 </wgt>
<wgt id='1058'> +2.8775617e+02 </wgt>
<wgt id='1059'> +2.8770925e+02 </wgt>
<wgt id='1060'> +2.8778845e+02 </wgt>
<wgt id='1061'> +2.8776466e+02 </wgt>
<wgt id='1062'> +2.8787003e+02 </wgt>
<wgt id='1063'> +2.8779363e+02 </wgt>
<wgt id='1064'> +2.8782790e+02 </wgt>
<wgt id='1065'> +2.8791588e+02 </wgt>
<wgt id='1066'> +2.8782056e+02 </wgt>
<wgt id='1067'> +2.8787697e+02 </wgt>
<wgt id='1068'> +2.8776675e+02 </wgt>
<wgt id='1069'> +2.8785638e+02 </wgt>
<wgt id='1070'> +2.8779055e+02 </wgt>
<wgt id='1071'> +2.8782805e+02 </wgt>
<wgt id='1072'> +2.8793267e+02 </wgt>
<wgt id='1073'> +2.8784102e+02 </wgt>
<wgt id='1074'> +2.8789349e+02 </wgt>
<wgt id='1075'> +2.8792312e+02 </wgt>
<wgt id='1076'> +2.8790679e+02 </wgt>
<wgt id='1077'> +2.8788718e+02 </wgt>
<wgt id='1078'> +2.8783442e+02 </wgt>
<wgt id='1079'> +2.8785449e+02 </wgt>
<wgt id='1080'> +2.8781944e+02 </wgt>
<wgt id='1081'> +2.8786994e+02 </wgt>
<wgt id='1082'> +2.8782230e+02 </wgt>
<wgt id='1083'> +2.8784223e+02 </wgt>
<wgt id='1084'> +2.8784270e+02 </wgt>
<wgt id='1085'> +2.8777156e+02 </wgt>
<wgt id='1086'> +2.8779152e+02 </wgt>
<wgt id='1087'> +2.8795876e+02 </wgt>
<wgt id='1088'> +2.8778261e+02 </wgt>
<wgt id='1089'> +2.8778303e+02 </wgt>
<wgt id='1090'> +2.8783981e+02 </wgt>
<wgt id='1091'> +2.8777043e+02 </wgt>
<wgt id='1092'> +2.8784965e+02 </wgt>
<wgt id='1093'> +2.8784108e+02 </wgt>
<wgt id='1094'> +2.8786482e+02 </wgt>
<wgt id='1095'> +2.8779942e+02 </wgt>
<wgt id='1096'> +2.8777391e+02 </wgt>
<wgt id='1097'> +2.8783849e+02 </wgt>
<wgt id='1098'> +2.8782499e+02 </wgt>
<wgt id='1099'> +2.8783492e+02 </wgt>
<wgt id='1100'> +2.8782828e+02 </wgt>
<wgt id='1101'> +2.8783177e+02 </wgt>
<wgt id='1102'> +2.8784261e+02 </wgt>
<wgt id='1103'> +2.8779011e+02 </wgt>
<wgt id='1104'> +2.8776031e+02 </wgt>
<wgt id='1105'> +2.8781568e+02 </wgt>
<wgt id='1106'> +2.8779505e+02 </wgt>
<wgt id='1107'> +2.8781862e+02 </wgt>
<wgt id='1108'> +2.8782244e+02 </wgt>
<wgt id='1109'> +2.8784192e+02 </wgt>
<wgt id='1110'> +2.8781417e+02 </wgt>
<wgt id='1111'> +2.8080544e+02 </wgt>
<wgt id='1112'> +2.9306708e+02 </wgt>
<wgt id='1113'> +2.8781417e+02 </wgt>
<wgt id='1114'> +2.7860045e+02 </wgt>
<wgt id='1115'> +2.8508342e+02 </wgt>
<wgt id='1116'> +2.8579877e+02 </wgt>
<wgt id='1117'> +2.8817830e+02 </wgt>
<wgt id='1118'> +2.9248345e+02 </wgt>
<wgt id='1119'> +2.8537989e+02 </wgt>
<wgt id='1120'> +2.8556225e+02 </wgt>
<wgt id='1121'> +2.8752533e+02 </wgt>
<wgt id='1122'> +2.9010922e+02 </wgt>
<wgt id='1123'> +2.9188242e+02 </wgt>
<wgt id='1124'> +2.9307944e+02 </wgt>
<wgt id='1125'> +2.7968028e+02 </wgt>
<wgt id='1126'> +2.8819170e+02 </wgt>
<wgt id='1127'> +2.8238072e+02 </wgt>
<wgt id='1128'> +2.9520376e+02 </wgt>
<wgt id='1129'> +2.9370378e+02 </wgt>
<wgt id='1130'> +2.9300017e+02 </wgt>
<wgt id='1131'> +2.8748493e+02 </wgt>
<wgt id='1132'> +2.8988715e+02 </wgt>
<wgt id='1133'> +2.9545996e+02 </wgt>
<wgt id='1134'> +2.8099401e+02 </wgt>
<wgt id='1135'> +2.9075073e+02 </wgt>
<wgt id='1136'> +2.8715554e+02 </wgt>
<wgt id='1137'> +2.8601860e+02 </wgt>
<wgt id='1138'> +2.8533613e+02 </wgt>
<wgt id='1139'> +2.9267935e+02 </wgt>
<wgt id='1140'> +2.8985741e+02 </wgt>
<wgt id='1141'> +2.8115642e+02 </wgt>
<wgt id='1142'> +2.9158143e+02 </wgt>
<wgt id='1143'> +2.8864475e+02 </wgt>
<wgt id='1144'> +2.8398625e+02 </wgt>
<wgt id='1145'> +2.8364499e+02 </wgt>
<wgt id='1146'> +2.8421185e+02 </wgt>
<wgt id='1147'> +2.8249428e+02 </wgt>
<wgt id='1148'> +2.9796662e+02 </wgt>
<wgt id='1149'> +2.8753234e+02 </wgt>
<wgt id='1150'> +2.9603495e+02 </wgt>
<wgt id='1151'> +2.9276551e+02 </wgt>
<wgt id='1152'> +2.8056316e+02 </wgt>
<wgt id='1153'> +2.8629755e+02 </wgt>
<wgt id='1154'> +2.9220330e+02 </wgt>
<wgt id='1155'> +2.7732008e+02 </wgt>
<wgt id='1156'> +2.8576838e+02 </wgt>
<wgt id='1157'> +2.7989816e+02 </wgt>
<wgt id='1158'> +2.8918426e+02 </wgt>
<wgt id='1159'> +2.9026744e+02 </wgt>
<wgt id='1160'> +2.7929427e+02 </wgt>
<wgt id='1161'> +2.8354038e+02 </wgt>
<wgt id='1162'> +2.8898880e+02 </wgt>
<wgt id='1163'> +2.9392763e+02 </wgt>
<wgt id='1164'> +2.8187537e+02 </wgt>
<wgt id='1165'> +2.8665953e+02 </wgt>
<wgt id='1166'> +2.8755285e+02 </wgt>
<wgt id='1167'> +2.7965256e+02 </wgt>
<wgt id='1168'> +2.8634928e+02 </wgt>
<wgt id='1169'> +2.8628598e+02 </wgt>
<wgt id='1170'> +2.8776231e+02 </wgt>
<wgt id='1171'> +2.8760427e+02 </wgt>
<wgt id='1172'> +3.0013798e+02 </wgt>
<wgt id='1173'> +2.8896245e+02 </wgt>
<wgt id='1174'> +2.8455602e+02 </wgt>
<wgt id='1175'> +2.8637124e+02 </wgt>
<wgt id='1176'> +2.9350817e+02 </wgt>
<wgt id='1177'> +2.8536113e+02 </wgt>
<wgt id='1178'> +2.8873559e+02 </wgt>
<wgt id='1179'> +2.8664460e+02 </wgt>
<wgt id='1180'> +2.7797454e+02 </wgt>
<wgt id='1181'> +2.9233466e+02 </wgt>
<wgt id='1182'> +2.8407313e+02 </wgt>
<wgt id='1183'> +2.7847270e+02 </wgt>
<wgt id='1184'> +2.9493414e+02 </wgt>
<wgt id='1185'> +2.9594792e+02 </wgt>
<wgt id='1186'> +2.9263094e+02 </wgt>
<wgt id='1187'> +2.9607912e+02 </wgt>
<wgt id='1188'> +2.9096038e+02 </wgt>
<wgt id='1189'> +2.9308832e+02 </wgt>
<wgt id='1190'> +2.8707400e+02 </wgt>
<wgt id='1191'> +2.8596649e+02 </wgt>
<wgt id='1192'> +2.9185482e+02 </wgt>
<wgt id='1193'> +2.8209654e+02 </wgt>
<wgt id='1194'> +2.8072982e+02 </wgt>
<wgt id='1195'> +2.9370378e+02 </wgt>
<wgt id='1196'> +2.8442438e+02 </wgt>
<wgt id='1197'> +2.9067794e+02 </wgt>
<wgt id='1198'> +2.8996937e+02 </wgt>
<wgt id='1199'> +2.7516719e+02 </wgt>
<wgt id='1200'> +2.9197615e+02 </wgt>
<wgt id='1201'> +2.8626030e+02 </wgt>
<wgt id='1202'> +3.0092056e+02 </wgt>
<wgt id='1203'> +2.8057787e+02 </wgt>
<wgt id='1204'> +2.8503768e+02 </wgt>
<wgt id='1205'> +2.9574095e+02 </wgt>
<wgt id='1206'> +2.9455093e+02 </wgt>
<wgt id='1207'> +2.8623953e+02 </wgt>
<wgt id='1208'> +2.8277215e+02 </wgt>
<wgt id='1209'> +2.8479429e+02 </wgt>
<wgt id='1210'> +2.8340419e+02 </wgt>
<wgt id='1211'> +2.9118731e+02 </wgt>
<wgt id='1212'> +2.9142617e+02 </wgt>
<wgt id='1213'> +2.9407775e+02 </wgt>
<wgt id='1214'> +2.8742835e+02 </wgt>
<wgt id='1215'> +2.8711600e+02 </wgt>
<wgt id='1216'> +2.8878483e+02 </wgt>
<wgt id='1217'> +2.8865900e+02 </wgt>
<wgt id='1218'> +2.8771867e+02 </wgt>
<wgt id='1219'> +2.8666042e+02 </wgt>
<wgt id='1220'> +2.8661441e+02 </wgt>
<wgt id='1221'> +2.8632283e+02 </wgt>
<wgt id='1222'> +2.8712917e+02 </wgt>
<wgt id='1223'> +2.8762923e+02 </wgt>
<wgt id='1224'> +2.8711954e+02 </wgt>
<wgt id='1225'> +2.8917992e+02 </wgt>
<wgt id='1226'> +2.8916573e+02 </wgt>
<wgt id='1227'> +2.9030297e+02 </wgt>
<wgt id='1228'> +2.8832706e+02 </wgt>
<wgt id='1229'> +2.8793025e+02 </wgt>
<wgt id='1230'> +2.8659305e+02 </wgt>
<wgt id='1231'> +2.8742531e+02 </wgt>
<wgt id='1232'> +2.8843787e+02 </wgt>
<wgt id='1233'> +2.8728592e+02 </wgt>
<wgt id='1234'> +2.8791740e+02 </wgt>
<wgt id='1235'> +2.8718927e+02 </wgt>
<wgt id='1236'> +2.8734644e+02 </wgt>
<wgt id='1237'> +2.8753667e+02 </wgt>
<wgt id='1238'> +2.8761940e+02 </wgt>
<wgt id='1239'> +2.8735287e+02 </wgt>
<wgt id='1240'> +2.8738873e+02 </wgt>
<wgt id='1241'> +2.8731952e+02 </wgt>
<wgt id='1242'> +2.8730783e+02 </wgt>
<wgt id='1243'> +2.8763284e+02 </wgt>
<wgt id='1244'> +2.8747526e+02 </wgt>
<wgt id='1245'> +2.8758807e+02 </wgt>
<wgt id='1246'> +2.8730419e+02 </wgt>
<wgt id='1247'> +2.8742832e+02 </wgt>
<wgt id='1248'> +2.8761040e+02 </wgt>
<wgt id='1249'> +2.8737964e+02 </wgt>
<wgt id='1250'> +2.8754142e+02 </wgt>
<wgt id='1251'> +2.8750492e+02 </wgt>
<wgt id='1252'> +2.8742816e+02 </wgt>
<wgt id='1253'> +2.8735294e+02 </wgt>
<wgt id='1254'> +2.8749329e+02 </wgt>
<wgt id='1255'> +2.8748611e+02 </wgt>
<wgt id='1256'> +2.8733853e+02 </wgt>
<wgt id='1257'> +2.8749052e+02 </wgt>
<wgt id='1258'> +2.8750665e+02 </wgt>
<wgt id='1259'> +2.8743095e+02 </wgt>
<wgt id='1260'> +2.8750094e+02 </wgt>
<wgt id='1261'> +2.8751961e+02 </wgt>
<wgt id='1262'> +2.8743328e+02 </wgt>
<wgt id='1263'> +2.8743067e+02 </wgt>
<wgt id='1264'> +2.8750697e+02 </wgt>
<wgt id='1265'> +2.8747492e+02 </wgt>
<wgt id='1266'> +2.8738533e+02 </wgt>
<wgt id='1267'> +2.8741592e+02 </wgt>
<wgt id='1268'> +2.8743050e+02 </wgt>
<wgt id='1269'> +2.8744264e+02 </wgt>
<wgt id='1270'> +2.8742525e+02 </wgt>
<wgt id='1271'> +2.8742971e+02 </wgt>
<wgt id='1272'> +2.8745983e+02 </wgt>
<wgt id='1273'> +2.8740409e+02 </wgt>
<wgt id='1274'> +2.8743965e+02 </wgt>
<wgt id='1275'> +2.8738424e+02 </wgt>
<wgt id='1276'> +2.8744384e+02 </wgt>
<wgt id='1277'> +2.8742249e+02 </wgt>
<wgt id='1278'> +2.8738001e+02 </wgt>
<wgt id='1279'> +2.8746533e+02 </wgt>
<wgt id='1280'> +2.8740216e+02 </wgt>
<wgt id='1281'> +2.8743009e+02 </wgt>
<wgt id='1282'> +2.8746398e+02 </wgt>
<wgt id='1283'> +2.8738758e+02 </wgt>
<wgt id='1284'> +2.8740980e+02 </wgt>
<wgt id='1285'> +2.8735507e+02 </wgt>
<wgt id='1286'> +2.8743778e+02 </wgt>
<wgt id='1287'> +2.8742647e+02 </wgt>
<wgt id='1288'> +2.8738850e+02 </wgt>
<wgt id='1289'> +2.8742923e+02 </wgt>
<wgt id='1290'> +2.8739233e+02 </wgt>
<wgt id='1291'> +2.8741194e+02 </wgt>
<wgt id='1292'> +2.8747542e+02 </wgt>
<wgt id='1293'> +2.8742996e+02 </wgt>
<wgt id='1294'> +2.8739399e+02 </wgt>
<wgt id='1295'> +2.8743477e+02 </wgt>
<wgt id='1296'> +2.8741254e+02 </wgt>
<wgt id='1297'> +2.8740734e+02 </wgt>
<wgt id='1298'> +2.8746070e+02 </wgt>
<wgt id='1299'> +2.8747345e+02 </wgt>
<wgt id='1300'> +2.8737123e+02 </wgt>
<wgt id='1301'> +2.8740483e+02 </wgt>
<wgt id='1302'> +2.8746164e+02 </wgt>
<wgt id='1303'> +2.8740513e+02 </wgt>
<wgt id='1304'> +2.8740280e+02 </wgt>
<wgt id='1305'> +2.8740989e+02 </wgt>
<wgt id='1306'> +2.8739656e+02 </wgt>
<wgt id='1307'> +2.8741848e+02 </wgt>
<wgt id='1308'> +2.8742521e+02 </wgt>
<wgt id='1309'> +2.8745777e+02 </wgt>
<wgt id='1310'> +2.8744287e+02 </wgt>
<wgt id='1311'> +2.8742992e+02 </wgt>
<wgt id='1312'> +2.8741692e+02 </wgt>
<wgt id='1313'> +2.8743604e+02 </wgt>
<wgt id='1314'> +2.8743507e+02 </wgt>
<wgt id='1315'> +2.8080544e+02 </wgt>
<wgt id='1316'> +2.9306708e+02 </wgt>
<wgt id='1317'> +2.5693436e+02 </wgt>
<wgt id='1318'> +2.6195478e+02 </wgt>
<wgt id='1319'> +2.6796728e+02 </wgt>
<wgt id='1320'> +2.7483886e+02 </wgt>
<wgt id='1321'> +2.8485221e+02 </wgt>
<wgt id='1322'> +2.9096044e+02 </wgt>
<wgt id='1323'> +2.9900060e+02 </wgt>
<wgt id='1324'> +3.0517980e+02 </wgt>
<wgt id='1325'> +2.9060309e+02 </wgt>
<wgt id='1326'> +2.9173601e+02 </wgt>
<wgt id='1327'> +2.8925873e+02 </wgt>
<wgt id='1328'> +2.9181190e+02 </wgt>
<wgt id='1329'> +2.9123279e+02 </wgt>
<wgt id='1330'> +2.9202537e+02 </wgt>
<wgt id='1331'> +2.9110952e+02 </wgt>
<wgt id='1332'> +2.9112576e+02 </wgt>
<wgt id='1333'> +2.8964696e+02 </wgt>
<wgt id='1334'> +2.8998300e+02 </wgt>
<wgt id='1335'> +2.8945828e+02 </wgt>
<wgt id='1336'> +2.9148643e+02 </wgt>
<wgt id='1337'> +2.9288280e+02 </wgt>
<wgt id='1338'> +2.8795786e+02 </wgt>
<wgt id='1339'> +2.9175927e+02 </wgt>
<wgt id='1340'> +2.9196653e+02 </wgt>
<wgt id='1341'> +2.9068925e+02 </wgt>
<wgt id='1342'> +2.9185445e+02 </wgt>
<wgt id='1343'> +2.9078256e+02 </wgt>
<wgt id='1344'> +2.8983193e+02 </wgt>
<wgt id='1345'> +2.9071303e+02 </wgt>
<wgt id='1346'> +2.9017748e+02 </wgt>
<wgt id='1347'> +2.9057802e+02 </wgt>
<wgt id='1348'> +2.9048136e+02 </wgt>
<wgt id='1349'> +2.9082705e+02 </wgt>
<wgt id='1350'> +2.9068437e+02 </wgt>
<wgt id='1351'> +2.9054568e+02 </wgt>
<wgt id='1352'> +2.9071555e+02 </wgt>
<wgt id='1353'> +2.9057842e+02 </wgt>
<wgt id='1354'> +2.9063901e+02 </wgt>
<wgt id='1355'> +2.9081838e+02 </wgt>
<wgt id='1356'> +2.9068372e+02 </wgt>
<wgt id='1357'> +2.9062671e+02 </wgt>
<wgt id='1358'> +2.9072966e+02 </wgt>
<wgt id='1359'> +2.9062678e+02 </wgt>
<wgt id='1360'> +2.9080868e+02 </wgt>
<wgt id='1361'> +2.9067446e+02 </wgt>
<wgt id='1362'> +2.9062462e+02 </wgt>
<wgt id='1363'> +2.9063375e+02 </wgt>
<wgt id='1364'> +2.9046431e+02 </wgt>
<wgt id='1365'> +2.9060697e+02 </wgt>
<wgt id='1366'> +2.9068507e+02 </wgt>
<wgt id='1367'> +2.9052901e+02 </wgt>
<wgt id='1368'> +2.9054120e+02 </wgt>
<wgt id='1369'> +2.9059564e+02 </wgt>
<wgt id='1370'> +2.9069330e+02 </wgt>
<wgt id='1371'> +2.9068915e+02 </wgt>
<wgt id='1372'> +2.9056409e+02 </wgt>
<wgt id='1373'> +2.9065637e+02 </wgt>
<wgt id='1374'> +2.9058544e+02 </wgt>
<wgt id='1375'> +2.9059751e+02 </wgt>
<wgt id='1376'> +2.9072963e+02 </wgt>
<wgt id='1377'> +2.9057710e+02 </wgt>
<wgt id='1378'> +2.9056828e+02 </wgt>
<wgt id='1379'> +2.9056157e+02 </wgt>
<wgt id='1380'> +2.9056005e+02 </wgt>
<wgt id='1381'> +2.9062324e+02 </wgt>
<wgt id='1382'> +2.9054207e+02 </wgt>
<wgt id='1383'> +2.9055722e+02 </wgt>
<wgt id='1384'> +2.9059324e+02 </wgt>
<wgt id='1385'> +2.9061413e+02 </wgt>
<wgt id='1386'> +2.9064937e+02 </wgt>
<wgt id='1387'> +2.9062109e+02 </wgt>
<wgt id='1388'> +2.9066700e+02 </wgt>
<wgt id='1389'> +2.9059324e+02 </wgt>
<wgt id='1390'> +2.9062455e+02 </wgt>
<wgt id='1391'> +2.9062542e+02 </wgt>
<wgt id='1392'> +2.9054691e+02 </wgt>
<wgt id='1393'> +2.9061243e+02 </wgt>
<wgt id='1394'> +2.9055458e+02 </wgt>
<wgt id='1395'> +2.9055597e+02 </wgt>
<wgt id='1396'> +2.9059528e+02 </wgt>
<wgt id='1397'> +2.9065240e+02 </wgt>
<wgt id='1398'> +2.9058611e+02 </wgt>
<wgt id='1399'> +2.9060595e+02 </wgt>
<wgt id='1400'> +2.9059039e+02 </wgt>
<wgt id='1401'> +2.9064606e+02 </wgt>
<wgt id='1402'> +2.9062374e+02 </wgt>
<wgt id='1403'> +2.9061327e+02 </wgt>
<wgt id='1404'> +2.9065504e+02 </wgt>
<wgt id='1405'> +2.9053912e+02 </wgt>
<wgt id='1406'> +2.9061013e+02 </wgt>
<wgt id='1407'> +2.9058574e+02 </wgt>
<wgt id='1408'> +2.9061042e+02 </wgt>
<wgt id='1409'> +2.9059651e+02 </wgt>
<wgt id='1410'> +2.9062034e+02 </wgt>
<wgt id='1411'> +2.9061487e+02 </wgt>
<wgt id='1412'> +2.9057076e+02 </wgt>
<wgt id='1413'> +2.9059657e+02 </wgt>
<wgt id='1414'> +2.9061451e+02 </wgt>
<wgt id='1415'> +2.9062105e+02 </wgt>
<wgt id='1416'> +2.9062732e+02 </wgt>
<wgt id='1417'> +2.9061916e+02 </wgt>
<wgt id='1418'> +2.9058410e+02 </wgt>
<wgt id='1419'> +2.9062590e+02 </wgt>
<wgt id='1420'> +2.9060745e+02 </wgt>
<wgt id='1421'> +2.9060969e+02 </wgt>
<wgt id='1422'> +2.9058040e+02 </wgt>
<wgt id='1423'> +2.9061739e+02 </wgt>
<wgt id='1424'> +2.9060860e+02 </wgt>
<wgt id='1425'> +2.9060492e+02 </wgt>
<wgt id='1426'> +2.8433215e+02 </wgt>
<wgt id='1427'> +2.9798952e+02 </wgt>
<wgt id='1428'> +2.7915088e+02 </wgt>
<wgt id='1429'> +2.7784654e+02 </wgt>
<wgt id='1430'> +2.7850328e+02 </wgt>
<wgt id='1431'> +2.7715825e+02 </wgt>
<wgt id='1432'> +2.7992282e+02 </wgt>
<wgt id='1433'> +2.7308794e+02 </wgt>
<wgt id='1434'> +2.8448780e+02 </wgt>
<wgt id='1435'> +2.8109601e+02 </wgt>
<wgt id='1436'> +2.7529310e+02 </wgt>
<wgt id='1437'> +2.8290512e+02 </wgt>
<wgt id='1438'> +2.7724205e+02 </wgt>
<wgt id='1439'> +2.7854999e+02 </wgt>
<wgt id='1440'> +2.7885536e+02 </wgt>
<wgt id='1441'> +2.7277004e+02 </wgt>
<wgt id='1442'> +2.7850658e+02 </wgt>
<wgt id='1443'> +2.8140725e+02 </wgt>
<wgt id='1444'> +2.7215583e+02 </wgt>
<wgt id='1445'> +2.8046706e+02 </wgt>
<wgt id='1446'> +2.7775759e+02 </wgt>
<wgt id='1447'> +2.7721311e+02 </wgt>
<wgt id='1448'> +2.8076522e+02 </wgt>
<wgt id='1449'> +2.8023223e+02 </wgt>
<wgt id='1450'> +2.7845085e+02 </wgt>
<wgt id='1451'> +2.7851814e+02 </wgt>
<wgt id='1452'> +2.7975493e+02 </wgt>
<wgt id='1453'> +2.7852679e+02 </wgt>
<wgt id='1454'> +2.7965499e+02 </wgt>
<wgt id='1455'> +2.8227094e+02 </wgt>
<wgt id='1456'> +2.7390026e+02 </wgt>
<wgt id='1457'> +2.7363125e+02 </wgt>
<wgt id='1458'> +2.8244203e+02 </wgt>
<wgt id='1459'> +2.7588285e+02 </wgt>
<wgt id='1460'> +2.8384064e+02 </wgt>
<wgt id='1461'> +2.7670952e+02 </wgt>
<wgt id='1462'> +2.8124305e+02 </wgt>
<wgt id='1463'> +2.7394694e+02 </wgt>
<wgt id='1464'> +2.8341369e+02 </wgt>
<wgt id='1465'> +2.7979319e+02 </wgt>
<wgt id='1466'> +2.7830001e+02 </wgt>
<wgt id='1467'> +2.8350406e+02 </wgt>
<wgt id='1468'> +2.7696382e+02 </wgt>
<wgt id='1469'> +2.7557328e+02 </wgt>
<wgt id='1470'> +2.7983687e+02 </wgt>
<wgt id='1471'> +2.8226365e+02 </wgt>
<wgt id='1472'> +2.7095725e+02 </wgt>
<wgt id='1473'> +2.8710674e+02 </wgt>
<wgt id='1474'> +2.7771314e+02 </wgt>
<wgt id='1475'> +2.8052935e+02 </wgt>
<wgt id='1476'> +2.8130194e+02 </wgt>
<wgt id='1477'> +2.7932935e+02 </wgt>
<wgt id='1478'> +2.7984552e+02 </wgt>
<wgt id='1479'> +2.8011093e+02 </wgt>
<wgt id='1480'> +2.7885720e+02 </wgt>
<wgt id='1481'> +2.7628820e+02 </wgt>
<wgt id='1482'> +2.8621366e+02 </wgt>
<wgt id='1483'> +2.7740300e+02 </wgt>
<wgt id='1484'> +2.8033702e+02 </wgt>
<wgt id='1485'> +2.7355565e+02 </wgt>
<wgt id='1486'> +2.8372640e+02 </wgt>
<wgt id='1487'> +2.8706376e+02 </wgt>
<wgt id='1488'> +2.8742681e+02 </wgt>
<wgt id='1489'> +2.8809574e+02 </wgt>
<wgt id='1490'> +2.9460838e+02 </wgt>
<wgt id='1491'> +2.8428723e+02 </wgt>
<wgt id='1492'> +2.8848105e+02 </wgt>
<wgt id='1493'> +2.8592433e+02 </wgt>
<wgt id='1494'> +2.9020715e+02 </wgt>
<wgt id='1495'> +2.8618350e+02 </wgt>
<wgt id='1496'> +2.8023414e+02 </wgt>
<wgt id='1497'> +2.9264385e+02 </wgt>
<wgt id='1498'> +2.9104949e+02 </wgt>
<wgt id='1499'> +2.8491527e+02 </wgt>
<wgt id='1500'> +2.7520072e+02 </wgt>
<wgt id='1501'> +2.9388159e+02 </wgt>
<wgt id='1502'> +2.8903452e+02 </wgt>
<wgt id='1503'> +2.8580182e+02 </wgt>
<wgt id='1504'> +2.8472493e+02 </wgt>
<wgt id='1505'> +2.8986436e+02 </wgt>
<wgt id='1506'> +2.9067518e+02 </wgt>
<wgt id='1507'> +2.8294703e+02 </wgt>
<wgt id='1508'> +2.8767087e+02 </wgt>
<wgt id='1509'> +2.8567779e+02 </wgt>
<wgt id='1510'> +2.8561298e+02 </wgt>
<wgt id='1511'> +2.8831465e+02 </wgt>
<wgt id='1512'> +2.8178352e+02 </wgt>
<wgt id='1513'> +2.9195784e+02 </wgt>
<wgt id='1514'> +2.8592560e+02 </wgt>
<wgt id='1515'> +2.8858095e+02 </wgt>
<wgt id='1516'> +2.8479378e+02 </wgt>
<wgt id='1517'> +2.8784437e+02 </wgt>
<wgt id='1518'> +2.8738991e+02 </wgt>
<wgt id='1519'> +2.8663438e+02 </wgt>
<wgt id='1520'> +2.8722288e+02 </wgt>
<wgt id='1521'> +2.8664991e+02 </wgt>
<wgt id='1522'> +2.9216304e+02 </wgt>
<wgt id='1523'> +2.8215413e+02 </wgt>
<wgt id='1524'> +2.8966375e+02 </wgt>
<wgt id='1525'> +2.8264479e+02 </wgt>
<wgt id='1526'> +2.8677708e+02 </wgt>
<wgt id='1527'> +2.8659032e+02 </wgt>
<wgt id='1528'> +2.8977534e+02 </wgt>
<wgt id='1529'> +2.8450495e+02 </wgt>
<wgt id='1530'> +2.8958828e+02 </wgt>
<wgt id='1531'> +2.8373008e+02 </wgt>
<wgt id='1532'> +2.8372924e+02 </wgt>
<wgt id='1533'> +2.8529510e+02 </wgt>
<wgt id='1534'> +2.8299360e+02 </wgt>
<wgt id='1535'> +2.9111101e+02 </wgt>
<wgt id='1536'> +2.8921451e+02 </wgt>
<wgt id='1537'> +2.8100006e+02 </wgt>
<wgt id='1538'> +2.8628214e+02 </wgt>
<wgt id='1539'> +2.8614161e+02 </wgt>
<wgt id='1540'> +2.7909034e+02 </wgt>
<wgt id='1541'> +2.8879542e+02 </wgt>
<wgt id='1542'> +2.8483668e+02 </wgt>
<wgt id='1543'> +2.8883802e+02 </wgt>
<wgt id='1544'> +2.8021563e+02 </wgt>
<wgt id='1545'> +2.9315303e+02 </wgt>
<wgt id='1546'> +2.8685519e+02 </wgt>
<wgt id='1547'> +2.9128986e+02 </wgt>
<wgt id='1548'> +2.9136139e+02 </wgt>
<wgt id='1549'> +2.9121132e+02 </wgt>
<wgt id='1550'> +2.9137051e+02 </wgt>
<wgt id='1551'> +2.9123520e+02 </wgt>
<wgt id='1552'> +2.9199971e+02 </wgt>
<wgt id='1553'> +2.9063388e+02 </wgt>
<wgt id='1554'> +2.9001532e+02 </wgt>
<wgt id='1555'> +2.9271380e+02 </wgt>
<wgt id='1556'> +2.9221728e+02 </wgt>
<wgt id='1557'> +2.9037755e+02 </wgt>
<wgt id='1558'> +2.9193442e+02 </wgt>
<wgt id='1559'> +2.8988955e+02 </wgt>
<wgt id='1560'> +2.9096955e+02 </wgt>
<wgt id='1561'> +2.9186326e+02 </wgt>
<wgt id='1562'> +2.9031448e+02 </wgt>
<wgt id='1563'> +2.9184078e+02 </wgt>
<wgt id='1564'> +2.8964416e+02 </wgt>
<wgt id='1565'> +2.9323135e+02 </wgt>
<wgt id='1566'> +2.9180615e+02 </wgt>
<wgt id='1567'> +2.9085019e+02 </wgt>
<wgt id='1568'> +2.9064008e+02 </wgt>
<wgt id='1569'> +2.9216510e+02 </wgt>
<wgt id='1570'> +2.8922880e+02 </wgt>
<wgt id='1571'> +2.9273839e+02 </wgt>
<wgt id='1572'> +2.8753949e+02 </wgt>
<wgt id='1573'> +2.9458303e+02 </wgt>
<wgt id='1574'> +2.9210093e+02 </wgt>
<wgt id='1575'> +2.9131112e+02 </wgt>
<wgt id='1576'> +2.9334074e+02 </wgt>
<wgt id='1577'> +2.8890880e+02 </wgt>
<wgt id='1578'> +2.9197870e+02 </wgt>
<wgt id='1579'> +2.9041235e+02 </wgt>
<wgt id='1580'> +2.9176446e+02 </wgt>
<wgt id='1581'> +2.9076944e+02 </wgt>
<wgt id='1582'> +2.9103420e+02 </wgt>
<wgt id='1583'> +2.9248584e+02 </wgt>
<wgt id='1584'> +2.9186229e+02 </wgt>
<wgt id='1585'> +2.9122390e+02 </wgt>
<wgt id='1586'> +2.9107607e+02 </wgt>
<wgt id='1587'> +2.9151929e+02 </wgt>
<wgt id='1588'> +2.9089091e+02 </wgt>
<wgt id='1589'> +2.9179643e+02 </wgt>
<wgt id='1590'> +2.9507097e+02 </wgt>
<wgt id='1591'> +2.8939883e+02 </wgt>
<wgt id='1592'> +2.9105211e+02 </wgt>
<wgt id='1593'> +2.9189430e+02 </wgt>
<wgt id='1594'> +2.8993601e+02 </wgt>
<wgt id='1595'> +2.9034889e+02 </wgt>
<wgt id='1596'> +2.9067009e+02 </wgt>
<wgt id='1597'> +2.9142054e+02 </wgt>
<wgt id='1598'> +2.8106912e+02 </wgt>
<wgt id='1599'> +2.8092352e+02 </wgt>
<wgt id='1600'> +2.8125132e+02 </wgt>
<wgt id='1601'> +2.8195067e+02 </wgt>
<wgt id='1602'> +2.8019471e+02 </wgt>
<wgt id='1603'> +2.8153699e+02 </wgt>
<wgt id='1604'> +2.8088128e+02 </wgt>
<wgt id='1605'> +2.7984654e+02 </wgt>
<wgt id='1606'> +2.8229487e+02 </wgt>
<wgt id='1607'> +2.8155237e+02 </wgt>
<wgt id='1608'> +2.8060895e+02 </wgt>
<wgt id='1609'> +2.7827876e+02 </wgt>
<wgt id='1610'> +2.8228601e+02 </wgt>
<wgt id='1611'> +2.8110262e+02 </wgt>
<wgt id='1612'> +2.8104331e+02 </wgt>
<wgt id='1613'> +2.8021259e+02 </wgt>
<wgt id='1614'> +2.8199859e+02 </wgt>
<wgt id='1615'> +2.8035088e+02 </wgt>
<wgt id='1616'> +2.8144859e+02 </wgt>
<wgt id='1617'> +2.8065168e+02 </wgt>
<wgt id='1618'> +2.8164584e+02 </wgt>
<wgt id='1619'> +2.8103419e+02 </wgt>
<wgt id='1620'> +2.8108860e+02 </wgt>
<wgt id='1621'> +2.8423118e+02 </wgt>
<wgt id='1622'> +2.7799291e+02 </wgt>
<wgt id='1623'> +2.8233409e+02 </wgt>
<wgt id='1624'> +2.7798454e+02 </wgt>
<wgt id='1625'> +2.8237536e+02 </wgt>
<wgt id='1626'> +2.8049851e+02 </wgt>
<wgt id='1627'> +2.7961405e+02 </wgt>
<wgt id='1628'> +2.8490645e+02 </wgt>
<wgt id='1629'> +2.8117092e+02 </wgt>
<wgt id='1630'> +2.8094144e+02 </wgt>
<wgt id='1631'> +2.8060820e+02 </wgt>
<wgt id='1632'> +2.8212348e+02 </wgt>
<wgt id='1633'> +2.8202287e+02 </wgt>
<wgt id='1634'> +2.8079208e+02 </wgt>
<wgt id='1635'> +2.8121026e+02 </wgt>
<wgt id='1636'> +2.8109807e+02 </wgt>
<wgt id='1637'> +2.8088243e+02 </wgt>
<wgt id='1638'> +2.8119208e+02 </wgt>
<wgt id='1639'> +2.8046801e+02 </wgt>
<wgt id='1640'> +2.8145597e+02 </wgt>
<wgt id='1641'> +2.8131248e+02 </wgt>
<wgt id='1642'> +2.7967930e+02 </wgt>
<wgt id='1643'> +2.7907682e+02 </wgt>
<wgt id='1644'> +2.8127454e+02 </wgt>
<wgt id='1645'> +2.8098220e+02 </wgt>
<wgt id='1646'> +2.8098616e+02 </wgt>
<wgt id='1647'> +2.8105208e+02 </wgt>
<wgt id='1648'> +2.8012389e+02 </wgt>
<wgt id='1649'> +4.2229649e+02 </wgt>
<wgt id='1650'> +2.8537698e+02 </wgt>
<wgt id='1651'> +2.8529522e+02 </wgt>
<wgt id='1652'> +2.8545615e+02 </wgt>
<wgt id='1653'> +2.8540768e+02 </wgt>
<wgt id='1654'> +2.8536884e+02 </wgt>
<wgt id='1655'> +2.8469058e+02 </wgt>
<wgt id='1656'> +2.8513696e+02 </wgt>
<wgt id='1657'> +2.8489173e+02 </wgt>
<wgt id='1658'> +2.8585552e+02 </wgt>
<wgt id='1659'> +2.8638785e+02 </wgt>
<wgt id='1660'> +2.8541591e+02 </wgt>
<wgt id='1661'> +2.8519847e+02 </wgt>
<wgt id='1662'> +2.8515168e+02 </wgt>
<wgt id='1663'> +2.8538919e+02 </wgt>
<wgt id='1664'> +2.8510386e+02 </wgt>
<wgt id='1665'> +2.8515964e+02 </wgt>
<wgt id='1666'> +2.8542333e+02 </wgt>
<wgt id='1667'> +2.8537816e+02 </wgt>
<wgt id='1668'> +2.8525181e+02 </wgt>
<wgt id='1669'> +2.8589941e+02 </wgt>
<wgt id='1670'> +2.8434979e+02 </wgt>
<wgt id='1671'> +2.8543355e+02 </wgt>
<wgt id='1672'> +2.8350413e+02 </wgt>
<wgt id='1673'> +2.8577439e+02 </wgt>
<wgt id='1674'> +2.8617791e+02 </wgt>
<wgt id='1675'> +2.8649214e+02 </wgt>
<wgt id='1676'> +2.8598152e+02 </wgt>
<wgt id='1677'> +2.8479978e+02 </wgt>
<wgt id='1678'> +2.8565296e+02 </wgt>
<wgt id='1679'> +2.8338179e+02 </wgt>
<wgt id='1680'> +2.8724926e+02 </wgt>
<wgt id='1681'> +2.8665749e+02 </wgt>
<wgt id='1682'> +2.8997021e+02 </wgt>
<wgt id='1683'> +2.8926951e+02 </wgt>
<wgt id='1684'> +2.8659312e+02 </wgt>
<wgt id='1685'> +2.8592918e+02 </wgt>
<wgt id='1686'> +2.8610256e+02 </wgt>
<wgt id='1687'> +2.8965782e+02 </wgt>
<wgt id='1688'> +2.9237279e+02 </wgt>
<wgt id='1689'> +2.8505491e+02 </wgt>
<wgt id='1690'> +2.9129825e+02 </wgt>
<wgt id='1691'> +2.8749739e+02 </wgt>
<wgt id='1692'> +2.8395237e+02 </wgt>
<wgt id='1693'> +2.8761642e+02 </wgt>
<wgt id='1694'> +2.8646696e+02 </wgt>
<wgt id='1695'> +2.8723190e+02 </wgt>
<wgt id='1696'> +2.8816384e+02 </wgt>
<wgt id='1697'> +2.8680159e+02 </wgt>
<wgt id='1698'> +2.8651838e+02 </wgt>
<wgt id='1699'> +2.8646035e+02 </wgt>
<wgt id='1700'> +2.8754270e+02 </wgt>
<wgt id='1701'> +2.8614642e+02 </wgt>
<wgt id='1702'> +2.8725349e+02 </wgt>
<wgt id='1703'> +2.8673777e+02 </wgt>
<wgt id='1704'> +2.8716018e+02 </wgt>
<wgt id='1705'> +2.8694054e+02 </wgt>
<wgt id='1706'> +2.8675742e+02 </wgt>
<wgt id='1707'> +2.8722031e+02 </wgt>
<wgt id='1708'> +2.8644782e+02 </wgt>
<wgt id='1709'> +2.8702553e+02 </wgt>
<wgt id='1710'> +2.8720527e+02 </wgt>
<wgt id='1711'> +2.8714280e+02 </wgt>
<wgt id='1712'> +2.8729790e+02 </wgt>
<wgt id='1713'> +2.8669294e+02 </wgt>
<wgt id='1714'> +2.8740089e+02 </wgt>
<wgt id='1715'> +2.8788074e+02 </wgt>
<wgt id='1716'> +2.8703030e+02 </wgt>
<wgt id='1717'> +2.8737519e+02 </wgt>
<wgt id='1718'> +2.8692745e+02 </wgt>
<wgt id='1719'> +2.8729628e+02 </wgt>
<wgt id='1720'> +2.8729567e+02 </wgt>
<wgt id='1721'> +2.8737122e+02 </wgt>
<wgt id='1722'> +2.8745481e+02 </wgt>
<wgt id='1723'> +2.8701472e+02 </wgt>
<wgt id='1724'> +2.8753036e+02 </wgt>
<wgt id='1725'> +2.8750026e+02 </wgt>
<wgt id='1726'> +2.8751353e+02 </wgt>
<wgt id='1727'> +2.8702758e+02 </wgt>
<wgt id='1728'> +2.8695706e+02 </wgt>
<wgt id='1729'> +2.8725022e+02 </wgt>
<wgt id='1730'> +2.8733050e+02 </wgt>
<wgt id='1731'> +2.8697329e+02 </wgt>
<wgt id='1732'> +2.8733658e+02 </wgt>
<wgt id='1733'> +2.8716477e+02 </wgt>
<wgt id='1734'> +2.8713291e+02 </wgt>
<wgt id='1735'> +2.8728127e+02 </wgt>
<wgt id='1736'> +2.8724120e+02 </wgt>
<wgt id='1737'> +2.8717004e+02 </wgt>
<wgt id='1738'> +2.8753652e+02 </wgt>
<wgt id='1739'> +2.8711064e+02 </wgt>
<wgt id='1740'> +2.8696247e+02 </wgt>
<wgt id='1741'> +2.8719599e+02 </wgt>
<wgt id='1742'> +2.8703322e+02 </wgt>
<wgt id='1743'> +2.8726346e+02 </wgt>
<wgt id='1744'> +2.8720186e+02 </wgt>
<wgt id='1745'> +2.8722047e+02 </wgt>
<wgt id='1746'> +2.8718391e+02 </wgt>
<wgt id='1747'> +2.8723339e+02 </wgt>
<wgt id='1748'> +2.8734228e+02 </wgt>
<wgt id='1749'> +2.8731544e+02 </wgt>
<wgt id='1750'> +2.8723419e+02 </wgt>
<wgt id='1751'> +2.8715206e+02 </wgt>
<wgt id='1752'> +2.8717359e+02 </wgt>
<wgt id='1753'> +2.8712887e+02 </wgt>
<wgt id='1754'> +2.8732991e+02 </wgt>
<wgt id='1755'> +2.8722299e+02 </wgt>
<wgt id='1756'> +2.8722077e+02 </wgt>
<wgt id='1757'> +2.8724442e+02 </wgt>
<wgt id='1758'> +2.8728869e+02 </wgt>
<wgt id='1759'> +2.8740245e+02 </wgt>
<wgt id='1760'> +2.8724502e+02 </wgt>
<wgt id='1761'> +2.8728088e+02 </wgt>
<wgt id='1762'> +2.8708087e+02 </wgt>
<wgt id='1763'> +2.8736683e+02 </wgt>
<wgt id='1764'> +2.8729889e+02 </wgt>
<wgt id='1765'> +2.8729350e+02 </wgt>
<wgt id='1766'> +2.8736350e+02 </wgt>
<wgt id='1767'> +2.8720316e+02 </wgt>
<wgt id='1768'> +2.8717861e+02 </wgt>
<wgt id='1769'> +2.8726771e+02 </wgt>
<wgt id='1770'> +2.8721707e+02 </wgt>
<wgt id='1771'> +2.8721849e+02 </wgt>
<wgt id='1772'> +2.8724377e+02 </wgt>
<wgt id='1773'> +2.8714448e+02 </wgt>
<wgt id='1774'> +2.8729199e+02 </wgt>
<wgt id='1775'> +2.8728054e+02 </wgt>
<wgt id='1776'> +2.8717600e+02 </wgt>
<wgt id='1777'> +2.8728462e+02 </wgt>
<wgt id='1778'> +2.8730692e+02 </wgt>
<wgt id='1779'> +2.8728939e+02 </wgt>
<wgt id='1780'> +2.8724725e+02 </wgt>
<wgt id='1781'> +2.8219848e+02 </wgt>
<wgt id='1782'> +2.9152295e+02 </wgt>
<wgt id='1783'> +2.8068359e+02 </wgt>
<wgt id='1784'> +2.8125953e+02 </wgt>
<wgt id='1785'> +2.8209364e+02 </wgt>
<wgt id='1786'> +2.7819012e+02 </wgt>
<wgt id='1787'> +2.8013630e+02 </wgt>
<wgt id='1788'> +2.8201306e+02 </wgt>
<wgt id='1789'> +2.8003406e+02 </wgt>
<wgt id='1790'> +2.8121844e+02 </wgt>
<wgt id='1791'> +2.8150787e+02 </wgt>
<wgt id='1792'> +2.8049758e+02 </wgt>
<wgt id='1793'> +2.8046041e+02 </wgt>
<wgt id='1794'> +2.8357859e+02 </wgt>
<wgt id='1795'> +2.7651553e+02 </wgt>
<wgt id='1796'> +2.7705588e+02 </wgt>
<wgt id='1797'> +2.7728503e+02 </wgt>
<wgt id='1798'> +2.8031793e+02 </wgt>
<wgt id='1799'> +2.8141443e+02 </wgt>
<wgt id='1800'> +2.8089744e+02 </wgt>
<wgt id='1801'> +2.8062621e+02 </wgt>
<wgt id='1802'> +2.8041420e+02 </wgt>
<wgt id='1803'> +2.8185174e+02 </wgt>
<wgt id='1804'> +2.8071676e+02 </wgt>
<wgt id='1805'> +2.8099132e+02 </wgt>
<wgt id='1806'> +2.8037458e+02 </wgt>
<wgt id='1807'> +2.8028250e+02 </wgt>
<wgt id='1808'> +2.8094104e+02 </wgt>
<wgt id='1809'> +2.8077523e+02 </wgt>
<wgt id='1810'> +2.8041934e+02 </wgt>
<wgt id='1811'> +2.8092228e+02 </wgt>
<wgt id='1812'> +2.8099894e+02 </wgt>
<wgt id='1813'> +2.8077428e+02 </wgt>
<wgt id='1814'> +2.8067928e+02 </wgt>
<wgt id='1815'> +2.8089258e+02 </wgt>
<wgt id='1816'> +2.8105067e+02 </wgt>
<wgt id='1817'> +2.8047989e+02 </wgt>
<wgt id='1818'> +2.8118981e+02 </wgt>
<wgt id='1819'> +2.8064089e+02 </wgt>
<wgt id='1820'> +2.8096023e+02 </wgt>
<wgt id='1821'> +2.8065917e+02 </wgt>
<wgt id='1822'> +2.8069499e+02 </wgt>
<wgt id='1823'> +2.8031524e+02 </wgt>
<wgt id='1824'> +2.8052268e+02 </wgt>
<wgt id='1825'> +2.8059963e+02 </wgt>
<wgt id='1826'> +2.8048879e+02 </wgt>
<wgt id='1827'> +2.8076693e+02 </wgt>
<wgt id='1828'> +2.8060087e+02 </wgt>
<wgt id='1829'> +2.8029170e+02 </wgt>
<wgt id='1830'> +2.8050112e+02 </wgt>
<wgt id='1831'> +2.8078084e+02 </wgt>
<wgt id='1832'> +2.8053884e+02 </wgt>
<wgt id='1833'> +2.8075505e+02 </wgt>
<wgt id='1834'> +2.8077326e+02 </wgt>
<wgt id='1835'> +2.8072845e+02 </wgt>
<wgt id='1836'> +2.8073852e+02 </wgt>
<wgt id='1837'> +2.8054169e+02 </wgt>
<wgt id='1838'> +2.8064551e+02 </wgt>
<wgt id='1839'> +2.8094284e+02 </wgt>
<wgt id='1840'> +2.8065214e+02 </wgt>
<wgt id='1841'> +2.8051669e+02 </wgt>
<wgt id='1842'> +2.8057414e+02 </wgt>
<wgt id='1843'> +2.8060973e+02 </wgt>
<wgt id='1844'> +2.8072967e+02 </wgt>
<wgt id='1845'> +2.8072550e+02 </wgt>
<wgt id='1846'> +2.8080224e+02 </wgt>
<wgt id='1847'> +2.8062278e+02 </wgt>
<wgt id='1848'> +2.8067950e+02 </wgt>
<wgt id='1849'> +2.8070597e+02 </wgt>
<wgt id='1850'> +2.8076769e+02 </wgt>
<wgt id='1851'> +2.8076904e+02 </wgt>
<wgt id='1852'> +2.8082348e+02 </wgt>
<wgt id='1853'> +2.8065323e+02 </wgt>
<wgt id='1854'> +2.8083948e+02 </wgt>
<wgt id='1855'> +2.8084116e+02 </wgt>
<wgt id='1856'> +2.8060604e+02 </wgt>
<wgt id='1857'> +2.8072070e+02 </wgt>
<wgt id='1858'> +2.8066744e+02 </wgt>
<wgt id='1859'> +2.8066726e+02 </wgt>
<wgt id='1860'> +2.8072287e+02 </wgt>
<wgt id='1861'> +2.8071264e+02 </wgt>
<wgt id='1862'> +2.8064048e+02 </wgt>
<wgt id='1863'> +2.8084729e+02 </wgt>
<wgt id='1864'> +2.8065905e+02 </wgt>
<wgt id='1865'> +2.8074422e+02 </wgt>
<wgt id='1866'> +2.8059807e+02 </wgt>
<wgt id='1867'> +2.8061103e+02 </wgt>
<wgt id='1868'> +2.8062448e+02 </wgt>
<wgt id='1869'> +2.8071864e+02 </wgt>
<wgt id='1870'> +2.8052961e+02 </wgt>
<wgt id='1871'> +2.8062874e+02 </wgt>
<wgt id='1872'> +2.8062378e+02 </wgt>
<wgt id='1873'> +2.8072506e+02 </wgt>
<wgt id='1874'> +2.8065894e+02 </wgt>
<wgt id='1875'> +2.8067609e+02 </wgt>
<wgt id='1876'> +2.8064295e+02 </wgt>
<wgt id='1877'> +2.8066533e+02 </wgt>
<wgt id='1878'> +2.8071359e+02 </wgt>
<wgt id='1879'> +2.8063120e+02 </wgt>
<wgt id='1880'> +2.8070033e+02 </wgt>
<wgt id='1881'> +2.8068393e+02 </wgt>
<wgt id='1882'> +2.8062491e+02 </wgt>
<wgt id='1883'> +2.8067780e+02 </wgt>
<wgt id='1884'> +2.7682277e+02 </wgt>
<wgt id='1885'> +2.8364596e+02 </wgt>
<wgt id='1886'> +2.8724526e+02 </wgt>
<wgt id='1887'> +2.8837869e+02 </wgt>
<wgt id='1888'> +2.8765686e+02 </wgt>
<wgt id='1889'> +2.8731633e+02 </wgt>
<wgt id='1890'> +2.8907566e+02 </wgt>
<wgt id='1891'> +2.9558006e+02 </wgt>
<wgt id='1892'> +2.8742380e+02 </wgt>
<wgt id='1893'> +2.8720559e+02 </wgt>
<wgt id='1894'> +2.8738648e+02 </wgt>
<wgt id='1895'> +2.8681747e+02 </wgt>
<wgt id='1896'> +2.8718342e+02 </wgt>
<wgt id='1897'> +2.8708413e+02 </wgt>
<wgt id='1898'> +2.8667524e+02 </wgt>
<wgt id='1899'> +2.8707467e+02 </wgt>
<wgt id='1900'> +2.8749254e+02 </wgt>
<wgt id='1901'> +2.8768708e+02 </wgt>
<wgt id='1902'> +2.8755301e+02 </wgt>
<wgt id='1903'> +2.8484988e+02 </wgt>
<wgt id='1904'> +2.8750489e+02 </wgt>
<wgt id='1905'> +2.8675057e+02 </wgt>
<wgt id='1906'> +2.8750291e+02 </wgt>
<wgt id='1907'> +2.8731606e+02 </wgt>
<wgt id='1908'> +2.8712538e+02 </wgt>
<wgt id='1909'> +2.8735856e+02 </wgt>
<wgt id='1910'> +2.8734488e+02 </wgt>
<wgt id='1911'> +2.8709638e+02 </wgt>
<wgt id='1912'> +2.8707371e+02 </wgt>
<wgt id='1913'> +2.8709570e+02 </wgt>
<wgt id='1914'> +2.8743829e+02 </wgt>
<wgt id='1915'> +2.8758766e+02 </wgt>
<wgt id='1916'> +2.8713668e+02 </wgt>
<wgt id='1917'> +2.8219848e+02 </wgt>
<wgt id='1918'> +2.9152295e+02 </wgt>
<wgt id='1919'> +2.8067685e+02 </wgt>
<wgt id='1920'> +2.8136146e+02 </wgt>
<wgt id='1921'> +2.8149170e+02 </wgt>
<wgt id='1922'> +2.8035811e+02 </wgt>
<wgt id='1923'> +2.8142033e+02 </wgt>
<wgt id='1924'> +2.7674452e+02 </wgt>
<wgt id='1925'> +2.8055397e+02 </wgt>
<wgt id='1926'> +2.8012448e+02 </wgt>
<wgt id='1927'> +2.8006396e+02 </wgt>
<wgt id='1928'> +2.7934674e+02 </wgt>
<wgt id='1929'> +2.8199627e+02 </wgt>
<wgt id='1930'> +2.7906772e+02 </wgt>
<wgt id='1931'> +2.8090758e+02 </wgt>
<wgt id='1932'> +2.8182902e+02 </wgt>
<wgt id='1933'> +2.7981072e+02 </wgt>
<wgt id='1934'> +2.8033598e+02 </wgt>
<wgt id='1935'> +2.8040520e+02 </wgt>
<wgt id='1936'> +2.8295916e+02 </wgt>
<wgt id='1937'> +2.8076138e+02 </wgt>
<wgt id='1938'> +2.8066710e+02 </wgt>
<wgt id='1939'> +2.8079623e+02 </wgt>
<wgt id='1940'> +2.8162970e+02 </wgt>
<wgt id='1941'> +2.8603828e+02 </wgt>
<wgt id='1942'> +2.8048305e+02 </wgt>
<wgt id='1943'> +2.8034955e+02 </wgt>
<wgt id='1944'> +2.7975698e+02 </wgt>
<wgt id='1945'> +2.8064866e+02 </wgt>
<wgt id='1946'> +2.8061148e+02 </wgt>
<wgt id='1947'> +2.8047361e+02 </wgt>
<wgt id='1948'> +2.8049801e+02 </wgt>
<wgt id='1949'> +2.8073148e+02 </wgt>
<wgt id='1950'> +2.7682277e+02 </wgt>
<wgt id='1951'> +2.8364596e+02 </wgt>
<wgt id='1952'> +3.0793021e+02 </wgt>
<wgt id='1953'> +3.0752698e+02 </wgt>
<wgt id='1954'> +3.0833202e+02 </wgt>
<wgt id='1955'> +3.0875082e+02 </wgt>
<wgt id='1956'> +3.0711139e+02 </wgt>
<wgt id='1957'> +3.0843905e+02 </wgt>
<wgt id='1958'> +3.0742224e+02 </wgt>
<wgt id='1959'> +3.0863624e+02 </wgt>
<wgt id='1960'> +3.0724657e+02 </wgt>
<wgt id='1961'> +3.0852472e+02 </wgt>
<wgt id='1962'> +3.0734488e+02 </wgt>
<wgt id='1963'> +3.0760433e+02 </wgt>
<wgt id='1964'> +3.0828111e+02 </wgt>
<wgt id='1965'> +3.0671188e+02 </wgt>
<wgt id='1966'> +3.0916128e+02 </wgt>
<wgt id='1967'> +3.0799430e+02 </wgt>
<wgt id='1968'> +3.0748891e+02 </wgt>
<wgt id='1969'> +3.0874392e+02 </wgt>
<wgt id='1970'> +3.0689912e+02 </wgt>
<wgt id='1971'> +3.0679316e+02 </wgt>
<wgt id='1972'> +3.0906317e+02 </wgt>
<wgt id='1973'> +3.0920538e+02 </wgt>
<wgt id='1974'> +3.0626086e+02 </wgt>
<wgt id='1975'> +3.0689440e+02 </wgt>
<wgt id='1976'> +3.0732980e+02 </wgt>
<wgt id='1977'> +3.0895755e+02 </wgt>
<wgt id='1978'> +3.0737231e+02 </wgt>
<wgt id='1979'> +3.0713012e+02 </wgt>
<wgt id='1980'> +3.0899580e+02 </wgt>
<wgt id='1981'> +3.0793021e+02 </wgt>
<wgt id='1982'> +3.0746735e+02 </wgt>
<wgt id='1983'> +3.0836196e+02 </wgt>
<wgt id='1984'> +3.0737497e+02 </wgt>
<wgt id='1985'> +3.0822841e+02 </wgt>
<wgt id='1986'> +3.0878553e+02 </wgt>
<wgt id='1987'> +3.0529894e+02 </wgt>
<wgt id='1988'> +3.0664445e+02 </wgt>
<wgt id='1989'> +3.0909894e+02 </wgt>
<wgt id='1990'> +3.0692337e+02 </wgt>
<wgt id='1991'> +3.0899961e+02 </wgt>
<wgt id='1992'> +3.0801360e+02 </wgt>
<wgt id='1993'> +3.0871544e+02 </wgt>
<wgt id='1994'> +3.0501762e+02 </wgt>
<wgt id='1995'> +2.8518157e+02 </wgt>
<wgt id='1996'> +2.8498612e+02 </wgt>
<wgt id='1997'> +2.8534208e+02 </wgt>
<wgt id='1998'> +2.8559817e+02 </wgt>
<wgt id='1999'> +2.8473154e+02 </wgt>
<wgt id='2000'> +2.8589267e+02 </wgt>
<wgt id='2001'> +2.8443783e+02 </wgt>
<wgt id='2002'> +2.8628487e+02 </wgt>
<wgt id='2003'> +2.8407120e+02 </wgt>
<wgt id='2004'> +2.8539022e+02 </wgt>
<wgt id='2005'> +2.8495250e+02 </wgt>
<wgt id='2006'> +2.8582354e+02 </wgt>
<wgt id='2007'> +2.8450621e+02 </wgt>
<wgt id='2008'> +2.8426429e+02 </wgt>
<wgt id='2009'> +2.8606605e+02 </wgt>
<wgt id='2010'> +2.8474012e+02 </wgt>
<wgt id='2011'> +2.8544407e+02 </wgt>
<wgt id='2012'> +2.8493442e+02 </wgt>
<wgt id='2013'> +2.8532475e+02 </wgt>
<wgt id='2014'> +2.8471884e+02 </wgt>
<wgt id='2015'> +2.8557881e+02 </wgt>
<wgt id='2016'> +2.8258582e+02 </wgt>
<wgt id='2017'> +2.8730675e+02 </wgt>
<wgt id='2018'> +2.8540524e+02 </wgt>
<wgt id='2019'> +2.8487924e+02 </wgt>
<wgt id='2020'> +2.8481317e+02 </wgt>
<wgt id='2021'> +2.8477258e+02 </wgt>
<wgt id='2022'> +2.8546663e+02 </wgt>
<wgt id='2023'> +2.8518880e+02 </wgt>
<wgt id='2024'> +2.8519914e+02 </wgt>
<wgt id='2025'> +2.8508573e+02 </wgt>
<wgt id='2026'> +2.8479375e+02 </wgt>
<wgt id='2027'> +2.8495919e+02 </wgt>
<wgt id='2028'> +2.8520775e+02 </wgt>
<wgt id='2029'> +2.8501898e+02 </wgt>
<wgt id='2030'> +2.8559115e+02 </wgt>
<wgt id='2031'> +2.8413944e+02 </wgt>
<wgt id='2032'> +2.8668256e+02 </wgt>
<wgt id='2033'> +2.8429097e+02 </wgt>
<wgt id='2034'> +2.8657791e+02 </wgt>
<wgt id='2035'> +2.8455575e+02 </wgt>
<wgt id='2036'> +2.8728286e+02 </wgt>
<wgt id='2037'> +2.8317104e+02 </wgt>
<wgt id='2038'> +2.8582893e+02 </wgt>
<wgt id='2039'> +2.8578145e+02 </wgt>
<wgt id='2040'> +2.8573248e+02 </wgt>
<wgt id='2041'> +2.8568788e+02 </wgt>
<wgt id='2042'> +2.8563864e+02 </wgt>
<wgt id='2043'> +2.8559118e+02 </wgt>
<wgt id='2044'> +2.8554192e+02 </wgt>
<wgt id='2045'> +2.8549475e+02 </wgt>
<wgt id='2046'> +2.8544578e+02 </wgt>
<wgt id='2047'> +2.8540121e+02 </wgt>
<wgt id='2048'> +2.8535377e+02 </wgt>
<wgt id='2049'> +2.8530454e+02 </wgt>
<wgt id='2050'> +2.8525716e+02 </wgt>
<wgt id='2051'> +2.8520821e+02 </wgt>
<wgt id='2052'> +2.8516082e+02 </wgt>
<wgt id='2053'> +2.8511160e+02 </wgt>
<wgt id='2054'> +2.8506703e+02 </wgt>
<wgt id='2055'> +2.8501785e+02 </wgt>
<wgt id='2056'> +2.8497074e+02 </wgt>
<wgt id='2057'> +2.8492155e+02 </wgt>
<wgt id='2058'> +2.8487417e+02 </wgt>
<wgt id='2059'> +2.8482497e+02 </wgt>
<wgt id='2060'> +2.8477764e+02 </wgt>
<wgt id='2061'> +2.8473307e+02 </wgt>
<wgt id='2062'> +2.8468420e+02 </wgt>
<wgt id='2063'> +2.8463684e+02 </wgt>
<wgt id='2064'> +2.8458767e+02 </wgt>
<wgt id='2065'> +2.8454033e+02 </wgt>
<wgt id='2066'> +2.8449116e+02 </wgt>
<wgt id='2067'> +2.8444695e+02 </wgt>
<wgt id='2068'> +2.8439779e+02 </wgt>
<wgt id='2069'> +2.7733467e+02 </wgt>
<wgt id='2070'> +2.7791090e+02 </wgt>
<wgt id='2071'> +2.7873938e+02 </wgt>
<wgt id='2072'> +2.7486154e+02 </wgt>
<wgt id='2073'> +2.7679577e+02 </wgt>
<wgt id='2074'> +2.7865242e+02 </wgt>
<wgt id='2075'> +2.7668377e+02 </wgt>
<wgt id='2076'> +2.7785856e+02 </wgt>
<wgt id='2077'> +2.7814591e+02 </wgt>
<wgt id='2078'> +2.7714760e+02 </wgt>
<wgt id='2079'> +2.7710641e+02 </wgt>
<wgt id='2080'> +2.8019472e+02 </wgt>
<wgt id='2081'> +2.7321383e+02 </wgt>
<wgt id='2082'> +2.7373802e+02 </wgt>
<wgt id='2083'> +2.7398489e+02 </wgt>
<wgt id='2084'> +2.7699139e+02 </wgt>
<wgt id='2085'> +2.7805321e+02 </wgt>
<wgt id='2086'> +2.7754317e+02 </wgt>
<wgt id='2087'> +2.7728613e+02 </wgt>
<wgt id='2088'> +2.7707082e+02 </wgt>
<wgt id='2089'> +2.7847933e+02 </wgt>
<wgt id='2090'> +2.7736077e+02 </wgt>
<wgt id='2091'> +2.7764594e+02 </wgt>
<wgt id='2092'> +2.7700351e+02 </wgt>
<wgt id='2093'> +2.7693293e+02 </wgt>
<wgt id='2094'> +2.7760771e+02 </wgt>
<wgt id='2095'> +2.7743195e+02 </wgt>
<wgt id='2096'> +2.7705957e+02 </wgt>
<wgt id='2097'> +2.7756922e+02 </wgt>
<wgt id='2098'> +2.7765509e+02 </wgt>
<wgt id='2099'> +2.7742165e+02 </wgt>
<wgt id='2100'> +2.7731379e+02 </wgt>
<wgt id='2101'> +2.7754521e+02 </wgt>
<wgt id='2102'> +2.7769968e+02 </wgt>
<wgt id='2103'> +2.7713700e+02 </wgt>
<wgt id='2104'> +2.7784274e+02 </wgt>
<wgt id='2105'> +2.7729134e+02 </wgt>
<wgt id='2106'> +2.7760807e+02 </wgt>
<wgt id='2107'> +2.7731257e+02 </wgt>
<wgt id='2108'> +2.7735015e+02 </wgt>
<wgt id='2109'> +2.7696780e+02 </wgt>
<wgt id='2110'> +2.7718117e+02 </wgt>
<wgt id='2111'> +2.7725838e+02 </wgt>
<wgt id='2112'> +2.7713185e+02 </wgt>
<wgt id='2113'> +2.7741951e+02 </wgt>
<wgt id='2114'> +2.7725712e+02 </wgt>
<wgt id='2115'> +2.7694262e+02 </wgt>
<wgt id='2116'> +2.7716035e+02 </wgt>
<wgt id='2117'> +2.7742976e+02 </wgt>
<wgt id='2118'> +2.7719447e+02 </wgt>
<wgt id='2119'> +2.7740313e+02 </wgt>
<wgt id='2120'> +2.7742387e+02 </wgt>
<wgt id='2121'> +2.7738021e+02 </wgt>
<wgt id='2122'> +2.7738530e+02 </wgt>
<wgt id='2123'> +2.7719133e+02 </wgt>
<wgt id='2124'> +2.7729478e+02 </wgt>
<wgt id='2125'> +2.7759440e+02 </wgt>
<wgt id='2126'> +2.7730481e+02 </wgt>
<wgt id='2127'> +2.7716346e+02 </wgt>
<wgt id='2128'> +2.7722235e+02 </wgt>
<wgt id='2129'> +2.7725938e+02 </wgt>
<wgt id='2130'> +2.7737929e+02 </wgt>
<wgt id='2131'> +2.7737736e+02 </wgt>
<wgt id='2132'> +2.7745278e+02 </wgt>
<wgt id='2133'> +2.7727437e+02 </wgt>
<wgt id='2134'> +2.7732932e+02 </wgt>
<wgt id='2135'> +2.7735537e+02 </wgt>
<wgt id='2136'> +2.7741977e+02 </wgt>
<wgt id='2137'> +2.7741878e+02 </wgt>
<wgt id='2138'> +2.7747576e+02 </wgt>
<wgt id='2139'> +2.7730546e+02 </wgt>
<wgt id='2140'> +2.7748960e+02 </wgt>
<wgt id='2141'> +2.7749200e+02 </wgt>
<wgt id='2142'> +2.7725881e+02 </wgt>
<wgt id='2143'> +2.7737219e+02 </wgt>
<wgt id='2144'> +2.7731839e+02 </wgt>
<wgt id='2145'> +2.7731602e+02 </wgt>
<wgt id='2146'> +2.7737321e+02 </wgt>
<wgt id='2147'> +2.7736142e+02 </wgt>
<wgt id='2148'> +2.7729209e+02 </wgt>
<wgt id='2149'> +2.7750021e+02 </wgt>
<wgt id='2150'> +2.7730861e+02 </wgt>
<wgt id='2151'> +2.7739466e+02 </wgt>
<wgt id='2152'> +2.7725050e+02 </wgt>
<wgt id='2153'> +2.7726355e+02 </wgt>
<wgt id='2154'> +2.7727382e+02 </wgt>
<wgt id='2155'> +2.7736637e+02 </wgt>
<wgt id='2156'> +2.7718126e+02 </wgt>
<wgt id='2157'> +2.7728122e+02 </wgt>
<wgt id='2158'> +2.7727656e+02 </wgt>
<wgt id='2159'> +2.7737695e+02 </wgt>
<wgt id='2160'> +2.7731078e+02 </wgt>
<wgt id='2161'> +2.7732837e+02 </wgt>
<wgt id='2162'> +2.7729381e+02 </wgt>
<wgt id='2163'> +2.7731791e+02 </wgt>
<wgt id='2164'> +2.7736532e+02 </wgt>
<wgt id='2165'> +2.7728182e+02 </wgt>
<wgt id='2166'> +2.7735149e+02 </wgt>
<wgt id='2167'> +2.7733545e+02 </wgt>
<wgt id='2168'> +2.7727674e+02 </wgt>
<wgt id='2169'> +2.7732787e+02 </wgt>
<wgt id='2170'> +2.7733126e+02 </wgt>
<wgt id='2171'> +2.7731230e+02 </wgt>
<wgt id='2172'> +2.7733823e+02 </wgt>
<wgt id='2173'> +2.7733880e+02 </wgt>
<wgt id='2174'> +2.7734503e+02 </wgt>
<wgt id='2175'> +2.7733617e+02 </wgt>
<wgt id='2176'> +2.7731974e+02 </wgt>
<wgt id='2177'> +2.8335312e+02 </wgt>
<wgt id='2178'> +2.5756308e+02 </wgt>
<wgt id='2179'> +2.8640814e+02 </wgt>
<wgt id='2180'> +2.8150152e+02 </wgt>
<wgt id='2181'> +2.7954951e+02 </wgt>
<wgt id='2182'> +2.4896248e+02 </wgt>
<wgt id='2183'> +2.8307415e+02 </wgt>
<wgt id='2184'> +2.8856169e+02 </wgt>
<wgt id='2185'> +2.8123718e+02 </wgt>
<wgt id='2186'> +2.8281966e+02 </wgt>
<wgt id='2187'> +2.7696514e+02 </wgt>
<wgt id='2188'> +2.8232875e+02 </wgt>
<wgt id='2189'> +2.8811044e+02 </wgt>
<wgt id='2190'> +2.8806412e+02 </wgt>
<wgt id='2191'> +2.7637307e+02 </wgt>
<wgt id='2192'> +2.8349644e+02 </wgt>
<wgt id='2193'> +2.8859250e+02 </wgt>
<wgt id='2194'> +2.7820682e+02 </wgt>
<wgt id='2195'> +2.7963956e+02 </wgt>
<wgt id='2196'> +2.8523742e+02 </wgt>
<wgt id='2197'> +2.8588089e+02 </wgt>
<wgt id='2198'> +2.8511755e+02 </wgt>
<wgt id='2199'> +2.8265430e+02 </wgt>
<wgt id='2200'> +3.0600622e+02 </wgt>
<wgt id='2201'> +2.8052562e+02 </wgt>
<wgt id='2202'> +2.8789484e+02 </wgt>
<wgt id='2203'> +2.7693764e+02 </wgt>
<wgt id='2204'> +2.8030876e+02 </wgt>
<wgt id='2205'> +2.8134632e+02 </wgt>
<wgt id='2206'> +2.7926479e+02 </wgt>
<wgt id='2207'> +2.8867215e+02 </wgt>
<wgt id='2208'> +2.8242155e+02 </wgt>
<wgt id='2209'> +2.7616040e+02 </wgt>
<wgt id='2210'> +2.9128443e+02 </wgt>
<wgt id='2211'> +2.8599382e+02 </wgt>
<wgt id='2212'> +2.9321822e+02 </wgt>
<wgt id='2213'> +2.9118030e+02 </wgt>
<wgt id='2214'> +2.8593397e+02 </wgt>
<wgt id='2215'> +2.7962742e+02 </wgt>
<wgt id='2216'> +2.7195431e+02 </wgt>
<wgt id='2217'> +2.8792104e+02 </wgt>
<wgt id='2218'> +2.8103736e+02 </wgt>
<wgt id='2219'> +2.8929948e+02 </wgt>
<wgt id='2220'> +2.8719590e+02 </wgt>
<wgt id='2221'> +2.8136391e+02 </wgt>
<wgt id='2222'> +2.9000775e+02 </wgt>
<wgt id='2223'> +2.8461863e+02 </wgt>
<wgt id='2224'> +2.7803887e+02 </wgt>
<wgt id='2225'> +2.7698275e+02 </wgt>
<wgt id='2226'> +2.8681701e+02 </wgt>
<wgt id='2227'> +2.8465002e+02 </wgt>
<wgt id='2228'> +2.8357202e+02 </wgt>
<wgt id='2229'> +2.8343242e+02 </wgt>
<wgt id='2230'> +2.8893179e+02 </wgt>
<wgt id='2231'> +2.8318489e+02 </wgt>
<wgt id='2232'> +2.8400177e+02 </wgt>
<wgt id='2233'> +2.7499690e+02 </wgt>
<wgt id='2234'> +2.9476248e+02 </wgt>
<wgt id='2235'> +2.8137891e+02 </wgt>
<wgt id='2236'> +2.8731658e+02 </wgt>
<wgt id='2237'> +2.8204505e+02 </wgt>
<wgt id='2238'> +2.8622593e+02 </wgt>
<wgt id='2239'> +2.8407122e+02 </wgt>
<wgt id='2240'> +2.8853731e+02 </wgt>
<wgt id='2241'> +2.8067300e+02 </wgt>
<wgt id='2242'> +2.8676190e+02 </wgt>
<wgt id='2243'> +2.8487022e+02 </wgt>
<wgt id='2244'> +2.9748256e+02 </wgt>
<wgt id='2245'> +2.7914757e+02 </wgt>
<wgt id='2246'> +2.7707534e+02 </wgt>
<wgt id='2247'> +2.8461048e+02 </wgt>
<wgt id='2248'> +2.9097289e+02 </wgt>
<wgt id='2249'> +2.8068221e+02 </wgt>
<wgt id='2250'> +2.6315246e+02 </wgt>
<wgt id='2251'> +2.8651193e+02 </wgt>
<wgt id='2252'> +2.8001234e+02 </wgt>
<wgt id='2253'> +2.7655878e+02 </wgt>
<wgt id='2254'> +2.8647384e+02 </wgt>
<wgt id='2255'> +2.9498354e+02 </wgt>
<wgt id='2256'> +2.8169206e+02 </wgt>
<wgt id='2257'> +2.8622906e+02 </wgt>
<wgt id='2258'> +2.8548448e+02 </wgt>
<wgt id='2259'> +2.8037514e+02 </wgt>
<wgt id='2260'> +2.8237107e+02 </wgt>
<wgt id='2261'> +2.8421556e+02 </wgt>
<wgt id='2262'> +2.7513080e+02 </wgt>
<wgt id='2263'> +2.8280450e+02 </wgt>
<wgt id='2264'> +2.8314074e+02 </wgt>
<wgt id='2265'> +2.8372341e+02 </wgt>
<wgt id='2266'> +2.8755938e+02 </wgt>
<wgt id='2267'> +2.8305364e+02 </wgt>
<wgt id='2268'> +2.7333891e+02 </wgt>
<wgt id='2269'> +2.9109650e+02 </wgt>
<wgt id='2270'> +2.8026817e+02 </wgt>
<wgt id='2271'> +2.9124616e+02 </wgt>
<wgt id='2272'> +2.7883947e+02 </wgt>
<wgt id='2273'> +2.8727805e+02 </wgt>
<wgt id='2274'> +2.8459674e+02 </wgt>
<wgt id='2275'> +2.9618706e+02 </wgt>
<wgt id='2276'> +2.9041313e+02 </wgt>
<wgt id='2277'> +2.8155330e+02 </wgt>
<wgt id='2278'> +2.7878371e+02 </wgt>
<wgt id='2279'> +2.8499627e+02 </wgt>
<wgt id='2280'> +2.8170858e+02 </wgt>
<wgt id='2281'> +3.4107990e+02 </wgt>
<wgt id='2282'> +4.0485602e+02 </wgt>
<wgt id='2283'> +3.3160355e+02 </wgt>
<wgt id='2284'> +3.9202920e+02 </wgt>
</rwgt>
</event>
<event npLO=" -1 " npNLO=" 2 ">
 6      2 +2.8781417e+02 1.55150460e+01 7.54677110e-03 1.30072330e-01
        2 -1    0    0  503    0 +0.0000000000e+00 +0.0000000000e+00 +1.2698136000e+02 1.2698136000e+02 0.0000000000e+00 0.0000e+00 9.0000e+00
       21 -1    0    0  504  502 +0.0000000000e+00 +0.0000000000e+00 -1.7188698000e+03 1.7188698000e+03 0.0000000000e+00 0.0000e+00 9.0000e+00
       25  1    1    2    0    0 +2.0908226000e+01 +4.4204086000e+01 -2.8274595000e+02 3.0386910000e+02 1.0000000000e+02 0.0000e+00 9.0000e+00
        2  1    1    2  501    0 -1.0993686000e+01 -3.3728634000e+01 +1.1358349000e+02 1.1899450000e+02 0.0000000000e+00 0.0000e+00 9.0000e+00
       21  1    1    2  503  502 +5.0919182000e-01 +3.0000299000e+00 -2.9328561000e+01 2.9485996000e+01 0.0000000000e+00 0.0000e+00 9.0000e+00
       21  1    1    2  504  501 -1.0423732000e+01 -1.3475481000e+01 -1.3933974000e+03 1.3935015000e+03 0.0000000000e+00 0.0000e+00 9.0000e+00
#aMCatNLO 2  0  0  2  2 0.34429272E+02 0.00000000E+00 -9  6  0 0.00000000E+00 0.00000000E+00 0.00000000E+00 0.00000000E+00 0.00000000E+00
<rwgt>
<wgt id='1001'> +2.8781417e+02 </wgt>
<wgt id='1002'> +1.6649239e+02 </wgt>
<wgt id='1003'> +5.3440048e+02 </wgt>
<wgt id='1004'> +2.5553127e+02 </wgt>
<wgt id='1005'> +1.4781764e+02 </wgt>
<wgt id='1006'> +4.7445901e+02 </wgt>
<wgt id='1007'> +3.2686305e+02 </wgt>
<wgt id='1008'> +1.8908106e+02 </wgt>
<wgt id='1009'> +6.0690466e+02 </wgt>
<wgt id='1010'> +2.8781417e+02 </wgt>
<wgt id='1011'> +2.8661615e+02 </wgt>
<wgt id='1012'> +2.8857645e+02 </wgt>
<wgt id='1013'> +2.8767659e+02 </wgt>
<wgt id='1014'> +2.8895124e+02 </wgt>
<wgt id='1015'> +2.8421458e+02 </wgt>
<wgt id='1016'> +2.8666448e+02 </wgt>
<wgt id='1017'> +2.8671635e+02 </wgt>
<wgt id='1018'> +2.8496958e+02 </wgt>
<wgt id='1019'> +2.8659650e+02 </wgt>
<wgt id='1020'> +2.8505456e+02 </wgt>
<wgt id='1021'> +2.9175158e+02 </wgt>
<wgt id='1022'> +2.8882121e+02 </wgt>
<wgt id='1023'> +2.8777207e+02 </wgt>
<wgt id='1024'> +2.8726555e+02 </wgt>
<wgt id='1025'> +2.8997412e+02 </wgt>
<wgt id='1026'> +2.8696940e+02 </wgt>
<wgt id='1027'> +2.8900338e+02 </wgt>
<wgt id='1028'> +2.8496984e+02 </wgt>
<wgt id='1029'> +2.8684778e+02 </wgt>
<wgt id='1030'> +2.8865191e+02 </wgt>
<wgt id='1031'> +2.8766196e+02 </wgt>
<wgt id='1032'> +2.9169969e+02 </wgt>
<wgt id='1033'> +2.8475973e+02 </wgt>
<wgt id='1034'> +2.9158493e+02 </wgt>
<wgt id='1035'> +2.8296706e+02 </wgt>
<wgt id='1036'> +2.8429410e+02 </wgt>
<wgt id='1037'> +2.9083204e+02 </wgt>
<wgt id='1038'> +2.8476378e+02 </wgt>
<wgt id='1039'> +2.8792105e+02 </wgt>
<wgt id='1040'> +2.9047036e+02 </wgt>
<wgt id='1041'> +2.8679125e+02 </wgt>
<wgt id='1042'> +2.8545696e+02 </wgt>
<wgt id='1043'> +2.8783445e+02 </wgt>
<wgt id='1044'> +2.8700908e+02 </wgt>
<wgt id='1045'> +2.9017793e+02 </wgt>
<wgt id='1046'> +2.8936542e+02 </wgt>
<wgt id='1047'> +2.8569327e+02 </wgt>
<wgt id='1048'> +2.8882372e+02 </wgt>
<wgt id='1049'> +2.8850135e+02 </wgt>
<wgt id='1050'> +2.8621899e+02 </wgt>
<wgt id='1051'> +2.8721503e+02 </wgt>
<wgt id='1052'> +2.8931498e+02 </wgt>
<wgt id='1053'> +2.8671417e+02 </wgt>
<wgt id='1054'> +2.8912030e+02 </wgt>
<wgt id='1055'> +2.8797583e+02 </wgt>
<wgt id='1056'> +2.8668892e+02 </wgt>
<wgt id='1057'> +2.8753490e+02 </wgt>
<wgt id='1058'> +2.8787468e+02 </wgt>
<wgt id='1059'> +2.8692025e+02 </wgt>
<wgt id='1060'> +2.8757532e+02 </wgt>
<wgt id='1061'> +2.8738066e+02 </wgt>
<wgt id='1062'> +2.8871355e+02 </wgt>
<wgt id='1063'> +2.8726209e+02 </wgt>
<wgt id='1064'> +2.8753020e+02 </wgt>
<wgt id='1065'> +2.8684893e+02 </wgt>
<wgt id='1066'> +2.8879337e+02 </wgt>
<wgt id='1067'> +2.8806950e+02 </wgt>
<wgt id='1068'> +2.8809762e+02 </wgt>
<wgt id='1069'> +2.8798723e+02 </wgt>
<wgt id='1070'> +2.8758290e+02 </wgt>
<wgt id='1071'> +2.8750176e+02 </wgt>
<wgt id='1072'> +2.8800490e+02 </wgt>
<wgt id='1073'> +2.8769288e+02 </wgt>
<wgt id='1074'> +2.8811345e+02 </wgt>
<wgt id='1075'> +2.8809102e+02 </wgt>
<wgt id='1076'> +2.8756989e+02 </wgt>
<wgt id='1077'> +2.8703311e+02 </wgt>
<wgt id='1078'> +2.8907212e+02 </wgt>
<wgt id='1079'> +2.8787946e+02 </wgt>
<wgt id='1080'> +2.8799624e+02 </wgt>
<wgt id='1081'> +2.8759364e+02 </wgt>
<wgt id='1082'> +2.8748927e+02 </wgt>
<wgt id='1083'> +2.8824378e+02 </wgt>
<wgt id='1084'> +2.8782938e+02 </wgt>
<wgt id='1085'> +2.8782301e+02 </wgt>
<wgt id='1086'> +2.8781181e+02 </wgt>
<wgt id='1087'> +2.8822815e+02 </wgt>
<wgt id='1088'> +2.8789556e+02 </wgt>
<wgt id='1089'> +2.8764151e+02 </wgt>
<wgt id='1090'> +2.8781182e+02 </wgt>
<wgt id='1091'> +2.8771733e+02 </wgt>
<wgt id='1092'> +2.8778718e+02 </wgt>
<wgt id='1093'> +2.8850747e+02 </wgt>
<wgt id='1094'> +2.8794119e+02 </wgt>
<wgt id='1095'> +2.8805548e+02 </wgt>
<wgt id='1096'> +2.8768235e+02 </wgt>
<wgt id='1097'> +2.8796718e+02 </wgt>
<wgt id='1098'> +2.8751725e+02 </wgt>
<wgt id='1099'> +2.8779282e+02 </wgt>
<wgt id='1100'> +2.8797272e+02 </wgt>
<wgt id='1101'> +2.8802794e+02 </wgt>
<wgt id='1102'> +2.8826798e+02 </wgt>
<wgt id='1103'> +2.8743897e+02 </wgt>
<wgt id='1104'> +2.8784643e+02 </wgt>
<wgt id='1105'> +2.8805351e+02 </wgt>
<wgt id='1106'> +2.8786157e+02 </wgt>
<wgt id='1107'> +2.8808120e+02 </wgt>
<wgt id='1108'> +2.8793441e+02 </wgt>
<wgt id='1109'> +2.8791159e+02 </wgt>
<wgt id='1110'> +2.8781418e+02 </wgt>
<wgt id='1111'> +2.5846551e+02 </wgt>
<wgt id='1112'> +3.2161976e+02 </wgt>
<wgt id='1113'> +2.8781418e+02 </wgt>
<wgt id='1114'> +3.1877848e+02 </wgt>
<wgt id='1115'> +2.7513620e+02 </wgt>
<wgt id='1116'> +2.4909399e+02 </wgt>
<wgt id='1117'> +2.8506806e+02 </wgt>
<wgt id='1118'> +2.8455771e+02 </wgt>
<wgt id='1119'> +3.0022952e+02 </wgt>
<wgt id='1120'> +2.8311850e+02 </wgt>
<wgt id='1121'> +2.7428147e+02 </wgt>
<wgt id='1122'> +2.6684458e+02 </wgt>
<wgt id='1123'> +2.8968318e+02 </wgt>
<wgt id='1124'> +2.9918251e+02 </wgt>
<wgt id='1125'> +2.9352323e+02 </wgt>
<wgt id='1126'> +3.0106450e+02 </wgt>
<wgt id='1127'> +2.9670998e+02 </wgt>
<wgt id='1128'> +2.9042697e+02 </wgt>
<wgt id='1129'> +2.7425500e+02 </wgt>
<wgt id='1130'> +2.9088850e+02 </wgt>
<wgt id='1131'> +2.7835910e+02 </wgt>
<wgt id='1132'> +2.8440099e+02 </wgt>
<wgt id='1133'> +2.8375600e+02 </wgt>
<wgt id='1134'> +2.8863319e+02 </wgt>
<wgt id='1135'> +2.8464592e+02 </wgt>
<wgt id='1136'> +2.8227854e+02 </wgt>
<wgt id='1137'> +2.9415188e+02 </wgt>
<wgt id='1138'> +2.6929243e+02 </wgt>
<wgt id='1139'> +2.9156048e+02 </wgt>
<wgt id='1140'> +3.0365779e+02 </wgt>
<wgt id='1141'> +2.7169518e+02 </wgt>
<wgt id='1142'> +3.0245532e+02 </wgt>
<wgt id='1143'> +2.9046753e+02 </wgt>
<wgt id='1144'> +2.6399650e+02 </wgt>
<wgt id='1145'> +3.0026871e+02 </wgt>
<wgt id='1146'> +2.8486181e+02 </wgt>
<wgt id='1147'> +2.8761457e+02 </wgt>
<wgt id='1148'> +2.5843447e+02 </wgt>
<wgt id='1149'> +2.9656615e+02 </wgt>
<wgt id='1150'> +2.8831536e+02 </wgt>
<wgt id='1151'> +2.8345874e+02 </wgt>
<wgt id='1152'> +2.9938289e+02 </wgt>
<wgt id='1153'> +2.8138052e+02 </wgt>
<wgt id='1154'> +2.7773200e+02 </wgt>
<wgt id='1155'> +2.8852787e+02 </wgt>
<wgt id='1156'> +2.9634498e+02 </wgt>
<wgt id='1157'> +2.9471344e+02 </wgt>
<wgt id='1158'> +2.8611708e+02 </wgt>
<wgt id='1159'> +3.0470102e+02 </wgt>
<wgt id='1160'> +3.0097441e+02 </wgt>
<wgt id='1161'> +2.9858091e+02 </wgt>
<wgt id='1162'> +3.0658451e+02 </wgt>
<wgt id='1163'> +2.9058440e+02 </wgt>
<wgt id='1164'> +3.1389572e+02 </wgt>
<wgt id='1165'> +2.7860388e+02 </wgt>
<wgt id='1166'> +2.9442339e+02 </wgt>
<wgt id='1167'> +3.0085975e+02 </wgt>
<wgt id='1168'> +2.9545082e+02 </wgt>
<wgt id='1169'> +2.8705951e+02 </wgt>
<wgt id='1170'> +2.9548459e+02 </wgt>
<wgt id='1171'> +2.9075990e+02 </wgt>
<wgt id='1172'> +2.6295495e+02 </wgt>
<wgt id='1173'> +3.0137581e+02 </wgt>
<wgt id='1174'> +2.9430569e+02 </wgt>
<wgt id='1175'> +2.7021150e+02 </wgt>
<wgt id='1176'> +3.0827008e+02 </wgt>
<wgt id='1177'> +2.8966182e+02 </wgt>
<wgt id='1178'> +2.8728003e+02 </wgt>
<wgt id='1179'> +2.6367599e+02 </wgt>
<wgt id='1180'> +2.6736378e+02 </wgt>
<wgt id='1181'> +2.9248138e+02 </wgt>
<wgt id='1182'> +2.9464364e+02 </wgt>
<wgt id='1183'> +3.1094997e+02 </wgt>
<wgt id='1184'> +2.8861874e+02 </wgt>
<wgt id='1185'> +3.0809785e+02 </wgt>
<wgt id='1186'> +2.6859877e+02 </wgt>
<wgt id='1187'> +2.7019908e+02 </wgt>
<wgt id='1188'> +2.8089822e+02 </wgt>
<wgt id='1189'> +2.7826380e+02 </wgt>
<wgt id='1190'> +2.8732885e+02 </wgt>
<wgt id='1191'> +2.8988931e+02 </wgt>
<wgt id='1192'> +2.9130958e+02 </wgt>
<wgt id='1193'> +3.1455088e+02 </wgt>
<wgt id='1194'> +2.9356862e+02 </wgt>
<wgt id='1195'> +2.7425500e+02 </wgt>
<wgt id='1196'> +2.9972460e+02 </wgt>
<wgt id='1197'> +2.7644190e+02 </wgt>
<wgt id='1198'> +2.6606436e+02 </wgt>
<wgt id='1199'> +3.1546662e+02 </wgt>
<wgt id='1200'> +2.7967956e+02 </wgt>
<wgt id='1201'> +2.9850150e+02 </wgt>
<wgt id='1202'> +2.5244717e+02 </wgt>
<wgt id='1203'> +2.8416932e+02 </wgt>
<wgt id='1204'> +2.6714921e+02 </wgt>
<wgt id='1205'> +3.0879977e+02 </wgt>
<wgt id='1206'> +2.8611650e+02 </wgt>
<wgt id='1207'> +2.9705644e+02 </wgt>
<wgt id='1208'> +3.0159445e+02 </wgt>
<wgt id='1209'> +2.6363658e+02 </wgt>
<wgt id='1210'> +3.1843768e+02 </wgt>
<wgt id='1211'> +2.8473536e+02 </wgt>
<wgt id='1212'> +2.7414211e+02 </wgt>
<wgt id='1213'> +2.7722866e+02 </wgt>
<wgt id='1214'> +2.8800941e+02 </wgt>
<wgt id='1215'> +2.8793094e+02 </wgt>
<wgt id='1216'> +2.8765583e+02 </wgt>
<wgt id='1217'> +2.8692279e+02 </wgt>
<wgt id='1218'> +2.8956086e+02 </wgt>
<wgt id='1219'> +2.8872840e+02 </wgt>
<wgt id='1220'> +2.8760259e+02 </wgt>
<wgt id='1221'> +2.8790990e+02 </wgt>
<wgt id='1222'> +2.8672066e+02 </wgt>
<wgt id='1223'> +2.8926479e+02 </wgt>
<wgt id='1224'> +2.8624587e+02 </wgt>
<wgt id='1225'> +2.8614862e+02 </wgt>
<wgt id='1226'> +2.8760350e+02 </wgt>
<wgt id='1227'> +2.8609862e+02 </wgt>
<wgt id='1228'> +2.8840490e+02 </wgt>
<wgt id='1229'> +2.8814956e+02 </wgt>
<wgt id='1230'> +2.9005052e+02 </wgt>
<wgt id='1231'> +2.8782459e+02 </wgt>
<wgt id='1232'> +2.8672615e+02 </wgt>
<wgt id='1233'> +2.8859493e+02 </wgt>
<wgt id='1234'> +2.8787585e+02 </wgt>
<wgt id='1235'> +2.8997691e+02 </wgt>
<wgt id='1236'> +2.8925401e+02 </wgt>
<wgt id='1237'> +2.8789690e+02 </wgt>
<wgt id='1238'> +2.8723730e+02 </wgt>
<wgt id='1239'> +2.8997734e+02 </wgt>
<wgt id='1240'> +2.8747917e+02 </wgt>
<wgt id='1241'> +2.8682897e+02 </wgt>
<wgt id='1242'> +2.8634650e+02 </wgt>
<wgt id='1243'> +2.9013485e+02 </wgt>
<wgt id='1244'> +2.9040434e+02 </wgt>
<wgt id='1245'> +2.8864857e+02 </wgt>
<wgt id='1246'> +2.8744571e+02 </wgt>
<wgt id='1247'> +2.8668684e+02 </wgt>
<wgt id='1248'> +2.8753852e+02 </wgt>
<wgt id='1249'> +2.8929937e+02 </wgt>
<wgt id='1250'> +2.8917845e+02 </wgt>
<wgt id='1251'> +2.8538920e+02 </wgt>
<wgt id='1252'> +2.8676518e+02 </wgt>
<wgt id='1253'> +2.8666086e+02 </wgt>
<wgt id='1254'> +2.8982329e+02 </wgt>
<wgt id='1255'> +2.9040300e+02 </wgt>
<wgt id='1256'> +2.9016366e+02 </wgt>
<wgt id='1257'> +2.8284833e+02 </wgt>
<wgt id='1258'> +2.8612477e+02 </wgt>
<wgt id='1259'> +2.8841784e+02 </wgt>
<wgt id='1260'> +2.9154494e+02 </wgt>
<wgt id='1261'> +2.9013693e+02 </wgt>
<wgt id='1262'> +2.8638479e+02 </wgt>
<wgt id='1263'> +2.8548899e+02 </wgt>
<wgt id='1264'> +2.9004817e+02 </wgt>
<wgt id='1265'> +2.8616062e+02 </wgt>
<wgt id='1266'> +2.8662053e+02 </wgt>
<wgt id='1267'> +2.8767759e+02 </wgt>
<wgt id='1268'> +2.8862200e+02 </wgt>
<wgt id='1269'> +2.9011514e+02 </wgt>
<wgt id='1270'> +2.8669918e+02 </wgt>
<wgt id='1271'> +2.8574421e+02 </wgt>
<wgt id='1272'> +2.8800207e+02 </wgt>
<wgt id='1273'> +2.8823551e+02 </wgt>
<wgt id='1274'> +2.8860461e+02 </wgt>
<wgt id='1275'> +2.8827066e+02 </wgt>
<wgt id='1276'> +2.8798439e+02 </wgt>
<wgt id='1277'> +2.8728780e+02 </wgt>
<wgt id='1278'> +2.8730042e+02 </wgt>
<wgt id='1279'> +2.8671671e+02 </wgt>
<wgt id='1280'> +2.8803647e+02 </wgt>
<wgt id='1281'> +2.8819127e+02 </wgt>
<wgt id='1282'> +2.8842678e+02 </wgt>
<wgt id='1283'> +2.8909629e+02 </wgt>
<wgt id='1284'> +2.8749020e+02 </wgt>
<wgt id='1285'> +2.8746730e+02 </wgt>
<wgt id='1286'> +2.8821683e+02 </wgt>
<wgt id='1287'> +2.8729235e+02 </wgt>
<wgt id='1288'> +2.8788172e+02 </wgt>
<wgt id='1289'> +2.8741055e+02 </wgt>
<wgt id='1290'> +2.8928449e+02 </wgt>
<wgt id='1291'> +2.8655925e+02 </wgt>
<wgt id='1292'> +2.8838370e+02 </wgt>
<wgt id='1293'> +2.8825067e+02 </wgt>
<wgt id='1294'> +2.8874858e+02 </wgt>
<wgt id='1295'> +2.8844263e+02 </wgt>
<wgt id='1296'> +2.8864972e+02 </wgt>
<wgt id='1297'> +2.8809541e+02 </wgt>
<wgt id='1298'> +2.8768559e+02 </wgt>
<wgt id='1299'> +2.8807803e+02 </wgt>
<wgt id='1300'> +2.8795530e+02 </wgt>
<wgt id='1301'> +2.8745354e+02 </wgt>
<wgt id='1302'> +2.8827847e+02 </wgt>
<wgt id='1303'> +2.8724105e+02 </wgt>
<wgt id='1304'> +2.8795841e+02 </wgt>
<wgt id='1305'> +2.8866838e+02 </wgt>
<wgt id='1306'> +2.8773917e+02 </wgt>
<wgt id='1307'> +2.8791164e+02 </wgt>
<wgt id='1308'> +2.8820693e+02 </wgt>
<wgt id='1309'> +2.8859669e+02 </wgt>
<wgt id='1310'> +2.8778407e+02 </wgt>
<wgt id='1311'> +2.8831684e+02 </wgt>
<wgt id='1312'> +2.8798877e+02 </wgt>
<wgt id='1313'> +2.8768696e+02 </wgt>
<wgt id='1314'> +2.8821037e+02 </wgt>
<wgt id='1315'> +2.5846551e+02 </wgt>
<wgt id='1316'> +3.2161976e+02 </wgt>
<wgt id='1317'> +1.7077384e+02 </wgt>
<wgt id='1318'> +1.9069513e+02 </wgt>
<wgt id='1319'> +2.1270920e+02 </wgt>
<wgt id='1320'> +2.3331336e+02 </wgt>
<wgt id='1321'> +2.7320628e+02 </wgt>
<wgt id='1322'> +3.0353242e+02 </wgt>
<wgt id='1323'> +3.5308452e+02 </wgt>
<wgt id='1324'> +3.9454267e+02 </wgt>
<wgt id='1325'> +3.0957929e+02 </wgt>
<wgt id='1326'> +3.0865306e+02 </wgt>
<wgt id='1327'> +3.1044739e+02 </wgt>
<wgt id='1328'> +3.0919858e+02 </wgt>
<wgt id='1329'> +3.1150355e+02 </wgt>
<wgt id='1330'> +3.0911826e+02 </wgt>
<wgt id='1331'> +3.0907557e+02 </wgt>
<wgt id='1332'> +3.0953798e+02 </wgt>
<wgt id='1333'> +3.0864802e+02 </wgt>
<wgt id='1334'> +3.0997615e+02 </wgt>
<wgt id='1335'> +3.0877994e+02 </wgt>
<wgt id='1336'> +3.0914216e+02 </wgt>
<wgt id='1337'> +3.0896057e+02 </wgt>
<wgt id='1338'> +3.1171750e+02 </wgt>
<wgt id='1339'> +3.1012428e+02 </wgt>
<wgt id='1340'> +3.0694449e+02 </wgt>
<wgt id='1341'> +3.1010224e+02 </wgt>
<wgt id='1342'> +3.0825589e+02 </wgt>
<wgt id='1343'> +3.1088829e+02 </wgt>
<wgt id='1344'> +3.1040452e+02 </wgt>
<wgt id='1345'> +3.0841978e+02 </wgt>
<wgt id='1346'> +3.1105915e+02 </wgt>
<wgt id='1347'> +3.0982569e+02 </wgt>
<wgt id='1348'> +3.0951980e+02 </wgt>
<wgt id='1349'> +3.1004263e+02 </wgt>
<wgt id='1350'> +3.0902551e+02 </wgt>
<wgt id='1351'> +3.1037349e+02 </wgt>
<wgt id='1352'> +3.0984031e+02 </wgt>
<wgt id='1353'> +3.0751011e+02 </wgt>
<wgt id='1354'> +3.1064444e+02 </wgt>
<wgt id='1355'> +3.1395898e+02 </wgt>
<wgt id='1356'> +3.0843837e+02 </wgt>
<wgt id='1357'> +3.1050157e+02 </wgt>
<wgt id='1358'> +3.1087699e+02 </wgt>
<wgt id='1359'> +3.0935678e+02 </wgt>
<wgt id='1360'> +3.1047551e+02 </wgt>
<wgt id='1361'> +3.0872913e+02 </wgt>
<wgt id='1362'> +3.1003462e+02 </wgt>
<wgt id='1363'> +3.0860475e+02 </wgt>
<wgt id='1364'> +3.0756994e+02 </wgt>
<wgt id='1365'> +3.0925749e+02 </wgt>
<wgt id='1366'> +3.0897942e+02 </wgt>
<wgt id='1367'> +3.1208291e+02 </wgt>
<wgt id='1368'> +3.1252885e+02 </wgt>
<wgt id='1369'> +3.0819957e+02 </wgt>
<wgt id='1370'> +3.0790581e+02 </wgt>
<wgt id='1371'> +3.1192149e+02 </wgt>
<wgt id='1372'> +3.1103920e+02 </wgt>
<wgt id='1373'> +3.0653677e+02 </wgt>
<wgt id='1374'> +3.1068527e+02 </wgt>
<wgt id='1375'> +3.0591857e+02 </wgt>
<wgt id='1376'> +3.1258061e+02 </wgt>
<wgt id='1377'> +3.0902006e+02 </wgt>
<wgt id='1378'> +3.0838441e+02 </wgt>
<wgt id='1379'> +3.1033436e+02 </wgt>
<wgt id='1380'> +3.1311131e+02 </wgt>
<wgt id='1381'> +3.0985934e+02 </wgt>
<wgt id='1382'> +3.0977635e+02 </wgt>
<wgt id='1383'> +3.0976792e+02 </wgt>
<wgt id='1384'> +3.0789287e+02 </wgt>
<wgt id='1385'> +3.1008526e+02 </wgt>
<wgt id='1386'> +3.0908495e+02 </wgt>
<wgt id='1387'> +3.0920695e+02 </wgt>
<wgt id='1388'> +3.0920194e+02 </wgt>
<wgt id='1389'> +3.1024315e+02 </wgt>
<wgt id='1390'> +3.0918765e+02 </wgt>
<wgt id='1391'> +3.0967150e+02 </wgt>
<wgt id='1392'> +3.0980643e+02 </wgt>
<wgt id='1393'> +3.0920510e+02 </wgt>
<wgt id='1394'> +3.0855516e+02 </wgt>
<wgt id='1395'> +3.0881203e+02 </wgt>
<wgt id='1396'> +3.1013258e+02 </wgt>
<wgt id='1397'> +3.0914307e+02 </wgt>
<wgt id='1398'> +3.0900977e+02 </wgt>
<wgt id='1399'> +3.1166936e+02 </wgt>
<wgt id='1400'> +3.0891619e+02 </wgt>
<wgt id='1401'> +3.1013447e+02 </wgt>
<wgt id='1402'> +3.1052638e+02 </wgt>
<wgt id='1403'> +3.0970971e+02 </wgt>
<wgt id='1404'> +3.0821150e+02 </wgt>
<wgt id='1405'> +3.0918306e+02 </wgt>
<wgt id='1406'> +3.0916596e+02 </wgt>
<wgt id='1407'> +3.0927943e+02 </wgt>
<wgt id='1408'> +3.0898267e+02 </wgt>
<wgt id='1409'> +3.0944499e+02 </wgt>
<wgt id='1410'> +3.1041653e+02 </wgt>
<wgt id='1411'> +3.0821975e+02 </wgt>
<wgt id='1412'> +3.0916509e+02 </wgt>
<wgt id='1413'> +3.0933543e+02 </wgt>
<wgt id='1414'> +3.0929279e+02 </wgt>
<wgt id='1415'> +3.1021908e+02 </wgt>
<wgt id='1416'> +3.1009153e+02 </wgt>
<wgt id='1417'> +3.0921327e+02 </wgt>
<wgt id='1418'> +3.0982333e+02 </wgt>
<wgt id='1419'> +3.0987596e+02 </wgt>
<wgt id='1420'> +3.0921789e+02 </wgt>
<wgt id='1421'> +3.0976141e+02 </wgt>
<wgt id='1422'> +3.0976405e+02 </wgt>
<wgt id='1423'> +3.0902998e+02 </wgt>
<wgt id='1424'> +3.0953136e+02 </wgt>
<wgt id='1425'> +3.1007660e+02 </wgt>
<wgt id='1426'> +2.8272917e+02 </wgt>
<wgt id='1427'> +3.4052012e+02 </wgt>
<wgt id='1428'> +3.4826083e+02 </wgt>
<wgt id='1429'> +3.4817208e+02 </wgt>
<wgt id='1430'> +3.4651929e+02 </wgt>
<wgt id='1431'> +3.4813038e+02 </wgt>
<wgt id='1432'> +3.5163982e+02 </wgt>
<wgt id='1433'> +3.5863255e+02 </wgt>
<wgt id='1434'> +3.5766132e+02 </wgt>
<wgt id='1435'> +3.5337117e+02 </wgt>
<wgt id='1436'> +3.4687139e+02 </wgt>
<wgt id='1437'> +3.4797328e+02 </wgt>
<wgt id='1438'> +3.4860334e+02 </wgt>
<wgt id='1439'> +3.5880089e+02 </wgt>
<wgt id='1440'> +3.3652536e+02 </wgt>
<wgt id='1441'> +3.5843968e+02 </wgt>
<wgt id='1442'> +3.3858113e+02 </wgt>
<wgt id='1443'> +3.3708046e+02 </wgt>
<wgt id='1444'> +3.7905571e+02 </wgt>
<wgt id='1445'> +3.4225513e+02 </wgt>
<wgt id='1446'> +3.5414342e+02 </wgt>
<wgt id='1447'> +3.4222385e+02 </wgt>
<wgt id='1448'> +3.5256444e+02 </wgt>
<wgt id='1449'> +3.4074304e+02 </wgt>
<wgt id='1450'> +3.5305430e+02 </wgt>
<wgt id='1451'> +3.4131808e+02 </wgt>
<wgt id='1452'> +3.5631836e+02 </wgt>
<wgt id='1453'> +3.5020203e+02 </wgt>
<wgt id='1454'> +3.4667054e+02 </wgt>
<wgt id='1455'> +3.3866228e+02 </wgt>
<wgt id='1456'> +3.6492970e+02 </wgt>
<wgt id='1457'> +3.6902905e+02 </wgt>
<wgt id='1458'> +3.3581260e+02 </wgt>
<wgt id='1459'> +3.5939171e+02 </wgt>
<wgt id='1460'> +3.3230941e+02 </wgt>
<wgt id='1461'> +3.4724096e+02 </wgt>
<wgt id='1462'> +3.4953975e+02 </wgt>
<wgt id='1463'> +3.5042655e+02 </wgt>
<wgt id='1464'> +3.4628992e+02 </wgt>
<wgt id='1465'> +3.4294285e+02 </wgt>
<wgt id='1466'> +3.5446490e+02 </wgt>
<wgt id='1467'> +3.5653863e+02 </wgt>
<wgt id='1468'> +3.4137317e+02 </wgt>
<wgt id='1469'> +3.6112041e+02 </wgt>
<wgt id='1470'> +3.4554328e+02 </wgt>
<wgt id='1471'> +3.3584390e+02 </wgt>
<wgt id='1472'> +3.6889568e+02 </wgt>
<wgt id='1473'> +3.4163956e+02 </wgt>
<wgt id='1474'> +3.5172138e+02 </wgt>
<wgt id='1475'> +3.4137146e+02 </wgt>
<wgt id='1476'> +3.4527041e+02 </wgt>
<wgt id='1477'> +3.5047918e+02 </wgt>
<wgt id='1478'> +3.4542772e+02 </wgt>
<wgt id='1479'> +3.4895020e+02 </wgt>
<wgt id='1480'> +3.4686747e+02 </wgt>
<wgt id='1481'> +3.3749265e+02 </wgt>
<wgt id='1482'> +3.3854895e+02 </wgt>
<wgt id='1483'> +3.4369179e+02 </wgt>
<wgt id='1484'> +3.5740069e+02 </wgt>
<wgt id='1485'> +3.0954278e+02 </wgt>
<wgt id='1486'> +3.9395890e+02 </wgt>
<wgt id='1487'> +3.3658804e+02 </wgt>
<wgt id='1488'> +3.3559028e+02 </wgt>
<wgt id='1489'> +3.3730689e+02 </wgt>
<wgt id='1490'> +3.3510895e+02 </wgt>
<wgt id='1491'> +3.4066272e+02 </wgt>
<wgt id='1492'> +3.3144599e+02 </wgt>
<wgt id='1493'> +3.4183952e+02 </wgt>
<wgt id='1494'> +3.3252184e+02 </wgt>
<wgt id='1495'> +3.3987623e+02 </wgt>
<wgt id='1496'> +3.5135008e+02 </wgt>
<wgt id='1497'> +3.2688337e+02 </wgt>
<wgt id='1498'> +3.3777900e+02 </wgt>
<wgt id='1499'> +3.3497549e+02 </wgt>
<wgt id='1500'> +3.6513001e+02 </wgt>
<wgt id='1501'> +3.1831011e+02 </wgt>
<wgt id='1502'> +3.4884000e+02 </wgt>
<wgt id='1503'> +3.2624261e+02 </wgt>
<wgt id='1504'> +3.3520901e+02 </wgt>
<wgt id='1505'> +3.3833809e+02 </wgt>
<wgt id='1506'> +3.2238779e+02 </wgt>
<wgt id='1507'> +3.5187676e+02 </wgt>
<wgt id='1508'> +3.3392780e+02 </wgt>
<wgt id='1509'> +3.4180595e+02 </wgt>
<wgt id='1510'> +3.5108428e+02 </wgt>
<wgt id='1511'> +3.2229966e+02 </wgt>
<wgt id='1512'> +3.4126981e+02 </wgt>
<wgt id='1513'> +3.3219523e+02 </wgt>
<wgt id='1514'> +3.4284655e+02 </wgt>
<wgt id='1515'> +3.2793702e+02 </wgt>
<wgt id='1516'> +3.4299110e+02 </wgt>
<wgt id='1517'> +3.3436445e+02 </wgt>
<wgt id='1518'> +3.3377350e+02 </wgt>
<wgt id='1519'> +3.4023718e+02 </wgt>
<wgt id='1520'> +3.3882422e+02 </wgt>
<wgt id='1521'> +3.3174051e+02 </wgt>
<wgt id='1522'> +3.2073050e+02 </wgt>
<wgt id='1523'> +3.5191093e+02 </wgt>
<wgt id='1524'> +3.2318670e+02 </wgt>
<wgt id='1525'> +3.5616149e+02 </wgt>
<wgt id='1526'> +3.2737671e+02 </wgt>
<wgt id='1527'> +3.4392935e+02 </wgt>
<wgt id='1528'> +3.3905712e+02 </wgt>
<wgt id='1529'> +3.3234090e+02 </wgt>
<wgt id='1530'> +3.3201300e+02 </wgt>
<wgt id='1531'> +3.3502374e+02 </wgt>
<wgt id='1532'> +3.5215765e+02 </wgt>
<wgt id='1533'> +3.3239065e+02 </wgt>
<wgt id='1534'> +3.3772582e+02 </wgt>
<wgt id='1535'> +3.4604943e+02 </wgt>
<wgt id='1536'> +3.4709451e+02 </wgt>
<wgt id='1537'> +3.4206711e+02 </wgt>
<wgt id='1538'> +3.3499397e+02 </wgt>
<wgt id='1539'> +3.3598256e+02 </wgt>
<wgt id='1540'> +3.2521967e+02 </wgt>
<wgt id='1541'> +3.3913242e+02 </wgt>
<wgt id='1542'> +3.3281286e+02 </wgt>
<wgt id='1543'> +3.4327832e+02 </wgt>
<wgt id='1544'> +3.0224332e+02 </wgt>
<wgt id='1545'> +3.7716803e+02 </wgt>
<wgt id='1546'> +4.1974383e+02 </wgt>
<wgt id='1547'> +3.1178049e+02 </wgt>
<wgt id='1548'> +3.1127577e+02 </wgt>
<wgt id='1549'> +3.1230248e+02 </wgt>
<wgt id='1550'> +3.1113866e+02 </wgt>
<wgt id='1551'> +3.1220523e+02 </wgt>
<wgt id='1552'> +3.1237291e+02 </wgt>
<wgt id='1553'> +3.1122997e+02 </wgt>
<wgt id='1554'> +3.1113295e+02 </wgt>
<wgt id='1555'> +3.1249322e+02 </wgt>
<wgt id='1556'> +3.1159957e+02 </wgt>
<wgt id='1557'> +3.1195401e+02 </wgt>
<wgt id='1558'> +3.1172016e+02 </wgt>
<wgt id='1559'> +3.1190641e+02 </wgt>
<wgt id='1560'> +3.1153610e+02 </wgt>
<wgt id='1561'> +3.1222056e+02 </wgt>
<wgt id='1562'> +3.1204891e+02 </wgt>
<wgt id='1563'> +3.1162512e+02 </wgt>
<wgt id='1564'> +3.1060002e+02 </wgt>
<wgt id='1565'> +3.1314189e+02 </wgt>
<wgt id='1566'> +3.1087478e+02 </wgt>
<wgt id='1567'> +3.1255251e+02 </wgt>
<wgt id='1568'> +3.1098678e+02 </wgt>
<wgt id='1569'> +3.1280432e+02 </wgt>
<wgt id='1570'> +3.1114483e+02 </wgt>
<wgt id='1571'> +3.1206194e+02 </wgt>
<wgt id='1572'> +3.1929454e+02 </wgt>
<wgt id='1573'> +3.0444614e+02 </wgt>
<wgt id='1574'> +3.1225513e+02 </wgt>
<wgt id='1575'> +3.1140112e+02 </wgt>
<wgt id='1576'> +3.0636833e+02 </wgt>
<wgt id='1577'> +3.1836539e+02 </wgt>
<wgt id='1578'> +3.0206283e+02 </wgt>
<wgt id='1579'> +3.2336071e+02 </wgt>
<wgt id='1580'> +3.1497757e+02 </wgt>
<wgt id='1581'> +3.0871340e+02 </wgt>
<wgt id='1582'> +3.1266559e+02 </wgt>
<wgt id='1583'> +3.1021536e+02 </wgt>
<wgt id='1584'> +3.1120031e+02 </wgt>
<wgt id='1585'> +3.1201367e+02 </wgt>
<wgt id='1586'> +3.0987203e+02 </wgt>
<wgt id='1587'> +3.1395473e+02 </wgt>
<wgt id='1588'> +3.0556227e+02 </wgt>
<wgt id='1589'> +3.1903101e+02 </wgt>
<wgt id='1590'> +3.1311726e+02 </wgt>
<wgt id='1591'> +3.1156671e+02 </wgt>
<wgt id='1592'> +3.1042300e+02 </wgt>
<wgt id='1593'> +3.1534796e+02 </wgt>
<wgt id='1594'> +3.0689606e+02 </wgt>
<wgt id='1595'> +3.2111635e+02 </wgt>
<wgt id='1596'> +3.0759744e+02 </wgt>
<wgt id='1597'> +3.1387263e+02 </wgt>
<wgt id='1598'> +3.2704332e+02 </wgt>
<wgt id='1599'> +3.2635281e+02 </wgt>
<wgt id='1600'> +3.2793005e+02 </wgt>
<wgt id='1601'> +3.2756293e+02 </wgt>
<wgt id='1602'> +3.2651773e+02 </wgt>
<wgt id='1603'> +3.2633335e+02 </wgt>
<wgt id='1604'> +3.2732107e+02 </wgt>
<wgt id='1605'> +3.2667397e+02 </wgt>
<wgt id='1606'> +3.2741478e+02 </wgt>
<wgt id='1607'> +3.2705446e+02 </wgt>
<wgt id='1608'> +3.2703056e+02 </wgt>
<wgt id='1609'> +3.2740424e+02 </wgt>
<wgt id='1610'> +3.2689411e+02 </wgt>
<wgt id='1611'> +3.2682809e+02 </wgt>
<wgt id='1612'> +3.2730797e+02 </wgt>
<wgt id='1613'> +3.2696585e+02 </wgt>
<wgt id='1614'> +3.2712555e+02 </wgt>
<wgt id='1615'> +3.2437983e+02 </wgt>
<wgt id='1616'> +3.2854744e+02 </wgt>
<wgt id='1617'> +3.2756320e+02 </wgt>
<wgt id='1618'> +3.2632611e+02 </wgt>
<wgt id='1619'> +3.2677680e+02 </wgt>
<wgt id='1620'> +3.2722978e+02 </wgt>
<wgt id='1621'> +3.2626620e+02 </wgt>
<wgt id='1622'> +3.2779808e+02 </wgt>
<wgt id='1623'> +3.2636387e+02 </wgt>
<wgt id='1624'> +3.2855625e+02 </wgt>
<wgt id='1625'> +3.2625604e+02 </wgt>
<wgt id='1626'> +3.2747828e+02 </wgt>
<wgt id='1627'> +3.3270747e+02 </wgt>
<wgt id='1628'> +3.1288143e+02 </wgt>
<wgt id='1629'> +3.2229116e+02 </wgt>
<wgt id='1630'> +3.3743400e+02 </wgt>
<wgt id='1631'> +3.2855339e+02 </wgt>
<wgt id='1632'> +3.2431715e+02 </wgt>
<wgt id='1633'> +3.2253493e+02 </wgt>
<wgt id='1634'> +3.2935034e+02 </wgt>
<wgt id='1635'> +3.2627225e+02 </wgt>
<wgt id='1636'> +3.2835565e+02 </wgt>
<wgt id='1637'> +3.2416211e+02 </wgt>
<wgt id='1638'> +3.2922949e+02 </wgt>
<wgt id='1639'> +3.3435552e+02 </wgt>
<wgt id='1640'> +3.1619962e+02 </wgt>
<wgt id='1641'> +3.2768867e+02 </wgt>
<wgt id='1642'> +3.2287163e+02 </wgt>
<wgt id='1643'> +3.2974489e+02 </wgt>
<wgt id='1644'> +3.2537553e+02 </wgt>
<wgt id='1645'> +3.2708060e+02 </wgt>
<wgt id='1646'> +3.2702423e+02 </wgt>
<wgt id='1647'> +3.3229321e+02 </wgt>
<wgt id='1648'> +3.2311070e+02 </wgt>
<wgt id='1649'> +6.6594897e+02 </wgt>
<wgt id='1650'> +2.9038957e+02 </wgt>
<wgt id='1651'> +2.9026743e+02 </wgt>
<wgt id='1652'> +2.9022842e+02 </wgt>
<wgt id='1653'> +2.9079551e+02 </wgt>
<wgt id='1654'> +2.9038901e+02 </wgt>
<wgt id='1655'> +2.9041169e+02 </wgt>
<wgt id='1656'> +2.9059005e+02 </wgt>
<wgt id='1657'> +2.9178146e+02 </wgt>
<wgt id='1658'> +2.9031758e+02 </wgt>
<wgt id='1659'> +2.9122922e+02 </wgt>
<wgt id='1660'> +2.9008240e+02 </wgt>
<wgt id='1661'> +2.9048945e+02 </wgt>
<wgt id='1662'> +2.8937487e+02 </wgt>
<wgt id='1663'> +2.8954693e+02 </wgt>
<wgt id='1664'> +2.9115382e+02 </wgt>
<wgt id='1665'> +2.9040063e+02 </wgt>
<wgt id='1666'> +2.9125654e+02 </wgt>
<wgt id='1667'> +2.9061646e+02 </wgt>
<wgt id='1668'> +2.9227441e+02 </wgt>
<wgt id='1669'> +2.8768492e+02 </wgt>
<wgt id='1670'> +2.9389081e+02 </wgt>
<wgt id='1671'> +2.8890666e+02 </wgt>
<wgt id='1672'> +2.9749720e+02 </wgt>
<wgt id='1673'> +2.8726739e+02 </wgt>
<wgt id='1674'> +2.8533847e+02 </wgt>
<wgt id='1675'> +2.8573688e+02 </wgt>
<wgt id='1676'> +2.8858577e+02 </wgt>
<wgt id='1677'> +2.9159520e+02 </wgt>
<wgt id='1678'> +2.9021113e+02 </wgt>
<wgt id='1679'> +3.0921260e+02 </wgt>
<wgt id='1680'> +3.2054402e+02 </wgt>
<wgt id='1681'> +3.1526628e+02 </wgt>
<wgt id='1682'> +3.1788544e+02 </wgt>
<wgt id='1683'> +3.2301344e+02 </wgt>
<wgt id='1684'> +3.1868931e+02 </wgt>
<wgt id='1685'> +3.2167616e+02 </wgt>
<wgt id='1686'> +3.1824746e+02 </wgt>
<wgt id='1687'> +3.1998021e+02 </wgt>
<wgt id='1688'> +3.1606970e+02 </wgt>
<wgt id='1689'> +3.2100657e+02 </wgt>
<wgt id='1690'> +3.1049556e+02 </wgt>
<wgt id='1691'> +3.1671093e+02 </wgt>
<wgt id='1692'> +3.2755539e+02 </wgt>
<wgt id='1693'> +3.2578662e+02 </wgt>
<wgt id='1694'> +3.2579795e+02 </wgt>
<wgt id='1695'> +3.2069379e+02 </wgt>
<wgt id='1696'> +3.1865200e+02 </wgt>
<wgt id='1697'> +3.2666725e+02 </wgt>
<wgt id='1698'> +3.2357317e+02 </wgt>
<wgt id='1699'> +3.2257153e+02 </wgt>
<wgt id='1700'> +3.0925230e+02 </wgt>
<wgt id='1701'> +3.1542093e+02 </wgt>
<wgt id='1702'> +3.2771763e+02 </wgt>
<wgt id='1703'> +3.1605247e+02 </wgt>
<wgt id='1704'> +3.2032649e+02 </wgt>
<wgt id='1705'> +3.2090805e+02 </wgt>
<wgt id='1706'> +3.1806558e+02 </wgt>
<wgt id='1707'> +3.2068015e+02 </wgt>
<wgt id='1708'> +3.1886873e+02 </wgt>
<wgt id='1709'> +3.2057394e+02 </wgt>
<wgt id='1710'> +3.1985477e+02 </wgt>
<wgt id='1711'> +3.2110601e+02 </wgt>
<wgt id='1712'> +3.1926851e+02 </wgt>
<wgt id='1713'> +3.1758950e+02 </wgt>
<wgt id='1714'> +3.2114797e+02 </wgt>
<wgt id='1715'> +3.2100402e+02 </wgt>
<wgt id='1716'> +3.1886489e+02 </wgt>
<wgt id='1717'> +3.2040389e+02 </wgt>
<wgt id='1718'> +3.2071420e+02 </wgt>
<wgt id='1719'> +3.2134390e+02 </wgt>
<wgt id='1720'> +3.2061474e+02 </wgt>
<wgt id='1721'> +3.2135392e+02 </wgt>
<wgt id='1722'> +3.2047943e+02 </wgt>
<wgt id='1723'> +3.1993131e+02 </wgt>
<wgt id='1724'> +3.2078133e+02 </wgt>
<wgt id='1725'> +3.2086297e+02 </wgt>
<wgt id='1726'> +3.2143900e+02 </wgt>
<wgt id='1727'> +3.1936585e+02 </wgt>
<wgt id='1728'> +3.2004816e+02 </wgt>
<wgt id='1729'> +3.2033551e+02 </wgt>
<wgt id='1730'> +3.2079030e+02 </wgt>
<wgt id='1731'> +3.2052894e+02 </wgt>
<wgt id='1732'> +3.2058624e+02 </wgt>
<wgt id='1733'> +3.1985047e+02 </wgt>
<wgt id='1734'> +3.2051844e+02 </wgt>
<wgt id='1735'> +3.2102983e+02 </wgt>
<wgt id='1736'> +3.2013950e+02 </wgt>
<wgt id='1737'> +3.2062619e+02 </wgt>
<wgt id='1738'> +3.2080015e+02 </wgt>
<wgt id='1739'> +3.2079597e+02 </wgt>
<wgt id='1740'> +3.2048344e+02 </wgt>
<wgt id='1741'> +3.2084138e+02 </wgt>
<wgt id='1742'> +3.2047516e+02 </wgt>
<wgt id='1743'> +3.2057532e+02 </wgt>
<wgt id='1744'> +3.2074872e+02 </wgt>
<wgt id='1745'> +3.2099755e+02 </wgt>
<wgt id='1746'> +3.2119604e+02 </wgt>
<wgt id='1747'> +3.2100801e+02 </wgt>
<wgt id='1748'> +3.2072887e+02 </wgt>
<wgt id='1749'> +3.2070417e+02 </wgt>
<wgt id='1750'> +3.2041167e+02 </wgt>
<wgt id='1751'> +3.2012617e+02 </wgt>
<wgt id='1752'> +3.2046814e+02 </wgt>
<wgt id='1753'> +3.2033892e+02 </wgt>
<wgt id='1754'> +3.2034633e+02 </wgt>
<wgt id='1755'> +3.2047455e+02 </wgt>
<wgt id='1756'> +3.2063105e+02 </wgt>
<wgt id='1757'> +3.2022059e+02 </wgt>
<wgt id='1758'> +3.2052696e+02 </wgt>
<wgt id='1759'> +3.2080681e+02 </wgt>
<wgt id='1760'> +3.2032365e+02 </wgt>
<wgt id='1761'> +3.2072248e+02 </wgt>
<wgt id='1762'> +3.2049556e+02 </wgt>
<wgt id='1763'> +3.2078480e+02 </wgt>
<wgt id='1764'> +3.2080078e+02 </wgt>
<wgt id='1765'> +3.2066655e+02 </wgt>
<wgt id='1766'> +3.2105019e+02 </wgt>
<wgt id='1767'> +3.2078261e+02 </wgt>
<wgt id='1768'> +3.2062822e+02 </wgt>
<wgt id='1769'> +3.2066876e+02 </wgt>
<wgt id='1770'> +3.2045080e+02 </wgt>
<wgt id='1771'> +3.2036684e+02 </wgt>
<wgt id='1772'> +3.2041943e+02 </wgt>
<wgt id='1773'> +3.2044858e+02 </wgt>
<wgt id='1774'> +3.2050723e+02 </wgt>
<wgt id='1775'> +3.2040524e+02 </wgt>
<wgt id='1776'> +3.2041966e+02 </wgt>
<wgt id='1777'> +3.2068228e+02 </wgt>
<wgt id='1778'> +3.2054093e+02 </wgt>
<wgt id='1779'> +3.2056344e+02 </wgt>
<wgt id='1780'> +3.2054952e+02 </wgt>
<wgt id='1781'> +2.9654077e+02 </wgt>
<wgt id='1782'> +3.4871747e+02 </wgt>
<wgt id='1783'> +3.2679957e+02 </wgt>
<wgt id='1784'> +3.3091987e+02 </wgt>
<wgt id='1785'> +3.2190514e+02 </wgt>
<wgt id='1786'> +3.3424153e+02 </wgt>
<wgt id='1787'> +3.3230871e+02 </wgt>
<wgt id='1788'> +3.3165250e+02 </wgt>
<wgt id='1789'> +3.2943719e+02 </wgt>
<wgt id='1790'> +3.2254606e+02 </wgt>
<wgt id='1791'> +3.2409540e+02 </wgt>
<wgt id='1792'> +3.3007230e+02 </wgt>
<wgt id='1793'> +3.3141731e+02 </wgt>
<wgt id='1794'> +3.2183915e+02 </wgt>
<wgt id='1795'> +3.3172320e+02 </wgt>
<wgt id='1796'> +3.3894062e+02 </wgt>
<wgt id='1797'> +3.2802588e+02 </wgt>
<wgt id='1798'> +3.2009191e+02 </wgt>
<wgt id='1799'> +3.2007153e+02 </wgt>
<wgt id='1800'> +3.2841009e+02 </wgt>
<wgt id='1801'> +3.3174776e+02 </wgt>
<wgt id='1802'> +3.2814890e+02 </wgt>
<wgt id='1803'> +3.2321996e+02 </wgt>
<wgt id='1804'> +3.1473422e+02 </wgt>
<wgt id='1805'> +3.2822104e+02 </wgt>
<wgt id='1806'> +3.1789625e+02 </wgt>
<wgt id='1807'> +3.2420741e+02 </wgt>
<wgt id='1808'> +3.2619858e+02 </wgt>
<wgt id='1809'> +3.2369293e+02 </wgt>
<wgt id='1810'> +3.2794584e+02 </wgt>
<wgt id='1811'> +3.2856961e+02 </wgt>
<wgt id='1812'> +3.2911939e+02 </wgt>
<wgt id='1813'> +3.2856412e+02 </wgt>
<wgt id='1814'> +3.2666819e+02 </wgt>
<wgt id='1815'> +3.2780916e+02 </wgt>
<wgt id='1816'> +3.2963715e+02 </wgt>
<wgt id='1817'> +3.2771453e+02 </wgt>
<wgt id='1818'> +3.2822478e+02 </wgt>
<wgt id='1819'> +3.2736026e+02 </wgt>
<wgt id='1820'> +3.2684651e+02 </wgt>
<wgt id='1821'> +3.2696362e+02 </wgt>
<wgt id='1822'> +3.2781900e+02 </wgt>
<wgt id='1823'> +3.2569492e+02 </wgt>
<wgt id='1824'> +3.2733350e+02 </wgt>
<wgt id='1825'> +3.2775985e+02 </wgt>
<wgt id='1826'> +3.2641846e+02 </wgt>
<wgt id='1827'> +3.2617381e+02 </wgt>
<wgt id='1828'> +3.2745797e+02 </wgt>
<wgt id='1829'> +3.2541046e+02 </wgt>
<wgt id='1830'> +3.2626023e+02 </wgt>
<wgt id='1831'> +3.2712401e+02 </wgt>
<wgt id='1832'> +3.2653215e+02 </wgt>
<wgt id='1833'> +3.2690337e+02 </wgt>
<wgt id='1834'> +3.2697564e+02 </wgt>
<wgt id='1835'> +3.2741355e+02 </wgt>
<wgt id='1836'> +3.2700293e+02 </wgt>
<wgt id='1837'> +3.2608720e+02 </wgt>
<wgt id='1838'> +3.2697395e+02 </wgt>
<wgt id='1839'> +3.2699818e+02 </wgt>
<wgt id='1840'> +3.2691488e+02 </wgt>
<wgt id='1841'> +3.2654335e+02 </wgt>
<wgt id='1842'> +3.2675202e+02 </wgt>
<wgt id='1843'> +3.2722971e+02 </wgt>
<wgt id='1844'> +3.2666156e+02 </wgt>
<wgt id='1845'> +3.2683516e+02 </wgt>
<wgt id='1846'> +3.2688096e+02 </wgt>
<wgt id='1847'> +3.2704017e+02 </wgt>
<wgt id='1848'> +3.2616761e+02 </wgt>
<wgt id='1849'> +3.2648363e+02 </wgt>
<wgt id='1850'> +3.2645654e+02 </wgt>
<wgt id='1851'> +3.2683919e+02 </wgt>
<wgt id='1852'> +3.2711245e+02 </wgt>
<wgt id='1853'> +3.2665467e+02 </wgt>
<wgt id='1854'> +3.2686619e+02 </wgt>
<wgt id='1855'> +3.2693895e+02 </wgt>
<wgt id='1856'> +3.2668327e+02 </wgt>
<wgt id='1857'> +3.2692162e+02 </wgt>
<wgt id='1858'> +3.2703788e+02 </wgt>
<wgt id='1859'> +3.2691654e+02 </wgt>
<wgt id='1860'> +3.2684516e+02 </wgt>
<wgt id='1861'> +3.2698143e+02 </wgt>
<wgt id='1862'> +3.2676082e+02 </wgt>
<wgt id='1863'> +3.2726563e+02 </wgt>
<wgt id='1864'> +3.2692315e+02 </wgt>
<wgt id='1865'> +3.2689769e+02 </wgt>
<wgt id='1866'> +3.2674008e+02 </wgt>
<wgt id='1867'> +3.2652011e+02 </wgt>
<wgt id='1868'> +3.2647987e+02 </wgt>
<wgt id='1869'> +3.2699964e+02 </wgt>
<wgt id='1870'> +3.2632945e+02 </wgt>
<wgt id='1871'> +3.2655795e+02 </wgt>
<wgt id='1872'> +3.2665767e+02 </wgt>
<wgt id='1873'> +3.2689606e+02 </wgt>
<wgt id='1874'> +3.2674542e+02 </wgt>
<wgt id='1875'> +3.2666262e+02 </wgt>
<wgt id='1876'> +3.2671595e+02 </wgt>
<wgt id='1877'> +3.2652131e+02 </wgt>
<wgt id='1878'> +3.2663378e+02 </wgt>
<wgt id='1879'> +3.2678051e+02 </wgt>
<wgt id='1880'> +3.2692747e+02 </wgt>
<wgt id='1881'> +3.2686242e+02 </wgt>
<wgt id='1882'> +3.2671358e+02 </wgt>
<wgt id='1883'> +3.2670470e+02 </wgt>
<wgt id='1884'> +2.9891775e+02 </wgt>
<wgt id='1885'> +3.5778647e+02 </wgt>
<wgt id='1886'> +3.2058528e+02 </wgt>
<wgt id='1887'> +3.1533100e+02 </wgt>
<wgt id='1888'> +3.1465325e+02 </wgt>
<wgt id='1889'> +3.1936205e+02 </wgt>
<wgt id='1890'> +3.2591687e+02 </wgt>
<wgt id='1891'> +3.1002141e+02 </wgt>
<wgt id='1892'> +3.1239411e+02 </wgt>
<wgt id='1893'> +3.2014063e+02 </wgt>
<wgt id='1894'> +3.1611973e+02 </wgt>
<wgt id='1895'> +3.1865716e+02 </wgt>
<wgt id='1896'> +3.1865183e+02 </wgt>
<wgt id='1897'> +3.1609241e+02 </wgt>
<wgt id='1898'> +3.1709121e+02 </wgt>
<wgt id='1899'> +3.2153625e+02 </wgt>
<wgt id='1900'> +3.2104667e+02 </wgt>
<wgt id='1901'> +3.2249427e+02 </wgt>
<wgt id='1902'> +3.2179939e+02 </wgt>
<wgt id='1903'> +3.2385177e+02 </wgt>
<wgt id='1904'> +3.2211698e+02 </wgt>
<wgt id='1905'> +3.0908489e+02 </wgt>
<wgt id='1906'> +3.2142877e+02 </wgt>
<wgt id='1907'> +3.1963913e+02 </wgt>
<wgt id='1908'> +3.2873510e+02 </wgt>
<wgt id='1909'> +3.2047525e+02 </wgt>
<wgt id='1910'> +3.2042111e+02 </wgt>
<wgt id='1911'> +3.2016718e+02 </wgt>
<wgt id='1912'> +3.1921715e+02 </wgt>
<wgt id='1913'> +3.1985286e+02 </wgt>
<wgt id='1914'> +3.1786668e+02 </wgt>
<wgt id='1915'> +3.2075366e+02 </wgt>
<wgt id='1916'> +3.2093815e+02 </wgt>
<wgt id='1917'> +2.9654077e+02 </wgt>
<wgt id='1918'> +3.4871747e+02 </wgt>
<wgt id='1919'> +3.2679043e+02 </wgt>
<wgt id='1920'> +3.2608180e+02 </wgt>
<wgt id='1921'> +3.2222284e+02 </wgt>
<wgt id='1922'> +3.2841646e+02 </wgt>
<wgt id='1923'> +3.1382956e+02 </wgt>
<wgt id='1924'> +3.4348895e+02 </wgt>
<wgt id='1925'> +3.2758497e+02 </wgt>
<wgt id='1926'> +3.2898716e+02 </wgt>
<wgt id='1927'> +3.2895191e+02 </wgt>
<wgt id='1928'> +3.2874535e+02 </wgt>
<wgt id='1929'> +3.2209980e+02 </wgt>
<wgt id='1930'> +3.2580444e+02 </wgt>
<wgt id='1931'> +3.2418841e+02 </wgt>
<wgt id='1932'> +3.2531562e+02 </wgt>
<wgt id='1933'> +3.2529848e+02 </wgt>
<wgt id='1934'> +3.2284818e+02 </wgt>
<wgt id='1935'> +3.2837812e+02 </wgt>
<wgt id='1936'> +3.2789805e+02 </wgt>
<wgt id='1937'> +3.2703490e+02 </wgt>
<wgt id='1938'> +3.3019686e+02 </wgt>
<wgt id='1939'> +3.2414275e+02 </wgt>
<wgt id='1940'> +3.2791093e+02 </wgt>
<wgt id='1941'> +3.2168797e+02 </wgt>
<wgt id='1942'> +3.2797971e+02 </wgt>
<wgt id='1943'> +3.2325670e+02 </wgt>
<wgt id='1944'> +3.2520578e+02 </wgt>
<wgt id='1945'> +3.2671308e+02 </wgt>
<wgt id='1946'> +3.3032391e+02 </wgt>
<wgt id='1947'> +3.2561886e+02 </wgt>
<wgt id='1948'> +3.1401758e+02 </wgt>
<wgt id='1949'> +3.2717070e+02 </wgt>
<wgt id='1950'> +2.9891775e+02 </wgt>
<wgt id='1951'> +3.5778647e+02 </wgt>
<wgt id='1952'> +2.0701567e+02 </wgt>
<wgt id='1953'> +2.0714027e+02 </wgt>
<wgt id='1954'> +2.0689145e+02 </wgt>
<wgt id='1955'> +2.0668650e+02 </wgt>
<wgt id='1956'> +2.0734432e+02 </wgt>
<wgt id='1957'> +2.0709167e+02 </wgt>
<wgt id='1958'> +2.0693936e+02 </wgt>
<wgt id='1959'> +2.0724633e+02 </wgt>
<wgt id='1960'> +2.0677796e+02 </wgt>
<wgt id='1961'> +2.0664706e+02 </wgt>
<wgt id='1962'> +2.0740203e+02 </wgt>
<wgt id='1963'> +2.0610154e+02 </wgt>
<wgt id='1964'> +2.0804806e+02 </wgt>
<wgt id='1965'> +2.0761915e+02 </wgt>
<wgt id='1966'> +2.0641397e+02 </wgt>
<wgt id='1967'> +2.0857358e+02 </wgt>
<wgt id='1968'> +2.0541533e+02 </wgt>
<wgt id='1969'> +2.0769086e+02 </wgt>
<wgt id='1970'> +2.0663183e+02 </wgt>
<wgt id='1971'> +2.1112799e+02 </wgt>
<wgt id='1972'> +2.0306696e+02 </wgt>
<wgt id='1973'> +2.0737089e+02 </wgt>
<wgt id='1974'> +2.0679340e+02 </wgt>
<wgt id='1975'> +2.0369115e+02 </wgt>
<wgt id='1976'> +2.1110911e+02 </wgt>
<wgt id='1977'> +2.0274444e+02 </wgt>
<wgt id='1978'> +2.1136352e+02 </wgt>
<wgt id='1979'> +2.1218801e+02 </wgt>
<wgt id='1980'> +2.0253484e+02 </wgt>
<wgt id='1981'> +2.0701567e+02 </wgt>
<wgt id='1982'> +2.1015716e+02 </wgt>
<wgt id='1983'> +2.0295355e+02 </wgt>
<wgt id='1984'> +2.1044507e+02 </wgt>
<wgt id='1985'> +2.0427083e+02 </wgt>
<wgt id='1986'> +2.0063885e+02 </wgt>
<wgt id='1987'> +2.2082353e+02 </wgt>
<wgt id='1988'> +2.0808715e+02 </wgt>
<wgt id='1989'> +2.0640978e+02 </wgt>
<wgt id='1990'> +2.0919634e+02 </wgt>
<wgt id='1991'> +2.0504728e+02 </wgt>
<wgt id='1992'> +2.0620184e+02 </wgt>
<wgt id='1993'> +2.0653376e+02 </wgt>
<wgt id='1994'> +2.1061633e+02 </wgt>
<wgt id='1995'> +2.8555293e+02 </wgt>
<wgt id='1996'> +2.8559856e+02 </wgt>
<wgt id='1997'> +2.8545758e+02 </wgt>
<wgt id='1998'> +2.8492860e+02 </wgt>
<wgt id='1999'> +2.8612897e+02 </wgt>
<wgt id='2000'> +2.8564891e+02 </wgt>
<wgt id='2001'> +2.8540670e+02 </wgt>
<wgt id='2002'> +2.8599991e+02 </wgt>
<wgt id='2003'> +2.8505452e+02 </wgt>
<wgt id='2004'> +2.8389706e+02 </wgt>
<wgt id='2005'> +2.8720413e+02 </wgt>
<wgt id='2006'> +2.8637031e+02 </wgt>
<wgt id='2007'> +2.8472717e+02 </wgt>
<wgt id='2008'> +2.8583787e+02 </wgt>
<wgt id='2009'> +2.8519898e+02 </wgt>
<wgt id='2010'> +2.8705214e+02 </wgt>
<wgt id='2011'> +2.8345059e+02 </wgt>
<wgt id='2012'> +2.8354213e+02 </wgt>
<wgt id='2013'> +2.8761655e+02 </wgt>
<wgt id='2014'> +2.8979248e+02 </wgt>
<wgt id='2015'> +2.8144974e+02 </wgt>
<wgt id='2016'> +2.9590537e+02 </wgt>
<wgt id='2017'> +2.7610898e+02 </wgt>
<wgt id='2018'> +2.7657846e+02 </wgt>
<wgt id='2019'> +2.9490540e+02 </wgt>
<wgt id='2020'> +2.7585455e+02 </wgt>
<wgt id='2021'> +2.9541282e+02 </wgt>
<wgt id='2022'> +2.8083322e+02 </wgt>
<wgt id='2023'> +2.9035101e+02 </wgt>
<wgt id='2024'> +2.8523493e+02 </wgt>
<wgt id='2025'> +2.8891871e+02 </wgt>
<wgt id='2026'> +2.7770014e+02 </wgt>
<wgt id='2027'> +2.8973923e+02 </wgt>
<wgt id='2028'> +2.8283166e+02 </wgt>
<wgt id='2029'> +2.6107065e+02 </wgt>
<wgt id='2030'> +3.0091059e+02 </wgt>
<wgt id='2031'> +2.8644482e+02 </wgt>
<wgt id='2032'> +2.8420021e+02 </wgt>
<wgt id='2033'> +2.8996731e+02 </wgt>
<wgt id='2034'> +2.5846858e+02 </wgt>
<wgt id='2035'> +2.8921152e+02 </wgt>
<wgt id='2036'> +2.8051169e+02 </wgt>
<wgt id='2037'> +2.9904442e+02 </wgt>
<wgt id='2038'> +3.3519690e+02 </wgt>
<wgt id='2039'> +3.3513640e+02 </wgt>
<wgt id='2040'> +3.3507537e+02 </wgt>
<wgt id='2041'> +3.3501468e+02 </wgt>
<wgt id='2042'> +3.3495432e+02 </wgt>
<wgt id='2043'> +3.3489382e+02 </wgt>
<wgt id='2044'> +3.3483249e+02 </wgt>
<wgt id='2045'> +3.3477175e+02 </wgt>
<wgt id='2046'> +3.3471113e+02 </wgt>
<wgt id='2047'> +3.3465016e+02 </wgt>
<wgt id='2048'> +3.3458940e+02 </wgt>
<wgt id='2049'> +3.3452912e+02 </wgt>
<wgt id='2050'> +3.3446861e+02 </wgt>
<wgt id='2051'> +3.3440685e+02 </wgt>
<wgt id='2052'> +3.3434649e+02 </wgt>
<wgt id='2053'> +3.3428567e+02 </wgt>
<wgt id='2054'> +3.3422494e+02 </wgt>
<wgt id='2055'> +3.3416417e+02 </wgt>
<wgt id='2056'> +3.3410348e+02 </wgt>
<wgt id='2057'> +3.3404304e+02 </wgt>
<wgt id='2058'> +3.3398161e+02 </wgt>
<wgt id='2059'> +3.3392127e+02 </wgt>
<wgt id='2060'> +3.3386059e+02 </wgt>
<wgt id='2061'> +3.3379980e+02 </wgt>
<wgt id='2062'> +3.3373907e+02 </wgt>
<wgt id='2063'> +3.3367836e+02 </wgt>
<wgt id='2064'> +3.3361777e+02 </wgt>
<wgt id='2065'> +3.3355660e+02 </wgt>
<wgt id='2066'> +3.3349625e+02 </wgt>
<wgt id='2067'> +3.3343558e+02 </wgt>
<wgt id='2068'> +3.3337434e+02 </wgt>
<wgt id='2069'> +3.2454185e+02 </wgt>
<wgt id='2070'> +3.2862963e+02 </wgt>
<wgt id='2071'> +3.1967527e+02 </wgt>
<wgt id='2072'> +3.3193965e+02 </wgt>
<wgt id='2073'> +3.3001562e+02 </wgt>
<wgt id='2074'> +3.2936862e+02 </wgt>
<wgt id='2075'> +3.2716936e+02 </wgt>
<wgt id='2076'> +3.2031939e+02 </wgt>
<wgt id='2077'> +3.2185528e+02 </wgt>
<wgt id='2078'> +3.2779714e+02 </wgt>
<wgt id='2079'> +3.2912620e+02 </wgt>
<wgt id='2080'> +3.1962621e+02 </wgt>
<wgt id='2081'> +3.2942872e+02 </wgt>
<wgt id='2082'> +3.3660376e+02 </wgt>
<wgt id='2083'> +3.2574831e+02 </wgt>
<wgt id='2084'> +3.1786036e+02 </wgt>
<wgt id='2085'> +3.1786622e+02 </wgt>
<wgt id='2086'> +3.2613980e+02 </wgt>
<wgt id='2087'> +3.2945384e+02 </wgt>
<wgt id='2088'> +3.2588496e+02 </wgt>
<wgt id='2089'> +3.2099994e+02 </wgt>
<wgt id='2090'> +3.1255053e+02 </wgt>
<wgt id='2091'> +3.2595533e+02 </wgt>
<wgt id='2092'> +3.1569396e+02 </wgt>
<wgt id='2093'> +3.2195965e+02 </wgt>
<wgt id='2094'> +3.2394137e+02 </wgt>
<wgt id='2095'> +3.2145212e+02 </wgt>
<wgt id='2096'> +3.2568094e+02 </wgt>
<wgt id='2097'> +3.2630324e+02 </wgt>
<wgt id='2098'> +3.2684956e+02 </wgt>
<wgt id='2099'> +3.2629360e+02 </wgt>
<wgt id='2100'> +3.2441804e+02 </wgt>
<wgt id='2101'> +3.2554574e+02 </wgt>
<wgt id='2102'> +3.2736197e+02 </wgt>
<wgt id='2103'> +3.2545198e+02 </wgt>
<wgt id='2104'> +3.2595710e+02 </wgt>
<wgt id='2105'> +3.2509807e+02 </wgt>
<wgt id='2106'> +3.2458940e+02 </wgt>
<wgt id='2107'> +3.2470586e+02 </wgt>
<wgt id='2108'> +3.2555092e+02 </wgt>
<wgt id='2109'> +3.2344802e+02 </wgt>
<wgt id='2110'> +3.2507109e+02 </wgt>
<wgt id='2111'> +3.2549326e+02 </wgt>
<wgt id='2112'> +3.2416551e+02 </wgt>
<wgt id='2113'> +3.2391787e+02 </wgt>
<wgt id='2114'> +3.2518682e+02 </wgt>
<wgt id='2115'> +3.2316491e+02 </wgt>
<wgt id='2116'> +3.2400377e+02 </wgt>
<wgt id='2117'> +3.2486414e+02 </wgt>
<wgt id='2118'> +3.2427670e+02 </wgt>
<wgt id='2119'> +3.2464644e+02 </wgt>
<wgt id='2120'> +3.2471612e+02 </wgt>
<wgt id='2121'> +3.2514575e+02 </wgt>
<wgt id='2122'> +3.2474951e+02 </wgt>
<wgt id='2123'> +3.2383413e+02 </wgt>
<wgt id='2124'> +3.2471124e+02 </wgt>
<wgt id='2125'> +3.2473832e+02 </wgt>
<wgt id='2126'> +3.2464921e+02 </wgt>
<wgt id='2127'> +3.2429100e+02 </wgt>
<wgt id='2128'> +3.2449259e+02 </wgt>
<wgt id='2129'> +3.2496216e+02 </wgt>
<wgt id='2130'> +3.2440654e+02 </wgt>
<wgt id='2131'> +3.2458067e+02 </wgt>
<wgt id='2132'> +3.2462217e+02 </wgt>
<wgt id='2133'> +3.2478851e+02 </wgt>
<wgt id='2134'> +3.2391845e+02 </wgt>
<wgt id='2135'> +3.2422736e+02 </wgt>
<wgt id='2136'> +3.2420222e+02 </wgt>
<wgt id='2137'> +3.2458327e+02 </wgt>
<wgt id='2138'> +3.2484900e+02 </wgt>
<wgt id='2139'> +3.2439507e+02 </wgt>
<wgt id='2140'> +3.2461254e+02 </wgt>
<wgt id='2141'> +3.2467976e+02 </wgt>
<wgt id='2142'> +3.2442294e+02 </wgt>
<wgt id='2143'> +3.2466323e+02 </wgt>
<wgt id='2144'> +3.2477795e+02 </wgt>
<wgt id='2145'> +3.2466249e+02 </wgt>
<wgt id='2146'> +3.2458623e+02 </wgt>
<wgt id='2147'> +3.2472380e+02 </wgt>
<wgt id='2148'> +3.2450129e+02 </wgt>
<wgt id='2149'> +3.2499974e+02 </wgt>
<wgt id='2150'> +3.2466162e+02 </wgt>
<wgt id='2151'> +3.2463835e+02 </wgt>
<wgt id='2152'> +3.2448091e+02 </wgt>
<wgt id='2153'> +3.2425955e+02 </wgt>
<wgt id='2154'> +3.2422475e+02 </wgt>
<wgt id='2155'> +3.2473996e+02 </wgt>
<wgt id='2156'> +3.2407575e+02 </wgt>
<wgt id='2157'> +3.2429793e+02 </wgt>
<wgt id='2158'> +3.2439873e+02 </wgt>
<wgt id='2159'> +3.2463598e+02 </wgt>
<wgt id='2160'> +3.2448963e+02 </wgt>
<wgt id='2161'> +3.2440601e+02 </wgt>
<wgt id='2162'> +3.2446087e+02 </wgt>
<wgt id='2163'> +3.2426718e+02 </wgt>
<wgt id='2164'> +3.2438293e+02 </wgt>
<wgt id='2165'> +3.2452091e+02 </wgt>
<wgt id='2166'> +3.2466710e+02 </wgt>
<wgt id='2167'> +3.2460329e+02 </wgt>
<wgt id='2168'> +3.2445513e+02 </wgt>
<wgt id='2169'> +3.2445204e+02 </wgt>
<wgt id='2170'> +3.2453958e+02 </wgt>
<wgt id='2171'> +3.2452703e+02 </wgt>
<wgt id='2172'> +3.2454420e+02 </wgt>
<wgt id='2173'> +3.2454459e+02 </wgt>
<wgt id='2174'> +3.2454872e+02 </wgt>
<wgt id='2175'> +3.2454286e+02 </wgt>
<wgt id='2176'> +3.2453197e+02 </wgt>
<wgt id='2177'> +3.1574715e+02 </wgt>
<wgt id='2178'> +3.0727826e+02 </wgt>
<wgt id='2179'> +3.2305773e+02 </wgt>
<wgt id='2180'> +2.8236196e+02 </wgt>
<wgt id='2181'> +3.0948388e+02 </wgt>
<wgt id='2182'> +3.0826945e+02 </wgt>
<wgt id='2183'> +3.2486477e+02 </wgt>
<wgt id='2184'> +3.1733191e+02 </wgt>
<wgt id='2185'> +3.1399872e+02 </wgt>
<wgt id='2186'> +3.0236174e+02 </wgt>
<wgt id='2187'> +2.7983570e+02 </wgt>
<wgt id='2188'> +3.4662290e+02 </wgt>
<wgt id='2189'> +3.1137852e+02 </wgt>
<wgt id='2190'> +3.3530299e+02 </wgt>
<wgt id='2191'> +3.4431035e+02 </wgt>
<wgt id='2192'> +3.3389264e+02 </wgt>
<wgt id='2193'> +3.0498850e+02 </wgt>
<wgt id='2194'> +3.4915541e+02 </wgt>
<wgt id='2195'> +3.1725735e+02 </wgt>
<wgt id='2196'> +3.1887671e+02 </wgt>
<wgt id='2197'> +3.0112235e+02 </wgt>
<wgt id='2198'> +3.2155631e+02 </wgt>
<wgt id='2199'> +2.9219568e+02 </wgt>
<wgt id='2200'> +2.8855623e+02 </wgt>
<wgt id='2201'> +2.7475128e+02 </wgt>
<wgt id='2202'> +3.1904697e+02 </wgt>
<wgt id='2203'> +3.1267394e+02 </wgt>
<wgt id='2204'> +3.5056907e+02 </wgt>
<wgt id='2205'> +3.5251614e+02 </wgt>
<wgt id='2206'> +3.2370448e+02 </wgt>
<wgt id='2207'> +3.0149886e+02 </wgt>
<wgt id='2208'> +3.0736242e+02 </wgt>
<wgt id='2209'> +3.2045346e+02 </wgt>
<wgt id='2210'> +3.1161204e+02 </wgt>
<wgt id='2211'> +3.0429933e+02 </wgt>
<wgt id='2212'> +3.1595180e+02 </wgt>
<wgt id='2213'> +3.1269098e+02 </wgt>
<wgt id='2214'> +3.3759664e+02 </wgt>
<wgt id='2215'> +3.0768265e+02 </wgt>
<wgt id='2216'> +3.1526132e+02 </wgt>
<wgt id='2217'> +3.0587373e+02 </wgt>
<wgt id='2218'> +3.1564027e+02 </wgt>
<wgt id='2219'> +3.2870075e+02 </wgt>
<wgt id='2220'> +2.8586138e+02 </wgt>
<wgt id='2221'> +2.8237088e+02 </wgt>
<wgt id='2222'> +2.8568678e+02 </wgt>
<wgt id='2223'> +2.9071493e+02 </wgt>
<wgt id='2224'> +3.2406005e+02 </wgt>
<wgt id='2225'> +3.2408742e+02 </wgt>
<wgt id='2226'> +3.2127767e+02 </wgt>
<wgt id='2227'> +3.1883963e+02 </wgt>
<wgt id='2228'> +3.1114794e+02 </wgt>
<wgt id='2229'> +2.9207493e+02 </wgt>
<wgt id='2230'> +3.1292604e+02 </wgt>
<wgt id='2231'> +3.3305846e+02 </wgt>
<wgt id='2232'> +3.1299765e+02 </wgt>
<wgt id='2233'> +3.3100091e+02 </wgt>
<wgt id='2234'> +3.2164037e+02 </wgt>
<wgt id='2235'> +3.2103266e+02 </wgt>
<wgt id='2236'> +3.1898012e+02 </wgt>
<wgt id='2237'> +3.1189688e+02 </wgt>
<wgt id='2238'> +3.2634329e+02 </wgt>
<wgt id='2239'> +2.9746715e+02 </wgt>
<wgt id='2240'> +3.3365917e+02 </wgt>
<wgt id='2241'> +3.2548204e+02 </wgt>
<wgt id='2242'> +2.9457597e+02 </wgt>
<wgt id='2243'> +3.1626331e+02 </wgt>
<wgt id='2244'> +2.9714806e+02 </wgt>
<wgt id='2245'> +3.2565454e+02 </wgt>
<wgt id='2246'> +3.3217910e+02 </wgt>
<wgt id='2247'> +3.2422705e+02 </wgt>
<wgt id='2248'> +2.9063528e+02 </wgt>
<wgt id='2249'> +3.1894781e+02 </wgt>
<wgt id='2250'> +3.2888096e+02 </wgt>
<wgt id='2251'> +3.3097103e+02 </wgt>
<wgt id='2252'> +3.2638328e+02 </wgt>
<wgt id='2253'> +2.9194969e+02 </wgt>
<wgt id='2254'> +3.0684700e+02 </wgt>
<wgt id='2255'> +3.3204940e+02 </wgt>
<wgt id='2256'> +3.1757948e+02 </wgt>
<wgt id='2257'> +3.1953219e+02 </wgt>
<wgt id='2258'> +3.1203800e+02 </wgt>
<wgt id='2259'> +3.1514350e+02 </wgt>
<wgt id='2260'> +3.3496590e+02 </wgt>
<wgt id='2261'> +3.1909330e+02 </wgt>
<wgt id='2262'> +3.2138930e+02 </wgt>
<wgt id='2263'> +3.2622426e+02 </wgt>
<wgt id='2264'> +3.2009601e+02 </wgt>
<wgt id='2265'> +3.2832462e+02 </wgt>
<wgt id='2266'> +3.2350522e+02 </wgt>
<wgt id='2267'> +3.1803875e+02 </wgt>
<wgt id='2268'> +3.1789813e+02 </wgt>
<wgt id='2269'> +2.9215253e+02 </wgt>
<wgt id='2270'> +3.2982088e+02 </wgt>
<wgt id='2271'> +3.2026823e+02 </wgt>
<wgt id='2272'> +3.5113693e+02 </wgt>
<wgt id='2273'> +3.1596390e+02 </wgt>
<wgt id='2274'> +3.0490835e+02 </wgt>
<wgt id='2275'> +2.8872146e+02 </wgt>
<wgt id='2276'> +3.2789514e+02 </wgt>
<wgt id='2277'> +3.1745095e+02 </wgt>
<wgt id='2278'> +2.9654340e+02 </wgt>
<wgt id='2279'> +3.3172608e+02 </wgt>
<wgt id='2280'> +3.0533529e+02 </wgt>
<wgt id='2281'> +2.6856565e+02 </wgt>
<wgt id='2282'> +4.5167021e+02 </wgt>
<wgt id='2283'> +2.8223798e+02 </wgt>
<wgt id='2284'> +4.3441818e+02 </wgt>
</rwgt>
</event>
<event npLO=" -1 " npNLO=" 2 ">
 5      2 -2.8781417e+02 1.08040080e+01 7.54677110e-03 1.24479910e-01
       21 -1    0    0  504  501 +0.0000000000e+00 +0.0000000000e+00 +2.8399478000e+01 2.8399478000e+01 0.0000000000e+00 0.0000e+00 9.0000e+00
       21 -1    0    0  503  502 +0.0000000000e+00 +0.0000000000e+00 -5.8184791000e+02 5.8184791000e+02 0.0000000000e+00 0.0000e+00 9.0000e+00
       25  1    1    2    0    0 -3.5124981000e-01 -8.5641711000e+01 -1.8301602000e+02 2.2545396000e+02 1.0000000000e+02 0.0000e+00 9.0000e+00
       21  1    1    2  503  501 -9.3653404000e+00 +9.0365529000e+01 -3.5092327000e+02 3.6249245000e+02 0.0000000000e+00 0.0000e+00 9.0000e+00
       21  1    1    2  504  502 +9.7165902000e+00 -4.7238177000e+00 -1.9509137000e+01 2.2300964000e+01 0.0000000000e+00 0.0000e+00 9.0000e+00
#aMCatNLO 1  0  0  0  0 0.00000000E+00 0.00000000E+00 -9  6  0 0.00000000E+00 0.00000000E+00 0.00000000E+00 0.00000000E+00 0.00000000E+00
<rwgt>
<wgt id='1001'> -2.8781417e+02 </wgt>
<wgt id='1002'> -1.7042767e+02 </wgt>
<wgt id='1003'> -5.1866712e+02 </wgt>
<wgt id='1004'> -2.8679170e+02 </wgt>
<wgt id='1005'> -1.6982222e+02 </wgt>
<wgt id='1006'> -5.1682454e+02 </wgt>
<wgt id='1007'> -2.8333674e+02 </wgt>
<wgt id='1008'> -1.6777638e+02 </wgt>
<wgt id='1009'> -5.1059838e+02 </wgt>
<wgt id='1010'> -2.8781417e+02 </wgt>
<wgt id='1011'> -2.8740963e+02 </wgt>
<wgt id='1012'> -2.8748493e+02 </wgt>
<wgt id='1013'> -2.8932593e+02 </wgt>
<wgt id='1014'> -2.8827159e+02 </wgt>
<wgt id='1015'> -2.8768801e+02 </wgt>
<wgt id='1016'> -2.8814979e+02 </wgt>
<wgt id='1017'> -2.8804601e+02 </wgt>
<wgt id='1018'> -2.8782487e+02 </wgt>
<wgt id='1019'> -2.8784055e+02 </wgt>
<wgt id='1020'> -2.8806881e+02 </wgt>
<wgt id='1021'> -2.8859953e+02 </wgt>
<wgt id='1022'> -2.8727728e+02 </wgt>
<wgt id='1023'> -2.8773112e+02 </wgt>
<wgt id='1024'> -2.8751979e+02 </wgt>
<wgt id='1025'> -2.8795167e+02 </wgt>
<wgt id='1026'> -2.8748780e+02 </wgt>
<wgt id='1027'> -2.8812169e+02 </wgt>
<wgt id='1028'> -2.8796111e+02 </wgt>
<wgt id='1029'> -2.8608319e+02 </wgt>
<wgt id='1030'> -2.8858876e+02 </wgt>
<wgt id='1031'> -2.8757866e+02 </wgt>
<wgt id='1032'> -2.8810519e+02 </wgt>
<wgt id='1033'> -2.8855605e+02 </wgt>
<wgt id='1034'> -2.8724663e+02 </wgt>
<wgt id='1035'> -2.8747554e+02 </wgt>
<wgt id='1036'> -2.8715047e+02 </wgt>
<wgt id='1037'> -2.8697276e+02 </wgt>
<wgt id='1038'> -2.8821740e+02 </wgt>
<wgt id='1039'> -2.8665195e+02 </wgt>
<wgt id='1040'> -2.8802123e+02 </wgt>
<wgt id='1041'> -2.8675988e+02 </wgt>
<wgt id='1042'> -2.8815456e+02 </wgt>
<wgt id='1043'> -2.8731752e+02 </wgt>
<wgt id='1044'> -2.8722167e+02 </wgt>
<wgt id='1045'> -2.8771680e+02 </wgt>
<wgt id='1046'> -2.8847428e+02 </wgt>
<wgt id='1047'> -2.8781686e+02 </wgt>
<wgt id='1048'> -2.8759564e+02 </wgt>
<wgt id='1049'> -2.8766524e+02 </wgt>
<wgt id='1050'> -2.8778077e+02 </wgt>
<wgt id='1051'> -2.8764701e+02 </wgt>
<wgt id='1052'> -2.8820373e+02 </wgt>
<wgt id='1053'> -2.8746983e+02 </wgt>
<wgt id='1054'> -2.8805796e+02 </wgt>
<wgt id='1055'> -2.8774915e+02 </wgt>
<wgt id='1056'> -2.8786904e+02 </wgt>
<wgt id='1057'> -2.8778132e+02 </wgt>
<wgt id='1058'> -2.8777703e+02 </wgt>
<wgt id='1059'> -2.8761568e+02 </wgt>
<wgt id='1060'> -2.8769531e+02 </wgt>
<wgt id='1061'> -2.8771670e+02 </wgt>
<wgt id='1062'> -2.8800250e+02 </wgt>
<wgt id='1063'> -2.8780072e+02 </wgt>
<wgt id='1064'> -2.8782502e+02 </wgt>
<wgt id='1065'> -2.8789641e+02 </wgt>
<wgt id='1066'> -2.8757539e+02 </wgt>
<wgt id='1067'> -2.8793372e+02 </wgt>
<wgt id='1068'> -2.8786322e+02 </wgt>
<wgt id='1069'> -2.8774680e+02 </wgt>
<wgt id='1070'> -2.8782065e+02 </wgt>
<wgt id='1071'> -2.8773312e+02 </wgt>
<wgt id='1072'> -2.8800870e+02 </wgt>
<wgt id='1073'> -2.8785929e+02 </wgt>
<wgt id='1074'> -2.8786357e+02 </wgt>
<wgt id='1075'> -2.8807223e+02 </wgt>
<wgt id='1076'> -2.8779380e+02 </wgt>
<wgt id='1077'> -2.8787960e+02 </wgt>
<wgt id='1078'> -2.8783187e+02 </wgt>
<wgt id='1079'> -2.8782638e+02 </wgt>
<wgt id='1080'> -2.8783084e+02 </wgt>
<wgt id='1081'> -2.8780797e+02 </wgt>
<wgt id='1082'> -2.8781415e+02 </wgt>
<wgt id='1083'> -2.8783949e+02 </wgt>
<wgt id='1084'> -2.8781121e+02 </wgt>
<wgt id='1085'> -2.8775379e+02 </wgt>
<wgt id='1086'> -2.8774240e+02 </wgt>
<wgt id='1087'> -2.8798799e+02 </wgt>
<wgt id='1088'> -2.8783870e+02 </wgt>
<wgt id='1089'> -2.8775958e+02 </wgt>
<wgt id='1090'> -2.8788220e+02 </wgt>
<wgt id='1091'> -2.8778328e+02 </wgt>
<wgt id='1092'> -2.8785158e+02 </wgt>
<wgt id='1093'> -2.8790232e+02 </wgt>
<wgt id='1094'> -2.8784117e+02 </wgt>
<wgt id='1095'> -2.8782632e+02 </wgt>
<wgt id='1096'> -2.8774688e+02 </wgt>
<wgt id='1097'> -2.8785740e+02 </wgt>
<wgt id='1098'> -2.8780252e+02 </wgt>
<wgt id='1099'> -2.8778542e+02 </wgt>
<wgt id='1100'> -2.8785697e+02 </wgt>
<wgt id='1101'> -2.8781081e+02 </wgt>
<wgt id='1102'> -2.8787303e+02 </wgt>
<wgt id='1103'> -2.8776136e+02 </wgt>
<wgt id='1104'> -2.8780684e+02 </wgt>
<wgt id='1105'> -2.8787342e+02 </wgt>
<wgt id='1106'> -2.8778640e+02 </wgt>
<wgt id='1107'> -2.8784907e+02 </wgt>
<wgt id='1108'> -2.8779705e+02 </wgt>
<wgt id='1109'> -2.8786275e+02 </wgt>
<wgt id='1110'> -2.8781417e+02 </wgt>
<wgt id='1111'> -2.6672381e+02 </wgt>
<wgt id='1112'> -3.1083046e+02 </wgt>
<wgt id='1113'> -2.8781417e+02 </wgt>
<wgt id='1114'> -2.8594529e+02 </wgt>
<wgt id='1115'> -2.8350724e+02 </wgt>
<wgt id='1116'> -2.7647427e+02 </wgt>
<wgt id='1117'> -2.8973119e+02 </wgt>
<wgt id='1118'> -2.9167618e+02 </wgt>
<wgt id='1119'> -2.8966730e+02 </wgt>
<wgt id='1120'> -2.8651977e+02 </wgt>
<wgt id='1121'> -2.8841277e+02 </wgt>
<wgt id='1122'> -2.8445946e+02 </wgt>
<wgt id='1123'> -2.9200062e+02 </wgt>
<wgt id='1124'> -2.8811335e+02 </wgt>
<wgt id='1125'> -2.8876322e+02 </wgt>
<wgt id='1126'> -2.8623920e+02 </wgt>
<wgt id='1127'> -2.8774540e+02 </wgt>
<wgt id='1128'> -2.8242341e+02 </wgt>
<wgt id='1129'> -2.8846396e+02 </wgt>
<wgt id='1130'> -2.9257247e+02 </wgt>
<wgt id='1131'> -2.9011532e+02 </wgt>
<wgt id='1132'> -2.8346484e+02 </wgt>
<wgt id='1133'> -2.8676954e+02 </wgt>
<wgt id='1134'> -2.7966492e+02 </wgt>
<wgt id='1135'> -2.8362177e+02 </wgt>
<wgt id='1136'> -2.8421006e+02 </wgt>
<wgt id='1137'> -2.9185813e+02 </wgt>
<wgt id='1138'> -2.8594553e+02 </wgt>
<wgt id='1139'> -2.8751626e+02 </wgt>
<wgt id='1140'> -2.8324908e+02 </wgt>
<wgt id='1141'> -2.8464624e+02 </wgt>
<wgt id='1142'> -2.8934166e+02 </wgt>
<wgt id='1143'> -2.8647835e+02 </wgt>
<wgt id='1144'> -2.8430138e+02 </wgt>
<wgt id='1145'> -2.8808165e+02 </wgt>
<wgt id='1146'> -2.8430159e+02 </wgt>
<wgt id='1147'> -2.9389390e+02 </wgt>
<wgt id='1148'> -2.8507667e+02 </wgt>
<wgt id='1149'> -2.8572485e+02 </wgt>
<wgt id='1150'> -2.8698262e+02 </wgt>
<wgt id='1151'> -2.8941385e+02 </wgt>
<wgt id='1152'> -2.8101999e+02 </wgt>
<wgt id='1153'> -2.8946870e+02 </wgt>
<wgt id='1154'> -2.8955452e+02 </wgt>
<wgt id='1155'> -2.9100110e+02 </wgt>
<wgt id='1156'> -2.9055130e+02 </wgt>
<wgt id='1157'> -2.8807171e+02 </wgt>
<wgt id='1158'> -2.8936161e+02 </wgt>
<wgt id='1159'> -2.9134996e+02 </wgt>
<wgt id='1160'> -2.8635621e+02 </wgt>
<wgt id='1161'> -2.9318487e+02 </wgt>
<wgt id='1162'> -2.8001376e+02 </wgt>
<wgt id='1163'> -2.8712164e+02 </wgt>
<wgt id='1164'> -2.8250912e+02 </wgt>
<wgt id='1165'> -2.8503229e+02 </wgt>
<wgt id='1166'> -2.8575061e+02 </wgt>
<wgt id='1167'> -2.8293819e+02 </wgt>
<wgt id='1168'> -2.9225023e+02 </wgt>
<wgt id='1169'> -2.8903909e+02 </wgt>
<wgt id='1170'> -2.8741932e+02 </wgt>
<wgt id='1171'> -2.8977278e+02 </wgt>
<wgt id='1172'> -2.8856460e+02 </wgt>
<wgt id='1173'> -2.8739791e+02 </wgt>
<wgt id='1174'> -2.8530125e+02 </wgt>
<wgt id='1175'> -2.8864075e+02 </wgt>
<wgt id='1176'> -2.9148855e+02 </wgt>
<wgt id='1177'> -2.9095620e+02 </wgt>
<wgt id='1178'> -2.8691929e+02 </wgt>
<wgt id='1179'> -2.9127911e+02 </wgt>
<wgt id='1180'> -2.8282931e+02 </wgt>
<wgt id='1181'> -2.8683473e+02 </wgt>
<wgt id='1182'> -2.8877801e+02 </wgt>
<wgt id='1183'> -2.8733878e+02 </wgt>
<wgt id='1184'> -2.8488279e+02 </wgt>
<wgt id='1185'> -2.7998698e+02 </wgt>
<wgt id='1186'> -2.9057093e+02 </wgt>
<wgt id='1187'> -2.8473770e+02 </wgt>
<wgt id='1188'> -2.9100451e+02 </wgt>
<wgt id='1189'> -2.8873577e+02 </wgt>
<wgt id='1190'> -2.9130744e+02 </wgt>
<wgt id='1191'> -2.7816698e+02 </wgt>
<wgt id='1192'> -2.8660807e+02 </wgt>
<wgt id='1193'> -2.9309570e+02 </wgt>
<wgt id='1194'> -2.8907580e+02 </wgt>
<wgt id='1195'> -2.8846396e+02 </wgt>
<wgt id='1196'> -2.8874015e+02 </wgt>
<wgt id='1197'> -2.8854487e+02 </wgt>
<wgt id='1198'> -2.8265582e+02 </wgt>
<wgt id='1199'> -2.8999433e+02 </wgt>
<wgt id='1200'> -2.8833342e+02 </wgt>
<wgt id='1201'> -2.9385914e+02 </wgt>
<wgt id='1202'> -2.9954550e+02 </wgt>
<wgt id='1203'> -2.9252749e+02 </wgt>
<wgt id='1204'> -2.8860097e+02 </wgt>
<wgt id='1205'> -2.9085619e+02 </wgt>
<wgt id='1206'> -2.9000977e+02 </wgt>
<wgt id='1207'> -2.9054271e+02 </wgt>
<wgt id='1208'> -2.9300440e+02 </wgt>
<wgt id='1209'> -2.8341049e+02 </wgt>
<wgt id='1210'> -2.9341251e+02 </wgt>
<wgt id='1211'> -2.9355700e+02 </wgt>
<wgt id='1212'> -2.8916679e+02 </wgt>
<wgt id='1213'> -2.9125564e+02 </wgt>
<wgt id='1214'> -2.8802950e+02 </wgt>
<wgt id='1215'> -2.8776858e+02 </wgt>
<wgt id='1216'> -2.8874855e+02 </wgt>
<wgt id='1217'> -2.8836194e+02 </wgt>
<wgt id='1218'> -2.8854316e+02 </wgt>
<wgt id='1219'> -2.8797088e+02 </wgt>
<wgt id='1220'> -2.8765441e+02 </wgt>
<wgt id='1221'> -2.8840866e+02 </wgt>
<wgt id='1222'> -2.8870401e+02 </wgt>
<wgt id='1223'> -2.8782202e+02 </wgt>
<wgt id='1224'> -2.8752958e+02 </wgt>
<wgt id='1225'> -2.8845887e+02 </wgt>
<wgt id='1226'> -2.8815739e+02 </wgt>
<wgt id='1227'> -2.8782628e+02 </wgt>
<wgt id='1228'> -2.8723023e+02 </wgt>
<wgt id='1229'> -2.8767685e+02 </wgt>
<wgt id='1230'> -2.8803935e+02 </wgt>
<wgt id='1231'> -2.8781369e+02 </wgt>
<wgt id='1232'> -2.8718510e+02 </wgt>
<wgt id='1233'> -2.8811711e+02 </wgt>
<wgt id='1234'> -2.8687762e+02 </wgt>
<wgt id='1235'> -2.8866805e+02 </wgt>
<wgt id='1236'> -2.8703142e+02 </wgt>
<wgt id='1237'> -2.8803918e+02 </wgt>
<wgt id='1238'> -2.8729731e+02 </wgt>
<wgt id='1239'> -2.8745124e+02 </wgt>
<wgt id='1240'> -2.8835779e+02 </wgt>
<wgt id='1241'> -2.8753069e+02 </wgt>
<wgt id='1242'> -2.8757097e+02 </wgt>
<wgt id='1243'> -2.9005204e+02 </wgt>
<wgt id='1244'> -2.8804189e+02 </wgt>
<wgt id='1245'> -2.8820524e+02 </wgt>
<wgt id='1246'> -2.8806288e+02 </wgt>
<wgt id='1247'> -2.8820298e+02 </wgt>
<wgt id='1248'> -2.8888172e+02 </wgt>
<wgt id='1249'> -2.8772767e+02 </wgt>
<wgt id='1250'> -2.8777055e+02 </wgt>
<wgt id='1251'> -2.8885657e+02 </wgt>
<wgt id='1252'> -2.8778785e+02 </wgt>
<wgt id='1253'> -2.8723996e+02 </wgt>
<wgt id='1254'> -2.8753005e+02 </wgt>
<wgt id='1255'> -2.8752615e+02 </wgt>
<wgt id='1256'> -2.8778481e+02 </wgt>
<wgt id='1257'> -2.8798987e+02 </wgt>
<wgt id='1258'> -2.8852282e+02 </wgt>
<wgt id='1259'> -2.8776352e+02 </wgt>
<wgt id='1260'> -2.8868463e+02 </wgt>
<wgt id='1261'> -2.8850609e+02 </wgt>
<wgt id='1262'> -2.8777993e+02 </wgt>
<wgt id='1263'> -2.8791881e+02 </wgt>
<wgt id='1264'> -2.8840065e+02 </wgt>
<wgt id='1265'> -2.8835673e+02 </wgt>
<wgt id='1266'> -2.8787028e+02 </wgt>
<wgt id='1267'> -2.8812064e+02 </wgt>
<wgt id='1268'> -2.8826581e+02 </wgt>
<wgt id='1269'> -2.8810465e+02 </wgt>
<wgt id='1270'> -2.8804359e+02 </wgt>
<wgt id='1271'> -2.8804770e+02 </wgt>
<wgt id='1272'> -2.8808531e+02 </wgt>
<wgt id='1273'> -2.8792488e+02 </wgt>
<wgt id='1274'> -2.8805499e+02 </wgt>
<wgt id='1275'> -2.8803663e+02 </wgt>
<wgt id='1276'> -2.8819972e+02 </wgt>
<wgt id='1277'> -2.8789533e+02 </wgt>
<wgt id='1278'> -2.8795352e+02 </wgt>
<wgt id='1279'> -2.8810187e+02 </wgt>
<wgt id='1280'> -2.8792110e+02 </wgt>
<wgt id='1281'> -2.8809959e+02 </wgt>
<wgt id='1282'> -2.8811834e+02 </wgt>
<wgt id='1283'> -2.8799977e+02 </wgt>
<wgt id='1284'> -2.8796517e+02 </wgt>
<wgt id='1285'> -2.8777184e+02 </wgt>
<wgt id='1286'> -2.8804887e+02 </wgt>
<wgt id='1287'> -2.8803923e+02 </wgt>
<wgt id='1288'> -2.8776841e+02 </wgt>
<wgt id='1289'> -2.8808640e+02 </wgt>
<wgt id='1290'> -2.8795363e+02 </wgt>
<wgt id='1291'> -2.8797665e+02 </wgt>
<wgt id='1292'> -2.8809160e+02 </wgt>
<wgt id='1293'> -2.8812284e+02 </wgt>
<wgt id='1294'> -2.8795464e+02 </wgt>
<wgt id='1295'> -2.8806198e+02 </wgt>
<wgt id='1296'> -2.8804886e+02 </wgt>
<wgt id='1297'> -2.8801765e+02 </wgt>
<wgt id='1298'> -2.8799990e+02 </wgt>
<wgt id='1299'> -2.8794101e+02 </wgt>
<wgt id='1300'> -2.8806018e+02 </wgt>
<wgt id='1301'> -2.8805147e+02 </wgt>
<wgt id='1302'> -2.8806528e+02 </wgt>
<wgt id='1303'> -2.8811989e+02 </wgt>
<wgt id='1304'> -2.8809282e+02 </wgt>
<wgt id='1305'> -2.8796467e+02 </wgt>
<wgt id='1306'> -2.8803803e+02 </wgt>
<wgt id='1307'> -2.8802306e+02 </wgt>
<wgt id='1308'> -2.8799281e+02 </wgt>
<wgt id='1309'> -2.8799487e+02 </wgt>
<wgt id='1310'> -2.8801413e+02 </wgt>
<wgt id='1311'> -2.8811753e+02 </wgt>
<wgt id='1312'> -2.8795553e+02 </wgt>
<wgt id='1313'> -2.8813063e+02 </wgt>
<wgt id='1314'> -2.8799188e+02 </wgt>
<wgt id='1315'> -2.6672381e+02 </wgt>
<wgt id='1316'> -3.1083046e+02 </wgt>
<wgt id='1317'> -1.9315792e+02 </wgt>
<wgt id='1318'> -2.1019940e+02 </wgt>
<wgt id='1319'> -2.2686190e+02 </wgt>
<wgt id='1320'> -2.4465442e+02 </wgt>
<wgt id='1321'> -2.7702924e+02 </wgt>
<wgt id='1322'> -2.9918870e+02 </wgt>
<wgt id='1323'> -3.3477787e+02 </wgt>
<wgt id='1324'> -3.5977514e+02 </wgt>
<wgt id='1325'> -2.9302501e+02 </wgt>
<wgt id='1326'> -2.9360991e+02 </wgt>
<wgt id='1327'> -2.9211743e+02 </wgt>
<wgt id='1328'> -2.9307778e+02 </wgt>
<wgt id='1329'> -2.9382146e+02 </wgt>
<wgt id='1330'> -2.9283812e+02 </wgt>
<wgt id='1331'> -2.9298520e+02 </wgt>
<wgt id='1332'> -2.9252044e+02 </wgt>
<wgt id='1333'> -2.9282762e+02 </wgt>
<wgt id='1334'> -2.9216550e+02 </wgt>
<wgt id='1335'> -2.9265446e+02 </wgt>
<wgt id='1336'> -2.9330293e+02 </wgt>
<wgt id='1337'> -2.9341061e+02 </wgt>
<wgt id='1338'> -2.9263024e+02 </wgt>
<wgt id='1339'> -2.9259880e+02 </wgt>
<wgt id='1340'> -2.9330840e+02 </wgt>
<wgt id='1341'> -2.9298659e+02 </wgt>
<wgt id='1342'> -2.9245653e+02 </wgt>
<wgt id='1343'> -2.9273762e+02 </wgt>
<wgt id='1344'> -2.9431589e+02 </wgt>
<wgt id='1345'> -2.9404082e+02 </wgt>
<wgt id='1346'> -2.9427144e+02 </wgt>
<wgt id='1347'> -2.9309069e+02 </wgt>
<wgt id='1348'> -2.9349003e+02 </wgt>
<wgt id='1349'> -2.9358884e+02 </wgt>
<wgt id='1350'> -2.9347151e+02 </wgt>
<wgt id='1351'> -2.9235613e+02 </wgt>
<wgt id='1352'> -2.9321643e+02 </wgt>
<wgt id='1353'> -2.9304299e+02 </wgt>
<wgt id='1354'> -2.9207559e+02 </wgt>
<wgt id='1355'> -2.9501017e+02 </wgt>
<wgt id='1356'> -2.9407112e+02 </wgt>
<wgt id='1357'> -2.9283332e+02 </wgt>
<wgt id='1358'> -2.9350144e+02 </wgt>
<wgt id='1359'> -2.9290867e+02 </wgt>
<wgt id='1360'> -2.9462426e+02 </wgt>
<wgt id='1361'> -2.9353706e+02 </wgt>
<wgt id='1362'> -2.9273413e+02 </wgt>
<wgt id='1363'> -2.9316002e+02 </wgt>
<wgt id='1364'> -2.9371216e+02 </wgt>
<wgt id='1365'> -2.9234335e+02 </wgt>
<wgt id='1366'> -2.9296379e+02 </wgt>
<wgt id='1367'> -2.9266292e+02 </wgt>
<wgt id='1368'> -2.9238647e+02 </wgt>
<wgt id='1369'> -2.9349197e+02 </wgt>
<wgt id='1370'> -2.9338523e+02 </wgt>
<wgt id='1371'> -2.9340354e+02 </wgt>
<wgt id='1372'> -2.9298956e+02 </wgt>
<wgt id='1373'> -2.9299011e+02 </wgt>
<wgt id='1374'> -2.9281409e+02 </wgt>
<wgt id='1375'> -2.9263225e+02 </wgt>
<wgt id='1376'> -2.9364669e+02 </wgt>
<wgt id='1377'> -2.9293520e+02 </wgt>
<wgt id='1378'> -2.9304009e+02 </wgt>
<wgt id='1379'> -2.9309601e+02 </wgt>
<wgt id='1380'> -2.9301117e+02 </wgt>
<wgt id='1381'> -2.9318543e+02 </wgt>
<wgt id='1382'> -2.9314454e+02 </wgt>
<wgt id='1383'> -2.9278345e+02 </wgt>
<wgt id='1384'> -2.9317366e+02 </wgt>
<wgt id='1385'> -2.9314500e+02 </wgt>
<wgt id='1386'> -2.9342540e+02 </wgt>
<wgt id='1387'> -2.9312741e+02 </wgt>
<wgt id='1388'> -2.9309302e+02 </wgt>
<wgt id='1389'> -2.9295573e+02 </wgt>
<wgt id='1390'> -2.9305027e+02 </wgt>
<wgt id='1391'> -2.9312505e+02 </wgt>
<wgt id='1392'> -2.9279830e+02 </wgt>
<wgt id='1393'> -2.9306616e+02 </wgt>
<wgt id='1394'> -2.9280718e+02 </wgt>
<wgt id='1395'> -2.9284484e+02 </wgt>
<wgt id='1396'> -2.9299566e+02 </wgt>
<wgt id='1397'> -2.9321105e+02 </wgt>
<wgt id='1398'> -2.9302503e+02 </wgt>
<wgt id='1399'> -2.9306503e+02 </wgt>
<wgt id='1400'> -2.9312898e+02 </wgt>
<wgt id='1401'> -2.9300945e+02 </wgt>
<wgt id='1402'> -2.9296057e+02 </wgt>
<wgt id='1403'> -2.9314208e+02 </wgt>
<wgt id='1404'> -2.9300569e+02 </wgt>
<wgt id='1405'> -2.9293403e+02 </wgt>
<wgt id='1406'> -2.9297384e+02 </wgt>
<wgt id='1407'> -2.9300966e+02 </wgt>
<wgt id='1408'> -2.9302355e+02 </wgt>
<wgt id='1409'> -2.9294960e+02 </wgt>
<wgt id='1410'> -2.9311199e+02 </wgt>
<wgt id='1411'> -2.9311942e+02 </wgt>
<wgt id='1412'> -2.9303792e+02 </wgt>
<wgt id='1413'> -2.9295901e+02 </wgt>
<wgt id='1414'> -2.9305574e+02 </wgt>
<wgt id='1415'> -2.9306346e+02 </wgt>
<wgt id='1416'> -2.9298378e+02 </wgt>
<wgt id='1417'> -2.9296322e+02 </wgt>
<wgt id='1418'> -2.9304662e+02 </wgt>
<wgt id='1419'> -2.9304503e+02 </wgt>
<wgt id='1420'> -2.9303883e+02 </wgt>
<wgt id='1421'> -2.9293222e+02 </wgt>
<wgt id='1422'> -2.9297179e+02 </wgt>
<wgt id='1423'> -2.9293484e+02 </wgt>
<wgt id='1424'> -2.9303822e+02 </wgt>
<wgt id='1425'> -2.9305528e+02 </wgt>
<wgt id='1426'> -2.7099348e+02 </wgt>
<wgt id='1427'> -3.1622845e+02 </wgt>
<wgt id='1428'> -2.8485128e+02 </wgt>
<wgt id='1429'> -2.8490133e+02 </wgt>
<wgt id='1430'> -2.8474198e+02 </wgt>
<wgt id='1431'> -2.8484944e+02 </wgt>
<wgt id='1432'> -2.8416988e+02 </wgt>
<wgt id='1433'> -2.8384727e+02 </wgt>
<wgt id='1434'> -2.8005147e+02 </wgt>
<wgt id='1435'> -2.8237059e+02 </wgt>
<wgt id='1436'> -2.8617635e+02 </wgt>
<wgt id='1437'> -2.8359244e+02 </wgt>
<wgt id='1438'> -2.8504229e+02 </wgt>
<wgt id='1439'> -2.8617815e+02 </wgt>
<wgt id='1440'> -2.8342127e+02 </wgt>
<wgt id='1441'> -2.8754084e+02 </wgt>
<wgt id='1442'> -2.8463263e+02 </wgt>
<wgt id='1443'> -2.8493197e+02 </wgt>
<wgt id='1444'> -2.8401805e+02 </wgt>
<wgt id='1445'> -2.8249128e+02 </wgt>
<wgt id='1446'> -2.8734687e+02 </wgt>
<wgt id='1447'> -2.8438539e+02 </wgt>
<wgt id='1448'> -2.8516872e+02 </wgt>
<wgt id='1449'> -2.8447006e+02 </wgt>
<wgt id='1450'> -2.8507498e+02 </wgt>
<wgt id='1451'> -2.8312283e+02 </wgt>
<wgt id='1452'> -2.8672126e+02 </wgt>
<wgt id='1453'> -2.8546250e+02 </wgt>
<wgt id='1454'> -2.8434576e+02 </wgt>
<wgt id='1455'> -2.8636387e+02 </wgt>
<wgt id='1456'> -2.8223261e+02 </wgt>
<wgt id='1457'> -2.8307796e+02 </wgt>
<wgt id='1458'> -2.8583726e+02 </wgt>
<wgt id='1459'> -2.8321666e+02 </wgt>
<wgt id='1460'> -2.8714749e+02 </wgt>
<wgt id='1461'> -2.8336410e+02 </wgt>
<wgt id='1462'> -2.8621894e+02 </wgt>
<wgt id='1463'> -2.8356092e+02 </wgt>
<wgt id='1464'> -2.8582862e+02 </wgt>
<wgt id='1465'> -2.8051422e+02 </wgt>
<wgt id='1466'> -2.8973982e+02 </wgt>
<wgt id='1467'> -2.9088147e+02 </wgt>
<wgt id='1468'> -2.8174920e+02 </wgt>
<wgt id='1469'> -2.8441955e+02 </wgt>
<wgt id='1470'> -2.8487655e+02 </wgt>
<wgt id='1471'> -2.8748854e+02 </wgt>
<wgt id='1472'> -2.8212975e+02 </wgt>
<wgt id='1473'> -2.8293998e+02 </wgt>
<wgt id='1474'> -2.8305849e+02 </wgt>
<wgt id='1475'> -2.8110075e+02 </wgt>
<wgt id='1476'> -2.8721977e+02 </wgt>
<wgt id='1477'> -2.8463713e+02 </wgt>
<wgt id='1478'> -2.8534927e+02 </wgt>
<wgt id='1479'> -2.8521774e+02 </wgt>
<wgt id='1480'> -2.8444164e+02 </wgt>
<wgt id='1481'> -2.7362967e+02 </wgt>
<wgt id='1482'> -2.7989995e+02 </wgt>
<wgt id='1483'> -2.8241440e+02 </wgt>
<wgt id='1484'> -2.8872735e+02 </wgt>
<wgt id='1485'> -2.6309528e+02 </wgt>
<wgt id='1486'> -3.0804593e+02 </wgt>
<wgt id='1487'> -2.8782035e+02 </wgt>
<wgt id='1488'> -2.8749864e+02 </wgt>
<wgt id='1489'> -2.8849519e+02 </wgt>
<wgt id='1490'> -2.8345109e+02 </wgt>
<wgt id='1491'> -2.8780088e+02 </wgt>
<wgt id='1492'> -2.8876790e+02 </wgt>
<wgt id='1493'> -2.8730787e+02 </wgt>
<wgt id='1494'> -2.8623592e+02 </wgt>
<wgt id='1495'> -2.8812379e+02 </wgt>
<wgt id='1496'> -2.8605672e+02 </wgt>
<wgt id='1497'> -2.8975080e+02 </wgt>
<wgt id='1498'> -2.9111085e+02 </wgt>
<wgt id='1499'> -2.8540291e+02 </wgt>
<wgt id='1500'> -2.8307699e+02 </wgt>
<wgt id='1501'> -2.9096544e+02 </wgt>
<wgt id='1502'> -2.9284606e+02 </wgt>
<wgt id='1503'> -2.8453613e+02 </wgt>
<wgt id='1504'> -2.8307509e+02 </wgt>
<wgt id='1505'> -2.9345945e+02 </wgt>
<wgt id='1506'> -2.8955925e+02 </wgt>
<wgt id='1507'> -2.8577878e+02 </wgt>
<wgt id='1508'> -2.8815308e+02 </wgt>
<wgt id='1509'> -2.8702100e+02 </wgt>
<wgt id='1510'> -2.8785727e+02 </wgt>
<wgt id='1511'> -2.8764904e+02 </wgt>
<wgt id='1512'> -2.8930071e+02 </wgt>
<wgt id='1513'> -2.8625895e+02 </wgt>
<wgt id='1514'> -2.8820039e+02 </wgt>
<wgt id='1515'> -2.8726404e+02 </wgt>
<wgt id='1516'> -2.8764176e+02 </wgt>
<wgt id='1517'> -2.8788729e+02 </wgt>
<wgt id='1518'> -2.8844239e+02 </wgt>
<wgt id='1519'> -2.8701448e+02 </wgt>
<wgt id='1520'> -2.8697958e+02 </wgt>
<wgt id='1521'> -2.8966870e+02 </wgt>
<wgt id='1522'> -2.8612741e+02 </wgt>
<wgt id='1523'> -2.8947018e+02 </wgt>
<wgt id='1524'> -2.8753783e+02 </wgt>
<wgt id='1525'> -2.8788470e+02 </wgt>
<wgt id='1526'> -2.8680950e+02 </wgt>
<wgt id='1527'> -2.8865749e+02 </wgt>
<wgt id='1528'> -2.8739361e+02 </wgt>
<wgt id='1529'> -2.8830850e+02 </wgt>
<wgt id='1530'> -2.8477807e+02 </wgt>
<wgt id='1531'> -2.9138015e+02 </wgt>
<wgt id='1532'> -2.8825381e+02 </wgt>
<wgt id='1533'> -2.8764427e+02 </wgt>
<wgt id='1534'> -2.8763502e+02 </wgt>
<wgt id='1535'> -2.8467331e+02 </wgt>
<wgt id='1536'> -2.8460425e+02 </wgt>
<wgt id='1537'> -2.8779026e+02 </wgt>
<wgt id='1538'> -2.8794309e+02 </wgt>
<wgt id='1539'> -2.8773685e+02 </wgt>
<wgt id='1540'> -2.7650360e+02 </wgt>
<wgt id='1541'> -2.8940625e+02 </wgt>
<wgt id='1542'> -2.8619874e+02 </wgt>
<wgt id='1543'> -2.9063846e+02 </wgt>
<wgt id='1544'> -2.6576494e+02 </wgt>
<wgt id='1545'> -3.1138662e+02 </wgt>
<wgt id='1546'> -3.0040311e+02 </wgt>
<wgt id='1547'> -2.9065033e+02 </wgt>
<wgt id='1548'> -2.9091951e+02 </wgt>
<wgt id='1549'> -2.9035324e+02 </wgt>
<wgt id='1550'> -2.9084140e+02 </wgt>
<wgt id='1551'> -2.9051496e+02 </wgt>
<wgt id='1552'> -2.9174704e+02 </wgt>
<wgt id='1553'> -2.8962550e+02 </wgt>
<wgt id='1554'> -2.8949987e+02 </wgt>
<wgt id='1555'> -2.9194531e+02 </wgt>
<wgt id='1556'> -2.9161348e+02 </wgt>
<wgt id='1557'> -2.8972110e+02 </wgt>
<wgt id='1558'> -2.9120789e+02 </wgt>
<wgt id='1559'> -2.8940979e+02 </wgt>
<wgt id='1560'> -2.9035610e+02 </wgt>
<wgt id='1561'> -2.9114865e+02 </wgt>
<wgt id='1562'> -2.8993973e+02 </wgt>
<wgt id='1563'> -2.9103517e+02 </wgt>
<wgt id='1564'> -2.8889785e+02 </wgt>
<wgt id='1565'> -2.9270907e+02 </wgt>
<wgt id='1566'> -2.9075636e+02 </wgt>
<wgt id='1567'> -2.9053985e+02 </wgt>
<wgt id='1568'> -2.8994236e+02 </wgt>
<wgt id='1569'> -2.9159385e+02 </wgt>
<wgt id='1570'> -2.8842570e+02 </wgt>
<wgt id='1571'> -2.9217835e+02 </wgt>
<wgt id='1572'> -2.9078599e+02 </wgt>
<wgt id='1573'> -2.8994169e+02 </wgt>
<wgt id='1574'> -2.9123924e+02 </wgt>
<wgt id='1575'> -2.9060760e+02 </wgt>
<wgt id='1576'> -2.9059414e+02 </wgt>
<wgt id='1577'> -2.9073831e+02 </wgt>
<wgt id='1578'> -2.8868353e+02 </wgt>
<wgt id='1579'> -2.9277562e+02 </wgt>
<wgt id='1580'> -2.9183410e+02 </wgt>
<wgt id='1581'> -2.8946459e+02 </wgt>
<wgt id='1582'> -2.9099668e+02 </wgt>
<wgt id='1583'> -2.9020581e+02 </wgt>
<wgt id='1584'> -2.9113071e+02 </wgt>
<wgt id='1585'> -2.9056898e+02 </wgt>
<wgt id='1586'> -2.8993130e+02 </wgt>
<wgt id='1587'> -2.9146246e+02 </wgt>
<wgt id='1588'> -2.8906810e+02 </wgt>
<wgt id='1589'> -2.9248516e+02 </wgt>
<wgt id='1590'> -2.9441598e+02 </wgt>
<wgt id='1591'> -2.8905008e+02 </wgt>
<wgt id='1592'> -2.9026815e+02 </wgt>
<wgt id='1593'> -2.9162374e+02 </wgt>
<wgt id='1594'> -2.9220800e+02 </wgt>
<wgt id='1595'> -2.8831279e+02 </wgt>
<wgt id='1596'> -2.9123860e+02 </wgt>
<wgt id='1597'> -2.9033727e+02 </wgt>
<wgt id='1598'> -2.8165405e+02 </wgt>
<wgt id='1599'> -2.8170465e+02 </wgt>
<wgt id='1600'> -2.8161975e+02 </wgt>
<wgt id='1601'> -2.8263645e+02 </wgt>
<wgt id='1602'> -2.8069434e+02 </wgt>
<wgt id='1603'> -2.8229674e+02 </wgt>
<wgt id='1604'> -2.8139493e+02 </wgt>
<wgt id='1605'> -2.8087866e+02 </wgt>
<wgt id='1606'> -2.8244413e+02 </wgt>
<wgt id='1607'> -2.8216677e+02 </wgt>
<wgt id='1608'> -2.8116752e+02 </wgt>
<wgt id='1609'> -2.7934084e+02 </wgt>
<wgt id='1610'> -2.8267504e+02 </wgt>
<wgt id='1611'> -2.8160942e+02 </wgt>
<wgt id='1612'> -2.8171283e+02 </wgt>
<wgt id='1613'> -2.8104000e+02 </wgt>
<wgt id='1614'> -2.8233408e+02 </wgt>
<wgt id='1615'> -2.8042852e+02 </wgt>
<wgt id='1616'> -2.8232605e+02 </wgt>
<wgt id='1617'> -2.8146904e+02 </wgt>
<wgt id='1618'> -2.8191947e+02 </wgt>
<wgt id='1619'> -2.8146351e+02 </wgt>
<wgt id='1620'> -2.8178628e+02 </wgt>
<wgt id='1621'> -2.8376490e+02 </wgt>
<wgt id='1622'> -2.7953599e+02 </wgt>
<wgt id='1623'> -2.8253840e+02 </wgt>
<wgt id='1624'> -2.7950515e+02 </wgt>
<wgt id='1625'> -2.8235059e+02 </wgt>
<wgt id='1626'> -2.8133395e+02 </wgt>
<wgt id='1627'> -2.8185321e+02 </wgt>
<wgt id='1628'> -2.8107158e+02 </wgt>
<wgt id='1629'> -2.8075890e+02 </wgt>
<wgt id='1630'> -2.8354572e+02 </wgt>
<wgt id='1631'> -2.8180865e+02 </wgt>
<wgt id='1632'> -2.8146719e+02 </wgt>
<wgt id='1633'> -2.8067882e+02 </wgt>
<wgt id='1634'> -2.8219036e+02 </wgt>
<wgt id='1635'> -2.8164949e+02 </wgt>
<wgt id='1636'> -2.8180827e+02 </wgt>
<wgt id='1637'> -2.8073794e+02 </wgt>
<wgt id='1638'> -2.8233252e+02 </wgt>
<wgt id='1639'> -2.8183604e+02 </wgt>
<wgt id='1640'> -2.8122436e+02 </wgt>
<wgt id='1641'> -2.8193443e+02 </wgt>
<wgt id='1642'> -2.8014286e+02 </wgt>
<wgt id='1643'> -2.7865786e+02 </wgt>
<wgt id='1644'> -2.8357678e+02 </wgt>
<wgt id='1645'> -2.8278763e+02 </wgt>
<wgt id='1646'> -2.8115585e+02 </wgt>
<wgt id='1647'> -2.8083213e+02 </wgt>
<wgt id='1648'> -2.8210828e+02 </wgt>
<wgt id='1649'> -5.9974627e+02 </wgt>
<wgt id='1650'> -2.8689141e+02 </wgt>
<wgt id='1651'> -2.8675440e+02 </wgt>
<wgt id='1652'> -2.8698328e+02 </wgt>
<wgt id='1653'> -2.8690526e+02 </wgt>
<wgt id='1654'> -2.8688230e+02 </wgt>
<wgt id='1655'> -2.8619494e+02 </wgt>
<wgt id='1656'> -2.8698631e+02 </wgt>
<wgt id='1657'> -2.8701335e+02 </wgt>
<wgt id='1658'> -2.8754268e+02 </wgt>
<wgt id='1659'> -2.8818565e+02 </wgt>
<wgt id='1660'> -2.8671184e+02 </wgt>
<wgt id='1661'> -2.8687523e+02 </wgt>
<wgt id='1662'> -2.8612535e+02 </wgt>
<wgt id='1663'> -2.8630692e+02 </wgt>
<wgt id='1664'> -2.8722744e+02 </wgt>
<wgt id='1665'> -2.8662824e+02 </wgt>
<wgt id='1666'> -2.8716855e+02 </wgt>
<wgt id='1667'> -2.8667067e+02 </wgt>
<wgt id='1668'> -2.8752430e+02 </wgt>
<wgt id='1669'> -2.8691663e+02 </wgt>
<wgt id='1670'> -2.8675943e+02 </wgt>
<wgt id='1671'> -2.8665192e+02 </wgt>
<wgt id='1672'> -2.8658714e+02 </wgt>
<wgt id='1673'> -2.8660961e+02 </wgt>
<wgt id='1674'> -2.8619087e+02 </wgt>
<wgt id='1675'> -2.8682656e+02 </wgt>
<wgt id='1676'> -2.8730718e+02 </wgt>
<wgt id='1677'> -2.8690325e+02 </wgt>
<wgt id='1678'> -2.8714117e+02 </wgt>
<wgt id='1679'> -2.8695987e+02 </wgt>
<wgt id='1680'> -2.9058206e+02 </wgt>
<wgt id='1681'> -2.8840932e+02 </wgt>
<wgt id='1682'> -2.9169084e+02 </wgt>
<wgt id='1683'> -2.9152592e+02 </wgt>
<wgt id='1684'> -2.8936156e+02 </wgt>
<wgt id='1685'> -2.9073610e+02 </wgt>
<wgt id='1686'> -2.9090462e+02 </wgt>
<wgt id='1687'> -2.9042226e+02 </wgt>
<wgt id='1688'> -2.8914842e+02 </wgt>
<wgt id='1689'> -2.9133629e+02 </wgt>
<wgt id='1690'> -2.9305652e+02 </wgt>
<wgt id='1691'> -2.9024830e+02 </wgt>
<wgt id='1692'> -2.9077741e+02 </wgt>
<wgt id='1693'> -2.9043273e+02 </wgt>
<wgt id='1694'> -2.8815511e+02 </wgt>
<wgt id='1695'> -2.9239556e+02 </wgt>
<wgt id='1696'> -2.8993283e+02 </wgt>
<wgt id='1697'> -2.8979155e+02 </wgt>
<wgt id='1698'> -2.8833978e+02 </wgt>
<wgt id='1699'> -2.8772061e+02 </wgt>
<wgt id='1700'> -2.9005036e+02 </wgt>
<wgt id='1701'> -2.8955327e+02 </wgt>
<wgt id='1702'> -2.9144653e+02 </wgt>
<wgt id='1703'> -2.8928951e+02 </wgt>
<wgt id='1704'> -2.9120012e+02 </wgt>
<wgt id='1705'> -2.9083644e+02 </wgt>
<wgt id='1706'> -2.9003540e+02 </wgt>
<wgt id='1707'> -2.9066767e+02 </wgt>
<wgt id='1708'> -2.8995116e+02 </wgt>
<wgt id='1709'> -2.9056032e+02 </wgt>
<wgt id='1710'> -2.9052875e+02 </wgt>
<wgt id='1711'> -2.9050996e+02 </wgt>
<wgt id='1712'> -2.9058969e+02 </wgt>
<wgt id='1713'> -2.9000902e+02 </wgt>
<wgt id='1714'> -2.9067813e+02 </wgt>
<wgt id='1715'> -2.9116562e+02 </wgt>
<wgt id='1716'> -2.9022548e+02 </wgt>
<wgt id='1717'> -2.9063061e+02 </wgt>
<wgt id='1718'> -2.9031983e+02 </wgt>
<wgt id='1719'> -2.9069386e+02 </wgt>
<wgt id='1720'> -2.9061499e+02 </wgt>
<wgt id='1721'> -2.9077989e+02 </wgt>
<wgt id='1722'> -2.9071433e+02 </wgt>
<wgt id='1723'> -2.9039859e+02 </wgt>
<wgt id='1724'> -2.9090654e+02 </wgt>
<wgt id='1725'> -2.9076979e+02 </wgt>
<wgt id='1726'> -2.9089526e+02 </wgt>
<wgt id='1727'> -2.9031187e+02 </wgt>
<wgt id='1728'> -2.9032907e+02 </wgt>
<wgt id='1729'> -2.9071508e+02 </wgt>
<wgt id='1730'> -2.9046365e+02 </wgt>
<wgt id='1731'> -2.9043159e+02 </wgt>
<wgt id='1732'> -2.9050853e+02 </wgt>
<wgt id='1733'> -2.9033070e+02 </wgt>
<wgt id='1734'> -2.9046507e+02 </wgt>
<wgt id='1735'> -2.9058736e+02 </wgt>
<wgt id='1736'> -2.9051456e+02 </wgt>
<wgt id='1737'> -2.9060593e+02 </wgt>
<wgt id='1738'> -2.9088043e+02 </wgt>
<wgt id='1739'> -2.9050313e+02 </wgt>
<wgt id='1740'> -2.9027224e+02 </wgt>
<wgt id='1741'> -2.9065271e+02 </wgt>
<wgt id='1742'> -2.9039391e+02 </wgt>
<wgt id='1743'> -2.9059111e+02 </wgt>
<wgt id='1744'> -2.9048462e+02 </wgt>
<wgt id='1745'> -2.9061107e+02 </wgt>
<wgt id='1746'> -2.9062443e+02 </wgt>
<wgt id='1747'> -2.9057036e+02 </wgt>
<wgt id='1748'> -2.9073176e+02 </wgt>
<wgt id='1749'> -2.9068381e+02 </wgt>
<wgt id='1750'> -2.9054398e+02 </wgt>
<wgt id='1751'> -2.9039826e+02 </wgt>
<wgt id='1752'> -2.9043675e+02 </wgt>
<wgt id='1753'> -2.9043359e+02 </wgt>
<wgt id='1754'> -2.9055337e+02 </wgt>
<wgt id='1755'> -2.9054101e+02 </wgt>
<wgt id='1756'> -2.9055353e+02 </wgt>
<wgt id='1757'> -2.9048806e+02 </wgt>
<wgt id='1758'> -2.9058663e+02 </wgt>
<wgt id='1759'> -2.9075615e+02 </wgt>
<wgt id='1760'> -2.9054921e+02 </wgt>
<wgt id='1761'> -2.9066866e+02 </wgt>
<wgt id='1762'> -2.9041760e+02 </wgt>
<wgt id='1763'> -2.9069991e+02 </wgt>
<wgt id='1764'> -2.9070896e+02 </wgt>
<wgt id='1765'> -2.9067002e+02 </wgt>
<wgt id='1766'> -2.9080182e+02 </wgt>
<wgt id='1767'> -2.9060381e+02 </wgt>
<wgt id='1768'> -2.9054733e+02 </wgt>
<wgt id='1769'> -2.9057992e+02 </wgt>
<wgt id='1770'> -2.9058167e+02 </wgt>
<wgt id='1771'> -2.9049124e+02 </wgt>
<wgt id='1772'> -2.9056424e+02 </wgt>
<wgt id='1773'> -2.9048427e+02 </wgt>
<wgt id='1774'> -2.9057814e+02 </wgt>
<wgt id='1775'> -2.9058812e+02 </wgt>
<wgt id='1776'> -2.9052161e+02 </wgt>
<wgt id='1777'> -2.9063449e+02 </wgt>
<wgt id='1778'> -2.9064687e+02 </wgt>
<wgt id='1779'> -2.9062192e+02 </wgt>
<wgt id='1780'> -2.9058428e+02 </wgt>
<wgt id='1781'> -2.7476094e+02 </wgt>
<wgt id='1782'> -3.0701692e+02 </wgt>
<wgt id='1783'> -2.8399495e+02 </wgt>
<wgt id='1784'> -2.8412272e+02 </wgt>
<wgt id='1785'> -2.8451985e+02 </wgt>
<wgt id='1786'> -2.8292458e+02 </wgt>
<wgt id='1787'> -2.8445007e+02 </wgt>
<wgt id='1788'> -2.8495427e+02 </wgt>
<wgt id='1789'> -2.8489710e+02 </wgt>
<wgt id='1790'> -2.8488098e+02 </wgt>
<wgt id='1791'> -2.8456396e+02 </wgt>
<wgt id='1792'> -2.8393563e+02 </wgt>
<wgt id='1793'> -2.8336123e+02 </wgt>
<wgt id='1794'> -2.8579313e+02 </wgt>
<wgt id='1795'> -2.8335700e+02 </wgt>
<wgt id='1796'> -2.8368363e+02 </wgt>
<wgt id='1797'> -2.8393768e+02 </wgt>
<wgt id='1798'> -2.8274930e+02 </wgt>
<wgt id='1799'> -2.8552907e+02 </wgt>
<wgt id='1800'> -2.8192852e+02 </wgt>
<wgt id='1801'> -2.8451685e+02 </wgt>
<wgt id='1802'> -2.8483316e+02 </wgt>
<wgt id='1803'> -2.8702967e+02 </wgt>
<wgt id='1804'> -2.8381786e+02 </wgt>
<wgt id='1805'> -2.8454602e+02 </wgt>
<wgt id='1806'> -2.8234932e+02 </wgt>
<wgt id='1807'> -2.8291200e+02 </wgt>
<wgt id='1808'> -2.8509589e+02 </wgt>
<wgt id='1809'> -2.8393056e+02 </wgt>
<wgt id='1810'> -2.8361710e+02 </wgt>
<wgt id='1811'> -2.8446675e+02 </wgt>
<wgt id='1812'> -2.8406003e+02 </wgt>
<wgt id='1813'> -2.8398511e+02 </wgt>
<wgt id='1814'> -2.8393837e+02 </wgt>
<wgt id='1815'> -2.8426618e+02 </wgt>
<wgt id='1816'> -2.8438774e+02 </wgt>
<wgt id='1817'> -2.8394151e+02 </wgt>
<wgt id='1818'> -2.8436620e+02 </wgt>
<wgt id='1819'> -2.8405353e+02 </wgt>
<wgt id='1820'> -2.8429408e+02 </wgt>
<wgt id='1821'> -2.8416372e+02 </wgt>
<wgt id='1822'> -2.8411021e+02 </wgt>
<wgt id='1823'> -2.8361274e+02 </wgt>
<wgt id='1824'> -2.8395887e+02 </wgt>
<wgt id='1825'> -2.8414977e+02 </wgt>
<wgt id='1826'> -2.8371763e+02 </wgt>
<wgt id='1827'> -2.8406791e+02 </wgt>
<wgt id='1828'> -2.8411384e+02 </wgt>
<wgt id='1829'> -2.8361152e+02 </wgt>
<wgt id='1830'> -2.8397964e+02 </wgt>
<wgt id='1831'> -2.8417443e+02 </wgt>
<wgt id='1832'> -2.8383916e+02 </wgt>
<wgt id='1833'> -2.8402727e+02 </wgt>
<wgt id='1834'> -2.8414810e+02 </wgt>
<wgt id='1835'> -2.8418854e+02 </wgt>
<wgt id='1836'> -2.8400501e+02 </wgt>
<wgt id='1837'> -2.8381773e+02 </wgt>
<wgt id='1838'> -2.8383945e+02 </wgt>
<wgt id='1839'> -2.8416876e+02 </wgt>
<wgt id='1840'> -2.8397116e+02 </wgt>
<wgt id='1841'> -2.8376453e+02 </wgt>
<wgt id='1842'> -2.8384305e+02 </wgt>
<wgt id='1843'> -2.8388254e+02 </wgt>
<wgt id='1844'> -2.8400854e+02 </wgt>
<wgt id='1845'> -2.8402981e+02 </wgt>
<wgt id='1846'> -2.8407981e+02 </wgt>
<wgt id='1847'> -2.8400854e+02 </wgt>
<wgt id='1848'> -2.8395510e+02 </wgt>
<wgt id='1849'> -2.8396817e+02 </wgt>
<wgt id='1850'> -2.8409183e+02 </wgt>
<wgt id='1851'> -2.8402853e+02 </wgt>
<wgt id='1852'> -2.8419910e+02 </wgt>
<wgt id='1853'> -2.8393882e+02 </wgt>
<wgt id='1854'> -2.8418106e+02 </wgt>
<wgt id='1855'> -2.8418388e+02 </wgt>
<wgt id='1856'> -2.8392766e+02 </wgt>
<wgt id='1857'> -2.8402527e+02 </wgt>
<wgt id='1858'> -2.8394793e+02 </wgt>
<wgt id='1859'> -2.8398665e+02 </wgt>
<wgt id='1860'> -2.8406511e+02 </wgt>
<wgt id='1861'> -2.8402776e+02 </wgt>
<wgt id='1862'> -2.8396909e+02 </wgt>
<wgt id='1863'> -2.8422751e+02 </wgt>
<wgt id='1864'> -2.8400124e+02 </wgt>
<wgt id='1865'> -2.8407496e+02 </wgt>
<wgt id='1866'> -2.8391217e+02 </wgt>
<wgt id='1867'> -2.8390202e+02 </wgt>
<wgt id='1868'> -2.8389377e+02 </wgt>
<wgt id='1869'> -2.8405376e+02 </wgt>
<wgt id='1870'> -2.8375869e+02 </wgt>
<wgt id='1871'> -2.8389588e+02 </wgt>
<wgt id='1872'> -2.8390373e+02 </wgt>
<wgt id='1873'> -2.8403450e+02 </wgt>
<wgt id='1874'> -2.8394817e+02 </wgt>
<wgt id='1875'> -2.8397344e+02 </wgt>
<wgt id='1876'> -2.8392926e+02 </wgt>
<wgt id='1877'> -2.8394517e+02 </wgt>
<wgt id='1878'> -2.8402334e+02 </wgt>
<wgt id='1879'> -2.8394332e+02 </wgt>
<wgt id='1880'> -2.8402117e+02 </wgt>
<wgt id='1881'> -2.8398287e+02 </wgt>
<wgt id='1882'> -2.8393063e+02 </wgt>
<wgt id='1883'> -2.8399575e+02 </wgt>
<wgt id='1884'> -2.6897045e+02 </wgt>
<wgt id='1885'> -2.9982202e+02 </wgt>
<wgt id='1886'> -2.9063086e+02 </wgt>
<wgt id='1887'> -2.9163468e+02 </wgt>
<wgt id='1888'> -2.8859096e+02 </wgt>
<wgt id='1889'> -2.9054963e+02 </wgt>
<wgt id='1890'> -2.8840750e+02 </wgt>
<wgt id='1891'> -2.9247006e+02 </wgt>
<wgt id='1892'> -2.8927991e+02 </wgt>
<wgt id='1893'> -2.9066065e+02 </wgt>
<wgt id='1894'> -2.9084662e+02 </wgt>
<wgt id='1895'> -2.8925139e+02 </wgt>
<wgt id='1896'> -2.9114293e+02 </wgt>
<wgt id='1897'> -2.8909850e+02 </wgt>
<wgt id='1898'> -2.8958878e+02 </wgt>
<wgt id='1899'> -2.9070456e+02 </wgt>
<wgt id='1900'> -2.9063878e+02 </wgt>
<wgt id='1901'> -2.9112663e+02 </wgt>
<wgt id='1902'> -2.8994053e+02 </wgt>
<wgt id='1903'> -2.9015099e+02 </wgt>
<wgt id='1904'> -2.9142818e+02 </wgt>
<wgt id='1905'> -2.8900368e+02 </wgt>
<wgt id='1906'> -2.8979455e+02 </wgt>
<wgt id='1907'> -2.9029938e+02 </wgt>
<wgt id='1908'> -2.8989886e+02 </wgt>
<wgt id='1909'> -2.9085079e+02 </wgt>
<wgt id='1910'> -2.9052461e+02 </wgt>
<wgt id='1911'> -2.9037966e+02 </wgt>
<wgt id='1912'> -2.9187109e+02 </wgt>
<wgt id='1913'> -2.9119154e+02 </wgt>
<wgt id='1914'> -2.9464731e+02 </wgt>
<wgt id='1915'> -2.9098116e+02 </wgt>
<wgt id='1916'> -2.9050624e+02 </wgt>
<wgt id='1917'> -2.7476094e+02 </wgt>
<wgt id='1918'> -3.0701692e+02 </wgt>
<wgt id='1919'> -2.8402741e+02 </wgt>
<wgt id='1920'> -2.7940613e+02 </wgt>
<wgt id='1921'> -2.8399162e+02 </wgt>
<wgt id='1922'> -2.8385742e+02 </wgt>
<wgt id='1923'> -2.8371770e+02 </wgt>
<wgt id='1924'> -2.8298830e+02 </wgt>
<wgt id='1925'> -2.8401932e+02 </wgt>
<wgt id='1926'> -2.8384466e+02 </wgt>
<wgt id='1927'> -2.8364681e+02 </wgt>
<wgt id='1928'> -2.8350634e+02 </wgt>
<wgt id='1929'> -2.8571648e+02 </wgt>
<wgt id='1930'> -2.8340957e+02 </wgt>
<wgt id='1931'> -2.8399204e+02 </wgt>
<wgt id='1932'> -2.8461385e+02 </wgt>
<wgt id='1933'> -2.8369832e+02 </wgt>
<wgt id='1934'> -2.8364607e+02 </wgt>
<wgt id='1935'> -2.8406853e+02 </wgt>
<wgt id='1936'> -2.8490895e+02 </wgt>
<wgt id='1937'> -2.8410994e+02 </wgt>
<wgt id='1938'> -2.8412095e+02 </wgt>
<wgt id='1939'> -2.8410415e+02 </wgt>
<wgt id='1940'> -2.8451123e+02 </wgt>
<wgt id='1941'> -2.8579439e+02 </wgt>
<wgt id='1942'> -2.8395377e+02 </wgt>
<wgt id='1943'> -2.8376018e+02 </wgt>
<wgt id='1944'> -2.8328133e+02 </wgt>
<wgt id='1945'> -2.8405160e+02 </wgt>
<wgt id='1946'> -2.8422341e+02 </wgt>
<wgt id='1947'> -2.8398178e+02 </wgt>
<wgt id='1948'> -2.8309826e+02 </wgt>
<wgt id='1949'> -2.8408225e+02 </wgt>
<wgt id='1950'> -2.6897045e+02 </wgt>
<wgt id='1951'> -2.9982202e+02 </wgt>
<wgt id='1952'> -2.8178827e+02 </wgt>
<wgt id='1953'> -2.8137688e+02 </wgt>
<wgt id='1954'> -2.8219815e+02 </wgt>
<wgt id='1955'> -2.8233934e+02 </wgt>
<wgt id='1956'> -2.8123725e+02 </wgt>
<wgt id='1957'> -2.8218550e+02 </wgt>
<wgt id='1958'> -2.8139211e+02 </wgt>
<wgt id='1959'> -2.8289403e+02 </wgt>
<wgt id='1960'> -2.8070857e+02 </wgt>
<wgt id='1961'> -2.8177855e+02 </wgt>
<wgt id='1962'> -2.8181017e+02 </wgt>
<wgt id='1963'> -2.8011246e+02 </wgt>
<wgt id='1964'> -2.8355764e+02 </wgt>
<wgt id='1965'> -2.8089163e+02 </wgt>
<wgt id='1966'> -2.8269559e+02 </wgt>
<wgt id='1967'> -2.8281144e+02 </wgt>
<wgt id='1968'> -2.8053005e+02 </wgt>
<wgt id='1969'> -2.8296248e+02 </wgt>
<wgt id='1970'> -2.8071992e+02 </wgt>
<wgt id='1971'> -2.8234551e+02 </wgt>
<wgt id='1972'> -2.8115198e+02 </wgt>
<wgt id='1973'> -2.8247528e+02 </wgt>
<wgt id='1974'> -2.8090273e+02 </wgt>
<wgt id='1975'> -2.7905998e+02 </wgt>
<wgt id='1976'> -2.8354450e+02 </wgt>
<wgt id='1977'> -2.8054335e+02 </wgt>
<wgt id='1978'> -2.8332996e+02 </wgt>
<wgt id='1979'> -2.8494470e+02 </wgt>
<wgt id='1980'> -2.7900470e+02 </wgt>
<wgt id='1981'> -2.8178827e+02 </wgt>
<wgt id='1982'> -2.8248867e+02 </wgt>
<wgt id='1983'> -2.8054129e+02 </wgt>
<wgt id='1984'> -2.8245743e+02 </wgt>
<wgt id='1985'> -2.8096504e+02 </wgt>
<wgt id='1986'> -2.8138918e+02 </wgt>
<wgt id='1987'> -2.8381614e+02 </wgt>
<wgt id='1988'> -2.8142173e+02 </wgt>
<wgt id='1989'> -2.8230401e+02 </wgt>
<wgt id='1990'> -2.8276518e+02 </wgt>
<wgt id='1991'> -2.8095183e+02 </wgt>
<wgt id='1992'> -2.8025119e+02 </wgt>
<wgt id='1993'> -2.8212312e+02 </wgt>
<wgt id='1994'> -2.8209087e+02 </wgt>
<wgt id='1995'> -2.8814407e+02 </wgt>
<wgt id='1996'> -2.8783866e+02 </wgt>
<wgt id='1997'> -2.8838236e+02 </wgt>
<wgt id='1998'> -2.8837419e+02 </wgt>
<wgt id='1999'> -2.8784789e+02 </wgt>
<wgt id='2000'> -2.8868235e+02 </wgt>
<wgt id='2001'> -2.8754090e+02 </wgt>
<wgt id='2002'> -2.8969276e+02 </wgt>
<wgt id='2003'> -2.8656743e+02 </wgt>
<wgt id='2004'> -2.8727655e+02 </wgt>
<wgt id='2005'> -2.8897214e+02 </wgt>
<wgt id='2006'> -2.8911811e+02 </wgt>
<wgt id='2007'> -2.8711750e+02 </wgt>
<wgt id='2008'> -2.8747733e+02 </wgt>
<wgt id='2009'> -2.8873731e+02 </wgt>
<wgt id='2010'> -2.8820115e+02 </wgt>
<wgt id='2011'> -2.8771148e+02 </wgt>
<wgt id='2012'> -2.8791086e+02 </wgt>
<wgt id='2013'> -2.8828618e+02 </wgt>
<wgt id='2014'> -2.8807938e+02 </wgt>
<wgt id='2015'> -2.8815337e+02 </wgt>
<wgt id='2016'> -2.8844926e+02 </wgt>
<wgt id='2017'> -2.8750319e+02 </wgt>
<wgt id='2018'> -2.8635137e+02 </wgt>
<wgt id='2019'> -2.8985279e+02 </wgt>
<wgt id='2020'> -2.8462144e+02 </wgt>
<wgt id='2021'> -2.9103225e+02 </wgt>
<wgt id='2022'> -2.8684392e+02 </wgt>
<wgt id='2023'> -2.8969634e+02 </wgt>
<wgt id='2024'> -2.8798231e+02 </wgt>
<wgt id='2025'> -2.8855112e+02 </wgt>
<wgt id='2026'> -2.8581436e+02 </wgt>
<wgt id='2027'> -2.8835975e+02 </wgt>
<wgt id='2028'> -2.8756677e+02 </wgt>
<wgt id='2029'> -2.8255830e+02 </wgt>
<wgt id='2030'> -2.8874491e+02 </wgt>
<wgt id='2031'> -2.8740228e+02 </wgt>
<wgt id='2032'> -2.8924718e+02 </wgt>
<wgt id='2033'> -2.8853585e+02 </wgt>
<wgt id='2034'> -2.8132619e+02 </wgt>
<wgt id='2035'> -2.8768204e+02 </wgt>
<wgt id='2036'> -2.8949640e+02 </wgt>
<wgt id='2037'> -2.8959962e+02 </wgt>
<wgt id='2038'> -2.8682997e+02 </wgt>
<wgt id='2039'> -2.8679374e+02 </wgt>
<wgt id='2040'> -2.8675627e+02 </wgt>
<wgt id='2041'> -2.8672010e+02 </wgt>
<wgt id='2042'> -2.8668241e+02 </wgt>
<wgt id='2043'> -2.8664609e+02 </wgt>
<wgt id='2044'> -2.8660975e+02 </wgt>
<wgt id='2045'> -2.8657253e+02 </wgt>
<wgt id='2046'> -2.8653699e+02 </wgt>
<wgt id='2047'> -2.8649942e+02 </wgt>
<wgt id='2048'> -2.8646319e+02 </wgt>
<wgt id='2049'> -2.8642506e+02 </wgt>
<wgt id='2050'> -2.8638953e+02 </wgt>
<wgt id='2051'> -2.8635133e+02 </wgt>
<wgt id='2052'> -2.8631552e+02 </wgt>
<wgt id='2053'> -2.8627943e+02 </wgt>
<wgt id='2054'> -2.8624140e+02 </wgt>
<wgt id='2055'> -2.8620573e+02 </wgt>
<wgt id='2056'> -2.8616740e+02 </wgt>
<wgt id='2057'> -2.8613192e+02 </wgt>
<wgt id='2058'> -2.8609400e+02 </wgt>
<wgt id='2059'> -2.8605848e+02 </wgt>
<wgt id='2060'> -2.8602131e+02 </wgt>
<wgt id='2061'> -2.8598452e+02 </wgt>
<wgt id='2062'> -2.8594910e+02 </wgt>
<wgt id='2063'> -2.8591110e+02 </wgt>
<wgt id='2064'> -2.8587482e+02 </wgt>
<wgt id='2065'> -2.8583758e+02 </wgt>
<wgt id='2066'> -2.8580098e+02 </wgt>
<wgt id='2067'> -2.8576367e+02 </wgt>
<wgt id='2068'> -2.8572742e+02 </wgt>
<wgt id='2069'> -2.8105442e+02 </wgt>
<wgt id='2070'> -2.8122438e+02 </wgt>
<wgt id='2071'> -2.8156511e+02 </wgt>
<wgt id='2072'> -2.8001854e+02 </wgt>
<wgt id='2073'> -2.8152005e+02 </wgt>
<wgt id='2074'> -2.8202326e+02 </wgt>
<wgt id='2075'> -2.8192744e+02 </wgt>
<wgt id='2076'> -2.8188510e+02 </wgt>
<wgt id='2077'> -2.8160744e+02 </wgt>
<wgt id='2078'> -2.8100594e+02 </wgt>
<wgt id='2079'> -2.8045385e+02 </wgt>
<wgt id='2080'> -2.8280107e+02 </wgt>
<wgt id='2081'> -2.8039731e+02 </wgt>
<wgt id='2082'> -2.8074226e+02 </wgt>
<wgt id='2083'> -2.8096193e+02 </wgt>
<wgt id='2084'> -2.7983215e+02 </wgt>
<wgt id='2085'> -2.8253639e+02 </wgt>
<wgt id='2086'> -2.7904094e+02 </wgt>
<wgt id='2087'> -2.8158535e+02 </wgt>
<wgt id='2088'> -2.8186484e+02 </wgt>
<wgt id='2089'> -2.8403782e+02 </wgt>
<wgt id='2090'> -2.8085481e+02 </wgt>
<wgt id='2091'> -2.8161837e+02 </wgt>
<wgt id='2092'> -2.7939674e+02 </wgt>
<wgt id='2093'> -2.7998611e+02 </wgt>
<wgt id='2094'> -2.8217186e+02 </wgt>
<wgt id='2095'> -2.8100673e+02 </wgt>
<wgt id='2096'> -2.8065032e+02 </wgt>
<wgt id='2097'> -2.8151664e+02 </wgt>
<wgt id='2098'> -2.8114068e+02 </wgt>
<wgt id='2099'> -2.8104999e+02 </wgt>
<wgt id='2100'> -2.8097396e+02 </wgt>
<wgt id='2101'> -2.8133907e+02 </wgt>
<wgt id='2102'> -2.8146122e+02 </wgt>
<wgt id='2103'> -2.8099716e+02 </wgt>
<wgt id='2104'> -2.8143526e+02 </wgt>
<wgt id='2105'> -2.8110837e+02 </wgt>
<wgt id='2106'> -2.8135684e+02 </wgt>
<wgt id='2107'> -2.8122596e+02 </wgt>
<wgt id='2108'> -2.8117839e+02 </wgt>
<wgt id='2109'> -2.8067239e+02 </wgt>
<wgt id='2110'> -2.8101544e+02 </wgt>
<wgt id='2111'> -2.8120540e+02 </wgt>
<wgt id='2112'> -2.8077260e+02 </wgt>
<wgt id='2113'> -2.8113391e+02 </wgt>
<wgt id='2114'> -2.8116786e+02 </wgt>
<wgt id='2115'> -2.8066785e+02 </wgt>
<wgt id='2116'> -2.8103523e+02 </wgt>
<wgt id='2117'> -2.8122610e+02 </wgt>
<wgt id='2118'> -2.8089746e+02 </wgt>
<wgt id='2119'> -2.8108697e+02 </wgt>
<wgt id='2120'> -2.8121151e+02 </wgt>
<wgt id='2121'> -2.8124477e+02 </wgt>
<wgt id='2122'> -2.8107040e+02 </wgt>
<wgt id='2123'> -2.8087645e+02 </wgt>
<wgt id='2124'> -2.8089631e+02 </wgt>
<wgt id='2125'> -2.8123597e+02 </wgt>
<wgt id='2126'> -2.8102663e+02 </wgt>
<wgt id='2127'> -2.8082394e+02 </wgt>
<wgt id='2128'> -2.8089978e+02 </wgt>
<wgt id='2129'> -2.8093969e+02 </wgt>
<wgt id='2130'> -2.8106725e+02 </wgt>
<wgt id='2131'> -2.8108921e+02 </wgt>
<wgt id='2132'> -2.8114682e+02 </wgt>
<wgt id='2133'> -2.8106036e+02 </wgt>
<wgt id='2134'> -2.8101769e+02 </wgt>
<wgt id='2135'> -2.8103150e+02 </wgt>
<wgt id='2136'> -2.8115453e+02 </wgt>
<wgt id='2137'> -2.8108619e+02 </wgt>
<wgt id='2138'> -2.8126182e+02 </wgt>
<wgt id='2139'> -2.8099843e+02 </wgt>
<wgt id='2140'> -2.8124211e+02 </wgt>
<wgt id='2141'> -2.8124707e+02 </wgt>
<wgt id='2142'> -2.8098579e+02 </wgt>
<wgt id='2143'> -2.8108518e+02 </wgt>
<wgt id='2144'> -2.8100668e+02 </wgt>
<wgt id='2145'> -2.8104445e+02 </wgt>
<wgt id='2146'> -2.8112388e+02 </wgt>
<wgt id='2147'> -2.8109039e+02 </wgt>
<wgt id='2148'> -2.8102719e+02 </wgt>
<wgt id='2149'> -2.8128536e+02 </wgt>
<wgt id='2150'> -2.8105721e+02 </wgt>
<wgt id='2151'> -2.8113290e+02 </wgt>
<wgt id='2152'> -2.8097119e+02 </wgt>
<wgt id='2153'> -2.8096373e+02 </wgt>
<wgt id='2154'> -2.8095422e+02 </wgt>
<wgt id='2155'> -2.8110840e+02 </wgt>
<wgt id='2156'> -2.8082209e+02 </wgt>
<wgt id='2157'> -2.8095906e+02 </wgt>
<wgt id='2158'> -2.8096615e+02 </wgt>
<wgt id='2159'> -2.8109592e+02 </wgt>
<wgt id='2160'> -2.8101214e+02 </wgt>
<wgt id='2161'> -2.8103595e+02 </wgt>
<wgt id='2162'> -2.8098889e+02 </wgt>
<wgt id='2163'> -2.8101011e+02 </wgt>
<wgt id='2164'> -2.8108512e+02 </wgt>
<wgt id='2165'> -2.8099993e+02 </wgt>
<wgt id='2166'> -2.8108016e+02 </wgt>
<wgt id='2167'> -2.8104470e+02 </wgt>
<wgt id='2168'> -2.8098681e+02 </wgt>
<wgt id='2169'> -2.8105317e+02 </wgt>
<wgt id='2170'> -2.8105086e+02 </wgt>
<wgt id='2171'> -2.8103114e+02 </wgt>
<wgt id='2172'> -2.8105811e+02 </wgt>
<wgt id='2173'> -2.8105868e+02 </wgt>
<wgt id='2174'> -2.8106519e+02 </wgt>
<wgt id='2175'> -2.8105599e+02 </wgt>
<wgt id='2176'> -2.8103889e+02 </wgt>
<wgt id='2177'> -2.9457190e+02 </wgt>
<wgt id='2178'> -2.8398361e+02 </wgt>
<wgt id='2179'> -2.9972254e+02 </wgt>
<wgt id='2180'> -3.0214106e+02 </wgt>
<wgt id='2181'> -2.8446378e+02 </wgt>
<wgt id='2182'> -2.8260669e+02 </wgt>
<wgt id='2183'> -2.9505764e+02 </wgt>
<wgt id='2184'> -2.9661312e+02 </wgt>
<wgt id='2185'> -2.9364625e+02 </wgt>
<wgt id='2186'> -2.9871954e+02 </wgt>
<wgt id='2187'> -2.9551668e+02 </wgt>
<wgt id='2188'> -2.8969993e+02 </wgt>
<wgt id='2189'> -2.9733580e+02 </wgt>
<wgt id='2190'> -2.8914803e+02 </wgt>
<wgt id='2191'> -2.9754948e+02 </wgt>
<wgt id='2192'> -3.0163774e+02 </wgt>
<wgt id='2193'> -3.0037617e+02 </wgt>
<wgt id='2194'> -2.9687217e+02 </wgt>
<wgt id='2195'> -2.9620258e+02 </wgt>
<wgt id='2196'> -2.9361007e+02 </wgt>
<wgt id='2197'> -3.0485249e+02 </wgt>
<wgt id='2198'> -2.9433953e+02 </wgt>
<wgt id='2199'> -2.9474510e+02 </wgt>
<wgt id='2200'> -3.0666578e+02 </wgt>
<wgt id='2201'> -2.9404485e+02 </wgt>
<wgt id='2202'> -2.9322539e+02 </wgt>
<wgt id='2203'> -2.9018639e+02 </wgt>
<wgt id='2204'> -2.9690902e+02 </wgt>
<wgt id='2205'> -2.9260230e+02 </wgt>
<wgt id='2206'> -3.0104851e+02 </wgt>
<wgt id='2207'> -3.0291410e+02 </wgt>
<wgt id='2208'> -2.9128767e+02 </wgt>
<wgt id='2209'> -2.8839059e+02 </wgt>
<wgt id='2210'> -2.9114345e+02 </wgt>
<wgt id='2211'> -2.9470568e+02 </wgt>
<wgt id='2212'> -3.0480460e+02 </wgt>
<wgt id='2213'> -2.9156009e+02 </wgt>
<wgt id='2214'> -2.9968786e+02 </wgt>
<wgt id='2215'> -2.9201094e+02 </wgt>
<wgt id='2216'> -2.8826728e+02 </wgt>
<wgt id='2217'> -2.9201387e+02 </wgt>
<wgt id='2218'> -2.9108153e+02 </wgt>
<wgt id='2219'> -2.9443159e+02 </wgt>
<wgt id='2220'> -2.9197073e+02 </wgt>
<wgt id='2221'> -2.9674612e+02 </wgt>
<wgt id='2222'> -2.9922076e+02 </wgt>
<wgt id='2223'> -2.9632267e+02 </wgt>
<wgt id='2224'> -2.9024017e+02 </wgt>
<wgt id='2225'> -2.9120595e+02 </wgt>
<wgt id='2226'> -2.9594944e+02 </wgt>
<wgt id='2227'> -2.9229333e+02 </wgt>
<wgt id='2228'> -2.9223274e+02 </wgt>
<wgt id='2229'> -2.9472080e+02 </wgt>
<wgt id='2230'> -2.9986282e+02 </wgt>
<wgt id='2231'> -2.8672563e+02 </wgt>
<wgt id='2232'> -2.8925761e+02 </wgt>
<wgt id='2233'> -2.9410502e+02 </wgt>
<wgt id='2234'> -2.9341173e+02 </wgt>
<wgt id='2235'> -2.9112094e+02 </wgt>
<wgt id='2236'> -3.0561910e+02 </wgt>
<wgt id='2237'> -2.9177219e+02 </wgt>
<wgt id='2238'> -2.9272560e+02 </wgt>
<wgt id='2239'> -3.0108957e+02 </wgt>
<wgt id='2240'> -2.8828087e+02 </wgt>
<wgt id='2241'> -2.9705547e+02 </wgt>
<wgt id='2242'> -2.9132321e+02 </wgt>
<wgt id='2243'> -2.9578936e+02 </wgt>
<wgt id='2244'> -3.1135995e+02 </wgt>
<wgt id='2245'> -2.9192257e+02 </wgt>
<wgt id='2246'> -2.8620784e+02 </wgt>
<wgt id='2247'> -2.8842265e+02 </wgt>
<wgt id='2248'> -2.9245400e+02 </wgt>
<wgt id='2249'> -2.9448486e+02 </wgt>
<wgt id='2250'> -2.8627123e+02 </wgt>
<wgt id='2251'> -2.9952884e+02 </wgt>
<wgt id='2252'> -2.9181785e+02 </wgt>
<wgt id='2253'> -2.8876781e+02 </wgt>
<wgt id='2254'> -2.9298247e+02 </wgt>
<wgt id='2255'> -2.9755111e+02 </wgt>
<wgt id='2256'> -2.9131378e+02 </wgt>
<wgt id='2257'> -2.9232230e+02 </wgt>
<wgt id='2258'> -2.9601254e+02 </wgt>
<wgt id='2259'> -2.8873390e+02 </wgt>
<wgt id='2260'> -3.0037485e+02 </wgt>
<wgt id='2261'> -2.9322459e+02 </wgt>
<wgt id='2262'> -2.9366898e+02 </wgt>
<wgt id='2263'> -2.9326781e+02 </wgt>
<wgt id='2264'> -2.9942847e+02 </wgt>
<wgt id='2265'> -2.9375641e+02 </wgt>
<wgt id='2266'> -2.9972100e+02 </wgt>
<wgt id='2267'> -2.9253853e+02 </wgt>
<wgt id='2268'> -2.8598577e+02 </wgt>
<wgt id='2269'> -2.9286491e+02 </wgt>
<wgt id='2270'> -2.9500097e+02 </wgt>
<wgt id='2271'> -3.0571507e+02 </wgt>
<wgt id='2272'> -2.9615115e+02 </wgt>
<wgt id='2273'> -2.9468697e+02 </wgt>
<wgt id='2274'> -2.9416526e+02 </wgt>
<wgt id='2275'> -2.9589138e+02 </wgt>
<wgt id='2276'> -2.9523237e+02 </wgt>
<wgt id='2277'> -2.9949581e+02 </wgt>
<wgt id='2278'> -2.8259808e+02 </wgt>
<wgt id='2279'> -3.0362224e+02 </wgt>
<wgt id='2280'> -2.8702480e+02 </wgt>
<wgt id='2281'> -3.1864978e+02 </wgt>
<wgt id='2282'> -5.0386989e+02 </wgt>
<wgt id='2283'> -3.3766765e+02 </wgt>
<wgt id='2284'> -4.9308958e+02 </wgt>
</rwgt>
</event>
<event npLO=" -1 " npNLO=" 2 ">
 6      2 +2.8781417e+02 2.57892860e+01 7.54677110e-03 1.19084540e-01
       21 -1    0    0  504  501 +0.0000000000e+00 +0.0000000000e+00 +1.6581810000e+02 1.6581810000e+02 0.0000000000e+00 0.0000e+00 9.0000e+00
       21 -1    0    0  503  502 +0.0000000000e+00 +0.0000000000e+00 -1.3357774000e+02 1.3357774000e+02 0.0000000000e+00 0.0000e+00 9.0000e+00
       25  1    1    2    0    0 -6.7954965000e+01 -5.3027340000e+01 -6.0989052000e+01 1.4542847000e+02 1.0000000000e+02 0.0000e+00 9.0000e+00
       21  1    1    2  503  501 +2.6534491000e+01 +6.1830725000e+01 +4.9918628000e+01 8.3779396000e+01 0.0000000000e+00 0.0000e+00 9.0000e+00
       21  1    1    2  504  505 +3.2796020000e+01 +2.4780825000e+00 +1.0645372000e+01 3.4569405000e+01 0.0000000000e+00 0.0000e+00 9.0000e+00
       21  1    1    2  505  502 +8.6244533000e+00 -1.1281468000e+01 +3.2665416000e+01 3.5618564000e+01 0.0000000000e+00 0.0000e+00 9.0000e+00
#aMCatNLO 2  0  0  5  2 0.17726108E+02 0.00000000E+00 -9  6  0 0.00000000E+00 0.00000000E+00 0.00000000E+00 0.00000000E+00 0.00000000E+00
<rwgt>
<wgt id='1001'> +2.8781417e+02 </wgt>
<wgt id='1002'> +1.8203415e+02 </wgt>
<wgt id='1003'> +4.7769950e+02 </wgt>
<wgt id='1004'> +2.8191688e+02 </wgt>
<wgt id='1005'> +1.7830428e+02 </wgt>
<wgt id='1006'> +4.6791147e+02 </wgt>
<wgt id='1007'> +2.9100858e+02 </wgt>
<wgt id='1008'> +1.8405452e+02 </wgt>
<wgt id='1009'> +4.8300142e+02 </wgt>
<wgt id='1010'> +2.8781417e+02 </wgt>
<wgt id='1011'> +2.8835058e+02 </wgt>
<wgt id='1012'> +2.8700715e+02 </wgt>
<wgt id='1013'> +2.8731751e+02 </wgt>
<wgt id='1014'> +2.8850415e+02 </wgt>
<wgt id='1015'> +2.8849262e+02 </wgt>
<wgt id='1016'> +2.8864467e+02 </wgt>
<wgt id='1017'> +2.8934802e+02 </wgt>
<wgt id='1018'> +2.9008945e+02 </wgt>
<wgt id='1019'> +2.8725173e+02 </wgt>
<wgt id='1020'> +2.8756908e+02 </wgt>
<wgt id='1021'> +2.8538167e+02 </wgt>
<wgt id='1022'> +2.8907046e+02 </wgt>
<wgt id='1023'> +2.8789792e+02 </wgt>
<wgt id='1024'> +2.8832394e+02 </wgt>
<wgt id='1025'> +2.8824624e+02 </wgt>
<wgt id='1026'> +2.8753092e+02 </wgt>
<wgt id='1027'> +2.8698435e+02 </wgt>
<wgt id='1028'> +2.8876273e+02 </wgt>
<wgt id='1029'> +2.8968731e+02 </wgt>
<wgt id='1030'> +2.8675625e+02 </wgt>
<wgt id='1031'> +2.8854164e+02 </wgt>
<wgt id='1032'> +2.8734037e+02 </wgt>
<wgt id='1033'> +2.8823385e+02 </wgt>
<wgt id='1034'> +2.8775948e+02 </wgt>
<wgt id='1035'> +2.8742771e+02 </wgt>
<wgt id='1036'> +2.8757700e+02 </wgt>
<wgt id='1037'> +2.8722259e+02 </wgt>
<wgt id='1038'> +2.8821246e+02 </wgt>
<wgt id='1039'> +2.8706944e+02 </wgt>
<wgt id='1040'> +2.8779296e+02 </wgt>
<wgt id='1041'> +2.8705417e+02 </wgt>
<wgt id='1042'> +2.8803143e+02 </wgt>
<wgt id='1043'> +2.8748064e+02 </wgt>
<wgt id='1044'> +2.8748540e+02 </wgt>
<wgt id='1045'> +2.8779393e+02 </wgt>
<wgt id='1046'> +2.8822304e+02 </wgt>
<wgt id='1047'> +2.8782528e+02 </wgt>
<wgt id='1048'> +2.8778652e+02 </wgt>
<wgt id='1049'> +2.8788663e+02 </wgt>
<wgt id='1050'> +2.8767060e+02 </wgt>
<wgt id='1051'> +2.8790178e+02 </wgt>
<wgt id='1052'> +2.8790489e+02 </wgt>
<wgt id='1053'> +2.8766514e+02 </wgt>
<wgt id='1054'> +2.8795678e+02 </wgt>
<wgt id='1055'> +2.8788510e+02 </wgt>
<wgt id='1056'> +2.8785511e+02 </wgt>
<wgt id='1057'> +2.8775889e+02 </wgt>
<wgt id='1058'> +2.8769953e+02 </wgt>
<wgt id='1059'> +2.8764972e+02 </wgt>
<wgt id='1060'> +2.8773167e+02 </wgt>
<wgt id='1061'> +2.8776951e+02 </wgt>
<wgt id='1062'> +2.8797654e+02 </wgt>
<wgt id='1063'> +2.8774334e+02 </wgt>
<wgt id='1064'> +2.8780928e+02 </wgt>
<wgt id='1065'> +2.8789108e+02 </wgt>
<wgt id='1066'> +2.8775503e+02 </wgt>
<wgt id='1067'> +2.8790921e+02 </wgt>
<wgt id='1068'> +2.8781675e+02 </wgt>
<wgt id='1069'> +2.8787256e+02 </wgt>
<wgt id='1070'> +2.8782112e+02 </wgt>
<wgt id='1071'> +2.8780434e+02 </wgt>
<wgt id='1072'> +2.8801062e+02 </wgt>
<wgt id='1073'> +2.8785988e+02 </wgt>
<wgt id='1074'> +2.8789324e+02 </wgt>
<wgt id='1075'> +2.8798788e+02 </wgt>
<wgt id='1076'> +2.8785485e+02 </wgt>
<wgt id='1077'> +2.8789239e+02 </wgt>
<wgt id='1078'> +2.8785202e+02 </wgt>
<wgt id='1079'> +2.8785832e+02 </wgt>
<wgt id='1080'> +2.8783275e+02 </wgt>
<wgt id='1081'> +2.8784415e+02 </wgt>
<wgt id='1082'> +2.8781251e+02 </wgt>
<wgt id='1083'> +2.8786986e+02 </wgt>
<wgt id='1084'> +2.8778584e+02 </wgt>
<wgt id='1085'> +2.8776352e+02 </wgt>
<wgt id='1086'> +2.8779843e+02 </wgt>
<wgt id='1087'> +2.8796690e+02 </wgt>
<wgt id='1088'> +2.8782736e+02 </wgt>
<wgt id='1089'> +2.8776223e+02 </wgt>
<wgt id='1090'> +2.8782361e+02 </wgt>
<wgt id='1091'> +2.8776496e+02 </wgt>
<wgt id='1092'> +2.8785811e+02 </wgt>
<wgt id='1093'> +2.8788111e+02 </wgt>
<wgt id='1094'> +2.8785534e+02 </wgt>
<wgt id='1095'> +2.8780354e+02 </wgt>
<wgt id='1096'> +2.8776476e+02 </wgt>
<wgt id='1097'> +2.8785723e+02 </wgt>
<wgt id='1098'> +2.8780667e+02 </wgt>
<wgt id='1099'> +2.8780345e+02 </wgt>
<wgt id='1100'> +2.8785064e+02 </wgt>
<wgt id='1101'> +2.8782392e+02 </wgt>
<wgt id='1102'> +2.8784950e+02 </wgt>
<wgt id='1103'> +2.8777463e+02 </wgt>
<wgt id='1104'> +2.8779908e+02 </wgt>
<wgt id='1105'> +2.8783786e+02 </wgt>
<wgt id='1106'> +2.8778933e+02 </wgt>
<wgt id='1107'> +2.8782871e+02 </wgt>
<wgt id='1108'> +2.8781986e+02 </wgt>
<wgt id='1109'> +2.8784624e+02 </wgt>
<wgt id='1110'> +2.8781417e+02 </wgt>
<wgt id='1111'> +2.6885315e+02 </wgt>
<wgt id='1112'> +3.0655868e+02 </wgt>
<wgt id='1113'> +2.8781417e+02 </wgt>
<wgt id='1114'> +2.8212549e+02 </wgt>
<wgt id='1115'> +2.8654612e+02 </wgt>
<wgt id='1116'> +2.9433981e+02 </wgt>
<wgt id='1117'> +2.9062061e+02 </wgt>
<wgt id='1118'> +2.8767560e+02 </wgt>
<wgt id='1119'> +2.8989320e+02 </wgt>
<wgt id='1120'> +2.8453769e+02 </wgt>
<wgt id='1121'> +2.8419246e+02 </wgt>
<wgt id='1122'> +2.9489559e+02 </wgt>
<wgt id='1123'> +2.9420214e+02 </wgt>
<wgt id='1124'> +2.9184264e+02 </wgt>
<wgt id='1125'> +2.8493591e+02 </wgt>
<wgt id='1126'> +2.8496434e+02 </wgt>
<wgt id='1127'> +2.8238241e+02 </wgt>
<wgt id='1128'> +2.9810690e+02 </wgt>
<wgt id='1129'> +2.9541991e+02 </wgt>
<wgt id='1130'> +2.9425168e+02 </wgt>
<wgt id='1131'> +2.8585081e+02 </wgt>
<wgt id='1132'> +2.8549918e+02 </wgt>
<wgt id='1133'> +2.8971807e+02 </wgt>
<wgt id='1134'> +2.8184385e+02 </wgt>
<wgt id='1135'> +2.8472468e+02 </wgt>
<wgt id='1136'> +2.8422242e+02 </wgt>
<wgt id='1137'> +2.8106634e+02 </wgt>
<wgt id='1138'> +2.8306417e+02 </wgt>
<wgt id='1139'> +2.8790124e+02 </wgt>
<wgt id='1140'> +2.8727077e+02 </wgt>
<wgt id='1141'> +2.8075145e+02 </wgt>
<wgt id='1142'> +2.9354059e+02 </wgt>
<wgt id='1143'> +2.9565720e+02 </wgt>
<wgt id='1144'> +2.8981850e+02 </wgt>
<wgt id='1145'> +2.8974430e+02 </wgt>
<wgt id='1146'> +2.8510857e+02 </wgt>
<wgt id='1147'> +2.8316743e+02 </wgt>
<wgt id='1148'> +2.9407989e+02 </wgt>
<wgt id='1149'> +2.8354697e+02 </wgt>
<wgt id='1150'> +2.8819342e+02 </wgt>
<wgt id='1151'> +2.8668826e+02 </wgt>
<wgt id='1152'> +2.9090896e+02 </wgt>
<wgt id='1153'> +2.8670758e+02 </wgt>
<wgt id='1154'> +2.9075961e+02 </wgt>
<wgt id='1155'> +2.8106180e+02 </wgt>
<wgt id='1156'> +2.8753960e+02 </wgt>
<wgt id='1157'> +2.8377362e+02 </wgt>
<wgt id='1158'> +2.8919182e+02 </wgt>
<wgt id='1159'> +2.8983607e+02 </wgt>
<wgt id='1160'> +2.7601233e+02 </wgt>
<wgt id='1161'> +2.7847332e+02 </wgt>
<wgt id='1162'> +2.9323868e+02 </wgt>
<wgt id='1163'> +2.9072348e+02 </wgt>
<wgt id='1164'> +2.8748231e+02 </wgt>
<wgt id='1165'> +2.8298555e+02 </wgt>
<wgt id='1166'> +2.8860282e+02 </wgt>
<wgt id='1167'> +2.8829145e+02 </wgt>
<wgt id='1168'> +2.8008332e+02 </wgt>
<wgt id='1169'> +2.8549840e+02 </wgt>
<wgt id='1170'> +2.8585197e+02 </wgt>
<wgt id='1171'> +2.8169179e+02 </wgt>
<wgt id='1172'> +2.9899739e+02 </wgt>
<wgt id='1173'> +2.8807583e+02 </wgt>
<wgt id='1174'> +2.8769169e+02 </wgt>
<wgt id='1175'> +2.8622224e+02 </wgt>
<wgt id='1176'> +2.8052060e+02 </wgt>
<wgt id='1177'> +2.8513075e+02 </wgt>
<wgt id='1178'> +2.8558553e+02 </wgt>
<wgt id='1179'> +2.8843246e+02 </wgt>
<wgt id='1180'> +2.8011389e+02 </wgt>
<wgt id='1181'> +2.9356709e+02 </wgt>
<wgt id='1182'> +2.8429587e+02 </wgt>
<wgt id='1183'> +2.7978276e+02 </wgt>
<wgt id='1184'> +2.9725644e+02 </wgt>
<wgt id='1185'> +2.9589147e+02 </wgt>
<wgt id='1186'> +2.9284638e+02 </wgt>
<wgt id='1187'> +2.9777191e+02 </wgt>
<wgt id='1188'> +2.9299818e+02 </wgt>
<wgt id='1189'> +2.9630873e+02 </wgt>
<wgt id='1190'> +2.8360186e+02 </wgt>
<wgt id='1191'> +2.9284548e+02 </wgt>
<wgt id='1192'> +2.8902912e+02 </wgt>
<wgt id='1193'> +2.8336213e+02 </wgt>
<wgt id='1194'> +2.7903442e+02 </wgt>
<wgt id='1195'> +2.9541991e+02 </wgt>
<wgt id='1196'> +2.8684361e+02 </wgt>
<wgt id='1197'> +2.8928861e+02 </wgt>
<wgt id='1198'> +2.9673877e+02 </wgt>
<wgt id='1199'> +2.7656298e+02 </wgt>
<wgt id='1200'> +2.9264397e+02 </wgt>
<wgt id='1201'> +2.8979003e+02 </wgt>
<wgt id='1202'> +2.9928353e+02 </wgt>
<wgt id='1203'> +2.8283511e+02 </wgt>
<wgt id='1204'> +2.8412807e+02 </wgt>
<wgt id='1205'> +2.9461531e+02 </wgt>
<wgt id='1206'> +2.9276269e+02 </wgt>
<wgt id='1207'> +2.8661722e+02 </wgt>
<wgt id='1208'> +2.8335865e+02 </wgt>
<wgt id='1209'> +2.8627617e+02 </wgt>
<wgt id='1210'> +2.8129428e+02 </wgt>
<wgt id='1211'> +2.9064881e+02 </wgt>
<wgt id='1212'> +2.8655094e+02 </wgt>
<wgt id='1213'> +2.8771492e+02 </wgt>
<wgt id='1214'> +2.8782603e+02 </wgt>
<wgt id='1215'> +2.8747446e+02 </wgt>
<wgt id='1216'> +2.8855501e+02 </wgt>
<wgt id='1217'> +2.8855906e+02 </wgt>
<wgt id='1218'> +2.8837102e+02 </wgt>
<wgt id='1219'> +2.8717556e+02 </wgt>
<wgt id='1220'> +2.8685195e+02 </wgt>
<wgt id='1221'> +2.8620190e+02 </wgt>
<wgt id='1222'> +2.8633673e+02 </wgt>
<wgt id='1223'> +2.8853701e+02 </wgt>
<wgt id='1224'> +2.8796452e+02 </wgt>
<wgt id='1225'> +2.8785095e+02 </wgt>
<wgt id='1226'> +2.8882489e+02 </wgt>
<wgt id='1227'> +2.8935420e+02 </wgt>
<wgt id='1228'> +2.8946037e+02 </wgt>
<wgt id='1229'> +2.8878871e+02 </wgt>
<wgt id='1230'> +2.8771869e+02 </wgt>
<wgt id='1231'> +2.8776207e+02 </wgt>
<wgt id='1232'> +2.8920284e+02 </wgt>
<wgt id='1233'> +2.8771006e+02 </wgt>
<wgt id='1234'> +2.8966014e+02 </wgt>
<wgt id='1235'> +2.8687765e+02 </wgt>
<wgt id='1236'> +2.8897242e+02 </wgt>
<wgt id='1237'> +2.8855854e+02 </wgt>
<wgt id='1238'> +2.8793950e+02 </wgt>
<wgt id='1239'> +2.8873734e+02 </wgt>
<wgt id='1240'> +2.8837291e+02 </wgt>
<wgt id='1241'> +2.8752520e+02 </wgt>
<wgt id='1242'> +2.8754070e+02 </wgt>
<wgt id='1243'> +2.8823271e+02 </wgt>
<wgt id='1244'> +2.8806618e+02 </wgt>
<wgt id='1245'> +2.8791193e+02 </wgt>
<wgt id='1246'> +2.8801502e+02 </wgt>
<wgt id='1247'> +2.8797338e+02 </wgt>
<wgt id='1248'> +2.8786152e+02 </wgt>
<wgt id='1249'> +2.8778608e+02 </wgt>
<wgt id='1250'> +2.8764868e+02 </wgt>
<wgt id='1251'> +2.8791621e+02 </wgt>
<wgt id='1252'> +2.8779767e+02 </wgt>
<wgt id='1253'> +2.8771659e+02 </wgt>
<wgt id='1254'> +2.8763663e+02 </wgt>
<wgt id='1255'> +2.8759767e+02 </wgt>
<wgt id='1256'> +2.8762896e+02 </wgt>
<wgt id='1257'> +2.8781493e+02 </wgt>
<wgt id='1258'> +2.8796855e+02 </wgt>
<wgt id='1259'> +2.8776842e+02 </wgt>
<wgt id='1260'> +2.8808453e+02 </wgt>
<wgt id='1261'> +2.8792093e+02 </wgt>
<wgt id='1262'> +2.8775962e+02 </wgt>
<wgt id='1263'> +2.8780613e+02 </wgt>
<wgt id='1264'> +2.8800212e+02 </wgt>
<wgt id='1265'> +2.8792047e+02 </wgt>
<wgt id='1266'> +2.8774629e+02 </wgt>
<wgt id='1267'> +2.8788901e+02 </wgt>
<wgt id='1268'> +2.8792533e+02 </wgt>
<wgt id='1269'> +2.8781891e+02 </wgt>
<wgt id='1270'> +2.8784476e+02 </wgt>
<wgt id='1271'> +2.8785469e+02 </wgt>
<wgt id='1272'> +2.8783354e+02 </wgt>
<wgt id='1273'> +2.8776045e+02 </wgt>
<wgt id='1274'> +2.8782340e+02 </wgt>
<wgt id='1275'> +2.8777664e+02 </wgt>
<wgt id='1276'> +2.8789311e+02 </wgt>
<wgt id='1277'> +2.8778230e+02 </wgt>
<wgt id='1278'> +2.8778904e+02 </wgt>
<wgt id='1279'> +2.8796340e+02 </wgt>
<wgt id='1280'> +2.8783431e+02 </wgt>
<wgt id='1281'> +2.8782645e+02 </wgt>
<wgt id='1282'> +2.8790911e+02 </wgt>
<wgt id='1283'> +2.8781220e+02 </wgt>
<wgt id='1284'> +2.8777272e+02 </wgt>
<wgt id='1285'> +2.8774372e+02 </wgt>
<wgt id='1286'> +2.8784710e+02 </wgt>
<wgt id='1287'> +2.8786964e+02 </wgt>
<wgt id='1288'> +2.8781622e+02 </wgt>
<wgt id='1289'> +2.8779060e+02 </wgt>
<wgt id='1290'> +2.8784862e+02 </wgt>
<wgt id='1291'> +2.8778757e+02 </wgt>
<wgt id='1292'> +2.8780796e+02 </wgt>
<wgt id='1293'> +2.8785860e+02 </wgt>
<wgt id='1294'> +2.8783447e+02 </wgt>
<wgt id='1295'> +2.8784353e+02 </wgt>
<wgt id='1296'> +2.8784624e+02 </wgt>
<wgt id='1297'> +2.8783767e+02 </wgt>
<wgt id='1298'> +2.8783320e+02 </wgt>
<wgt id='1299'> +2.8781438e+02 </wgt>
<wgt id='1300'> +2.8780590e+02 </wgt>
<wgt id='1301'> +2.8780764e+02 </wgt>
<wgt id='1302'> +2.8783570e+02 </wgt>
<wgt id='1303'> +2.8782117e+02 </wgt>
<wgt id='1304'> +2.8781918e+02 </wgt>
<wgt id='1305'> +2.8782059e+02 </wgt>
<wgt id='1306'> +2.8782365e+02 </wgt>
<wgt id='1307'> +2.8782181e+02 </wgt>
<wgt id='1308'> +2.8783097e+02 </wgt>
<wgt id='1309'> +2.8784629e+02 </wgt>
<wgt id='1310'> +2.8781653e+02 </wgt>
<wgt id='1311'> +2.8784737e+02 </wgt>
<wgt id='1312'> +2.8780275e+02 </wgt>
<wgt id='1313'> +2.8783005e+02 </wgt>
<wgt id='1314'> +2.8783129e+02 </wgt>
<wgt id='1315'> +2.6885315e+02 </wgt>
<wgt id='1316'> +3.0655868e+02 </wgt>
<wgt id='1317'> +2.0557848e+02 </wgt>
<wgt id='1318'> +2.1999937e+02 </wgt>
<wgt id='1319'> +2.3643477e+02 </wgt>
<wgt id='1320'> +2.5358845e+02 </wgt>
<wgt id='1321'> +2.7938646e+02 </wgt>
<wgt id='1322'> +2.9799869e+02 </wgt>
<wgt id='1323'> +3.2494741e+02 </wgt>
<wgt id='1324'> +3.4530871e+02 </wgt>
<wgt id='1325'> +2.9171216e+02 </wgt>
<wgt id='1326'> +2.9246078e+02 </wgt>
<wgt id='1327'> +2.9114012e+02 </wgt>
<wgt id='1328'> +2.9250740e+02 </wgt>
<wgt id='1329'> +2.9240330e+02 </wgt>
<wgt id='1330'> +2.9310311e+02 </wgt>
<wgt id='1331'> +2.9187798e+02 </wgt>
<wgt id='1332'> +2.9291592e+02 </wgt>
<wgt id='1333'> +2.9110471e+02 </wgt>
<wgt id='1334'> +2.9261649e+02 </wgt>
<wgt id='1335'> +2.9072823e+02 </wgt>
<wgt id='1336'> +2.9156907e+02 </wgt>
<wgt id='1337'> +2.9332288e+02 </wgt>
<wgt id='1338'> +2.9044043e+02 </wgt>
<wgt id='1339'> +2.9302076e+02 </wgt>
<wgt id='1340'> +2.9182095e+02 </wgt>
<wgt id='1341'> +2.9201050e+02 </wgt>
<wgt id='1342'> +2.9310088e+02 </wgt>
<wgt id='1343'> +2.9263511e+02 </wgt>
<wgt id='1344'> +2.8999087e+02 </wgt>
<wgt id='1345'> +2.9063097e+02 </wgt>
<wgt id='1346'> +2.9016391e+02 </wgt>
<wgt id='1347'> +2.9159229e+02 </wgt>
<wgt id='1348'> +2.9092863e+02 </wgt>
<wgt id='1349'> +2.9091939e+02 </wgt>
<wgt id='1350'> +2.9169990e+02 </wgt>
<wgt id='1351'> +2.9218162e+02 </wgt>
<wgt id='1352'> +2.9183050e+02 </wgt>
<wgt id='1353'> +2.9096091e+02 </wgt>
<wgt id='1354'> +2.9167873e+02 </wgt>
<wgt id='1355'> +2.9212639e+02 </wgt>
<wgt id='1356'> +2.9186233e+02 </wgt>
<wgt id='1357'> +2.9175803e+02 </wgt>
<wgt id='1358'> +2.9176734e+02 </wgt>
<wgt id='1359'> +2.9180483e+02 </wgt>
<wgt id='1360'> +2.9195619e+02 </wgt>
<wgt id='1361'> +2.9181379e+02 </wgt>
<wgt id='1362'> +2.9167356e+02 </wgt>
<wgt id='1363'> +2.9168230e+02 </wgt>
<wgt id='1364'> +2.9202683e+02 </wgt>
<wgt id='1365'> +2.9156619e+02 </wgt>
<wgt id='1366'> +2.9160712e+02 </wgt>
<wgt id='1367'> +2.9153103e+02 </wgt>
<wgt id='1368'> +2.9148965e+02 </wgt>
<wgt id='1369'> +2.9190324e+02 </wgt>
<wgt id='1370'> +2.9187098e+02 </wgt>
<wgt id='1371'> +2.9179574e+02 </wgt>
<wgt id='1372'> +2.9168322e+02 </wgt>
<wgt id='1373'> +2.9174069e+02 </wgt>
<wgt id='1374'> +2.9162591e+02 </wgt>
<wgt id='1375'> +2.9160088e+02 </wgt>
<wgt id='1376'> +2.9193276e+02 </wgt>
<wgt id='1377'> +2.9165319e+02 </wgt>
<wgt id='1378'> +2.9168157e+02 </wgt>
<wgt id='1379'> +2.9169546e+02 </wgt>
<wgt id='1380'> +2.9169411e+02 </wgt>
<wgt id='1381'> +2.9177988e+02 </wgt>
<wgt id='1382'> +2.9173028e+02 </wgt>
<wgt id='1383'> +2.9160114e+02 </wgt>
<wgt id='1384'> +2.9175949e+02 </wgt>
<wgt id='1385'> +2.9176978e+02 </wgt>
<wgt id='1386'> +2.9184701e+02 </wgt>
<wgt id='1387'> +2.9179175e+02 </wgt>
<wgt id='1388'> +2.9175775e+02 </wgt>
<wgt id='1389'> +2.9168635e+02 </wgt>
<wgt id='1390'> +2.9168849e+02 </wgt>
<wgt id='1391'> +2.9177150e+02 </wgt>
<wgt id='1392'> +2.9158200e+02 </wgt>
<wgt id='1393'> +2.9174699e+02 </wgt>
<wgt id='1394'> +2.9166563e+02 </wgt>
<wgt id='1395'> +2.9167006e+02 </wgt>
<wgt id='1396'> +2.9167481e+02 </wgt>
<wgt id='1397'> +2.9174873e+02 </wgt>
<wgt id='1398'> +2.9164682e+02 </wgt>
<wgt id='1399'> +2.9178227e+02 </wgt>
<wgt id='1400'> +2.9170192e+02 </wgt>
<wgt id='1401'> +2.9172879e+02 </wgt>
<wgt id='1402'> +2.9174390e+02 </wgt>
<wgt id='1403'> +2.9175580e+02 </wgt>
<wgt id='1404'> +2.9172493e+02 </wgt>
<wgt id='1405'> +2.9168081e+02 </wgt>
<wgt id='1406'> +2.9171347e+02 </wgt>
<wgt id='1407'> +2.9168227e+02 </wgt>
<wgt id='1408'> +2.9170765e+02 </wgt>
<wgt id='1409'> +2.9167982e+02 </wgt>
<wgt id='1410'> +2.9170849e+02 </wgt>
<wgt id='1411'> +2.9166631e+02 </wgt>
<wgt id='1412'> +2.9168224e+02 </wgt>
<wgt id='1413'> +2.9171169e+02 </wgt>
<wgt id='1414'> +2.9171742e+02 </wgt>
<wgt id='1415'> +2.9172592e+02 </wgt>
<wgt id='1416'> +2.9173371e+02 </wgt>
<wgt id='1417'> +2.9173962e+02 </wgt>
<wgt id='1418'> +2.9170122e+02 </wgt>
<wgt id='1419'> +2.9175462e+02 </wgt>
<wgt id='1420'> +2.9172272e+02 </wgt>
<wgt id='1421'> +2.9171616e+02 </wgt>
<wgt id='1422'> +2.9167858e+02 </wgt>
<wgt id='1423'> +2.9172982e+02 </wgt>
<wgt id='1424'> +2.9173895e+02 </wgt>
<wgt id='1425'> +2.9172262e+02 </wgt>
<wgt id='1426'> +2.7340804e+02 </wgt>
<wgt id='1427'> +3.1155181e+02 </wgt>
<wgt id='1428'> +2.8091174e+02 </wgt>
<wgt id='1429'> +2.8028289e+02 </wgt>
<wgt id='1430'> +2.8116094e+02 </wgt>
<wgt id='1431'> +2.7941798e+02 </wgt>
<wgt id='1432'> +2.8085866e+02 </wgt>
<wgt id='1433'> +2.7267127e+02 </wgt>
<wgt id='1434'> +2.8125473e+02 </wgt>
<wgt id='1435'> +2.8074978e+02 </wgt>
<wgt id='1436'> +2.7816553e+02 </wgt>
<wgt id='1437'> +2.8306956e+02 </wgt>
<wgt id='1438'> +2.7908578e+02 </wgt>
<wgt id='1439'> +2.8058253e+02 </wgt>
<wgt id='1440'> +2.8124027e+02 </wgt>
<wgt id='1441'> +2.7756958e+02 </wgt>
<wgt id='1442'> +2.8411583e+02 </wgt>
<wgt id='1443'> +2.8258336e+02 </wgt>
<wgt id='1444'> +2.7602827e+02 </wgt>
<wgt id='1445'> +2.7858778e+02 </wgt>
<wgt id='1446'> +2.8330970e+02 </wgt>
<wgt id='1447'> +2.8377516e+02 </wgt>
<wgt id='1448'> +2.7812921e+02 </wgt>
<wgt id='1449'> +2.8141009e+02 </wgt>
<wgt id='1450'> +2.8058741e+02 </wgt>
<wgt id='1451'> +2.8023502e+02 </wgt>
<wgt id='1452'> +2.8159428e+02 </wgt>
<wgt id='1453'> +2.8170633e+02 </wgt>
<wgt id='1454'> +2.8024435e+02 </wgt>
<wgt id='1455'> +2.8324166e+02 </wgt>
<wgt id='1456'> +2.7699463e+02 </wgt>
<wgt id='1457'> +2.7638451e+02 </wgt>
<wgt id='1458'> +2.8368845e+02 </wgt>
<wgt id='1459'> +2.7796588e+02 </wgt>
<wgt id='1460'> +2.8523918e+02 </wgt>
<wgt id='1461'> +2.7995027e+02 </wgt>
<wgt id='1462'> +2.8165579e+02 </wgt>
<wgt id='1463'> +2.8061302e+02 </wgt>
<wgt id='1464'> +2.8081896e+02 </wgt>
<wgt id='1465'> +2.7670829e+02 </wgt>
<wgt id='1466'> +2.8544715e+02 </wgt>
<wgt id='1467'> +2.8709110e+02 </wgt>
<wgt id='1468'> +2.7757476e+02 </wgt>
<wgt id='1469'> +2.7902206e+02 </wgt>
<wgt id='1470'> +2.8103082e+02 </wgt>
<wgt id='1471'> +2.8341874e+02 </wgt>
<wgt id='1472'> +2.7572096e+02 </wgt>
<wgt id='1473'> +2.9215745e+02 </wgt>
<wgt id='1474'> +2.7300304e+02 </wgt>
<wgt id='1475'> +2.8598776e+02 </wgt>
<wgt id='1476'> +2.7774199e+02 </wgt>
<wgt id='1477'> +2.8153978e+02 </wgt>
<wgt id='1478'> +2.8060248e+02 </wgt>
<wgt id='1479'> +2.8126918e+02 </wgt>
<wgt id='1480'> +2.8088868e+02 </wgt>
<wgt id='1481'> +2.8109789e+02 </wgt>
<wgt id='1482'> +2.8641101e+02 </wgt>
<wgt id='1483'> +2.7884617e+02 </wgt>
<wgt id='1484'> +2.8431853e+02 </wgt>
<wgt id='1485'> +2.6274163e+02 </wgt>
<wgt id='1486'> +2.9915724e+02 </wgt>
<wgt id='1487'> +2.8054855e+02 </wgt>
<wgt id='1488'> +2.8073040e+02 </wgt>
<wgt id='1489'> +2.8106391e+02 </wgt>
<wgt id='1490'> +2.8488348e+02 </wgt>
<wgt id='1491'> +2.7535644e+02 </wgt>
<wgt id='1492'> +2.8023489e+02 </wgt>
<wgt id='1493'> +2.8090800e+02 </wgt>
<wgt id='1494'> +2.8525042e+02 </wgt>
<wgt id='1495'> +2.7609859e+02 </wgt>
<wgt id='1496'> +2.7685345e+02 </wgt>
<wgt id='1497'> +2.8226483e+02 </wgt>
<wgt id='1498'> +2.8716524e+02 </wgt>
<wgt id='1499'> +2.7621979e+02 </wgt>
<wgt id='1500'> +2.7394487e+02 </wgt>
<wgt id='1501'> +2.8442142e+02 </wgt>
<wgt id='1502'> +2.8509326e+02 </wgt>
<wgt id='1503'> +2.7739461e+02 </wgt>
<wgt id='1504'> +2.7646987e+02 </wgt>
<wgt id='1505'> +2.8536719e+02 </wgt>
<wgt id='1506'> +2.8489437e+02 </wgt>
<wgt id='1507'> +2.7592511e+02 </wgt>
<wgt id='1508'> +2.8185436e+02 </wgt>
<wgt id='1509'> +2.7797837e+02 </wgt>
<wgt id='1510'> +2.7884790e+02 </wgt>
<wgt id='1511'> +2.8221516e+02 </wgt>
<wgt id='1512'> +2.8139592e+02 </wgt>
<wgt id='1513'> +2.7953011e+02 </wgt>
<wgt id='1514'> +2.8007866e+02 </wgt>
<wgt id='1515'> +2.8121776e+02 </wgt>
<wgt id='1516'> +2.7880470e+02 </wgt>
<wgt id='1517'> +2.8116601e+02 </wgt>
<wgt id='1518'> +2.8153681e+02 </wgt>
<wgt id='1519'> +2.7926423e+02 </wgt>
<wgt id='1520'> +2.7890494e+02 </wgt>
<wgt id='1521'> +2.8410627e+02 </wgt>
<wgt id='1522'> +2.8149216e+02 </wgt>
<wgt id='1523'> +2.7970117e+02 </wgt>
<wgt id='1524'> +2.8240291e+02 </wgt>
<wgt id='1525'> +2.7769563e+02 </wgt>
<wgt id='1526'> +2.8099512e+02 </wgt>
<wgt id='1527'> +2.8016639e+02 </wgt>
<wgt id='1528'> +2.8188530e+02 </wgt>
<wgt id='1529'> +2.7952915e+02 </wgt>
<wgt id='1530'> +2.8358032e+02 </wgt>
<wgt id='1531'> +2.7922551e+02 </wgt>
<wgt id='1532'> +2.7665042e+02 </wgt>
<wgt id='1533'> +2.8063593e+02 </wgt>
<wgt id='1534'> +2.7719560e+02 </wgt>
<wgt id='1535'> +2.7961717e+02 </wgt>
<wgt id='1536'> +2.7835593e+02 </wgt>
<wgt id='1537'> +2.7529200e+02 </wgt>
<wgt id='1538'> +2.8055858e+02 </wgt>
<wgt id='1539'> +2.8028413e+02 </wgt>
<wgt id='1540'> +2.7458909e+02 </wgt>
<wgt id='1541'> +2.8430851e+02 </wgt>
<wgt id='1542'> +2.7765265e+02 </wgt>
<wgt id='1543'> +2.8448827e+02 </wgt>
<wgt id='1544'> +2.6231589e+02 </wgt>
<wgt id='1545'> +2.9922507e+02 </wgt>
<wgt id='1546'> +2.4839924e+02 </wgt>
<wgt id='1547'> +2.8926824e+02 </wgt>
<wgt id='1548'> +2.8932252e+02 </wgt>
<wgt id='1549'> +2.8921670e+02 </wgt>
<wgt id='1550'> +2.8951286e+02 </wgt>
<wgt id='1551'> +2.8909853e+02 </wgt>
<wgt id='1552'> +2.9065557e+02 </wgt>
<wgt id='1553'> +2.8798739e+02 </wgt>
<wgt id='1554'> +2.8798751e+02 </wgt>
<wgt id='1555'> +2.9071208e+02 </wgt>
<wgt id='1556'> +2.8968681e+02 </wgt>
<wgt id='1557'> +2.8886401e+02 </wgt>
<wgt id='1558'> +2.8967490e+02 </wgt>
<wgt id='1559'> +2.8839019e+02 </wgt>
<wgt id='1560'> +2.8910901e+02 </wgt>
<wgt id='1561'> +2.8956559e+02 </wgt>
<wgt id='1562'> +2.8855304e+02 </wgt>
<wgt id='1563'> +2.8967871e+02 </wgt>
<wgt id='1564'> +2.8802188e+02 </wgt>
<wgt id='1565'> +2.9073815e+02 </wgt>
<wgt id='1566'> +2.8972972e+02 </wgt>
<wgt id='1567'> +2.8887059e+02 </wgt>
<wgt id='1568'> +2.8867813e+02 </wgt>
<wgt id='1569'> +2.9005708e+02 </wgt>
<wgt id='1570'> +2.8749588e+02 </wgt>
<wgt id='1571'> +2.9048660e+02 </wgt>
<wgt id='1572'> +2.8668210e+02 </wgt>
<wgt id='1573'> +2.9188739e+02 </wgt>
<wgt id='1574'> +2.8969232e+02 </wgt>
<wgt id='1575'> +2.8920836e+02 </wgt>
<wgt id='1576'> +2.8998020e+02 </wgt>
<wgt id='1577'> +2.8847959e+02 </wgt>
<wgt id='1578'> +2.8807722e+02 </wgt>
<wgt id='1579'> +2.9056303e+02 </wgt>
<wgt id='1580'> +2.9018886e+02 </wgt>
<wgt id='1581'> +2.8835254e+02 </wgt>
<wgt id='1582'> +2.8933796e+02 </wgt>
<wgt id='1583'> +2.8929479e+02 </wgt>
<wgt id='1584'> +2.8965084e+02 </wgt>
<wgt id='1585'> +2.8917264e+02 </wgt>
<wgt id='1586'> +2.8886547e+02 </wgt>
<wgt id='1587'> +2.8972333e+02 </wgt>
<wgt id='1588'> +2.8778066e+02 </wgt>
<wgt id='1589'> +2.9096157e+02 </wgt>
<wgt id='1590'> +2.9204795e+02 </wgt>
<wgt id='1591'> +2.8764652e+02 </wgt>
<wgt id='1592'> +2.8901565e+02 </wgt>
<wgt id='1593'> +2.8989547e+02 </wgt>
<wgt id='1594'> +2.9107016e+02 </wgt>
<wgt id='1595'> +2.8459375e+02 </wgt>
<wgt id='1596'> +2.9016432e+02 </wgt>
<wgt id='1597'> +2.8866008e+02 </wgt>
<wgt id='1598'> +2.8289313e+02 </wgt>
<wgt id='1599'> +2.8267259e+02 </wgt>
<wgt id='1600'> +2.8317181e+02 </wgt>
<wgt id='1601'> +2.8378596e+02 </wgt>
<wgt id='1602'> +2.8199877e+02 </wgt>
<wgt id='1603'> +2.8367518e+02 </wgt>
<wgt id='1604'> +2.8258194e+02 </wgt>
<wgt id='1605'> +2.8220462e+02 </wgt>
<wgt id='1606'> +2.8357987e+02 </wgt>
<wgt id='1607'> +2.8314372e+02 </wgt>
<wgt id='1608'> +2.8264875e+02 </wgt>
<wgt id='1609'> +2.8141566e+02 </wgt>
<wgt id='1610'> +2.8353765e+02 </wgt>
<wgt id='1611'> +2.8290670e+02 </wgt>
<wgt id='1612'> +2.8286928e+02 </wgt>
<wgt id='1613'> +2.8253648e+02 </wgt>
<wgt id='1614'> +2.8327413e+02 </wgt>
<wgt id='1615'> +2.8338646e+02 </wgt>
<wgt id='1616'> +2.8260512e+02 </wgt>
<wgt id='1617'> +2.8271244e+02 </wgt>
<wgt id='1618'> +2.8312765e+02 </wgt>
<wgt id='1619'> +2.8250991e+02 </wgt>
<wgt id='1620'> +2.8315530e+02 </wgt>
<wgt id='1621'> +2.8644632e+02 </wgt>
<wgt id='1622'> +2.7955019e+02 </wgt>
<wgt id='1623'> +2.8410018e+02 </wgt>
<wgt id='1624'> +2.7992448e+02 </wgt>
<wgt id='1625'> +2.8366893e+02 </wgt>
<wgt id='1626'> +2.8227429e+02 </wgt>
<wgt id='1627'> +2.8234255e+02 </wgt>
<wgt id='1628'> +2.8453613e+02 </wgt>
<wgt id='1629'> +2.8230220e+02 </wgt>
<wgt id='1630'> +2.8413283e+02 </wgt>
<wgt id='1631'> +2.8278890e+02 </wgt>
<wgt id='1632'> +2.8309937e+02 </wgt>
<wgt id='1633'> +2.8259917e+02 </wgt>
<wgt id='1634'> +2.8303577e+02 </wgt>
<wgt id='1635'> +2.8292387e+02 </wgt>
<wgt id='1636'> +2.8279170e+02 </wgt>
<wgt id='1637'> +2.8235898e+02 </wgt>
<wgt id='1638'> +2.8329397e+02 </wgt>
<wgt id='1639'> +2.8259083e+02 </wgt>
<wgt id='1640'> +2.8290408e+02 </wgt>
<wgt id='1641'> +2.8316359e+02 </wgt>
<wgt id='1642'> +2.8128464e+02 </wgt>
<wgt id='1643'> +2.7917957e+02 </wgt>
<wgt id='1644'> +2.8464427e+02 </wgt>
<wgt id='1645'> +2.8385786e+02 </wgt>
<wgt id='1646'> +2.8236391e+02 </wgt>
<wgt id='1647'> +2.8143117e+02 </wgt>
<wgt id='1648'> +2.8308548e+02 </wgt>
<wgt id='1649'> +4.9970695e+02 </wgt>
<wgt id='1650'> +2.8232088e+02 </wgt>
<wgt id='1651'> +2.8221128e+02 </wgt>
<wgt id='1652'> +2.8240524e+02 </wgt>
<wgt id='1653'> +2.8233896e+02 </wgt>
<wgt id='1654'> +2.8231354e+02 </wgt>
<wgt id='1655'> +2.8174754e+02 </wgt>
<wgt id='1656'> +2.8241151e+02 </wgt>
<wgt id='1657'> +2.8251219e+02 </wgt>
<wgt id='1658'> +2.8291697e+02 </wgt>
<wgt id='1659'> +2.8346997e+02 </wgt>
<wgt id='1660'> +2.8212067e+02 </wgt>
<wgt id='1661'> +2.8229386e+02 </wgt>
<wgt id='1662'> +2.8154014e+02 </wgt>
<wgt id='1663'> +2.8179913e+02 </wgt>
<wgt id='1664'> +2.8262269e+02 </wgt>
<wgt id='1665'> +2.8212914e+02 </wgt>
<wgt id='1666'> +2.8247917e+02 </wgt>
<wgt id='1667'> +2.8202234e+02 </wgt>
<wgt id='1668'> +2.8272779e+02 </wgt>
<wgt id='1669'> +2.8274209e+02 </wgt>
<wgt id='1670'> +2.8159013e+02 </wgt>
<wgt id='1671'> +2.8224475e+02 </wgt>
<wgt id='1672'> +2.8091115e+02 </wgt>
<wgt id='1673'> +2.8248262e+02 </wgt>
<wgt id='1674'> +2.8231653e+02 </wgt>
<wgt id='1675'> +2.8297830e+02 </wgt>
<wgt id='1676'> +2.8288728e+02 </wgt>
<wgt id='1677'> +2.8213318e+02 </wgt>
<wgt id='1678'> +2.8255765e+02 </wgt>
<wgt id='1679'> +2.8048881e+02 </wgt>
<wgt id='1680'> +2.8726344e+02 </wgt>
<wgt id='1681'> +2.8655114e+02 </wgt>
<wgt id='1682'> +2.9065445e+02 </wgt>
<wgt id='1683'> +2.8900749e+02 </wgt>
<wgt id='1684'> +2.8630648e+02 </wgt>
<wgt id='1685'> +2.8565582e+02 </wgt>
<wgt id='1686'> +2.8808586e+02 </wgt>
<wgt id='1687'> +2.8567282e+02 </wgt>
<wgt id='1688'> +2.8696495e+02 </wgt>
<wgt id='1689'> +2.8722279e+02 </wgt>
<wgt id='1690'> +2.9215143e+02 </wgt>
<wgt id='1691'> +2.8719387e+02 </wgt>
<wgt id='1692'> +2.8385803e+02 </wgt>
<wgt id='1693'> +2.8792360e+02 </wgt>
<wgt id='1694'> +2.8391837e+02 </wgt>
<wgt id='1695'> +2.8799111e+02 </wgt>
<wgt id='1696'> +2.8773352e+02 </wgt>
<wgt id='1697'> +2.8632965e+02 </wgt>
<wgt id='1698'> +2.8635722e+02 </wgt>
<wgt id='1699'> +2.8646898e+02 </wgt>
<wgt id='1700'> +2.8701662e+02 </wgt>
<wgt id='1701'> +2.8585544e+02 </wgt>
<wgt id='1702'> +2.8786567e+02 </wgt>
<wgt id='1703'> +2.8662942e+02 </wgt>
<wgt id='1704'> +2.8725289e+02 </wgt>
<wgt id='1705'> +2.8717793e+02 </wgt>
<wgt id='1706'> +2.8711147e+02 </wgt>
<wgt id='1707'> +2.8727918e+02 </wgt>
<wgt id='1708'> +2.8676343e+02 </wgt>
<wgt id='1709'> +2.8707526e+02 </wgt>
<wgt id='1710'> +2.8727147e+02 </wgt>
<wgt id='1711'> +2.8718598e+02 </wgt>
<wgt id='1712'> +2.8725920e+02 </wgt>
<wgt id='1713'> +2.8681964e+02 </wgt>
<wgt id='1714'> +2.8741872e+02 </wgt>
<wgt id='1715'> +2.8784340e+02 </wgt>
<wgt id='1716'> +2.8708982e+02 </wgt>
<wgt id='1717'> +2.8733606e+02 </wgt>
<wgt id='1718'> +2.8711752e+02 </wgt>
<wgt id='1719'> +2.8737440e+02 </wgt>
<wgt id='1720'> +2.8741837e+02 </wgt>
<wgt id='1721'> +2.8748038e+02 </wgt>
<wgt id='1722'> +2.8751752e+02 </wgt>
<wgt id='1723'> +2.8699361e+02 </wgt>
<wgt id='1724'> +2.8766051e+02 </wgt>
<wgt id='1725'> +2.8745526e+02 </wgt>
<wgt id='1726'> +2.8752674e+02 </wgt>
<wgt id='1727'> +2.8701697e+02 </wgt>
<wgt id='1728'> +2.8703994e+02 </wgt>
<wgt id='1729'> +2.8731289e+02 </wgt>
<wgt id='1730'> +2.8715545e+02 </wgt>
<wgt id='1731'> +2.8698984e+02 </wgt>
<wgt id='1732'> +2.8720792e+02 </wgt>
<wgt id='1733'> +2.8700975e+02 </wgt>
<wgt id='1734'> +2.8707293e+02 </wgt>
<wgt id='1735'> +2.8729211e+02 </wgt>
<wgt id='1736'> +2.8722066e+02 </wgt>
<wgt id='1737'> +2.8725728e+02 </wgt>
<wgt id='1738'> +2.8761061e+02 </wgt>
<wgt id='1739'> +2.8714886e+02 </wgt>
<wgt id='1740'> +2.8691486e+02 </wgt>
<wgt id='1741'> +2.8730907e+02 </wgt>
<wgt id='1742'> +2.8708671e+02 </wgt>
<wgt id='1743'> +2.8725977e+02 </wgt>
<wgt id='1744'> +2.8719110e+02 </wgt>
<wgt id='1745'> +2.8729730e+02 </wgt>
<wgt id='1746'> +2.8730960e+02 </wgt>
<wgt id='1747'> +2.8724984e+02 </wgt>
<wgt id='1748'> +2.8741619e+02 </wgt>
<wgt id='1749'> +2.8736371e+02 </wgt>
<wgt id='1750'> +2.8716614e+02 </wgt>
<wgt id='1751'> +2.8709330e+02 </wgt>
<wgt id='1752'> +2.8716873e+02 </wgt>
<wgt id='1753'> +2.8715050e+02 </wgt>
<wgt id='1754'> +2.8720341e+02 </wgt>
<wgt id='1755'> +2.8721433e+02 </wgt>
<wgt id='1756'> +2.8727220e+02 </wgt>
<wgt id='1757'> +2.8717921e+02 </wgt>
<wgt id='1758'> +2.8725158e+02 </wgt>
<wgt id='1759'> +2.8745890e+02 </wgt>
<wgt id='1760'> +2.8726057e+02 </wgt>
<wgt id='1761'> +2.8735736e+02 </wgt>
<wgt id='1762'> +2.8710970e+02 </wgt>
<wgt id='1763'> +2.8734432e+02 </wgt>
<wgt id='1764'> +2.8739259e+02 </wgt>
<wgt id='1765'> +2.8731710e+02 </wgt>
<wgt id='1766'> +2.8747025e+02 </wgt>
<wgt id='1767'> +2.8727160e+02 </wgt>
<wgt id='1768'> +2.8724001e+02 </wgt>
<wgt id='1769'> +2.8726163e+02 </wgt>
<wgt id='1770'> +2.8725795e+02 </wgt>
<wgt id='1771'> +2.8717487e+02 </wgt>
<wgt id='1772'> +2.8724611e+02 </wgt>
<wgt id='1773'> +2.8718733e+02 </wgt>
<wgt id='1774'> +2.8725298e+02 </wgt>
<wgt id='1775'> +2.8725706e+02 </wgt>
<wgt id='1776'> +2.8722275e+02 </wgt>
<wgt id='1777'> +2.8731421e+02 </wgt>
<wgt id='1778'> +2.8732644e+02 </wgt>
<wgt id='1779'> +2.8729029e+02 </wgt>
<wgt id='1780'> +2.8726249e+02 </wgt>
<wgt id='1781'> +2.7410763e+02 </wgt>
<wgt id='1782'> +3.0022355e+02 </wgt>
<wgt id='1783'> +2.8347116e+02 </wgt>
<wgt id='1784'> +2.8355717e+02 </wgt>
<wgt id='1785'> +2.8500902e+02 </wgt>
<wgt id='1786'> +2.8100143e+02 </wgt>
<wgt id='1787'> +2.8306071e+02 </wgt>
<wgt id='1788'> +2.8544544e+02 </wgt>
<wgt id='1789'> +2.8210879e+02 </wgt>
<wgt id='1790'> +2.8135314e+02 </wgt>
<wgt id='1791'> +2.8297599e+02 </wgt>
<wgt id='1792'> +2.8348234e+02 </wgt>
<wgt id='1793'> +2.8197491e+02 </wgt>
<wgt id='1794'> +2.8707095e+02 </wgt>
<wgt id='1795'> +2.8288413e+02 </wgt>
<wgt id='1796'> +2.7930619e+02 </wgt>
<wgt id='1797'> +2.8111114e+02 </wgt>
<wgt id='1798'> +2.8321259e+02 </wgt>
<wgt id='1799'> +2.8666645e+02 </wgt>
<wgt id='1800'> +2.8309119e+02 </wgt>
<wgt id='1801'> +2.8314695e+02 </wgt>
<wgt id='1802'> +2.8320960e+02 </wgt>
<wgt id='1803'> +2.8486355e+02 </wgt>
<wgt id='1804'> +2.8270648e+02 </wgt>
<wgt id='1805'> +2.8394106e+02 </wgt>
<wgt id='1806'> +2.8267472e+02 </wgt>
<wgt id='1807'> +2.8310737e+02 </wgt>
<wgt id='1808'> +2.8400190e+02 </wgt>
<wgt id='1809'> +2.8356888e+02 </wgt>
<wgt id='1810'> +2.8300327e+02 </wgt>
<wgt id='1811'> +2.8366099e+02 </wgt>
<wgt id='1812'> +2.8377969e+02 </wgt>
<wgt id='1813'> +2.8346025e+02 </wgt>
<wgt id='1814'> +2.8329755e+02 </wgt>
<wgt id='1815'> +2.8371457e+02 </wgt>
<wgt id='1816'> +2.8379057e+02 </wgt>
<wgt id='1817'> +2.8335164e+02 </wgt>
<wgt id='1818'> +2.8380899e+02 </wgt>
<wgt id='1819'> +2.8347158e+02 </wgt>
<wgt id='1820'> +2.8373665e+02 </wgt>
<wgt id='1821'> +2.8355587e+02 </wgt>
<wgt id='1822'> +2.8349098e+02 </wgt>
<wgt id='1823'> +2.8322405e+02 </wgt>
<wgt id='1824'> +2.8341664e+02 </wgt>
<wgt id='1825'> +2.8348140e+02 </wgt>
<wgt id='1826'> +2.8323360e+02 </wgt>
<wgt id='1827'> +2.8358713e+02 </wgt>
<wgt id='1828'> +2.8352251e+02 </wgt>
<wgt id='1829'> +2.8308811e+02 </wgt>
<wgt id='1830'> +2.8340063e+02 </wgt>
<wgt id='1831'> +2.8360420e+02 </wgt>
<wgt id='1832'> +2.8330782e+02 </wgt>
<wgt id='1833'> +2.8354963e+02 </wgt>
<wgt id='1834'> +2.8360182e+02 </wgt>
<wgt id='1835'> +2.8356340e+02 </wgt>
<wgt id='1836'> +2.8347403e+02 </wgt>
<wgt id='1837'> +2.8330627e+02 </wgt>
<wgt id='1838'> +2.8340312e+02 </wgt>
<wgt id='1839'> +2.8374844e+02 </wgt>
<wgt id='1840'> +2.8347173e+02 </wgt>
<wgt id='1841'> +2.8319961e+02 </wgt>
<wgt id='1842'> +2.8331942e+02 </wgt>
<wgt id='1843'> +2.8334740e+02 </wgt>
<wgt id='1844'> +2.8351375e+02 </wgt>
<wgt id='1845'> +2.8351973e+02 </wgt>
<wgt id='1846'> +2.8359985e+02 </wgt>
<wgt id='1847'> +2.8342468e+02 </wgt>
<wgt id='1848'> +2.8344234e+02 </wgt>
<wgt id='1849'> +2.8349040e+02 </wgt>
<wgt id='1850'> +2.8357895e+02 </wgt>
<wgt id='1851'> +2.8358387e+02 </wgt>
<wgt id='1852'> +2.8364902e+02 </wgt>
<wgt id='1853'> +2.8343067e+02 </wgt>
<wgt id='1854'> +2.8365733e+02 </wgt>
<wgt id='1855'> +2.8365634e+02 </wgt>
<wgt id='1856'> +2.8339296e+02 </wgt>
<wgt id='1857'> +2.8352268e+02 </wgt>
<wgt id='1858'> +2.8345820e+02 </wgt>
<wgt id='1859'> +2.8343275e+02 </wgt>
<wgt id='1860'> +2.8351413e+02 </wgt>
<wgt id='1861'> +2.8347630e+02 </wgt>
<wgt id='1862'> +2.8340981e+02 </wgt>
<wgt id='1863'> +2.8371624e+02 </wgt>
<wgt id='1864'> +2.8344384e+02 </wgt>
<wgt id='1865'> +2.8355559e+02 </wgt>
<wgt id='1866'> +2.8337436e+02 </wgt>
<wgt id='1867'> +2.8336884e+02 </wgt>
<wgt id='1868'> +2.8336228e+02 </wgt>
<wgt id='1869'> +2.8352526e+02 </wgt>
<wgt id='1870'> +2.8324139e+02 </wgt>
<wgt id='1871'> +2.8338342e+02 </wgt>
<wgt id='1872'> +2.8338080e+02 </wgt>
<wgt id='1873'> +2.8351230e+02 </wgt>
<wgt id='1874'> +2.8342320e+02 </wgt>
<wgt id='1875'> +2.8344898e+02 </wgt>
<wgt id='1876'> +2.8341731e+02 </wgt>
<wgt id='1877'> +2.8343160e+02 </wgt>
<wgt id='1878'> +2.8350007e+02 </wgt>
<wgt id='1879'> +2.8341749e+02 </wgt>
<wgt id='1880'> +2.8349414e+02 </wgt>
<wgt id='1881'> +2.8345604e+02 </wgt>
<wgt id='1882'> +2.8340581e+02 </wgt>
<wgt id='1883'> +2.8347022e+02 </wgt>
<wgt id='1884'> +2.7101059e+02 </wgt>
<wgt id='1885'> +2.9562167e+02 </wgt>
<wgt id='1886'> +2.8723317e+02 </wgt>
<wgt id='1887'> +2.8914339e+02 </wgt>
<wgt id='1888'> +2.8588888e+02 </wgt>
<wgt id='1889'> +2.8717505e+02 </wgt>
<wgt id='1890'> +2.8445761e+02 </wgt>
<wgt id='1891'> +2.9430143e+02 </wgt>
<wgt id='1892'> +2.8646394e+02 </wgt>
<wgt id='1893'> +2.8716704e+02 </wgt>
<wgt id='1894'> +2.8771062e+02 </wgt>
<wgt id='1895'> +2.8641460e+02 </wgt>
<wgt id='1896'> +2.8778574e+02 </wgt>
<wgt id='1897'> +2.8621414e+02 </wgt>
<wgt id='1898'> +2.8728714e+02 </wgt>
<wgt id='1899'> +2.8747473e+02 </wgt>
<wgt id='1900'> +2.8684760e+02 </wgt>
<wgt id='1901'> +2.8711306e+02 </wgt>
<wgt id='1902'> +2.8651521e+02 </wgt>
<wgt id='1903'> +2.8879813e+02 </wgt>
<wgt id='1904'> +2.8748908e+02 </wgt>
<wgt id='1905'> +2.8668650e+02 </wgt>
<wgt id='1906'> +2.8693322e+02 </wgt>
<wgt id='1907'> +2.8710164e+02 </wgt>
<wgt id='1908'> +2.8717762e+02 </wgt>
<wgt id='1909'> +2.8732772e+02 </wgt>
<wgt id='1910'> +2.8698381e+02 </wgt>
<wgt id='1911'> +2.8709098e+02 </wgt>
<wgt id='1912'> +2.8783802e+02 </wgt>
<wgt id='1913'> +2.8763288e+02 </wgt>
<wgt id='1914'> +2.8936808e+02 </wgt>
<wgt id='1915'> +2.8734869e+02 </wgt>
<wgt id='1916'> +2.8713162e+02 </wgt>
<wgt id='1917'> +2.7410763e+02 </wgt>
<wgt id='1918'> +3.0022355e+02 </wgt>
<wgt id='1919'> +2.8341756e+02 </wgt>
<wgt id='1920'> +2.8102397e+02 </wgt>
<wgt id='1921'> +2.8497650e+02 </wgt>
<wgt id='1922'> +2.8323726e+02 </wgt>
<wgt id='1923'> +2.8505196e+02 </wgt>
<wgt id='1924'> +2.8044926e+02 </wgt>
<wgt id='1925'> +2.8354683e+02 </wgt>
<wgt id='1926'> +2.8273606e+02 </wgt>
<wgt id='1927'> +2.8311204e+02 </wgt>
<wgt id='1928'> +2.8216241e+02 </wgt>
<wgt id='1929'> +2.8142215e+02 </wgt>
<wgt id='1930'> +2.8196187e+02 </wgt>
<wgt id='1931'> +2.8372385e+02 </wgt>
<wgt id='1932'> +2.8422655e+02 </wgt>
<wgt id='1933'> +2.8254831e+02 </wgt>
<wgt id='1934'> +2.8309565e+02 </wgt>
<wgt id='1935'> +2.8306839e+02 </wgt>
<wgt id='1936'> +2.8587330e+02 </wgt>
<wgt id='1937'> +2.8323567e+02 </wgt>
<wgt id='1938'> +2.8321127e+02 </wgt>
<wgt id='1939'> +2.8432079e+02 </wgt>
<wgt id='1940'> +2.8419578e+02 </wgt>
<wgt id='1941'> +2.8939957e+02 </wgt>
<wgt id='1942'> +2.8353650e+02 </wgt>
<wgt id='1943'> +2.8345365e+02 </wgt>
<wgt id='1944'> +2.8351437e+02 </wgt>
<wgt id='1945'> +2.8342092e+02 </wgt>
<wgt id='1946'> +2.8333537e+02 </wgt>
<wgt id='1947'> +2.8347768e+02 </wgt>
<wgt id='1948'> +2.8339181e+02 </wgt>
<wgt id='1949'> +2.8340435e+02 </wgt>
<wgt id='1950'> +2.7101059e+02 </wgt>
<wgt id='1951'> +2.9562167e+02 </wgt>
<wgt id='1952'> +2.9279259e+02 </wgt>
<wgt id='1953'> +2.9237918e+02 </wgt>
<wgt id='1954'> +2.9320470e+02 </wgt>
<wgt id='1955'> +2.9318233e+02 </wgt>
<wgt id='1956'> +2.9240310e+02 </wgt>
<wgt id='1957'> +2.9334392e+02 </wgt>
<wgt id='1958'> +2.9224295e+02 </wgt>
<wgt id='1959'> +2.9415151e+02 </wgt>
<wgt id='1960'> +2.9146554e+02 </wgt>
<wgt id='1961'> +2.9287455e+02 </wgt>
<wgt id='1962'> +2.9271659e+02 </wgt>
<wgt id='1963'> +2.9158616e+02 </wgt>
<wgt id='1964'> +2.9417306e+02 </wgt>
<wgt id='1965'> +2.9160610e+02 </wgt>
<wgt id='1966'> +2.9399783e+02 </wgt>
<wgt id='1967'> +2.9276963e+02 </wgt>
<wgt id='1968'> +2.9220236e+02 </wgt>
<wgt id='1969'> +2.9410078e+02 </wgt>
<wgt id='1970'> +2.9183733e+02 </wgt>
<wgt id='1971'> +2.9181870e+02 </wgt>
<wgt id='1972'> +2.9355464e+02 </wgt>
<wgt id='1973'> +2.9367068e+02 </wgt>
<wgt id='1974'> +2.9175808e+02 </wgt>
<wgt id='1975'> +2.9124411e+02 </wgt>
<wgt id='1976'> +2.9328565e+02 </wgt>
<wgt id='1977'> +2.9321403e+02 </wgt>
<wgt id='1978'> +2.9265809e+02 </wgt>
<wgt id='1979'> +2.9407256e+02 </wgt>
<wgt id='1980'> +2.9175403e+02 </wgt>
<wgt id='1981'> +2.9279259e+02 </wgt>
<wgt id='1982'> +2.9313936e+02 </wgt>
<wgt id='1983'> +2.9210467e+02 </wgt>
<wgt id='1984'> +2.9312220e+02 </wgt>
<wgt id='1985'> +2.9233226e+02 </wgt>
<wgt id='1986'> +2.9366682e+02 </wgt>
<wgt id='1987'> +2.9136904e+02 </wgt>
<wgt id='1988'> +2.9194457e+02 </wgt>
<wgt id='1989'> +2.9364782e+02 </wgt>
<wgt id='1990'> +2.9321187e+02 </wgt>
<wgt id='1991'> +2.9244734e+02 </wgt>
<wgt id='1992'> +2.9256000e+02 </wgt>
<wgt id='1993'> +2.9229714e+02 </wgt>
<wgt id='1994'> +2.8945550e+02 </wgt>
<wgt id='1995'> +2.7914106e+02 </wgt>
<wgt id='1996'> +2.7884779e+02 </wgt>
<wgt id='1997'> +2.7937952e+02 </wgt>
<wgt id='1998'> +2.7916019e+02 </wgt>
<wgt id='1999'> +2.7906856e+02 </wgt>
<wgt id='2000'> +2.7964315e+02 </wgt>
<wgt id='2001'> +2.7858570e+02 </wgt>
<wgt id='2002'> +2.8073853e+02 </wgt>
<wgt id='2003'> +2.7753499e+02 </wgt>
<wgt id='2004'> +2.7847712e+02 </wgt>
<wgt id='2005'> +2.7978332e+02 </wgt>
<wgt id='2006'> +2.8000794e+02 </wgt>
<wgt id='2007'> +2.7822539e+02 </wgt>
<wgt id='2008'> +2.7844824e+02 </wgt>
<wgt id='2009'> +2.7975719e+02 </wgt>
<wgt id='2010'> +2.7850935e+02 </wgt>
<wgt id='2011'> +2.7901536e+02 </wgt>
<wgt id='2012'> +2.7918533e+02 </wgt>
<wgt id='2013'> +2.7902573e+02 </wgt>
<wgt id='2014'> +2.7836932e+02 </wgt>
<wgt id='2015'> +2.7986936e+02 </wgt>
<wgt id='2016'> +2.7778957e+02 </wgt>
<wgt id='2017'> +2.8024010e+02 </wgt>
<wgt id='2018'> +2.7898750e+02 </wgt>
<wgt id='2019'> +2.7926406e+02 </wgt>
<wgt id='2020'> +2.7734093e+02 </wgt>
<wgt id='2021'> +2.8044725e+02 </wgt>
<wgt id='2022'> +2.7864641e+02 </wgt>
<wgt id='2023'> +2.7980585e+02 </wgt>
<wgt id='2024'> +2.7935664e+02 </wgt>
<wgt id='2025'> +2.7994744e+02 </wgt>
<wgt id='2026'> +2.7785701e+02 </wgt>
<wgt id='2027'> +2.7984421e+02 </wgt>
<wgt id='2028'> +2.7879136e+02 </wgt>
<wgt id='2029'> +2.7842544e+02 </wgt>
<wgt id='2030'> +2.7767469e+02 </wgt>
<wgt id='2031'> +2.7861049e+02 </wgt>
<wgt id='2032'> +2.8071560e+02 </wgt>
<wgt id='2033'> +2.7934218e+02 </wgt>
<wgt id='2034'> +2.7772114e+02 </wgt>
<wgt id='2035'> +2.7850124e+02 </wgt>
<wgt id='2036'> +2.8130085e+02 </wgt>
<wgt id='2037'> +2.7814862e+02 </wgt>
<wgt id='2038'> +2.7998684e+02 </wgt>
<wgt id='2039'> +2.7994758e+02 </wgt>
<wgt id='2040'> +2.7990850e+02 </wgt>
<wgt id='2041'> +2.7986914e+02 </wgt>
<wgt id='2042'> +2.7983018e+02 </wgt>
<wgt id='2043'> +2.7979091e+02 </wgt>
<wgt id='2044'> +2.7975231e+02 </wgt>
<wgt id='2045'> +2.7971289e+02 </wgt>
<wgt id='2046'> +2.7967512e+02 </wgt>
<wgt id='2047'> +2.7963487e+02 </wgt>
<wgt id='2048'> +2.7959517e+02 </wgt>
<wgt id='2049'> +2.7955756e+02 </wgt>
<wgt id='2050'> +2.7951743e+02 </wgt>
<wgt id='2051'> +2.7947835e+02 </wgt>
<wgt id='2052'> +2.7944022e+02 </wgt>
<wgt id='2053'> +2.7940120e+02 </wgt>
<wgt id='2054'> +2.7936103e+02 </wgt>
<wgt id='2055'> +2.7932322e+02 </wgt>
<wgt id='2056'> +2.7928375e+02 </wgt>
<wgt id='2057'> +2.7924360e+02 </wgt>
<wgt id='2058'> +2.7920586e+02 </wgt>
<wgt id='2059'> +2.7916641e+02 </wgt>
<wgt id='2060'> +2.7912781e+02 </wgt>
<wgt id='2061'> +2.7908838e+02 </wgt>
<wgt id='2062'> +2.7904951e+02 </wgt>
<wgt id='2063'> +2.7901041e+02 </wgt>
<wgt id='2064'> +2.7897151e+02 </wgt>
<wgt id='2065'> +2.7893222e+02 </wgt>
<wgt id='2066'> +2.7889315e+02 </wgt>
<wgt id='2067'> +2.7885387e+02 </wgt>
<wgt id='2068'> +2.7881477e+02 </wgt>
<wgt id='2069'> +2.8002514e+02 </wgt>
<wgt id='2070'> +2.8008241e+02 </wgt>
<wgt id='2071'> +2.8153069e+02 </wgt>
<wgt id='2072'> +2.7759623e+02 </wgt>
<wgt id='2073'> +2.7961816e+02 </wgt>
<wgt id='2074'> +2.8198074e+02 </wgt>
<wgt id='2075'> +2.7870628e+02 </wgt>
<wgt id='2076'> +2.7795110e+02 </wgt>
<wgt id='2077'> +2.7953518e+02 </wgt>
<wgt id='2078'> +2.8004233e+02 </wgt>
<wgt id='2079'> +2.7854512e+02 </wgt>
<wgt id='2080'> +2.8361390e+02 </wgt>
<wgt id='2081'> +2.7945886e+02 </wgt>
<wgt id='2082'> +2.7592949e+02 </wgt>
<wgt id='2083'> +2.7768349e+02 </wgt>
<wgt id='2084'> +2.7971610e+02 </wgt>
<wgt id='2085'> +2.8321375e+02 </wgt>
<wgt id='2086'> +2.7963606e+02 </wgt>
<wgt id='2087'> +2.7970104e+02 </wgt>
<wgt id='2088'> +2.7979234e+02 </wgt>
<wgt id='2089'> +2.8142789e+02 </wgt>
<wgt id='2090'> +2.7924035e+02 </wgt>
<wgt id='2091'> +2.8049309e+02 </wgt>
<wgt id='2092'> +2.7922970e+02 </wgt>
<wgt id='2093'> +2.7964366e+02 </wgt>
<wgt id='2094'> +2.8053493e+02 </wgt>
<wgt id='2095'> +2.8009809e+02 </wgt>
<wgt id='2096'> +2.7958328e+02 </wgt>
<wgt id='2097'> +2.8022619e+02 </wgt>
<wgt id='2098'> +2.8032227e+02 </wgt>
<wgt id='2099'> +2.8000135e+02 </wgt>
<wgt id='2100'> +2.7987692e+02 </wgt>
<wgt id='2101'> +2.8025866e+02 </wgt>
<wgt id='2102'> +2.8033654e+02 </wgt>
<wgt id='2103'> +2.7990655e+02 </wgt>
<wgt id='2104'> +2.8035693e+02 </wgt>
<wgt id='2105'> +2.8002664e+02 </wgt>
<wgt id='2106'> +2.8029103e+02 </wgt>
<wgt id='2107'> +2.8010712e+02 </wgt>
<wgt id='2108'> +2.8003536e+02 </wgt>
<wgt id='2109'> +2.7977959e+02 </wgt>
<wgt id='2110'> +2.7996450e+02 </wgt>
<wgt id='2111'> +2.8003221e+02 </wgt>
<wgt id='2112'> +2.7980348e+02 </wgt>
<wgt id='2113'> +2.8013938e+02 </wgt>
<wgt id='2114'> +2.8007212e+02 </wgt>
<wgt id='2115'> +2.7965212e+02 </wgt>
<wgt id='2116'> +2.7994998e+02 </wgt>
<wgt id='2117'> +2.8016100e+02 </wgt>
<wgt id='2118'> +2.7985956e+02 </wgt>
<wgt id='2119'> +2.8010535e+02 </wgt>
<wgt id='2120'> +2.8015283e+02 </wgt>
<wgt id='2121'> +2.8011499e+02 </wgt>
<wgt id='2122'> +2.8003036e+02 </wgt>
<wgt id='2123'> +2.7986435e+02 </wgt>
<wgt id='2124'> +2.7996042e+02 </wgt>
<wgt id='2125'> +2.8029122e+02 </wgt>
<wgt id='2126'> +2.8002535e+02 </wgt>
<wgt id='2127'> +2.7976448e+02 </wgt>
<wgt id='2128'> +2.7987840e+02 </wgt>
<wgt id='2129'> +2.7990576e+02 </wgt>
<wgt id='2130'> +2.8006844e+02 </wgt>
<wgt id='2131'> +2.8007068e+02 </wgt>
<wgt id='2132'> +2.8015014e+02 </wgt>
<wgt id='2133'> +2.7998219e+02 </wgt>
<wgt id='2134'> +2.7999445e+02 </wgt>
<wgt id='2135'> +2.8004333e+02 </wgt>
<wgt id='2136'> +2.8012730e+02 </wgt>
<wgt id='2137'> +2.8013758e+02 </wgt>
<wgt id='2138'> +2.8019734e+02 </wgt>
<wgt id='2139'> +2.7998332e+02 </wgt>
<wgt id='2140'> +2.8021296e+02 </wgt>
<wgt id='2141'> +2.8020617e+02 </wgt>
<wgt id='2142'> +2.7994423e+02 </wgt>
<wgt id='2143'> +2.8007671e+02 </wgt>
<wgt id='2144'> +2.8001278e+02 </wgt>
<wgt id='2145'> +2.7999292e+02 </wgt>
<wgt id='2146'> +2.8006886e+02 </wgt>
<wgt id='2147'> +2.8003517e+02 </wgt>
<wgt id='2148'> +2.7996384e+02 </wgt>
<wgt id='2149'> +2.8026312e+02 </wgt>
<wgt id='2150'> +2.8000275e+02 </wgt>
<wgt id='2151'> +2.8011013e+02 </wgt>
<wgt id='2152'> +2.7992908e+02 </wgt>
<wgt id='2153'> +2.7992201e+02 </wgt>
<wgt id='2154'> +2.7991918e+02 </wgt>
<wgt id='2155'> +2.8008514e+02 </wgt>
<wgt id='2156'> +2.7979539e+02 </wgt>
<wgt id='2157'> +2.7993561e+02 </wgt>
<wgt id='2158'> +2.7993350e+02 </wgt>
<wgt id='2159'> +2.8006451e+02 </wgt>
<wgt id='2160'> +2.7997442e+02 </wgt>
<wgt id='2161'> +2.8000069e+02 </wgt>
<wgt id='2162'> +2.7997215e+02 </wgt>
<wgt id='2163'> +2.7998190e+02 </wgt>
<wgt id='2164'> +2.8005435e+02 </wgt>
<wgt id='2165'> +2.7997341e+02 </wgt>
<wgt id='2166'> +2.8004758e+02 </wgt>
<wgt id='2167'> +2.8000961e+02 </wgt>
<wgt id='2168'> +2.7996199e+02 </wgt>
<wgt id='2169'> +2.8002552e+02 </wgt>
<wgt id='2170'> +2.8002183e+02 </wgt>
<wgt id='2171'> +2.8000338e+02 </wgt>
<wgt id='2172'> +2.8002861e+02 </wgt>
<wgt id='2173'> +2.8002916e+02 </wgt>
<wgt id='2174'> +2.8003522e+02 </wgt>
<wgt id='2175'> +2.8002661e+02 </wgt>
<wgt id='2176'> +2.8001062e+02 </wgt>
<wgt id='2177'> +2.9153025e+02 </wgt>
<wgt id='2178'> +2.7289650e+02 </wgt>
<wgt id='2179'> +2.8910840e+02 </wgt>
<wgt id='2180'> +2.9016209e+02 </wgt>
<wgt id='2181'> +2.8960403e+02 </wgt>
<wgt id='2182'> +2.5663494e+02 </wgt>
<wgt id='2183'> +2.9637427e+02 </wgt>
<wgt id='2184'> +2.9315659e+02 </wgt>
<wgt id='2185'> +2.9529045e+02 </wgt>
<wgt id='2186'> +2.9363017e+02 </wgt>
<wgt id='2187'> +2.7723639e+02 </wgt>
<wgt id='2188'> +2.7438989e+02 </wgt>
<wgt id='2189'> +2.9764395e+02 </wgt>
<wgt id='2190'> +2.9751086e+02 </wgt>
<wgt id='2191'> +2.8117872e+02 </wgt>
<wgt id='2192'> +2.9439139e+02 </wgt>
<wgt id='2193'> +2.9627324e+02 </wgt>
<wgt id='2194'> +2.8907948e+02 </wgt>
<wgt id='2195'> +2.9307264e+02 </wgt>
<wgt id='2196'> +2.9871429e+02 </wgt>
<wgt id='2197'> +3.0055675e+02 </wgt>
<wgt id='2198'> +2.9280305e+02 </wgt>
<wgt id='2199'> +2.8491853e+02 </wgt>
<wgt id='2200'> +3.1262234e+02 </wgt>
<wgt id='2201'> +2.8922057e+02 </wgt>
<wgt id='2202'> +2.9381950e+02 </wgt>
<wgt id='2203'> +2.9024353e+02 </wgt>
<wgt id='2204'> +2.9125975e+02 </wgt>
<wgt id='2205'> +2.8884401e+02 </wgt>
<wgt id='2206'> +2.9032986e+02 </wgt>
<wgt id='2207'> +2.9827355e+02 </wgt>
<wgt id='2208'> +2.8871483e+02 </wgt>
<wgt id='2209'> +2.8170748e+02 </wgt>
<wgt id='2210'> +2.9216770e+02 </wgt>
<wgt id='2211'> +2.9096875e+02 </wgt>
<wgt id='2212'> +2.9854972e+02 </wgt>
<wgt id='2213'> +3.0182760e+02 </wgt>
<wgt id='2214'> +2.9634199e+02 </wgt>
<wgt id='2215'> +2.9759567e+02 </wgt>
<wgt id='2216'> +2.8458505e+02 </wgt>
<wgt id='2217'> +2.9402470e+02 </wgt>
<wgt id='2218'> +2.9545783e+02 </wgt>
<wgt id='2219'> +2.9169355e+02 </wgt>
<wgt id='2220'> +2.9218069e+02 </wgt>
<wgt id='2221'> +2.8799692e+02 </wgt>
<wgt id='2222'> +2.8951941e+02 </wgt>
<wgt id='2223'> +2.9715569e+02 </wgt>
<wgt id='2224'> +2.8898382e+02 </wgt>
<wgt id='2225'> +2.8997162e+02 </wgt>
<wgt id='2226'> +2.9076181e+02 </wgt>
<wgt id='2227'> +2.9090998e+02 </wgt>
<wgt id='2228'> +2.9053026e+02 </wgt>
<wgt id='2229'> +2.8681682e+02 </wgt>
<wgt id='2230'> +2.9437210e+02 </wgt>
<wgt id='2231'> +2.9313697e+02 </wgt>
<wgt id='2232'> +2.9108448e+02 </wgt>
<wgt id='2233'> +2.8529861e+02 </wgt>
<wgt id='2234'> +3.0410694e+02 </wgt>
<wgt id='2235'> +2.8670335e+02 </wgt>
<wgt id='2236'> +2.9438378e+02 </wgt>
<wgt id='2237'> +2.9203492e+02 </wgt>
<wgt id='2238'> +2.9539310e+02 </wgt>
<wgt id='2239'> +2.9131345e+02 </wgt>
<wgt id='2240'> +2.9661905e+02 </wgt>
<wgt id='2241'> +2.8452299e+02 </wgt>
<wgt id='2242'> +2.9807150e+02 </wgt>
<wgt id='2243'> +2.8989802e+02 </wgt>
<wgt id='2244'> +3.0932161e+02 </wgt>
<wgt id='2245'> +2.8780286e+02 </wgt>
<wgt id='2246'> +2.8330067e+02 </wgt>
<wgt id='2247'> +2.8934280e+02 </wgt>
<wgt id='2248'> +2.9599640e+02 </wgt>
<wgt id='2249'> +2.9199478e+02 </wgt>
<wgt id='2250'> +2.7151254e+02 </wgt>
<wgt id='2251'> +2.9270254e+02 </wgt>
<wgt id='2252'> +2.9062047e+02 </wgt>
<wgt id='2253'> +2.8028547e+02 </wgt>
<wgt id='2254'> +2.9022070e+02 </wgt>
<wgt id='2255'> +3.0146366e+02 </wgt>
<wgt id='2256'> +2.9146357e+02 </wgt>
<wgt id='2257'> +2.9116496e+02 </wgt>
<wgt id='2258'> +2.9202809e+02 </wgt>
<wgt id='2259'> +2.8695156e+02 </wgt>
<wgt id='2260'> +2.9987273e+02 </wgt>
<wgt id='2261'> +2.9266516e+02 </wgt>
<wgt id='2262'> +2.8377397e+02 </wgt>
<wgt id='2263'> +2.8887045e+02 </wgt>
<wgt id='2264'> +2.8882170e+02 </wgt>
<wgt id='2265'> +2.9258317e+02 </wgt>
<wgt id='2266'> +3.0415758e+02 </wgt>
<wgt id='2267'> +2.8703312e+02 </wgt>
<wgt id='2268'> +2.9001720e+02 </wgt>
<wgt id='2269'> +2.9740455e+02 </wgt>
<wgt id='2270'> +2.9230230e+02 </wgt>
<wgt id='2271'> +2.9540408e+02 </wgt>
<wgt id='2272'> +2.8437495e+02 </wgt>
<wgt id='2273'> +2.9850108e+02 </wgt>
<wgt id='2274'> +2.9375026e+02 </wgt>
<wgt id='2275'> +3.0315669e+02 </wgt>
<wgt id='2276'> +3.0268899e+02 </wgt>
<wgt id='2277'> +2.9174431e+02 </wgt>
<wgt id='2278'> +2.8234675e+02 </wgt>
<wgt id='2279'> +2.9977477e+02 </wgt>
<wgt id='2280'> +2.8632663e+02 </wgt>
<wgt id='2281'> +2.9979106e+02 </wgt>
<wgt id='2282'> +4.4421254e+02 </wgt>
<wgt id='2283'> +3.1016657e+02 </wgt>
<wgt id='2284'> +4.2712154e+02 </wgt>
</rwgt>
</event>
<event npLO=" -1 " npNLO=" 1 ">
 5      1 +2.8781417e+02 3.53665060e+01 7.54677110e-03 1.17692950e-01
       21 -1    0    0  502  501 +0.0000000000e+00 +0.0000000000e+00 +6.8408483000e+01 6.8408483000e+01 0.0000000000e+00 0.0000e+00 9.0000e+00
       -3 -1    0    0    0  502 +0.0000000000e+00 +0.0000000000e+00 -3.6673193000e+02 3.6673193000e+02 0.0000000000e+00 0.0000e+00 9.0000e+00
       25  1    1    2    0    0 +6.2114072000e+01 -3.4740039000e+00 +6.4733036000e+00 1.1794969000e+02 1.0000000000e+02 0.0000e+00 9.0000e+00
       -3  1    1    2    0  503 -4.3054287000e+01 +2.4651863000e+01 -2.5533018000e+02 2.6010553000e+02 0.0000000000e+00 0.0000e+00 9.0000e+00
       21  1    1    2  503  501 -1.9059784000e+01 -2.1177859000e+01 -4.9466566000e+01 5.7085184000e+01 0.0000000000e+00 0.0000e+00 9.0000e+00
#aMCatNLO 2  0  0  2  1 0.50829480E+02 0.00000000E+00 -9  5  0 0.00000000E+00 0.00000000E+00 0.00000000E+00 0.00000000E+00 0.00000000E+00
<rwgt>
<wgt id='1001'> +2.8781417e+02 </wgt>
<wgt id='1002'> +1.9360528e+02 </wgt>
<wgt id='1003'> +4.4802656e+02 </wgt>
<wgt id='1004'> +2.9535145e+02 </wgt>
<wgt id='1005'> +1.9867542e+02 </wgt>
<wgt id='1006'> +4.5975949e+02 </wgt>
<wgt id='1007'> +2.7537366e+02 </wgt>
<wgt id='1008'> +1.8523686e+02 </wgt>
<wgt id='1009'> +4.2866102e+02 </wgt>
<wgt id='1010'> +2.8781417e+02 </wgt>
<wgt id='1011'> +2.8923588e+02 </wgt>
<wgt id='1012'> +2.8605779e+02 </wgt>
<wgt id='1013'> +2.8719404e+02 </wgt>
<wgt id='1014'> +2.8693657e+02 </wgt>
<wgt id='1015'> +2.9167981e+02 </wgt>
<wgt id='1016'> +2.8773853e+02 </wgt>
<wgt id='1017'> +2.9020367e+02 </wgt>
<wgt id='1018'> +2.9270112e+02 </wgt>
<wgt id='1019'> +2.8355133e+02 </wgt>
<wgt id='1020'> +2.8713035e+02 </wgt>
<wgt id='1021'> +2.8364064e+02 </wgt>
<wgt id='1022'> +2.9138179e+02 </wgt>
<wgt id='1023'> +2.8574927e+02 </wgt>
<wgt id='1024'> +2.9001893e+02 </wgt>
<wgt id='1025'> +2.8211528e+02 </wgt>
<wgt id='1026'> +2.8694046e+02 </wgt>
<wgt id='1027'> +2.8681174e+02 </wgt>
<wgt id='1028'> +2.9175193e+02 </wgt>
<wgt id='1029'> +2.8559373e+02 </wgt>
<wgt id='1030'> +2.8872610e+02 </wgt>
<wgt id='1031'> +2.9092029e+02 </wgt>
<wgt id='1032'> +2.8929244e+02 </wgt>
<wgt id='1033'> +2.8953096e+02 </wgt>
<wgt id='1034'> +2.9003797e+02 </wgt>
<wgt id='1035'> +2.8904428e+02 </wgt>
<wgt id='1036'> +2.9119556e+02 </wgt>
<wgt id='1037'> +2.8362706e+02 </wgt>
<wgt id='1038'> +2.8981999e+02 </wgt>
<wgt id='1039'> +2.8088781e+02 </wgt>
<wgt id='1040'> +2.8600251e+02 </wgt>
<wgt id='1041'> +2.8338577e+02 </wgt>
<wgt id='1042'> +2.8929745e+02 </wgt>
<wgt id='1043'> +2.8530545e+02 </wgt>
<wgt id='1044'> +2.8725788e+02 </wgt>
<wgt id='1045'> +2.8717162e+02 </wgt>
<wgt id='1046'> +2.8826777e+02 </wgt>
<wgt id='1047'> +2.8607572e+02 </wgt>
<wgt id='1048'> +2.8770899e+02 </wgt>
<wgt id='1049'> +2.8967379e+02 </wgt>
<wgt id='1050'> +2.8915714e+02 </wgt>
<wgt id='1051'> +2.8693928e+02 </wgt>
<wgt id='1052'> +2.8563259e+02 </wgt>
<wgt id='1053'> +2.8740689e+02 </wgt>
<wgt id='1054'> +2.8924648e+02 </wgt>
<wgt id='1055'> +2.8507713e+02 </wgt>
<wgt id='1056'> +2.8727909e+02 </wgt>
<wgt id='1057'> +2.8880785e+02 </wgt>
<wgt id='1058'> +2.8889783e+02 </wgt>
<wgt id='1059'> +2.8956141e+02 </wgt>
<wgt id='1060'> +2.8873590e+02 </wgt>
<wgt id='1061'> +2.8412983e+02 </wgt>
<wgt id='1062'> +2.8870745e+02 </wgt>
<wgt id='1063'> +2.8654195e+02 </wgt>
<wgt id='1064'> +2.8879367e+02 </wgt>
<wgt id='1065'> +2.8636047e+02 </wgt>
<wgt id='1066'> +2.8863311e+02 </wgt>
<wgt id='1067'> +2.8935580e+02 </wgt>
<wgt id='1068'> +2.8699033e+02 </wgt>
<wgt id='1069'> +2.9186621e+02 </wgt>
<wgt id='1070'> +2.8639997e+02 </wgt>
<wgt id='1071'> +2.8705199e+02 </wgt>
<wgt id='1072'> +2.8902747e+02 </wgt>
<wgt id='1073'> +2.8602785e+02 </wgt>
<wgt id='1074'> +2.8949658e+02 </wgt>
<wgt id='1075'> +2.8539878e+02 </wgt>
<wgt id='1076'> +2.8946911e+02 </wgt>
<wgt id='1077'> +2.8520672e+02 </wgt>
<wgt id='1078'> +2.9060159e+02 </wgt>
<wgt id='1079'> +2.8910723e+02 </wgt>
<wgt id='1080'> +2.8961956e+02 </wgt>
<wgt id='1081'> +2.9017046e+02 </wgt>
<wgt id='1082'> +2.8816884e+02 </wgt>
<wgt id='1083'> +2.8814853e+02 </wgt>
<wgt id='1084'> +2.8745526e+02 </wgt>
<wgt id='1085'> +2.8806303e+02 </wgt>
<wgt id='1086'> +2.8999168e+02 </wgt>
<wgt id='1087'> +2.8865536e+02 </wgt>
<wgt id='1088'> +2.8719492e+02 </wgt>
<wgt id='1089'> +2.8895652e+02 </wgt>
<wgt id='1090'> +2.8787579e+02 </wgt>
<wgt id='1091'> +2.8741444e+02 </wgt>
<wgt id='1092'> +2.8775787e+02 </wgt>
<wgt id='1093'> +2.9033207e+02 </wgt>
<wgt id='1094'> +2.8641733e+02 </wgt>
<wgt id='1095'> +2.8653191e+02 </wgt>
<wgt id='1096'> +2.8730519e+02 </wgt>
<wgt id='1097'> +2.8752510e+02 </wgt>
<wgt id='1098'> +2.8805509e+02 </wgt>
<wgt id='1099'> +2.8736162e+02 </wgt>
<wgt id='1100'> +2.8753768e+02 </wgt>
<wgt id='1101'> +2.8825268e+02 </wgt>
<wgt id='1102'> +2.8808764e+02 </wgt>
<wgt id='1103'> +2.8836661e+02 </wgt>
<wgt id='1104'> +2.8760794e+02 </wgt>
<wgt id='1105'> +2.8762347e+02 </wgt>
<wgt id='1106'> +2.8805103e+02 </wgt>
<wgt id='1107'> +2.8701438e+02 </wgt>
<wgt id='1108'> +2.8789168e+02 </wgt>
<wgt id='1109'> +2.8804949e+02 </wgt>
<wgt id='1110'> +2.8781416e+02 </wgt>
<wgt id='1111'> +2.6923468e+02 </wgt>
<wgt id='1112'> +3.0874059e+02 </wgt>
<wgt id='1113'> +2.8781416e+02 </wgt>
<wgt id='1114'> +2.3666185e+02 </wgt>
<wgt id='1115'> +2.7788201e+02 </wgt>
<wgt id='1116'> +2.6959013e+02 </wgt>
<wgt id='1117'> +2.7120510e+02 </wgt>
<wgt id='1118'> +2.9498225e+02 </wgt>
<wgt id='1119'> +2.9034487e+02 </wgt>
<wgt id='1120'> +2.7901005e+02 </wgt>
<wgt id='1121'> +2.9806053e+02 </wgt>
<wgt id='1122'> +3.0543361e+02 </wgt>
<wgt id='1123'> +3.2312500e+02 </wgt>
<wgt id='1124'> +2.7326288e+02 </wgt>
<wgt id='1125'> +2.9691192e+02 </wgt>
<wgt id='1126'> +2.8387148e+02 </wgt>
<wgt id='1127'> +2.8154468e+02 </wgt>
<wgt id='1128'> +2.9275478e+02 </wgt>
<wgt id='1129'> +2.8045931e+02 </wgt>
<wgt id='1130'> +2.6598737e+02 </wgt>
<wgt id='1131'> +2.6955652e+02 </wgt>
<wgt id='1132'> +2.7600876e+02 </wgt>
<wgt id='1133'> +3.2823578e+02 </wgt>
<wgt id='1134'> +2.8011624e+02 </wgt>
<wgt id='1135'> +2.8317329e+02 </wgt>
<wgt id='1136'> +2.8948914e+02 </wgt>
<wgt id='1137'> +2.7646467e+02 </wgt>
<wgt id='1138'> +2.9017444e+02 </wgt>
<wgt id='1139'> +2.8290424e+02 </wgt>
<wgt id='1140'> +2.9237705e+02 </wgt>
<wgt id='1141'> +2.8141257e+02 </wgt>
<wgt id='1142'> +2.9814453e+02 </wgt>
<wgt id='1143'> +2.7661139e+02 </wgt>
<wgt id='1144'> +2.8291712e+02 </wgt>
<wgt id='1145'> +2.9275187e+02 </wgt>
<wgt id='1146'> +2.5928347e+02 </wgt>
<wgt id='1147'> +2.9302454e+02 </wgt>
<wgt id='1148'> +2.8318485e+02 </wgt>
<wgt id='1149'> +2.7267020e+02 </wgt>
<wgt id='1150'> +2.8456448e+02 </wgt>
<wgt id='1151'> +2.7517591e+02 </wgt>
<wgt id='1152'> +2.9223419e+02 </wgt>
<wgt id='1153'> +2.8109725e+02 </wgt>
<wgt id='1154'> +2.9157890e+02 </wgt>
<wgt id='1155'> +2.8267606e+02 </wgt>
<wgt id='1156'> +2.7242815e+02 </wgt>
<wgt id='1157'> +2.7526138e+02 </wgt>
<wgt id='1158'> +3.0439823e+02 </wgt>
<wgt id='1159'> +2.9476122e+02 </wgt>
<wgt id='1160'> +2.6603375e+02 </wgt>
<wgt id='1161'> +2.5903600e+02 </wgt>
<wgt id='1162'> +3.0170845e+02 </wgt>
<wgt id='1163'> +2.9480031e+02 </wgt>
<wgt id='1164'> +2.9895012e+02 </wgt>
<wgt id='1165'> +3.1494001e+02 </wgt>
<wgt id='1166'> +2.7540081e+02 </wgt>
<wgt id='1167'> +2.7512816e+02 </wgt>
<wgt id='1168'> +2.7669463e+02 </wgt>
<wgt id='1169'> +2.8826820e+02 </wgt>
<wgt id='1170'> +2.9592487e+02 </wgt>
<wgt id='1171'> +2.6603871e+02 </wgt>
<wgt id='1172'> +2.8902306e+02 </wgt>
<wgt id='1173'> +3.0971152e+02 </wgt>
<wgt id='1174'> +2.8277839e+02 </wgt>
<wgt id='1175'> +2.9155038e+02 </wgt>
<wgt id='1176'> +2.6891199e+02 </wgt>
<wgt id='1177'> +2.6727465e+02 </wgt>
<wgt id='1178'> +2.7289381e+02 </wgt>
<wgt id='1179'> +3.1557321e+02 </wgt>
<wgt id='1180'> +2.7799674e+02 </wgt>
<wgt id='1181'> +3.2658123e+02 </wgt>
<wgt id='1182'> +2.9090511e+02 </wgt>
<wgt id='1183'> +2.9052636e+02 </wgt>
<wgt id='1184'> +3.0050017e+02 </wgt>
<wgt id='1185'> +2.9261290e+02 </wgt>
<wgt id='1186'> +3.3235783e+02 </wgt>
<wgt id='1187'> +2.9182437e+02 </wgt>
<wgt id='1188'> +3.2445073e+02 </wgt>
<wgt id='1189'> +2.8001149e+02 </wgt>
<wgt id='1190'> +2.6599181e+02 </wgt>
<wgt id='1191'> +2.8279827e+02 </wgt>
<wgt id='1192'> +3.0225752e+02 </wgt>
<wgt id='1193'> +2.4377794e+02 </wgt>
<wgt id='1194'> +2.8313307e+02 </wgt>
<wgt id='1195'> +2.8045931e+02 </wgt>
<wgt id='1196'> +3.0788949e+02 </wgt>
<wgt id='1197'> +2.8676444e+02 </wgt>
<wgt id='1198'> +2.7383673e+02 </wgt>
<wgt id='1199'> +2.4164405e+02 </wgt>
<wgt id='1200'> +3.0089914e+02 </wgt>
<wgt id='1201'> +2.8430102e+02 </wgt>
<wgt id='1202'> +3.9683919e+02 </wgt>
<wgt id='1203'> +2.9453509e+02 </wgt>
<wgt id='1204'> +2.9972264e+02 </wgt>
<wgt id='1205'> +3.3944216e+02 </wgt>
<wgt id='1206'> +3.0529713e+02 </wgt>
<wgt id='1207'> +2.8528587e+02 </wgt>
<wgt id='1208'> +2.6998963e+02 </wgt>
<wgt id='1209'> +2.9862863e+02 </wgt>
<wgt id='1210'> +2.9636704e+02 </wgt>
<wgt id='1211'> +2.7060527e+02 </wgt>
<wgt id='1212'> +2.8754921e+02 </wgt>
<wgt id='1213'> +2.8820406e+02 </wgt>
<wgt id='1214'> +2.8798107e+02 </wgt>
<wgt id='1215'> +2.8815282e+02 </wgt>
<wgt id='1216'> +2.8928192e+02 </wgt>
<wgt id='1217'> +2.8826642e+02 </wgt>
<wgt id='1218'> +2.8716515e+02 </wgt>
<wgt id='1219'> +2.8699819e+02 </wgt>
<wgt id='1220'> +2.8760338e+02 </wgt>
<wgt id='1221'> +2.8595504e+02 </wgt>
<wgt id='1222'> +2.8690421e+02 </wgt>
<wgt id='1223'> +2.8701867e+02 </wgt>
<wgt id='1224'> +2.8905260e+02 </wgt>
<wgt id='1225'> +2.8871921e+02 </wgt>
<wgt id='1226'> +2.8820549e+02 </wgt>
<wgt id='1227'> +2.9006490e+02 </wgt>
<wgt id='1228'> +2.8986123e+02 </wgt>
<wgt id='1229'> +2.8888011e+02 </wgt>
<wgt id='1230'> +2.8687913e+02 </wgt>
<wgt id='1231'> +2.8911771e+02 </wgt>
<wgt id='1232'> +2.8927834e+02 </wgt>
<wgt id='1233'> +2.8736764e+02 </wgt>
<wgt id='1234'> +2.8898246e+02 </wgt>
<wgt id='1235'> +2.8551001e+02 </wgt>
<wgt id='1236'> +2.8813899e+02 </wgt>
<wgt id='1237'> +2.8824834e+02 </wgt>
<wgt id='1238'> +2.8841254e+02 </wgt>
<wgt id='1239'> +2.8763759e+02 </wgt>
<wgt id='1240'> +2.9094566e+02 </wgt>
<wgt id='1241'> +2.8930428e+02 </wgt>
<wgt id='1242'> +2.8701612e+02 </wgt>
<wgt id='1243'> +2.9150638e+02 </wgt>
<wgt id='1244'> +2.9165355e+02 </wgt>
<wgt id='1245'> +2.8575700e+02 </wgt>
<wgt id='1246'> +2.8741851e+02 </wgt>
<wgt id='1247'> +2.8777703e+02 </wgt>
<wgt id='1248'> +2.8951822e+02 </wgt>
<wgt id='1249'> +2.8174897e+02 </wgt>
<wgt id='1250'> +2.8624830e+02 </wgt>
<wgt id='1251'> +2.9220001e+02 </wgt>
<wgt id='1252'> +2.8566278e+02 </wgt>
<wgt id='1253'> +2.8816617e+02 </wgt>
<wgt id='1254'> +2.8930945e+02 </wgt>
<wgt id='1255'> +2.8869342e+02 </wgt>
<wgt id='1256'> +2.8695533e+02 </wgt>
<wgt id='1257'> +2.8551956e+02 </wgt>
<wgt id='1258'> +2.8505603e+02 </wgt>
<wgt id='1259'> +2.9360700e+02 </wgt>
<wgt id='1260'> +2.8702019e+02 </wgt>
<wgt id='1261'> +2.8396886e+02 </wgt>
<wgt id='1262'> +2.9148939e+02 </wgt>
<wgt id='1263'> +2.8782861e+02 </wgt>
<wgt id='1264'> +2.9223617e+02 </wgt>
<wgt id='1265'> +2.8732039e+02 </wgt>
<wgt id='1266'> +2.8928896e+02 </wgt>
<wgt id='1267'> +2.8805553e+02 </wgt>
<wgt id='1268'> +2.8601140e+02 </wgt>
<wgt id='1269'> +2.8744994e+02 </wgt>
<wgt id='1270'> +2.8528497e+02 </wgt>
<wgt id='1271'> +2.8875202e+02 </wgt>
<wgt id='1272'> +2.8687103e+02 </wgt>
<wgt id='1273'> +2.8861388e+02 </wgt>
<wgt id='1274'> +2.8752235e+02 </wgt>
<wgt id='1275'> +2.8580178e+02 </wgt>
<wgt id='1276'> +2.8842914e+02 </wgt>
<wgt id='1277'> +2.8793156e+02 </wgt>
<wgt id='1278'> +2.8828215e+02 </wgt>
<wgt id='1279'> +2.8751185e+02 </wgt>
<wgt id='1280'> +2.8894724e+02 </wgt>
<wgt id='1281'> +2.8653146e+02 </wgt>
<wgt id='1282'> +2.8808513e+02 </wgt>
<wgt id='1283'> +2.8721076e+02 </wgt>
<wgt id='1284'> +2.8825769e+02 </wgt>
<wgt id='1285'> +2.8535832e+02 </wgt>
<wgt id='1286'> +2.9094012e+02 </wgt>
<wgt id='1287'> +2.8760265e+02 </wgt>
<wgt id='1288'> +2.8938715e+02 </wgt>
<wgt id='1289'> +2.8915198e+02 </wgt>
<wgt id='1290'> +2.8727191e+02 </wgt>
<wgt id='1291'> +2.8790340e+02 </wgt>
<wgt id='1292'> +2.8775258e+02 </wgt>
<wgt id='1293'> +2.8911016e+02 </wgt>
<wgt id='1294'> +2.9025817e+02 </wgt>
<wgt id='1295'> +2.8654298e+02 </wgt>
<wgt id='1296'> +2.8739502e+02 </wgt>
<wgt id='1297'> +2.8720230e+02 </wgt>
<wgt id='1298'> +2.8855444e+02 </wgt>
<wgt id='1299'> +2.8740430e+02 </wgt>
<wgt id='1300'> +2.8827327e+02 </wgt>
<wgt id='1301'> +2.8735165e+02 </wgt>
<wgt id='1302'> +2.8739166e+02 </wgt>
<wgt id='1303'> +2.8721426e+02 </wgt>
<wgt id='1304'> +2.8632013e+02 </wgt>
<wgt id='1305'> +2.8728398e+02 </wgt>
<wgt id='1306'> +2.8815858e+02 </wgt>
<wgt id='1307'> +2.8710102e+02 </wgt>
<wgt id='1308'> +2.8826488e+02 </wgt>
<wgt id='1309'> +2.8679514e+02 </wgt>
<wgt id='1310'> +2.8753360e+02 </wgt>
<wgt id='1311'> +2.8946135e+02 </wgt>
<wgt id='1312'> +2.8702845e+02 </wgt>
<wgt id='1313'> +2.8771986e+02 </wgt>
<wgt id='1314'> +2.8796112e+02 </wgt>
<wgt id='1315'> +2.6923468e+02 </wgt>
<wgt id='1316'> +3.0874059e+02 </wgt>
<wgt id='1317'> +1.9806611e+02 </wgt>
<wgt id='1318'> +2.1240938e+02 </wgt>
<wgt id='1319'> +2.2859291e+02 </wgt>
<wgt id='1320'> +2.4847144e+02 </wgt>
<wgt id='1321'> +2.7870754e+02 </wgt>
<wgt id='1322'> +2.9788633e+02 </wgt>
<wgt id='1323'> +3.2904830e+02 </wgt>
<wgt id='1324'> +3.5079102e+02 </wgt>
<wgt id='1325'> +2.7628372e+02 </wgt>
<wgt id='1326'> +2.7664179e+02 </wgt>
<wgt id='1327'> +2.7597927e+02 </wgt>
<wgt id='1328'> +2.7761847e+02 </wgt>
<wgt id='1329'> +2.7556662e+02 </wgt>
<wgt id='1330'> +2.7629808e+02 </wgt>
<wgt id='1331'> +2.7707697e+02 </wgt>
<wgt id='1332'> +2.7736116e+02 </wgt>
<wgt id='1333'> +2.7550371e+02 </wgt>
<wgt id='1334'> +2.7665825e+02 </wgt>
<wgt id='1335'> +2.7646710e+02 </wgt>
<wgt id='1336'> +2.7626670e+02 </wgt>
<wgt id='1337'> +2.7682522e+02 </wgt>
<wgt id='1338'> +2.7500163e+02 </wgt>
<wgt id='1339'> +2.7689859e+02 </wgt>
<wgt id='1340'> +2.7704574e+02 </wgt>
<wgt id='1341'> +2.7623114e+02 </wgt>
<wgt id='1342'> +2.7676462e+02 </wgt>
<wgt id='1343'> +2.7587008e+02 </wgt>
<wgt id='1344'> +2.7487936e+02 </wgt>
<wgt id='1345'> +2.7549696e+02 </wgt>
<wgt id='1346'> +2.7546075e+02 </wgt>
<wgt id='1347'> +2.7601409e+02 </wgt>
<wgt id='1348'> +2.7549511e+02 </wgt>
<wgt id='1349'> +2.7644021e+02 </wgt>
<wgt id='1350'> +2.7674579e+02 </wgt>
<wgt id='1351'> +2.7706740e+02 </wgt>
<wgt id='1352'> +2.7417203e+02 </wgt>
<wgt id='1353'> +2.7612951e+02 </wgt>
<wgt id='1354'> +2.7489251e+02 </wgt>
<wgt id='1355'> +2.7640427e+02 </wgt>
<wgt id='1356'> +2.7539565e+02 </wgt>
<wgt id='1357'> +2.7778067e+02 </wgt>
<wgt id='1358'> +2.7556940e+02 </wgt>
<wgt id='1359'> +2.7598856e+02 </wgt>
<wgt id='1360'> +2.7764258e+02 </wgt>
<wgt id='1361'> +2.7900936e+02 </wgt>
<wgt id='1362'> +2.7789749e+02 </wgt>
<wgt id='1363'> +2.7863629e+02 </wgt>
<wgt id='1364'> +2.7643344e+02 </wgt>
<wgt id='1365'> +2.7759779e+02 </wgt>
<wgt id='1366'> +2.7783711e+02 </wgt>
<wgt id='1367'> +2.7740742e+02 </wgt>
<wgt id='1368'> +2.7675779e+02 </wgt>
<wgt id='1369'> +2.7760512e+02 </wgt>
<wgt id='1370'> +2.7639971e+02 </wgt>
<wgt id='1371'> +2.7808653e+02 </wgt>
<wgt id='1372'> +2.7485686e+02 </wgt>
<wgt id='1373'> +2.7282308e+02 </wgt>
<wgt id='1374'> +2.7779565e+02 </wgt>
<wgt id='1375'> +2.7593940e+02 </wgt>
<wgt id='1376'> +2.7418453e+02 </wgt>
<wgt id='1377'> +2.7613603e+02 </wgt>
<wgt id='1378'> +2.7896422e+02 </wgt>
<wgt id='1379'> +2.7383291e+02 </wgt>
<wgt id='1380'> +2.7584186e+02 </wgt>
<wgt id='1381'> +2.8020619e+02 </wgt>
<wgt id='1382'> +2.7642487e+02 </wgt>
<wgt id='1383'> +2.8011764e+02 </wgt>
<wgt id='1384'> +2.7603852e+02 </wgt>
<wgt id='1385'> +2.7468322e+02 </wgt>
<wgt id='1386'> +2.7647017e+02 </wgt>
<wgt id='1387'> +2.7911390e+02 </wgt>
<wgt id='1388'> +2.7712446e+02 </wgt>
<wgt id='1389'> +2.7677231e+02 </wgt>
<wgt id='1390'> +2.7733320e+02 </wgt>
<wgt id='1391'> +2.7670633e+02 </wgt>
<wgt id='1392'> +2.7443420e+02 </wgt>
<wgt id='1393'> +2.7357913e+02 </wgt>
<wgt id='1394'> +2.7684838e+02 </wgt>
<wgt id='1395'> +2.7551834e+02 </wgt>
<wgt id='1396'> +2.7720679e+02 </wgt>
<wgt id='1397'> +2.7590267e+02 </wgt>
<wgt id='1398'> +2.7410516e+02 </wgt>
<wgt id='1399'> +2.7713878e+02 </wgt>
<wgt id='1400'> +2.7667869e+02 </wgt>
<wgt id='1401'> +2.7771301e+02 </wgt>
<wgt id='1402'> +2.7558271e+02 </wgt>
<wgt id='1403'> +2.7479950e+02 </wgt>
<wgt id='1404'> +2.7704125e+02 </wgt>
<wgt id='1405'> +2.7594835e+02 </wgt>
<wgt id='1406'> +2.7456589e+02 </wgt>
<wgt id='1407'> +2.7628962e+02 </wgt>
<wgt id='1408'> +2.7635668e+02 </wgt>
<wgt id='1409'> +2.7574542e+02 </wgt>
<wgt id='1410'> +2.7569403e+02 </wgt>
<wgt id='1411'> +2.7665385e+02 </wgt>
<wgt id='1412'> +2.7671350e+02 </wgt>
<wgt id='1413'> +2.7700473e+02 </wgt>
<wgt id='1414'> +2.7332036e+02 </wgt>
<wgt id='1415'> +2.7596507e+02 </wgt>
<wgt id='1416'> +2.7787131e+02 </wgt>
<wgt id='1417'> +2.7759228e+02 </wgt>
<wgt id='1418'> +2.7549003e+02 </wgt>
<wgt id='1419'> +2.7734542e+02 </wgt>
<wgt id='1420'> +2.7833222e+02 </wgt>
<wgt id='1421'> +2.7681116e+02 </wgt>
<wgt id='1422'> +2.7476782e+02 </wgt>
<wgt id='1423'> +2.7476578e+02 </wgt>
<wgt id='1424'> +2.7780545e+02 </wgt>
<wgt id='1425'> +2.7568594e+02 </wgt>
<wgt id='1426'> +2.5811858e+02 </wgt>
<wgt id='1427'> +2.9675684e+02 </wgt>
<wgt id='1428'> +3.0231051e+02 </wgt>
<wgt id='1429'> +2.9645343e+02 </wgt>
<wgt id='1430'> +3.0176314e+02 </wgt>
<wgt id='1431'> +3.0710469e+02 </wgt>
<wgt id='1432'> +2.9500811e+02 </wgt>
<wgt id='1433'> +2.9152936e+02 </wgt>
<wgt id='1434'> +3.0360215e+02 </wgt>
<wgt id='1435'> +3.0181118e+02 </wgt>
<wgt id='1436'> +2.9426323e+02 </wgt>
<wgt id='1437'> +3.0151318e+02 </wgt>
<wgt id='1438'> +3.0218178e+02 </wgt>
<wgt id='1439'> +2.7940053e+02 </wgt>
<wgt id='1440'> +3.2583924e+02 </wgt>
<wgt id='1441'> +3.0362566e+02 </wgt>
<wgt id='1442'> +3.0156000e+02 </wgt>
<wgt id='1443'> +3.0242382e+02 </wgt>
<wgt id='1444'> +3.0097799e+02 </wgt>
<wgt id='1445'> +3.0196224e+02 </wgt>
<wgt id='1446'> +3.0248545e+02 </wgt>
<wgt id='1447'> +3.0497523e+02 </wgt>
<wgt id='1448'> +2.9958023e+02 </wgt>
<wgt id='1449'> +3.0224787e+02 </wgt>
<wgt id='1450'> +3.0232550e+02 </wgt>
<wgt id='1451'> +3.0128135e+02 </wgt>
<wgt id='1452'> +3.0334473e+02 </wgt>
<wgt id='1453'> +3.0501645e+02 </wgt>
<wgt id='1454'> +3.0005651e+02 </wgt>
<wgt id='1455'> +3.0268807e+02 </wgt>
<wgt id='1456'> +3.0156656e+02 </wgt>
<wgt id='1457'> +3.0021461e+02 </wgt>
<wgt id='1458'> +3.0352556e+02 </wgt>
<wgt id='1459'> +2.9981512e+02 </wgt>
<wgt id='1460'> +3.0582171e+02 </wgt>
<wgt id='1461'> +3.0054789e+02 </wgt>
<wgt id='1462'> +3.0375566e+02 </wgt>
<wgt id='1463'> +3.0434928e+02 </wgt>
<wgt id='1464'> +3.0033154e+02 </wgt>
<wgt id='1465'> +2.9844637e+02 </wgt>
<wgt id='1466'> +3.0650328e+02 </wgt>
<wgt id='1467'> +2.5418978e+02 </wgt>
<wgt id='1468'> +3.4300701e+02 </wgt>
<wgt id='1469'> +2.9427924e+02 </wgt>
<wgt id='1470'> +3.0564655e+02 </wgt>
<wgt id='1471'> +3.0699204e+02 </wgt>
<wgt id='1472'> +2.9684622e+02 </wgt>
<wgt id='1473'> +3.0723017e+02 </wgt>
<wgt id='1474'> +2.9680011e+02 </wgt>
<wgt id='1475'> +3.0865239e+02 </wgt>
<wgt id='1476'> +2.9711996e+02 </wgt>
<wgt id='1477'> +3.0072781e+02 </wgt>
<wgt id='1478'> +3.0644722e+02 </wgt>
<wgt id='1479'> +3.0500739e+02 </wgt>
<wgt id='1480'> +3.0131199e+02 </wgt>
<wgt id='1481'> +3.0108994e+02 </wgt>
<wgt id='1482'> +3.1251420e+02 </wgt>
<wgt id='1483'> +3.0830595e+02 </wgt>
<wgt id='1484'> +2.5868695e+02 </wgt>
<wgt id='1485'> +2.8127641e+02 </wgt>
<wgt id='1486'> +3.2275517e+02 </wgt>
<wgt id='1487'> +2.9117164e+02 </wgt>
<wgt id='1488'> +2.9193969e+02 </wgt>
<wgt id='1489'> +2.9262992e+02 </wgt>
<wgt id='1490'> +2.9938396e+02 </wgt>
<wgt id='1491'> +2.8246062e+02 </wgt>
<wgt id='1492'> +2.9787612e+02 </wgt>
<wgt id='1493'> +2.8769311e+02 </wgt>
<wgt id='1494'> +2.9044568e+02 </wgt>
<wgt id='1495'> +2.9114722e+02 </wgt>
<wgt id='1496'> +2.8984103e+02 </wgt>
<wgt id='1497'> +2.8981493e+02 </wgt>
<wgt id='1498'> +2.8346655e+02 </wgt>
<wgt id='1499'> +2.9728496e+02 </wgt>
<wgt id='1500'> +2.9574683e+02 </wgt>
<wgt id='1501'> +2.8559020e+02 </wgt>
<wgt id='1502'> +2.5116419e+02 </wgt>
<wgt id='1503'> +3.3338430e+02 </wgt>
<wgt id='1504'> +2.8483258e+02 </wgt>
<wgt id='1505'> +2.9837920e+02 </wgt>
<wgt id='1506'> +2.8759342e+02 </wgt>
<wgt id='1507'> +2.9482867e+02 </wgt>
<wgt id='1508'> +2.8462580e+02 </wgt>
<wgt id='1509'> +3.0376006e+02 </wgt>
<wgt id='1510'> +2.9002592e+02 </wgt>
<wgt id='1511'> +2.9194149e+02 </wgt>
<wgt id='1512'> +2.9675634e+02 </wgt>
<wgt id='1513'> +2.8613560e+02 </wgt>
<wgt id='1514'> +2.9020159e+02 </wgt>
<wgt id='1515'> +2.9230417e+02 </wgt>
<wgt id='1516'> +2.9415480e+02 </wgt>
<wgt id='1517'> +2.9013190e+02 </wgt>
<wgt id='1518'> +2.9044600e+02 </wgt>
<wgt id='1519'> +2.9201865e+02 </wgt>
<wgt id='1520'> +2.9089434e+02 </wgt>
<wgt id='1521'> +2.9152334e+02 </wgt>
<wgt id='1522'> +2.8949020e+02 </wgt>
<wgt id='1523'> +2.9295366e+02 </wgt>
<wgt id='1524'> +2.9631930e+02 </wgt>
<wgt id='1525'> +2.8239917e+02 </wgt>
<wgt id='1526'> +3.1155700e+02 </wgt>
<wgt id='1527'> +2.7252544e+02 </wgt>
<wgt id='1528'> +2.8988961e+02 </wgt>
<wgt id='1529'> +2.9319852e+02 </wgt>
<wgt id='1530'> +2.8669471e+02 </wgt>
<wgt id='1531'> +2.9585234e+02 </wgt>
<wgt id='1532'> +2.7626663e+02 </wgt>
<wgt id='1533'> +3.0060418e+02 </wgt>
<wgt id='1534'> +2.9003376e+02 </wgt>
<wgt id='1535'> +2.8523980e+02 </wgt>
<wgt id='1536'> +2.9319154e+02 </wgt>
<wgt id='1537'> +2.7709689e+02 </wgt>
<wgt id='1538'> +2.8906220e+02 </wgt>
<wgt id='1539'> +2.8780624e+02 </wgt>
<wgt id='1540'> +2.8166622e+02 </wgt>
<wgt id='1541'> +2.9569026e+02 </wgt>
<wgt id='1542'> +2.8853694e+02 </wgt>
<wgt id='1543'> +2.6314374e+02 </wgt>
<wgt id='1544'> +2.7033470e+02 </wgt>
<wgt id='1545'> +3.1256883e+02 </wgt>
<wgt id='1546'> +2.3627763e+02 </wgt>
<wgt id='1547'> +3.0806126e+02 </wgt>
<wgt id='1548'> +3.0763412e+02 </wgt>
<wgt id='1549'> +3.0848721e+02 </wgt>
<wgt id='1550'> +3.0711440e+02 </wgt>
<wgt id='1551'> +3.0868573e+02 </wgt>
<wgt id='1552'> +3.0863674e+02 </wgt>
<wgt id='1553'> +3.0752102e+02 </wgt>
<wgt id='1554'> +3.0742787e+02 </wgt>
<wgt id='1555'> +3.0874209e+02 </wgt>
<wgt id='1556'> +3.0543079e+02 </wgt>
<wgt id='1557'> +3.1059585e+02 </wgt>
<wgt id='1558'> +3.1118839e+02 </wgt>
<wgt id='1559'> +3.0125100e+02 </wgt>
<wgt id='1560'> +3.1064171e+02 </wgt>
<wgt id='1561'> +3.0343226e+02 </wgt>
<wgt id='1562'> +3.1028278e+02 </wgt>
<wgt id='1563'> +3.0677680e+02 </wgt>
<wgt id='1564'> +3.1489401e+02 </wgt>
<wgt id='1565'> +3.0008795e+02 </wgt>
<wgt id='1566'> +3.2617855e+02 </wgt>
<wgt id='1567'> +2.9243162e+02 </wgt>
<wgt id='1568'> +3.0858704e+02 </wgt>
<wgt id='1569'> +3.0735566e+02 </wgt>
<wgt id='1570'> +3.0594017e+02 </wgt>
<wgt id='1571'> +3.0953452e+02 </wgt>
<wgt id='1572'> +3.0528928e+02 </wgt>
<wgt id='1573'> +3.1070460e+02 </wgt>
<wgt id='1574'> +3.0935291e+02 </wgt>
<wgt id='1575'> +3.0751032e+02 </wgt>
<wgt id='1576'> +3.1013221e+02 </wgt>
<wgt id='1577'> +3.0567167e+02 </wgt>
<wgt id='1578'> +3.0549514e+02 </wgt>
<wgt id='1579'> +3.1082949e+02 </wgt>
<wgt id='1580'> +3.0979862e+02 </wgt>
<wgt id='1581'> +3.0629098e+02 </wgt>
<wgt id='1582'> +3.0851731e+02 </wgt>
<wgt id='1583'> +3.0728409e+02 </wgt>
<wgt id='1584'> +3.1012426e+02 </wgt>
<wgt id='1585'> +3.0671911e+02 </wgt>
<wgt id='1586'> +3.1161473e+02 </wgt>
<wgt id='1587'> +3.0455957e+02 </wgt>
<wgt id='1588'> +3.2024425e+02 </wgt>
<wgt id='1589'> +2.8745236e+02 </wgt>
<wgt id='1590'> +2.9724260e+02 </wgt>
<wgt id='1591'> +3.0442193e+02 </wgt>
<wgt id='1592'> +3.1988854e+02 </wgt>
<wgt id='1593'> +2.8188389e+02 </wgt>
<wgt id='1594'> +3.0742600e+02 </wgt>
<wgt id='1595'> +3.0794432e+02 </wgt>
<wgt id='1596'> +3.0844095e+02 </wgt>
<wgt id='1597'> +3.0774372e+02 </wgt>
<wgt id='1598'> +2.9002141e+02 </wgt>
<wgt id='1599'> +2.8932265e+02 </wgt>
<wgt id='1600'> +2.9088855e+02 </wgt>
<wgt id='1601'> +2.9077522e+02 </wgt>
<wgt id='1602'> +2.8926173e+02 </wgt>
<wgt id='1603'> +2.8863815e+02 </wgt>
<wgt id='1604'> +2.9056878e+02 </wgt>
<wgt id='1605'> +2.8986257e+02 </wgt>
<wgt id='1606'> +2.9015713e+02 </wgt>
<wgt id='1607'> +2.8725578e+02 </wgt>
<wgt id='1608'> +2.9266720e+02 </wgt>
<wgt id='1609'> +2.8248598e+02 </wgt>
<wgt id='1610'> +2.9327809e+02 </wgt>
<wgt id='1611'> +2.8980442e+02 </wgt>
<wgt id='1612'> +2.9027024e+02 </wgt>
<wgt id='1613'> +2.9380718e+02 </wgt>
<wgt id='1614'> +2.8590866e+02 </wgt>
<wgt id='1615'> +3.0870286e+02 </wgt>
<wgt id='1616'> +2.7957377e+02 </wgt>
<wgt id='1617'> +2.7718905e+02 </wgt>
<wgt id='1618'> +3.0727024e+02 </wgt>
<wgt id='1619'> +3.0408964e+02 </wgt>
<wgt id='1620'> +2.8014635e+02 </wgt>
<wgt id='1621'> +2.8900674e+02 </wgt>
<wgt id='1622'> +2.9100212e+02 </wgt>
<wgt id='1623'> +2.9095760e+02 </wgt>
<wgt id='1624'> +2.8769323e+02 </wgt>
<wgt id='1625'> +2.9155661e+02 </wgt>
<wgt id='1626'> +2.8886593e+02 </wgt>
<wgt id='1627'> +2.8935579e+02 </wgt>
<wgt id='1628'> +2.9191619e+02 </wgt>
<wgt id='1629'> +2.8812894e+02 </wgt>
<wgt id='1630'> +2.9392606e+02 </wgt>
<wgt id='1631'> +2.9043022e+02 </wgt>
<wgt id='1632'> +2.8931750e+02 </wgt>
<wgt id='1633'> +2.8857328e+02 </wgt>
<wgt id='1634'> +2.9072631e+02 </wgt>
<wgt id='1635'> +2.9047664e+02 </wgt>
<wgt id='1636'> +2.8943508e+02 </wgt>
<wgt id='1637'> +2.9472594e+02 </wgt>
<wgt id='1638'> +2.8709307e+02 </wgt>
<wgt id='1639'> +2.7624646e+02 </wgt>
<wgt id='1640'> +3.0963986e+02 </wgt>
<wgt id='1641'> +2.8966291e+02 </wgt>
<wgt id='1642'> +2.9096951e+02 </wgt>
<wgt id='1643'> +2.9101479e+02 </wgt>
<wgt id='1644'> +2.8622949e+02 </wgt>
<wgt id='1645'> +2.7009827e+02 </wgt>
<wgt id='1646'> +3.0009629e+02 </wgt>
<wgt id='1647'> +2.8571563e+02 </wgt>
<wgt id='1648'> +2.9119905e+02 </wgt>
<wgt id='1649'> +4.6744342e+02 </wgt>
<wgt id='1650'> +3.1789801e+02 </wgt>
<wgt id='1651'> +3.1777624e+02 </wgt>
<wgt id='1652'> +3.1787584e+02 </wgt>
<wgt id='1653'> +3.1756690e+02 </wgt>
<wgt id='1654'> +3.1792519e+02 </wgt>
<wgt id='1655'> +3.1977813e+02 </wgt>
<wgt id='1656'> +3.2014830e+02 </wgt>
<wgt id='1657'> +3.1541646e+02 </wgt>
<wgt id='1658'> +3.1881801e+02 </wgt>
<wgt id='1659'> +3.1793553e+02 </wgt>
<wgt id='1660'> +3.1663213e+02 </wgt>
<wgt id='1661'> +3.1783194e+02 </wgt>
<wgt id='1662'> +3.1568913e+02 </wgt>
<wgt id='1663'> +3.1834694e+02 </wgt>
<wgt id='1664'> +3.1712695e+02 </wgt>
<wgt id='1665'> +3.1849945e+02 </wgt>
<wgt id='1666'> +3.1757823e+02 </wgt>
<wgt id='1667'> +3.1741546e+02 </wgt>
<wgt id='1668'> +3.1817854e+02 </wgt>
<wgt id='1669'> +3.1864121e+02 </wgt>
<wgt id='1670'> +3.1689400e+02 </wgt>
<wgt id='1671'> +3.1923711e+02 </wgt>
<wgt id='1672'> +3.1750701e+02 </wgt>
<wgt id='1673'> +3.1826833e+02 </wgt>
<wgt id='1674'> +3.1847535e+02 </wgt>
<wgt id='1675'> +3.1880013e+02 </wgt>
<wgt id='1676'> +3.1778358e+02 </wgt>
<wgt id='1677'> +3.1786264e+02 </wgt>
<wgt id='1678'> +3.1791073e+02 </wgt>
<wgt id='1679'> +3.1567290e+02 </wgt>
<wgt id='1680'> +2.8624134e+02 </wgt>
<wgt id='1681'> +2.8720323e+02 </wgt>
<wgt id='1682'> +2.8892558e+02 </wgt>
<wgt id='1683'> +2.8267270e+02 </wgt>
<wgt id='1684'> +2.8773752e+02 </wgt>
<wgt id='1685'> +2.8135779e+02 </wgt>
<wgt id='1686'> +2.8832874e+02 </wgt>
<wgt id='1687'> +2.8699278e+02 </wgt>
<wgt id='1688'> +2.9491450e+02 </wgt>
<wgt id='1689'> +2.8198939e+02 </wgt>
<wgt id='1690'> +2.8106197e+02 </wgt>
<wgt id='1691'> +2.9194121e+02 </wgt>
<wgt id='1692'> +2.8683706e+02 </wgt>
<wgt id='1693'> +2.8107476e+02 </wgt>
<wgt id='1694'> +2.9770648e+02 </wgt>
<wgt id='1695'> +2.8088508e+02 </wgt>
<wgt id='1696'> +3.0306231e+02 </wgt>
<wgt id='1697'> +2.8101906e+02 </wgt>
<wgt id='1698'> +2.7694727e+02 </wgt>
<wgt id='1699'> +2.9520869e+02 </wgt>
<wgt id='1700'> +2.9578841e+02 </wgt>
<wgt id='1701'> +2.8254656e+02 </wgt>
<wgt id='1702'> +2.8198499e+02 </wgt>
<wgt id='1703'> +2.7770716e+02 </wgt>
<wgt id='1704'> +2.8553723e+02 </wgt>
<wgt id='1705'> +2.8711503e+02 </wgt>
<wgt id='1706'> +2.8729983e+02 </wgt>
<wgt id='1707'> +2.7968678e+02 </wgt>
<wgt id='1708'> +2.8391010e+02 </wgt>
<wgt id='1709'> +2.8883559e+02 </wgt>
<wgt id='1710'> +2.8584290e+02 </wgt>
<wgt id='1711'> +2.8570181e+02 </wgt>
<wgt id='1712'> +2.8468927e+02 </wgt>
<wgt id='1713'> +2.8391243e+02 </wgt>
<wgt id='1714'> +2.8625724e+02 </wgt>
<wgt id='1715'> +2.8607223e+02 </wgt>
<wgt id='1716'> +2.8817386e+02 </wgt>
<wgt id='1717'> +2.8818187e+02 </wgt>
<wgt id='1718'> +2.8377474e+02 </wgt>
<wgt id='1719'> +2.8314900e+02 </wgt>
<wgt id='1720'> +2.8585310e+02 </wgt>
<wgt id='1721'> +2.8615365e+02 </wgt>
<wgt id='1722'> +2.8652448e+02 </wgt>
<wgt id='1723'> +2.8499197e+02 </wgt>
<wgt id='1724'> +2.8783855e+02 </wgt>
<wgt id='1725'> +2.8527633e+02 </wgt>
<wgt id='1726'> +2.8808918e+02 </wgt>
<wgt id='1727'> +2.8769807e+02 </wgt>
<wgt id='1728'> +2.8580807e+02 </wgt>
<wgt id='1729'> +2.8681212e+02 </wgt>
<wgt id='1730'> +2.8678214e+02 </wgt>
<wgt id='1731'> +2.8346882e+02 </wgt>
<wgt id='1732'> +2.8810485e+02 </wgt>
<wgt id='1733'> +2.8369808e+02 </wgt>
<wgt id='1734'> +2.8424061e+02 </wgt>
<wgt id='1735'> +2.8928084e+02 </wgt>
<wgt id='1736'> +2.8804384e+02 </wgt>
<wgt id='1737'> +2.8660717e+02 </wgt>
<wgt id='1738'> +2.8587651e+02 </wgt>
<wgt id='1739'> +2.8537842e+02 </wgt>
<wgt id='1740'> +2.8505426e+02 </wgt>
<wgt id='1741'> +2.8510887e+02 </wgt>
<wgt id='1742'> +2.8498299e+02 </wgt>
<wgt id='1743'> +2.8552744e+02 </wgt>
<wgt id='1744'> +2.8557794e+02 </wgt>
<wgt id='1745'> +2.8540062e+02 </wgt>
<wgt id='1746'> +2.8717693e+02 </wgt>
<wgt id='1747'> +2.8588818e+02 </wgt>
<wgt id='1748'> +2.8572816e+02 </wgt>
<wgt id='1749'> +2.8554994e+02 </wgt>
<wgt id='1750'> +2.8552375e+02 </wgt>
<wgt id='1751'> +2.8457446e+02 </wgt>
<wgt id='1752'> +2.8536550e+02 </wgt>
<wgt id='1753'> +2.8621055e+02 </wgt>
<wgt id='1754'> +2.8580108e+02 </wgt>
<wgt id='1755'> +2.8586537e+02 </wgt>
<wgt id='1756'> +2.8685161e+02 </wgt>
<wgt id='1757'> +2.8661396e+02 </wgt>
<wgt id='1758'> +2.8675189e+02 </wgt>
<wgt id='1759'> +2.8684894e+02 </wgt>
<wgt id='1760'> +2.8690826e+02 </wgt>
<wgt id='1761'> +2.8652402e+02 </wgt>
<wgt id='1762'> +2.8656692e+02 </wgt>
<wgt id='1763'> +2.8626420e+02 </wgt>
<wgt id='1764'> +2.8597483e+02 </wgt>
<wgt id='1765'> +2.8677925e+02 </wgt>
<wgt id='1766'> +2.8641291e+02 </wgt>
<wgt id='1767'> +2.8598498e+02 </wgt>
<wgt id='1768'> +2.8617801e+02 </wgt>
<wgt id='1769'> +2.8611873e+02 </wgt>
<wgt id='1770'> +2.8576601e+02 </wgt>
<wgt id='1771'> +2.8609897e+02 </wgt>
<wgt id='1772'> +2.8642365e+02 </wgt>
<wgt id='1773'> +2.8621452e+02 </wgt>
<wgt id='1774'> +2.8654768e+02 </wgt>
<wgt id='1775'> +2.8586210e+02 </wgt>
<wgt id='1776'> +2.8605992e+02 </wgt>
<wgt id='1777'> +2.8669935e+02 </wgt>
<wgt id='1778'> +2.8615460e+02 </wgt>
<wgt id='1779'> +2.8641939e+02 </wgt>
<wgt id='1780'> +2.8622096e+02 </wgt>
<wgt id='1781'> +2.7082416e+02 </wgt>
<wgt id='1782'> +3.0307988e+02 </wgt>
<wgt id='1783'> +2.8474761e+02 </wgt>
<wgt id='1784'> +2.9003833e+02 </wgt>
<wgt id='1785'> +2.8254255e+02 </wgt>
<wgt id='1786'> +2.8814034e+02 </wgt>
<wgt id='1787'> +2.8344495e+02 </wgt>
<wgt id='1788'> +2.8353872e+02 </wgt>
<wgt id='1789'> +2.8260207e+02 </wgt>
<wgt id='1790'> +2.7788110e+02 </wgt>
<wgt id='1791'> +2.8407450e+02 </wgt>
<wgt id='1792'> +2.8747244e+02 </wgt>
<wgt id='1793'> +2.9057428e+02 </wgt>
<wgt id='1794'> +2.7631158e+02 </wgt>
<wgt id='1795'> +2.8349285e+02 </wgt>
<wgt id='1796'> +2.8879934e+02 </wgt>
<wgt id='1797'> +2.7999433e+02 </wgt>
<wgt id='1798'> +2.8181957e+02 </wgt>
<wgt id='1799'> +2.7955495e+02 </wgt>
<wgt id='1800'> +2.9505709e+02 </wgt>
<wgt id='1801'> +2.7408171e+02 </wgt>
<wgt id='1802'> +2.9005118e+02 </wgt>
<wgt id='1803'> +2.8506415e+02 </wgt>
<wgt id='1804'> +2.8626986e+02 </wgt>
<wgt id='1805'> +2.9648757e+02 </wgt>
<wgt id='1806'> +2.9320514e+02 </wgt>
<wgt id='1807'> +2.7952597e+02 </wgt>
<wgt id='1808'> +2.8277833e+02 </wgt>
<wgt id='1809'> +2.9268094e+02 </wgt>
<wgt id='1810'> +2.8105669e+02 </wgt>
<wgt id='1811'> +2.8688104e+02 </wgt>
<wgt id='1812'> +2.8885132e+02 </wgt>
<wgt id='1813'> +2.8573598e+02 </wgt>
<wgt id='1814'> +2.8843460e+02 </wgt>
<wgt id='1815'> +2.8277935e+02 </wgt>
<wgt id='1816'> +2.8732550e+02 </wgt>
<wgt id='1817'> +2.8221808e+02 </wgt>
<wgt id='1818'> +2.8486874e+02 </wgt>
<wgt id='1819'> +2.8387345e+02 </wgt>
<wgt id='1820'> +2.8978299e+02 </wgt>
<wgt id='1821'> +2.8488734e+02 </wgt>
<wgt id='1822'> +2.8270386e+02 </wgt>
<wgt id='1823'> +2.8624618e+02 </wgt>
<wgt id='1824'> +2.8280083e+02 </wgt>
<wgt id='1825'> +2.8387086e+02 </wgt>
<wgt id='1826'> +2.8773986e+02 </wgt>
<wgt id='1827'> +2.8598352e+02 </wgt>
<wgt id='1828'> +2.8494926e+02 </wgt>
<wgt id='1829'> +2.8212192e+02 </wgt>
<wgt id='1830'> +2.8479743e+02 </wgt>
<wgt id='1831'> +2.8360479e+02 </wgt>
<wgt id='1832'> +2.8275635e+02 </wgt>
<wgt id='1833'> +2.8329958e+02 </wgt>
<wgt id='1834'> +2.8411617e+02 </wgt>
<wgt id='1835'> +2.8484319e+02 </wgt>
<wgt id='1836'> +2.8381275e+02 </wgt>
<wgt id='1837'> +2.8375141e+02 </wgt>
<wgt id='1838'> +2.8702777e+02 </wgt>
<wgt id='1839'> +2.8405461e+02 </wgt>
<wgt id='1840'> +2.8439976e+02 </wgt>
<wgt id='1841'> +2.8382763e+02 </wgt>
<wgt id='1842'> +2.8482356e+02 </wgt>
<wgt id='1843'> +2.8419667e+02 </wgt>
<wgt id='1844'> +2.8513854e+02 </wgt>
<wgt id='1845'> +2.8485578e+02 </wgt>
<wgt id='1846'> +2.8379871e+02 </wgt>
<wgt id='1847'> +2.8503445e+02 </wgt>
<wgt id='1848'> +2.8379240e+02 </wgt>
<wgt id='1849'> +2.8571437e+02 </wgt>
<wgt id='1850'> +2.8471389e+02 </wgt>
<wgt id='1851'> +2.8675802e+02 </wgt>
<wgt id='1852'> +2.8648250e+02 </wgt>
<wgt id='1853'> +2.8582422e+02 </wgt>
<wgt id='1854'> +2.8498220e+02 </wgt>
<wgt id='1855'> +2.8572330e+02 </wgt>
<wgt id='1856'> +2.8298103e+02 </wgt>
<wgt id='1857'> +2.8579197e+02 </wgt>
<wgt id='1858'> +2.8480949e+02 </wgt>
<wgt id='1859'> +2.8413214e+02 </wgt>
<wgt id='1860'> +2.8504978e+02 </wgt>
<wgt id='1861'> +2.8392009e+02 </wgt>
<wgt id='1862'> +2.8431227e+02 </wgt>
<wgt id='1863'> +2.8568674e+02 </wgt>
<wgt id='1864'> +2.8421686e+02 </wgt>
<wgt id='1865'> +2.8497885e+02 </wgt>
<wgt id='1866'> +2.8463227e+02 </wgt>
<wgt id='1867'> +2.8451330e+02 </wgt>
<wgt id='1868'> +2.8507796e+02 </wgt>
<wgt id='1869'> +2.8459184e+02 </wgt>
<wgt id='1870'> +2.8489847e+02 </wgt>
<wgt id='1871'> +2.8406899e+02 </wgt>
<wgt id='1872'> +2.8496042e+02 </wgt>
<wgt id='1873'> +2.8527372e+02 </wgt>
<wgt id='1874'> +2.8448730e+02 </wgt>
<wgt id='1875'> +2.8511534e+02 </wgt>
<wgt id='1876'> +2.8460350e+02 </wgt>
<wgt id='1877'> +2.8476825e+02 </wgt>
<wgt id='1878'> +2.8501658e+02 </wgt>
<wgt id='1879'> +2.8477372e+02 </wgt>
<wgt id='1880'> +2.8483201e+02 </wgt>
<wgt id='1881'> +2.8500878e+02 </wgt>
<wgt id='1882'> +2.8467893e+02 </wgt>
<wgt id='1883'> +2.8478705e+02 </wgt>
<wgt id='1884'> +2.6998722e+02 </wgt>
<wgt id='1885'> +2.9903475e+02 </wgt>
<wgt id='1886'> +2.8619963e+02 </wgt>
<wgt id='1887'> +2.8318615e+02 </wgt>
<wgt id='1888'> +3.1776435e+02 </wgt>
<wgt id='1889'> +2.8625466e+02 </wgt>
<wgt id='1890'> +2.9133592e+02 </wgt>
<wgt id='1891'> +2.8919839e+02 </wgt>
<wgt id='1892'> +2.8509374e+02 </wgt>
<wgt id='1893'> +2.8700539e+02 </wgt>
<wgt id='1894'> +2.8605690e+02 </wgt>
<wgt id='1895'> +2.8560456e+02 </wgt>
<wgt id='1896'> +2.8451253e+02 </wgt>
<wgt id='1897'> +2.8544509e+02 </wgt>
<wgt id='1898'> +2.8479118e+02 </wgt>
<wgt id='1899'> +2.8625689e+02 </wgt>
<wgt id='1900'> +2.8746945e+02 </wgt>
<wgt id='1901'> +2.8826970e+02 </wgt>
<wgt id='1902'> +2.8765059e+02 </wgt>
<wgt id='1903'> +2.8518650e+02 </wgt>
<wgt id='1904'> +2.8638302e+02 </wgt>
<wgt id='1905'> +2.8498052e+02 </wgt>
<wgt id='1906'> +2.8323130e+02 </wgt>
<wgt id='1907'> +2.9099839e+02 </wgt>
<wgt id='1908'> +2.8543228e+02 </wgt>
<wgt id='1909'> +2.8638847e+02 </wgt>
<wgt id='1910'> +2.8592572e+02 </wgt>
<wgt id='1911'> +2.8596482e+02 </wgt>
<wgt id='1912'> +2.8526536e+02 </wgt>
<wgt id='1913'> +2.8729548e+02 </wgt>
<wgt id='1914'> +2.8503396e+02 </wgt>
<wgt id='1915'> +2.8546004e+02 </wgt>
<wgt id='1916'> +2.8652014e+02 </wgt>
<wgt id='1917'> +2.7082416e+02 </wgt>
<wgt id='1918'> +3.0307988e+02 </wgt>
<wgt id='1919'> +2.8470359e+02 </wgt>
<wgt id='1920'> +2.9387927e+02 </wgt>
<wgt id='1921'> +2.7900364e+02 </wgt>
<wgt id='1922'> +2.8597765e+02 </wgt>
<wgt id='1923'> +2.7974616e+02 </wgt>
<wgt id='1924'> +2.8496374e+02 </wgt>
<wgt id='1925'> +2.8621732e+02 </wgt>
<wgt id='1926'> +2.8650561e+02 </wgt>
<wgt id='1927'> +2.8589445e+02 </wgt>
<wgt id='1928'> +3.0063172e+02 </wgt>
<wgt id='1929'> +2.7933101e+02 </wgt>
<wgt id='1930'> +2.7192782e+02 </wgt>
<wgt id='1931'> +2.8443065e+02 </wgt>
<wgt id='1932'> +2.8534821e+02 </wgt>
<wgt id='1933'> +2.8629945e+02 </wgt>
<wgt id='1934'> +2.8430061e+02 </wgt>
<wgt id='1935'> +2.8509658e+02 </wgt>
<wgt id='1936'> +2.8767141e+02 </wgt>
<wgt id='1937'> +2.8616068e+02 </wgt>
<wgt id='1938'> +2.8473798e+02 </wgt>
<wgt id='1939'> +2.8840843e+02 </wgt>
<wgt id='1940'> +2.8719714e+02 </wgt>
<wgt id='1941'> +2.7889292e+02 </wgt>
<wgt id='1942'> +2.8449894e+02 </wgt>
<wgt id='1943'> +2.8149705e+02 </wgt>
<wgt id='1944'> +2.8533709e+02 </wgt>
<wgt id='1945'> +2.8920995e+02 </wgt>
<wgt id='1946'> +2.8082917e+02 </wgt>
<wgt id='1947'> +2.8071304e+02 </wgt>
<wgt id='1948'> +2.8872931e+02 </wgt>
<wgt id='1949'> +2.8537023e+02 </wgt>
<wgt id='1950'> +2.6998722e+02 </wgt>
<wgt id='1951'> +2.9903475e+02 </wgt>
<wgt id='1952'> +3.2641687e+02 </wgt>
<wgt id='1953'> +3.2664460e+02 </wgt>
<wgt id='1954'> +3.2618951e+02 </wgt>
<wgt id='1955'> +3.2608591e+02 </wgt>
<wgt id='1956'> +3.2674576e+02 </wgt>
<wgt id='1957'> +3.2716279e+02 </wgt>
<wgt id='1958'> +3.2567326e+02 </wgt>
<wgt id='1959'> +3.2581894e+02 </wgt>
<wgt id='1960'> +3.2700500e+02 </wgt>
<wgt id='1961'> +3.2766040e+02 </wgt>
<wgt id='1962'> +3.2517981e+02 </wgt>
<wgt id='1963'> +3.2628940e+02 </wgt>
<wgt id='1964'> +3.2667735e+02 </wgt>
<wgt id='1965'> +3.2619665e+02 </wgt>
<wgt id='1966'> +3.2664209e+02 </wgt>
<wgt id='1967'> +3.2630627e+02 </wgt>
<wgt id='1968'> +3.2603277e+02 </wgt>
<wgt id='1969'> +3.2630994e+02 </wgt>
<wgt id='1970'> +3.2672980e+02 </wgt>
<wgt id='1971'> +3.2681328e+02 </wgt>
<wgt id='1972'> +3.2586747e+02 </wgt>
<wgt id='1973'> +3.2313059e+02 </wgt>
<wgt id='1974'> +3.2956896e+02 </wgt>
<wgt id='1975'> +3.3294826e+02 </wgt>
<wgt id='1976'> +3.1943296e+02 </wgt>
<wgt id='1977'> +3.2679000e+02 </wgt>
<wgt id='1978'> +3.2636982e+02 </wgt>
<wgt id='1979'> +3.2765130e+02 </wgt>
<wgt id='1980'> +3.2547471e+02 </wgt>
<wgt id='1981'> +3.2641687e+02 </wgt>
<wgt id='1982'> +2.8634877e+02 </wgt>
<wgt id='1983'> +3.6925609e+02 </wgt>
<wgt id='1984'> +2.2354414e+02 </wgt>
<wgt id='1985'> +2.5934349e+02 </wgt>
<wgt id='1986'> +3.2472594e+02 </wgt>
<wgt id='1987'> +3.2696519e+02 </wgt>
<wgt id='1988'> +3.2622982e+02 </wgt>
<wgt id='1989'> +3.2626158e+02 </wgt>
<wgt id='1990'> +3.2547162e+02 </wgt>
<wgt id='1991'> +3.2683466e+02 </wgt>
<wgt id='1992'> +3.2631398e+02 </wgt>
<wgt id='1993'> +3.2639315e+02 </wgt>
<wgt id='1994'> +3.1475012e+02 </wgt>
<wgt id='1995'> +3.0622238e+02 </wgt>
<wgt id='1996'> +3.0630172e+02 </wgt>
<wgt id='1997'> +3.0598249e+02 </wgt>
<wgt id='1998'> +3.0565924e+02 </wgt>
<wgt id='1999'> +3.0662509e+02 </wgt>
<wgt id='2000'> +3.0665778e+02 </wgt>
<wgt id='2001'> +3.0562720e+02 </wgt>
<wgt id='2002'> +3.0565276e+02 </wgt>
<wgt id='2003'> +3.0662583e+02 </wgt>
<wgt id='2004'> +3.0649450e+02 </wgt>
<wgt id='2005'> +3.0580957e+02 </wgt>
<wgt id='2006'> +3.0691645e+02 </wgt>
<wgt id='2007'> +3.0537779e+02 </wgt>
<wgt id='2008'> +3.0556325e+02 </wgt>
<wgt id='2009'> +3.0670395e+02 </wgt>
<wgt id='2010'> +3.0580323e+02 </wgt>
<wgt id='2011'> +3.0592721e+02 </wgt>
<wgt id='2012'> +3.0637993e+02 </wgt>
<wgt id='2013'> +3.0587645e+02 </wgt>
<wgt id='2014'> +3.0544274e+02 </wgt>
<wgt id='2015'> +3.0685808e+02 </wgt>
<wgt id='2016'> +3.0788790e+02 </wgt>
<wgt id='2017'> +3.0413417e+02 </wgt>
<wgt id='2018'> +3.1187164e+02 </wgt>
<wgt id='2019'> +3.0080235e+02 </wgt>
<wgt id='2020'> +3.1730236e+02 </wgt>
<wgt id='2021'> +2.9609453e+02 </wgt>
<wgt id='2022'> +3.1450219e+02 </wgt>
<wgt id='2023'> +2.9885782e+02 </wgt>
<wgt id='2024'> +3.0622893e+02 </wgt>
<wgt id='2025'> +2.7394313e+02 </wgt>
<wgt id='2026'> +3.4111556e+02 </wgt>
<wgt id='2027'> +2.2170467e+02 </wgt>
<wgt id='2028'> +2.5193979e+02 </wgt>
<wgt id='2029'> +3.2024598e+02 </wgt>
<wgt id='2030'> +3.0799183e+02 </wgt>
<wgt id='2031'> +3.0561016e+02 </wgt>
<wgt id='2032'> +3.0371823e+02 </wgt>
<wgt id='2033'> +3.1435850e+02 </wgt>
<wgt id='2034'> +3.2270473e+02 </wgt>
<wgt id='2035'> +3.1765862e+02 </wgt>
<wgt id='2036'> +2.9421926e+02 </wgt>
<wgt id='2037'> +3.0415872e+02 </wgt>
<wgt id='2038'> +2.8920600e+02 </wgt>
<wgt id='2039'> +2.8911114e+02 </wgt>
<wgt id='2040'> +2.8901718e+02 </wgt>
<wgt id='2041'> +2.8892337e+02 </wgt>
<wgt id='2042'> +2.8882870e+02 </wgt>
<wgt id='2043'> +2.8873445e+02 </wgt>
<wgt id='2044'> +2.8863977e+02 </wgt>
<wgt id='2045'> +2.8854647e+02 </wgt>
<wgt id='2046'> +2.8845148e+02 </wgt>
<wgt id='2047'> +2.8835736e+02 </wgt>
<wgt id='2048'> +2.8826323e+02 </wgt>
<wgt id='2049'> +2.8816913e+02 </wgt>
<wgt id='2050'> +2.8807536e+02 </wgt>
<wgt id='2051'> +2.8798056e+02 </wgt>
<wgt id='2052'> +2.8788632e+02 </wgt>
<wgt id='2053'> +2.8779226e+02 </wgt>
<wgt id='2054'> +2.8769838e+02 </wgt>
<wgt id='2055'> +2.8760424e+02 </wgt>
<wgt id='2056'> +2.8751032e+02 </wgt>
<wgt id='2057'> +2.8741665e+02 </wgt>
<wgt id='2058'> +2.8732224e+02 </wgt>
<wgt id='2059'> +2.8722838e+02 </wgt>
<wgt id='2060'> +2.8713374e+02 </wgt>
<wgt id='2061'> +2.8704037e+02 </wgt>
<wgt id='2062'> +2.8694567e+02 </wgt>
<wgt id='2063'> +2.8685197e+02 </wgt>
<wgt id='2064'> +2.8675814e+02 </wgt>
<wgt id='2065'> +2.8666385e+02 </wgt>
<wgt id='2066'> +2.8657023e+02 </wgt>
<wgt id='2067'> +2.8647551e+02 </wgt>
<wgt id='2068'> +2.8638180e+02 </wgt>
<wgt id='2069'> +2.8237308e+02 </wgt>
<wgt id='2070'> +2.8757480e+02 </wgt>
<wgt id='2071'> +2.8015938e+02 </wgt>
<wgt id='2072'> +2.8575726e+02 </wgt>
<wgt id='2073'> +2.8107780e+02 </wgt>
<wgt id='2074'> +2.8117287e+02 </wgt>
<wgt id='2075'> +2.8027823e+02 </wgt>
<wgt id='2076'> +2.7558607e+02 </wgt>
<wgt id='2077'> +2.8170175e+02 </wgt>
<wgt id='2078'> +2.8508279e+02 </wgt>
<wgt id='2079'> +2.8815852e+02 </wgt>
<wgt id='2080'> +2.7406870e+02 </wgt>
<wgt id='2081'> +2.8115812e+02 </wgt>
<wgt id='2082'> +2.8643290e+02 </wgt>
<wgt id='2083'> +2.7762792e+02 </wgt>
<wgt id='2084'> +2.7937382e+02 </wgt>
<wgt id='2085'> +2.7726069e+02 </wgt>
<wgt id='2086'> +2.9259777e+02 </wgt>
<wgt id='2087'> +2.7177842e+02 </wgt>
<wgt id='2088'> +2.8768076e+02 </wgt>
<wgt id='2089'> +2.8272177e+02 </wgt>
<wgt id='2090'> +2.8386310e+02 </wgt>
<wgt id='2091'> +2.9403814e+02 </wgt>
<wgt id='2092'> +2.9080133e+02 </wgt>
<wgt id='2093'> +2.7715248e+02 </wgt>
<wgt id='2094'> +2.8038047e+02 </wgt>
<wgt id='2095'> +2.9023707e+02 </wgt>
<wgt id='2096'> +2.7874241e+02 </wgt>
<wgt id='2097'> +2.8451325e+02 </wgt>
<wgt id='2098'> +2.8642503e+02 </wgt>
<wgt id='2099'> +2.8333877e+02 </wgt>
<wgt id='2100'> +2.8608719e+02 </wgt>
<wgt id='2101'> +2.8040147e+02 </wgt>
<wgt id='2102'> +2.8492584e+02 </wgt>
<wgt id='2103'> +2.7985189e+02 </wgt>
<wgt id='2104'> +2.8248137e+02 </wgt>
<wgt id='2105'> +2.8150795e+02 </wgt>
<wgt id='2106'> +2.8739062e+02 </wgt>
<wgt id='2107'> +2.8251433e+02 </wgt>
<wgt id='2108'> +2.8032050e+02 </wgt>
<wgt id='2109'> +2.8386424e+02 </wgt>
<wgt id='2110'> +2.8041418e+02 </wgt>
<wgt id='2111'> +2.8149513e+02 </wgt>
<wgt id='2112'> +2.8536323e+02 </wgt>
<wgt id='2113'> +2.8360541e+02 </wgt>
<wgt id='2114'> +2.8256509e+02 </wgt>
<wgt id='2115'> +2.7978066e+02 </wgt>
<wgt id='2116'> +2.8240274e+02 </wgt>
<wgt id='2117'> +2.8125083e+02 </wgt>
<wgt id='2118'> +2.8041542e+02 </wgt>
<wgt id='2119'> +2.8093465e+02 </wgt>
<wgt id='2120'> +2.8173279e+02 </wgt>
<wgt id='2121'> +2.8246737e+02 </wgt>
<wgt id='2122'> +2.8144983e+02 </wgt>
<wgt id='2123'> +2.8139487e+02 </wgt>
<wgt id='2124'> +2.8465757e+02 </wgt>
<wgt id='2125'> +2.8166261e+02 </wgt>
<wgt id='2126'> +2.8201640e+02 </wgt>
<wgt id='2127'> +2.8146939e+02 </wgt>
<wgt id='2128'> +2.8244537e+02 </wgt>
<wgt id='2129'> +2.8182428e+02 </wgt>
<wgt id='2130'> +2.8276709e+02 </wgt>
<wgt id='2131'> +2.8247904e+02 </wgt>
<wgt id='2132'> +2.8143519e+02 </wgt>
<wgt id='2133'> +2.8266112e+02 </wgt>
<wgt id='2134'> +2.8142207e+02 </wgt>
<wgt id='2135'> +2.8330821e+02 </wgt>
<wgt id='2136'> +2.8232156e+02 </wgt>
<wgt id='2137'> +2.8435295e+02 </wgt>
<wgt id='2138'> +2.8408878e+02 </wgt>
<wgt id='2139'> +2.8345268e+02 </wgt>
<wgt id='2140'> +2.8259953e+02 </wgt>
<wgt id='2141'> +2.8334810e+02 </wgt>
<wgt id='2142'> +2.8061931e+02 </wgt>
<wgt id='2143'> +2.8339375e+02 </wgt>
<wgt id='2144'> +2.8243764e+02 </wgt>
<wgt id='2145'> +2.8177072e+02 </wgt>
<wgt id='2146'> +2.8264932e+02 </wgt>
<wgt id='2147'> +2.8155923e+02 </wgt>
<wgt id='2148'> +2.8194922e+02 </wgt>
<wgt id='2149'> +2.8328973e+02 </wgt>
<wgt id='2150'> +2.8188602e+02 </wgt>
<wgt id='2151'> +2.8259888e+02 </wgt>
<wgt id='2152'> +2.8225945e+02 </wgt>
<wgt id='2153'> +2.8215290e+02 </wgt>
<wgt id='2154'> +2.8269928e+02 </wgt>
<wgt id='2155'> +2.8224684e+02 </wgt>
<wgt id='2156'> +2.8250319e+02 </wgt>
<wgt id='2157'> +2.8171025e+02 </wgt>
<wgt id='2158'> +2.8256983e+02 </wgt>
<wgt id='2159'> +2.8289092e+02 </wgt>
<wgt id='2160'> +2.8212344e+02 </wgt>
<wgt id='2161'> +2.8271732e+02 </wgt>
<wgt id='2162'> +2.8222586e+02 </wgt>
<wgt id='2163'> +2.8239147e+02 </wgt>
<wgt id='2164'> +2.8262488e+02 </wgt>
<wgt id='2165'> +2.8240851e+02 </wgt>
<wgt id='2166'> +2.8244851e+02 </wgt>
<wgt id='2167'> +2.8262291e+02 </wgt>
<wgt id='2168'> +2.8231030e+02 </wgt>
<wgt id='2169'> +2.8242618e+02 </wgt>
<wgt id='2170'> +2.8237090e+02 </wgt>
<wgt id='2171'> +2.8235886e+02 </wgt>
<wgt id='2172'> +2.8237533e+02 </wgt>
<wgt id='2173'> +2.8237571e+02 </wgt>
<wgt id='2174'> +2.8237966e+02 </wgt>
<wgt id='2175'> +2.8237402e+02 </wgt>
<wgt id='2176'> +2.8236359e+02 </wgt>
<wgt id='2177'> +2.6093096e+02 </wgt>
<wgt id='2178'> +2.6538457e+02 </wgt>
<wgt id='2179'> +2.6692579e+02 </wgt>
<wgt id='2180'> +2.6815053e+02 </wgt>
<wgt id='2181'> +2.5183072e+02 </wgt>
<wgt id='2182'> +2.3950857e+02 </wgt>
<wgt id='2183'> +2.7569691e+02 </wgt>
<wgt id='2184'> +2.7603933e+02 </wgt>
<wgt id='2185'> +2.5450257e+02 </wgt>
<wgt id='2186'> +2.6359457e+02 </wgt>
<wgt id='2187'> +2.3211761e+02 </wgt>
<wgt id='2188'> +2.4742971e+02 </wgt>
<wgt id='2189'> +2.5756657e+02 </wgt>
<wgt id='2190'> +2.6719469e+02 </wgt>
<wgt id='2191'> +2.4938949e+02 </wgt>
<wgt id='2192'> +2.6950972e+02 </wgt>
<wgt id='2193'> +2.4811968e+02 </wgt>
<wgt id='2194'> +2.5859689e+02 </wgt>
<wgt id='2195'> +3.0054672e+02 </wgt>
<wgt id='2196'> +2.5034794e+02 </wgt>
<wgt id='2197'> +2.5236894e+02 </wgt>
<wgt id='2198'> +2.6179300e+02 </wgt>
<wgt id='2199'> +2.4004656e+02 </wgt>
<wgt id='2200'> +2.6232527e+02 </wgt>
<wgt id='2201'> +2.5093221e+02 </wgt>
<wgt id='2202'> +2.5982979e+02 </wgt>
<wgt id='2203'> +2.6369688e+02 </wgt>
<wgt id='2204'> +2.6357422e+02 </wgt>
<wgt id='2205'> +2.5077675e+02 </wgt>
<wgt id='2206'> +2.6510170e+02 </wgt>
<wgt id='2207'> +2.6976481e+02 </wgt>
<wgt id='2208'> +2.6591333e+02 </wgt>
<wgt id='2209'> +2.4252501e+02 </wgt>
<wgt id='2210'> +2.6655613e+02 </wgt>
<wgt id='2211'> +2.4752348e+02 </wgt>
<wgt id='2212'> +2.8322357e+02 </wgt>
<wgt id='2213'> +2.6879990e+02 </wgt>
<wgt id='2214'> +2.7219169e+02 </wgt>
<wgt id='2215'> +2.5821473e+02 </wgt>
<wgt id='2216'> +2.3627799e+02 </wgt>
<wgt id='2217'> +2.5865957e+02 </wgt>
<wgt id='2218'> +2.7117161e+02 </wgt>
<wgt id='2219'> +2.6259764e+02 </wgt>
<wgt id='2220'> +2.6516939e+02 </wgt>
<wgt id='2221'> +2.6370711e+02 </wgt>
<wgt id='2222'> +2.7284655e+02 </wgt>
<wgt id='2223'> +2.7894733e+02 </wgt>
<wgt id='2224'> +2.6516418e+02 </wgt>
<wgt id='2225'> +2.5106088e+02 </wgt>
<wgt id='2226'> +2.7015753e+02 </wgt>
<wgt id='2227'> +2.7179355e+02 </wgt>
<wgt id='2228'> +2.4848122e+02 </wgt>
<wgt id='2229'> +2.5649776e+02 </wgt>
<wgt id='2230'> +2.4129914e+02 </wgt>
<wgt id='2231'> +2.7145406e+02 </wgt>
<wgt id='2232'> +2.5842756e+02 </wgt>
<wgt id='2233'> +2.5348816e+02 </wgt>
<wgt id='2234'> +2.8528286e+02 </wgt>
<wgt id='2235'> +2.6065437e+02 </wgt>
<wgt id='2236'> +2.5010999e+02 </wgt>
<wgt id='2237'> +2.5679624e+02 </wgt>
<wgt id='2238'> +2.6829807e+02 </wgt>
<wgt id='2239'> +2.7105046e+02 </wgt>
<wgt id='2240'> +2.6376342e+02 </wgt>
<wgt id='2241'> +2.9047701e+02 </wgt>
<wgt id='2242'> +2.5646137e+02 </wgt>
<wgt id='2243'> +2.7813289e+02 </wgt>
<wgt id='2244'> +2.6588147e+02 </wgt>
<wgt id='2245'> +2.5244772e+02 </wgt>
<wgt id='2246'> +2.3833005e+02 </wgt>
<wgt id='2247'> +2.3580177e+02 </wgt>
<wgt id='2248'> +2.6224395e+02 </wgt>
<wgt id='2249'> +2.3790714e+02 </wgt>
<wgt id='2250'> +2.2554098e+02 </wgt>
<wgt id='2251'> +2.6028208e+02 </wgt>
<wgt id='2252'> +2.5437510e+02 </wgt>
<wgt id='2253'> +2.3634021e+02 </wgt>
<wgt id='2254'> +2.6226735e+02 </wgt>
<wgt id='2255'> +2.7051486e+02 </wgt>
<wgt id='2256'> +2.6654021e+02 </wgt>
<wgt id='2257'> +2.5914227e+02 </wgt>
<wgt id='2258'> +2.5389365e+02 </wgt>
<wgt id='2259'> +2.4873035e+02 </wgt>
<wgt id='2260'> +2.7592858e+02 </wgt>
<wgt id='2261'> +2.4443691e+02 </wgt>
<wgt id='2262'> +2.6346767e+02 </wgt>
<wgt id='2263'> +2.7101606e+02 </wgt>
<wgt id='2264'> +2.7517452e+02 </wgt>
<wgt id='2265'> +2.5649095e+02 </wgt>
<wgt id='2266'> +2.7336569e+02 </wgt>
<wgt id='2267'> +2.5489536e+02 </wgt>
<wgt id='2268'> +2.6019963e+02 </wgt>
<wgt id='2269'> +2.5153855e+02 </wgt>
<wgt id='2270'> +2.6398731e+02 </wgt>
<wgt id='2271'> +2.6287295e+02 </wgt>
<wgt id='2272'> +2.7276373e+02 </wgt>
<wgt id='2273'> +2.7031394e+02 </wgt>
<wgt id='2274'> +2.3626786e+02 </wgt>
<wgt id='2275'> +2.9122009e+02 </wgt>
<wgt id='2276'> +2.8180886e+02 </wgt>
<wgt id='2277'> +2.9376871e+02 </wgt>
<wgt id='2278'> +2.5251461e+02 </wgt>
<wgt id='2279'> +2.6966608e+02 </wgt>
<wgt id='2280'> +2.6366019e+02 </wgt>
<wgt id='2281'> +1.4454191e+02 </wgt>
<wgt id='2282'> +2.4966986e+02 </wgt>
<wgt id='2283'> +2.2210374e+02 </wgt>
<wgt id='2284'> +3.2478349e+02 </wgt>
</rwgt>
</event>
<event npLO=" -1 " npNLO=" 2 ">
 5      2 +2.8781417e+02 2.98166730e+01 7.54677110e-03 1.20174840e-01
       21 -1    0    0  503  501 +0.0000000000e+00 +0.0000000000e+00 +2.4166789000e+01 2.4166789000e+01 0.0000000000e+00 0.0000e+00 9.0000e+00
       21 -1    0    0  504  502 -0.0000000000e+00 -0.0000000000e+00 -1.5265824000e+03 1.5265824000e+03 0.0000000000e+00 0.0000e+00 9.0000e+00
       25  1    1    2    0    0 -9.3380222000e+01 +4.6225112000e+01 -2.6564662000e+02 3.0236526000e+02 1.0000000000e+02 0.0000e+00 9.0000e+00
       21  1    1    2  503  502 +2.9643138000e+01 -3.2122181000e+00 -4.4070828000e+01 5.3209697000e+01 0.0000000000e+00 0.0000e+00 9.0000e+00
       21  1    1    2  504  501 +6.3737084000e+01 -4.3012894000e+01 -1.1926981000e+03 1.1951742000e+03 0.0000000000e+00 0.0000e+00 9.0000e+00
#aMCatNLO 1  0  0  5  1 0.30306795E+02 0.00000000E+00 -9  6  0 0.00000000E+00 0.00000000E+00 0.00000000E+00 0.00000000E+00 0.00000000E+00
<rwgt>
<wgt id='1001'> +2.8781417e+02 </wgt>
<wgt id='1002'> +2.1604866e+02 </wgt>
<wgt id='1003'> +3.8218650e+02 </wgt>
<wgt id='1004'> +2.7454909e+02 </wgt>
<wgt id='1005'> +2.0575534e+02 </wgt>
<wgt id='1006'> +3.6556012e+02 </wgt>
<wgt id='1007'> +2.9880900e+02 </wgt>
<wgt id='1008'> +2.2467064e+02 </wgt>
<wgt id='1009'> +3.9570174e+02 </wgt>
<wgt id='1010'> +2.8781417e+02 </wgt>
<wgt id='1011'> +2.8757560e+02 </wgt>
<wgt id='1012'> +2.8795849e+02 </wgt>
<wgt id='1013'> +2.8823795e+02 </wgt>
<wgt id='1014'> +2.8904354e+02 </wgt>
<wgt id='1015'> +2.8576136e+02 </wgt>
<wgt id='1016'> +2.8777128e+02 </wgt>
<wgt id='1017'> +2.8730404e+02 </wgt>
<wgt id='1018'> +2.8673048e+02 </wgt>
<wgt id='1019'> +2.8682220e+02 </wgt>
<wgt id='1020'> +2.8678610e+02 </wgt>
<wgt id='1021'> +2.9032145e+02 </wgt>
<wgt id='1022'> +2.8860356e+02 </wgt>
<wgt id='1023'> +2.8721370e+02 </wgt>
<wgt id='1024'> +2.8705333e+02 </wgt>
<wgt id='1025'> +2.8901857e+02 </wgt>
<wgt id='1026'> +2.8692701e+02 </wgt>
<wgt id='1027'> +2.8791653e+02 </wgt>
<wgt id='1028'> +2.8670439e+02 </wgt>
<wgt id='1029'> +2.8783901e+02 </wgt>
<wgt id='1030'> +2.8846258e+02 </wgt>
<wgt id='1031'> +2.8829536e+02 </wgt>
<wgt id='1032'> +2.8885047e+02 </wgt>
<wgt id='1033'> +2.8567389e+02 </wgt>
<wgt id='1034'> +2.8991083e+02 </wgt>
<wgt id='1035'> +2.8565221e+02 </wgt>
<wgt id='1036'> +2.8584734e+02 </wgt>
<wgt id='1037'> +2.8948410e+02 </wgt>
<wgt id='1038'> +2.8476080e+02 </wgt>
<wgt id='1039'> +2.8707600e+02 </wgt>
<wgt id='1040'> +2.8938518e+02 </wgt>
<wgt id='1041'> +2.8635908e+02 </wgt>
<wgt id='1042'> +2.8705596e+02 </wgt>
<wgt id='1043'> +2.8720904e+02 </wgt>
<wgt id='1044'> +2.8618710e+02 </wgt>
<wgt id='1045'> +2.8964366e+02 </wgt>
<wgt id='1046'> +2.8852731e+02 </wgt>
<wgt id='1047'> +2.8706523e+02 </wgt>
<wgt id='1048'> +2.8770340e+02 </wgt>
<wgt id='1049'> +2.8763490e+02 </wgt>
<wgt id='1050'> +2.8726659e+02 </wgt>
<wgt id='1051'> +2.8661848e+02 </wgt>
<wgt id='1052'> +2.8871590e+02 </wgt>
<wgt id='1053'> +2.8786051e+02 </wgt>
<wgt id='1054'> +2.8803636e+02 </wgt>
<wgt id='1055'> +2.8818475e+02 </wgt>
<wgt id='1056'> +2.8632867e+02 </wgt>
<wgt id='1057'> +2.8802857e+02 </wgt>
<wgt id='1058'> +2.8766589e+02 </wgt>
<wgt id='1059'> +2.8714767e+02 </wgt>
<wgt id='1060'> +2.8749772e+02 </wgt>
<wgt id='1061'> +2.8730570e+02 </wgt>
<wgt id='1062'> +2.8852759e+02 </wgt>
<wgt id='1063'> +2.8782745e+02 </wgt>
<wgt id='1064'> +2.8770885e+02 </wgt>
<wgt id='1065'> +2.8715986e+02 </wgt>
<wgt id='1066'> +2.8770581e+02 </wgt>
<wgt id='1067'> +2.8786635e+02 </wgt>
<wgt id='1068'> +2.8819145e+02 </wgt>
<wgt id='1069'> +2.8817158e+02 </wgt>
<wgt id='1070'> +2.8757681e+02 </wgt>
<wgt id='1071'> +2.8747069e+02 </wgt>
<wgt id='1072'> +2.8812393e+02 </wgt>
<wgt id='1073'> +2.8783061e+02 </wgt>
<wgt id='1074'> +2.8791266e+02 </wgt>
<wgt id='1075'> +2.8825848e+02 </wgt>
<wgt id='1076'> +2.8759434e+02 </wgt>
<wgt id='1077'> +2.8726082e+02 </wgt>
<wgt id='1078'> +2.8858739e+02 </wgt>
<wgt id='1079'> +2.8778399e+02 </wgt>
<wgt id='1080'> +2.8816060e+02 </wgt>
<wgt id='1081'> +2.8752228e+02 </wgt>
<wgt id='1082'> +2.8743142e+02 </wgt>
<wgt id='1083'> +2.8796384e+02 </wgt>
<wgt id='1084'> +2.8754857e+02 </wgt>
<wgt id='1085'> +2.8771184e+02 </wgt>
<wgt id='1086'> +2.8783964e+02 </wgt>
<wgt id='1087'> +2.8805294e+02 </wgt>
<wgt id='1088'> +2.8794146e+02 </wgt>
<wgt id='1089'> +2.8765209e+02 </wgt>
<wgt id='1090'> +2.8776123e+02 </wgt>
<wgt id='1091'> +2.8765136e+02 </wgt>
<wgt id='1092'> +2.8789265e+02 </wgt>
<wgt id='1093'> +2.8832330e+02 </wgt>
<wgt id='1094'> +2.8775244e+02 </wgt>
<wgt id='1095'> +2.8797272e+02 </wgt>
<wgt id='1096'> +2.8778234e+02 </wgt>
<wgt id='1097'> +2.8783834e+02 </wgt>
<wgt id='1098'> +2.8770132e+02 </wgt>
<wgt id='1099'> +2.8771572e+02 </wgt>
<wgt id='1100'> +2.8792493e+02 </wgt>
<wgt id='1101'> +2.8790186e+02 </wgt>
<wgt id='1102'> +2.8806788e+02 </wgt>
<wgt id='1103'> +2.8756101e+02 </wgt>
<wgt id='1104'> +2.8782866e+02 </wgt>
<wgt id='1105'> +2.8798589e+02 </wgt>
<wgt id='1106'> +2.8770737e+02 </wgt>
<wgt id='1107'> +2.8795967e+02 </wgt>
<wgt id='1108'> +2.8788123e+02 </wgt>
<wgt id='1109'> +2.8789404e+02 </wgt>
<wgt id='1110'> +2.8781416e+02 </wgt>
<wgt id='1111'> +2.6711248e+02 </wgt>
<wgt id='1112'> +3.0862263e+02 </wgt>
<wgt id='1113'> +2.8781416e+02 </wgt>
<wgt id='1114'> +3.0204937e+02 </wgt>
<wgt id='1115'> +2.7999986e+02 </wgt>
<wgt id='1116'> +2.6354979e+02 </wgt>
<wgt id='1117'> +2.8795049e+02 </wgt>
<wgt id='1118'> +2.8690985e+02 </wgt>
<wgt id='1119'> +2.9188042e+02 </wgt>
<wgt id='1120'> +2.8070991e+02 </wgt>
<wgt id='1121'> +2.7746431e+02 </wgt>
<wgt id='1122'> +2.7900385e+02 </wgt>
<wgt id='1123'> +3.0393673e+02 </wgt>
<wgt id='1124'> +2.9812211e+02 </wgt>
<wgt id='1125'> +2.9020716e+02 </wgt>
<wgt id='1126'> +2.9874795e+02 </wgt>
<wgt id='1127'> +2.8966561e+02 </wgt>
<wgt id='1128'> +2.8806554e+02 </wgt>
<wgt id='1129'> +2.8314260e+02 </wgt>
<wgt id='1130'> +2.8601834e+02 </wgt>
<wgt id='1131'> +2.8031997e+02 </wgt>
<wgt id='1132'> +2.8280253e+02 </wgt>
<wgt id='1133'> +2.8854648e+02 </wgt>
<wgt id='1134'> +2.8752223e+02 </wgt>
<wgt id='1135'> +2.8412761e+02 </wgt>
<wgt id='1136'> +2.7961117e+02 </wgt>
<wgt id='1137'> +2.9219359e+02 </wgt>
<wgt id='1138'> +2.7789912e+02 </wgt>
<wgt id='1139'> +2.8868027e+02 </wgt>
<wgt id='1140'> +2.9926350e+02 </wgt>
<wgt id='1141'> +2.7253021e+02 </wgt>
<wgt id='1142'> +2.9060417e+02 </wgt>
<wgt id='1143'> +2.8866512e+02 </wgt>
<wgt id='1144'> +2.6730616e+02 </wgt>
<wgt id='1145'> +3.0290747e+02 </wgt>
<wgt id='1146'> +2.8243531e+02 </wgt>
<wgt id='1147'> +2.8668568e+02 </wgt>
<wgt id='1148'> +2.8123789e+02 </wgt>
<wgt id='1149'> +2.9510151e+02 </wgt>
<wgt id='1150'> +2.9188864e+02 </wgt>
<wgt id='1151'> +2.8808202e+02 </wgt>
<wgt id='1152'> +2.9453201e+02 </wgt>
<wgt id='1153'> +2.8078091e+02 </wgt>
<wgt id='1154'> +2.8160014e+02 </wgt>
<wgt id='1155'> +2.8444614e+02 </wgt>
<wgt id='1156'> +2.9201830e+02 </wgt>
<wgt id='1157'> +2.8681414e+02 </wgt>
<wgt id='1158'> +2.8221566e+02 </wgt>
<wgt id='1159'> +2.9417843e+02 </wgt>
<wgt id='1160'> +2.9669107e+02 </wgt>
<wgt id='1161'> +2.9889739e+02 </wgt>
<wgt id='1162'> +2.9996720e+02 </wgt>
<wgt id='1163'> +2.9308218e+02 </wgt>
<wgt id='1164'> +2.9529258e+02 </wgt>
<wgt id='1165'> +2.8387257e+02 </wgt>
<wgt id='1166'> +2.9200300e+02 </wgt>
<wgt id='1167'> +2.8888393e+02 </wgt>
<wgt id='1168'> +2.8737952e+02 </wgt>
<wgt id='1169'> +2.8687218e+02 </wgt>
<wgt id='1170'> +2.9103356e+02 </wgt>
<wgt id='1171'> +2.9702183e+02 </wgt>
<wgt id='1172'> +2.7106437e+02 </wgt>
<wgt id='1173'> +2.9350980e+02 </wgt>
<wgt id='1174'> +2.9519372e+02 </wgt>
<wgt id='1175'> +2.8129968e+02 </wgt>
<wgt id='1176'> +2.9798721e+02 </wgt>
<wgt id='1177'> +2.9121367e+02 </wgt>
<wgt id='1178'> +2.8528628e+02 </wgt>
<wgt id='1179'> +2.7298832e+02 </wgt>
<wgt id='1180'> +2.6983072e+02 </wgt>
<wgt id='1181'> +2.8868976e+02 </wgt>
<wgt id='1182'> +2.8972056e+02 </wgt>
<wgt id='1183'> +2.9972199e+02 </wgt>
<wgt id='1184'> +2.9046430e+02 </wgt>
<wgt id='1185'> +2.9337529e+02 </wgt>
<wgt id='1186'> +2.8372953e+02 </wgt>
<wgt id='1187'> +2.8046583e+02 </wgt>
<wgt id='1188'> +2.8601556e+02 </wgt>
<wgt id='1189'> +2.8338534e+02 </wgt>
<wgt id='1190'> +2.9297655e+02 </wgt>
<wgt id='1191'> +2.8876056e+02 </wgt>
<wgt id='1192'> +2.9135926e+02 </wgt>
<wgt id='1193'> +3.0346612e+02 </wgt>
<wgt id='1194'> +2.9165831e+02 </wgt>
<wgt id='1195'> +2.8314260e+02 </wgt>
<wgt id='1196'> +2.9001787e+02 </wgt>
<wgt id='1197'> +2.8078808e+02 </wgt>
<wgt id='1198'> +2.8712727e+02 </wgt>
<wgt id='1199'> +3.0088673e+02 </wgt>
<wgt id='1200'> +2.8353463e+02 </wgt>
<wgt id='1201'> +2.9179677e+02 </wgt>
<wgt id='1202'> +2.7314318e+02 </wgt>
<wgt id='1203'> +2.7960945e+02 </wgt>
<wgt id='1204'> +2.6972944e+02 </wgt>
<wgt id='1205'> +3.0123627e+02 </wgt>
<wgt id='1206'> +2.8764279e+02 </wgt>
<wgt id='1207'> +2.8904207e+02 </wgt>
<wgt id='1208'> +2.9781283e+02 </wgt>
<wgt id='1209'> +2.7603200e+02 </wgt>
<wgt id='1210'> +3.0971849e+02 </wgt>
<wgt id='1211'> +2.8777722e+02 </wgt>
<wgt id='1212'> +2.8084288e+02 </wgt>
<wgt id='1213'> +2.8404328e+02 </wgt>
<wgt id='1214'> +2.8668748e+02 </wgt>
<wgt id='1215'> +2.8626085e+02 </wgt>
<wgt id='1216'> +2.8685683e+02 </wgt>
<wgt id='1217'> +2.8619663e+02 </wgt>
<wgt id='1218'> +2.8764219e+02 </wgt>
<wgt id='1219'> +2.8690063e+02 </wgt>
<wgt id='1220'> +2.8620556e+02 </wgt>
<wgt id='1221'> +2.8685121e+02 </wgt>
<wgt id='1222'> +2.8677312e+02 </wgt>
<wgt id='1223'> +2.8671208e+02 </wgt>
<wgt id='1224'> +2.8536478e+02 </wgt>
<wgt id='1225'> +2.8674009e+02 </wgt>
<wgt id='1226'> +2.8706456e+02 </wgt>
<wgt id='1227'> +2.8638821e+02 </wgt>
<wgt id='1228'> +2.8586897e+02 </wgt>
<wgt id='1229'> +2.8653578e+02 </wgt>
<wgt id='1230'> +2.8735392e+02 </wgt>
<wgt id='1231'> +2.8678689e+02 </wgt>
<wgt id='1232'> +2.8606742e+02 </wgt>
<wgt id='1233'> +2.8684648e+02 </wgt>
<wgt id='1234'> +2.8674165e+02 </wgt>
<wgt id='1235'> +2.8719211e+02 </wgt>
<wgt id='1236'> +2.8712942e+02 </wgt>
<wgt id='1237'> +2.8770923e+02 </wgt>
<wgt id='1238'> +2.8624038e+02 </wgt>
<wgt id='1239'> +2.8756858e+02 </wgt>
<wgt id='1240'> +2.8771538e+02 </wgt>
<wgt id='1241'> +2.8595540e+02 </wgt>
<wgt id='1242'> +2.8576511e+02 </wgt>
<wgt id='1243'> +2.8861039e+02 </wgt>
<wgt id='1244'> +2.8715831e+02 </wgt>
<wgt id='1245'> +2.8677757e+02 </wgt>
<wgt id='1246'> +2.8674333e+02 </wgt>
<wgt id='1247'> +2.8641619e+02 </wgt>
<wgt id='1248'> +2.8590028e+02 </wgt>
<wgt id='1249'> +2.8737342e+02 </wgt>
<wgt id='1250'> +2.8776311e+02 </wgt>
<wgt id='1251'> +2.8507998e+02 </wgt>
<wgt id='1252'> +2.8593143e+02 </wgt>
<wgt id='1253'> +2.8675835e+02 </wgt>
<wgt id='1254'> +2.8870722e+02 </wgt>
<wgt id='1255'> +2.8860491e+02 </wgt>
<wgt id='1256'> +2.8704368e+02 </wgt>
<wgt id='1257'> +2.8297018e+02 </wgt>
<wgt id='1258'> +2.8556485e+02 </wgt>
<wgt id='1259'> +2.8671148e+02 </wgt>
<wgt id='1260'> +2.8866347e+02 </wgt>
<wgt id='1261'> +2.8837264e+02 </wgt>
<wgt id='1262'> +2.8456830e+02 </wgt>
<wgt id='1263'> +2.8532347e+02 </wgt>
<wgt id='1264'> +2.8776483e+02 </wgt>
<wgt id='1265'> +2.8580825e+02 </wgt>
<wgt id='1266'> +2.8633307e+02 </wgt>
<wgt id='1267'> +2.8676848e+02 </wgt>
<wgt id='1268'> +2.8709528e+02 </wgt>
<wgt id='1269'> +2.8758714e+02 </wgt>
<wgt id='1270'> +2.8605763e+02 </wgt>
<wgt id='1271'> +2.8569596e+02 </wgt>
<wgt id='1272'> +2.8632881e+02 </wgt>
<wgt id='1273'> +2.8692125e+02 </wgt>
<wgt id='1274'> +2.8678807e+02 </wgt>
<wgt id='1275'> +2.8692726e+02 </wgt>
<wgt id='1276'> +2.8673429e+02 </wgt>
<wgt id='1277'> +2.8634698e+02 </wgt>
<wgt id='1278'> +2.8653768e+02 </wgt>
<wgt id='1279'> +2.8605443e+02 </wgt>
<wgt id='1280'> +2.8692697e+02 </wgt>
<wgt id='1281'> +2.8682097e+02 </wgt>
<wgt id='1282'> +2.8697420e+02 </wgt>
<wgt id='1283'> +2.8712291e+02 </wgt>
<wgt id='1284'> +2.8611089e+02 </wgt>
<wgt id='1285'> +2.8612549e+02 </wgt>
<wgt id='1286'> +2.8665494e+02 </wgt>
<wgt id='1287'> +2.8581820e+02 </wgt>
<wgt id='1288'> +2.8621956e+02 </wgt>
<wgt id='1289'> +2.8613274e+02 </wgt>
<wgt id='1290'> +2.8742703e+02 </wgt>
<wgt id='1291'> +2.8542182e+02 </wgt>
<wgt id='1292'> +2.8696916e+02 </wgt>
<wgt id='1293'> +2.8699722e+02 </wgt>
<wgt id='1294'> +2.8693421e+02 </wgt>
<wgt id='1295'> +2.8692953e+02 </wgt>
<wgt id='1296'> +2.8716945e+02 </wgt>
<wgt id='1297'> +2.8648998e+02 </wgt>
<wgt id='1298'> +2.8653031e+02 </wgt>
<wgt id='1299'> +2.8652688e+02 </wgt>
<wgt id='1300'> +2.8664739e+02 </wgt>
<wgt id='1301'> +2.8650752e+02 </wgt>
<wgt id='1302'> +2.8682662e+02 </wgt>
<wgt id='1303'> +2.8666218e+02 </wgt>
<wgt id='1304'> +2.8654251e+02 </wgt>
<wgt id='1305'> +2.8658639e+02 </wgt>
<wgt id='1306'> +2.8639257e+02 </wgt>
<wgt id='1307'> +2.8683586e+02 </wgt>
<wgt id='1308'> +2.8675952e+02 </wgt>
<wgt id='1309'> +2.8693848e+02 </wgt>
<wgt id='1310'> +2.8645406e+02 </wgt>
<wgt id='1311'> +2.8697590e+02 </wgt>
<wgt id='1312'> +2.8659547e+02 </wgt>
<wgt id='1313'> +2.8641314e+02 </wgt>
<wgt id='1314'> +2.8685788e+02 </wgt>
<wgt id='1315'> +2.6711248e+02 </wgt>
<wgt id='1316'> +3.0862263e+02 </wgt>
<wgt id='1317'> +2.0021204e+02 </wgt>
<wgt id='1318'> +2.1576114e+02 </wgt>
<wgt id='1319'> +2.3266689e+02 </wgt>
<wgt id='1320'> +2.4766336e+02 </wgt>
<wgt id='1321'> +2.7605999e+02 </wgt>
<wgt id='1322'> +2.9795117e+02 </wgt>
<wgt id='1323'> +3.2886012e+02 </wgt>
<wgt id='1324'> +3.5558454e+02 </wgt>
<wgt id='1325'> +3.0668344e+02 </wgt>
<wgt id='1326'> +3.0667194e+02 </wgt>
<wgt id='1327'> +3.0643470e+02 </wgt>
<wgt id='1328'> +3.0675247e+02 </wgt>
<wgt id='1329'> +3.0810748e+02 </wgt>
<wgt id='1330'> +3.0659423e+02 </wgt>
<wgt id='1331'> +3.0655969e+02 </wgt>
<wgt id='1332'> +3.0629211e+02 </wgt>
<wgt id='1333'> +3.0595720e+02 </wgt>
<wgt id='1334'> +3.0559768e+02 </wgt>
<wgt id='1335'> +3.0627851e+02 </wgt>
<wgt id='1336'> +3.0704014e+02 </wgt>
<wgt id='1337'> +3.0725548e+02 </wgt>
<wgt id='1338'> +3.0717789e+02 </wgt>
<wgt id='1339'> +3.0652484e+02 </wgt>
<wgt id='1340'> +3.0632126e+02 </wgt>
<wgt id='1341'> +3.0694795e+02 </wgt>
<wgt id='1342'> +3.0624796e+02 </wgt>
<wgt id='1343'> +3.0725890e+02 </wgt>
<wgt id='1344'> +3.0742587e+02 </wgt>
<wgt id='1345'> +3.0691853e+02 </wgt>
<wgt id='1346'> +3.0648614e+02 </wgt>
<wgt id='1347'> +3.0648935e+02 </wgt>
<wgt id='1348'> +3.0618555e+02 </wgt>
<wgt id='1349'> +3.0600868e+02 </wgt>
<wgt id='1350'> +3.0721380e+02 </wgt>
<wgt id='1351'> +3.0732829e+02 </wgt>
<wgt id='1352'> +3.0683102e+02 </wgt>
<wgt id='1353'> +3.0529187e+02 </wgt>
<wgt id='1354'> +3.0597392e+02 </wgt>
<wgt id='1355'> +3.0865115e+02 </wgt>
<wgt id='1356'> +3.0707595e+02 </wgt>
<wgt id='1357'> +3.0712003e+02 </wgt>
<wgt id='1358'> +3.0748271e+02 </wgt>
<wgt id='1359'> +3.0653616e+02 </wgt>
<wgt id='1360'> +3.0623335e+02 </wgt>
<wgt id='1361'> +3.0612117e+02 </wgt>
<wgt id='1362'> +3.0755407e+02 </wgt>
<wgt id='1363'> +3.0611669e+02 </wgt>
<wgt id='1364'> +3.0525015e+02 </wgt>
<wgt id='1365'> +3.0692116e+02 </wgt>
<wgt id='1366'> +3.0739555e+02 </wgt>
<wgt id='1367'> +3.0801916e+02 </wgt>
<wgt id='1368'> +3.0819854e+02 </wgt>
<wgt id='1369'> +3.0589034e+02 </wgt>
<wgt id='1370'> +3.0521065e+02 </wgt>
<wgt id='1371'> +3.0912296e+02 </wgt>
<wgt id='1372'> +3.0803513e+02 </wgt>
<wgt id='1373'> +3.0463275e+02 </wgt>
<wgt id='1374'> +3.0683781e+02 </wgt>
<wgt id='1375'> +3.0380623e+02 </wgt>
<wgt id='1376'> +3.0852985e+02 </wgt>
<wgt id='1377'> +3.0592821e+02 </wgt>
<wgt id='1378'> +3.0642667e+02 </wgt>
<wgt id='1379'> +3.0740637e+02 </wgt>
<wgt id='1380'> +3.0838670e+02 </wgt>
<wgt id='1381'> +3.0619756e+02 </wgt>
<wgt id='1382'> +3.0736212e+02 </wgt>
<wgt id='1383'> +3.0675552e+02 </wgt>
<wgt id='1384'> +3.0589791e+02 </wgt>
<wgt id='1385'> +3.0713152e+02 </wgt>
<wgt id='1386'> +3.0671058e+02 </wgt>
<wgt id='1387'> +3.0661063e+02 </wgt>
<wgt id='1388'> +3.0615974e+02 </wgt>
<wgt id='1389'> +3.0730192e+02 </wgt>
<wgt id='1390'> +3.0617271e+02 </wgt>
<wgt id='1391'> +3.0691903e+02 </wgt>
<wgt id='1392'> +3.0683792e+02 </wgt>
<wgt id='1393'> +3.0639014e+02 </wgt>
<wgt id='1394'> +3.0601547e+02 </wgt>
<wgt id='1395'> +3.0619769e+02 </wgt>
<wgt id='1396'> +3.0689255e+02 </wgt>
<wgt id='1397'> +3.0681829e+02 </wgt>
<wgt id='1398'> +3.0651947e+02 </wgt>
<wgt id='1399'> +3.0841847e+02 </wgt>
<wgt id='1400'> +3.0670908e+02 </wgt>
<wgt id='1401'> +3.0717009e+02 </wgt>
<wgt id='1402'> +3.0720095e+02 </wgt>
<wgt id='1403'> +3.0710551e+02 </wgt>
<wgt id='1404'> +3.0564186e+02 </wgt>
<wgt id='1405'> +3.0589488e+02 </wgt>
<wgt id='1406'> +3.0650302e+02 </wgt>
<wgt id='1407'> +3.0605970e+02 </wgt>
<wgt id='1408'> +3.0680261e+02 </wgt>
<wgt id='1409'> +3.0679690e+02 </wgt>
<wgt id='1410'> +3.0694187e+02 </wgt>
<wgt id='1411'> +3.0618339e+02 </wgt>
<wgt id='1412'> +3.0641578e+02 </wgt>
<wgt id='1413'> +3.0651287e+02 </wgt>
<wgt id='1414'> +3.0662032e+02 </wgt>
<wgt id='1415'> +3.0648741e+02 </wgt>
<wgt id='1416'> +3.0651738e+02 </wgt>
<wgt id='1417'> +3.0672911e+02 </wgt>
<wgt id='1418'> +3.0694667e+02 </wgt>
<wgt id='1419'> +3.0699123e+02 </wgt>
<wgt id='1420'> +3.0656912e+02 </wgt>
<wgt id='1421'> +3.0662293e+02 </wgt>
<wgt id='1422'> +3.0663735e+02 </wgt>
<wgt id='1423'> +3.0672060e+02 </wgt>
<wgt id='1424'> +3.0683886e+02 </wgt>
<wgt id='1425'> +3.0680316e+02 </wgt>
<wgt id='1426'> +2.8849060e+02 </wgt>
<wgt id='1427'> +3.2785232e+02 </wgt>
<wgt id='1428'> +3.2588232e+02 </wgt>
<wgt id='1429'> +3.2659923e+02 </wgt>
<wgt id='1430'> +3.2739298e+02 </wgt>
<wgt id='1431'> +3.2525042e+02 </wgt>
<wgt id='1432'> +3.3042454e+02 </wgt>
<wgt id='1433'> +3.3373574e+02 </wgt>
<wgt id='1434'> +3.3630640e+02 </wgt>
<wgt id='1435'> +3.3096458e+02 </wgt>
<wgt id='1436'> +3.2774816e+02 </wgt>
<wgt id='1437'> +3.2779834e+02 </wgt>
<wgt id='1438'> +3.2531158e+02 </wgt>
<wgt id='1439'> +3.3370798e+02 </wgt>
<wgt id='1440'> +3.1798139e+02 </wgt>
<wgt id='1441'> +3.3271387e+02 </wgt>
<wgt id='1442'> +3.1598218e+02 </wgt>
<wgt id='1443'> +3.1806282e+02 </wgt>
<wgt id='1444'> +3.4744692e+02 </wgt>
<wgt id='1445'> +3.2336251e+02 </wgt>
<wgt id='1446'> +3.2840599e+02 </wgt>
<wgt id='1447'> +3.1883109e+02 </wgt>
<wgt id='1448'> +3.3174924e+02 </wgt>
<wgt id='1449'> +3.2136714e+02 </wgt>
<wgt id='1450'> +3.2874548e+02 </wgt>
<wgt id='1451'> +3.2225677e+02 </wgt>
<wgt id='1452'> +3.3012913e+02 </wgt>
<wgt id='1453'> +3.2678008e+02 </wgt>
<wgt id='1454'> +3.2515387e+02 </wgt>
<wgt id='1455'> +3.2151058e+02 </wgt>
<wgt id='1456'> +3.3330482e+02 </wgt>
<wgt id='1457'> +3.3850547e+02 </wgt>
<wgt id='1458'> +3.1811084e+02 </wgt>
<wgt id='1459'> +3.3110420e+02 </wgt>
<wgt id='1460'> +3.1829319e+02 </wgt>
<wgt id='1461'> +3.2136332e+02 </wgt>
<wgt id='1462'> +3.3039420e+02 </wgt>
<wgt id='1463'> +3.2207586e+02 </wgt>
<wgt id='1464'> +3.2902975e+02 </wgt>
<wgt id='1465'> +3.1957085e+02 </wgt>
<wgt id='1466'> +3.3334792e+02 </wgt>
<wgt id='1467'> +3.3132482e+02 </wgt>
<wgt id='1468'> +3.2324228e+02 </wgt>
<wgt id='1469'> +3.3247110e+02 </wgt>
<wgt id='1470'> +3.2427169e+02 </wgt>
<wgt id='1471'> +3.1897935e+02 </wgt>
<wgt id='1472'> +3.3763464e+02 </wgt>
<wgt id='1473'> +3.2169739e+02 </wgt>
<wgt id='1474'> +3.3019927e+02 </wgt>
<wgt id='1475'> +3.2064551e+02 </wgt>
<wgt id='1476'> +3.2532471e+02 </wgt>
<wgt id='1477'> +3.2612414e+02 </wgt>
<wgt id='1478'> +3.2354573e+02 </wgt>
<wgt id='1479'> +3.2520979e+02 </wgt>
<wgt id='1480'> +3.2544356e+02 </wgt>
<wgt id='1481'> +3.1310044e+02 </wgt>
<wgt id='1482'> +3.2180025e+02 </wgt>
<wgt id='1483'> +3.2496710e+02 </wgt>
<wgt id='1484'> +3.2736907e+02 </wgt>
<wgt id='1485'> +3.0061082e+02 </wgt>
<wgt id='1486'> +3.5436717e+02 </wgt>
<wgt id='1487'> +3.2728253e+02 </wgt>
<wgt id='1488'> +3.2652127e+02 </wgt>
<wgt id='1489'> +3.2637870e+02 </wgt>
<wgt id='1490'> +3.2872954e+02 </wgt>
<wgt id='1491'> +3.3129288e+02 </wgt>
<wgt id='1492'> +3.2321356e+02 </wgt>
<wgt id='1493'> +3.2936561e+02 </wgt>
<wgt id='1494'> +3.2462859e+02 </wgt>
<wgt id='1495'> +3.2884760e+02 </wgt>
<wgt id='1496'> +3.3658146e+02 </wgt>
<wgt id='1497'> +3.2186510e+02 </wgt>
<wgt id='1498'> +3.2785274e+02 </wgt>
<wgt id='1499'> +3.2659527e+02 </wgt>
<wgt id='1500'> +3.4283932e+02 </wgt>
<wgt id='1501'> +3.1772437e+02 </wgt>
<wgt id='1502'> +3.3592579e+02 </wgt>
<wgt id='1503'> +3.2188064e+02 </wgt>
<wgt id='1504'> +3.2129626e+02 </wgt>
<wgt id='1505'> +3.3450318e+02 </wgt>
<wgt id='1506'> +3.1685654e+02 </wgt>
<wgt id='1507'> +3.3832494e+02 </wgt>
<wgt id='1508'> +3.2487686e+02 </wgt>
<wgt id='1509'> +3.3210779e+02 </wgt>
<wgt id='1510'> +3.3541008e+02 </wgt>
<wgt id='1511'> +3.1924188e+02 </wgt>
<wgt id='1512'> +3.2716346e+02 </wgt>
<wgt id='1513'> +3.2734581e+02 </wgt>
<wgt id='1514'> +3.3162110e+02 </wgt>
<wgt id='1515'> +3.2119821e+02 </wgt>
<wgt id='1516'> +3.3209550e+02 </wgt>
<wgt id='1517'> +3.2559073e+02 </wgt>
<wgt id='1518'> +3.2631233e+02 </wgt>
<wgt id='1519'> +3.2856386e+02 </wgt>
<wgt id='1520'> +3.2916515e+02 </wgt>
<wgt id='1521'> +3.2320989e+02 </wgt>
<wgt id='1522'> +3.1854459e+02 </wgt>
<wgt id='1523'> +3.3498089e+02 </wgt>
<wgt id='1524'> +3.1726147e+02 </wgt>
<wgt id='1525'> +3.4215534e+02 </wgt>
<wgt id='1526'> +3.2141299e+02 </wgt>
<wgt id='1527'> +3.3257054e+02 </wgt>
<wgt id='1528'> +3.2933186e+02 </wgt>
<wgt id='1529'> +3.2359583e+02 </wgt>
<wgt id='1530'> +3.2259451e+02 </wgt>
<wgt id='1531'> +3.2623894e+02 </wgt>
<wgt id='1532'> +3.4066784e+02 </wgt>
<wgt id='1533'> +3.2417757e+02 </wgt>
<wgt id='1534'> +3.2743920e+02 </wgt>
<wgt id='1535'> +3.3953355e+02 </wgt>
<wgt id='1536'> +3.3833803e+02 </wgt>
<wgt id='1537'> +3.3240312e+02 </wgt>
<wgt id='1538'> +3.2878161e+02 </wgt>
<wgt id='1539'> +3.2742732e+02 </wgt>
<wgt id='1540'> +3.1212732e+02 </wgt>
<wgt id='1541'> +3.2959610e+02 </wgt>
<wgt id='1542'> +3.2622937e+02 </wgt>
<wgt id='1543'> +3.2821371e+02 </wgt>
<wgt id='1544'> +3.0356428e+02 </wgt>
<wgt id='1545'> +3.5440406e+02 </wgt>
<wgt id='1546'> +4.3349472e+02 </wgt>
<wgt id='1547'> +3.1063096e+02 </wgt>
<wgt id='1548'> +3.1097862e+02 </wgt>
<wgt id='1549'> +3.1023423e+02 </wgt>
<wgt id='1550'> +3.1076564e+02 </wgt>
<wgt id='1551'> +3.1053754e+02 </wgt>
<wgt id='1552'> +3.1191209e+02 </wgt>
<wgt id='1553'> +3.0943205e+02 </wgt>
<wgt id='1554'> +3.0980892e+02 </wgt>
<wgt id='1555'> +3.1154456e+02 </wgt>
<wgt id='1556'> +3.1166886e+02 </wgt>
<wgt id='1557'> +3.0960376e+02 </wgt>
<wgt id='1558'> +3.1111130e+02 </wgt>
<wgt id='1559'> +3.0956360e+02 </wgt>
<wgt id='1560'> +3.1037533e+02 </wgt>
<wgt id='1561'> +3.1106367e+02 </wgt>
<wgt id='1562'> +3.1025918e+02 </wgt>
<wgt id='1563'> +3.1081964e+02 </wgt>
<wgt id='1564'> +3.0857865e+02 </wgt>
<wgt id='1565'> +3.1304005e+02 </wgt>
<wgt id='1566'> +3.1047298e+02 </wgt>
<wgt id='1567'> +3.1074116e+02 </wgt>
<wgt id='1568'> +3.0950524e+02 </wgt>
<wgt id='1569'> +3.1208891e+02 </wgt>
<wgt id='1570'> +3.0773175e+02 </wgt>
<wgt id='1571'> +3.1254984e+02 </wgt>
<wgt id='1572'> +3.1539334e+02 </wgt>
<wgt id='1573'> +3.0529181e+02 </wgt>
<wgt id='1574'> +3.1087429e+02 </wgt>
<wgt id='1575'> +3.1070263e+02 </wgt>
<wgt id='1576'> +3.0694454e+02 </wgt>
<wgt id='1577'> +3.1512653e+02 </wgt>
<wgt id='1578'> +3.0344737e+02 </wgt>
<wgt id='1579'> +3.1901958e+02 </wgt>
<wgt id='1580'> +3.1361665e+02 </wgt>
<wgt id='1581'> +3.0773361e+02 </wgt>
<wgt id='1582'> +3.1204812e+02 </wgt>
<wgt id='1583'> +3.0766036e+02 </wgt>
<wgt id='1584'> +3.1086534e+02 </wgt>
<wgt id='1585'> +3.1046052e+02 </wgt>
<wgt id='1586'> +3.0882805e+02 </wgt>
<wgt id='1587'> +3.1268703e+02 </wgt>
<wgt id='1588'> +3.0646050e+02 </wgt>
<wgt id='1589'> +3.1546986e+02 </wgt>
<wgt id='1590'> +3.1381899e+02 </wgt>
<wgt id='1591'> +3.1004276e+02 </wgt>
<wgt id='1592'> +3.0970427e+02 </wgt>
<wgt id='1593'> +3.1299051e+02 </wgt>
<wgt id='1594'> +3.0595484e+02 </wgt>
<wgt id='1595'> +3.1902871e+02 </wgt>
<wgt id='1596'> +3.0732717e+02 </wgt>
<wgt id='1597'> +3.1248561e+02 </wgt>
<wgt id='1598'> +3.1137703e+02 </wgt>
<wgt id='1599'> +3.1151049e+02 </wgt>
<wgt id='1600'> +3.1123343e+02 </wgt>
<wgt id='1601'> +3.1254954e+02 </wgt>
<wgt id='1602'> +3.1021644e+02 </wgt>
<wgt id='1603'> +3.1200101e+02 </wgt>
<wgt id='1604'> +3.1111993e+02 </wgt>
<wgt id='1605'> +3.1100144e+02 </wgt>
<wgt id='1606'> +3.1177064e+02 </wgt>
<wgt id='1607'> +3.1201480e+02 </wgt>
<wgt id='1608'> +3.1076067e+02 </wgt>
<wgt id='1609'> +3.0909438e+02 </wgt>
<wgt id='1610'> +3.1238184e+02 </wgt>
<wgt id='1611'> +3.1122766e+02 </wgt>
<wgt id='1612'> +3.1156030e+02 </wgt>
<wgt id='1613'> +3.1086456e+02 </wgt>
<wgt id='1614'> +3.1194914e+02 </wgt>
<wgt id='1615'> +3.0835653e+02 </wgt>
<wgt id='1616'> +3.1306535e+02 </wgt>
<wgt id='1617'> +3.1116079e+02 </wgt>
<wgt id='1618'> +3.1168045e+02 </wgt>
<wgt id='1619'> +3.1176202e+02 </wgt>
<wgt id='1620'> +3.1110787e+02 </wgt>
<wgt id='1621'> +3.1203301e+02 </wgt>
<wgt id='1622'> +3.1059615e+02 </wgt>
<wgt id='1623'> +3.1186971e+02 </wgt>
<wgt id='1624'> +3.1019039e+02 </wgt>
<wgt id='1625'> +3.1101388e+02 </wgt>
<wgt id='1626'> +3.1190427e+02 </wgt>
<wgt id='1627'> +3.1521305e+02 </wgt>
<wgt id='1628'> +3.0156953e+02 </wgt>
<wgt id='1629'> +3.0797855e+02 </wgt>
<wgt id='1630'> +3.1875680e+02 </wgt>
<wgt id='1631'> +3.1281811e+02 </wgt>
<wgt id='1632'> +3.0887155e+02 </wgt>
<wgt id='1633'> +3.0624225e+02 </wgt>
<wgt id='1634'> +3.1397139e+02 </wgt>
<wgt id='1635'> +3.1117496e+02 </wgt>
<wgt id='1636'> +3.1204750e+02 </wgt>
<wgt id='1637'> +3.0885969e+02 </wgt>
<wgt id='1638'> +3.1328593e+02 </wgt>
<wgt id='1639'> +3.1629680e+02 </wgt>
<wgt id='1640'> +3.0428197e+02 </wgt>
<wgt id='1641'> +3.1185865e+02 </wgt>
<wgt id='1642'> +3.0877550e+02 </wgt>
<wgt id='1643'> +3.1376384e+02 </wgt>
<wgt id='1644'> +3.0966014e+02 </wgt>
<wgt id='1645'> +3.1068911e+02 </wgt>
<wgt id='1646'> +3.1170230e+02 </wgt>
<wgt id='1647'> +3.1597444e+02 </wgt>
<wgt id='1648'> +3.0820558e+02 </wgt>
<wgt id='1649'> +6.9153965e+02 </wgt>
<wgt id='1650'> +2.8585338e+02 </wgt>
<wgt id='1651'> +2.8575052e+02 </wgt>
<wgt id='1652'> +2.8594345e+02 </wgt>
<wgt id='1653'> +2.8585168e+02 </wgt>
<wgt id='1654'> +2.8584383e+02 </wgt>
<wgt id='1655'> +2.8520688e+02 </wgt>
<wgt id='1656'> +2.8616296e+02 </wgt>
<wgt id='1657'> +2.8630510e+02 </wgt>
<wgt id='1658'> +2.8646539e+02 </wgt>
<wgt id='1659'> +2.8712616e+02 </wgt>
<wgt id='1660'> +2.8555269e+02 </wgt>
<wgt id='1661'> +2.8601393e+02 </wgt>
<wgt id='1662'> +2.8494480e+02 </wgt>
<wgt id='1663'> +2.8513768e+02 </wgt>
<wgt id='1664'> +2.8650569e+02 </wgt>
<wgt id='1665'> +2.8552941e+02 </wgt>
<wgt id='1666'> +2.8653284e+02 </wgt>
<wgt id='1667'> +2.8628944e+02 </wgt>
<wgt id='1668'> +2.8742857e+02 </wgt>
<wgt id='1669'> +2.8419493e+02 </wgt>
<wgt id='1670'> +2.8849732e+02 </wgt>
<wgt id='1671'> +2.8484795e+02 </wgt>
<wgt id='1672'> +2.9060223e+02 </wgt>
<wgt id='1673'> +2.8382803e+02 </wgt>
<wgt id='1674'> +2.8223610e+02 </wgt>
<wgt id='1675'> +2.8249557e+02 </wgt>
<wgt id='1676'> +2.8539847e+02 </wgt>
<wgt id='1677'> +2.8682007e+02 </wgt>
<wgt id='1678'> +2.8581863e+02 </wgt>
<wgt id='1679'> +2.9974897e+02 </wgt>
<wgt id='1680'> +3.1669514e+02 </wgt>
<wgt id='1681'> +3.1175518e+02 </wgt>
<wgt id='1682'> +3.1555910e+02 </wgt>
<wgt id='1683'> +3.1790752e+02 </wgt>
<wgt id='1684'> +3.1527559e+02 </wgt>
<wgt id='1685'> +3.1781291e+02 </wgt>
<wgt id='1686'> +3.1484948e+02 </wgt>
<wgt id='1687'> +3.1748905e+02 </wgt>
<wgt id='1688'> +3.1471467e+02 </wgt>
<wgt id='1689'> +3.1665140e+02 </wgt>
<wgt id='1690'> +3.1186278e+02 </wgt>
<wgt id='1691'> +3.1396441e+02 </wgt>
<wgt id='1692'> +3.2155790e+02 </wgt>
<wgt id='1693'> +3.2015767e+02 </wgt>
<wgt id='1694'> +3.2048771e+02 </wgt>
<wgt id='1695'> +3.1745236e+02 </wgt>
<wgt id='1696'> +3.1570095e+02 </wgt>
<wgt id='1697'> +3.2101257e+02 </wgt>
<wgt id='1698'> +3.1730621e+02 </wgt>
<wgt id='1699'> +3.1784876e+02 </wgt>
<wgt id='1700'> +3.0765113e+02 </wgt>
<wgt id='1701'> +3.1271623e+02 </wgt>
<wgt id='1702'> +3.2341017e+02 </wgt>
<wgt id='1703'> +3.1215891e+02 </wgt>
<wgt id='1704'> +3.1637144e+02 </wgt>
<wgt id='1705'> +3.1771038e+02 </wgt>
<wgt id='1706'> +3.1583548e+02 </wgt>
<wgt id='1707'> +3.1681190e+02 </wgt>
<wgt id='1708'> +3.1570355e+02 </wgt>
<wgt id='1709'> +3.1611165e+02 </wgt>
<wgt id='1710'> +3.1701317e+02 </wgt>
<wgt id='1711'> +3.1685104e+02 </wgt>
<wgt id='1712'> +3.1644121e+02 </wgt>
<wgt id='1713'> +3.1549924e+02 </wgt>
<wgt id='1714'> +3.1662161e+02 </wgt>
<wgt id='1715'> +3.1752657e+02 </wgt>
<wgt id='1716'> +3.1543863e+02 </wgt>
<wgt id='1717'> +3.1664223e+02 </wgt>
<wgt id='1718'> +3.1630444e+02 </wgt>
<wgt id='1719'> +3.1678202e+02 </wgt>
<wgt id='1720'> +3.1691592e+02 </wgt>
<wgt id='1721'> +3.1707551e+02 </wgt>
<wgt id='1722'> +3.1655647e+02 </wgt>
<wgt id='1723'> +3.1642114e+02 </wgt>
<wgt id='1724'> +3.1720854e+02 </wgt>
<wgt id='1725'> +3.1682282e+02 </wgt>
<wgt id='1726'> +3.1737715e+02 </wgt>
<wgt id='1727'> +3.1606142e+02 </wgt>
<wgt id='1728'> +3.1614786e+02 </wgt>
<wgt id='1729'> +3.1704013e+02 </wgt>
<wgt id='1730'> +3.1651639e+02 </wgt>
<wgt id='1731'> +3.1681843e+02 </wgt>
<wgt id='1732'> +3.1639014e+02 </wgt>
<wgt id='1733'> +3.1609417e+02 </wgt>
<wgt id='1734'> +3.1661824e+02 </wgt>
<wgt id='1735'> +3.1672655e+02 </wgt>
<wgt id='1736'> +3.1649758e+02 </wgt>
<wgt id='1737'> +3.1678317e+02 </wgt>
<wgt id='1738'> +3.1701491e+02 </wgt>
<wgt id='1739'> +3.1654155e+02 </wgt>
<wgt id='1740'> +3.1648097e+02 </wgt>
<wgt id='1741'> +3.1682565e+02 </wgt>
<wgt id='1742'> +3.1653058e+02 </wgt>
<wgt id='1743'> +3.1671358e+02 </wgt>
<wgt id='1744'> +3.1673330e+02 </wgt>
<wgt id='1745'> +3.1700742e+02 </wgt>
<wgt id='1746'> +3.1709735e+02 </wgt>
<wgt id='1747'> +3.1683060e+02 </wgt>
<wgt id='1748'> +3.1686869e+02 </wgt>
<wgt id='1749'> +3.1694283e+02 </wgt>
<wgt id='1750'> +3.1666012e+02 </wgt>
<wgt id='1751'> +3.1637466e+02 </wgt>
<wgt id='1752'> +3.1635322e+02 </wgt>
<wgt id='1753'> +3.1642487e+02 </wgt>
<wgt id='1754'> +3.1671999e+02 </wgt>
<wgt id='1755'> +3.1655588e+02 </wgt>
<wgt id='1756'> +3.1682162e+02 </wgt>
<wgt id='1757'> +3.1637596e+02 </wgt>
<wgt id='1758'> +3.1678737e+02 </wgt>
<wgt id='1759'> +3.1707521e+02 </wgt>
<wgt id='1760'> +3.1648417e+02 </wgt>
<wgt id='1761'> +3.1687152e+02 </wgt>
<wgt id='1762'> +3.1650789e+02 </wgt>
<wgt id='1763'> +3.1681779e+02 </wgt>
<wgt id='1764'> +3.1698693e+02 </wgt>
<wgt id='1765'> +3.1680649e+02 </wgt>
<wgt id='1766'> +3.1714281e+02 </wgt>
<wgt id='1767'> +3.1672848e+02 </wgt>
<wgt id='1768'> +3.1667509e+02 </wgt>
<wgt id='1769'> +3.1671196e+02 </wgt>
<wgt id='1770'> +3.1663788e+02 </wgt>
<wgt id='1771'> +3.1648309e+02 </wgt>
<wgt id='1772'> +3.1663025e+02 </wgt>
<wgt id='1773'> +3.1654527e+02 </wgt>
<wgt id='1774'> +3.1667238e+02 </wgt>
<wgt id='1775'> +3.1668250e+02 </wgt>
<wgt id='1776'> +3.1660060e+02 </wgt>
<wgt id='1777'> +3.1681252e+02 </wgt>
<wgt id='1778'> +3.1682459e+02 </wgt>
<wgt id='1779'> +3.1675481e+02 </wgt>
<wgt id='1780'> +3.1669942e+02 </wgt>
<wgt id='1781'> +3.0003493e+02 </wgt>
<wgt id='1782'> +3.3543989e+02 </wgt>
<wgt id='1783'> +3.1291902e+02 </wgt>
<wgt id='1784'> +3.1530542e+02 </wgt>
<wgt id='1785'> +3.1071941e+02 </wgt>
<wgt id='1786'> +3.1647429e+02 </wgt>
<wgt id='1787'> +3.1573266e+02 </wgt>
<wgt id='1788'> +3.1549087e+02 </wgt>
<wgt id='1789'> +3.1502698e+02 </wgt>
<wgt id='1790'> +3.1212735e+02 </wgt>
<wgt id='1791'> +3.1175477e+02 </wgt>
<wgt id='1792'> +3.1497210e+02 </wgt>
<wgt id='1793'> +3.1562440e+02 </wgt>
<wgt id='1794'> +3.1095031e+02 </wgt>
<wgt id='1795'> +3.1451498e+02 </wgt>
<wgt id='1796'> +3.2061253e+02 </wgt>
<wgt id='1797'> +3.1325183e+02 </wgt>
<wgt id='1798'> +3.0731975e+02 </wgt>
<wgt id='1799'> +3.0854443e+02 </wgt>
<wgt id='1800'> +3.1403255e+02 </wgt>
<wgt id='1801'> +3.1596353e+02 </wgt>
<wgt id='1802'> +3.1587206e+02 </wgt>
<wgt id='1803'> +3.1116760e+02 </wgt>
<wgt id='1804'> +3.0320650e+02 </wgt>
<wgt id='1805'> +3.1445069e+02 </wgt>
<wgt id='1806'> +3.0608219e+02 </wgt>
<wgt id='1807'> +3.1021988e+02 </wgt>
<wgt id='1808'> +3.1233338e+02 </wgt>
<wgt id='1809'> +3.1100138e+02 </wgt>
<wgt id='1810'> +3.1353624e+02 </wgt>
<wgt id='1811'> +3.1391772e+02 </wgt>
<wgt id='1812'> +3.1420897e+02 </wgt>
<wgt id='1813'> +3.1357709e+02 </wgt>
<wgt id='1814'> +3.1196991e+02 </wgt>
<wgt id='1815'> +3.1318099e+02 </wgt>
<wgt id='1816'> +3.1357866e+02 </wgt>
<wgt id='1817'> +3.1356790e+02 </wgt>
<wgt id='1818'> +3.1381492e+02 </wgt>
<wgt id='1819'> +3.1328325e+02 </wgt>
<wgt id='1820'> +3.1350953e+02 </wgt>
<wgt id='1821'> +3.1356719e+02 </wgt>
<wgt id='1822'> +3.1293547e+02 </wgt>
<wgt id='1823'> +3.1214418e+02 </wgt>
<wgt id='1824'> +3.1301137e+02 </wgt>
<wgt id='1825'> +3.1375737e+02 </wgt>
<wgt id='1826'> +3.1223853e+02 </wgt>
<wgt id='1827'> +3.1304011e+02 </wgt>
<wgt id='1828'> +3.1315901e+02 </wgt>
<wgt id='1829'> +3.1236995e+02 </wgt>
<wgt id='1830'> +3.1306280e+02 </wgt>
<wgt id='1831'> +3.1338194e+02 </wgt>
<wgt id='1832'> +3.1266927e+02 </wgt>
<wgt id='1833'> +3.1287146e+02 </wgt>
<wgt id='1834'> +3.1331593e+02 </wgt>
<wgt id='1835'> +3.1352126e+02 </wgt>
<wgt id='1836'> +3.1302336e+02 </wgt>
<wgt id='1837'> +3.1240219e+02 </wgt>
<wgt id='1838'> +3.1260897e+02 </wgt>
<wgt id='1839'> +3.1303895e+02 </wgt>
<wgt id='1840'> +3.1272305e+02 </wgt>
<wgt id='1841'> +3.1261784e+02 </wgt>
<wgt id='1842'> +3.1271183e+02 </wgt>
<wgt id='1843'> +3.1287786e+02 </wgt>
<wgt id='1844'> +3.1278903e+02 </wgt>
<wgt id='1845'> +3.1303359e+02 </wgt>
<wgt id='1846'> +3.1302610e+02 </wgt>
<wgt id='1847'> +3.1314821e+02 </wgt>
<wgt id='1848'> +3.1274978e+02 </wgt>
<wgt id='1849'> +3.1270872e+02 </wgt>
<wgt id='1850'> +3.1279705e+02 </wgt>
<wgt id='1851'> +3.1296005e+02 </wgt>
<wgt id='1852'> +3.1331460e+02 </wgt>
<wgt id='1853'> +3.1285523e+02 </wgt>
<wgt id='1854'> +3.1305350e+02 </wgt>
<wgt id='1855'> +3.1312135e+02 </wgt>
<wgt id='1856'> +3.1284576e+02 </wgt>
<wgt id='1857'> +3.1302553e+02 </wgt>
<wgt id='1858'> +3.1294883e+02 </wgt>
<wgt id='1859'> +3.1288580e+02 </wgt>
<wgt id='1860'> +3.1306212e+02 </wgt>
<wgt id='1861'> +3.1309168e+02 </wgt>
<wgt id='1862'> +3.1274209e+02 </wgt>
<wgt id='1863'> +3.1323388e+02 </wgt>
<wgt id='1864'> +3.1291465e+02 </wgt>
<wgt id='1865'> +3.1296691e+02 </wgt>
<wgt id='1866'> +3.1284730e+02 </wgt>
<wgt id='1867'> +3.1261105e+02 </wgt>
<wgt id='1868'> +3.1260104e+02 </wgt>
<wgt id='1869'> +3.1306092e+02 </wgt>
<wgt id='1870'> +3.1252448e+02 </wgt>
<wgt id='1871'> +3.1271872e+02 </wgt>
<wgt id='1872'> +3.1276795e+02 </wgt>
<wgt id='1873'> +3.1301752e+02 </wgt>
<wgt id='1874'> +3.1282321e+02 </wgt>
<wgt id='1875'> +3.1284618e+02 </wgt>
<wgt id='1876'> +3.1281417e+02 </wgt>
<wgt id='1877'> +3.1281292e+02 </wgt>
<wgt id='1878'> +3.1295393e+02 </wgt>
<wgt id='1879'> +3.1278687e+02 </wgt>
<wgt id='1880'> +3.1295077e+02 </wgt>
<wgt id='1881'> +3.1289345e+02 </wgt>
<wgt id='1882'> +3.1279674e+02 </wgt>
<wgt id='1883'> +3.1293417e+02 </wgt>
<wgt id='1884'> +2.9498361e+02 </wgt>
<wgt id='1885'> +3.3264227e+02 </wgt>
<wgt id='1886'> +3.1667505e+02 </wgt>
<wgt id='1887'> +3.1280401e+02 </wgt>
<wgt id='1888'> +3.1275972e+02 </wgt>
<wgt id='1889'> +3.1561858e+02 </wgt>
<wgt id='1890'> +3.1803641e+02 </wgt>
<wgt id='1891'> +3.1111660e+02 </wgt>
<wgt id='1892'> +3.1054877e+02 </wgt>
<wgt id='1893'> +3.1621614e+02 </wgt>
<wgt id='1894'> +3.1278781e+02 </wgt>
<wgt id='1895'> +3.1471744e+02 </wgt>
<wgt id='1896'> +3.1486554e+02 </wgt>
<wgt id='1897'> +3.1346625e+02 </wgt>
<wgt id='1898'> +3.1333027e+02 </wgt>
<wgt id='1899'> +3.1719651e+02 </wgt>
<wgt id='1900'> +3.1746856e+02 </wgt>
<wgt id='1901'> +3.1869030e+02 </wgt>
<wgt id='1902'> +3.1796949e+02 </wgt>
<wgt id='1903'> +3.1647756e+02 </wgt>
<wgt id='1904'> +3.1805141e+02 </wgt>
<wgt id='1905'> +3.0651631e+02 </wgt>
<wgt id='1906'> +3.1745088e+02 </wgt>
<wgt id='1907'> +3.1610473e+02 </wgt>
<wgt id='1908'> +3.2280815e+02 </wgt>
<wgt id='1909'> +3.1653431e+02 </wgt>
<wgt id='1910'> +3.1647191e+02 </wgt>
<wgt id='1911'> +3.1651615e+02 </wgt>
<wgt id='1912'> +3.1562524e+02 </wgt>
<wgt id='1913'> +3.1613150e+02 </wgt>
<wgt id='1914'> +3.1464564e+02 </wgt>
<wgt id='1915'> +3.1722421e+02 </wgt>
<wgt id='1916'> +3.1675157e+02 </wgt>
<wgt id='1917'> +3.0003493e+02 </wgt>
<wgt id='1918'> +3.3543989e+02 </wgt>
<wgt id='1919'> +3.1289105e+02 </wgt>
<wgt id='1920'> +3.1191064e+02 </wgt>
<wgt id='1921'> +3.0910036e+02 </wgt>
<wgt id='1922'> +3.1373066e+02 </wgt>
<wgt id='1923'> +3.0578882e+02 </wgt>
<wgt id='1924'> +3.2339079e+02 </wgt>
<wgt id='1925'> +3.1319607e+02 </wgt>
<wgt id='1926'> +3.1439874e+02 </wgt>
<wgt id='1927'> +3.1329319e+02 </wgt>
<wgt id='1928'> +3.1419648e+02 </wgt>
<wgt id='1929'> +3.1208535e+02 </wgt>
<wgt id='1930'> +3.1214679e+02 </wgt>
<wgt id='1931'> +3.1115415e+02 </wgt>
<wgt id='1932'> +3.1254114e+02 </wgt>
<wgt id='1933'> +3.1169073e+02 </wgt>
<wgt id='1934'> +3.0898476e+02 </wgt>
<wgt id='1935'> +3.1419208e+02 </wgt>
<wgt id='1936'> +3.1482979e+02 </wgt>
<wgt id='1937'> +3.1308766e+02 </wgt>
<wgt id='1938'> +3.1497278e+02 </wgt>
<wgt id='1939'> +3.1363416e+02 </wgt>
<wgt id='1940'> +3.1442541e+02 </wgt>
<wgt id='1941'> +3.1052953e+02 </wgt>
<wgt id='1942'> +3.1347335e+02 </wgt>
<wgt id='1943'> +3.1006118e+02 </wgt>
<wgt id='1944'> +3.1097344e+02 </wgt>
<wgt id='1945'> +3.1306402e+02 </wgt>
<wgt id='1946'> +3.1566008e+02 </wgt>
<wgt id='1947'> +3.1220846e+02 </wgt>
<wgt id='1948'> +3.0263695e+02 </wgt>
<wgt id='1949'> +3.1273405e+02 </wgt>
<wgt id='1950'> +2.9498361e+02 </wgt>
<wgt id='1951'> +3.3264227e+02 </wgt>
<wgt id='1952'> +2.2131201e+02 </wgt>
<wgt id='1953'> +2.2105985e+02 </wgt>
<wgt id='1954'> +2.2156336e+02 </wgt>
<wgt id='1955'> +2.2158370e+02 </wgt>
<wgt id='1956'> +2.2104001e+02 </wgt>
<wgt id='1957'> +2.2123664e+02 </wgt>
<wgt id='1958'> +2.2138784e+02 </wgt>
<wgt id='1959'> +2.2202193e+02 </wgt>
<wgt id='1960'> +2.2061685e+02 </wgt>
<wgt id='1961'> +2.2102251e+02 </wgt>
<wgt id='1962'> +2.2162562e+02 </wgt>
<wgt id='1963'> +2.2022627e+02 </wgt>
<wgt id='1964'> +2.2245445e+02 </wgt>
<wgt id='1965'> +2.2153299e+02 </wgt>
<wgt id='1966'> +2.2109663e+02 </wgt>
<wgt id='1967'> +2.2293487e+02 </wgt>
<wgt id='1968'> +2.1975350e+02 </wgt>
<wgt id='1969'> +2.2201169e+02 </wgt>
<wgt id='1970'> +2.2064810e+02 </wgt>
<wgt id='1971'> +2.2479594e+02 </wgt>
<wgt id='1972'> +2.1802800e+02 </wgt>
<wgt id='1973'> +2.2159254e+02 </wgt>
<wgt id='1974'> +2.2102596e+02 </wgt>
<wgt id='1975'> +2.1839550e+02 </wgt>
<wgt id='1976'> +2.2450708e+02 </wgt>
<wgt id='1977'> +2.1789604e+02 </wgt>
<wgt id='1978'> +2.2481897e+02 </wgt>
<wgt id='1979'> +2.2590625e+02 </wgt>
<wgt id='1980'> +2.1753572e+02 </wgt>
<wgt id='1981'> +2.2131201e+02 </wgt>
<wgt id='1982'> +2.2266111e+02 </wgt>
<wgt id='1983'> +2.1938288e+02 </wgt>
<wgt id='1984'> +2.2269866e+02 </wgt>
<wgt id='1985'> +2.2003401e+02 </wgt>
<wgt id='1986'> +2.1606351e+02 </wgt>
<wgt id='1987'> +2.3237081e+02 </wgt>
<wgt id='1988'> +2.2188100e+02 </wgt>
<wgt id='1989'> +2.2108485e+02 </wgt>
<wgt id='1990'> +2.2346030e+02 </wgt>
<wgt id='1991'> +2.1938977e+02 </wgt>
<wgt id='1992'> +2.2025266e+02 </wgt>
<wgt id='1993'> +2.2087888e+02 </wgt>
<wgt id='1994'> +2.2772897e+02 </wgt>
<wgt id='1995'> +2.7703166e+02 </wgt>
<wgt id='1996'> +2.7673159e+02 </wgt>
<wgt id='1997'> +2.7725505e+02 </wgt>
<wgt id='1998'> +2.7717215e+02 </wgt>
<wgt id='1999'> +2.7681517e+02 </wgt>
<wgt id='2000'> +2.7721740e+02 </wgt>
<wgt id='2001'> +2.7677058e+02 </wgt>
<wgt id='2002'> +2.7835472e+02 </wgt>
<wgt id='2003'> +2.7566513e+02 </wgt>
<wgt id='2004'> +2.7578211e+02 </wgt>
<wgt id='2005'> +2.7824454e+02 </wgt>
<wgt id='2006'> +2.7801486e+02 </wgt>
<wgt id='2007'> +2.7601120e+02 </wgt>
<wgt id='2008'> +2.7700914e+02 </wgt>
<wgt id='2009'> +2.7697900e+02 </wgt>
<wgt id='2010'> +2.7830012e+02 </wgt>
<wgt id='2011'> +2.7553878e+02 </wgt>
<wgt id='2012'> +2.7557086e+02 </wgt>
<wgt id='2013'> +2.7846629e+02 </wgt>
<wgt id='2014'> +2.8011040e+02 </wgt>
<wgt id='2015'> +2.7399016e+02 </wgt>
<wgt id='2016'> +2.8459193e+02 </wgt>
<wgt id='2017'> +2.6988166e+02 </wgt>
<wgt id='2018'> +2.7055009e+02 </wgt>
<wgt id='2019'> +2.8355845e+02 </wgt>
<wgt id='2020'> +2.6966941e+02 </wgt>
<wgt id='2021'> +2.8408722e+02 </wgt>
<wgt id='2022'> +2.7377818e+02 </wgt>
<wgt id='2023'> +2.8062820e+02 </wgt>
<wgt id='2024'> +2.7697048e+02 </wgt>
<wgt id='2025'> +2.7809188e+02 </wgt>
<wgt id='2026'> +2.7332671e+02 </wgt>
<wgt id='2027'> +2.7836265e+02 </wgt>
<wgt id='2028'> +2.7647835e+02 </wgt>
<wgt id='2029'> +2.5864338e+02 </wgt>
<wgt id='2030'> +2.8990245e+02 </wgt>
<wgt id='2031'> +2.7745983e+02 </wgt>
<wgt id='2032'> +2.7664640e+02 </wgt>
<wgt id='2033'> +2.8144912e+02 </wgt>
<wgt id='2034'> +2.5650366e+02 </wgt>
<wgt id='2035'> +2.8043698e+02 </wgt>
<wgt id='2036'> +2.7278440e+02 </wgt>
<wgt id='2037'> +2.8820114e+02 </wgt>
<wgt id='2038'> +3.2591811e+02 </wgt>
<wgt id='2039'> +3.2588380e+02 </wgt>
<wgt id='2040'> +3.2584952e+02 </wgt>
<wgt id='2041'> +3.2581516e+02 </wgt>
<wgt id='2042'> +3.2578054e+02 </wgt>
<wgt id='2043'> +3.2574616e+02 </wgt>
<wgt id='2044'> +3.2571187e+02 </wgt>
<wgt id='2045'> +3.2567752e+02 </wgt>
<wgt id='2046'> +3.2564320e+02 </wgt>
<wgt id='2047'> +3.2560870e+02 </wgt>
<wgt id='2048'> +3.2557449e+02 </wgt>
<wgt id='2049'> +3.2553996e+02 </wgt>
<wgt id='2050'> +3.2550561e+02 </wgt>
<wgt id='2051'> +3.2547137e+02 </wgt>
<wgt id='2052'> +3.2543734e+02 </wgt>
<wgt id='2053'> +3.2540267e+02 </wgt>
<wgt id='2054'> +3.2536815e+02 </wgt>
<wgt id='2055'> +3.2533370e+02 </wgt>
<wgt id='2056'> +3.2529940e+02 </wgt>
<wgt id='2057'> +3.2526579e+02 </wgt>
<wgt id='2058'> +3.2523069e+02 </wgt>
<wgt id='2059'> +3.2519627e+02 </wgt>
<wgt id='2060'> +3.2516217e+02 </wgt>
<wgt id='2061'> +3.2512780e+02 </wgt>
<wgt id='2062'> +3.2509398e+02 </wgt>
<wgt id='2063'> +3.2505908e+02 </wgt>
<wgt id='2064'> +3.2502441e+02 </wgt>
<wgt id='2065'> +3.2499043e+02 </wgt>
<wgt id='2066'> +3.2495598e+02 </wgt>
<wgt id='2067'> +3.2492209e+02 </wgt>
<wgt id='2068'> +3.2488731e+02 </wgt>
<wgt id='2069'> +3.0910994e+02 </wgt>
<wgt id='2070'> +3.1147056e+02 </wgt>
<wgt id='2071'> +3.0693606e+02 </wgt>
<wgt id='2072'> +3.1262423e+02 </wgt>
<wgt id='2073'> +3.1189277e+02 </wgt>
<wgt id='2074'> +3.1165954e+02 </wgt>
<wgt id='2075'> +3.1119070e+02 </wgt>
<wgt id='2076'> +3.0831948e+02 </wgt>
<wgt id='2077'> +3.0795726e+02 </wgt>
<wgt id='2078'> +3.1114055e+02 </wgt>
<wgt id='2079'> +3.1178296e+02 </wgt>
<wgt id='2080'> +3.0716832e+02 </wgt>
<wgt id='2081'> +3.1068450e+02 </wgt>
<wgt id='2082'> +3.1670448e+02 </wgt>
<wgt id='2083'> +3.0943011e+02 </wgt>
<wgt id='2084'> +3.0357201e+02 </wgt>
<wgt id='2085'> +3.0479683e+02 </wgt>
<wgt id='2086'> +3.1020500e+02 </wgt>
<wgt id='2087'> +3.1212066e+02 </wgt>
<wgt id='2088'> +3.1202822e+02 </wgt>
<wgt id='2089'> +3.0738553e+02 </wgt>
<wgt id='2090'> +2.9950865e+02 </wgt>
<wgt id='2091'> +3.1063502e+02 </wgt>
<wgt id='2092'> +3.0233583e+02 </wgt>
<wgt id='2093'> +3.0643475e+02 </wgt>
<wgt id='2094'> +3.0854766e+02 </wgt>
<wgt id='2095'> +3.0721620e+02 </wgt>
<wgt id='2096'> +3.0971293e+02 </wgt>
<wgt id='2097'> +3.1010144e+02 </wgt>
<wgt id='2098'> +3.1038368e+02 </wgt>
<wgt id='2099'> +3.0976010e+02 </wgt>
<wgt id='2100'> +3.0816917e+02 </wgt>
<wgt id='2101'> +3.0937258e+02 </wgt>
<wgt id='2102'> +3.0976699e+02 </wgt>
<wgt id='2103'> +3.0974937e+02 </wgt>
<wgt id='2104'> +3.0999788e+02 </wgt>
<wgt id='2105'> +3.0946780e+02 </wgt>
<wgt id='2106'> +3.0969569e+02 </wgt>
<wgt id='2107'> +3.0975293e+02 </wgt>
<wgt id='2108'> +3.0912689e+02 </wgt>
<wgt id='2109'> +3.0834154e+02 </wgt>
<wgt id='2110'> +3.0919675e+02 </wgt>
<wgt id='2111'> +3.0993784e+02 </wgt>
<wgt id='2112'> +3.0843539e+02 </wgt>
<wgt id='2113'> +3.0923327e+02 </wgt>
<wgt id='2114'> +3.0934419e+02 </wgt>
<wgt id='2115'> +3.0856296e+02 </wgt>
<wgt id='2116'> +3.0925018e+02 </wgt>
<wgt id='2117'> +3.0956420e+02 </wgt>
<wgt id='2118'> +3.0886105e+02 </wgt>
<wgt id='2119'> +3.0906447e+02 </wgt>
<wgt id='2120'> +3.0950298e+02 </wgt>
<wgt id='2121'> +3.0970436e+02 </wgt>
<wgt id='2122'> +3.0921719e+02 </wgt>
<wgt id='2123'> +3.0860161e+02 </wgt>
<wgt id='2124'> +3.0880581e+02 </wgt>
<wgt id='2125'> +3.0923095e+02 </wgt>
<wgt id='2126'> +3.0891910e+02 </wgt>
<wgt id='2127'> +3.0881079e+02 </wgt>
<wgt id='2128'> +3.0890414e+02 </wgt>
<wgt id='2129'> +3.0907138e+02 </wgt>
<wgt id='2130'> +3.0898168e+02 </wgt>
<wgt id='2131'> +3.0922327e+02 </wgt>
<wgt id='2132'> +3.0921841e+02 </wgt>
<wgt id='2133'> +3.0933060e+02 </wgt>
<wgt id='2134'> +3.0894264e+02 </wgt>
<wgt id='2135'> +3.0890489e+02 </wgt>
<wgt id='2136'> +3.0899057e+02 </wgt>
<wgt id='2137'> +3.0914692e+02 </wgt>
<wgt id='2138'> +3.0950198e+02 </wgt>
<wgt id='2139'> +3.0904495e+02 </wgt>
<wgt id='2140'> +3.0924562e+02 </wgt>
<wgt id='2141'> +3.0931192e+02 </wgt>
<wgt id='2142'> +3.0903529e+02 </wgt>
<wgt id='2143'> +3.0921838e+02 </wgt>
<wgt id='2144'> +3.0914234e+02 </wgt>
<wgt id='2145'> +3.0907868e+02 </wgt>
<wgt id='2146'> +3.0925110e+02 </wgt>
<wgt id='2147'> +3.0928473e+02 </wgt>
<wgt id='2148'> +3.0893256e+02 </wgt>
<wgt id='2149'> +3.0942176e+02 </wgt>
<wgt id='2150'> +3.0910535e+02 </wgt>
<wgt id='2151'> +3.0915761e+02 </wgt>
<wgt id='2152'> +3.0903862e+02 </wgt>
<wgt id='2153'> +3.0880782e+02 </wgt>
<wgt id='2154'> +3.0879530e+02 </wgt>
<wgt id='2155'> +3.0924919e+02 </wgt>
<wgt id='2156'> +3.0871826e+02 </wgt>
<wgt id='2157'> +3.0891330e+02 </wgt>
<wgt id='2158'> +3.0896079e+02 </wgt>
<wgt id='2159'> +3.0920776e+02 </wgt>
<wgt id='2160'> +3.0901507e+02 </wgt>
<wgt id='2161'> +3.0903841e+02 </wgt>
<wgt id='2162'> +3.0900426e+02 </wgt>
<wgt id='2163'> +3.0900324e+02 </wgt>
<wgt id='2164'> +3.0914354e+02 </wgt>
<wgt id='2165'> +3.0898179e+02 </wgt>
<wgt id='2166'> +3.0914362e+02 </wgt>
<wgt id='2167'> +3.0908430e+02 </wgt>
<wgt id='2168'> +3.0898976e+02 </wgt>
<wgt id='2169'> +3.0912197e+02 </wgt>
<wgt id='2170'> +3.0910613e+02 </wgt>
<wgt id='2171'> +3.0908494e+02 </wgt>
<wgt id='2172'> +3.0911390e+02 </wgt>
<wgt id='2173'> +3.0911454e+02 </wgt>
<wgt id='2174'> +3.0912150e+02 </wgt>
<wgt id='2175'> +3.0911161e+02 </wgt>
<wgt id='2176'> +3.0909327e+02 </wgt>
<wgt id='2177'> +3.1360890e+02 </wgt>
<wgt id='2178'> +2.9633033e+02 </wgt>
<wgt id='2179'> +3.2102162e+02 </wgt>
<wgt id='2180'> +2.9364309e+02 </wgt>
<wgt id='2181'> +3.0184348e+02 </wgt>
<wgt id='2182'> +2.9735402e+02 </wgt>
<wgt id='2183'> +3.2135989e+02 </wgt>
<wgt id='2184'> +3.1580522e+02 </wgt>
<wgt id='2185'> +3.1947240e+02 </wgt>
<wgt id='2186'> +3.0434901e+02 </wgt>
<wgt id='2187'> +2.9826364e+02 </wgt>
<wgt id='2188'> +3.3290685e+02 </wgt>
<wgt id='2189'> +3.1527925e+02 </wgt>
<wgt id='2190'> +3.3420152e+02 </wgt>
<wgt id='2191'> +3.3548978e+02 </wgt>
<wgt id='2192'> +3.3208957e+02 </wgt>
<wgt id='2193'> +3.1170726e+02 </wgt>
<wgt id='2194'> +3.3826813e+02 </wgt>
<wgt id='2195'> +3.1800516e+02 </wgt>
<wgt id='2196'> +3.1024417e+02 </wgt>
<wgt id='2197'> +3.0102701e+02 </wgt>
<wgt id='2198'> +3.1552186e+02 </wgt>
<wgt id='2199'> +2.9874711e+02 </wgt>
<wgt id='2200'> +3.0352890e+02 </wgt>
<wgt id='2201'> +2.7821966e+02 </wgt>
<wgt id='2202'> +3.1571553e+02 </wgt>
<wgt id='2203'> +3.0546741e+02 </wgt>
<wgt id='2204'> +3.4332422e+02 </wgt>
<wgt id='2205'> +3.3158593e+02 </wgt>
<wgt id='2206'> +3.1683012e+02 </wgt>
<wgt id='2207'> +3.0280463e+02 </wgt>
<wgt id='2208'> +3.0560829e+02 </wgt>
<wgt id='2209'> +3.1616982e+02 </wgt>
<wgt id='2210'> +3.1217812e+02 </wgt>
<wgt id='2211'> +2.9975187e+02 </wgt>
<wgt id='2212'> +3.2735481e+02 </wgt>
<wgt id='2213'> +3.1217214e+02 </wgt>
<wgt id='2214'> +3.3709860e+02 </wgt>
<wgt id='2215'> +3.1055370e+02 </wgt>
<wgt id='2216'> +3.0564159e+02 </wgt>
<wgt id='2217'> +3.0644096e+02 </wgt>
<wgt id='2218'> +3.0448773e+02 </wgt>
<wgt id='2219'> +3.1792396e+02 </wgt>
<wgt id='2220'> +2.9180516e+02 </wgt>
<wgt id='2221'> +2.9132654e+02 </wgt>
<wgt id='2222'> +2.9843665e+02 </wgt>
<wgt id='2223'> +2.9244164e+02 </wgt>
<wgt id='2224'> +3.1969940e+02 </wgt>
<wgt id='2225'> +3.1627543e+02 </wgt>
<wgt id='2226'> +3.2400147e+02 </wgt>
<wgt id='2227'> +3.1558240e+02 </wgt>
<wgt id='2228'> +3.0505935e+02 </wgt>
<wgt id='2229'> +3.0215464e+02 </wgt>
<wgt id='2230'> +2.9859897e+02 </wgt>
<wgt id='2231'> +3.2571701e+02 </wgt>
<wgt id='2232'> +3.1023842e+02 </wgt>
<wgt id='2233'> +3.2493342e+02 </wgt>
<wgt id='2234'> +3.2097256e+02 </wgt>
<wgt id='2235'> +3.1603313e+02 </wgt>
<wgt id='2236'> +3.1620561e+02 </wgt>
<wgt id='2237'> +3.0952390e+02 </wgt>
<wgt id='2238'> +3.2143146e+02 </wgt>
<wgt id='2239'> +2.9882143e+02 </wgt>
<wgt id='2240'> +3.1720642e+02 </wgt>
<wgt id='2241'> +3.2943291e+02 </wgt>
<wgt id='2242'> +2.9760953e+02 </wgt>
<wgt id='2243'> +3.1347468e+02 </wgt>
<wgt id='2244'> +3.0693328e+02 </wgt>
<wgt id='2245'> +3.1836208e+02 </wgt>
<wgt id='2246'> +3.2029397e+02 </wgt>
<wgt id='2247'> +3.2417714e+02 </wgt>
<wgt id='2248'> +2.9512531e+02 </wgt>
<wgt id='2249'> +3.1306146e+02 </wgt>
<wgt id='2250'> +3.1644446e+02 </wgt>
<wgt id='2251'> +3.2077723e+02 </wgt>
<wgt id='2252'> +3.1624610e+02 </wgt>
<wgt id='2253'> +2.9175284e+02 </wgt>
<wgt id='2254'> +3.0971996e+02 </wgt>
<wgt id='2255'> +3.3164202e+02 </wgt>
<wgt id='2256'> +3.1157468e+02 </wgt>
<wgt id='2257'> +3.1964241e+02 </wgt>
<wgt id='2258'> +3.0877806e+02 </wgt>
<wgt id='2259'> +3.1254421e+02 </wgt>
<wgt id='2260'> +3.1923426e+02 </wgt>
<wgt id='2261'> +3.1672423e+02 </wgt>
<wgt id='2262'> +3.1355143e+02 </wgt>
<wgt id='2263'> +3.2094821e+02 </wgt>
<wgt id='2264'> +3.1734057e+02 </wgt>
<wgt id='2265'> +3.2248565e+02 </wgt>
<wgt id='2266'> +3.2014517e+02 </wgt>
<wgt id='2267'> +3.1172444e+02 </wgt>
<wgt id='2268'> +3.1183831e+02 </wgt>
<wgt id='2269'> +3.0145700e+02 </wgt>
<wgt id='2270'> +3.2480380e+02 </wgt>
<wgt id='2271'> +3.1603349e+02 </wgt>
<wgt id='2272'> +3.4715210e+02 </wgt>
<wgt id='2273'> +3.1078091e+02 </wgt>
<wgt id='2274'> +3.0620054e+02 </wgt>
<wgt id='2275'> +2.9953462e+02 </wgt>
<wgt id='2276'> +3.2754902e+02 </wgt>
<wgt id='2277'> +3.2949957e+02 </wgt>
<wgt id='2278'> +2.9990158e+02 </wgt>
<wgt id='2279'> +3.2438253e+02 </wgt>
<wgt id='2280'> +3.0164656e+02 </wgt>
<wgt id='2281'> +3.1604790e+02 </wgt>
<wgt id='2282'> +4.6867375e+02 </wgt>
<wgt id='2283'> +3.4285213e+02 </wgt>
<wgt id='2284'> +4.6136209e+02 </wgt>
</rwgt>
</event>
<event npLO=" -1 " npNLO=" 2 ">
 5      2 -2.8781417e+02 1.34826630e+01 7.54677110e-03 1.26271790e-01
       21 -1    0    0  503  502 +0.0000000000e+00 +0.0000000000e+00 +2.6290008000e+01 2.6290008000e+01 0.0000000000e+00 0.0000e+00 9.0000e+00
        2 -1    0    0  502    0 +0.0000000000e+00 +0.0000000000e+00 -6.6946403000e+02 6.6946403000e+02 0.0000000000e+00 0.0000e+00 9.0000e+00
       25  1    1    2    0    0 +2.8647419000e+01 +5.4449163000e+01 -3.1162563000e+02 3.3301038000e+02 1.0000000000e+02 0.0000e+00 9.0000e+00
        2  1    1    2  501    0 +1.0795744000e+01 -8.0767639000e+00 -2.8697614000e+02 2.8729268000e+02 0.0000000000e+00 0.0000e+00 9.0000e+00
       21  1    1    2  503  501 -3.9443164000e+01 -4.6372399000e+01 -4.4572256000e+01 7.5450968000e+01 0.0000000000e+00 0.0000e+00 9.0000e+00
#aMCatNLO 1  0  0  1  4 0.10546172E+02 0.00000000E+00 -9  6  0 0.00000000E+00 0.00000000E+00 0.00000000E+00 0.00000000E+00 0.00000000E+00
<rwgt>
<wgt id='1001'> -2.8781417e+02 </wgt>
<wgt id='1002'> -1.6878982e+02 </wgt>
<wgt id='1003'> -5.2506154e+02 </wgt>
<wgt id='1004'> -2.7837239e+02 </wgt>
<wgt id='1005'> -1.6324783e+02 </wgt>
<wgt id='1006'> -5.0785190e+02 </wgt>
<wgt id='1007'> -2.9554301e+02 </wgt>
<wgt id='1008'> -1.7332818e+02 </wgt>
<wgt id='1009'> -5.3914350e+02 </wgt>
<wgt id='1010'> -2.8781417e+02 </wgt>
<wgt id='1011'> -2.8833847e+02 </wgt>
<wgt id='1012'> -2.8737401e+02 </wgt>
<wgt id='1013'> -2.8760307e+02 </wgt>
<wgt id='1014'> -2.8786443e+02 </wgt>
<wgt id='1015'> -2.8895564e+02 </wgt>
<wgt id='1016'> -2.8765036e+02 </wgt>
<wgt id='1017'> -2.8817045e+02 </wgt>
<wgt id='1018'> -2.8828117e+02 </wgt>
<wgt id='1019'> -2.8825618e+02 </wgt>
<wgt id='1020'> -2.8756691e+02 </wgt>
<wgt id='1021'> -2.8696537e+02 </wgt>
<wgt id='1022'> -2.8779278e+02 </wgt>
<wgt id='1023'> -2.8778843e+02 </wgt>
<wgt id='1024'> -2.8853683e+02 </wgt>
<wgt id='1025'> -2.8806362e+02 </wgt>
<wgt id='1026'> -2.8778543e+02 </wgt>
<wgt id='1027'> -2.8783819e+02 </wgt>
<wgt id='1028'> -2.8768934e+02 </wgt>
<wgt id='1029'> -2.8893413e+02 </wgt>
<wgt id='1030'> -2.8683246e+02 </wgt>
<wgt id='1031'> -2.8794538e+02 </wgt>
<wgt id='1032'> -2.8802932e+02 </wgt>
<wgt id='1033'> -2.8771185e+02 </wgt>
<wgt id='1034'> -2.8830970e+02 </wgt>
<wgt id='1035'> -2.8789854e+02 </wgt>
<wgt id='1036'> -2.8743222e+02 </wgt>
<wgt id='1037'> -2.8754781e+02 </wgt>
<wgt id='1038'> -2.8835465e+02 </wgt>
<wgt id='1039'> -2.8873070e+02 </wgt>
<wgt id='1040'> -2.8762192e+02 </wgt>
<wgt id='1041'> -2.8908846e+02 </wgt>
<wgt id='1042'> -2.8773731e+02 </wgt>
<wgt id='1043'> -2.8827899e+02 </wgt>
<wgt id='1044'> -2.8832024e+02 </wgt>
<wgt id='1045'> -2.8770652e+02 </wgt>
<wgt id='1046'> -2.8728976e+02 </wgt>
<wgt id='1047'> -2.8817995e+02 </wgt>
<wgt id='1048'> -2.8781313e+02 </wgt>
<wgt id='1049'> -2.8777532e+02 </wgt>
<wgt id='1050'> -2.8859895e+02 </wgt>
<wgt id='1051'> -2.8897975e+02 </wgt>
<wgt id='1052'> -2.8820671e+02 </wgt>
<wgt id='1053'> -2.8747818e+02 </wgt>
<wgt id='1054'> -2.8759790e+02 </wgt>
<wgt id='1055'> -2.8772843e+02 </wgt>
<wgt id='1056'> -2.8771887e+02 </wgt>
<wgt id='1057'> -2.8734901e+02 </wgt>
<wgt id='1058'> -2.8700931e+02 </wgt>
<wgt id='1059'> -2.8823056e+02 </wgt>
<wgt id='1060'> -2.8742896e+02 </wgt>
<wgt id='1061'> -2.8772512e+02 </wgt>
<wgt id='1062'> -2.8819740e+02 </wgt>
<wgt id='1063'> -2.8792894e+02 </wgt>
<wgt id='1064'> -2.8816688e+02 </wgt>
<wgt id='1065'> -2.8800007e+02 </wgt>
<wgt id='1066'> -2.8801327e+02 </wgt>
<wgt id='1067'> -2.8830836e+02 </wgt>
<wgt id='1068'> -2.8792990e+02 </wgt>
<wgt id='1069'> -2.8808997e+02 </wgt>
<wgt id='1070'> -2.8770364e+02 </wgt>
<wgt id='1071'> -2.8797973e+02 </wgt>
<wgt id='1072'> -2.8784044e+02 </wgt>
<wgt id='1073'> -2.8752770e+02 </wgt>
<wgt id='1074'> -2.8763986e+02 </wgt>
<wgt id='1075'> -2.8796834e+02 </wgt>
<wgt id='1076'> -2.8795780e+02 </wgt>
<wgt id='1077'> -2.8784290e+02 </wgt>
<wgt id='1078'> -2.8769774e+02 </wgt>
<wgt id='1079'> -2.8800332e+02 </wgt>
<wgt id='1080'> -2.8773590e+02 </wgt>
<wgt id='1081'> -2.8773039e+02 </wgt>
<wgt id='1082'> -2.8798777e+02 </wgt>
<wgt id='1083'> -2.8740569e+02 </wgt>
<wgt id='1084'> -2.8782624e+02 </wgt>
<wgt id='1085'> -2.8760087e+02 </wgt>
<wgt id='1086'> -2.8787398e+02 </wgt>
<wgt id='1087'> -2.8823006e+02 </wgt>
<wgt id='1088'> -2.8794179e+02 </wgt>
<wgt id='1089'> -2.8773260e+02 </wgt>
<wgt id='1090'> -2.8797633e+02 </wgt>
<wgt id='1091'> -2.8754953e+02 </wgt>
<wgt id='1092'> -2.8778075e+02 </wgt>
<wgt id='1093'> -2.8776754e+02 </wgt>
<wgt id='1094'> -2.8797696e+02 </wgt>
<wgt id='1095'> -2.8790448e+02 </wgt>
<wgt id='1096'> -2.8777801e+02 </wgt>
<wgt id='1097'> -2.8762774e+02 </wgt>
<wgt id='1098'> -2.8775400e+02 </wgt>
<wgt id='1099'> -2.8788017e+02 </wgt>
<wgt id='1100'> -2.8775293e+02 </wgt>
<wgt id='1101'> -2.8780333e+02 </wgt>
<wgt id='1102'> -2.8795643e+02 </wgt>
<wgt id='1103'> -2.8791263e+02 </wgt>
<wgt id='1104'> -2.8773516e+02 </wgt>
<wgt id='1105'> -2.8784583e+02 </wgt>
<wgt id='1106'> -2.8771273e+02 </wgt>
<wgt id='1107'> -2.8784533e+02 </wgt>
<wgt id='1108'> -2.8785123e+02 </wgt>
<wgt id='1109'> -2.8785498e+02 </wgt>
<wgt id='1110'> -2.8781415e+02 </wgt>
<wgt id='1111'> -2.6160376e+02 </wgt>
<wgt id='1112'> -3.1530298e+02 </wgt>
<wgt id='1113'> -2.8781415e+02 </wgt>
<wgt id='1114'> -2.8719672e+02 </wgt>
<wgt id='1115'> -2.9234272e+02 </wgt>
<wgt id='1116'> -2.9120499e+02 </wgt>
<wgt id='1117'> -2.8236763e+02 </wgt>
<wgt id='1118'> -2.8466746e+02 </wgt>
<wgt id='1119'> -2.8812371e+02 </wgt>
<wgt id='1120'> -2.9219986e+02 </wgt>
<wgt id='1121'> -2.8907346e+02 </wgt>
<wgt id='1122'> -2.9106508e+02 </wgt>
<wgt id='1123'> -2.7993033e+02 </wgt>
<wgt id='1124'> -2.8814360e+02 </wgt>
<wgt id='1125'> -2.8666167e+02 </wgt>
<wgt id='1126'> -2.8563762e+02 </wgt>
<wgt id='1127'> -2.8985177e+02 </wgt>
<wgt id='1128'> -2.9242759e+02 </wgt>
<wgt id='1129'> -2.8973700e+02 </wgt>
<wgt id='1130'> -2.8989772e+02 </wgt>
<wgt id='1131'> -2.8700883e+02 </wgt>
<wgt id='1132'> -2.9020905e+02 </wgt>
<wgt id='1133'> -2.8588180e+02 </wgt>
<wgt id='1134'> -2.8488200e+02 </wgt>
<wgt id='1135'> -2.8596437e+02 </wgt>
<wgt id='1136'> -2.8946858e+02 </wgt>
<wgt id='1137'> -2.8328720e+02 </wgt>
<wgt id='1138'> -2.9098671e+02 </wgt>
<wgt id='1139'> -2.9328017e+02 </wgt>
<wgt id='1140'> -2.7933374e+02 </wgt>
<wgt id='1141'> -2.9278551e+02 </wgt>
<wgt id='1142'> -2.9126699e+02 </wgt>
<wgt id='1143'> -2.9295772e+02 </wgt>
<wgt id='1144'> -2.9062813e+02 </wgt>
<wgt id='1145'> -2.8667666e+02 </wgt>
<wgt id='1146'> -2.8846592e+02 </wgt>
<wgt id='1147'> -2.8337020e+02 </wgt>
<wgt id='1148'> -2.8409038e+02 </wgt>
<wgt id='1149'> -2.8864753e+02 </wgt>
<wgt id='1150'> -2.8912644e+02 </wgt>
<wgt id='1151'> -2.8595305e+02 </wgt>
<wgt id='1152'> -2.9161143e+02 </wgt>
<wgt id='1153'> -2.8809202e+02 </wgt>
<wgt id='1154'> -2.8981007e+02 </wgt>
<wgt id='1155'> -2.8522167e+02 </wgt>
<wgt id='1156'> -2.8422227e+02 </wgt>
<wgt id='1157'> -2.8661783e+02 </wgt>
<wgt id='1158'> -2.8931786e+02 </wgt>
<wgt id='1159'> -2.8728176e+02 </wgt>
<wgt id='1160'> -2.8758286e+02 </wgt>
<wgt id='1161'> -2.8760799e+02 </wgt>
<wgt id='1162'> -2.9490727e+02 </wgt>
<wgt id='1163'> -2.8777949e+02 </wgt>
<wgt id='1164'> -2.8775808e+02 </wgt>
<wgt id='1165'> -2.8733173e+02 </wgt>
<wgt id='1166'> -2.8845066e+02 </wgt>
<wgt id='1167'> -2.8838650e+02 </wgt>
<wgt id='1168'> -2.8982215e+02 </wgt>
<wgt id='1169'> -2.8648844e+02 </wgt>
<wgt id='1170'> -2.9038583e+02 </wgt>
<wgt id='1171'> -2.8826012e+02 </wgt>
<wgt id='1172'> -2.9329431e+02 </wgt>
<wgt id='1173'> -2.9330090e+02 </wgt>
<wgt id='1174'> -2.8455093e+02 </wgt>
<wgt id='1175'> -2.8710204e+02 </wgt>
<wgt id='1176'> -2.8175415e+02 </wgt>
<wgt id='1177'> -2.8842792e+02 </wgt>
<wgt id='1178'> -2.8877184e+02 </wgt>
<wgt id='1179'> -2.9620499e+02 </wgt>
<wgt id='1180'> -2.8616840e+02 </wgt>
<wgt id='1181'> -2.9143364e+02 </wgt>
<wgt id='1182'> -2.8990846e+02 </wgt>
<wgt id='1183'> -2.8212282e+02 </wgt>
<wgt id='1184'> -2.9023031e+02 </wgt>
<wgt id='1185'> -2.9362886e+02 </wgt>
<wgt id='1186'> -2.8484078e+02 </wgt>
<wgt id='1187'> -2.8762728e+02 </wgt>
<wgt id='1188'> -2.8914572e+02 </wgt>
<wgt id='1189'> -2.9414430e+02 </wgt>
<wgt id='1190'> -2.7999522e+02 </wgt>
<wgt id='1191'> -2.9480414e+02 </wgt>
<wgt id='1192'> -2.8765968e+02 </wgt>
<wgt id='1193'> -2.8265169e+02 </wgt>
<wgt id='1194'> -2.8039746e+02 </wgt>
<wgt id='1195'> -2.8973700e+02 </wgt>
<wgt id='1196'> -2.7721559e+02 </wgt>
<wgt id='1197'> -2.8646909e+02 </wgt>
<wgt id='1198'> -2.9389601e+02 </wgt>
<wgt id='1199'> -2.8324381e+02 </wgt>
<wgt id='1200'> -2.8859677e+02 </wgt>
<wgt id='1201'> -2.8141991e+02 </wgt>
<wgt id='1202'> -2.7799174e+02 </wgt>
<wgt id='1203'> -2.8768668e+02 </wgt>
<wgt id='1204'> -2.9011380e+02 </wgt>
<wgt id='1205'> -2.8909158e+02 </wgt>
<wgt id='1206'> -2.8563611e+02 </wgt>
<wgt id='1207'> -2.8712233e+02 </wgt>
<wgt id='1208'> -2.8347454e+02 </wgt>
<wgt id='1209'> -2.9106218e+02 </wgt>
<wgt id='1210'> -2.7997491e+02 </wgt>
<wgt id='1211'> -2.9007099e+02 </wgt>
<wgt id='1212'> -2.8985098e+02 </wgt>
<wgt id='1213'> -2.8821544e+02 </wgt>
<wgt id='1214'> -2.8795584e+02 </wgt>
<wgt id='1215'> -2.8785920e+02 </wgt>
<wgt id='1216'> -2.8817819e+02 </wgt>
<wgt id='1217'> -2.8823912e+02 </wgt>
<wgt id='1218'> -2.8800663e+02 </wgt>
<wgt id='1219'> -2.8783292e+02 </wgt>
<wgt id='1220'> -2.8806737e+02 </wgt>
<wgt id='1221'> -2.8705754e+02 </wgt>
<wgt id='1222'> -2.8728928e+02 </wgt>
<wgt id='1223'> -2.8836401e+02 </wgt>
<wgt id='1224'> -2.8828652e+02 </wgt>
<wgt id='1225'> -2.8769437e+02 </wgt>
<wgt id='1226'> -2.8796647e+02 </wgt>
<wgt id='1227'> -2.8836661e+02 </wgt>
<wgt id='1228'> -2.8927455e+02 </wgt>
<wgt id='1229'> -2.8798079e+02 </wgt>
<wgt id='1230'> -2.8818926e+02 </wgt>
<wgt id='1231'> -2.8813937e+02 </wgt>
<wgt id='1232'> -2.8837584e+02 </wgt>
<wgt id='1233'> -2.8809056e+02 </wgt>
<wgt id='1234'> -2.8894171e+02 </wgt>
<wgt id='1235'> -2.8774061e+02 </wgt>
<wgt id='1236'> -2.8903830e+02 </wgt>
<wgt id='1237'> -2.8740238e+02 </wgt>
<wgt id='1238'> -2.8810117e+02 </wgt>
<wgt id='1239'> -2.8888396e+02 </wgt>
<wgt id='1240'> -2.8753275e+02 </wgt>
<wgt id='1241'> -2.8843022e+02 </wgt>
<wgt id='1242'> -2.8813769e+02 </wgt>
<wgt id='1243'> -2.8539590e+02 </wgt>
<wgt id='1244'> -2.8795248e+02 </wgt>
<wgt id='1245'> -2.8804079e+02 </wgt>
<wgt id='1246'> -2.8729616e+02 </wgt>
<wgt id='1247'> -2.8752787e+02 </wgt>
<wgt id='1248'> -2.8823517e+02 </wgt>
<wgt id='1249'> -2.8763630e+02 </wgt>
<wgt id='1250'> -2.8770889e+02 </wgt>
<wgt id='1251'> -2.8797065e+02 </wgt>
<wgt id='1252'> -2.8771378e+02 </wgt>
<wgt id='1253'> -2.8822605e+02 </wgt>
<wgt id='1254'> -2.8779697e+02 </wgt>
<wgt id='1255'> -2.8795263e+02 </wgt>
<wgt id='1256'> -2.8792562e+02 </wgt>
<wgt id='1257'> -2.8848862e+02 </wgt>
<wgt id='1258'> -2.8798810e+02 </wgt>
<wgt id='1259'> -2.8773622e+02 </wgt>
<wgt id='1260'> -2.8846850e+02 </wgt>
<wgt id='1261'> -2.8882895e+02 </wgt>
<wgt id='1262'> -2.8802141e+02 </wgt>
<wgt id='1263'> -2.8797739e+02 </wgt>
<wgt id='1264'> -2.8756168e+02 </wgt>
<wgt id='1265'> -2.8788967e+02 </wgt>
<wgt id='1266'> -2.8783552e+02 </wgt>
<wgt id='1267'> -2.8778220e+02 </wgt>
<wgt id='1268'> -2.8786396e+02 </wgt>
<wgt id='1269'> -2.8773392e+02 </wgt>
<wgt id='1270'> -2.8802461e+02 </wgt>
<wgt id='1271'> -2.8792039e+02 </wgt>
<wgt id='1272'> -2.8802427e+02 </wgt>
<wgt id='1273'> -2.8778899e+02 </wgt>
<wgt id='1274'> -2.8864464e+02 </wgt>
<wgt id='1275'> -2.8805653e+02 </wgt>
<wgt id='1276'> -2.8816467e+02 </wgt>
<wgt id='1277'> -2.8812095e+02 </wgt>
<wgt id='1278'> -2.8785884e+02 </wgt>
<wgt id='1279'> -2.8815891e+02 </wgt>
<wgt id='1280'> -2.8769126e+02 </wgt>
<wgt id='1281'> -2.8801037e+02 </wgt>
<wgt id='1282'> -2.8820654e+02 </wgt>
<wgt id='1283'> -2.8823509e+02 </wgt>
<wgt id='1284'> -2.8778618e+02 </wgt>
<wgt id='1285'> -2.8770502e+02 </wgt>
<wgt id='1286'> -2.8810382e+02 </wgt>
<wgt id='1287'> -2.8825728e+02 </wgt>
<wgt id='1288'> -2.8775062e+02 </wgt>
<wgt id='1289'> -2.8796564e+02 </wgt>
<wgt id='1290'> -2.8804221e+02 </wgt>
<wgt id='1291'> -2.8793577e+02 </wgt>
<wgt id='1292'> -2.8792269e+02 </wgt>
<wgt id='1293'> -2.8769427e+02 </wgt>
<wgt id='1294'> -2.8823659e+02 </wgt>
<wgt id='1295'> -2.8791227e+02 </wgt>
<wgt id='1296'> -2.8796012e+02 </wgt>
<wgt id='1297'> -2.8782309e+02 </wgt>
<wgt id='1298'> -2.8819705e+02 </wgt>
<wgt id='1299'> -2.8781140e+02 </wgt>
<wgt id='1300'> -2.8790309e+02 </wgt>
<wgt id='1301'> -2.8769235e+02 </wgt>
<wgt id='1302'> -2.8800991e+02 </wgt>
<wgt id='1303'> -2.8796233e+02 </wgt>
<wgt id='1304'> -2.8811398e+02 </wgt>
<wgt id='1305'> -2.8764921e+02 </wgt>
<wgt id='1306'> -2.8804372e+02 </wgt>
<wgt id='1307'> -2.8794225e+02 </wgt>
<wgt id='1308'> -2.8820541e+02 </wgt>
<wgt id='1309'> -2.8804499e+02 </wgt>
<wgt id='1310'> -2.8811074e+02 </wgt>
<wgt id='1311'> -2.8791248e+02 </wgt>
<wgt id='1312'> -2.8795056e+02 </wgt>
<wgt id='1313'> -2.8812323e+02 </wgt>
<wgt id='1314'> -2.8805330e+02 </wgt>
<wgt id='1315'> -2.6160376e+02 </wgt>
<wgt id='1316'> -3.1530298e+02 </wgt>
<wgt id='1317'> -1.7827329e+02 </wgt>
<wgt id='1318'> -1.9647177e+02 </wgt>
<wgt id='1319'> -2.1795867e+02 </wgt>
<wgt id='1320'> -2.4015761e+02 </wgt>
<wgt id='1321'> -2.7584615e+02 </wgt>
<wgt id='1322'> -3.0147563e+02 </wgt>
<wgt id='1323'> -3.4398846e+02 </wgt>
<wgt id='1324'> -3.7504845e+02 </wgt>
<wgt id='1325'> -2.8618567e+02 </wgt>
<wgt id='1326'> -2.8645164e+02 </wgt>
<wgt id='1327'> -2.8621092e+02 </wgt>
<wgt id='1328'> -2.8656320e+02 </wgt>
<wgt id='1329'> -2.8608966e+02 </wgt>
<wgt id='1330'> -2.8677259e+02 </wgt>
<wgt id='1331'> -2.8645779e+02 </wgt>
<wgt id='1332'> -2.8694347e+02 </wgt>
<wgt id='1333'> -2.8596486e+02 </wgt>
<wgt id='1334'> -2.8701301e+02 </wgt>
<wgt id='1335'> -2.8607912e+02 </wgt>
<wgt id='1336'> -2.8587045e+02 </wgt>
<wgt id='1337'> -2.8606915e+02 </wgt>
<wgt id='1338'> -2.8593114e+02 </wgt>
<wgt id='1339'> -2.8700849e+02 </wgt>
<wgt id='1340'> -2.8575204e+02 </wgt>
<wgt id='1341'> -2.8591258e+02 </wgt>
<wgt id='1342'> -2.8662988e+02 </wgt>
<wgt id='1343'> -2.8637514e+02 </wgt>
<wgt id='1344'> -2.8531826e+02 </wgt>
<wgt id='1345'> -2.8490175e+02 </wgt>
<wgt id='1346'> -2.8589755e+02 </wgt>
<wgt id='1347'> -2.8646084e+02 </wgt>
<wgt id='1348'> -2.8662803e+02 </wgt>
<wgt id='1349'> -2.8560121e+02 </wgt>
<wgt id='1350'> -2.8536888e+02 </wgt>
<wgt id='1351'> -2.8650233e+02 </wgt>
<wgt id='1352'> -2.8589985e+02 </wgt>
<wgt id='1353'> -2.8604495e+02 </wgt>
<wgt id='1354'> -2.8716295e+02 </wgt>
<wgt id='1355'> -2.8430185e+02 </wgt>
<wgt id='1356'> -2.8475046e+02 </wgt>
<wgt id='1357'> -2.8698452e+02 </wgt>
<wgt id='1358'> -2.8664144e+02 </wgt>
<wgt id='1359'> -2.8618127e+02 </wgt>
<wgt id='1360'> -2.8655069e+02 </wgt>
<wgt id='1361'> -2.8651118e+02 </wgt>
<wgt id='1362'> -2.8565618e+02 </wgt>
<wgt id='1363'> -2.8639057e+02 </wgt>
<wgt id='1364'> -2.8606824e+02 </wgt>
<wgt id='1365'> -2.8614108e+02 </wgt>
<wgt id='1366'> -2.8650358e+02 </wgt>
<wgt id='1367'> -2.8635914e+02 </wgt>
<wgt id='1368'> -2.8583580e+02 </wgt>
<wgt id='1369'> -2.8628352e+02 </wgt>
<wgt id='1370'> -2.8654372e+02 </wgt>
<wgt id='1371'> -2.8606304e+02 </wgt>
<wgt id='1372'> -2.8608594e+02 </wgt>
<wgt id='1373'> -2.8673324e+02 </wgt>
<wgt id='1374'> -2.8619197e+02 </wgt>
<wgt id='1375'> -2.8604250e+02 </wgt>
<wgt id='1376'> -2.8632143e+02 </wgt>
<wgt id='1377'> -2.8631221e+02 </wgt>
<wgt id='1378'> -2.8568153e+02 </wgt>
<wgt id='1379'> -2.8593269e+02 </wgt>
<wgt id='1380'> -2.8629597e+02 </wgt>
<wgt id='1381'> -2.8578489e+02 </wgt>
<wgt id='1382'> -2.8628335e+02 </wgt>
<wgt id='1383'> -2.8576015e+02 </wgt>
<wgt id='1384'> -2.8629711e+02 </wgt>
<wgt id='1385'> -2.8610094e+02 </wgt>
<wgt id='1386'> -2.8625660e+02 </wgt>
<wgt id='1387'> -2.8585180e+02 </wgt>
<wgt id='1388'> -2.8648428e+02 </wgt>
<wgt id='1389'> -2.8594245e+02 </wgt>
<wgt id='1390'> -2.8656722e+02 </wgt>
<wgt id='1391'> -2.8621648e+02 </wgt>
<wgt id='1392'> -2.8568228e+02 </wgt>
<wgt id='1393'> -2.8650048e+02 </wgt>
<wgt id='1394'> -2.8584238e+02 </wgt>
<wgt id='1395'> -2.8618228e+02 </wgt>
<wgt id='1396'> -2.8611017e+02 </wgt>
<wgt id='1397'> -2.8642463e+02 </wgt>
<wgt id='1398'> -2.8625883e+02 </wgt>
<wgt id='1399'> -2.8650501e+02 </wgt>
<wgt id='1400'> -2.8597611e+02 </wgt>
<wgt id='1401'> -2.8626910e+02 </wgt>
<wgt id='1402'> -2.8617554e+02 </wgt>
<wgt id='1403'> -2.8621227e+02 </wgt>
<wgt id='1404'> -2.8606208e+02 </wgt>
<wgt id='1405'> -2.8619345e+02 </wgt>
<wgt id='1406'> -2.8640712e+02 </wgt>
<wgt id='1407'> -2.8596687e+02 </wgt>
<wgt id='1408'> -2.8624818e+02 </wgt>
<wgt id='1409'> -2.8590373e+02 </wgt>
<wgt id='1410'> -2.8602513e+02 </wgt>
<wgt id='1411'> -2.8629775e+02 </wgt>
<wgt id='1412'> -2.8633645e+02 </wgt>
<wgt id='1413'> -2.8595230e+02 </wgt>
<wgt id='1414'> -2.8599001e+02 </wgt>
<wgt id='1415'> -2.8612214e+02 </wgt>
<wgt id='1416'> -2.8632773e+02 </wgt>
<wgt id='1417'> -2.8614343e+02 </wgt>
<wgt id='1418'> -2.8610061e+02 </wgt>
<wgt id='1419'> -2.8635745e+02 </wgt>
<wgt id='1420'> -2.8628398e+02 </wgt>
<wgt id='1421'> -2.8593037e+02 </wgt>
<wgt id='1422'> -2.8619776e+02 </wgt>
<wgt id='1423'> -2.8626659e+02 </wgt>
<wgt id='1424'> -2.8598702e+02 </wgt>
<wgt id='1425'> -2.8611626e+02 </wgt>
<wgt id='1426'> -2.6120807e+02 </wgt>
<wgt id='1427'> -3.1356899e+02 </wgt>
<wgt id='1428'> -2.8408437e+02 </wgt>
<wgt id='1429'> -2.8575819e+02 </wgt>
<wgt id='1430'> -2.8452644e+02 </wgt>
<wgt id='1431'> -2.8331637e+02 </wgt>
<wgt id='1432'> -2.8304872e+02 </wgt>
<wgt id='1433'> -2.8027500e+02 </wgt>
<wgt id='1434'> -2.8202540e+02 </wgt>
<wgt id='1435'> -2.8449058e+02 </wgt>
<wgt id='1436'> -2.8115774e+02 </wgt>
<wgt id='1437'> -2.8385250e+02 </wgt>
<wgt id='1438'> -2.8399250e+02 </wgt>
<wgt id='1439'> -2.8442900e+02 </wgt>
<wgt id='1440'> -2.8284497e+02 </wgt>
<wgt id='1441'> -2.8320341e+02 </wgt>
<wgt id='1442'> -2.8688805e+02 </wgt>
<wgt id='1443'> -2.8460666e+02 </wgt>
<wgt id='1444'> -2.8221431e+02 </wgt>
<wgt id='1445'> -2.8309079e+02 </wgt>
<wgt id='1446'> -2.8556654e+02 </wgt>
<wgt id='1447'> -2.8658269e+02 </wgt>
<wgt id='1448'> -2.8197368e+02 </wgt>
<wgt id='1449'> -2.8350433e+02 </wgt>
<wgt id='1450'> -2.8440839e+02 </wgt>
<wgt id='1451'> -2.8399256e+02 </wgt>
<wgt id='1452'> -2.8418670e+02 </wgt>
<wgt id='1453'> -2.8426951e+02 </wgt>
<wgt id='1454'> -2.8391895e+02 </wgt>
<wgt id='1455'> -2.8568534e+02 </wgt>
<wgt id='1456'> -2.8140601e+02 </wgt>
<wgt id='1457'> -2.8023576e+02 </wgt>
<wgt id='1458'> -2.8649627e+02 </wgt>
<wgt id='1459'> -2.8319293e+02 </wgt>
<wgt id='1460'> -2.8534076e+02 </wgt>
<wgt id='1461'> -2.8573997e+02 </wgt>
<wgt id='1462'> -2.8258833e+02 </wgt>
<wgt id='1463'> -2.8524535e+02 </wgt>
<wgt id='1464'> -2.8289323e+02 </wgt>
<wgt id='1465'> -2.8486562e+02 </wgt>
<wgt id='1466'> -2.8302910e+02 </wgt>
<wgt id='1467'> -2.8718869e+02 </wgt>
<wgt id='1468'> -2.8166537e+02 </wgt>
<wgt id='1469'> -2.8210166e+02 </wgt>
<wgt id='1470'> -2.8461400e+02 </wgt>
<wgt id='1471'> -2.8441403e+02 </wgt>
<wgt id='1472'> -2.8270759e+02 </wgt>
<wgt id='1473'> -2.9094581e+02 </wgt>
<wgt id='1474'> -2.7799585e+02 </wgt>
<wgt id='1475'> -2.8247606e+02 </wgt>
<wgt id='1476'> -2.8646089e+02 </wgt>
<wgt id='1477'> -2.8731713e+02 </wgt>
<wgt id='1478'> -2.8304342e+02 </wgt>
<wgt id='1479'> -2.8514951e+02 </wgt>
<wgt id='1480'> -2.8452576e+02 </wgt>
<wgt id='1481'> -2.8316958e+02 </wgt>
<wgt id='1482'> -2.8365102e+02 </wgt>
<wgt id='1483'> -2.8213916e+02 </wgt>
<wgt id='1484'> -2.8694237e+02 </wgt>
<wgt id='1485'> -2.5906301e+02 </wgt>
<wgt id='1486'> -3.1061467e+02 </wgt>
<wgt id='1487'> -2.8105540e+02 </wgt>
<wgt id='1488'> -2.8159702e+02 </wgt>
<wgt id='1489'> -2.8208689e+02 </wgt>
<wgt id='1490'> -2.8132336e+02 </wgt>
<wgt id='1491'> -2.7824342e+02 </wgt>
<wgt id='1492'> -2.7908677e+02 </wgt>
<wgt id='1493'> -2.8455688e+02 </wgt>
<wgt id='1494'> -2.8032519e+02 </wgt>
<wgt id='1495'> -2.8062026e+02 </wgt>
<wgt id='1496'> -2.7838853e+02 </wgt>
<wgt id='1497'> -2.8461466e+02 </wgt>
<wgt id='1498'> -2.8755151e+02 </wgt>
<wgt id='1499'> -2.7717460e+02 </wgt>
<wgt id='1500'> -2.7883342e+02 </wgt>
<wgt id='1501'> -2.8176293e+02 </wgt>
<wgt id='1502'> -2.8222765e+02 </wgt>
<wgt id='1503'> -2.7947224e+02 </wgt>
<wgt id='1504'> -2.8171327e+02 </wgt>
<wgt id='1505'> -2.8024335e+02 </wgt>
<wgt id='1506'> -2.8589250e+02 </wgt>
<wgt id='1507'> -2.7609329e+02 </wgt>
<wgt id='1508'> -2.8149357e+02 </wgt>
<wgt id='1509'> -2.8003847e+02 </wgt>
<wgt id='1510'> -2.8003225e+02 </wgt>
<wgt id='1511'> -2.8234464e+02 </wgt>
<wgt id='1512'> -2.8183497e+02 </wgt>
<wgt id='1513'> -2.8010434e+02 </wgt>
<wgt id='1514'> -2.8099930e+02 </wgt>
<wgt id='1515'> -2.8116051e+02 </wgt>
<wgt id='1516'> -2.7874892e+02 </wgt>
<wgt id='1517'> -2.8187252e+02 </wgt>
<wgt id='1518'> -2.8192056e+02 </wgt>
<wgt id='1519'> -2.7993506e+02 </wgt>
<wgt id='1520'> -2.8077361e+02 </wgt>
<wgt id='1521'> -2.8160742e+02 </wgt>
<wgt id='1522'> -2.7997998e+02 </wgt>
<wgt id='1523'> -2.8228624e+02 </wgt>
<wgt id='1524'> -2.8121313e+02 </wgt>
<wgt id='1525'> -2.8045673e+02 </wgt>
<wgt id='1526'> -2.8002078e+02 </wgt>
<wgt id='1527'> -2.8122281e+02 </wgt>
<wgt id='1528'> -2.8224263e+02 </wgt>
<wgt id='1529'> -2.8030187e+02 </wgt>
<wgt id='1530'> -2.8228856e+02 </wgt>
<wgt id='1531'> -2.8100017e+02 </wgt>
<wgt id='1532'> -2.7931516e+02 </wgt>
<wgt id='1533'> -2.8073628e+02 </wgt>
<wgt id='1534'> -2.8027235e+02 </wgt>
<wgt id='1535'> -2.7777557e+02 </wgt>
<wgt id='1536'> -2.7871360e+02 </wgt>
<wgt id='1537'> -2.7800087e+02 </wgt>
<wgt id='1538'> -2.8146652e+02 </wgt>
<wgt id='1539'> -2.8301018e+02 </wgt>
<wgt id='1540'> -2.7833887e+02 </wgt>
<wgt id='1541'> -2.8263575e+02 </wgt>
<wgt id='1542'> -2.7929027e+02 </wgt>
<wgt id='1543'> -2.8347114e+02 </wgt>
<wgt id='1544'> -2.5615729e+02 </wgt>
<wgt id='1545'> -3.0751348e+02 </wgt>
<wgt id='1546'> -2.3797979e+02 </wgt>
<wgt id='1547'> -2.7711530e+02 </wgt>
<wgt id='1548'> -2.7678459e+02 </wgt>
<wgt id='1549'> -2.7746741e+02 </wgt>
<wgt id='1550'> -2.7728309e+02 </wgt>
<wgt id='1551'> -2.7699681e+02 </wgt>
<wgt id='1552'> -2.7755332e+02 </wgt>
<wgt id='1553'> -2.7670641e+02 </wgt>
<wgt id='1554'> -2.7692892e+02 </wgt>
<wgt id='1555'> -2.7731527e+02 </wgt>
<wgt id='1556'> -2.7612349e+02 </wgt>
<wgt id='1557'> -2.7808002e+02 </wgt>
<wgt id='1558'> -2.7701768e+02 </wgt>
<wgt id='1559'> -2.7732191e+02 </wgt>
<wgt id='1560'> -2.7649785e+02 </wgt>
<wgt id='1561'> -2.7821198e+02 </wgt>
<wgt id='1562'> -2.7707348e+02 </wgt>
<wgt id='1563'> -2.7713730e+02 </wgt>
<wgt id='1564'> -2.7834760e+02 </wgt>
<wgt id='1565'> -2.7563289e+02 </wgt>
<wgt id='1566'> -2.7650367e+02 </wgt>
<wgt id='1567'> -2.7762954e+02 </wgt>
<wgt id='1568'> -2.7708073e+02 </wgt>
<wgt id='1569'> -2.7716479e+02 </wgt>
<wgt id='1570'> -2.8003869e+02 </wgt>
<wgt id='1571'> -2.7515302e+02 </wgt>
<wgt id='1572'> -2.7689046e+02 </wgt>
<wgt id='1573'> -2.7735536e+02 </wgt>
<wgt id='1574'> -2.7770682e+02 </wgt>
<wgt id='1575'> -2.7680063e+02 </wgt>
<wgt id='1576'> -2.7828809e+02 </wgt>
<wgt id='1577'> -2.7576554e+02 </wgt>
<wgt id='1578'> -2.7769759e+02 </wgt>
<wgt id='1579'> -2.7641522e+02 </wgt>
<wgt id='1580'> -2.7732574e+02 </wgt>
<wgt id='1581'> -2.7704870e+02 </wgt>
<wgt id='1582'> -2.7665677e+02 </wgt>
<wgt id='1583'> -2.7731479e+02 </wgt>
<wgt id='1584'> -2.7671752e+02 </wgt>
<wgt id='1585'> -2.7750653e+02 </wgt>
<wgt id='1586'> -2.7693876e+02 </wgt>
<wgt id='1587'> -2.7722741e+02 </wgt>
<wgt id='1588'> -2.7661686e+02 </wgt>
<wgt id='1589'> -2.7798314e+02 </wgt>
<wgt id='1590'> -2.7699370e+02 </wgt>
<wgt id='1591'> -2.7681752e+02 </wgt>
<wgt id='1592'> -2.7667581e+02 </wgt>
<wgt id='1593'> -2.7817396e+02 </wgt>
<wgt id='1594'> -2.7878860e+02 </wgt>
<wgt id='1595'> -2.7423614e+02 </wgt>
<wgt id='1596'> -2.7796722e+02 </wgt>
<wgt id='1597'> -2.7691888e+02 </wgt>
<wgt id='1598'> -2.8254376e+02 </wgt>
<wgt id='1599'> -2.8212220e+02 </wgt>
<wgt id='1600'> -2.8308969e+02 </wgt>
<wgt id='1601'> -2.8262366e+02 </wgt>
<wgt id='1602'> -2.8246705e+02 </wgt>
<wgt id='1603'> -2.8297909e+02 </wgt>
<wgt id='1604'> -2.8236982e+02 </wgt>
<wgt id='1605'> -2.8252570e+02 </wgt>
<wgt id='1606'> -2.8255642e+02 </wgt>
<wgt id='1607'> -2.8198199e+02 </wgt>
<wgt id='1608'> -2.8308476e+02 </wgt>
<wgt id='1609'> -2.8354269e+02 </wgt>
<wgt id='1610'> -2.8211343e+02 </wgt>
<wgt id='1611'> -2.8232805e+02 </wgt>
<wgt id='1612'> -2.8280845e+02 </wgt>
<wgt id='1613'> -2.8204091e+02 </wgt>
<wgt id='1614'> -2.8308648e+02 </wgt>
<wgt id='1615'> -2.8432574e+02 </wgt>
<wgt id='1616'> -2.8153265e+02 </wgt>
<wgt id='1617'> -2.8367678e+02 </wgt>
<wgt id='1618'> -2.8098012e+02 </wgt>
<wgt id='1619'> -2.8219240e+02 </wgt>
<wgt id='1620'> -2.8279083e+02 </wgt>
<wgt id='1621'> -2.8287862e+02 </wgt>
<wgt id='1622'> -2.8226134e+02 </wgt>
<wgt id='1623'> -2.8152989e+02 </wgt>
<wgt id='1624'> -2.8497039e+02 </wgt>
<wgt id='1625'> -2.8292524e+02 </wgt>
<wgt id='1626'> -2.8222561e+02 </wgt>
<wgt id='1627'> -2.8170405e+02 </wgt>
<wgt id='1628'> -2.8494672e+02 </wgt>
<wgt id='1629'> -2.8246442e+02 </wgt>
<wgt id='1630'> -2.8247707e+02 </wgt>
<wgt id='1631'> -2.8193128e+02 </wgt>
<wgt id='1632'> -2.8355651e+02 </wgt>
<wgt id='1633'> -2.8337814e+02 </wgt>
<wgt id='1634'> -2.8186573e+02 </wgt>
<wgt id='1635'> -2.8266253e+02 </wgt>
<wgt id='1636'> -2.8229598e+02 </wgt>
<wgt id='1637'> -2.8232341e+02 </wgt>
<wgt id='1638'> -2.8262038e+02 </wgt>
<wgt id='1639'> -2.8253402e+02 </wgt>
<wgt id='1640'> -2.8213598e+02 </wgt>
<wgt id='1641'> -2.8274073e+02 </wgt>
<wgt id='1642'> -2.8169662e+02 </wgt>
<wgt id='1643'> -2.8083048e+02 </wgt>
<wgt id='1644'> -2.8349109e+02 </wgt>
<wgt id='1645'> -2.8393978e+02 </wgt>
<wgt id='1646'> -2.8185770e+02 </wgt>
<wgt id='1647'> -2.8110372e+02 </wgt>
<wgt id='1648'> -2.8308416e+02 </wgt>
<wgt id='1649'> -4.6511373e+02 </wgt>
<wgt id='1650'> -2.9181522e+02 </wgt>
<wgt id='1651'> -2.9168160e+02 </wgt>
<wgt id='1652'> -2.9179046e+02 </wgt>
<wgt id='1653'> -2.9195330e+02 </wgt>
<wgt id='1654'> -2.9181556e+02 </wgt>
<wgt id='1655'> -2.9181421e+02 </wgt>
<wgt id='1656'> -2.9185655e+02 </wgt>
<wgt id='1657'> -2.9215006e+02 </wgt>
<wgt id='1658'> -2.9148977e+02 </wgt>
<wgt id='1659'> -2.9197919e+02 </wgt>
<wgt id='1660'> -2.9178497e+02 </wgt>
<wgt id='1661'> -2.9133597e+02 </wgt>
<wgt id='1662'> -2.9176125e+02 </wgt>
<wgt id='1663'> -2.9132455e+02 </wgt>
<wgt id='1664'> -2.9175036e+02 </wgt>
<wgt id='1665'> -2.9171691e+02 </wgt>
<wgt id='1666'> -2.9234915e+02 </wgt>
<wgt id='1667'> -2.9087115e+02 </wgt>
<wgt id='1668'> -2.9179516e+02 </wgt>
<wgt id='1669'> -2.9160402e+02 </wgt>
<wgt id='1670'> -2.9055669e+02 </wgt>
<wgt id='1671'> -2.9175355e+02 </wgt>
<wgt id='1672'> -2.9084589e+02 </wgt>
<wgt id='1673'> -2.9221023e+02 </wgt>
<wgt id='1674'> -2.9220068e+02 </wgt>
<wgt id='1675'> -2.9255988e+02 </wgt>
<wgt id='1676'> -2.9128196e+02 </wgt>
<wgt id='1677'> -2.9142015e+02 </wgt>
<wgt id='1678'> -2.9154827e+02 </wgt>
<wgt id='1679'> -2.8952412e+02 </wgt>
<wgt id='1680'> -2.8023907e+02 </wgt>
<wgt id='1681'> -2.7916068e+02 </wgt>
<wgt id='1682'> -2.8043807e+02 </wgt>
<wgt id='1683'> -2.8088246e+02 </wgt>
<wgt id='1684'> -2.7958894e+02 </wgt>
<wgt id='1685'> -2.8000251e+02 </wgt>
<wgt id='1686'> -2.7983955e+02 </wgt>
<wgt id='1687'> -2.7976192e+02 </wgt>
<wgt id='1688'> -2.7971458e+02 </wgt>
<wgt id='1689'> -2.7976459e+02 </wgt>
<wgt id='1690'> -2.8033134e+02 </wgt>
<wgt id='1691'> -2.7977339e+02 </wgt>
<wgt id='1692'> -2.7861968e+02 </wgt>
<wgt id='1693'> -2.8227532e+02 </wgt>
<wgt id='1694'> -2.7840240e+02 </wgt>
<wgt id='1695'> -2.8028571e+02 </wgt>
<wgt id='1696'> -2.7993035e+02 </wgt>
<wgt id='1697'> -2.7882048e+02 </wgt>
<wgt id='1698'> -2.8145948e+02 </wgt>
<wgt id='1699'> -2.7969198e+02 </wgt>
<wgt id='1700'> -2.8032931e+02 </wgt>
<wgt id='1701'> -2.8011455e+02 </wgt>
<wgt id='1702'> -2.7896735e+02 </wgt>
<wgt id='1703'> -2.8134081e+02 </wgt>
<wgt id='1704'> -2.7993622e+02 </wgt>
<wgt id='1705'> -2.8129178e+02 </wgt>
<wgt id='1706'> -2.8024955e+02 </wgt>
<wgt id='1707'> -2.7943140e+02 </wgt>
<wgt id='1708'> -2.8123758e+02 </wgt>
<wgt id='1709'> -2.7981960e+02 </wgt>
<wgt id='1710'> -2.7955206e+02 </wgt>
<wgt id='1711'> -2.8035149e+02 </wgt>
<wgt id='1712'> -2.7979396e+02 </wgt>
<wgt id='1713'> -2.7918600e+02 </wgt>
<wgt id='1714'> -2.8062231e+02 </wgt>
<wgt id='1715'> -2.8098141e+02 </wgt>
<wgt id='1716'> -2.7983466e+02 </wgt>
<wgt id='1717'> -2.7963173e+02 </wgt>
<wgt id='1718'> -2.8028480e+02 </wgt>
<wgt id='1719'> -2.8081502e+02 </wgt>
<wgt id='1720'> -2.8061603e+02 </wgt>
<wgt id='1721'> -2.8076346e+02 </wgt>
<wgt id='1722'> -2.8012377e+02 </wgt>
<wgt id='1723'> -2.7997894e+02 </wgt>
<wgt id='1724'> -2.8100016e+02 </wgt>
<wgt id='1725'> -2.8047138e+02 </wgt>
<wgt id='1726'> -2.7990605e+02 </wgt>
<wgt id='1727'> -2.7973057e+02 </wgt>
<wgt id='1728'> -2.7983292e+02 </wgt>
<wgt id='1729'> -2.8025300e+02 </wgt>
<wgt id='1730'> -2.8010241e+02 </wgt>
<wgt id='1731'> -2.7996470e+02 </wgt>
<wgt id='1732'> -2.8011091e+02 </wgt>
<wgt id='1733'> -2.8033876e+02 </wgt>
<wgt id='1734'> -2.8025106e+02 </wgt>
<wgt id='1735'> -2.8010771e+02 </wgt>
<wgt id='1736'> -2.8068162e+02 </wgt>
<wgt id='1737'> -2.8017854e+02 </wgt>
<wgt id='1738'> -2.8050381e+02 </wgt>
<wgt id='1739'> -2.8000360e+02 </wgt>
<wgt id='1740'> -2.7974997e+02 </wgt>
<wgt id='1741'> -2.8000766e+02 </wgt>
<wgt id='1742'> -2.7994916e+02 </wgt>
<wgt id='1743'> -2.8013016e+02 </wgt>
<wgt id='1744'> -2.8008313e+02 </wgt>
<wgt id='1745'> -2.8014372e+02 </wgt>
<wgt id='1746'> -2.8000351e+02 </wgt>
<wgt id='1747'> -2.8012660e+02 </wgt>
<wgt id='1748'> -2.8026206e+02 </wgt>
<wgt id='1749'> -2.8026417e+02 </wgt>
<wgt id='1750'> -2.8009439e+02 </wgt>
<wgt id='1751'> -2.8008889e+02 </wgt>
<wgt id='1752'> -2.8017814e+02 </wgt>
<wgt id='1753'> -2.8022000e+02 </wgt>
<wgt id='1754'> -2.8002757e+02 </wgt>
<wgt id='1755'> -2.8023792e+02 </wgt>
<wgt id='1756'> -2.8023776e+02 </wgt>
<wgt id='1757'> -2.8004339e+02 </wgt>
<wgt id='1758'> -2.8018531e+02 </wgt>
<wgt id='1759'> -2.8055679e+02 </wgt>
<wgt id='1760'> -2.8022655e+02 </wgt>
<wgt id='1761'> -2.8023748e+02 </wgt>
<wgt id='1762'> -2.8009715e+02 </wgt>
<wgt id='1763'> -2.8023710e+02 </wgt>
<wgt id='1764'> -2.8037388e+02 </wgt>
<wgt id='1765'> -2.8029498e+02 </wgt>
<wgt id='1766'> -2.8041482e+02 </wgt>
<wgt id='1767'> -2.8021966e+02 </wgt>
<wgt id='1768'> -2.8014503e+02 </wgt>
<wgt id='1769'> -2.8032166e+02 </wgt>
<wgt id='1770'> -2.8017372e+02 </wgt>
<wgt id='1771'> -2.8019061e+02 </wgt>
<wgt id='1772'> -2.8030951e+02 </wgt>
<wgt id='1773'> -2.8028757e+02 </wgt>
<wgt id='1774'> -2.8023571e+02 </wgt>
<wgt id='1775'> -2.8014682e+02 </wgt>
<wgt id='1776'> -2.8029137e+02 </wgt>
<wgt id='1777'> -2.8020591e+02 </wgt>
<wgt id='1778'> -2.8030107e+02 </wgt>
<wgt id='1779'> -2.8021077e+02 </wgt>
<wgt id='1780'> -2.8024754e+02 </wgt>
<wgt id='1781'> -2.6159076e+02 </wgt>
<wgt id='1782'> -2.9961866e+02 </wgt>
<wgt id='1783'> -2.8284750e+02 </wgt>
<wgt id='1784'> -2.8327354e+02 </wgt>
<wgt id='1785'> -2.8261166e+02 </wgt>
<wgt id='1786'> -2.8252891e+02 </wgt>
<wgt id='1787'> -2.8324422e+02 </wgt>
<wgt id='1788'> -2.8392071e+02 </wgt>
<wgt id='1789'> -2.8238070e+02 </wgt>
<wgt id='1790'> -2.8137070e+02 </wgt>
<wgt id='1791'> -2.8263794e+02 </wgt>
<wgt id='1792'> -2.8316566e+02 </wgt>
<wgt id='1793'> -2.8272060e+02 </wgt>
<wgt id='1794'> -2.8393718e+02 </wgt>
<wgt id='1795'> -2.8280925e+02 </wgt>
<wgt id='1796'> -2.8152085e+02 </wgt>
<wgt id='1797'> -2.8154983e+02 </wgt>
<wgt id='1798'> -2.8230781e+02 </wgt>
<wgt id='1799'> -2.8426023e+02 </wgt>
<wgt id='1800'> -2.8277041e+02 </wgt>
<wgt id='1801'> -2.8267975e+02 </wgt>
<wgt id='1802'> -2.8113923e+02 </wgt>
<wgt id='1803'> -2.8373692e+02 </wgt>
<wgt id='1804'> -2.8351825e+02 </wgt>
<wgt id='1805'> -2.8244768e+02 </wgt>
<wgt id='1806'> -2.8358046e+02 </wgt>
<wgt id='1807'> -2.8424609e+02 </wgt>
<wgt id='1808'> -2.8271343e+02 </wgt>
<wgt id='1809'> -2.8274953e+02 </wgt>
<wgt id='1810'> -2.8295020e+02 </wgt>
<wgt id='1811'> -2.8279862e+02 </wgt>
<wgt id='1812'> -2.8296951e+02 </wgt>
<wgt id='1813'> -2.8321129e+02 </wgt>
<wgt id='1814'> -2.8376024e+02 </wgt>
<wgt id='1815'> -2.8363324e+02 </wgt>
<wgt id='1816'> -2.8436721e+02 </wgt>
<wgt id='1817'> -2.8349709e+02 </wgt>
<wgt id='1818'> -2.8241415e+02 </wgt>
<wgt id='1819'> -2.8308501e+02 </wgt>
<wgt id='1820'> -2.8271236e+02 </wgt>
<wgt id='1821'> -2.8295672e+02 </wgt>
<wgt id='1822'> -2.8272163e+02 </wgt>
<wgt id='1823'> -2.8254086e+02 </wgt>
<wgt id='1824'> -2.8292769e+02 </wgt>
<wgt id='1825'> -2.8309570e+02 </wgt>
<wgt id='1826'> -2.8206076e+02 </wgt>
<wgt id='1827'> -2.8310267e+02 </wgt>
<wgt id='1828'> -2.8234592e+02 </wgt>
<wgt id='1829'> -2.8286328e+02 </wgt>
<wgt id='1830'> -2.8269319e+02 </wgt>
<wgt id='1831'> -2.8361400e+02 </wgt>
<wgt id='1832'> -2.8255878e+02 </wgt>
<wgt id='1833'> -2.8314443e+02 </wgt>
<wgt id='1834'> -2.8281964e+02 </wgt>
<wgt id='1835'> -2.8243557e+02 </wgt>
<wgt id='1836'> -2.8299639e+02 </wgt>
<wgt id='1837'> -2.8269244e+02 </wgt>
<wgt id='1838'> -2.8299213e+02 </wgt>
<wgt id='1839'> -2.8294118e+02 </wgt>
<wgt id='1840'> -2.8265454e+02 </wgt>
<wgt id='1841'> -2.8255666e+02 </wgt>
<wgt id='1842'> -2.8281318e+02 </wgt>
<wgt id='1843'> -2.8257202e+02 </wgt>
<wgt id='1844'> -2.8306609e+02 </wgt>
<wgt id='1845'> -2.8284110e+02 </wgt>
<wgt id='1846'> -2.8293413e+02 </wgt>
<wgt id='1847'> -2.8243236e+02 </wgt>
<wgt id='1848'> -2.8301292e+02 </wgt>
<wgt id='1849'> -2.8298558e+02 </wgt>
<wgt id='1850'> -2.8300423e+02 </wgt>
<wgt id='1851'> -2.8307002e+02 </wgt>
<wgt id='1852'> -2.8301406e+02 </wgt>
<wgt id='1853'> -2.8297157e+02 </wgt>
<wgt id='1854'> -2.8309835e+02 </wgt>
<wgt id='1855'> -2.8292378e+02 </wgt>
<wgt id='1856'> -2.8291528e+02 </wgt>
<wgt id='1857'> -2.8288159e+02 </wgt>
<wgt id='1858'> -2.8278169e+02 </wgt>
<wgt id='1859'> -2.8262433e+02 </wgt>
<wgt id='1860'> -2.8290864e+02 </wgt>
<wgt id='1861'> -2.8277728e+02 </wgt>
<wgt id='1862'> -2.8284775e+02 </wgt>
<wgt id='1863'> -2.8307700e+02 </wgt>
<wgt id='1864'> -2.8284851e+02 </wgt>
<wgt id='1865'> -2.8296654e+02 </wgt>
<wgt id='1866'> -2.8284173e+02 </wgt>
<wgt id='1867'> -2.8282843e+02 </wgt>
<wgt id='1868'> -2.8273938e+02 </wgt>
<wgt id='1869'> -2.8303336e+02 </wgt>
<wgt id='1870'> -2.8260719e+02 </wgt>
<wgt id='1871'> -2.8278742e+02 </wgt>
<wgt id='1872'> -2.8280441e+02 </wgt>
<wgt id='1873'> -2.8295887e+02 </wgt>
<wgt id='1874'> -2.8268432e+02 </wgt>
<wgt id='1875'> -2.8280642e+02 </wgt>
<wgt id='1876'> -2.8275958e+02 </wgt>
<wgt id='1877'> -2.8288294e+02 </wgt>
<wgt id='1878'> -2.8279153e+02 </wgt>
<wgt id='1879'> -2.8276086e+02 </wgt>
<wgt id='1880'> -2.8287309e+02 </wgt>
<wgt id='1881'> -2.8289739e+02 </wgt>
<wgt id='1882'> -2.8285852e+02 </wgt>
<wgt id='1883'> -2.8281699e+02 </wgt>
<wgt id='1884'> -2.6386713e+02 </wgt>
<wgt id='1885'> -3.0182627e+02 </wgt>
<wgt id='1886'> -2.8023268e+02 </wgt>
<wgt id='1887'> -2.7887673e+02 </wgt>
<wgt id='1888'> -2.7838053e+02 </wgt>
<wgt id='1889'> -2.8014195e+02 </wgt>
<wgt id='1890'> -2.8104681e+02 </wgt>
<wgt id='1891'> -2.8199232e+02 </wgt>
<wgt id='1892'> -2.7976195e+02 </wgt>
<wgt id='1893'> -2.8003805e+02 </wgt>
<wgt id='1894'> -2.8096418e+02 </wgt>
<wgt id='1895'> -2.7949662e+02 </wgt>
<wgt id='1896'> -2.8078424e+02 </wgt>
<wgt id='1897'> -2.7986232e+02 </wgt>
<wgt id='1898'> -2.8193034e+02 </wgt>
<wgt id='1899'> -2.8033987e+02 </wgt>
<wgt id='1900'> -2.8004526e+02 </wgt>
<wgt id='1901'> -2.8044426e+02 </wgt>
<wgt id='1902'> -2.7979062e+02 </wgt>
<wgt id='1903'> -2.8126264e+02 </wgt>
<wgt id='1904'> -2.8019206e+02 </wgt>
<wgt id='1905'> -2.8113588e+02 </wgt>
<wgt id='1906'> -2.8088438e+02 </wgt>
<wgt id='1907'> -2.7953939e+02 </wgt>
<wgt id='1908'> -2.7949016e+02 </wgt>
<wgt id='1909'> -2.8036570e+02 </wgt>
<wgt id='1910'> -2.7932307e+02 </wgt>
<wgt id='1911'> -2.8052240e+02 </wgt>
<wgt id='1912'> -2.8003207e+02 </wgt>
<wgt id='1913'> -2.8098037e+02 </wgt>
<wgt id='1914'> -2.8108526e+02 </wgt>
<wgt id='1915'> -2.8019155e+02 </wgt>
<wgt id='1916'> -2.8041417e+02 </wgt>
<wgt id='1917'> -2.6159076e+02 </wgt>
<wgt id='1918'> -2.9961866e+02 </wgt>
<wgt id='1919'> -2.8281808e+02 </wgt>
<wgt id='1920'> -2.8236268e+02 </wgt>
<wgt id='1921'> -2.8286652e+02 </wgt>
<wgt id='1922'> -2.8272622e+02 </wgt>
<wgt id='1923'> -2.8171951e+02 </wgt>
<wgt id='1924'> -2.8049898e+02 </wgt>
<wgt id='1925'> -2.8304931e+02 </wgt>
<wgt id='1926'> -2.8247657e+02 </wgt>
<wgt id='1927'> -2.8286471e+02 </wgt>
<wgt id='1928'> -2.8172563e+02 </wgt>
<wgt id='1929'> -2.8103736e+02 </wgt>
<wgt id='1930'> -2.8218592e+02 </wgt>
<wgt id='1931'> -2.8282920e+02 </wgt>
<wgt id='1932'> -2.8285528e+02 </wgt>
<wgt id='1933'> -2.8253787e+02 </wgt>
<wgt id='1934'> -2.8247471e+02 </wgt>
<wgt id='1935'> -2.8246881e+02 </wgt>
<wgt id='1936'> -2.8254653e+02 </wgt>
<wgt id='1937'> -2.8283919e+02 </wgt>
<wgt id='1938'> -2.8325340e+02 </wgt>
<wgt id='1939'> -2.8105569e+02 </wgt>
<wgt id='1940'> -2.8281285e+02 </wgt>
<wgt id='1941'> -2.8490984e+02 </wgt>
<wgt id='1942'> -2.8288309e+02 </wgt>
<wgt id='1943'> -2.8301812e+02 </wgt>
<wgt id='1944'> -2.8317997e+02 </wgt>
<wgt id='1945'> -2.8332487e+02 </wgt>
<wgt id='1946'> -2.8280817e+02 </wgt>
<wgt id='1947'> -2.8311738e+02 </wgt>
<wgt id='1948'> -2.8366351e+02 </wgt>
<wgt id='1949'> -2.8327827e+02 </wgt>
<wgt id='1950'> -2.6386713e+02 </wgt>
<wgt id='1951'> -3.0182627e+02 </wgt>
<wgt id='1952'> -3.0026193e+02 </wgt>
<wgt id='1953'> -3.0028227e+02 </wgt>
<wgt id='1954'> -3.0024154e+02 </wgt>
<wgt id='1955'> -2.9995580e+02 </wgt>
<wgt id='1956'> -3.0056733e+02 </wgt>
<wgt id='1957'> -3.0028668e+02 </wgt>
<wgt id='1958'> -3.0023504e+02 </wgt>
<wgt id='1959'> -3.0049115e+02 </wgt>
<wgt id='1960'> -3.0003316e+02 </wgt>
<wgt id='1961'> -3.0135039e+02 </wgt>
<wgt id='1962'> -2.9916464e+02 </wgt>
<wgt id='1963'> -2.9983587e+02 </wgt>
<wgt id='1964'> -3.0079201e+02 </wgt>
<wgt id='1965'> -2.9888264e+02 </wgt>
<wgt id='1966'> -3.0164271e+02 </wgt>
<wgt id='1967'> -2.9951513e+02 </wgt>
<wgt id='1968'> -3.0067747e+02 </wgt>
<wgt id='1969'> -3.0023507e+02 </wgt>
<wgt id='1970'> -3.0053531e+02 </wgt>
<wgt id='1971'> -2.9982183e+02 </wgt>
<wgt id='1972'> -3.0055170e+02 </wgt>
<wgt id='1973'> -3.0119619e+02 </wgt>
<wgt id='1974'> -2.9934637e+02 </wgt>
<wgt id='1975'> -2.9820567e+02 </wgt>
<wgt id='1976'> -3.0176047e+02 </wgt>
<wgt id='1977'> -3.0215509e+02 </wgt>
<wgt id='1978'> -2.9853773e+02 </wgt>
<wgt id='1979'> -3.0028022e+02 </wgt>
<wgt id='1980'> -2.9965603e+02 </wgt>
<wgt id='1981'> -3.0026193e+02 </wgt>
<wgt id='1982'> -2.9990370e+02 </wgt>
<wgt id='1983'> -3.0057652e+02 </wgt>
<wgt id='1984'> -2.9978205e+02 </wgt>
<wgt id='1985'> -3.0050281e+02 </wgt>
<wgt id='1986'> -3.0235469e+02 </wgt>
<wgt id='1987'> -2.9890593e+02 </wgt>
<wgt id='1988'> -3.0004363e+02 </wgt>
<wgt id='1989'> -3.0057928e+02 </wgt>
<wgt id='1990'> -3.0021341e+02 </wgt>
<wgt id='1991'> -3.0039478e+02 </wgt>
<wgt id='1992'> -2.9985532e+02 </wgt>
<wgt id='1993'> -3.0050871e+02 </wgt>
<wgt id='1994'> -2.9915619e+02 </wgt>
<wgt id='1995'> -2.9945245e+02 </wgt>
<wgt id='1996'> -2.9946651e+02 </wgt>
<wgt id='1997'> -2.9951480e+02 </wgt>
<wgt id='1998'> -2.9920676e+02 </wgt>
<wgt id='1999'> -2.9977528e+02 </wgt>
<wgt id='2000'> -2.9936900e+02 </wgt>
<wgt id='2001'> -2.9960898e+02 </wgt>
<wgt id='2002'> -2.9949152e+02 </wgt>
<wgt id='2003'> -2.9949729e+02 </wgt>
<wgt id='2004'> -2.9975892e+02 </wgt>
<wgt id='2005'> -2.9923342e+02 </wgt>
<wgt id='2006'> -3.0040799e+02 </wgt>
<wgt id='2007'> -2.9857218e+02 </wgt>
<wgt id='2008'> -2.9818675e+02 </wgt>
<wgt id='2009'> -3.0077561e+02 </wgt>
<wgt id='2010'> -2.9875975e+02 </wgt>
<wgt id='2011'> -2.9977191e+02 </wgt>
<wgt id='2012'> -3.0016924e+02 </wgt>
<wgt id='2013'> -2.9880813e+02 </wgt>
<wgt id='2014'> -2.9940184e+02 </wgt>
<wgt id='2015'> -2.9959301e+02 </wgt>
<wgt id='2016'> -2.9787745e+02 </wgt>
<wgt id='2017'> -3.0110483e+02 </wgt>
<wgt id='2018'> -3.0081705e+02 </wgt>
<wgt id='2019'> -2.9831528e+02 </wgt>
<wgt id='2020'> -2.9749193e+02 </wgt>
<wgt id='2021'> -3.0115443e+02 </wgt>
<wgt id='2022'> -2.9808264e+02 </wgt>
<wgt id='2023'> -3.0010734e+02 </wgt>
<wgt id='2024'> -2.9921372e+02 </wgt>
<wgt id='2025'> -2.9905336e+02 </wgt>
<wgt id='2026'> -2.9881532e+02 </wgt>
<wgt id='2027'> -2.9873592e+02 </wgt>
<wgt id='2028'> -2.9926822e+02 </wgt>
<wgt id='2029'> -3.0095033e+02 </wgt>
<wgt id='2030'> -2.9433163e+02 </wgt>
<wgt id='2031'> -2.9899301e+02 </wgt>
<wgt id='2032'> -3.0037069e+02 </wgt>
<wgt id='2033'> -2.9621761e+02 </wgt>
<wgt id='2034'> -2.9950433e+02 </wgt>
<wgt id='2035'> -2.9542718e+02 </wgt>
<wgt id='2036'> -3.0295723e+02 </wgt>
<wgt id='2037'> -2.9541224e+02 </wgt>
<wgt id='2038'> -2.7977466e+02 </wgt>
<wgt id='2039'> -2.7973138e+02 </wgt>
<wgt id='2040'> -2.7968777e+02 </wgt>
<wgt id='2041'> -2.7964437e+02 </wgt>
<wgt id='2042'> -2.7960074e+02 </wgt>
<wgt id='2043'> -2.7955713e+02 </wgt>
<wgt id='2044'> -2.7951400e+02 </wgt>
<wgt id='2045'> -2.7947052e+02 </wgt>
<wgt id='2046'> -2.7942685e+02 </wgt>
<wgt id='2047'> -2.7938348e+02 </wgt>
<wgt id='2048'> -2.7933991e+02 </wgt>
<wgt id='2049'> -2.7929668e+02 </wgt>
<wgt id='2050'> -2.7925317e+02 </wgt>
<wgt id='2051'> -2.7920962e+02 </wgt>
<wgt id='2052'> -2.7916620e+02 </wgt>
<wgt id='2053'> -2.7912274e+02 </wgt>
<wgt id='2054'> -2.7907934e+02 </wgt>
<wgt id='2055'> -2.7903586e+02 </wgt>
<wgt id='2056'> -2.7899238e+02 </wgt>
<wgt id='2057'> -2.7894904e+02 </wgt>
<wgt id='2058'> -2.7890549e+02 </wgt>
<wgt id='2059'> -2.7886212e+02 </wgt>
<wgt id='2060'> -2.7881882e+02 </wgt>
<wgt id='2061'> -2.7877525e+02 </wgt>
<wgt id='2062'> -2.7873204e+02 </wgt>
<wgt id='2063'> -2.7868844e+02 </wgt>
<wgt id='2064'> -2.7864496e+02 </wgt>
<wgt id='2065'> -2.7860172e+02 </wgt>
<wgt id='2066'> -2.7855826e+02 </wgt>
<wgt id='2067'> -2.7851475e+02 </wgt>
<wgt id='2068'> -2.7847147e+02 </wgt>
<wgt id='2069'> -2.8126888e+02 </wgt>
<wgt id='2070'> -2.8169194e+02 </wgt>
<wgt id='2071'> -2.8103484e+02 </wgt>
<wgt id='2072'> -2.8095404e+02 </wgt>
<wgt id='2073'> -2.8166422e+02 </wgt>
<wgt id='2074'> -2.8233590e+02 </wgt>
<wgt id='2075'> -2.8080823e+02 </wgt>
<wgt id='2076'> -2.7980369e+02 </wgt>
<wgt id='2077'> -2.8106108e+02 </wgt>
<wgt id='2078'> -2.8158691e+02 </wgt>
<wgt id='2079'> -2.8114150e+02 </wgt>
<wgt id='2080'> -2.8235386e+02 </wgt>
<wgt id='2081'> -2.8123034e+02 </wgt>
<wgt id='2082'> -2.7995192e+02 </wgt>
<wgt id='2083'> -2.7997635e+02 </wgt>
<wgt id='2084'> -2.8072873e+02 </wgt>
<wgt id='2085'> -2.8267671e+02 </wgt>
<wgt id='2086'> -2.8119440e+02 </wgt>
<wgt id='2087'> -2.8110276e+02 </wgt>
<wgt id='2088'> -2.7957366e+02 </wgt>
<wgt id='2089'> -2.8215422e+02 </wgt>
<wgt id='2090'> -2.8192630e+02 </wgt>
<wgt id='2091'> -2.8087242e+02 </wgt>
<wgt id='2092'> -2.8199590e+02 </wgt>
<wgt id='2093'> -2.8265528e+02 </wgt>
<wgt id='2094'> -2.8113807e+02 </wgt>
<wgt id='2095'> -2.8117005e+02 </wgt>
<wgt id='2096'> -2.8136854e+02 </wgt>
<wgt id='2097'> -2.8122042e+02 </wgt>
<wgt id='2098'> -2.8138908e+02 </wgt>
<wgt id='2099'> -2.8162527e+02 </wgt>
<wgt id='2100'> -2.8217720e+02 </wgt>
<wgt id='2101'> -2.8205070e+02 </wgt>
<wgt id='2102'> -2.8277866e+02 </wgt>
<wgt id='2103'> -2.8191246e+02 </wgt>
<wgt id='2104'> -2.8083879e+02 </wgt>
<wgt id='2105'> -2.8150469e+02 </wgt>
<wgt id='2106'> -2.8113532e+02 </wgt>
<wgt id='2107'> -2.8137804e+02 </wgt>
<wgt id='2108'> -2.8114326e+02 </wgt>
<wgt id='2109'> -2.8096179e+02 </wgt>
<wgt id='2110'> -2.8134729e+02 </wgt>
<wgt id='2111'> -2.8151614e+02 </wgt>
<wgt id='2112'> -2.8048723e+02 </wgt>
<wgt id='2113'> -2.8152321e+02 </wgt>
<wgt id='2114'> -2.8077246e+02 </wgt>
<wgt id='2115'> -2.8128452e+02 </wgt>
<wgt id='2116'> -2.8111401e+02 </wgt>
<wgt id='2117'> -2.8202958e+02 </wgt>
<wgt id='2118'> -2.8098082e+02 </wgt>
<wgt id='2119'> -2.8156441e+02 </wgt>
<wgt id='2120'> -2.8124116e+02 </wgt>
<wgt id='2121'> -2.8086089e+02 </wgt>
<wgt id='2122'> -2.8141482e+02 </wgt>
<wgt id='2123'> -2.8111213e+02 </wgt>
<wgt id='2124'> -2.8141222e+02 </wgt>
<wgt id='2125'> -2.8136245e+02 </wgt>
<wgt id='2126'> -2.8107588e+02 </wgt>
<wgt id='2127'> -2.8097859e+02 </wgt>
<wgt id='2128'> -2.8123529e+02 </wgt>
<wgt id='2129'> -2.8099552e+02 </wgt>
<wgt id='2130'> -2.8148436e+02 </wgt>
<wgt id='2131'> -2.8126537e+02 </wgt>
<wgt id='2132'> -2.8135576e+02 </wgt>
<wgt id='2133'> -2.8085626e+02 </wgt>
<wgt id='2134'> -2.8143118e+02 </wgt>
<wgt id='2135'> -2.8140650e+02 </wgt>
<wgt id='2136'> -2.8142329e+02 </wgt>
<wgt id='2137'> -2.8148983e+02 </wgt>
<wgt id='2138'> -2.8143418e+02 </wgt>
<wgt id='2139'> -2.8139166e+02 </wgt>
<wgt id='2140'> -2.8151856e+02 </wgt>
<wgt id='2141'> -2.8134551e+02 </wgt>
<wgt id='2142'> -2.8133437e+02 </wgt>
<wgt id='2143'> -2.8130121e+02 </wgt>
<wgt id='2144'> -2.8120283e+02 </wgt>
<wgt id='2145'> -2.8104857e+02 </wgt>
<wgt id='2146'> -2.8133055e+02 </wgt>
<wgt id='2147'> -2.8119744e+02 </wgt>
<wgt id='2148'> -2.8126910e+02 </wgt>
<wgt id='2149'> -2.8149724e+02 </wgt>
<wgt id='2150'> -2.8127058e+02 </wgt>
<wgt id='2151'> -2.8138728e+02 </wgt>
<wgt id='2152'> -2.8126443e+02 </wgt>
<wgt id='2153'> -2.8124925e+02 </wgt>
<wgt id='2154'> -2.8115984e+02 </wgt>
<wgt id='2155'> -2.8145450e+02 </wgt>
<wgt id='2156'> -2.8102819e+02 </wgt>
<wgt id='2157'> -2.8120772e+02 </wgt>
<wgt id='2158'> -2.8122565e+02 </wgt>
<wgt id='2159'> -2.8138016e+02 </wgt>
<wgt id='2160'> -2.8110775e+02 </wgt>
<wgt id='2161'> -2.8122728e+02 </wgt>
<wgt id='2162'> -2.8118188e+02 </wgt>
<wgt id='2163'> -2.8130230e+02 </wgt>
<wgt id='2164'> -2.8121359e+02 </wgt>
<wgt id='2165'> -2.8118346e+02 </wgt>
<wgt id='2166'> -2.8129482e+02 </wgt>
<wgt id='2167'> -2.8131787e+02 </wgt>
<wgt id='2168'> -2.8128173e+02 </wgt>
<wgt id='2169'> -2.8123908e+02 </wgt>
<wgt id='2170'> -2.8126745e+02 </wgt>
<wgt id='2171'> -2.8125952e+02 </wgt>
<wgt id='2172'> -2.8127037e+02 </wgt>
<wgt id='2173'> -2.8127061e+02 </wgt>
<wgt id='2174'> -2.8127322e+02 </wgt>
<wgt id='2175'> -2.8126951e+02 </wgt>
<wgt id='2176'> -2.8126262e+02 </wgt>
<wgt id='2177'> -2.8231580e+02 </wgt>
<wgt id='2178'> -2.7876140e+02 </wgt>
<wgt id='2179'> -2.8095943e+02 </wgt>
<wgt id='2180'> -2.8588342e+02 </wgt>
<wgt id='2181'> -2.8525278e+02 </wgt>
<wgt id='2182'> -2.7598360e+02 </wgt>
<wgt id='2183'> -2.8709573e+02 </wgt>
<wgt id='2184'> -2.8036866e+02 </wgt>
<wgt id='2185'> -2.7922657e+02 </wgt>
<wgt id='2186'> -2.8292595e+02 </wgt>
<wgt id='2187'> -2.7791204e+02 </wgt>
<wgt id='2188'> -2.7483522e+02 </wgt>
<wgt id='2189'> -2.8610332e+02 </wgt>
<wgt id='2190'> -2.8928119e+02 </wgt>
<wgt id='2191'> -2.7732741e+02 </wgt>
<wgt id='2192'> -2.8412777e+02 </wgt>
<wgt id='2193'> -2.8014220e+02 </wgt>
<wgt id='2194'> -2.7736744e+02 </wgt>
<wgt id='2195'> -2.7679715e+02 </wgt>
<wgt id='2196'> -2.8455304e+02 </wgt>
<wgt id='2197'> -2.8017028e+02 </wgt>
<wgt id='2198'> -2.8806337e+02 </wgt>
<wgt id='2199'> -2.7705576e+02 </wgt>
<wgt id='2200'> -2.9734980e+02 </wgt>
<wgt id='2201'> -2.8185640e+02 </wgt>
<wgt id='2202'> -2.8244745e+02 </wgt>
<wgt id='2203'> -2.8350514e+02 </wgt>
<wgt id='2204'> -2.7572140e+02 </wgt>
<wgt id='2205'> -2.7903716e+02 </wgt>
<wgt id='2206'> -2.7928694e+02 </wgt>
<wgt id='2207'> -2.8506342e+02 </wgt>
<wgt id='2208'> -2.8152258e+02 </wgt>
<wgt id='2209'> -2.8084789e+02 </wgt>
<wgt id='2210'> -2.7825233e+02 </wgt>
<wgt id='2211'> -2.8684487e+02 </wgt>
<wgt id='2212'> -2.8484812e+02 </wgt>
<wgt id='2213'> -2.8588330e+02 </wgt>
<wgt id='2214'> -2.7844703e+02 </wgt>
<wgt id='2215'> -2.8607198e+02 </wgt>
<wgt id='2216'> -2.7999083e+02 </wgt>
<wgt id='2217'> -2.8211570e+02 </wgt>
<wgt id='2218'> -2.8926737e+02 </wgt>
<wgt id='2219'> -2.8563980e+02 </wgt>
<wgt id='2220'> -2.8396462e+02 </wgt>
<wgt id='2221'> -2.8098007e+02 </wgt>
<wgt id='2222'> -2.8012951e+02 </wgt>
<wgt id='2223'> -2.8949966e+02 </wgt>
<wgt id='2224'> -2.7979311e+02 </wgt>
<wgt id='2225'> -2.8231992e+02 </wgt>
<wgt id='2226'> -2.7782793e+02 </wgt>
<wgt id='2227'> -2.8359034e+02 </wgt>
<wgt id='2228'> -2.8271781e+02 </wgt>
<wgt id='2229'> -2.8065863e+02 </wgt>
<wgt id='2230'> -2.8627873e+02 </wgt>
<wgt id='2231'> -2.8659924e+02 </wgt>
<wgt id='2232'> -2.8287498e+02 </wgt>
<wgt id='2233'> -2.7855729e+02 </wgt>
<wgt id='2234'> -2.8811753e+02 </wgt>
<wgt id='2235'> -2.8224121e+02 </wgt>
<wgt id='2236'> -2.8027219e+02 </wgt>
<wgt id='2237'> -2.8342245e+02 </wgt>
<wgt id='2238'> -2.8214244e+02 </wgt>
<wgt id='2239'> -2.8086533e+02 </wgt>
<wgt id='2240'> -2.8887109e+02 </wgt>
<wgt id='2241'> -2.6787328e+02 </wgt>
<wgt id='2242'> -2.8743746e+02 </wgt>
<wgt id='2243'> -2.7886459e+02 </wgt>
<wgt id='2244'> -2.9181514e+02 </wgt>
<wgt id='2245'> -2.8329171e+02 </wgt>
<wgt id='2246'> -2.7867146e+02 </wgt>
<wgt id='2247'> -2.7670518e+02 </wgt>
<wgt id='2248'> -2.8611531e+02 </wgt>
<wgt id='2249'> -2.8504375e+02 </wgt>
<wgt id='2250'> -2.7848616e+02 </wgt>
<wgt id='2251'> -2.8866642e+02 </wgt>
<wgt id='2252'> -2.8265489e+02 </wgt>
<wgt id='2253'> -2.8330247e+02 </wgt>
<wgt id='2254'> -2.8247506e+02 </wgt>
<wgt id='2255'> -2.8792011e+02 </wgt>
<wgt id='2256'> -2.8174988e+02 </wgt>
<wgt id='2257'> -2.8037531e+02 </wgt>
<wgt id='2258'> -2.8635746e+02 </wgt>
<wgt id='2259'> -2.8291872e+02 </wgt>
<wgt id='2260'> -2.8083801e+02 </wgt>
<wgt id='2261'> -2.8115495e+02 </wgt>
<wgt id='2262'> -2.7664979e+02 </wgt>
<wgt id='2263'> -2.7668822e+02 </wgt>
<wgt id='2264'> -2.8313239e+02 </wgt>
<wgt id='2265'> -2.8533438e+02 </wgt>
<wgt id='2266'> -2.8513200e+02 </wgt>
<wgt id='2267'> -2.7930249e+02 </wgt>
<wgt id='2268'> -2.8166949e+02 </wgt>
<wgt id='2269'> -2.8191775e+02 </wgt>
<wgt id='2270'> -2.7975222e+02 </wgt>
<wgt id='2271'> -2.8379702e+02 </wgt>
<wgt id='2272'> -2.6944515e+02 </wgt>
<wgt id='2273'> -2.8618317e+02 </wgt>
<wgt id='2274'> -2.8004872e+02 </wgt>
<wgt id='2275'> -2.9093233e+02 </wgt>
<wgt id='2276'> -2.8577304e+02 </wgt>
<wgt id='2277'> -2.7645737e+02 </wgt>
<wgt id='2278'> -2.7004907e+02 </wgt>
<wgt id='2279'> -2.9509954e+02 </wgt>
<wgt id='2280'> -2.8162259e+02 </wgt>
<wgt id='2281'> -2.5108022e+02 </wgt>
<wgt id='2282'> -4.2545823e+02 </wgt>
<wgt id='2283'> -2.5753057e+02 </wgt>
<wgt id='2284'> -4.2848351e+02 </wgt>
</rwgt>
</event>
<event npLO=" -1 " npNLO=" 0 ">
 3      0 +2.8781417e+02 2.04734840e+01 7.54677110e-03 1.15387480e-01
       21 -1    0    0  502  501 +0.0000000000e+00 +0.0000000000e+00 +1.2931736000e+01 1.2931736000e+01 0.0000000000e+00 0.0000e+00 9.0000e+00
       21 -1    0    0  501  502 +0.0000000000e+00 +0.0000000000e+00 -1.9332285000e+02 1.9332285000e+02 0.0000000000e+00 0.0000e+00 9.0000e+00
       25  1    1    2    0    0 +0.0000000000e+00 +0.0000000000e+00 -1.8039111000e+02 2.0625458000e+02 1.0000000000e+02 0.0000e+00 9.0000e+00
#aMCatNLO 1  0  0  2  1 0.43774619E+02 0.00000000E+00 -9  4  0 0.00000000E+00 0.00000000E+00 0.00000000E+00 0.00000000E+00 0.00000000E+00
<rwgt>
<wgt id='1001'> +2.8781417e+02 </wgt>
<wgt id='1002'> +2.3574478e+02 </wgt>
<wgt id='1003'> +3.5978637e+02 </wgt>
<wgt id='1004'> +3.4821722e+02 </wgt>
<wgt id='1005'> +2.8207970e+02 </wgt>
<wgt id='1006'> +4.4115314e+02 </wgt>
<wgt id='1007'> +2.2992492e+02 </wgt>
<wgt id='1008'> +1.9084932e+02 </wgt>
<wgt id='1009'> +2.8271794e+02 </wgt>
<wgt id='1010'> +2.8781417e+02 </wgt>
<wgt id='1011'> +2.8873727e+02 </wgt>
<wgt id='1012'> +2.8704297e+02 </wgt>
<wgt id='1013'> +2.8790023e+02 </wgt>
<wgt id='1014'> +2.8837486e+02 </wgt>
<wgt id='1015'> +2.8881493e+02 </wgt>
<wgt id='1016'> +2.8819045e+02 </wgt>
<wgt id='1017'> +2.8901487e+02 </wgt>
<wgt id='1018'> +2.8926146e+02 </wgt>
<wgt id='1019'> +2.8757612e+02 </wgt>
<wgt id='1020'> +2.8820296e+02 </wgt>
<wgt id='1021'> +2.8646307e+02 </wgt>
<wgt id='1022'> +2.8844926e+02 </wgt>
<wgt id='1023'> +2.8743949e+02 </wgt>
<wgt id='1024'> +2.8744689e+02 </wgt>
<wgt id='1025'> +2.8805746e+02 </wgt>
<wgt id='1026'> +2.8688885e+02 </wgt>
<wgt id='1027'> +2.8643924e+02 </wgt>
<wgt id='1028'> +2.8907065e+02 </wgt>
<wgt id='1029'> +2.8997078e+02 </wgt>
<wgt id='1030'> +2.8683271e+02 </wgt>
<wgt id='1031'> +2.8905548e+02 </wgt>
<wgt id='1032'> +2.8683038e+02 </wgt>
<wgt id='1033'> +2.8799412e+02 </wgt>
<wgt id='1034'> +2.8803271e+02 </wgt>
<wgt id='1035'> +2.8774764e+02 </wgt>
<wgt id='1036'> +2.8742906e+02 </wgt>
<wgt id='1037'> +2.8744836e+02 </wgt>
<wgt id='1038'> +2.8818454e+02 </wgt>
<wgt id='1039'> +2.8741557e+02 </wgt>
<wgt id='1040'> +2.8772286e+02 </wgt>
<wgt id='1041'> +2.8724673e+02 </wgt>
<wgt id='1042'> +2.8792966e+02 </wgt>
<wgt id='1043'> +2.8740556e+02 </wgt>
<wgt id='1044'> +2.8754890e+02 </wgt>
<wgt id='1045'> +2.8782339e+02 </wgt>
<wgt id='1046'> +2.8804822e+02 </wgt>
<wgt id='1047'> +2.8783152e+02 </wgt>
<wgt id='1048'> +2.8792021e+02 </wgt>
<wgt id='1049'> +2.8778287e+02 </wgt>
<wgt id='1050'> +2.8782505e+02 </wgt>
<wgt id='1051'> +2.8796806e+02 </wgt>
<wgt id='1052'> +2.8798608e+02 </wgt>
<wgt id='1053'> +2.8759964e+02 </wgt>
<wgt id='1054'> +2.8787603e+02 </wgt>
<wgt id='1055'> +2.8784124e+02 </wgt>
<wgt id='1056'> +2.8791929e+02 </wgt>
<wgt id='1057'> +2.8778187e+02 </wgt>
<wgt id='1058'> +2.8777241e+02 </wgt>
<wgt id='1059'> +2.8771385e+02 </wgt>
<wgt id='1060'> +2.8780933e+02 </wgt>
<wgt id='1061'> +2.8779086e+02 </wgt>
<wgt id='1062'> +2.8785604e+02 </wgt>
<wgt id='1063'> +2.8775553e+02 </wgt>
<wgt id='1064'> +2.8780098e+02 </wgt>
<wgt id='1065'> +2.8792618e+02 </wgt>
<wgt id='1066'> +2.8778216e+02 </wgt>
<wgt id='1067'> +2.8789408e+02 </wgt>
<wgt id='1068'> +2.8778592e+02 </wgt>
<wgt id='1069'> +2.8786871e+02 </wgt>
<wgt id='1070'> +2.8780605e+02 </wgt>
<wgt id='1071'> +2.8780027e+02 </wgt>
<wgt id='1072'> +2.8795582e+02 </wgt>
<wgt id='1073'> +2.8784830e+02 </wgt>
<wgt id='1074'> +2.8789359e+02 </wgt>
<wgt id='1075'> +2.8795479e+02 </wgt>
<wgt id='1076'> +2.8788936e+02 </wgt>
<wgt id='1077'> +2.8789119e+02 </wgt>
<wgt id='1078'> +2.8784279e+02 </wgt>
<wgt id='1079'> +2.8782807e+02 </wgt>
<wgt id='1080'> +2.8782932e+02 </wgt>
<wgt id='1081'> +2.8787106e+02 </wgt>
<wgt id='1082'> +2.8783449e+02 </wgt>
<wgt id='1083'> +2.8783766e+02 </wgt>
<wgt id='1084'> +2.8781940e+02 </wgt>
<wgt id='1085'> +2.8776947e+02 </wgt>
<wgt id='1086'> +2.8776280e+02 </wgt>
<wgt id='1087'> +2.8796060e+02 </wgt>
<wgt id='1088'> +2.8779771e+02 </wgt>
<wgt id='1089'> +2.8778315e+02 </wgt>
<wgt id='1090'> +2.8784345e+02 </wgt>
<wgt id='1091'> +2.8775664e+02 </wgt>
<wgt id='1092'> +2.8784740e+02 </wgt>
<wgt id='1093'> +2.8784401e+02 </wgt>
<wgt id='1094'> +2.8784137e+02 </wgt>
<wgt id='1095'> +2.8780242e+02 </wgt>
<wgt id='1096'> +2.8776793e+02 </wgt>
<wgt id='1097'> +2.8783287e+02 </wgt>
<wgt id='1098'> +2.8781855e+02 </wgt>
<wgt id='1099'> +2.8782005e+02 </wgt>
<wgt id='1100'> +2.8784000e+02 </wgt>
<wgt id='1101'> +2.8782280e+02 </wgt>
<wgt id='1102'> +2.8784399e+02 </wgt>
<wgt id='1103'> +2.8778420e+02 </wgt>
<wgt id='1104'> +2.8777171e+02 </wgt>
<wgt id='1105'> +2.8782412e+02 </wgt>
<wgt id='1106'> +2.8779471e+02 </wgt>
<wgt id='1107'> +2.8781797e+02 </wgt>
<wgt id='1108'> +2.8781579e+02 </wgt>
<wgt id='1109'> +2.8783925e+02 </wgt>
<wgt id='1110'> +2.8781416e+02 </wgt>
<wgt id='1111'> +2.7934825e+02 </wgt>
<wgt id='1112'> +2.9461614e+02 </wgt>
<wgt id='1113'> +2.8781416e+02 </wgt>
<wgt id='1114'> +2.8200031e+02 </wgt>
<wgt id='1115'> +2.8855448e+02 </wgt>
<wgt id='1116'> +2.9302715e+02 </wgt>
<wgt id='1117'> +2.8795525e+02 </wgt>
<wgt id='1118'> +2.8704533e+02 </wgt>
<wgt id='1119'> +2.8167107e+02 </wgt>
<wgt id='1120'> +2.8553197e+02 </wgt>
<wgt id='1121'> +2.8646034e+02 </wgt>
<wgt id='1122'> +2.9380986e+02 </wgt>
<wgt id='1123'> +2.9125238e+02 </wgt>
<wgt id='1124'> +2.9288953e+02 </wgt>
<wgt id='1125'> +2.8339941e+02 </wgt>
<wgt id='1126'> +2.8777726e+02 </wgt>
<wgt id='1127'> +2.8213477e+02 </wgt>
<wgt id='1128'> +2.9741313e+02 </wgt>
<wgt id='1129'> +2.9545045e+02 </wgt>
<wgt id='1130'> +2.9136172e+02 </wgt>
<wgt id='1131'> +2.8750685e+02 </wgt>
<wgt id='1132'> +2.8656645e+02 </wgt>
<wgt id='1133'> +2.9053354e+02 </wgt>
<wgt id='1134'> +2.8077708e+02 </wgt>
<wgt id='1135'> +2.8856642e+02 </wgt>
<wgt id='1136'> +2.8616779e+02 </wgt>
<wgt id='1137'> +2.8501805e+02 </wgt>
<wgt id='1138'> +2.8454711e+02 </wgt>
<wgt id='1139'> +2.9083973e+02 </wgt>
<wgt id='1140'> +2.8843664e+02 </wgt>
<wgt id='1141'> +2.8194109e+02 </wgt>
<wgt id='1142'> +2.8947264e+02 </wgt>
<wgt id='1143'> +2.9238398e+02 </wgt>
<wgt id='1144'> +2.8815322e+02 </wgt>
<wgt id='1145'> +2.8751239e+02 </wgt>
<wgt id='1146'> +2.8307101e+02 </wgt>
<wgt id='1147'> +2.8229654e+02 </wgt>
<wgt id='1148'> +2.9331610e+02 </wgt>
<wgt id='1149'> +2.8346657e+02 </wgt>
<wgt id='1150'> +2.9460387e+02 </wgt>
<wgt id='1151'> +2.8616343e+02 </wgt>
<wgt id='1152'> +2.8809496e+02 </wgt>
<wgt id='1153'> +2.8641813e+02 </wgt>
<wgt id='1154'> +2.8836073e+02 </wgt>
<wgt id='1155'> +2.8091021e+02 </wgt>
<wgt id='1156'> +2.8686405e+02 </wgt>
<wgt id='1157'> +2.7928199e+02 </wgt>
<wgt id='1158'> +2.8767625e+02 </wgt>
<wgt id='1159'> +2.9042545e+02 </wgt>
<wgt id='1160'> +2.7968769e+02 </wgt>
<wgt id='1161'> +2.8461921e+02 </wgt>
<wgt id='1162'> +2.9214537e+02 </wgt>
<wgt id='1163'> +2.9109642e+02 </wgt>
<wgt id='1164'> +2.8363135e+02 </wgt>
<wgt id='1165'> +2.8477384e+02 </wgt>
<wgt id='1166'> +2.8689813e+02 </wgt>
<wgt id='1167'> +2.8895731e+02 </wgt>
<wgt id='1168'> +2.8332227e+02 </wgt>
<wgt id='1169'> +2.8605597e+02 </wgt>
<wgt id='1170'> +2.9132070e+02 </wgt>
<wgt id='1171'> +2.8376311e+02 </wgt>
<wgt id='1172'> +2.9436610e+02 </wgt>
<wgt id='1173'> +2.8891848e+02 </wgt>
<wgt id='1174'> +2.8851977e+02 </wgt>
<wgt id='1175'> +2.8855098e+02 </wgt>
<wgt id='1176'> +2.8231120e+02 </wgt>
<wgt id='1177'> +2.8545435e+02 </wgt>
<wgt id='1178'> +2.8678335e+02 </wgt>
<wgt id='1179'> +2.8700651e+02 </wgt>
<wgt id='1180'> +2.8002166e+02 </wgt>
<wgt id='1181'> +2.9246574e+02 </wgt>
<wgt id='1182'> +2.8319414e+02 </wgt>
<wgt id='1183'> +2.8080790e+02 </wgt>
<wgt id='1184'> +2.9422788e+02 </wgt>
<wgt id='1185'> +2.9698015e+02 </wgt>
<wgt id='1186'> +2.9227750e+02 </wgt>
<wgt id='1187'> +2.9653874e+02 </wgt>
<wgt id='1188'> +2.9112886e+02 </wgt>
<wgt id='1189'> +2.9073553e+02 </wgt>
<wgt id='1190'> +2.8603452e+02 </wgt>
<wgt id='1191'> +2.9004946e+02 </wgt>
<wgt id='1192'> +2.8749000e+02 </wgt>
<wgt id='1193'> +2.8132475e+02 </wgt>
<wgt id='1194'> +2.8101302e+02 </wgt>
<wgt id='1195'> +2.9545045e+02 </wgt>
<wgt id='1196'> +2.8483945e+02 </wgt>
<wgt id='1197'> +2.9140249e+02 </wgt>
<wgt id='1198'> +3.0234834e+02 </wgt>
<wgt id='1199'> +2.7768995e+02 </wgt>
<wgt id='1200'> +2.9302170e+02 </wgt>
<wgt id='1201'> +2.8736558e+02 </wgt>
<wgt id='1202'> +2.9579592e+02 </wgt>
<wgt id='1203'> +2.8042908e+02 </wgt>
<wgt id='1204'> +2.8218757e+02 </wgt>
<wgt id='1205'> +2.9215750e+02 </wgt>
<wgt id='1206'> +2.9242930e+02 </wgt>
<wgt id='1207'> +2.8629707e+02 </wgt>
<wgt id='1208'> +2.8695888e+02 </wgt>
<wgt id='1209'> +2.8530388e+02 </wgt>
<wgt id='1210'> +2.8191206e+02 </wgt>
<wgt id='1211'> +2.9143363e+02 </wgt>
<wgt id='1212'> +2.9268187e+02 </wgt>
<wgt id='1213'> +2.9254089e+02 </wgt>
<wgt id='1214'> +2.8745064e+02 </wgt>
<wgt id='1215'> +2.8698280e+02 </wgt>
<wgt id='1216'> +2.8839363e+02 </wgt>
<wgt id='1217'> +2.8814992e+02 </wgt>
<wgt id='1218'> +2.8750633e+02 </wgt>
<wgt id='1219'> +2.8709883e+02 </wgt>
<wgt id='1220'> +2.8699635e+02 </wgt>
<wgt id='1221'> +2.8669289e+02 </wgt>
<wgt id='1222'> +2.8742756e+02 </wgt>
<wgt id='1223'> +2.8740004e+02 </wgt>
<wgt id='1224'> +2.8715948e+02 </wgt>
<wgt id='1225'> +2.8858387e+02 </wgt>
<wgt id='1226'> +2.8880577e+02 </wgt>
<wgt id='1227'> +2.8918792e+02 </wgt>
<wgt id='1228'> +2.8862088e+02 </wgt>
<wgt id='1229'> +2.8829546e+02 </wgt>
<wgt id='1230'> +2.8733595e+02 </wgt>
<wgt id='1231'> +2.8743385e+02 </wgt>
<wgt id='1232'> +2.8858766e+02 </wgt>
<wgt id='1233'> +2.8729673e+02 </wgt>
<wgt id='1234'> +2.8904735e+02 </wgt>
<wgt id='1235'> +2.8662855e+02 </wgt>
<wgt id='1236'> +2.8866351e+02 </wgt>
<wgt id='1237'> +2.8817001e+02 </wgt>
<wgt id='1238'> +2.8769930e+02 </wgt>
<wgt id='1239'> +2.8849692e+02 </wgt>
<wgt id='1240'> +2.8794180e+02 </wgt>
<wgt id='1241'> +2.8719345e+02 </wgt>
<wgt id='1242'> +2.8722140e+02 </wgt>
<wgt id='1243'> +2.8743758e+02 </wgt>
<wgt id='1244'> +2.8767205e+02 </wgt>
<wgt id='1245'> +2.8753783e+02 </wgt>
<wgt id='1246'> +2.8758153e+02 </wgt>
<wgt id='1247'> +2.8754367e+02 </wgt>
<wgt id='1248'> +2.8728203e+02 </wgt>
<wgt id='1249'> +2.8743074e+02 </wgt>
<wgt id='1250'> +2.8741062e+02 </wgt>
<wgt id='1251'> +2.8737801e+02 </wgt>
<wgt id='1252'> +2.8756827e+02 </wgt>
<wgt id='1253'> +2.8760242e+02 </wgt>
<wgt id='1254'> +2.8739825e+02 </wgt>
<wgt id='1255'> +2.8729761e+02 </wgt>
<wgt id='1256'> +2.8718373e+02 </wgt>
<wgt id='1257'> +2.8764617e+02 </wgt>
<wgt id='1258'> +2.8753839e+02 </wgt>
<wgt id='1259'> +2.8747410e+02 </wgt>
<wgt id='1260'> +2.8758049e+02 </wgt>
<wgt id='1261'> +2.8749314e+02 </wgt>
<wgt id='1262'> +2.8749971e+02 </wgt>
<wgt id='1263'> +2.8746620e+02 </wgt>
<wgt id='1264'> +2.8759208e+02 </wgt>
<wgt id='1265'> +2.8736368e+02 </wgt>
<wgt id='1266'> +2.8727236e+02 </wgt>
<wgt id='1267'> +2.8736804e+02 </wgt>
<wgt id='1268'> +2.8748634e+02 </wgt>
<wgt id='1269'> +2.8748577e+02 </wgt>
<wgt id='1270'> +2.8746484e+02 </wgt>
<wgt id='1271'> +2.8732158e+02 </wgt>
<wgt id='1272'> +2.8745985e+02 </wgt>
<wgt id='1273'> +2.8742060e+02 </wgt>
<wgt id='1274'> +2.8744245e+02 </wgt>
<wgt id='1275'> +2.8748727e+02 </wgt>
<wgt id='1276'> +2.8752390e+02 </wgt>
<wgt id='1277'> +2.8738597e+02 </wgt>
<wgt id='1278'> +2.8746444e+02 </wgt>
<wgt id='1279'> +2.8748486e+02 </wgt>
<wgt id='1280'> +2.8747209e+02 </wgt>
<wgt id='1281'> +2.8744414e+02 </wgt>
<wgt id='1282'> +2.8747157e+02 </wgt>
<wgt id='1283'> +2.8739334e+02 </wgt>
<wgt id='1284'> +2.8739069e+02 </wgt>
<wgt id='1285'> +2.8735202e+02 </wgt>
<wgt id='1286'> +2.8744004e+02 </wgt>
<wgt id='1287'> +2.8744516e+02 </wgt>
<wgt id='1288'> +2.8731281e+02 </wgt>
<wgt id='1289'> +2.8748781e+02 </wgt>
<wgt id='1290'> +2.8740895e+02 </wgt>
<wgt id='1291'> +2.8742488e+02 </wgt>
<wgt id='1292'> +2.8747766e+02 </wgt>
<wgt id='1293'> +2.8747051e+02 </wgt>
<wgt id='1294'> +2.8743889e+02 </wgt>
<wgt id='1295'> +2.8746646e+02 </wgt>
<wgt id='1296'> +2.8745224e+02 </wgt>
<wgt id='1297'> +2.8746144e+02 </wgt>
<wgt id='1298'> +2.8745331e+02 </wgt>
<wgt id='1299'> +2.8743409e+02 </wgt>
<wgt id='1300'> +2.8746020e+02 </wgt>
<wgt id='1301'> +2.8745216e+02 </wgt>
<wgt id='1302'> +2.8745425e+02 </wgt>
<wgt id='1303'> +2.8745708e+02 </wgt>
<wgt id='1304'> +2.8746290e+02 </wgt>
<wgt id='1305'> +2.8745642e+02 </wgt>
<wgt id='1306'> +2.8747141e+02 </wgt>
<wgt id='1307'> +2.8744684e+02 </wgt>
<wgt id='1308'> +2.8747118e+02 </wgt>
<wgt id='1309'> +2.8745227e+02 </wgt>
<wgt id='1310'> +2.8744203e+02 </wgt>
<wgt id='1311'> +2.8745940e+02 </wgt>
<wgt id='1312'> +2.8744372e+02 </wgt>
<wgt id='1313'> +2.8746597e+02 </wgt>
<wgt id='1314'> +2.8744287e+02 </wgt>
<wgt id='1315'> +2.7934825e+02 </wgt>
<wgt id='1316'> +2.9461614e+02 </wgt>
<wgt id='1317'> +2.5051267e+02 </wgt>
<wgt id='1318'> +2.5720561e+02 </wgt>
<wgt id='1319'> +2.6472679e+02 </wgt>
<wgt id='1320'> +2.7292962e+02 </wgt>
<wgt id='1321'> +2.8408409e+02 </wgt>
<wgt id='1322'> +2.9189808e+02 </wgt>
<wgt id='1323'> +3.0143328e+02 </wgt>
<wgt id='1324'> +3.0893613e+02 </wgt>
<wgt id='1325'> +2.9217069e+02 </wgt>
<wgt id='1326'> +2.9312325e+02 </wgt>
<wgt id='1327'> +2.9119648e+02 </wgt>
<wgt id='1328'> +2.9299958e+02 </wgt>
<wgt id='1329'> +2.9255679e+02 </wgt>
<wgt id='1330'> +2.9318217e+02 </wgt>
<wgt id='1331'> +2.9245739e+02 </wgt>
<wgt id='1332'> +2.9238345e+02 </wgt>
<wgt id='1333'> +2.9154498e+02 </wgt>
<wgt id='1334'> +2.9138785e+02 </wgt>
<wgt id='1335'> +2.9123906e+02 </wgt>
<wgt id='1336'> +2.9277361e+02 </wgt>
<wgt id='1337'> +2.9395915e+02 </wgt>
<wgt id='1338'> +2.9043771e+02 </wgt>
<wgt id='1339'> +2.9311284e+02 </wgt>
<wgt id='1340'> +2.9255524e+02 </wgt>
<wgt id='1341'> +2.9245911e+02 </wgt>
<wgt id='1342'> +2.9329750e+02 </wgt>
<wgt id='1343'> +2.9293292e+02 </wgt>
<wgt id='1344'> +2.9073773e+02 </wgt>
<wgt id='1345'> +2.9108522e+02 </wgt>
<wgt id='1346'> +2.9066422e+02 </wgt>
<wgt id='1347'> +2.9204185e+02 </wgt>
<wgt id='1348'> +2.9132993e+02 </wgt>
<wgt id='1349'> +2.9132771e+02 </wgt>
<wgt id='1350'> +2.9205642e+02 </wgt>
<wgt id='1351'> +2.9275706e+02 </wgt>
<wgt id='1352'> +2.9228271e+02 </wgt>
<wgt id='1353'> +2.9143066e+02 </wgt>
<wgt id='1354'> +2.9233936e+02 </wgt>
<wgt id='1355'> +2.9218168e+02 </wgt>
<wgt id='1356'> +2.9213166e+02 </wgt>
<wgt id='1357'> +2.9220711e+02 </wgt>
<wgt id='1358'> +2.9203291e+02 </wgt>
<wgt id='1359'> +2.9229574e+02 </wgt>
<wgt id='1360'> +2.9203917e+02 </wgt>
<wgt id='1361'> +2.9218254e+02 </wgt>
<wgt id='1362'> +2.9222209e+02 </wgt>
<wgt id='1363'> +2.9214523e+02 </wgt>
<wgt id='1364'> +2.9240652e+02 </wgt>
<wgt id='1365'> +2.9219024e+02 </wgt>
<wgt id='1366'> +2.9202381e+02 </wgt>
<wgt id='1367'> +2.9200127e+02 </wgt>
<wgt id='1368'> +2.9200543e+02 </wgt>
<wgt id='1369'> +2.9233369e+02 </wgt>
<wgt id='1370'> +2.9229830e+02 </wgt>
<wgt id='1371'> +2.9217201e+02 </wgt>
<wgt id='1372'> +2.9208820e+02 </wgt>
<wgt id='1373'> +2.9227019e+02 </wgt>
<wgt id='1374'> +2.9208633e+02 </wgt>
<wgt id='1375'> +2.9215873e+02 </wgt>
<wgt id='1376'> +2.9235646e+02 </wgt>
<wgt id='1377'> +2.9217785e+02 </wgt>
<wgt id='1378'> +2.9216101e+02 </wgt>
<wgt id='1379'> +2.9212639e+02 </wgt>
<wgt id='1380'> +2.9237515e+02 </wgt>
<wgt id='1381'> +2.9221519e+02 </wgt>
<wgt id='1382'> +2.9216450e+02 </wgt>
<wgt id='1383'> +2.9215627e+02 </wgt>
<wgt id='1384'> +2.9219727e+02 </wgt>
<wgt id='1385'> +2.9219307e+02 </wgt>
<wgt id='1386'> +2.9231820e+02 </wgt>
<wgt id='1387'> +2.9218786e+02 </wgt>
<wgt id='1388'> +2.9215021e+02 </wgt>
<wgt id='1389'> +2.9220190e+02 </wgt>
<wgt id='1390'> +2.9219508e+02 </wgt>
<wgt id='1391'> +2.9220138e+02 </wgt>
<wgt id='1392'> +2.9210996e+02 </wgt>
<wgt id='1393'> +2.9215668e+02 </wgt>
<wgt id='1394'> +2.9208267e+02 </wgt>
<wgt id='1395'> +2.9203452e+02 </wgt>
<wgt id='1396'> +2.9217783e+02 </wgt>
<wgt id='1397'> +2.9225391e+02 </wgt>
<wgt id='1398'> +2.9222059e+02 </wgt>
<wgt id='1399'> +2.9217501e+02 </wgt>
<wgt id='1400'> +2.9222902e+02 </wgt>
<wgt id='1401'> +2.9218766e+02 </wgt>
<wgt id='1402'> +2.9214372e+02 </wgt>
<wgt id='1403'> +2.9222378e+02 </wgt>
<wgt id='1404'> +2.9216319e+02 </wgt>
<wgt id='1405'> +2.9213889e+02 </wgt>
<wgt id='1406'> +2.9215786e+02 </wgt>
<wgt id='1407'> +2.9217040e+02 </wgt>
<wgt id='1408'> +2.9213881e+02 </wgt>
<wgt id='1409'> +2.9213212e+02 </wgt>
<wgt id='1410'> +2.9217811e+02 </wgt>
<wgt id='1411'> +2.9216883e+02 </wgt>
<wgt id='1412'> +2.9214745e+02 </wgt>
<wgt id='1413'> +2.9215757e+02 </wgt>
<wgt id='1414'> +2.9217686e+02 </wgt>
<wgt id='1415'> +2.9217226e+02 </wgt>
<wgt id='1416'> +2.9217795e+02 </wgt>
<wgt id='1417'> +2.9216770e+02 </wgt>
<wgt id='1418'> +2.9216950e+02 </wgt>
<wgt id='1419'> +2.9218182e+02 </wgt>
<wgt id='1420'> +2.9217781e+02 </wgt>
<wgt id='1421'> +2.9217766e+02 </wgt>
<wgt id='1422'> +2.9216470e+02 </wgt>
<wgt id='1423'> +2.9218277e+02 </wgt>
<wgt id='1424'> +2.9217920e+02 </wgt>
<wgt id='1425'> +2.9217848e+02 </wgt>
<wgt id='1426'> +2.8434845e+02 </wgt>
<wgt id='1427'> +3.0128135e+02 </wgt>
<wgt id='1428'> +2.7712347e+02 </wgt>
<wgt id='1429'> +2.7610721e+02 </wgt>
<wgt id='1430'> +2.7650788e+02 </wgt>
<wgt id='1431'> +2.7548998e+02 </wgt>
<wgt id='1432'> +2.7773099e+02 </wgt>
<wgt id='1433'> +2.7151220e+02 </wgt>
<wgt id='1434'> +2.8135873e+02 </wgt>
<wgt id='1435'> +2.7845141e+02 </wgt>
<wgt id='1436'> +2.7395399e+02 </wgt>
<wgt id='1437'> +2.8077226e+02 </wgt>
<wgt id='1438'> +2.7524225e+02 </wgt>
<wgt id='1439'> +2.7657103e+02 </wgt>
<wgt id='1440'> +2.7693651e+02 </wgt>
<wgt id='1441'> +2.7012576e+02 </wgt>
<wgt id='1442'> +2.7760600e+02 </wgt>
<wgt id='1443'> +2.7946553e+02 </wgt>
<wgt id='1444'> +2.7000635e+02 </wgt>
<wgt id='1445'> +2.7779547e+02 </wgt>
<wgt id='1446'> +2.7642600e+02 </wgt>
<wgt id='1447'> +2.7595425e+02 </wgt>
<wgt id='1448'> +2.7822300e+02 </wgt>
<wgt id='1449'> +2.7826292e+02 </wgt>
<wgt id='1450'> +2.7639049e+02 </wgt>
<wgt id='1451'> +2.7625868e+02 </wgt>
<wgt id='1452'> +2.7798235e+02 </wgt>
<wgt id='1453'> +2.7654944e+02 </wgt>
<wgt id='1454'> +2.7759041e+02 </wgt>
<wgt id='1455'> +2.8030829e+02 </wgt>
<wgt id='1456'> +2.7175267e+02 </wgt>
<wgt id='1457'> +2.7104467e+02 </wgt>
<wgt id='1458'> +2.8078766e+02 </wgt>
<wgt id='1459'> +2.7368999e+02 </wgt>
<wgt id='1460'> +2.8208524e+02 </wgt>
<wgt id='1461'> +2.7495589e+02 </wgt>
<wgt id='1462'> +2.7893629e+02 </wgt>
<wgt id='1463'> +2.7245481e+02 </wgt>
<wgt id='1464'> +2.8100471e+02 </wgt>
<wgt id='1465'> +2.7669922e+02 </wgt>
<wgt id='1466'> +2.7743536e+02 </wgt>
<wgt id='1467'> +2.8199516e+02 </wgt>
<wgt id='1468'> +2.7467511e+02 </wgt>
<wgt id='1469'> +2.7420619e+02 </wgt>
<wgt id='1470'> +2.7742423e+02 </wgt>
<wgt id='1471'> +2.7945207e+02 </wgt>
<wgt id='1472'> +2.6927806e+02 </wgt>
<wgt id='1473'> +2.8651658e+02 </wgt>
<wgt id='1474'> +2.7516062e+02 </wgt>
<wgt id='1475'> +2.7959689e+02 </wgt>
<wgt id='1476'> +2.7882049e+02 </wgt>
<wgt id='1477'> +2.7725039e+02 </wgt>
<wgt id='1478'> +2.7768791e+02 </wgt>
<wgt id='1479'> +2.7778119e+02 </wgt>
<wgt id='1480'> +2.7694047e+02 </wgt>
<wgt id='1481'> +2.7629058e+02 </wgt>
<wgt id='1482'> +2.8295623e+02 </wgt>
<wgt id='1483'> +2.7560065e+02 </wgt>
<wgt id='1484'> +2.7890453e+02 </wgt>
<wgt id='1485'> +2.6937834e+02 </wgt>
<wgt id='1486'> +2.8399919e+02 </wgt>
<wgt id='1487'> +2.8487170e+02 </wgt>
<wgt id='1488'> +2.8515700e+02 </wgt>
<wgt id='1489'> +2.8556574e+02 </wgt>
<wgt id='1490'> +2.9137460e+02 </wgt>
<wgt id='1491'> +2.8265615e+02 </wgt>
<wgt id='1492'> +2.8583062e+02 </wgt>
<wgt id='1493'> +2.8393908e+02 </wgt>
<wgt id='1494'> +2.8842824e+02 </wgt>
<wgt id='1495'> +2.8385298e+02 </wgt>
<wgt id='1496'> +2.7864444e+02 </wgt>
<wgt id='1497'> +2.8878096e+02 </wgt>
<wgt id='1498'> +2.8935999e+02 </wgt>
<wgt id='1499'> +2.8236950e+02 </wgt>
<wgt id='1500'> +2.7325397e+02 </wgt>
<wgt id='1501'> +2.9149056e+02 </wgt>
<wgt id='1502'> +2.8755410e+02 </wgt>
<wgt id='1503'> +2.8317311e+02 </wgt>
<wgt id='1504'> +2.8188805e+02 </wgt>
<wgt id='1505'> +2.8841525e+02 </wgt>
<wgt id='1506'> +2.8871182e+02 </wgt>
<wgt id='1507'> +2.8056183e+02 </wgt>
<wgt id='1508'> +2.8556465e+02 </wgt>
<wgt id='1509'> +2.8334606e+02 </wgt>
<wgt id='1510'> +2.8337076e+02 </wgt>
<wgt id='1511'> +2.8617041e+02 </wgt>
<wgt id='1512'> +2.8053912e+02 </wgt>
<wgt id='1513'> +2.8889292e+02 </wgt>
<wgt id='1514'> +2.8370898e+02 </wgt>
<wgt id='1515'> +2.8641777e+02 </wgt>
<wgt id='1516'> +2.8240701e+02 </wgt>
<wgt id='1517'> +2.8571881e+02 </wgt>
<wgt id='1518'> +2.8526068e+02 </wgt>
<wgt id='1519'> +2.8436044e+02 </wgt>
<wgt id='1520'> +2.8471339e+02 </wgt>
<wgt id='1521'> +2.8516752e+02 </wgt>
<wgt id='1522'> +2.8984447e+02 </wgt>
<wgt id='1523'> +2.8007715e+02 </wgt>
<wgt id='1524'> +2.8741320e+02 </wgt>
<wgt id='1525'> +2.8061986e+02 </wgt>
<wgt id='1526'> +2.8464960e+02 </wgt>
<wgt id='1527'> +2.8448440e+02 </wgt>
<wgt id='1528'> +2.8755716e+02 </wgt>
<wgt id='1529'> +2.8231103e+02 </wgt>
<wgt id='1530'> +2.8797982e+02 </wgt>
<wgt id='1531'> +2.8166513e+02 </wgt>
<wgt id='1532'> +2.8036772e+02 </wgt>
<wgt id='1533'> +2.8392781e+02 </wgt>
<wgt id='1534'> +2.8160950e+02 </wgt>
<wgt id='1535'> +2.8738044e+02 </wgt>
<wgt id='1536'> +2.8542835e+02 </wgt>
<wgt id='1537'> +2.8024645e+02 </wgt>
<wgt id='1538'> +2.8415703e+02 </wgt>
<wgt id='1539'> +2.8424791e+02 </wgt>
<wgt id='1540'> +2.7810278e+02 </wgt>
<wgt id='1541'> +2.8559517e+02 </wgt>
<wgt id='1542'> +2.8291413e+02 </wgt>
<wgt id='1543'> +2.8708525e+02 </wgt>
<wgt id='1544'> +2.7596143e+02 </wgt>
<wgt id='1545'> +2.9318262e+02 </wgt>
<wgt id='1546'> +2.8717056e+02 </wgt>
<wgt id='1547'> +2.8941208e+02 </wgt>
<wgt id='1548'> +2.8968013e+02 </wgt>
<wgt id='1549'> +2.8910043e+02 </wgt>
<wgt id='1550'> +2.8953863e+02 </wgt>
<wgt id='1551'> +2.8932147e+02 </wgt>
<wgt id='1552'> +2.8991744e+02 </wgt>
<wgt id='1553'> +2.8893321e+02 </wgt>
<wgt id='1554'> +2.8824847e+02 </wgt>
<wgt id='1555'> +2.9071713e+02 </wgt>
<wgt id='1556'> +2.9064019e+02 </wgt>
<wgt id='1557'> +2.8819591e+02 </wgt>
<wgt id='1558'> +2.9013749e+02 </wgt>
<wgt id='1559'> +2.8783620e+02 </wgt>
<wgt id='1560'> +2.8902646e+02 </wgt>
<wgt id='1561'> +2.9008166e+02 </wgt>
<wgt id='1562'> +2.8845665e+02 </wgt>
<wgt id='1563'> +2.8994133e+02 </wgt>
<wgt id='1564'> +2.8750714e+02 </wgt>
<wgt id='1565'> +2.9165159e+02 </wgt>
<wgt id='1566'> +2.8967026e+02 </wgt>
<wgt id='1567'> +2.8918297e+02 </wgt>
<wgt id='1568'> +2.8871963e+02 </wgt>
<wgt id='1569'> +2.9033869e+02 </wgt>
<wgt id='1570'> +2.8725575e+02 </wgt>
<wgt id='1571'> +2.9093264e+02 </wgt>
<wgt id='1572'> +2.8657793e+02 </wgt>
<wgt id='1573'> +2.9143633e+02 </wgt>
<wgt id='1574'> +2.9032169e+02 </wgt>
<wgt id='1575'> +2.8942791e+02 </wgt>
<wgt id='1576'> +2.9121465e+02 </wgt>
<wgt id='1577'> +2.8730629e+02 </wgt>
<wgt id='1578'> +2.8991600e+02 </wgt>
<wgt id='1579'> +2.8868734e+02 </wgt>
<wgt id='1580'> +2.8990399e+02 </wgt>
<wgt id='1581'> +2.8887733e+02 </wgt>
<wgt id='1582'> +2.8924178e+02 </wgt>
<wgt id='1583'> +2.9044622e+02 </wgt>
<wgt id='1584'> +2.8999191e+02 </wgt>
<wgt id='1585'> +2.8939825e+02 </wgt>
<wgt id='1586'> +2.8909363e+02 </wgt>
<wgt id='1587'> +2.8974406e+02 </wgt>
<wgt id='1588'> +2.8906940e+02 </wgt>
<wgt id='1589'> +2.8986056e+02 </wgt>
<wgt id='1590'> +2.9358038e+02 </wgt>
<wgt id='1591'> +2.8767567e+02 </wgt>
<wgt id='1592'> +2.8917150e+02 </wgt>
<wgt id='1593'> +2.9001653e+02 </wgt>
<wgt id='1594'> +2.8950538e+02 </wgt>
<wgt id='1595'> +2.8689928e+02 </wgt>
<wgt id='1596'> +2.8952863e+02 </wgt>
<wgt id='1597'> +2.8920443e+02 </wgt>
<wgt id='1598'> +2.7903749e+02 </wgt>
<wgt id='1599'> +2.7912674e+02 </wgt>
<wgt id='1600'> +2.7890073e+02 </wgt>
<wgt id='1601'> +2.7987759e+02 </wgt>
<wgt id='1602'> +2.7819204e+02 </wgt>
<wgt id='1603'> +2.7951097e+02 </wgt>
<wgt id='1604'> +2.7883899e+02 </wgt>
<wgt id='1605'> +2.7777531e+02 </wgt>
<wgt id='1606'> +2.8028196e+02 </wgt>
<wgt id='1607'> +2.7963651e+02 </wgt>
<wgt id='1608'> +2.7843412e+02 </wgt>
<wgt id='1609'> +2.7586060e+02 </wgt>
<wgt id='1610'> +2.8039964e+02 </wgt>
<wgt id='1611'> +2.7902277e+02 </wgt>
<wgt id='1612'> +2.7903655e+02 </wgt>
<wgt id='1613'> +2.7807421e+02 </wgt>
<wgt id='1614'> +2.8005687e+02 </wgt>
<wgt id='1615'> +2.7756680e+02 </wgt>
<wgt id='1616'> +2.7980745e+02 </wgt>
<wgt id='1617'> +2.7868270e+02 </wgt>
<wgt id='1618'> +2.7950766e+02 </wgt>
<wgt id='1619'> +2.7890681e+02 </wgt>
<wgt id='1620'> +2.7911590e+02 </wgt>
<wgt id='1621'> +2.8179941e+02 </wgt>
<wgt id='1622'> +2.7622325e+02 </wgt>
<wgt id='1623'> +2.8019533e+02 </wgt>
<wgt id='1624'> +2.7617820e+02 </wgt>
<wgt id='1625'> +2.8036448e+02 </wgt>
<wgt id='1626'> +2.7855001e+02 </wgt>
<wgt id='1627'> +2.7773715e+02 </wgt>
<wgt id='1628'> +2.8221946e+02 </wgt>
<wgt id='1629'> +2.7907767e+02 </wgt>
<wgt id='1630'> +2.7900200e+02 </wgt>
<wgt id='1631'> +2.7864458e+02 </wgt>
<wgt id='1632'> +2.7996354e+02 </wgt>
<wgt id='1633'> +2.7985890e+02 </wgt>
<wgt id='1634'> +2.7885307e+02 </wgt>
<wgt id='1635'> +2.7915019e+02 </wgt>
<wgt id='1636'> +2.7916606e+02 </wgt>
<wgt id='1637'> +2.7871087e+02 </wgt>
<wgt id='1638'> +2.7924861e+02 </wgt>
<wgt id='1639'> +2.7835107e+02 </wgt>
<wgt id='1640'> +2.7966462e+02 </wgt>
<wgt id='1641'> +2.7926583e+02 </wgt>
<wgt id='1642'> +2.7769328e+02 </wgt>
<wgt id='1643'> +2.7683124e+02 </wgt>
<wgt id='1644'> +2.7982780e+02 </wgt>
<wgt id='1645'> +2.7935209e+02 </wgt>
<wgt id='1646'> +2.7881154e+02 </wgt>
<wgt id='1647'> +2.7876981e+02 </wgt>
<wgt id='1648'> +2.7872616e+02 </wgt>
<wgt id='1649'> +4.5080855e+02 </wgt>
<wgt id='1650'> +2.8320958e+02 </wgt>
<wgt id='1651'> +2.8312120e+02 </wgt>
<wgt id='1652'> +2.8329545e+02 </wgt>
<wgt id='1653'> +2.8323499e+02 </wgt>
<wgt id='1654'> +2.8320022e+02 </wgt>
<wgt id='1655'> +2.8244192e+02 </wgt>
<wgt id='1656'> +2.8299426e+02 </wgt>
<wgt id='1657'> +2.8272556e+02 </wgt>
<wgt id='1658'> +2.8373267e+02 </wgt>
<wgt id='1659'> +2.8432145e+02 </wgt>
<wgt id='1660'> +2.8326032e+02 </wgt>
<wgt id='1661'> +2.8304321e+02 </wgt>
<wgt id='1662'> +2.8295551e+02 </wgt>
<wgt id='1663'> +2.8318144e+02 </wgt>
<wgt id='1664'> +2.8300723e+02 </wgt>
<wgt id='1665'> +2.8297035e+02 </wgt>
<wgt id='1666'> +2.8329747e+02 </wgt>
<wgt id='1667'> +2.8322936e+02 </wgt>
<wgt id='1668'> +2.8314644e+02 </wgt>
<wgt id='1669'> +2.8371444e+02 </wgt>
<wgt id='1670'> +2.8221298e+02 </wgt>
<wgt id='1671'> +2.8328245e+02 </wgt>
<wgt id='1672'> +2.8139300e+02 </wgt>
<wgt id='1673'> +2.8355164e+02 </wgt>
<wgt id='1674'> +2.8389996e+02 </wgt>
<wgt id='1675'> +2.8428256e+02 </wgt>
<wgt id='1676'> +2.8382487e+02 </wgt>
<wgt id='1677'> +2.8267044e+02 </wgt>
<wgt id='1678'> +2.8352901e+02 </wgt>
<wgt id='1679'> +2.8081152e+02 </wgt>
<wgt id='1680'> +2.8659147e+02 </wgt>
<wgt id='1681'> +2.8607468e+02 </wgt>
<wgt id='1682'> +2.8868403e+02 </wgt>
<wgt id='1683'> +2.8831305e+02 </wgt>
<wgt id='1684'> +2.8617420e+02 </wgt>
<wgt id='1685'> +2.8575118e+02 </wgt>
<wgt id='1686'> +2.8578831e+02 </wgt>
<wgt id='1687'> +2.8834037e+02 </wgt>
<wgt id='1688'> +2.9028061e+02 </wgt>
<wgt id='1689'> +2.8522053e+02 </wgt>
<wgt id='1690'> +2.9097083e+02 </wgt>
<wgt id='1691'> +2.8685567e+02 </wgt>
<wgt id='1692'> +2.8298780e+02 </wgt>
<wgt id='1693'> +2.8711235e+02 </wgt>
<wgt id='1694'> +2.8447139e+02 </wgt>
<wgt id='1695'> +2.8675800e+02 </wgt>
<wgt id='1696'> +2.8748965e+02 </wgt>
<wgt id='1697'> +2.8562657e+02 </wgt>
<wgt id='1698'> +2.8604223e+02 </wgt>
<wgt id='1699'> +2.8625668e+02 </wgt>
<wgt id='1700'> +2.8682029e+02 </wgt>
<wgt id='1701'> +2.8488773e+02 </wgt>
<wgt id='1702'> +2.8681995e+02 </wgt>
<wgt id='1703'> +2.8607843e+02 </wgt>
<wgt id='1704'> +2.8635054e+02 </wgt>
<wgt id='1705'> +2.8616403e+02 </wgt>
<wgt id='1706'> +2.8635774e+02 </wgt>
<wgt id='1707'> +2.8685318e+02 </wgt>
<wgt id='1708'> +2.8576939e+02 </wgt>
<wgt id='1709'> +2.8634579e+02 </wgt>
<wgt id='1710'> +2.8631153e+02 </wgt>
<wgt id='1711'> +2.8650611e+02 </wgt>
<wgt id='1712'> +2.8660262e+02 </wgt>
<wgt id='1713'> +2.8609104e+02 </wgt>
<wgt id='1714'> +2.8667912e+02 </wgt>
<wgt id='1715'> +2.8721228e+02 </wgt>
<wgt id='1716'> +2.8633710e+02 </wgt>
<wgt id='1717'> +2.8671252e+02 </wgt>
<wgt id='1718'> +2.8633873e+02 </wgt>
<wgt id='1719'> +2.8663269e+02 </wgt>
<wgt id='1720'> +2.8656997e+02 </wgt>
<wgt id='1721'> +2.8671540e+02 </wgt>
<wgt id='1722'> +2.8678494e+02 </wgt>
<wgt id='1723'> +2.8637956e+02 </wgt>
<wgt id='1724'> +2.8681077e+02 </wgt>
<wgt id='1725'> +2.8680764e+02 </wgt>
<wgt id='1726'> +2.8690232e+02 </wgt>
<wgt id='1727'> +2.8637952e+02 </wgt>
<wgt id='1728'> +2.8630227e+02 </wgt>
<wgt id='1729'> +2.8658778e+02 </wgt>
<wgt id='1730'> +2.8664241e+02 </wgt>
<wgt id='1731'> +2.8632913e+02 </wgt>
<wgt id='1732'> +2.8667206e+02 </wgt>
<wgt id='1733'> +2.8649768e+02 </wgt>
<wgt id='1734'> +2.8649602e+02 </wgt>
<wgt id='1735'> +2.8660830e+02 </wgt>
<wgt id='1736'> +2.8658079e+02 </wgt>
<wgt id='1737'> +2.8651183e+02 </wgt>
<wgt id='1738'> +2.8688663e+02 </wgt>
<wgt id='1739'> +2.8644093e+02 </wgt>
<wgt id='1740'> +2.8630430e+02 </wgt>
<wgt id='1741'> +2.8652253e+02 </wgt>
<wgt id='1742'> +2.8636356e+02 </wgt>
<wgt id='1743'> +2.8661183e+02 </wgt>
<wgt id='1744'> +2.8653375e+02 </wgt>
<wgt id='1745'> +2.8656699e+02 </wgt>
<wgt id='1746'> +2.8650431e+02 </wgt>
<wgt id='1747'> +2.8655140e+02 </wgt>
<wgt id='1748'> +2.8668202e+02 </wgt>
<wgt id='1749'> +2.8666500e+02 </wgt>
<wgt id='1750'> +2.8659686e+02 </wgt>
<wgt id='1751'> +2.8648421e+02 </wgt>
<wgt id='1752'> +2.8650459e+02 </wgt>
<wgt id='1753'> +2.8647201e+02 </wgt>
<wgt id='1754'> +2.8669260e+02 </wgt>
<wgt id='1755'> +2.8656671e+02 </wgt>
<wgt id='1756'> +2.8654325e+02 </wgt>
<wgt id='1757'> +2.8660111e+02 </wgt>
<wgt id='1758'> +2.8663157e+02 </wgt>
<wgt id='1759'> +2.8674691e+02 </wgt>
<wgt id='1760'> +2.8658975e+02 </wgt>
<wgt id='1761'> +2.8663524e+02 </wgt>
<wgt id='1762'> +2.8639528e+02 </wgt>
<wgt id='1763'> +2.8671870e+02 </wgt>
<wgt id='1764'> +2.8664200e+02 </wgt>
<wgt id='1765'> +2.8665000e+02 </wgt>
<wgt id='1766'> +2.8669385e+02 </wgt>
<wgt id='1767'> +2.8654251e+02 </wgt>
<wgt id='1768'> +2.8651266e+02 </wgt>
<wgt id='1769'> +2.8659918e+02 </wgt>
<wgt id='1770'> +2.8655648e+02 </wgt>
<wgt id='1771'> +2.8657669e+02 </wgt>
<wgt id='1772'> +2.8658922e+02 </wgt>
<wgt id='1773'> +2.8648011e+02 </wgt>
<wgt id='1774'> +2.8664571e+02 </wgt>
<wgt id='1775'> +2.8663640e+02 </wgt>
<wgt id='1776'> +2.8651792e+02 </wgt>
<wgt id='1777'> +2.8662408e+02 </wgt>
<wgt id='1778'> +2.8666085e+02 </wgt>
<wgt id='1779'> +2.8663057e+02 </wgt>
<wgt id='1780'> +2.8658500e+02 </wgt>
<wgt id='1781'> +2.8029563e+02 </wgt>
<wgt id='1782'> +2.9214696e+02 </wgt>
<wgt id='1783'> +2.7966962e+02 </wgt>
<wgt id='1784'> +2.7991234e+02 </wgt>
<wgt id='1785'> +2.8098595e+02 </wgt>
<wgt id='1786'> +2.7753782e+02 </wgt>
<wgt id='1787'> +2.7901305e+02 </wgt>
<wgt id='1788'> +2.8038417e+02 </wgt>
<wgt id='1789'> +2.7910973e+02 </wgt>
<wgt id='1790'> +2.8033821e+02 </wgt>
<wgt id='1791'> +2.8030271e+02 </wgt>
<wgt id='1792'> +2.7933553e+02 </wgt>
<wgt id='1793'> +2.7889168e+02 </wgt>
<wgt id='1794'> +2.8296075e+02 </wgt>
<wgt id='1795'> +2.7663803e+02 </wgt>
<wgt id='1796'> +2.7529133e+02 </wgt>
<wgt id='1797'> +2.7662833e+02 </wgt>
<wgt id='1798'> +2.7977881e+02 </wgt>
<wgt id='1799'> +2.8214304e+02 </wgt>
<wgt id='1800'> +2.7977061e+02 </wgt>
<wgt id='1801'> +2.7904818e+02 </wgt>
<wgt id='1802'> +2.7898703e+02 </wgt>
<wgt id='1803'> +2.8075610e+02 </wgt>
<wgt id='1804'> +2.7891672e+02 </wgt>
<wgt id='1805'> +2.8000542e+02 </wgt>
<wgt id='1806'> +2.7927429e+02 </wgt>
<wgt id='1807'> +2.7940521e+02 </wgt>
<wgt id='1808'> +2.8001890e+02 </wgt>
<wgt id='1809'> +2.7964116e+02 </wgt>
<wgt id='1810'> +2.7912959e+02 </wgt>
<wgt id='1811'> +2.7991827e+02 </wgt>
<wgt id='1812'> +2.8003265e+02 </wgt>
<wgt id='1813'> +2.7957204e+02 </wgt>
<wgt id='1814'> +2.7957071e+02 </wgt>
<wgt id='1815'> +2.7999291e+02 </wgt>
<wgt id='1816'> +2.8004375e+02 </wgt>
<wgt id='1817'> +2.7952907e+02 </wgt>
<wgt id='1818'> +2.8013600e+02 </wgt>
<wgt id='1819'> +2.7967572e+02 </wgt>
<wgt id='1820'> +2.7992129e+02 </wgt>
<wgt id='1821'> +2.7970580e+02 </wgt>
<wgt id='1822'> +2.7973978e+02 </wgt>
<wgt id='1823'> +2.7936808e+02 </wgt>
<wgt id='1824'> +2.7954411e+02 </wgt>
<wgt id='1825'> +2.7962060e+02 </wgt>
<wgt id='1826'> +2.7947535e+02 </wgt>
<wgt id='1827'> +2.7976210e+02 </wgt>
<wgt id='1828'> +2.7963958e+02 </wgt>
<wgt id='1829'> +2.7931613e+02 </wgt>
<wgt id='1830'> +2.7955211e+02 </wgt>
<wgt id='1831'> +2.7974245e+02 </wgt>
<wgt id='1832'> +2.7952485e+02 </wgt>
<wgt id='1833'> +2.7972162e+02 </wgt>
<wgt id='1834'> +2.7979046e+02 </wgt>
<wgt id='1835'> +2.7973339e+02 </wgt>
<wgt id='1836'> +2.7972628e+02 </wgt>
<wgt id='1837'> +2.7954721e+02 </wgt>
<wgt id='1838'> +2.7960890e+02 </wgt>
<wgt id='1839'> +2.7991054e+02 </wgt>
<wgt id='1840'> +2.7964051e+02 </wgt>
<wgt id='1841'> +2.7948677e+02 </wgt>
<wgt id='1842'> +2.7955628e+02 </wgt>
<wgt id='1843'> +2.7957926e+02 </wgt>
<wgt id='1844'> +2.7969979e+02 </wgt>
<wgt id='1845'> +2.7970911e+02 </wgt>
<wgt id='1846'> +2.7979521e+02 </wgt>
<wgt id='1847'> +2.7959517e+02 </wgt>
<wgt id='1848'> +2.7967067e+02 </wgt>
<wgt id='1849'> +2.7969908e+02 </wgt>
<wgt id='1850'> +2.7976172e+02 </wgt>
<wgt id='1851'> +2.7974118e+02 </wgt>
<wgt id='1852'> +2.7981948e+02 </wgt>
<wgt id='1853'> +2.7964511e+02 </wgt>
<wgt id='1854'> +2.7982178e+02 </wgt>
<wgt id='1855'> +2.7983665e+02 </wgt>
<wgt id='1856'> +2.7960139e+02 </wgt>
<wgt id='1857'> +2.7970620e+02 </wgt>
<wgt id='1858'> +2.7964655e+02 </wgt>
<wgt id='1859'> +2.7964648e+02 </wgt>
<wgt id='1860'> +2.7971096e+02 </wgt>
<wgt id='1861'> +2.7970220e+02 </wgt>
<wgt id='1862'> +2.7963180e+02 </wgt>
<wgt id='1863'> +2.7983431e+02 </wgt>
<wgt id='1864'> +2.7964211e+02 </wgt>
<wgt id='1865'> +2.7973222e+02 </wgt>
<wgt id='1866'> +2.7958753e+02 </wgt>
<wgt id='1867'> +2.7960462e+02 </wgt>
<wgt id='1868'> +2.7960581e+02 </wgt>
<wgt id='1869'> +2.7969374e+02 </wgt>
<wgt id='1870'> +2.7951864e+02 </wgt>
<wgt id='1871'> +2.7961578e+02 </wgt>
<wgt id='1872'> +2.7961238e+02 </wgt>
<wgt id='1873'> +2.7971003e+02 </wgt>
<wgt id='1874'> +2.7965927e+02 </wgt>
<wgt id='1875'> +2.7967149e+02 </wgt>
<wgt id='1876'> +2.7962829e+02 </wgt>
<wgt id='1877'> +2.7966498e+02 </wgt>
<wgt id='1878'> +2.7970511e+02 </wgt>
<wgt id='1879'> +2.7961344e+02 </wgt>
<wgt id='1880'> +2.7968260e+02 </wgt>
<wgt id='1881'> +2.7967527e+02 </wgt>
<wgt id='1882'> +2.7960582e+02 </wgt>
<wgt id='1883'> +2.7966202e+02 </wgt>
<wgt id='1884'> +2.7464580e+02 </wgt>
<wgt id='1885'> +2.8403328e+02 </wgt>
<wgt id='1886'> +2.8659108e+02 </wgt>
<wgt id='1887'> +2.8774835e+02 </wgt>
<wgt id='1888'> +2.8627710e+02 </wgt>
<wgt id='1889'> +2.8658360e+02 </wgt>
<wgt id='1890'> +2.8718966e+02 </wgt>
<wgt id='1891'> +2.9452074e+02 </wgt>
<wgt id='1892'> +2.8646787e+02 </wgt>
<wgt id='1893'> +2.8645993e+02 </wgt>
<wgt id='1894'> +2.8670607e+02 </wgt>
<wgt id='1895'> +2.8633271e+02 </wgt>
<wgt id='1896'> +2.8665042e+02 </wgt>
<wgt id='1897'> +2.8667713e+02 </wgt>
<wgt id='1898'> +2.8614252e+02 </wgt>
<wgt id='1899'> +2.8649025e+02 </wgt>
<wgt id='1900'> +2.8658585e+02 </wgt>
<wgt id='1901'> +2.8692837e+02 </wgt>
<wgt id='1902'> +2.8668361e+02 </wgt>
<wgt id='1903'> +2.8439737e+02 </wgt>
<wgt id='1904'> +2.8677040e+02 </wgt>
<wgt id='1905'> +2.8638523e+02 </wgt>
<wgt id='1906'> +2.8655699e+02 </wgt>
<wgt id='1907'> +2.8656186e+02 </wgt>
<wgt id='1908'> +2.8652334e+02 </wgt>
<wgt id='1909'> +2.8657041e+02 </wgt>
<wgt id='1910'> +2.8645924e+02 </wgt>
<wgt id='1911'> +2.8647953e+02 </wgt>
<wgt id='1912'> +2.8675374e+02 </wgt>
<wgt id='1913'> +2.8681503e+02 </wgt>
<wgt id='1914'> +2.8745397e+02 </wgt>
<wgt id='1915'> +2.8692398e+02 </wgt>
<wgt id='1916'> +2.8655261e+02 </wgt>
<wgt id='1917'> +2.8029563e+02 </wgt>
<wgt id='1918'> +2.9214696e+02 </wgt>
<wgt id='1919'> +2.7966617e+02 </wgt>
<wgt id='1920'> +2.7955489e+02 </wgt>
<wgt id='1921'> +2.8082247e+02 </wgt>
<wgt id='1922'> +2.7931281e+02 </wgt>
<wgt id='1923'> +2.8088999e+02 </wgt>
<wgt id='1924'> +2.7577779e+02 </wgt>
<wgt id='1925'> +2.7971037e+02 </wgt>
<wgt id='1926'> +2.7893219e+02 </wgt>
<wgt id='1927'> +2.7881596e+02 </wgt>
<wgt id='1928'> +2.7835635e+02 </wgt>
<wgt id='1929'> +2.8120480e+02 </wgt>
<wgt id='1930'> +2.7821973e+02 </wgt>
<wgt id='1931'> +2.7999742e+02 </wgt>
<wgt id='1932'> +2.8059958e+02 </wgt>
<wgt id='1933'> +2.7885622e+02 </wgt>
<wgt id='1934'> +2.7937085e+02 </wgt>
<wgt id='1935'> +2.7927438e+02 </wgt>
<wgt id='1936'> +2.8203865e+02 </wgt>
<wgt id='1937'> +2.7954315e+02 </wgt>
<wgt id='1938'> +2.7949991e+02 </wgt>
<wgt id='1939'> +2.8034037e+02 </wgt>
<wgt id='1940'> +2.8046676e+02 </wgt>
<wgt id='1941'> +2.8547562e+02 </wgt>
<wgt id='1942'> +2.7969581e+02 </wgt>
<wgt id='1943'> +2.7969100e+02 </wgt>
<wgt id='1944'> +2.7943406e+02 </wgt>
<wgt id='1945'> +2.7974488e+02 </wgt>
<wgt id='1946'> +2.7958823e+02 </wgt>
<wgt id='1947'> +2.7975140e+02 </wgt>
<wgt id='1948'> +2.7971962e+02 </wgt>
<wgt id='1949'> +2.7965185e+02 </wgt>
<wgt id='1950'> +2.7464580e+02 </wgt>
<wgt id='1951'> +2.8403328e+02 </wgt>
<wgt id='1952'> +3.0799520e+02 </wgt>
<wgt id='1953'> +3.0755275e+02 </wgt>
<wgt id='1954'> +3.0843602e+02 </wgt>
<wgt id='1955'> +3.0890927e+02 </wgt>
<wgt id='1956'> +3.0708304e+02 </wgt>
<wgt id='1957'> +3.0847480e+02 </wgt>
<wgt id='1958'> +3.0751640e+02 </wgt>
<wgt id='1959'> +3.0876775e+02 </wgt>
<wgt id='1960'> +3.0724481e+02 </wgt>
<wgt id='1961'> +3.0850467e+02 </wgt>
<wgt id='1962'> +3.0749795e+02 </wgt>
<wgt id='1963'> +3.0735079e+02 </wgt>
<wgt id='1964'> +3.0863230e+02 </wgt>
<wgt id='1965'> +3.0678595e+02 </wgt>
<wgt id='1966'> +3.0921416e+02 </wgt>
<wgt id='1967'> +3.0788986e+02 </wgt>
<wgt id='1968'> +3.0792960e+02 </wgt>
<wgt id='1969'> +3.0896488e+02 </wgt>
<wgt id='1970'> +3.0682628e+02 </wgt>
<wgt id='1971'> +3.0689539e+02 </wgt>
<wgt id='1972'> +3.0910528e+02 </wgt>
<wgt id='1973'> +3.0931670e+02 </wgt>
<wgt id='1974'> +3.0628340e+02 </wgt>
<wgt id='1975'> +3.0667343e+02 </wgt>
<wgt id='1976'> +3.0764492e+02 </wgt>
<wgt id='1977'> +3.0885810e+02 </wgt>
<wgt id='1978'> +3.0761192e+02 </wgt>
<wgt id='1979'> +3.0769465e+02 </wgt>
<wgt id='1980'> +3.0860451e+02 </wgt>
<wgt id='1981'> +3.0799520e+02 </wgt>
<wgt id='1982'> +3.0770142e+02 </wgt>
<wgt id='1983'> +3.0821697e+02 </wgt>
<wgt id='1984'> +3.0762138e+02 </wgt>
<wgt id='1985'> +3.0815254e+02 </wgt>
<wgt id='1986'> +3.0938568e+02 </wgt>
<wgt id='1987'> +3.0565022e+02 </wgt>
<wgt id='1988'> +3.0669331e+02 </wgt>
<wgt id='1989'> +3.0921833e+02 </wgt>
<wgt id='1990'> +3.0705041e+02 </wgt>
<wgt id='1991'> +3.0905006e+02 </wgt>
<wgt id='1992'> +3.0814261e+02 </wgt>
<wgt id='1993'> +3.0863472e+02 </wgt>
<wgt id='1994'> +3.0464264e+02 </wgt>
<wgt id='1995'> +2.8394157e+02 </wgt>
<wgt id='1996'> +2.8372862e+02 </wgt>
<wgt id='1997'> +2.8412367e+02 </wgt>
<wgt id='1998'> +2.8446464e+02 </wgt>
<wgt id='1999'> +2.8338890e+02 </wgt>
<wgt id='2000'> +2.8466617e+02 </wgt>
<wgt id='2001'> +2.8318861e+02 </wgt>
<wgt id='2002'> +2.8511025e+02 </wgt>
<wgt id='2003'> +2.8276707e+02 </wgt>
<wgt id='2004'> +2.8397974e+02 </wgt>
<wgt id='2005'> +2.8388051e+02 </wgt>
<wgt id='2006'> +2.8464963e+02 </wgt>
<wgt id='2007'> +2.8320547e+02 </wgt>
<wgt id='2008'> +2.8309063e+02 </wgt>
<wgt id='2009'> +2.8476846e+02 </wgt>
<wgt id='2010'> +2.8355587e+02 </wgt>
<wgt id='2011'> +2.8432082e+02 </wgt>
<wgt id='2012'> +2.8377353e+02 </wgt>
<wgt id='2013'> +2.8401467e+02 </wgt>
<wgt id='2014'> +2.8346388e+02 </wgt>
<wgt id='2015'> +2.8436454e+02 </wgt>
<wgt id='2016'> +2.8138325e+02 </wgt>
<wgt id='2017'> +2.8602378e+02 </wgt>
<wgt id='2018'> +2.8394945e+02 </wgt>
<wgt id='2019'> +2.8384348e+02 </wgt>
<wgt id='2020'> +2.8304242e+02 </wgt>
<wgt id='2021'> +2.8400915e+02 </wgt>
<wgt id='2022'> +2.8396028e+02 </wgt>
<wgt id='2023'> +2.8424892e+02 </wgt>
<wgt id='2024'> +2.8396115e+02 </wgt>
<wgt id='2025'> +2.8392648e+02 </wgt>
<wgt id='2026'> +2.8351578e+02 </wgt>
<wgt id='2027'> +2.8382979e+02 </wgt>
<wgt id='2028'> +2.8393114e+02 </wgt>
<wgt id='2029'> +2.8344210e+02 </wgt>
<wgt id='2030'> +2.8409494e+02 </wgt>
<wgt id='2031'> +2.8287631e+02 </wgt>
<wgt id='2032'> +2.8557572e+02 </wgt>
<wgt id='2033'> +2.8267571e+02 </wgt>
<wgt id='2034'> +2.8469430e+02 </wgt>
<wgt id='2035'> +2.8286351e+02 </wgt>
<wgt id='2036'> +2.8664182e+02 </wgt>
<wgt id='2037'> +2.8218336e+02 </wgt>
<wgt id='2038'> +2.8388118e+02 </wgt>
<wgt id='2039'> +2.8383784e+02 </wgt>
<wgt id='2040'> +2.8379434e+02 </wgt>
<wgt id='2041'> +2.8374924e+02 </wgt>
<wgt id='2042'> +2.8370619e+02 </wgt>
<wgt id='2043'> +2.8366161e+02 </wgt>
<wgt id='2044'> +2.8361801e+02 </wgt>
<wgt id='2045'> +2.8357441e+02 </wgt>
<wgt id='2046'> +2.8353101e+02 </wgt>
<wgt id='2047'> +2.8348665e+02 </wgt>
<wgt id='2048'> +2.8344124e+02 </wgt>
<wgt id='2049'> +2.8339895e+02 </wgt>
<wgt id='2050'> +2.8335398e+02 </wgt>
<wgt id='2051'> +2.8331170e+02 </wgt>
<wgt id='2052'> +2.8326646e+02 </wgt>
<wgt id='2053'> +2.8322374e+02 </wgt>
<wgt id='2054'> +2.8317848e+02 </wgt>
<wgt id='2055'> +2.8313603e+02 </wgt>
<wgt id='2056'> +2.8309167e+02 </wgt>
<wgt id='2057'> +2.8304721e+02 </wgt>
<wgt id='2058'> +2.8300387e+02 </wgt>
<wgt id='2059'> +2.8295943e+02 </wgt>
<wgt id='2060'> +2.8291723e+02 </wgt>
<wgt id='2061'> +2.8287168e+02 </wgt>
<wgt id='2062'> +2.8283012e+02 </wgt>
<wgt id='2063'> +2.8278469e+02 </wgt>
<wgt id='2064'> +2.8274251e+02 </wgt>
<wgt id='2065'> +2.8269710e+02 </wgt>
<wgt id='2066'> +2.8265306e+02 </wgt>
<wgt id='2067'> +2.8260993e+02 </wgt>
<wgt id='2068'> +2.8256578e+02 </wgt>
<wgt id='2069'> +2.7609330e+02 </wgt>
<wgt id='2070'> +2.7629481e+02 </wgt>
<wgt id='2071'> +2.7738938e+02 </wgt>
<wgt id='2072'> +2.7398273e+02 </wgt>
<wgt id='2073'> +2.7543968e+02 </wgt>
<wgt id='2074'> +2.7679973e+02 </wgt>
<wgt id='2075'> +2.7556726e+02 </wgt>
<wgt id='2076'> +2.7678433e+02 </wgt>
<wgt id='2077'> +2.7672128e+02 </wgt>
<wgt id='2078'> +2.7576496e+02 </wgt>
<wgt id='2079'> +2.7531015e+02 </wgt>
<wgt id='2080'> +2.7938234e+02 </wgt>
<wgt id='2081'> +2.7311813e+02 </wgt>
<wgt id='2082'> +2.7178302e+02 </wgt>
<wgt id='2083'> +2.7309895e+02 </wgt>
<wgt id='2084'> +2.7615415e+02 </wgt>
<wgt id='2085'> +2.7857115e+02 </wgt>
<wgt id='2086'> +2.7616289e+02 </wgt>
<wgt id='2087'> +2.7547516e+02 </wgt>
<wgt id='2088'> +2.7545415e+02 </wgt>
<wgt id='2089'> +2.7719220e+02 </wgt>
<wgt id='2090'> +2.7533923e+02 </wgt>
<wgt id='2091'> +2.7643012e+02 </wgt>
<wgt id='2092'> +2.7568496e+02 </wgt>
<wgt id='2093'> +2.7580218e+02 </wgt>
<wgt id='2094'> +2.7641697e+02 </wgt>
<wgt id='2095'> +2.7604259e+02 </wgt>
<wgt id='2096'> +2.7559351e+02 </wgt>
<wgt id='2097'> +2.7635183e+02 </wgt>
<wgt id='2098'> +2.7644362e+02 </wgt>
<wgt id='2099'> +2.7599675e+02 </wgt>
<wgt id='2100'> +2.7601454e+02 </wgt>
<wgt id='2101'> +2.7639640e+02 </wgt>
<wgt id='2102'> +2.7645255e+02 </wgt>
<wgt id='2103'> +2.7596197e+02 </wgt>
<wgt id='2104'> +2.7655268e+02 </wgt>
<wgt id='2105'> +2.7610108e+02 </wgt>
<wgt id='2106'> +2.7634211e+02 </wgt>
<wgt id='2107'> +2.7612588e+02 </wgt>
<wgt id='2108'> +2.7614857e+02 </wgt>
<wgt id='2109'> +2.7579551e+02 </wgt>
<wgt id='2110'> +2.7596672e+02 </wgt>
<wgt id='2111'> +2.7604270e+02 </wgt>
<wgt id='2112'> +2.7590857e+02 </wgt>
<wgt id='2113'> +2.7618269e+02 </wgt>
<wgt id='2114'> +2.7606075e+02 </wgt>
<wgt id='2115'> +2.7574928e+02 </wgt>
<wgt id='2116'> +2.7597625e+02 </wgt>
<wgt id='2117'> +2.7616899e+02 </wgt>
<wgt id='2118'> +2.7594909e+02 </wgt>
<wgt id='2119'> +2.7614555e+02 </wgt>
<wgt id='2120'> +2.7621073e+02 </wgt>
<wgt id='2121'> +2.7615619e+02 </wgt>
<wgt id='2122'> +2.7614764e+02 </wgt>
<wgt id='2123'> +2.7597481e+02 </wgt>
<wgt id='2124'> +2.7603732e+02 </wgt>
<wgt id='2125'> +2.7632317e+02 </wgt>
<wgt id='2126'> +2.7606652e+02 </wgt>
<wgt id='2127'> +2.7591675e+02 </wgt>
<wgt id='2128'> +2.7598437e+02 </wgt>
<wgt id='2129'> +2.7600882e+02 </wgt>
<wgt id='2130'> +2.7612377e+02 </wgt>
<wgt id='2131'> +2.7613069e+02 </wgt>
<wgt id='2132'> +2.7621326e+02 </wgt>
<wgt id='2133'> +2.7602492e+02 </wgt>
<wgt id='2134'> +2.7609118e+02 </wgt>
<wgt id='2135'> +2.7612075e+02 </wgt>
<wgt id='2136'> +2.7617965e+02 </wgt>
<wgt id='2137'> +2.7616524e+02 </wgt>
<wgt id='2138'> +2.7623859e+02 </wgt>
<wgt id='2139'> +2.7606717e+02 </wgt>
<wgt id='2140'> +2.7624643e+02 </wgt>
<wgt id='2141'> +2.7625587e+02 </wgt>
<wgt id='2142'> +2.7602281e+02 </wgt>
<wgt id='2143'> +2.7613080e+02 </wgt>
<wgt id='2144'> +2.7607234e+02 </wgt>
<wgt id='2145'> +2.7607482e+02 </wgt>
<wgt id='2146'> +2.7613428e+02 </wgt>
<wgt id='2147'> +2.7612810e+02 </wgt>
<wgt id='2148'> +2.7605386e+02 </wgt>
<wgt id='2149'> +2.7625296e+02 </wgt>
<wgt id='2150'> +2.7606986e+02 </wgt>
<wgt id='2151'> +2.7615609e+02 </wgt>
<wgt id='2152'> +2.7601293e+02 </wgt>
<wgt id='2153'> +2.7602663e+02 </wgt>
<wgt id='2154'> +2.7603041e+02 </wgt>
<wgt id='2155'> +2.7612357e+02 </wgt>
<wgt id='2156'> +2.7594203e+02 </wgt>
<wgt id='2157'> +2.7603814e+02 </wgt>
<wgt id='2158'> +2.7603513e+02 </wgt>
<wgt id='2159'> +2.7613211e+02 </wgt>
<wgt id='2160'> +2.7607868e+02 </wgt>
<wgt id='2161'> +2.7609175e+02 </wgt>
<wgt id='2162'> +2.7605334e+02 </wgt>
<wgt id='2163'> +2.7608362e+02 </wgt>
<wgt id='2164'> +2.7612791e+02 </wgt>
<wgt id='2165'> +2.7603969e+02 </wgt>
<wgt id='2166'> +2.7610621e+02 </wgt>
<wgt id='2167'> +2.7609726e+02 </wgt>
<wgt id='2168'> +2.7603245e+02 </wgt>
<wgt id='2169'> +2.7608692e+02 </wgt>
<wgt id='2170'> +2.7608977e+02 </wgt>
<wgt id='2171'> +2.7607006e+02 </wgt>
<wgt id='2172'> +2.7609700e+02 </wgt>
<wgt id='2173'> +2.7609759e+02 </wgt>
<wgt id='2174'> +2.7610408e+02 </wgt>
<wgt id='2175'> +2.7609487e+02 </wgt>
<wgt id='2176'> +2.7607780e+02 </wgt>
<wgt id='2177'> +2.8477168e+02 </wgt>
<wgt id='2178'> +2.5646396e+02 </wgt>
<wgt id='2179'> +2.8236083e+02 </wgt>
<wgt id='2180'> +2.8317635e+02 </wgt>
<wgt id='2181'> +2.8198138e+02 </wgt>
<wgt id='2182'> +2.4486014e+02 </wgt>
<wgt id='2183'> +2.8881940e+02 </wgt>
<wgt id='2184'> +2.8766899e+02 </wgt>
<wgt id='2185'> +2.8866382e+02 </wgt>
<wgt id='2186'> +2.8560499e+02 </wgt>
<wgt id='2187'> +2.7434061e+02 </wgt>
<wgt id='2188'> +2.7868934e+02 </wgt>
<wgt id='2189'> +2.9033322e+02 </wgt>
<wgt id='2190'> +2.9125013e+02 </wgt>
<wgt id='2191'> +2.7789880e+02 </wgt>
<wgt id='2192'> +2.8808888e+02 </wgt>
<wgt id='2193'> +2.8739856e+02 </wgt>
<wgt id='2194'> +2.8087697e+02 </wgt>
<wgt id='2195'> +2.8164809e+02 </wgt>
<wgt id='2196'> +2.9001489e+02 </wgt>
<wgt id='2197'> +2.8845213e+02 </wgt>
<wgt id='2198'> +2.8672008e+02 </wgt>
<wgt id='2199'> +2.8255508e+02 </wgt>
<wgt id='2200'> +3.0728000e+02 </wgt>
<wgt id='2201'> +2.8376831e+02 </wgt>
<wgt id='2202'> +2.8825386e+02 </wgt>
<wgt id='2203'> +2.8136532e+02 </wgt>
<wgt id='2204'> +2.8036955e+02 </wgt>
<wgt id='2205'> +2.8297376e+02 </wgt>
<wgt id='2206'> +2.8163703e+02 </wgt>
<wgt id='2207'> +2.9045860e+02 </wgt>
<wgt id='2208'> +2.8468471e+02 </wgt>
<wgt id='2209'> +2.7761843e+02 </wgt>
<wgt id='2210'> +2.8642454e+02 </wgt>
<wgt id='2211'> +2.8708826e+02 </wgt>
<wgt id='2212'> +2.9206994e+02 </wgt>
<wgt id='2213'> +2.9204703e+02 </wgt>
<wgt id='2214'> +2.8989791e+02 </wgt>
<wgt id='2215'> +2.9009232e+02 </wgt>
<wgt id='2216'> +2.7549318e+02 </wgt>
<wgt id='2217'> +2.9006709e+02 </wgt>
<wgt id='2218'> +2.8576731e+02 </wgt>
<wgt id='2219'> +2.8573231e+02 </wgt>
<wgt id='2220'> +2.8846512e+02 </wgt>
<wgt id='2221'> +2.8257538e+02 </wgt>
<wgt id='2222'> +2.8515388e+02 </wgt>
<wgt id='2223'> +2.8924543e+02 </wgt>
<wgt id='2224'> +2.8094906e+02 </wgt>
<wgt id='2225'> +2.8120660e+02 </wgt>
<wgt id='2226'> +2.8261262e+02 </wgt>
<wgt id='2227'> +2.8506003e+02 </wgt>
<wgt id='2228'> +2.8530228e+02 </wgt>
<wgt id='2229'> +2.8170444e+02 </wgt>
<wgt id='2230'> +2.8909574e+02 </wgt>
<wgt id='2231'> +2.8705008e+02 </wgt>
<wgt id='2232'> +2.8445826e+02 </wgt>
<wgt id='2233'> +2.7797169e+02 </wgt>
<wgt id='2234'> +2.9366467e+02 </wgt>
<wgt id='2235'> +2.8231240e+02 </wgt>
<wgt id='2236'> +2.8694570e+02 </wgt>
<wgt id='2237'> +2.8440418e+02 </wgt>
<wgt id='2238'> +2.8640852e+02 </wgt>
<wgt id='2239'> +2.8412180e+02 </wgt>
<wgt id='2240'> +2.9123958e+02 </wgt>
<wgt id='2241'> +2.7777109e+02 </wgt>
<wgt id='2242'> +2.8897775e+02 </wgt>
<wgt id='2243'> +2.8734917e+02 </wgt>
<wgt id='2244'> +3.0072986e+02 </wgt>
<wgt id='2245'> +2.8022738e+02 </wgt>
<wgt id='2246'> +2.7783844e+02 </wgt>
<wgt id='2247'> +2.8564677e+02 </wgt>
<wgt id='2248'> +2.8987751e+02 </wgt>
<wgt id='2249'> +2.8606322e+02 </wgt>
<wgt id='2250'> +2.6394996e+02 </wgt>
<wgt id='2251'> +2.8757504e+02 </wgt>
<wgt id='2252'> +2.8239725e+02 </wgt>
<wgt id='2253'> +2.7989828e+02 </wgt>
<wgt id='2254'> +2.8890421e+02 </wgt>
<wgt id='2255'> +2.9549653e+02 </wgt>
<wgt id='2256'> +2.8273105e+02 </wgt>
<wgt id='2257'> +2.8625079e+02 </wgt>
<wgt id='2258'> +2.8741668e+02 </wgt>
<wgt id='2259'> +2.8255332e+02 </wgt>
<wgt id='2260'> +2.8785693e+02 </wgt>
<wgt id='2261'> +2.8552595e+02 </wgt>
<wgt id='2262'> +2.7663689e+02 </wgt>
<wgt id='2263'> +2.8374150e+02 </wgt>
<wgt id='2264'> +2.8366333e+02 </wgt>
<wgt id='2265'> +2.8461761e+02 </wgt>
<wgt id='2266'> +2.9248754e+02 </wgt>
<wgt id='2267'> +2.8319576e+02 </wgt>
<wgt id='2268'> +2.8139339e+02 </wgt>
<wgt id='2269'> +2.8950938e+02 </wgt>
<wgt id='2270'> +2.8283527e+02 </wgt>
<wgt id='2271'> +2.9032793e+02 </wgt>
<wgt id='2272'> +2.7921630e+02 </wgt>
<wgt id='2273'> +2.9017050e+02 </wgt>
<wgt id='2274'> +2.8439262e+02 </wgt>
<wgt id='2275'> +2.9605143e+02 </wgt>
<wgt id='2276'> +2.9258545e+02 </wgt>
<wgt id='2277'> +2.8387230e+02 </wgt>
<wgt id='2278'> +2.8001000e+02 </wgt>
<wgt id='2279'> +2.8797665e+02 </wgt>
<wgt id='2280'> +2.8250173e+02 </wgt>
<wgt id='2281'> +3.4072673e+02 </wgt>
<wgt id='2282'> +4.2140695e+02 </wgt>
<wgt id='2283'> +3.4304850e+02 </wgt>
<wgt id='2284'> +4.1332068e+02 </wgt>
</rwgt>
</event>
<event npLO=" -1 " npNLO=" 0 ">
 3      0 +2.8781417e+02 3.82398540e+01 7.54677110e-03 1.16377780e-01
       21 -1    0    0  502  501 +0.0000000000e+00 +0.0000000000e+00 +1.5394370000e+01 1.5394370000e+01 0.0000000000e+00 0.0000e+00 9.0000e+00
       21 -1    0    0  501  502 +0.0000000000e+00 +0.0000000000e+00 -1.6239704000e+02 1.6239704000e+02 0.0000000000e+00 0.0000e+00 9.0000e+00
       25  1    1    2    0    0 +0.0000000000e+00 +0.0000000000e+00 -1.4700267000e+02 1.7779141000e+02 1.0000000000e+02 0.0000e+00 9.0000e+00
#aMCatNLO 1  0  0  2  1 0.13483757E+02 0.00000000E+00 -9  4  0 0.00000000E+00 0.00000000E+00 0.00000000E+00 0.00000000E+00 0.00000000E+00
<rwgt>
<wgt id='1001'> +2.8781417e+02 </wgt>
<wgt id='1002'> +2.3693503e+02 </wgt>
<wgt id='1003'> +3.5756764e+02 </wgt>
<wgt id='1004'> +3.0737248e+02 </wgt>
<wgt id='1005'> +2.5295401e+02 </wgt>
<wgt id='1006'> +3.8201876e+02 </wgt>
<wgt id='1007'> +2.6266727e+02 </wgt>
<wgt id='1008'> +2.1629336e+02 </wgt>
<wgt id='1009'> +3.2621467e+02 </wgt>
<wgt id='1010'> +2.8781417e+02 </wgt>
<wgt id='1011'> +2.8850734e+02 </wgt>
<wgt id='1012'> +2.8716827e+02 </wgt>
<wgt id='1013'> +2.8822590e+02 </wgt>
<wgt id='1014'> +2.8840201e+02 </wgt>
<wgt id='1015'> +2.8861566e+02 </wgt>
<wgt id='1016'> +2.8813675e+02 </wgt>
<wgt id='1017'> +2.8884348e+02 </wgt>
<wgt id='1018'> +2.8898697e+02 </wgt>
<wgt id='1019'> +2.8763372e+02 </wgt>
<wgt id='1020'> +2.8815885e+02 </wgt>
<wgt id='1021'> +2.8687683e+02 </wgt>
<wgt id='1022'> +2.8817091e+02 </wgt>
<wgt id='1023'> +2.8744405e+02 </wgt>
<wgt id='1024'> +2.8743187e+02 </wgt>
<wgt id='1025'> +2.8805409e+02 </wgt>
<wgt id='1026'> +2.8693037e+02 </wgt>
<wgt id='1027'> +2.8675990e+02 </wgt>
<wgt id='1028'> +2.8875142e+02 </wgt>
<wgt id='1029'> +2.8918472e+02 </wgt>
<wgt id='1030'> +2.8721196e+02 </wgt>
<wgt id='1031'> +2.8867968e+02 </wgt>
<wgt id='1032'> +2.8722470e+02 </wgt>
<wgt id='1033'> +2.8796563e+02 </wgt>
<wgt id='1034'> +2.8794109e+02 </wgt>
<wgt id='1035'> +2.8765747e+02 </wgt>
<wgt id='1036'> +2.8753548e+02 </wgt>
<wgt id='1037'> +2.8737721e+02 </wgt>
<wgt id='1038'> +2.8807011e+02 </wgt>
<wgt id='1039'> +2.8731293e+02 </wgt>
<wgt id='1040'> +2.8770823e+02 </wgt>
<wgt id='1041'> +2.8725347e+02 </wgt>
<wgt id='1042'> +2.8800192e+02 </wgt>
<wgt id='1043'> +2.8744468e+02 </wgt>
<wgt id='1044'> +2.8759445e+02 </wgt>
<wgt id='1045'> +2.8779177e+02 </wgt>
<wgt id='1046'> +2.8811855e+02 </wgt>
<wgt id='1047'> +2.8782620e+02 </wgt>
<wgt id='1048'> +2.8786118e+02 </wgt>
<wgt id='1049'> +2.8784736e+02 </wgt>
<wgt id='1050'> +2.8772809e+02 </wgt>
<wgt id='1051'> +2.8795584e+02 </wgt>
<wgt id='1052'> +2.8790918e+02 </wgt>
<wgt id='1053'> +2.8765446e+02 </wgt>
<wgt id='1054'> +2.8787752e+02 </wgt>
<wgt id='1055'> +2.8787657e+02 </wgt>
<wgt id='1056'> +2.8789310e+02 </wgt>
<wgt id='1057'> +2.8776661e+02 </wgt>
<wgt id='1058'> +2.8773618e+02 </wgt>
<wgt id='1059'> +2.8770141e+02 </wgt>
<wgt id='1060'> +2.8778207e+02 </wgt>
<wgt id='1061'> +2.8779279e+02 </wgt>
<wgt id='1062'> +2.8790953e+02 </wgt>
<wgt id='1063'> +2.8775984e+02 </wgt>
<wgt id='1064'> +2.8780633e+02 </wgt>
<wgt id='1065'> +2.8790958e+02 </wgt>
<wgt id='1066'> +2.8778694e+02 </wgt>
<wgt id='1067'> +2.8789186e+02 </wgt>
<wgt id='1068'> +2.8779109e+02 </wgt>
<wgt id='1069'> +2.8788018e+02 </wgt>
<wgt id='1070'> +2.8780752e+02 </wgt>
<wgt id='1071'> +2.8781783e+02 </wgt>
<wgt id='1072'> +2.8797110e+02 </wgt>
<wgt id='1073'> +2.8785383e+02 </wgt>
<wgt id='1074'> +2.8789914e+02 </wgt>
<wgt id='1075'> +2.8794927e+02 </wgt>
<wgt id='1076'> +2.8789161e+02 </wgt>
<wgt id='1077'> +2.8788349e+02 </wgt>
<wgt id='1078'> +2.8783094e+02 </wgt>
<wgt id='1079'> +2.8784857e+02 </wgt>
<wgt id='1080'> +2.8783281e+02 </wgt>
<wgt id='1081'> +2.8786248e+02 </wgt>
<wgt id='1082'> +2.8782714e+02 </wgt>
<wgt id='1083'> +2.8784431e+02 </wgt>
<wgt id='1084'> +2.8781758e+02 </wgt>
<wgt id='1085'> +2.8775764e+02 </wgt>
<wgt id='1086'> +2.8779435e+02 </wgt>
<wgt id='1087'> +2.8796116e+02 </wgt>
<wgt id='1088'> +2.8781018e+02 </wgt>
<wgt id='1089'> +2.8777193e+02 </wgt>
<wgt id='1090'> +2.8783730e+02 </wgt>
<wgt id='1091'> +2.8776196e+02 </wgt>
<wgt id='1092'> +2.8784917e+02 </wgt>
<wgt id='1093'> +2.8785340e+02 </wgt>
<wgt id='1094'> +2.8785078e+02 </wgt>
<wgt id='1095'> +2.8780177e+02 </wgt>
<wgt id='1096'> +2.8776827e+02 </wgt>
<wgt id='1097'> +2.8783773e+02 </wgt>
<wgt id='1098'> +2.8782237e+02 </wgt>
<wgt id='1099'> +2.8781896e+02 </wgt>
<wgt id='1100'> +2.8784045e+02 </wgt>
<wgt id='1101'> +2.8782257e+02 </wgt>
<wgt id='1102'> +2.8784289e+02 </wgt>
<wgt id='1103'> +2.8778287e+02 </wgt>
<wgt id='1104'> +2.8777219e+02 </wgt>
<wgt id='1105'> +2.8782068e+02 </wgt>
<wgt id='1106'> +2.8779003e+02 </wgt>
<wgt id='1107'> +2.8782161e+02 </wgt>
<wgt id='1108'> +2.8782272e+02 </wgt>
<wgt id='1109'> +2.8784292e+02 </wgt>
<wgt id='1110'> +2.8781417e+02 </wgt>
<wgt id='1111'> +2.7906163e+02 </wgt>
<wgt id='1112'> +2.9537965e+02 </wgt>
<wgt id='1113'> +2.8781417e+02 </wgt>
<wgt id='1114'> +2.8327448e+02 </wgt>
<wgt id='1115'> +2.8740253e+02 </wgt>
<wgt id='1116'> +2.8971850e+02 </wgt>
<wgt id='1117'> +2.8795019e+02 </wgt>
<wgt id='1118'> +2.8786899e+02 </wgt>
<wgt id='1119'> +2.8420065e+02 </wgt>
<wgt id='1120'> +2.8612451e+02 </wgt>
<wgt id='1121'> +2.8708738e+02 </wgt>
<wgt id='1122'> +2.9154022e+02 </wgt>
<wgt id='1123'> +2.9076806e+02 </wgt>
<wgt id='1124'> +2.9199012e+02 </wgt>
<wgt id='1125'> +2.8449795e+02 </wgt>
<wgt id='1126'> +2.8815344e+02 </wgt>
<wgt id='1127'> +2.8343541e+02 </wgt>
<wgt id='1128'> +2.9356779e+02 </wgt>
<wgt id='1129'> +2.9349688e+02 </wgt>
<wgt id='1130'> +2.9128217e+02 </wgt>
<wgt id='1131'> +2.8781071e+02 </wgt>
<wgt id='1132'> +2.8646575e+02 </wgt>
<wgt id='1133'> +2.9007407e+02 </wgt>
<wgt id='1134'> +2.8141061e+02 </wgt>
<wgt id='1135'> +2.8802404e+02 </wgt>
<wgt id='1136'> +2.8603649e+02 </wgt>
<wgt id='1137'> +2.8651349e+02 </wgt>
<wgt id='1138'> +2.8517157e+02 </wgt>
<wgt id='1139'> +2.9068563e+02 </wgt>
<wgt id='1140'> +2.8751885e+02 </wgt>
<wgt id='1141'> +2.8189982e+02 </wgt>
<wgt id='1142'> +2.8936519e+02 </wgt>
<wgt id='1143'> +2.9086120e+02 </wgt>
<wgt id='1144'> +2.8765521e+02 </wgt>
<wgt id='1145'> +2.8794235e+02 </wgt>
<wgt id='1146'> +2.8362065e+02 </wgt>
<wgt id='1147'> +2.8410014e+02 </wgt>
<wgt id='1148'> +2.9276934e+02 </wgt>
<wgt id='1149'> +2.8521885e+02 </wgt>
<wgt id='1150'> +2.9367397e+02 </wgt>
<wgt id='1151'> +2.8629942e+02 </wgt>
<wgt id='1152'> +2.8680485e+02 </wgt>
<wgt id='1153'> +2.8668145e+02 </wgt>
<wgt id='1154'> +2.8859225e+02 </wgt>
<wgt id='1155'> +2.8261911e+02 </wgt>
<wgt id='1156'> +2.8744561e+02 </wgt>
<wgt id='1157'> +2.8065441e+02 </wgt>
<wgt id='1158'> +2.8791275e+02 </wgt>
<wgt id='1159'> +2.9058321e+02 </wgt>
<wgt id='1160'> +2.8026951e+02 </wgt>
<wgt id='1161'> +2.8609679e+02 </wgt>
<wgt id='1162'> +2.9015428e+02 </wgt>
<wgt id='1163'> +2.9124359e+02 </wgt>
<wgt id='1164'> +2.8380222e+02 </wgt>
<wgt id='1165'> +2.8592674e+02 </wgt>
<wgt id='1166'> +2.8651232e+02 </wgt>
<wgt id='1167'> +2.8784885e+02 </wgt>
<wgt id='1168'> +2.8539159e+02 </wgt>
<wgt id='1169'> +2.8667281e+02 </wgt>
<wgt id='1170'> +2.9098541e+02 </wgt>
<wgt id='1171'> +2.8524442e+02 </wgt>
<wgt id='1172'> +2.9318615e+02 </wgt>
<wgt id='1173'> +2.8912802e+02 </wgt>
<wgt id='1174'> +2.8740501e+02 </wgt>
<wgt id='1175'> +2.8883468e+02 </wgt>
<wgt id='1176'> +2.8452658e+02 </wgt>
<wgt id='1177'> +2.8617294e+02 </wgt>
<wgt id='1178'> +2.8731237e+02 </wgt>
<wgt id='1179'> +2.8740145e+02 </wgt>
<wgt id='1180'> +2.8070419e+02 </wgt>
<wgt id='1181'> +2.9149202e+02 </wgt>
<wgt id='1182'> +2.8445741e+02 </wgt>
<wgt id='1183'> +2.8198855e+02 </wgt>
<wgt id='1184'> +2.9238620e+02 </wgt>
<wgt id='1185'> +2.9352412e+02 </wgt>
<wgt id='1186'> +2.9169349e+02 </wgt>
<wgt id='1187'> +2.9392350e+02 </wgt>
<wgt id='1188'> +2.9085470e+02 </wgt>
<wgt id='1189'> +2.9014526e+02 </wgt>
<wgt id='1190'> +2.8659194e+02 </wgt>
<wgt id='1191'> +2.8812822e+02 </wgt>
<wgt id='1192'> +2.8749191e+02 </wgt>
<wgt id='1193'> +2.8349244e+02 </wgt>
<wgt id='1194'> +2.8255568e+02 </wgt>
<wgt id='1195'> +2.9349688e+02 </wgt>
<wgt id='1196'> +2.8529448e+02 </wgt>
<wgt id='1197'> +2.9060888e+02 </wgt>
<wgt id='1198'> +2.9660112e+02 </wgt>
<wgt id='1199'> +2.7987764e+02 </wgt>
<wgt id='1200'> +2.9197644e+02 </wgt>
<wgt id='1201'> +2.8824753e+02 </wgt>
<wgt id='1202'> +2.9556742e+02 </wgt>
<wgt id='1203'> +2.8266254e+02 </wgt>
<wgt id='1204'> +2.8365958e+02 </wgt>
<wgt id='1205'> +2.9173287e+02 </wgt>
<wgt id='1206'> +2.9171537e+02 </wgt>
<wgt id='1207'> +2.8685342e+02 </wgt>
<wgt id='1208'> +2.8803955e+02 </wgt>
<wgt id='1209'> +2.8495913e+02 </wgt>
<wgt id='1210'> +2.8376519e+02 </wgt>
<wgt id='1211'> +2.9203419e+02 </wgt>
<wgt id='1212'> +2.9189421e+02 </wgt>
<wgt id='1213'> +2.9246510e+02 </wgt>
<wgt id='1214'> +2.8756300e+02 </wgt>
<wgt id='1215'> +2.8712741e+02 </wgt>
<wgt id='1216'> +2.8847019e+02 </wgt>
<wgt id='1217'> +2.8821555e+02 </wgt>
<wgt id='1218'> +2.8767631e+02 </wgt>
<wgt id='1219'> +2.8724672e+02 </wgt>
<wgt id='1220'> +2.8716060e+02 </wgt>
<wgt id='1221'> +2.8700533e+02 </wgt>
<wgt id='1222'> +2.8770437e+02 </wgt>
<wgt id='1223'> +2.8746779e+02 </wgt>
<wgt id='1224'> +2.8723735e+02 </wgt>
<wgt id='1225'> +2.8860218e+02 </wgt>
<wgt id='1226'> +2.8867323e+02 </wgt>
<wgt id='1227'> +2.8894928e+02 </wgt>
<wgt id='1228'> +2.8833417e+02 </wgt>
<wgt id='1229'> +2.8815285e+02 </wgt>
<wgt id='1230'> +2.8746896e+02 </wgt>
<wgt id='1231'> +2.8752200e+02 </wgt>
<wgt id='1232'> +2.8829244e+02 </wgt>
<wgt id='1233'> +2.8746155e+02 </wgt>
<wgt id='1234'> +2.8861773e+02 </wgt>
<wgt id='1235'> +2.8704119e+02 </wgt>
<wgt id='1236'> +2.8838019e+02 </wgt>
<wgt id='1237'> +2.8808246e+02 </wgt>
<wgt id='1238'> +2.8766167e+02 </wgt>
<wgt id='1239'> +2.8831003e+02 </wgt>
<wgt id='1240'> +2.8798623e+02 </wgt>
<wgt id='1241'> +2.8733563e+02 </wgt>
<wgt id='1242'> +2.8733548e+02 </wgt>
<wgt id='1243'> +2.8776919e+02 </wgt>
<wgt id='1244'> +2.8772424e+02 </wgt>
<wgt id='1245'> +2.8763990e+02 </wgt>
<wgt id='1246'> +2.8762868e+02 </wgt>
<wgt id='1247'> +2.8764226e+02 </wgt>
<wgt id='1248'> +2.8760225e+02 </wgt>
<wgt id='1249'> +2.8752583e+02 </wgt>
<wgt id='1250'> +2.8751093e+02 </wgt>
<wgt id='1251'> +2.8762268e+02 </wgt>
<wgt id='1252'> +2.8757466e+02 </wgt>
<wgt id='1253'> +2.8748624e+02 </wgt>
<wgt id='1254'> +2.8748868e+02 </wgt>
<wgt id='1255'> +2.8745329e+02 </wgt>
<wgt id='1256'> +2.8740924e+02 </wgt>
<wgt id='1257'> +2.8760189e+02 </wgt>
<wgt id='1258'> +2.8768044e+02 </wgt>
<wgt id='1259'> +2.8754455e+02 </wgt>
<wgt id='1260'> +2.8771322e+02 </wgt>
<wgt id='1261'> +2.8764867e+02 </wgt>
<wgt id='1262'> +2.8755062e+02 </wgt>
<wgt id='1263'> +2.8755517e+02 </wgt>
<wgt id='1264'> +2.8768042e+02 </wgt>
<wgt id='1265'> +2.8761969e+02 </wgt>
<wgt id='1266'> +2.8748449e+02 </wgt>
<wgt id='1267'> +2.8756810e+02 </wgt>
<wgt id='1268'> +2.8759988e+02 </wgt>
<wgt id='1269'> +2.8757266e+02 </wgt>
<wgt id='1270'> +2.8756845e+02 </wgt>
<wgt id='1271'> +2.8755459e+02 </wgt>
<wgt id='1272'> +2.8757700e+02 </wgt>
<wgt id='1273'> +2.8752104e+02 </wgt>
<wgt id='1274'> +2.8755689e+02 </wgt>
<wgt id='1275'> +2.8753942e+02 </wgt>
<wgt id='1276'> +2.8762459e+02 </wgt>
<wgt id='1277'> +2.8752435e+02 </wgt>
<wgt id='1278'> +2.8754003e+02 </wgt>
<wgt id='1279'> +2.8765963e+02 </wgt>
<wgt id='1280'> +2.8756956e+02 </wgt>
<wgt id='1281'> +2.8755739e+02 </wgt>
<wgt id='1282'> +2.8761127e+02 </wgt>
<wgt id='1283'> +2.8752116e+02 </wgt>
<wgt id='1284'> +2.8751545e+02 </wgt>
<wgt id='1285'> +2.8748724e+02 </wgt>
<wgt id='1286'> +2.8757200e+02 </wgt>
<wgt id='1287'> +2.8759172e+02 </wgt>
<wgt id='1288'> +2.8751713e+02 </wgt>
<wgt id='1289'> +2.8755710e+02 </wgt>
<wgt id='1290'> +2.8755850e+02 </wgt>
<wgt id='1291'> +2.8754223e+02 </wgt>
<wgt id='1292'> +2.8755927e+02 </wgt>
<wgt id='1293'> +2.8758268e+02 </wgt>
<wgt id='1294'> +2.8757212e+02 </wgt>
<wgt id='1295'> +2.8758161e+02 </wgt>
<wgt id='1296'> +2.8756694e+02 </wgt>
<wgt id='1297'> +2.8757463e+02 </wgt>
<wgt id='1298'> +2.8757499e+02 </wgt>
<wgt id='1299'> +2.8755908e+02 </wgt>
<wgt id='1300'> +2.8754775e+02 </wgt>
<wgt id='1301'> +2.8755209e+02 </wgt>
<wgt id='1302'> +2.8756792e+02 </wgt>
<wgt id='1303'> +2.8755781e+02 </wgt>
<wgt id='1304'> +2.8756370e+02 </wgt>
<wgt id='1305'> +2.8756294e+02 </wgt>
<wgt id='1306'> +2.8757563e+02 </wgt>
<wgt id='1307'> +2.8755570e+02 </wgt>
<wgt id='1308'> +2.8758340e+02 </wgt>
<wgt id='1309'> +2.8757245e+02 </wgt>
<wgt id='1310'> +2.8755314e+02 </wgt>
<wgt id='1311'> +2.8756849e+02 </wgt>
<wgt id='1312'> +2.8755618e+02 </wgt>
<wgt id='1313'> +2.8756305e+02 </wgt>
<wgt id='1314'> +2.8756370e+02 </wgt>
<wgt id='1315'> +2.7906163e+02 </wgt>
<wgt id='1316'> +2.9537965e+02 </wgt>
<wgt id='1317'> +2.4836461e+02 </wgt>
<wgt id='1318'> +2.5552017e+02 </wgt>
<wgt id='1319'> +2.6328315e+02 </wgt>
<wgt id='1320'> +2.7158604e+02 </wgt>
<wgt id='1321'> +2.8383041e+02 </wgt>
<wgt id='1322'> +2.9207999e+02 </wgt>
<wgt id='1323'> +3.0298659e+02 </wgt>
<wgt id='1324'> +3.1110197e+02 </wgt>
<wgt id='1325'> +2.9159884e+02 </wgt>
<wgt id='1326'> +2.9244027e+02 </wgt>
<wgt id='1327'> +2.9066482e+02 </wgt>
<wgt id='1328'> +2.9231376e+02 </wgt>
<wgt id='1329'> +2.9201939e+02 </wgt>
<wgt id='1330'> +2.9239267e+02 </wgt>
<wgt id='1331'> +2.9183660e+02 </wgt>
<wgt id='1332'> +2.9167760e+02 </wgt>
<wgt id='1333'> +2.9105061e+02 </wgt>
<wgt id='1334'> +2.9078978e+02 </wgt>
<wgt id='1335'> +2.9084045e+02 </wgt>
<wgt id='1336'> +2.9217303e+02 </wgt>
<wgt id='1337'> +2.9306335e+02 </wgt>
<wgt id='1338'> +2.9014516e+02 </wgt>
<wgt id='1339'> +2.9225852e+02 </wgt>
<wgt id='1340'> +2.9201990e+02 </wgt>
<wgt id='1341'> +2.9178964e+02 </wgt>
<wgt id='1342'> +2.9236301e+02 </wgt>
<wgt id='1343'> +2.9212670e+02 </wgt>
<wgt id='1344'> +2.9073860e+02 </wgt>
<wgt id='1345'> +2.9091144e+02 </wgt>
<wgt id='1346'> +2.9064308e+02 </wgt>
<wgt id='1347'> +2.9152715e+02 </wgt>
<wgt id='1348'> +2.9102076e+02 </wgt>
<wgt id='1349'> +2.9102182e+02 </wgt>
<wgt id='1350'> +2.9156425e+02 </wgt>
<wgt id='1351'> +2.9200779e+02 </wgt>
<wgt id='1352'> +2.9168245e+02 </wgt>
<wgt id='1353'> +2.9098996e+02 </wgt>
<wgt id='1354'> +2.9159248e+02 </wgt>
<wgt id='1355'> +2.9181817e+02 </wgt>
<wgt id='1356'> +2.9169079e+02 </wgt>
<wgt id='1357'> +2.9167565e+02 </wgt>
<wgt id='1358'> +2.9164788e+02 </wgt>
<wgt id='1359'> +2.9171355e+02 </wgt>
<wgt id='1360'> +2.9175183e+02 </wgt>
<wgt id='1361'> +2.9165762e+02 </wgt>
<wgt id='1362'> +2.9157339e+02 </wgt>
<wgt id='1363'> +2.9159192e+02 </wgt>
<wgt id='1364'> +2.9176142e+02 </wgt>
<wgt id='1365'> +2.9150458e+02 </wgt>
<wgt id='1366'> +2.9153907e+02 </wgt>
<wgt id='1367'> +2.9147436e+02 </wgt>
<wgt id='1368'> +2.9145107e+02 </wgt>
<wgt id='1369'> +2.9171916e+02 </wgt>
<wgt id='1370'> +2.9172228e+02 </wgt>
<wgt id='1371'> +2.9165167e+02 </wgt>
<wgt id='1372'> +2.9157269e+02 </wgt>
<wgt id='1373'> +2.9164343e+02 </wgt>
<wgt id='1374'> +2.9154030e+02 </wgt>
<wgt id='1375'> +2.9154401e+02 </wgt>
<wgt id='1376'> +2.9176250e+02 </wgt>
<wgt id='1377'> +2.9155793e+02 </wgt>
<wgt id='1378'> +2.9157150e+02 </wgt>
<wgt id='1379'> +2.9156909e+02 </wgt>
<wgt id='1380'> +2.9160054e+02 </wgt>
<wgt id='1381'> +2.9164854e+02 </wgt>
<wgt id='1382'> +2.9158637e+02 </wgt>
<wgt id='1383'> +2.9152781e+02 </wgt>
<wgt id='1384'> +2.9163010e+02 </wgt>
<wgt id='1385'> +2.9163187e+02 </wgt>
<wgt id='1386'> +2.9169499e+02 </wgt>
<wgt id='1387'> +2.9165160e+02 </wgt>
<wgt id='1388'> +2.9164323e+02 </wgt>
<wgt id='1389'> +2.9158540e+02 </wgt>
<wgt id='1390'> +2.9161046e+02 </wgt>
<wgt id='1391'> +2.9163873e+02 </wgt>
<wgt id='1392'> +2.9151527e+02 </wgt>
<wgt id='1393'> +2.9161137e+02 </wgt>
<wgt id='1394'> +2.9155167e+02 </wgt>
<wgt id='1395'> +2.9154873e+02 </wgt>
<wgt id='1396'> +2.9158464e+02 </wgt>
<wgt id='1397'> +2.9164407e+02 </wgt>
<wgt id='1398'> +2.9157273e+02 </wgt>
<wgt id='1399'> +2.9163636e+02 </wgt>
<wgt id='1400'> +2.9161708e+02 </wgt>
<wgt id='1401'> +2.9159072e+02 </wgt>
<wgt id='1402'> +2.9159868e+02 </wgt>
<wgt id='1403'> +2.9163790e+02 </wgt>
<wgt id='1404'> +2.9160800e+02 </wgt>
<wgt id='1405'> +2.9158768e+02 </wgt>
<wgt id='1406'> +2.9160271e+02 </wgt>
<wgt id='1407'> +2.9158846e+02 </wgt>
<wgt id='1408'> +2.9158158e+02 </wgt>
<wgt id='1409'> +2.9156850e+02 </wgt>
<wgt id='1410'> +2.9158895e+02 </wgt>
<wgt id='1411'> +2.9157201e+02 </wgt>
<wgt id='1412'> +2.9158129e+02 </wgt>
<wgt id='1413'> +2.9160191e+02 </wgt>
<wgt id='1414'> +2.9159903e+02 </wgt>
<wgt id='1415'> +2.9160913e+02 </wgt>
<wgt id='1416'> +2.9162236e+02 </wgt>
<wgt id='1417'> +2.9161921e+02 </wgt>
<wgt id='1418'> +2.9158451e+02 </wgt>
<wgt id='1419'> +2.9162679e+02 </wgt>
<wgt id='1420'> +2.9161030e+02 </wgt>
<wgt id='1421'> +2.9160908e+02 </wgt>
<wgt id='1422'> +2.9157735e+02 </wgt>
<wgt id='1423'> +2.9161843e+02 </wgt>
<wgt id='1424'> +2.9161183e+02 </wgt>
<wgt id='1425'> +2.9160373e+02 </wgt>
<wgt id='1426'> +2.8323439e+02 </wgt>
<wgt id='1427'> +3.0095927e+02 </wgt>
<wgt id='1428'> +2.7869464e+02 </wgt>
<wgt id='1429'> +2.7773286e+02 </wgt>
<wgt id='1430'> +2.7800589e+02 </wgt>
<wgt id='1431'> +2.7728154e+02 </wgt>
<wgt id='1432'> +2.7891992e+02 </wgt>
<wgt id='1433'> +2.7405985e+02 </wgt>
<wgt id='1434'> +2.8128415e+02 </wgt>
<wgt id='1435'> +2.7936352e+02 </wgt>
<wgt id='1436'> +2.7618098e+02 </wgt>
<wgt id='1437'> +2.8146948e+02 </wgt>
<wgt id='1438'> +2.7718622e+02 </wgt>
<wgt id='1439'> +2.7828076e+02 </wgt>
<wgt id='1440'> +2.7836088e+02 </wgt>
<wgt id='1441'> +2.7340604e+02 </wgt>
<wgt id='1442'> +2.7909421e+02 </wgt>
<wgt id='1443'> +2.8060339e+02 </wgt>
<wgt id='1444'> +2.7272907e+02 </wgt>
<wgt id='1445'> +2.7912716e+02 </wgt>
<wgt id='1446'> +2.7825758e+02 </wgt>
<wgt id='1447'> +2.7769763e+02 </wgt>
<wgt id='1448'> +2.7960878e+02 </wgt>
<wgt id='1449'> +2.7958067e+02 </wgt>
<wgt id='1450'> +2.7811933e+02 </wgt>
<wgt id='1451'> +2.7786429e+02 </wgt>
<wgt id='1452'> +2.7952876e+02 </wgt>
<wgt id='1453'> +2.7832655e+02 </wgt>
<wgt id='1454'> +2.7899147e+02 </wgt>
<wgt id='1455'> +2.8143678e+02 </wgt>
<wgt id='1456'> +2.7406039e+02 </wgt>
<wgt id='1457'> +2.7360429e+02 </wgt>
<wgt id='1458'> +2.8174545e+02 </wgt>
<wgt id='1459'> +2.7573713e+02 </wgt>
<wgt id='1460'> +2.8294571e+02 </wgt>
<wgt id='1461'> +2.7688422e+02 </wgt>
<wgt id='1462'> +2.8021209e+02 </wgt>
<wgt id='1463'> +2.7474489e+02 </wgt>
<wgt id='1464'> +2.8195227e+02 </wgt>
<wgt id='1465'> +2.7808937e+02 </wgt>
<wgt id='1466'> +2.7925070e+02 </wgt>
<wgt id='1467'> +2.8305887e+02 </wgt>
<wgt id='1468'> +2.7650034e+02 </wgt>
<wgt id='1469'> +2.7619491e+02 </wgt>
<wgt id='1470'> +2.7900233e+02 </wgt>
<wgt id='1471'> +2.8096380e+02 </wgt>
<wgt id='1472'> +2.7192491e+02 </wgt>
<wgt id='1473'> +2.8568191e+02 </wgt>
<wgt id='1474'> +2.7701206e+02 </wgt>
<wgt id='1475'> +2.8010792e+02 </wgt>
<wgt id='1476'> +2.8047875e+02 </wgt>
<wgt id='1477'> +2.7885003e+02 </wgt>
<wgt id='1478'> +2.7932470e+02 </wgt>
<wgt id='1479'> +2.7938493e+02 </wgt>
<wgt id='1480'> +2.7859551e+02 </wgt>
<wgt id='1481'> +2.7606093e+02 </wgt>
<wgt id='1482'> +2.8254158e+02 </wgt>
<wgt id='1483'> +2.7710327e+02 </wgt>
<wgt id='1484'> +2.8040441e+02 </wgt>
<wgt id='1485'> +2.7039778e+02 </wgt>
<wgt id='1486'> +2.8635472e+02 </wgt>
<wgt id='1487'> +2.8519466e+02 </wgt>
<wgt id='1488'> +2.8551989e+02 </wgt>
<wgt id='1489'> +2.8599943e+02 </wgt>
<wgt id='1490'> +2.8970490e+02 </wgt>
<wgt id='1491'> +2.8338381e+02 </wgt>
<wgt id='1492'> +2.8626519e+02 </wgt>
<wgt id='1493'> +2.8439700e+02 </wgt>
<wgt id='1494'> +2.8766567e+02 </wgt>
<wgt id='1495'> +2.8449576e+02 </wgt>
<wgt id='1496'> +2.7985152e+02 </wgt>
<wgt id='1497'> +2.8869615e+02 </wgt>
<wgt id='1498'> +2.8898466e+02 </wgt>
<wgt id='1499'> +2.8308769e+02 </wgt>
<wgt id='1500'> +2.7524681e+02 </wgt>
<wgt id='1501'> +2.9078599e+02 </wgt>
<wgt id='1502'> +2.8768982e+02 </wgt>
<wgt id='1503'> +2.8360977e+02 </wgt>
<wgt id='1504'> +2.8244712e+02 </wgt>
<wgt id='1505'> +2.8846508e+02 </wgt>
<wgt id='1506'> +2.8853505e+02 </wgt>
<wgt id='1507'> +2.8143182e+02 </wgt>
<wgt id='1508'> +2.8572358e+02 </wgt>
<wgt id='1509'> +2.8398533e+02 </wgt>
<wgt id='1510'> +2.8400016e+02 </wgt>
<wgt id='1511'> +2.8621546e+02 </wgt>
<wgt id='1512'> +2.8177641e+02 </wgt>
<wgt id='1513'> +2.8833160e+02 </wgt>
<wgt id='1514'> +2.8427351e+02 </wgt>
<wgt id='1515'> +2.8641643e+02 </wgt>
<wgt id='1516'> +2.8318314e+02 </wgt>
<wgt id='1517'> +2.8588752e+02 </wgt>
<wgt id='1518'> +2.8559521e+02 </wgt>
<wgt id='1519'> +2.8466960e+02 </wgt>
<wgt id='1520'> +2.8498328e+02 </wgt>
<wgt id='1521'> +2.8561986e+02 </wgt>
<wgt id='1522'> +2.8907553e+02 </wgt>
<wgt id='1523'> +2.8147699e+02 </wgt>
<wgt id='1524'> +2.8722133e+02 </wgt>
<wgt id='1525'> +2.8167774e+02 </wgt>
<wgt id='1526'> +2.8486847e+02 </wgt>
<wgt id='1527'> +2.8487987e+02 </wgt>
<wgt id='1528'> +2.8731604e+02 </wgt>
<wgt id='1529'> +2.8326790e+02 </wgt>
<wgt id='1530'> +2.8717351e+02 </wgt>
<wgt id='1531'> +2.8311012e+02 </wgt>
<wgt id='1532'> +2.8148346e+02 </wgt>
<wgt id='1533'> +2.8431218e+02 </wgt>
<wgt id='1534'> +2.8245288e+02 </wgt>
<wgt id='1535'> +2.8661305e+02 </wgt>
<wgt id='1536'> +2.8509080e+02 </wgt>
<wgt id='1537'> +2.8132363e+02 </wgt>
<wgt id='1538'> +2.8446827e+02 </wgt>
<wgt id='1539'> +2.8454403e+02 </wgt>
<wgt id='1540'> +2.7776297e+02 </wgt>
<wgt id='1541'> +2.8604213e+02 </wgt>
<wgt id='1542'> +2.8336587e+02 </wgt>
<wgt id='1543'> +2.8715695e+02 </wgt>
<wgt id='1544'> +2.7593249e+02 </wgt>
<wgt id='1545'> +2.9403003e+02 </wgt>
<wgt id='1546'> +2.8755334e+02 </wgt>
<wgt id='1547'> +2.8935491e+02 </wgt>
<wgt id='1548'> +2.8954438e+02 </wgt>
<wgt id='1549'> +2.8914155e+02 </wgt>
<wgt id='1550'> +2.8947168e+02 </wgt>
<wgt id='1551'> +2.8927958e+02 </wgt>
<wgt id='1552'> +2.8988979e+02 </wgt>
<wgt id='1553'> +2.8886368e+02 </wgt>
<wgt id='1554'> +2.8823898e+02 </wgt>
<wgt id='1555'> +2.9061441e+02 </wgt>
<wgt id='1556'> +2.9039062e+02 </wgt>
<wgt id='1557'> +2.8834660e+02 </wgt>
<wgt id='1558'> +2.9000295e+02 </wgt>
<wgt id='1559'> +2.8796750e+02 </wgt>
<wgt id='1560'> +2.8902319e+02 </wgt>
<wgt id='1561'> +2.8994074e+02 </wgt>
<wgt id='1562'> +2.8846125e+02 </wgt>
<wgt id='1563'> +2.8985813e+02 </wgt>
<wgt id='1564'> +2.8769200e+02 </wgt>
<wgt id='1565'> +2.9131940e+02 </wgt>
<wgt id='1566'> +2.8969207e+02 </wgt>
<wgt id='1567'> +2.8906460e+02 </wgt>
<wgt id='1568'> +2.8874082e+02 </wgt>
<wgt id='1569'> +2.9018877e+02 </wgt>
<wgt id='1570'> +2.8736750e+02 </wgt>
<wgt id='1571'> +2.9076179e+02 </wgt>
<wgt id='1572'> +2.8707319e+02 </wgt>
<wgt id='1573'> +2.9091482e+02 </wgt>
<wgt id='1574'> +2.9017703e+02 </wgt>
<wgt id='1575'> +2.8937117e+02 </wgt>
<wgt id='1576'> +2.9086578e+02 </wgt>
<wgt id='1577'> +2.8760400e+02 </wgt>
<wgt id='1578'> +2.8964151e+02 </wgt>
<wgt id='1579'> +2.8891092e+02 </wgt>
<wgt id='1580'> +2.8988232e+02 </wgt>
<wgt id='1581'> +2.8880348e+02 </wgt>
<wgt id='1582'> +2.8924922e+02 </wgt>
<wgt id='1583'> +2.9017585e+02 </wgt>
<wgt id='1584'> +2.8989210e+02 </wgt>
<wgt id='1585'> +2.8933312e+02 </wgt>
<wgt id='1586'> +2.8904980e+02 </wgt>
<wgt id='1587'> +2.8968609e+02 </wgt>
<wgt id='1588'> +2.8894023e+02 </wgt>
<wgt id='1589'> +2.8989305e+02 </wgt>
<wgt id='1590'> +2.9305658e+02 </wgt>
<wgt id='1591'> +2.8771191e+02 </wgt>
<wgt id='1592'> +2.8914993e+02 </wgt>
<wgt id='1593'> +2.8988749e+02 </wgt>
<wgt id='1594'> +2.8956720e+02 </wgt>
<wgt id='1595'> +2.8711008e+02 </wgt>
<wgt id='1596'> +2.8949806e+02 </wgt>
<wgt id='1597'> +2.8916561e+02 </wgt>
<wgt id='1598'> +2.8014209e+02 </wgt>
<wgt id='1599'> +2.8015082e+02 </wgt>
<wgt id='1600'> +2.8012074e+02 </wgt>
<wgt id='1601'> +2.8093823e+02 </wgt>
<wgt id='1602'> +2.7934478e+02 </wgt>
<wgt id='1603'> +2.8059151e+02 </wgt>
<wgt id='1604'> +2.7995710e+02 </wgt>
<wgt id='1605'> +2.7896573e+02 </wgt>
<wgt id='1606'> +2.8130309e+02 </wgt>
<wgt id='1607'> +2.8064850e+02 </wgt>
<wgt id='1608'> +2.7963423e+02 </wgt>
<wgt id='1609'> +2.7733269e+02 </wgt>
<wgt id='1610'> +2.8134341e+02 </wgt>
<wgt id='1611'> +2.8014786e+02 </wgt>
<wgt id='1612'> +2.8011832e+02 </wgt>
<wgt id='1613'> +2.7927903e+02 </wgt>
<wgt id='1614'> +2.8105290e+02 </wgt>
<wgt id='1615'> +2.7895066e+02 </wgt>
<wgt id='1616'> +2.8076320e+02 </wgt>
<wgt id='1617'> +2.7977542e+02 </wgt>
<wgt id='1618'> +2.8063481e+02 </wgt>
<wgt id='1619'> +2.8011820e+02 </wgt>
<wgt id='1620'> +2.8014803e+02 </wgt>
<wgt id='1621'> +2.8256996e+02 </wgt>
<wgt id='1622'> +2.7766818e+02 </wgt>
<wgt id='1623'> +2.8117431e+02 </wgt>
<wgt id='1624'> +2.7759033e+02 </wgt>
<wgt id='1625'> +2.8131079e+02 </wgt>
<wgt id='1626'> +2.7969991e+02 </wgt>
<wgt id='1627'> +2.7906581e+02 </wgt>
<wgt id='1628'> +2.8279092e+02 </wgt>
<wgt id='1629'> +2.8010872e+02 </wgt>
<wgt id='1630'> +2.8026123e+02 </wgt>
<wgt id='1631'> +2.7981293e+02 </wgt>
<wgt id='1632'> +2.8091559e+02 </wgt>
<wgt id='1633'> +2.8073553e+02 </wgt>
<wgt id='1634'> +2.8002617e+02 </wgt>
<wgt id='1635'> +2.8024270e+02 </wgt>
<wgt id='1636'> +2.8022889e+02 </wgt>
<wgt id='1637'> +2.7981468e+02 </wgt>
<wgt id='1638'> +2.8035375e+02 </wgt>
<wgt id='1639'> +2.7955089e+02 </wgt>
<wgt id='1640'> +2.8065924e+02 </wgt>
<wgt id='1641'> +2.8035788e+02 </wgt>
<wgt id='1642'> +2.7886156e+02 </wgt>
<wgt id='1643'> +2.7797723e+02 </wgt>
<wgt id='1644'> +2.8096502e+02 </wgt>
<wgt id='1645'> +2.8045505e+02 </wgt>
<wgt id='1646'> +2.7991820e+02 </wgt>
<wgt id='1647'> +2.7975419e+02 </wgt>
<wgt id='1648'> +2.7991067e+02 </wgt>
<wgt id='1649'> +4.4113523e+02 </wgt>
<wgt id='1650'> +2.8402777e+02 </wgt>
<wgt id='1651'> +2.8394297e+02 </wgt>
<wgt id='1652'> +2.8410429e+02 </wgt>
<wgt id='1653'> +2.8405299e+02 </wgt>
<wgt id='1654'> +2.8401982e+02 </wgt>
<wgt id='1655'> +2.8336693e+02 </wgt>
<wgt id='1656'> +2.8384972e+02 </wgt>
<wgt id='1657'> +2.8364905e+02 </wgt>
<wgt id='1658'> +2.8451803e+02 </wgt>
<wgt id='1659'> +2.8504856e+02 </wgt>
<wgt id='1660'> +2.8404115e+02 </wgt>
<wgt id='1661'> +2.8387995e+02 </wgt>
<wgt id='1662'> +2.8373058e+02 </wgt>
<wgt id='1663'> +2.8395441e+02 </wgt>
<wgt id='1664'> +2.8387805e+02 </wgt>
<wgt id='1665'> +2.8380611e+02 </wgt>
<wgt id='1666'> +2.8411876e+02 </wgt>
<wgt id='1667'> +2.8401569e+02 </wgt>
<wgt id='1668'> +2.8403279e+02 </wgt>
<wgt id='1669'> +2.8444635e+02 </wgt>
<wgt id='1670'> +2.8318783e+02 </wgt>
<wgt id='1671'> +2.8404887e+02 </wgt>
<wgt id='1672'> +2.8249439e+02 </wgt>
<wgt id='1673'> +2.8429634e+02 </wgt>
<wgt id='1674'> +2.8454061e+02 </wgt>
<wgt id='1675'> +2.8490627e+02 </wgt>
<wgt id='1676'> +2.8457440e+02 </wgt>
<wgt id='1677'> +2.8357316e+02 </wgt>
<wgt id='1678'> +2.8430382e+02 </wgt>
<wgt id='1679'> +2.8201590e+02 </wgt>
<wgt id='1680'> +2.8685032e+02 </wgt>
<wgt id='1681'> +2.8609573e+02 </wgt>
<wgt id='1682'> +2.8869447e+02 </wgt>
<wgt id='1683'> +2.8835601e+02 </wgt>
<wgt id='1684'> +2.8633895e+02 </wgt>
<wgt id='1685'> +2.8614535e+02 </wgt>
<wgt id='1686'> +2.8622701e+02 </wgt>
<wgt id='1687'> +2.8834467e+02 </wgt>
<wgt id='1688'> +2.8981604e+02 </wgt>
<wgt id='1689'> +2.8579839e+02 </wgt>
<wgt id='1690'> +2.9063659e+02 </wgt>
<wgt id='1691'> +2.8706404e+02 </wgt>
<wgt id='1692'> +2.8405894e+02 </wgt>
<wgt id='1693'> +2.8714123e+02 </wgt>
<wgt id='1694'> +2.8494539e+02 </wgt>
<wgt id='1695'> +2.8720643e+02 </wgt>
<wgt id='1696'> +2.8757435e+02 </wgt>
<wgt id='1697'> +2.8591664e+02 </wgt>
<wgt id='1698'> +2.8613302e+02 </wgt>
<wgt id='1699'> +2.8624839e+02 </wgt>
<wgt id='1700'> +2.8708073e+02 </wgt>
<wgt id='1701'> +2.8537336e+02 </wgt>
<wgt id='1702'> +2.8705619e+02 </wgt>
<wgt id='1703'> +2.8629960e+02 </wgt>
<wgt id='1704'> +2.8669581e+02 </wgt>
<wgt id='1705'> +2.8648572e+02 </wgt>
<wgt id='1706'> +2.8650336e+02 </wgt>
<wgt id='1707'> +2.8698326e+02 </wgt>
<wgt id='1708'> +2.8605919e+02 </wgt>
<wgt id='1709'> +2.8663919e+02 </wgt>
<wgt id='1710'> +2.8674404e+02 </wgt>
<wgt id='1711'> +2.8675060e+02 </wgt>
<wgt id='1712'> +2.8687646e+02 </wgt>
<wgt id='1713'> +2.8627694e+02 </wgt>
<wgt id='1714'> +2.8695054e+02 </wgt>
<wgt id='1715'> +2.8750488e+02 </wgt>
<wgt id='1716'> +2.8662522e+02 </wgt>
<wgt id='1717'> +2.8695991e+02 </wgt>
<wgt id='1718'> +2.8659334e+02 </wgt>
<wgt id='1719'> +2.8690316e+02 </wgt>
<wgt id='1720'> +2.8686813e+02 </wgt>
<wgt id='1721'> +2.8698854e+02 </wgt>
<wgt id='1722'> +2.8706646e+02 </wgt>
<wgt id='1723'> +2.8660795e+02 </wgt>
<wgt id='1724'> +2.8711237e+02 </wgt>
<wgt id='1725'> +2.8708001e+02 </wgt>
<wgt id='1726'> +2.8714922e+02 </wgt>
<wgt id='1727'> +2.8661228e+02 </wgt>
<wgt id='1728'> +2.8656880e+02 </wgt>
<wgt id='1729'> +2.8686006e+02 </wgt>
<wgt id='1730'> +2.8688954e+02 </wgt>
<wgt id='1731'> +2.8657079e+02 </wgt>
<wgt id='1732'> +2.8690691e+02 </wgt>
<wgt id='1733'> +2.8672271e+02 </wgt>
<wgt id='1734'> +2.8672692e+02 </wgt>
<wgt id='1735'> +2.8687613e+02 </wgt>
<wgt id='1736'> +2.8682774e+02 </wgt>
<wgt id='1737'> +2.8677897e+02 </wgt>
<wgt id='1738'> +2.8716787e+02 </wgt>
<wgt id='1739'> +2.8669834e+02 </wgt>
<wgt id='1740'> +2.8653127e+02 </wgt>
<wgt id='1741'> +2.8680210e+02 </wgt>
<wgt id='1742'> +2.8662688e+02 </wgt>
<wgt id='1743'> +2.8686473e+02 </wgt>
<wgt id='1744'> +2.8678921e+02 </wgt>
<wgt id='1745'> +2.8683818e+02 </wgt>
<wgt id='1746'> +2.8678290e+02 </wgt>
<wgt id='1747'> +2.8681250e+02 </wgt>
<wgt id='1748'> +2.8695591e+02 </wgt>
<wgt id='1749'> +2.8692538e+02 </wgt>
<wgt id='1750'> +2.8683633e+02 </wgt>
<wgt id='1751'> +2.8672568e+02 </wgt>
<wgt id='1752'> +2.8676700e+02 </wgt>
<wgt id='1753'> +2.8673266e+02 </wgt>
<wgt id='1754'> +2.8692032e+02 </wgt>
<wgt id='1755'> +2.8681639e+02 </wgt>
<wgt id='1756'> +2.8681780e+02 </wgt>
<wgt id='1757'> +2.8684941e+02 </wgt>
<wgt id='1758'> +2.8687693e+02 </wgt>
<wgt id='1759'> +2.8702045e+02 </wgt>
<wgt id='1760'> +2.8685639e+02 </wgt>
<wgt id='1761'> +2.8690362e+02 </wgt>
<wgt id='1762'> +2.8665837e+02 </wgt>
<wgt id='1763'> +2.8696659e+02 </wgt>
<wgt id='1764'> +2.8691235e+02 </wgt>
<wgt id='1765'> +2.8690534e+02 </wgt>
<wgt id='1766'> +2.8697080e+02 </wgt>
<wgt id='1767'> +2.8680187e+02 </wgt>
<wgt id='1768'> +2.8677676e+02 </wgt>
<wgt id='1769'> +2.8685939e+02 </wgt>
<wgt id='1770'> +2.8681851e+02 </wgt>
<wgt id='1771'> +2.8682342e+02 </wgt>
<wgt id='1772'> +2.8684660e+02 </wgt>
<wgt id='1773'> +2.8674372e+02 </wgt>
<wgt id='1774'> +2.8689555e+02 </wgt>
<wgt id='1775'> +2.8688493e+02 </wgt>
<wgt id='1776'> +2.8678389e+02 </wgt>
<wgt id='1777'> +2.8688326e+02 </wgt>
<wgt id='1778'> +2.8691706e+02 </wgt>
<wgt id='1779'> +2.8688572e+02 </wgt>
<wgt id='1780'> +2.8684473e+02 </wgt>
<wgt id='1781'> +2.8031628e+02 </wgt>
<wgt id='1782'> +2.9279681e+02 </wgt>
<wgt id='1783'> +2.8063044e+02 </wgt>
<wgt id='1784'> +2.8096300e+02 </wgt>
<wgt id='1785'> +2.8173686e+02 </wgt>
<wgt id='1786'> +2.7877686e+02 </wgt>
<wgt id='1787'> +2.8020571e+02 </wgt>
<wgt id='1788'> +2.8134291e+02 </wgt>
<wgt id='1789'> +2.8027493e+02 </wgt>
<wgt id='1790'> +2.8128345e+02 </wgt>
<wgt id='1791'> +2.8127174e+02 </wgt>
<wgt id='1792'> +2.8036638e+02 </wgt>
<wgt id='1793'> +2.8001237e+02 </wgt>
<wgt id='1794'> +2.8334791e+02 </wgt>
<wgt id='1795'> +2.7798620e+02 </wgt>
<wgt id='1796'> +2.7715342e+02 </wgt>
<wgt id='1797'> +2.7818735e+02 </wgt>
<wgt id='1798'> +2.8065507e+02 </wgt>
<wgt id='1799'> +2.8261206e+02 </wgt>
<wgt id='1800'> +2.8047709e+02 </wgt>
<wgt id='1801'> +2.8014043e+02 </wgt>
<wgt id='1802'> +2.8011501e+02 </wgt>
<wgt id='1803'> +2.8185490e+02 </wgt>
<wgt id='1804'> +2.8020641e+02 </wgt>
<wgt id='1805'> +2.8100488e+02 </wgt>
<wgt id='1806'> +2.8017095e+02 </wgt>
<wgt id='1807'> +2.8029461e+02 </wgt>
<wgt id='1808'> +2.8099833e+02 </wgt>
<wgt id='1809'> +2.8066710e+02 </wgt>
<wgt id='1810'> +2.8015016e+02 </wgt>
<wgt id='1811'> +2.8089013e+02 </wgt>
<wgt id='1812'> +2.8094831e+02 </wgt>
<wgt id='1813'> +2.8068385e+02 </wgt>
<wgt id='1814'> +2.8052446e+02 </wgt>
<wgt id='1815'> +2.8088437e+02 </wgt>
<wgt id='1816'> +2.8100342e+02 </wgt>
<wgt id='1817'> +2.8048293e+02 </wgt>
<wgt id='1818'> +2.8110750e+02 </wgt>
<wgt id='1819'> +2.8063350e+02 </wgt>
<wgt id='1820'> +2.8089900e+02 </wgt>
<wgt id='1821'> +2.8065940e+02 </wgt>
<wgt id='1822'> +2.8068354e+02 </wgt>
<wgt id='1823'> +2.8031662e+02 </wgt>
<wgt id='1824'> +2.8050826e+02 </wgt>
<wgt id='1825'> +2.8058438e+02 </wgt>
<wgt id='1826'> +2.8041062e+02 </wgt>
<wgt id='1827'> +2.8072619e+02 </wgt>
<wgt id='1828'> +2.8059968e+02 </wgt>
<wgt id='1829'> +2.8025016e+02 </wgt>
<wgt id='1830'> +2.8050917e+02 </wgt>
<wgt id='1831'> +2.8071742e+02 </wgt>
<wgt id='1832'> +2.8047590e+02 </wgt>
<wgt id='1833'> +2.8069307e+02 </wgt>
<wgt id='1834'> +2.8074699e+02 </wgt>
<wgt id='1835'> +2.8069802e+02 </wgt>
<wgt id='1836'> +2.8066714e+02 </wgt>
<wgt id='1837'> +2.8048929e+02 </wgt>
<wgt id='1838'> +2.8056877e+02 </wgt>
<wgt id='1839'> +2.8089288e+02 </wgt>
<wgt id='1840'> +2.8060801e+02 </wgt>
<wgt id='1841'> +2.8042228e+02 </wgt>
<wgt id='1842'> +2.8050664e+02 </wgt>
<wgt id='1843'> +2.8053130e+02 </wgt>
<wgt id='1844'> +2.8067025e+02 </wgt>
<wgt id='1845'> +2.8067530e+02 </wgt>
<wgt id='1846'> +2.8076544e+02 </wgt>
<wgt id='1847'> +2.8055747e+02 </wgt>
<wgt id='1848'> +2.8062665e+02 </wgt>
<wgt id='1849'> +2.8066167e+02 </wgt>
<wgt id='1850'> +2.8072726e+02 </wgt>
<wgt id='1851'> +2.8072241e+02 </wgt>
<wgt id='1852'> +2.8078436e+02 </wgt>
<wgt id='1853'> +2.8060242e+02 </wgt>
<wgt id='1854'> +2.8079267e+02 </wgt>
<wgt id='1855'> +2.8080014e+02 </wgt>
<wgt id='1856'> +2.8055627e+02 </wgt>
<wgt id='1857'> +2.8067237e+02 </wgt>
<wgt id='1858'> +2.8061176e+02 </wgt>
<wgt id='1859'> +2.8059808e+02 </wgt>
<wgt id='1860'> +2.8066997e+02 </wgt>
<wgt id='1861'> +2.8065073e+02 </wgt>
<wgt id='1862'> +2.8058105e+02 </wgt>
<wgt id='1863'> +2.8081896e+02 </wgt>
<wgt id='1864'> +2.8059501e+02 </wgt>
<wgt id='1865'> +2.8069484e+02 </wgt>
<wgt id='1866'> +2.8054030e+02 </wgt>
<wgt id='1867'> +2.8055469e+02 </wgt>
<wgt id='1868'> +2.8055769e+02 </wgt>
<wgt id='1869'> +2.8065845e+02 </wgt>
<wgt id='1870'> +2.8046300e+02 </wgt>
<wgt id='1871'> +2.8057300e+02 </wgt>
<wgt id='1872'> +2.8057008e+02 </wgt>
<wgt id='1873'> +2.8067548e+02 </wgt>
<wgt id='1874'> +2.8060910e+02 </wgt>
<wgt id='1875'> +2.8062654e+02 </wgt>
<wgt id='1876'> +2.8058615e+02 </wgt>
<wgt id='1877'> +2.8061804e+02 </wgt>
<wgt id='1878'> +2.8066244e+02 </wgt>
<wgt id='1879'> +2.8057245e+02 </wgt>
<wgt id='1880'> +2.8064713e+02 </wgt>
<wgt id='1881'> +2.8063133e+02 </wgt>
<wgt id='1882'> +2.8056808e+02 </wgt>
<wgt id='1883'> +2.8062247e+02 </wgt>
<wgt id='1884'> +2.7520143e+02 </wgt>
<wgt id='1885'> +2.8554358e+02 </wgt>
<wgt id='1886'> +2.8687243e+02 </wgt>
<wgt id='1887'> +2.8794261e+02 </wgt>
<wgt id='1888'> +2.8648026e+02 </wgt>
<wgt id='1889'> +2.8685993e+02 </wgt>
<wgt id='1890'> +2.8717182e+02 </wgt>
<wgt id='1891'> +2.9346009e+02 </wgt>
<wgt id='1892'> +2.8666904e+02 </wgt>
<wgt id='1893'> +2.8676306e+02 </wgt>
<wgt id='1894'> +2.8717843e+02 </wgt>
<wgt id='1895'> +2.8641253e+02 </wgt>
<wgt id='1896'> +2.8705297e+02 </wgt>
<wgt id='1897'> +2.8672226e+02 </wgt>
<wgt id='1898'> +2.8640987e+02 </wgt>
<wgt id='1899'> +2.8681611e+02 </wgt>
<wgt id='1900'> +2.8682762e+02 </wgt>
<wgt id='1901'> +2.8720173e+02 </wgt>
<wgt id='1902'> +2.8684544e+02 </wgt>
<wgt id='1903'> +2.8493851e+02 </wgt>
<wgt id='1904'> +2.8712332e+02 </wgt>
<wgt id='1905'> +2.8655287e+02 </wgt>
<wgt id='1906'> +2.8682810e+02 </wgt>
<wgt id='1907'> +2.8683447e+02 </wgt>
<wgt id='1908'> +2.8672201e+02 </wgt>
<wgt id='1909'> +2.8692161e+02 </wgt>
<wgt id='1910'> +2.8674181e+02 </wgt>
<wgt id='1911'> +2.8672860e+02 </wgt>
<wgt id='1912'> +2.8710416e+02 </wgt>
<wgt id='1913'> +2.8710115e+02 </wgt>
<wgt id='1914'> +2.8810630e+02 </wgt>
<wgt id='1915'> +2.8722134e+02 </wgt>
<wgt id='1916'> +2.8679957e+02 </wgt>
<wgt id='1917'> +2.8031628e+02 </wgt>
<wgt id='1918'> +2.9279681e+02 </wgt>
<wgt id='1919'> +2.8064617e+02 </wgt>
<wgt id='1920'> +2.8011774e+02 </wgt>
<wgt id='1921'> +2.8156909e+02 </wgt>
<wgt id='1922'> +2.8033558e+02 </wgt>
<wgt id='1923'> +2.8151255e+02 </wgt>
<wgt id='1924'> +2.7733771e+02 </wgt>
<wgt id='1925'> +2.8068845e+02 </wgt>
<wgt id='1926'> +2.8002936e+02 </wgt>
<wgt id='1927'> +2.7995516e+02 </wgt>
<wgt id='1928'> +2.7956548e+02 </wgt>
<wgt id='1929'> +2.8213690e+02 </wgt>
<wgt id='1930'> +2.7940576e+02 </wgt>
<wgt id='1931'> +2.8088401e+02 </wgt>
<wgt id='1932'> +2.8151016e+02 </wgt>
<wgt id='1933'> +2.7998238e+02 </wgt>
<wgt id='1934'> +2.8038298e+02 </wgt>
<wgt id='1935'> +2.8035401e+02 </wgt>
<wgt id='1936'> +2.8262894e+02 </wgt>
<wgt id='1937'> +2.8058825e+02 </wgt>
<wgt id='1938'> +2.8054875e+02 </wgt>
<wgt id='1939'> +2.8111842e+02 </wgt>
<wgt id='1940'> +2.8132838e+02 </wgt>
<wgt id='1941'> +2.8539051e+02 </wgt>
<wgt id='1942'> +2.8064256e+02 </wgt>
<wgt id='1943'> +2.8062735e+02 </wgt>
<wgt id='1944'> +2.8030795e+02 </wgt>
<wgt id='1945'> +2.8070333e+02 </wgt>
<wgt id='1946'> +2.8055378e+02 </wgt>
<wgt id='1947'> +2.8068641e+02 </wgt>
<wgt id='1948'> +2.8069446e+02 </wgt>
<wgt id='1949'> +2.8064691e+02 </wgt>
<wgt id='1950'> +2.7520143e+02 </wgt>
<wgt id='1951'> +2.8554358e+02 </wgt>
<wgt id='1952'> +3.0339699e+02 </wgt>
<wgt id='1953'> +3.0301337e+02 </wgt>
<wgt id='1954'> +3.0377911e+02 </wgt>
<wgt id='1955'> +3.0416964e+02 </wgt>
<wgt id='1956'> +3.0262568e+02 </wgt>
<wgt id='1957'> +3.0385511e+02 </wgt>
<wgt id='1958'> +3.0293949e+02 </wgt>
<wgt id='1959'> +3.0408972e+02 </wgt>
<wgt id='1960'> +3.0272434e+02 </wgt>
<wgt id='1961'> +3.0385581e+02 </wgt>
<wgt id='1962'> +3.0294683e+02 </wgt>
<wgt id='1963'> +3.0271329e+02 </wgt>
<wgt id='1964'> +3.0409089e+02 </wgt>
<wgt id='1965'> +3.0230019e+02 </wgt>
<wgt id='1966'> +3.0450288e+02 </wgt>
<wgt id='1967'> +3.0346651e+02 </wgt>
<wgt id='1968'> +3.0313841e+02 </wgt>
<wgt id='1969'> +3.0433576e+02 </wgt>
<wgt id='1970'> +3.0230928e+02 </wgt>
<wgt id='1971'> +3.0251410e+02 </wgt>
<wgt id='1972'> +3.0427005e+02 </wgt>
<wgt id='1973'> +3.0446314e+02 </wgt>
<wgt id='1974'> +3.0198537e+02 </wgt>
<wgt id='1975'> +3.0205014e+02 </wgt>
<wgt id='1976'> +3.0324631e+02 </wgt>
<wgt id='1977'> +3.0398049e+02 </wgt>
<wgt id='1978'> +3.0324923e+02 </wgt>
<wgt id='1979'> +3.0349800e+02 </wgt>
<wgt id='1980'> +3.0356196e+02 </wgt>
<wgt id='1981'> +3.0339699e+02 </wgt>
<wgt id='1982'> +3.0313471e+02 </wgt>
<wgt id='1983'> +3.0354500e+02 </wgt>
<wgt id='1984'> +3.0305053e+02 </wgt>
<wgt id='1985'> +3.0350819e+02 </wgt>
<wgt id='1986'> +3.0445022e+02 </wgt>
<wgt id='1987'> +3.0175220e+02 </wgt>
<wgt id='1988'> +3.0233052e+02 </wgt>
<wgt id='1989'> +3.0441397e+02 </wgt>
<wgt id='1990'> +3.0272563e+02 </wgt>
<wgt id='1991'> +3.0416444e+02 </wgt>
<wgt id='1992'> +3.0327272e+02 </wgt>
<wgt id='1993'> +3.0401349e+02 </wgt>
<wgt id='1994'> +3.0059842e+02 </wgt>
<wgt id='1995'> +2.8483820e+02 </wgt>
<wgt id='1996'> +2.8464268e+02 </wgt>
<wgt id='1997'> +2.8499838e+02 </wgt>
<wgt id='1998'> +2.8525869e+02 </wgt>
<wgt id='1999'> +2.8438336e+02 </wgt>
<wgt id='2000'> +2.8550180e+02 </wgt>
<wgt id='2001'> +2.8414129e+02 </wgt>
<wgt id='2002'> +2.8590745e+02 </wgt>
<wgt id='2003'> +2.8375773e+02 </wgt>
<wgt id='2004'> +2.8480548e+02 </wgt>
<wgt id='2005'> +2.8484620e+02 </wgt>
<wgt id='2006'> +2.8553750e+02 </wgt>
<wgt id='2007'> +2.8410567e+02 </wgt>
<wgt id='2008'> +2.8402357e+02 </wgt>
<wgt id='2009'> +2.8562147e+02 </wgt>
<wgt id='2010'> +2.8452072e+02 </wgt>
<wgt id='2011'> +2.8508268e+02 </wgt>
<wgt id='2012'> +2.8462962e+02 </wgt>
<wgt id='2013'> +2.8495473e+02 </wgt>
<wgt id='2014'> +2.8439583e+02 </wgt>
<wgt id='2015'> +2.8522291e+02 </wgt>
<wgt id='2016'> +2.8279602e+02 </wgt>
<wgt id='2017'> +2.8644454e+02 </wgt>
<wgt id='2018'> +2.8474151e+02 </wgt>
<wgt id='2019'> +2.8486610e+02 </wgt>
<wgt id='2020'> +2.8390441e+02 </wgt>
<wgt id='2021'> +2.8503912e+02 </wgt>
<wgt id='2022'> +2.8483338e+02 </wgt>
<wgt id='2023'> +2.8512303e+02 </wgt>
<wgt id='2024'> +2.8485758e+02 </wgt>
<wgt id='2025'> +2.8484743e+02 </wgt>
<wgt id='2026'> +2.8424750e+02 </wgt>
<wgt id='2027'> +2.8473060e+02 </wgt>
<wgt id='2028'> +2.8480767e+02 </wgt>
<wgt id='2029'> +2.8408281e+02 </wgt>
<wgt id='2030'> +2.8507976e+02 </wgt>
<wgt id='2031'> +2.8392661e+02 </wgt>
<wgt id='2032'> +2.8624669e+02 </wgt>
<wgt id='2033'> +2.8395298e+02 </wgt>
<wgt id='2034'> +2.8500361e+02 </wgt>
<wgt id='2035'> +2.8405550e+02 </wgt>
<wgt id='2036'> +2.8702277e+02 </wgt>
<wgt id='2037'> +2.8345986e+02 </wgt>
<wgt id='2038'> +2.8409034e+02 </wgt>
<wgt id='2039'> +2.8404390e+02 </wgt>
<wgt id='2040'> +2.8399760e+02 </wgt>
<wgt id='2041'> +2.8395133e+02 </wgt>
<wgt id='2042'> +2.8390568e+02 </wgt>
<wgt id='2043'> +2.8385889e+02 </wgt>
<wgt id='2044'> +2.8381303e+02 </wgt>
<wgt id='2045'> +2.8376650e+02 </wgt>
<wgt id='2046'> +2.8372061e+02 </wgt>
<wgt id='2047'> +2.8367400e+02 </wgt>
<wgt id='2048'> +2.8362714e+02 </wgt>
<wgt id='2049'> +2.8358210e+02 </wgt>
<wgt id='2050'> +2.8353456e+02 </wgt>
<wgt id='2051'> +2.8348944e+02 </wgt>
<wgt id='2052'> +2.8344226e+02 </wgt>
<wgt id='2053'> +2.8339718e+02 </wgt>
<wgt id='2054'> +2.8334987e+02 </wgt>
<wgt id='2055'> +2.8330462e+02 </wgt>
<wgt id='2056'> +2.8325782e+02 </wgt>
<wgt id='2057'> +2.8321112e+02 </wgt>
<wgt id='2058'> +2.8316501e+02 </wgt>
<wgt id='2059'> +2.8311890e+02 </wgt>
<wgt id='2060'> +2.8307372e+02 </wgt>
<wgt id='2061'> +2.8302633e+02 </wgt>
<wgt id='2062'> +2.8298109e+02 </wgt>
<wgt id='2063'> +2.8293455e+02 </wgt>
<wgt id='2064'> +2.8288860e+02 </wgt>
<wgt id='2065'> +2.8284183e+02 </wgt>
<wgt id='2066'> +2.8279577e+02 </wgt>
<wgt id='2067'> +2.8274934e+02 </wgt>
<wgt id='2068'> +2.8270321e+02 </wgt>
<wgt id='2069'> +2.7718194e+02 </wgt>
<wgt id='2070'> +2.7746423e+02 </wgt>
<wgt id='2071'> +2.7825867e+02 </wgt>
<wgt id='2072'> +2.7535873e+02 </wgt>
<wgt id='2073'> +2.7675580e+02 </wgt>
<wgt id='2074'> +2.7788893e+02 </wgt>
<wgt id='2075'> +2.7686887e+02 </wgt>
<wgt id='2076'> +2.7785808e+02 </wgt>
<wgt id='2077'> +2.7781585e+02 </wgt>
<wgt id='2078'> +2.7692703e+02 </wgt>
<wgt id='2079'> +2.7656356e+02 </wgt>
<wgt id='2080'> +2.7991702e+02 </wgt>
<wgt id='2081'> +2.7459208e+02 </wgt>
<wgt id='2082'> +2.7377074e+02 </wgt>
<wgt id='2083'> +2.7475894e+02 </wgt>
<wgt id='2084'> +2.7713141e+02 </wgt>
<wgt id='2085'> +2.7918670e+02 </wgt>
<wgt id='2086'> +2.7700660e+02 </wgt>
<wgt id='2087'> +2.7669132e+02 </wgt>
<wgt id='2088'> +2.7671188e+02 </wgt>
<wgt id='2089'> +2.7843122e+02 </wgt>
<wgt id='2090'> +2.7673267e+02 </wgt>
<wgt id='2091'> +2.7755328e+02 </wgt>
<wgt id='2092'> +2.7672187e+02 </wgt>
<wgt id='2093'> +2.7681866e+02 </wgt>
<wgt id='2094'> +2.7751839e+02 </wgt>
<wgt id='2095'> +2.7718326e+02 </wgt>
<wgt id='2096'> +2.7674504e+02 </wgt>
<wgt id='2097'> +2.7745759e+02 </wgt>
<wgt id='2098'> +2.7747968e+02 </wgt>
<wgt id='2099'> +2.7722113e+02 </wgt>
<wgt id='2100'> +2.7711318e+02 </wgt>
<wgt id='2101'> +2.7741685e+02 </wgt>
<wgt id='2102'> +2.7753921e+02 </wgt>
<wgt id='2103'> +2.7703838e+02 </wgt>
<wgt id='2104'> +2.7764753e+02 </wgt>
<wgt id='2105'> +2.7718585e+02 </wgt>
<wgt id='2106'> +2.7745092e+02 </wgt>
<wgt id='2107'> +2.7720662e+02 </wgt>
<wgt id='2108'> +2.7721811e+02 </wgt>
<wgt id='2109'> +2.7687082e+02 </wgt>
<wgt id='2110'> +2.7705282e+02 </wgt>
<wgt id='2111'> +2.7713146e+02 </wgt>
<wgt id='2112'> +2.7698302e+02 </wgt>
<wgt id='2113'> +2.7727459e+02 </wgt>
<wgt id='2114'> +2.7714752e+02 </wgt>
<wgt id='2115'> +2.7681479e+02 </wgt>
<wgt id='2116'> +2.7705544e+02 </wgt>
<wgt id='2117'> +2.7727368e+02 </wgt>
<wgt id='2118'> +2.7702515e+02 </wgt>
<wgt id='2119'> +2.7724735e+02 </wgt>
<wgt id='2120'> +2.7729395e+02 </wgt>
<wgt id='2121'> +2.7724771e+02 </wgt>
<wgt id='2122'> +2.7721907e+02 </wgt>
<wgt id='2123'> +2.7704655e+02 </wgt>
<wgt id='2124'> +2.7712552e+02 </wgt>
<wgt id='2125'> +2.7742944e+02 </wgt>
<wgt id='2126'> +2.7716020e+02 </wgt>
<wgt id='2127'> +2.7698721e+02 </wgt>
<wgt id='2128'> +2.7706508e+02 </wgt>
<wgt id='2129'> +2.7709047e+02 </wgt>
<wgt id='2130'> +2.7722250e+02 </wgt>
<wgt id='2131'> +2.7722292e+02 </wgt>
<wgt id='2132'> +2.7731023e+02 </wgt>
<wgt id='2133'> +2.7711507e+02 </wgt>
<wgt id='2134'> +2.7717594e+02 </wgt>
<wgt id='2135'> +2.7721085e+02 </wgt>
<wgt id='2136'> +2.7727225e+02 </wgt>
<wgt id='2137'> +2.7727433e+02 </wgt>
<wgt id='2138'> +2.7732900e+02 </wgt>
<wgt id='2139'> +2.7715152e+02 </wgt>
<wgt id='2140'> +2.7734655e+02 </wgt>
<wgt id='2141'> +2.7734666e+02 </wgt>
<wgt id='2142'> +2.7710418e+02 </wgt>
<wgt id='2143'> +2.7722416e+02 </wgt>
<wgt id='2144'> +2.7716477e+02 </wgt>
<wgt id='2145'> +2.7715802e+02 </wgt>
<wgt id='2146'> +2.7722124e+02 </wgt>
<wgt id='2147'> +2.7720752e+02 </wgt>
<wgt id='2148'> +2.7713143e+02 </wgt>
<wgt id='2149'> +2.7736225e+02 </wgt>
<wgt id='2150'> +2.7715346e+02 </wgt>
<wgt id='2151'> +2.7724803e+02 </wgt>
<wgt id='2152'> +2.7709286e+02 </wgt>
<wgt id='2153'> +2.7710361e+02 </wgt>
<wgt id='2154'> +2.7711167e+02 </wgt>
<wgt id='2155'> +2.7721879e+02 </wgt>
<wgt id='2156'> +2.7701307e+02 </wgt>
<wgt id='2157'> +2.7712154e+02 </wgt>
<wgt id='2158'> +2.7711850e+02 </wgt>
<wgt id='2159'> +2.7722429e+02 </wgt>
<wgt id='2160'> +2.7715535e+02 </wgt>
<wgt id='2161'> +2.7717372e+02 </wgt>
<wgt id='2162'> +2.7713927e+02 </wgt>
<wgt id='2163'> +2.7716255e+02 </wgt>
<wgt id='2164'> +2.7721342e+02 </wgt>
<wgt id='2165'> +2.7712739e+02 </wgt>
<wgt id='2166'> +2.7719824e+02 </wgt>
<wgt id='2167'> +2.7718111e+02 </wgt>
<wgt id='2168'> +2.7712322e+02 </wgt>
<wgt id='2169'> +2.7717598e+02 </wgt>
<wgt id='2170'> +2.7717856e+02 </wgt>
<wgt id='2171'> +2.7715979e+02 </wgt>
<wgt id='2172'> +2.7718545e+02 </wgt>
<wgt id='2173'> +2.7718602e+02 </wgt>
<wgt id='2174'> +2.7719220e+02 </wgt>
<wgt id='2175'> +2.7718342e+02 </wgt>
<wgt id='2176'> +2.7716717e+02 </wgt>
<wgt id='2177'> +2.8556374e+02 </wgt>
<wgt id='2178'> +2.6170698e+02 </wgt>
<wgt id='2179'> +2.8465245e+02 </wgt>
<wgt id='2180'> +2.8555685e+02 </wgt>
<wgt id='2181'> +2.8203287e+02 </wgt>
<wgt id='2182'> +2.5303342e+02 </wgt>
<wgt id='2183'> +2.8896070e+02 </wgt>
<wgt id='2184'> +2.8846238e+02 </wgt>
<wgt id='2185'> +2.8745939e+02 </wgt>
<wgt id='2186'> +2.8699034e+02 </wgt>
<wgt id='2187'> +2.7752412e+02 </wgt>
<wgt id='2188'> +2.8056580e+02 </wgt>
<wgt id='2189'> +2.9036988e+02 </wgt>
<wgt id='2190'> +2.9078964e+02 </wgt>
<wgt id='2191'> +2.8041542e+02 </wgt>
<wgt id='2192'> +2.8969163e+02 </wgt>
<wgt id='2193'> +2.8844821e+02 </wgt>
<wgt id='2194'> +2.8253814e+02 </wgt>
<wgt id='2195'> +2.8292081e+02 </wgt>
<wgt id='2196'> +2.8941309e+02 </wgt>
<wgt id='2197'> +2.8989763e+02 </wgt>
<wgt id='2198'> +2.8762799e+02 </wgt>
<wgt id='2199'> +2.8374846e+02 </wgt>
<wgt id='2200'> +3.0660138e+02 </wgt>
<wgt id='2201'> +2.8470744e+02 </wgt>
<wgt id='2202'> +2.8809182e+02 </wgt>
<wgt id='2203'> +2.8232407e+02 </wgt>
<wgt id='2204'> +2.8211283e+02 </wgt>
<wgt id='2205'> +2.8349774e+02 </wgt>
<wgt id='2206'> +2.8387634e+02 </wgt>
<wgt id='2207'> +2.9158233e+02 </wgt>
<wgt id='2208'> +2.8529222e+02 </wgt>
<wgt id='2209'> +2.7916390e+02 </wgt>
<wgt id='2210'> +2.8665184e+02 </wgt>
<wgt id='2211'> +2.8755533e+02 </wgt>
<wgt id='2212'> +2.9289999e+02 </wgt>
<wgt id='2213'> +2.9039501e+02 </wgt>
<wgt id='2214'> +2.9033865e+02 </wgt>
<wgt id='2215'> +2.8811198e+02 </wgt>
<wgt id='2216'> +2.7667131e+02 </wgt>
<wgt id='2217'> +2.8919091e+02 </wgt>
<wgt id='2218'> +2.8581712e+02 </wgt>
<wgt id='2219'> +2.8679249e+02 </wgt>
<wgt id='2220'> +2.8823290e+02 </wgt>
<wgt id='2221'> +2.8416008e+02 </wgt>
<wgt id='2222'> +2.8670138e+02 </wgt>
<wgt id='2223'> +2.8916964e+02 </wgt>
<wgt id='2224'> +2.8156670e+02 </wgt>
<wgt id='2225'> +2.8193873e+02 </wgt>
<wgt id='2226'> +2.8395972e+02 </wgt>
<wgt id='2227'> +2.8541725e+02 </wgt>
<wgt id='2228'> +2.8541238e+02 </wgt>
<wgt id='2229'> +2.8311239e+02 </wgt>
<wgt id='2230'> +2.8987282e+02 </wgt>
<wgt id='2231'> +2.8701539e+02 </wgt>
<wgt id='2232'> +2.8445742e+02 </wgt>
<wgt id='2233'> +2.7962750e+02 </wgt>
<wgt id='2234'> +2.9244639e+02 </wgt>
<wgt id='2235'> +2.8289468e+02 </wgt>
<wgt id='2236'> +2.8920378e+02 </wgt>
<wgt id='2237'> +2.8466335e+02 </wgt>
<wgt id='2238'> +2.8638491e+02 </wgt>
<wgt id='2239'> +2.8595499e+02 </wgt>
<wgt id='2240'> +2.8961647e+02 </wgt>
<wgt id='2241'> +2.8015607e+02 </wgt>
<wgt id='2242'> +2.8829984e+02 </wgt>
<wgt id='2243'> +2.8793105e+02 </wgt>
<wgt id='2244'> +3.0145239e+02 </wgt>
<wgt id='2245'> +2.8169988e+02 </wgt>
<wgt id='2246'> +2.7874273e+02 </wgt>
<wgt id='2247'> +2.8506049e+02 </wgt>
<wgt id='2248'> +2.8922775e+02 </wgt>
<wgt id='2249'> +2.8658382e+02 </wgt>
<wgt id='2250'> +2.6693552e+02 </wgt>
<wgt id='2251'> +2.8889259e+02 </wgt>
<wgt id='2252'> +2.8300199e+02 </wgt>
<wgt id='2253'> +2.8095739e+02 </wgt>
<wgt id='2254'> +2.8909562e+02 </wgt>
<wgt id='2255'> +2.9502735e+02 </wgt>
<wgt id='2256'> +2.8328864e+02 </wgt>
<wgt id='2257'> +2.8670600e+02 </wgt>
<wgt id='2258'> +2.8796821e+02 </wgt>
<wgt id='2259'> +2.8263200e+02 </wgt>
<wgt id='2260'> +2.8854858e+02 </wgt>
<wgt id='2261'> +2.8552117e+02 </wgt>
<wgt id='2262'> +2.7889713e+02 </wgt>
<wgt id='2263'> +2.8443236e+02 </wgt>
<wgt id='2264'> +2.8558081e+02 </wgt>
<wgt id='2265'> +2.8519252e+02 </wgt>
<wgt id='2266'> +2.9258106e+02 </wgt>
<wgt id='2267'> +2.8423388e+02 </wgt>
<wgt id='2268'> +2.8103170e+02 </wgt>
<wgt id='2269'> +2.8897125e+02 </wgt>
<wgt id='2270'> +2.8379790e+02 </wgt>
<wgt id='2271'> +2.9177734e+02 </wgt>
<wgt id='2272'> +2.8071512e+02 </wgt>
<wgt id='2273'> +2.8986834e+02 </wgt>
<wgt id='2274'> +2.8525952e+02 </wgt>
<wgt id='2275'> +2.9478267e+02 </wgt>
<wgt id='2276'> +2.9167293e+02 </wgt>
<wgt id='2277'> +2.8627741e+02 </wgt>
<wgt id='2278'> +2.8053112e+02 </wgt>
<wgt id='2279'> +2.8878907e+02 </wgt>
<wgt id='2280'> +2.8295964e+02 </wgt>
<wgt id='2281'> +3.3401527e+02 </wgt>
<wgt id='2282'> +4.1305317e+02 </wgt>
<wgt id='2283'> +3.3761938e+02 </wgt>
<wgt id='2284'> +4.0576922e+02 </wgt>
</rwgt>
</event>
<event npLO=" -1 " npNLO=" 2 ">
 5      2 +2.8781417e+02 2.88810810e+01 7.54677110e-03 1.25504740e-01
       21 -1    0    0  504  501 +0.0000000000e+00 +0.0000000000e+00 +1.4440325000e+02 1.4440325000e+02 0.0000000000e+00 0.0000e+00 9.0000e+00
       21 -1    0    0  501  502 +0.0000000000e+00 +0.0000000000e+00 -1.0193504000e+03 1.0193504000e+03 0.0000000000e+00 0.0000e+00 9.0000e+00
       25  1    1    2    0    0 -4.5112836000e+00 -2.2566811000e+01 +1.1022482000e+02 1.5059589000e+02 1.0000000000e+02 0.0000e+00 9.0000e+00
       21  1    1    2  503  502 +3.3218320000e+01 +2.5732708000e+01 -9.8331998000e+02 9.8421736000e+02 0.0000000000e+00 0.0000e+00 9.0000e+00
       21  1    1    2  504  503 -2.8707036000e+01 -3.1658974000e+00 -1.8519835000e+00 2.8940399000e+01 0.0000000000e+00 0.0000e+00 9.0000e+00
#aMCatNLO 1  0  0  0  0 0.00000000E+00 0.00000000E+00 -9  6  0 0.00000000E+00 0.00000000E+00 0.00000000E+00 0.00000000E+00 0.00000000E+00
<rwgt>
<wgt id='1001'> +2.8781417e+02 </wgt>
<wgt id='1002'> +1.6969904e+02 </wgt>
<wgt id='1003'> +5.2150618e+02 </wgt>
<wgt id='1004'> +2.5899683e+02 </wgt>
<wgt id='1005'> +1.5270796e+02 </wgt>
<wgt id='1006'> +4.6929050e+02 </wgt>
<wgt id='1007'> +3.1932501e+02 </wgt>
<wgt id='1008'> +1.8827825e+02 </wgt>
<wgt id='1009'> +5.7860241e+02 </wgt>
<wgt id='1010'> +2.8781417e+02 </wgt>
<wgt id='1011'> +2.8733062e+02 </wgt>
<wgt id='1012'> +2.8715493e+02 </wgt>
<wgt id='1013'> +2.8704170e+02 </wgt>
<wgt id='1014'> +2.8931471e+02 </wgt>
<wgt id='1015'> +2.8706530e+02 </wgt>
<wgt id='1016'> +2.8862982e+02 </wgt>
<wgt id='1017'> +2.8847306e+02 </wgt>
<wgt id='1018'> +2.8854641e+02 </wgt>
<wgt id='1019'> +2.8855692e+02 </wgt>
<wgt id='1020'> +2.8739484e+02 </wgt>
<wgt id='1021'> +2.8710550e+02 </wgt>
<wgt id='1022'> +2.8940358e+02 </wgt>
<wgt id='1023'> +2.8801832e+02 </wgt>
<wgt id='1024'> +2.8829344e+02 </wgt>
<wgt id='1025'> +2.8813154e+02 </wgt>
<wgt id='1026'> +2.8803554e+02 </wgt>
<wgt id='1027'> +2.8754957e+02 </wgt>
<wgt id='1028'> +2.8720534e+02 </wgt>
<wgt id='1029'> +2.8655831e+02 </wgt>
<wgt id='1030'> +2.8644146e+02 </wgt>
<wgt id='1031'> +2.8827972e+02 </wgt>
<wgt id='1032'> +2.8735533e+02 </wgt>
<wgt id='1033'> +2.8883124e+02 </wgt>
<wgt id='1034'> +2.8524067e+02 </wgt>
<wgt id='1035'> +2.8889653e+02 </wgt>
<wgt id='1036'> +2.8833614e+02 </wgt>
<wgt id='1037'> +2.8934475e+02 </wgt>
<wgt id='1038'> +2.8685306e+02 </wgt>
<wgt id='1039'> +2.8705124e+02 </wgt>
<wgt id='1040'> +2.8824207e+02 </wgt>
<wgt id='1041'> +2.8611834e+02 </wgt>
<wgt id='1042'> +2.8734667e+02 </wgt>
<wgt id='1043'> +2.8709082e+02 </wgt>
<wgt id='1044'> +2.8641376e+02 </wgt>
<wgt id='1045'> +2.8805915e+02 </wgt>
<wgt id='1046'> +2.8857510e+02 </wgt>
<wgt id='1047'> +2.8724371e+02 </wgt>
<wgt id='1048'> +2.8738520e+02 </wgt>
<wgt id='1049'> +2.8742253e+02 </wgt>
<wgt id='1050'> +2.8710782e+02 </wgt>
<wgt id='1051'> +2.8754298e+02 </wgt>
<wgt id='1052'> +2.8846903e+02 </wgt>
<wgt id='1053'> +2.8788430e+02 </wgt>
<wgt id='1054'> +2.8802149e+02 </wgt>
<wgt id='1055'> +2.8781966e+02 </wgt>
<wgt id='1056'> +2.8753609e+02 </wgt>
<wgt id='1057'> +2.8786967e+02 </wgt>
<wgt id='1058'> +2.8751654e+02 </wgt>
<wgt id='1059'> +2.8747960e+02 </wgt>
<wgt id='1060'> +2.8736303e+02 </wgt>
<wgt id='1061'> +2.8736922e+02 </wgt>
<wgt id='1062'> +2.8839940e+02 </wgt>
<wgt id='1063'> +2.8765639e+02 </wgt>
<wgt id='1064'> +2.8767356e+02 </wgt>
<wgt id='1065'> +2.8772589e+02 </wgt>
<wgt id='1066'> +2.8754001e+02 </wgt>
<wgt id='1067'> +2.8802407e+02 </wgt>
<wgt id='1068'> +2.8803146e+02 </wgt>
<wgt id='1069'> +2.8773201e+02 </wgt>
<wgt id='1070'> +2.8781319e+02 </wgt>
<wgt id='1071'> +2.8755184e+02 </wgt>
<wgt id='1072'> +2.8826996e+02 </wgt>
<wgt id='1073'> +2.8783404e+02 </wgt>
<wgt id='1074'> +2.8783875e+02 </wgt>
<wgt id='1075'> +2.8814318e+02 </wgt>
<wgt id='1076'> +2.8763495e+02 </wgt>
<wgt id='1077'> +2.8770251e+02 </wgt>
<wgt id='1078'> +2.8801947e+02 </wgt>
<wgt id='1079'> +2.8780426e+02 </wgt>
<wgt id='1080'> +2.8782011e+02 </wgt>
<wgt id='1081'> +2.8780631e+02 </wgt>
<wgt id='1082'> +2.8774175e+02 </wgt>
<wgt id='1083'> +2.8789786e+02 </wgt>
<wgt id='1084'> +2.8773571e+02 </wgt>
<wgt id='1085'> +2.8774603e+02 </wgt>
<wgt id='1086'> +2.8777765e+02 </wgt>
<wgt id='1087'> +2.8803170e+02 </wgt>
<wgt id='1088'> +2.8788455e+02 </wgt>
<wgt id='1089'> +2.8775717e+02 </wgt>
<wgt id='1090'> +2.8788099e+02 </wgt>
<wgt id='1091'> +2.8777306e+02 </wgt>
<wgt id='1092'> +2.8791003e+02 </wgt>
<wgt id='1093'> +2.8801306e+02 </wgt>
<wgt id='1094'> +2.8779463e+02 </wgt>
<wgt id='1095'> +2.8783160e+02 </wgt>
<wgt id='1096'> +2.8773693e+02 </wgt>
<wgt id='1097'> +2.8787408e+02 </wgt>
<wgt id='1098'> +2.8776495e+02 </wgt>
<wgt id='1099'> +2.8776249e+02 </wgt>
<wgt id='1100'> +2.8790617e+02 </wgt>
<wgt id='1101'> +2.8785543e+02 </wgt>
<wgt id='1102'> +2.8793475e+02 </wgt>
<wgt id='1103'> +2.8771606e+02 </wgt>
<wgt id='1104'> +2.8786911e+02 </wgt>
<wgt id='1105'> +2.8791159e+02 </wgt>
<wgt id='1106'> +2.8775184e+02 </wgt>
<wgt id='1107'> +2.8789663e+02 </wgt>
<wgt id='1108'> +2.8781235e+02 </wgt>
<wgt id='1109'> +2.8788118e+02 </wgt>
<wgt id='1110'> +2.8781416e+02 </wgt>
<wgt id='1111'> +2.6595752e+02 </wgt>
<wgt id='1112'> +3.1170555e+02 </wgt>
<wgt id='1113'> +2.8781416e+02 </wgt>
<wgt id='1114'> +2.9205474e+02 </wgt>
<wgt id='1115'> +2.8721867e+02 </wgt>
<wgt id='1116'> +2.9892486e+02 </wgt>
<wgt id='1117'> +2.9279551e+02 </wgt>
<wgt id='1118'> +2.9246774e+02 </wgt>
<wgt id='1119'> +2.8867348e+02 </wgt>
<wgt id='1120'> +2.7758100e+02 </wgt>
<wgt id='1121'> +2.7650618e+02 </wgt>
<wgt id='1122'> +2.8816566e+02 </wgt>
<wgt id='1123'> +3.0622857e+02 </wgt>
<wgt id='1124'> +2.9194044e+02 </wgt>
<wgt id='1125'> +2.7969862e+02 </wgt>
<wgt id='1126'> +2.8270286e+02 </wgt>
<wgt id='1127'> +2.8373595e+02 </wgt>
<wgt id='1128'> +2.8321173e+02 </wgt>
<wgt id='1129'> +2.8865761e+02 </wgt>
<wgt id='1130'> +2.9049432e+02 </wgt>
<wgt id='1131'> +2.8021903e+02 </wgt>
<wgt id='1132'> +2.8364667e+02 </wgt>
<wgt id='1133'> +2.8551385e+02 </wgt>
<wgt id='1134'> +2.7942640e+02 </wgt>
<wgt id='1135'> +2.7977787e+02 </wgt>
<wgt id='1136'> +2.8200365e+02 </wgt>
<wgt id='1137'> +2.8484168e+02 </wgt>
<wgt id='1138'> +2.7965619e+02 </wgt>
<wgt id='1139'> +2.8253696e+02 </wgt>
<wgt id='1140'> +2.9452312e+02 </wgt>
<wgt id='1141'> +2.7519923e+02 </wgt>
<wgt id='1142'> +2.8959706e+02 </wgt>
<wgt id='1143'> +2.8770454e+02 </wgt>
<wgt id='1144'> +2.9979341e+02 </wgt>
<wgt id='1145'> +2.7881993e+02 </wgt>
<wgt id='1146'> +2.8234144e+02 </wgt>
<wgt id='1147'> +2.9115833e+02 </wgt>
<wgt id='1148'> +2.9913882e+02 </wgt>
<wgt id='1149'> +2.8566626e+02 </wgt>
<wgt id='1150'> +2.8103421e+02 </wgt>
<wgt id='1151'> +2.8728876e+02 </wgt>
<wgt id='1152'> +2.8709264e+02 </wgt>
<wgt id='1153'> +2.8662892e+02 </wgt>
<wgt id='1154'> +2.9035765e+02 </wgt>
<wgt id='1155'> +2.8792682e+02 </wgt>
<wgt id='1156'> +2.9420487e+02 </wgt>
<wgt id='1157'> +2.9399322e+02 </wgt>
<wgt id='1158'> +2.9092547e+02 </wgt>
<wgt id='1159'> +2.8710197e+02 </wgt>
<wgt id='1160'> +2.8501890e+02 </wgt>
<wgt id='1161'> +2.8892773e+02 </wgt>
<wgt id='1162'> +2.8945681e+02 </wgt>
<wgt id='1163'> +2.9455295e+02 </wgt>
<wgt id='1164'> +2.8467060e+02 </wgt>
<wgt id='1165'> +2.8003447e+02 </wgt>
<wgt id='1166'> +2.9527098e+02 </wgt>
<wgt id='1167'> +2.8134665e+02 </wgt>
<wgt id='1168'> +2.8601982e+02 </wgt>
<wgt id='1169'> +2.8483856e+02 </wgt>
<wgt id='1170'> +2.8070175e+02 </wgt>
<wgt id='1171'> +2.9016648e+02 </wgt>
<wgt id='1172'> +2.8515898e+02 </wgt>
<wgt id='1173'> +2.8304784e+02 </wgt>
<wgt id='1174'> +2.8583823e+02 </wgt>
<wgt id='1175'> +2.9115631e+02 </wgt>
<wgt id='1176'> +2.8434474e+02 </wgt>
<wgt id='1177'> +2.9438832e+02 </wgt>
<wgt id='1178'> +2.7798736e+02 </wgt>
<wgt id='1179'> +2.9646211e+02 </wgt>
<wgt id='1180'> +2.8714777e+02 </wgt>
<wgt id='1181'> +2.8520796e+02 </wgt>
<wgt id='1182'> +2.8440173e+02 </wgt>
<wgt id='1183'> +2.9064162e+02 </wgt>
<wgt id='1184'> +2.9098128e+02 </wgt>
<wgt id='1185'> +2.9432737e+02 </wgt>
<wgt id='1186'> +2.8795447e+02 </wgt>
<wgt id='1187'> +2.8765670e+02 </wgt>
<wgt id='1188'> +2.9130045e+02 </wgt>
<wgt id='1189'> +3.0148160e+02 </wgt>
<wgt id='1190'> +2.9133175e+02 </wgt>
<wgt id='1191'> +2.8563333e+02 </wgt>
<wgt id='1192'> +2.8778053e+02 </wgt>
<wgt id='1193'> +2.9918041e+02 </wgt>
<wgt id='1194'> +2.8999157e+02 </wgt>
<wgt id='1195'> +2.8865761e+02 </wgt>
<wgt id='1196'> +2.8953199e+02 </wgt>
<wgt id='1197'> +2.8362123e+02 </wgt>
<wgt id='1198'> +2.8988600e+02 </wgt>
<wgt id='1199'> +2.9209436e+02 </wgt>
<wgt id='1200'> +2.8431497e+02 </wgt>
<wgt id='1201'> +2.8945640e+02 </wgt>
<wgt id='1202'> +2.9995591e+02 </wgt>
<wgt id='1203'> +2.8466095e+02 </wgt>
<wgt id='1204'> +2.8541901e+02 </wgt>
<wgt id='1205'> +2.9045839e+02 </wgt>
<wgt id='1206'> +2.8912393e+02 </wgt>
<wgt id='1207'> +2.9140074e+02 </wgt>
<wgt id='1208'> +2.7575655e+02 </wgt>
<wgt id='1209'> +2.8759758e+02 </wgt>
<wgt id='1210'> +3.0161944e+02 </wgt>
<wgt id='1211'> +2.8807157e+02 </wgt>
<wgt id='1212'> +2.8014964e+02 </wgt>
<wgt id='1213'> +2.8327084e+02 </wgt>
<wgt id='1214'> +2.8722867e+02 </wgt>
<wgt id='1215'> +2.8697600e+02 </wgt>
<wgt id='1216'> +2.8742612e+02 </wgt>
<wgt id='1217'> +2.8714002e+02 </wgt>
<wgt id='1218'> +2.8817158e+02 </wgt>
<wgt id='1219'> +2.8699856e+02 </wgt>
<wgt id='1220'> +2.8598452e+02 </wgt>
<wgt id='1221'> +2.8666066e+02 </wgt>
<wgt id='1222'> +2.8655456e+02 </wgt>
<wgt id='1223'> +2.8781682e+02 </wgt>
<wgt id='1224'> +2.8679935e+02 </wgt>
<wgt id='1225'> +2.8680376e+02 </wgt>
<wgt id='1226'> +2.8774564e+02 </wgt>
<wgt id='1227'> +2.8725482e+02 </wgt>
<wgt id='1228'> +2.8742631e+02 </wgt>
<wgt id='1229'> +2.8730846e+02 </wgt>
<wgt id='1230'> +2.8755202e+02 </wgt>
<wgt id='1231'> +2.8695195e+02 </wgt>
<wgt id='1232'> +2.8717608e+02 </wgt>
<wgt id='1233'> +2.8744020e+02 </wgt>
<wgt id='1234'> +2.8749973e+02 </wgt>
<wgt id='1235'> +2.8729880e+02 </wgt>
<wgt id='1236'> +2.8662500e+02 </wgt>
<wgt id='1237'> +2.8780898e+02 </wgt>
<wgt id='1238'> +2.8681553e+02 </wgt>
<wgt id='1239'> +2.8642615e+02 </wgt>
<wgt id='1240'> +2.8708122e+02 </wgt>
<wgt id='1241'> +2.8646962e+02 </wgt>
<wgt id='1242'> +2.8718749e+02 </wgt>
<wgt id='1243'> +2.9004219e+02 </wgt>
<wgt id='1244'> +2.8820117e+02 </wgt>
<wgt id='1245'> +2.8705318e+02 </wgt>
<wgt id='1246'> +2.8896437e+02 </wgt>
<wgt id='1247'> +2.8814182e+02 </wgt>
<wgt id='1248'> +2.8568368e+02 </wgt>
<wgt id='1249'> +2.8675340e+02 </wgt>
<wgt id='1250'> +2.8656760e+02 </wgt>
<wgt id='1251'> +2.8641680e+02 </wgt>
<wgt id='1252'> +2.8738319e+02 </wgt>
<wgt id='1253'> +2.8904367e+02 </wgt>
<wgt id='1254'> +2.8830286e+02 </wgt>
<wgt id='1255'> +2.8706435e+02 </wgt>
<wgt id='1256'> +2.8456300e+02 </wgt>
<wgt id='1257'> +2.8776664e+02 </wgt>
<wgt id='1258'> +2.8737665e+02 </wgt>
<wgt id='1259'> +2.8698973e+02 </wgt>
<wgt id='1260'> +2.8766380e+02 </wgt>
<wgt id='1261'> +2.8794924e+02 </wgt>
<wgt id='1262'> +2.8632149e+02 </wgt>
<wgt id='1263'> +2.8697915e+02 </wgt>
<wgt id='1264'> +2.8743656e+02 </wgt>
<wgt id='1265'> +2.8807784e+02 </wgt>
<wgt id='1266'> +2.8739395e+02 </wgt>
<wgt id='1267'> +2.8765119e+02 </wgt>
<wgt id='1268'> +2.8747700e+02 </wgt>
<wgt id='1269'> +2.8725441e+02 </wgt>
<wgt id='1270'> +2.8722465e+02 </wgt>
<wgt id='1271'> +2.8746135e+02 </wgt>
<wgt id='1272'> +2.8714804e+02 </wgt>
<wgt id='1273'> +2.8693465e+02 </wgt>
<wgt id='1274'> +2.8731665e+02 </wgt>
<wgt id='1275'> +2.8665121e+02 </wgt>
<wgt id='1276'> +2.8700368e+02 </wgt>
<wgt id='1277'> +2.8750120e+02 </wgt>
<wgt id='1278'> +2.8696103e+02 </wgt>
<wgt id='1279'> +2.8778179e+02 </wgt>
<wgt id='1280'> +2.8730458e+02 </wgt>
<wgt id='1281'> +2.8714862e+02 </wgt>
<wgt id='1282'> +2.8734962e+02 </wgt>
<wgt id='1283'> +2.8735867e+02 </wgt>
<wgt id='1284'> +2.8691312e+02 </wgt>
<wgt id='1285'> +2.8707093e+02 </wgt>
<wgt id='1286'> +2.8729499e+02 </wgt>
<wgt id='1287'> +2.8719185e+02 </wgt>
<wgt id='1288'> +2.8723694e+02 </wgt>
<wgt id='1289'> +2.8716950e+02 </wgt>
<wgt id='1290'> +2.8725812e+02 </wgt>
<wgt id='1291'> +2.8711758e+02 </wgt>
<wgt id='1292'> +2.8717261e+02 </wgt>
<wgt id='1293'> +2.8726710e+02 </wgt>
<wgt id='1294'> +2.8738147e+02 </wgt>
<wgt id='1295'> +2.8734410e+02 </wgt>
<wgt id='1296'> +2.8733795e+02 </wgt>
<wgt id='1297'> +2.8735030e+02 </wgt>
<wgt id='1298'> +2.8729726e+02 </wgt>
<wgt id='1299'> +2.8739203e+02 </wgt>
<wgt id='1300'> +2.8715752e+02 </wgt>
<wgt id='1301'> +2.8709960e+02 </wgt>
<wgt id='1302'> +2.8732751e+02 </wgt>
<wgt id='1303'> +2.8694847e+02 </wgt>
<wgt id='1304'> +2.8737580e+02 </wgt>
<wgt id='1305'> +2.8738348e+02 </wgt>
<wgt id='1306'> +2.8730231e+02 </wgt>
<wgt id='1307'> +2.8719750e+02 </wgt>
<wgt id='1308'> +2.8727967e+02 </wgt>
<wgt id='1309'> +2.8733689e+02 </wgt>
<wgt id='1310'> +2.8714726e+02 </wgt>
<wgt id='1311'> +2.8744296e+02 </wgt>
<wgt id='1312'> +2.8708748e+02 </wgt>
<wgt id='1313'> +2.8730212e+02 </wgt>
<wgt id='1314'> +2.8724616e+02 </wgt>
<wgt id='1315'> +2.6595752e+02 </wgt>
<wgt id='1316'> +3.1170555e+02 </wgt>
<wgt id='1317'> +1.8752954e+02 </wgt>
<wgt id='1318'> +2.0503637e+02 </wgt>
<wgt id='1319'> +2.2467702e+02 </wgt>
<wgt id='1320'> +2.4324227e+02 </wgt>
<wgt id='1321'> +2.7578345e+02 </wgt>
<wgt id='1322'> +3.0068535e+02 </wgt>
<wgt id='1323'> +3.3735448e+02 </wgt>
<wgt id='1324'> +3.6661611e+02 </wgt>
<wgt id='1325'> +3.0028793e+02 </wgt>
<wgt id='1326'> +3.0068577e+02 </wgt>
<wgt id='1327'> +3.0037598e+02 </wgt>
<wgt id='1328'> +3.0010100e+02 </wgt>
<wgt id='1329'> +3.0145536e+02 </wgt>
<wgt id='1330'> +3.0076490e+02 </wgt>
<wgt id='1331'> +3.0014353e+02 </wgt>
<wgt id='1332'> +3.0065462e+02 </wgt>
<wgt id='1333'> +2.9975939e+02 </wgt>
<wgt id='1334'> +3.0050529e+02 </wgt>
<wgt id='1335'> +2.9897257e+02 </wgt>
<wgt id='1336'> +3.0007419e+02 </wgt>
<wgt id='1337'> +3.0121750e+02 </wgt>
<wgt id='1338'> +3.0016289e+02 </wgt>
<wgt id='1339'> +3.0053055e+02 </wgt>
<wgt id='1340'> +2.9989262e+02 </wgt>
<wgt id='1341'> +3.0088877e+02 </wgt>
<wgt id='1342'> +3.0077043e+02 </wgt>
<wgt id='1343'> +3.0096045e+02 </wgt>
<wgt id='1344'> +2.9936108e+02 </wgt>
<wgt id='1345'> +3.0017398e+02 </wgt>
<wgt id='1346'> +3.0010493e+02 </wgt>
<wgt id='1347'> +2.9985385e+02 </wgt>
<wgt id='1348'> +2.9947995e+02 </wgt>
<wgt id='1349'> +3.0004041e+02 </wgt>
<wgt id='1350'> +3.0028430e+02 </wgt>
<wgt id='1351'> +2.9986236e+02 </wgt>
<wgt id='1352'> +3.0065727e+02 </wgt>
<wgt id='1353'> +3.0005704e+02 </wgt>
<wgt id='1354'> +3.0041373e+02 </wgt>
<wgt id='1355'> +3.0179807e+02 </wgt>
<wgt id='1356'> +3.0093932e+02 </wgt>
<wgt id='1357'> +2.9909827e+02 </wgt>
<wgt id='1358'> +2.9900034e+02 </wgt>
<wgt id='1359'> +3.0025079e+02 </wgt>
<wgt id='1360'> +2.9758457e+02 </wgt>
<wgt id='1361'> +3.0046364e+02 </wgt>
<wgt id='1362'> +3.0186450e+02 </wgt>
<wgt id='1363'> +3.0037664e+02 </wgt>
<wgt id='1364'> +3.0074583e+02 </wgt>
<wgt id='1365'> +3.0203267e+02 </wgt>
<wgt id='1366'> +3.0105033e+02 </wgt>
<wgt id='1367'> +2.9892249e+02 </wgt>
<wgt id='1368'> +2.9893403e+02 </wgt>
<wgt id='1369'> +3.0071748e+02 </wgt>
<wgt id='1370'> +3.0054819e+02 </wgt>
<wgt id='1371'> +3.0178152e+02 </wgt>
<wgt id='1372'> +3.0003724e+02 </wgt>
<wgt id='1373'> +3.0099123e+02 </wgt>
<wgt id='1374'> +3.0020219e+02 </wgt>
<wgt id='1375'> +2.9928766e+02 </wgt>
<wgt id='1376'> +3.0096518e+02 </wgt>
<wgt id='1377'> +2.9954181e+02 </wgt>
<wgt id='1378'> +3.0025434e+02 </wgt>
<wgt id='1379'> +3.0051848e+02 </wgt>
<wgt id='1380'> +2.9924834e+02 </wgt>
<wgt id='1381'> +3.0017681e+02 </wgt>
<wgt id='1382'> +3.0013995e+02 </wgt>
<wgt id='1383'> +2.9989659e+02 </wgt>
<wgt id='1384'> +3.0007211e+02 </wgt>
<wgt id='1385'> +3.0078342e+02 </wgt>
<wgt id='1386'> +3.0020530e+02 </wgt>
<wgt id='1387'> +3.0064429e+02 </wgt>
<wgt id='1388'> +3.0007560e+02 </wgt>
<wgt id='1389'> +2.9997912e+02 </wgt>
<wgt id='1390'> +2.9984604e+02 </wgt>
<wgt id='1391'> +3.0038863e+02 </wgt>
<wgt id='1392'> +2.9943444e+02 </wgt>
<wgt id='1393'> +3.0056337e+02 </wgt>
<wgt id='1394'> +3.0014502e+02 </wgt>
<wgt id='1395'> +3.0031964e+02 </wgt>
<wgt id='1396'> +2.9995047e+02 </wgt>
<wgt id='1397'> +3.0026097e+02 </wgt>
<wgt id='1398'> +3.0011456e+02 </wgt>
<wgt id='1399'> +3.0041074e+02 </wgt>
<wgt id='1400'> +3.0035164e+02 </wgt>
<wgt id='1401'> +3.0029315e+02 </wgt>
<wgt id='1402'> +3.0038240e+02 </wgt>
<wgt id='1403'> +3.0042120e+02 </wgt>
<wgt id='1404'> +3.0021146e+02 </wgt>
<wgt id='1405'> +3.0026981e+02 </wgt>
<wgt id='1406'> +3.0024193e+02 </wgt>
<wgt id='1407'> +3.0037947e+02 </wgt>
<wgt id='1408'> +2.9991464e+02 </wgt>
<wgt id='1409'> +2.9994933e+02 </wgt>
<wgt id='1410'> +3.0060562e+02 </wgt>
<wgt id='1411'> +3.0002566e+02 </wgt>
<wgt id='1412'> +3.0005502e+02 </wgt>
<wgt id='1413'> +3.0011256e+02 </wgt>
<wgt id='1414'> +3.0021247e+02 </wgt>
<wgt id='1415'> +3.0055564e+02 </wgt>
<wgt id='1416'> +3.0040153e+02 </wgt>
<wgt id='1417'> +3.0023834e+02 </wgt>
<wgt id='1418'> +3.0027174e+02 </wgt>
<wgt id='1419'> +3.0044311e+02 </wgt>
<wgt id='1420'> +3.0027357e+02 </wgt>
<wgt id='1421'> +3.0022470e+02 </wgt>
<wgt id='1422'> +3.0021035e+02 </wgt>
<wgt id='1423'> +3.0009482e+02 </wgt>
<wgt id='1424'> +3.0026890e+02 </wgt>
<wgt id='1425'> +3.0042236e+02 </wgt>
<wgt id='1426'> +2.7733817e+02 </wgt>
<wgt id='1427'> +3.2647116e+02 </wgt>
<wgt id='1428'> +3.0376497e+02 </wgt>
<wgt id='1429'> +3.0400433e+02 </wgt>
<wgt id='1430'> +3.0556016e+02 </wgt>
<wgt id='1431'> +3.0309157e+02 </wgt>
<wgt id='1432'> +3.0559716e+02 </wgt>
<wgt id='1433'> +3.0175815e+02 </wgt>
<wgt id='1434'> +3.0121536e+02 </wgt>
<wgt id='1435'> +3.0267115e+02 </wgt>
<wgt id='1436'> +3.0516588e+02 </wgt>
<wgt id='1437'> +3.0163535e+02 </wgt>
<wgt id='1438'> +3.0391833e+02 </wgt>
<wgt id='1439'> +3.0790511e+02 </wgt>
<wgt id='1440'> +3.0018810e+02 </wgt>
<wgt id='1441'> +3.1546390e+02 </wgt>
<wgt id='1442'> +2.9904234e+02 </wgt>
<wgt id='1443'> +3.0082956e+02 </wgt>
<wgt id='1444'> +3.1150864e+02 </wgt>
<wgt id='1445'> +2.9786693e+02 </wgt>
<wgt id='1446'> +3.0994883e+02 </wgt>
<wgt id='1447'> +3.0448093e+02 </wgt>
<wgt id='1448'> +3.0254005e+02 </wgt>
<wgt id='1449'> +3.0134943e+02 </wgt>
<wgt id='1450'> +3.0527727e+02 </wgt>
<wgt id='1451'> +3.0141190e+02 </wgt>
<wgt id='1452'> +3.0642762e+02 </wgt>
<wgt id='1453'> +3.0582667e+02 </wgt>
<wgt id='1454'> +3.0207199e+02 </wgt>
<wgt id='1455'> +3.0292494e+02 </wgt>
<wgt id='1456'> +3.0508891e+02 </wgt>
<wgt id='1457'> +3.0762739e+02 </wgt>
<wgt id='1458'> +3.0128162e+02 </wgt>
<wgt id='1459'> +3.0414067e+02 </wgt>
<wgt id='1460'> +3.0314243e+02 </wgt>
<wgt id='1461'> +3.0166820e+02 </wgt>
<wgt id='1462'> +3.0589831e+02 </wgt>
<wgt id='1463'> +3.0560200e+02 </wgt>
<wgt id='1464'> +3.0191710e+02 </wgt>
<wgt id='1465'> +2.9475891e+02 </wgt>
<wgt id='1466'> +3.1414841e+02 </wgt>
<wgt id='1467'> +3.1275082e+02 </wgt>
<wgt id='1468'> +2.9907822e+02 </wgt>
<wgt id='1469'> +3.0450532e+02 </wgt>
<wgt id='1470'> +3.0419377e+02 </wgt>
<wgt id='1471'> +3.0834696e+02 </wgt>
<wgt id='1472'> +3.0517808e+02 </wgt>
<wgt id='1473'> +3.0113226e+02 </wgt>
<wgt id='1474'> +2.9815434e+02 </wgt>
<wgt id='1475'> +2.9808003e+02 </wgt>
<wgt id='1476'> +3.0253540e+02 </wgt>
<wgt id='1477'> +3.0347066e+02 </wgt>
<wgt id='1478'> +3.0336886e+02 </wgt>
<wgt id='1479'> +3.0398504e+02 </wgt>
<wgt id='1480'> +3.0271782e+02 </wgt>
<wgt id='1481'> +2.9659945e+02 </wgt>
<wgt id='1482'> +3.0475868e+02 </wgt>
<wgt id='1483'> +3.0153912e+02 </wgt>
<wgt id='1484'> +3.0786323e+02 </wgt>
<wgt id='1485'> +2.7877195e+02 </wgt>
<wgt id='1486'> +3.3095359e+02 </wgt>
<wgt id='1487'> +3.0068044e+02 </wgt>
<wgt id='1488'> +2.9971557e+02 </wgt>
<wgt id='1489'> +3.0111055e+02 </wgt>
<wgt id='1490'> +2.9646645e+02 </wgt>
<wgt id='1491'> +2.9891105e+02 </wgt>
<wgt id='1492'> +3.0051583e+02 </wgt>
<wgt id='1493'> +3.0089961e+02 </wgt>
<wgt id='1494'> +2.9900995e+02 </wgt>
<wgt id='1495'> +2.9871462e+02 </wgt>
<wgt id='1496'> +3.0258459e+02 </wgt>
<wgt id='1497'> +3.0302624e+02 </wgt>
<wgt id='1498'> +3.0576244e+02 </wgt>
<wgt id='1499'> +2.9656416e+02 </wgt>
<wgt id='1500'> +3.0350753e+02 </wgt>
<wgt id='1501'> +2.9996379e+02 </wgt>
<wgt id='1502'> +3.0920912e+02 </wgt>
<wgt id='1503'> +2.9506181e+02 </wgt>
<wgt id='1504'> +2.9351206e+02 </wgt>
<wgt id='1505'> +3.0925090e+02 </wgt>
<wgt id='1506'> +2.9976968e+02 </wgt>
<wgt id='1507'> +3.0147607e+02 </wgt>
<wgt id='1508'> +3.0116149e+02 </wgt>
<wgt id='1509'> +2.9982588e+02 </wgt>
<wgt id='1510'> +3.0280490e+02 </wgt>
<wgt id='1511'> +2.9849686e+02 </wgt>
<wgt id='1512'> +3.0694533e+02 </wgt>
<wgt id='1513'> +2.9466165e+02 </wgt>
<wgt id='1514'> +3.0319869e+02 </wgt>
<wgt id='1515'> +2.9720587e+02 </wgt>
<wgt id='1516'> +3.0284876e+02 </wgt>
<wgt id='1517'> +2.9993911e+02 </wgt>
<wgt id='1518'> +3.0144730e+02 </wgt>
<wgt id='1519'> +2.9969306e+02 </wgt>
<wgt id='1520'> +2.9918894e+02 </wgt>
<wgt id='1521'> +3.0396160e+02 </wgt>
<wgt id='1522'> +2.9208156e+02 </wgt>
<wgt id='1523'> +3.0895070e+02 </wgt>
<wgt id='1524'> +2.9687541e+02 </wgt>
<wgt id='1525'> +3.0626436e+02 </wgt>
<wgt id='1526'> +2.9848930e+02 </wgt>
<wgt id='1527'> +3.0314803e+02 </wgt>
<wgt id='1528'> +2.9870990e+02 </wgt>
<wgt id='1529'> +3.0219851e+02 </wgt>
<wgt id='1530'> +2.9353605e+02 </wgt>
<wgt id='1531'> +3.0702013e+02 </wgt>
<wgt id='1532'> +3.0950636e+02 </wgt>
<wgt id='1533'> +2.9899563e+02 </wgt>
<wgt id='1534'> +2.9939398e+02 </wgt>
<wgt id='1535'> +3.0103018e+02 </wgt>
<wgt id='1536'> +3.0120972e+02 </wgt>
<wgt id='1537'> +2.9998714e+02 </wgt>
<wgt id='1538'> +3.0232636e+02 </wgt>
<wgt id='1539'> +3.0063456e+02 </wgt>
<wgt id='1540'> +2.8946012e+02 </wgt>
<wgt id='1541'> +3.0470485e+02 </wgt>
<wgt id='1542'> +2.9873885e+02 </wgt>
<wgt id='1543'> +3.0394017e+02 </wgt>
<wgt id='1544'> +2.7689803e+02 </wgt>
<wgt id='1545'> +3.2683621e+02 </wgt>
<wgt id='1546'> +3.1483834e+02 </wgt>
<wgt id='1547'> +3.0139149e+02 </wgt>
<wgt id='1548'> +3.0167221e+02 </wgt>
<wgt id='1549'> +3.0109802e+02 </wgt>
<wgt id='1550'> +3.0169575e+02 </wgt>
<wgt id='1551'> +3.0119122e+02 </wgt>
<wgt id='1552'> +3.0337895e+02 </wgt>
<wgt id='1553'> +2.9955810e+02 </wgt>
<wgt id='1554'> +3.0012775e+02 </wgt>
<wgt id='1555'> +3.0281457e+02 </wgt>
<wgt id='1556'> +3.0203694e+02 </wgt>
<wgt id='1557'> +3.0075942e+02 </wgt>
<wgt id='1558'> +3.0179887e+02 </wgt>
<wgt id='1559'> +3.0050728e+02 </wgt>
<wgt id='1560'> +3.0121646e+02 </wgt>
<wgt id='1561'> +3.0170920e+02 </wgt>
<wgt id='1562'> +3.0090304e+02 </wgt>
<wgt id='1563'> +3.0167447e+02 </wgt>
<wgt id='1564'> +2.9964127e+02 </wgt>
<wgt id='1565'> +3.0345633e+02 </wgt>
<wgt id='1566'> +3.0142011e+02 </wgt>
<wgt id='1567'> +3.0137022e+02 </wgt>
<wgt id='1568'> +3.0049888e+02 </wgt>
<wgt id='1569'> +3.0257632e+02 </wgt>
<wgt id='1570'> +2.9885382e+02 </wgt>
<wgt id='1571'> +3.0310013e+02 </wgt>
<wgt id='1572'> +3.0339419e+02 </wgt>
<wgt id='1573'> +2.9940694e+02 </wgt>
<wgt id='1574'> +3.0160139e+02 </wgt>
<wgt id='1575'> +3.0133850e+02 </wgt>
<wgt id='1576'> +2.9918089e+02 </wgt>
<wgt id='1577'> +3.0408554e+02 </wgt>
<wgt id='1578'> +2.9587456e+02 </wgt>
<wgt id='1579'> +3.0770363e+02 </wgt>
<wgt id='1580'> +3.0376625e+02 </wgt>
<wgt id='1581'> +2.9909952e+02 </wgt>
<wgt id='1582'> +3.0235034e+02 </wgt>
<wgt id='1583'> +2.9920220e+02 </wgt>
<wgt id='1584'> +3.0175386e+02 </wgt>
<wgt id='1585'> +3.0122124e+02 </wgt>
<wgt id='1586'> +3.0006632e+02 </wgt>
<wgt id='1587'> +3.0291257e+02 </wgt>
<wgt id='1588'> +2.9779056e+02 </wgt>
<wgt id='1589'> +3.0554126e+02 </wgt>
<wgt id='1590'> +3.0464721e+02 </wgt>
<wgt id='1591'> +3.0009090e+02 </wgt>
<wgt id='1592'> +3.0072427e+02 </wgt>
<wgt id='1593'> +3.0308430e+02 </wgt>
<wgt id='1594'> +3.0245695e+02 </wgt>
<wgt id='1595'> +3.0040871e+02 </wgt>
<wgt id='1596'> +3.0138884e+02 </wgt>
<wgt id='1597'> +3.0143771e+02 </wgt>
<wgt id='1598'> +2.9326897e+02 </wgt>
<wgt id='1599'> +2.9320442e+02 </wgt>
<wgt id='1600'> +2.9334726e+02 </wgt>
<wgt id='1601'> +2.9444981e+02 </wgt>
<wgt id='1602'> +2.9208797e+02 </wgt>
<wgt id='1603'> +2.9418911e+02 </wgt>
<wgt id='1604'> +2.9289743e+02 </wgt>
<wgt id='1605'> +2.9302036e+02 </wgt>
<wgt id='1606'> +2.9351766e+02 </wgt>
<wgt id='1607'> +2.9366962e+02 </wgt>
<wgt id='1608'> +2.9288013e+02 </wgt>
<wgt id='1609'> +2.9188971e+02 </wgt>
<wgt id='1610'> +2.9386955e+02 </wgt>
<wgt id='1611'> +2.9317794e+02 </wgt>
<wgt id='1612'> +2.9337596e+02 </wgt>
<wgt id='1613'> +2.9306016e+02 </wgt>
<wgt id='1614'> +2.9348659e+02 </wgt>
<wgt id='1615'> +2.9258428e+02 </wgt>
<wgt id='1616'> +2.9365126e+02 </wgt>
<wgt id='1617'> +2.9328913e+02 </wgt>
<wgt id='1618'> +2.9322971e+02 </wgt>
<wgt id='1619'> +2.9284700e+02 </wgt>
<wgt id='1620'> +2.9356399e+02 </wgt>
<wgt id='1621'> +2.9583502e+02 </wgt>
<wgt id='1622'> +2.9083708e+02 </wgt>
<wgt id='1623'> +2.9417523e+02 </wgt>
<wgt id='1624'> +2.9099413e+02 </wgt>
<wgt id='1625'> +2.9327038e+02 </wgt>
<wgt id='1626'> +2.9306683e+02 </wgt>
<wgt id='1627'> +2.9524148e+02 </wgt>
<wgt id='1628'> +2.8833974e+02 </wgt>
<wgt id='1629'> +2.9092221e+02 </wgt>
<wgt id='1630'> +2.9820109e+02 </wgt>
<wgt id='1631'> +2.9407325e+02 </wgt>
<wgt id='1632'> +2.9173103e+02 </wgt>
<wgt id='1633'> +2.8994797e+02 </wgt>
<wgt id='1634'> +2.9478641e+02 </wgt>
<wgt id='1635'> +2.9315125e+02 </wgt>
<wgt id='1636'> +2.9344273e+02 </wgt>
<wgt id='1637'> +2.9148231e+02 </wgt>
<wgt id='1638'> +2.9463039e+02 </wgt>
<wgt id='1639'> +2.9517903e+02 </wgt>
<wgt id='1640'> +2.9031715e+02 </wgt>
<wgt id='1641'> +2.9365476e+02 </wgt>
<wgt id='1642'> +2.9105119e+02 </wgt>
<wgt id='1643'> +2.9025172e+02 </wgt>
<wgt id='1644'> +2.9534017e+02 </wgt>
<wgt id='1645'> +2.9467290e+02 </wgt>
<wgt id='1646'> +2.9263994e+02 </wgt>
<wgt id='1647'> +2.9302133e+02 </wgt>
<wgt id='1648'> +2.9329221e+02 </wgt>
<wgt id='1649'> +5.9390304e+02 </wgt>
<wgt id='1650'> +2.8728826e+02 </wgt>
<wgt id='1651'> +2.8717448e+02 </wgt>
<wgt id='1652'> +2.8739467e+02 </wgt>
<wgt id='1653'> +2.8728963e+02 </wgt>
<wgt id='1654'> +2.8727864e+02 </wgt>
<wgt id='1655'> +2.8662102e+02 </wgt>
<wgt id='1656'> +2.8774982e+02 </wgt>
<wgt id='1657'> +2.8810984e+02 </wgt>
<wgt id='1658'> +2.8812543e+02 </wgt>
<wgt id='1659'> +2.8888675e+02 </wgt>
<wgt id='1660'> +2.8683555e+02 </wgt>
<wgt id='1661'> +2.8744309e+02 </wgt>
<wgt id='1662'> +2.8588973e+02 </wgt>
<wgt id='1663'> +2.8627957e+02 </wgt>
<wgt id='1664'> +2.8829767e+02 </wgt>
<wgt id='1665'> +2.8702467e+02 </wgt>
<wgt id='1666'> +2.8782289e+02 </wgt>
<wgt id='1667'> +2.8730745e+02 </wgt>
<wgt id='1668'> +2.8871512e+02 </wgt>
<wgt id='1669'> +2.8675561e+02 </wgt>
<wgt id='1670'> +2.8826052e+02 </wgt>
<wgt id='1671'> +2.8665964e+02 </wgt>
<wgt id='1672'> +2.8898021e+02 </wgt>
<wgt id='1673'> +2.8617569e+02 </wgt>
<wgt id='1674'> +2.8489240e+02 </wgt>
<wgt id='1675'> +2.8577172e+02 </wgt>
<wgt id='1676'> +2.8744093e+02 </wgt>
<wgt id='1677'> +2.8792086e+02 </wgt>
<wgt id='1678'> +2.8744064e+02 </wgt>
<wgt id='1679'> +2.9209825e+02 </wgt>
<wgt id='1680'> +3.0233330e+02 </wgt>
<wgt id='1681'> +2.9941806e+02 </wgt>
<wgt id='1682'> +3.0362934e+02 </wgt>
<wgt id='1683'> +3.0378870e+02 </wgt>
<wgt id='1684'> +3.0076593e+02 </wgt>
<wgt id='1685'> +3.0210094e+02 </wgt>
<wgt id='1686'> +3.0278995e+02 </wgt>
<wgt id='1687'> +2.9984232e+02 </wgt>
<wgt id='1688'> +2.9897110e+02 </wgt>
<wgt id='1689'> +3.0317623e+02 </wgt>
<wgt id='1690'> +3.0252726e+02 </wgt>
<wgt id='1691'> +3.0058573e+02 </wgt>
<wgt id='1692'> +3.0379541e+02 </wgt>
<wgt id='1693'> +3.0333190e+02 </wgt>
<wgt id='1694'> +3.0214578e+02 </wgt>
<wgt id='1695'> +3.0393619e+02 </wgt>
<wgt id='1696'> +3.0159836e+02 </wgt>
<wgt id='1697'> +3.0426856e+02 </wgt>
<wgt id='1698'> +2.9911637e+02 </wgt>
<wgt id='1699'> +2.9837275e+02 </wgt>
<wgt id='1700'> +2.9983428e+02 </wgt>
<wgt id='1701'> +2.9880259e+02 </wgt>
<wgt id='1702'> +3.0558577e+02 </wgt>
<wgt id='1703'> +3.0026338e+02 </wgt>
<wgt id='1704'> +3.0243143e+02 </wgt>
<wgt id='1705'> +3.0322951e+02 </wgt>
<wgt id='1706'> +3.0314468e+02 </wgt>
<wgt id='1707'> +3.0261707e+02 </wgt>
<wgt id='1708'> +3.0196591e+02 </wgt>
<wgt id='1709'> +3.0137549e+02 </wgt>
<wgt id='1710'> +3.0222112e+02 </wgt>
<wgt id='1711'> +3.0234119e+02 </wgt>
<wgt id='1712'> +3.0221161e+02 </wgt>
<wgt id='1713'> +3.0180092e+02 </wgt>
<wgt id='1714'> +3.0262450e+02 </wgt>
<wgt id='1715'> +3.0337674e+02 </wgt>
<wgt id='1716'> +3.0222231e+02 </wgt>
<wgt id='1717'> +3.0243578e+02 </wgt>
<wgt id='1718'> +3.0233130e+02 </wgt>
<wgt id='1719'> +3.0249780e+02 </wgt>
<wgt id='1720'> +3.0279054e+02 </wgt>
<wgt id='1721'> +3.0260556e+02 </wgt>
<wgt id='1722'> +3.0234434e+02 </wgt>
<wgt id='1723'> +3.0165796e+02 </wgt>
<wgt id='1724'> +3.0284615e+02 </wgt>
<wgt id='1725'> +3.0243086e+02 </wgt>
<wgt id='1726'> +3.0276271e+02 </wgt>
<wgt id='1727'> +3.0216164e+02 </wgt>
<wgt id='1728'> +3.0216505e+02 </wgt>
<wgt id='1729'> +3.0230729e+02 </wgt>
<wgt id='1730'> +3.0214903e+02 </wgt>
<wgt id='1731'> +3.0231651e+02 </wgt>
<wgt id='1732'> +3.0208268e+02 </wgt>
<wgt id='1733'> +3.0195183e+02 </wgt>
<wgt id='1734'> +3.0218287e+02 </wgt>
<wgt id='1735'> +3.0231475e+02 </wgt>
<wgt id='1736'> +3.0222824e+02 </wgt>
<wgt id='1737'> +3.0244059e+02 </wgt>
<wgt id='1738'> +3.0265425e+02 </wgt>
<wgt id='1739'> +3.0227521e+02 </wgt>
<wgt id='1740'> +3.0205592e+02 </wgt>
<wgt id='1741'> +3.0251239e+02 </wgt>
<wgt id='1742'> +3.0220958e+02 </wgt>
<wgt id='1743'> +3.0233982e+02 </wgt>
<wgt id='1744'> +3.0226032e+02 </wgt>
<wgt id='1745'> +3.0246171e+02 </wgt>
<wgt id='1746'> +3.0254256e+02 </wgt>
<wgt id='1747'> +3.0241454e+02 </wgt>
<wgt id='1748'> +3.0255211e+02 </wgt>
<wgt id='1749'> +3.0247167e+02 </wgt>
<wgt id='1750'> +3.0222468e+02 </wgt>
<wgt id='1751'> +3.0206852e+02 </wgt>
<wgt id='1752'> +3.0213849e+02 </wgt>
<wgt id='1753'> +3.0217168e+02 </wgt>
<wgt id='1754'> +3.0223404e+02 </wgt>
<wgt id='1755'> +3.0225456e+02 </wgt>
<wgt id='1756'> +3.0234963e+02 </wgt>
<wgt id='1757'> +3.0211108e+02 </wgt>
<wgt id='1758'> +3.0234313e+02 </wgt>
<wgt id='1759'> +3.0254913e+02 </wgt>
<wgt id='1760'> +3.0221864e+02 </wgt>
<wgt id='1761'> +3.0248451e+02 </wgt>
<wgt id='1762'> +3.0218113e+02 </wgt>
<wgt id='1763'> +3.0244345e+02 </wgt>
<wgt id='1764'> +3.0256320e+02 </wgt>
<wgt id='1765'> +3.0245129e+02 </wgt>
<wgt id='1766'> +3.0266013e+02 </wgt>
<wgt id='1767'> +3.0241946e+02 </wgt>
<wgt id='1768'> +3.0234128e+02 </wgt>
<wgt id='1769'> +3.0231606e+02 </wgt>
<wgt id='1770'> +3.0233518e+02 </wgt>
<wgt id='1771'> +3.0217030e+02 </wgt>
<wgt id='1772'> +3.0228690e+02 </wgt>
<wgt id='1773'> +3.0225462e+02 </wgt>
<wgt id='1774'> +3.0228663e+02 </wgt>
<wgt id='1775'> +3.0231126e+02 </wgt>
<wgt id='1776'> +3.0227836e+02 </wgt>
<wgt id='1777'> +3.0241944e+02 </wgt>
<wgt id='1778'> +3.0242327e+02 </wgt>
<wgt id='1779'> +3.0236535e+02 </wgt>
<wgt id='1780'> +3.0233057e+02 </wgt>
<wgt id='1781'> +2.8537736e+02 </wgt>
<wgt id='1782'> +3.2051665e+02 </wgt>
<wgt id='1783'> +2.9731316e+02 </wgt>
<wgt id='1784'> +2.9809406e+02 </wgt>
<wgt id='1785'> +2.9707103e+02 </wgt>
<wgt id='1786'> +2.9759339e+02 </wgt>
<wgt id='1787'> +2.9874770e+02 </wgt>
<wgt id='1788'> +2.9990302e+02 </wgt>
<wgt id='1789'> +2.9826766e+02 </wgt>
<wgt id='1790'> +2.9527913e+02 </wgt>
<wgt id='1791'> +2.9642744e+02 </wgt>
<wgt id='1792'> +2.9842852e+02 </wgt>
<wgt id='1793'> +2.9728400e+02 </wgt>
<wgt id='1794'> +2.9911731e+02 </wgt>
<wgt id='1795'> +2.9903400e+02 </wgt>
<wgt id='1796'> +3.0018383e+02 </wgt>
<wgt id='1797'> +2.9658459e+02 </wgt>
<wgt id='1798'> +2.9314418e+02 </wgt>
<wgt id='1799'> +2.9731336e+02 </wgt>
<wgt id='1800'> +2.9649592e+02 </wgt>
<wgt id='1801'> +2.9999857e+02 </wgt>
<wgt id='1802'> +2.9936953e+02 </wgt>
<wgt id='1803'> +3.0158252e+02 </wgt>
<wgt id='1804'> +2.9254150e+02 </wgt>
<wgt id='1805'> +2.9766150e+02 </wgt>
<wgt id='1806'> +2.9474816e+02 </wgt>
<wgt id='1807'> +2.9578192e+02 </wgt>
<wgt id='1808'> +2.9891170e+02 </wgt>
<wgt id='1809'> +2.9706034e+02 </wgt>
<wgt id='1810'> +2.9650323e+02 </wgt>
<wgt id='1811'> +2.9750846e+02 </wgt>
<wgt id='1812'> +2.9784613e+02 </wgt>
<wgt id='1813'> +2.9675807e+02 </wgt>
<wgt id='1814'> +2.9664774e+02 </wgt>
<wgt id='1815'> +2.9768420e+02 </wgt>
<wgt id='1816'> +2.9756090e+02 </wgt>
<wgt id='1817'> +2.9781958e+02 </wgt>
<wgt id='1818'> +2.9777400e+02 </wgt>
<wgt id='1819'> +2.9754720e+02 </wgt>
<wgt id='1820'> +2.9739619e+02 </wgt>
<wgt id='1821'> +2.9756320e+02 </wgt>
<wgt id='1822'> +2.9709263e+02 </wgt>
<wgt id='1823'> +2.9710527e+02 </wgt>
<wgt id='1824'> +2.9725899e+02 </wgt>
<wgt id='1825'> +2.9719302e+02 </wgt>
<wgt id='1826'> +2.9668485e+02 </wgt>
<wgt id='1827'> +2.9749616e+02 </wgt>
<wgt id='1828'> +2.9723455e+02 </wgt>
<wgt id='1829'> +2.9683538e+02 </wgt>
<wgt id='1830'> +2.9751070e+02 </wgt>
<wgt id='1831'> +2.9741760e+02 </wgt>
<wgt id='1832'> +2.9715848e+02 </wgt>
<wgt id='1833'> +2.9732050e+02 </wgt>
<wgt id='1834'> +2.9753830e+02 </wgt>
<wgt id='1835'> +2.9758718e+02 </wgt>
<wgt id='1836'> +2.9741263e+02 </wgt>
<wgt id='1837'> +2.9726489e+02 </wgt>
<wgt id='1838'> +2.9721414e+02 </wgt>
<wgt id='1839'> +2.9752999e+02 </wgt>
<wgt id='1840'> +2.9737520e+02 </wgt>
<wgt id='1841'> +2.9686684e+02 </wgt>
<wgt id='1842'> +2.9715952e+02 </wgt>
<wgt id='1843'> +2.9730116e+02 </wgt>
<wgt id='1844'> +2.9728080e+02 </wgt>
<wgt id='1845'> +2.9742813e+02 </wgt>
<wgt id='1846'> +2.9735686e+02 </wgt>
<wgt id='1847'> +2.9736092e+02 </wgt>
<wgt id='1848'> +2.9717361e+02 </wgt>
<wgt id='1849'> +2.9723054e+02 </wgt>
<wgt id='1850'> +2.9733839e+02 </wgt>
<wgt id='1851'> +2.9733780e+02 </wgt>
<wgt id='1852'> +2.9761721e+02 </wgt>
<wgt id='1853'> +2.9725242e+02 </wgt>
<wgt id='1854'> +2.9748941e+02 </wgt>
<wgt id='1855'> +2.9754096e+02 </wgt>
<wgt id='1856'> +2.9726431e+02 </wgt>
<wgt id='1857'> +2.9740934e+02 </wgt>
<wgt id='1858'> +2.9731916e+02 </wgt>
<wgt id='1859'> +2.9729685e+02 </wgt>
<wgt id='1860'> +2.9740905e+02 </wgt>
<wgt id='1861'> +2.9739516e+02 </wgt>
<wgt id='1862'> +2.9724775e+02 </wgt>
<wgt id='1863'> +2.9759883e+02 </wgt>
<wgt id='1864'> +2.9735376e+02 </wgt>
<wgt id='1865'> +2.9739654e+02 </wgt>
<wgt id='1866'> +2.9723100e+02 </wgt>
<wgt id='1867'> +2.9715151e+02 </wgt>
<wgt id='1868'> +2.9710011e+02 </wgt>
<wgt id='1869'> +2.9739674e+02 </wgt>
<wgt id='1870'> +2.9698247e+02 </wgt>
<wgt id='1871'> +2.9715716e+02 </wgt>
<wgt id='1872'> +2.9718239e+02 </wgt>
<wgt id='1873'> +2.9735347e+02 </wgt>
<wgt id='1874'> +2.9725226e+02 </wgt>
<wgt id='1875'> +2.9727021e+02 </wgt>
<wgt id='1876'> +2.9723615e+02 </wgt>
<wgt id='1877'> +2.9724675e+02 </wgt>
<wgt id='1878'> +2.9735339e+02 </wgt>
<wgt id='1879'> +2.9723964e+02 </wgt>
<wgt id='1880'> +2.9734714e+02 </wgt>
<wgt id='1881'> +2.9728594e+02 </wgt>
<wgt id='1882'> +2.9723533e+02 </wgt>
<wgt id='1883'> +2.9732003e+02 </wgt>
<wgt id='1884'> +2.7993907e+02 </wgt>
<wgt id='1885'> +3.1524098e+02 </wgt>
<wgt id='1886'> +3.0233098e+02 </wgt>
<wgt id='1887'> +3.0256520e+02 </wgt>
<wgt id='1888'> +2.9926752e+02 </wgt>
<wgt id='1889'> +3.0243671e+02 </wgt>
<wgt id='1890'> +2.9967536e+02 </wgt>
<wgt id='1891'> +3.0174023e+02 </wgt>
<wgt id='1892'> +2.9923216e+02 </wgt>
<wgt id='1893'> +3.0200553e+02 </wgt>
<wgt id='1894'> +3.0232464e+02 </wgt>
<wgt id='1895'> +3.0060669e+02 </wgt>
<wgt id='1896'> +3.0238306e+02 </wgt>
<wgt id='1897'> +2.9948654e+02 </wgt>
<wgt id='1898'> +3.0068271e+02 </wgt>
<wgt id='1899'> +3.0278642e+02 </wgt>
<wgt id='1900'> +3.0240929e+02 </wgt>
<wgt id='1901'> +3.0341976e+02 </wgt>
<wgt id='1902'> +3.0188579e+02 </wgt>
<wgt id='1903'> +3.0462825e+02 </wgt>
<wgt id='1904'> +3.0326878e+02 </wgt>
<wgt id='1905'> +2.9547517e+02 </wgt>
<wgt id='1906'> +3.0153732e+02 </wgt>
<wgt id='1907'> +3.0206770e+02 </wgt>
<wgt id='1908'> +3.0255244e+02 </wgt>
<wgt id='1909'> +3.0286207e+02 </wgt>
<wgt id='1910'> +3.0231935e+02 </wgt>
<wgt id='1911'> +3.0198325e+02 </wgt>
<wgt id='1912'> +3.0353291e+02 </wgt>
<wgt id='1913'> +3.0275241e+02 </wgt>
<wgt id='1914'> +3.0549955e+02 </wgt>
<wgt id='1915'> +3.0239377e+02 </wgt>
<wgt id='1916'> +3.0224417e+02 </wgt>
<wgt id='1917'> +2.8537736e+02 </wgt>
<wgt id='1918'> +3.2051665e+02 </wgt>
<wgt id='1919'> +2.9729135e+02 </wgt>
<wgt id='1920'> +2.9118543e+02 </wgt>
<wgt id='1921'> +2.9598892e+02 </wgt>
<wgt id='1922'> +2.9748639e+02 </wgt>
<wgt id='1923'> +2.9407276e+02 </wgt>
<wgt id='1924'> +2.9869211e+02 </wgt>
<wgt id='1925'> +2.9754355e+02 </wgt>
<wgt id='1926'> +2.9789212e+02 </wgt>
<wgt id='1927'> +2.9747592e+02 </wgt>
<wgt id='1928'> +2.9763743e+02 </wgt>
<wgt id='1929'> +2.9525380e+02 </wgt>
<wgt id='1930'> +2.9651167e+02 </wgt>
<wgt id='1931'> +2.9667770e+02 </wgt>
<wgt id='1932'> +2.9754262e+02 </wgt>
<wgt id='1933'> +2.9673744e+02 </wgt>
<wgt id='1934'> +2.9519525e+02 </wgt>
<wgt id='1935'> +2.9800739e+02 </wgt>
<wgt id='1936'> +2.9887445e+02 </wgt>
<wgt id='1937'> +2.9751632e+02 </wgt>
<wgt id='1938'> +2.9806862e+02 </wgt>
<wgt id='1939'> +2.9778902e+02 </wgt>
<wgt id='1940'> +2.9851847e+02 </wgt>
<wgt id='1941'> +2.9812061e+02 </wgt>
<wgt id='1942'> +2.9745124e+02 </wgt>
<wgt id='1943'> +2.9518647e+02 </wgt>
<wgt id='1944'> +2.9682718e+02 </wgt>
<wgt id='1945'> +2.9727124e+02 </wgt>
<wgt id='1946'> +2.9875236e+02 </wgt>
<wgt id='1947'> +2.9687197e+02 </wgt>
<wgt id='1948'> +2.9091459e+02 </wgt>
<wgt id='1949'> +2.9738469e+02 </wgt>
<wgt id='1950'> +2.7993907e+02 </wgt>
<wgt id='1951'> +3.1524098e+02 </wgt>
<wgt id='1952'> +2.4652960e+02 </wgt>
<wgt id='1953'> +2.4613049e+02 </wgt>
<wgt id='1954'> +2.4692778e+02 </wgt>
<wgt id='1955'> +2.4673815e+02 </wgt>
<wgt id='1956'> +2.4632088e+02 </wgt>
<wgt id='1957'> +2.4684898e+02 </wgt>
<wgt id='1958'> +2.4621197e+02 </wgt>
<wgt id='1959'> +2.4807188e+02 </wgt>
<wgt id='1960'> +2.4502115e+02 </wgt>
<wgt id='1961'> +2.4608457e+02 </wgt>
<wgt id='1962'> +2.4699188e+02 </wgt>
<wgt id='1963'> +2.4426686e+02 </wgt>
<wgt id='1964'> +2.4900392e+02 </wgt>
<wgt id='1965'> +2.4591951e+02 </wgt>
<wgt id='1966'> +2.4715421e+02 </wgt>
<wgt id='1967'> +2.4829393e+02 </wgt>
<wgt id='1968'> +2.4438000e+02 </wgt>
<wgt id='1969'> +2.4794881e+02 </wgt>
<wgt id='1970'> +2.4555787e+02 </wgt>
<wgt id='1971'> +2.4865740e+02 </wgt>
<wgt id='1972'> +2.4426852e+02 </wgt>
<wgt id='1973'> +2.4681843e+02 </wgt>
<wgt id='1974'> +2.4623704e+02 </wgt>
<wgt id='1975'> +2.4277052e+02 </wgt>
<wgt id='1976'> +2.5006072e+02 </wgt>
<wgt id='1977'> +2.4355998e+02 </wgt>
<wgt id='1978'> +2.4964595e+02 </wgt>
<wgt id='1979'> +2.5235822e+02 </wgt>
<wgt id='1980'> +2.4132851e+02 </wgt>
<wgt id='1981'> +2.4652960e+02 </wgt>
<wgt id='1982'> +2.4808252e+02 </wgt>
<wgt id='1983'> +2.4409873e+02 </wgt>
<wgt id='1984'> +2.4810378e+02 </wgt>
<wgt id='1985'> +2.4491244e+02 </wgt>
<wgt id='1986'> +2.4346583e+02 </wgt>
<wgt id='1987'> +2.5369610e+02 </wgt>
<wgt id='1988'> +2.4690514e+02 </wgt>
<wgt id='1989'> +2.4649521e+02 </wgt>
<wgt id='1990'> +2.4923488e+02 </wgt>
<wgt id='1991'> +2.4401925e+02 </wgt>
<wgt id='1992'> +2.4429004e+02 </wgt>
<wgt id='1993'> +2.4607563e+02 </wgt>
<wgt id='1994'> +2.5006346e+02 </wgt>
<wgt id='1995'> +2.8311773e+02 </wgt>
<wgt id='1996'> +2.8269380e+02 </wgt>
<wgt id='1997'> +2.8343874e+02 </wgt>
<wgt id='1998'> +2.8298771e+02 </wgt>
<wgt id='1999'> +2.8314638e+02 </wgt>
<wgt id='2000'> +2.8345182e+02 </wgt>
<wgt id='2001'> +2.8268226e+02 </wgt>
<wgt id='2002'> +2.8524458e+02 </wgt>
<wgt id='2003'> +2.8094896e+02 </wgt>
<wgt id='2004'> +2.8128087e+02 </wgt>
<wgt id='2005'> +2.8490976e+02 </wgt>
<wgt id='2006'> +2.8443951e+02 </wgt>
<wgt id='2007'> +2.8172380e+02 </wgt>
<wgt id='2008'> +2.8269893e+02 </wgt>
<wgt id='2009'> +2.8340749e+02 </wgt>
<wgt id='2010'> +2.8350539e+02 </wgt>
<wgt id='2011'> +2.8180300e+02 </wgt>
<wgt id='2012'> +2.8267605e+02 </wgt>
<wgt id='2013'> +2.8348330e+02 </wgt>
<wgt id='2014'> +2.8388549e+02 </wgt>
<wgt id='2015'> +2.8230949e+02 </wgt>
<wgt id='2016'> +2.8705257e+02 </wgt>
<wgt id='2017'> +2.7915890e+02 </wgt>
<wgt id='2018'> +2.7900116e+02 </wgt>
<wgt id='2019'> +2.8718464e+02 </wgt>
<wgt id='2020'> +2.7649785e+02 </wgt>
<wgt id='2021'> +2.8935156e+02 </wgt>
<wgt id='2022'> +2.8028146e+02 </wgt>
<wgt id='2023'> +2.8617814e+02 </wgt>
<wgt id='2024'> +2.8292738e+02 </wgt>
<wgt id='2025'> +2.8420395e+02 </wgt>
<wgt id='2026'> +2.7900727e+02 </wgt>
<wgt id='2027'> +2.8407053e+02 </wgt>
<wgt id='2028'> +2.8207789e+02 </wgt>
<wgt id='2029'> +2.7108426e+02 </wgt>
<wgt id='2030'> +2.8603948e+02 </wgt>
<wgt id='2031'> +2.8292810e+02 </wgt>
<wgt id='2032'> +2.8370698e+02 </wgt>
<wgt id='2033'> +2.8583513e+02 </wgt>
<wgt id='2034'> +2.6752474e+02 </wgt>
<wgt id='2035'> +2.8384326e+02 </wgt>
<wgt id='2036'> +2.8251535e+02 </wgt>
<wgt id='2037'> +2.8888709e+02 </wgt>
<wgt id='2038'> +2.9987984e+02 </wgt>
<wgt id='2039'> +2.9985277e+02 </wgt>
<wgt id='2040'> +2.9982547e+02 </wgt>
<wgt id='2041'> +2.9979863e+02 </wgt>
<wgt id='2042'> +2.9977109e+02 </wgt>
<wgt id='2043'> +2.9974278e+02 </wgt>
<wgt id='2044'> +2.9971660e+02 </wgt>
<wgt id='2045'> +2.9968924e+02 </wgt>
<wgt id='2046'> +2.9966158e+02 </wgt>
<wgt id='2047'> +2.9963499e+02 </wgt>
<wgt id='2048'> +2.9960719e+02 </wgt>
<wgt id='2049'> +2.9957950e+02 </wgt>
<wgt id='2050'> +2.9955182e+02 </wgt>
<wgt id='2051'> +2.9952584e+02 </wgt>
<wgt id='2052'> +2.9949792e+02 </wgt>
<wgt id='2053'> +2.9947046e+02 </wgt>
<wgt id='2054'> +2.9944377e+02 </wgt>
<wgt id='2055'> +2.9941605e+02 </wgt>
<wgt id='2056'> +2.9938902e+02 </wgt>
<wgt id='2057'> +2.9936195e+02 </wgt>
<wgt id='2058'> +2.9933440e+02 </wgt>
<wgt id='2059'> +2.9930741e+02 </wgt>
<wgt id='2060'> +2.9928018e+02 </wgt>
<wgt id='2061'> +2.9925287e+02 </wgt>
<wgt id='2062'> +2.9922531e+02 </wgt>
<wgt id='2063'> +2.9919723e+02 </wgt>
<wgt id='2064'> +2.9917111e+02 </wgt>
<wgt id='2065'> +2.9914301e+02 </wgt>
<wgt id='2066'> +2.9911618e+02 </wgt>
<wgt id='2067'> +2.9908929e+02 </wgt>
<wgt id='2068'> +2.9906128e+02 </wgt>
<wgt id='2069'> +2.9365548e+02 </wgt>
<wgt id='2070'> +2.9443574e+02 </wgt>
<wgt id='2071'> +2.9341387e+02 </wgt>
<wgt id='2072'> +2.9394154e+02 </wgt>
<wgt id='2073'> +2.9507884e+02 </wgt>
<wgt id='2074'> +2.9622393e+02 </wgt>
<wgt id='2075'> +2.9459660e+02 </wgt>
<wgt id='2076'> +2.9163682e+02 </wgt>
<wgt id='2077'> +2.9277643e+02 </wgt>
<wgt id='2078'> +2.9476151e+02 </wgt>
<wgt id='2079'> +2.9362920e+02 </wgt>
<wgt id='2080'> +2.9543636e+02 </wgt>
<wgt id='2081'> +2.9535184e+02 </wgt>
<wgt id='2082'> +2.9648407e+02 </wgt>
<wgt id='2083'> +2.9293044e+02 </wgt>
<wgt id='2084'> +2.8953918e+02 </wgt>
<wgt id='2085'> +2.9366216e+02 </wgt>
<wgt id='2086'> +2.9284845e+02 </wgt>
<wgt id='2087'> +2.9630417e+02 </wgt>
<wgt id='2088'> +2.9568413e+02 </wgt>
<wgt id='2089'> +2.9786650e+02 </wgt>
<wgt id='2090'> +2.8892139e+02 </wgt>
<wgt id='2091'> +2.9401422e+02 </wgt>
<wgt id='2092'> +2.9109423e+02 </wgt>
<wgt id='2093'> +2.9213788e+02 </wgt>
<wgt id='2094'> +2.9524210e+02 </wgt>
<wgt id='2095'> +2.9340712e+02 </wgt>
<wgt id='2096'> +2.9284062e+02 </wgt>
<wgt id='2097'> +2.9385115e+02 </wgt>
<wgt id='2098'> +2.9419569e+02 </wgt>
<wgt id='2099'> +2.9310186e+02 </wgt>
<wgt id='2100'> +2.9298919e+02 </wgt>
<wgt id='2101'> +2.9402976e+02 </wgt>
<wgt id='2102'> +2.9390782e+02 </wgt>
<wgt id='2103'> +2.9415531e+02 </wgt>
<wgt id='2104'> +2.9411916e+02 </wgt>
<wgt id='2105'> +2.9388386e+02 </wgt>
<wgt id='2106'> +2.9374365e+02 </wgt>
<wgt id='2107'> +2.9390590e+02 </wgt>
<wgt id='2108'> +2.9344375e+02 </wgt>
<wgt id='2109'> +2.9344672e+02 </wgt>
<wgt id='2110'> +2.9360151e+02 </wgt>
<wgt id='2111'> +2.9353975e+02 </wgt>
<wgt id='2112'> +2.9303329e+02 </wgt>
<wgt id='2113'> +2.9383995e+02 </wgt>
<wgt id='2114'> +2.9357919e+02 </wgt>
<wgt id='2115'> +2.9317855e+02 </wgt>
<wgt id='2116'> +2.9385013e+02 </wgt>
<wgt id='2117'> +2.9375904e+02 </wgt>
<wgt id='2118'> +2.9349846e+02 </wgt>
<wgt id='2119'> +2.9366253e+02 </wgt>
<wgt id='2120'> +2.9387995e+02 </wgt>
<wgt id='2121'> +2.9392522e+02 </wgt>
<wgt id='2122'> +2.9375516e+02 </wgt>
<wgt id='2123'> +2.9360253e+02 </wgt>
<wgt id='2124'> +2.9355351e+02 </wgt>
<wgt id='2125'> +2.9387181e+02 </wgt>
<wgt id='2126'> +2.9371334e+02 </wgt>
<wgt id='2127'> +2.9321486e+02 </wgt>
<wgt id='2128'> +2.9350140e+02 </wgt>
<wgt id='2129'> +2.9364036e+02 </wgt>
<wgt id='2130'> +2.9362321e+02 </wgt>
<wgt id='2131'> +2.9376820e+02 </wgt>
<wgt id='2132'> +2.9370255e+02 </wgt>
<wgt id='2133'> +2.9370290e+02 </wgt>
<wgt id='2134'> +2.9351843e+02 </wgt>
<wgt id='2135'> +2.9357487e+02 </wgt>
<wgt id='2136'> +2.9368417e+02 </wgt>
<wgt id='2137'> +2.9367988e+02 </wgt>
<wgt id='2138'> +2.9395672e+02 </wgt>
<wgt id='2139'> +2.9359651e+02 </wgt>
<wgt id='2140'> +2.9383226e+02 </wgt>
<wgt id='2141'> +2.9388076e+02 </wgt>
<wgt id='2142'> +2.9360547e+02 </wgt>
<wgt id='2143'> +2.9375124e+02 </wgt>
<wgt id='2144'> +2.9365659e+02 </wgt>
<wgt id='2145'> +2.9364025e+02 </wgt>
<wgt id='2146'> +2.9374982e+02 </wgt>
<wgt id='2147'> +2.9373821e+02 </wgt>
<wgt id='2148'> +2.9358959e+02 </wgt>
<wgt id='2149'> +2.9393876e+02 </wgt>
<wgt id='2150'> +2.9369471e+02 </wgt>
<wgt id='2151'> +2.9373678e+02 </wgt>
<wgt id='2152'> +2.9357358e+02 </wgt>
<wgt id='2153'> +2.9349800e+02 </wgt>
<wgt id='2154'> +2.9344736e+02 </wgt>
<wgt id='2155'> +2.9373633e+02 </wgt>
<wgt id='2156'> +2.9332705e+02 </wgt>
<wgt id='2157'> +2.9350241e+02 </wgt>
<wgt id='2158'> +2.9352681e+02 </wgt>
<wgt id='2159'> +2.9369677e+02 </wgt>
<wgt id='2160'> +2.9359626e+02 </wgt>
<wgt id='2161'> +2.9361432e+02 </wgt>
<wgt id='2162'> +2.9357795e+02 </wgt>
<wgt id='2163'> +2.9358997e+02 </wgt>
<wgt id='2164'> +2.9369443e+02 </wgt>
<wgt id='2165'> +2.9358264e+02 </wgt>
<wgt id='2166'> +2.9368965e+02 </wgt>
<wgt id='2167'> +2.9362916e+02 </wgt>
<wgt id='2168'> +2.9357812e+02 </wgt>
<wgt id='2169'> +2.9366051e+02 </wgt>
<wgt id='2170'> +2.9365171e+02 </wgt>
<wgt id='2171'> +2.9363071e+02 </wgt>
<wgt id='2172'> +2.9365941e+02 </wgt>
<wgt id='2173'> +2.9366005e+02 </wgt>
<wgt id='2174'> +2.9366695e+02 </wgt>
<wgt id='2175'> +2.9365714e+02 </wgt>
<wgt id='2176'> +2.9363895e+02 </wgt>
<wgt id='2177'> +3.0520643e+02 </wgt>
<wgt id='2178'> +2.9470448e+02 </wgt>
<wgt id='2179'> +3.1038636e+02 </wgt>
<wgt id='2180'> +3.0927586e+02 </wgt>
<wgt id='2181'> +2.8818461e+02 </wgt>
<wgt id='2182'> +2.8535834e+02 </wgt>
<wgt id='2183'> +2.9943115e+02 </wgt>
<wgt id='2184'> +3.0840471e+02 </wgt>
<wgt id='2185'> +3.1168524e+02 </wgt>
<wgt id='2186'> +3.0042016e+02 </wgt>
<wgt id='2187'> +3.1024881e+02 </wgt>
<wgt id='2188'> +2.9974299e+02 </wgt>
<wgt id='2189'> +3.0273600e+02 </wgt>
<wgt id='2190'> +3.1013029e+02 </wgt>
<wgt id='2191'> +3.1650127e+02 </wgt>
<wgt id='2192'> +3.0567900e+02 </wgt>
<wgt id='2193'> +3.1317424e+02 </wgt>
<wgt id='2194'> +3.1546769e+02 </wgt>
<wgt id='2195'> +3.1341463e+02 </wgt>
<wgt id='2196'> +3.0193357e+02 </wgt>
<wgt id='2197'> +3.0728678e+02 </wgt>
<wgt id='2198'> +2.9234631e+02 </wgt>
<wgt id='2199'> +3.0410555e+02 </wgt>
<wgt id='2200'> +3.1235437e+02 </wgt>
<wgt id='2201'> +2.9534604e+02 </wgt>
<wgt id='2202'> +3.0587307e+02 </wgt>
<wgt id='2203'> +2.8944954e+02 </wgt>
<wgt id='2204'> +3.2170556e+02 </wgt>
<wgt id='2205'> +3.0674041e+02 </wgt>
<wgt id='2206'> +3.0703467e+02 </wgt>
<wgt id='2207'> +2.9961556e+02 </wgt>
<wgt id='2208'> +2.9701741e+02 </wgt>
<wgt id='2209'> +3.0095140e+02 </wgt>
<wgt id='2210'> +3.0482047e+02 </wgt>
<wgt id='2211'> +2.8800627e+02 </wgt>
<wgt id='2212'> +3.2207382e+02 </wgt>
<wgt id='2213'> +3.1325600e+02 </wgt>
<wgt id='2214'> +3.0875871e+02 </wgt>
<wgt id='2215'> +3.1322645e+02 </wgt>
<wgt id='2216'> +2.9556438e+02 </wgt>
<wgt id='2217'> +3.0338445e+02 </wgt>
<wgt id='2218'> +3.0236515e+02 </wgt>
<wgt id='2219'> +2.9359568e+02 </wgt>
<wgt id='2220'> +2.9610605e+02 </wgt>
<wgt id='2221'> +3.0017987e+02 </wgt>
<wgt id='2222'> +3.1581841e+02 </wgt>
<wgt id='2223'> +3.0286413e+02 </wgt>
<wgt id='2224'> +3.0632368e+02 </wgt>
<wgt id='2225'> +3.0466012e+02 </wgt>
<wgt id='2226'> +3.1650047e+02 </wgt>
<wgt id='2227'> +3.0784591e+02 </wgt>
<wgt id='2228'> +3.0178307e+02 </wgt>
<wgt id='2229'> +3.0757862e+02 </wgt>
<wgt id='2230'> +2.9511399e+02 </wgt>
<wgt id='2231'> +3.0022897e+02 </wgt>
<wgt id='2232'> +3.0647716e+02 </wgt>
<wgt id='2233'> +3.1018480e+02 </wgt>
<wgt id='2234'> +3.1214875e+02 </wgt>
<wgt id='2235'> +3.0559850e+02 </wgt>
<wgt id='2236'> +3.0584077e+02 </wgt>
<wgt id='2237'> +3.0651966e+02 </wgt>
<wgt id='2238'> +3.1124356e+02 </wgt>
<wgt id='2239'> +3.0823457e+02 </wgt>
<wgt id='2240'> +2.9863260e+02 </wgt>
<wgt id='2241'> +3.1527604e+02 </wgt>
<wgt id='2242'> +3.0148606e+02 </wgt>
<wgt id='2243'> +3.0367446e+02 </wgt>
<wgt id='2244'> +3.1578008e+02 </wgt>
<wgt id='2245'> +3.0616644e+02 </wgt>
<wgt id='2246'> +3.0134018e+02 </wgt>
<wgt id='2247'> +3.0426909e+02 </wgt>
<wgt id='2248'> +3.0704165e+02 </wgt>
<wgt id='2249'> +2.9800254e+02 </wgt>
<wgt id='2250'> +3.0129577e+02 </wgt>
<wgt id='2251'> +2.9174176e+02 </wgt>
<wgt id='2252'> +3.1189875e+02 </wgt>
<wgt id='2253'> +2.8947876e+02 </wgt>
<wgt id='2254'> +2.9524190e+02 </wgt>
<wgt id='2255'> +2.9886003e+02 </wgt>
<wgt id='2256'> +3.0722320e+02 </wgt>
<wgt id='2257'> +3.0364580e+02 </wgt>
<wgt id='2258'> +3.0589921e+02 </wgt>
<wgt id='2259'> +3.0504405e+02 </wgt>
<wgt id='2260'> +2.9720421e+02 </wgt>
<wgt id='2261'> +3.1341160e+02 </wgt>
<wgt id='2262'> +3.0805700e+02 </wgt>
<wgt id='2263'> +3.0743408e+02 </wgt>
<wgt id='2264'> +3.1249449e+02 </wgt>
<wgt id='2265'> +3.1014793e+02 </wgt>
<wgt id='2266'> +3.0230111e+02 </wgt>
<wgt id='2267'> +2.9972726e+02 </wgt>
<wgt id='2268'> +3.0271865e+02 </wgt>
<wgt id='2269'> +3.0614897e+02 </wgt>
<wgt id='2270'> +3.1195890e+02 </wgt>
<wgt id='2271'> +3.0627447e+02 </wgt>
<wgt id='2272'> +3.2002162e+02 </wgt>
<wgt id='2273'> +3.0357877e+02 </wgt>
<wgt id='2274'> +3.0768354e+02 </wgt>
<wgt id='2275'> +3.0977716e+02 </wgt>
<wgt id='2276'> +3.1047034e+02 </wgt>
<wgt id='2277'> +3.2082944e+02 </wgt>
<wgt id='2278'> +2.9370760e+02 </wgt>
<wgt id='2279'> +3.1597099e+02 </wgt>
<wgt id='2280'> +2.9441374e+02 </wgt>
<wgt id='2281'> +2.9422794e+02 </wgt>
<wgt id='2282'> +4.6371682e+02 </wgt>
<wgt id='2283'> +3.2004786e+02 </wgt>
<wgt id='2284'> +4.4188832e+02 </wgt>
</rwgt>
</event>
<event npLO=" -1 " npNLO=" 2 ">
 6      2 -2.8781417e+02 6.17884100e+00 7.54677110e-03 1.36548920e-01
       21 -1    0    0  502  505 +0.0000000000e+00 +0.0000000000e+00 +2.1670849000e+03 2.1670849000e+03 0.0000000000e+00 0.0000e+00 9.0000e+00
       21 -1    0    0  504  502 +0.0000000000e+00 +0.0000000000e+00 -5.4318473000e+00 5.4318473000e+00 0.0000000000e+00 0.0000e+00 9.0000e+00
       25  1    1    2    0    0 -1.7208567000e+01 +4.7061757000e+00 +5.0734537000e+02 5.1741435000e+02 1.0000000000e+02 0.0000e+00 9.0000e+00
       21  1    1    2  503  501 +1.5351130000e+01 +1.4264620000e+01 +7.9117870000e+02 7.9145618000e+02 0.0000000000e+00 0.0000e+00 9.0000e+00
       21  1    1    2  504  503 +1.6668036000e+00 -1.0354665000e+01 +1.1742420000e+02 1.1789164000e+02 0.0000000000e+00 0.0000e+00 9.0000e+00
       21  1    1    2  501  505 +1.9063347000e-01 -8.6161306000e+00 +7.4570474000e+02 7.4575454000e+02 0.0000000000e+00 0.0000e+00 9.0000e+00
#aMCatNLO 2  0  0  1  4 0.86754519E+01 0.00000000E+00 -9  6  0 0.00000000E+00 0.00000000E+00 0.00000000E+00 0.00000000E+00 0.00000000E+00
<rwgt>
<wgt id='1001'> -2.8781417e+02 </wgt>
<wgt id='1002'> -1.6205094e+02 </wgt>
<wgt id='1003'> -5.5342659e+02 </wgt>
<wgt id='1004'> -2.7846829e+02 </wgt>
<wgt id='1005'> -1.5678882e+02 </wgt>
<wgt id='1006'> -5.3545572e+02 </wgt>
<wgt id='1007'> -2.9214413e+02 </wgt>
<wgt id='1008'> -1.6448887e+02 </wgt>
<wgt id='1009'> -5.6175246e+02 </wgt>
<wgt id='1010'> -2.8781417e+02 </wgt>
<wgt id='1011'> -2.8870414e+02 </wgt>
<wgt id='1012'> -2.8706202e+02 </wgt>
<wgt id='1013'> -2.8707744e+02 </wgt>
<wgt id='1014'> -2.8750901e+02 </wgt>
<wgt id='1015'> -2.8562326e+02 </wgt>
<wgt id='1016'> -2.8940362e+02 </wgt>
<wgt id='1017'> -2.8548475e+02 </wgt>
<wgt id='1018'> -2.8459134e+02 </wgt>
<wgt id='1019'> -2.8646521e+02 </wgt>
<wgt id='1020'> -2.8857910e+02 </wgt>
<wgt id='1021'> -2.9215842e+02 </wgt>
<wgt id='1022'> -2.8668844e+02 </wgt>
<wgt id='1023'> -2.8874659e+02 </wgt>
<wgt id='1024'> -2.8893614e+02 </wgt>
<wgt id='1025'> -2.8882055e+02 </wgt>
<wgt id='1026'> -2.8845112e+02 </wgt>
<wgt id='1027'> -2.8938639e+02 </wgt>
<wgt id='1028'> -2.8805949e+02 </wgt>
<wgt id='1029'> -2.8358759e+02 </wgt>
<wgt id='1030'> -2.8932868e+02 </wgt>
<wgt id='1031'> -2.8873236e+02 </wgt>
<wgt id='1032'> -2.8781620e+02 </wgt>
<wgt id='1033'> -2.9043172e+02 </wgt>
<wgt id='1034'> -2.8549964e+02 </wgt>
<wgt id='1035'> -2.8793001e+02 </wgt>
<wgt id='1036'> -2.8744184e+02 </wgt>
<wgt id='1037'> -2.8500178e+02 </wgt>
<wgt id='1038'> -2.8896459e+02 </wgt>
<wgt id='1039'> -2.8202608e+02 </wgt>
<wgt id='1040'> -2.8718495e+02 </wgt>
<wgt id='1041'> -2.8689690e+02 </wgt>
<wgt id='1042'> -2.8630752e+02 </wgt>
<wgt id='1043'> -2.8610445e+02 </wgt>
<wgt id='1044'> -2.8852494e+02 </wgt>
<wgt id='1045'> -2.8957677e+02 </wgt>
<wgt id='1046'> -2.8726385e+02 </wgt>
<wgt id='1047'> -2.8629766e+02 </wgt>
<wgt id='1048'> -2.9169346e+02 </wgt>
<wgt id='1049'> -2.8898457e+02 </wgt>
<wgt id='1050'> -2.8676837e+02 </wgt>
<wgt id='1051'> -2.8727665e+02 </wgt>
<wgt id='1052'> -2.8943079e+02 </wgt>
<wgt id='1053'> -2.8863673e+02 </wgt>
<wgt id='1054'> -2.8765215e+02 </wgt>
<wgt id='1055'> -2.8817030e+02 </wgt>
<wgt id='1056'> -2.8535090e+02 </wgt>
<wgt id='1057'> -2.8869120e+02 </wgt>
<wgt id='1058'> -2.8791567e+02 </wgt>
<wgt id='1059'> -2.8616155e+02 </wgt>
<wgt id='1060'> -2.8723093e+02 </wgt>
<wgt id='1061'> -2.8797040e+02 </wgt>
<wgt id='1062'> -2.8795560e+02 </wgt>
<wgt id='1063'> -2.8805387e+02 </wgt>
<wgt id='1064'> -2.8801487e+02 </wgt>
<wgt id='1065'> -2.8609707e+02 </wgt>
<wgt id='1066'> -2.8862727e+02 </wgt>
<wgt id='1067'> -2.8777624e+02 </wgt>
<wgt id='1068'> -2.8855484e+02 </wgt>
<wgt id='1069'> -2.8911333e+02 </wgt>
<wgt id='1070'> -2.8743601e+02 </wgt>
<wgt id='1071'> -2.8786892e+02 </wgt>
<wgt id='1072'> -2.8766742e+02 </wgt>
<wgt id='1073'> -2.8851022e+02 </wgt>
<wgt id='1074'> -2.8744747e+02 </wgt>
<wgt id='1075'> -2.8828678e+02 </wgt>
<wgt id='1076'> -2.8761588e+02 </wgt>
<wgt id='1077'> -2.8624828e+02 </wgt>
<wgt id='1078'> -2.8979616e+02 </wgt>
<wgt id='1079'> -2.8776866e+02 </wgt>
<wgt id='1080'> -2.8847192e+02 </wgt>
<wgt id='1081'> -2.8683404e+02 </wgt>
<wgt id='1082'> -2.8657874e+02 </wgt>
<wgt id='1083'> -2.8772512e+02 </wgt>
<wgt id='1084'> -2.8681527e+02 </wgt>
<wgt id='1085'> -2.8761649e+02 </wgt>
<wgt id='1086'> -2.8798896e+02 </wgt>
<wgt id='1087'> -2.8806093e+02 </wgt>
<wgt id='1088'> -2.8819435e+02 </wgt>
<wgt id='1089'> -2.8774369e+02 </wgt>
<wgt id='1090'> -2.8762150e+02 </wgt>
<wgt id='1091'> -2.8727039e+02 </wgt>
<wgt id='1092'> -2.8795957e+02 </wgt>
<wgt id='1093'> -2.8913762e+02 </wgt>
<wgt id='1094'> -2.8757533e+02 </wgt>
<wgt id='1095'> -2.8816116e+02 </wgt>
<wgt id='1096'> -2.8766020e+02 </wgt>
<wgt id='1097'> -2.8790785e+02 </wgt>
<wgt id='1098'> -2.8761571e+02 </wgt>
<wgt id='1099'> -2.8745432e+02 </wgt>
<wgt id='1100'> -2.8802348e+02 </wgt>
<wgt id='1101'> -2.8824550e+02 </wgt>
<wgt id='1102'> -2.8831754e+02 </wgt>
<wgt id='1103'> -2.8729593e+02 </wgt>
<wgt id='1104'> -2.8772610e+02 </wgt>
<wgt id='1105'> -2.8821201e+02 </wgt>
<wgt id='1106'> -2.8766761e+02 </wgt>
<wgt id='1107'> -2.8809999e+02 </wgt>
<wgt id='1108'> -2.8794997e+02 </wgt>
<wgt id='1109'> -2.8802757e+02 </wgt>
<wgt id='1110'> -2.8781419e+02 </wgt>
<wgt id='1111'> -2.6020146e+02 </wgt>
<wgt id='1112'> -3.2437828e+02 </wgt>
<wgt id='1113'> -2.8781419e+02 </wgt>
<wgt id='1114'> -2.7584234e+02 </wgt>
<wgt id='1115'> -2.8380089e+02 </wgt>
<wgt id='1116'> -2.7560977e+02 </wgt>
<wgt id='1117'> -2.8461624e+02 </wgt>
<wgt id='1118'> -2.7011377e+02 </wgt>
<wgt id='1119'> -2.9729244e+02 </wgt>
<wgt id='1120'> -2.9598989e+02 </wgt>
<wgt id='1121'> -2.8657921e+02 </wgt>
<wgt id='1122'> -2.7374386e+02 </wgt>
<wgt id='1123'> -2.9238153e+02 </wgt>
<wgt id='1124'> -2.6330589e+02 </wgt>
<wgt id='1125'> -3.0526723e+02 </wgt>
<wgt id='1126'> -2.9135747e+02 </wgt>
<wgt id='1127'> -2.9670524e+02 </wgt>
<wgt id='1128'> -2.7279750e+02 </wgt>
<wgt id='1129'> -2.7593779e+02 </wgt>
<wgt id='1130'> -2.7978849e+02 </wgt>
<wgt id='1131'> -2.8169883e+02 </wgt>
<wgt id='1132'> -2.7322994e+02 </wgt>
<wgt id='1133'> -2.8031998e+02 </wgt>
<wgt id='1134'> -2.8185025e+02 </wgt>
<wgt id='1135'> -2.8754235e+02 </wgt>
<wgt id='1136'> -2.6893192e+02 </wgt>
<wgt id='1137'> -3.0009847e+02 </wgt>
<wgt id='1138'> -2.8467666e+02 </wgt>
<wgt id='1139'> -2.7157103e+02 </wgt>
<wgt id='1140'> -2.9863431e+02 </wgt>
<wgt id='1141'> -2.8640392e+02 </wgt>
<wgt id='1142'> -2.8348158e+02 </wgt>
<wgt id='1143'> -3.0496778e+02 </wgt>
<wgt id='1144'> -2.9228637e+02 </wgt>
<wgt id='1145'> -2.8283657e+02 </wgt>
<wgt id='1146'> -2.9241278e+02 </wgt>
<wgt id='1147'> -3.0048137e+02 </wgt>
<wgt id='1148'> -2.6086607e+02 </wgt>
<wgt id='1149'> -2.9933221e+02 </wgt>
<wgt id='1150'> -2.7541321e+02 </wgt>
<wgt id='1151'> -3.0127161e+02 </wgt>
<wgt id='1152'> -3.0111362e+02 </wgt>
<wgt id='1153'> -2.9837004e+02 </wgt>
<wgt id='1154'> -2.8009617e+02 </wgt>
<wgt id='1155'> -3.1355431e+02 </wgt>
<wgt id='1156'> -2.9143100e+02 </wgt>
<wgt id='1157'> -2.8447519e+02 </wgt>
<wgt id='1158'> -2.6710720e+02 </wgt>
<wgt id='1159'> -3.0827671e+02 </wgt>
<wgt id='1160'> -2.8549891e+02 </wgt>
<wgt id='1161'> -3.0941149e+02 </wgt>
<wgt id='1162'> -2.7558272e+02 </wgt>
<wgt id='1163'> -2.8876186e+02 </wgt>
<wgt id='1164'> -2.8854095e+02 </wgt>
<wgt id='1165'> -3.0012364e+02 </wgt>
<wgt id='1166'> -2.7735324e+02 </wgt>
<wgt id='1167'> -3.0008428e+02 </wgt>
<wgt id='1168'> -2.8244748e+02 </wgt>
<wgt id='1169'> -2.9981955e+02 </wgt>
<wgt id='1170'> -2.8317909e+02 </wgt>
<wgt id='1171'> -3.0974199e+02 </wgt>
<wgt id='1172'> -2.7250745e+02 </wgt>
<wgt id='1173'> -2.8503755e+02 </wgt>
<wgt id='1174'> -2.9198155e+02 </wgt>
<wgt id='1175'> -2.9327492e+02 </wgt>
<wgt id='1176'> -2.7628204e+02 </wgt>
<wgt id='1177'> -2.8051256e+02 </wgt>
<wgt id='1178'> -2.8046819e+02 </wgt>
<wgt id='1179'> -3.1467869e+02 </wgt>
<wgt id='1180'> -2.8478994e+02 </wgt>
<wgt id='1181'> -3.0000668e+02 </wgt>
<wgt id='1182'> -2.8427046e+02 </wgt>
<wgt id='1183'> -2.9371994e+02 </wgt>
<wgt id='1184'> -2.7817087e+02 </wgt>
<wgt id='1185'> -2.6956795e+02 </wgt>
<wgt id='1186'> -2.8267456e+02 </wgt>
<wgt id='1187'> -2.7182207e+02 </wgt>
<wgt id='1188'> -2.8044709e+02 </wgt>
<wgt id='1189'> -2.8666378e+02 </wgt>
<wgt id='1190'> -3.0079024e+02 </wgt>
<wgt id='1191'> -2.4944982e+02 </wgt>
<wgt id='1192'> -2.7273018e+02 </wgt>
<wgt id='1193'> -3.0009749e+02 </wgt>
<wgt id='1194'> -2.9824436e+02 </wgt>
<wgt id='1195'> -2.7593779e+02 </wgt>
<wgt id='1196'> -3.0365917e+02 </wgt>
<wgt id='1197'> -2.8483901e+02 </wgt>
<wgt id='1198'> -2.8968627e+02 </wgt>
<wgt id='1199'> -3.2506334e+02 </wgt>
<wgt id='1200'> -2.8884770e+02 </wgt>
<wgt id='1201'> -3.0152159e+02 </wgt>
<wgt id='1202'> -3.3574946e+02 </wgt>
<wgt id='1203'> -2.9535922e+02 </wgt>
<wgt id='1204'> -2.7303294e+02 </wgt>
<wgt id='1205'> -2.9731470e+02 </wgt>
<wgt id='1206'> -2.8753969e+02 </wgt>
<wgt id='1207'> -2.8244349e+02 </wgt>
<wgt id='1208'> -2.9523052e+02 </wgt>
<wgt id='1209'> -2.6464334e+02 </wgt>
<wgt id='1210'> -3.1123597e+02 </wgt>
<wgt id='1211'> -2.8318104e+02 </wgt>
<wgt id='1212'> -2.8490344e+02 </wgt>
<wgt id='1213'> -2.7866740e+02 </wgt>
<wgt id='1214'> -2.8794794e+02 </wgt>
<wgt id='1215'> -2.8778889e+02 </wgt>
<wgt id='1216'> -2.8637410e+02 </wgt>
<wgt id='1217'> -2.8616756e+02 </wgt>
<wgt id='1218'> -2.8937491e+02 </wgt>
<wgt id='1219'> -2.8923503e+02 </wgt>
<wgt id='1220'> -2.8802998e+02 </wgt>
<wgt id='1221'> -2.9022521e+02 </wgt>
<wgt id='1222'> -2.8822673e+02 </wgt>
<wgt id='1223'> -2.8860515e+02 </wgt>
<wgt id='1224'> -2.8721829e+02 </wgt>
<wgt id='1225'> -2.8632927e+02 </wgt>
<wgt id='1226'> -2.8648586e+02 </wgt>
<wgt id='1227'> -2.8381795e+02 </wgt>
<wgt id='1228'> -2.8589743e+02 </wgt>
<wgt id='1229'> -2.8680381e+02 </wgt>
<wgt id='1230'> -2.8871662e+02 </wgt>
<wgt id='1231'> -2.8719990e+02 </wgt>
<wgt id='1232'> -2.8663666e+02 </wgt>
<wgt id='1233'> -2.8802533e+02 </wgt>
<wgt id='1234'> -2.8633311e+02 </wgt>
<wgt id='1235'> -2.8920135e+02 </wgt>
<wgt id='1236'> -2.8670726e+02 </wgt>
<wgt id='1237'> -2.8905212e+02 </wgt>
<wgt id='1238'> -2.8616497e+02 </wgt>
<wgt id='1239'> -2.8729714e+02 </wgt>
<wgt id='1240'> -2.9031640e+02 </wgt>
<wgt id='1241'> -2.8662252e+02 </wgt>
<wgt id='1242'> -2.8617469e+02 </wgt>
<wgt id='1243'> -2.9299063e+02 </wgt>
<wgt id='1244'> -2.8777815e+02 </wgt>
<wgt id='1245'> -2.8794786e+02 </wgt>
<wgt id='1246'> -2.8801228e+02 </wgt>
<wgt id='1247'> -2.8757149e+02 </wgt>
<wgt id='1248'> -2.9015168e+02 </wgt>
<wgt id='1249'> -2.8861752e+02 </wgt>
<wgt id='1250'> -2.8749764e+02 </wgt>
<wgt id='1251'> -2.9036420e+02 </wgt>
<wgt id='1252'> -2.8896520e+02 </wgt>
<wgt id='1253'> -2.8458106e+02 </wgt>
<wgt id='1254'> -2.8513939e+02 </wgt>
<wgt id='1255'> -2.8628104e+02 </wgt>
<wgt id='1256'> -2.9057634e+02 </wgt>
<wgt id='1257'> -2.8820203e+02 </wgt>
<wgt id='1258'> -2.8914973e+02 </wgt>
<wgt id='1259'> -2.8847787e+02 </wgt>
<wgt id='1260'> -2.8844579e+02 </wgt>
<wgt id='1261'> -2.8693551e+02 </wgt>
<wgt id='1262'> -2.8798604e+02 </wgt>
<wgt id='1263'> -2.8794035e+02 </wgt>
<wgt id='1264'> -2.8633813e+02 </wgt>
<wgt id='1265'> -2.8404102e+02 </wgt>
<wgt id='1266'> -2.8558806e+02 </wgt>
<wgt id='1267'> -2.8776338e+02 </wgt>
<wgt id='1268'> -2.8764991e+02 </wgt>
<wgt id='1269'> -2.8715159e+02 </wgt>
<wgt id='1270'> -2.8692844e+02 </wgt>
<wgt id='1271'> -2.8520532e+02 </wgt>
<wgt id='1272'> -2.8785015e+02 </wgt>
<wgt id='1273'> -2.8716315e+02 </wgt>
<wgt id='1274'> -2.8802379e+02 </wgt>
<wgt id='1275'> -2.8633510e+02 </wgt>
<wgt id='1276'> -2.8387509e+02 </wgt>
<wgt id='1277'> -2.9109851e+02 </wgt>
<wgt id='1278'> -2.8867953e+02 </wgt>
<wgt id='1279'> -2.9014981e+02 </wgt>
<wgt id='1280'> -2.9054621e+02 </wgt>
<wgt id='1281'> -2.8736728e+02 </wgt>
<wgt id='1282'> -2.8751265e+02 </wgt>
<wgt id='1283'> -2.8907236e+02 </wgt>
<wgt id='1284'> -2.8438887e+02 </wgt>
<wgt id='1285'> -2.8817105e+02 </wgt>
<wgt id='1286'> -2.8843020e+02 </wgt>
<wgt id='1287'> -2.8595352e+02 </wgt>
<wgt id='1288'> -2.8743293e+02 </wgt>
<wgt id='1289'> -2.8715170e+02 </wgt>
<wgt id='1290'> -2.8822118e+02 </wgt>
<wgt id='1291'> -2.8541592e+02 </wgt>
<wgt id='1292'> -2.8869818e+02 </wgt>
<wgt id='1293'> -2.8820181e+02 </wgt>
<wgt id='1294'> -2.8886898e+02 </wgt>
<wgt id='1295'> -2.8847332e+02 </wgt>
<wgt id='1296'> -2.8858936e+02 </wgt>
<wgt id='1297'> -2.8839546e+02 </wgt>
<wgt id='1298'> -2.8751780e+02 </wgt>
<wgt id='1299'> -2.8889171e+02 </wgt>
<wgt id='1300'> -2.8822179e+02 </wgt>
<wgt id='1301'> -2.8709005e+02 </wgt>
<wgt id='1302'> -2.8788305e+02 </wgt>
<wgt id='1303'> -2.8706128e+02 </wgt>
<wgt id='1304'> -2.8905542e+02 </wgt>
<wgt id='1305'> -2.8808428e+02 </wgt>
<wgt id='1306'> -2.8760261e+02 </wgt>
<wgt id='1307'> -2.8900652e+02 </wgt>
<wgt id='1308'> -2.8705116e+02 </wgt>
<wgt id='1309'> -2.8791195e+02 </wgt>
<wgt id='1310'> -2.8755975e+02 </wgt>
<wgt id='1311'> -2.8929382e+02 </wgt>
<wgt id='1312'> -2.8743993e+02 </wgt>
<wgt id='1313'> -2.8890199e+02 </wgt>
<wgt id='1314'> -2.8748704e+02 </wgt>
<wgt id='1315'> -2.6020146e+02 </wgt>
<wgt id='1316'> -3.2437828e+02 </wgt>
<wgt id='1317'> -1.6899420e+02 </wgt>
<wgt id='1318'> -1.8949168e+02 </wgt>
<wgt id='1319'> -2.0727915e+02 </wgt>
<wgt id='1320'> -2.3004383e+02 </wgt>
<wgt id='1321'> -2.7208830e+02 </wgt>
<wgt id='1322'> -3.0390302e+02 </wgt>
<wgt id='1323'> -3.5848896e+02 </wgt>
<wgt id='1324'> -3.9930827e+02 </wgt>
<wgt id='1325'> -3.1823105e+02 </wgt>
<wgt id='1326'> -3.1734229e+02 </wgt>
<wgt id='1327'> -3.1805055e+02 </wgt>
<wgt id='1328'> -3.1637706e+02 </wgt>
<wgt id='1329'> -3.1932680e+02 </wgt>
<wgt id='1330'> -3.1633308e+02 </wgt>
<wgt id='1331'> -3.1712553e+02 </wgt>
<wgt id='1332'> -3.1741860e+02 </wgt>
<wgt id='1333'> -3.1921181e+02 </wgt>
<wgt id='1334'> -3.1863114e+02 </wgt>
<wgt id='1335'> -3.1852722e+02 </wgt>
<wgt id='1336'> -3.1668577e+02 </wgt>
<wgt id='1337'> -3.1690875e+02 </wgt>
<wgt id='1338'> -3.2085703e+02 </wgt>
<wgt id='1339'> -3.1728657e+02 </wgt>
<wgt id='1340'> -3.1670589e+02 </wgt>
<wgt id='1341'> -3.1721502e+02 </wgt>
<wgt id='1342'> -3.1689010e+02 </wgt>
<wgt id='1343'> -3.1924538e+02 </wgt>
<wgt id='1344'> -3.2075654e+02 </wgt>
<wgt id='1345'> -3.2034803e+02 </wgt>
<wgt id='1346'> -3.1926261e+02 </wgt>
<wgt id='1347'> -3.1866006e+02 </wgt>
<wgt id='1348'> -3.1898935e+02 </wgt>
<wgt id='1349'> -3.1796961e+02 </wgt>
<wgt id='1350'> -3.1959972e+02 </wgt>
<wgt id='1351'> -3.1832135e+02 </wgt>
<wgt id='1352'> -3.1845139e+02 </wgt>
<wgt id='1353'> -3.1740205e+02 </wgt>
<wgt id='1354'> -3.1403565e+02 </wgt>
<wgt id='1355'> -3.2296659e+02 </wgt>
<wgt id='1356'> -3.2063651e+02 </wgt>
<wgt id='1357'> -3.1892851e+02 </wgt>
<wgt id='1358'> -3.1983896e+02 </wgt>
<wgt id='1359'> -3.1776622e+02 </wgt>
<wgt id='1360'> -3.2319525e+02 </wgt>
<wgt id='1361'> -3.1909692e+02 </wgt>
<wgt id='1362'> -3.1751536e+02 </wgt>
<wgt id='1363'> -3.1898683e+02 </wgt>
<wgt id='1364'> -3.1993131e+02 </wgt>
<wgt id='1365'> -3.1642950e+02 </wgt>
<wgt id='1366'> -3.1750115e+02 </wgt>
<wgt id='1367'> -3.1759897e+02 </wgt>
<wgt id='1368'> -3.1916087e+02 </wgt>
<wgt id='1369'> -3.1750379e+02 </wgt>
<wgt id='1370'> -3.1881154e+02 </wgt>
<wgt id='1371'> -3.1547553e+02 </wgt>
<wgt id='1372'> -3.1823612e+02 </wgt>
<wgt id='1373'> -3.1697833e+02 </wgt>
<wgt id='1374'> -3.1815237e+02 </wgt>
<wgt id='1375'> -3.2158064e+02 </wgt>
<wgt id='1376'> -3.1642900e+02 </wgt>
<wgt id='1377'> -3.1871875e+02 </wgt>
<wgt id='1378'> -3.1737024e+02 </wgt>
<wgt id='1379'> -3.1692191e+02 </wgt>
<wgt id='1380'> -3.2063339e+02 </wgt>
<wgt id='1381'> -3.1579411e+02 </wgt>
<wgt id='1382'> -3.1517622e+02 </wgt>
<wgt id='1383'> -3.1987846e+02 </wgt>
<wgt id='1384'> -3.1602125e+02 </wgt>
<wgt id='1385'> -3.2152554e+02 </wgt>
<wgt id='1386'> -3.1501692e+02 </wgt>
<wgt id='1387'> -3.1984938e+02 </wgt>
<wgt id='1388'> -3.1403283e+02 </wgt>
<wgt id='1389'> -3.1938720e+02 </wgt>
<wgt id='1390'> -3.1504188e+02 </wgt>
<wgt id='1391'> -3.1935709e+02 </wgt>
<wgt id='1392'> -3.1533000e+02 </wgt>
<wgt id='1393'> -3.1924273e+02 </wgt>
<wgt id='1394'> -3.1729753e+02 </wgt>
<wgt id='1395'> -3.1827049e+02 </wgt>
<wgt id='1396'> -3.1752458e+02 </wgt>
<wgt id='1397'> -3.1825795e+02 </wgt>
<wgt id='1398'> -3.1846024e+02 </wgt>
<wgt id='1399'> -3.1989469e+02 </wgt>
<wgt id='1400'> -3.1888741e+02 </wgt>
<wgt id='1401'> -3.1963267e+02 </wgt>
<wgt id='1402'> -3.1899770e+02 </wgt>
<wgt id='1403'> -3.1831851e+02 </wgt>
<wgt id='1404'> -3.1585798e+02 </wgt>
<wgt id='1405'> -3.1725613e+02 </wgt>
<wgt id='1406'> -3.1751797e+02 </wgt>
<wgt id='1407'> -3.1684140e+02 </wgt>
<wgt id='1408'> -3.1701984e+02 </wgt>
<wgt id='1409'> -3.1682984e+02 </wgt>
<wgt id='1410'> -3.1912537e+02 </wgt>
<wgt id='1411'> -3.1767401e+02 </wgt>
<wgt id='1412'> -3.1609411e+02 </wgt>
<wgt id='1413'> -3.1665327e+02 </wgt>
<wgt id='1414'> -3.1767747e+02 </wgt>
<wgt id='1415'> -3.1775536e+02 </wgt>
<wgt id='1416'> -3.1667155e+02 </wgt>
<wgt id='1417'> -3.1888380e+02 </wgt>
<wgt id='1418'> -3.1900549e+02 </wgt>
<wgt id='1419'> -3.1855482e+02 </wgt>
<wgt id='1420'> -3.1919521e+02 </wgt>
<wgt id='1421'> -3.1765101e+02 </wgt>
<wgt id='1422'> -3.1831694e+02 </wgt>
<wgt id='1423'> -3.1876378e+02 </wgt>
<wgt id='1424'> -3.1889877e+02 </wgt>
<wgt id='1425'> -3.1890868e+02 </wgt>
<wgt id='1426'> -2.8621454e+02 </wgt>
<wgt id='1427'> -3.5119232e+02 </wgt>
<wgt id='1428'> -3.3857827e+02 </wgt>
<wgt id='1429'> -3.4298611e+02 </wgt>
<wgt id='1430'> -3.3665831e+02 </wgt>
<wgt id='1431'> -3.4345832e+02 </wgt>
<wgt id='1432'> -3.3822245e+02 </wgt>
<wgt id='1433'> -3.7063778e+02 </wgt>
<wgt id='1434'> -3.5030200e+02 </wgt>
<wgt id='1435'> -3.4399953e+02 </wgt>
<wgt id='1436'> -3.4949062e+02 </wgt>
<wgt id='1437'> -3.4474459e+02 </wgt>
<wgt id='1438'> -3.3736602e+02 </wgt>
<wgt id='1439'> -3.5007081e+02 </wgt>
<wgt id='1440'> -3.2647480e+02 </wgt>
<wgt id='1441'> -3.2343899e+02 </wgt>
<wgt id='1442'> -3.4762308e+02 </wgt>
<wgt id='1443'> -3.2418557e+02 </wgt>
<wgt id='1444'> -3.8060970e+02 </wgt>
<wgt id='1445'> -3.3948128e+02 </wgt>
<wgt id='1446'> -3.3748119e+02 </wgt>
<wgt id='1447'> -3.2525432e+02 </wgt>
<wgt id='1448'> -3.5081283e+02 </wgt>
<wgt id='1449'> -3.3111259e+02 </wgt>
<wgt id='1450'> -3.4339207e+02 </wgt>
<wgt id='1451'> -3.3194114e+02 </wgt>
<wgt id='1452'> -3.4654545e+02 </wgt>
<wgt id='1453'> -3.3821079e+02 </wgt>
<wgt id='1454'> -3.3889788e+02 </wgt>
<wgt id='1455'> -3.2931289e+02 </wgt>
<wgt id='1456'> -3.5480018e+02 </wgt>
<wgt id='1457'> -3.6171969e+02 </wgt>
<wgt id='1458'> -3.2490215e+02 </wgt>
<wgt id='1459'> -3.5121908e+02 </wgt>
<wgt id='1460'> -3.2100880e+02 </wgt>
<wgt id='1461'> -3.3427637e+02 </wgt>
<wgt id='1462'> -3.4281897e+02 </wgt>
<wgt id='1463'> -3.2841517e+02 </wgt>
<wgt id='1464'> -3.4752755e+02 </wgt>
<wgt id='1465'> -3.3126702e+02 </wgt>
<wgt id='1466'> -3.4741717e+02 </wgt>
<wgt id='1467'> -3.3742178e+02 </wgt>
<wgt id='1468'> -3.3956458e+02 </wgt>
<wgt id='1469'> -3.6624706e+02 </wgt>
<wgt id='1470'> -3.2858592e+02 </wgt>
<wgt id='1471'> -3.0019606e+02 </wgt>
<wgt id='1472'> -3.8027738e+02 </wgt>
<wgt id='1473'> -3.3252067e+02 </wgt>
<wgt id='1474'> -3.5493855e+02 </wgt>
<wgt id='1475'> -3.4661970e+02 </wgt>
<wgt id='1476'> -3.3189126e+02 </wgt>
<wgt id='1477'> -3.4209253e+02 </wgt>
<wgt id='1478'> -3.3020718e+02 </wgt>
<wgt id='1479'> -3.3379841e+02 </wgt>
<wgt id='1480'> -3.4285098e+02 </wgt>
<wgt id='1481'> -3.0020194e+02 </wgt>
<wgt id='1482'> -3.0088900e+02 </wgt>
<wgt id='1483'> -3.3717855e+02 </wgt>
<wgt id='1484'> -3.4616458e+02 </wgt>
<wgt id='1485'> -2.9623659e+02 </wgt>
<wgt id='1486'> -3.9115214e+02 </wgt>
<wgt id='1487'> -3.3951753e+02 </wgt>
<wgt id='1488'> -3.4051374e+02 </wgt>
<wgt id='1489'> -3.3440834e+02 </wgt>
<wgt id='1490'> -3.3975789e+02 </wgt>
<wgt id='1491'> -3.5379558e+02 </wgt>
<wgt id='1492'> -3.2314864e+02 </wgt>
<wgt id='1493'> -3.5015504e+02 </wgt>
<wgt id='1494'> -3.3841121e+02 </wgt>
<wgt id='1495'> -3.4325503e+02 </wgt>
<wgt id='1496'> -3.6986538e+02 </wgt>
<wgt id='1497'> -3.0546802e+02 </wgt>
<wgt id='1498'> -3.3485350e+02 </wgt>
<wgt id='1499'> -3.4299561e+02 </wgt>
<wgt id='1500'> -3.8578654e+02 </wgt>
<wgt id='1501'> -3.1102583e+02 </wgt>
<wgt id='1502'> -3.5168236e+02 </wgt>
<wgt id='1503'> -3.3226885e+02 </wgt>
<wgt id='1504'> -3.3385484e+02 </wgt>
<wgt id='1505'> -3.4642962e+02 </wgt>
<wgt id='1506'> -3.1612089e+02 </wgt>
<wgt id='1507'> -3.6598002e+02 </wgt>
<wgt id='1508'> -3.3223020e+02 </wgt>
<wgt id='1509'> -3.5431233e+02 </wgt>
<wgt id='1510'> -3.5665227e+02 </wgt>
<wgt id='1511'> -3.2338929e+02 </wgt>
<wgt id='1512'> -3.3331779e+02 </wgt>
<wgt id='1513'> -3.4557514e+02 </wgt>
<wgt id='1514'> -3.4554308e+02 </wgt>
<wgt id='1515'> -3.3107012e+02 </wgt>
<wgt id='1516'> -3.4596082e+02 </wgt>
<wgt id='1517'> -3.3723962e+02 </wgt>
<wgt id='1518'> -3.3681026e+02 </wgt>
<wgt id='1519'> -3.4309326e+02 </wgt>
<wgt id='1520'> -3.4442460e+02 </wgt>
<wgt id='1521'> -3.2904365e+02 </wgt>
<wgt id='1522'> -3.3368328e+02 </wgt>
<wgt id='1523'> -3.4378670e+02 </wgt>
<wgt id='1524'> -3.2105241e+02 </wgt>
<wgt id='1525'> -3.6805636e+02 </wgt>
<wgt id='1526'> -3.2948843e+02 </wgt>
<wgt id='1527'> -3.4812642e+02 </wgt>
<wgt id='1528'> -3.5122786e+02 </wgt>
<wgt id='1529'> -3.2581372e+02 </wgt>
<wgt id='1530'> -3.5434160e+02 </wgt>
<wgt id='1531'> -3.2148987e+02 </wgt>
<wgt id='1532'> -3.3982566e+02 </wgt>
<wgt id='1533'> -3.4488305e+02 </wgt>
<wgt id='1534'> -3.4945499e+02 </wgt>
<wgt id='1535'> -3.5188582e+02 </wgt>
<wgt id='1536'> -3.4878496e+02 </wgt>
<wgt id='1537'> -3.6714153e+02 </wgt>
<wgt id='1538'> -3.3903777e+02 </wgt>
<wgt id='1539'> -3.4221624e+02 </wgt>
<wgt id='1540'> -3.1782797e+02 </wgt>
<wgt id='1541'> -3.3767138e+02 </wgt>
<wgt id='1542'> -3.3839181e+02 </wgt>
<wgt id='1543'> -3.4404538e+02 </wgt>
<wgt id='1544'> -3.0040428e+02 </wgt>
<wgt id='1545'> -3.8841822e+02 </wgt>
<wgt id='1546'> -5.3258871e+02 </wgt>
<wgt id='1547'> -3.1130230e+02 </wgt>
<wgt id='1548'> -3.1198671e+02 </wgt>
<wgt id='1549'> -3.1056470e+02 </wgt>
<wgt id='1550'> -3.1143245e+02 </wgt>
<wgt id='1551'> -3.1121780e+02 </wgt>
<wgt id='1552'> -3.1147136e+02 </wgt>
<wgt id='1553'> -3.1113751e+02 </wgt>
<wgt id='1554'> -3.1114937e+02 </wgt>
<wgt id='1555'> -3.1148370e+02 </wgt>
<wgt id='1556'> -3.1294792e+02 </wgt>
<wgt id='1557'> -3.0969341e+02 </wgt>
<wgt id='1558'> -3.1190999e+02 </wgt>
<wgt id='1559'> -3.0999188e+02 </wgt>
<wgt id='1560'> -3.1095627e+02 </wgt>
<wgt id='1561'> -3.1193043e+02 </wgt>
<wgt id='1562'> -3.1109118e+02 </wgt>
<wgt id='1563'> -3.1142345e+02 </wgt>
<wgt id='1564'> -3.0877392e+02 </wgt>
<wgt id='1565'> -3.1428928e+02 </wgt>
<wgt id='1566'> -3.1089536e+02 </wgt>
<wgt id='1567'> -3.1166700e+02 </wgt>
<wgt id='1568'> -3.0979306e+02 </wgt>
<wgt id='1569'> -3.1330065e+02 </wgt>
<wgt id='1570'> -3.0822331e+02 </wgt>
<wgt id='1571'> -3.1338371e+02 </wgt>
<wgt id='1572'> -3.1975003e+02 </wgt>
<wgt id='1573'> -3.0175221e+02 </wgt>
<wgt id='1574'> -3.1164889e+02 </wgt>
<wgt id='1575'> -3.1168228e+02 </wgt>
<wgt id='1576'> -3.0478741e+02 </wgt>
<wgt id='1577'> -3.1935889e+02 </wgt>
<wgt id='1578'> -3.0065377e+02 </wgt>
<wgt id='1579'> -3.2407412e+02 </wgt>
<wgt id='1580'> -3.1547298e+02 </wgt>
<wgt id='1581'> -3.0732104e+02 </wgt>
<wgt id='1582'> -3.1360995e+02 </wgt>
<wgt id='1583'> -3.0669911e+02 </wgt>
<wgt id='1584'> -3.1130016e+02 </wgt>
<wgt id='1585'> -3.1103776e+02 </wgt>
<wgt id='1586'> -3.0872065e+02 </wgt>
<wgt id='1587'> -3.1426975e+02 </wgt>
<wgt id='1588'> -3.0578870e+02 </wgt>
<wgt id='1589'> -3.1777711e+02 </wgt>
<wgt id='1590'> -3.1382285e+02 </wgt>
<wgt id='1591'> -3.1221502e+02 </wgt>
<wgt id='1592'> -3.1012420e+02 </wgt>
<wgt id='1593'> -3.1437551e+02 </wgt>
<wgt id='1594'> -3.0196832e+02 </wgt>
<wgt id='1595'> -3.2922639e+02 </wgt>
<wgt id='1596'> -3.0482606e+02 </wgt>
<wgt id='1597'> -3.1500515e+02 </wgt>
<wgt id='1598'> -3.4310703e+02 </wgt>
<wgt id='1599'> -3.4384117e+02 </wgt>
<wgt id='1600'> -3.4217820e+02 </wgt>
<wgt id='1601'> -3.4399054e+02 </wgt>
<wgt id='1602'> -3.4223849e+02 </wgt>
<wgt id='1603'> -3.4350327e+02 </wgt>
<wgt id='1604'> -3.4295933e+02 </wgt>
<wgt id='1605'> -3.4243906e+02 </wgt>
<wgt id='1606'> -3.4377804e+02 </wgt>
<wgt id='1607'> -3.4413028e+02 </wgt>
<wgt id='1608'> -3.4213082e+02 </wgt>
<wgt id='1609'> -3.3926249e+02 </wgt>
<wgt id='1610'> -3.4477558e+02 </wgt>
<wgt id='1611'> -3.4292237e+02 </wgt>
<wgt id='1612'> -3.4333844e+02 </wgt>
<wgt id='1613'> -3.4205241e+02 </wgt>
<wgt id='1614'> -3.4425956e+02 </wgt>
<wgt id='1615'> -3.3677226e+02 </wgt>
<wgt id='1616'> -3.4663919e+02 </wgt>
<wgt id='1617'> -3.4258362e+02 </wgt>
<wgt id='1618'> -3.4384751e+02 </wgt>
<wgt id='1619'> -3.4440149e+02 </wgt>
<wgt id='1620'> -3.4219615e+02 </wgt>
<wgt id='1621'> -3.4173676e+02 </wgt>
<wgt id='1622'> -3.4396674e+02 </wgt>
<wgt id='1623'> -3.4304759e+02 </wgt>
<wgt id='1624'> -3.4330528e+02 </wgt>
<wgt id='1625'> -3.4214589e+02 </wgt>
<wgt id='1626'> -3.4509130e+02 </wgt>
<wgt id='1627'> -3.5117631e+02 </wgt>
<wgt id='1628'> -3.2261770e+02 </wgt>
<wgt id='1629'> -3.3703658e+02 </wgt>
<wgt id='1630'> -3.5665656e+02 </wgt>
<wgt id='1631'> -3.4611532e+02 </wgt>
<wgt id='1632'> -3.3811863e+02 </wgt>
<wgt id='1633'> -3.3348915e+02 </wgt>
<wgt id='1634'> -3.4820552e+02 </wgt>
<wgt id='1635'> -3.4271602e+02 </wgt>
<wgt id='1636'> -3.4456929e+02 </wgt>
<wgt id='1637'> -3.3879359e+02 </wgt>
<wgt id='1638'> -3.4637646e+02 </wgt>
<wgt id='1639'> -3.5342140e+02 </wgt>
<wgt id='1640'> -3.2898639e+02 </wgt>
<wgt id='1641'> -3.4385894e+02 </wgt>
<wgt id='1642'> -3.3900036e+02 </wgt>
<wgt id='1643'> -3.5324097e+02 </wgt>
<wgt id='1644'> -3.3689788e+02 </wgt>
<wgt id='1645'> -3.3988482e+02 </wgt>
<wgt id='1646'> -3.4469254e+02 </wgt>
<wgt id='1647'> -3.5494693e+02 </wgt>
<wgt id='1648'> -3.3593028e+02 </wgt>
<wgt id='1649'> -9.5025795e+02 </wgt>
<wgt id='1650'> -2.7089693e+02 </wgt>
<wgt id='1651'> -2.7076688e+02 </wgt>
<wgt id='1652'> -2.7097157e+02 </wgt>
<wgt id='1653'> -2.7088547e+02 </wgt>
<wgt id='1654'> -2.7088725e+02 </wgt>
<wgt id='1655'> -2.7026129e+02 </wgt>
<wgt id='1656'> -2.7110684e+02 </wgt>
<wgt id='1657'> -2.7107126e+02 </wgt>
<wgt id='1658'> -2.7131770e+02 </wgt>
<wgt id='1659'> -2.7193242e+02 </wgt>
<wgt id='1660'> -2.7072144e+02 </wgt>
<wgt id='1661'> -2.7115148e+02 </wgt>
<wgt id='1662'> -2.7038338e+02 </wgt>
<wgt id='1663'> -2.7031601e+02 </wgt>
<wgt id='1664'> -2.7129387e+02 </wgt>
<wgt id='1665'> -2.7046159e+02 </wgt>
<wgt id='1666'> -2.7188282e+02 </wgt>
<wgt id='1667'> -2.7160318e+02 </wgt>
<wgt id='1668'> -2.7288588e+02 </wgt>
<wgt id='1669'> -2.6780081e+02 </wgt>
<wgt id='1670'> -2.7567368e+02 </wgt>
<wgt id='1671'> -2.6941992e+02 </wgt>
<wgt id='1672'> -2.7945877e+02 </wgt>
<wgt id='1673'> -2.6775334e+02 </wgt>
<wgt id='1674'> -2.6555741e+02 </wgt>
<wgt id='1675'> -2.6514605e+02 </wgt>
<wgt id='1676'> -2.6970573e+02 </wgt>
<wgt id='1677'> -2.7242180e+02 </wgt>
<wgt id='1678'> -2.7083031e+02 </wgt>
<wgt id='1679'> -2.9638203e+02 </wgt>
<wgt id='1680'> -3.2873354e+02 </wgt>
<wgt id='1681'> -3.2123906e+02 </wgt>
<wgt id='1682'> -3.2404884e+02 </wgt>
<wgt id='1683'> -3.2938945e+02 </wgt>
<wgt id='1684'> -3.2691537e+02 </wgt>
<wgt id='1685'> -3.3300542e+02 </wgt>
<wgt id='1686'> -3.2827295e+02 </wgt>
<wgt id='1687'> -3.2828792e+02 </wgt>
<wgt id='1688'> -3.1847053e+02 </wgt>
<wgt id='1689'> -3.3224911e+02 </wgt>
<wgt id='1690'> -3.2253928e+02 </wgt>
<wgt id='1691'> -3.2542534e+02 </wgt>
<wgt id='1692'> -3.3854411e+02 </wgt>
<wgt id='1693'> -3.3532938e+02 </wgt>
<wgt id='1694'> -3.3127917e+02 </wgt>
<wgt id='1695'> -3.3064101e+02 </wgt>
<wgt id='1696'> -3.2612508e+02 </wgt>
<wgt id='1697'> -3.3740533e+02 </wgt>
<wgt id='1698'> -3.3487919e+02 </wgt>
<wgt id='1699'> -3.3915736e+02 </wgt>
<wgt id='1700'> -3.1034739e+02 </wgt>
<wgt id='1701'> -3.3116573e+02 </wgt>
<wgt id='1702'> -3.3927195e+02 </wgt>
<wgt id='1703'> -3.1778055e+02 </wgt>
<wgt id='1704'> -3.3925924e+02 </wgt>
<wgt id='1705'> -3.2749050e+02 </wgt>
<wgt id='1706'> -3.2777899e+02 </wgt>
<wgt id='1707'> -3.3074627e+02 </wgt>
<wgt id='1708'> -3.2625015e+02 </wgt>
<wgt id='1709'> -3.2731331e+02 </wgt>
<wgt id='1710'> -3.2704896e+02 </wgt>
<wgt id='1711'> -3.2773003e+02 </wgt>
<wgt id='1712'> -3.2768966e+02 </wgt>
<wgt id='1713'> -3.2657436e+02 </wgt>
<wgt id='1714'> -3.2838239e+02 </wgt>
<wgt id='1715'> -3.3165006e+02 </wgt>
<wgt id='1716'> -3.2781087e+02 </wgt>
<wgt id='1717'> -3.2860511e+02 </wgt>
<wgt id='1718'> -3.2917946e+02 </wgt>
<wgt id='1719'> -3.2801343e+02 </wgt>
<wgt id='1720'> -3.2987440e+02 </wgt>
<wgt id='1721'> -3.2842754e+02 </wgt>
<wgt id='1722'> -3.2703924e+02 </wgt>
<wgt id='1723'> -3.2706382e+02 </wgt>
<wgt id='1724'> -3.2928922e+02 </wgt>
<wgt id='1725'> -3.2946951e+02 </wgt>
<wgt id='1726'> -3.3010670e+02 </wgt>
<wgt id='1727'> -3.2800663e+02 </wgt>
<wgt id='1728'> -3.2727280e+02 </wgt>
<wgt id='1729'> -3.2956619e+02 </wgt>
<wgt id='1730'> -3.2840829e+02 </wgt>
<wgt id='1731'> -3.2904430e+02 </wgt>
<wgt id='1732'> -3.2835423e+02 </wgt>
<wgt id='1733'> -3.2803037e+02 </wgt>
<wgt id='1734'> -3.2848334e+02 </wgt>
<wgt id='1735'> -3.2839729e+02 </wgt>
<wgt id='1736'> -3.2839688e+02 </wgt>
<wgt id='1737'> -3.2919650e+02 </wgt>
<wgt id='1738'> -3.2897679e+02 </wgt>
<wgt id='1739'> -3.2877506e+02 </wgt>
<wgt id='1740'> -3.2815022e+02 </wgt>
<wgt id='1741'> -3.2927293e+02 </wgt>
<wgt id='1742'> -3.2879683e+02 </wgt>
<wgt id='1743'> -3.2868886e+02 </wgt>
<wgt id='1744'> -3.2879857e+02 </wgt>
<wgt id='1745'> -3.2899110e+02 </wgt>
<wgt id='1746'> -3.2939517e+02 </wgt>
<wgt id='1747'> -3.2883426e+02 </wgt>
<wgt id='1748'> -3.2897260e+02 </wgt>
<wgt id='1749'> -3.2877343e+02 </wgt>
<wgt id='1750'> -3.2864765e+02 </wgt>
<wgt id='1751'> -3.2812298e+02 </wgt>
<wgt id='1752'> -3.2840953e+02 </wgt>
<wgt id='1753'> -3.2836415e+02 </wgt>
<wgt id='1754'> -3.2883603e+02 </wgt>
<wgt id='1755'> -3.2848776e+02 </wgt>
<wgt id='1756'> -3.2902197e+02 </wgt>
<wgt id='1757'> -3.2837331e+02 </wgt>
<wgt id='1758'> -3.2911310e+02 </wgt>
<wgt id='1759'> -3.2933926e+02 </wgt>
<wgt id='1760'> -3.2831090e+02 </wgt>
<wgt id='1761'> -3.2884778e+02 </wgt>
<wgt id='1762'> -3.2829646e+02 </wgt>
<wgt id='1763'> -3.2877528e+02 </wgt>
<wgt id='1764'> -3.2917037e+02 </wgt>
<wgt id='1765'> -3.2883236e+02 </wgt>
<wgt id='1766'> -3.2952218e+02 </wgt>
<wgt id='1767'> -3.2874078e+02 </wgt>
<wgt id='1768'> -3.2865221e+02 </wgt>
<wgt id='1769'> -3.2878039e+02 </wgt>
<wgt id='1770'> -3.2859422e+02 </wgt>
<wgt id='1771'> -3.2833111e+02 </wgt>
<wgt id='1772'> -3.2878761e+02 </wgt>
<wgt id='1773'> -3.2839480e+02 </wgt>
<wgt id='1774'> -3.2863663e+02 </wgt>
<wgt id='1775'> -3.2870006e+02 </wgt>
<wgt id='1776'> -3.2857273e+02 </wgt>
<wgt id='1777'> -3.2894110e+02 </wgt>
<wgt id='1778'> -3.2898228e+02 </wgt>
<wgt id='1779'> -3.2894873e+02 </wgt>
<wgt id='1780'> -3.2877815e+02 </wgt>
<wgt id='1781'> -3.0143447e+02 </wgt>
<wgt id='1782'> -3.6183802e+02 </wgt>
<wgt id='1783'> -3.3196806e+02 </wgt>
<wgt id='1784'> -3.3607591e+02 </wgt>
<wgt id='1785'> -3.2912905e+02 </wgt>
<wgt id='1786'> -3.3922933e+02 </wgt>
<wgt id='1787'> -3.3502461e+02 </wgt>
<wgt id='1788'> -3.3323944e+02 </wgt>
<wgt id='1789'> -3.3401341e+02 </wgt>
<wgt id='1790'> -3.3230724e+02 </wgt>
<wgt id='1791'> -3.2863775e+02 </wgt>
<wgt id='1792'> -3.3351462e+02 </wgt>
<wgt id='1793'> -3.3470305e+02 </wgt>
<wgt id='1794'> -3.2386134e+02 </wgt>
<wgt id='1795'> -3.3815887e+02 </wgt>
<wgt id='1796'> -3.4294675e+02 </wgt>
<wgt id='1797'> -3.3872828e+02 </wgt>
<wgt id='1798'> -3.3144339e+02 </wgt>
<wgt id='1799'> -3.2549803e+02 </wgt>
<wgt id='1800'> -3.3362301e+02 </wgt>
<wgt id='1801'> -3.3462573e+02 </wgt>
<wgt id='1802'> -3.3680435e+02 </wgt>
<wgt id='1803'> -3.1255848e+02 </wgt>
<wgt id='1804'> -3.2147496e+02 </wgt>
<wgt id='1805'> -3.3895845e+02 </wgt>
<wgt id='1806'> -3.1317056e+02 </wgt>
<wgt id='1807'> -3.2538299e+02 </wgt>
<wgt id='1808'> -3.3713477e+02 </wgt>
<wgt id='1809'> -3.2721561e+02 </wgt>
<wgt id='1810'> -3.3335901e+02 </wgt>
<wgt id='1811'> -3.3651761e+02 </wgt>
<wgt id='1812'> -3.3238875e+02 </wgt>
<wgt id='1813'> -3.3051292e+02 </wgt>
<wgt id='1814'> -3.3155850e+02 </wgt>
<wgt id='1815'> -3.3308443e+02 </wgt>
<wgt id='1816'> -3.3337703e+02 </wgt>
<wgt id='1817'> -3.3299053e+02 </wgt>
<wgt id='1818'> -3.3294373e+02 </wgt>
<wgt id='1819'> -3.3253011e+02 </wgt>
<wgt id='1820'> -3.3224437e+02 </wgt>
<wgt id='1821'> -3.3289605e+02 </wgt>
<wgt id='1822'> -3.3202265e+02 </wgt>
<wgt id='1823'> -3.3083477e+02 </wgt>
<wgt id='1824'> -3.3215933e+02 </wgt>
<wgt id='1825'> -3.3262239e+02 </wgt>
<wgt id='1826'> -3.2980154e+02 </wgt>
<wgt id='1827'> -3.3341453e+02 </wgt>
<wgt id='1828'> -3.3152792e+02 </wgt>
<wgt id='1829'> -3.3085228e+02 </wgt>
<wgt id='1830'> -3.3241407e+02 </wgt>
<wgt id='1831'> -3.3164367e+02 </wgt>
<wgt id='1832'> -3.3135814e+02 </wgt>
<wgt id='1833'> -3.3195664e+02 </wgt>
<wgt id='1834'> -3.3274590e+02 </wgt>
<wgt id='1835'> -3.3261162e+02 </wgt>
<wgt id='1836'> -3.3239798e+02 </wgt>
<wgt id='1837'> -3.3167234e+02 </wgt>
<wgt id='1838'> -3.3164903e+02 </wgt>
<wgt id='1839'> -3.3204650e+02 </wgt>
<wgt id='1840'> -3.3182349e+02 </wgt>
<wgt id='1841'> -3.3127972e+02 </wgt>
<wgt id='1842'> -3.3158940e+02 </wgt>
<wgt id='1843'> -3.3200675e+02 </wgt>
<wgt id='1844'> -3.3173310e+02 </wgt>
<wgt id='1845'> -3.3215099e+02 </wgt>
<wgt id='1846'> -3.3197268e+02 </wgt>
<wgt id='1847'> -3.3265232e+02 </wgt>
<wgt id='1848'> -3.3157100e+02 </wgt>
<wgt id='1849'> -3.3153140e+02 </wgt>
<wgt id='1850'> -3.3168343e+02 </wgt>
<wgt id='1851'> -3.3220420e+02 </wgt>
<wgt id='1852'> -3.3234668e+02 </wgt>
<wgt id='1853'> -3.3202206e+02 </wgt>
<wgt id='1854'> -3.3212806e+02 </wgt>
<wgt id='1855'> -3.3204645e+02 </wgt>
<wgt id='1856'> -3.3182436e+02 </wgt>
<wgt id='1857'> -3.3228484e+02 </wgt>
<wgt id='1858'> -3.3156123e+02 </wgt>
<wgt id='1859'> -3.3193133e+02 </wgt>
<wgt id='1860'> -3.3215426e+02 </wgt>
<wgt id='1861'> -3.3219388e+02 </wgt>
<wgt id='1862'> -3.3160064e+02 </wgt>
<wgt id='1863'> -3.3236488e+02 </wgt>
<wgt id='1864'> -3.3193169e+02 </wgt>
<wgt id='1865'> -3.3182669e+02 </wgt>
<wgt id='1866'> -3.3190043e+02 </wgt>
<wgt id='1867'> -3.3143654e+02 </wgt>
<wgt id='1868'> -3.3148535e+02 </wgt>
<wgt id='1869'> -3.3228109e+02 </wgt>
<wgt id='1870'> -3.3124950e+02 </wgt>
<wgt id='1871'> -3.3171342e+02 </wgt>
<wgt id='1872'> -3.3180276e+02 </wgt>
<wgt id='1873'> -3.3214057e+02 </wgt>
<wgt id='1874'> -3.3173692e+02 </wgt>
<wgt id='1875'> -3.3194507e+02 </wgt>
<wgt id='1876'> -3.3189448e+02 </wgt>
<wgt id='1877'> -3.3173920e+02 </wgt>
<wgt id='1878'> -3.3199246e+02 </wgt>
<wgt id='1879'> -3.3180755e+02 </wgt>
<wgt id='1880'> -3.3193516e+02 </wgt>
<wgt id='1881'> -3.3196521e+02 </wgt>
<wgt id='1882'> -3.3170847e+02 </wgt>
<wgt id='1883'> -3.3200545e+02 </wgt>
<wgt id='1884'> -3.0151328e+02 </wgt>
<wgt id='1885'> -3.6926583e+02 </wgt>
<wgt id='1886'> -3.2882240e+02 </wgt>
<wgt id='1887'> -3.2252453e+02 </wgt>
<wgt id='1888'> -3.1866383e+02 </wgt>
<wgt id='1889'> -3.2654174e+02 </wgt>
<wgt id='1890'> -3.2282770e+02 </wgt>
<wgt id='1891'> -3.1399563e+02 </wgt>
<wgt id='1892'> -3.1583260e+02 </wgt>
<wgt id='1893'> -3.2915928e+02 </wgt>
<wgt id='1894'> -3.2485639e+02 </wgt>
<wgt id='1895'> -3.2627852e+02 </wgt>
<wgt id='1896'> -3.2694562e+02 </wgt>
<wgt id='1897'> -3.2371481e+02 </wgt>
<wgt id='1898'> -3.2344819e+02 </wgt>
<wgt id='1899'> -3.3077883e+02 </wgt>
<wgt id='1900'> -3.2864398e+02 </wgt>
<wgt id='1901'> -3.3000910e+02 </wgt>
<wgt id='1902'> -3.2898739e+02 </wgt>
<wgt id='1903'> -3.2921629e+02 </wgt>
<wgt id='1904'> -3.3404661e+02 </wgt>
<wgt id='1905'> -3.2457595e+02 </wgt>
<wgt id='1906'> -3.2964125e+02 </wgt>
<wgt id='1907'> -3.2613553e+02 </wgt>
<wgt id='1908'> -3.5290561e+02 </wgt>
<wgt id='1909'> -3.2914071e+02 </wgt>
<wgt id='1910'> -3.2836613e+02 </wgt>
<wgt id='1911'> -3.2810174e+02 </wgt>
<wgt id='1912'> -3.2767991e+02 </wgt>
<wgt id='1913'> -3.2814323e+02 </wgt>
<wgt id='1914'> -3.2640437e+02 </wgt>
<wgt id='1915'> -3.2925190e+02 </wgt>
<wgt id='1916'> -3.2926926e+02 </wgt>
<wgt id='1917'> -3.0143447e+02 </wgt>
<wgt id='1918'> -3.6183802e+02 </wgt>
<wgt id='1919'> -3.3193153e+02 </wgt>
<wgt id='1920'> -3.3444770e+02 </wgt>
<wgt id='1921'> -3.2907064e+02 </wgt>
<wgt id='1922'> -3.3402593e+02 </wgt>
<wgt id='1923'> -3.2699857e+02 </wgt>
<wgt id='1924'> -3.6804501e+02 </wgt>
<wgt id='1925'> -3.3181319e+02 </wgt>
<wgt id='1926'> -3.3255026e+02 </wgt>
<wgt id='1927'> -3.3229165e+02 </wgt>
<wgt id='1928'> -3.3285165e+02 </wgt>
<wgt id='1929'> -3.3424497e+02 </wgt>
<wgt id='1930'> -3.3136820e+02 </wgt>
<wgt id='1931'> -3.3057430e+02 </wgt>
<wgt id='1932'> -3.3096000e+02 </wgt>
<wgt id='1933'> -3.3051377e+02 </wgt>
<wgt id='1934'> -3.2900418e+02 </wgt>
<wgt id='1935'> -3.3364180e+02 </wgt>
<wgt id='1936'> -3.3283381e+02 </wgt>
<wgt id='1937'> -3.3194864e+02 </wgt>
<wgt id='1938'> -3.3343283e+02 </wgt>
<wgt id='1939'> -3.3283835e+02 </wgt>
<wgt id='1940'> -3.3261557e+02 </wgt>
<wgt id='1941'> -3.3043587e+02 </wgt>
<wgt id='1942'> -3.3280582e+02 </wgt>
<wgt id='1943'> -3.3108301e+02 </wgt>
<wgt id='1944'> -3.3121725e+02 </wgt>
<wgt id='1945'> -3.3238226e+02 </wgt>
<wgt id='1946'> -3.3365207e+02 </wgt>
<wgt id='1947'> -3.3141996e+02 </wgt>
<wgt id='1948'> -3.2586253e+02 </wgt>
<wgt id='1949'> -3.3145172e+02 </wgt>
<wgt id='1950'> -3.0151328e+02 </wgt>
<wgt id='1951'> -3.6926583e+02 </wgt>
<wgt id='1952'> -1.9273265e+02 </wgt>
<wgt id='1953'> -1.9258418e+02 </wgt>
<wgt id='1954'> -1.9288062e+02 </wgt>
<wgt id='1955'> -1.9304681e+02 </wgt>
<wgt id='1956'> -1.9241813e+02 </wgt>
<wgt id='1957'> -1.9233746e+02 </wgt>
<wgt id='1958'> -1.9312822e+02 </wgt>
<wgt id='1959'> -1.9290313e+02 </wgt>
<wgt id='1960'> -1.9256423e+02 </wgt>
<wgt id='1961'> -1.9257807e+02 </wgt>
<wgt id='1962'> -1.9292081e+02 </wgt>
<wgt id='1963'> -1.9246867e+02 </wgt>
<wgt id='1964'> -1.9291575e+02 </wgt>
<wgt id='1965'> -1.9388739e+02 </wgt>
<wgt id='1966'> -1.9158254e+02 </wgt>
<wgt id='1967'> -1.9336568e+02 </wgt>
<wgt id='1968'> -1.9263041e+02 </wgt>
<wgt id='1969'> -1.9273306e+02 </wgt>
<wgt id='1970'> -1.9260045e+02 </wgt>
<wgt id='1971'> -1.9676211e+02 </wgt>
<wgt id='1972'> -1.8920060e+02 </wgt>
<wgt id='1973'> -1.9365811e+02 </wgt>
<wgt id='1974'> -1.9186019e+02 </wgt>
<wgt id='1975'> -1.9137814e+02 </wgt>
<wgt id='1976'> -1.9476586e+02 </wgt>
<wgt id='1977'> -1.9004519e+02 </wgt>
<wgt id='1978'> -1.9537873e+02 </wgt>
<wgt id='1979'> -1.9551603e+02 </wgt>
<wgt id='1980'> -1.9086972e+02 </wgt>
<wgt id='1981'> -1.9273265e+02 </wgt>
<wgt id='1982'> -1.9364321e+02 </wgt>
<wgt id='1983'> -1.9166292e+02 </wgt>
<wgt id='1984'> -1.9369940e+02 </wgt>
<wgt id='1985'> -1.9203020e+02 </wgt>
<wgt id='1986'> -1.8818816e+02 </wgt>
<wgt id='1987'> -2.0380684e+02 </wgt>
<wgt id='1988'> -1.9314938e+02 </wgt>
<wgt id='1989'> -1.9259238e+02 </wgt>
<wgt id='1990'> -1.9389220e+02 </wgt>
<wgt id='1991'> -1.9182741e+02 </wgt>
<wgt id='1992'> -1.9351336e+02 </wgt>
<wgt id='1993'> -1.9177615e+02 </wgt>
<wgt id='1994'> -1.9830026e+02 </wgt>
<wgt id='1995'> -2.5061710e+02 </wgt>
<wgt id='1996'> -2.5043580e+02 </wgt>
<wgt id='1997'> -2.5076264e+02 </wgt>
<wgt id='1998'> -2.5102629e+02 </wgt>
<wgt id='1999'> -2.5017145e+02 </wgt>
<wgt id='2000'> -2.5062934e+02 </wgt>
<wgt id='2001'> -2.5057007e+02 </wgt>
<wgt id='2002'> -2.5118447e+02 </wgt>
<wgt id='2003'> -2.5001907e+02 </wgt>
<wgt id='2004'> -2.4975890e+02 </wgt>
<wgt id='2005'> -2.5145538e+02 </wgt>
<wgt id='2006'> -2.5146150e+02 </wgt>
<wgt id='2007'> -2.4978099e+02 </wgt>
<wgt id='2008'> -2.5131974e+02 </wgt>
<wgt id='2009'> -2.4990896e+02 </wgt>
<wgt id='2010'> -2.5251951e+02 </wgt>
<wgt id='2011'> -2.4924605e+02 </wgt>
<wgt id='2012'> -2.4827289e+02 </wgt>
<wgt id='2013'> -2.5306920e+02 </wgt>
<wgt id='2014'> -2.5595701e+02 </wgt>
<wgt id='2015'> -2.4552013e+02 </wgt>
<wgt id='2016'> -2.6149317e+02 </wgt>
<wgt id='2017'> -2.4102906e+02 </wgt>
<wgt id='2018'> -2.4250081e+02 </wgt>
<wgt id='2019'> -2.5903743e+02 </wgt>
<wgt id='2020'> -2.4260532e+02 </wgt>
<wgt id='2021'> -2.5853972e+02 </wgt>
<wgt id='2022'> -2.4716102e+02 </wgt>
<wgt id='2023'> -2.5457956e+02 </wgt>
<wgt id='2024'> -2.5016546e+02 </wgt>
<wgt id='2025'> -2.5128929e+02 </wgt>
<wgt id='2026'> -2.4733945e+02 </wgt>
<wgt id='2027'> -2.5208400e+02 </wgt>
<wgt id='2028'> -2.4985979e+02 </wgt>
<wgt id='2029'> -2.2783394e+02 </wgt>
<wgt id='2030'> -2.7231940e+02 </wgt>
<wgt id='2031'> -2.5111875e+02 </wgt>
<wgt id='2032'> -2.4881503e+02 </wgt>
<wgt id='2033'> -2.5571310e+02 </wgt>
<wgt id='2034'> -2.2677447e+02 </wgt>
<wgt id='2035'> -2.5562391e+02 </wgt>
<wgt id='2036'> -2.4290302e+02 </wgt>
<wgt id='2037'> -2.6649663e+02 </wgt>
<wgt id='2038'> -3.3762325e+02 </wgt>
<wgt id='2039'> -3.3758520e+02 </wgt>
<wgt id='2040'> -3.3754676e+02 </wgt>
<wgt id='2041'> -3.3751007e+02 </wgt>
<wgt id='2042'> -3.3747179e+02 </wgt>
<wgt id='2043'> -3.3743531e+02 </wgt>
<wgt id='2044'> -3.3739713e+02 </wgt>
<wgt id='2045'> -3.3735997e+02 </wgt>
<wgt id='2046'> -3.3732180e+02 </wgt>
<wgt id='2047'> -3.3728456e+02 </wgt>
<wgt id='2048'> -3.3724624e+02 </wgt>
<wgt id='2049'> -3.3720966e+02 </wgt>
<wgt id='2050'> -3.3717181e+02 </wgt>
<wgt id='2051'> -3.3713331e+02 </wgt>
<wgt id='2052'> -3.3709660e+02 </wgt>
<wgt id='2053'> -3.3705847e+02 </wgt>
<wgt id='2054'> -3.3702096e+02 </wgt>
<wgt id='2055'> -3.3698323e+02 </wgt>
<wgt id='2056'> -3.3694539e+02 </wgt>
<wgt id='2057'> -3.3690765e+02 </wgt>
<wgt id='2058'> -3.3687048e+02 </wgt>
<wgt id='2059'> -3.3683281e+02 </wgt>
<wgt id='2060'> -3.3679554e+02 </wgt>
<wgt id='2061'> -3.3675751e+02 </wgt>
<wgt id='2062'> -3.3671979e+02 </wgt>
<wgt id='2063'> -3.3668288e+02 </wgt>
<wgt id='2064'> -3.3664492e+02 </wgt>
<wgt id='2065'> -3.3660657e+02 </wgt>
<wgt id='2066'> -3.3657004e+02 </wgt>
<wgt id='2067'> -3.3653198e+02 </wgt>
<wgt id='2068'> -3.3649468e+02 </wgt>
<wgt id='2069'> -3.2791503e+02 </wgt>
<wgt id='2070'> -3.3197818e+02 </wgt>
<wgt id='2071'> -3.2511419e+02 </wgt>
<wgt id='2072'> -3.3508464e+02 </wgt>
<wgt id='2073'> -3.3093790e+02 </wgt>
<wgt id='2074'> -3.2918060e+02 </wgt>
<wgt id='2075'> -3.2993257e+02 </wgt>
<wgt id='2076'> -3.2824216e+02 </wgt>
<wgt id='2077'> -3.2462490e+02 </wgt>
<wgt id='2078'> -3.2944475e+02 </wgt>
<wgt id='2079'> -3.3061720e+02 </wgt>
<wgt id='2080'> -3.1991439e+02 </wgt>
<wgt id='2081'> -3.3402140e+02 </wgt>
<wgt id='2082'> -3.3874995e+02 </wgt>
<wgt id='2083'> -3.3457775e+02 </wgt>
<wgt id='2084'> -3.2739228e+02 </wgt>
<wgt id='2085'> -3.2152662e+02 </wgt>
<wgt id='2086'> -3.2954770e+02 </wgt>
<wgt id='2087'> -3.3054781e+02 </wgt>
<wgt id='2088'> -3.3269077e+02 </wgt>
<wgt id='2089'> -3.0876098e+02 </wgt>
<wgt id='2090'> -3.1753968e+02 </wgt>
<wgt id='2091'> -3.3482607e+02 </wgt>
<wgt id='2092'> -3.0933327e+02 </wgt>
<wgt id='2093'> -3.2140779e+02 </wgt>
<wgt id='2094'> -3.3302946e+02 </wgt>
<wgt id='2095'> -3.2322700e+02 </wgt>
<wgt id='2096'> -3.2927864e+02 </wgt>
<wgt id='2097'> -3.3240538e+02 </wgt>
<wgt id='2098'> -3.2834100e+02 </wgt>
<wgt id='2099'> -3.2648138e+02 </wgt>
<wgt id='2100'> -3.2749668e+02 </wgt>
<wgt id='2101'> -3.2902161e+02 </wgt>
<wgt id='2102'> -3.2931082e+02 </wgt>
<wgt id='2103'> -3.2892748e+02 </wgt>
<wgt id='2104'> -3.2888589e+02 </wgt>
<wgt id='2105'> -3.2846837e+02 </wgt>
<wgt id='2106'> -3.2819377e+02 </wgt>
<wgt id='2107'> -3.2883466e+02 </wgt>
<wgt id='2108'> -3.2797170e+02 </wgt>
<wgt id='2109'> -3.2679681e+02 </wgt>
<wgt id='2110'> -3.2810118e+02 </wgt>
<wgt id='2111'> -3.2856034e+02 </wgt>
<wgt id='2112'> -3.2577375e+02 </wgt>
<wgt id='2113'> -3.2934512e+02 </wgt>
<wgt id='2114'> -3.2747955e+02 </wgt>
<wgt id='2115'> -3.2680903e+02 </wgt>
<wgt id='2116'> -3.2835624e+02 </wgt>
<wgt id='2117'> -3.2759690e+02 </wgt>
<wgt id='2118'> -3.2731115e+02 </wgt>
<wgt id='2119'> -3.2790115e+02 </wgt>
<wgt id='2120'> -3.2868493e+02 </wgt>
<wgt id='2121'> -3.2855290e+02 </wgt>
<wgt id='2122'> -3.2834015e+02 </wgt>
<wgt id='2123'> -3.2761866e+02 </wgt>
<wgt id='2124'> -3.2759787e+02 </wgt>
<wgt id='2125'> -3.2799463e+02 </wgt>
<wgt id='2126'> -3.2777043e+02 </wgt>
<wgt id='2127'> -3.2723496e+02 </wgt>
<wgt id='2128'> -3.2753989e+02 </wgt>
<wgt id='2129'> -3.2795478e+02 </wgt>
<wgt id='2130'> -3.2768226e+02 </wgt>
<wgt id='2131'> -3.2809613e+02 </wgt>
<wgt id='2132'> -3.2792484e+02 </wgt>
<wgt id='2133'> -3.2859047e+02 </wgt>
<wgt id='2134'> -3.2752384e+02 </wgt>
<wgt id='2135'> -3.2748344e+02 </wgt>
<wgt id='2136'> -3.2763483e+02 </wgt>
<wgt id='2137'> -3.2814761e+02 </wgt>
<wgt id='2138'> -3.2829244e+02 </wgt>
<wgt id='2139'> -3.2796804e+02 </wgt>
<wgt id='2140'> -3.2807391e+02 </wgt>
<wgt id='2141'> -3.2799552e+02 </wgt>
<wgt id='2142'> -3.2777244e+02 </wgt>
<wgt id='2143'> -3.2822782e+02 </wgt>
<wgt id='2144'> -3.2751659e+02 </wgt>
<wgt id='2145'> -3.2787738e+02 </wgt>
<wgt id='2146'> -3.2809846e+02 </wgt>
<wgt id='2147'> -3.2814066e+02 </wgt>
<wgt id='2148'> -3.2755161e+02 </wgt>
<wgt id='2149'> -3.2830766e+02 </wgt>
<wgt id='2150'> -3.2787742e+02 </wgt>
<wgt id='2151'> -3.2777655e+02 </wgt>
<wgt id='2152'> -3.2784883e+02 </wgt>
<wgt id='2153'> -3.2739138e+02 </wgt>
<wgt id='2154'> -3.2743355e+02 </wgt>
<wgt id='2155'> -3.2822611e+02 </wgt>
<wgt id='2156'> -3.2720499e+02 </wgt>
<wgt id='2157'> -3.2766527e+02 </wgt>
<wgt id='2158'> -3.2775072e+02 </wgt>
<wgt id='2159'> -3.2808757e+02 </wgt>
<wgt id='2160'> -3.2768927e+02 </wgt>
<wgt id='2161'> -3.2789188e+02 </wgt>
<wgt id='2162'> -3.2783946e+02 </wgt>
<wgt id='2163'> -3.2768714e+02 </wgt>
<wgt id='2164'> -3.2793937e+02 </wgt>
<wgt id='2165'> -3.2775640e+02 </wgt>
<wgt id='2166'> -3.2788539e+02 </wgt>
<wgt id='2167'> -3.2791141e+02 </wgt>
<wgt id='2168'> -3.2765734e+02 </wgt>
<wgt id='2169'> -3.2794989e+02 </wgt>
<wgt id='2170'> -3.2791100e+02 </wgt>
<wgt id='2171'> -3.2788859e+02 </wgt>
<wgt id='2172'> -3.2791923e+02 </wgt>
<wgt id='2173'> -3.2791991e+02 </wgt>
<wgt id='2174'> -3.2792728e+02 </wgt>
<wgt id='2175'> -3.2791681e+02 </wgt>
<wgt id='2176'> -3.2789740e+02 </wgt>
<wgt id='2177'> -3.3688312e+02 </wgt>
<wgt id='2178'> -3.1611420e+02 </wgt>
<wgt id='2179'> -3.5738426e+02 </wgt>
<wgt id='2180'> -3.4061805e+02 </wgt>
<wgt id='2181'> -3.4045616e+02 </wgt>
<wgt id='2182'> -2.9890852e+02 </wgt>
<wgt id='2183'> -3.6204553e+02 </wgt>
<wgt id='2184'> -3.0710122e+02 </wgt>
<wgt id='2185'> -3.4380668e+02 </wgt>
<wgt id='2186'> -3.4866486e+02 </wgt>
<wgt id='2187'> -3.2339822e+02 </wgt>
<wgt id='2188'> -3.6976627e+02 </wgt>
<wgt id='2189'> -3.2031609e+02 </wgt>
<wgt id='2190'> -3.5002522e+02 </wgt>
<wgt id='2191'> -3.6882999e+02 </wgt>
<wgt id='2192'> -3.3826643e+02 </wgt>
<wgt id='2193'> -3.2178005e+02 </wgt>
<wgt id='2194'> -4.3075540e+02 </wgt>
<wgt id='2195'> -3.5415174e+02 </wgt>
<wgt id='2196'> -3.2540026e+02 </wgt>
<wgt id='2197'> -3.2087417e+02 </wgt>
<wgt id='2198'> -3.1960013e+02 </wgt>
<wgt id='2199'> -2.7215576e+02 </wgt>
<wgt id='2200'> -2.7879838e+02 </wgt>
<wgt id='2201'> -2.9549232e+02 </wgt>
<wgt id='2202'> -3.3593915e+02 </wgt>
<wgt id='2203'> -3.3035458e+02 </wgt>
<wgt id='2204'> -4.1385874e+02 </wgt>
<wgt id='2205'> -3.8309938e+02 </wgt>
<wgt id='2206'> -3.8023149e+02 </wgt>
<wgt id='2207'> -3.2260628e+02 </wgt>
<wgt id='2208'> -3.2021277e+02 </wgt>
<wgt id='2209'> -3.3286954e+02 </wgt>
<wgt id='2210'> -3.3056816e+02 </wgt>
<wgt id='2211'> -3.0690443e+02 </wgt>
<wgt id='2212'> -3.7817406e+02 </wgt>
<wgt id='2213'> -3.1135816e+02 </wgt>
<wgt id='2214'> -3.6760816e+02 </wgt>
<wgt id='2215'> -2.9431643e+02 </wgt>
<wgt id='2216'> -3.1585896e+02 </wgt>
<wgt id='2217'> -3.3058683e+02 </wgt>
<wgt id='2218'> -2.9421644e+02 </wgt>
<wgt id='2219'> -3.5467874e+02 </wgt>
<wgt id='2220'> -3.0352430e+02 </wgt>
<wgt id='2221'> -3.4064946e+02 </wgt>
<wgt id='2222'> -2.7897220e+02 </wgt>
<wgt id='2223'> -2.7032424e+02 </wgt>
<wgt id='2224'> -3.6949485e+02 </wgt>
<wgt id='2225'> -3.6108111e+02 </wgt>
<wgt id='2226'> -3.4109955e+02 </wgt>
<wgt id='2227'> -3.3449581e+02 </wgt>
<wgt id='2228'> -3.3817033e+02 </wgt>
<wgt id='2229'> -3.0116736e+02 </wgt>
<wgt id='2230'> -3.2841558e+02 </wgt>
<wgt id='2231'> -3.7471723e+02 </wgt>
<wgt id='2232'> -3.3360665e+02 </wgt>
<wgt id='2233'> -3.8654508e+02 </wgt>
<wgt id='2234'> -3.1491354e+02 </wgt>
<wgt id='2235'> -3.4841460e+02 </wgt>
<wgt id='2236'> -3.4066371e+02 </wgt>
<wgt id='2237'> -3.0909768e+02 </wgt>
<wgt id='2238'> -3.3008541e+02 </wgt>
<wgt id='2239'> -3.1166596e+02 </wgt>
<wgt id='2240'> -3.8805016e+02 </wgt>
<wgt id='2241'> -3.8134448e+02 </wgt>
<wgt id='2242'> -3.8926337e+02 </wgt>
<wgt id='2243'> -3.3902366e+02 </wgt>
<wgt id='2244'> -2.9432812e+02 </wgt>
<wgt id='2245'> -3.5847805e+02 </wgt>
<wgt id='2246'> -3.7201236e+02 </wgt>
<wgt id='2247'> -3.8065802e+02 </wgt>
<wgt id='2248'> -2.6876208e+02 </wgt>
<wgt id='2249'> -3.2863275e+02 </wgt>
<wgt id='2250'> -3.3514906e+02 </wgt>
<wgt id='2251'> -3.7215408e+02 </wgt>
<wgt id='2252'> -3.2576914e+02 </wgt>
<wgt id='2253'> -3.0511319e+02 </wgt>
<wgt id='2254'> -3.0645847e+02 </wgt>
<wgt id='2255'> -3.6421366e+02 </wgt>
<wgt id='2256'> -3.2411587e+02 </wgt>
<wgt id='2257'> -3.3291643e+02 </wgt>
<wgt id='2258'> -2.9035852e+02 </wgt>
<wgt id='2259'> -3.1708388e+02 </wgt>
<wgt id='2260'> -3.8467029e+02 </wgt>
<wgt id='2261'> -3.2155200e+02 </wgt>
<wgt id='2262'> -3.5620408e+02 </wgt>
<wgt id='2263'> -3.6771395e+02 </wgt>
<wgt id='2264'> -3.4680792e+02 </wgt>
<wgt id='2265'> -3.6054335e+02 </wgt>
<wgt id='2266'> -3.3886134e+02 </wgt>
<wgt id='2267'> -3.3681478e+02 </wgt>
<wgt id='2268'> -3.3768331e+02 </wgt>
<wgt id='2269'> -3.0045369e+02 </wgt>
<wgt id='2270'> -3.5219561e+02 </wgt>
<wgt id='2271'> -3.2630428e+02 </wgt>
<wgt id='2272'> -4.0077673e+02 </wgt>
<wgt id='2273'> -3.5423097e+02 </wgt>
<wgt id='2274'> -3.2145261e+02 </wgt>
<wgt id='2275'> -2.5709632e+02 </wgt>
<wgt id='2276'> -3.4957231e+02 </wgt>
<wgt id='2277'> -3.6831235e+02 </wgt>
<wgt id='2278'> -3.1430107e+02 </wgt>
<wgt id='2279'> -3.6054439e+02 </wgt>
<wgt id='2280'> -3.1753769e+02 </wgt>
<wgt id='2281'> -2.7425181e+02 </wgt>
<wgt id='2282'> -5.1196747e+02 </wgt>
<wgt id='2283'> -3.6169139e+02 </wgt>
<wgt id='2284'> -5.2181869e+02 </wgt>
</rwgt>
</event>
<event npLO=" -1 " npNLO=" 0 ">
 3      0 +2.8781417e+02 3.18697150e+01 7.54677110e-03 1.16379620e-01
       21 -1    0    0  502  501 +0.0000000000e+00 +0.0000000000e+00 +9.0147852000e+01 9.0147852000e+01 0.0000000000e+00 0.0000e+00 9.0000e+00
       21 -1    0    0  501  502 +0.0000000000e+00 +0.0000000000e+00 -2.7732219000e+01 2.7732219000e+01 0.0000000000e+00 0.0000e+00 9.0000e+00
       25  1    1    2    0    0 +0.0000000000e+00 +0.0000000000e+00 +6.2415633000e+01 1.1788007000e+02 1.0000000000e+02 0.0000e+00 9.0000e+00
#aMCatNLO 1  0  0  2  1 0.13631636E+01 0.00000000E+00 -9  4  0 0.00000000E+00 0.00000000E+00 0.00000000E+00 0.00000000E+00 0.00000000E+00
<rwgt>
<wgt id='1001'> +2.8781417e+02 </wgt>
<wgt id='1002'> +2.2387488e+02 </wgt>
<wgt id='1003'> +3.8193101e+02 </wgt>
<wgt id='1004'> +3.5191657e+02 </wgt>
<wgt id='1005'> +2.7229483e+02 </wgt>
<wgt id='1006'> +4.6968531e+02 </wgt>
<wgt id='1007'> +2.2519710e+02 </wgt>
<wgt id='1008'> +1.7637128e+02 </wgt>
<wgt id='1009'> +2.9659380e+02 </wgt>
<wgt id='1010'> +2.8781417e+02 </wgt>
<wgt id='1011'> +2.8835547e+02 </wgt>
<wgt id='1012'> +2.8729843e+02 </wgt>
<wgt id='1013'> +2.8870783e+02 </wgt>
<wgt id='1014'> +2.8860943e+02 </wgt>
<wgt id='1015'> +2.8859529e+02 </wgt>
<wgt id='1016'> +2.8822831e+02 </wgt>
<wgt id='1017'> +2.8944522e+02 </wgt>
<wgt id='1018'> +2.8932146e+02 </wgt>
<wgt id='1019'> +2.8770047e+02 </wgt>
<wgt id='1020'> +2.8817988e+02 </wgt>
<wgt id='1021'> +2.8666919e+02 </wgt>
<wgt id='1022'> +2.8820570e+02 </wgt>
<wgt id='1023'> +2.8701584e+02 </wgt>
<wgt id='1024'> +2.8699979e+02 </wgt>
<wgt id='1025'> +2.8781017e+02 </wgt>
<wgt id='1026'> +2.8652037e+02 </wgt>
<wgt id='1027'> +2.8651456e+02 </wgt>
<wgt id='1028'> +2.8919567e+02 </wgt>
<wgt id='1029'> +2.8865636e+02 </wgt>
<wgt id='1030'> +2.8754592e+02 </wgt>
<wgt id='1031'> +2.8880459e+02 </wgt>
<wgt id='1032'> +2.8755138e+02 </wgt>
<wgt id='1033'> +2.8783558e+02 </wgt>
<wgt id='1034'> +2.8791647e+02 </wgt>
<wgt id='1035'> +2.8768842e+02 </wgt>
<wgt id='1036'> +2.8766574e+02 </wgt>
<wgt id='1037'> +2.8743109e+02 </wgt>
<wgt id='1038'> +2.8794590e+02 </wgt>
<wgt id='1039'> +2.8741633e+02 </wgt>
<wgt id='1040'> +2.8755892e+02 </wgt>
<wgt id='1041'> +2.8738786e+02 </wgt>
<wgt id='1042'> +2.8790346e+02 </wgt>
<wgt id='1043'> +2.8751373e+02 </wgt>
<wgt id='1044'> +2.8769117e+02 </wgt>
<wgt id='1045'> +2.8780100e+02 </wgt>
<wgt id='1046'> +2.8815691e+02 </wgt>
<wgt id='1047'> +2.8782286e+02 </wgt>
<wgt id='1048'> +2.8792471e+02 </wgt>
<wgt id='1049'> +2.8775687e+02 </wgt>
<wgt id='1050'> +2.8778729e+02 </wgt>
<wgt id='1051'> +2.8792490e+02 </wgt>
<wgt id='1052'> +2.8788122e+02 </wgt>
<wgt id='1053'> +2.8764958e+02 </wgt>
<wgt id='1054'> +2.8779872e+02 </wgt>
<wgt id='1055'> +2.8793217e+02 </wgt>
<wgt id='1056'> +2.8792965e+02 </wgt>
<wgt id='1057'> +2.8773986e+02 </wgt>
<wgt id='1058'> +2.8776061e+02 </wgt>
<wgt id='1059'> +2.8771810e+02 </wgt>
<wgt id='1060'> +2.8779270e+02 </wgt>
<wgt id='1061'> +2.8778019e+02 </wgt>
<wgt id='1062'> +2.8787401e+02 </wgt>
<wgt id='1063'> +2.8779092e+02 </wgt>
<wgt id='1064'> +2.8780498e+02 </wgt>
<wgt id='1065'> +2.8789582e+02 </wgt>
<wgt id='1066'> +2.8778428e+02 </wgt>
<wgt id='1067'> +2.8788604e+02 </wgt>
<wgt id='1068'> +2.8777526e+02 </wgt>
<wgt id='1069'> +2.8786822e+02 </wgt>
<wgt id='1070'> +2.8778060e+02 </wgt>
<wgt id='1071'> +2.8781678e+02 </wgt>
<wgt id='1072'> +2.8795587e+02 </wgt>
<wgt id='1073'> +2.8784626e+02 </wgt>
<wgt id='1074'> +2.8790015e+02 </wgt>
<wgt id='1075'> +2.8791453e+02 </wgt>
<wgt id='1076'> +2.8791275e+02 </wgt>
<wgt id='1077'> +2.8788268e+02 </wgt>
<wgt id='1078'> +2.8783821e+02 </wgt>
<wgt id='1079'> +2.8785062e+02 </wgt>
<wgt id='1080'> +2.8782285e+02 </wgt>
<wgt id='1081'> +2.8787349e+02 </wgt>
<wgt id='1082'> +2.8783084e+02 </wgt>
<wgt id='1083'> +2.8783746e+02 </wgt>
<wgt id='1084'> +2.8783676e+02 </wgt>
<wgt id='1085'> +2.8776574e+02 </wgt>
<wgt id='1086'> +2.8779296e+02 </wgt>
<wgt id='1087'> +2.8795724e+02 </wgt>
<wgt id='1088'> +2.8777753e+02 </wgt>
<wgt id='1089'> +2.8777011e+02 </wgt>
<wgt id='1090'> +2.8784130e+02 </wgt>
<wgt id='1091'> +2.8777948e+02 </wgt>
<wgt id='1092'> +2.8785244e+02 </wgt>
<wgt id='1093'> +2.8784193e+02 </wgt>
<wgt id='1094'> +2.8785924e+02 </wgt>
<wgt id='1095'> +2.8779880e+02 </wgt>
<wgt id='1096'> +2.8777598e+02 </wgt>
<wgt id='1097'> +2.8783539e+02 </wgt>
<wgt id='1098'> +2.8783249e+02 </wgt>
<wgt id='1099'> +2.8783406e+02 </wgt>
<wgt id='1100'> +2.8783480e+02 </wgt>
<wgt id='1101'> +2.8782906e+02 </wgt>
<wgt id='1102'> +2.8784632e+02 </wgt>
<wgt id='1103'> +2.8778623e+02 </wgt>
<wgt id='1104'> +2.8776760e+02 </wgt>
<wgt id='1105'> +2.8781224e+02 </wgt>
<wgt id='1106'> +2.8779421e+02 </wgt>
<wgt id='1107'> +2.8782479e+02 </wgt>
<wgt id='1108'> +2.8782025e+02 </wgt>
<wgt id='1109'> +2.8784014e+02 </wgt>
<wgt id='1110'> +2.8781415e+02 </wgt>
<wgt id='1111'> +2.7890333e+02 </wgt>
<wgt id='1112'> +2.9520305e+02 </wgt>
<wgt id='1113'> +2.8781415e+02 </wgt>
<wgt id='1114'> +2.8105597e+02 </wgt>
<wgt id='1115'> +2.8622579e+02 </wgt>
<wgt id='1116'> +2.8635513e+02 </wgt>
<wgt id='1117'> +2.8755744e+02 </wgt>
<wgt id='1118'> +2.9045529e+02 </wgt>
<wgt id='1119'> +2.8376959e+02 </wgt>
<wgt id='1120'> +2.8584847e+02 </wgt>
<wgt id='1121'> +2.8784415e+02 </wgt>
<wgt id='1122'> +2.9048195e+02 </wgt>
<wgt id='1123'> +2.9079236e+02 </wgt>
<wgt id='1124'> +2.9188743e+02 </wgt>
<wgt id='1125'> +2.8172015e+02 </wgt>
<wgt id='1126'> +2.8890027e+02 </wgt>
<wgt id='1127'> +2.8289211e+02 </wgt>
<wgt id='1128'> +2.9423854e+02 </wgt>
<wgt id='1129'> +2.9348521e+02 </wgt>
<wgt id='1130'> +2.9192496e+02 </wgt>
<wgt id='1131'> +2.8671179e+02 </wgt>
<wgt id='1132'> +2.8863405e+02 </wgt>
<wgt id='1133'> +2.9298317e+02 </wgt>
<wgt id='1134'> +2.8098787e+02 </wgt>
<wgt id='1135'> +2.9039807e+02 </wgt>
<wgt id='1136'> +2.8718460e+02 </wgt>
<wgt id='1137'> +2.8745117e+02 </wgt>
<wgt id='1138'> +2.8576630e+02 </wgt>
<wgt id='1139'> +2.9260433e+02 </wgt>
<wgt id='1140'> +2.8925555e+02 </wgt>
<wgt id='1141'> +2.8169326e+02 </wgt>
<wgt id='1142'> +2.8966744e+02 </wgt>
<wgt id='1143'> +2.8901797e+02 </wgt>
<wgt id='1144'> +2.8572089e+02 </wgt>
<wgt id='1145'> +2.8512611e+02 </wgt>
<wgt id='1146'> +2.8370953e+02 </wgt>
<wgt id='1147'> +2.8318027e+02 </wgt>
<wgt id='1148'> +2.9509312e+02 </wgt>
<wgt id='1149'> +2.8658155e+02 </wgt>
<wgt id='1150'> +2.9444529e+02 </wgt>
<wgt id='1151'> +2.8715185e+02 </wgt>
<wgt id='1152'> +2.8471720e+02 </wgt>
<wgt id='1153'> +2.8651779e+02 </wgt>
<wgt id='1154'> +2.9010090e+02 </wgt>
<wgt id='1155'> +2.8004855e+02 </wgt>
<wgt id='1156'> +2.8753051e+02 </wgt>
<wgt id='1157'> +2.7948066e+02 </wgt>
<wgt id='1158'> +2.8836162e+02 </wgt>
<wgt id='1159'> +2.9095165e+02 </wgt>
<wgt id='1160'> +2.7872144e+02 </wgt>
<wgt id='1161'> +2.8649438e+02 </wgt>
<wgt id='1162'> +2.8898958e+02 </wgt>
<wgt id='1163'> +2.9184459e+02 </wgt>
<wgt id='1164'> +2.8180630e+02 </wgt>
<wgt id='1165'> +2.8690073e+02 </wgt>
<wgt id='1166'> +2.8685614e+02 </wgt>
<wgt id='1167'> +2.8417666e+02 </wgt>
<wgt id='1168'> +2.8711665e+02 </wgt>
<wgt id='1169'> +2.8668639e+02 </wgt>
<wgt id='1170'> +2.9050941e+02 </wgt>
<wgt id='1171'> +2.8728250e+02 </wgt>
<wgt id='1172'> +2.9598041e+02 </wgt>
<wgt id='1173'> +2.8915472e+02 </wgt>
<wgt id='1174'> +2.8590303e+02 </wgt>
<wgt id='1175'> +2.8890330e+02 </wgt>
<wgt id='1176'> +2.8944329e+02 </wgt>
<wgt id='1177'> +2.8610019e+02 </wgt>
<wgt id='1178'> +2.8842221e+02 </wgt>
<wgt id='1179'> +2.8696792e+02 </wgt>
<wgt id='1180'> +2.7917845e+02 </wgt>
<wgt id='1181'> +2.9180385e+02 </wgt>
<wgt id='1182'> +2.8408916e+02 </wgt>
<wgt id='1183'> +2.8044545e+02 </wgt>
<wgt id='1184'> +2.9314222e+02 </wgt>
<wgt id='1185'> +2.9468795e+02 </wgt>
<wgt id='1186'> +2.9208817e+02 </wgt>
<wgt id='1187'> +2.9459130e+02 </wgt>
<wgt id='1188'> +2.9048138e+02 </wgt>
<wgt id='1189'> +2.9062582e+02 </wgt>
<wgt id='1190'> +2.8752178e+02 </wgt>
<wgt id='1191'> +2.8593840e+02 </wgt>
<wgt id='1192'> +2.8901916e+02 </wgt>
<wgt id='1193'> +2.8315081e+02 </wgt>
<wgt id='1194'> +2.8221656e+02 </wgt>
<wgt id='1195'> +2.9348521e+02 </wgt>
<wgt id='1196'> +2.8447788e+02 </wgt>
<wgt id='1197'> +2.9097496e+02 </wgt>
<wgt id='1198'> +2.9186965e+02 </wgt>
<wgt id='1199'> +2.7780651e+02 </wgt>
<wgt id='1200'> +2.9183075e+02 </wgt>
<wgt id='1201'> +2.8708006e+02 </wgt>
<wgt id='1202'> +2.9750325e+02 </wgt>
<wgt id='1203'> +2.8118027e+02 </wgt>
<wgt id='1204'> +2.8404666e+02 </wgt>
<wgt id='1205'> +2.9309355e+02 </wgt>
<wgt id='1206'> +2.9319965e+02 </wgt>
<wgt id='1207'> +2.8664971e+02 </wgt>
<wgt id='1208'> +2.8623861e+02 </wgt>
<wgt id='1209'> +2.8460230e+02 </wgt>
<wgt id='1210'> +2.8424053e+02 </wgt>
<wgt id='1211'> +2.9269413e+02 </wgt>
<wgt id='1212'> +2.9288357e+02 </wgt>
<wgt id='1213'> +2.9474245e+02 </wgt>
<wgt id='1214'> +2.8741365e+02 </wgt>
<wgt id='1215'> +2.8698932e+02 </wgt>
<wgt id='1216'> +2.8866891e+02 </wgt>
<wgt id='1217'> +2.8839969e+02 </wgt>
<wgt id='1218'> +2.8751497e+02 </wgt>
<wgt id='1219'> +2.8692774e+02 </wgt>
<wgt id='1220'> +2.8692742e+02 </wgt>
<wgt id='1221'> +2.8677067e+02 </wgt>
<wgt id='1222'> +2.8773192e+02 </wgt>
<wgt id='1223'> +2.8729393e+02 </wgt>
<wgt id='1224'> +2.8698520e+02 </wgt>
<wgt id='1225'> +2.8908474e+02 </wgt>
<wgt id='1226'> +2.8894301e+02 </wgt>
<wgt id='1227'> +2.8960583e+02 </wgt>
<wgt id='1228'> +2.8813662e+02 </wgt>
<wgt id='1229'> +2.8793290e+02 </wgt>
<wgt id='1230'> +2.8697717e+02 </wgt>
<wgt id='1231'> +2.8737319e+02 </wgt>
<wgt id='1232'> +2.8814950e+02 </wgt>
<wgt id='1233'> +2.8727111e+02 </wgt>
<wgt id='1234'> +2.8805595e+02 </wgt>
<wgt id='1235'> +2.8708700e+02 </wgt>
<wgt id='1236'> +2.8779584e+02 </wgt>
<wgt id='1237'> +2.8768999e+02 </wgt>
<wgt id='1238'> +2.8751914e+02 </wgt>
<wgt id='1239'> +2.8766030e+02 </wgt>
<wgt id='1240'> +2.8746775e+02 </wgt>
<wgt id='1241'> +2.8730132e+02 </wgt>
<wgt id='1242'> +2.8740564e+02 </wgt>
<wgt id='1243'> +2.8760113e+02 </wgt>
<wgt id='1244'> +2.8751922e+02 </wgt>
<wgt id='1245'> +2.8735382e+02 </wgt>
<wgt id='1246'> +2.8753737e+02 </wgt>
<wgt id='1247'> +2.8750215e+02 </wgt>
<wgt id='1248'> +2.8741521e+02 </wgt>
<wgt id='1249'> +2.8735958e+02 </wgt>
<wgt id='1250'> +2.8733468e+02 </wgt>
<wgt id='1251'> +2.8749698e+02 </wgt>
<wgt id='1252'> +2.8735503e+02 </wgt>
<wgt id='1253'> +2.8726546e+02 </wgt>
<wgt id='1254'> +2.8735337e+02 </wgt>
<wgt id='1255'> +2.8735518e+02 </wgt>
<wgt id='1256'> +2.8738561e+02 </wgt>
<wgt id='1257'> +2.8734779e+02 </wgt>
<wgt id='1258'> +2.8750410e+02 </wgt>
<wgt id='1259'> +2.8739032e+02 </wgt>
<wgt id='1260'> +2.8748286e+02 </wgt>
<wgt id='1261'> +2.8750459e+02 </wgt>
<wgt id='1262'> +2.8739195e+02 </wgt>
<wgt id='1263'> +2.8740711e+02 </wgt>
<wgt id='1264'> +2.8743134e+02 </wgt>
<wgt id='1265'> +2.8756464e+02 </wgt>
<wgt id='1266'> +2.8742367e+02 </wgt>
<wgt id='1267'> +2.8741301e+02 </wgt>
<wgt id='1268'> +2.8734732e+02 </wgt>
<wgt id='1269'> +2.8744399e+02 </wgt>
<wgt id='1270'> +2.8740672e+02 </wgt>
<wgt id='1271'> +2.8742793e+02 </wgt>
<wgt id='1272'> +2.8748561e+02 </wgt>
<wgt id='1273'> +2.8740314e+02 </wgt>
<wgt id='1274'> +2.8745020e+02 </wgt>
<wgt id='1275'> +2.8736195e+02 </wgt>
<wgt id='1276'> +2.8736121e+02 </wgt>
<wgt id='1277'> +2.8743682e+02 </wgt>
<wgt id='1278'> +2.8735514e+02 </wgt>
<wgt id='1279'> +2.8740628e+02 </wgt>
<wgt id='1280'> +2.8735732e+02 </wgt>
<wgt id='1281'> +2.8744549e+02 </wgt>
<wgt id='1282'> +2.8741652e+02 </wgt>
<wgt id='1283'> +2.8742988e+02 </wgt>
<wgt id='1284'> +2.8744722e+02 </wgt>
<wgt id='1285'> +2.8731236e+02 </wgt>
<wgt id='1286'> +2.8745146e+02 </wgt>
<wgt id='1287'> +2.8738761e+02 </wgt>
<wgt id='1288'> +2.8733720e+02 </wgt>
<wgt id='1289'> +2.8740723e+02 </wgt>
<wgt id='1290'> +2.8734126e+02 </wgt>
<wgt id='1291'> +2.8740341e+02 </wgt>
<wgt id='1292'> +2.8745805e+02 </wgt>
<wgt id='1293'> +2.8740688e+02 </wgt>
<wgt id='1294'> +2.8738280e+02 </wgt>
<wgt id='1295'> +2.8739902e+02 </wgt>
<wgt id='1296'> +2.8742706e+02 </wgt>
<wgt id='1297'> +2.8740755e+02 </wgt>
<wgt id='1298'> +2.8743433e+02 </wgt>
<wgt id='1299'> +2.8744137e+02 </wgt>
<wgt id='1300'> +2.8737191e+02 </wgt>
<wgt id='1301'> +2.8739704e+02 </wgt>
<wgt id='1302'> +2.8744395e+02 </wgt>
<wgt id='1303'> +2.8739875e+02 </wgt>
<wgt id='1304'> +2.8740787e+02 </wgt>
<wgt id='1305'> +2.8739561e+02 </wgt>
<wgt id='1306'> +2.8739698e+02 </wgt>
<wgt id='1307'> +2.8741115e+02 </wgt>
<wgt id='1308'> +2.8742319e+02 </wgt>
<wgt id='1309'> +2.8743651e+02 </wgt>
<wgt id='1310'> +2.8741807e+02 </wgt>
<wgt id='1311'> +2.8741282e+02 </wgt>
<wgt id='1312'> +2.8739454e+02 </wgt>
<wgt id='1313'> +2.8742917e+02 </wgt>
<wgt id='1314'> +2.8742514e+02 </wgt>
<wgt id='1315'> +2.7890333e+02 </wgt>
<wgt id='1316'> +2.9520305e+02 </wgt>
<wgt id='1317'> +2.4729200e+02 </wgt>
<wgt id='1318'> +2.5444897e+02 </wgt>
<wgt id='1319'> +2.6215095e+02 </wgt>
<wgt id='1320'> +2.7075690e+02 </wgt>
<wgt id='1321'> +2.8368613e+02 </wgt>
<wgt id='1322'> +2.9210568e+02 </wgt>
<wgt id='1323'> +3.0328022e+02 </wgt>
<wgt id='1324'> +3.1146053e+02 </wgt>
<wgt id='1325'> +2.9142742e+02 </wgt>
<wgt id='1326'> +2.9249132e+02 </wgt>
<wgt id='1327'> +2.9012655e+02 </wgt>
<wgt id='1328'> +2.9245575e+02 </wgt>
<wgt id='1329'> +2.9195313e+02 </wgt>
<wgt id='1330'> +2.9249419e+02 </wgt>
<wgt id='1331'> +2.9183872e+02 </wgt>
<wgt id='1332'> +2.9150775e+02 </wgt>
<wgt id='1333'> +2.9062448e+02 </wgt>
<wgt id='1334'> +2.9030331e+02 </wgt>
<wgt id='1335'> +2.9044009e+02 </wgt>
<wgt id='1336'> +2.9235892e+02 </wgt>
<wgt id='1337'> +2.9337973e+02 </wgt>
<wgt id='1338'> +2.8919962e+02 </wgt>
<wgt id='1339'> +2.9226434e+02 </wgt>
<wgt id='1340'> +2.9240009e+02 </wgt>
<wgt id='1341'> +2.9156865e+02 </wgt>
<wgt id='1342'> +2.9234065e+02 </wgt>
<wgt id='1343'> +2.9171238e+02 </wgt>
<wgt id='1344'> +2.9074151e+02 </wgt>
<wgt id='1345'> +2.9118814e+02 </wgt>
<wgt id='1346'> +2.9087039e+02 </wgt>
<wgt id='1347'> +2.9139263e+02 </wgt>
<wgt id='1348'> +2.9111848e+02 </wgt>
<wgt id='1349'> +2.9131599e+02 </wgt>
<wgt id='1350'> +2.9144089e+02 </wgt>
<wgt id='1351'> +2.9155803e+02 </wgt>
<wgt id='1352'> +2.9151287e+02 </wgt>
<wgt id='1353'> +2.9120495e+02 </wgt>
<wgt id='1354'> +2.9148137e+02 </wgt>
<wgt id='1355'> +2.9159158e+02 </wgt>
<wgt id='1356'> +2.9150064e+02 </wgt>
<wgt id='1357'> +2.9140541e+02 </wgt>
<wgt id='1358'> +2.9143168e+02 </wgt>
<wgt id='1359'> +2.9147669e+02 </wgt>
<wgt id='1360'> +2.9158428e+02 </wgt>
<wgt id='1361'> +2.9148279e+02 </wgt>
<wgt id='1362'> +2.9139871e+02 </wgt>
<wgt id='1363'> +2.9143255e+02 </wgt>
<wgt id='1364'> +2.9154578e+02 </wgt>
<wgt id='1365'> +2.9130663e+02 </wgt>
<wgt id='1366'> +2.9140294e+02 </wgt>
<wgt id='1367'> +2.9138039e+02 </wgt>
<wgt id='1368'> +2.9135681e+02 </wgt>
<wgt id='1369'> +2.9150049e+02 </wgt>
<wgt id='1370'> +2.9148690e+02 </wgt>
<wgt id='1371'> +2.9147028e+02 </wgt>
<wgt id='1372'> +2.9143965e+02 </wgt>
<wgt id='1373'> +2.9142564e+02 </wgt>
<wgt id='1374'> +2.9140888e+02 </wgt>
<wgt id='1375'> +2.9137919e+02 </wgt>
<wgt id='1376'> +2.9151883e+02 </wgt>
<wgt id='1377'> +2.9136994e+02 </wgt>
<wgt id='1378'> +2.9138276e+02 </wgt>
<wgt id='1379'> +2.9142232e+02 </wgt>
<wgt id='1380'> +2.9133914e+02 </wgt>
<wgt id='1381'> +2.9145004e+02 </wgt>
<wgt id='1382'> +2.9139619e+02 </wgt>
<wgt id='1383'> +2.9136087e+02 </wgt>
<wgt id='1384'> +2.9141788e+02 </wgt>
<wgt id='1385'> +2.9144969e+02 </wgt>
<wgt id='1386'> +2.9142186e+02 </wgt>
<wgt id='1387'> +2.9148137e+02 </wgt>
<wgt id='1388'> +2.9151982e+02 </wgt>
<wgt id='1389'> +2.9140113e+02 </wgt>
<wgt id='1390'> +2.9142714e+02 </wgt>
<wgt id='1391'> +2.9144888e+02 </wgt>
<wgt id='1392'> +2.9137163e+02 </wgt>
<wgt id='1393'> +2.9143978e+02 </wgt>
<wgt id='1394'> +2.9141374e+02 </wgt>
<wgt id='1395'> +2.9145245e+02 </wgt>
<wgt id='1396'> +2.9141779e+02 </wgt>
<wgt id='1397'> +2.9144372e+02 </wgt>
<wgt id='1398'> +2.9136556e+02 </wgt>
<wgt id='1399'> +2.9147084e+02 </wgt>
<wgt id='1400'> +2.9141472e+02 </wgt>
<wgt id='1401'> +2.9142710e+02 </wgt>
<wgt id='1402'> +2.9143801e+02 </wgt>
<wgt id='1403'> +2.9143343e+02 </wgt>
<wgt id='1404'> +2.9144459e+02 </wgt>
<wgt id='1405'> +2.9137282e+02 </wgt>
<wgt id='1406'> +2.9141949e+02 </wgt>
<wgt id='1407'> +2.9140762e+02 </wgt>
<wgt id='1408'> +2.9145184e+02 </wgt>
<wgt id='1409'> +2.9143722e+02 </wgt>
<wgt id='1410'> +2.9146584e+02 </wgt>
<wgt id='1411'> +2.9147855e+02 </wgt>
<wgt id='1412'> +2.9141123e+02 </wgt>
<wgt id='1413'> +2.9141516e+02 </wgt>
<wgt id='1414'> +2.9143219e+02 </wgt>
<wgt id='1415'> +2.9145056e+02 </wgt>
<wgt id='1416'> +2.9142800e+02 </wgt>
<wgt id='1417'> +2.9141230e+02 </wgt>
<wgt id='1418'> +2.9143087e+02 </wgt>
<wgt id='1419'> +2.9145764e+02 </wgt>
<wgt id='1420'> +2.9142589e+02 </wgt>
<wgt id='1421'> +2.9140247e+02 </wgt>
<wgt id='1422'> +2.9138892e+02 </wgt>
<wgt id='1423'> +2.9140747e+02 </wgt>
<wgt id='1424'> +2.9142888e+02 </wgt>
<wgt id='1425'> +2.9144040e+02 </wgt>
<wgt id='1426'> +2.8293985e+02 </wgt>
<wgt id='1427'> +3.0111552e+02 </wgt>
<wgt id='1428'> +2.7847491e+02 </wgt>
<wgt id='1429'> +2.7730100e+02 </wgt>
<wgt id='1430'> +2.7768003e+02 </wgt>
<wgt id='1431'> +2.7670593e+02 </wgt>
<wgt id='1432'> +2.7908676e+02 </wgt>
<wgt id='1433'> +2.7374223e+02 </wgt>
<wgt id='1434'> +2.8325833e+02 </wgt>
<wgt id='1435'> +2.8013631e+02 </wgt>
<wgt id='1436'> +2.7526990e+02 </wgt>
<wgt id='1437'> +2.8195618e+02 </wgt>
<wgt id='1438'> +2.7681250e+02 </wgt>
<wgt id='1439'> +2.7796325e+02 </wgt>
<wgt id='1440'> +2.7806035e+02 </wgt>
<wgt id='1441'> +2.7210133e+02 </wgt>
<wgt id='1442'> +2.7767613e+02 </wgt>
<wgt id='1443'> +2.8064608e+02 </wgt>
<wgt id='1444'> +2.7168095e+02 </wgt>
<wgt id='1445'> +2.8005244e+02 </wgt>
<wgt id='1446'> +2.7684881e+02 </wgt>
<wgt id='1447'> +2.7605628e+02 </wgt>
<wgt id='1448'> +2.8065414e+02 </wgt>
<wgt id='1449'> +2.7956951e+02 </wgt>
<wgt id='1450'> +2.7776731e+02 </wgt>
<wgt id='1451'> +2.7774529e+02 </wgt>
<wgt id='1452'> +2.7919184e+02 </wgt>
<wgt id='1453'> +2.7772131e+02 </wgt>
<wgt id='1454'> +2.7909226e+02 </wgt>
<wgt id='1455'> +2.8156697e+02 </wgt>
<wgt id='1456'> +2.7326679e+02 </wgt>
<wgt id='1457'> +2.7297523e+02 </wgt>
<wgt id='1458'> +2.8175433e+02 </wgt>
<wgt id='1459'> +2.7528718e+02 </wgt>
<wgt id='1460'> +2.8304171e+02 </wgt>
<wgt id='1461'> +2.7599553e+02 </wgt>
<wgt id='1462'> +2.8061075e+02 </wgt>
<wgt id='1463'> +2.7292415e+02 </wgt>
<wgt id='1464'> +2.8312466e+02 </wgt>
<wgt id='1465'> +2.7933672e+02 </wgt>
<wgt id='1466'> +2.7740969e+02 </wgt>
<wgt id='1467'> +2.8262419e+02 </wgt>
<wgt id='1468'> +2.7641151e+02 </wgt>
<wgt id='1469'> +2.7517196e+02 </wgt>
<wgt id='1470'> +2.7903655e+02 </wgt>
<wgt id='1471'> +2.8116460e+02 </wgt>
<wgt id='1472'> +2.7054908e+02 </wgt>
<wgt id='1473'> +2.8526779e+02 </wgt>
<wgt id='1474'> +2.7826749e+02 </wgt>
<wgt id='1475'> +2.7914034e+02 </wgt>
<wgt id='1476'> +2.8153427e+02 </wgt>
<wgt id='1477'> +2.7856683e+02 </wgt>
<wgt id='1478'> +2.7929082e+02 </wgt>
<wgt id='1479'> +2.7940414e+02 </wgt>
<wgt id='1480'> +2.7820657e+02 </wgt>
<wgt id='1481'> +2.7524056e+02 </wgt>
<wgt id='1482'> +2.8396761e+02 </wgt>
<wgt id='1483'> +2.7675758e+02 </wgt>
<wgt id='1484'> +2.7965912e+02 </wgt>
<wgt id='1485'> +2.7055136e+02 </wgt>
<wgt id='1486'> +2.8556426e+02 </wgt>
<wgt id='1487'> +2.8776776e+02 </wgt>
<wgt id='1488'> +2.8811378e+02 </wgt>
<wgt id='1489'> +2.8879465e+02 </wgt>
<wgt id='1490'> +2.9416258e+02 </wgt>
<wgt id='1491'> +2.8612778e+02 </wgt>
<wgt id='1492'> +2.8928333e+02 </wgt>
<wgt id='1493'> +2.8653687e+02 </wgt>
<wgt id='1494'> +2.9011385e+02 </wgt>
<wgt id='1495'> +2.8775897e+02 </wgt>
<wgt id='1496'> +2.8118004e+02 </wgt>
<wgt id='1497'> +2.9288141e+02 </wgt>
<wgt id='1498'> +2.9114332e+02 </wgt>
<wgt id='1499'> +2.8606575e+02 </wgt>
<wgt id='1500'> +2.7592108e+02 </wgt>
<wgt id='1501'> +2.9451305e+02 </wgt>
<wgt id='1502'> +2.8965637e+02 </wgt>
<wgt id='1503'> +2.8658036e+02 </wgt>
<wgt id='1504'> +2.8546405e+02 </wgt>
<wgt id='1505'> +2.9052232e+02 </wgt>
<wgt id='1506'> +2.9106410e+02 </wgt>
<wgt id='1507'> +2.8396876e+02 </wgt>
<wgt id='1508'> +2.8817131e+02 </wgt>
<wgt id='1509'> +2.8675653e+02 </wgt>
<wgt id='1510'> +2.8646069e+02 </wgt>
<wgt id='1511'> +2.8886126e+02 </wgt>
<wgt id='1512'> +2.8220402e+02 </wgt>
<wgt id='1513'> +2.9296680e+02 </wgt>
<wgt id='1514'> +2.8661607e+02 </wgt>
<wgt id='1515'> +2.8928880e+02 </wgt>
<wgt id='1516'> +2.8553555e+02 </wgt>
<wgt id='1517'> +2.8852768e+02 </wgt>
<wgt id='1518'> +2.8799872e+02 </wgt>
<wgt id='1519'> +2.8745900e+02 </wgt>
<wgt id='1520'> +2.8809959e+02 </wgt>
<wgt id='1521'> +2.8699420e+02 </wgt>
<wgt id='1522'> +2.9307171e+02 </wgt>
<wgt id='1523'> +2.8265618e+02 </wgt>
<wgt id='1524'> +2.9018856e+02 </wgt>
<wgt id='1525'> +2.8357515e+02 </wgt>
<wgt id='1526'> +2.8733962e+02 </wgt>
<wgt id='1527'> +2.8739062e+02 </wgt>
<wgt id='1528'> +2.9044131e+02 </wgt>
<wgt id='1529'> +2.8522794e+02 </wgt>
<wgt id='1530'> +2.8986856e+02 </wgt>
<wgt id='1531'> +2.8473727e+02 </wgt>
<wgt id='1532'> +2.8432439e+02 </wgt>
<wgt id='1533'> +2.8613456e+02 </wgt>
<wgt id='1534'> +2.8441206e+02 </wgt>
<wgt id='1535'> +2.9131226e+02 </wgt>
<wgt id='1536'> +2.8950134e+02 </wgt>
<wgt id='1537'> +2.8291504e+02 </wgt>
<wgt id='1538'> +2.8690238e+02 </wgt>
<wgt id='1539'> +2.8693025e+02 </wgt>
<wgt id='1540'> +2.7971916e+02 </wgt>
<wgt id='1541'> +2.8852228e+02 </wgt>
<wgt id='1542'> +2.8580407e+02 </wgt>
<wgt id='1543'> +2.8931756e+02 </wgt>
<wgt id='1544'> +2.7843578e+02 </wgt>
<wgt id='1545'> +2.9648536e+02 </wgt>
<wgt id='1546'> +2.9910551e+02 </wgt>
<wgt id='1547'> +2.9173830e+02 </wgt>
<wgt id='1548'> +2.9191469e+02 </wgt>
<wgt id='1549'> +2.9158473e+02 </wgt>
<wgt id='1550'> +2.9186827e+02 </wgt>
<wgt id='1551'> +2.9168559e+02 </wgt>
<wgt id='1552'> +2.9217721e+02 </wgt>
<wgt id='1553'> +2.9137591e+02 </wgt>
<wgt id='1554'> +2.9060419e+02 </wgt>
<wgt id='1555'> +2.9310029e+02 </wgt>
<wgt id='1556'> +2.9291661e+02 </wgt>
<wgt id='1557'> +2.9067687e+02 </wgt>
<wgt id='1558'> +2.9248859e+02 </wgt>
<wgt id='1559'> +2.9025049e+02 </wgt>
<wgt id='1560'> +2.9139280e+02 </wgt>
<wgt id='1561'> +2.9240849e+02 </wgt>
<wgt id='1562'> +2.9079820e+02 </wgt>
<wgt id='1563'> +2.9231032e+02 </wgt>
<wgt id='1564'> +2.9001541e+02 </wgt>
<wgt id='1565'> +2.9383195e+02 </wgt>
<wgt id='1566'> +2.9222566e+02 </wgt>
<wgt id='1567'> +2.9134813e+02 </wgt>
<wgt id='1568'> +2.9113030e+02 </wgt>
<wgt id='1569'> +2.9263415e+02 </wgt>
<wgt id='1570'> +2.8963363e+02 </wgt>
<wgt id='1571'> +2.9326615e+02 </wgt>
<wgt id='1572'> +2.8870917e+02 </wgt>
<wgt id='1573'> +2.9404310e+02 </wgt>
<wgt id='1574'> +2.9266849e+02 </wgt>
<wgt id='1575'> +2.9181218e+02 </wgt>
<wgt id='1576'> +2.9377236e+02 </wgt>
<wgt id='1577'> +2.8943128e+02 </wgt>
<wgt id='1578'> +2.9259624e+02 </wgt>
<wgt id='1579'> +2.9069784e+02 </wgt>
<wgt id='1580'> +2.9216006e+02 </wgt>
<wgt id='1581'> +2.9131842e+02 </wgt>
<wgt id='1582'> +2.9154424e+02 </wgt>
<wgt id='1583'> +2.9295825e+02 </wgt>
<wgt id='1584'> +2.9235340e+02 </wgt>
<wgt id='1585'> +2.9171608e+02 </wgt>
<wgt id='1586'> +2.9152898e+02 </wgt>
<wgt id='1587'> +2.9200108e+02 </wgt>
<wgt id='1588'> +2.9151135e+02 </wgt>
<wgt id='1589'> +2.9214063e+02 </wgt>
<wgt id='1590'> +2.9584807e+02 </wgt>
<wgt id='1591'> +2.8988885e+02 </wgt>
<wgt id='1592'> +2.9155822e+02 </wgt>
<wgt id='1593'> +2.9235098e+02 </wgt>
<wgt id='1594'> +2.9074268e+02 </wgt>
<wgt id='1595'> +2.9076835e+02 </wgt>
<wgt id='1596'> +2.9131211e+02 </wgt>
<wgt id='1597'> +2.9184241e+02 </wgt>
<wgt id='1598'> +2.8065309e+02 </wgt>
<wgt id='1599'> +2.8065289e+02 </wgt>
<wgt id='1600'> +2.8067951e+02 </wgt>
<wgt id='1601'> +2.8145042e+02 </wgt>
<wgt id='1602'> +2.7982494e+02 </wgt>
<wgt id='1603'> +2.8109202e+02 </wgt>
<wgt id='1604'> +2.8046648e+02 </wgt>
<wgt id='1605'> +2.7932370e+02 </wgt>
<wgt id='1606'> +2.8195096e+02 </wgt>
<wgt id='1607'> +2.8120553e+02 </wgt>
<wgt id='1608'> +2.8008271e+02 </wgt>
<wgt id='1609'> +2.7750163e+02 </wgt>
<wgt id='1610'> +2.8197199e+02 </wgt>
<wgt id='1611'> +2.8063963e+02 </wgt>
<wgt id='1612'> +2.8059925e+02 </wgt>
<wgt id='1613'> +2.7967759e+02 </wgt>
<wgt id='1614'> +2.8168744e+02 </wgt>
<wgt id='1615'> +2.7934817e+02 </wgt>
<wgt id='1616'> +2.8133258e+02 </wgt>
<wgt id='1617'> +2.8017742e+02 </wgt>
<wgt id='1618'> +2.8125634e+02 </wgt>
<wgt id='1619'> +2.8076088e+02 </wgt>
<wgt id='1620'> +2.8056651e+02 </wgt>
<wgt id='1621'> +2.8323198e+02 </wgt>
<wgt id='1622'> +2.7804230e+02 </wgt>
<wgt id='1623'> +2.8178705e+02 </wgt>
<wgt id='1624'> +2.7786525e+02 </wgt>
<wgt id='1625'> +2.8199675e+02 </wgt>
<wgt id='1626'> +2.8015213e+02 </wgt>
<wgt id='1627'> +2.7922432e+02 </wgt>
<wgt id='1628'> +2.8419508e+02 </wgt>
<wgt id='1629'> +2.8079577e+02 </wgt>
<wgt id='1630'> +2.8038879e+02 </wgt>
<wgt id='1631'> +2.8019608e+02 </wgt>
<wgt id='1632'> +2.8169337e+02 </wgt>
<wgt id='1633'> +2.8162488e+02 </wgt>
<wgt id='1634'> +2.8035897e+02 </wgt>
<wgt id='1635'> +2.8079010e+02 </wgt>
<wgt id='1636'> +2.8073263e+02 </wgt>
<wgt id='1637'> +2.8044065e+02 </wgt>
<wgt id='1638'> +2.8076900e+02 </wgt>
<wgt id='1639'> +2.8005351e+02 </wgt>
<wgt id='1640'> +2.8108554e+02 </wgt>
<wgt id='1641'> +2.8086755e+02 </wgt>
<wgt id='1642'> +2.7933378e+02 </wgt>
<wgt id='1643'> +2.7887410e+02 </wgt>
<wgt id='1644'> +2.8098698e+02 </wgt>
<wgt id='1645'> +2.8059651e+02 </wgt>
<wgt id='1646'> +2.8056582e+02 </wgt>
<wgt id='1647'> +2.8075948e+02 </wgt>
<wgt id='1648'> +2.7988199e+02 </wgt>
<wgt id='1649'> +4.7166295e+02 </wgt>
<wgt id='1650'> +2.8466001e+02 </wgt>
<wgt id='1651'> +2.8456384e+02 </wgt>
<wgt id='1652'> +2.8474133e+02 </wgt>
<wgt id='1653'> +2.8469039e+02 </wgt>
<wgt id='1654'> +2.8465140e+02 </wgt>
<wgt id='1655'> +2.8393751e+02 </wgt>
<wgt id='1656'> +2.8438643e+02 </wgt>
<wgt id='1657'> +2.8409759e+02 </wgt>
<wgt id='1658'> +2.8512728e+02 </wgt>
<wgt id='1659'> +2.8566251e+02 </wgt>
<wgt id='1660'> +2.8473302e+02 </wgt>
<wgt id='1661'> +2.8446909e+02 </wgt>
<wgt id='1662'> +2.8450152e+02 </wgt>
<wgt id='1663'> +2.8468037e+02 </wgt>
<wgt id='1664'> +2.8431844e+02 </wgt>
<wgt id='1665'> +2.8441602e+02 </wgt>
<wgt id='1666'> +2.8471199e+02 </wgt>
<wgt id='1667'> +2.8462951e+02 </wgt>
<wgt id='1668'> +2.8451750e+02 </wgt>
<wgt id='1669'> +2.8511815e+02 </wgt>
<wgt id='1670'> +2.8369698e+02 </wgt>
<wgt id='1671'> +2.8470870e+02 </wgt>
<wgt id='1672'> +2.8289654e+02 </wgt>
<wgt id='1673'> +2.8502765e+02 </wgt>
<wgt id='1674'> +2.8543669e+02 </wgt>
<wgt id='1675'> +2.8571628e+02 </wgt>
<wgt id='1676'> +2.8524593e+02 </wgt>
<wgt id='1677'> +2.8407737e+02 </wgt>
<wgt id='1678'> +2.8494107e+02 </wgt>
<wgt id='1679'> +2.8265038e+02 </wgt>
<wgt id='1680'> +2.8764312e+02 </wgt>
<wgt id='1681'> +2.8698511e+02 </wgt>
<wgt id='1682'> +2.8965110e+02 </wgt>
<wgt id='1683'> +2.8952020e+02 </wgt>
<wgt id='1684'> +2.8712510e+02 </wgt>
<wgt id='1685'> +2.8678253e+02 </wgt>
<wgt id='1686'> +2.8639209e+02 </wgt>
<wgt id='1687'> +2.9036611e+02 </wgt>
<wgt id='1688'> +2.9262493e+02 </wgt>
<wgt id='1689'> +2.8568423e+02 </wgt>
<wgt id='1690'> +2.9140986e+02 </wgt>
<wgt id='1691'> +2.8788887e+02 </wgt>
<wgt id='1692'> +2.8463606e+02 </wgt>
<wgt id='1693'> +2.8793560e+02 </wgt>
<wgt id='1694'> +2.8667633e+02 </wgt>
<wgt id='1695'> +2.8767300e+02 </wgt>
<wgt id='1696'> +2.8860709e+02 </wgt>
<wgt id='1697'> +2.8708001e+02 </wgt>
<wgt id='1698'> +2.8692235e+02 </wgt>
<wgt id='1699'> +2.8701204e+02 </wgt>
<wgt id='1700'> +2.8804702e+02 </wgt>
<wgt id='1701'> +2.8623272e+02 </wgt>
<wgt id='1702'> +2.8770689e+02 </wgt>
<wgt id='1703'> +2.8720008e+02 </wgt>
<wgt id='1704'> +2.8758274e+02 </wgt>
<wgt id='1705'> +2.8721531e+02 </wgt>
<wgt id='1706'> +2.8722055e+02 </wgt>
<wgt id='1707'> +2.8774320e+02 </wgt>
<wgt id='1708'> +2.8683708e+02 </wgt>
<wgt id='1709'> +2.8751921e+02 </wgt>
<wgt id='1710'> +2.8760548e+02 </wgt>
<wgt id='1711'> +2.8752546e+02 </wgt>
<wgt id='1712'> +2.8771691e+02 </wgt>
<wgt id='1713'> +2.8699088e+02 </wgt>
<wgt id='1714'> +2.8771941e+02 </wgt>
<wgt id='1715'> +2.8832341e+02 </wgt>
<wgt id='1716'> +2.8743085e+02 </wgt>
<wgt id='1717'> +2.8776065e+02 </wgt>
<wgt id='1718'> +2.8731610e+02 </wgt>
<wgt id='1719'> +2.8767212e+02 </wgt>
<wgt id='1720'> +2.8763627e+02 </wgt>
<wgt id='1721'> +2.8774439e+02 </wgt>
<wgt id='1722'> +2.8785803e+02 </wgt>
<wgt id='1723'> +2.8738715e+02 </wgt>
<wgt id='1724'> +2.8788099e+02 </wgt>
<wgt id='1725'> +2.8788589e+02 </wgt>
<wgt id='1726'> +2.8792445e+02 </wgt>
<wgt id='1727'> +2.8740238e+02 </wgt>
<wgt id='1728'> +2.8733711e+02 </wgt>
<wgt id='1729'> +2.8765600e+02 </wgt>
<wgt id='1730'> +2.8775672e+02 </wgt>
<wgt id='1731'> +2.8735857e+02 </wgt>
<wgt id='1732'> +2.8774238e+02 </wgt>
<wgt id='1733'> +2.8756834e+02 </wgt>
<wgt id='1734'> +2.8753851e+02 </wgt>
<wgt id='1735'> +2.8767959e+02 </wgt>
<wgt id='1736'> +2.8763119e+02 </wgt>
<wgt id='1737'> +2.8755124e+02 </wgt>
<wgt id='1738'> +2.8794275e+02 </wgt>
<wgt id='1739'> +2.8748494e+02 </wgt>
<wgt id='1740'> +2.8734032e+02 </wgt>
<wgt id='1741'> +2.8757169e+02 </wgt>
<wgt id='1742'> +2.8740378e+02 </wgt>
<wgt id='1743'> +2.8766135e+02 </wgt>
<wgt id='1744'> +2.8759272e+02 </wgt>
<wgt id='1745'> +2.8761127e+02 </wgt>
<wgt id='1746'> +2.8754409e+02 </wgt>
<wgt id='1747'> +2.8760867e+02 </wgt>
<wgt id='1748'> +2.8772879e+02 </wgt>
<wgt id='1749'> +2.8771011e+02 </wgt>
<wgt id='1750'> +2.8764602e+02 </wgt>
<wgt id='1751'> +2.8754305e+02 </wgt>
<wgt id='1752'> +2.8756846e+02 </wgt>
<wgt id='1753'> +2.8752319e+02 </wgt>
<wgt id='1754'> +2.8775285e+02 </wgt>
<wgt id='1755'> +2.8761466e+02 </wgt>
<wgt id='1756'> +2.8760508e+02 </wgt>
<wgt id='1757'> +2.8765930e+02 </wgt>
<wgt id='1758'> +2.8768575e+02 </wgt>
<wgt id='1759'> +2.8780146e+02 </wgt>
<wgt id='1760'> +2.8764817e+02 </wgt>
<wgt id='1761'> +2.8767379e+02 </wgt>
<wgt id='1762'> +2.8745050e+02 </wgt>
<wgt id='1763'> +2.8777091e+02 </wgt>
<wgt id='1764'> +2.8768375e+02 </wgt>
<wgt id='1765'> +2.8769398e+02 </wgt>
<wgt id='1766'> +2.8773988e+02 </wgt>
<wgt id='1767'> +2.8758207e+02 </wgt>
<wgt id='1768'> +2.8755816e+02 </wgt>
<wgt id='1769'> +2.8765989e+02 </wgt>
<wgt id='1770'> +2.8760375e+02 </wgt>
<wgt id='1771'> +2.8762917e+02 </wgt>
<wgt id='1772'> +2.8764197e+02 </wgt>
<wgt id='1773'> +2.8752718e+02 </wgt>
<wgt id='1774'> +2.8770231e+02 </wgt>
<wgt id='1775'> +2.8768614e+02 </wgt>
<wgt id='1776'> +2.8756558e+02 </wgt>
<wgt id='1777'> +2.8767423e+02 </wgt>
<wgt id='1778'> +2.8770743e+02 </wgt>
<wgt id='1779'> +2.8768510e+02 </wgt>
<wgt id='1780'> +2.8763882e+02 </wgt>
<wgt id='1781'> +2.8077000e+02 </wgt>
<wgt id='1782'> +2.9380593e+02 </wgt>
<wgt id='1783'> +2.8022058e+02 </wgt>
<wgt id='1784'> +2.8071782e+02 </wgt>
<wgt id='1785'> +2.8141746e+02 </wgt>
<wgt id='1786'> +2.7813774e+02 </wgt>
<wgt id='1787'> +2.7976335e+02 </wgt>
<wgt id='1788'> +2.8103230e+02 </wgt>
<wgt id='1789'> +2.7993222e+02 </wgt>
<wgt id='1790'> +2.8144130e+02 </wgt>
<wgt id='1791'> +2.8121501e+02 </wgt>
<wgt id='1792'> +2.7992088e+02 </wgt>
<wgt id='1793'> +2.7998431e+02 </wgt>
<wgt id='1794'> +2.8298384e+02 </wgt>
<wgt id='1795'> +2.7627389e+02 </wgt>
<wgt id='1796'> +2.7676766e+02 </wgt>
<wgt id='1797'> +2.7712749e+02 </wgt>
<wgt id='1798'> +2.8006776e+02 </wgt>
<wgt id='1799'> +2.8130862e+02 </wgt>
<wgt id='1800'> +2.8038927e+02 </wgt>
<wgt id='1801'> +2.7996727e+02 </wgt>
<wgt id='1802'> +2.7974694e+02 </wgt>
<wgt id='1803'> +2.8133714e+02 </wgt>
<wgt id='1804'> +2.7997531e+02 </wgt>
<wgt id='1805'> +2.8056743e+02 </wgt>
<wgt id='1806'> +2.7994197e+02 </wgt>
<wgt id='1807'> +2.7987359e+02 </wgt>
<wgt id='1808'> +2.8062135e+02 </wgt>
<wgt id='1809'> +2.8032213e+02 </wgt>
<wgt id='1810'> +2.7981587e+02 </wgt>
<wgt id='1811'> +2.8048804e+02 </wgt>
<wgt id='1812'> +2.8043146e+02 </wgt>
<wgt id='1813'> +2.8043169e+02 </wgt>
<wgt id='1814'> +2.8017293e+02 </wgt>
<wgt id='1815'> +2.8039218e+02 </wgt>
<wgt id='1816'> +2.8060785e+02 </wgt>
<wgt id='1817'> +2.8003439e+02 </wgt>
<wgt id='1818'> +2.8071763e+02 </wgt>
<wgt id='1819'> +2.8019078e+02 </wgt>
<wgt id='1820'> +2.8049713e+02 </wgt>
<wgt id='1821'> +2.8020672e+02 </wgt>
<wgt id='1822'> +2.8025273e+02 </wgt>
<wgt id='1823'> +2.7987391e+02 </wgt>
<wgt id='1824'> +2.8006352e+02 </wgt>
<wgt id='1825'> +2.8013415e+02 </wgt>
<wgt id='1826'> +2.8001399e+02 </wgt>
<wgt id='1827'> +2.8030593e+02 </wgt>
<wgt id='1828'> +2.8013638e+02 </wgt>
<wgt id='1829'> +2.7983094e+02 </wgt>
<wgt id='1830'> +2.8005153e+02 </wgt>
<wgt id='1831'> +2.8030723e+02 </wgt>
<wgt id='1832'> +2.8007231e+02 </wgt>
<wgt id='1833'> +2.8029227e+02 </wgt>
<wgt id='1834'> +2.8030524e+02 </wgt>
<wgt id='1835'> +2.8027603e+02 </wgt>
<wgt id='1836'> +2.8026894e+02 </wgt>
<wgt id='1837'> +2.8008228e+02 </wgt>
<wgt id='1838'> +2.8017283e+02 </wgt>
<wgt id='1839'> +2.8047937e+02 </wgt>
<wgt id='1840'> +2.8018508e+02 </wgt>
<wgt id='1841'> +2.8004736e+02 </wgt>
<wgt id='1842'> +2.8010777e+02 </wgt>
<wgt id='1843'> +2.8013908e+02 </wgt>
<wgt id='1844'> +2.8026468e+02 </wgt>
<wgt id='1845'> +2.8026406e+02 </wgt>
<wgt id='1846'> +2.8035234e+02 </wgt>
<wgt id='1847'> +2.8014539e+02 </wgt>
<wgt id='1848'> +2.8022027e+02 </wgt>
<wgt id='1849'> +2.8024806e+02 </wgt>
<wgt id='1850'> +2.8030767e+02 </wgt>
<wgt id='1851'> +2.8030891e+02 </wgt>
<wgt id='1852'> +2.8036301e+02 </wgt>
<wgt id='1853'> +2.8019614e+02 </wgt>
<wgt id='1854'> +2.8037859e+02 </wgt>
<wgt id='1855'> +2.8038205e+02 </wgt>
<wgt id='1856'> +2.8014333e+02 </wgt>
<wgt id='1857'> +2.8026060e+02 </wgt>
<wgt id='1858'> +2.8020132e+02 </wgt>
<wgt id='1859'> +2.8019692e+02 </wgt>
<wgt id='1860'> +2.8026144e+02 </wgt>
<wgt id='1861'> +2.8024953e+02 </wgt>
<wgt id='1862'> +2.8017575e+02 </wgt>
<wgt id='1863'> +2.8038444e+02 </wgt>
<wgt id='1864'> +2.8018950e+02 </wgt>
<wgt id='1865'> +2.8028052e+02 </wgt>
<wgt id='1866'> +2.8013390e+02 </wgt>
<wgt id='1867'> +2.8015340e+02 </wgt>
<wgt id='1868'> +2.8016183e+02 </wgt>
<wgt id='1869'> +2.8024547e+02 </wgt>
<wgt id='1870'> +2.8007320e+02 </wgt>
<wgt id='1871'> +2.8017026e+02 </wgt>
<wgt id='1872'> +2.8016798e+02 </wgt>
<wgt id='1873'> +2.8026601e+02 </wgt>
<wgt id='1874'> +2.8020336e+02 </wgt>
<wgt id='1875'> +2.8021946e+02 </wgt>
<wgt id='1876'> +2.8017993e+02 </wgt>
<wgt id='1877'> +2.8021180e+02 </wgt>
<wgt id='1878'> +2.8025542e+02 </wgt>
<wgt id='1879'> +2.8016269e+02 </wgt>
<wgt id='1880'> +2.8023791e+02 </wgt>
<wgt id='1881'> +2.8022525e+02 </wgt>
<wgt id='1882'> +2.8016011e+02 </wgt>
<wgt id='1883'> +2.8021028e+02 </wgt>
<wgt id='1884'> +2.7467048e+02 </wgt>
<wgt id='1885'> +2.8507972e+02 </wgt>
<wgt id='1886'> +2.8758375e+02 </wgt>
<wgt id='1887'> +2.8856991e+02 </wgt>
<wgt id='1888'> +2.8777385e+02 </wgt>
<wgt id='1889'> +2.8768588e+02 </wgt>
<wgt id='1890'> +2.8938320e+02 </wgt>
<wgt id='1891'> +2.9521073e+02 </wgt>
<wgt id='1892'> +2.8770980e+02 </wgt>
<wgt id='1893'> +2.8748372e+02 </wgt>
<wgt id='1894'> +2.8803087e+02 </wgt>
<wgt id='1895'> +2.8722749e+02 </wgt>
<wgt id='1896'> +2.8760395e+02 </wgt>
<wgt id='1897'> +2.8754979e+02 </wgt>
<wgt id='1898'> +2.8696756e+02 </wgt>
<wgt id='1899'> +2.8743815e+02 </wgt>
<wgt id='1900'> +2.8777170e+02 </wgt>
<wgt id='1901'> +2.8806368e+02 </wgt>
<wgt id='1902'> +2.8787690e+02 </wgt>
<wgt id='1903'> +2.8457697e+02 </wgt>
<wgt id='1904'> +2.8783725e+02 </wgt>
<wgt id='1905'> +2.8719296e+02 </wgt>
<wgt id='1906'> +2.8776728e+02 </wgt>
<wgt id='1907'> +2.8764302e+02 </wgt>
<wgt id='1908'> +2.8750530e+02 </wgt>
<wgt id='1909'> +2.8772275e+02 </wgt>
<wgt id='1910'> +2.8760612e+02 </wgt>
<wgt id='1911'> +2.8740469e+02 </wgt>
<wgt id='1912'> +2.8753336e+02 </wgt>
<wgt id='1913'> +2.8756668e+02 </wgt>
<wgt id='1914'> +2.8801616e+02 </wgt>
<wgt id='1915'> +2.8795603e+02 </wgt>
<wgt id='1916'> +2.8749110e+02 </wgt>
<wgt id='1917'> +2.8077000e+02 </wgt>
<wgt id='1918'> +2.9380593e+02 </wgt>
<wgt id='1919'> +2.8017123e+02 </wgt>
<wgt id='1920'> +2.8072153e+02 </wgt>
<wgt id='1921'> +2.8093325e+02 </wgt>
<wgt id='1922'> +2.7983622e+02 </wgt>
<wgt id='1923'> +2.8079235e+02 </wgt>
<wgt id='1924'> +2.7640375e+02 </wgt>
<wgt id='1925'> +2.8011307e+02 </wgt>
<wgt id='1926'> +2.7956333e+02 </wgt>
<wgt id='1927'> +2.7939167e+02 </wgt>
<wgt id='1928'> +2.7894725e+02 </wgt>
<wgt id='1929'> +2.8233304e+02 </wgt>
<wgt id='1930'> +2.7879076e+02 </wgt>
<wgt id='1931'> +2.8040599e+02 </wgt>
<wgt id='1932'> +2.8120954e+02 </wgt>
<wgt id='1933'> +2.7943332e+02 </wgt>
<wgt id='1934'> +2.7983571e+02 </wgt>
<wgt id='1935'> +2.7990865e+02 </wgt>
<wgt id='1936'> +2.8225254e+02 </wgt>
<wgt id='1937'> +2.8022632e+02 </wgt>
<wgt id='1938'> +2.8010790e+02 </wgt>
<wgt id='1939'> +2.8044583e+02 </wgt>
<wgt id='1940'> +2.8103131e+02 </wgt>
<wgt id='1941'> +2.8514855e+02 </wgt>
<wgt id='1942'> +2.8004164e+02 </wgt>
<wgt id='1943'> +2.7999568e+02 </wgt>
<wgt id='1944'> +2.7943202e+02 </wgt>
<wgt id='1945'> +2.8019670e+02 </wgt>
<wgt id='1946'> +2.8012678e+02 </wgt>
<wgt id='1947'> +2.8009182e+02 </wgt>
<wgt id='1948'> +2.8003854e+02 </wgt>
<wgt id='1949'> +2.8022222e+02 </wgt>
<wgt id='1950'> +2.7467048e+02 </wgt>
<wgt id='1951'> +2.8507972e+02 </wgt>
<wgt id='1952'> +3.0819831e+02 </wgt>
<wgt id='1953'> +3.0779552e+02 </wgt>
<wgt id='1954'> +3.0859846e+02 </wgt>
<wgt id='1955'> +3.0909715e+02 </wgt>
<wgt id='1956'> +3.0730068e+02 </wgt>
<wgt id='1957'> +3.0865652e+02 </wgt>
<wgt id='1958'> +3.0773973e+02 </wgt>
<wgt id='1959'> +3.0875553e+02 </wgt>
<wgt id='1960'> +3.0766031e+02 </wgt>
<wgt id='1961'> +3.0880423e+02 </wgt>
<wgt id='1962'> +3.0760117e+02 </wgt>
<wgt id='1963'> +3.0783401e+02 </wgt>
<wgt id='1964'> +3.0854293e+02 </wgt>
<wgt id='1965'> +3.0704714e+02 </wgt>
<wgt id='1966'> +3.0935732e+02 </wgt>
<wgt id='1967'> +3.0827847e+02 </wgt>
<wgt id='1968'> +3.0792454e+02 </wgt>
<wgt id='1969'> +3.0900334e+02 </wgt>
<wgt id='1970'> +3.0709119e+02 </wgt>
<wgt id='1971'> +3.0717835e+02 </wgt>
<wgt id='1972'> +3.0925774e+02 </wgt>
<wgt id='1973'> +3.0942824e+02 </wgt>
<wgt id='1974'> +3.0655284e+02 </wgt>
<wgt id='1975'> +3.0708843e+02 </wgt>
<wgt id='1976'> +3.0763459e+02 </wgt>
<wgt id='1977'> +3.0908795e+02 </wgt>
<wgt id='1978'> +3.0779598e+02 </wgt>
<wgt id='1979'> +3.0748741e+02 </wgt>
<wgt id='1980'> +3.0918301e+02 </wgt>
<wgt id='1981'> +3.0819831e+02 </wgt>
<wgt id='1982'> +3.0779103e+02 </wgt>
<wgt id='1983'> +3.0856502e+02 </wgt>
<wgt id='1984'> +3.0770404e+02 </wgt>
<wgt id='1985'> +3.0845370e+02 </wgt>
<wgt id='1986'> +3.0917926e+02 </wgt>
<wgt id='1987'> +3.0593658e+02 </wgt>
<wgt id='1988'> +3.0691026e+02 </wgt>
<wgt id='1989'> +3.0938084e+02 </wgt>
<wgt id='1990'> +3.0708937e+02 </wgt>
<wgt id='1991'> +3.0939155e+02 </wgt>
<wgt id='1992'> +3.0821336e+02 </wgt>
<wgt id='1993'> +3.0916781e+02 </wgt>
<wgt id='1994'> +3.0548713e+02 </wgt>
<wgt id='1995'> +2.8535311e+02 </wgt>
<wgt id='1996'> +2.8516514e+02 </wgt>
<wgt id='1997'> +2.8550916e+02 </wgt>
<wgt id='1998'> +2.8587403e+02 </wgt>
<wgt id='1999'> +2.8480159e+02 </wgt>
<wgt id='2000'> +2.8607906e+02 </wgt>
<wgt id='2001'> +2.8459760e+02 </wgt>
<wgt id='2002'> +2.8634311e+02 </wgt>
<wgt id='2003'> +2.8435383e+02 </wgt>
<wgt id='2004'> +2.8558782e+02 </wgt>
<wgt id='2005'> +2.8509523e+02 </wgt>
<wgt id='2006'> +2.8597524e+02 </wgt>
<wgt id='2007'> +2.8470005e+02 </wgt>
<wgt id='2008'> +2.8445548e+02 </wgt>
<wgt id='2009'> +2.8622753e+02 </wgt>
<wgt id='2010'> +2.8503383e+02 </wgt>
<wgt id='2011'> +2.8569479e+02 </wgt>
<wgt id='2012'> +2.8505487e+02 </wgt>
<wgt id='2013'> +2.8554780e+02 </wgt>
<wgt id='2014'> +2.8497115e+02 </wgt>
<wgt id='2015'> +2.8566880e+02 </wgt>
<wgt id='2016'> +2.8283859e+02 </wgt>
<wgt id='2017'> +2.8737413e+02 </wgt>
<wgt id='2018'> +2.8544810e+02 </wgt>
<wgt id='2019'> +2.8517479e+02 </wgt>
<wgt id='2020'> +2.8494107e+02 </wgt>
<wgt id='2021'> +2.8495899e+02 </wgt>
<wgt id='2022'> +2.8561460e+02 </wgt>
<wgt id='2023'> +2.8539994e+02 </wgt>
<wgt id='2024'> +2.8537410e+02 </wgt>
<wgt id='2025'> +2.8529604e+02 </wgt>
<wgt id='2026'> +2.8492651e+02 </wgt>
<wgt id='2027'> +2.8519573e+02 </wgt>
<wgt id='2028'> +2.8536514e+02 </wgt>
<wgt id='2029'> +2.8496254e+02 </wgt>
<wgt id='2030'> +2.8619268e+02 </wgt>
<wgt id='2031'> +2.8429427e+02 </wgt>
<wgt id='2032'> +2.8685472e+02 </wgt>
<wgt id='2033'> +2.8423499e+02 </wgt>
<wgt id='2034'> +2.8663056e+02 </wgt>
<wgt id='2035'> +2.8463701e+02 </wgt>
<wgt id='2036'> +2.8756557e+02 </wgt>
<wgt id='2037'> +2.8357836e+02 </wgt>
<wgt id='2038'> +2.8649140e+02 </wgt>
<wgt id='2039'> +2.8644327e+02 </wgt>
<wgt id='2040'> +2.8639385e+02 </wgt>
<wgt id='2041'> +2.8634879e+02 </wgt>
<wgt id='2042'> +2.8629912e+02 </wgt>
<wgt id='2043'> +2.8625216e+02 </wgt>
<wgt id='2044'> +2.8620211e+02 </wgt>
<wgt id='2045'> +2.8615441e+02 </wgt>
<wgt id='2046'> +2.8610924e+02 </wgt>
<wgt id='2047'> +2.8606027e+02 </wgt>
<wgt id='2048'> +2.8601090e+02 </wgt>
<wgt id='2049'> +2.8596564e+02 </wgt>
<wgt id='2050'> +2.8591728e+02 </wgt>
<wgt id='2051'> +2.8586907e+02 </wgt>
<wgt id='2052'> +2.8582158e+02 </wgt>
<wgt id='2053'> +2.8577352e+02 </wgt>
<wgt id='2054'> +2.8572510e+02 </wgt>
<wgt id='2055'> +2.8567862e+02 </wgt>
<wgt id='2056'> +2.8563002e+02 </wgt>
<wgt id='2057'> +2.8558179e+02 </wgt>
<wgt id='2058'> +2.8553468e+02 </wgt>
<wgt id='2059'> +2.8548614e+02 </wgt>
<wgt id='2060'> +2.8543799e+02 </wgt>
<wgt id='2061'> +2.8539042e+02 </wgt>
<wgt id='2062'> +2.8534321e+02 </wgt>
<wgt id='2063'> +2.8529445e+02 </wgt>
<wgt id='2064'> +2.8524581e+02 </wgt>
<wgt id='2065'> +2.8520066e+02 </wgt>
<wgt id='2066'> +2.8515180e+02 </wgt>
<wgt id='2067'> +2.8510311e+02 </wgt>
<wgt id='2068'> +2.8505693e+02 </wgt>
<wgt id='2069'> +2.7663331e+02 </wgt>
<wgt id='2070'> +2.7710554e+02 </wgt>
<wgt id='2071'> +2.7780998e+02 </wgt>
<wgt id='2072'> +2.7458004e+02 </wgt>
<wgt id='2073'> +2.7618417e+02 </wgt>
<wgt id='2074'> +2.7744667e+02 </wgt>
<wgt id='2075'> +2.7636119e+02 </wgt>
<wgt id='2076'> +2.7784422e+02 </wgt>
<wgt id='2077'> +2.7761366e+02 </wgt>
<wgt id='2078'> +2.7634127e+02 </wgt>
<wgt id='2079'> +2.7639942e+02 </wgt>
<wgt id='2080'> +2.7938248e+02 </wgt>
<wgt id='2081'> +2.7274492e+02 </wgt>
<wgt id='2082'> +2.7324108e+02 </wgt>
<wgt id='2083'> +2.7357527e+02 </wgt>
<wgt id='2084'> +2.7644920e+02 </wgt>
<wgt id='2085'> +2.7773217e+02 </wgt>
<wgt id='2086'> +2.7678667e+02 </wgt>
<wgt id='2087'> +2.7637580e+02 </wgt>
<wgt id='2088'> +2.7617991e+02 </wgt>
<wgt id='2089'> +2.7775198e+02 </wgt>
<wgt id='2090'> +2.7635566e+02 </wgt>
<wgt id='2091'> +2.7698670e+02 </wgt>
<wgt id='2092'> +2.7634230e+02 </wgt>
<wgt id='2093'> +2.7627394e+02 </wgt>
<wgt id='2094'> +2.7702953e+02 </wgt>
<wgt id='2095'> +2.7671881e+02 </wgt>
<wgt id='2096'> +2.7623537e+02 </wgt>
<wgt id='2097'> +2.7691030e+02 </wgt>
<wgt id='2098'> +2.7683329e+02 </wgt>
<wgt id='2099'> +2.7684090e+02 </wgt>
<wgt id='2100'> +2.7659661e+02 </wgt>
<wgt id='2101'> +2.7679524e+02 </wgt>
<wgt id='2102'> +2.7701397e+02 </wgt>
<wgt id='2103'> +2.7645282e+02 </wgt>
<wgt id='2104'> +2.7712620e+02 </wgt>
<wgt id='2105'> +2.7660311e+02 </wgt>
<wgt id='2106'> +2.7691251e+02 </wgt>
<wgt id='2107'> +2.7661940e+02 </wgt>
<wgt id='2108'> +2.7666083e+02 </wgt>
<wgt id='2109'> +2.7628864e+02 </wgt>
<wgt id='2110'> +2.7647255e+02 </wgt>
<wgt id='2111'> +2.7654526e+02 </wgt>
<wgt id='2112'> +2.7643578e+02 </wgt>
<wgt id='2113'> +2.7671932e+02 </wgt>
<wgt id='2114'> +2.7654779e+02 </wgt>
<wgt id='2115'> +2.7624822e+02 </wgt>
<wgt id='2116'> +2.7646416e+02 </wgt>
<wgt id='2117'> +2.7671826e+02 </wgt>
<wgt id='2118'> +2.7648271e+02 </wgt>
<wgt id='2119'> +2.7670713e+02 </wgt>
<wgt id='2120'> +2.7671730e+02 </wgt>
<wgt id='2121'> +2.7668910e+02 </wgt>
<wgt id='2122'> +2.7668377e+02 </wgt>
<wgt id='2123'> +2.7649774e+02 </wgt>
<wgt id='2124'> +2.7658483e+02 </wgt>
<wgt id='2125'> +2.7688656e+02 </wgt>
<wgt id='2126'> +2.7659778e+02 </wgt>
<wgt id='2127'> +2.7646766e+02 </wgt>
<wgt id='2128'> +2.7652487e+02 </wgt>
<wgt id='2129'> +2.7655470e+02 </wgt>
<wgt id='2130'> +2.7667607e+02 </wgt>
<wgt id='2131'> +2.7667378e+02 </wgt>
<wgt id='2132'> +2.7676317e+02 </wgt>
<wgt id='2133'> +2.7656027e+02 </wgt>
<wgt id='2134'> +2.7663402e+02 </wgt>
<wgt id='2135'> +2.7666133e+02 </wgt>
<wgt id='2136'> +2.7671983e+02 </wgt>
<wgt id='2137'> +2.7671985e+02 </wgt>
<wgt id='2138'> +2.7677282e+02 </wgt>
<wgt id='2139'> +2.7660574e+02 </wgt>
<wgt id='2140'> +2.7678998e+02 </wgt>
<wgt id='2141'> +2.7679217e+02 </wgt>
<wgt id='2142'> +2.7655621e+02 </wgt>
<wgt id='2143'> +2.7667200e+02 </wgt>
<wgt id='2144'> +2.7661485e+02 </wgt>
<wgt id='2145'> +2.7661341e+02 </wgt>
<wgt id='2146'> +2.7667097e+02 </wgt>
<wgt id='2147'> +2.7666431e+02 </wgt>
<wgt id='2148'> +2.7658801e+02 </wgt>
<wgt id='2149'> +2.7679386e+02 </wgt>
<wgt id='2150'> +2.7660444e+02 </wgt>
<wgt id='2151'> +2.7669275e+02 </wgt>
<wgt id='2152'> +2.7654744e+02 </wgt>
<wgt id='2153'> +2.7656371e+02 </wgt>
<wgt id='2154'> +2.7657574e+02 </wgt>
<wgt id='2155'> +2.7666151e+02 </wgt>
<wgt id='2156'> +2.7648553e+02 </wgt>
<wgt id='2157'> +2.7658225e+02 </wgt>
<wgt id='2158'> +2.7657825e+02 </wgt>
<wgt id='2159'> +2.7667683e+02 </wgt>
<wgt id='2160'> +2.7661440e+02 </wgt>
<wgt id='2161'> +2.7663077e+02 </wgt>
<wgt id='2162'> +2.7659344e+02 </wgt>
<wgt id='2163'> +2.7662175e+02 </wgt>
<wgt id='2164'> +2.7666574e+02 </wgt>
<wgt id='2165'> +2.7657804e+02 </wgt>
<wgt id='2166'> +2.7664867e+02 </wgt>
<wgt id='2167'> +2.7663741e+02 </wgt>
<wgt id='2168'> +2.7657418e+02 </wgt>
<wgt id='2169'> +2.7662540e+02 </wgt>
<wgt id='2170'> +2.7662986e+02 </wgt>
<wgt id='2171'> +2.7661065e+02 </wgt>
<wgt id='2172'> +2.7663693e+02 </wgt>
<wgt id='2173'> +2.7663747e+02 </wgt>
<wgt id='2174'> +2.7664381e+02 </wgt>
<wgt id='2175'> +2.7663482e+02 </wgt>
<wgt id='2176'> +2.7661818e+02 </wgt>
<wgt id='2177'> +2.8345091e+02 </wgt>
<wgt id='2178'> +2.5672758e+02 </wgt>
<wgt id='2179'> +2.8467595e+02 </wgt>
<wgt id='2180'> +2.8286397e+02 </wgt>
<wgt id='2181'> +2.7957020e+02 </wgt>
<wgt id='2182'> +2.4913337e+02 </wgt>
<wgt id='2183'> +2.8451946e+02 </wgt>
<wgt id='2184'> +2.8800846e+02 </wgt>
<wgt id='2185'> +2.8211344e+02 </wgt>
<wgt id='2186'> +2.8359877e+02 </wgt>
<wgt id='2187'> +2.7680970e+02 </wgt>
<wgt id='2188'> +2.8310068e+02 </wgt>
<wgt id='2189'> +2.8810209e+02 </wgt>
<wgt id='2190'> +2.8846622e+02 </wgt>
<wgt id='2191'> +2.7828287e+02 </wgt>
<wgt id='2192'> +2.8621582e+02 </wgt>
<wgt id='2193'> +2.8720971e+02 </wgt>
<wgt id='2194'> +2.7915947e+02 </wgt>
<wgt id='2195'> +2.7942071e+02 </wgt>
<wgt id='2196'> +2.8573378e+02 </wgt>
<wgt id='2197'> +2.8587380e+02 </wgt>
<wgt id='2198'> +2.8487664e+02 </wgt>
<wgt id='2199'> +2.8317270e+02 </wgt>
<wgt id='2200'> +3.0516388e+02 </wgt>
<wgt id='2201'> +2.8198395e+02 </wgt>
<wgt id='2202'> +2.8744382e+02 </wgt>
<wgt id='2203'> +2.7787778e+02 </wgt>
<wgt id='2204'> +2.7999710e+02 </wgt>
<wgt id='2205'> +2.8188976e+02 </wgt>
<wgt id='2206'> +2.8020037e+02 </wgt>
<wgt id='2207'> +2.8898148e+02 </wgt>
<wgt id='2208'> +2.8364090e+02 </wgt>
<wgt id='2209'> +2.7695240e+02 </wgt>
<wgt id='2210'> +2.8858023e+02 </wgt>
<wgt id='2211'> +2.8629418e+02 </wgt>
<wgt id='2212'> +2.9142606e+02 </wgt>
<wgt id='2213'> +2.8952546e+02 </wgt>
<wgt id='2214'> +2.8768523e+02 </wgt>
<wgt id='2215'> +2.8121165e+02 </wgt>
<wgt id='2216'> +2.7224071e+02 </wgt>
<wgt id='2217'> +2.8836390e+02 </wgt>
<wgt id='2218'> +2.8170685e+02 </wgt>
<wgt id='2219'> +2.8727107e+02 </wgt>
<wgt id='2220'> +2.8735216e+02 </wgt>
<wgt id='2221'> +2.8206106e+02 </wgt>
<wgt id='2222'> +2.8830727e+02 </wgt>
<wgt id='2223'> +2.8524974e+02 </wgt>
<wgt id='2224'> +2.7846584e+02 </wgt>
<wgt id='2225'> +2.7795898e+02 </wgt>
<wgt id='2226'> +2.8448134e+02 </wgt>
<wgt id='2227'> +2.8448723e+02 </wgt>
<wgt id='2228'> +2.8381443e+02 </wgt>
<wgt id='2229'> +2.8298480e+02 </wgt>
<wgt id='2230'> +2.8857070e+02 </wgt>
<wgt id='2231'> +2.8399229e+02 </wgt>
<wgt id='2232'> +2.8370774e+02 </wgt>
<wgt id='2233'> +2.7627855e+02 </wgt>
<wgt id='2234'> +2.9204315e+02 </wgt>
<wgt id='2235'> +2.8184517e+02 </wgt>
<wgt id='2236'> +2.8736394e+02 </wgt>
<wgt id='2237'> +2.8214939e+02 </wgt>
<wgt id='2238'> +2.8514359e+02 </wgt>
<wgt id='2239'> +2.8412710e+02 </wgt>
<wgt id='2240'> +2.8855864e+02 </wgt>
<wgt id='2241'> +2.7939056e+02 </wgt>
<wgt id='2242'> +2.8619810e+02 </wgt>
<wgt id='2243'> +2.8676238e+02 </wgt>
<wgt id='2244'> +2.9595066e+02 </wgt>
<wgt id='2245'> +2.7968357e+02 </wgt>
<wgt id='2246'> +2.7725504e+02 </wgt>
<wgt id='2247'> +2.8475995e+02 </wgt>
<wgt id='2248'> +2.8959887e+02 </wgt>
<wgt id='2249'> +2.8223165e+02 </wgt>
<wgt id='2250'> +2.6112970e+02 </wgt>
<wgt id='2251'> +2.8688063e+02 </wgt>
<wgt id='2252'> +2.8030972e+02 </wgt>
<wgt id='2253'> +2.7874944e+02 </wgt>
<wgt id='2254'> +2.8803689e+02 </wgt>
<wgt id='2255'> +2.9410451e+02 </wgt>
<wgt id='2256'> +2.8106184e+02 </wgt>
<wgt id='2257'> +2.8587228e+02 </wgt>
<wgt id='2258'> +2.8618205e+02 </wgt>
<wgt id='2259'> +2.8125255e+02 </wgt>
<wgt id='2260'> +2.8309676e+02 </wgt>
<wgt id='2261'> +2.8412403e+02 </wgt>
<wgt id='2262'> +2.7616497e+02 </wgt>
<wgt id='2263'> +2.8304728e+02 </wgt>
<wgt id='2264'> +2.8393776e+02 </wgt>
<wgt id='2265'> +2.8338560e+02 </wgt>
<wgt id='2266'> +2.8772115e+02 </wgt>
<wgt id='2267'> +2.8300736e+02 </wgt>
<wgt id='2268'> +2.7549286e+02 </wgt>
<wgt id='2269'> +2.8894935e+02 </wgt>
<wgt id='2270'> +2.8048588e+02 </wgt>
<wgt id='2271'> +2.9115785e+02 </wgt>
<wgt id='2272'> +2.7953166e+02 </wgt>
<wgt id='2273'> +2.8706171e+02 </wgt>
<wgt id='2274'> +2.8390620e+02 </wgt>
<wgt id='2275'> +2.9411470e+02 </wgt>
<wgt id='2276'> +2.8968374e+02 </wgt>
<wgt id='2277'> +2.8354070e+02 </wgt>
<wgt id='2278'> +2.7791195e+02 </wgt>
<wgt id='2279'> +2.8660671e+02 </wgt>
<wgt id='2280'> +2.8169864e+02 </wgt>
<wgt id='2281'> +3.5196361e+02 </wgt>
<wgt id='2282'> +4.3907574e+02 </wgt>
<wgt id='2283'> +3.4536859e+02 </wgt>
<wgt id='2284'> +4.2894387e+02 </wgt>
</rwgt>
</event>
<event npLO=" -1 " npNLO=" 1 ">
 4      1 +2.8781417e+02 4.97971270e+01 7.54677110e-03 1.08220850e-01
       21 -1    0    0  502  501 +0.0000000000e+00 +0.0000000000e+00 +3.8636872000e+01 3.8636872000e+01 0.0000000000e+00 0.0000e+00 9.0000e+00
       21 -1    0    0  503  502 +0.0000000000e+00 +0.0000000000e+00 -5.5314782000e+02 5.5314782000e+02 0.0000000000e+00 0.0000e+00 9.0000e+00
       25  1    1    2    0    0 +3.5536630000e+01 -1.2409566000e+02 -2.8466614000e+02 3.2817281000e+02 1.0000000000e+02 0.0000e+00 9.0000e+00
       21  1    1    2  503  501 -3.5536630000e+01 +1.2409566000e+02 -2.2984481000e+02 2.6361188000e+02 0.0000000000e+00 0.0000e+00 9.0000e+00
#aMCatNLO 1  0  0  2  4 0.41246581E+02 0.00000000E+00 -9  5  0 0.00000000E+00 0.00000000E+00 0.00000000E+00 0.00000000E+00 0.00000000E+00
<rwgt>
<wgt id='1001'> +2.8781417e+02 </wgt>
<wgt id='1002'> +2.1187880e+02 </wgt>
<wgt id='1003'> +4.0484614e+02 </wgt>
<wgt id='1004'> +3.2529029e+02 </wgt>
<wgt id='1005'> +2.3742351e+02 </wgt>
<wgt id='1006'> +4.6204011e+02 </wgt>
<wgt id='1007'> +2.4678293e+02 </wgt>
<wgt id='1008'> +1.8378210e+02 </wgt>
<wgt id='1009'> +3.4250840e+02 </wgt>
<wgt id='1010'> +2.8781417e+02 </wgt>
<wgt id='1011'> +2.8752261e+02 </wgt>
<wgt id='1012'> +2.8748105e+02 </wgt>
<wgt id='1013'> +2.8894441e+02 </wgt>
<wgt id='1014'> +2.8828457e+02 </wgt>
<wgt id='1015'> +2.8776488e+02 </wgt>
<wgt id='1016'> +2.8833809e+02 </wgt>
<wgt id='1017'> +2.8830455e+02 </wgt>
<wgt id='1018'> +2.8836625e+02 </wgt>
<wgt id='1019'> +2.8759278e+02 </wgt>
<wgt id='1020'> +2.8786526e+02 </wgt>
<wgt id='1021'> +2.8788121e+02 </wgt>
<wgt id='1022'> +2.8758177e+02 </wgt>
<wgt id='1023'> +2.8774521e+02 </wgt>
<wgt id='1024'> +2.8787274e+02 </wgt>
<wgt id='1025'> +2.8809268e+02 </wgt>
<wgt id='1026'> +2.8749561e+02 </wgt>
<wgt id='1027'> +2.8816006e+02 </wgt>
<wgt id='1028'> +2.8787496e+02 </wgt>
<wgt id='1029'> +2.8664881e+02 </wgt>
<wgt id='1030'> +2.8836653e+02 </wgt>
<wgt id='1031'> +2.8733551e+02 </wgt>
<wgt id='1032'> +2.8823072e+02 </wgt>
<wgt id='1033'> +2.8807391e+02 </wgt>
<wgt id='1034'> +2.8751029e+02 </wgt>
<wgt id='1035'> +2.8738493e+02 </wgt>
<wgt id='1036'> +2.8733074e+02 </wgt>
<wgt id='1037'> +2.8685556e+02 </wgt>
<wgt id='1038'> +2.8797567e+02 </wgt>
<wgt id='1039'> +2.8645912e+02 </wgt>
<wgt id='1040'> +2.8793319e+02 </wgt>
<wgt id='1041'> +2.8691659e+02 </wgt>
<wgt id='1042'> +2.8827549e+02 </wgt>
<wgt id='1043'> +2.8733998e+02 </wgt>
<wgt id='1044'> +2.8730938e+02 </wgt>
<wgt id='1045'> +2.8768106e+02 </wgt>
<wgt id='1046'> +2.8841777e+02 </wgt>
<wgt id='1047'> +2.8783150e+02 </wgt>
<wgt id='1048'> +2.8764972e+02 </wgt>
<wgt id='1049'> +2.8777177e+02 </wgt>
<wgt id='1050'> +2.8772930e+02 </wgt>
<wgt id='1051'> +2.8770616e+02 </wgt>
<wgt id='1052'> +2.8812065e+02 </wgt>
<wgt id='1053'> +2.8752951e+02 </wgt>
<wgt id='1054'> +2.8802890e+02 </wgt>
<wgt id='1055'> +2.8773666e+02 </wgt>
<wgt id='1056'> +2.8783687e+02 </wgt>
<wgt id='1057'> +2.8780865e+02 </wgt>
<wgt id='1058'> +2.8773457e+02 </wgt>
<wgt id='1059'> +2.8758961e+02 </wgt>
<wgt id='1060'> +2.8772628e+02 </wgt>
<wgt id='1061'> +2.8772372e+02 </wgt>
<wgt id='1062'> +2.8799711e+02 </wgt>
<wgt id='1063'> +2.8777807e+02 </wgt>
<wgt id='1064'> +2.8782355e+02 </wgt>
<wgt id='1065'> +2.8790466e+02 </wgt>
<wgt id='1066'> +2.8762562e+02 </wgt>
<wgt id='1067'> +2.8791267e+02 </wgt>
<wgt id='1068'> +2.8784021e+02 </wgt>
<wgt id='1069'> +2.8775010e+02 </wgt>
<wgt id='1070'> +2.8782604e+02 </wgt>
<wgt id='1071'> +2.8775426e+02 </wgt>
<wgt id='1072'> +2.8800172e+02 </wgt>
<wgt id='1073'> +2.8788056e+02 </wgt>
<wgt id='1074'> +2.8786452e+02 </wgt>
<wgt id='1075'> +2.8805280e+02 </wgt>
<wgt id='1076'> +2.8778567e+02 </wgt>
<wgt id='1077'> +2.8787655e+02 </wgt>
<wgt id='1078'> +2.8784614e+02 </wgt>
<wgt id='1079'> +2.8782657e+02 </wgt>
<wgt id='1080'> +2.8783280e+02 </wgt>
<wgt id='1081'> +2.8780761e+02 </wgt>
<wgt id='1082'> +2.8780872e+02 </wgt>
<wgt id='1083'> +2.8784837e+02 </wgt>
<wgt id='1084'> +2.8779973e+02 </wgt>
<wgt id='1085'> +2.8774367e+02 </wgt>
<wgt id='1086'> +2.8776593e+02 </wgt>
<wgt id='1087'> +2.8795902e+02 </wgt>
<wgt id='1088'> +2.8785171e+02 </wgt>
<wgt id='1089'> +2.8776132e+02 </wgt>
<wgt id='1090'> +2.8787194e+02 </wgt>
<wgt id='1091'> +2.8778635e+02 </wgt>
<wgt id='1092'> +2.8784925e+02 </wgt>
<wgt id='1093'> +2.8789693e+02 </wgt>
<wgt id='1094'> +2.8783929e+02 </wgt>
<wgt id='1095'> +2.8782342e+02 </wgt>
<wgt id='1096'> +2.8776100e+02 </wgt>
<wgt id='1097'> +2.8786312e+02 </wgt>
<wgt id='1098'> +2.8780054e+02 </wgt>
<wgt id='1099'> +2.8777827e+02 </wgt>
<wgt id='1100'> +2.8785181e+02 </wgt>
<wgt id='1101'> +2.8781849e+02 </wgt>
<wgt id='1102'> +2.8787115e+02 </wgt>
<wgt id='1103'> +2.8776692e+02 </wgt>
<wgt id='1104'> +2.8782099e+02 </wgt>
<wgt id='1105'> +2.8787118e+02 </wgt>
<wgt id='1106'> +2.8777787e+02 </wgt>
<wgt id='1107'> +2.8785806e+02 </wgt>
<wgt id='1108'> +2.8780448e+02 </wgt>
<wgt id='1109'> +2.8786029e+02 </wgt>
<wgt id='1110'> +2.8781418e+02 </wgt>
<wgt id='1111'> +2.7395704e+02 </wgt>
<wgt id='1112'> +3.0227395e+02 </wgt>
<wgt id='1113'> +2.8781418e+02 </wgt>
<wgt id='1114'> +2.8642537e+02 </wgt>
<wgt id='1115'> +2.8242143e+02 </wgt>
<wgt id='1116'> +2.7681776e+02 </wgt>
<wgt id='1117'> +2.9001229e+02 </wgt>
<wgt id='1118'> +2.9057406e+02 </wgt>
<wgt id='1119'> +2.9314203e+02 </wgt>
<wgt id='1120'> +2.8695640e+02 </wgt>
<wgt id='1121'> +2.8758329e+02 </wgt>
<wgt id='1122'> +2.8571290e+02 </wgt>
<wgt id='1123'> +2.9258361e+02 </wgt>
<wgt id='1124'> +2.8886260e+02 </wgt>
<wgt id='1125'> +2.8904854e+02 </wgt>
<wgt id='1126'> +2.8708506e+02 </wgt>
<wgt id='1127'> +2.8729961e+02 </wgt>
<wgt id='1128'> +2.8467061e+02 </wgt>
<wgt id='1129'> +2.8871917e+02 </wgt>
<wgt id='1130'> +2.9316213e+02 </wgt>
<wgt id='1131'> +2.8923616e+02 </wgt>
<wgt id='1132'> +2.8330641e+02 </wgt>
<wgt id='1133'> +2.8709077e+02 </wgt>
<wgt id='1134'> +2.8188760e+02 </wgt>
<wgt id='1135'> +2.8293128e+02 </wgt>
<wgt id='1136'> +2.8359936e+02 </wgt>
<wgt id='1137'> +2.8923289e+02 </wgt>
<wgt id='1138'> +2.8528733e+02 </wgt>
<wgt id='1139'> +2.8741034e+02 </wgt>
<wgt id='1140'> +2.8269637e+02 </wgt>
<wgt id='1141'> +2.8491301e+02 </wgt>
<wgt id='1142'> +2.9084099e+02 </wgt>
<wgt id='1143'> +2.8861603e+02 </wgt>
<wgt id='1144'> +2.8608804e+02 </wgt>
<wgt id='1145'> +2.9084585e+02 </wgt>
<wgt id='1146'> +2.8481549e+02 </wgt>
<wgt id='1147'> +2.9201490e+02 </wgt>
<wgt id='1148'> +2.8854845e+02 </wgt>
<wgt id='1149'> +2.8816918e+02 </wgt>
<wgt id='1150'> +2.8774911e+02 </wgt>
<wgt id='1151'> +2.8973358e+02 </wgt>
<wgt id='1152'> +2.8351586e+02 </wgt>
<wgt id='1153'> +2.8888344e+02 </wgt>
<wgt id='1154'> +2.8983148e+02 </wgt>
<wgt id='1155'> +2.8899425e+02 </wgt>
<wgt id='1156'> +2.8900052e+02 </wgt>
<wgt id='1157'> +2.8779945e+02 </wgt>
<wgt id='1158'> +2.8899655e+02 </wgt>
<wgt id='1159'> +2.9074669e+02 </wgt>
<wgt id='1160'> +2.8511264e+02 </wgt>
<wgt id='1161'> +2.8910835e+02 </wgt>
<wgt id='1162'> +2.8285447e+02 </wgt>
<wgt id='1163'> +2.8920758e+02 </wgt>
<wgt id='1164'> +2.8490058e+02 </wgt>
<wgt id='1165'> +2.8507192e+02 </wgt>
<wgt id='1166'> +2.8577115e+02 </wgt>
<wgt id='1167'> +2.8291854e+02 </wgt>
<wgt id='1168'> +2.8903335e+02 </wgt>
<wgt id='1169'> +2.8837982e+02 </wgt>
<wgt id='1170'> +2.8646811e+02 </wgt>
<wgt id='1171'> +2.8779541e+02 </wgt>
<wgt id='1172'> +2.9107269e+02 </wgt>
<wgt id='1173'> +2.8819020e+02 </wgt>
<wgt id='1174'> +2.8556113e+02 </wgt>
<wgt id='1175'> +2.8721282e+02 </wgt>
<wgt id='1176'> +2.8945653e+02 </wgt>
<wgt id='1177'> +2.8925180e+02 </wgt>
<wgt id='1178'> +2.8698342e+02 </wgt>
<wgt id='1179'> +2.8997238e+02 </wgt>
<wgt id='1180'> +2.8227094e+02 </wgt>
<wgt id='1181'> +2.8794309e+02 </wgt>
<wgt id='1182'> +2.8870099e+02 </wgt>
<wgt id='1183'> +2.8568565e+02 </wgt>
<wgt id='1184'> +2.8721524e+02 </wgt>
<wgt id='1185'> +2.8105973e+02 </wgt>
<wgt id='1186'> +2.9070155e+02 </wgt>
<wgt id='1187'> +2.8667569e+02 </wgt>
<wgt id='1188'> +2.9150102e+02 </wgt>
<wgt id='1189'> +2.9048065e+02 </wgt>
<wgt id='1190'> +2.8908328e+02 </wgt>
<wgt id='1191'> +2.8165349e+02 </wgt>
<wgt id='1192'> +2.8782233e+02 </wgt>
<wgt id='1193'> +2.9131407e+02 </wgt>
<wgt id='1194'> +2.8662377e+02 </wgt>
<wgt id='1195'> +2.8871917e+02 </wgt>
<wgt id='1196'> +2.8872801e+02 </wgt>
<wgt id='1197'> +2.8829593e+02 </wgt>
<wgt id='1198'> +2.8212006e+02 </wgt>
<wgt id='1199'> +2.8721955e+02 </wgt>
<wgt id='1200'> +2.8878434e+02 </wgt>
<wgt id='1201'> +2.9336426e+02 </wgt>
<wgt id='1202'> +2.9952364e+02 </wgt>
<wgt id='1203'> +2.9149707e+02 </wgt>
<wgt id='1204'> +2.8797313e+02 </wgt>
<wgt id='1205'> +2.9229398e+02 </wgt>
<wgt id='1206'> +2.9024814e+02 </wgt>
<wgt id='1207'> +2.8937645e+02 </wgt>
<wgt id='1208'> +2.9166289e+02 </wgt>
<wgt id='1209'> +2.8373270e+02 </wgt>
<wgt id='1210'> +2.9054200e+02 </wgt>
<wgt id='1211'> +2.9232618e+02 </wgt>
<wgt id='1212'> +2.8746503e+02 </wgt>
<wgt id='1213'> +2.8943256e+02 </wgt>
<wgt id='1214'> +2.8803351e+02 </wgt>
<wgt id='1215'> +2.8780792e+02 </wgt>
<wgt id='1216'> +2.8862555e+02 </wgt>
<wgt id='1217'> +2.8842405e+02 </wgt>
<wgt id='1218'> +2.8866358e+02 </wgt>
<wgt id='1219'> +2.8780399e+02 </wgt>
<wgt id='1220'> +2.8746750e+02 </wgt>
<wgt id='1221'> +2.8788474e+02 </wgt>
<wgt id='1222'> +2.8798594e+02 </wgt>
<wgt id='1223'> +2.8812984e+02 </wgt>
<wgt id='1224'> +2.8771882e+02 </wgt>
<wgt id='1225'> +2.8815325e+02 </wgt>
<wgt id='1226'> +2.8817855e+02 </wgt>
<wgt id='1227'> +2.8801760e+02 </wgt>
<wgt id='1228'> +2.8771024e+02 </wgt>
<wgt id='1229'> +2.8788812e+02 </wgt>
<wgt id='1230'> +2.8804214e+02 </wgt>
<wgt id='1231'> +2.8786586e+02 </wgt>
<wgt id='1232'> +2.8761891e+02 </wgt>
<wgt id='1233'> +2.8811627e+02 </wgt>
<wgt id='1234'> +2.8743975e+02 </wgt>
<wgt id='1235'> +2.8838597e+02 </wgt>
<wgt id='1236'> +2.8736558e+02 </wgt>
<wgt id='1237'> +2.8814511e+02 </wgt>
<wgt id='1238'> +2.8742950e+02 </wgt>
<wgt id='1239'> +2.8770955e+02 </wgt>
<wgt id='1240'> +2.8851522e+02 </wgt>
<wgt id='1241'> +2.8760110e+02 </wgt>
<wgt id='1242'> +2.8750759e+02 </wgt>
<wgt id='1243'> +2.8972164e+02 </wgt>
<wgt id='1244'> +2.8801711e+02 </wgt>
<wgt id='1245'> +2.8831537e+02 </wgt>
<wgt id='1246'> +2.8780095e+02 </wgt>
<wgt id='1247'> +2.8809466e+02 </wgt>
<wgt id='1248'> +2.8906600e+02 </wgt>
<wgt id='1249'> +2.8785920e+02 </wgt>
<wgt id='1250'> +2.8800087e+02 </wgt>
<wgt id='1251'> +2.8879344e+02 </wgt>
<wgt id='1252'> +2.8780094e+02 </wgt>
<wgt id='1253'> +2.8711653e+02 </wgt>
<wgt id='1254'> +2.8770753e+02 </wgt>
<wgt id='1255'> +2.8781548e+02 </wgt>
<wgt id='1256'> +2.8799026e+02 </wgt>
<wgt id='1257'> +2.8779548e+02 </wgt>
<wgt id='1258'> +2.8843603e+02 </wgt>
<wgt id='1259'> +2.8777853e+02 </wgt>
<wgt id='1260'> +2.8854458e+02 </wgt>
<wgt id='1261'> +2.8845986e+02 </wgt>
<wgt id='1262'> +2.8772559e+02 </wgt>
<wgt id='1263'> +2.8786984e+02 </wgt>
<wgt id='1264'> +2.8828313e+02 </wgt>
<wgt id='1265'> +2.8838364e+02 </wgt>
<wgt id='1266'> +2.8802197e+02 </wgt>
<wgt id='1267'> +2.8822302e+02 </wgt>
<wgt id='1268'> +2.8827356e+02 </wgt>
<wgt id='1269'> +2.8803684e+02 </wgt>
<wgt id='1270'> +2.8803263e+02 </wgt>
<wgt id='1271'> +2.8820397e+02 </wgt>
<wgt id='1272'> +2.8805332e+02 </wgt>
<wgt id='1273'> +2.8790134e+02 </wgt>
<wgt id='1274'> +2.8796910e+02 </wgt>
<wgt id='1275'> +2.8800697e+02 </wgt>
<wgt id='1276'> +2.8824916e+02 </wgt>
<wgt id='1277'> +2.8792092e+02 </wgt>
<wgt id='1278'> +2.8802023e+02 </wgt>
<wgt id='1279'> +2.8824297e+02 </wgt>
<wgt id='1280'> +2.8800497e+02 </wgt>
<wgt id='1281'> +2.8808511e+02 </wgt>
<wgt id='1282'> +2.8811616e+02 </wgt>
<wgt id='1283'> +2.8798352e+02 </wgt>
<wgt id='1284'> +2.8789897e+02 </wgt>
<wgt id='1285'> +2.8784486e+02 </wgt>
<wgt id='1286'> +2.8805400e+02 </wgt>
<wgt id='1287'> +2.8804506e+02 </wgt>
<wgt id='1288'> +2.8780559e+02 </wgt>
<wgt id='1289'> +2.8809956e+02 </wgt>
<wgt id='1290'> +2.8797527e+02 </wgt>
<wgt id='1291'> +2.8798807e+02 </wgt>
<wgt id='1292'> +2.8806881e+02 </wgt>
<wgt id='1293'> +2.8812734e+02 </wgt>
<wgt id='1294'> +2.8797759e+02 </wgt>
<wgt id='1295'> +2.8805670e+02 </wgt>
<wgt id='1296'> +2.8804280e+02 </wgt>
<wgt id='1297'> +2.8805597e+02 </wgt>
<wgt id='1298'> +2.8800288e+02 </wgt>
<wgt id='1299'> +2.8796347e+02 </wgt>
<wgt id='1300'> +2.8805795e+02 </wgt>
<wgt id='1301'> +2.8804820e+02 </wgt>
<wgt id='1302'> +2.8807276e+02 </wgt>
<wgt id='1303'> +2.8808571e+02 </wgt>
<wgt id='1304'> +2.8812490e+02 </wgt>
<wgt id='1305'> +2.8798663e+02 </wgt>
<wgt id='1306'> +2.8805968e+02 </wgt>
<wgt id='1307'> +2.8803229e+02 </wgt>
<wgt id='1308'> +2.8801290e+02 </wgt>
<wgt id='1309'> +2.8800795e+02 </wgt>
<wgt id='1310'> +2.8800594e+02 </wgt>
<wgt id='1311'> +2.8813838e+02 </wgt>
<wgt id='1312'> +2.8793941e+02 </wgt>
<wgt id='1313'> +2.8813407e+02 </wgt>
<wgt id='1314'> +2.8799348e+02 </wgt>
<wgt id='1315'> +2.7395704e+02 </wgt>
<wgt id='1316'> +3.0227395e+02 </wgt>
<wgt id='1317'> +2.2375667e+02 </wgt>
<wgt id='1318'> +2.3595581e+02 </wgt>
<wgt id='1319'> +2.4765889e+02 </wgt>
<wgt id='1320'> +2.5966302e+02 </wgt>
<wgt id='1321'> +2.8110924e+02 </wgt>
<wgt id='1322'> +2.9499826e+02 </wgt>
<wgt id='1323'> +3.1631080e+02 </wgt>
<wgt id='1324'> +3.3099230e+02 </wgt>
<wgt id='1325'> +2.9219450e+02 </wgt>
<wgt id='1326'> +2.9268318e+02 </wgt>
<wgt id='1327'> +2.9148543e+02 </wgt>
<wgt id='1328'> +2.9233529e+02 </wgt>
<wgt id='1329'> +2.9300369e+02 </wgt>
<wgt id='1330'> +2.9229723e+02 </wgt>
<wgt id='1331'> +2.9213109e+02 </wgt>
<wgt id='1332'> +2.9218988e+02 </wgt>
<wgt id='1333'> +2.9196216e+02 </wgt>
<wgt id='1334'> +2.9201621e+02 </wgt>
<wgt id='1335'> +2.9181553e+02 </wgt>
<wgt id='1336'> +2.9224471e+02 </wgt>
<wgt id='1337'> +2.9261613e+02 </wgt>
<wgt id='1338'> +2.9185567e+02 </wgt>
<wgt id='1339'> +2.9209040e+02 </wgt>
<wgt id='1340'> +2.9244820e+02 </wgt>
<wgt id='1341'> +2.9213408e+02 </wgt>
<wgt id='1342'> +2.9193285e+02 </wgt>
<wgt id='1343'> +2.9211137e+02 </wgt>
<wgt id='1344'> +2.9305532e+02 </wgt>
<wgt id='1345'> +2.9292129e+02 </wgt>
<wgt id='1346'> +2.9300029e+02 </wgt>
<wgt id='1347'> +2.9224401e+02 </wgt>
<wgt id='1348'> +2.9253753e+02 </wgt>
<wgt id='1349'> +2.9257482e+02 </wgt>
<wgt id='1350'> +2.9264358e+02 </wgt>
<wgt id='1351'> +2.9174389e+02 </wgt>
<wgt id='1352'> +2.9234645e+02 </wgt>
<wgt id='1353'> +2.9200398e+02 </wgt>
<wgt id='1354'> +2.9129702e+02 </wgt>
<wgt id='1355'> +2.9401258e+02 </wgt>
<wgt id='1356'> +2.9312926e+02 </wgt>
<wgt id='1357'> +2.9225069e+02 </wgt>
<wgt id='1358'> +2.9295893e+02 </wgt>
<wgt id='1359'> +2.9215000e+02 </wgt>
<wgt id='1360'> +2.9397520e+02 </wgt>
<wgt id='1361'> +2.9264154e+02 </wgt>
<wgt id='1362'> +2.9180689e+02 </wgt>
<wgt id='1363'> +2.9230941e+02 </wgt>
<wgt id='1364'> +2.9247129e+02 </wgt>
<wgt id='1365'> +2.9144865e+02 </wgt>
<wgt id='1366'> +2.9231092e+02 </wgt>
<wgt id='1367'> +2.9204441e+02 </wgt>
<wgt id='1368'> +2.9177284e+02 </wgt>
<wgt id='1369'> +2.9241822e+02 </wgt>
<wgt id='1370'> +2.9240871e+02 </wgt>
<wgt id='1371'> +2.9258143e+02 </wgt>
<wgt id='1372'> +2.9225245e+02 </wgt>
<wgt id='1373'> +2.9198570e+02 </wgt>
<wgt id='1374'> +2.9205530e+02 </wgt>
<wgt id='1375'> +2.9182749e+02 </wgt>
<wgt id='1376'> +2.9260946e+02 </wgt>
<wgt id='1377'> +2.9204950e+02 </wgt>
<wgt id='1378'> +2.9231278e+02 </wgt>
<wgt id='1379'> +2.9232147e+02 </wgt>
<wgt id='1380'> +2.9195261e+02 </wgt>
<wgt id='1381'> +2.9232449e+02 </wgt>
<wgt id='1382'> +2.9235924e+02 </wgt>
<wgt id='1383'> +2.9189429e+02 </wgt>
<wgt id='1384'> +2.9238339e+02 </wgt>
<wgt id='1385'> +2.9237391e+02 </wgt>
<wgt id='1386'> +2.9264463e+02 </wgt>
<wgt id='1387'> +2.9234705e+02 </wgt>
<wgt id='1388'> +2.9220073e+02 </wgt>
<wgt id='1389'> +2.9211231e+02 </wgt>
<wgt id='1390'> +2.9217453e+02 </wgt>
<wgt id='1391'> +2.9232003e+02 </wgt>
<wgt id='1392'> +2.9190169e+02 </wgt>
<wgt id='1393'> +2.9227367e+02 </wgt>
<wgt id='1394'> +2.9197379e+02 </wgt>
<wgt id='1395'> +2.9202433e+02 </wgt>
<wgt id='1396'> +2.9211796e+02 </wgt>
<wgt id='1397'> +2.9240194e+02 </wgt>
<wgt id='1398'> +2.9221156e+02 </wgt>
<wgt id='1399'> +2.9217794e+02 </wgt>
<wgt id='1400'> +2.9233295e+02 </wgt>
<wgt id='1401'> +2.9214708e+02 </wgt>
<wgt id='1402'> +2.9211710e+02 </wgt>
<wgt id='1403'> +2.9232225e+02 </wgt>
<wgt id='1404'> +2.9215109e+02 </wgt>
<wgt id='1405'> +2.9216907e+02 </wgt>
<wgt id='1406'> +2.9214872e+02 </wgt>
<wgt id='1407'> +2.9221007e+02 </wgt>
<wgt id='1408'> +2.9211318e+02 </wgt>
<wgt id='1409'> +2.9205758e+02 </wgt>
<wgt id='1410'> +2.9228025e+02 </wgt>
<wgt id='1411'> +2.9222833e+02 </wgt>
<wgt id='1412'> +2.9218283e+02 </wgt>
<wgt id='1413'> +2.9211751e+02 </wgt>
<wgt id='1414'> +2.9221763e+02 </wgt>
<wgt id='1415'> +2.9226685e+02 </wgt>
<wgt id='1416'> +2.9218113e+02 </wgt>
<wgt id='1417'> +2.9213703e+02 </wgt>
<wgt id='1418'> +2.9220577e+02 </wgt>
<wgt id='1419'> +2.9222277e+02 </wgt>
<wgt id='1420'> +2.9220478e+02 </wgt>
<wgt id='1421'> +2.9212042e+02 </wgt>
<wgt id='1422'> +2.9215147e+02 </wgt>
<wgt id='1423'> +2.9209425e+02 </wgt>
<wgt id='1424'> +2.9220565e+02 </wgt>
<wgt id='1425'> +2.9223034e+02 </wgt>
<wgt id='1426'> +2.7800828e+02 </wgt>
<wgt id='1427'> +3.0635696e+02 </wgt>
<wgt id='1428'> +2.8375531e+02 </wgt>
<wgt id='1429'> +2.8388073e+02 </wgt>
<wgt id='1430'> +2.8389135e+02 </wgt>
<wgt id='1431'> +2.8370353e+02 </wgt>
<wgt id='1432'> +2.8297457e+02 </wgt>
<wgt id='1433'> +2.8125109e+02 </wgt>
<wgt id='1434'> +2.7910135e+02 </wgt>
<wgt id='1435'> +2.8138316e+02 </wgt>
<wgt id='1436'> +2.8459121e+02 </wgt>
<wgt id='1437'> +2.8278848e+02 </wgt>
<wgt id='1438'> +2.8364691e+02 </wgt>
<wgt id='1439'> +2.8481220e+02 </wgt>
<wgt id='1440'> +2.8281905e+02 </wgt>
<wgt id='1441'> +2.8576223e+02 </wgt>
<wgt id='1442'> +2.8499304e+02 </wgt>
<wgt id='1443'> +2.8393933e+02 </wgt>
<wgt id='1444'> +2.8287505e+02 </wgt>
<wgt id='1445'> +2.8085161e+02 </wgt>
<wgt id='1446'> +2.8679910e+02 </wgt>
<wgt id='1447'> +2.8468532e+02 </wgt>
<wgt id='1448'> +2.8275336e+02 </wgt>
<wgt id='1449'> +2.8337741e+02 </wgt>
<wgt id='1450'> +2.8397987e+02 </wgt>
<wgt id='1451'> +2.8225928e+02 </wgt>
<wgt id='1452'> +2.8536884e+02 </wgt>
<wgt id='1453'> +2.8464049e+02 </wgt>
<wgt id='1454'> +2.8302138e+02 </wgt>
<wgt id='1455'> +2.8513053e+02 </wgt>
<wgt id='1456'> +2.8139356e+02 </wgt>
<wgt id='1457'> +2.8201514e+02 </wgt>
<wgt id='1458'> +2.8476229e+02 </wgt>
<wgt id='1459'> +2.8216106e+02 </wgt>
<wgt id='1460'> +2.8603698e+02 </wgt>
<wgt id='1461'> +2.8272376e+02 </wgt>
<wgt id='1462'> +2.8468296e+02 </wgt>
<wgt id='1463'> +2.8364928e+02 </wgt>
<wgt id='1464'> +2.8366085e+02 </wgt>
<wgt id='1465'> +2.7882607e+02 </wgt>
<wgt id='1466'> +2.8928392e+02 </wgt>
<wgt id='1467'> +2.8970736e+02 </wgt>
<wgt id='1468'> +2.8062912e+02 </wgt>
<wgt id='1469'> +2.8355669e+02 </wgt>
<wgt id='1470'> +2.8364180e+02 </wgt>
<wgt id='1471'> +2.8581975e+02 </wgt>
<wgt id='1472'> +2.8164445e+02 </wgt>
<wgt id='1473'> +2.8447932e+02 </wgt>
<wgt id='1474'> +2.7985690e+02 </wgt>
<wgt id='1475'> +2.8237471e+02 </wgt>
<wgt id='1476'> +2.8396317e+02 </wgt>
<wgt id='1477'> +2.8378001e+02 </wgt>
<wgt id='1478'> +2.8380075e+02 </wgt>
<wgt id='1479'> +2.8392958e+02 </wgt>
<wgt id='1480'> +2.8346776e+02 </wgt>
<wgt id='1481'> +2.7452729e+02 </wgt>
<wgt id='1482'> +2.7997746e+02 </wgt>
<wgt id='1483'> +2.8138200e+02 </wgt>
<wgt id='1484'> +2.8785963e+02 </wgt>
<wgt id='1485'> +2.6956118e+02 </wgt>
<wgt id='1486'> +2.9841282e+02 </wgt>
<wgt id='1487'> +2.8434684e+02 </wgt>
<wgt id='1488'> +2.8405727e+02 </wgt>
<wgt id='1489'> +2.8478615e+02 </wgt>
<wgt id='1490'> +2.8115182e+02 </wgt>
<wgt id='1491'> +2.8293049e+02 </wgt>
<wgt id='1492'> +2.8458327e+02 </wgt>
<wgt id='1493'> +2.8433297e+02 </wgt>
<wgt id='1494'> +2.8420392e+02 </wgt>
<wgt id='1495'> +2.8316677e+02 </wgt>
<wgt id='1496'> +2.8310839e+02 </wgt>
<wgt id='1497'> +2.8521535e+02 </wgt>
<wgt id='1498'> +2.8843705e+02 </wgt>
<wgt id='1499'> +2.8134551e+02 </wgt>
<wgt id='1500'> +2.8082373e+02 </wgt>
<wgt id='1501'> +2.8676770e+02 </wgt>
<wgt id='1502'> +2.8944115e+02 </wgt>
<wgt id='1503'> +2.8095222e+02 </wgt>
<wgt id='1504'> +2.7973746e+02 </wgt>
<wgt id='1505'> +2.8982016e+02 </wgt>
<wgt id='1506'> +2.8644184e+02 </wgt>
<wgt id='1507'> +2.8201838e+02 </wgt>
<wgt id='1508'> +2.8493013e+02 </wgt>
<wgt id='1509'> +2.8311345e+02 </wgt>
<wgt id='1510'> +2.8411192e+02 </wgt>
<wgt id='1511'> +2.8450222e+02 </wgt>
<wgt id='1512'> +2.8673949e+02 </wgt>
<wgt id='1513'> +2.8193583e+02 </wgt>
<wgt id='1514'> +2.8469481e+02 </wgt>
<wgt id='1515'> +2.8385992e+02 </wgt>
<wgt id='1516'> +2.8407421e+02 </wgt>
<wgt id='1517'> +2.8445258e+02 </wgt>
<wgt id='1518'> +2.8510893e+02 </wgt>
<wgt id='1519'> +2.8336013e+02 </wgt>
<wgt id='1520'> +2.8313273e+02 </wgt>
<wgt id='1521'> +2.8701095e+02 </wgt>
<wgt id='1522'> +2.8238547e+02 </wgt>
<wgt id='1523'> +2.8629602e+02 </wgt>
<wgt id='1524'> +2.8430126e+02 </wgt>
<wgt id='1525'> +2.8424803e+02 </wgt>
<wgt id='1526'> +2.8377371e+02 </wgt>
<wgt id='1527'> +2.8498131e+02 </wgt>
<wgt id='1528'> +2.8401303e+02 </wgt>
<wgt id='1529'> +2.8479329e+02 </wgt>
<wgt id='1530'> +2.8279795e+02 </wgt>
<wgt id='1531'> +2.8710130e+02 </wgt>
<wgt id='1532'> +2.8383491e+02 </wgt>
<wgt id='1533'> +2.8464156e+02 </wgt>
<wgt id='1534'> +2.8379405e+02 </wgt>
<wgt id='1535'> +2.8089362e+02 </wgt>
<wgt id='1536'> +2.8075179e+02 </wgt>
<wgt id='1537'> +2.8356502e+02 </wgt>
<wgt id='1538'> +2.8461612e+02 </wgt>
<wgt id='1539'> +2.8440371e+02 </wgt>
<wgt id='1540'> +2.7426126e+02 </wgt>
<wgt id='1541'> +2.8685120e+02 </wgt>
<wgt id='1542'> +2.8240583e+02 </wgt>
<wgt id='1543'> +2.8767935e+02 </wgt>
<wgt id='1544'> +2.7026363e+02 </wgt>
<wgt id='1545'> +2.9897932e+02 </wgt>
<wgt id='1546'> +2.8146040e+02 </wgt>
<wgt id='1547'> +2.8873164e+02 </wgt>
<wgt id='1548'> +2.8891703e+02 </wgt>
<wgt id='1549'> +2.8852329e+02 </wgt>
<wgt id='1550'> +2.8891740e+02 </wgt>
<wgt id='1551'> +2.8859023e+02 </wgt>
<wgt id='1552'> +2.9002788e+02 </wgt>
<wgt id='1553'> +2.8754504e+02 </wgt>
<wgt id='1554'> +2.8763592e+02 </wgt>
<wgt id='1555'> +2.8999224e+02 </wgt>
<wgt id='1556'> +2.8938746e+02 </wgt>
<wgt id='1557'> +2.8809687e+02 </wgt>
<wgt id='1558'> +2.8916954e+02 </wgt>
<wgt id='1559'> +2.8777982e+02 </wgt>
<wgt id='1560'> +2.8852866e+02 </wgt>
<wgt id='1561'> +2.8910408e+02 </wgt>
<wgt id='1562'> +2.8813589e+02 </wgt>
<wgt id='1563'> +2.8906129e+02 </wgt>
<wgt id='1564'> +2.8727395e+02 </wgt>
<wgt id='1565'> +2.9045545e+02 </wgt>
<wgt id='1566'> +2.8886484e+02 </wgt>
<wgt id='1567'> +2.8858718e+02 </wgt>
<wgt id='1568'> +2.8808677e+02 </wgt>
<wgt id='1569'> +2.8958437e+02 </wgt>
<wgt id='1570'> +2.8679498e+02 </wgt>
<wgt id='1571'> +2.9005956e+02 </wgt>
<wgt id='1572'> +2.8849153e+02 </wgt>
<wgt id='1573'> +2.8866768e+02 </wgt>
<wgt id='1574'> +2.8914904e+02 </wgt>
<wgt id='1575'> +2.8868211e+02 </wgt>
<wgt id='1576'> +2.8856550e+02 </wgt>
<wgt id='1577'> +2.8894748e+02 </wgt>
<wgt id='1578'> +2.8663237e+02 </wgt>
<wgt id='1579'> +2.9105736e+02 </wgt>
<wgt id='1580'> +2.8990554e+02 </wgt>
<wgt id='1581'> +2.8759989e+02 </wgt>
<wgt id='1582'> +2.8906212e+02 </wgt>
<wgt id='1583'> +2.8818260e+02 </wgt>
<wgt id='1584'> +2.8913060e+02 </wgt>
<wgt id='1585'> +2.8862289e+02 </wgt>
<wgt id='1586'> +2.8808524e+02 </wgt>
<wgt id='1587'> +2.8945169e+02 </wgt>
<wgt id='1588'> +2.8703711e+02 </wgt>
<wgt id='1589'> +2.9068194e+02 </wgt>
<wgt id='1590'> +2.9185227e+02 </wgt>
<wgt id='1591'> +2.8723900e+02 </wgt>
<wgt id='1592'> +2.8838744e+02 </wgt>
<wgt id='1593'> +2.8961212e+02 </wgt>
<wgt id='1594'> +2.9063155e+02 </wgt>
<wgt id='1595'> +2.8570353e+02 </wgt>
<wgt id='1596'> +2.8951236e+02 </wgt>
<wgt id='1597'> +2.8827848e+02 </wgt>
<wgt id='1598'> +2.8194415e+02 </wgt>
<wgt id='1599'> +2.8186263e+02 </wgt>
<wgt id='1600'> +2.8202759e+02 </wgt>
<wgt id='1601'> +2.8289389e+02 </wgt>
<wgt id='1602'> +2.8098955e+02 </wgt>
<wgt id='1603'> +2.8260397e+02 </wgt>
<wgt id='1604'> +2.8167654e+02 </wgt>
<wgt id='1605'> +2.8135861e+02 </wgt>
<wgt id='1606'> +2.8252420e+02 </wgt>
<wgt id='1607'> +2.8230437e+02 </wgt>
<wgt id='1608'> +2.8155251e+02 </wgt>
<wgt id='1609'> +2.8021185e+02 </wgt>
<wgt id='1610'> +2.8268393e+02 </wgt>
<wgt id='1611'> +2.8190751e+02 </wgt>
<wgt id='1612'> +2.8196361e+02 </wgt>
<wgt id='1613'> +2.8151604e+02 </wgt>
<wgt id='1614'> +2.8237721e+02 </wgt>
<wgt id='1615'> +2.8136923e+02 </wgt>
<wgt id='1616'> +2.8223405e+02 </wgt>
<wgt id='1617'> +2.8182597e+02 </wgt>
<wgt id='1618'> +2.8208146e+02 </wgt>
<wgt id='1619'> +2.8161974e+02 </wgt>
<wgt id='1620'> +2.8215405e+02 </wgt>
<wgt id='1621'> +2.8431293e+02 </wgt>
<wgt id='1622'> +2.7965954e+02 </wgt>
<wgt id='1623'> +2.8280372e+02 </wgt>
<wgt id='1624'> +2.7975443e+02 </wgt>
<wgt id='1625'> +2.8246389e+02 </wgt>
<wgt id='1626'> +2.8156728e+02 </wgt>
<wgt id='1627'> +2.8221154e+02 </wgt>
<wgt id='1628'> +2.8134483e+02 </wgt>
<wgt id='1629'> +2.8097067e+02 </wgt>
<wgt id='1630'> +2.8390691e+02 </wgt>
<wgt id='1631'> +2.8212997e+02 </wgt>
<wgt id='1632'> +2.8163412e+02 </wgt>
<wgt id='1633'> +2.8088077e+02 </wgt>
<wgt id='1634'> +2.8244219e+02 </wgt>
<wgt id='1635'> +2.8192854e+02 </wgt>
<wgt id='1636'> +2.8199021e+02 </wgt>
<wgt id='1637'> +2.8107330e+02 </wgt>
<wgt id='1638'> +2.8257398e+02 </wgt>
<wgt id='1639'> +2.8208055e+02 </wgt>
<wgt id='1640'> +2.8146658e+02 </wgt>
<wgt id='1641'> +2.8218057e+02 </wgt>
<wgt id='1642'> +2.8047418e+02 </wgt>
<wgt id='1643'> +2.7866966e+02 </wgt>
<wgt id='1644'> +2.8391863e+02 </wgt>
<wgt id='1645'> +2.8310169e+02 </wgt>
<wgt id='1646'> +2.8139383e+02 </wgt>
<wgt id='1647'> +2.8080622e+02 </wgt>
<wgt id='1648'> +2.8241405e+02 </wgt>
<wgt id='1649'> +4.5748013e+02 </wgt>
<wgt id='1650'> +2.8662447e+02 </wgt>
<wgt id='1651'> +2.8654120e+02 </wgt>
<wgt id='1652'> +2.8671101e+02 </wgt>
<wgt id='1653'> +2.8663676e+02 </wgt>
<wgt id='1654'> +2.8661639e+02 </wgt>
<wgt id='1655'> +2.8601722e+02 </wgt>
<wgt id='1656'> +2.8677964e+02 </wgt>
<wgt id='1657'> +2.8688571e+02 </wgt>
<wgt id='1658'> +2.8724412e+02 </wgt>
<wgt id='1659'> +2.8783391e+02 </wgt>
<wgt id='1660'> +2.8640338e+02 </wgt>
<wgt id='1661'> +2.8662962e+02 </wgt>
<wgt id='1662'> +2.8579124e+02 </wgt>
<wgt id='1663'> +2.8610954e+02 </wgt>
<wgt id='1664'> +2.8705986e+02 </wgt>
<wgt id='1665'> +2.8642238e+02 </wgt>
<wgt id='1666'> +2.8687598e+02 </wgt>
<wgt id='1667'> +2.8660246e+02 </wgt>
<wgt id='1668'> +2.8722244e+02 </wgt>
<wgt id='1669'> +2.8676296e+02 </wgt>
<wgt id='1670'> +2.8641914e+02 </wgt>
<wgt id='1671'> +2.8641019e+02 </wgt>
<wgt id='1672'> +2.8621276e+02 </wgt>
<wgt id='1673'> +2.8638738e+02 </wgt>
<wgt id='1674'> +2.8598474e+02 </wgt>
<wgt id='1675'> +2.8662320e+02 </wgt>
<wgt id='1676'> +2.8702886e+02 </wgt>
<wgt id='1677'> +2.8665936e+02 </wgt>
<wgt id='1678'> +2.8684849e+02 </wgt>
<wgt id='1679'> +2.8646429e+02 </wgt>
<wgt id='1680'> +2.8863543e+02 </wgt>
<wgt id='1681'> +2.8665209e+02 </wgt>
<wgt id='1682'> +2.9032119e+02 </wgt>
<wgt id='1683'> +2.8958593e+02 </wgt>
<wgt id='1684'> +2.8738244e+02 </wgt>
<wgt id='1685'> +2.8838929e+02 </wgt>
<wgt id='1686'> +2.8944765e+02 </wgt>
<wgt id='1687'> +2.8747967e+02 </wgt>
<wgt id='1688'> +2.8636761e+02 </wgt>
<wgt id='1689'> +2.8962839e+02 </wgt>
<wgt id='1690'> +2.9158198e+02 </wgt>
<wgt id='1691'> +2.8832426e+02 </wgt>
<wgt id='1692'> +2.8829513e+02 </wgt>
<wgt id='1693'> +2.8870504e+02 </wgt>
<wgt id='1694'> +2.8570833e+02 </wgt>
<wgt id='1695'> +2.9037206e+02 </wgt>
<wgt id='1696'> +2.8803064e+02 </wgt>
<wgt id='1697'> +2.8773064e+02 </wgt>
<wgt id='1698'> +2.8682304e+02 </wgt>
<wgt id='1699'> +2.8625735e+02 </wgt>
<wgt id='1700'> +2.8786858e+02 </wgt>
<wgt id='1701'> +2.8785991e+02 </wgt>
<wgt id='1702'> +2.8952388e+02 </wgt>
<wgt id='1703'> +2.8741116e+02 </wgt>
<wgt id='1704'> +2.8917401e+02 </wgt>
<wgt id='1705'> +2.8895850e+02 </wgt>
<wgt id='1706'> +2.8806532e+02 </wgt>
<wgt id='1707'> +2.8850697e+02 </wgt>
<wgt id='1708'> +2.8812063e+02 </wgt>
<wgt id='1709'> +2.8849841e+02 </wgt>
<wgt id='1710'> +2.8879760e+02 </wgt>
<wgt id='1711'> +2.8856501e+02 </wgt>
<wgt id='1712'> +2.8864317e+02 </wgt>
<wgt id='1713'> +2.8806099e+02 </wgt>
<wgt id='1714'> +2.8876212e+02 </wgt>
<wgt id='1715'> +2.8921039e+02 </wgt>
<wgt id='1716'> +2.8834356e+02 </wgt>
<wgt id='1717'> +2.8867990e+02 </wgt>
<wgt id='1718'> +2.8842033e+02 </wgt>
<wgt id='1719'> +2.8877231e+02 </wgt>
<wgt id='1720'> +2.8875407e+02 </wgt>
<wgt id='1721'> +2.8884185e+02 </wgt>
<wgt id='1722'> +2.8876753e+02 </wgt>
<wgt id='1723'> +2.8843612e+02 </wgt>
<wgt id='1724'> +2.8900287e+02 </wgt>
<wgt id='1725'> +2.8882216e+02 </wgt>
<wgt id='1726'> +2.8894471e+02 </wgt>
<wgt id='1727'> +2.8837152e+02 </wgt>
<wgt id='1728'> +2.8842900e+02 </wgt>
<wgt id='1729'> +2.8876785e+02 </wgt>
<wgt id='1730'> +2.8847400e+02 </wgt>
<wgt id='1731'> +2.8850360e+02 </wgt>
<wgt id='1732'> +2.8852256e+02 </wgt>
<wgt id='1733'> +2.8834003e+02 </wgt>
<wgt id='1734'> +2.8850645e+02 </wgt>
<wgt id='1735'> +2.8864548e+02 </wgt>
<wgt id='1736'> +2.8855674e+02 </wgt>
<wgt id='1737'> +2.8868532e+02 </wgt>
<wgt id='1738'> +2.8893174e+02 </wgt>
<wgt id='1739'> +2.8857259e+02 </wgt>
<wgt id='1740'> +2.8832210e+02 </wgt>
<wgt id='1741'> +2.8874961e+02 </wgt>
<wgt id='1742'> +2.8847313e+02 </wgt>
<wgt id='1743'> +2.8863688e+02 </wgt>
<wgt id='1744'> +2.8853897e+02 </wgt>
<wgt id='1745'> +2.8868613e+02 </wgt>
<wgt id='1746'> +2.8872971e+02 </wgt>
<wgt id='1747'> +2.8864282e+02 </wgt>
<wgt id='1748'> +2.8880311e+02 </wgt>
<wgt id='1749'> +2.8874675e+02 </wgt>
<wgt id='1750'> +2.8856590e+02 </wgt>
<wgt id='1751'> +2.8843224e+02 </wgt>
<wgt id='1752'> +2.8848227e+02 </wgt>
<wgt id='1753'> +2.8848521e+02 </wgt>
<wgt id='1754'> +2.8856576e+02 </wgt>
<wgt id='1755'> +2.8858684e+02 </wgt>
<wgt id='1756'> +2.8862177e+02 </wgt>
<wgt id='1757'> +2.8849992e+02 </wgt>
<wgt id='1758'> +2.8862901e+02 </wgt>
<wgt id='1759'> +2.8882001e+02 </wgt>
<wgt id='1760'> +2.8859097e+02 </wgt>
<wgt id='1761'> +2.8873577e+02 </wgt>
<wgt id='1762'> +2.8848877e+02 </wgt>
<wgt id='1763'> +2.8873996e+02 </wgt>
<wgt id='1764'> +2.8879227e+02 </wgt>
<wgt id='1765'> +2.8872577e+02 </wgt>
<wgt id='1766'> +2.8889535e+02 </wgt>
<wgt id='1767'> +2.8867974e+02 </wgt>
<wgt id='1768'> +2.8862095e+02 </wgt>
<wgt id='1769'> +2.8862861e+02 </wgt>
<wgt id='1770'> +2.8864286e+02 </wgt>
<wgt id='1771'> +2.8852018e+02 </wgt>
<wgt id='1772'> +2.8861236e+02 </wgt>
<wgt id='1773'> +2.8854769e+02 </wgt>
<wgt id='1774'> +2.8861111e+02 </wgt>
<wgt id='1775'> +2.8862527e+02 </wgt>
<wgt id='1776'> +2.8858227e+02 </wgt>
<wgt id='1777'> +2.8869655e+02 </wgt>
<wgt id='1778'> +2.8869917e+02 </wgt>
<wgt id='1779'> +2.8867385e+02 </wgt>
<wgt id='1780'> +2.8863993e+02 </wgt>
<wgt id='1781'> +2.7900469e+02 </wgt>
<wgt id='1782'> +2.9836441e+02 </wgt>
<wgt id='1783'> +2.8350107e+02 </wgt>
<wgt id='1784'> +2.8358317e+02 </wgt>
<wgt id='1785'> +2.8423867e+02 </wgt>
<wgt id='1786'> +2.8211937e+02 </wgt>
<wgt id='1787'> +2.8382990e+02 </wgt>
<wgt id='1788'> +2.8480455e+02 </wgt>
<wgt id='1789'> +2.8381359e+02 </wgt>
<wgt id='1790'> +2.8333825e+02 </wgt>
<wgt id='1791'> +2.8364025e+02 </wgt>
<wgt id='1792'> +2.8350987e+02 </wgt>
<wgt id='1793'> +2.8255403e+02 </wgt>
<wgt id='1794'> +2.8547531e+02 </wgt>
<wgt id='1795'> +2.8349442e+02 </wgt>
<wgt id='1796'> +2.8257890e+02 </wgt>
<wgt id='1797'> +2.8341835e+02 </wgt>
<wgt id='1798'> +2.8246786e+02 </wgt>
<wgt id='1799'> +2.8537779e+02 </wgt>
<wgt id='1800'> +2.8157211e+02 </wgt>
<wgt id='1801'> +2.8387034e+02 </wgt>
<wgt id='1802'> +2.8426222e+02 </wgt>
<wgt id='1803'> +2.8601365e+02 </wgt>
<wgt id='1804'> +2.8347657e+02 </wgt>
<wgt id='1805'> +2.8407654e+02 </wgt>
<wgt id='1806'> +2.8181141e+02 </wgt>
<wgt id='1807'> +2.8251427e+02 </wgt>
<wgt id='1808'> +2.8434864e+02 </wgt>
<wgt id='1809'> +2.8343620e+02 </wgt>
<wgt id='1810'> +2.8332254e+02 </wgt>
<wgt id='1811'> +2.8389480e+02 </wgt>
<wgt id='1812'> +2.8363565e+02 </wgt>
<wgt id='1813'> +2.8360629e+02 </wgt>
<wgt id='1814'> +2.8339747e+02 </wgt>
<wgt id='1815'> +2.8370603e+02 </wgt>
<wgt id='1816'> +2.8384149e+02 </wgt>
<wgt id='1817'> +2.8349259e+02 </wgt>
<wgt id='1818'> +2.8384908e+02 </wgt>
<wgt id='1819'> +2.8357169e+02 </wgt>
<wgt id='1820'> +2.8376576e+02 </wgt>
<wgt id='1821'> +2.8365788e+02 </wgt>
<wgt id='1822'> +2.8356037e+02 </wgt>
<wgt id='1823'> +2.8315503e+02 </wgt>
<wgt id='1824'> +2.8349523e+02 </wgt>
<wgt id='1825'> +2.8365219e+02 </wgt>
<wgt id='1826'> +2.8321080e+02 </wgt>
<wgt id='1827'> +2.8355998e+02 </wgt>
<wgt id='1828'> +2.8362994e+02 </wgt>
<wgt id='1829'> +2.8312099e+02 </wgt>
<wgt id='1830'> +2.8351334e+02 </wgt>
<wgt id='1831'> +2.8368809e+02 </wgt>
<wgt id='1832'> +2.8335732e+02 </wgt>
<wgt id='1833'> +2.8351923e+02 </wgt>
<wgt id='1834'> +2.8365637e+02 </wgt>
<wgt id='1835'> +2.8370232e+02 </wgt>
<wgt id='1836'> +2.8349753e+02 </wgt>
<wgt id='1837'> +2.8332470e+02 </wgt>
<wgt id='1838'> +2.8334379e+02 </wgt>
<wgt id='1839'> +2.8367632e+02 </wgt>
<wgt id='1840'> +2.8349774e+02 </wgt>
<wgt id='1841'> +2.8325019e+02 </wgt>
<wgt id='1842'> +2.8334189e+02 </wgt>
<wgt id='1843'> +2.8338459e+02 </wgt>
<wgt id='1844'> +2.8351191e+02 </wgt>
<wgt id='1845'> +2.8353775e+02 </wgt>
<wgt id='1846'> +2.8356918e+02 </wgt>
<wgt id='1847'> +2.8353932e+02 </wgt>
<wgt id='1848'> +2.8344146e+02 </wgt>
<wgt id='1849'> +2.8346187e+02 </wgt>
<wgt id='1850'> +2.8359829e+02 </wgt>
<wgt id='1851'> +2.8353356e+02 </wgt>
<wgt id='1852'> +2.8372091e+02 </wgt>
<wgt id='1853'> +2.8343855e+02 </wgt>
<wgt id='1854'> +2.8368733e+02 </wgt>
<wgt id='1855'> +2.8369336e+02 </wgt>
<wgt id='1856'> +2.8343463e+02 </wgt>
<wgt id='1857'> +2.8353657e+02 </wgt>
<wgt id='1858'> +2.8345712e+02 </wgt>
<wgt id='1859'> +2.8349498e+02 </wgt>
<wgt id='1860'> +2.8357535e+02 </wgt>
<wgt id='1861'> +2.8353233e+02 </wgt>
<wgt id='1862'> +2.8346821e+02 </wgt>
<wgt id='1863'> +2.8375532e+02 </wgt>
<wgt id='1864'> +2.8351817e+02 </wgt>
<wgt id='1865'> +2.8358731e+02 </wgt>
<wgt id='1866'> +2.8342089e+02 </wgt>
<wgt id='1867'> +2.8339442e+02 </wgt>
<wgt id='1868'> +2.8337948e+02 </wgt>
<wgt id='1869'> +2.8357440e+02 </wgt>
<wgt id='1870'> +2.8323407e+02 </wgt>
<wgt id='1871'> +2.8338348e+02 </wgt>
<wgt id='1872'> +2.8339803e+02 </wgt>
<wgt id='1873'> +2.8353764e+02 </wgt>
<wgt id='1874'> +2.8343973e+02 </wgt>
<wgt id='1875'> +2.8347022e+02 </wgt>
<wgt id='1876'> +2.8342976e+02 </wgt>
<wgt id='1877'> +2.8343457e+02 </wgt>
<wgt id='1878'> +2.8352693e+02 </wgt>
<wgt id='1879'> +2.8345063e+02 </wgt>
<wgt id='1880'> +2.8352746e+02 </wgt>
<wgt id='1881'> +2.8348038e+02 </wgt>
<wgt id='1882'> +2.8343914e+02 </wgt>
<wgt id='1883'> +2.8350474e+02 </wgt>
<wgt id='1884'> +2.7433715e+02 </wgt>
<wgt id='1885'> +2.9293966e+02 </wgt>
<wgt id='1886'> +2.8899141e+02 </wgt>
<wgt id='1887'> +2.9025146e+02 </wgt>
<wgt id='1888'> +2.8678740e+02 </wgt>
<wgt id='1889'> +2.8883368e+02 </wgt>
<wgt id='1890'> +2.8581733e+02 </wgt>
<wgt id='1891'> +2.9132108e+02 </wgt>
<wgt id='1892'> +2.8760483e+02 </wgt>
<wgt id='1893'> +2.8902473e+02 </wgt>
<wgt id='1894'> +2.8929451e+02 </wgt>
<wgt id='1895'> +2.8757156e+02 </wgt>
<wgt id='1896'> +2.8961965e+02 </wgt>
<wgt id='1897'> +2.8737492e+02 </wgt>
<wgt id='1898'> +2.8835650e+02 </wgt>
<wgt id='1899'> +2.8918457e+02 </wgt>
<wgt id='1900'> +2.8881809e+02 </wgt>
<wgt id='1901'> +2.8921923e+02 </wgt>
<wgt id='1902'> +2.8809522e+02 </wgt>
<wgt id='1903'> +2.8970754e+02 </wgt>
<wgt id='1904'> +2.8970781e+02 </wgt>
<wgt id='1905'> +2.8768896e+02 </wgt>
<wgt id='1906'> +2.8825947e+02 </wgt>
<wgt id='1907'> +2.8868224e+02 </wgt>
<wgt id='1908'> +2.8856355e+02 </wgt>
<wgt id='1909'> +2.8917973e+02 </wgt>
<wgt id='1910'> +2.8876402e+02 </wgt>
<wgt id='1911'> +2.8877703e+02 </wgt>
<wgt id='1912'> +2.9016790e+02 </wgt>
<wgt id='1913'> +2.8958380e+02 </wgt>
<wgt id='1914'> +2.9283521e+02 </wgt>
<wgt id='1915'> +2.8927270e+02 </wgt>
<wgt id='1916'> +2.8882058e+02 </wgt>
<wgt id='1917'> +2.7900469e+02 </wgt>
<wgt id='1918'> +2.9836441e+02 </wgt>
<wgt id='1919'> +2.8383554e+02 </wgt>
<wgt id='1920'> +2.7931206e+02 </wgt>
<wgt id='1921'> +2.8415222e+02 </wgt>
<wgt id='1922'> +2.8369508e+02 </wgt>
<wgt id='1923'> +2.8408422e+02 </wgt>
<wgt id='1924'> +2.8295685e+02 </wgt>
<wgt id='1925'> +2.8385492e+02 </wgt>
<wgt id='1926'> +2.8357430e+02 </wgt>
<wgt id='1927'> +2.8362638e+02 </wgt>
<wgt id='1928'> +2.8318003e+02 </wgt>
<wgt id='1929'> +2.8413805e+02 </wgt>
<wgt id='1930'> +2.8312124e+02 </wgt>
<wgt id='1931'> +2.8383032e+02 </wgt>
<wgt id='1932'> +2.8443142e+02 </wgt>
<wgt id='1933'> +2.8341759e+02 </wgt>
<wgt id='1934'> +2.8354727e+02 </wgt>
<wgt id='1935'> +2.8383400e+02 </wgt>
<wgt id='1936'> +2.8488068e+02 </wgt>
<wgt id='1937'> +2.8383878e+02 </wgt>
<wgt id='1938'> +2.8385316e+02 </wgt>
<wgt id='1939'> +2.8406622e+02 </wgt>
<wgt id='1940'> +2.8430789e+02 </wgt>
<wgt id='1941'> +2.8614604e+02 </wgt>
<wgt id='1942'> +2.8380325e+02 </wgt>
<wgt id='1943'> +2.8375997e+02 </wgt>
<wgt id='1944'> +2.8327691e+02 </wgt>
<wgt id='1945'> +2.8383409e+02 </wgt>
<wgt id='1946'> +2.8395910e+02 </wgt>
<wgt id='1947'> +2.8383652e+02 </wgt>
<wgt id='1948'> +2.8328159e+02 </wgt>
<wgt id='1949'> +2.8386194e+02 </wgt>
<wgt id='1950'> +2.7433715e+02 </wgt>
<wgt id='1951'> +2.9293966e+02 </wgt>
<wgt id='1952'> +2.8222455e+02 </wgt>
<wgt id='1953'> +2.8183468e+02 </wgt>
<wgt id='1954'> +2.8261363e+02 </wgt>
<wgt id='1955'> +2.8262807e+02 </wgt>
<wgt id='1956'> +2.8182161e+02 </wgt>
<wgt id='1957'> +2.8263160e+02 </wgt>
<wgt id='1958'> +2.8181931e+02 </wgt>
<wgt id='1959'> +2.8345087e+02 </wgt>
<wgt id='1960'> +2.8102605e+02 </wgt>
<wgt id='1961'> +2.8213758e+02 </wgt>
<wgt id='1962'> +2.8232230e+02 </wgt>
<wgt id='1963'> +2.8062919e+02 </wgt>
<wgt id='1964'> +2.8395764e+02 </wgt>
<wgt id='1965'> +2.8133727e+02 </wgt>
<wgt id='1966'> +2.8312531e+02 </wgt>
<wgt id='1967'> +2.8298208e+02 </wgt>
<wgt id='1968'> +2.8109131e+02 </wgt>
<wgt id='1969'> +2.8338890e+02 </wgt>
<wgt id='1970'> +2.8130614e+02 </wgt>
<wgt id='1971'> +2.8251509e+02 </wgt>
<wgt id='1972'> +2.8179620e+02 </wgt>
<wgt id='1973'> +2.8287362e+02 </wgt>
<wgt id='1974'> +2.8144245e+02 </wgt>
<wgt id='1975'> +2.7982035e+02 </wgt>
<wgt id='1976'> +2.8382766e+02 </wgt>
<wgt id='1977'> +2.8126539e+02 </wgt>
<wgt id='1978'> +2.8341605e+02 </wgt>
<wgt id='1979'> +2.8513282e+02 </wgt>
<wgt id='1980'> +2.7964586e+02 </wgt>
<wgt id='1981'> +2.8222455e+02 </wgt>
<wgt id='1982'> +2.8294767e+02 </wgt>
<wgt id='1983'> +2.8098456e+02 </wgt>
<wgt id='1984'> +2.8293464e+02 </wgt>
<wgt id='1985'> +2.8140063e+02 </wgt>
<wgt id='1986'> +2.8202179e+02 </wgt>
<wgt id='1987'> +2.8361792e+02 </wgt>
<wgt id='1988'> +2.8186434e+02 </wgt>
<wgt id='1989'> +2.8271587e+02 </wgt>
<wgt id='1990'> +2.8329136e+02 </wgt>
<wgt id='1991'> +2.8127601e+02 </wgt>
<wgt id='1992'> +2.8102294e+02 </wgt>
<wgt id='1993'> +2.8211771e+02 </wgt>
<wgt id='1994'> +2.8188285e+02 </wgt>
<wgt id='1995'> +2.8649085e+02 </wgt>
<wgt id='1996'> +2.8618462e+02 </wgt>
<wgt id='1997'> +2.8672879e+02 </wgt>
<wgt id='1998'> +2.8657041e+02 </wgt>
<wgt id='1999'> +2.8634415e+02 </wgt>
<wgt id='2000'> +2.8693824e+02 </wgt>
<wgt id='2001'> +2.8597665e+02 </wgt>
<wgt id='2002'> +2.8807313e+02 </wgt>
<wgt id='2003'> +2.8488318e+02 </wgt>
<wgt id='2004'> +2.8557035e+02 </wgt>
<wgt id='2005'> +2.8737625e+02 </wgt>
<wgt id='2006'> +2.8740696e+02 </wgt>
<wgt id='2007'> +2.8552054e+02 </wgt>
<wgt id='2008'> +2.8590417e+02 </wgt>
<wgt id='2009'> +2.8699462e+02 </wgt>
<wgt id='2010'> +2.8636354e+02 </wgt>
<wgt id='2011'> +2.8603313e+02 </wgt>
<wgt id='2012'> +2.8639242e+02 </wgt>
<wgt id='2013'> +2.8651050e+02 </wgt>
<wgt id='2014'> +2.8627096e+02 </wgt>
<wgt id='2015'> +2.8666283e+02 </wgt>
<wgt id='2016'> +2.8670418e+02 </wgt>
<wgt id='2017'> +2.8602653e+02 </wgt>
<wgt id='2018'> +2.8501746e+02 </wgt>
<wgt id='2019'> +2.8789531e+02 </wgt>
<wgt id='2020'> +2.8321745e+02 </wgt>
<wgt id='2021'> +2.8924857e+02 </wgt>
<wgt id='2022'> +2.8524932e+02 </wgt>
<wgt id='2023'> +2.8792836e+02 </wgt>
<wgt id='2024'> +2.8659710e+02 </wgt>
<wgt id='2025'> +2.8722506e+02 </wgt>
<wgt id='2026'> +2.8453852e+02 </wgt>
<wgt id='2027'> +2.8705941e+02 </wgt>
<wgt id='2028'> +2.8610888e+02 </wgt>
<wgt id='2029'> +2.8207385e+02 </wgt>
<wgt id='2030'> +2.8652803e+02 </wgt>
<wgt id='2031'> +2.8608079e+02 </wgt>
<wgt id='2032'> +2.8778641e+02 </wgt>
<wgt id='2033'> +2.8729877e+02 </wgt>
<wgt id='2034'> +2.8062390e+02 </wgt>
<wgt id='2035'> +2.8626526e+02 </wgt>
<wgt id='2036'> +2.8799086e+02 </wgt>
<wgt id='2037'> +2.8777626e+02 </wgt>
<wgt id='2038'> +2.8369843e+02 </wgt>
<wgt id='2039'> +2.8366257e+02 </wgt>
<wgt id='2040'> +2.8362670e+02 </wgt>
<wgt id='2041'> +2.8359156e+02 </wgt>
<wgt id='2042'> +2.8355205e+02 </wgt>
<wgt id='2043'> +2.8351713e+02 </wgt>
<wgt id='2044'> +2.8348110e+02 </wgt>
<wgt id='2045'> +2.8344616e+02 </wgt>
<wgt id='2046'> +2.8341005e+02 </wgt>
<wgt id='2047'> +2.8337152e+02 </wgt>
<wgt id='2048'> +2.8333566e+02 </wgt>
<wgt id='2049'> +2.8330055e+02 </wgt>
<wgt id='2050'> +2.8326394e+02 </wgt>
<wgt id='2051'> +2.8322893e+02 </wgt>
<wgt id='2052'> +2.8318993e+02 </wgt>
<wgt id='2053'> +2.8315379e+02 </wgt>
<wgt id='2054'> +2.8311879e+02 </wgt>
<wgt id='2055'> +2.8308291e+02 </wgt>
<wgt id='2056'> +2.8304618e+02 </wgt>
<wgt id='2057'> +2.8300683e+02 </wgt>
<wgt id='2058'> +2.8297217e+02 </wgt>
<wgt id='2059'> +2.8293611e+02 </wgt>
<wgt id='2060'> +2.8290091e+02 </wgt>
<wgt id='2061'> +2.8286467e+02 </wgt>
<wgt id='2062'> +2.8282624e+02 </wgt>
<wgt id='2063'> +2.8278992e+02 </wgt>
<wgt id='2064'> +2.8275534e+02 </wgt>
<wgt id='2065'> +2.8271927e+02 </wgt>
<wgt id='2066'> +2.8268006e+02 </wgt>
<wgt id='2067'> +2.8264504e+02 </wgt>
<wgt id='2068'> +2.8260898e+02 </wgt>
<wgt id='2069'> +2.8080315e+02 </wgt>
<wgt id='2070'> +2.8093789e+02 </wgt>
<wgt id='2071'> +2.8152029e+02 </wgt>
<wgt id='2072'> +2.7946591e+02 </wgt>
<wgt id='2073'> +2.8115080e+02 </wgt>
<wgt id='2074'> +2.8212090e+02 </wgt>
<wgt id='2075'> +2.8108730e+02 </wgt>
<wgt id='2076'> +2.8058222e+02 </wgt>
<wgt id='2077'> +2.8092975e+02 </wgt>
<wgt id='2078'> +2.8082584e+02 </wgt>
<wgt id='2079'> +2.7990011e+02 </wgt>
<wgt id='2080'> +2.8271265e+02 </wgt>
<wgt id='2081'> +2.8076603e+02 </wgt>
<wgt id='2082'> +2.7989283e+02 </wgt>
<wgt id='2083'> +2.8068267e+02 </wgt>
<wgt id='2084'> +2.7979527e+02 </wgt>
<wgt id='2085'> +2.8261536e+02 </wgt>
<wgt id='2086'> +2.7892644e+02 </wgt>
<wgt id='2087'> +2.8118058e+02 </wgt>
<wgt id='2088'> +2.8152892e+02 </wgt>
<wgt id='2089'> +2.8326431e+02 </wgt>
<wgt id='2090'> +2.8075731e+02 </wgt>
<wgt id='2091'> +2.8139639e+02 </wgt>
<wgt id='2092'> +2.7909808e+02 </wgt>
<wgt id='2093'> +2.7983440e+02 </wgt>
<wgt id='2094'> +2.8167077e+02 </wgt>
<wgt id='2095'> +2.8076072e+02 </wgt>
<wgt id='2096'> +2.8059160e+02 </wgt>
<wgt id='2097'> +2.8118654e+02 </wgt>
<wgt id='2098'> +2.8095697e+02 </wgt>
<wgt id='2099'> +2.8092293e+02 </wgt>
<wgt id='2100'> +2.8067216e+02 </wgt>
<wgt id='2101'> +2.8102337e+02 </wgt>
<wgt id='2102'> +2.8116021e+02 </wgt>
<wgt id='2103'> +2.8079094e+02 </wgt>
<wgt id='2104'> +2.8116370e+02 </wgt>
<wgt id='2105'> +2.8086698e+02 </wgt>
<wgt id='2106'> +2.8107675e+02 </wgt>
<wgt id='2107'> +2.8096482e+02 </wgt>
<wgt id='2108'> +2.8087778e+02 </wgt>
<wgt id='2109'> +2.8045771e+02 </wgt>
<wgt id='2110'> +2.8079020e+02 </wgt>
<wgt id='2111'> +2.8094804e+02 </wgt>
<wgt id='2112'> +2.8050636e+02 </wgt>
<wgt id='2113'> +2.8087022e+02 </wgt>
<wgt id='2114'> +2.8092029e+02 </wgt>
<wgt id='2115'> +2.8041714e+02 </wgt>
<wgt id='2116'> +2.8080758e+02 </wgt>
<wgt id='2117'> +2.8098386e+02 </wgt>
<wgt id='2118'> +2.8065221e+02 </wgt>
<wgt id='2119'> +2.8082366e+02 </wgt>
<wgt id='2120'> +2.8096586e+02 </wgt>
<wgt id='2121'> +2.8100239e+02 </wgt>
<wgt id='2122'> +2.8081174e+02 </wgt>
<wgt id='2123'> +2.8062336e+02 </wgt>
<wgt id='2124'> +2.8064113e+02 </wgt>
<wgt id='2125'> +2.8098583e+02 </wgt>
<wgt id='2126'> +2.8079123e+02 </wgt>
<wgt id='2127'> +2.8054924e+02 </wgt>
<wgt id='2128'> +2.8064253e+02 </wgt>
<wgt id='2129'> +2.8068458e+02 </wgt>
<wgt id='2130'> +2.8081314e+02 </wgt>
<wgt id='2131'> +2.8084215e+02 </wgt>
<wgt id='2132'> +2.8088349e+02 </wgt>
<wgt id='2133'> +2.8083119e+02 </wgt>
<wgt id='2134'> +2.8074933e+02 </wgt>
<wgt id='2135'> +2.8076785e+02 </wgt>
<wgt id='2136'> +2.8090140e+02 </wgt>
<wgt id='2137'> +2.8083583e+02 </wgt>
<wgt id='2138'> +2.8102585e+02 </wgt>
<wgt id='2139'> +2.8074336e+02 </wgt>
<wgt id='2140'> +2.8099149e+02 </wgt>
<wgt id='2141'> +2.8100039e+02 </wgt>
<wgt id='2142'> +2.8073612e+02 </wgt>
<wgt id='2143'> +2.8083884e+02 </wgt>
<wgt id='2144'> +2.8075564e+02 </wgt>
<wgt id='2145'> +2.8079503e+02 </wgt>
<wgt id='2146'> +2.8087818e+02 </wgt>
<wgt id='2147'> +2.8083750e+02 </wgt>
<wgt id='2148'> +2.8077076e+02 </wgt>
<wgt id='2149'> +2.8105646e+02 </wgt>
<wgt id='2150'> +2.8081315e+02 </wgt>
<wgt id='2151'> +2.8088762e+02 </wgt>
<wgt id='2152'> +2.8071950e+02 </wgt>
<wgt id='2153'> +2.8069793e+02 </wgt>
<wgt id='2154'> +2.8068492e+02 </wgt>
<wgt id='2155'> +2.8086906e+02 </wgt>
<wgt id='2156'> +2.8053995e+02 </wgt>
<wgt id='2157'> +2.8069179e+02 </wgt>
<wgt id='2158'> +2.8070207e+02 </wgt>
<wgt id='2159'> +2.8084471e+02 </wgt>
<wgt id='2160'> +2.8074891e+02 </wgt>
<wgt id='2161'> +2.8077740e+02 </wgt>
<wgt id='2162'> +2.8073191e+02 </wgt>
<wgt id='2163'> +2.8074467e+02 </wgt>
<wgt id='2164'> +2.8083060e+02 </wgt>
<wgt id='2165'> +2.8074967e+02 </wgt>
<wgt id='2166'> +2.8083004e+02 </wgt>
<wgt id='2167'> +2.8078781e+02 </wgt>
<wgt id='2168'> +2.8073617e+02 </wgt>
<wgt id='2169'> +2.8080492e+02 </wgt>
<wgt id='2170'> +2.8079981e+02 </wgt>
<wgt id='2171'> +2.8078111e+02 </wgt>
<wgt id='2172'> +2.8080665e+02 </wgt>
<wgt id='2173'> +2.8080722e+02 </wgt>
<wgt id='2174'> +2.8081337e+02 </wgt>
<wgt id='2175'> +2.8080464e+02 </wgt>
<wgt id='2176'> +2.8078846e+02 </wgt>
<wgt id='2177'> +2.9441954e+02 </wgt>
<wgt id='2178'> +2.8619183e+02 </wgt>
<wgt id='2179'> +2.9831541e+02 </wgt>
<wgt id='2180'> +2.9990227e+02 </wgt>
<wgt id='2181'> +2.8668794e+02 </wgt>
<wgt id='2182'> +2.8228364e+02 </wgt>
<wgt id='2183'> +2.9696299e+02 </wgt>
<wgt id='2184'> +2.9545188e+02 </wgt>
<wgt id='2185'> +2.9335963e+02 </wgt>
<wgt id='2186'> +2.9883268e+02 </wgt>
<wgt id='2187'> +2.9183791e+02 </wgt>
<wgt id='2188'> +2.8520757e+02 </wgt>
<wgt id='2189'> +2.9826596e+02 </wgt>
<wgt id='2190'> +2.9195589e+02 </wgt>
<wgt id='2191'> +2.9413306e+02 </wgt>
<wgt id='2192'> +3.0073793e+02 </wgt>
<wgt id='2193'> +2.9994027e+02 </wgt>
<wgt id='2194'> +2.9662742e+02 </wgt>
<wgt id='2195'> +2.9685414e+02 </wgt>
<wgt id='2196'> +2.9523602e+02 </wgt>
<wgt id='2197'> +3.0534382e+02 </wgt>
<wgt id='2198'> +2.9583037e+02 </wgt>
<wgt id='2199'> +2.9174477e+02 </wgt>
<wgt id='2200'> +3.0841199e+02 </wgt>
<wgt id='2201'> +2.9291318e+02 </wgt>
<wgt id='2202'> +2.9314294e+02 </wgt>
<wgt id='2203'> +2.9180927e+02 </wgt>
<wgt id='2204'> +2.9692176e+02 </wgt>
<wgt id='2205'> +2.9212227e+02 </wgt>
<wgt id='2206'> +2.9999644e+02 </wgt>
<wgt id='2207'> +3.0275476e+02 </wgt>
<wgt id='2208'> +2.9063091e+02 </wgt>
<wgt id='2209'> +2.8735013e+02 </wgt>
<wgt id='2210'> +2.9134226e+02 </wgt>
<wgt id='2211'> +2.9407963e+02 </wgt>
<wgt id='2212'> +3.0355709e+02 </wgt>
<wgt id='2213'> +2.9318532e+02 </wgt>
<wgt id='2214'> +2.9927638e+02 </wgt>
<wgt id='2215'> +2.9099909e+02 </wgt>
<wgt id='2216'> +2.8934506e+02 </wgt>
<wgt id='2217'> +2.9117879e+02 </wgt>
<wgt id='2218'> +2.9285690e+02 </wgt>
<wgt id='2219'> +2.9493521e+02 </wgt>
<wgt id='2220'> +2.9138431e+02 </wgt>
<wgt id='2221'> +2.9510277e+02 </wgt>
<wgt id='2222'> +2.9655802e+02 </wgt>
<wgt id='2223'> +2.9656933e+02 </wgt>
<wgt id='2224'> +2.9074832e+02 </wgt>
<wgt id='2225'> +2.9204013e+02 </wgt>
<wgt id='2226'> +2.9544205e+02 </wgt>
<wgt id='2227'> +2.9169510e+02 </wgt>
<wgt id='2228'> +2.9177596e+02 </wgt>
<wgt id='2229'> +2.9283793e+02 </wgt>
<wgt id='2230'> +2.9876545e+02 </wgt>
<wgt id='2231'> +2.8969554e+02 </wgt>
<wgt id='2232'> +2.8940628e+02 </wgt>
<wgt id='2233'> +2.9317265e+02 </wgt>
<wgt id='2234'> +2.9645955e+02 </wgt>
<wgt id='2235'> +2.8995915e+02 </wgt>
<wgt id='2236'> +3.0431337e+02 </wgt>
<wgt id='2237'> +2.9200541e+02 </wgt>
<wgt id='2238'> +2.9352602e+02 </wgt>
<wgt id='2239'> +2.9926051e+02 </wgt>
<wgt id='2240'> +2.8987084e+02 </wgt>
<wgt id='2241'> +2.9534600e+02 </wgt>
<wgt id='2242'> +2.9355280e+02 </wgt>
<wgt id='2243'> +2.9350403e+02 </wgt>
<wgt id='2244'> +3.1274693e+02 </wgt>
<wgt id='2245'> +2.9215046e+02 </wgt>
<wgt id='2246'> +2.8608596e+02 </wgt>
<wgt id='2247'> +2.8809415e+02 </wgt>
<wgt id='2248'> +2.9219210e+02 </wgt>
<wgt id='2249'> +2.9490114e+02 </wgt>
<wgt id='2250'> +2.8527742e+02 </wgt>
<wgt id='2251'> +2.9901250e+02 </wgt>
<wgt id='2252'> +2.9181435e+02 </wgt>
<wgt id='2253'> +2.8650817e+02 </wgt>
<wgt id='2254'> +2.9197011e+02 </wgt>
<wgt id='2255'> +2.9952502e+02 </wgt>
<wgt id='2256'> +2.9182295e+02 </wgt>
<wgt id='2257'> +2.9228729e+02 </wgt>
<wgt id='2258'> +2.9478427e+02 </wgt>
<wgt id='2259'> +2.8752214e+02 </wgt>
<wgt id='2260'> +3.0238244e+02 </wgt>
<wgt id='2261'> +2.9266564e+02 </wgt>
<wgt id='2262'> +2.9220953e+02 </wgt>
<wgt id='2263'> +2.9250100e+02 </wgt>
<wgt id='2264'> +2.9719148e+02 </wgt>
<wgt id='2265'> +2.9400946e+02 </wgt>
<wgt id='2266'> +3.0295696e+02 </wgt>
<wgt id='2267'> +2.9160554e+02 </wgt>
<wgt id='2268'> +2.8731304e+02 </wgt>
<wgt id='2269'> +2.9368489e+02 </wgt>
<wgt id='2270'> +2.9539987e+02 </wgt>
<wgt id='2271'> +3.0350726e+02 </wgt>
<wgt id='2272'> +2.9388089e+02 </wgt>
<wgt id='2273'> +2.9609487e+02 </wgt>
<wgt id='2274'> +2.9474060e+02 </wgt>
<wgt id='2275'> +2.9653267e+02 </wgt>
<wgt id='2276'> +2.9731351e+02 </wgt>
<wgt id='2277'> +2.9923534e+02 </wgt>
<wgt id='2278'> +2.8677588e+02 </wgt>
<wgt id='2279'> +2.9933530e+02 </wgt>
<wgt id='2280'> +2.8666740e+02 </wgt>
<wgt id='2281'> +3.1050734e+02 </wgt>
<wgt id='2282'> +4.1507430e+02 </wgt>
<wgt id='2283'> +3.2925751e+02 </wgt>
<wgt id='2284'> +4.0361269e+02 </wgt>
</rwgt>
</event>
<event npLO=" -1 " npNLO=" 1 ">
 4      1 +2.8781417e+02 1.22047510e+01 7.54677110e-03 1.30018780e-01
       21 -1    0    0  502  501 +0.0000000000e+00 +0.0000000000e+00 +1.3370939000e+01 1.3370939000e+01 0.0000000000e+00 0.0000e+00 9.0000e+00
       21 -1    0    0  503  502 -0.0000000000e+00 -0.0000000000e+00 -3.1463145000e+02 3.1463145000e+02 0.0000000000e+00 0.0000e+00 9.0000e+00
       25  1    1    2    0    0 +1.1060448000e+01 +5.1596935000e+00 -2.9909707000e+02 3.1560737000e+02 1.0000000000e+02 0.0000e+00 9.0000e+00
       21  1    1    2  503  501 -1.1060448000e+01 -5.1596935000e+00 -2.1634392000e+00 1.2395015000e+01 0.0000000000e+00 0.0000e+00 9.0000e+00
#aMCatNLO 1  0  0  4  2 0.48799371E+00 0.00000000E+00 -9  5  0 0.00000000E+00 0.00000000E+00 0.00000000E+00 0.00000000E+00 0.00000000E+00
<rwgt>
<wgt id='1001'> +2.8781417e+02 </wgt>
<wgt id='1002'> +2.3602994e+02 </wgt>
<wgt id='1003'> +3.4433180e+02 </wgt>
<wgt id='1004'> +3.0728536e+02 </wgt>
<wgt id='1005'> +2.5139447e+02 </wgt>
<wgt id='1006'> +3.6915991e+02 </wgt>
<wgt id='1007'> +2.6147436e+02 </wgt>
<wgt id='1008'> +2.1495618e+02 </wgt>
<wgt id='1009'> +3.1148058e+02 </wgt>
<wgt id='1010'> +2.8781417e+02 </wgt>
<wgt id='1011'> +2.8860573e+02 </wgt>
<wgt id='1012'> +2.8704807e+02 </wgt>
<wgt id='1013'> +2.8831050e+02 </wgt>
<wgt id='1014'> +2.8832707e+02 </wgt>
<wgt id='1015'> +2.8847571e+02 </wgt>
<wgt id='1016'> +2.8784617e+02 </wgt>
<wgt id='1017'> +2.8799323e+02 </wgt>
<wgt id='1018'> +2.8825580e+02 </wgt>
<wgt id='1019'> +2.8772668e+02 </wgt>
<wgt id='1020'> +2.8840461e+02 </wgt>
<wgt id='1021'> +2.8790627e+02 </wgt>
<wgt id='1022'> +2.8758905e+02 </wgt>
<wgt id='1023'> +2.8773468e+02 </wgt>
<wgt id='1024'> +2.8782609e+02 </wgt>
<wgt id='1025'> +2.8834495e+02 </wgt>
<wgt id='1026'> +2.8714975e+02 </wgt>
<wgt id='1027'> +2.8733752e+02 </wgt>
<wgt id='1028'> +2.8773579e+02 </wgt>
<wgt id='1029'> +2.8897182e+02 </wgt>
<wgt id='1030'> +2.8733048e+02 </wgt>
<wgt id='1031'> +2.8791379e+02 </wgt>
<wgt id='1032'> +2.8711454e+02 </wgt>
<wgt id='1033'> +2.8735157e+02 </wgt>
<wgt id='1034'> +2.8802983e+02 </wgt>
<wgt id='1035'> +2.8790372e+02 </wgt>
<wgt id='1036'> +2.8753181e+02 </wgt>
<wgt id='1037'> +2.8691198e+02 </wgt>
<wgt id='1038'> +2.8817232e+02 </wgt>
<wgt id='1039'> +2.8697475e+02 </wgt>
<wgt id='1040'> +2.8747963e+02 </wgt>
<wgt id='1041'> +2.8708577e+02 </wgt>
<wgt id='1042'> +2.8790585e+02 </wgt>
<wgt id='1043'> +2.8745052e+02 </wgt>
<wgt id='1044'> +2.8751777e+02 </wgt>
<wgt id='1045'> +2.8782453e+02 </wgt>
<wgt id='1046'> +2.8834156e+02 </wgt>
<wgt id='1047'> +2.8781593e+02 </wgt>
<wgt id='1048'> +2.8780775e+02 </wgt>
<wgt id='1049'> +2.8785866e+02 </wgt>
<wgt id='1050'> +2.8766220e+02 </wgt>
<wgt id='1051'> +2.8792282e+02 </wgt>
<wgt id='1052'> +2.8784933e+02 </wgt>
<wgt id='1053'> +2.8762884e+02 </wgt>
<wgt id='1054'> +2.8792763e+02 </wgt>
<wgt id='1055'> +2.8794958e+02 </wgt>
<wgt id='1056'> +2.8794361e+02 </wgt>
<wgt id='1057'> +2.8773042e+02 </wgt>
<wgt id='1058'> +2.8771163e+02 </wgt>
<wgt id='1059'> +2.8765493e+02 </wgt>
<wgt id='1060'> +2.8772984e+02 </wgt>
<wgt id='1061'> +2.8780480e+02 </wgt>
<wgt id='1062'> +2.8798834e+02 </wgt>
<wgt id='1063'> +2.8778506e+02 </wgt>
<wgt id='1064'> +2.8780937e+02 </wgt>
<wgt id='1065'> +2.8789174e+02 </wgt>
<wgt id='1066'> +2.8775695e+02 </wgt>
<wgt id='1067'> +2.8790638e+02 </wgt>
<wgt id='1068'> +2.8782262e+02 </wgt>
<wgt id='1069'> +2.8788747e+02 </wgt>
<wgt id='1070'> +2.8781108e+02 </wgt>
<wgt id='1071'> +2.8779249e+02 </wgt>
<wgt id='1072'> +2.8800250e+02 </wgt>
<wgt id='1073'> +2.8787424e+02 </wgt>
<wgt id='1074'> +2.8788880e+02 </wgt>
<wgt id='1075'> +2.8801746e+02 </wgt>
<wgt id='1076'> +2.8786372e+02 </wgt>
<wgt id='1077'> +2.8789942e+02 </wgt>
<wgt id='1078'> +2.8781134e+02 </wgt>
<wgt id='1079'> +2.8784474e+02 </wgt>
<wgt id='1080'> +2.8784347e+02 </wgt>
<wgt id='1081'> +2.8785375e+02 </wgt>
<wgt id='1082'> +2.8784422e+02 </wgt>
<wgt id='1083'> +2.8783888e+02 </wgt>
<wgt id='1084'> +2.8781434e+02 </wgt>
<wgt id='1085'> +2.8775736e+02 </wgt>
<wgt id='1086'> +2.8778731e+02 </wgt>
<wgt id='1087'> +2.8795395e+02 </wgt>
<wgt id='1088'> +2.8783169e+02 </wgt>
<wgt id='1089'> +2.8775863e+02 </wgt>
<wgt id='1090'> +2.8784027e+02 </wgt>
<wgt id='1091'> +2.8777327e+02 </wgt>
<wgt id='1092'> +2.8784843e+02 </wgt>
<wgt id='1093'> +2.8787457e+02 </wgt>
<wgt id='1094'> +2.8785288e+02 </wgt>
<wgt id='1095'> +2.8781091e+02 </wgt>
<wgt id='1096'> +2.8777592e+02 </wgt>
<wgt id='1097'> +2.8782842e+02 </wgt>
<wgt id='1098'> +2.8781440e+02 </wgt>
<wgt id='1099'> +2.8781178e+02 </wgt>
<wgt id='1100'> +2.8784944e+02 </wgt>
<wgt id='1101'> +2.8780991e+02 </wgt>
<wgt id='1102'> +2.8785332e+02 </wgt>
<wgt id='1103'> +2.8777966e+02 </wgt>
<wgt id='1104'> +2.8779245e+02 </wgt>
<wgt id='1105'> +2.8782860e+02 </wgt>
<wgt id='1106'> +2.8778850e+02 </wgt>
<wgt id='1107'> +2.8783384e+02 </wgt>
<wgt id='1108'> +2.8781278e+02 </wgt>
<wgt id='1109'> +2.8785103e+02 </wgt>
<wgt id='1110'> +2.8781416e+02 </wgt>
<wgt id='1111'> +2.7397866e+02 </wgt>
<wgt id='1112'> +3.0135049e+02 </wgt>
<wgt id='1113'> +2.8781416e+02 </wgt>
<wgt id='1114'> +2.8732272e+02 </wgt>
<wgt id='1115'> +2.8637886e+02 </wgt>
<wgt id='1116'> +2.9052683e+02 </wgt>
<wgt id='1117'> +2.8747396e+02 </wgt>
<wgt id='1118'> +2.8560910e+02 </wgt>
<wgt id='1119'> +2.9039425e+02 </wgt>
<wgt id='1120'> +2.8810093e+02 </wgt>
<wgt id='1121'> +2.8754744e+02 </wgt>
<wgt id='1122'> +2.8919679e+02 </wgt>
<wgt id='1123'> +2.8966390e+02 </wgt>
<wgt id='1124'> +2.9428625e+02 </wgt>
<wgt id='1125'> +2.8805339e+02 </wgt>
<wgt id='1126'> +2.8868459e+02 </wgt>
<wgt id='1127'> +2.8516685e+02 </wgt>
<wgt id='1128'> +2.8620198e+02 </wgt>
<wgt id='1129'> +2.9133023e+02 </wgt>
<wgt id='1130'> +2.9009816e+02 </wgt>
<wgt id='1131'> +2.8903027e+02 </wgt>
<wgt id='1132'> +2.8307515e+02 </wgt>
<wgt id='1133'> +2.8644539e+02 </wgt>
<wgt id='1134'> +2.8150289e+02 </wgt>
<wgt id='1135'> +2.8521984e+02 </wgt>
<wgt id='1136'> +2.8447574e+02 </wgt>
<wgt id='1137'> +2.8785950e+02 </wgt>
<wgt id='1138'> +2.8484091e+02 </wgt>
<wgt id='1139'> +2.8970617e+02 </wgt>
<wgt id='1140'> +2.8336482e+02 </wgt>
<wgt id='1141'> +2.8861645e+02 </wgt>
<wgt id='1142'> +2.8765993e+02 </wgt>
<wgt id='1143'> +2.9032791e+02 </wgt>
<wgt id='1144'> +2.8886848e+02 </wgt>
<wgt id='1145'> +2.9135697e+02 </wgt>
<wgt id='1146'> +2.8244175e+02 </wgt>
<wgt id='1147'> +2.8680389e+02 </wgt>
<wgt id='1148'> +2.9088117e+02 </wgt>
<wgt id='1149'> +2.8931915e+02 </wgt>
<wgt id='1150'> +2.9429718e+02 </wgt>
<wgt id='1151'> +2.8482115e+02 </wgt>
<wgt id='1152'> +2.8603467e+02 </wgt>
<wgt id='1153'> +2.8708250e+02 </wgt>
<wgt id='1154'> +2.8599539e+02 </wgt>
<wgt id='1155'> +2.8671982e+02 </wgt>
<wgt id='1156'> +2.8676414e+02 </wgt>
<wgt id='1157'> +2.8154300e+02 </wgt>
<wgt id='1158'> +2.8659485e+02 </wgt>
<wgt id='1159'> +2.9062423e+02 </wgt>
<wgt id='1160'> +2.8522754e+02 </wgt>
<wgt id='1161'> +2.8907094e+02 </wgt>
<wgt id='1162'> +2.8868073e+02 </wgt>
<wgt id='1163'> +2.9386647e+02 </wgt>
<wgt id='1164'> +2.8456371e+02 </wgt>
<wgt id='1165'> +2.8706755e+02 </wgt>
<wgt id='1166'> +2.8380091e+02 </wgt>
<wgt id='1167'> +2.8927532e+02 </wgt>
<wgt id='1168'> +2.8620336e+02 </wgt>
<wgt id='1169'> +2.8704548e+02 </wgt>
<wgt id='1170'> +2.9257633e+02 </wgt>
<wgt id='1171'> +2.8424211e+02 </wgt>
<wgt id='1172'> +2.8788339e+02 </wgt>
<wgt id='1173'> +2.9046818e+02 </wgt>
<wgt id='1174'> +2.8867468e+02 </wgt>
<wgt id='1175'> +2.8938958e+02 </wgt>
<wgt id='1176'> +2.8244099e+02 </wgt>
<wgt id='1177'> +2.8648107e+02 </wgt>
<wgt id='1178'> +2.8702421e+02 </wgt>
<wgt id='1179'> +2.8723128e+02 </wgt>
<wgt id='1180'> +2.8221399e+02 </wgt>
<wgt id='1181'> +2.8958285e+02 </wgt>
<wgt id='1182'> +2.8572160e+02 </wgt>
<wgt id='1183'> +2.8458239e+02 </wgt>
<wgt id='1184'> +2.8868231e+02 </wgt>
<wgt id='1185'> +2.8769378e+02 </wgt>
<wgt id='1186'> +2.9058906e+02 </wgt>
<wgt id='1187'> +2.8966164e+02 </wgt>
<wgt id='1188'> +2.9065860e+02 </wgt>
<wgt id='1189'> +2.8695188e+02 </wgt>
<wgt id='1190'> +2.8701442e+02 </wgt>
<wgt id='1191'> +2.8742555e+02 </wgt>
<wgt id='1192'> +2.8534481e+02 </wgt>
<wgt id='1193'> +2.8546147e+02 </wgt>
<wgt id='1194'> +2.8435325e+02 </wgt>
<wgt id='1195'> +2.9133023e+02 </wgt>
<wgt id='1196'> +2.8586374e+02 </wgt>
<wgt id='1197'> +2.9004498e+02 </wgt>
<wgt id='1198'> +2.9666784e+02 </wgt>
<wgt id='1199'> +2.8425152e+02 </wgt>
<wgt id='1200'> +2.9070644e+02 </wgt>
<wgt id='1201'> +2.9039936e+02 </wgt>
<wgt id='1202'> +2.9344439e+02 </wgt>
<wgt id='1203'> +2.8579807e+02 </wgt>
<wgt id='1204'> +2.8327607e+02 </wgt>
<wgt id='1205'> +2.8950903e+02 </wgt>
<wgt id='1206'> +2.8942570e+02 </wgt>
<wgt id='1207'> +2.8729158e+02 </wgt>
<wgt id='1208'> +2.9307230e+02 </wgt>
<wgt id='1209'> +2.8360801e+02 </wgt>
<wgt id='1210'> +2.8514081e+02 </wgt>
<wgt id='1211'> +2.9217927e+02 </wgt>
<wgt id='1212'> +2.9195924e+02 </wgt>
<wgt id='1213'> +2.9153795e+02 </wgt>
<wgt id='1214'> +2.8767834e+02 </wgt>
<wgt id='1215'> +2.8720052e+02 </wgt>
<wgt id='1216'> +2.8822658e+02 </wgt>
<wgt id='1217'> +2.8791394e+02 </wgt>
<wgt id='1218'> +2.8780622e+02 </wgt>
<wgt id='1219'> +2.8764343e+02 </wgt>
<wgt id='1220'> +2.8750735e+02 </wgt>
<wgt id='1221'> +2.8766560e+02 </wgt>
<wgt id='1222'> +2.8823742e+02 </wgt>
<wgt id='1223'> +2.8732344e+02 </wgt>
<wgt id='1224'> +2.8724392e+02 </wgt>
<wgt id='1225'> +2.8829913e+02 </wgt>
<wgt id='1226'> +2.8822997e+02 </wgt>
<wgt id='1227'> +2.8793667e+02 </wgt>
<wgt id='1228'> +2.8803384e+02 </wgt>
<wgt id='1229'> +2.8805023e+02 </wgt>
<wgt id='1230'> +2.8797540e+02 </wgt>
<wgt id='1231'> +2.8763229e+02 </wgt>
<wgt id='1232'> +2.8791083e+02 </wgt>
<wgt id='1233'> +2.8770271e+02 </wgt>
<wgt id='1234'> +2.8851140e+02 </wgt>
<wgt id='1235'> +2.8731827e+02 </wgt>
<wgt id='1236'> +2.8853726e+02 </wgt>
<wgt id='1237'> +2.8823669e+02 </wgt>
<wgt id='1238'> +2.8751886e+02 </wgt>
<wgt id='1239'> +2.8884569e+02 </wgt>
<wgt id='1240'> +2.8859904e+02 </wgt>
<wgt id='1241'> +2.8732701e+02 </wgt>
<wgt id='1242'> +2.8701728e+02 </wgt>
<wgt id='1243'> +2.8810710e+02 </wgt>
<wgt id='1244'> +2.8769528e+02 </wgt>
<wgt id='1245'> +2.8806685e+02 </wgt>
<wgt id='1246'> +2.8732973e+02 </wgt>
<wgt id='1247'> +2.8767075e+02 </wgt>
<wgt id='1248'> +2.8816623e+02 </wgt>
<wgt id='1249'> +2.8762407e+02 </wgt>
<wgt id='1250'> +2.8791154e+02 </wgt>
<wgt id='1251'> +2.8791892e+02 </wgt>
<wgt id='1252'> +2.8769107e+02 </wgt>
<wgt id='1253'> +2.8743811e+02 </wgt>
<wgt id='1254'> +2.8786886e+02 </wgt>
<wgt id='1255'> +2.8778179e+02 </wgt>
<wgt id='1256'> +2.8745584e+02 </wgt>
<wgt id='1257'> +2.8779829e+02 </wgt>
<wgt id='1258'> +2.8789417e+02 </wgt>
<wgt id='1259'> +2.8762908e+02 </wgt>
<wgt id='1260'> +2.8776756e+02 </wgt>
<wgt id='1261'> +2.8789629e+02 </wgt>
<wgt id='1262'> +2.8764180e+02 </wgt>
<wgt id='1263'> +2.8767104e+02 </wgt>
<wgt id='1264'> +2.8771339e+02 </wgt>
<wgt id='1265'> +2.8792188e+02 </wgt>
<wgt id='1266'> +2.8766642e+02 </wgt>
<wgt id='1267'> +2.8767675e+02 </wgt>
<wgt id='1268'> +2.8766468e+02 </wgt>
<wgt id='1269'> +2.8767577e+02 </wgt>
<wgt id='1270'> +2.8769182e+02 </wgt>
<wgt id='1271'> +2.8777406e+02 </wgt>
<wgt id='1272'> +2.8778065e+02 </wgt>
<wgt id='1273'> +2.8766001e+02 </wgt>
<wgt id='1274'> +2.8775129e+02 </wgt>
<wgt id='1275'> +2.8755226e+02 </wgt>
<wgt id='1276'> +2.8761209e+02 </wgt>
<wgt id='1277'> +2.8773510e+02 </wgt>
<wgt id='1278'> +2.8754067e+02 </wgt>
<wgt id='1279'> +2.8769109e+02 </wgt>
<wgt id='1280'> +2.8755512e+02 </wgt>
<wgt id='1281'> +2.8767337e+02 </wgt>
<wgt id='1282'> +2.8773344e+02 </wgt>
<wgt id='1283'> +2.8771841e+02 </wgt>
<wgt id='1284'> +2.8768540e+02 </wgt>
<wgt id='1285'> +2.8763030e+02 </wgt>
<wgt id='1286'> +2.8769808e+02 </wgt>
<wgt id='1287'> +2.8770331e+02 </wgt>
<wgt id='1288'> +2.8774433e+02 </wgt>
<wgt id='1289'> +2.8762910e+02 </wgt>
<wgt id='1290'> +2.8771958e+02 </wgt>
<wgt id='1291'> +2.8763270e+02 </wgt>
<wgt id='1292'> +2.8766580e+02 </wgt>
<wgt id='1293'> +2.8770653e+02 </wgt>
<wgt id='1294'> +2.8769387e+02 </wgt>
<wgt id='1295'> +2.8772628e+02 </wgt>
<wgt id='1296'> +2.8770390e+02 </wgt>
<wgt id='1297'> +2.8764856e+02 </wgt>
<wgt id='1298'> +2.8769013e+02 </wgt>
<wgt id='1299'> +2.8765941e+02 </wgt>
<wgt id='1300'> +2.8765667e+02 </wgt>
<wgt id='1301'> +2.8765861e+02 </wgt>
<wgt id='1302'> +2.8768888e+02 </wgt>
<wgt id='1303'> +2.8767684e+02 </wgt>
<wgt id='1304'> +2.8767105e+02 </wgt>
<wgt id='1305'> +2.8766242e+02 </wgt>
<wgt id='1306'> +2.8766240e+02 </wgt>
<wgt id='1307'> +2.8767031e+02 </wgt>
<wgt id='1308'> +2.8766515e+02 </wgt>
<wgt id='1309'> +2.8768350e+02 </wgt>
<wgt id='1310'> +2.8767265e+02 </wgt>
<wgt id='1311'> +2.8769641e+02 </wgt>
<wgt id='1312'> +2.8767031e+02 </wgt>
<wgt id='1313'> +2.8767796e+02 </wgt>
<wgt id='1314'> +2.8768105e+02 </wgt>
<wgt id='1315'> +2.7397866e+02 </wgt>
<wgt id='1316'> +3.0135049e+02 </wgt>
<wgt id='1317'> +2.2532424e+02 </wgt>
<wgt id='1318'> +2.3657624e+02 </wgt>
<wgt id='1319'> +2.4862774e+02 </wgt>
<wgt id='1320'> +2.6121858e+02 </wgt>
<wgt id='1321'> +2.8101215e+02 </wgt>
<wgt id='1322'> +2.9472986e+02 </wgt>
<wgt id='1323'> +3.1471570e+02 </wgt>
<wgt id='1324'> +3.2909879e+02 </wgt>
<wgt id='1325'> +2.9235628e+02 </wgt>
<wgt id='1326'> +2.9284983e+02 </wgt>
<wgt id='1327'> +2.9177476e+02 </wgt>
<wgt id='1328'> +2.9262742e+02 </wgt>
<wgt id='1329'> +2.9264952e+02 </wgt>
<wgt id='1330'> +2.9254859e+02 </wgt>
<wgt id='1331'> +2.9238030e+02 </wgt>
<wgt id='1332'> +2.9195964e+02 </wgt>
<wgt id='1333'> +2.9210273e+02 </wgt>
<wgt id='1334'> +2.9120609e+02 </wgt>
<wgt id='1335'> +2.9194377e+02 </wgt>
<wgt id='1336'> +2.9277737e+02 </wgt>
<wgt id='1337'> +2.9308180e+02 </wgt>
<wgt id='1338'> +2.9184066e+02 </wgt>
<wgt id='1339'> +2.9244893e+02 </wgt>
<wgt id='1340'> +2.9232940e+02 </wgt>
<wgt id='1341'> +2.9247450e+02 </wgt>
<wgt id='1342'> +2.9248875e+02 </wgt>
<wgt id='1343'> +2.9287256e+02 </wgt>
<wgt id='1344'> +2.9210762e+02 </wgt>
<wgt id='1345'> +2.9166842e+02 </wgt>
<wgt id='1346'> +2.9153880e+02 </wgt>
<wgt id='1347'> +2.9231972e+02 </wgt>
<wgt id='1348'> +2.9174237e+02 </wgt>
<wgt id='1349'> +2.9143946e+02 </wgt>
<wgt id='1350'> +2.9240138e+02 </wgt>
<wgt id='1351'> +2.9302455e+02 </wgt>
<wgt id='1352'> +2.9241080e+02 </wgt>
<wgt id='1353'> +2.9126263e+02 </wgt>
<wgt id='1354'> +2.9191355e+02 </wgt>
<wgt id='1355'> +2.9285588e+02 </wgt>
<wgt id='1356'> +2.9262411e+02 </wgt>
<wgt id='1357'> +2.9281297e+02 </wgt>
<wgt id='1358'> +2.9291641e+02 </wgt>
<wgt id='1359'> +2.9259088e+02 </wgt>
<wgt id='1360'> +2.9287674e+02 </wgt>
<wgt id='1361'> +2.9246210e+02 </wgt>
<wgt id='1362'> +2.9234609e+02 </wgt>
<wgt id='1363'> +2.9239925e+02 </wgt>
<wgt id='1364'> +2.9199208e+02 </wgt>
<wgt id='1365'> +2.9239812e+02 </wgt>
<wgt id='1366'> +2.9258037e+02 </wgt>
<wgt id='1367'> +2.9210028e+02 </wgt>
<wgt id='1368'> +2.9215374e+02 </wgt>
<wgt id='1369'> +2.9230895e+02 </wgt>
<wgt id='1370'> +2.9254432e+02 </wgt>
<wgt id='1371'> +2.9251598e+02 </wgt>
<wgt id='1372'> +2.9232609e+02 </wgt>
<wgt id='1373'> +2.9254245e+02 </wgt>
<wgt id='1374'> +2.9234304e+02 </wgt>
<wgt id='1375'> +2.9240571e+02 </wgt>
<wgt id='1376'> +2.9258991e+02 </wgt>
<wgt id='1377'> +2.9226198e+02 </wgt>
<wgt id='1378'> +2.9224613e+02 </wgt>
<wgt id='1379'> +2.9229373e+02 </wgt>
<wgt id='1380'> +2.9218125e+02 </wgt>
<wgt id='1381'> +2.9238222e+02 </wgt>
<wgt id='1382'> +2.9219111e+02 </wgt>
<wgt id='1383'> +2.9226783e+02 </wgt>
<wgt id='1384'> +2.9232360e+02 </wgt>
<wgt id='1385'> +2.9237508e+02 </wgt>
<wgt id='1386'> +2.9233074e+02 </wgt>
<wgt id='1387'> +2.9236453e+02 </wgt>
<wgt id='1388'> +2.9248773e+02 </wgt>
<wgt id='1389'> +2.9230302e+02 </wgt>
<wgt id='1390'> +2.9240488e+02 </wgt>
<wgt id='1391'> +2.9237588e+02 </wgt>
<wgt id='1392'> +2.9231721e+02 </wgt>
<wgt id='1393'> +2.9236041e+02 </wgt>
<wgt id='1394'> +2.9230373e+02 </wgt>
<wgt id='1395'> +2.9238246e+02 </wgt>
<wgt id='1396'> +2.9236897e+02 </wgt>
<wgt id='1397'> +2.9236777e+02 </wgt>
<wgt id='1398'> +2.9230600e+02 </wgt>
<wgt id='1399'> +2.9243067e+02 </wgt>
<wgt id='1400'> +2.9235814e+02 </wgt>
<wgt id='1401'> +2.9234507e+02 </wgt>
<wgt id='1402'> +2.9237904e+02 </wgt>
<wgt id='1403'> +2.9237967e+02 </wgt>
<wgt id='1404'> +2.9234714e+02 </wgt>
<wgt id='1405'> +2.9232923e+02 </wgt>
<wgt id='1406'> +2.9235116e+02 </wgt>
<wgt id='1407'> +2.9232407e+02 </wgt>
<wgt id='1408'> +2.9238726e+02 </wgt>
<wgt id='1409'> +2.9235759e+02 </wgt>
<wgt id='1410'> +2.9237932e+02 </wgt>
<wgt id='1411'> +2.9237115e+02 </wgt>
<wgt id='1412'> +2.9236048e+02 </wgt>
<wgt id='1413'> +2.9235261e+02 </wgt>
<wgt id='1414'> +2.9235789e+02 </wgt>
<wgt id='1415'> +2.9237985e+02 </wgt>
<wgt id='1416'> +2.9234982e+02 </wgt>
<wgt id='1417'> +2.9234981e+02 </wgt>
<wgt id='1418'> +2.9235983e+02 </wgt>
<wgt id='1419'> +2.9238167e+02 </wgt>
<wgt id='1420'> +2.9235916e+02 </wgt>
<wgt id='1421'> +2.9231356e+02 </wgt>
<wgt id='1422'> +2.9232500e+02 </wgt>
<wgt id='1423'> +2.9232645e+02 </wgt>
<wgt id='1424'> +2.9236369e+02 </wgt>
<wgt id='1425'> +2.9236434e+02 </wgt>
<wgt id='1426'> +2.7833075e+02 </wgt>
<wgt id='1427'> +3.0731821e+02 </wgt>
<wgt id='1428'> +2.7772291e+02 </wgt>
<wgt id='1429'> +2.7721621e+02 </wgt>
<wgt id='1430'> +2.7701290e+02 </wgt>
<wgt id='1431'> +2.7701826e+02 </wgt>
<wgt id='1432'> +2.7728432e+02 </wgt>
<wgt id='1433'> +2.7489450e+02 </wgt>
<wgt id='1434'> +2.7701876e+02 </wgt>
<wgt id='1435'> +2.7688533e+02 </wgt>
<wgt id='1436'> +2.7691087e+02 </wgt>
<wgt id='1437'> +2.7913006e+02 </wgt>
<wgt id='1438'> +2.7684226e+02 </wgt>
<wgt id='1439'> +2.7770733e+02 </wgt>
<wgt id='1440'> +2.7718109e+02 </wgt>
<wgt id='1441'> +2.7402957e+02 </wgt>
<wgt id='1442'> +2.7874548e+02 </wgt>
<wgt id='1443'> +2.7925450e+02 </wgt>
<wgt id='1444'> +2.7281849e+02 </wgt>
<wgt id='1445'> +2.7731973e+02 </wgt>
<wgt id='1446'> +2.7818528e+02 </wgt>
<wgt id='1447'> +2.7699305e+02 </wgt>
<wgt id='1448'> +2.7849405e+02 </wgt>
<wgt id='1449'> +2.7837721e+02 </wgt>
<wgt id='1450'> +2.7729169e+02 </wgt>
<wgt id='1451'> +2.7651269e+02 </wgt>
<wgt id='1452'> +2.7897853e+02 </wgt>
<wgt id='1453'> +2.7754952e+02 </wgt>
<wgt id='1454'> +2.7785919e+02 </wgt>
<wgt id='1455'> +2.8026980e+02 </wgt>
<wgt id='1456'> +2.7339010e+02 </wgt>
<wgt id='1457'> +2.7306528e+02 </wgt>
<wgt id='1458'> +2.8050666e+02 </wgt>
<wgt id='1459'> +2.7500078e+02 </wgt>
<wgt id='1460'> +2.8162353e+02 </wgt>
<wgt id='1461'> +2.7616274e+02 </wgt>
<wgt id='1462'> +2.7902832e+02 </wgt>
<wgt id='1463'> +2.7450878e+02 </wgt>
<wgt id='1464'> +2.8040843e+02 </wgt>
<wgt id='1465'> +2.7584447e+02 </wgt>
<wgt id='1466'> +2.7973109e+02 </wgt>
<wgt id='1467'> +2.8257601e+02 </wgt>
<wgt id='1468'> +2.7526784e+02 </wgt>
<wgt id='1469'> +2.7619697e+02 </wgt>
<wgt id='1470'> +2.7768273e+02 </wgt>
<wgt id='1471'> +2.7939126e+02 </wgt>
<wgt id='1472'> +2.7220190e+02 </wgt>
<wgt id='1473'> +2.8213894e+02 </wgt>
<wgt id='1474'> +2.7638337e+02 </wgt>
<wgt id='1475'> +2.7789125e+02 </wgt>
<wgt id='1476'> +2.8001548e+02 </wgt>
<wgt id='1477'> +2.7774971e+02 </wgt>
<wgt id='1478'> +2.7835265e+02 </wgt>
<wgt id='1479'> +2.7819725e+02 </wgt>
<wgt id='1480'> +2.7765025e+02 </wgt>
<wgt id='1481'> +2.7247286e+02 </wgt>
<wgt id='1482'> +2.7693320e+02 </wgt>
<wgt id='1483'> +2.7588916e+02 </wgt>
<wgt id='1484'> +2.8040784e+02 </wgt>
<wgt id='1485'> +2.6376721e+02 </wgt>
<wgt id='1486'> +2.9173506e+02 </wgt>
<wgt id='1487'> +2.8364002e+02 </wgt>
<wgt id='1488'> +2.8379620e+02 </wgt>
<wgt id='1489'> +2.8431137e+02 </wgt>
<wgt id='1490'> +2.8441415e+02 </wgt>
<wgt id='1491'> +2.8307838e+02 </wgt>
<wgt id='1492'> +2.8457418e+02 </wgt>
<wgt id='1493'> +2.8298079e+02 </wgt>
<wgt id='1494'> +2.8472660e+02 </wgt>
<wgt id='1495'> +2.8360448e+02 </wgt>
<wgt id='1496'> +2.7951966e+02 </wgt>
<wgt id='1497'> +2.8564518e+02 </wgt>
<wgt id='1498'> +2.8718903e+02 </wgt>
<wgt id='1499'> +2.8153090e+02 </wgt>
<wgt id='1500'> +2.7496662e+02 </wgt>
<wgt id='1501'> +2.8855088e+02 </wgt>
<wgt id='1502'> +2.8700505e+02 </wgt>
<wgt id='1503'> +2.8149050e+02 </wgt>
<wgt id='1504'> +2.8014845e+02 </wgt>
<wgt id='1505'> +2.8778403e+02 </wgt>
<wgt id='1506'> +2.8666238e+02 </wgt>
<wgt id='1507'> +2.8023268e+02 </wgt>
<wgt id='1508'> +2.8405828e+02 </wgt>
<wgt id='1509'> +2.8263708e+02 </wgt>
<wgt id='1510'> +2.8272169e+02 </wgt>
<wgt id='1511'> +2.8439103e+02 </wgt>
<wgt id='1512'> +2.8176706e+02 </wgt>
<wgt id='1513'> +2.8530837e+02 </wgt>
<wgt id='1514'> +2.8296559e+02 </wgt>
<wgt id='1515'> +2.8452096e+02 </wgt>
<wgt id='1516'> +2.8198068e+02 </wgt>
<wgt id='1517'> +2.8421373e+02 </wgt>
<wgt id='1518'> +2.8410943e+02 </wgt>
<wgt id='1519'> +2.8302735e+02 </wgt>
<wgt id='1520'> +2.8318736e+02 </wgt>
<wgt id='1521'> +2.8462059e+02 </wgt>
<wgt id='1522'> +2.8624898e+02 </wgt>
<wgt id='1523'> +2.8115490e+02 </wgt>
<wgt id='1524'> +2.8507764e+02 </wgt>
<wgt id='1525'> +2.8103509e+02 </wgt>
<wgt id='1526'> +2.8315098e+02 </wgt>
<wgt id='1527'> +2.8363505e+02 </wgt>
<wgt id='1528'> +2.8506639e+02 </wgt>
<wgt id='1529'> +2.8240566e+02 </wgt>
<wgt id='1530'> +2.8443925e+02 </wgt>
<wgt id='1531'> +2.8330880e+02 </wgt>
<wgt id='1532'> +2.8000050e+02 </wgt>
<wgt id='1533'> +2.8350150e+02 </wgt>
<wgt id='1534'> +2.8235776e+02 </wgt>
<wgt id='1535'> +2.8240655e+02 </wgt>
<wgt id='1536'> +2.8135251e+02 </wgt>
<wgt id='1537'> +2.8199567e+02 </wgt>
<wgt id='1538'> +2.8304705e+02 </wgt>
<wgt id='1539'> +2.8330619e+02 </wgt>
<wgt id='1540'> +2.7535435e+02 </wgt>
<wgt id='1541'> +2.8384147e+02 </wgt>
<wgt id='1542'> +2.8203341e+02 </wgt>
<wgt id='1543'> +2.8602080e+02 </wgt>
<wgt id='1544'> +2.6882344e+02 </wgt>
<wgt id='1545'> +2.9867409e+02 </wgt>
<wgt id='1546'> +2.9208369e+02 </wgt>
<wgt id='1547'> +2.8768479e+02 </wgt>
<wgt id='1548'> +2.8801266e+02 </wgt>
<wgt id='1549'> +2.8733524e+02 </wgt>
<wgt id='1550'> +2.8784377e+02 </wgt>
<wgt id='1551'> +2.8757603e+02 </wgt>
<wgt id='1552'> +2.8817433e+02 </wgt>
<wgt id='1553'> +2.8722094e+02 </wgt>
<wgt id='1554'> +2.8660777e+02 </wgt>
<wgt id='1555'> +2.8887697e+02 </wgt>
<wgt id='1556'> +2.8889864e+02 </wgt>
<wgt id='1557'> +2.8650840e+02 </wgt>
<wgt id='1558'> +2.8836688e+02 </wgt>
<wgt id='1559'> +2.8618790e+02 </wgt>
<wgt id='1560'> +2.8732341e+02 </wgt>
<wgt id='1561'> +2.8833009e+02 </wgt>
<wgt id='1562'> +2.8683419e+02 </wgt>
<wgt id='1563'> +2.8816606e+02 </wgt>
<wgt id='1564'> +2.8586266e+02 </wgt>
<wgt id='1565'> +2.8983985e+02 </wgt>
<wgt id='1566'> +2.8786136e+02 </wgt>
<wgt id='1567'> +2.8752754e+02 </wgt>
<wgt id='1568'> +2.8703443e+02 </wgt>
<wgt id='1569'> +2.8855335e+02 </wgt>
<wgt id='1570'> +2.8557607e+02 </wgt>
<wgt id='1571'> +2.8917482e+02 </wgt>
<wgt id='1572'> +2.8657426e+02 </wgt>
<wgt id='1573'> +2.8785954e+02 </wgt>
<wgt id='1574'> +2.8853106e+02 </wgt>
<wgt id='1575'> +2.8767519e+02 </wgt>
<wgt id='1576'> +2.8872260e+02 </wgt>
<wgt id='1577'> +2.8645877e+02 </wgt>
<wgt id='1578'> +2.8745106e+02 </wgt>
<wgt id='1579'> +2.8780389e+02 </wgt>
<wgt id='1580'> +2.8832996e+02 </wgt>
<wgt id='1581'> +2.8697861e+02 </wgt>
<wgt id='1582'> +2.8772224e+02 </wgt>
<wgt id='1583'> +2.8816692e+02 </wgt>
<wgt id='1584'> +2.8821685e+02 </wgt>
<wgt id='1585'> +2.8766925e+02 </wgt>
<wgt id='1586'> +2.8725133e+02 </wgt>
<wgt id='1587'> +2.8815553e+02 </wgt>
<wgt id='1588'> +2.8708646e+02 </wgt>
<wgt id='1589'> +2.8842553e+02 </wgt>
<wgt id='1590'> +2.9169189e+02 </wgt>
<wgt id='1591'> +2.8607429e+02 </wgt>
<wgt id='1592'> +2.8744536e+02 </wgt>
<wgt id='1593'> +2.8830690e+02 </wgt>
<wgt id='1594'> +2.8909240e+02 </wgt>
<wgt id='1595'> +2.8464165e+02 </wgt>
<wgt id='1596'> +2.8835778e+02 </wgt>
<wgt id='1597'> +2.8725402e+02 </wgt>
<wgt id='1598'> +2.7831051e+02 </wgt>
<wgt id='1599'> +2.7848307e+02 </wgt>
<wgt id='1600'> +2.7810342e+02 </wgt>
<wgt id='1601'> +2.7910196e+02 </wgt>
<wgt id='1602'> +2.7752022e+02 </wgt>
<wgt id='1603'> +2.7880815e+02 </wgt>
<wgt id='1604'> +2.7811389e+02 </wgt>
<wgt id='1605'> +2.7717886e+02 </wgt>
<wgt id='1606'> +2.7943834e+02 </wgt>
<wgt id='1607'> +2.7889696e+02 </wgt>
<wgt id='1608'> +2.7774662e+02 </wgt>
<wgt id='1609'> +2.7533662e+02 </wgt>
<wgt id='1610'> +2.7959564e+02 </wgt>
<wgt id='1611'> +2.7829908e+02 </wgt>
<wgt id='1612'> +2.7833082e+02 </wgt>
<wgt id='1613'> +2.7741753e+02 </wgt>
<wgt id='1614'> +2.7927710e+02 </wgt>
<wgt id='1615'> +2.7665820e+02 </wgt>
<wgt id='1616'> +2.7920393e+02 </wgt>
<wgt id='1617'> +2.7799247e+02 </wgt>
<wgt id='1618'> +2.7875362e+02 </wgt>
<wgt id='1619'> +2.7826883e+02 </wgt>
<wgt id='1620'> +2.7833843e+02 </wgt>
<wgt id='1621'> +2.8032283e+02 </wgt>
<wgt id='1622'> +2.7618400e+02 </wgt>
<wgt id='1623'> +2.7923946e+02 </wgt>
<wgt id='1624'> +2.7605183e+02 </wgt>
<wgt id='1625'> +2.7942105e+02 </wgt>
<wgt id='1626'> +2.7798004e+02 </wgt>
<wgt id='1627'> +2.7760847e+02 </wgt>
<wgt id='1628'> +2.7991409e+02 </wgt>
<wgt id='1629'> +2.7810552e+02 </wgt>
<wgt id='1630'> +2.7882401e+02 </wgt>
<wgt id='1631'> +2.7813976e+02 </wgt>
<wgt id='1632'> +2.7882657e+02 </wgt>
<wgt id='1633'> +2.7852472e+02 </wgt>
<wgt id='1634'> +2.7838844e+02 </wgt>
<wgt id='1635'> +2.7839509e+02 </wgt>
<wgt id='1636'> +2.7848698e+02 </wgt>
<wgt id='1637'> +2.7781545e+02 </wgt>
<wgt id='1638'> +2.7866012e+02 </wgt>
<wgt id='1639'> +2.7783884e+02 </wgt>
<wgt id='1640'> +2.7883144e+02 </wgt>
<wgt id='1641'> +2.7853477e+02 </wgt>
<wgt id='1642'> +2.7702585e+02 </wgt>
<wgt id='1643'> +2.7582662e+02 </wgt>
<wgt id='1644'> +2.7980625e+02 </wgt>
<wgt id='1645'> +2.7908145e+02 </wgt>
<wgt id='1646'> +2.7796324e+02 </wgt>
<wgt id='1647'> +2.7766375e+02 </wgt>
<wgt id='1648'> +2.7867765e+02 </wgt>
<wgt id='1649'> +5.0822875e+02 </wgt>
<wgt id='1650'> +2.8275023e+02 </wgt>
<wgt id='1651'> +2.8264006e+02 </wgt>
<wgt id='1652'> +2.8283407e+02 </wgt>
<wgt id='1653'> +2.8277036e+02 </wgt>
<wgt id='1654'> +2.8274134e+02 </wgt>
<wgt id='1655'> +2.8203268e+02 </wgt>
<wgt id='1656'> +2.8263271e+02 </wgt>
<wgt id='1657'> +2.8246325e+02 </wgt>
<wgt id='1658'> +2.8329804e+02 </wgt>
<wgt id='1659'> +2.8388306e+02 </wgt>
<wgt id='1660'> +2.8273221e+02 </wgt>
<wgt id='1661'> +2.8263239e+02 </wgt>
<wgt id='1662'> +2.8234594e+02 </wgt>
<wgt id='1663'> +2.8252902e+02 </wgt>
<wgt id='1664'> +2.8271708e+02 </wgt>
<wgt id='1665'> +2.8249626e+02 </wgt>
<wgt id='1666'> +2.8290275e+02 </wgt>
<wgt id='1667'> +2.8265664e+02 </wgt>
<wgt id='1668'> +2.8292418e+02 </wgt>
<wgt id='1669'> +2.8305601e+02 </wgt>
<wgt id='1670'> +2.8208863e+02 </wgt>
<wgt id='1671'> +2.8271560e+02 </wgt>
<wgt id='1672'> +2.8152117e+02 </wgt>
<wgt id='1673'> +2.8287103e+02 </wgt>
<wgt id='1674'> +2.8293908e+02 </wgt>
<wgt id='1675'> +2.8339348e+02 </wgt>
<wgt id='1676'> +2.8327537e+02 </wgt>
<wgt id='1677'> +2.8241215e+02 </wgt>
<wgt id='1678'> +2.8304521e+02 </wgt>
<wgt id='1679'> +2.8090027e+02 </wgt>
<wgt id='1680'> +2.8624909e+02 </wgt>
<wgt id='1681'> +2.8504930e+02 </wgt>
<wgt id='1682'> +2.8736554e+02 </wgt>
<wgt id='1683'> +2.8738269e+02 </wgt>
<wgt id='1684'> +2.8567542e+02 </wgt>
<wgt id='1685'> +2.8618782e+02 </wgt>
<wgt id='1686'> +2.8604396e+02 </wgt>
<wgt id='1687'> +2.8717790e+02 </wgt>
<wgt id='1688'> +2.8719746e+02 </wgt>
<wgt id='1689'> +2.8619014e+02 </wgt>
<wgt id='1690'> +2.8984260e+02 </wgt>
<wgt id='1691'> +2.8638425e+02 </wgt>
<wgt id='1692'> +2.8430599e+02 </wgt>
<wgt id='1693'> +2.8640855e+02 </wgt>
<wgt id='1694'> +2.8332085e+02 </wgt>
<wgt id='1695'> +2.8723168e+02 </wgt>
<wgt id='1696'> +2.8645992e+02 </wgt>
<wgt id='1697'> +2.8477593e+02 </wgt>
<wgt id='1698'> +2.8525670e+02 </wgt>
<wgt id='1699'> +2.8523381e+02 </wgt>
<wgt id='1700'> +2.8618799e+02 </wgt>
<wgt id='1701'> +2.8491570e+02 </wgt>
<wgt id='1702'> +2.8657445e+02 </wgt>
<wgt id='1703'> +2.8542883e+02 </wgt>
<wgt id='1704'> +2.8611582e+02 </wgt>
<wgt id='1705'> +2.8603339e+02 </wgt>
<wgt id='1706'> +2.8570595e+02 </wgt>
<wgt id='1707'> +2.8620674e+02 </wgt>
<wgt id='1708'> +2.8549565e+02 </wgt>
<wgt id='1709'> +2.8592057e+02 </wgt>
<wgt id='1710'> +2.8632379e+02 </wgt>
<wgt id='1711'> +2.8612878e+02 </wgt>
<wgt id='1712'> +2.8628624e+02 </wgt>
<wgt id='1713'> +2.8558495e+02 </wgt>
<wgt id='1714'> +2.8629179e+02 </wgt>
<wgt id='1715'> +2.8695171e+02 </wgt>
<wgt id='1716'> +2.8606090e+02 </wgt>
<wgt id='1717'> +2.8633493e+02 </wgt>
<wgt id='1718'> +2.8601935e+02 </wgt>
<wgt id='1719'> +2.8629687e+02 </wgt>
<wgt id='1720'> +2.8627186e+02 </wgt>
<wgt id='1721'> +2.8637730e+02 </wgt>
<wgt id='1722'> +2.8641617e+02 </wgt>
<wgt id='1723'> +2.8598806e+02 </wgt>
<wgt id='1724'> +2.8645740e+02 </wgt>
<wgt id='1725'> +2.8646373e+02 </wgt>
<wgt id='1726'> +2.8656119e+02 </wgt>
<wgt id='1727'> +2.8604147e+02 </wgt>
<wgt id='1728'> +2.8600958e+02 </wgt>
<wgt id='1729'> +2.8623611e+02 </wgt>
<wgt id='1730'> +2.8628251e+02 </wgt>
<wgt id='1731'> +2.8600438e+02 </wgt>
<wgt id='1732'> +2.8627283e+02 </wgt>
<wgt id='1733'> +2.8610998e+02 </wgt>
<wgt id='1734'> +2.8614998e+02 </wgt>
<wgt id='1735'> +2.8626359e+02 </wgt>
<wgt id='1736'> +2.8621560e+02 </wgt>
<wgt id='1737'> +2.8618869e+02 </wgt>
<wgt id='1738'> +2.8655458e+02 </wgt>
<wgt id='1739'> +2.8609835e+02 </wgt>
<wgt id='1740'> +2.8593012e+02 </wgt>
<wgt id='1741'> +2.8620734e+02 </wgt>
<wgt id='1742'> +2.8601819e+02 </wgt>
<wgt id='1743'> +2.8626972e+02 </wgt>
<wgt id='1744'> +2.8616754e+02 </wgt>
<wgt id='1745'> +2.8624238e+02 </wgt>
<wgt id='1746'> +2.8619650e+02 </wgt>
<wgt id='1747'> +2.8620611e+02 </wgt>
<wgt id='1748'> +2.8635966e+02 </wgt>
<wgt id='1749'> +2.8632868e+02 </wgt>
<wgt id='1750'> +2.8625336e+02 </wgt>
<wgt id='1751'> +2.8612556e+02 </wgt>
<wgt id='1752'> +2.8613871e+02 </wgt>
<wgt id='1753'> +2.8612775e+02 </wgt>
<wgt id='1754'> +2.8631378e+02 </wgt>
<wgt id='1755'> +2.8622314e+02 </wgt>
<wgt id='1756'> +2.8621315e+02 </wgt>
<wgt id='1757'> +2.8623797e+02 </wgt>
<wgt id='1758'> +2.8626658e+02 </wgt>
<wgt id='1759'> +2.8641780e+02 </wgt>
<wgt id='1760'> +2.8625596e+02 </wgt>
<wgt id='1761'> +2.8630682e+02 </wgt>
<wgt id='1762'> +2.8605623e+02 </wgt>
<wgt id='1763'> +2.8636972e+02 </wgt>
<wgt id='1764'> +2.8631519e+02 </wgt>
<wgt id='1765'> +2.8630945e+02 </wgt>
<wgt id='1766'> +2.8638438e+02 </wgt>
<wgt id='1767'> +2.8620054e+02 </wgt>
<wgt id='1768'> +2.8617452e+02 </wgt>
<wgt id='1769'> +2.8626230e+02 </wgt>
<wgt id='1770'> +2.8622230e+02 </wgt>
<wgt id='1771'> +2.8621330e+02 </wgt>
<wgt id='1772'> +2.8624463e+02 </wgt>
<wgt id='1773'> +2.8613925e+02 </wgt>
<wgt id='1774'> +2.8629008e+02 </wgt>
<wgt id='1775'> +2.8628213e+02 </wgt>
<wgt id='1776'> +2.8618018e+02 </wgt>
<wgt id='1777'> +2.8628208e+02 </wgt>
<wgt id='1778'> +2.8631108e+02 </wgt>
<wgt id='1779'> +2.8628563e+02 </wgt>
<wgt id='1780'> +2.8624625e+02 </wgt>
<wgt id='1781'> +2.7582964e+02 </wgt>
<wgt id='1782'> +2.9642662e+02 </wgt>
<wgt id='1783'> +2.7946097e+02 </wgt>
<wgt id='1784'> +2.7950866e+02 </wgt>
<wgt id='1785'> +2.8027267e+02 </wgt>
<wgt id='1786'> +2.7803818e+02 </wgt>
<wgt id='1787'> +2.7927279e+02 </wgt>
<wgt id='1788'> +2.7979249e+02 </wgt>
<wgt id='1789'> +2.7968981e+02 </wgt>
<wgt id='1790'> +2.8062761e+02 </wgt>
<wgt id='1791'> +2.8018812e+02 </wgt>
<wgt id='1792'> +2.7918130e+02 </wgt>
<wgt id='1793'> +2.7855007e+02 </wgt>
<wgt id='1794'> +2.8195510e+02 </wgt>
<wgt id='1795'> +2.7781948e+02 </wgt>
<wgt id='1796'> +2.7659178e+02 </wgt>
<wgt id='1797'> +2.7818805e+02 </wgt>
<wgt id='1798'> +2.7942116e+02 </wgt>
<wgt id='1799'> +2.8205862e+02 </wgt>
<wgt id='1800'> +2.7833714e+02 </wgt>
<wgt id='1801'> +2.7883696e+02 </wgt>
<wgt id='1802'> +2.7917990e+02 </wgt>
<wgt id='1803'> +2.8113681e+02 </wgt>
<wgt id='1804'> +2.7942070e+02 </wgt>
<wgt id='1805'> +2.7997748e+02 </wgt>
<wgt id='1806'> +2.7851608e+02 </wgt>
<wgt id='1807'> +2.7892687e+02 </wgt>
<wgt id='1808'> +2.7967905e+02 </wgt>
<wgt id='1809'> +2.7942775e+02 </wgt>
<wgt id='1810'> +2.7918959e+02 </wgt>
<wgt id='1811'> +2.7974472e+02 </wgt>
<wgt id='1812'> +2.7982245e+02 </wgt>
<wgt id='1813'> +2.7972955e+02 </wgt>
<wgt id='1814'> +2.7929605e+02 </wgt>
<wgt id='1815'> +2.7966675e+02 </wgt>
<wgt id='1816'> +2.7980073e+02 </wgt>
<wgt id='1817'> +2.7942418e+02 </wgt>
<wgt id='1818'> +2.7993459e+02 </wgt>
<wgt id='1819'> +2.7951648e+02 </wgt>
<wgt id='1820'> +2.7971465e+02 </wgt>
<wgt id='1821'> +2.7953054e+02 </wgt>
<wgt id='1822'> +2.7948748e+02 </wgt>
<wgt id='1823'> +2.7918015e+02 </wgt>
<wgt id='1824'> +2.7934602e+02 </wgt>
<wgt id='1825'> +2.7939914e+02 </wgt>
<wgt id='1826'> +2.7920087e+02 </wgt>
<wgt id='1827'> +2.7952687e+02 </wgt>
<wgt id='1828'> +2.7941841e+02 </wgt>
<wgt id='1829'> +2.7910187e+02 </wgt>
<wgt id='1830'> +2.7939337e+02 </wgt>
<wgt id='1831'> +2.7953775e+02 </wgt>
<wgt id='1832'> +2.7930188e+02 </wgt>
<wgt id='1833'> +2.7949326e+02 </wgt>
<wgt id='1834'> +2.7960918e+02 </wgt>
<wgt id='1835'> +2.7956104e+02 </wgt>
<wgt id='1836'> +2.7949802e+02 </wgt>
<wgt id='1837'> +2.7935040e+02 </wgt>
<wgt id='1838'> +2.7937496e+02 </wgt>
<wgt id='1839'> +2.7969922e+02 </wgt>
<wgt id='1840'> +2.7945840e+02 </wgt>
<wgt id='1841'> +2.7923564e+02 </wgt>
<wgt id='1842'> +2.7934222e+02 </wgt>
<wgt id='1843'> +2.7936529e+02 </wgt>
<wgt id='1844'> +2.7949342e+02 </wgt>
<wgt id='1845'> +2.7950575e+02 </wgt>
<wgt id='1846'> +2.7958473e+02 </wgt>
<wgt id='1847'> +2.7938466e+02 </wgt>
<wgt id='1848'> +2.7945547e+02 </wgt>
<wgt id='1849'> +2.7949627e+02 </wgt>
<wgt id='1850'> +2.7955182e+02 </wgt>
<wgt id='1851'> +2.7953268e+02 </wgt>
<wgt id='1852'> +2.7962657e+02 </wgt>
<wgt id='1853'> +2.7942149e+02 </wgt>
<wgt id='1854'> +2.7963295e+02 </wgt>
<wgt id='1855'> +2.7964482e+02 </wgt>
<wgt id='1856'> +2.7938598e+02 </wgt>
<wgt id='1857'> +2.7949769e+02 </wgt>
<wgt id='1858'> +2.7944350e+02 </wgt>
<wgt id='1859'> +2.7943208e+02 </wgt>
<wgt id='1860'> +2.7951436e+02 </wgt>
<wgt id='1861'> +2.7948322e+02 </wgt>
<wgt id='1862'> +2.7942116e+02 </wgt>
<wgt id='1863'> +2.7965689e+02 </wgt>
<wgt id='1864'> +2.7942763e+02 </wgt>
<wgt id='1865'> +2.7952805e+02 </wgt>
<wgt id='1866'> +2.7936602e+02 </wgt>
<wgt id='1867'> +2.7937697e+02 </wgt>
<wgt id='1868'> +2.7938369e+02 </wgt>
<wgt id='1869'> +2.7949663e+02 </wgt>
<wgt id='1870'> +2.7928861e+02 </wgt>
<wgt id='1871'> +2.7940187e+02 </wgt>
<wgt id='1872'> +2.7940004e+02 </wgt>
<wgt id='1873'> +2.7951107e+02 </wgt>
<wgt id='1874'> +2.7943232e+02 </wgt>
<wgt id='1875'> +2.7945650e+02 </wgt>
<wgt id='1876'> +2.7941317e+02 </wgt>
<wgt id='1877'> +2.7944314e+02 </wgt>
<wgt id='1878'> +2.7949319e+02 </wgt>
<wgt id='1879'> +2.7939902e+02 </wgt>
<wgt id='1880'> +2.7947674e+02 </wgt>
<wgt id='1881'> +2.7946237e+02 </wgt>
<wgt id='1882'> +2.7939799e+02 </wgt>
<wgt id='1883'> +2.7945436e+02 </wgt>
<wgt id='1884'> +2.7023774e+02 </wgt>
<wgt id='1885'> +2.8885358e+02 </wgt>
<wgt id='1886'> +2.8626501e+02 </wgt>
<wgt id='1887'> +2.8734556e+02 </wgt>
<wgt id='1888'> +2.8483666e+02 </wgt>
<wgt id='1889'> +2.8618452e+02 </wgt>
<wgt id='1890'> +2.8494835e+02 </wgt>
<wgt id='1891'> +2.9105383e+02 </wgt>
<wgt id='1892'> +2.8566757e+02 </wgt>
<wgt id='1893'> +2.8607975e+02 </wgt>
<wgt id='1894'> +2.8712429e+02 </wgt>
<wgt id='1895'> +2.8560060e+02 </wgt>
<wgt id='1896'> +2.8677978e+02 </wgt>
<wgt id='1897'> +2.8584512e+02 </wgt>
<wgt id='1898'> +2.8583220e+02 </wgt>
<wgt id='1899'> +2.8630779e+02 </wgt>
<wgt id='1900'> +2.8607376e+02 </wgt>
<wgt id='1901'> +2.8656262e+02 </wgt>
<wgt id='1902'> +2.8581749e+02 </wgt>
<wgt id='1903'> +2.8450221e+02 </wgt>
<wgt id='1904'> +2.8667414e+02 </wgt>
<wgt id='1905'> +2.8608776e+02 </wgt>
<wgt id='1906'> +2.8580819e+02 </wgt>
<wgt id='1907'> +2.8610512e+02 </wgt>
<wgt id='1908'> +2.8589668e+02 </wgt>
<wgt id='1909'> +2.8636910e+02 </wgt>
<wgt id='1910'> +2.8598192e+02 </wgt>
<wgt id='1911'> +2.8597713e+02 </wgt>
<wgt id='1912'> +2.8701737e+02 </wgt>
<wgt id='1913'> +2.8685142e+02 </wgt>
<wgt id='1914'> +2.8869497e+02 </wgt>
<wgt id='1915'> +2.8665760e+02 </wgt>
<wgt id='1916'> +2.8617813e+02 </wgt>
<wgt id='1917'> +2.7582964e+02 </wgt>
<wgt id='1918'> +2.9642662e+02 </wgt>
<wgt id='1919'> +2.7944489e+02 </wgt>
<wgt id='1920'> +2.7732958e+02 </wgt>
<wgt id='1921'> +2.8019942e+02 </wgt>
<wgt id='1922'> +2.7908840e+02 </wgt>
<wgt id='1923'> +2.8028248e+02 </wgt>
<wgt id='1924'> +2.7679482e+02 </wgt>
<wgt id='1925'> +2.7953674e+02 </wgt>
<wgt id='1926'> +2.7882067e+02 </wgt>
<wgt id='1927'> +2.7869576e+02 </wgt>
<wgt id='1928'> +2.7849641e+02 </wgt>
<wgt id='1929'> +2.8152965e+02 </wgt>
<wgt id='1930'> +2.7856052e+02 </wgt>
<wgt id='1931'> +2.7960699e+02 </wgt>
<wgt id='1932'> +2.8017504e+02 </wgt>
<wgt id='1933'> +2.7895707e+02 </wgt>
<wgt id='1934'> +2.7925378e+02 </wgt>
<wgt id='1935'> +2.7923350e+02 </wgt>
<wgt id='1936'> +2.8099480e+02 </wgt>
<wgt id='1937'> +2.7933279e+02 </wgt>
<wgt id='1938'> +2.7929890e+02 </wgt>
<wgt id='1939'> +2.8005984e+02 </wgt>
<wgt id='1940'> +2.7993315e+02 </wgt>
<wgt id='1941'> +2.8306098e+02 </wgt>
<wgt id='1942'> +2.7950221e+02 </wgt>
<wgt id='1943'> +2.7973424e+02 </wgt>
<wgt id='1944'> +2.7918171e+02 </wgt>
<wgt id='1945'> +2.7951964e+02 </wgt>
<wgt id='1946'> +2.7940235e+02 </wgt>
<wgt id='1947'> +2.7973497e+02 </wgt>
<wgt id='1948'> +2.7991451e+02 </wgt>
<wgt id='1949'> +2.7941798e+02 </wgt>
<wgt id='1950'> +2.7023774e+02 </wgt>
<wgt id='1951'> +2.8885358e+02 </wgt>
<wgt id='1952'> +2.9862951e+02 </wgt>
<wgt id='1953'> +2.9821916e+02 </wgt>
<wgt id='1954'> +2.9903836e+02 </wgt>
<wgt id='1955'> +2.9941994e+02 </wgt>
<wgt id='1956'> +2.9784021e+02 </wgt>
<wgt id='1957'> +2.9905588e+02 </wgt>
<wgt id='1958'> +2.9820361e+02 </wgt>
<wgt id='1959'> +2.9940622e+02 </wgt>
<wgt id='1960'> +2.9787349e+02 </wgt>
<wgt id='1961'> +2.9894930e+02 </wgt>
<wgt id='1962'> +2.9832012e+02 </wgt>
<wgt id='1963'> +2.9751443e+02 </wgt>
<wgt id='1964'> +2.9974761e+02 </wgt>
<wgt id='1965'> +2.9758917e+02 </wgt>
<wgt id='1966'> +2.9967671e+02 </wgt>
<wgt id='1967'> +2.9890226e+02 </wgt>
<wgt id='1968'> +2.9829301e+02 </wgt>
<wgt id='1969'> +2.9969500e+02 </wgt>
<wgt id='1970'> +2.9745230e+02 </wgt>
<wgt id='1971'> +2.9813291e+02 </wgt>
<wgt id='1972'> +2.9911566e+02 </wgt>
<wgt id='1973'> +2.9961088e+02 </wgt>
<wgt id='1974'> +2.9732656e+02 </wgt>
<wgt id='1975'> +2.9676519e+02 </wgt>
<wgt id='1976'> +2.9906545e+02 </wgt>
<wgt id='1977'> +2.9865246e+02 </wgt>
<wgt id='1978'> +2.9902439e+02 </wgt>
<wgt id='1979'> +2.9975808e+02 </wgt>
<wgt id='1980'> +2.9780362e+02 </wgt>
<wgt id='1981'> +2.9862951e+02 </wgt>
<wgt id='1982'> +2.9868679e+02 </wgt>
<wgt id='1983'> +2.9832076e+02 </wgt>
<wgt id='1984'> +2.9861968e+02 </wgt>
<wgt id='1985'> +2.9843562e+02 </wgt>
<wgt id='1986'> +2.9969422e+02 </wgt>
<wgt id='1987'> +2.9794884e+02 </wgt>
<wgt id='1988'> +2.9772013e+02 </wgt>
<wgt id='1989'> +2.9955782e+02 </wgt>
<wgt id='1990'> +2.9835089e+02 </wgt>
<wgt id='1991'> +2.9904027e+02 </wgt>
<wgt id='1992'> +2.9809891e+02 </wgt>
<wgt id='1993'> +2.9921503e+02 </wgt>
<wgt id='1994'> +2.9641943e+02 </wgt>
<wgt id='1995'> +2.8543919e+02 </wgt>
<wgt id='1996'> +2.8521047e+02 </wgt>
<wgt id='1997'> +2.8562660e+02 </wgt>
<wgt id='1998'> +2.8589871e+02 </wgt>
<wgt id='1999'> +2.8493907e+02 </wgt>
<wgt id='2000'> +2.8609636e+02 </wgt>
<wgt id='2001'> +2.8474279e+02 </wgt>
<wgt id='2002'> +2.8661862e+02 </wgt>
<wgt id='2003'> +2.8424343e+02 </wgt>
<wgt id='2004'> +2.8514026e+02 </wgt>
<wgt id='2005'> +2.8570622e+02 </wgt>
<wgt id='2006'> +2.8623988e+02 </wgt>
<wgt id='2007'> +2.8460211e+02 </wgt>
<wgt id='2008'> +2.8467476e+02 </wgt>
<wgt id='2009'> +2.8616820e+02 </wgt>
<wgt id='2010'> +2.8527694e+02 </wgt>
<wgt id='2011'> +2.8559703e+02 </wgt>
<wgt id='2012'> +2.8524619e+02 </wgt>
<wgt id='2013'> +2.8554122e+02 </wgt>
<wgt id='2014'> +2.8506534e+02 </wgt>
<wgt id='2015'> +2.8575750e+02 </wgt>
<wgt id='2016'> +2.8392309e+02 </wgt>
<wgt id='2017'> +2.8651647e+02 </wgt>
<wgt id='2018'> +2.8484763e+02 </wgt>
<wgt id='2019'> +2.8595045e+02 </wgt>
<wgt id='2020'> +2.8367339e+02 </wgt>
<wgt id='2021'> +2.8645153e+02 </wgt>
<wgt id='2022'> +2.8502956e+02 </wgt>
<wgt id='2023'> +2.8614225e+02 </wgt>
<wgt id='2024'> +2.8522434e+02 </wgt>
<wgt id='2025'> +2.8539752e+02 </wgt>
<wgt id='2026'> +2.8418355e+02 </wgt>
<wgt id='2027'> +2.8526789e+02 </wgt>
<wgt id='2028'> +2.8505861e+02 </wgt>
<wgt id='2029'> +2.8323126e+02 </wgt>
<wgt id='2030'> +2.8544826e+02 </wgt>
<wgt id='2031'> +2.8434197e+02 </wgt>
<wgt id='2032'> +2.8666496e+02 </wgt>
<wgt id='2033'> +2.8443008e+02 </wgt>
<wgt id='2034'> +2.8353406e+02 </wgt>
<wgt id='2035'> +2.8431915e+02 </wgt>
<wgt id='2036'> +2.8756913e+02 </wgt>
<wgt id='2037'> +2.8463827e+02 </wgt>
<wgt id='2038'> +2.8250386e+02 </wgt>
<wgt id='2039'> +2.8246173e+02 </wgt>
<wgt id='2040'> +2.8241927e+02 </wgt>
<wgt id='2041'> +2.8237674e+02 </wgt>
<wgt id='2042'> +2.8233423e+02 </wgt>
<wgt id='2043'> +2.8229207e+02 </wgt>
<wgt id='2044'> +2.8224993e+02 </wgt>
<wgt id='2045'> +2.8220745e+02 </wgt>
<wgt id='2046'> +2.8216488e+02 </wgt>
<wgt id='2047'> +2.8212248e+02 </wgt>
<wgt id='2048'> +2.8208059e+02 </wgt>
<wgt id='2049'> +2.8203841e+02 </wgt>
<wgt id='2050'> +2.8199606e+02 </wgt>
<wgt id='2051'> +2.8195338e+02 </wgt>
<wgt id='2052'> +2.8191101e+02 </wgt>
<wgt id='2053'> +2.8186879e+02 </wgt>
<wgt id='2054'> +2.8182703e+02 </wgt>
<wgt id='2055'> +2.8178469e+02 </wgt>
<wgt id='2056'> +2.8174203e+02 </wgt>
<wgt id='2057'> +2.8169965e+02 </wgt>
<wgt id='2058'> +2.8165758e+02 </wgt>
<wgt id='2059'> +2.8161535e+02 </wgt>
<wgt id='2060'> +2.8157290e+02 </wgt>
<wgt id='2061'> +2.8153082e+02 </wgt>
<wgt id='2062'> +2.8148863e+02 </wgt>
<wgt id='2063'> +2.8144644e+02 </wgt>
<wgt id='2064'> +2.8140426e+02 </wgt>
<wgt id='2065'> +2.8136163e+02 </wgt>
<wgt id='2066'> +2.8131943e+02 </wgt>
<wgt id='2067'> +2.8127738e+02 </wgt>
<wgt id='2068'> +2.8123513e+02 </wgt>
<wgt id='2069'> +2.7604604e+02 </wgt>
<wgt id='2070'> +2.7608221e+02 </wgt>
<wgt id='2071'> +2.7684064e+02 </wgt>
<wgt id='2072'> +2.7464832e+02 </wgt>
<wgt id='2073'> +2.7586265e+02 </wgt>
<wgt id='2074'> +2.7638082e+02 </wgt>
<wgt id='2075'> +2.7628526e+02 </wgt>
<wgt id='2076'> +2.7720166e+02 </wgt>
<wgt id='2077'> +2.7676137e+02 </wgt>
<wgt id='2078'> +2.7577602e+02 </wgt>
<wgt id='2079'> +2.7514508e+02 </wgt>
<wgt id='2080'> +2.7852667e+02 </wgt>
<wgt id='2081'> +2.7443278e+02 </wgt>
<wgt id='2082'> +2.7321900e+02 </wgt>
<wgt id='2083'> +2.7478016e+02 </wgt>
<wgt id='2084'> +2.7597357e+02 </wgt>
<wgt id='2085'> +2.7862944e+02 </wgt>
<wgt id='2086'> +2.7492767e+02 </wgt>
<wgt id='2087'> +2.7542929e+02 </wgt>
<wgt id='2088'> +2.7578567e+02 </wgt>
<wgt id='2089'> +2.7771535e+02 </wgt>
<wgt id='2090'> +2.7598317e+02 </wgt>
<wgt id='2091'> +2.7656734e+02 </wgt>
<wgt id='2092'> +2.7509049e+02 </wgt>
<wgt id='2093'> +2.7549892e+02 </wgt>
<wgt id='2094'> +2.7625401e+02 </wgt>
<wgt id='2095'> +2.7600067e+02 </wgt>
<wgt id='2096'> +2.7578848e+02 </wgt>
<wgt id='2097'> +2.7633483e+02 </wgt>
<wgt id='2098'> +2.7640693e+02 </wgt>
<wgt id='2099'> +2.7631150e+02 </wgt>
<wgt id='2100'> +2.7588774e+02 </wgt>
<wgt id='2101'> +2.7624566e+02 </wgt>
<wgt id='2102'> +2.7638195e+02 </wgt>
<wgt id='2103'> +2.7601009e+02 </wgt>
<wgt id='2104'> +2.7651893e+02 </wgt>
<wgt id='2105'> +2.7610177e+02 </wgt>
<wgt id='2106'> +2.7629968e+02 </wgt>
<wgt id='2107'> +2.7611473e+02 </wgt>
<wgt id='2108'> +2.7606605e+02 </wgt>
<wgt id='2109'> +2.7576707e+02 </wgt>
<wgt id='2110'> +2.7592718e+02 </wgt>
<wgt id='2111'> +2.7598099e+02 </wgt>
<wgt id='2112'> +2.7579387e+02 </wgt>
<wgt id='2113'> +2.7611215e+02 </wgt>
<wgt id='2114'> +2.7599955e+02 </wgt>
<wgt id='2115'> +2.7569185e+02 </wgt>
<wgt id='2116'> +2.7597598e+02 </wgt>
<wgt id='2117'> +2.7612163e+02 </wgt>
<wgt id='2118'> +2.7588657e+02 </wgt>
<wgt id='2119'> +2.7607894e+02 </wgt>
<wgt id='2120'> +2.7619281e+02 </wgt>
<wgt id='2121'> +2.7614428e+02 </wgt>
<wgt id='2122'> +2.7608446e+02 </wgt>
<wgt id='2123'> +2.7593871e+02 </wgt>
<wgt id='2124'> +2.7596297e+02 </wgt>
<wgt id='2125'> +2.7627733e+02 </wgt>
<wgt id='2126'> +2.7604276e+02 </wgt>
<wgt id='2127'> +2.7582815e+02 </wgt>
<wgt id='2128'> +2.7593051e+02 </wgt>
<wgt id='2129'> +2.7595504e+02 </wgt>
<wgt id='2130'> +2.7607911e+02 </wgt>
<wgt id='2131'> +2.7608871e+02 </wgt>
<wgt id='2132'> +2.7616871e+02 </wgt>
<wgt id='2133'> +2.7597268e+02 </wgt>
<wgt id='2134'> +2.7603864e+02 </wgt>
<wgt id='2135'> +2.7608127e+02 </wgt>
<wgt id='2136'> +2.7613291e+02 </wgt>
<wgt id='2137'> +2.7611783e+02 </wgt>
<wgt id='2138'> +2.7620847e+02 </wgt>
<wgt id='2139'> +2.7600594e+02 </wgt>
<wgt id='2140'> +2.7621830e+02 </wgt>
<wgt id='2141'> +2.7622698e+02 </wgt>
<wgt id='2142'> +2.7596901e+02 </wgt>
<wgt id='2143'> +2.7608326e+02 </wgt>
<wgt id='2144'> +2.7602969e+02 </wgt>
<wgt id='2145'> +2.7602066e+02 </wgt>
<wgt id='2146'> +2.7609836e+02 </wgt>
<wgt id='2147'> +2.7607110e+02 </wgt>
<wgt id='2148'> +2.7600546e+02 </wgt>
<wgt id='2149'> +2.7623657e+02 </wgt>
<wgt id='2150'> +2.7601419e+02 </wgt>
<wgt id='2151'> +2.7611316e+02 </wgt>
<wgt id='2152'> +2.7595159e+02 </wgt>
<wgt id='2153'> +2.7596172e+02 </wgt>
<wgt id='2154'> +2.7597022e+02 </wgt>
<wgt id='2155'> +2.7608426e+02 </wgt>
<wgt id='2156'> +2.7587491e+02 </wgt>
<wgt id='2157'> +2.7598682e+02 </wgt>
<wgt id='2158'> +2.7598413e+02 </wgt>
<wgt id='2159'> +2.7609480e+02 </wgt>
<wgt id='2160'> +2.7601648e+02 </wgt>
<wgt id='2161'> +2.7603975e+02 </wgt>
<wgt id='2162'> +2.7599976e+02 </wgt>
<wgt id='2163'> +2.7602651e+02 </wgt>
<wgt id='2164'> +2.7607864e+02 </wgt>
<wgt id='2165'> +2.7598570e+02 </wgt>
<wgt id='2166'> +2.7606382e+02 </wgt>
<wgt id='2167'> +2.7604576e+02 </wgt>
<wgt id='2168'> +2.7598189e+02 </wgt>
<wgt id='2169'> +2.7603954e+02 </wgt>
<wgt id='2170'> +2.7604255e+02 </wgt>
<wgt id='2171'> +2.7602315e+02 </wgt>
<wgt id='2172'> +2.7604967e+02 </wgt>
<wgt id='2173'> +2.7605025e+02 </wgt>
<wgt id='2174'> +2.7605663e+02 </wgt>
<wgt id='2175'> +2.7604758e+02 </wgt>
<wgt id='2176'> +2.7603077e+02 </wgt>
<wgt id='2177'> +2.8775710e+02 </wgt>
<wgt id='2178'> +2.6995556e+02 </wgt>
<wgt id='2179'> +2.8660865e+02 </wgt>
<wgt id='2180'> +2.9049936e+02 </wgt>
<wgt id='2181'> +2.8296767e+02 </wgt>
<wgt id='2182'> +2.6523079e+02 </wgt>
<wgt id='2183'> +2.9421394e+02 </wgt>
<wgt id='2184'> +2.8902912e+02 </wgt>
<wgt id='2185'> +2.8929424e+02 </wgt>
<wgt id='2186'> +2.9129935e+02 </wgt>
<wgt id='2187'> +2.8076905e+02 </wgt>
<wgt id='2188'> +2.8065279e+02 </wgt>
<wgt id='2189'> +2.9272669e+02 </wgt>
<wgt id='2190'> +2.9259995e+02 </wgt>
<wgt id='2191'> +2.8486246e+02 </wgt>
<wgt id='2192'> +2.9450717e+02 </wgt>
<wgt id='2193'> +2.8987709e+02 </wgt>
<wgt id='2194'> +2.8616759e+02 </wgt>
<wgt id='2195'> +2.8576850e+02 </wgt>
<wgt id='2196'> +2.9172218e+02 </wgt>
<wgt id='2197'> +2.9504757e+02 </wgt>
<wgt id='2198'> +2.9159322e+02 </wgt>
<wgt id='2199'> +2.8595424e+02 </wgt>
<wgt id='2200'> +3.0934177e+02 </wgt>
<wgt id='2201'> +2.8840647e+02 </wgt>
<wgt id='2202'> +2.8809936e+02 </wgt>
<wgt id='2203'> +2.8621755e+02 </wgt>
<wgt id='2204'> +2.8359233e+02 </wgt>
<wgt id='2205'> +2.8483548e+02 </wgt>
<wgt id='2206'> +2.8955864e+02 </wgt>
<wgt id='2207'> +2.9598477e+02 </wgt>
<wgt id='2208'> +2.8748595e+02 </wgt>
<wgt id='2209'> +2.8114273e+02 </wgt>
<wgt id='2210'> +2.8420681e+02 </wgt>
<wgt id='2211'> +2.8999537e+02 </wgt>
<wgt id='2212'> +2.9382334e+02 </wgt>
<wgt id='2213'> +2.8763769e+02 </wgt>
<wgt id='2214'> +2.9345603e+02 </wgt>
<wgt id='2215'> +2.8837598e+02 </wgt>
<wgt id='2216'> +2.8159953e+02 </wgt>
<wgt id='2217'> +2.8856066e+02 </wgt>
<wgt id='2218'> +2.8832328e+02 </wgt>
<wgt id='2219'> +2.8722400e+02 </wgt>
<wgt id='2220'> +2.8887977e+02 </wgt>
<wgt id='2221'> +2.8780980e+02 </wgt>
<wgt id='2222'> +2.8700284e+02 </wgt>
<wgt id='2223'> +2.9265577e+02 </wgt>
<wgt id='2224'> +2.8358450e+02 </wgt>
<wgt id='2225'> +2.8515901e+02 </wgt>
<wgt id='2226'> +2.8394442e+02 </wgt>
<wgt id='2227'> +2.8569306e+02 </wgt>
<wgt id='2228'> +2.8682371e+02 </wgt>
<wgt id='2229'> +2.8419606e+02 </wgt>
<wgt id='2230'> +2.9185093e+02 </wgt>
<wgt id='2231'> +2.8933545e+02 </wgt>
<wgt id='2232'> +2.8351969e+02 </wgt>
<wgt id='2233'> +2.8385418e+02 </wgt>
<wgt id='2234'> +2.9106659e+02 </wgt>
<wgt id='2235'> +2.8416236e+02 </wgt>
<wgt id='2236'> +2.9402050e+02 </wgt>
<wgt id='2237'> +2.8601370e+02 </wgt>
<wgt id='2238'> +2.8615850e+02 </wgt>
<wgt id='2239'> +2.8964032e+02 </wgt>
<wgt id='2240'> +2.8776177e+02 </wgt>
<wgt id='2241'> +2.8244966e+02 </wgt>
<wgt id='2242'> +2.8776070e+02 </wgt>
<wgt id='2243'> +2.8995598e+02 </wgt>
<wgt id='2244'> +3.0727892e+02 </wgt>
<wgt id='2245'> +2.8461037e+02 </wgt>
<wgt id='2246'> +2.7909279e+02 </wgt>
<wgt id='2247'> +2.8414548e+02 </wgt>
<wgt id='2248'> +2.8690741e+02 </wgt>
<wgt id='2249'> +2.9106204e+02 </wgt>
<wgt id='2250'> +2.7184226e+02 </wgt>
<wgt id='2251'> +2.9225913e+02 </wgt>
<wgt id='2252'> +2.8458370e+02 </wgt>
<wgt id='2253'> +2.8464498e+02 </wgt>
<wgt id='2254'> +2.9127815e+02 </wgt>
<wgt id='2255'> +2.9531824e+02 </wgt>
<wgt id='2256'> +2.8411653e+02 </wgt>
<wgt id='2257'> +2.8774668e+02 </wgt>
<wgt id='2258'> +2.8999154e+02 </wgt>
<wgt id='2259'> +2.8256661e+02 </wgt>
<wgt id='2260'> +2.9410654e+02 </wgt>
<wgt id='2261'> +2.8563913e+02 </wgt>
<wgt id='2262'> +2.8269299e+02 </wgt>
<wgt id='2263'> +2.8577003e+02 </wgt>
<wgt id='2264'> +2.8874520e+02 </wgt>
<wgt id='2265'> +2.8622164e+02 </wgt>
<wgt id='2266'> +2.9706039e+02 </wgt>
<wgt id='2267'> +2.8641146e+02 </wgt>
<wgt id='2268'> +2.8400744e+02 </wgt>
<wgt id='2269'> +2.8704677e+02 </wgt>
<wgt id='2270'> +2.8662447e+02 </wgt>
<wgt id='2271'> +2.9465022e+02 </wgt>
<wgt id='2272'> +2.8350327e+02 </wgt>
<wgt id='2273'> +2.9104138e+02 </wgt>
<wgt id='2274'> +2.8608934e+02 </wgt>
<wgt id='2275'> +2.9288692e+02 </wgt>
<wgt id='2276'> +2.9077031e+02 </wgt>
<wgt id='2277'> +2.9343236e+02 </wgt>
<wgt id='2278'> +2.8012471e+02 </wgt>
<wgt id='2279'> +2.9365522e+02 </wgt>
<wgt id='2280'> +2.8339072e+02 </wgt>
<wgt id='2281'> +3.2708693e+02 </wgt>
<wgt id='2282'> +4.5254243e+02 </wgt>
<wgt id='2283'> +3.4146807e+02 </wgt>
<wgt id='2284'> +4.4921626e+02 </wgt>
</rwgt>
</event>
<event npLO=" -1 " npNLO=" 2 ">
 5      2 -2.8781417e+02 1.10374610e+01 7.54677110e-03 1.37503250e-01
       21 -1    0    0  503  501 +0.0000000000e+00 +0.0000000000e+00 +8.4673559000e+01 8.4673559000e+01 0.0000000000e+00 0.0000e+00 9.0000e+00
       21 -1    0    0  504  502 -0.0000000000e+00 -0.0000000000e+00 -2.0237520000e+02 2.0237520000e+02 0.0000000000e+00 0.0000e+00 9.0000e+00
       25  1    1    2    0    0 +2.3524370000e+01 -1.0606339000e-01 +3.2679401000e+01 1.0780237000e+02 1.0000000000e+02 0.0000e+00 9.0000e+00
       21  1    1    2  503  502 -1.3204418000e+01 +4.0206682000e+00 -1.6236695000e+02 1.6295260000e+02 0.0000000000e+00 0.0000e+00 9.0000e+00
       21  1    1    2  504  501 -1.0319952000e+01 -3.9146048000e+00 +1.1985912000e+01 1.6293791000e+01 0.0000000000e+00 0.0000e+00 9.0000e+00
#aMCatNLO 1  0  0  5  2 0.13080116E+01 0.00000000E+00 -9  6  0 0.00000000E+00 0.00000000E+00 0.00000000E+00 0.00000000E+00 0.00000000E+00
<rwgt>
<wgt id='1001'> -2.8781417e+02 </wgt>
<wgt id='1002'> -1.5975528e+02 </wgt>
<wgt id='1003'> -5.6224823e+02 </wgt>
<wgt id='1004'> -3.0728955e+02 </wgt>
<wgt id='1005'> -1.7056495e+02 </wgt>
<wgt id='1006'> -6.0029495e+02 </wgt>
<wgt id='1007'> -2.5246246e+02 </wgt>
<wgt id='1008'> -1.4013311e+02 </wgt>
<wgt id='1009'> -4.9318722e+02 </wgt>
<wgt id='1010'> -2.8781417e+02 </wgt>
<wgt id='1011'> -2.8842010e+02 </wgt>
<wgt id='1012'> -2.8711324e+02 </wgt>
<wgt id='1013'> -2.8791647e+02 </wgt>
<wgt id='1014'> -2.8877574e+02 </wgt>
<wgt id='1015'> -2.8913992e+02 </wgt>
<wgt id='1016'> -2.8913801e+02 </wgt>
<wgt id='1017'> -2.9108573e+02 </wgt>
<wgt id='1018'> -2.9155481e+02 </wgt>
<wgt id='1019'> -2.8722829e+02 </wgt>
<wgt id='1020'> -2.8774015e+02 </wgt>
<wgt id='1021'> -2.8406150e+02 </wgt>
<wgt id='1022'> -2.8965167e+02 </wgt>
<wgt id='1023'> -2.8679868e+02 </wgt>
<wgt id='1024'> -2.8743884e+02 </wgt>
<wgt id='1025'> -2.8768874e+02 </wgt>
<wgt id='1026'> -2.8628113e+02 </wgt>
<wgt id='1027'> -2.8577479e+02 </wgt>
<wgt id='1028'> -2.9050791e+02 </wgt>
<wgt id='1029'> -2.9018138e+02 </wgt>
<wgt id='1030'> -2.8676791e+02 </wgt>
<wgt id='1031'> -2.8941145e+02 </wgt>
<wgt id='1032'> -2.8720460e+02 </wgt>
<wgt id='1033'> -2.8788453e+02 </wgt>
<wgt id='1034'> -2.8795127e+02 </wgt>
<wgt id='1035'> -2.8751595e+02 </wgt>
<wgt id='1036'> -2.8752058e+02 </wgt>
<wgt id='1037'> -2.8735341e+02 </wgt>
<wgt id='1038'> -2.8808441e+02 </wgt>
<wgt id='1039'> -2.8725810e+02 </wgt>
<wgt id='1040'> -2.8764691e+02 </wgt>
<wgt id='1041'> -2.8712319e+02 </wgt>
<wgt id='1042'> -2.8796391e+02 </wgt>
<wgt id='1043'> -2.8735448e+02 </wgt>
<wgt id='1044'> -2.8756390e+02 </wgt>
<wgt id='1045'> -2.8775502e+02 </wgt>
<wgt id='1046'> -2.8811411e+02 </wgt>
<wgt id='1047'> -2.8789241e+02 </wgt>
<wgt id='1048'> -2.8794540e+02 </wgt>
<wgt id='1049'> -2.8785802e+02 </wgt>
<wgt id='1050'> -2.8779749e+02 </wgt>
<wgt id='1051'> -2.8811671e+02 </wgt>
<wgt id='1052'> -2.8798960e+02 </wgt>
<wgt id='1053'> -2.8761854e+02 </wgt>
<wgt id='1054'> -2.8792501e+02 </wgt>
<wgt id='1055'> -2.8779233e+02 </wgt>
<wgt id='1056'> -2.8791074e+02 </wgt>
<wgt id='1057'> -2.8782992e+02 </wgt>
<wgt id='1058'> -2.8777331e+02 </wgt>
<wgt id='1059'> -2.8769033e+02 </wgt>
<wgt id='1060'> -2.8787761e+02 </wgt>
<wgt id='1061'> -2.8784737e+02 </wgt>
<wgt id='1062'> -2.8784701e+02 </wgt>
<wgt id='1063'> -2.8767388e+02 </wgt>
<wgt id='1064'> -2.8774197e+02 </wgt>
<wgt id='1065'> -2.8795961e+02 </wgt>
<wgt id='1066'> -2.8776655e+02 </wgt>
<wgt id='1067'> -2.8791809e+02 </wgt>
<wgt id='1068'> -2.8777689e+02 </wgt>
<wgt id='1069'> -2.8788991e+02 </wgt>
<wgt id='1070'> -2.8785438e+02 </wgt>
<wgt id='1071'> -2.8785689e+02 </wgt>
<wgt id='1072'> -2.8800424e+02 </wgt>
<wgt id='1073'> -2.8782952e+02 </wgt>
<wgt id='1074'> -2.8786937e+02 </wgt>
<wgt id='1075'> -2.8795566e+02 </wgt>
<wgt id='1076'> -2.8790597e+02 </wgt>
<wgt id='1077'> -2.8791845e+02 </wgt>
<wgt id='1078'> -2.8785449e+02 </wgt>
<wgt id='1079'> -2.8784868e+02 </wgt>
<wgt id='1080'> -2.8785179e+02 </wgt>
<wgt id='1081'> -2.8787260e+02 </wgt>
<wgt id='1082'> -2.8782599e+02 </wgt>
<wgt id='1083'> -2.8785839e+02 </wgt>
<wgt id='1084'> -2.8783770e+02 </wgt>
<wgt id='1085'> -2.8774722e+02 </wgt>
<wgt id='1086'> -2.8777262e+02 </wgt>
<wgt id='1087'> -2.8795282e+02 </wgt>
<wgt id='1088'> -2.8782104e+02 </wgt>
<wgt id='1089'> -2.8778293e+02 </wgt>
<wgt id='1090'> -2.8785140e+02 </wgt>
<wgt id='1091'> -2.8776519e+02 </wgt>
<wgt id='1092'> -2.8785381e+02 </wgt>
<wgt id='1093'> -2.8786230e+02 </wgt>
<wgt id='1094'> -2.8784903e+02 </wgt>
<wgt id='1095'> -2.8779435e+02 </wgt>
<wgt id='1096'> -2.8774423e+02 </wgt>
<wgt id='1097'> -2.8784361e+02 </wgt>
<wgt id='1098'> -2.8779320e+02 </wgt>
<wgt id='1099'> -2.8782141e+02 </wgt>
<wgt id='1100'> -2.8783421e+02 </wgt>
<wgt id='1101'> -2.8779835e+02 </wgt>
<wgt id='1102'> -2.8784186e+02 </wgt>
<wgt id='1103'> -2.8777508e+02 </wgt>
<wgt id='1104'> -2.8778299e+02 </wgt>
<wgt id='1105'> -2.8782931e+02 </wgt>
<wgt id='1106'> -2.8778853e+02 </wgt>
<wgt id='1107'> -2.8779614e+02 </wgt>
<wgt id='1108'> -2.8782928e+02 </wgt>
<wgt id='1109'> -2.8784538e+02 </wgt>
<wgt id='1110'> -2.8781420e+02 </wgt>
<wgt id='1111'> -2.6635288e+02 </wgt>
<wgt id='1112'> -3.0740857e+02 </wgt>
<wgt id='1113'> -2.8781420e+02 </wgt>
<wgt id='1114'> -2.7482735e+02 </wgt>
<wgt id='1115'> -2.8517319e+02 </wgt>
<wgt id='1116'> -2.9171168e+02 </wgt>
<wgt id='1117'> -2.9022694e+02 </wgt>
<wgt id='1118'> -2.9146136e+02 </wgt>
<wgt id='1119'> -2.8273837e+02 </wgt>
<wgt id='1120'> -2.8361081e+02 </wgt>
<wgt id='1121'> -2.8496064e+02 </wgt>
<wgt id='1122'> -2.9697874e+02 </wgt>
<wgt id='1123'> -2.9525219e+02 </wgt>
<wgt id='1124'> -2.9366017e+02 </wgt>
<wgt id='1125'> -2.7730852e+02 </wgt>
<wgt id='1126'> -2.8629182e+02 </wgt>
<wgt id='1127'> -2.7829218e+02 </wgt>
<wgt id='1128'> -3.0700690e+02 </wgt>
<wgt id='1129'> -2.9983676e+02 </wgt>
<wgt id='1130'> -2.9593397e+02 </wgt>
<wgt id='1131'> -2.8397510e+02 </wgt>
<wgt id='1132'> -2.8975013e+02 </wgt>
<wgt id='1133'> -2.9726834e+02 </wgt>
<wgt id='1134'> -2.7937275e+02 </wgt>
<wgt id='1135'> -2.9030362e+02 </wgt>
<wgt id='1136'> -2.8645134e+02 </wgt>
<wgt id='1137'> -2.8036063e+02 </wgt>
<wgt id='1138'> -2.8273815e+02 </wgt>
<wgt id='1139'> -2.9234342e+02 </wgt>
<wgt id='1140'> -2.9101541e+02 </wgt>
<wgt id='1141'> -2.7542710e+02 </wgt>
<wgt id='1142'> -2.9512940e+02 </wgt>
<wgt id='1143'> -2.9517445e+02 </wgt>
<wgt id='1144'> -2.8612060e+02 </wgt>
<wgt id='1145'> -2.8423494e+02 </wgt>
<wgt id='1146'> -2.8383076e+02 </wgt>
<wgt id='1147'> -2.7797175e+02 </wgt>
<wgt id='1148'> -3.0113932e+02 </wgt>
<wgt id='1149'> -2.8280663e+02 </wgt>
<wgt id='1150'> -2.9708180e+02 </wgt>
<wgt id='1151'> -2.9053919e+02 </wgt>
<wgt id='1152'> -2.8812001e+02 </wgt>
<wgt id='1153'> -2.8621960e+02 </wgt>
<wgt id='1154'> -2.9398252e+02 </wgt>
<wgt id='1155'> -2.7199909e+02 </wgt>
<wgt id='1156'> -2.8512749e+02 </wgt>
<wgt id='1157'> -2.7847319e+02 </wgt>
<wgt id='1158'> -2.9021974e+02 </wgt>
<wgt id='1159'> -2.9066782e+02 </wgt>
<wgt id='1160'> -2.7129323e+02 </wgt>
<wgt id='1161'> -2.7554042e+02 </wgt>
<wgt id='1162'> -2.9455845e+02 </wgt>
<wgt id='1163'> -2.9317898e+02 </wgt>
<wgt id='1164'> -2.8298515e+02 </wgt>
<wgt id='1165'> -2.8294901e+02 </wgt>
<wgt id='1166'> -2.8900420e+02 </wgt>
<wgt id='1167'> -2.8094544e+02 </wgt>
<wgt id='1168'> -2.7913559e+02 </wgt>
<wgt id='1169'> -2.8442623e+02 </wgt>
<wgt id='1170'> -2.8580906e+02 </wgt>
<wgt id='1171'> -2.8190902e+02 </wgt>
<wgt id='1172'> -3.0843530e+02 </wgt>
<wgt id='1173'> -2.8820640e+02 </wgt>
<wgt id='1174'> -2.8660805e+02 </wgt>
<wgt id='1175'> -2.8487937e+02 </wgt>
<wgt id='1176'> -2.8567825e+02 </wgt>
<wgt id='1177'> -2.8300358e+02 </wgt>
<wgt id='1178'> -2.8722456e+02 </wgt>
<wgt id='1179'> -2.8685929e+02 </wgt>
<wgt id='1180'> -2.7496897e+02 </wgt>
<wgt id='1181'> -2.9659979e+02 </wgt>
<wgt id='1182'> -2.8142231e+02 </wgt>
<wgt id='1183'> -2.7346756e+02 </wgt>
<wgt id='1184'> -3.0264135e+02 </wgt>
<wgt id='1185'> -3.0458565e+02 </wgt>
<wgt id='1186'> -2.9579350e+02 </wgt>
<wgt id='1187'> -3.0507192e+02 </wgt>
<wgt id='1188'> -2.9352722e+02 </wgt>
<wgt id='1189'> -2.9874112e+02 </wgt>
<wgt id='1190'> -2.8418227e+02 </wgt>
<wgt id='1191'> -2.9207010e+02 </wgt>
<wgt id='1192'> -2.9257605e+02 </wgt>
<wgt id='1193'> -2.7714420e+02 </wgt>
<wgt id='1194'> -2.7441845e+02 </wgt>
<wgt id='1195'> -2.9983676e+02 </wgt>
<wgt id='1196'> -2.8415491e+02 </wgt>
<wgt id='1197'> -2.9198413e+02 </wgt>
<wgt id='1198'> -2.9689939e+02 </wgt>
<wgt id='1199'> -2.6692936e+02 </wgt>
<wgt id='1200'> -2.9480966e+02 </wgt>
<wgt id='1201'> -2.8565286e+02 </wgt>
<wgt id='1202'> -3.0589219e+02 </wgt>
<wgt id='1203'> -2.7579495e+02 </wgt>
<wgt id='1204'> -2.8233043e+02 </wgt>
<wgt id='1205'> -2.9972837e+02 </wgt>
<wgt id='1206'> -2.9773167e+02 </wgt>
<wgt id='1207'> -2.8495817e+02 </wgt>
<wgt id='1208'> -2.7867860e+02 </wgt>
<wgt id='1209'> -2.8583426e+02 </wgt>
<wgt id='1210'> -2.7754968e+02 </wgt>
<wgt id='1211'> -2.9166389e+02 </wgt>
<wgt id='1212'> -2.9033423e+02 </wgt>
<wgt id='1213'> -2.9307428e+02 </wgt>
<wgt id='1214'> -2.8734566e+02 </wgt>
<wgt id='1215'> -2.8700974e+02 </wgt>
<wgt id='1216'> -2.8889899e+02 </wgt>
<wgt id='1217'> -2.8896207e+02 </wgt>
<wgt id='1218'> -2.8778685e+02 </wgt>
<wgt id='1219'> -2.8620207e+02 </wgt>
<wgt id='1220'> -2.8602487e+02 </wgt>
<wgt id='1221'> -2.8504470e+02 </wgt>
<wgt id='1222'> -2.8577109e+02 </wgt>
<wgt id='1223'> -2.8811505e+02 </wgt>
<wgt id='1224'> -2.8730579e+02 </wgt>
<wgt id='1225'> -2.8889928e+02 </wgt>
<wgt id='1226'> -2.8975165e+02 </wgt>
<wgt id='1227'> -2.9133450e+02 </wgt>
<wgt id='1228'> -2.8968206e+02 </wgt>
<wgt id='1229'> -2.8872038e+02 </wgt>
<wgt id='1230'> -2.8643378e+02 </wgt>
<wgt id='1231'> -2.8731731e+02 </wgt>
<wgt id='1232'> -2.8966528e+02 </wgt>
<wgt id='1233'> -2.8703959e+02 </wgt>
<wgt id='1234'> -2.8948459e+02 </wgt>
<wgt id='1235'> -2.8617550e+02 </wgt>
<wgt id='1236'> -2.8828937e+02 </wgt>
<wgt id='1237'> -2.8795954e+02 </wgt>
<wgt id='1238'> -2.8783136e+02 </wgt>
<wgt id='1239'> -2.8775863e+02 </wgt>
<wgt id='1240'> -2.8739343e+02 </wgt>
<wgt id='1241'> -2.8720406e+02 </wgt>
<wgt id='1242'> -2.8737251e+02 </wgt>
<wgt id='1243'> -2.8740433e+02 </wgt>
<wgt id='1244'> -2.8762398e+02 </wgt>
<wgt id='1245'> -2.8740244e+02 </wgt>
<wgt id='1246'> -2.8750622e+02 </wgt>
<wgt id='1247'> -2.8747004e+02 </wgt>
<wgt id='1248'> -2.8732323e+02 </wgt>
<wgt id='1249'> -2.8736872e+02 </wgt>
<wgt id='1250'> -2.8729862e+02 </wgt>
<wgt id='1251'> -2.8732239e+02 </wgt>
<wgt id='1252'> -2.8745487e+02 </wgt>
<wgt id='1253'> -2.8728279e+02 </wgt>
<wgt id='1254'> -2.8726701e+02 </wgt>
<wgt id='1255'> -2.8721228e+02 </wgt>
<wgt id='1256'> -2.8719385e+02 </wgt>
<wgt id='1257'> -2.8742039e+02 </wgt>
<wgt id='1258'> -2.8744207e+02 </wgt>
<wgt id='1259'> -2.8738339e+02 </wgt>
<wgt id='1260'> -2.8744574e+02 </wgt>
<wgt id='1261'> -2.8737486e+02 </wgt>
<wgt id='1262'> -2.8737413e+02 </wgt>
<wgt id='1263'> -2.8732258e+02 </wgt>
<wgt id='1264'> -2.8743194e+02 </wgt>
<wgt id='1265'> -2.8732429e+02 </wgt>
<wgt id='1266'> -2.8720459e+02 </wgt>
<wgt id='1267'> -2.8725421e+02 </wgt>
<wgt id='1268'> -2.8735180e+02 </wgt>
<wgt id='1269'> -2.8735908e+02 </wgt>
<wgt id='1270'> -2.8735559e+02 </wgt>
<wgt id='1271'> -2.8722081e+02 </wgt>
<wgt id='1272'> -2.8731862e+02 </wgt>
<wgt id='1273'> -2.8731989e+02 </wgt>
<wgt id='1274'> -2.8726091e+02 </wgt>
<wgt id='1275'> -2.8741991e+02 </wgt>
<wgt id='1276'> -2.8749708e+02 </wgt>
<wgt id='1277'> -2.8722460e+02 </wgt>
<wgt id='1278'> -2.8744117e+02 </wgt>
<wgt id='1279'> -2.8751524e+02 </wgt>
<wgt id='1280'> -2.8747428e+02 </wgt>
<wgt id='1281'> -2.8733691e+02 </wgt>
<wgt id='1282'> -2.8734964e+02 </wgt>
<wgt id='1283'> -2.8725608e+02 </wgt>
<wgt id='1284'> -2.8724705e+02 </wgt>
<wgt id='1285'> -2.8724689e+02 </wgt>
<wgt id='1286'> -2.8732451e+02 </wgt>
<wgt id='1287'> -2.8738401e+02 </wgt>
<wgt id='1288'> -2.8715191e+02 </wgt>
<wgt id='1289'> -2.8740263e+02 </wgt>
<wgt id='1290'> -2.8726391e+02 </wgt>
<wgt id='1291'> -2.8735336e+02 </wgt>
<wgt id='1292'> -2.8729233e+02 </wgt>
<wgt id='1293'> -2.8733642e+02 </wgt>
<wgt id='1294'> -2.8741960e+02 </wgt>
<wgt id='1295'> -2.8734243e+02 </wgt>
<wgt id='1296'> -2.8737707e+02 </wgt>
<wgt id='1297'> -2.8744662e+02 </wgt>
<wgt id='1298'> -2.8734169e+02 </wgt>
<wgt id='1299'> -2.8733035e+02 </wgt>
<wgt id='1300'> -2.8737773e+02 </wgt>
<wgt id='1301'> -2.8735989e+02 </wgt>
<wgt id='1302'> -2.8730893e+02 </wgt>
<wgt id='1303'> -2.8732195e+02 </wgt>
<wgt id='1304'> -2.8736172e+02 </wgt>
<wgt id='1305'> -2.8743863e+02 </wgt>
<wgt id='1306'> -2.8745382e+02 </wgt>
<wgt id='1307'> -2.8733459e+02 </wgt>
<wgt id='1308'> -2.8743946e+02 </wgt>
<wgt id='1309'> -2.8735226e+02 </wgt>
<wgt id='1310'> -2.8729724e+02 </wgt>
<wgt id='1311'> -2.8732543e+02 </wgt>
<wgt id='1312'> -2.8738037e+02 </wgt>
<wgt id='1313'> -2.8730539e+02 </wgt>
<wgt id='1314'> -2.8735522e+02 </wgt>
<wgt id='1315'> -2.6635288e+02 </wgt>
<wgt id='1316'> -3.0740857e+02 </wgt>
<wgt id='1317'> -1.9715035e+02 </wgt>
<wgt id='1318'> -2.1236244e+02 </wgt>
<wgt id='1319'> -2.2996174e+02 </wgt>
<wgt id='1320'> -2.4958055e+02 </wgt>
<wgt id='1321'> -2.7835828e+02 </wgt>
<wgt id='1322'> -2.9882935e+02 </wgt>
<wgt id='1323'> -3.2792796e+02 </wgt>
<wgt id='1324'> -3.5018236e+02 </wgt>
<wgt id='1325'> -2.9209701e+02 </wgt>
<wgt id='1326'> -2.9353227e+02 </wgt>
<wgt id='1327'> -2.9066636e+02 </wgt>
<wgt id='1328'> -2.9378621e+02 </wgt>
<wgt id='1329'> -2.9291711e+02 </wgt>
<wgt id='1330'> -2.9452735e+02 </wgt>
<wgt id='1331'> -2.9270876e+02 </wgt>
<wgt id='1332'> -2.9362439e+02 </wgt>
<wgt id='1333'> -2.9083053e+02 </wgt>
<wgt id='1334'> -2.9246139e+02 </wgt>
<wgt id='1335'> -2.9035139e+02 </wgt>
<wgt id='1336'> -2.9274194e+02 </wgt>
<wgt id='1337'> -2.9542298e+02 </wgt>
<wgt id='1338'> -2.8860835e+02 </wgt>
<wgt id='1339'> -2.9435729e+02 </wgt>
<wgt id='1340'> -2.9339493e+02 </wgt>
<wgt id='1341'> -2.9245541e+02 </wgt>
<wgt id='1342'> -2.9457052e+02 </wgt>
<wgt id='1343'> -2.9300844e+02 </wgt>
<wgt id='1344'> -2.8962508e+02 </wgt>
<wgt id='1345'> -2.9118160e+02 </wgt>
<wgt id='1346'> -2.9028359e+02 </wgt>
<wgt id='1347'> -2.9194126e+02 </wgt>
<wgt id='1348'> -2.9134107e+02 </wgt>
<wgt id='1349'> -2.9178399e+02 </wgt>
<wgt id='1350'> -2.9204964e+02 </wgt>
<wgt id='1351'> -2.9234136e+02 </wgt>
<wgt id='1352'> -2.9226819e+02 </wgt>
<wgt id='1353'> -2.9178861e+02 </wgt>
<wgt id='1354'> -2.9241445e+02 </wgt>
<wgt id='1355'> -2.9218971e+02 </wgt>
<wgt id='1356'> -2.9208194e+02 </wgt>
<wgt id='1357'> -2.9195128e+02 </wgt>
<wgt id='1358'> -2.9195798e+02 </wgt>
<wgt id='1359'> -2.9209842e+02 </wgt>
<wgt id='1360'> -2.9220014e+02 </wgt>
<wgt id='1361'> -2.9214788e+02 </wgt>
<wgt id='1362'> -2.9206923e+02 </wgt>
<wgt id='1363'> -2.9204238e+02 </wgt>
<wgt id='1364'> -2.9236277e+02 </wgt>
<wgt id='1365'> -2.9198534e+02 </wgt>
<wgt id='1366'> -2.9193414e+02 </wgt>
<wgt id='1367'> -2.9200290e+02 </wgt>
<wgt id='1368'> -2.9201155e+02 </wgt>
<wgt id='1369'> -2.9221330e+02 </wgt>
<wgt id='1370'> -2.9220583e+02 </wgt>
<wgt id='1371'> -2.9210503e+02 </wgt>
<wgt id='1372'> -2.9205509e+02 </wgt>
<wgt id='1373'> -2.9211384e+02 </wgt>
<wgt id='1374'> -2.9203482e+02 </wgt>
<wgt id='1375'> -2.9206436e+02 </wgt>
<wgt id='1376'> -2.9220032e+02 </wgt>
<wgt id='1377'> -2.9207216e+02 </wgt>
<wgt id='1378'> -2.9211822e+02 </wgt>
<wgt id='1379'> -2.9206449e+02 </wgt>
<wgt id='1380'> -2.9219161e+02 </wgt>
<wgt id='1381'> -2.9214877e+02 </wgt>
<wgt id='1382'> -2.9213564e+02 </wgt>
<wgt id='1383'> -2.9209065e+02 </wgt>
<wgt id='1384'> -2.9214505e+02 </wgt>
<wgt id='1385'> -2.9211497e+02 </wgt>
<wgt id='1386'> -2.9222407e+02 </wgt>
<wgt id='1387'> -2.9213002e+02 </wgt>
<wgt id='1388'> -2.9207293e+02 </wgt>
<wgt id='1389'> -2.9210784e+02 </wgt>
<wgt id='1390'> -2.9213241e+02 </wgt>
<wgt id='1391'> -2.9214097e+02 </wgt>
<wgt id='1392'> -2.9204764e+02 </wgt>
<wgt id='1393'> -2.9208352e+02 </wgt>
<wgt id='1394'> -2.9203999e+02 </wgt>
<wgt id='1395'> -2.9199780e+02 </wgt>
<wgt id='1396'> -2.9210005e+02 </wgt>
<wgt id='1397'> -2.9215584e+02 </wgt>
<wgt id='1398'> -2.9213704e+02 </wgt>
<wgt id='1399'> -2.9211771e+02 </wgt>
<wgt id='1400'> -2.9218880e+02 </wgt>
<wgt id='1401'> -2.9203772e+02 </wgt>
<wgt id='1402'> -2.9203292e+02 </wgt>
<wgt id='1403'> -2.9216534e+02 </wgt>
<wgt id='1404'> -2.9204250e+02 </wgt>
<wgt id='1405'> -2.9216646e+02 </wgt>
<wgt id='1406'> -2.9209014e+02 </wgt>
<wgt id='1407'> -2.9212176e+02 </wgt>
<wgt id='1408'> -2.9202283e+02 </wgt>
<wgt id='1409'> -2.9204981e+02 </wgt>
<wgt id='1410'> -2.9204626e+02 </wgt>
<wgt id='1411'> -2.9202511e+02 </wgt>
<wgt id='1412'> -2.9208253e+02 </wgt>
<wgt id='1413'> -2.9211788e+02 </wgt>
<wgt id='1414'> -2.9208371e+02 </wgt>
<wgt id='1415'> -2.9207497e+02 </wgt>
<wgt id='1416'> -2.9213722e+02 </wgt>
<wgt id='1417'> -2.9213019e+02 </wgt>
<wgt id='1418'> -2.9208887e+02 </wgt>
<wgt id='1419'> -2.9209216e+02 </wgt>
<wgt id='1420'> -2.9211645e+02 </wgt>
<wgt id='1421'> -2.9216156e+02 </wgt>
<wgt id='1422'> -2.9210173e+02 </wgt>
<wgt id='1423'> -2.9214649e+02 </wgt>
<wgt id='1424'> -2.9211356e+02 </wgt>
<wgt id='1425'> -2.9210568e+02 </wgt>
<wgt id='1426'> -2.7181096e+02 </wgt>
<wgt id='1427'> -3.1491507e+02 </wgt>
<wgt id='1428'> -2.7561843e+02 </wgt>
<wgt id='1429'> -2.7433936e+02 </wgt>
<wgt id='1430'> -2.7561670e+02 </wgt>
<wgt id='1431'> -2.7281394e+02 </wgt>
<wgt id='1432'> -2.7701042e+02 </wgt>
<wgt id='1433'> -2.6457648e+02 </wgt>
<wgt id='1434'> -2.8311517e+02 </wgt>
<wgt id='1435'> -2.7843646e+02 </wgt>
<wgt id='1436'> -2.6997176e+02 </wgt>
<wgt id='1437'> -2.8114266e+02 </wgt>
<wgt id='1438'> -2.7258369e+02 </wgt>
<wgt id='1439'> -2.7462949e+02 </wgt>
<wgt id='1440'> -2.7612997e+02 </wgt>
<wgt id='1441'> -2.6596472e+02 </wgt>
<wgt id='1442'> -2.7707012e+02 </wgt>
<wgt id='1443'> -2.7907102e+02 </wgt>
<wgt id='1444'> -2.6557711e+02 </wgt>
<wgt id='1445'> -2.7591033e+02 </wgt>
<wgt id='1446'> -2.7523169e+02 </wgt>
<wgt id='1447'> -2.7550650e+02 </wgt>
<wgt id='1448'> -2.7550049e+02 </wgt>
<wgt id='1449'> -2.7726805e+02 </wgt>
<wgt id='1450'> -2.7456022e+02 </wgt>
<wgt id='1451'> -2.7500424e+02 </wgt>
<wgt id='1452'> -2.7617334e+02 </wgt>
<wgt id='1453'> -2.7512693e+02 </wgt>
<wgt id='1454'> -2.7600820e+02 </wgt>
<wgt id='1455'> -2.7995309e+02 </wgt>
<wgt id='1456'> -2.6835696e+02 </wgt>
<wgt id='1457'> -2.6716596e+02 </wgt>
<wgt id='1458'> -2.8077464e+02 </wgt>
<wgt id='1459'> -2.7070673e+02 </wgt>
<wgt id='1460'> -2.8281095e+02 </wgt>
<wgt id='1461'> -2.7258739e+02 </wgt>
<wgt id='1462'> -2.7816286e+02 </wgt>
<wgt id='1463'> -2.7035299e+02 </wgt>
<wgt id='1464'> -2.7975478e+02 </wgt>
<wgt id='1465'> -2.7435863e+02 </wgt>
<wgt id='1466'> -2.7669555e+02 </wgt>
<wgt id='1467'> -2.8299022e+02 </wgt>
<wgt id='1468'> -2.7174670e+02 </wgt>
<wgt id='1469'> -2.7105999e+02 </wgt>
<wgt id='1470'> -2.7621480e+02 </wgt>
<wgt id='1471'> -2.7953710e+02 </wgt>
<wgt id='1472'> -2.6481927e+02 </wgt>
<wgt id='1473'> -2.9221265e+02 </wgt>
<wgt id='1474'> -2.6951155e+02 </wgt>
<wgt id='1475'> -2.8162632e+02 </wgt>
<wgt id='1476'> -2.7497271e+02 </wgt>
<wgt id='1477'> -2.7602449e+02 </wgt>
<wgt id='1478'> -2.7576858e+02 </wgt>
<wgt id='1479'> -2.7644554e+02 </wgt>
<wgt id='1480'> -2.7515510e+02 </wgt>
<wgt id='1481'> -2.7776131e+02 </wgt>
<wgt id='1482'> -2.8827921e+02 </wgt>
<wgt id='1483'> -2.7345430e+02 </wgt>
<wgt id='1484'> -2.7827634e+02 </wgt>
<wgt id='1485'> -2.5699918e+02 </wgt>
<wgt id='1486'> -2.9327983e+02 </wgt>
<wgt id='1487'> -2.8273456e+02 </wgt>
<wgt id='1488'> -2.8296238e+02 </wgt>
<wgt id='1489'> -2.8356035e+02 </wgt>
<wgt id='1490'> -2.9484316e+02 </wgt>
<wgt id='1491'> -2.7673337e+02 </wgt>
<wgt id='1492'> -2.8330893e+02 </wgt>
<wgt id='1493'> -2.8185587e+02 </wgt>
<wgt id='1494'> -2.8990660e+02 </wgt>
<wgt id='1495'> -2.7860155e+02 </wgt>
<wgt id='1496'> -2.7400767e+02 </wgt>
<wgt id='1497'> -2.8884811e+02 </wgt>
<wgt id='1498'> -2.9066474e+02 </wgt>
<wgt id='1499'> -2.7797006e+02 </wgt>
<wgt id='1500'> -2.6745385e+02 </wgt>
<wgt id='1501'> -2.9184428e+02 </wgt>
<wgt id='1502'> -2.8684935e+02 </wgt>
<wgt id='1503'> -2.7991770e+02 </wgt>
<wgt id='1504'> -2.7857283e+02 </wgt>
<wgt id='1505'> -2.8766394e+02 </wgt>
<wgt id='1506'> -2.8877495e+02 </wgt>
<wgt id='1507'> -2.7612189e+02 </wgt>
<wgt id='1508'> -2.8433728e+02 </wgt>
<wgt id='1509'> -2.7950236e+02 </wgt>
<wgt id='1510'> -2.7985987e+02 </wgt>
<wgt id='1511'> -2.8542447e+02 </wgt>
<wgt id='1512'> -2.7757333e+02 </wgt>
<wgt id='1513'> -2.8738665e+02 </wgt>
<wgt id='1514'> -2.8115916e+02 </wgt>
<wgt id='1515'> -2.8488041e+02 </wgt>
<wgt id='1516'> -2.7920586e+02 </wgt>
<wgt id='1517'> -2.8395468e+02 </wgt>
<wgt id='1518'> -2.8348964e+02 </wgt>
<wgt id='1519'> -2.8174860e+02 </wgt>
<wgt id='1520'> -2.8200249e+02 </wgt>
<wgt id='1521'> -2.8421260e+02 </wgt>
<wgt id='1522'> -2.8915441e+02 </wgt>
<wgt id='1523'> -2.7649903e+02 </wgt>
<wgt id='1524'> -2.8676302e+02 </wgt>
<wgt id='1525'> -2.7646456e+02 </wgt>
<wgt id='1526'> -2.8325563e+02 </wgt>
<wgt id='1527'> -2.8193478e+02 </wgt>
<wgt id='1528'> -2.8645141e+02 </wgt>
<wgt id='1529'> -2.7916162e+02 </wgt>
<wgt id='1530'> -2.8861676e+02 </wgt>
<wgt id='1531'> -2.7728096e+02 </wgt>
<wgt id='1532'> -2.7696575e+02 </wgt>
<wgt id='1533'> -2.8128731e+02 </wgt>
<wgt id='1534'> -2.7683752e+02 </wgt>
<wgt id='1535'> -2.8753272e+02 </wgt>
<wgt id='1536'> -2.8469677e+02 </wgt>
<wgt id='1537'> -2.7362222e+02 </wgt>
<wgt id='1538'> -2.8236619e+02 </wgt>
<wgt id='1539'> -2.8207662e+02 </wgt>
<wgt id='1540'> -2.7666645e+02 </wgt>
<wgt id='1541'> -2.8622380e+02 </wgt>
<wgt id='1542'> -2.7932080e+02 </wgt>
<wgt id='1543'> -2.8656263e+02 </wgt>
<wgt id='1544'> -2.6233865e+02 </wgt>
<wgt id='1545'> -3.0294457e+02 </wgt>
<wgt id='1546'> -2.5597935e+02 </wgt>
<wgt id='1547'> -2.9179812e+02 </wgt>
<wgt id='1548'> -2.9202062e+02 </wgt>
<wgt id='1549'> -2.9156511e+02 </wgt>
<wgt id='1550'> -2.9206519e+02 </wgt>
<wgt id='1551'> -2.9162357e+02 </wgt>
<wgt id='1552'> -2.9308945e+02 </wgt>
<wgt id='1553'> -2.9060353e+02 </wgt>
<wgt id='1554'> -2.9014130e+02 </wgt>
<wgt id='1555'> -2.9365568e+02 </wgt>
<wgt id='1556'> -2.9294554e+02 </wgt>
<wgt id='1557'> -2.9067897e+02 </wgt>
<wgt id='1558'> -2.9258125e+02 </wgt>
<wgt id='1559'> -2.9010461e+02 </wgt>
<wgt id='1560'> -2.9142619e+02 </wgt>
<wgt id='1561'> -2.9246613e+02 </wgt>
<wgt id='1562'> -2.9066078e+02 </wgt>
<wgt id='1563'> -2.9244085e+02 </wgt>
<wgt id='1564'> -2.8962310e+02 </wgt>
<wgt id='1565'> -2.9436978e+02 </wgt>
<wgt id='1566'> -2.9232113e+02 </wgt>
<wgt id='1567'> -2.9135402e+02 </wgt>
<wgt id='1568'> -2.9088594e+02 </wgt>
<wgt id='1569'> -2.9302367e+02 </wgt>
<wgt id='1570'> -2.8918181e+02 </wgt>
<wgt id='1571'> -2.9363772e+02 </wgt>
<wgt id='1572'> -2.8610796e+02 </wgt>
<wgt id='1573'> -2.9732605e+02 </wgt>
<wgt id='1574'> -2.9270420e+02 </wgt>
<wgt id='1575'> -2.9179278e+02 </wgt>
<wgt id='1576'> -2.9432592e+02 </wgt>
<wgt id='1577'> -2.8886387e+02 </wgt>
<wgt id='1578'> -2.9216737e+02 </wgt>
<wgt id='1579'> -2.9123836e+02 </wgt>
<wgt id='1580'> -2.9250737e+02 </wgt>
<wgt id='1581'> -2.9104976e+02 </wgt>
<wgt id='1582'> -2.9148831e+02 </wgt>
<wgt id='1583'> -2.9316570e+02 </wgt>
<wgt id='1584'> -2.9243134e+02 </wgt>
<wgt id='1585'> -2.9171169e+02 </wgt>
<wgt id='1586'> -2.9149143e+02 </wgt>
<wgt id='1587'> -2.9213760e+02 </wgt>
<wgt id='1588'> -2.9079271e+02 </wgt>
<wgt id='1589'> -2.9299146e+02 </wgt>
<wgt id='1590'> -2.9663942e+02 </wgt>
<wgt id='1591'> -2.8946203e+02 </wgt>
<wgt id='1592'> -2.9143425e+02 </wgt>
<wgt id='1593'> -2.9273092e+02 </wgt>
<wgt id='1594'> -2.9122896e+02 </wgt>
<wgt id='1595'> -2.8838427e+02 </wgt>
<wgt id='1596'> -2.9161076e+02 </wgt>
<wgt id='1597'> -2.9160515e+02 </wgt>
<wgt id='1598'> -2.7921757e+02 </wgt>
<wgt id='1599'> -2.7914630e+02 </wgt>
<wgt id='1600'> -2.7931558e+02 </wgt>
<wgt id='1601'> -2.8036070e+02 </wgt>
<wgt id='1602'> -2.7809231e+02 </wgt>
<wgt id='1603'> -2.8006812e+02 </wgt>
<wgt id='1604'> -2.7888032e+02 </wgt>
<wgt id='1605'> -2.7793389e+02 </wgt>
<wgt id='1606'> -2.8050299e+02 </wgt>
<wgt id='1607'> -2.7982440e+02 </wgt>
<wgt id='1608'> -2.7863859e+02 </wgt>
<wgt id='1609'> -2.7601893e+02 </wgt>
<wgt id='1610'> -2.8060954e+02 </wgt>
<wgt id='1611'> -2.7922154e+02 </wgt>
<wgt id='1612'> -2.7922123e+02 </wgt>
<wgt id='1613'> -2.7833684e+02 </wgt>
<wgt id='1614'> -2.8017650e+02 </wgt>
<wgt id='1615'> -2.7882842e+02 </wgt>
<wgt id='1616'> -2.7942461e+02 </wgt>
<wgt id='1617'> -2.7888855e+02 </wgt>
<wgt id='1618'> -2.7968248e+02 </wgt>
<wgt id='1619'> -2.7875919e+02 </wgt>
<wgt id='1620'> -2.7953885e+02 </wgt>
<wgt id='1621'> -2.8432220e+02 </wgt>
<wgt id='1622'> -2.7438500e+02 </wgt>
<wgt id='1623'> -2.8104830e+02 </wgt>
<wgt id='1624'> -2.7474604e+02 </wgt>
<wgt id='1625'> -2.8083480e+02 </wgt>
<wgt id='1626'> -2.7836249e+02 </wgt>
<wgt id='1627'> -2.7735113e+02 </wgt>
<wgt id='1628'> -2.8422137e+02 </wgt>
<wgt id='1629'> -2.7916871e+02 </wgt>
<wgt id='1630'> -2.7939789e+02 </wgt>
<wgt id='1631'> -2.7868120e+02 </wgt>
<wgt id='1632'> -2.8041174e+02 </wgt>
<wgt id='1633'> -2.8029983e+02 </wgt>
<wgt id='1634'> -2.7887832e+02 </wgt>
<wgt id='1635'> -2.7935870e+02 </wgt>
<wgt id='1636'> -2.7923947e+02 </wgt>
<wgt id='1637'> -2.7888541e+02 </wgt>
<wgt id='1638'> -2.7945109e+02 </wgt>
<wgt id='1639'> -2.7850374e+02 </wgt>
<wgt id='1640'> -2.7960977e+02 </wgt>
<wgt id='1641'> -2.7956210e+02 </wgt>
<wgt id='1642'> -2.7725300e+02 </wgt>
<wgt id='1643'> -2.7577566e+02 </wgt>
<wgt id='1644'> -2.8010151e+02 </wgt>
<wgt id='1645'> -2.7960522e+02 </wgt>
<wgt id='1646'> -2.7888750e+02 </wgt>
<wgt id='1647'> -2.7870282e+02 </wgt>
<wgt id='1648'> -2.7833696e+02 </wgt>
<wgt id='1649'> -5.9473112e+02 </wgt>
<wgt id='1650'> -2.8236245e+02 </wgt>
<wgt id='1651'> -2.8220390e+02 </wgt>
<wgt id='1652'> -2.8248169e+02 </wgt>
<wgt id='1653'> -2.8239100e+02 </wgt>
<wgt id='1654'> -2.8235007e+02 </wgt>
<wgt id='1655'> -2.8137528e+02 </wgt>
<wgt id='1656'> -2.8217952e+02 </wgt>
<wgt id='1657'> -2.8194066e+02 </wgt>
<wgt id='1658'> -2.8305721e+02 </wgt>
<wgt id='1659'> -2.8381825e+02 </wgt>
<wgt id='1660'> -2.8235729e+02 </wgt>
<wgt id='1661'> -2.8220708e+02 </wgt>
<wgt id='1662'> -2.8189124e+02 </wgt>
<wgt id='1663'> -2.8207255e+02 </wgt>
<wgt id='1664'> -2.8221054e+02 </wgt>
<wgt id='1665'> -2.8206964e+02 </wgt>
<wgt id='1666'> -2.8246248e+02 </wgt>
<wgt id='1667'> -2.8201704e+02 </wgt>
<wgt id='1668'> -2.8237368e+02 </wgt>
<wgt id='1669'> -2.8311101e+02 </wgt>
<wgt id='1670'> -2.8091212e+02 </wgt>
<wgt id='1671'> -2.8248987e+02 </wgt>
<wgt id='1672'> -2.7962679e+02 </wgt>
<wgt id='1673'> -2.8294392e+02 </wgt>
<wgt id='1674'> -2.8332520e+02 </wgt>
<wgt id='1675'> -2.8395121e+02 </wgt>
<wgt id='1676'> -2.8323373e+02 </wgt>
<wgt id='1677'> -2.8168823e+02 </wgt>
<wgt id='1678'> -2.8275569e+02 </wgt>
<wgt id='1679'> -2.7914197e+02 </wgt>
<wgt id='1680'> -2.8668305e+02 </wgt>
<wgt id='1681'> -2.8673912e+02 </wgt>
<wgt id='1682'> -2.9138287e+02 </wgt>
<wgt id='1683'> -2.8956275e+02 </wgt>
<wgt id='1684'> -2.8587338e+02 </wgt>
<wgt id='1685'> -2.8434566e+02 </wgt>
<wgt id='1686'> -2.8612158e+02 </wgt>
<wgt id='1687'> -2.8788878e+02 </wgt>
<wgt id='1688'> -2.9171302e+02 </wgt>
<wgt id='1689'> -2.8430235e+02 </wgt>
<wgt id='1690'> -2.9362509e+02 </wgt>
<wgt id='1691'> -2.8693635e+02 </wgt>
<wgt id='1692'> -2.8081824e+02 </wgt>
<wgt id='1693'> -2.8761929e+02 </wgt>
<wgt id='1694'> -2.8410758e+02 </wgt>
<wgt id='1695'> -2.8660873e+02 </wgt>
<wgt id='1696'> -2.8787715e+02 </wgt>
<wgt id='1697'> -2.8606341e+02 </wgt>
<wgt id='1698'> -2.8588392e+02 </wgt>
<wgt id='1699'> -2.8608512e+02 </wgt>
<wgt id='1700'> -2.8690797e+02 </wgt>
<wgt id='1701'> -2.8510555e+02 </wgt>
<wgt id='1702'> -2.8694082e+02 </wgt>
<wgt id='1703'> -2.8629232e+02 </wgt>
<wgt id='1704'> -2.8661080e+02 </wgt>
<wgt id='1705'> -2.8629920e+02 </wgt>
<wgt id='1706'> -2.8641200e+02 </wgt>
<wgt id='1707'> -2.8682597e+02 </wgt>
<wgt id='1708'> -2.8601453e+02 </wgt>
<wgt id='1709'> -2.8654448e+02 </wgt>
<wgt id='1710'> -2.8651223e+02 </wgt>
<wgt id='1711'> -2.8658905e+02 </wgt>
<wgt id='1712'> -2.8672021e+02 </wgt>
<wgt id='1713'> -2.8623196e+02 </wgt>
<wgt id='1714'> -2.8674595e+02 </wgt>
<wgt id='1715'> -2.8722154e+02 </wgt>
<wgt id='1716'> -2.8649872e+02 </wgt>
<wgt id='1717'> -2.8677525e+02 </wgt>
<wgt id='1718'> -2.8644917e+02 </wgt>
<wgt id='1719'> -2.8670363e+02 </wgt>
<wgt id='1720'> -2.8668692e+02 </wgt>
<wgt id='1721'> -2.8681367e+02 </wgt>
<wgt id='1722'> -2.8688364e+02 </wgt>
<wgt id='1723'> -2.8648798e+02 </wgt>
<wgt id='1724'> -2.8691386e+02 </wgt>
<wgt id='1725'> -2.8688075e+02 </wgt>
<wgt id='1726'> -2.8691937e+02 </wgt>
<wgt id='1727'> -2.8647813e+02 </wgt>
<wgt id='1728'> -2.8641215e+02 </wgt>
<wgt id='1729'> -2.8668957e+02 </wgt>
<wgt id='1730'> -2.8673616e+02 </wgt>
<wgt id='1731'> -2.8642289e+02 </wgt>
<wgt id='1732'> -2.8676113e+02 </wgt>
<wgt id='1733'> -2.8660237e+02 </wgt>
<wgt id='1734'> -2.8657048e+02 </wgt>
<wgt id='1735'> -2.8671001e+02 </wgt>
<wgt id='1736'> -2.8667614e+02 </wgt>
<wgt id='1737'> -2.8660739e+02 </wgt>
<wgt id='1738'> -2.8695285e+02 </wgt>
<wgt id='1739'> -2.8654536e+02 </wgt>
<wgt id='1740'> -2.8641862e+02 </wgt>
<wgt id='1741'> -2.8662219e+02 </wgt>
<wgt id='1742'> -2.8648968e+02 </wgt>
<wgt id='1743'> -2.8669450e+02 </wgt>
<wgt id='1744'> -2.8664028e+02 </wgt>
<wgt id='1745'> -2.8665684e+02 </wgt>
<wgt id='1746'> -2.8660313e+02 </wgt>
<wgt id='1747'> -2.8664767e+02 </wgt>
<wgt id='1748'> -2.8675875e+02 </wgt>
<wgt id='1749'> -2.8673990e+02 </wgt>
<wgt id='1750'> -2.8666953e+02 </wgt>
<wgt id='1751'> -2.8659472e+02 </wgt>
<wgt id='1752'> -2.8663049e+02 </wgt>
<wgt id='1753'> -2.8659109e+02 </wgt>
<wgt id='1754'> -2.8675736e+02 </wgt>
<wgt id='1755'> -2.8665892e+02 </wgt>
<wgt id='1756'> -2.8664866e+02 </wgt>
<wgt id='1757'> -2.8670000e+02 </wgt>
<wgt id='1758'> -2.8671601e+02 </wgt>
<wgt id='1759'> -2.8681694e+02 </wgt>
<wgt id='1760'> -2.8669332e+02 </wgt>
<wgt id='1761'> -2.8671944e+02 </wgt>
<wgt id='1762'> -2.8652318e+02 </wgt>
<wgt id='1763'> -2.8678162e+02 </wgt>
<wgt id='1764'> -2.8672170e+02 </wgt>
<wgt id='1765'> -2.8671972e+02 </wgt>
<wgt id='1766'> -2.8676390e+02 </wgt>
<wgt id='1767'> -2.8663545e+02 </wgt>
<wgt id='1768'> -2.8661883e+02 </wgt>
<wgt id='1769'> -2.8669314e+02 </wgt>
<wgt id='1770'> -2.8665464e+02 </wgt>
<wgt id='1771'> -2.8667168e+02 </wgt>
<wgt id='1772'> -2.8667965e+02 </wgt>
<wgt id='1773'> -2.8659487e+02 </wgt>
<wgt id='1774'> -2.8672972e+02 </wgt>
<wgt id='1775'> -2.8671651e+02 </wgt>
<wgt id='1776'> -2.8662840e+02 </wgt>
<wgt id='1777'> -2.8670859e+02 </wgt>
<wgt id='1778'> -2.8673697e+02 </wgt>
<wgt id='1779'> -2.8671253e+02 </wgt>
<wgt id='1780'> -2.8667822e+02 </wgt>
<wgt id='1781'> -2.7150553e+02 </wgt>
<wgt id='1782'> -3.0112784e+02 </wgt>
<wgt id='1783'> -2.7921263e+02 </wgt>
<wgt id='1784'> -2.7935321e+02 </wgt>
<wgt id='1785'> -2.8163012e+02 </wgt>
<wgt id='1786'> -2.7528415e+02 </wgt>
<wgt id='1787'> -2.7807245e+02 </wgt>
<wgt id='1788'> -2.8140345e+02 </wgt>
<wgt id='1789'> -2.7740809e+02 </wgt>
<wgt id='1790'> -2.7825001e+02 </wgt>
<wgt id='1791'> -2.7950384e+02 </wgt>
<wgt id='1792'> -2.7892543e+02 </wgt>
<wgt id='1793'> -2.7793096e+02 </wgt>
<wgt id='1794'> -2.8436044e+02 </wgt>
<wgt id='1795'> -2.7490541e+02 </wgt>
<wgt id='1796'> -2.7261735e+02 </wgt>
<wgt id='1797'> -2.7427444e+02 </wgt>
<wgt id='1798'> -2.7898743e+02 </wgt>
<wgt id='1799'> -2.8196561e+02 </wgt>
<wgt id='1800'> -2.7962644e+02 </wgt>
<wgt id='1801'> -2.7897050e+02 </wgt>
<wgt id='1802'> -2.7867107e+02 </wgt>
<wgt id='1803'> -2.8039154e+02 </wgt>
<wgt id='1804'> -2.7866000e+02 </wgt>
<wgt id='1805'> -2.7959065e+02 </wgt>
<wgt id='1806'> -2.7876494e+02 </wgt>
<wgt id='1807'> -2.7888461e+02 </wgt>
<wgt id='1808'> -2.7969565e+02 </wgt>
<wgt id='1809'> -2.7937967e+02 </wgt>
<wgt id='1810'> -2.7882476e+02 </wgt>
<wgt id='1811'> -2.7938976e+02 </wgt>
<wgt id='1812'> -2.7952386e+02 </wgt>
<wgt id='1813'> -2.7928491e+02 </wgt>
<wgt id='1814'> -2.7909867e+02 </wgt>
<wgt id='1815'> -2.7946170e+02 </wgt>
<wgt id='1816'> -2.7957667e+02 </wgt>
<wgt id='1817'> -2.7903072e+02 </wgt>
<wgt id='1818'> -2.7961571e+02 </wgt>
<wgt id='1819'> -2.7917063e+02 </wgt>
<wgt id='1820'> -2.7949012e+02 </wgt>
<wgt id='1821'> -2.7924112e+02 </wgt>
<wgt id='1822'> -2.7926349e+02 </wgt>
<wgt id='1823'> -2.7894611e+02 </wgt>
<wgt id='1824'> -2.7907434e+02 </wgt>
<wgt id='1825'> -2.7912998e+02 </wgt>
<wgt id='1826'> -2.7903707e+02 </wgt>
<wgt id='1827'> -2.7931108e+02 </wgt>
<wgt id='1828'> -2.7915538e+02 </wgt>
<wgt id='1829'> -2.7887519e+02 </wgt>
<wgt id='1830'> -2.7906072e+02 </wgt>
<wgt id='1831'> -2.7928356e+02 </wgt>
<wgt id='1832'> -2.7906671e+02 </wgt>
<wgt id='1833'> -2.7928546e+02 </wgt>
<wgt id='1834'> -2.7931478e+02 </wgt>
<wgt id='1835'> -2.7924166e+02 </wgt>
<wgt id='1836'> -2.7927036e+02 </wgt>
<wgt id='1837'> -2.7908157e+02 </wgt>
<wgt id='1838'> -2.7917858e+02 </wgt>
<wgt id='1839'> -2.7947290e+02 </wgt>
<wgt id='1840'> -2.7916826e+02 </wgt>
<wgt id='1841'> -2.7905088e+02 </wgt>
<wgt id='1842'> -2.7911068e+02 </wgt>
<wgt id='1843'> -2.7912510e+02 </wgt>
<wgt id='1844'> -2.7925025e+02 </wgt>
<wgt id='1845'> -2.7925059e+02 </wgt>
<wgt id='1846'> -2.7935171e+02 </wgt>
<wgt id='1847'> -2.7912340e+02 </wgt>
<wgt id='1848'> -2.7922307e+02 </wgt>
<wgt id='1849'> -2.7925558e+02 </wgt>
<wgt id='1850'> -2.7930618e+02 </wgt>
<wgt id='1851'> -2.7930210e+02 </wgt>
<wgt id='1852'> -2.7933675e+02 </wgt>
<wgt id='1853'> -2.7919732e+02 </wgt>
<wgt id='1854'> -2.7935535e+02 </wgt>
<wgt id='1855'> -2.7936131e+02 </wgt>
<wgt id='1856'> -2.7913988e+02 </wgt>
<wgt id='1857'> -2.7924846e+02 </wgt>
<wgt id='1858'> -2.7919301e+02 </wgt>
<wgt id='1859'> -2.7918457e+02 </wgt>
<wgt id='1860'> -2.7924013e+02 </wgt>
<wgt id='1861'> -2.7923647e+02 </wgt>
<wgt id='1862'> -2.7916885e+02 </wgt>
<wgt id='1863'> -2.7935725e+02 </wgt>
<wgt id='1864'> -2.7917361e+02 </wgt>
<wgt id='1865'> -2.7926722e+02 </wgt>
<wgt id='1866'> -2.7913325e+02 </wgt>
<wgt id='1867'> -2.7916181e+02 </wgt>
<wgt id='1868'> -2.7916846e+02 </wgt>
<wgt id='1869'> -2.7922263e+02 </wgt>
<wgt id='1870'> -2.7909136e+02 </wgt>
<wgt id='1871'> -2.7917726e+02 </wgt>
<wgt id='1872'> -2.7916906e+02 </wgt>
<wgt id='1873'> -2.7925275e+02 </wgt>
<wgt id='1874'> -2.7920870e+02 </wgt>
<wgt id='1875'> -2.7922014e+02 </wgt>
<wgt id='1876'> -2.7917802e+02 </wgt>
<wgt id='1877'> -2.7921808e+02 </wgt>
<wgt id='1878'> -2.7924557e+02 </wgt>
<wgt id='1879'> -2.7915746e+02 </wgt>
<wgt id='1880'> -2.7922433e+02 </wgt>
<wgt id='1881'> -2.7922172e+02 </wgt>
<wgt id='1882'> -2.7915613e+02 </wgt>
<wgt id='1883'> -2.7919936e+02 </wgt>
<wgt id='1884'> -2.6576556e+02 </wgt>
<wgt id='1885'> -2.9178477e+02 </wgt>
<wgt id='1886'> -2.8680161e+02 </wgt>
<wgt id='1887'> -2.8894604e+02 </wgt>
<wgt id='1888'> -2.8662836e+02 </wgt>
<wgt id='1889'> -2.8694746e+02 </wgt>
<wgt id='1890'> -2.8712809e+02 </wgt>
<wgt id='1891'> -2.9951635e+02 </wgt>
<wgt id='1892'> -2.8687282e+02 </wgt>
<wgt id='1893'> -2.8674390e+02 </wgt>
<wgt id='1894'> -2.8713585e+02 </wgt>
<wgt id='1895'> -2.8656878e+02 </wgt>
<wgt id='1896'> -2.8685339e+02 </wgt>
<wgt id='1897'> -2.8662080e+02 </wgt>
<wgt id='1898'> -2.8657587e+02 </wgt>
<wgt id='1899'> -2.8673461e+02 </wgt>
<wgt id='1900'> -2.8693413e+02 </wgt>
<wgt id='1901'> -2.8699020e+02 </wgt>
<wgt id='1902'> -2.8685668e+02 </wgt>
<wgt id='1903'> -2.8570715e+02 </wgt>
<wgt id='1904'> -2.8694806e+02 </wgt>
<wgt id='1905'> -2.8665832e+02 </wgt>
<wgt id='1906'> -2.8679731e+02 </wgt>
<wgt id='1907'> -2.8681486e+02 </wgt>
<wgt id='1908'> -2.8668542e+02 </wgt>
<wgt id='1909'> -2.8690506e+02 </wgt>
<wgt id='1910'> -2.8686865e+02 </wgt>
<wgt id='1911'> -2.8663704e+02 </wgt>
<wgt id='1912'> -2.8682204e+02 </wgt>
<wgt id='1913'> -2.8675582e+02 </wgt>
<wgt id='1914'> -2.8696288e+02 </wgt>
<wgt id='1915'> -2.8697698e+02 </wgt>
<wgt id='1916'> -2.8675011e+02 </wgt>
<wgt id='1917'> -2.7150553e+02 </wgt>
<wgt id='1918'> -3.0112784e+02 </wgt>
<wgt id='1919'> -2.7920737e+02 </wgt>
<wgt id='1920'> -2.7938463e+02 </wgt>
<wgt id='1921'> -2.8106927e+02 </wgt>
<wgt id='1922'> -2.7883305e+02 </wgt>
<wgt id='1923'> -2.8152058e+02 </wgt>
<wgt id='1924'> -2.7351444e+02 </wgt>
<wgt id='1925'> -2.7910598e+02 </wgt>
<wgt id='1926'> -2.7825093e+02 </wgt>
<wgt id='1927'> -2.7833326e+02 </wgt>
<wgt id='1928'> -2.7705375e+02 </wgt>
<wgt id='1929'> -2.7880490e+02 </wgt>
<wgt id='1930'> -2.7686755e+02 </wgt>
<wgt id='1931'> -2.7975690e+02 </wgt>
<wgt id='1932'> -2.8059904e+02 </wgt>
<wgt id='1933'> -2.7779664e+02 </wgt>
<wgt id='1934'> -2.7871837e+02 </wgt>
<wgt id='1935'> -2.7861554e+02 </wgt>
<wgt id='1936'> -2.8289913e+02 </wgt>
<wgt id='1937'> -2.7908665e+02 </wgt>
<wgt id='1938'> -2.7892944e+02 </wgt>
<wgt id='1939'> -2.8014504e+02 </wgt>
<wgt id='1940'> -2.8060016e+02 </wgt>
<wgt id='1941'> -2.8830538e+02 </wgt>
<wgt id='1942'> -2.7911171e+02 </wgt>
<wgt id='1943'> -2.7911666e+02 </wgt>
<wgt id='1944'> -2.7868919e+02 </wgt>
<wgt id='1945'> -2.7915665e+02 </wgt>
<wgt id='1946'> -2.7920564e+02 </wgt>
<wgt id='1947'> -2.7916666e+02 </wgt>
<wgt id='1948'> -2.7929939e+02 </wgt>
<wgt id='1949'> -2.7923424e+02 </wgt>
<wgt id='1950'> -2.6576556e+02 </wgt>
<wgt id='1951'> -2.9178477e+02 </wgt>
<wgt id='1952'> -3.1264196e+02 </wgt>
<wgt id='1953'> -3.1201717e+02 </wgt>
<wgt id='1954'> -3.1326467e+02 </wgt>
<wgt id='1955'> -3.1364699e+02 </wgt>
<wgt id='1956'> -3.1163907e+02 </wgt>
<wgt id='1957'> -3.1332958e+02 </wgt>
<wgt id='1958'> -3.1195586e+02 </wgt>
<wgt id='1959'> -3.1409600e+02 </wgt>
<wgt id='1960'> -3.1122732e+02 </wgt>
<wgt id='1961'> -3.1315399e+02 </wgt>
<wgt id='1962'> -3.1214538e+02 </wgt>
<wgt id='1963'> -3.1191436e+02 </wgt>
<wgt id='1964'> -3.1346537e+02 </wgt>
<wgt id='1965'> -3.1094523e+02 </wgt>
<wgt id='1966'> -3.1436244e+02 </wgt>
<wgt id='1967'> -3.1230689e+02 </wgt>
<wgt id='1968'> -3.1231979e+02 </wgt>
<wgt id='1969'> -3.1392069e+02 </wgt>
<wgt id='1970'> -3.1134615e+02 </wgt>
<wgt id='1971'> -3.1082416e+02 </wgt>
<wgt id='1972'> -3.1436389e+02 </wgt>
<wgt id='1973'> -3.1454351e+02 </wgt>
<wgt id='1974'> -3.1032057e+02 </wgt>
<wgt id='1975'> -3.1132395e+02 </wgt>
<wgt id='1976'> -3.1199207e+02 </wgt>
<wgt id='1977'> -3.1430350e+02 </wgt>
<wgt id='1978'> -3.1150990e+02 </wgt>
<wgt id='1979'> -3.1172865e+02 </wgt>
<wgt id='1980'> -3.1392114e+02 </wgt>
<wgt id='1981'> -3.1264196e+02 </wgt>
<wgt id='1982'> -3.1257065e+02 </wgt>
<wgt id='1983'> -3.1258117e+02 </wgt>
<wgt id='1984'> -3.1253365e+02 </wgt>
<wgt id='1985'> -3.1259577e+02 </wgt>
<wgt id='1986'> -3.1434552e+02 </wgt>
<wgt id='1987'> -3.0812689e+02 </wgt>
<wgt id='1988'> -3.1078836e+02 </wgt>
<wgt id='1989'> -3.1434459e+02 </wgt>
<wgt id='1990'> -3.1166589e+02 </wgt>
<wgt id='1991'> -3.1371025e+02 </wgt>
<wgt id='1992'> -3.1310956e+02 </wgt>
<wgt id='1993'> -3.1291994e+02 </wgt>
<wgt id='1994'> -3.0772512e+02 </wgt>
<wgt id='1995'> -2.7774204e+02 </wgt>
<wgt id='1996'> -2.7741111e+02 </wgt>
<wgt id='1997'> -2.7803499e+02 </wgt>
<wgt id='1998'> -2.7820567e+02 </wgt>
<wgt id='1999'> -2.7724242e+02 </wgt>
<wgt id='2000'> -2.7858203e+02 </wgt>
<wgt id='2001'> -2.7686720e+02 </wgt>
<wgt id='2002'> -2.7956556e+02 </wgt>
<wgt id='2003'> -2.7593009e+02 </wgt>
<wgt id='2004'> -2.7769364e+02 </wgt>
<wgt id='2005'> -2.7777466e+02 </wgt>
<wgt id='2006'> -2.7861507e+02 </wgt>
<wgt id='2007'> -2.7683566e+02 </wgt>
<wgt id='2008'> -2.7671602e+02 </wgt>
<wgt id='2009'> -2.7872296e+02 </wgt>
<wgt id='2010'> -2.7691223e+02 </wgt>
<wgt id='2011'> -2.7810891e+02 </wgt>
<wgt id='2012'> -2.7772368e+02 </wgt>
<wgt id='2013'> -2.7765374e+02 </wgt>
<wgt id='2014'> -2.7689963e+02 </wgt>
<wgt id='2015'> -2.7852909e+02 </wgt>
<wgt id='2016'> -2.7405068e+02 </wgt>
<wgt id='2017'> -2.8092059e+02 </wgt>
<wgt id='2018'> -2.7823303e+02 </wgt>
<wgt id='2019'> -2.7713566e+02 </wgt>
<wgt id='2020'> -2.7685544e+02 </wgt>
<wgt id='2021'> -2.7767573e+02 </wgt>
<wgt id='2022'> -2.7781344e+02 </wgt>
<wgt id='2023'> -2.7803415e+02 </wgt>
<wgt id='2024'> -2.7719546e+02 </wgt>
<wgt id='2025'> -2.7752936e+02 </wgt>
<wgt id='2026'> -2.7636277e+02 </wgt>
<wgt id='2027'> -2.7744544e+02 </wgt>
<wgt id='2028'> -2.7680293e+02 </wgt>
<wgt id='2029'> -2.7756378e+02 </wgt>
<wgt id='2030'> -2.7602711e+02 </wgt>
<wgt id='2031'> -2.7575673e+02 </wgt>
<wgt id='2032'> -2.7938286e+02 </wgt>
<wgt id='2033'> -2.7580876e+02 </wgt>
<wgt id='2034'> -2.7896099e+02 </wgt>
<wgt id='2035'> -2.7568002e+02 </wgt>
<wgt id='2036'> -2.8067725e+02 </wgt>
<wgt id='2037'> -2.7412627e+02 </wgt>
<wgt id='2038'> -2.8176375e+02 </wgt>
<wgt id='2039'> -2.8172848e+02 </wgt>
<wgt id='2040'> -2.8169258e+02 </wgt>
<wgt id='2041'> -2.8165692e+02 </wgt>
<wgt id='2042'> -2.8162073e+02 </wgt>
<wgt id='2043'> -2.8158517e+02 </wgt>
<wgt id='2044'> -2.8154970e+02 </wgt>
<wgt id='2045'> -2.8151418e+02 </wgt>
<wgt id='2046'> -2.8147768e+02 </wgt>
<wgt id='2047'> -2.8144223e+02 </wgt>
<wgt id='2048'> -2.8140716e+02 </wgt>
<wgt id='2049'> -2.8137141e+02 </wgt>
<wgt id='2050'> -2.8133576e+02 </wgt>
<wgt id='2051'> -2.8129965e+02 </wgt>
<wgt id='2052'> -2.8126378e+02 </wgt>
<wgt id='2053'> -2.8122812e+02 </wgt>
<wgt id='2054'> -2.8119304e+02 </wgt>
<wgt id='2055'> -2.8115661e+02 </wgt>
<wgt id='2056'> -2.8112118e+02 </wgt>
<wgt id='2057'> -2.8108523e+02 </wgt>
<wgt id='2058'> -2.8104984e+02 </wgt>
<wgt id='2059'> -2.8101450e+02 </wgt>
<wgt id='2060'> -2.8097843e+02 </wgt>
<wgt id='2061'> -2.8094275e+02 </wgt>
<wgt id='2062'> -2.8090715e+02 </wgt>
<wgt id='2063'> -2.8087192e+02 </wgt>
<wgt id='2064'> -2.8083568e+02 </wgt>
<wgt id='2065'> -2.8080021e+02 </wgt>
<wgt id='2066'> -2.8076450e+02 </wgt>
<wgt id='2067'> -2.8072890e+02 </wgt>
<wgt id='2068'> -2.8069291e+02 </wgt>
<wgt id='2069'> -2.7541045e+02 </wgt>
<wgt id='2070'> -2.7554493e+02 </wgt>
<wgt id='2071'> -2.7779586e+02 </wgt>
<wgt id='2072'> -2.7153722e+02 </wgt>
<wgt id='2073'> -2.7428866e+02 </wgt>
<wgt id='2074'> -2.7758247e+02 </wgt>
<wgt id='2075'> -2.7363585e+02 </wgt>
<wgt id='2076'> -2.7446143e+02 </wgt>
<wgt id='2077'> -2.7569444e+02 </wgt>
<wgt id='2078'> -2.7513074e+02 </wgt>
<wgt id='2079'> -2.7414102e+02 </wgt>
<wgt id='2080'> -2.8050371e+02 </wgt>
<wgt id='2081'> -2.7116230e+02 </wgt>
<wgt id='2082'> -2.6890268e+02 </wgt>
<wgt id='2083'> -2.7053874e+02 </wgt>
<wgt id='2084'> -2.7517626e+02 </wgt>
<wgt id='2085'> -2.7814152e+02 </wgt>
<wgt id='2086'> -2.7580789e+02 </wgt>
<wgt id='2087'> -2.7517126e+02 </wgt>
<wgt id='2088'> -2.7488852e+02 </wgt>
<wgt id='2089'> -2.7657913e+02 </wgt>
<wgt id='2090'> -2.7484023e+02 </wgt>
<wgt id='2091'> -2.7579494e+02 </wgt>
<wgt id='2092'> -2.7493959e+02 </wgt>
<wgt id='2093'> -2.7507380e+02 </wgt>
<wgt id='2094'> -2.7589079e+02 </wgt>
<wgt id='2095'> -2.7556888e+02 </wgt>
<wgt id='2096'> -2.7501960e+02 </wgt>
<wgt id='2097'> -2.7559020e+02 </wgt>
<wgt id='2098'> -2.7572907e+02 </wgt>
<wgt id='2099'> -2.7546707e+02 </wgt>
<wgt id='2100'> -2.7529432e+02 </wgt>
<wgt id='2101'> -2.7566197e+02 </wgt>
<wgt id='2102'> -2.7577133e+02 </wgt>
<wgt id='2103'> -2.7523350e+02 </wgt>
<wgt id='2104'> -2.7581426e+02 </wgt>
<wgt id='2105'> -2.7536760e+02 </wgt>
<wgt id='2106'> -2.7568807e+02 </wgt>
<wgt id='2107'> -2.7544099e+02 </wgt>
<wgt id='2108'> -2.7546234e+02 </wgt>
<wgt id='2109'> -2.7514461e+02 </wgt>
<wgt id='2110'> -2.7527357e+02 </wgt>
<wgt id='2111'> -2.7533175e+02 </wgt>
<wgt id='2112'> -2.7523560e+02 </wgt>
<wgt id='2113'> -2.7551063e+02 </wgt>
<wgt id='2114'> -2.7535467e+02 </wgt>
<wgt id='2115'> -2.7507445e+02 </wgt>
<wgt id='2116'> -2.7526092e+02 </wgt>
<wgt id='2117'> -2.7548011e+02 </wgt>
<wgt id='2118'> -2.7526457e+02 </wgt>
<wgt id='2119'> -2.7548259e+02 </wgt>
<wgt id='2120'> -2.7551283e+02 </wgt>
<wgt id='2121'> -2.7543872e+02 </wgt>
<wgt id='2122'> -2.7546806e+02 </wgt>
<wgt id='2123'> -2.7527906e+02 </wgt>
<wgt id='2124'> -2.7537597e+02 </wgt>
<wgt id='2125'> -2.7566837e+02 </wgt>
<wgt id='2126'> -2.7536637e+02 </wgt>
<wgt id='2127'> -2.7525018e+02 </wgt>
<wgt id='2128'> -2.7530859e+02 </wgt>
<wgt id='2129'> -2.7532360e+02 </wgt>
<wgt id='2130'> -2.7544713e+02 </wgt>
<wgt id='2131'> -2.7544737e+02 </wgt>
<wgt id='2132'> -2.7554847e+02 </wgt>
<wgt id='2133'> -2.7532286e+02 </wgt>
<wgt id='2134'> -2.7542087e+02 </wgt>
<wgt id='2135'> -2.7545235e+02 </wgt>
<wgt id='2136'> -2.7550258e+02 </wgt>
<wgt id='2137'> -2.7549876e+02 </wgt>
<wgt id='2138'> -2.7553348e+02 </wgt>
<wgt id='2139'> -2.7539461e+02 </wgt>
<wgt id='2140'> -2.7555256e+02 </wgt>
<wgt id='2141'> -2.7555725e+02 </wgt>
<wgt id='2142'> -2.7533800e+02 </wgt>
<wgt id='2143'> -2.7544659e+02 </wgt>
<wgt id='2144'> -2.7539088e+02 </wgt>
<wgt id='2145'> -2.7538301e+02 </wgt>
<wgt id='2146'> -2.7543700e+02 </wgt>
<wgt id='2147'> -2.7543464e+02 </wgt>
<wgt id='2148'> -2.7536616e+02 </wgt>
<wgt id='2149'> -2.7555377e+02 </wgt>
<wgt id='2150'> -2.7537166e+02 </wgt>
<wgt id='2151'> -2.7546338e+02 </wgt>
<wgt id='2152'> -2.7533201e+02 </wgt>
<wgt id='2153'> -2.7535945e+02 </wgt>
<wgt id='2154'> -2.7536667e+02 </wgt>
<wgt id='2155'> -2.7542091e+02 </wgt>
<wgt id='2156'> -2.7528991e+02 </wgt>
<wgt id='2157'> -2.7537551e+02 </wgt>
<wgt id='2158'> -2.7536758e+02 </wgt>
<wgt id='2159'> -2.7545040e+02 </wgt>
<wgt id='2160'> -2.7540602e+02 </wgt>
<wgt id='2161'> -2.7541771e+02 </wgt>
<wgt id='2162'> -2.7537588e+02 </wgt>
<wgt id='2163'> -2.7541528e+02 </wgt>
<wgt id='2164'> -2.7544250e+02 </wgt>
<wgt id='2165'> -2.7535623e+02 </wgt>
<wgt id='2166'> -2.7542124e+02 </wgt>
<wgt id='2167'> -2.7541950e+02 </wgt>
<wgt id='2168'> -2.7535477e+02 </wgt>
<wgt id='2169'> -2.7539785e+02 </wgt>
<wgt id='2170'> -2.7540647e+02 </wgt>
<wgt id='2171'> -2.7538427e+02 </wgt>
<wgt id='2172'> -2.7541460e+02 </wgt>
<wgt id='2173'> -2.7541528e+02 </wgt>
<wgt id='2174'> -2.7542257e+02 </wgt>
<wgt id='2175'> -2.7541221e+02 </wgt>
<wgt id='2176'> -2.7539298e+02 </wgt>
<wgt id='2177'> -2.8508649e+02 </wgt>
<wgt id='2178'> -2.5222818e+02 </wgt>
<wgt id='2179'> -2.8377933e+02 </wgt>
<wgt id='2180'> -2.7930255e+02 </wgt>
<wgt id='2181'> -2.8356026e+02 </wgt>
<wgt id='2182'> -2.3263371e+02 </wgt>
<wgt id='2183'> -2.8758521e+02 </wgt>
<wgt id='2184'> -2.9048736e+02 </wgt>
<wgt id='2185'> -2.8571506e+02 </wgt>
<wgt id='2186'> -2.8406065e+02 </wgt>
<wgt id='2187'> -2.6784603e+02 </wgt>
<wgt id='2188'> -2.7344228e+02 </wgt>
<wgt id='2189'> -2.9331318e+02 </wgt>
<wgt id='2190'> -2.9250426e+02 </wgt>
<wgt id='2191'> -2.6970824e+02 </wgt>
<wgt id='2192'> -2.8310197e+02 </wgt>
<wgt id='2193'> -2.9208336e+02 </wgt>
<wgt id='2194'> -2.7678168e+02 </wgt>
<wgt id='2195'> -2.8234498e+02 </wgt>
<wgt id='2196'> -2.9286731e+02 </wgt>
<wgt id='2197'> -2.9080343e+02 </wgt>
<wgt id='2198'> -2.8620385e+02 </wgt>
<wgt id='2199'> -2.8132262e+02 </wgt>
<wgt id='2200'> -3.1348571e+02 </wgt>
<wgt id='2201'> -2.8186650e+02 </wgt>
<wgt id='2202'> -2.9219736e+02 </wgt>
<wgt id='2203'> -2.7899094e+02 </wgt>
<wgt id='2204'> -2.8091573e+02 </wgt>
<wgt id='2205'> -2.8281351e+02 </wgt>
<wgt id='2206'> -2.7815466e+02 </wgt>
<wgt id='2207'> -2.9219740e+02 </wgt>
<wgt id='2208'> -2.8309750e+02 </wgt>
<wgt id='2209'> -2.7263853e+02 </wgt>
<wgt id='2210'> -2.9504253e+02 </wgt>
<wgt id='2211'> -2.8809483e+02 </wgt>
<wgt id='2212'> -2.9303914e+02 </wgt>
<wgt id='2213'> -3.0266690e+02 </wgt>
<wgt id='2214'> -2.8939081e+02 </wgt>
<wgt id='2215'> -2.8648883e+02 </wgt>
<wgt id='2216'> -2.7316332e+02 </wgt>
<wgt id='2217'> -2.9319717e+02 </wgt>
<wgt id='2218'> -2.8644487e+02 </wgt>
<wgt id='2219'> -2.9080414e+02 </wgt>
<wgt id='2220'> -2.9107534e+02 </wgt>
<wgt id='2221'> -2.8060976e+02 </wgt>
<wgt id='2222'> -2.8934697e+02 </wgt>
<wgt id='2223'> -2.9003085e+02 </wgt>
<wgt id='2224'> -2.8005224e+02 </wgt>
<wgt id='2225'> -2.7911002e+02 </wgt>
<wgt id='2226'> -2.8820745e+02 </wgt>
<wgt id='2227'> -2.8713538e+02 </wgt>
<wgt id='2228'> -2.8660357e+02 </wgt>
<wgt id='2229'> -2.8263665e+02 </wgt>
<wgt id='2230'> -2.9088243e+02 </wgt>
<wgt id='2231'> -2.8563851e+02 </wgt>
<wgt id='2232'> -2.8797987e+02 </wgt>
<wgt id='2233'> -2.7352933e+02 </wgt>
<wgt id='2234'> -3.0588079e+02 </wgt>
<wgt id='2235'> -2.8198223e+02 </wgt>
<wgt id='2236'> -2.8678129e+02 </wgt>
<wgt id='2237'> -2.8563196e+02 </wgt>
<wgt id='2238'> -2.9229744e+02 </wgt>
<wgt id='2239'> -2.8423625e+02 </wgt>
<wgt id='2240'> -2.9584013e+02 </wgt>
<wgt id='2241'> -2.7711087e+02 </wgt>
<wgt id='2242'> -2.9358793e+02 </wgt>
<wgt id='2243'> -2.8538859e+02 </wgt>
<wgt id='2244'> -2.9955248e+02 </wgt>
<wgt id='2245'> -2.7944359e+02 </wgt>
<wgt id='2246'> -2.7603231e+02 </wgt>
<wgt id='2247'> -2.8808895e+02 </wgt>
<wgt id='2248'> -2.9777780e+02 </wgt>
<wgt id='2249'> -2.8255614e+02 </wgt>
<wgt id='2250'> -2.5307037e+02 </wgt>
<wgt id='2251'> -2.8585025e+02 </wgt>
<wgt id='2252'> -2.8254112e+02 </wgt>
<wgt id='2253'> -2.7356530e+02 </wgt>
<wgt id='2254'> -2.8778735e+02 </wgt>
<wgt id='2255'> -3.0068134e+02 </wgt>
<wgt id='2256'> -2.8516596e+02 </wgt>
<wgt id='2257'> -2.8800972e+02 </wgt>
<wgt id='2258'> -2.8684058e+02 </wgt>
<wgt id='2259'> -2.8164260e+02 </wgt>
<wgt id='2260'> -2.8849632e+02 </wgt>
<wgt id='2261'> -2.8838642e+02 </wgt>
<wgt id='2262'> -2.7237020e+02 </wgt>
<wgt id='2263'> -2.8339847e+02 </wgt>
<wgt id='2264'> -2.8076439e+02 </wgt>
<wgt id='2265'> -2.8661143e+02 </wgt>
<wgt id='2266'> -2.9559507e+02 </wgt>
<wgt id='2267'> -2.8202768e+02 </wgt>
<wgt id='2268'> -2.7751207e+02 </wgt>
<wgt id='2269'> -2.9822267e+02 </wgt>
<wgt id='2270'> -2.8272816e+02 </wgt>
<wgt id='2271'> -2.9165344e+02 </wgt>
<wgt id='2272'> -2.7665004e+02 </wgt>
<wgt id='2273'> -2.9340276e+02 </wgt>
<wgt id='2274'> -2.8844603e+02 </wgt>
<wgt id='2275'> -3.0476047e+02 </wgt>
<wgt id='2276'> -2.9947374e+02 </wgt>
<wgt id='2277'> -2.8062208e+02 </wgt>
<wgt id='2278'> -2.7421013e+02 </wgt>
<wgt id='2279'> -2.9398135e+02 </wgt>
<wgt id='2280'> -2.8227121e+02 </wgt>
<wgt id='2281'> -3.2018121e+02 </wgt>
<wgt id='2282'> -5.1558195e+02 </wgt>
<wgt id='2283'> -3.1238664e+02 </wgt>
<wgt id='2284'> -4.8745664e+02 </wgt>
</rwgt>
</event>
<event npLO=" -1 " npNLO=" 2 ">
 5      2 +2.8781417e+02 2.73410310e+01 7.54677110e-03 1.17226760e-01
        1 -1    0    0  502    0 +0.0000000000e+00 +0.0000000000e+00 +1.7523413000e+03 1.7523413000e+03 0.0000000000e+00 0.0000e+00 9.0000e+00
       21 -1    0    0  503  502 +0.0000000000e+00 +0.0000000000e+00 -3.5852636000e+01 3.5852636000e+01 0.0000000000e+00 0.0000e+00 9.0000e+00
       25  1    1    2    0    0 +5.9217944000e+01 -2.5248708000e+01 +7.3043344000e+01 1.3956931000e+02 1.0000000000e+02 0.0000e+00 9.0000e+00
        1  1    1    2  501    0 -4.8737670000e+01 +5.0501348000e+01 +1.5408843000e+03 1.5424818000e+03 0.0000000000e+00 0.0000e+00 9.0000e+00
       21  1    1    2  503  501 -1.0480274000e+01 -2.5252640000e+01 +1.0256100000e+02 1.0614278000e+02 0.0000000000e+00 0.0000e+00 9.0000e+00
#aMCatNLO 1  0  0  1  2 0.11931033E+03 0.00000000E+00 -9  6  0 0.00000000E+00 0.00000000E+00 0.00000000E+00 0.00000000E+00 0.00000000E+00
<rwgt>
<wgt id='1001'> +2.8781417e+02 </wgt>
<wgt id='1002'> +2.1427688e+02 </wgt>
<wgt id='1003'> +3.8623623e+02 </wgt>
<wgt id='1004'> +2.8114934e+02 </wgt>
<wgt id='1005'> +2.0922232e+02 </wgt>
<wgt id='1006'> +3.7756984e+02 </wgt>
<wgt id='1007'> +2.9152198e+02 </wgt>
<wgt id='1008'> +2.1713380e+02 </wgt>
<wgt id='1009'> +3.9092289e+02 </wgt>
<wgt id='1010'> +2.8781417e+02 </wgt>
<wgt id='1011'> +2.8869788e+02 </wgt>
<wgt id='1012'> +2.8696026e+02 </wgt>
<wgt id='1013'> +2.9059150e+02 </wgt>
<wgt id='1014'> +2.8695984e+02 </wgt>
<wgt id='1015'> +2.9055329e+02 </wgt>
<wgt id='1016'> +2.8670504e+02 </wgt>
<wgt id='1017'> +2.8741774e+02 </wgt>
<wgt id='1018'> +2.8854042e+02 </wgt>
<wgt id='1019'> +2.8797992e+02 </wgt>
<wgt id='1020'> +2.8936992e+02 </wgt>
<wgt id='1021'> +2.8726426e+02 </wgt>
<wgt id='1022'> +2.8847233e+02 </wgt>
<wgt id='1023'> +2.8746145e+02 </wgt>
<wgt id='1024'> +2.8622867e+02 </wgt>
<wgt id='1025'> +2.8737546e+02 </wgt>
<wgt id='1026'> +2.8686354e+02 </wgt>
<wgt id='1027'> +2.8648500e+02 </wgt>
<wgt id='1028'> +2.8864358e+02 </wgt>
<wgt id='1029'> +2.8811112e+02 </wgt>
<wgt id='1030'> +2.8818969e+02 </wgt>
<wgt id='1031'> +2.8833503e+02 </wgt>
<wgt id='1032'> +2.8820370e+02 </wgt>
<wgt id='1033'> +2.8620492e+02 </wgt>
<wgt id='1034'> +2.8923352e+02 </wgt>
<wgt id='1035'> +2.8621777e+02 </wgt>
<wgt id='1036'> +2.8874134e+02 </wgt>
<wgt id='1037'> +2.8786480e+02 </wgt>
<wgt id='1038'> +2.9040394e+02 </wgt>
<wgt id='1039'> +2.8936704e+02 </wgt>
<wgt id='1040'> +2.8630239e+02 </wgt>
<wgt id='1041'> +2.8969667e+02 </wgt>
<wgt id='1042'> +2.8859190e+02 </wgt>
<wgt id='1043'> +2.8761209e+02 </wgt>
<wgt id='1044'> +2.8857252e+02 </wgt>
<wgt id='1045'> +2.8865155e+02 </wgt>
<wgt id='1046'> +2.8461442e+02 </wgt>
<wgt id='1047'> +2.8849379e+02 </wgt>
<wgt id='1048'> +2.8638852e+02 </wgt>
<wgt id='1049'> +2.8809213e+02 </wgt>
<wgt id='1050'> +2.8829868e+02 </wgt>
<wgt id='1051'> +2.8822450e+02 </wgt>
<wgt id='1052'> +2.8602843e+02 </wgt>
<wgt id='1053'> +2.8742868e+02 </wgt>
<wgt id='1054'> +2.8690031e+02 </wgt>
<wgt id='1055'> +2.8724857e+02 </wgt>
<wgt id='1056'> +2.8813993e+02 </wgt>
<wgt id='1057'> +2.8841337e+02 </wgt>
<wgt id='1058'> +2.8801657e+02 </wgt>
<wgt id='1059'> +2.8945969e+02 </wgt>
<wgt id='1060'> +2.8746874e+02 </wgt>
<wgt id='1061'> +2.8716976e+02 </wgt>
<wgt id='1062'> +2.8752671e+02 </wgt>
<wgt id='1063'> +2.8833058e+02 </wgt>
<wgt id='1064'> +2.8775427e+02 </wgt>
<wgt id='1065'> +2.8715675e+02 </wgt>
<wgt id='1066'> +2.8693836e+02 </wgt>
<wgt id='1067'> +2.8710196e+02 </wgt>
<wgt id='1068'> +2.8856841e+02 </wgt>
<wgt id='1069'> +2.8817005e+02 </wgt>
<wgt id='1070'> +2.8717823e+02 </wgt>
<wgt id='1071'> +2.8840345e+02 </wgt>
<wgt id='1072'> +2.8817944e+02 </wgt>
<wgt id='1073'> +2.8730613e+02 </wgt>
<wgt id='1074'> +2.8772157e+02 </wgt>
<wgt id='1075'> +2.8769576e+02 </wgt>
<wgt id='1076'> +2.8807450e+02 </wgt>
<wgt id='1077'> +2.8781018e+02 </wgt>
<wgt id='1078'> +2.8809404e+02 </wgt>
<wgt id='1079'> +2.8749083e+02 </wgt>
<wgt id='1080'> +2.8720413e+02 </wgt>
<wgt id='1081'> +2.8796565e+02 </wgt>
<wgt id='1082'> +2.8803540e+02 </wgt>
<wgt id='1083'> +2.8880713e+02 </wgt>
<wgt id='1084'> +2.8895424e+02 </wgt>
<wgt id='1085'> +2.8714453e+02 </wgt>
<wgt id='1086'> +2.8821361e+02 </wgt>
<wgt id='1087'> +2.8793819e+02 </wgt>
<wgt id='1088'> +2.8819745e+02 </wgt>
<wgt id='1089'> +2.8815800e+02 </wgt>
<wgt id='1090'> +2.8766223e+02 </wgt>
<wgt id='1091'> +2.8786516e+02 </wgt>
<wgt id='1092'> +2.8779960e+02 </wgt>
<wgt id='1093'> +2.8784200e+02 </wgt>
<wgt id='1094'> +2.8751844e+02 </wgt>
<wgt id='1095'> +2.8769626e+02 </wgt>
<wgt id='1096'> +2.8813249e+02 </wgt>
<wgt id='1097'> +2.8779346e+02 </wgt>
<wgt id='1098'> +2.8817727e+02 </wgt>
<wgt id='1099'> +2.8719724e+02 </wgt>
<wgt id='1100'> +2.8786787e+02 </wgt>
<wgt id='1101'> +2.8742006e+02 </wgt>
<wgt id='1102'> +2.8755934e+02 </wgt>
<wgt id='1103'> +2.8786921e+02 </wgt>
<wgt id='1104'> +2.8799784e+02 </wgt>
<wgt id='1105'> +2.8746129e+02 </wgt>
<wgt id='1106'> +2.8799599e+02 </wgt>
<wgt id='1107'> +2.8815829e+02 </wgt>
<wgt id='1108'> +2.8796894e+02 </wgt>
<wgt id='1109'> +2.8791467e+02 </wgt>
<wgt id='1110'> +2.8781416e+02 </wgt>
<wgt id='1111'> +2.6793125e+02 </wgt>
<wgt id='1112'> +3.0738342e+02 </wgt>
<wgt id='1113'> +2.8781416e+02 </wgt>
<wgt id='1114'> +2.8824382e+02 </wgt>
<wgt id='1115'> +2.8969673e+02 </wgt>
<wgt id='1116'> +2.8251914e+02 </wgt>
<wgt id='1117'> +2.9240372e+02 </wgt>
<wgt id='1118'> +2.9568135e+02 </wgt>
<wgt id='1119'> +2.8704201e+02 </wgt>
<wgt id='1120'> +2.8902359e+02 </wgt>
<wgt id='1121'> +2.8882603e+02 </wgt>
<wgt id='1122'> +2.9603996e+02 </wgt>
<wgt id='1123'> +2.7367530e+02 </wgt>
<wgt id='1124'> +2.7647241e+02 </wgt>
<wgt id='1125'> +2.9755076e+02 </wgt>
<wgt id='1126'> +2.7638722e+02 </wgt>
<wgt id='1127'> +2.9124978e+02 </wgt>
<wgt id='1128'> +2.9189743e+02 </wgt>
<wgt id='1129'> +2.9628235e+02 </wgt>
<wgt id='1130'> +2.8560233e+02 </wgt>
<wgt id='1131'> +2.9428637e+02 </wgt>
<wgt id='1132'> +2.9656549e+02 </wgt>
<wgt id='1133'> +2.9332049e+02 </wgt>
<wgt id='1134'> +2.9217111e+02 </wgt>
<wgt id='1135'> +2.9254860e+02 </wgt>
<wgt id='1136'> +3.0283544e+02 </wgt>
<wgt id='1137'> +2.9247715e+02 </wgt>
<wgt id='1138'> +3.0512238e+02 </wgt>
<wgt id='1139'> +3.0280311e+02 </wgt>
<wgt id='1140'> +2.8120566e+02 </wgt>
<wgt id='1141'> +2.8693323e+02 </wgt>
<wgt id='1142'> +2.8690882e+02 </wgt>
<wgt id='1143'> +2.6596419e+02 </wgt>
<wgt id='1144'> +2.7311886e+02 </wgt>
<wgt id='1145'> +2.8330730e+02 </wgt>
<wgt id='1146'> +2.9458966e+02 </wgt>
<wgt id='1147'> +2.7781667e+02 </wgt>
<wgt id='1148'> +2.8394504e+02 </wgt>
<wgt id='1149'> +2.8965139e+02 </wgt>
<wgt id='1150'> +2.9830154e+02 </wgt>
<wgt id='1151'> +2.7791820e+02 </wgt>
<wgt id='1152'> +2.6322577e+02 </wgt>
<wgt id='1153'> +2.7842377e+02 </wgt>
<wgt id='1154'> +2.8790304e+02 </wgt>
<wgt id='1155'> +2.8614705e+02 </wgt>
<wgt id='1156'> +2.8637326e+02 </wgt>
<wgt id='1157'> +2.7531375e+02 </wgt>
<wgt id='1158'> +2.8738023e+02 </wgt>
<wgt id='1159'> +2.8653859e+02 </wgt>
<wgt id='1160'> +2.8881313e+02 </wgt>
<wgt id='1161'> +2.8662639e+02 </wgt>
<wgt id='1162'> +2.8505500e+02 </wgt>
<wgt id='1163'> +2.8894247e+02 </wgt>
<wgt id='1164'> +2.8339892e+02 </wgt>
<wgt id='1165'> +3.0416674e+02 </wgt>
<wgt id='1166'> +2.8222300e+02 </wgt>
<wgt id='1167'> +2.9576385e+02 </wgt>
<wgt id='1168'> +2.7908374e+02 </wgt>
<wgt id='1169'> +2.8876067e+02 </wgt>
<wgt id='1170'> +2.9783462e+02 </wgt>
<wgt id='1171'> +2.8770603e+02 </wgt>
<wgt id='1172'> +2.9505102e+02 </wgt>
<wgt id='1173'> +3.0546604e+02 </wgt>
<wgt id='1174'> +2.8414663e+02 </wgt>
<wgt id='1175'> +2.9969051e+02 </wgt>
<wgt id='1176'> +2.8838502e+02 </wgt>
<wgt id='1177'> +2.8155729e+02 </wgt>
<wgt id='1178'> +3.0153664e+02 </wgt>
<wgt id='1179'> +2.8879106e+02 </wgt>
<wgt id='1180'> +2.9037972e+02 </wgt>
<wgt id='1181'> +2.9363842e+02 </wgt>
<wgt id='1182'> +2.8772520e+02 </wgt>
<wgt id='1183'> +2.7498275e+02 </wgt>
<wgt id='1184'> +2.8917770e+02 </wgt>
<wgt id='1185'> +2.8227250e+02 </wgt>
<wgt id='1186'> +3.0060700e+02 </wgt>
<wgt id='1187'> +2.9310834e+02 </wgt>
<wgt id='1188'> +2.8388063e+02 </wgt>
<wgt id='1189'> +2.8396004e+02 </wgt>
<wgt id='1190'> +2.7776602e+02 </wgt>
<wgt id='1191'> +2.9498565e+02 </wgt>
<wgt id='1192'> +2.9904798e+02 </wgt>
<wgt id='1193'> +2.5627127e+02 </wgt>
<wgt id='1194'> +2.8383715e+02 </wgt>
<wgt id='1195'> +2.9628235e+02 </wgt>
<wgt id='1196'> +2.6783138e+02 </wgt>
<wgt id='1197'> +2.9040805e+02 </wgt>
<wgt id='1198'> +2.8790117e+02 </wgt>
<wgt id='1199'> +2.7959651e+02 </wgt>
<wgt id='1200'> +2.9269924e+02 </wgt>
<wgt id='1201'> +2.6959582e+02 </wgt>
<wgt id='1202'> +2.7982935e+02 </wgt>
<wgt id='1203'> +2.8026558e+02 </wgt>
<wgt id='1204'> +2.8453904e+02 </wgt>
<wgt id='1205'> +2.8844896e+02 </wgt>
<wgt id='1206'> +2.9070197e+02 </wgt>
<wgt id='1207'> +2.9774572e+02 </wgt>
<wgt id='1208'> +2.8825727e+02 </wgt>
<wgt id='1209'> +2.8653829e+02 </wgt>
<wgt id='1210'> +2.8975149e+02 </wgt>
<wgt id='1211'> +2.8520463e+02 </wgt>
<wgt id='1212'> +3.0556636e+02 </wgt>
<wgt id='1213'> +2.9411780e+02 </wgt>
<wgt id='1214'> +2.8802095e+02 </wgt>
<wgt id='1215'> +2.8720710e+02 </wgt>
<wgt id='1216'> +2.8981808e+02 </wgt>
<wgt id='1217'> +2.8944693e+02 </wgt>
<wgt id='1218'> +2.8702038e+02 </wgt>
<wgt id='1219'> +2.8746471e+02 </wgt>
<wgt id='1220'> +2.8881331e+02 </wgt>
<wgt id='1221'> +2.8731436e+02 </wgt>
<wgt id='1222'> +2.8868338e+02 </wgt>
<wgt id='1223'> +2.8684934e+02 </wgt>
<wgt id='1224'> +2.8852068e+02 </wgt>
<wgt id='1225'> +2.8860219e+02 </wgt>
<wgt id='1226'> +2.8828140e+02 </wgt>
<wgt id='1227'> +2.8944241e+02 </wgt>
<wgt id='1228'> +2.8838686e+02 </wgt>
<wgt id='1229'> +2.8836778e+02 </wgt>
<wgt id='1230'> +2.8793499e+02 </wgt>
<wgt id='1231'> +2.8837364e+02 </wgt>
<wgt id='1232'> +2.8829832e+02 </wgt>
<wgt id='1233'> +2.8695736e+02 </wgt>
<wgt id='1234'> +2.8735658e+02 </wgt>
<wgt id='1235'> +2.8754734e+02 </wgt>
<wgt id='1236'> +2.8840407e+02 </wgt>
<wgt id='1237'> +2.8676975e+02 </wgt>
<wgt id='1238'> +2.8978016e+02 </wgt>
<wgt id='1239'> +2.8766931e+02 </wgt>
<wgt id='1240'> +2.8804072e+02 </wgt>
<wgt id='1241'> +2.9012417e+02 </wgt>
<wgt id='1242'> +2.8886484e+02 </wgt>
<wgt id='1243'> +2.8431331e+02 </wgt>
<wgt id='1244'> +2.8682678e+02 </wgt>
<wgt id='1245'> +2.8742987e+02 </wgt>
<wgt id='1246'> +2.8615890e+02 </wgt>
<wgt id='1247'> +2.8871506e+02 </wgt>
<wgt id='1248'> +2.8786559e+02 </wgt>
<wgt id='1249'> +2.8836255e+02 </wgt>
<wgt id='1250'> +2.8819174e+02 </wgt>
<wgt id='1251'> +2.8872412e+02 </wgt>
<wgt id='1252'> +2.8656153e+02 </wgt>
<wgt id='1253'> +2.8755993e+02 </wgt>
<wgt id='1254'> +2.8806697e+02 </wgt>
<wgt id='1255'> +2.8716645e+02 </wgt>
<wgt id='1256'> +2.8795884e+02 </wgt>
<wgt id='1257'> +2.8839818e+02 </wgt>
<wgt id='1258'> +2.8794821e+02 </wgt>
<wgt id='1259'> +2.8856717e+02 </wgt>
<wgt id='1260'> +2.8766476e+02 </wgt>
<wgt id='1261'> +2.8713781e+02 </wgt>
<wgt id='1262'> +2.8857507e+02 </wgt>
<wgt id='1263'> +2.8745402e+02 </wgt>
<wgt id='1264'> +2.8958808e+02 </wgt>
<wgt id='1265'> +2.8947371e+02 </wgt>
<wgt id='1266'> +2.8758884e+02 </wgt>
<wgt id='1267'> +2.8898824e+02 </wgt>
<wgt id='1268'> +2.8862562e+02 </wgt>
<wgt id='1269'> +2.9003989e+02 </wgt>
<wgt id='1270'> +2.8911914e+02 </wgt>
<wgt id='1271'> +2.8756770e+02 </wgt>
<wgt id='1272'> +2.8729807e+02 </wgt>
<wgt id='1273'> +2.8794193e+02 </wgt>
<wgt id='1274'> +2.8714090e+02 </wgt>
<wgt id='1275'> +2.8712948e+02 </wgt>
<wgt id='1276'> +2.8826087e+02 </wgt>
<wgt id='1277'> +2.8753083e+02 </wgt>
<wgt id='1278'> +2.8894066e+02 </wgt>
<wgt id='1279'> +2.8844788e+02 </wgt>
<wgt id='1280'> +2.8697200e+02 </wgt>
<wgt id='1281'> +2.8718690e+02 </wgt>
<wgt id='1282'> +2.8653679e+02 </wgt>
<wgt id='1283'> +2.8895448e+02 </wgt>
<wgt id='1284'> +2.8730454e+02 </wgt>
<wgt id='1285'> +2.8858197e+02 </wgt>
<wgt id='1286'> +2.8783501e+02 </wgt>
<wgt id='1287'> +2.8847591e+02 </wgt>
<wgt id='1288'> +2.8776363e+02 </wgt>
<wgt id='1289'> +2.8809906e+02 </wgt>
<wgt id='1290'> +2.8743430e+02 </wgt>
<wgt id='1291'> +2.8773451e+02 </wgt>
<wgt id='1292'> +2.8762841e+02 </wgt>
<wgt id='1293'> +2.8668002e+02 </wgt>
<wgt id='1294'> +2.8838924e+02 </wgt>
<wgt id='1295'> +2.8831339e+02 </wgt>
<wgt id='1296'> +2.8856685e+02 </wgt>
<wgt id='1297'> +2.8718233e+02 </wgt>
<wgt id='1298'> +2.8812682e+02 </wgt>
<wgt id='1299'> +2.8753387e+02 </wgt>
<wgt id='1300'> +2.8744777e+02 </wgt>
<wgt id='1301'> +2.8830607e+02 </wgt>
<wgt id='1302'> +2.8794223e+02 </wgt>
<wgt id='1303'> +2.8827109e+02 </wgt>
<wgt id='1304'> +2.8818842e+02 </wgt>
<wgt id='1305'> +2.8790329e+02 </wgt>
<wgt id='1306'> +2.8758267e+02 </wgt>
<wgt id='1307'> +2.8747005e+02 </wgt>
<wgt id='1308'> +2.8791449e+02 </wgt>
<wgt id='1309'> +2.8796418e+02 </wgt>
<wgt id='1310'> +2.8799597e+02 </wgt>
<wgt id='1311'> +2.8823330e+02 </wgt>
<wgt id='1312'> +2.8772849e+02 </wgt>
<wgt id='1313'> +2.8788338e+02 </wgt>
<wgt id='1314'> +2.8785560e+02 </wgt>
<wgt id='1315'> +2.6793125e+02 </wgt>
<wgt id='1316'> +3.0738342e+02 </wgt>
<wgt id='1317'> +1.9955951e+02 </wgt>
<wgt id='1318'> +2.1406552e+02 </wgt>
<wgt id='1319'> +2.3176844e+02 </wgt>
<wgt id='1320'> +2.5005754e+02 </wgt>
<wgt id='1321'> +2.7784158e+02 </wgt>
<wgt id='1322'> +2.9808327e+02 </wgt>
<wgt id='1323'> +3.2897305e+02 </wgt>
<wgt id='1324'> +3.4918126e+02 </wgt>
<wgt id='1325'> +2.8014575e+02 </wgt>
<wgt id='1326'> +2.8169295e+02 </wgt>
<wgt id='1327'> +2.7796424e+02 </wgt>
<wgt id='1328'> +2.8171582e+02 </wgt>
<wgt id='1329'> +2.7879473e+02 </wgt>
<wgt id='1330'> +2.8108436e+02 </wgt>
<wgt id='1331'> +2.8153769e+02 </wgt>
<wgt id='1332'> +2.8089523e+02 </wgt>
<wgt id='1333'> +2.8010135e+02 </wgt>
<wgt id='1334'> +2.7980347e+02 </wgt>
<wgt id='1335'> +2.8092377e+02 </wgt>
<wgt id='1336'> +2.8045411e+02 </wgt>
<wgt id='1337'> +2.8007476e+02 </wgt>
<wgt id='1338'> +2.7923854e+02 </wgt>
<wgt id='1339'> +2.8035669e+02 </wgt>
<wgt id='1340'> +2.8050835e+02 </wgt>
<wgt id='1341'> +2.8127640e+02 </wgt>
<wgt id='1342'> +2.7972107e+02 </wgt>
<wgt id='1343'> +2.7927820e+02 </wgt>
<wgt id='1344'> +2.7921639e+02 </wgt>
<wgt id='1345'> +2.7983112e+02 </wgt>
<wgt id='1346'> +2.8058611e+02 </wgt>
<wgt id='1347'> +2.8018289e+02 </wgt>
<wgt id='1348'> +2.8006355e+02 </wgt>
<wgt id='1349'> +2.8105807e+02 </wgt>
<wgt id='1350'> +2.7992052e+02 </wgt>
<wgt id='1351'> +2.8001009e+02 </wgt>
<wgt id='1352'> +2.7941742e+02 </wgt>
<wgt id='1353'> +2.8111428e+02 </wgt>
<wgt id='1354'> +2.8108698e+02 </wgt>
<wgt id='1355'> +2.7622242e+02 </wgt>
<wgt id='1356'> +2.7915679e+02 </wgt>
<wgt id='1357'> +2.8086869e+02 </wgt>
<wgt id='1358'> +2.8081243e+02 </wgt>
<wgt id='1359'> +2.7944208e+02 </wgt>
<wgt id='1360'> +2.8096920e+02 </wgt>
<wgt id='1361'> +2.7958888e+02 </wgt>
<wgt id='1362'> +2.8039025e+02 </wgt>
<wgt id='1363'> +2.7901657e+02 </wgt>
<wgt id='1364'> +2.8002052e+02 </wgt>
<wgt id='1365'> +2.7888757e+02 </wgt>
<wgt id='1366'> +2.8087167e+02 </wgt>
<wgt id='1367'> +2.8003195e+02 </wgt>
<wgt id='1368'> +2.8000966e+02 </wgt>
<wgt id='1369'> +2.8068609e+02 </wgt>
<wgt id='1370'> +2.8108225e+02 </wgt>
<wgt id='1371'> +2.8000296e+02 </wgt>
<wgt id='1372'> +2.7984340e+02 </wgt>
<wgt id='1373'> +2.8130216e+02 </wgt>
<wgt id='1374'> +2.7981534e+02 </wgt>
<wgt id='1375'> +2.7994297e+02 </wgt>
<wgt id='1376'> +2.8129786e+02 </wgt>
<wgt id='1377'> +2.7987835e+02 </wgt>
<wgt id='1378'> +2.8243870e+02 </wgt>
<wgt id='1379'> +2.8132484e+02 </wgt>
<wgt id='1380'> +2.8027981e+02 </wgt>
<wgt id='1381'> +2.8194907e+02 </wgt>
<wgt id='1382'> +2.7954739e+02 </wgt>
<wgt id='1383'> +2.7983736e+02 </wgt>
<wgt id='1384'> +2.7880836e+02 </wgt>
<wgt id='1385'> +2.8013337e+02 </wgt>
<wgt id='1386'> +2.8019765e+02 </wgt>
<wgt id='1387'> +2.8174625e+02 </wgt>
<wgt id='1388'> +2.7942020e+02 </wgt>
<wgt id='1389'> +2.7979562e+02 </wgt>
<wgt id='1390'> +2.8052864e+02 </wgt>
<wgt id='1391'> +2.8130969e+02 </wgt>
<wgt id='1392'> +2.8086075e+02 </wgt>
<wgt id='1393'> +2.8054861e+02 </wgt>
<wgt id='1394'> +2.8016016e+02 </wgt>
<wgt id='1395'> +2.8111154e+02 </wgt>
<wgt id='1396'> +2.8057018e+02 </wgt>
<wgt id='1397'> +2.8009185e+02 </wgt>
<wgt id='1398'> +2.8069309e+02 </wgt>
<wgt id='1399'> +2.8010729e+02 </wgt>
<wgt id='1400'> +2.7907622e+02 </wgt>
<wgt id='1401'> +2.8032372e+02 </wgt>
<wgt id='1402'> +2.8044644e+02 </wgt>
<wgt id='1403'> +2.8061498e+02 </wgt>
<wgt id='1404'> +2.8052715e+02 </wgt>
<wgt id='1405'> +2.8035755e+02 </wgt>
<wgt id='1406'> +2.8000004e+02 </wgt>
<wgt id='1407'> +2.7918200e+02 </wgt>
<wgt id='1408'> +2.7936776e+02 </wgt>
<wgt id='1409'> +2.8015702e+02 </wgt>
<wgt id='1410'> +2.7908665e+02 </wgt>
<wgt id='1411'> +2.8049828e+02 </wgt>
<wgt id='1412'> +2.7988957e+02 </wgt>
<wgt id='1413'> +2.7971296e+02 </wgt>
<wgt id='1414'> +2.7992244e+02 </wgt>
<wgt id='1415'> +2.8003257e+02 </wgt>
<wgt id='1416'> +2.8089817e+02 </wgt>
<wgt id='1417'> +2.7938069e+02 </wgt>
<wgt id='1418'> +2.8004630e+02 </wgt>
<wgt id='1419'> +2.8008052e+02 </wgt>
<wgt id='1420'> +2.7991413e+02 </wgt>
<wgt id='1421'> +2.7971534e+02 </wgt>
<wgt id='1422'> +2.7965200e+02 </wgt>
<wgt id='1423'> +2.8055513e+02 </wgt>
<wgt id='1424'> +2.8048101e+02 </wgt>
<wgt id='1425'> +2.8048139e+02 </wgt>
<wgt id='1426'> +2.6164770e+02 </wgt>
<wgt id='1427'> +3.0220657e+02 </wgt>
<wgt id='1428'> +2.7222624e+02 </wgt>
<wgt id='1429'> +2.7398555e+02 </wgt>
<wgt id='1430'> +2.7576492e+02 </wgt>
<wgt id='1431'> +2.7226558e+02 </wgt>
<wgt id='1432'> +2.7354341e+02 </wgt>
<wgt id='1433'> +2.6688131e+02 </wgt>
<wgt id='1434'> +2.7663216e+02 </wgt>
<wgt id='1435'> +2.7136580e+02 </wgt>
<wgt id='1436'> +2.7627286e+02 </wgt>
<wgt id='1437'> +2.6774439e+02 </wgt>
<wgt id='1438'> +2.7489225e+02 </wgt>
<wgt id='1439'> +2.7318067e+02 </wgt>
<wgt id='1440'> +2.7031101e+02 </wgt>
<wgt id='1441'> +2.6970858e+02 </wgt>
<wgt id='1442'> +2.7074329e+02 </wgt>
<wgt id='1443'> +2.7379259e+02 </wgt>
<wgt id='1444'> +2.6862766e+02 </wgt>
<wgt id='1445'> +2.7453190e+02 </wgt>
<wgt id='1446'> +2.6979273e+02 </wgt>
<wgt id='1447'> +2.7148191e+02 </wgt>
<wgt id='1448'> +2.7314833e+02 </wgt>
<wgt id='1449'> +2.7516910e+02 </wgt>
<wgt id='1450'> +2.7051803e+02 </wgt>
<wgt id='1451'> +2.7412399e+02 </wgt>
<wgt id='1452'> +2.7005240e+02 </wgt>
<wgt id='1453'> +2.7173013e+02 </wgt>
<wgt id='1454'> +2.7264206e+02 </wgt>
<wgt id='1455'> +2.7373023e+02 </wgt>
<wgt id='1456'> +2.6967145e+02 </wgt>
<wgt id='1457'> +2.6866519e+02 </wgt>
<wgt id='1458'> +2.7438726e+02 </wgt>
<wgt id='1459'> +2.7111818e+02 </wgt>
<wgt id='1460'> +2.7387745e+02 </wgt>
<wgt id='1461'> +2.7387906e+02 </wgt>
<wgt id='1462'> +2.7058882e+02 </wgt>
<wgt id='1463'> +2.6919183e+02 </wgt>
<wgt id='1464'> +2.7476329e+02 </wgt>
<wgt id='1465'> +2.7568559e+02 </wgt>
<wgt id='1466'> +2.6828489e+02 </wgt>
<wgt id='1467'> +2.7225459e+02 </wgt>
<wgt id='1468'> +2.7169365e+02 </wgt>
<wgt id='1469'> +2.6683689e+02 </wgt>
<wgt id='1470'> +2.7492851e+02 </wgt>
<wgt id='1471'> +2.7629408e+02 </wgt>
<wgt id='1472'> +2.6646083e+02 </wgt>
<wgt id='1473'> +2.7092555e+02 </wgt>
<wgt id='1474'> +2.7579748e+02 </wgt>
<wgt id='1475'> +2.8069486e+02 </wgt>
<wgt id='1476'> +2.6891551e+02 </wgt>
<wgt id='1477'> +2.7200536e+02 </wgt>
<wgt id='1478'> +2.7294404e+02 </wgt>
<wgt id='1479'> +2.6843818e+02 </wgt>
<wgt id='1480'> +2.6485751e+02 </wgt>
<wgt id='1481'> +2.7309481e+02 </wgt>
<wgt id='1482'> +2.7865803e+02 </wgt>
<wgt id='1483'> +2.7273212e+02 </wgt>
<wgt id='1484'> +2.7125598e+02 </wgt>
<wgt id='1485'> +2.5626381e+02 </wgt>
<wgt id='1486'> +2.8802891e+02 </wgt>
<wgt id='1487'> +2.8197323e+02 </wgt>
<wgt id='1488'> +2.7388876e+02 </wgt>
<wgt id='1489'> +2.7724721e+02 </wgt>
<wgt id='1490'> +2.8626542e+02 </wgt>
<wgt id='1491'> +2.8140212e+02 </wgt>
<wgt id='1492'> +2.8382741e+02 </wgt>
<wgt id='1493'> +2.8042810e+02 </wgt>
<wgt id='1494'> +2.8505729e+02 </wgt>
<wgt id='1495'> +2.8156463e+02 </wgt>
<wgt id='1496'> +2.8248749e+02 </wgt>
<wgt id='1497'> +2.8201411e+02 </wgt>
<wgt id='1498'> +2.7460216e+02 </wgt>
<wgt id='1499'> +2.8639774e+02 </wgt>
<wgt id='1500'> +2.7316746e+02 </wgt>
<wgt id='1501'> +2.9220343e+02 </wgt>
<wgt id='1502'> +2.8039528e+02 </wgt>
<wgt id='1503'> +2.8228369e+02 </wgt>
<wgt id='1504'> +2.8395944e+02 </wgt>
<wgt id='1505'> +2.7946227e+02 </wgt>
<wgt id='1506'> +2.8618101e+02 </wgt>
<wgt id='1507'> +2.7765230e+02 </wgt>
<wgt id='1508'> +2.8402167e+02 </wgt>
<wgt id='1509'> +2.7952956e+02 </wgt>
<wgt id='1510'> +2.7848943e+02 </wgt>
<wgt id='1511'> +2.8448358e+02 </wgt>
<wgt id='1512'> +2.7833255e+02 </wgt>
<wgt id='1513'> +2.8531274e+02 </wgt>
<wgt id='1514'> +2.8073482e+02 </wgt>
<wgt id='1515'> +2.8346044e+02 </wgt>
<wgt id='1516'> +2.8155364e+02 </wgt>
<wgt id='1517'> +2.8207994e+02 </wgt>
<wgt id='1518'> +2.8201599e+02 </wgt>
<wgt id='1519'> +2.8192299e+02 </wgt>
<wgt id='1520'> +2.8174627e+02 </wgt>
<wgt id='1521'> +2.8239336e+02 </wgt>
<wgt id='1522'> +2.8561812e+02 </wgt>
<wgt id='1523'> +2.7789281e+02 </wgt>
<wgt id='1524'> +2.8126050e+02 </wgt>
<wgt id='1525'> +2.8259474e+02 </wgt>
<wgt id='1526'> +2.8041759e+02 </wgt>
<wgt id='1527'> +2.8266464e+02 </wgt>
<wgt id='1528'> +2.7598967e+02 </wgt>
<wgt id='1529'> +2.8484464e+02 </wgt>
<wgt id='1530'> +2.8734290e+02 </wgt>
<wgt id='1531'> +2.7788246e+02 </wgt>
<wgt id='1532'> +2.8158145e+02 </wgt>
<wgt id='1533'> +2.8160971e+02 </wgt>
<wgt id='1534'> +2.8377710e+02 </wgt>
<wgt id='1535'> +2.8682313e+02 </wgt>
<wgt id='1536'> +2.8480477e+02 </wgt>
<wgt id='1537'> +2.8127769e+02 </wgt>
<wgt id='1538'> +2.8410327e+02 </wgt>
<wgt id='1539'> +2.8215118e+02 </wgt>
<wgt id='1540'> +2.7612761e+02 </wgt>
<wgt id='1541'> +2.8219763e+02 </wgt>
<wgt id='1542'> +2.8273738e+02 </wgt>
<wgt id='1543'> +2.8143595e+02 </wgt>
<wgt id='1544'> +2.6424700e+02 </wgt>
<wgt id='1545'> +2.9970145e+02 </wgt>
<wgt id='1546'> +2.8542670e+02 </wgt>
<wgt id='1547'> +3.0013891e+02 </wgt>
<wgt id='1548'> +3.0020436e+02 </wgt>
<wgt id='1549'> +3.0005506e+02 </wgt>
<wgt id='1550'> +3.0024246e+02 </wgt>
<wgt id='1551'> +3.0006324e+02 </wgt>
<wgt id='1552'> +3.0048368e+02 </wgt>
<wgt id='1553'> +2.9982358e+02 </wgt>
<wgt id='1554'> +2.9942048e+02 </wgt>
<wgt id='1555'> +3.0091674e+02 </wgt>
<wgt id='1556'> +3.0143763e+02 </wgt>
<wgt id='1557'> +2.9889029e+02 </wgt>
<wgt id='1558'> +2.9954968e+02 </wgt>
<wgt id='1559'> +3.0143555e+02 </wgt>
<wgt id='1560'> +3.0190761e+02 </wgt>
<wgt id='1561'> +2.9699925e+02 </wgt>
<wgt id='1562'> +3.0410313e+02 </wgt>
<wgt id='1563'> +2.9789084e+02 </wgt>
<wgt id='1564'> +3.0084686e+02 </wgt>
<wgt id='1565'> +2.9930071e+02 </wgt>
<wgt id='1566'> +2.9856336e+02 </wgt>
<wgt id='1567'> +3.0149612e+02 </wgt>
<wgt id='1568'> +2.9910795e+02 </wgt>
<wgt id='1569'> +3.0141765e+02 </wgt>
<wgt id='1570'> +3.0061727e+02 </wgt>
<wgt id='1571'> +2.9978622e+02 </wgt>
<wgt id='1572'> +2.9861028e+02 </wgt>
<wgt id='1573'> +3.0123036e+02 </wgt>
<wgt id='1574'> +2.9686509e+02 </wgt>
<wgt id='1575'> +2.9939835e+02 </wgt>
<wgt id='1576'> +3.0261804e+02 </wgt>
<wgt id='1577'> +2.9708278e+02 </wgt>
<wgt id='1578'> +3.0386191e+02 </wgt>
<wgt id='1579'> +2.9600950e+02 </wgt>
<wgt id='1580'> +2.9867117e+02 </wgt>
<wgt id='1581'> +3.0165243e+02 </wgt>
<wgt id='1582'> +2.9991829e+02 </wgt>
<wgt id='1583'> +3.0109231e+02 </wgt>
<wgt id='1584'> +3.0022968e+02 </wgt>
<wgt id='1585'> +3.0019007e+02 </wgt>
<wgt id='1586'> +2.9929793e+02 </wgt>
<wgt id='1587'> +3.0085454e+02 </wgt>
<wgt id='1588'> +2.9815439e+02 </wgt>
<wgt id='1589'> +3.0228424e+02 </wgt>
<wgt id='1590'> +3.0120703e+02 </wgt>
<wgt id='1591'> +3.0003685e+02 </wgt>
<wgt id='1592'> +2.9844994e+02 </wgt>
<wgt id='1593'> +3.0429380e+02 </wgt>
<wgt id='1594'> +2.9824688e+02 </wgt>
<wgt id='1595'> +3.0001245e+02 </wgt>
<wgt id='1596'> +3.0065818e+02 </wgt>
<wgt id='1597'> +2.9798538e+02 </wgt>
<wgt id='1598'> +2.9377021e+02 </wgt>
<wgt id='1599'> +2.9374188e+02 </wgt>
<wgt id='1600'> +2.9380402e+02 </wgt>
<wgt id='1601'> +2.9424450e+02 </wgt>
<wgt id='1602'> +2.9328505e+02 </wgt>
<wgt id='1603'> +2.9407659e+02 </wgt>
<wgt id='1604'> +2.9363900e+02 </wgt>
<wgt id='1605'> +2.9345830e+02 </wgt>
<wgt id='1606'> +2.9404266e+02 </wgt>
<wgt id='1607'> +2.9518912e+02 </wgt>
<wgt id='1608'> +2.9240613e+02 </wgt>
<wgt id='1609'> +2.9474786e+02 </wgt>
<wgt id='1610'> +2.9333346e+02 </wgt>
<wgt id='1611'> +2.9297999e+02 </wgt>
<wgt id='1612'> +2.9468882e+02 </wgt>
<wgt id='1613'> +2.9749465e+02 </wgt>
<wgt id='1614'> +2.8971618e+02 </wgt>
<wgt id='1615'> +2.9100802e+02 </wgt>
<wgt id='1616'> +2.9530681e+02 </wgt>
<wgt id='1617'> +2.9449706e+02 </wgt>
<wgt id='1618'> +2.9275120e+02 </wgt>
<wgt id='1619'> +2.9343515e+02 </wgt>
<wgt id='1620'> +2.9397700e+02 </wgt>
<wgt id='1621'> +2.9286824e+02 </wgt>
<wgt id='1622'> +2.9452875e+02 </wgt>
<wgt id='1623'> +2.9347214e+02 </wgt>
<wgt id='1624'> +2.9448618e+02 </wgt>
<wgt id='1625'> +2.9191930e+02 </wgt>
<wgt id='1626'> +2.9139949e+02 </wgt>
<wgt id='1627'> +2.9152649e+02 </wgt>
<wgt id='1628'> +2.9961956e+02 </wgt>
<wgt id='1629'> +2.9563233e+02 </wgt>
<wgt id='1630'> +2.8950072e+02 </wgt>
<wgt id='1631'> +2.9322176e+02 </wgt>
<wgt id='1632'> +2.9477082e+02 </wgt>
<wgt id='1633'> +2.9520683e+02 </wgt>
<wgt id='1634'> +2.9303194e+02 </wgt>
<wgt id='1635'> +2.9395246e+02 </wgt>
<wgt id='1636'> +2.9286750e+02 </wgt>
<wgt id='1637'> +2.9295547e+02 </wgt>
<wgt id='1638'> +2.9412187e+02 </wgt>
<wgt id='1639'> +2.9529588e+02 </wgt>
<wgt id='1640'> +2.9012177e+02 </wgt>
<wgt id='1641'> +2.9259702e+02 </wgt>
<wgt id='1642'> +2.9493512e+02 </wgt>
<wgt id='1643'> +2.9232547e+02 </wgt>
<wgt id='1644'> +2.9434104e+02 </wgt>
<wgt id='1645'> +2.9675694e+02 </wgt>
<wgt id='1646'> +2.9243797e+02 </wgt>
<wgt id='1647'> +2.9342959e+02 </wgt>
<wgt id='1648'> +2.9362907e+02 </wgt>
<wgt id='1649'> +5.9466287e+02 </wgt>
<wgt id='1650'> +2.7494653e+02 </wgt>
<wgt id='1651'> +2.7484049e+02 </wgt>
<wgt id='1652'> +2.7498467e+02 </wgt>
<wgt id='1653'> +2.7493816e+02 </wgt>
<wgt id='1654'> +2.7493563e+02 </wgt>
<wgt id='1655'> +2.7461076e+02 </wgt>
<wgt id='1656'> +2.7472897e+02 </wgt>
<wgt id='1657'> +2.7477566e+02 </wgt>
<wgt id='1658'> +2.7550686e+02 </wgt>
<wgt id='1659'> +2.7345996e+02 </wgt>
<wgt id='1660'> +2.7569579e+02 </wgt>
<wgt id='1661'> +2.7545823e+02 </wgt>
<wgt id='1662'> +2.7632890e+02 </wgt>
<wgt id='1663'> +2.7468506e+02 </wgt>
<wgt id='1664'> +2.7473694e+02 </wgt>
<wgt id='1665'> +2.7565849e+02 </wgt>
<wgt id='1666'> +2.7435691e+02 </wgt>
<wgt id='1667'> +2.7417311e+02 </wgt>
<wgt id='1668'> +2.7434942e+02 </wgt>
<wgt id='1669'> +2.7540269e+02 </wgt>
<wgt id='1670'> +2.7495488e+02 </wgt>
<wgt id='1671'> +2.7491497e+02 </wgt>
<wgt id='1672'> +2.7410319e+02 </wgt>
<wgt id='1673'> +2.7636021e+02 </wgt>
<wgt id='1674'> +2.7625069e+02 </wgt>
<wgt id='1675'> +2.7571158e+02 </wgt>
<wgt id='1676'> +2.7610080e+02 </wgt>
<wgt id='1677'> +2.7567854e+02 </wgt>
<wgt id='1678'> +2.7078349e+02 </wgt>
<wgt id='1679'> +2.7220108e+02 </wgt>
<wgt id='1680'> +2.8665173e+02 </wgt>
<wgt id='1681'> +2.8800426e+02 </wgt>
<wgt id='1682'> +2.8833141e+02 </wgt>
<wgt id='1683'> +2.8788648e+02 </wgt>
<wgt id='1684'> +2.8712491e+02 </wgt>
<wgt id='1685'> +2.8426915e+02 </wgt>
<wgt id='1686'> +2.8588632e+02 </wgt>
<wgt id='1687'> +2.8775531e+02 </wgt>
<wgt id='1688'> +2.9310718e+02 </wgt>
<wgt id='1689'> +2.8589028e+02 </wgt>
<wgt id='1690'> +2.8952100e+02 </wgt>
<wgt id='1691'> +2.8807085e+02 </wgt>
<wgt id='1692'> +2.8577769e+02 </wgt>
<wgt id='1693'> +2.8284750e+02 </wgt>
<wgt id='1694'> +2.8867157e+02 </wgt>
<wgt id='1695'> +2.8599938e+02 </wgt>
<wgt id='1696'> +2.8784476e+02 </wgt>
<wgt id='1697'> +2.8726761e+02 </wgt>
<wgt id='1698'> +2.8666552e+02 </wgt>
<wgt id='1699'> +2.8693238e+02 </wgt>
<wgt id='1700'> +2.9044834e+02 </wgt>
<wgt id='1701'> +2.8497902e+02 </wgt>
<wgt id='1702'> +2.8505993e+02 </wgt>
<wgt id='1703'> +2.9106552e+02 </wgt>
<wgt id='1704'> +2.8420227e+02 </wgt>
<wgt id='1705'> +2.8232749e+02 </wgt>
<wgt id='1706'> +2.8474176e+02 </wgt>
<wgt id='1707'> +2.8880293e+02 </wgt>
<wgt id='1708'> +2.8504586e+02 </wgt>
<wgt id='1709'> +2.8489848e+02 </wgt>
<wgt id='1710'> +2.8699604e+02 </wgt>
<wgt id='1711'> +2.8537795e+02 </wgt>
<wgt id='1712'> +2.8780161e+02 </wgt>
<wgt id='1713'> +2.8611968e+02 </wgt>
<wgt id='1714'> +2.8457196e+02 </wgt>
<wgt id='1715'> +2.8932149e+02 </wgt>
<wgt id='1716'> +2.8625162e+02 </wgt>
<wgt id='1717'> +2.8564704e+02 </wgt>
<wgt id='1718'> +2.8532964e+02 </wgt>
<wgt id='1719'> +2.8593708e+02 </wgt>
<wgt id='1720'> +2.8551324e+02 </wgt>
<wgt id='1721'> +2.8800616e+02 </wgt>
<wgt id='1722'> +2.8504183e+02 </wgt>
<wgt id='1723'> +2.8613689e+02 </wgt>
<wgt id='1724'> +2.8855181e+02 </wgt>
<wgt id='1725'> +2.8490686e+02 </wgt>
<wgt id='1726'> +2.8812974e+02 </wgt>
<wgt id='1727'> +2.8606559e+02 </wgt>
<wgt id='1728'> +2.8725987e+02 </wgt>
<wgt id='1729'> +2.8669065e+02 </wgt>
<wgt id='1730'> +2.8574860e+02 </wgt>
<wgt id='1731'> +2.8736913e+02 </wgt>
<wgt id='1732'> +2.8662189e+02 </wgt>
<wgt id='1733'> +2.8539763e+02 </wgt>
<wgt id='1734'> +2.8733103e+02 </wgt>
<wgt id='1735'> +2.8633237e+02 </wgt>
<wgt id='1736'> +2.8637231e+02 </wgt>
<wgt id='1737'> +2.8632517e+02 </wgt>
<wgt id='1738'> +2.8697668e+02 </wgt>
<wgt id='1739'> +2.8656963e+02 </wgt>
<wgt id='1740'> +2.8609264e+02 </wgt>
<wgt id='1741'> +2.8671680e+02 </wgt>
<wgt id='1742'> +2.8674921e+02 </wgt>
<wgt id='1743'> +2.8638749e+02 </wgt>
<wgt id='1744'> +2.8657768e+02 </wgt>
<wgt id='1745'> +2.8719225e+02 </wgt>
<wgt id='1746'> +2.8658400e+02 </wgt>
<wgt id='1747'> +2.8705953e+02 </wgt>
<wgt id='1748'> +2.8630127e+02 </wgt>
<wgt id='1749'> +2.8658547e+02 </wgt>
<wgt id='1750'> +2.8670102e+02 </wgt>
<wgt id='1751'> +2.8636347e+02 </wgt>
<wgt id='1752'> +2.8636081e+02 </wgt>
<wgt id='1753'> +2.8615551e+02 </wgt>
<wgt id='1754'> +2.8616624e+02 </wgt>
<wgt id='1755'> +2.8698261e+02 </wgt>
<wgt id='1756'> +2.8656695e+02 </wgt>
<wgt id='1757'> +2.8633737e+02 </wgt>
<wgt id='1758'> +2.8676989e+02 </wgt>
<wgt id='1759'> +2.8663396e+02 </wgt>
<wgt id='1760'> +2.8670732e+02 </wgt>
<wgt id='1761'> +2.8658395e+02 </wgt>
<wgt id='1762'> +2.8646340e+02 </wgt>
<wgt id='1763'> +2.8692415e+02 </wgt>
<wgt id='1764'> +2.8674190e+02 </wgt>
<wgt id='1765'> +2.8664769e+02 </wgt>
<wgt id='1766'> +2.8666561e+02 </wgt>
<wgt id='1767'> +2.8655405e+02 </wgt>
<wgt id='1768'> +2.8674447e+02 </wgt>
<wgt id='1769'> +2.8658884e+02 </wgt>
<wgt id='1770'> +2.8665767e+02 </wgt>
<wgt id='1771'> +2.8639533e+02 </wgt>
<wgt id='1772'> +2.8648707e+02 </wgt>
<wgt id='1773'> +2.8651708e+02 </wgt>
<wgt id='1774'> +2.8668035e+02 </wgt>
<wgt id='1775'> +2.8655041e+02 </wgt>
<wgt id='1776'> +2.8647105e+02 </wgt>
<wgt id='1777'> +2.8676271e+02 </wgt>
<wgt id='1778'> +2.8665088e+02 </wgt>
<wgt id='1779'> +2.8659248e+02 </wgt>
<wgt id='1780'> +2.8658389e+02 </wgt>
<wgt id='1781'> +2.7238777e+02 </wgt>
<wgt id='1782'> +2.9979800e+02 </wgt>
<wgt id='1783'> +2.8042772e+02 </wgt>
<wgt id='1784'> +2.8367609e+02 </wgt>
<wgt id='1785'> +2.8159443e+02 </wgt>
<wgt id='1786'> +2.7821196e+02 </wgt>
<wgt id='1787'> +2.8080688e+02 </wgt>
<wgt id='1788'> +2.8085121e+02 </wgt>
<wgt id='1789'> +2.7871257e+02 </wgt>
<wgt id='1790'> +2.8007443e+02 </wgt>
<wgt id='1791'> +2.8096877e+02 </wgt>
<wgt id='1792'> +2.7889746e+02 </wgt>
<wgt id='1793'> +2.8081755e+02 </wgt>
<wgt id='1794'> +2.7946304e+02 </wgt>
<wgt id='1795'> +2.7730676e+02 </wgt>
<wgt id='1796'> +2.7750868e+02 </wgt>
<wgt id='1797'> +2.7938775e+02 </wgt>
<wgt id='1798'> +2.8520788e+02 </wgt>
<wgt id='1799'> +2.7714397e+02 </wgt>
<wgt id='1800'> +2.8196775e+02 </wgt>
<wgt id='1801'> +2.8087090e+02 </wgt>
<wgt id='1802'> +2.7770584e+02 </wgt>
<wgt id='1803'> +2.7973407e+02 </wgt>
<wgt id='1804'> +2.8292323e+02 </wgt>
<wgt id='1805'> +2.7824272e+02 </wgt>
<wgt id='1806'> +2.8120060e+02 </wgt>
<wgt id='1807'> +2.8393739e+02 </wgt>
<wgt id='1808'> +2.8195197e+02 </wgt>
<wgt id='1809'> +2.8147152e+02 </wgt>
<wgt id='1810'> +2.7881967e+02 </wgt>
<wgt id='1811'> +2.7871350e+02 </wgt>
<wgt id='1812'> +2.7994207e+02 </wgt>
<wgt id='1813'> +2.8156458e+02 </wgt>
<wgt id='1814'> +2.7677812e+02 </wgt>
<wgt id='1815'> +2.8283430e+02 </wgt>
<wgt id='1816'> +2.8012207e+02 </wgt>
<wgt id='1817'> +2.7881638e+02 </wgt>
<wgt id='1818'> +2.8171918e+02 </wgt>
<wgt id='1819'> +2.8018313e+02 </wgt>
<wgt id='1820'> +2.8159736e+02 </wgt>
<wgt id='1821'> +2.8164328e+02 </wgt>
<wgt id='1822'> +2.8327937e+02 </wgt>
<wgt id='1823'> +2.8245755e+02 </wgt>
<wgt id='1824'> +2.7955931e+02 </wgt>
<wgt id='1825'> +2.8095207e+02 </wgt>
<wgt id='1826'> +2.8014143e+02 </wgt>
<wgt id='1827'> +2.7997397e+02 </wgt>
<wgt id='1828'> +2.8017197e+02 </wgt>
<wgt id='1829'> +2.7929603e+02 </wgt>
<wgt id='1830'> +2.8231801e+02 </wgt>
<wgt id='1831'> +2.8201818e+02 </wgt>
<wgt id='1832'> +2.7965724e+02 </wgt>
<wgt id='1833'> +2.7932106e+02 </wgt>
<wgt id='1834'> +2.8025091e+02 </wgt>
<wgt id='1835'> +2.8083753e+02 </wgt>
<wgt id='1836'> +2.8129051e+02 </wgt>
<wgt id='1837'> +2.7997830e+02 </wgt>
<wgt id='1838'> +2.7986704e+02 </wgt>
<wgt id='1839'> +2.8060935e+02 </wgt>
<wgt id='1840'> +2.8017724e+02 </wgt>
<wgt id='1841'> +2.7915553e+02 </wgt>
<wgt id='1842'> +2.8105689e+02 </wgt>
<wgt id='1843'> +2.8089959e+02 </wgt>
<wgt id='1844'> +2.8027555e+02 </wgt>
<wgt id='1845'> +2.8107357e+02 </wgt>
<wgt id='1846'> +2.7994087e+02 </wgt>
<wgt id='1847'> +2.8034125e+02 </wgt>
<wgt id='1848'> +2.8000359e+02 </wgt>
<wgt id='1849'> +2.7995099e+02 </wgt>
<wgt id='1850'> +2.8075431e+02 </wgt>
<wgt id='1851'> +2.8048702e+02 </wgt>
<wgt id='1852'> +2.8073555e+02 </wgt>
<wgt id='1853'> +2.8016339e+02 </wgt>
<wgt id='1854'> +2.8099070e+02 </wgt>
<wgt id='1855'> +2.8012218e+02 </wgt>
<wgt id='1856'> +2.8014621e+02 </wgt>
<wgt id='1857'> +2.8037539e+02 </wgt>
<wgt id='1858'> +2.8052039e+02 </wgt>
<wgt id='1859'> +2.8052404e+02 </wgt>
<wgt id='1860'> +2.8069194e+02 </wgt>
<wgt id='1861'> +2.8053843e+02 </wgt>
<wgt id='1862'> +2.8040795e+02 </wgt>
<wgt id='1863'> +2.8056430e+02 </wgt>
<wgt id='1864'> +2.8053129e+02 </wgt>
<wgt id='1865'> +2.8039286e+02 </wgt>
<wgt id='1866'> +2.8043026e+02 </wgt>
<wgt id='1867'> +2.8013731e+02 </wgt>
<wgt id='1868'> +2.8047575e+02 </wgt>
<wgt id='1869'> +2.8042316e+02 </wgt>
<wgt id='1870'> +2.8025161e+02 </wgt>
<wgt id='1871'> +2.8036811e+02 </wgt>
<wgt id='1872'> +2.8019103e+02 </wgt>
<wgt id='1873'> +2.8042379e+02 </wgt>
<wgt id='1874'> +2.8048407e+02 </wgt>
<wgt id='1875'> +2.8035282e+02 </wgt>
<wgt id='1876'> +2.8041067e+02 </wgt>
<wgt id='1877'> +2.8045574e+02 </wgt>
<wgt id='1878'> +2.8036301e+02 </wgt>
<wgt id='1879'> +2.8026275e+02 </wgt>
<wgt id='1880'> +2.8042784e+02 </wgt>
<wgt id='1881'> +2.8034979e+02 </wgt>
<wgt id='1882'> +2.8039845e+02 </wgt>
<wgt id='1883'> +2.8043619e+02 </wgt>
<wgt id='1884'> +2.6723016e+02 </wgt>
<wgt id='1885'> +2.9221842e+02 </wgt>
<wgt id='1886'> +2.8664325e+02 </wgt>
<wgt id='1887'> +2.9019786e+02 </wgt>
<wgt id='1888'> +2.8962636e+02 </wgt>
<wgt id='1889'> +2.8674932e+02 </wgt>
<wgt id='1890'> +2.9128078e+02 </wgt>
<wgt id='1891'> +2.9181574e+02 </wgt>
<wgt id='1892'> +2.9648014e+02 </wgt>
<wgt id='1893'> +2.8613287e+02 </wgt>
<wgt id='1894'> +2.8596263e+02 </wgt>
<wgt id='1895'> +2.8613396e+02 </wgt>
<wgt id='1896'> +2.8612636e+02 </wgt>
<wgt id='1897'> +2.8674093e+02 </wgt>
<wgt id='1898'> +2.8446322e+02 </wgt>
<wgt id='1899'> +2.8612865e+02 </wgt>
<wgt id='1900'> +2.8766974e+02 </wgt>
<wgt id='1901'> +2.8575548e+02 </wgt>
<wgt id='1902'> +2.8655112e+02 </wgt>
<wgt id='1903'> +2.8517750e+02 </wgt>
<wgt id='1904'> +2.8334088e+02 </wgt>
<wgt id='1905'> +2.8588616e+02 </wgt>
<wgt id='1906'> +2.8630056e+02 </wgt>
<wgt id='1907'> +2.8669430e+02 </wgt>
<wgt id='1908'> +2.8693672e+02 </wgt>
<wgt id='1909'> +2.8656934e+02 </wgt>
<wgt id='1910'> +2.8769107e+02 </wgt>
<wgt id='1911'> +2.8680939e+02 </wgt>
<wgt id='1912'> +2.8749717e+02 </wgt>
<wgt id='1913'> +2.8644023e+02 </wgt>
<wgt id='1914'> +2.8646432e+02 </wgt>
<wgt id='1915'> +2.8691146e+02 </wgt>
<wgt id='1916'> +2.8637373e+02 </wgt>
<wgt id='1917'> +2.7238777e+02 </wgt>
<wgt id='1918'> +2.9979800e+02 </wgt>
<wgt id='1919'> +2.8040888e+02 </wgt>
<wgt id='1920'> +2.8544995e+02 </wgt>
<wgt id='1921'> +2.8358353e+02 </wgt>
<wgt id='1922'> +2.8042972e+02 </wgt>
<wgt id='1923'> +2.8194141e+02 </wgt>
<wgt id='1924'> +2.7795631e+02 </wgt>
<wgt id='1925'> +2.8039271e+02 </wgt>
<wgt id='1926'> +2.7976027e+02 </wgt>
<wgt id='1927'> +2.8566973e+02 </wgt>
<wgt id='1928'> +2.7664273e+02 </wgt>
<wgt id='1929'> +2.8132143e+02 </wgt>
<wgt id='1930'> +2.7923068e+02 </wgt>
<wgt id='1931'> +2.8080681e+02 </wgt>
<wgt id='1932'> +2.8196045e+02 </wgt>
<wgt id='1933'> +2.8058445e+02 </wgt>
<wgt id='1934'> +2.8255495e+02 </wgt>
<wgt id='1935'> +2.8213563e+02 </wgt>
<wgt id='1936'> +2.7899145e+02 </wgt>
<wgt id='1937'> +2.8070008e+02 </wgt>
<wgt id='1938'> +2.8104813e+02 </wgt>
<wgt id='1939'> +2.7830014e+02 </wgt>
<wgt id='1940'> +2.7840928e+02 </wgt>
<wgt id='1941'> +2.8233901e+02 </wgt>
<wgt id='1942'> +2.7996437e+02 </wgt>
<wgt id='1943'> +2.7966472e+02 </wgt>
<wgt id='1944'> +2.7935904e+02 </wgt>
<wgt id='1945'> +2.7893181e+02 </wgt>
<wgt id='1946'> +2.8061972e+02 </wgt>
<wgt id='1947'> +2.7766243e+02 </wgt>
<wgt id='1948'> +2.8206472e+02 </wgt>
<wgt id='1949'> +2.7974302e+02 </wgt>
<wgt id='1950'> +2.6723016e+02 </wgt>
<wgt id='1951'> +2.9221842e+02 </wgt>
<wgt id='1952'> +3.0307054e+02 </wgt>
<wgt id='1953'> +3.0293172e+02 </wgt>
<wgt id='1954'> +3.0320823e+02 </wgt>
<wgt id='1955'> +3.0334241e+02 </wgt>
<wgt id='1956'> +3.0279819e+02 </wgt>
<wgt id='1957'> +3.0316646e+02 </wgt>
<wgt id='1958'> +3.0297424e+02 </wgt>
<wgt id='1959'> +3.0288104e+02 </wgt>
<wgt id='1960'> +3.0326604e+02 </wgt>
<wgt id='1961'> +2.9504394e+02 </wgt>
<wgt id='1962'> +3.1111973e+02 </wgt>
<wgt id='1963'> +3.0652982e+02 </wgt>
<wgt id='1964'> +2.9959519e+02 </wgt>
<wgt id='1965'> +3.0353261e+02 </wgt>
<wgt id='1966'> +3.0260754e+02 </wgt>
<wgt id='1967'> +3.0077501e+02 </wgt>
<wgt id='1968'> +3.0527145e+02 </wgt>
<wgt id='1969'> +2.9886598e+02 </wgt>
<wgt id='1970'> +3.0711088e+02 </wgt>
<wgt id='1971'> +3.0269601e+02 </wgt>
<wgt id='1972'> +3.0310522e+02 </wgt>
<wgt id='1973'> +3.0173495e+02 </wgt>
<wgt id='1974'> +3.0413694e+02 </wgt>
<wgt id='1975'> +2.9623806e+02 </wgt>
<wgt id='1976'> +3.1041522e+02 </wgt>
<wgt id='1977'> +3.0815133e+02 </wgt>
<wgt id='1978'> +2.9816427e+02 </wgt>
<wgt id='1979'> +2.9849666e+02 </wgt>
<wgt id='1980'> +3.0800919e+02 </wgt>
<wgt id='1981'> +3.0307054e+02 </wgt>
<wgt id='1982'> +3.0535207e+02 </wgt>
<wgt id='1983'> +3.0188681e+02 </wgt>
<wgt id='1984'> +3.1816528e+02 </wgt>
<wgt id='1985'> +3.1575685e+02 </wgt>
<wgt id='1986'> +3.0577513e+02 </wgt>
<wgt id='1987'> +3.0091859e+02 </wgt>
<wgt id='1988'> +3.0244004e+02 </wgt>
<wgt id='1989'> +3.0374175e+02 </wgt>
<wgt id='1990'> +3.0216380e+02 </wgt>
<wgt id='1991'> +3.0412745e+02 </wgt>
<wgt id='1992'> +3.0208144e+02 </wgt>
<wgt id='1993'> +3.0437562e+02 </wgt>
<wgt id='1994'> +3.2626156e+02 </wgt>
<wgt id='1995'> +3.0541441e+02 </wgt>
<wgt id='1996'> +3.0544249e+02 </wgt>
<wgt id='1997'> +3.0561525e+02 </wgt>
<wgt id='1998'> +3.0578011e+02 </wgt>
<wgt id='1999'> +3.0527812e+02 </wgt>
<wgt id='2000'> +3.0577496e+02 </wgt>
<wgt id='2001'> +3.0528352e+02 </wgt>
<wgt id='2002'> +3.0581588e+02 </wgt>
<wgt id='2003'> +3.0525121e+02 </wgt>
<wgt id='2004'> +3.0403514e+02 </wgt>
<wgt id='2005'> +3.0702583e+02 </wgt>
<wgt id='2006'> +2.9727468e+02 </wgt>
<wgt id='2007'> +3.1380698e+02 </wgt>
<wgt id='2008'> +3.0726468e+02 </wgt>
<wgt id='2009'> +3.0379569e+02 </wgt>
<wgt id='2010'> +3.0494663e+02 </wgt>
<wgt id='2011'> +3.0617667e+02 </wgt>
<wgt id='2012'> +3.0819928e+02 </wgt>
<wgt id='2013'> +3.0282436e+02 </wgt>
<wgt id='2014'> +3.0472028e+02 </wgt>
<wgt id='2015'> +3.0597647e+02 </wgt>
<wgt id='2016'> +3.0422822e+02 </wgt>
<wgt id='2017'> +3.0658755e+02 </wgt>
<wgt id='2018'> +3.0943256e+02 </wgt>
<wgt id='2019'> +3.0183791e+02 </wgt>
<wgt id='2020'> +3.0488970e+02 </wgt>
<wgt id='2021'> +3.0670477e+02 </wgt>
<wgt id='2022'> +3.0132905e+02 </wgt>
<wgt id='2023'> +3.1025012e+02 </wgt>
<wgt id='2024'> +3.0530222e+02 </wgt>
<wgt id='2025'> +3.0637585e+02 </wgt>
<wgt id='2026'> +3.1044730e+02 </wgt>
<wgt id='2027'> +3.1052774e+02 </wgt>
<wgt id='2028'> +3.0755899e+02 </wgt>
<wgt id='2029'> +3.1226944e+02 </wgt>
<wgt id='2030'> +2.9861958e+02 </wgt>
<wgt id='2031'> +3.0478555e+02 </wgt>
<wgt id='2032'> +3.0726146e+02 </wgt>
<wgt id='2033'> +2.9655641e+02 </wgt>
<wgt id='2034'> +3.1164000e+02 </wgt>
<wgt id='2035'> +2.9503269e+02 </wgt>
<wgt id='2036'> +3.1095237e+02 </wgt>
<wgt id='2037'> +3.0002559e+02 </wgt>
<wgt id='2038'> +2.8043074e+02 </wgt>
<wgt id='2039'> +2.8039313e+02 </wgt>
<wgt id='2040'> +2.8035568e+02 </wgt>
<wgt id='2041'> +2.8031719e+02 </wgt>
<wgt id='2042'> +2.8027959e+02 </wgt>
<wgt id='2043'> +2.8024194e+02 </wgt>
<wgt id='2044'> +2.8020455e+02 </wgt>
<wgt id='2045'> +2.8016609e+02 </wgt>
<wgt id='2046'> +2.8012851e+02 </wgt>
<wgt id='2047'> +2.8009095e+02 </wgt>
<wgt id='2048'> +2.8005330e+02 </wgt>
<wgt id='2049'> +2.8001494e+02 </wgt>
<wgt id='2050'> +2.7997816e+02 </wgt>
<wgt id='2051'> +2.7994099e+02 </wgt>
<wgt id='2052'> +2.7990335e+02 </wgt>
<wgt id='2053'> +2.7986511e+02 </wgt>
<wgt id='2054'> +2.7982747e+02 </wgt>
<wgt id='2055'> +2.7979000e+02 </wgt>
<wgt id='2056'> +2.7975244e+02 </wgt>
<wgt id='2057'> +2.7971410e+02 </wgt>
<wgt id='2058'> +2.7967647e+02 </wgt>
<wgt id='2059'> +2.7963907e+02 </wgt>
<wgt id='2060'> +2.7960148e+02 </wgt>
<wgt id='2061'> +2.7956303e+02 </wgt>
<wgt id='2062'> +2.7952562e+02 </wgt>
<wgt id='2063'> +2.7948872e+02 </wgt>
<wgt id='2064'> +2.7945159e+02 </wgt>
<wgt id='2065'> +2.7941334e+02 </wgt>
<wgt id='2066'> +2.7937582e+02 </wgt>
<wgt id='2067'> +2.7933820e+02 </wgt>
<wgt id='2068'> +2.7929992e+02 </wgt>
<wgt id='2069'> +2.7841080e+02 </wgt>
<wgt id='2070'> +2.8164497e+02 </wgt>
<wgt id='2071'> +2.7956887e+02 </wgt>
<wgt id='2072'> +2.7621273e+02 </wgt>
<wgt id='2073'> +2.7879109e+02 </wgt>
<wgt id='2074'> +2.7883498e+02 </wgt>
<wgt id='2075'> +2.7670412e+02 </wgt>
<wgt id='2076'> +2.7805132e+02 </wgt>
<wgt id='2077'> +2.7894584e+02 </wgt>
<wgt id='2078'> +2.7689067e+02 </wgt>
<wgt id='2079'> +2.7879992e+02 </wgt>
<wgt id='2080'> +2.7744684e+02 </wgt>
<wgt id='2081'> +2.7531034e+02 </wgt>
<wgt id='2082'> +2.7550991e+02 </wgt>
<wgt id='2083'> +2.7737592e+02 </wgt>
<wgt id='2084'> +2.8316362e+02 </wgt>
<wgt id='2085'> +2.7514500e+02 </wgt>
<wgt id='2086'> +2.7994035e+02 </wgt>
<wgt id='2087'> +2.7885673e+02 </wgt>
<wgt id='2088'> +2.7570478e+02 </wgt>
<wgt id='2089'> +2.7771757e+02 </wgt>
<wgt id='2090'> +2.8088112e+02 </wgt>
<wgt id='2091'> +2.7624963e+02 </wgt>
<wgt id='2092'> +2.7916331e+02 </wgt>
<wgt id='2093'> +2.8189142e+02 </wgt>
<wgt id='2094'> +2.7993631e+02 </wgt>
<wgt id='2095'> +2.7945171e+02 </wgt>
<wgt id='2096'> +2.7680388e+02 </wgt>
<wgt id='2097'> +2.7670938e+02 </wgt>
<wgt id='2098'> +2.7793545e+02 </wgt>
<wgt id='2099'> +2.7954350e+02 </wgt>
<wgt id='2100'> +2.7477519e+02 </wgt>
<wgt id='2101'> +2.8080181e+02 </wgt>
<wgt id='2102'> +2.7811493e+02 </wgt>
<wgt id='2103'> +2.7680817e+02 </wgt>
<wgt id='2104'> +2.7969935e+02 </wgt>
<wgt id='2105'> +2.7816590e+02 </wgt>
<wgt id='2106'> +2.7957272e+02 </wgt>
<wgt id='2107'> +2.7961427e+02 </wgt>
<wgt id='2108'> +2.8124507e+02 </wgt>
<wgt id='2109'> +2.8042858e+02 </wgt>
<wgt id='2110'> +2.7754795e+02 </wgt>
<wgt id='2111'> +2.7893504e+02 </wgt>
<wgt id='2112'> +2.7811926e+02 </wgt>
<wgt id='2113'> +2.7796459e+02 </wgt>
<wgt id='2114'> +2.7815782e+02 </wgt>
<wgt id='2115'> +2.7728591e+02 </wgt>
<wgt id='2116'> +2.8028839e+02 </wgt>
<wgt id='2117'> +2.7998936e+02 </wgt>
<wgt id='2118'> +2.7764463e+02 </wgt>
<wgt id='2119'> +2.7731234e+02 </wgt>
<wgt id='2120'> +2.7823665e+02 </wgt>
<wgt id='2121'> +2.7881768e+02 </wgt>
<wgt id='2122'> +2.7926360e+02 </wgt>
<wgt id='2123'> +2.7796292e+02 </wgt>
<wgt id='2124'> +2.7785312e+02 </wgt>
<wgt id='2125'> +2.7859569e+02 </wgt>
<wgt id='2126'> +2.7816359e+02 </wgt>
<wgt id='2127'> +2.7714709e+02 </wgt>
<wgt id='2128'> +2.7903261e+02 </wgt>
<wgt id='2129'> +2.7887812e+02 </wgt>
<wgt id='2130'> +2.7825813e+02 </wgt>
<wgt id='2131'> +2.7905085e+02 </wgt>
<wgt id='2132'> +2.7793014e+02 </wgt>
<wgt id='2133'> +2.7832655e+02 </wgt>
<wgt id='2134'> +2.7799025e+02 </wgt>
<wgt id='2135'> +2.7793933e+02 </wgt>
<wgt id='2136'> +2.7873748e+02 </wgt>
<wgt id='2137'> +2.7846945e+02 </wgt>
<wgt id='2138'> +2.7871796e+02 </wgt>
<wgt id='2139'> +2.7814836e+02 </wgt>
<wgt id='2140'> +2.7897018e+02 </wgt>
<wgt id='2141'> +2.7810867e+02 </wgt>
<wgt id='2142'> +2.7813392e+02 </wgt>
<wgt id='2143'> +2.7835903e+02 </wgt>
<wgt id='2144'> +2.7850230e+02 </wgt>
<wgt id='2145'> +2.7850798e+02 </wgt>
<wgt id='2146'> +2.7866961e+02 </wgt>
<wgt id='2147'> +2.7852071e+02 </wgt>
<wgt id='2148'> +2.7839212e+02 </wgt>
<wgt id='2149'> +2.7854867e+02 </wgt>
<wgt id='2150'> +2.7851243e+02 </wgt>
<wgt id='2151'> +2.7837681e+02 </wgt>
<wgt id='2152'> +2.7841158e+02 </wgt>
<wgt id='2153'> +2.7812427e+02 </wgt>
<wgt id='2154'> +2.7845594e+02 </wgt>
<wgt id='2155'> +2.7840377e+02 </wgt>
<wgt id='2156'> +2.7823551e+02 </wgt>
<wgt id='2157'> +2.7835170e+02 </wgt>
<wgt id='2158'> +2.7817543e+02 </wgt>
<wgt id='2159'> +2.7840901e+02 </wgt>
<wgt id='2160'> +2.7846783e+02 </wgt>
<wgt id='2161'> +2.7833771e+02 </wgt>
<wgt id='2162'> +2.7839193e+02 </wgt>
<wgt id='2163'> +2.7843929e+02 </wgt>
<wgt id='2164'> +2.7834598e+02 </wgt>
<wgt id='2165'> +2.7824725e+02 </wgt>
<wgt id='2166'> +2.7841216e+02 </wgt>
<wgt id='2167'> +2.7833498e+02 </wgt>
<wgt id='2168'> +2.7838145e+02 </wgt>
<wgt id='2169'> +2.7841866e+02 </wgt>
<wgt id='2170'> +2.7840905e+02 </wgt>
<wgt id='2171'> +2.7839928e+02 </wgt>
<wgt id='2172'> +2.7841263e+02 </wgt>
<wgt id='2173'> +2.7841293e+02 </wgt>
<wgt id='2174'> +2.7841614e+02 </wgt>
<wgt id='2175'> +2.7841158e+02 </wgt>
<wgt id='2176'> +2.7840312e+02 </wgt>
<wgt id='2177'> +2.7614565e+02 </wgt>
<wgt id='2178'> +2.6135430e+02 </wgt>
<wgt id='2179'> +2.7174392e+02 </wgt>
<wgt id='2180'> +2.7542192e+02 </wgt>
<wgt id='2181'> +2.7342324e+02 </wgt>
<wgt id='2182'> +2.6361644e+02 </wgt>
<wgt id='2183'> +2.7764791e+02 </wgt>
<wgt id='2184'> +2.8628733e+02 </wgt>
<wgt id='2185'> +2.7877592e+02 </wgt>
<wgt id='2186'> +2.7813959e+02 </wgt>
<wgt id='2187'> +2.7703181e+02 </wgt>
<wgt id='2188'> +2.8007579e+02 </wgt>
<wgt id='2189'> +2.7813704e+02 </wgt>
<wgt id='2190'> +2.7997263e+02 </wgt>
<wgt id='2191'> +2.6906696e+02 </wgt>
<wgt id='2192'> +2.7769610e+02 </wgt>
<wgt id='2193'> +2.7929894e+02 </wgt>
<wgt id='2194'> +2.6498034e+02 </wgt>
<wgt id='2195'> +2.6220111e+02 </wgt>
<wgt id='2196'> +2.8114343e+02 </wgt>
<wgt id='2197'> +2.6442481e+02 </wgt>
<wgt id='2198'> +2.9299097e+02 </wgt>
<wgt id='2199'> +2.7711673e+02 </wgt>
<wgt id='2200'> +3.0268193e+02 </wgt>
<wgt id='2201'> +2.8277502e+02 </wgt>
<wgt id='2202'> +2.7644779e+02 </wgt>
<wgt id='2203'> +2.7727453e+02 </wgt>
<wgt id='2204'> +2.7026919e+02 </wgt>
<wgt id='2205'> +2.6649719e+02 </wgt>
<wgt id='2206'> +2.7300752e+02 </wgt>
<wgt id='2207'> +2.8051185e+02 </wgt>
<wgt id='2208'> +2.7586583e+02 </wgt>
<wgt id='2209'> +2.8762910e+02 </wgt>
<wgt id='2210'> +2.6852761e+02 </wgt>
<wgt id='2211'> +2.7993991e+02 </wgt>
<wgt id='2212'> +2.9385580e+02 </wgt>
<wgt id='2213'> +2.8540231e+02 </wgt>
<wgt id='2214'> +2.6600085e+02 </wgt>
<wgt id='2215'> +2.8820267e+02 </wgt>
<wgt id='2216'> +2.6534546e+02 </wgt>
<wgt id='2217'> +2.7276376e+02 </wgt>
<wgt id='2218'> +2.8028285e+02 </wgt>
<wgt id='2219'> +2.7285142e+02 </wgt>
<wgt id='2220'> +2.7327846e+02 </wgt>
<wgt id='2221'> +2.7224152e+02 </wgt>
<wgt id='2222'> +2.9273730e+02 </wgt>
<wgt id='2223'> +2.6934322e+02 </wgt>
<wgt id='2224'> +2.7423429e+02 </wgt>
<wgt id='2225'> +2.7414594e+02 </wgt>
<wgt id='2226'> +2.6368429e+02 </wgt>
<wgt id='2227'> +2.7343011e+02 </wgt>
<wgt id='2228'> +2.8037397e+02 </wgt>
<wgt id='2229'> +2.8948803e+02 </wgt>
<wgt id='2230'> +2.6425694e+02 </wgt>
<wgt id='2231'> +2.8383711e+02 </wgt>
<wgt id='2232'> +2.7739315e+02 </wgt>
<wgt id='2233'> +2.6124111e+02 </wgt>
<wgt id='2234'> +2.6487297e+02 </wgt>
<wgt id='2235'> +2.7173435e+02 </wgt>
<wgt id='2236'> +2.6805636e+02 </wgt>
<wgt id='2237'> +2.8455238e+02 </wgt>
<wgt id='2238'> +2.7393210e+02 </wgt>
<wgt id='2239'> +2.6575626e+02 </wgt>
<wgt id='2240'> +2.8993423e+02 </wgt>
<wgt id='2241'> +2.5948272e+02 </wgt>
<wgt id='2242'> +2.7344616e+02 </wgt>
<wgt id='2243'> +2.7829391e+02 </wgt>
<wgt id='2244'> +3.0921708e+02 </wgt>
<wgt id='2245'> +2.6934629e+02 </wgt>
<wgt id='2246'> +2.8914892e+02 </wgt>
<wgt id='2247'> +2.6752856e+02 </wgt>
<wgt id='2248'> +2.8012923e+02 </wgt>
<wgt id='2249'> +2.7475772e+02 </wgt>
<wgt id='2250'> +2.8083021e+02 </wgt>
<wgt id='2251'> +2.8179037e+02 </wgt>
<wgt id='2252'> +2.7046037e+02 </wgt>
<wgt id='2253'> +2.8022341e+02 </wgt>
<wgt id='2254'> +2.8780644e+02 </wgt>
<wgt id='2255'> +2.9606744e+02 </wgt>
<wgt id='2256'> +2.6469541e+02 </wgt>
<wgt id='2257'> +2.7828223e+02 </wgt>
<wgt id='2258'> +2.7544533e+02 </wgt>
<wgt id='2259'> +2.9001272e+02 </wgt>
<wgt id='2260'> +2.5226742e+02 </wgt>
<wgt id='2261'> +2.7612839e+02 </wgt>
<wgt id='2262'> +2.7593645e+02 </wgt>
<wgt id='2263'> +2.8768354e+02 </wgt>
<wgt id='2264'> +2.6773322e+02 </wgt>
<wgt id='2265'> +2.7568205e+02 </wgt>
<wgt id='2266'> +2.7071933e+02 </wgt>
<wgt id='2267'> +2.8339717e+02 </wgt>
<wgt id='2268'> +2.7954044e+02 </wgt>
<wgt id='2269'> +2.8364413e+02 </wgt>
<wgt id='2270'> +2.6766453e+02 </wgt>
<wgt id='2271'> +2.7795408e+02 </wgt>
<wgt id='2272'> +2.5899596e+02 </wgt>
<wgt id='2273'> +2.8515600e+02 </wgt>
<wgt id='2274'> +2.7696321e+02 </wgt>
<wgt id='2275'> +2.8392868e+02 </wgt>
<wgt id='2276'> +2.7435950e+02 </wgt>
<wgt id='2277'> +2.4547076e+02 </wgt>
<wgt id='2278'> +2.6722293e+02 </wgt>
<wgt id='2279'> +2.8502674e+02 </wgt>
<wgt id='2280'> +2.7358969e+02 </wgt>
<wgt id='2281'> +2.9524901e+02 </wgt>
<wgt id='2282'> +4.5425236e+02 </wgt>
<wgt id='2283'> +3.0302861e+02 </wgt>
<wgt id='2284'> +4.8175029e+02 </wgt>
</rwgt>
</event>
<event npLO=" -1 " npNLO=" 2 ">
 5      2 +2.8781417e+02 1.76420410e+01 7.54677110e-03 1.15435810e-01
       21 -1    0    0  504  501 +0.0000000000e+00 +0.0000000000e+00 +1.6521879000e+03 1.6521879000e+03 0.0000000000e+00 0.0000e+00 9.0000e+00
       21 -1    0    0  503  502 +0.0000000000e+00 +0.0000000000e+00 -2.2526467000e+01 2.2526467000e+01 0.0000000000e+00 0.0000e+00 9.0000e+00
       25  1    1    2    0    0 +4.1675724000e-02 -2.3886698000e+01 +1.5895483000e+03 1.5928699000e+03 1.0000000000e+02 0.0000e+00 9.0000e+00
       21  1    1    2  503  501 -1.3208625000e+01 +1.2144763000e+01 -1.5368638000e+01 2.3625369000e+01 0.0000000000e+00 0.0000e+00 9.0000e+00
       21  1    1    2  504  502 +1.3166949000e+01 +1.1741936000e+01 +5.5481770000e+01 5.8219141000e+01 0.0000000000e+00 0.0000e+00 9.0000e+00
#aMCatNLO 1  0  0  1  5 0.20338282E+02 0.00000000E+00 -9  6  0 0.00000000E+00 0.00000000E+00 0.00000000E+00 0.00000000E+00 0.00000000E+00
<rwgt>
<wgt id='1001'> +2.8781417e+02 </wgt>
<wgt id='1002'> +2.0130086e+02 </wgt>
<wgt id='1003'> +4.2167592e+02 </wgt>
<wgt id='1004'> +2.7334273e+02 </wgt>
<wgt id='1005'> +1.9092952e+02 </wgt>
<wgt id='1006'> +4.0129111e+02 </wgt>
<wgt id='1007'> +3.0041026e+02 </wgt>
<wgt id='1008'> +2.1038936e+02 </wgt>
<wgt id='1009'> +4.3921894e+02 </wgt>
<wgt id='1010'> +2.8781417e+02 </wgt>
<wgt id='1011'> +2.8750996e+02 </wgt>
<wgt id='1012'> +2.8796185e+02 </wgt>
<wgt id='1013'> +2.8857653e+02 </wgt>
<wgt id='1014'> +2.8877465e+02 </wgt>
<wgt id='1015'> +2.8545486e+02 </wgt>
<wgt id='1016'> +2.8788132e+02 </wgt>
<wgt id='1017'> +2.8695673e+02 </wgt>
<wgt id='1018'> +2.8598607e+02 </wgt>
<wgt id='1019'> +2.8615328e+02 </wgt>
<wgt id='1020'> +2.8642314e+02 </wgt>
<wgt id='1021'> +2.9105434e+02 </wgt>
<wgt id='1022'> +2.8841944e+02 </wgt>
<wgt id='1023'> +2.8736851e+02 </wgt>
<wgt id='1024'> +2.8687043e+02 </wgt>
<wgt id='1025'> +2.8904604e+02 </wgt>
<wgt id='1026'> +2.8708702e+02 </wgt>
<wgt id='1027'> +2.8846625e+02 </wgt>
<wgt id='1028'> +2.8714011e+02 </wgt>
<wgt id='1029'> +2.8740959e+02 </wgt>
<wgt id='1030'> +2.8885540e+02 </wgt>
<wgt id='1031'> +2.8809305e+02 </wgt>
<wgt id='1032'> +2.8930002e+02 </wgt>
<wgt id='1033'> +2.8600230e+02 </wgt>
<wgt id='1034'> +2.9108967e+02 </wgt>
<wgt id='1035'> +2.8474514e+02 </wgt>
<wgt id='1036'> +2.8532603e+02 </wgt>
<wgt id='1037'> +2.8854213e+02 </wgt>
<wgt id='1038'> +2.8528436e+02 </wgt>
<wgt id='1039'> +2.8723389e+02 </wgt>
<wgt id='1040'> +2.8917556e+02 </wgt>
<wgt id='1041'> +2.8643772e+02 </wgt>
<wgt id='1042'> +2.8637576e+02 </wgt>
<wgt id='1043'> +2.8744380e+02 </wgt>
<wgt id='1044'> +2.8701030e+02 </wgt>
<wgt id='1045'> +2.8948306e+02 </wgt>
<wgt id='1046'> +2.8844033e+02 </wgt>
<wgt id='1047'> +2.8673235e+02 </wgt>
<wgt id='1048'> +2.8846524e+02 </wgt>
<wgt id='1049'> +2.8773055e+02 </wgt>
<wgt id='1050'> +2.8666448e+02 </wgt>
<wgt id='1051'> +2.8667624e+02 </wgt>
<wgt id='1052'> +2.8908377e+02 </wgt>
<wgt id='1053'> +2.8792871e+02 </wgt>
<wgt id='1054'> +2.8829217e+02 </wgt>
<wgt id='1055'> +2.8812048e+02 </wgt>
<wgt id='1056'> +2.8607204e+02 </wgt>
<wgt id='1057'> +2.8810146e+02 </wgt>
<wgt id='1058'> +2.8762543e+02 </wgt>
<wgt id='1059'> +2.8707783e+02 </wgt>
<wgt id='1060'> +2.8734095e+02 </wgt>
<wgt id='1061'> +2.8728399e+02 </wgt>
<wgt id='1062'> +2.8852348e+02 </wgt>
<wgt id='1063'> +2.8765861e+02 </wgt>
<wgt id='1064'> +2.8756600e+02 </wgt>
<wgt id='1065'> +2.8691952e+02 </wgt>
<wgt id='1066'> +2.8788066e+02 </wgt>
<wgt id='1067'> +2.8791253e+02 </wgt>
<wgt id='1068'> +2.8828752e+02 </wgt>
<wgt id='1069'> +2.8824893e+02 </wgt>
<wgt id='1070'> +2.8752724e+02 </wgt>
<wgt id='1071'> +2.8748930e+02 </wgt>
<wgt id='1072'> +2.8817875e+02 </wgt>
<wgt id='1073'> +2.8790460e+02 </wgt>
<wgt id='1074'> +2.8790349e+02 </wgt>
<wgt id='1075'> +2.8834552e+02 </wgt>
<wgt id='1076'> +2.8757904e+02 </wgt>
<wgt id='1077'> +2.8715702e+02 </wgt>
<wgt id='1078'> +2.8874174e+02 </wgt>
<wgt id='1079'> +2.8772802e+02 </wgt>
<wgt id='1080'> +2.8821497e+02 </wgt>
<wgt id='1081'> +2.8743337e+02 </wgt>
<wgt id='1082'> +2.8731421e+02 </wgt>
<wgt id='1083'> +2.8795223e+02 </wgt>
<wgt id='1084'> +2.8744387e+02 </wgt>
<wgt id='1085'> +2.8773321e+02 </wgt>
<wgt id='1086'> +2.8788924e+02 </wgt>
<wgt id='1087'> +2.8805855e+02 </wgt>
<wgt id='1088'> +2.8794389e+02 </wgt>
<wgt id='1089'> +2.8769290e+02 </wgt>
<wgt id='1090'> +2.8770840e+02 </wgt>
<wgt id='1091'> +2.8758882e+02 </wgt>
<wgt id='1092'> +2.8788606e+02 </wgt>
<wgt id='1093'> +2.8843731e+02 </wgt>
<wgt id='1094'> +2.8771724e+02 </wgt>
<wgt id='1095'> +2.8799496e+02 </wgt>
<wgt id='1096'> +2.8774201e+02 </wgt>
<wgt id='1097'> +2.8785963e+02 </wgt>
<wgt id='1098'> +2.8767039e+02 </wgt>
<wgt id='1099'> +2.8766260e+02 </wgt>
<wgt id='1100'> +2.8794962e+02 </wgt>
<wgt id='1101'> +2.8795396e+02 </wgt>
<wgt id='1102'> +2.8808939e+02 </wgt>
<wgt id='1103'> +2.8748842e+02 </wgt>
<wgt id='1104'> +2.8780602e+02 </wgt>
<wgt id='1105'> +2.8803249e+02 </wgt>
<wgt id='1106'> +2.8771278e+02 </wgt>
<wgt id='1107'> +2.8798838e+02 </wgt>
<wgt id='1108'> +2.8789917e+02 </wgt>
<wgt id='1109'> +2.8791646e+02 </wgt>
<wgt id='1110'> +2.8781417e+02 </wgt>
<wgt id='1111'> +2.6434072e+02 </wgt>
<wgt id='1112'> +3.1312139e+02 </wgt>
<wgt id='1113'> +2.8781417e+02 </wgt>
<wgt id='1114'> +2.9894685e+02 </wgt>
<wgt id='1115'> +2.7989158e+02 </wgt>
<wgt id='1116'> +2.5989127e+02 </wgt>
<wgt id='1117'> +2.8795882e+02 </wgt>
<wgt id='1118'> +2.8537810e+02 </wgt>
<wgt id='1119'> +2.9420103e+02 </wgt>
<wgt id='1120'> +2.8428617e+02 </wgt>
<wgt id='1121'> +2.8027016e+02 </wgt>
<wgt id='1122'> +2.7783104e+02 </wgt>
<wgt id='1123'> +2.9487364e+02 </wgt>
<wgt id='1124'> +2.9602059e+02 </wgt>
<wgt id='1125'> +2.9550602e+02 </wgt>
<wgt id='1126'> +3.0002056e+02 </wgt>
<wgt id='1127'> +2.9194628e+02 </wgt>
<wgt id='1128'> +2.8841904e+02 </wgt>
<wgt id='1129'> +2.7758171e+02 </wgt>
<wgt id='1130'> +2.8695742e+02 </wgt>
<wgt id='1131'> +2.8177999e+02 </wgt>
<wgt id='1132'> +2.8247963e+02 </wgt>
<wgt id='1133'> +2.8960005e+02 </wgt>
<wgt id='1134'> +2.8734719e+02 </wgt>
<wgt id='1135'> +2.8564203e+02 </wgt>
<wgt id='1136'> +2.7880951e+02 </wgt>
<wgt id='1137'> +2.9513855e+02 </wgt>
<wgt id='1138'> +2.7905635e+02 </wgt>
<wgt id='1139'> +2.8787677e+02 </wgt>
<wgt id='1140'> +2.9989275e+02 </wgt>
<wgt id='1141'> +2.7390472e+02 </wgt>
<wgt id='1142'> +2.9230407e+02 </wgt>
<wgt id='1143'> +2.9243951e+02 </wgt>
<wgt id='1144'> +2.6568595e+02 </wgt>
<wgt id='1145'> +3.0181061e+02 </wgt>
<wgt id='1146'> +2.8567406e+02 </wgt>
<wgt id='1147'> +2.8841260e+02 </wgt>
<wgt id='1148'> +2.6507542e+02 </wgt>
<wgt id='1149'> +2.9740881e+02 </wgt>
<wgt id='1150'> +2.9164152e+02 </wgt>
<wgt id='1151'> +2.8981680e+02 </wgt>
<wgt id='1152'> +2.9676116e+02 </wgt>
<wgt id='1153'> +2.8222759e+02 </wgt>
<wgt id='1154'> +2.8112837e+02 </wgt>
<wgt id='1155'> +2.8683346e+02 </wgt>
<wgt id='1156'> +2.9228007e+02 </wgt>
<wgt id='1157'> +2.8629561e+02 </wgt>
<wgt id='1158'> +2.8051685e+02 </wgt>
<wgt id='1159'> +2.9818410e+02 </wgt>
<wgt id='1160'> +2.9686584e+02 </wgt>
<wgt id='1161'> +3.0079896e+02 </wgt>
<wgt id='1162'> +2.9835052e+02 </wgt>
<wgt id='1163'> +2.8764105e+02 </wgt>
<wgt id='1164'> +2.9942875e+02 </wgt>
<wgt id='1165'> +2.8579690e+02 </wgt>
<wgt id='1166'> +2.9078220e+02 </wgt>
<wgt id='1167'> +2.9184289e+02 </wgt>
<wgt id='1168'> +2.8789560e+02 </wgt>
<wgt id='1169'> +2.8958228e+02 </wgt>
<wgt id='1170'> +2.9190673e+02 </wgt>
<wgt id='1171'> +2.9897583e+02 </wgt>
<wgt id='1172'> +2.7148229e+02 </wgt>
<wgt id='1173'> +2.9488626e+02 </wgt>
<wgt id='1174'> +2.9307258e+02 </wgt>
<wgt id='1175'> +2.7719144e+02 </wgt>
<wgt id='1176'> +2.9824173e+02 </wgt>
<wgt id='1177'> +2.9010405e+02 </wgt>
<wgt id='1178'> +2.8668019e+02 </wgt>
<wgt id='1179'> +2.6957959e+02 </wgt>
<wgt id='1180'> +2.6261194e+02 </wgt>
<wgt id='1181'> +2.9211050e+02 </wgt>
<wgt id='1182'> +2.9068147e+02 </wgt>
<wgt id='1183'> +3.0067466e+02 </wgt>
<wgt id='1184'> +2.9087030e+02 </wgt>
<wgt id='1185'> +2.9155535e+02 </wgt>
<wgt id='1186'> +2.8481320e+02 </wgt>
<wgt id='1187'> +2.7999085e+02 </wgt>
<wgt id='1188'> +2.8577311e+02 </wgt>
<wgt id='1189'> +2.7656293e+02 </wgt>
<wgt id='1190'> +2.9419528e+02 </wgt>
<wgt id='1191'> +2.8652555e+02 </wgt>
<wgt id='1192'> +2.9160343e+02 </wgt>
<wgt id='1193'> +3.0382431e+02 </wgt>
<wgt id='1194'> +2.9199241e+02 </wgt>
<wgt id='1195'> +2.7758171e+02 </wgt>
<wgt id='1196'> +2.9283271e+02 </wgt>
<wgt id='1197'> +2.8187805e+02 </wgt>
<wgt id='1198'> +2.8140360e+02 </wgt>
<wgt id='1199'> +3.0499858e+02 </wgt>
<wgt id='1200'> +2.8483213e+02 </wgt>
<wgt id='1201'> +2.9475299e+02 </wgt>
<wgt id='1202'> +2.7186747e+02 </wgt>
<wgt id='1203'> +2.8250522e+02 </wgt>
<wgt id='1204'> +2.6742262e+02 </wgt>
<wgt id='1205'> +3.0473661e+02 </wgt>
<wgt id='1206'> +2.8874716e+02 </wgt>
<wgt id='1207'> +2.8886675e+02 </wgt>
<wgt id='1208'> +3.0071261e+02 </wgt>
<wgt id='1209'> +2.6907318e+02 </wgt>
<wgt id='1210'> +3.1066863e+02 </wgt>
<wgt id='1211'> +2.8913011e+02 </wgt>
<wgt id='1212'> +2.8219662e+02 </wgt>
<wgt id='1213'> +2.8423051e+02 </wgt>
<wgt id='1214'> +2.8717434e+02 </wgt>
<wgt id='1215'> +2.8680163e+02 </wgt>
<wgt id='1216'> +2.8733534e+02 </wgt>
<wgt id='1217'> +2.8664391e+02 </wgt>
<wgt id='1218'> +2.8819952e+02 </wgt>
<wgt id='1219'> +2.8746889e+02 </wgt>
<wgt id='1220'> +2.8684795e+02 </wgt>
<wgt id='1221'> +2.8746966e+02 </wgt>
<wgt id='1222'> +2.8704782e+02 </wgt>
<wgt id='1223'> +2.8722998e+02 </wgt>
<wgt id='1224'> +2.8589897e+02 </wgt>
<wgt id='1225'> +2.8687941e+02 </wgt>
<wgt id='1226'> +2.8716384e+02 </wgt>
<wgt id='1227'> +2.8651165e+02 </wgt>
<wgt id='1228'> +2.8619957e+02 </wgt>
<wgt id='1229'> +2.8696089e+02 </wgt>
<wgt id='1230'> +2.8776079e+02 </wgt>
<wgt id='1231'> +2.8724526e+02 </wgt>
<wgt id='1232'> +2.8657919e+02 </wgt>
<wgt id='1233'> +2.8729757e+02 </wgt>
<wgt id='1234'> +2.8708315e+02 </wgt>
<wgt id='1235'> +2.8786871e+02 </wgt>
<wgt id='1236'> +2.8775895e+02 </wgt>
<wgt id='1237'> +2.8830440e+02 </wgt>
<wgt id='1238'> +2.8649804e+02 </wgt>
<wgt id='1239'> +2.8820559e+02 </wgt>
<wgt id='1240'> +2.8849321e+02 </wgt>
<wgt id='1241'> +2.8644099e+02 </wgt>
<wgt id='1242'> +2.8613953e+02 </wgt>
<wgt id='1243'> +2.8935224e+02 </wgt>
<wgt id='1244'> +2.8735404e+02 </wgt>
<wgt id='1245'> +2.8722790e+02 </wgt>
<wgt id='1246'> +2.8683335e+02 </wgt>
<wgt id='1247'> +2.8659140e+02 </wgt>
<wgt id='1248'> +2.8679419e+02 </wgt>
<wgt id='1249'> +2.8813814e+02 </wgt>
<wgt id='1250'> +2.8827443e+02 </wgt>
<wgt id='1251'> +2.8597542e+02 </wgt>
<wgt id='1252'> +2.8629201e+02 </wgt>
<wgt id='1253'> +2.8618103e+02 </wgt>
<wgt id='1254'> +2.8851326e+02 </wgt>
<wgt id='1255'> +2.8883118e+02 </wgt>
<wgt id='1256'> +2.8860966e+02 </wgt>
<wgt id='1257'> +2.8312999e+02 </wgt>
<wgt id='1258'> +2.8607193e+02 </wgt>
<wgt id='1259'> +2.8727529e+02 </wgt>
<wgt id='1260'> +2.8964298e+02 </wgt>
<wgt id='1261'> +2.8883829e+02 </wgt>
<wgt id='1262'> +2.8530756e+02 </wgt>
<wgt id='1263'> +2.8575884e+02 </wgt>
<wgt id='1264'> +2.8852775e+02 </wgt>
<wgt id='1265'> +2.8527565e+02 </wgt>
<wgt id='1266'> +2.8618345e+02 </wgt>
<wgt id='1267'> +2.8677490e+02 </wgt>
<wgt id='1268'> +2.8742862e+02 </wgt>
<wgt id='1269'> +2.8834356e+02 </wgt>
<wgt id='1270'> +2.8638163e+02 </wgt>
<wgt id='1271'> +2.8526810e+02 </wgt>
<wgt id='1272'> +2.8690208e+02 </wgt>
<wgt id='1273'> +2.8755495e+02 </wgt>
<wgt id='1274'> +2.8758362e+02 </wgt>
<wgt id='1275'> +2.8730309e+02 </wgt>
<wgt id='1276'> +2.8694911e+02 </wgt>
<wgt id='1277'> +2.8695231e+02 </wgt>
<wgt id='1278'> +2.8688619e+02 </wgt>
<wgt id='1279'> +2.8642947e+02 </wgt>
<wgt id='1280'> +2.8741080e+02 </wgt>
<wgt id='1281'> +2.8726944e+02 </wgt>
<wgt id='1282'> +2.8727857e+02 </wgt>
<wgt id='1283'> +2.8792802e+02 </wgt>
<wgt id='1284'> +2.8653615e+02 </wgt>
<wgt id='1285'> +2.8682497e+02 </wgt>
<wgt id='1286'> +2.8711583e+02 </wgt>
<wgt id='1287'> +2.8621746e+02 </wgt>
<wgt id='1288'> +2.8689857e+02 </wgt>
<wgt id='1289'> +2.8649059e+02 </wgt>
<wgt id='1290'> +2.8819672e+02 </wgt>
<wgt id='1291'> +2.8570630e+02 </wgt>
<wgt id='1292'> +2.8739992e+02 </wgt>
<wgt id='1293'> +2.8740597e+02 </wgt>
<wgt id='1294'> +2.8772112e+02 </wgt>
<wgt id='1295'> +2.8754333e+02 </wgt>
<wgt id='1296'> +2.8778815e+02 </wgt>
<wgt id='1297'> +2.8720522e+02 </wgt>
<wgt id='1298'> +2.8706606e+02 </wgt>
<wgt id='1299'> +2.8736524e+02 </wgt>
<wgt id='1300'> +2.8717172e+02 </wgt>
<wgt id='1301'> +2.8674128e+02 </wgt>
<wgt id='1302'> +2.8742165e+02 </wgt>
<wgt id='1303'> +2.8664352e+02 </wgt>
<wgt id='1304'> +2.8723935e+02 </wgt>
<wgt id='1305'> +2.8739120e+02 </wgt>
<wgt id='1306'> +2.8702615e+02 </wgt>
<wgt id='1307'> +2.8729965e+02 </wgt>
<wgt id='1308'> +2.8735137e+02 </wgt>
<wgt id='1309'> +2.8761586e+02 </wgt>
<wgt id='1310'> +2.8687157e+02 </wgt>
<wgt id='1311'> +2.8758964e+02 </wgt>
<wgt id='1312'> +2.8697476e+02 </wgt>
<wgt id='1313'> +2.8698916e+02 </wgt>
<wgt id='1314'> +2.8736500e+02 </wgt>
<wgt id='1315'> +2.6434072e+02 </wgt>
<wgt id='1316'> +3.1312139e+02 </wgt>
<wgt id='1317'> +1.8969785e+02 </wgt>
<wgt id='1318'> +2.0691987e+02 </wgt>
<wgt id='1319'> +2.2521782e+02 </wgt>
<wgt id='1320'> +2.4238217e+02 </wgt>
<wgt id='1321'> +2.7508011e+02 </wgt>
<wgt id='1322'> +2.9965643e+02 </wgt>
<wgt id='1323'> +3.3743694e+02 </wgt>
<wgt id='1324'> +3.6877802e+02 </wgt>
<wgt id='1325'> +3.0847785e+02 </wgt>
<wgt id='1326'> +3.0839568e+02 </wgt>
<wgt id='1327'> +3.0807444e+02 </wgt>
<wgt id='1328'> +3.0867391e+02 </wgt>
<wgt id='1329'> +3.1002704e+02 </wgt>
<wgt id='1330'> +3.0844051e+02 </wgt>
<wgt id='1331'> +3.0837273e+02 </wgt>
<wgt id='1332'> +3.0820245e+02 </wgt>
<wgt id='1333'> +3.0790060e+02 </wgt>
<wgt id='1334'> +3.0755388e+02 </wgt>
<wgt id='1335'> +3.0827517e+02 </wgt>
<wgt id='1336'> +3.0871198e+02 </wgt>
<wgt id='1337'> +3.0876979e+02 </wgt>
<wgt id='1338'> +3.0915124e+02 </wgt>
<wgt id='1339'> +3.0823709e+02 </wgt>
<wgt id='1340'> +3.0793142e+02 </wgt>
<wgt id='1341'> +3.0854321e+02 </wgt>
<wgt id='1342'> +3.0793718e+02 </wgt>
<wgt id='1343'> +3.0918679e+02 </wgt>
<wgt id='1344'> +3.0955030e+02 </wgt>
<wgt id='1345'> +3.0892103e+02 </wgt>
<wgt id='1346'> +3.0832695e+02 </wgt>
<wgt id='1347'> +3.0837596e+02 </wgt>
<wgt id='1348'> +3.0819753e+02 </wgt>
<wgt id='1349'> +3.0790912e+02 </wgt>
<wgt id='1350'> +3.0917391e+02 </wgt>
<wgt id='1351'> +3.0930302e+02 </wgt>
<wgt id='1352'> +3.0867020e+02 </wgt>
<wgt id='1353'> +3.0710368e+02 </wgt>
<wgt id='1354'> +3.0729763e+02 </wgt>
<wgt id='1355'> +3.1077675e+02 </wgt>
<wgt id='1356'> +3.0907702e+02 </wgt>
<wgt id='1357'> +3.0914597e+02 </wgt>
<wgt id='1358'> +3.0969057e+02 </wgt>
<wgt id='1359'> +3.0816468e+02 </wgt>
<wgt id='1360'> +3.0947766e+02 </wgt>
<wgt id='1361'> +3.0792226e+02 </wgt>
<wgt id='1362'> +3.0905235e+02 </wgt>
<wgt id='1363'> +3.0792103e+02 </wgt>
<wgt id='1364'> +3.0733462e+02 </wgt>
<wgt id='1365'> +3.0811231e+02 </wgt>
<wgt id='1366'> +3.0882304e+02 </wgt>
<wgt id='1367'> +3.1004770e+02 </wgt>
<wgt id='1368'> +3.1065826e+02 </wgt>
<wgt id='1369'> +3.0752890e+02 </wgt>
<wgt id='1370'> +3.0706644e+02 </wgt>
<wgt id='1371'> +3.1043403e+02 </wgt>
<wgt id='1372'> +3.1000686e+02 </wgt>
<wgt id='1373'> +3.0599390e+02 </wgt>
<wgt id='1374'> +3.0862116e+02 </wgt>
<wgt id='1375'> +3.0594387e+02 </wgt>
<wgt id='1376'> +3.1050488e+02 </wgt>
<wgt id='1377'> +3.0788593e+02 </wgt>
<wgt id='1378'> +3.0773949e+02 </wgt>
<wgt id='1379'> +3.0901886e+02 </wgt>
<wgt id='1380'> +3.1128711e+02 </wgt>
<wgt id='1381'> +3.0780517e+02 </wgt>
<wgt id='1382'> +3.0871740e+02 </wgt>
<wgt id='1383'> +3.0899741e+02 </wgt>
<wgt id='1384'> +3.0725676e+02 </wgt>
<wgt id='1385'> +3.0896521e+02 </wgt>
<wgt id='1386'> +3.0792219e+02 </wgt>
<wgt id='1387'> +3.0826548e+02 </wgt>
<wgt id='1388'> +3.0775868e+02 </wgt>
<wgt id='1389'> +3.0908009e+02 </wgt>
<wgt id='1390'> +3.0777056e+02 </wgt>
<wgt id='1391'> +3.0873638e+02 </wgt>
<wgt id='1392'> +3.0862129e+02 </wgt>
<wgt id='1393'> +3.0821841e+02 </wgt>
<wgt id='1394'> +3.0776628e+02 </wgt>
<wgt id='1395'> +3.0813038e+02 </wgt>
<wgt id='1396'> +3.0873117e+02 </wgt>
<wgt id='1397'> +3.0826608e+02 </wgt>
<wgt id='1398'> +3.0826618e+02 </wgt>
<wgt id='1399'> +3.1026979e+02 </wgt>
<wgt id='1400'> +3.0830863e+02 </wgt>
<wgt id='1401'> +3.0899231e+02 </wgt>
<wgt id='1402'> +3.0938469e+02 </wgt>
<wgt id='1403'> +3.0878486e+02 </wgt>
<wgt id='1404'> +3.0720968e+02 </wgt>
<wgt id='1405'> +3.0783971e+02 </wgt>
<wgt id='1406'> +3.0824679e+02 </wgt>
<wgt id='1407'> +3.0794505e+02 </wgt>
<wgt id='1408'> +3.0798456e+02 </wgt>
<wgt id='1409'> +3.0820513e+02 </wgt>
<wgt id='1410'> +3.0916684e+02 </wgt>
<wgt id='1411'> +3.0749420e+02 </wgt>
<wgt id='1412'> +3.0792714e+02 </wgt>
<wgt id='1413'> +3.0818973e+02 </wgt>
<wgt id='1414'> +3.0830321e+02 </wgt>
<wgt id='1415'> +3.0876415e+02 </wgt>
<wgt id='1416'> +3.0866248e+02 </wgt>
<wgt id='1417'> +3.0834780e+02 </wgt>
<wgt id='1418'> +3.0860654e+02 </wgt>
<wgt id='1419'> +3.0898687e+02 </wgt>
<wgt id='1420'> +3.0832890e+02 </wgt>
<wgt id='1421'> +3.0845937e+02 </wgt>
<wgt id='1422'> +3.0852408e+02 </wgt>
<wgt id='1423'> +3.0818965e+02 </wgt>
<wgt id='1424'> +3.0853233e+02 </wgt>
<wgt id='1425'> +3.0873493e+02 </wgt>
<wgt id='1426'> +2.8674367e+02 </wgt>
<wgt id='1427'> +3.3313080e+02 </wgt>
<wgt id='1428'> +3.3077440e+02 </wgt>
<wgt id='1429'> +3.3197014e+02 </wgt>
<wgt id='1430'> +3.3203627e+02 </wgt>
<wgt id='1431'> +3.3062905e+02 </wgt>
<wgt id='1432'> +3.3506392e+02 </wgt>
<wgt id='1433'> +3.4121954e+02 </wgt>
<wgt id='1434'> +3.4284020e+02 </wgt>
<wgt id='1435'> +3.3664092e+02 </wgt>
<wgt id='1436'> +3.3330482e+02 </wgt>
<wgt id='1437'> +3.3377834e+02 </wgt>
<wgt id='1438'> +3.2987334e+02 </wgt>
<wgt id='1439'> +3.3935997e+02 </wgt>
<wgt id='1440'> +3.2209654e+02 </wgt>
<wgt id='1441'> +3.3434075e+02 </wgt>
<wgt id='1442'> +3.2286242e+02 </wgt>
<wgt id='1443'> +3.2173435e+02 </wgt>
<wgt id='1444'> +3.5605951e+02 </wgt>
<wgt id='1445'> +3.2861799e+02 </wgt>
<wgt id='1446'> +3.3288790e+02 </wgt>
<wgt id='1447'> +3.2282164e+02 </wgt>
<wgt id='1448'> +3.3747812e+02 </wgt>
<wgt id='1449'> +3.2569539e+02 </wgt>
<wgt id='1450'> +3.3400762e+02 </wgt>
<wgt id='1451'> +3.2673412e+02 </wgt>
<wgt id='1452'> +3.3553747e+02 </wgt>
<wgt id='1453'> +3.3155747e+02 </wgt>
<wgt id='1454'> +3.3014235e+02 </wgt>
<wgt id='1455'> +3.2547841e+02 </wgt>
<wgt id='1456'> +3.3983829e+02 </wgt>
<wgt id='1457'> +3.4545790e+02 </wgt>
<wgt id='1458'> +3.2182098e+02 </wgt>
<wgt id='1459'> +3.3728258e+02 </wgt>
<wgt id='1460'> +3.2141602e+02 </wgt>
<wgt id='1461'> +3.2611567e+02 </wgt>
<wgt id='1462'> +3.3541056e+02 </wgt>
<wgt id='1463'> +3.2615028e+02 </wgt>
<wgt id='1464'> +3.3462919e+02 </wgt>
<wgt id='1465'> +3.2415703e+02 </wgt>
<wgt id='1466'> +3.3861923e+02 </wgt>
<wgt id='1467'> +3.3539610e+02 </wgt>
<wgt id='1468'> +3.2856818e+02 </wgt>
<wgt id='1469'> +3.4030705e+02 </wgt>
<wgt id='1470'> +3.2795019e+02 </wgt>
<wgt id='1471'> +3.1885259e+02 </wgt>
<wgt id='1472'> +3.4694063e+02 </wgt>
<wgt id='1473'> +3.2767870e+02 </wgt>
<wgt id='1474'> +3.3622058e+02 </wgt>
<wgt id='1475'> +3.2817406e+02 </wgt>
<wgt id='1476'> +3.2857129e+02 </wgt>
<wgt id='1477'> +3.3154331e+02 </wgt>
<wgt id='1478'> +3.2733572e+02 </wgt>
<wgt id='1479'> +3.2948259e+02 </wgt>
<wgt id='1480'> +3.3093221e+02 </wgt>
<wgt id='1481'> +3.1478480e+02 </wgt>
<wgt id='1482'> +3.2263664e+02 </wgt>
<wgt id='1483'> +3.2987017e+02 </wgt>
<wgt id='1484'> +3.3285695e+02 </wgt>
<wgt id='1485'> +3.0084778e+02 </wgt>
<wgt id='1486'> +3.6516611e+02 </wgt>
<wgt id='1487'> +3.3106617e+02 </wgt>
<wgt id='1488'> +3.3051194e+02 </wgt>
<wgt id='1489'> +3.2947810e+02 </wgt>
<wgt id='1490'> +3.3356333e+02 </wgt>
<wgt id='1491'> +3.3598964e+02 </wgt>
<wgt id='1492'> +3.2489582e+02 </wgt>
<wgt id='1493'> +3.3448950e+02 </wgt>
<wgt id='1494'> +3.2921812e+02 </wgt>
<wgt id='1495'> +3.3243495e+02 </wgt>
<wgt id='1496'> +3.4350108e+02 </wgt>
<wgt id='1497'> +3.2116995e+02 </wgt>
<wgt id='1498'> +3.3119574e+02 </wgt>
<wgt id='1499'> +3.3074478e+02 </wgt>
<wgt id='1500'> +3.5159053e+02 </wgt>
<wgt id='1501'> +3.1826689e+02 </wgt>
<wgt id='1502'> +3.4038366e+02 </wgt>
<wgt id='1503'> +3.2527000e+02 </wgt>
<wgt id='1504'> +3.2509228e+02 </wgt>
<wgt id='1505'> +3.3828608e+02 </wgt>
<wgt id='1506'> +3.1843186e+02 </wgt>
<wgt id='1507'> +3.4463842e+02 </wgt>
<wgt id='1508'> +3.2797285e+02 </wgt>
<wgt id='1509'> +3.3728374e+02 </wgt>
<wgt id='1510'> +3.4066450e+02 </wgt>
<wgt id='1511'> +3.2167322e+02 </wgt>
<wgt id='1512'> +3.3004383e+02 </wgt>
<wgt id='1513'> +3.3200182e+02 </wgt>
<wgt id='1514'> +3.3577717e+02 </wgt>
<wgt id='1515'> +3.2446357e+02 </wgt>
<wgt id='1516'> +3.3627603e+02 </wgt>
<wgt id='1517'> +3.2923370e+02 </wgt>
<wgt id='1518'> +3.2981332e+02 </wgt>
<wgt id='1519'> +3.3271912e+02 </wgt>
<wgt id='1520'> +3.3342920e+02 </wgt>
<wgt id='1521'> +3.2595561e+02 </wgt>
<wgt id='1522'> +3.2247084e+02 </wgt>
<wgt id='1523'> +3.3849995e+02 </wgt>
<wgt id='1524'> +3.1954845e+02 </wgt>
<wgt id='1525'> +3.4834613e+02 </wgt>
<wgt id='1526'> +3.2451674e+02 </wgt>
<wgt id='1527'> +3.3695825e+02 </wgt>
<wgt id='1528'> +3.3466832e+02 </wgt>
<wgt id='1529'> +3.2566186e+02 </wgt>
<wgt id='1530'> +3.2940285e+02 </wgt>
<wgt id='1531'> +3.2701214e+02 </wgt>
<wgt id='1532'> +3.4304281e+02 </wgt>
<wgt id='1533'> +3.2885995e+02 </wgt>
<wgt id='1534'> +3.3212655e+02 </wgt>
<wgt id='1535'> +3.4445505e+02 </wgt>
<wgt id='1536'> +3.4284301e+02 </wgt>
<wgt id='1537'> +3.3856658e+02 </wgt>
<wgt id='1538'> +3.3242799e+02 </wgt>
<wgt id='1539'> +3.3156983e+02 </wgt>
<wgt id='1540'> +3.1486080e+02 </wgt>
<wgt id='1541'> +3.3359249e+02 </wgt>
<wgt id='1542'> +3.2982749e+02 </wgt>
<wgt id='1543'> +3.3250306e+02 </wgt>
<wgt id='1544'> +3.0315649e+02 </wgt>
<wgt id='1545'> +3.6355251e+02 </wgt>
<wgt id='1546'> +4.4693594e+02 </wgt>
<wgt id='1547'> +3.1197439e+02 </wgt>
<wgt id='1548'> +3.1233631e+02 </wgt>
<wgt id='1549'> +3.1157829e+02 </wgt>
<wgt id='1550'> +3.1210167e+02 </wgt>
<wgt id='1551'> +3.1188706e+02 </wgt>
<wgt id='1552'> +3.1325012e+02 </wgt>
<wgt id='1553'> +3.1079344e+02 </wgt>
<wgt id='1554'> +3.1122689e+02 </wgt>
<wgt id='1555'> +3.1280526e+02 </wgt>
<wgt id='1556'> +3.1300252e+02 </wgt>
<wgt id='1557'> +3.1095865e+02 </wgt>
<wgt id='1558'> +3.1244207e+02 </wgt>
<wgt id='1559'> +3.1096091e+02 </wgt>
<wgt id='1560'> +3.1174128e+02 </wgt>
<wgt id='1561'> +3.1238645e+02 </wgt>
<wgt id='1562'> +3.1166222e+02 </wgt>
<wgt id='1563'> +3.1214212e+02 </wgt>
<wgt id='1564'> +3.0990089e+02 </wgt>
<wgt id='1565'> +3.1441840e+02 </wgt>
<wgt id='1566'> +3.1180253e+02 </wgt>
<wgt id='1567'> +3.1209983e+02 </wgt>
<wgt id='1568'> +3.1078662e+02 </wgt>
<wgt id='1569'> +3.1353620e+02 </wgt>
<wgt id='1570'> +3.0904494e+02 </wgt>
<wgt id='1571'> +3.1392977e+02 </wgt>
<wgt id='1572'> +3.1719902e+02 </wgt>
<wgt id='1573'> +3.0620287e+02 </wgt>
<wgt id='1574'> +3.1217181e+02 </wgt>
<wgt id='1575'> +3.1208802e+02 </wgt>
<wgt id='1576'> +3.0780250e+02 </wgt>
<wgt id='1577'> +3.1709134e+02 </wgt>
<wgt id='1578'> +3.0409390e+02 </wgt>
<wgt id='1579'> +3.2124691e+02 </wgt>
<wgt id='1580'> +3.1520042e+02 </wgt>
<wgt id='1581'> +3.0886197e+02 </wgt>
<wgt id='1582'> +3.1354175e+02 </wgt>
<wgt id='1583'> +3.0868766e+02 </wgt>
<wgt id='1584'> +3.1214196e+02 </wgt>
<wgt id='1585'> +3.1179251e+02 </wgt>
<wgt id='1586'> +3.1002817e+02 </wgt>
<wgt id='1587'> +3.1419069e+02 </wgt>
<wgt id='1588'> +3.0745955e+02 </wgt>
<wgt id='1589'> +3.1721990e+02 </wgt>
<wgt id='1590'> +3.1495298e+02 </wgt>
<wgt id='1591'> +3.1159574e+02 </wgt>
<wgt id='1592'> +3.1098350e+02 </wgt>
<wgt id='1593'> +3.1450755e+02 </wgt>
<wgt id='1594'> +3.0633171e+02 </wgt>
<wgt id='1595'> +3.2202003e+02 </wgt>
<wgt id='1596'> +3.0805693e+02 </wgt>
<wgt id='1597'> +3.1417114e+02 </wgt>
<wgt id='1598'> +3.1797763e+02 </wgt>
<wgt id='1599'> +3.1811440e+02 </wgt>
<wgt id='1600'> +3.1780837e+02 </wgt>
<wgt id='1601'> +3.1917766e+02 </wgt>
<wgt id='1602'> +3.1677624e+02 </wgt>
<wgt id='1603'> +3.1858436e+02 </wgt>
<wgt id='1604'> +3.1771911e+02 </wgt>
<wgt id='1605'> +3.1761883e+02 </wgt>
<wgt id='1606'> +3.1832792e+02 </wgt>
<wgt id='1607'> +3.1861710e+02 </wgt>
<wgt id='1608'> +3.1733718e+02 </wgt>
<wgt id='1609'> +3.1566216e+02 </wgt>
<wgt id='1610'> +3.1898151e+02 </wgt>
<wgt id='1611'> +3.1781138e+02 </wgt>
<wgt id='1612'> +3.1815807e+02 </wgt>
<wgt id='1613'> +3.1744483e+02 </wgt>
<wgt id='1614'> +3.1853717e+02 </wgt>
<wgt id='1615'> +3.1465408e+02 </wgt>
<wgt id='1616'> +3.1981921e+02 </wgt>
<wgt id='1617'> +3.1772094e+02 </wgt>
<wgt id='1618'> +3.1829796e+02 </wgt>
<wgt id='1619'> +3.1847446e+02 </wgt>
<wgt id='1620'> +3.1761837e+02 </wgt>
<wgt id='1621'> +3.1850463e+02 </wgt>
<wgt id='1622'> +3.1728312e+02 </wgt>
<wgt id='1623'> +3.1841861e+02 </wgt>
<wgt id='1624'> +3.1688755e+02 </wgt>
<wgt id='1625'> +3.1745159e+02 </wgt>
<wgt id='1626'> +3.1866600e+02 </wgt>
<wgt id='1627'> +3.2247107e+02 </wgt>
<wgt id='1628'> +3.0653577e+02 </wgt>
<wgt id='1629'> +3.1410478e+02 </wgt>
<wgt id='1630'> +3.2640008e+02 </wgt>
<wgt id='1631'> +3.1965679e+02 </wgt>
<wgt id='1632'> +3.1504472e+02 </wgt>
<wgt id='1633'> +3.1207549e+02 </wgt>
<wgt id='1634'> +3.2095921e+02 </wgt>
<wgt id='1635'> +3.1772175e+02 </wgt>
<wgt id='1636'> +3.1873651e+02 </wgt>
<wgt id='1637'> +3.1515465e+02 </wgt>
<wgt id='1638'> +3.2010271e+02 </wgt>
<wgt id='1639'> +3.2379020e+02 </wgt>
<wgt id='1640'> +3.0960050e+02 </wgt>
<wgt id='1641'> +3.1849845e+02 </wgt>
<wgt id='1642'> +3.1510407e+02 </wgt>
<wgt id='1643'> +3.2148153e+02 </wgt>
<wgt id='1644'> +3.1540570e+02 </wgt>
<wgt id='1645'> +3.1683710e+02 </wgt>
<wgt id='1646'> +3.1848654e+02 </wgt>
<wgt id='1647'> +3.2367788e+02 </wgt>
<wgt id='1648'> +3.1398664e+02 </wgt>
<wgt id='1649'> +7.4493331e+02 </wgt>
<wgt id='1650'> +2.8416030e+02 </wgt>
<wgt id='1651'> +2.8404516e+02 </wgt>
<wgt id='1652'> +2.8424697e+02 </wgt>
<wgt id='1653'> +2.8415569e+02 </wgt>
<wgt id='1654'> +2.8415079e+02 </wgt>
<wgt id='1655'> +2.8352764e+02 </wgt>
<wgt id='1656'> +2.8447457e+02 </wgt>
<wgt id='1657'> +2.8461054e+02 </wgt>
<wgt id='1658'> +2.8473658e+02 </wgt>
<wgt id='1659'> +2.8538544e+02 </wgt>
<wgt id='1660'> +2.8386188e+02 </wgt>
<wgt id='1661'> +2.8435076e+02 </wgt>
<wgt id='1662'> +2.8329254e+02 </wgt>
<wgt id='1663'> +2.8341745e+02 </wgt>
<wgt id='1664'> +2.8479539e+02 </wgt>
<wgt id='1665'> +2.8382662e+02 </wgt>
<wgt id='1666'> +2.8489018e+02 </wgt>
<wgt id='1667'> +2.8458390e+02 </wgt>
<wgt id='1668'> +2.8584519e+02 </wgt>
<wgt id='1669'> +2.8223142e+02 </wgt>
<wgt id='1670'> +2.8720433e+02 </wgt>
<wgt id='1671'> +2.8305909e+02 </wgt>
<wgt id='1672'> +2.8960982e+02 </wgt>
<wgt id='1673'> +2.8192710e+02 </wgt>
<wgt id='1674'> +2.8019148e+02 </wgt>
<wgt id='1675'> +2.8035218e+02 </wgt>
<wgt id='1676'> +2.8356962e+02 </wgt>
<wgt id='1677'> +2.8524670e+02 </wgt>
<wgt id='1678'> +2.8409391e+02 </wgt>
<wgt id='1679'> +3.0030234e+02 </wgt>
<wgt id='1680'> +3.1982808e+02 </wgt>
<wgt id='1681'> +3.1436960e+02 </wgt>
<wgt id='1682'> +3.1852150e+02 </wgt>
<wgt id='1683'> +3.2101977e+02 </wgt>
<wgt id='1684'> +3.1824828e+02 </wgt>
<wgt id='1685'> +3.2114659e+02 </wgt>
<wgt id='1686'> +3.1810822e+02 </wgt>
<wgt id='1687'> +3.2048780e+02 </wgt>
<wgt id='1688'> +3.1678469e+02 </wgt>
<wgt id='1689'> +3.2017238e+02 </wgt>
<wgt id='1690'> +3.1452658e+02 </wgt>
<wgt id='1691'> +3.1691529e+02 </wgt>
<wgt id='1692'> +3.2535053e+02 </wgt>
<wgt id='1693'> +3.2399672e+02 </wgt>
<wgt id='1694'> +3.2360400e+02 </wgt>
<wgt id='1695'> +3.2064012e+02 </wgt>
<wgt id='1696'> +3.1860697e+02 </wgt>
<wgt id='1697'> +3.2476192e+02 </wgt>
<wgt id='1698'> +3.2152791e+02 </wgt>
<wgt id='1699'> +3.2271596e+02 </wgt>
<wgt id='1700'> +3.0893752e+02 </wgt>
<wgt id='1701'> +3.1656547e+02 </wgt>
<wgt id='1702'> +3.2731812e+02 </wgt>
<wgt id='1703'> +3.1437594e+02 </wgt>
<wgt id='1704'> +3.2050558e+02 </wgt>
<wgt id='1705'> +3.2062053e+02 </wgt>
<wgt id='1706'> +3.1846389e+02 </wgt>
<wgt id='1707'> +3.2012438e+02 </wgt>
<wgt id='1708'> +3.1857441e+02 </wgt>
<wgt id='1709'> +3.1966345e+02 </wgt>
<wgt id='1710'> +3.1987163e+02 </wgt>
<wgt id='1711'> +3.1980441e+02 </wgt>
<wgt id='1712'> +3.1942864e+02 </wgt>
<wgt id='1713'> +3.1852429e+02 </wgt>
<wgt id='1714'> +3.1959767e+02 </wgt>
<wgt id='1715'> +3.2076546e+02 </wgt>
<wgt id='1716'> +3.1824937e+02 </wgt>
<wgt id='1717'> +3.1978271e+02 </wgt>
<wgt id='1718'> +3.1959547e+02 </wgt>
<wgt id='1719'> +3.1982189e+02 </wgt>
<wgt id='1720'> +3.2016768e+02 </wgt>
<wgt id='1721'> +3.2031472e+02 </wgt>
<wgt id='1722'> +3.1953568e+02 </wgt>
<wgt id='1723'> +3.1920263e+02 </wgt>
<wgt id='1724'> +3.2037338e+02 </wgt>
<wgt id='1725'> +3.1997370e+02 </wgt>
<wgt id='1726'> +3.2060817e+02 </wgt>
<wgt id='1727'> +3.1918329e+02 </wgt>
<wgt id='1728'> +3.1916674e+02 </wgt>
<wgt id='1729'> +3.1999642e+02 </wgt>
<wgt id='1730'> +3.1981508e+02 </wgt>
<wgt id='1731'> +3.2007346e+02 </wgt>
<wgt id='1732'> +3.1939988e+02 </wgt>
<wgt id='1733'> +3.1915540e+02 </wgt>
<wgt id='1734'> +3.1973545e+02 </wgt>
<wgt id='1735'> +3.1988676e+02 </wgt>
<wgt id='1736'> +3.1961388e+02 </wgt>
<wgt id='1737'> +3.1990880e+02 </wgt>
<wgt id='1738'> +3.2016726e+02 </wgt>
<wgt id='1739'> +3.1969260e+02 </wgt>
<wgt id='1740'> +3.1962358e+02 </wgt>
<wgt id='1741'> +3.1999474e+02 </wgt>
<wgt id='1742'> +3.1969887e+02 </wgt>
<wgt id='1743'> +3.1987211e+02 </wgt>
<wgt id='1744'> +3.1984914e+02 </wgt>
<wgt id='1745'> +3.2015173e+02 </wgt>
<wgt id='1746'> +3.2025107e+02 </wgt>
<wgt id='1747'> +3.1999622e+02 </wgt>
<wgt id='1748'> +3.2003801e+02 </wgt>
<wgt id='1749'> +3.2004726e+02 </wgt>
<wgt id='1750'> +3.1979093e+02 </wgt>
<wgt id='1751'> +3.1941201e+02 </wgt>
<wgt id='1752'> +3.1953455e+02 </wgt>
<wgt id='1753'> +3.1949151e+02 </wgt>
<wgt id='1754'> +3.1979370e+02 </wgt>
<wgt id='1755'> +3.1957172e+02 </wgt>
<wgt id='1756'> +3.1991702e+02 </wgt>
<wgt id='1757'> +3.1949934e+02 </wgt>
<wgt id='1758'> +3.1994897e+02 </wgt>
<wgt id='1759'> +3.2024799e+02 </wgt>
<wgt id='1760'> +3.1960992e+02 </wgt>
<wgt id='1761'> +3.2001900e+02 </wgt>
<wgt id='1762'> +3.1961891e+02 </wgt>
<wgt id='1763'> +3.1997206e+02 </wgt>
<wgt id='1764'> +3.2017909e+02 </wgt>
<wgt id='1765'> +3.1996451e+02 </wgt>
<wgt id='1766'> +3.2036244e+02 </wgt>
<wgt id='1767'> +3.1989183e+02 </wgt>
<wgt id='1768'> +3.1983236e+02 </wgt>
<wgt id='1769'> +3.1987628e+02 </wgt>
<wgt id='1770'> +3.1975476e+02 </wgt>
<wgt id='1771'> +3.1965656e+02 </wgt>
<wgt id='1772'> +3.1974640e+02 </wgt>
<wgt id='1773'> +3.1965606e+02 </wgt>
<wgt id='1774'> +3.1981129e+02 </wgt>
<wgt id='1775'> +3.1978518e+02 </wgt>
<wgt id='1776'> +3.1972108e+02 </wgt>
<wgt id='1777'> +3.1995105e+02 </wgt>
<wgt id='1778'> +3.1994258e+02 </wgt>
<wgt id='1779'> +3.1989594e+02 </wgt>
<wgt id='1780'> +3.1982511e+02 </wgt>
<wgt id='1781'> +3.0018872e+02 </wgt>
<wgt id='1782'> +3.4226269e+02 </wgt>
<wgt id='1783'> +3.1790105e+02 </wgt>
<wgt id='1784'> +3.2062770e+02 </wgt>
<wgt id='1785'> +3.1552124e+02 </wgt>
<wgt id='1786'> +3.2195349e+02 </wgt>
<wgt id='1787'> +3.2089817e+02 </wgt>
<wgt id='1788'> +3.2065051e+02 </wgt>
<wgt id='1789'> +3.1983015e+02 </wgt>
<wgt id='1790'> +3.1681393e+02 </wgt>
<wgt id='1791'> +3.1630243e+02 </wgt>
<wgt id='1792'> +3.2003354e+02 </wgt>
<wgt id='1793'> +3.2079717e+02 </wgt>
<wgt id='1794'> +3.1498443e+02 </wgt>
<wgt id='1795'> +3.2017803e+02 </wgt>
<wgt id='1796'> +3.2616607e+02 </wgt>
<wgt id='1797'> +3.1894576e+02 </wgt>
<wgt id='1798'> +3.1265970e+02 </wgt>
<wgt id='1799'> +3.1308163e+02 </wgt>
<wgt id='1800'> +3.1926183e+02 </wgt>
<wgt id='1801'> +3.2087125e+02 </wgt>
<wgt id='1802'> +3.2114633e+02 </wgt>
<wgt id='1803'> +3.1347810e+02 </wgt>
<wgt id='1804'> +3.0752333e+02 </wgt>
<wgt id='1805'> +3.2020607e+02 </wgt>
<wgt id='1806'> +3.0920655e+02 </wgt>
<wgt id='1807'> +3.1461394e+02 </wgt>
<wgt id='1808'> +3.1766314e+02 </wgt>
<wgt id='1809'> +3.1547164e+02 </wgt>
<wgt id='1810'> +3.1886769e+02 </wgt>
<wgt id='1811'> +3.1949448e+02 </wgt>
<wgt id='1812'> +3.1902336e+02 </wgt>
<wgt id='1813'> +3.1859090e+02 </wgt>
<wgt id='1814'> +3.1707981e+02 </wgt>
<wgt id='1815'> +3.1829486e+02 </wgt>
<wgt id='1816'> +3.1874313e+02 </wgt>
<wgt id='1817'> +3.1841435e+02 </wgt>
<wgt id='1818'> +3.1878288e+02 </wgt>
<wgt id='1819'> +3.1824826e+02 </wgt>
<wgt id='1820'> +3.1854259e+02 </wgt>
<wgt id='1821'> +3.1871639e+02 </wgt>
<wgt id='1822'> +3.1807877e+02 </wgt>
<wgt id='1823'> +3.1696296e+02 </wgt>
<wgt id='1824'> +3.1802114e+02 </wgt>
<wgt id='1825'> +3.1906148e+02 </wgt>
<wgt id='1826'> +3.1707329e+02 </wgt>
<wgt id='1827'> +3.1818984e+02 </wgt>
<wgt id='1828'> +3.1820405e+02 </wgt>
<wgt id='1829'> +3.1724381e+02 </wgt>
<wgt id='1830'> +3.1804600e+02 </wgt>
<wgt id='1831'> +3.1831424e+02 </wgt>
<wgt id='1832'> +3.1765577e+02 </wgt>
<wgt id='1833'> +3.1788298e+02 </wgt>
<wgt id='1834'> +3.1836057e+02 </wgt>
<wgt id='1835'> +3.1856111e+02 </wgt>
<wgt id='1836'> +3.1811275e+02 </wgt>
<wgt id='1837'> +3.1746917e+02 </wgt>
<wgt id='1838'> +3.1771459e+02 </wgt>
<wgt id='1839'> +3.1804213e+02 </wgt>
<wgt id='1840'> +3.1778167e+02 </wgt>
<wgt id='1841'> +3.1754340e+02 </wgt>
<wgt id='1842'> +3.1770796e+02 </wgt>
<wgt id='1843'> +3.1795703e+02 </wgt>
<wgt id='1844'> +3.1772900e+02 </wgt>
<wgt id='1845'> +3.1807479e+02 </wgt>
<wgt id='1846'> +3.1801014e+02 </wgt>
<wgt id='1847'> +3.1807167e+02 </wgt>
<wgt id='1848'> +3.1769316e+02 </wgt>
<wgt id='1849'> +3.1771727e+02 </wgt>
<wgt id='1850'> +3.1767664e+02 </wgt>
<wgt id='1851'> +3.1790170e+02 </wgt>
<wgt id='1852'> +3.1831211e+02 </wgt>
<wgt id='1853'> +3.1782023e+02 </wgt>
<wgt id='1854'> +3.1800613e+02 </wgt>
<wgt id='1855'> +3.1808628e+02 </wgt>
<wgt id='1856'> +3.1784358e+02 </wgt>
<wgt id='1857'> +3.1811040e+02 </wgt>
<wgt id='1858'> +3.1798235e+02 </wgt>
<wgt id='1859'> +3.1786223e+02 </wgt>
<wgt id='1860'> +3.1806309e+02 </wgt>
<wgt id='1861'> +3.1811229e+02 </wgt>
<wgt id='1862'> +3.1769126e+02 </wgt>
<wgt id='1863'> +3.1826463e+02 </wgt>
<wgt id='1864'> +3.1788354e+02 </wgt>
<wgt id='1865'> +3.1793337e+02 </wgt>
<wgt id='1866'> +3.1781748e+02 </wgt>
<wgt id='1867'> +3.1760416e+02 </wgt>
<wgt id='1868'> +3.1755481e+02 </wgt>
<wgt id='1869'> +3.1804583e+02 </wgt>
<wgt id='1870'> +3.1743703e+02 </wgt>
<wgt id='1871'> +3.1770035e+02 </wgt>
<wgt id='1872'> +3.1774129e+02 </wgt>
<wgt id='1873'> +3.1802421e+02 </wgt>
<wgt id='1874'> +3.1778956e+02 </wgt>
<wgt id='1875'> +3.1782899e+02 </wgt>
<wgt id='1876'> +3.1774608e+02 </wgt>
<wgt id='1877'> +3.1773753e+02 </wgt>
<wgt id='1878'> +3.1789318e+02 </wgt>
<wgt id='1879'> +3.1780142e+02 </wgt>
<wgt id='1880'> +3.1795381e+02 </wgt>
<wgt id='1881'> +3.1786780e+02 </wgt>
<wgt id='1882'> +3.1777606e+02 </wgt>
<wgt id='1883'> +3.1789319e+02 </wgt>
<wgt id='1884'> +2.9660854e+02 </wgt>
<wgt id='1885'> +3.4182111e+02 </wgt>
<wgt id='1886'> +3.1988068e+02 </wgt>
<wgt id='1887'> +3.1537530e+02 </wgt>
<wgt id='1888'> +3.1496001e+02 </wgt>
<wgt id='1889'> +3.1855210e+02 </wgt>
<wgt id='1890'> +3.2034262e+02 </wgt>
<wgt id='1891'> +3.1314167e+02 </wgt>
<wgt id='1892'> +3.1258767e+02 </wgt>
<wgt id='1893'> +3.1951898e+02 </wgt>
<wgt id='1894'> +3.1589017e+02 </wgt>
<wgt id='1895'> +3.1767556e+02 </wgt>
<wgt id='1896'> +3.1806359e+02 </wgt>
<wgt id='1897'> +3.1628445e+02 </wgt>
<wgt id='1898'> +3.1627143e+02 </wgt>
<wgt id='1899'> +3.2060455e+02 </wgt>
<wgt id='1900'> +3.2061811e+02 </wgt>
<wgt id='1901'> +3.2181745e+02 </wgt>
<wgt id='1902'> +3.2113047e+02 </wgt>
<wgt id='1903'> +3.2004614e+02 </wgt>
<wgt id='1904'> +3.2163932e+02 </wgt>
<wgt id='1905'> +3.1027098e+02 </wgt>
<wgt id='1906'> +3.2078873e+02 </wgt>
<wgt id='1907'> +3.1898376e+02 </wgt>
<wgt id='1908'> +3.2856327e+02 </wgt>
<wgt id='1909'> +3.1974808e+02 </wgt>
<wgt id='1910'> +3.1962738e+02 </wgt>
<wgt id='1911'> +3.1960901e+02 </wgt>
<wgt id='1912'> +3.1855922e+02 </wgt>
<wgt id='1913'> +3.1918640e+02 </wgt>
<wgt id='1914'> +3.1730879e+02 </wgt>
<wgt id='1915'> +3.2049993e+02 </wgt>
<wgt id='1916'> +3.2005994e+02 </wgt>
<wgt id='1917'> +3.0018872e+02 </wgt>
<wgt id='1918'> +3.4226269e+02 </wgt>
<wgt id='1919'> +3.1788496e+02 </wgt>
<wgt id='1920'> +3.1760699e+02 </wgt>
<wgt id='1921'> +3.1404136e+02 </wgt>
<wgt id='1922'> +3.1896316e+02 </wgt>
<wgt id='1923'> +3.1080269e+02 </wgt>
<wgt id='1924'> +3.3212376e+02 </wgt>
<wgt id='1925'> +3.1811450e+02 </wgt>
<wgt id='1926'> +3.1933693e+02 </wgt>
<wgt id='1927'> +3.1840679e+02 </wgt>
<wgt id='1928'> +3.1919731e+02 </wgt>
<wgt id='1929'> +3.1690094e+02 </wgt>
<wgt id='1930'> +3.1707482e+02 </wgt>
<wgt id='1931'> +3.1607375e+02 </wgt>
<wgt id='1932'> +3.1737975e+02 </wgt>
<wgt id='1933'> +3.1645134e+02 </wgt>
<wgt id='1934'> +3.1382553e+02 </wgt>
<wgt id='1935'> +3.1922957e+02 </wgt>
<wgt id='1936'> +3.1987261e+02 </wgt>
<wgt id='1937'> +3.1803550e+02 </wgt>
<wgt id='1938'> +3.2004194e+02 </wgt>
<wgt id='1939'> +3.1876731e+02 </wgt>
<wgt id='1940'> +3.1935824e+02 </wgt>
<wgt id='1941'> +3.1569910e+02 </wgt>
<wgt id='1942'> +3.1860625e+02 </wgt>
<wgt id='1943'> +3.1531577e+02 </wgt>
<wgt id='1944'> +3.1593136e+02 </wgt>
<wgt id='1945'> +3.1815252e+02 </wgt>
<wgt id='1946'> +3.2065431e+02 </wgt>
<wgt id='1947'> +3.1716499e+02 </wgt>
<wgt id='1948'> +3.0780111e+02 </wgt>
<wgt id='1949'> +3.1763447e+02 </wgt>
<wgt id='1950'> +2.9660854e+02 </wgt>
<wgt id='1951'> +3.4182111e+02 </wgt>
<wgt id='1952'> +2.1583167e+02 </wgt>
<wgt id='1953'> +2.1559952e+02 </wgt>
<wgt id='1954'> +2.1606278e+02 </wgt>
<wgt id='1955'> +2.1607794e+02 </wgt>
<wgt id='1956'> +2.1558507e+02 </wgt>
<wgt id='1957'> +2.1569410e+02 </wgt>
<wgt id='1958'> +2.1596942e+02 </wgt>
<wgt id='1959'> +2.1648031e+02 </wgt>
<wgt id='1960'> +2.1519585e+02 </wgt>
<wgt id='1961'> +2.1554785e+02 </wgt>
<wgt id='1962'> +2.1614184e+02 </wgt>
<wgt id='1963'> +2.1495573e+02 </wgt>
<wgt id='1964'> +2.1675334e+02 </wgt>
<wgt id='1965'> +2.1622279e+02 </wgt>
<wgt id='1966'> +2.1544597e+02 </wgt>
<wgt id='1967'> +2.1723700e+02 </wgt>
<wgt id='1968'> +2.1452052e+02 </wgt>
<wgt id='1969'> +2.1640362e+02 </wgt>
<wgt id='1970'> +2.1528857e+02 </wgt>
<wgt id='1971'> +2.1943240e+02 </wgt>
<wgt id='1972'> +2.1247412e+02 </wgt>
<wgt id='1973'> +2.1620831e+02 </wgt>
<wgt id='1974'> +2.1547330e+02 </wgt>
<wgt id='1975'> +2.1323564e+02 </wgt>
<wgt id='1976'> +2.1883923e+02 </wgt>
<wgt id='1977'> +2.1254021e+02 </wgt>
<wgt id='1978'> +2.1917419e+02 </wgt>
<wgt id='1979'> +2.2005240e+02 </wgt>
<wgt id='1980'> +2.1245863e+02 </wgt>
<wgt id='1981'> +2.1583167e+02 </wgt>
<wgt id='1982'> +2.1713587e+02 </wgt>
<wgt id='1983'> +2.1402716e+02 </wgt>
<wgt id='1984'> +2.1718385e+02 </wgt>
<wgt id='1985'> +2.1463555e+02 </wgt>
<wgt id='1986'> +2.1049958e+02 </wgt>
<wgt id='1987'> +2.2707967e+02 </wgt>
<wgt id='1988'> +2.1638378e+02 </wgt>
<wgt id='1989'> +2.1560980e+02 </wgt>
<wgt id='1990'> +2.1786163e+02 </wgt>
<wgt id='1991'> +2.1403137e+02 </wgt>
<wgt id='1992'> +2.1518274e+02 </wgt>
<wgt id='1993'> +2.1519606e+02 </wgt>
<wgt id='1994'> +2.2216159e+02 </wgt>
<wgt id='1995'> +2.7331868e+02 </wgt>
<wgt id='1996'> +2.7303283e+02 </wgt>
<wgt id='1997'> +2.7353528e+02 </wgt>
<wgt id='1998'> +2.7345946e+02 </wgt>
<wgt id='1999'> +2.7310942e+02 </wgt>
<wgt id='2000'> +2.7345032e+02 </wgt>
<wgt id='2001'> +2.7311915e+02 </wgt>
<wgt id='2002'> +2.7455951e+02 </wgt>
<wgt id='2003'> +2.7203951e+02 </wgt>
<wgt id='2004'> +2.7213370e+02 </wgt>
<wgt id='2005'> +2.7447421e+02 </wgt>
<wgt id='2006'> +2.7426120e+02 </wgt>
<wgt id='2007'> +2.7234847e+02 </wgt>
<wgt id='2008'> +2.7343378e+02 </wgt>
<wgt id='2009'> +2.7313785e+02 </wgt>
<wgt id='2010'> +2.7466612e+02 </wgt>
<wgt id='2011'> +2.7178936e+02 </wgt>
<wgt id='2012'> +2.7169979e+02 </wgt>
<wgt id='2013'> +2.7493679e+02 </wgt>
<wgt id='2014'> +2.7685137e+02 </wgt>
<wgt id='2015'> +2.6985808e+02 </wgt>
<wgt id='2016'> +2.8159844e+02 </wgt>
<wgt id='2017'> +2.6561909e+02 </wgt>
<wgt id='2018'> +2.6647142e+02 </wgt>
<wgt id='2019'> +2.8025017e+02 </wgt>
<wgt id='2020'> +2.6579517e+02 </wgt>
<wgt id='2021'> +2.8059492e+02 </wgt>
<wgt id='2022'> +2.6998145e+02 </wgt>
<wgt id='2023'> +2.7702129e+02 </wgt>
<wgt id='2024'> +2.7299049e+02 </wgt>
<wgt id='2025'> +2.7414714e+02 </wgt>
<wgt id='2026'> +2.6945391e+02 </wgt>
<wgt id='2027'> +2.7452744e+02 </wgt>
<wgt id='2028'> +2.7250829e+02 </wgt>
<wgt id='2029'> +2.5368762e+02 </wgt>
<wgt id='2030'> +2.8771442e+02 </wgt>
<wgt id='2031'> +2.7358601e+02 </wgt>
<wgt id='2032'> +2.7245218e+02 </wgt>
<wgt id='2033'> +2.7784577e+02 </wgt>
<wgt id='2034'> +2.5172559e+02 </wgt>
<wgt id='2035'> +2.7693211e+02 </wgt>
<wgt id='2036'> +2.6804997e+02 </wgt>
<wgt id='2037'> +2.8520560e+02 </wgt>
<wgt id='2038'> +3.2965423e+02 </wgt>
<wgt id='2039'> +3.2961967e+02 </wgt>
<wgt id='2040'> +3.2958500e+02 </wgt>
<wgt id='2041'> +3.2955095e+02 </wgt>
<wgt id='2042'> +3.2951594e+02 </wgt>
<wgt id='2043'> +3.2948171e+02 </wgt>
<wgt id='2044'> +3.2944720e+02 </wgt>
<wgt id='2045'> +3.2941242e+02 </wgt>
<wgt id='2046'> +3.2937845e+02 </wgt>
<wgt id='2047'> +3.2934348e+02 </wgt>
<wgt id='2048'> +3.2930929e+02 </wgt>
<wgt id='2049'> +3.2927477e+02 </wgt>
<wgt id='2050'> +3.2923993e+02 </wgt>
<wgt id='2051'> +3.2920593e+02 </wgt>
<wgt id='2052'> +3.2917136e+02 </wgt>
<wgt id='2053'> +3.2913681e+02 </wgt>
<wgt id='2054'> +3.2910235e+02 </wgt>
<wgt id='2055'> +3.2906754e+02 </wgt>
<wgt id='2056'> +3.2903343e+02 </wgt>
<wgt id='2057'> +3.2899890e+02 </wgt>
<wgt id='2058'> +3.2896435e+02 </wgt>
<wgt id='2059'> +3.2892990e+02 </wgt>
<wgt id='2060'> +3.2889542e+02 </wgt>
<wgt id='2061'> +3.2886106e+02 </wgt>
<wgt id='2062'> +3.2882642e+02 </wgt>
<wgt id='2063'> +3.2879187e+02 </wgt>
<wgt id='2064'> +3.2875745e+02 </wgt>
<wgt id='2065'> +3.2872307e+02 </wgt>
<wgt id='2066'> +3.2868842e+02 </wgt>
<wgt id='2067'> +3.2865400e+02 </wgt>
<wgt id='2068'> +3.2861946e+02 </wgt>
<wgt id='2069'> +3.1398365e+02 </wgt>
<wgt id='2070'> +3.1665141e+02 </wgt>
<wgt id='2071'> +3.1162011e+02 </wgt>
<wgt id='2072'> +3.1799548e+02 </wgt>
<wgt id='2073'> +3.1694178e+02 </wgt>
<wgt id='2074'> +3.1670740e+02 </wgt>
<wgt id='2075'> +3.1591242e+02 </wgt>
<wgt id='2076'> +3.1292086e+02 </wgt>
<wgt id='2077'> +3.1240420e+02 </wgt>
<wgt id='2078'> +3.1609631e+02 </wgt>
<wgt id='2079'> +3.1684075e+02 </wgt>
<wgt id='2080'> +3.1113584e+02 </wgt>
<wgt id='2081'> +3.1624320e+02 </wgt>
<wgt id='2082'> +3.2215690e+02 </wgt>
<wgt id='2083'> +3.1499982e+02 </wgt>
<wgt id='2084'> +3.0875678e+02 </wgt>
<wgt id='2085'> +3.0925972e+02 </wgt>
<wgt id='2086'> +3.1531001e+02 </wgt>
<wgt id='2087'> +3.1691255e+02 </wgt>
<wgt id='2088'> +3.1721028e+02 </wgt>
<wgt id='2089'> +3.0964713e+02 </wgt>
<wgt id='2090'> +3.0371630e+02 </wgt>
<wgt id='2091'> +3.1626578e+02 </wgt>
<wgt id='2092'> +3.0538671e+02 </wgt>
<wgt id='2093'> +3.1071834e+02 </wgt>
<wgt id='2094'> +3.1373978e+02 </wgt>
<wgt id='2095'> +3.1156332e+02 </wgt>
<wgt id='2096'> +3.1495695e+02 </wgt>
<wgt id='2097'> +3.1557076e+02 </wgt>
<wgt id='2098'> +3.1508304e+02 </wgt>
<wgt id='2099'> +3.1465363e+02 </wgt>
<wgt id='2100'> +3.1319567e+02 </wgt>
<wgt id='2101'> +3.1436911e+02 </wgt>
<wgt id='2102'> +3.1481290e+02 </wgt>
<wgt id='2103'> +3.1448949e+02 </wgt>
<wgt id='2104'> +3.1485338e+02 </wgt>
<wgt id='2105'> +3.1432674e+02 </wgt>
<wgt id='2106'> +3.1462196e+02 </wgt>
<wgt id='2107'> +3.1478859e+02 </wgt>
<wgt id='2108'> +3.1415195e+02 </wgt>
<wgt id='2109'> +3.1305674e+02 </wgt>
<wgt id='2110'> +3.1409244e+02 </wgt>
<wgt id='2111'> +3.1512221e+02 </wgt>
<wgt id='2112'> +3.1317925e+02 </wgt>
<wgt id='2113'> +3.1427017e+02 </wgt>
<wgt id='2114'> +3.1427590e+02 </wgt>
<wgt id='2115'> +3.1333747e+02 </wgt>
<wgt id='2116'> +3.1411880e+02 </wgt>
<wgt id='2117'> +3.1439293e+02 </wgt>
<wgt id='2118'> +3.1373590e+02 </wgt>
<wgt id='2119'> +3.1396852e+02 </wgt>
<wgt id='2120'> +3.1443562e+02 </wgt>
<wgt id='2121'> +3.1463235e+02 </wgt>
<wgt id='2122'> +3.1419842e+02 </wgt>
<wgt id='2123'> +3.1356150e+02 </wgt>
<wgt id='2124'> +3.1380274e+02 </wgt>
<wgt id='2125'> +3.1411602e+02 </wgt>
<wgt id='2126'> +3.1386673e+02 </wgt>
<wgt id='2127'> +3.1363747e+02 </wgt>
<wgt id='2128'> +3.1379544e+02 </wgt>
<wgt id='2129'> +3.1404236e+02 </wgt>
<wgt id='2130'> +3.1381554e+02 </wgt>
<wgt id='2131'> +3.1415193e+02 </wgt>
<wgt id='2132'> +3.1409056e+02 </wgt>
<wgt id='2133'> +3.1415294e+02 </wgt>
<wgt id='2134'> +3.1377681e+02 </wgt>
<wgt id='2135'> +3.1380196e+02 </wgt>
<wgt id='2136'> +3.1375932e+02 </wgt>
<wgt id='2137'> +3.1398468e+02 </wgt>
<wgt id='2138'> +3.1438818e+02 </wgt>
<wgt id='2139'> +3.1390029e+02 </wgt>
<wgt id='2140'> +3.1409387e+02 </wgt>
<wgt id='2141'> +3.1416694e+02 </wgt>
<wgt id='2142'> +3.1392200e+02 </wgt>
<wgt id='2143'> +3.1419237e+02 </wgt>
<wgt id='2144'> +3.1406468e+02 </wgt>
<wgt id='2145'> +3.1395194e+02 </wgt>
<wgt id='2146'> +3.1414370e+02 </wgt>
<wgt id='2147'> +3.1419820e+02 </wgt>
<wgt id='2148'> +3.1377391e+02 </wgt>
<wgt id='2149'> +3.1433924e+02 </wgt>
<wgt id='2150'> +3.1396952e+02 </wgt>
<wgt id='2151'> +3.1401711e+02 </wgt>
<wgt id='2152'> +3.1390075e+02 </wgt>
<wgt id='2153'> +3.1368924e+02 </wgt>
<wgt id='2154'> +3.1364439e+02 </wgt>
<wgt id='2155'> +3.1413226e+02 </wgt>
<wgt id='2156'> +3.1352129e+02 </wgt>
<wgt id='2157'> +3.1378350e+02 </wgt>
<wgt id='2158'> +3.1382438e+02 </wgt>
<wgt id='2159'> +3.1410438e+02 </wgt>
<wgt id='2160'> +3.1387057e+02 </wgt>
<wgt id='2161'> +3.1391006e+02 </wgt>
<wgt id='2162'> +3.1383087e+02 </wgt>
<wgt id='2163'> +3.1381795e+02 </wgt>
<wgt id='2164'> +3.1397678e+02 </wgt>
<wgt id='2165'> +3.1388722e+02 </wgt>
<wgt id='2166'> +3.1403644e+02 </wgt>
<wgt id='2167'> +3.1395038e+02 </wgt>
<wgt id='2168'> +3.1386086e+02 </wgt>
<wgt id='2169'> +3.1397613e+02 </wgt>
<wgt id='2170'> +3.1397983e+02 </wgt>
<wgt id='2171'> +3.1395849e+02 </wgt>
<wgt id='2172'> +3.1398766e+02 </wgt>
<wgt id='2173'> +3.1398828e+02 </wgt>
<wgt id='2174'> +3.1399529e+02 </wgt>
<wgt id='2175'> +3.1398535e+02 </wgt>
<wgt id='2176'> +3.1396688e+02 </wgt>
<wgt id='2177'> +3.1820950e+02 </wgt>
<wgt id='2178'> +3.0008090e+02 </wgt>
<wgt id='2179'> +3.2665652e+02 </wgt>
<wgt id='2180'> +2.9463064e+02 </wgt>
<wgt id='2181'> +3.1010260e+02 </wgt>
<wgt id='2182'> +2.9887650e+02 </wgt>
<wgt id='2183'> +3.2983378e+02 </wgt>
<wgt id='2184'> +3.1862738e+02 </wgt>
<wgt id='2185'> +3.2378147e+02 </wgt>
<wgt id='2186'> +3.1168797e+02 </wgt>
<wgt id='2187'> +2.9216065e+02 </wgt>
<wgt id='2188'> +3.3985023e+02 </wgt>
<wgt id='2189'> +3.1790587e+02 </wgt>
<wgt id='2190'> +3.3937238e+02 </wgt>
<wgt id='2191'> +3.4011826e+02 </wgt>
<wgt id='2192'> +3.3661535e+02 </wgt>
<wgt id='2193'> +3.1444519e+02 </wgt>
<wgt id='2194'> +3.5035041e+02 </wgt>
<wgt id='2195'> +3.2396844e+02 </wgt>
<wgt id='2196'> +3.1545649e+02 </wgt>
<wgt id='2197'> +3.0570926e+02 </wgt>
<wgt id='2198'> +3.1925782e+02 </wgt>
<wgt id='2199'> +2.9560832e+02 </wgt>
<wgt id='2200'> +3.0090930e+02 </wgt>
<wgt id='2201'> +2.7803002e+02 </wgt>
<wgt id='2202'> +3.2034984e+02 </wgt>
<wgt id='2203'> +3.1501007e+02 </wgt>
<wgt id='2204'> +3.5381946e+02 </wgt>
<wgt id='2205'> +3.4152832e+02 </wgt>
<wgt id='2206'> +3.2685768e+02 </wgt>
<wgt id='2207'> +3.0842833e+02 </wgt>
<wgt id='2208'> +3.0920189e+02 </wgt>
<wgt id='2209'> +3.2143600e+02 </wgt>
<wgt id='2210'> +3.1618982e+02 </wgt>
<wgt id='2211'> +3.0790180e+02 </wgt>
<wgt id='2212'> +3.2940718e+02 </wgt>
<wgt id='2213'> +3.1382252e+02 </wgt>
<wgt id='2214'> +3.4464180e+02 </wgt>
<wgt id='2215'> +3.1017607e+02 </wgt>
<wgt id='2216'> +3.0947176e+02 </wgt>
<wgt id='2217'> +3.1134959e+02 </wgt>
<wgt id='2218'> +3.0524065e+02 </wgt>
<wgt id='2219'> +3.2683176e+02 </wgt>
<wgt id='2220'> +2.9303886e+02 </wgt>
<wgt id='2221'> +2.9517172e+02 </wgt>
<wgt id='2222'> +2.9251650e+02 </wgt>
<wgt id='2223'> +2.9062580e+02 </wgt>
<wgt id='2224'> +3.2725369e+02 </wgt>
<wgt id='2225'> +3.2348892e+02 </wgt>
<wgt id='2226'> +3.2741276e+02 </wgt>
<wgt id='2227'> +3.1921282e+02 </wgt>
<wgt id='2228'> +3.0966852e+02 </wgt>
<wgt id='2229'> +3.0105593e+02 </wgt>
<wgt id='2230'> +3.1523543e+02 </wgt>
<wgt id='2231'> +3.3481118e+02 </wgt>
<wgt id='2232'> +3.1366032e+02 </wgt>
<wgt id='2233'> +3.3321479e+02 </wgt>
<wgt id='2234'> +3.2323030e+02 </wgt>
<wgt id='2235'> +3.2070798e+02 </wgt>
<wgt id='2236'> +3.2272136e+02 </wgt>
<wgt id='2237'> +3.1126223e+02 </wgt>
<wgt id='2238'> +3.2709330e+02 </wgt>
<wgt id='2239'> +3.0045749e+02 </wgt>
<wgt id='2240'> +3.3101312e+02 </wgt>
<wgt id='2241'> +3.3601249e+02 </wgt>
<wgt id='2242'> +3.0444809e+02 </wgt>
<wgt id='2243'> +3.2019808e+02 </wgt>
<wgt id='2244'> +3.0569627e+02 </wgt>
<wgt id='2245'> +3.2484978e+02 </wgt>
<wgt id='2246'> +3.2817145e+02 </wgt>
<wgt id='2247'> +3.3280649e+02 </wgt>
<wgt id='2248'> +2.9218687e+02 </wgt>
<wgt id='2249'> +3.1851366e+02 </wgt>
<wgt id='2250'> +3.2011984e+02 </wgt>
<wgt id='2251'> +3.3275610e+02 </wgt>
<wgt id='2252'> +3.1832101e+02 </wgt>
<wgt id='2253'> +2.9365393e+02 </wgt>
<wgt id='2254'> +3.1167191e+02 </wgt>
<wgt id='2255'> +3.4005054e+02 </wgt>
<wgt id='2256'> +3.1498772e+02 </wgt>
<wgt id='2257'> +3.2374854e+02 </wgt>
<wgt id='2258'> +3.1024928e+02 </wgt>
<wgt id='2259'> +3.1453902e+02 </wgt>
<wgt id='2260'> +3.3518521e+02 </wgt>
<wgt id='2261'> +3.1872220e+02 </wgt>
<wgt id='2262'> +3.1820422e+02 </wgt>
<wgt id='2263'> +3.2741043e+02 </wgt>
<wgt id='2264'> +3.2055238e+02 </wgt>
<wgt id='2265'> +3.2893066e+02 </wgt>
<wgt id='2266'> +3.2551796e+02 </wgt>
<wgt id='2267'> +3.1655757e+02 </wgt>
<wgt id='2268'> +3.1673209e+02 </wgt>
<wgt id='2269'> +3.0269908e+02 </wgt>
<wgt id='2270'> +3.3116383e+02 </wgt>
<wgt id='2271'> +3.2109472e+02 </wgt>
<wgt id='2272'> +3.5571333e+02 </wgt>
<wgt id='2273'> +3.1839369e+02 </wgt>
<wgt id='2274'> +3.0863265e+02 </wgt>
<wgt id='2275'> +2.9240800e+02 </wgt>
<wgt id='2276'> +3.3343756e+02 </wgt>
<wgt id='2277'> +3.3337072e+02 </wgt>
<wgt id='2278'> +3.0191225e+02 </wgt>
<wgt id='2279'> +3.3143478e+02 </wgt>
<wgt id='2280'> +3.0550781e+02 </wgt>
<wgt id='2281'> +3.0328751e+02 </wgt>
<wgt id='2282'> +4.7741814e+02 </wgt>
<wgt id='2283'> +3.3523512e+02 </wgt>
<wgt id='2284'> +4.7351382e+02 </wgt>
</rwgt>
</event>
<event npLO=" -1 " npNLO=" 2 ">
 5      2 -2.8781417e+02 1.31723620e+01 7.54677110e-03 1.13928980e-01
       21 -1    0    0  501  502 +0.0000000000e+00 +0.0000000000e+00 +4.8298675000e+02 4.8298675000e+02 0.0000000000e+00 0.0000e+00 9.0000e+00
       21 -1    0    0  502  503 +0.0000000000e+00 +0.0000000000e+00 -1.6697492000e+02 1.6697492000e+02 0.0000000000e+00 0.0000e+00 9.0000e+00
       25  1    1    2    0    0 -1.2111110000e+02 +4.8447195000e+01 +4.0746256000e+02 4.3936405000e+02 1.0000000000e+02 0.0000e+00 9.0000e+00
        1  1    1    2  501    0 +1.2889143000e+02 -3.7818106000e+01 -1.7473438000e+01 1.3545675000e+02 0.0000000000e+00 0.0000e+00 9.0000e+00
       -1  1    1    2    0  503 -7.7803339000e+00 -1.0629089000e+01 -7.3977288000e+01 7.5140870000e+01 0.0000000000e+00 0.0000e+00 9.0000e+00
#aMCatNLO 1  0  0  1  5 0.74059005E+02 0.00000000E+00 -9  6  0 0.00000000E+00 0.00000000E+00 0.00000000E+00 0.00000000E+00 0.00000000E+00
<rwgt>
<wgt id='1001'> -2.8781417e+02 </wgt>
<wgt id='1002'> -1.7242264e+02 </wgt>
<wgt id='1003'> -5.0998123e+02 </wgt>
<wgt id='1004'> -2.6117640e+02 </wgt>
<wgt id='1005'> -1.5643477e+02 </wgt>
<wgt id='1006'> -4.6286830e+02 </wgt>
<wgt id='1007'> -3.1725941e+02 </wgt>
<wgt id='1008'> -1.9010113e+02 </wgt>
<wgt id='1009'> -5.6204325e+02 </wgt>
<wgt id='1010'> -2.8781417e+02 </wgt>
<wgt id='1011'> -2.8778383e+02 </wgt>
<wgt id='1012'> -2.8738791e+02 </wgt>
<wgt id='1013'> -2.8731494e+02 </wgt>
<wgt id='1014'> -2.8862260e+02 </wgt>
<wgt id='1015'> -2.8756071e+02 </wgt>
<wgt id='1016'> -2.8839753e+02 </wgt>
<wgt id='1017'> -2.8822924e+02 </wgt>
<wgt id='1018'> -2.8835676e+02 </wgt>
<wgt id='1019'> -2.8812684e+02 </wgt>
<wgt id='1020'> -2.8758604e+02 </wgt>
<wgt id='1021'> -2.8721336e+02 </wgt>
<wgt id='1022'> -2.8876139e+02 </wgt>
<wgt id='1023'> -2.8813256e+02 </wgt>
<wgt id='1024'> -2.8827817e+02 </wgt>
<wgt id='1025'> -2.8805231e+02 </wgt>
<wgt id='1026'> -2.8806550e+02 </wgt>
<wgt id='1027'> -2.8778759e+02 </wgt>
<wgt id='1028'> -2.8728709e+02 </wgt>
<wgt id='1029'> -2.8757154e+02 </wgt>
<wgt id='1030'> -2.8689936e+02 </wgt>
<wgt id='1031'> -2.8804771e+02 </wgt>
<wgt id='1032'> -2.8735218e+02 </wgt>
<wgt id='1033'> -2.8837708e+02 </wgt>
<wgt id='1034'> -2.8654511e+02 </wgt>
<wgt id='1035'> -2.8834050e+02 </wgt>
<wgt id='1036'> -2.8795622e+02 </wgt>
<wgt id='1037'> -2.8840869e+02 </wgt>
<wgt id='1038'> -2.8746803e+02 </wgt>
<wgt id='1039'> -2.8743709e+02 </wgt>
<wgt id='1040'> -2.8825540e+02 </wgt>
<wgt id='1041'> -2.8696450e+02 </wgt>
<wgt id='1042'> -2.8755077e+02 </wgt>
<wgt id='1043'> -2.8751791e+02 </wgt>
<wgt id='1044'> -2.8711580e+02 </wgt>
<wgt id='1045'> -2.8798620e+02 </wgt>
<wgt id='1046'> -2.8812153e+02 </wgt>
<wgt id='1047'> -2.8760977e+02 </wgt>
<wgt id='1048'> -2.8747119e+02 </wgt>
<wgt id='1049'> -2.8767809e+02 </wgt>
<wgt id='1050'> -2.8745690e+02 </wgt>
<wgt id='1051'> -2.8773855e+02 </wgt>
<wgt id='1052'> -2.8815167e+02 </wgt>
<wgt id='1053'> -2.8790573e+02 </wgt>
<wgt id='1054'> -2.8794483e+02 </wgt>
<wgt id='1055'> -2.8780548e+02 </wgt>
<wgt id='1056'> -2.8763064e+02 </wgt>
<wgt id='1057'> -2.8785627e+02 </wgt>
<wgt id='1058'> -2.8764914e+02 </wgt>
<wgt id='1059'> -2.8757558e+02 </wgt>
<wgt id='1060'> -2.8761741e+02 </wgt>
<wgt id='1061'> -2.8766310e+02 </wgt>
<wgt id='1062'> -2.8814644e+02 </wgt>
<wgt id='1063'> -2.8774120e+02 </wgt>
<wgt id='1064'> -2.8764982e+02 </wgt>
<wgt id='1065'> -2.8781287e+02 </wgt>
<wgt id='1066'> -2.8762687e+02 </wgt>
<wgt id='1067'> -2.8787862e+02 </wgt>
<wgt id='1068'> -2.8793866e+02 </wgt>
<wgt id='1069'> -2.8771347e+02 </wgt>
<wgt id='1070'> -2.8778186e+02 </wgt>
<wgt id='1071'> -2.8770386e+02 </wgt>
<wgt id='1072'> -2.8802938e+02 </wgt>
<wgt id='1073'> -2.8782301e+02 </wgt>
<wgt id='1074'> -2.8790149e+02 </wgt>
<wgt id='1075'> -2.8801900e+02 </wgt>
<wgt id='1076'> -2.8766804e+02 </wgt>
<wgt id='1077'> -2.8777636e+02 </wgt>
<wgt id='1078'> -2.8794492e+02 </wgt>
<wgt id='1079'> -2.8777161e+02 </wgt>
<wgt id='1080'> -2.8777125e+02 </wgt>
<wgt id='1081'> -2.8778476e+02 </wgt>
<wgt id='1082'> -2.8781995e+02 </wgt>
<wgt id='1083'> -2.8786353e+02 </wgt>
<wgt id='1084'> -2.8769380e+02 </wgt>
<wgt id='1085'> -2.8780812e+02 </wgt>
<wgt id='1086'> -2.8771490e+02 </wgt>
<wgt id='1087'> -2.8789983e+02 </wgt>
<wgt id='1088'> -2.8784343e+02 </wgt>
<wgt id='1089'> -2.8778100e+02 </wgt>
<wgt id='1090'> -2.8784450e+02 </wgt>
<wgt id='1091'> -2.8781220e+02 </wgt>
<wgt id='1092'> -2.8782176e+02 </wgt>
<wgt id='1093'> -2.8787546e+02 </wgt>
<wgt id='1094'> -2.8781569e+02 </wgt>
<wgt id='1095'> -2.8782203e+02 </wgt>
<wgt id='1096'> -2.8775983e+02 </wgt>
<wgt id='1097'> -2.8784729e+02 </wgt>
<wgt id='1098'> -2.8783640e+02 </wgt>
<wgt id='1099'> -2.8779219e+02 </wgt>
<wgt id='1100'> -2.8786466e+02 </wgt>
<wgt id='1101'> -2.8784821e+02 </wgt>
<wgt id='1102'> -2.8791115e+02 </wgt>
<wgt id='1103'> -2.8779864e+02 </wgt>
<wgt id='1104'> -2.8786002e+02 </wgt>
<wgt id='1105'> -2.8791785e+02 </wgt>
<wgt id='1106'> -2.8777140e+02 </wgt>
<wgt id='1107'> -2.8787632e+02 </wgt>
<wgt id='1108'> -2.8773525e+02 </wgt>
<wgt id='1109'> -2.8784047e+02 </wgt>
<wgt id='1110'> -2.8781418e+02 </wgt>
<wgt id='1111'> -2.6579852e+02 </wgt>
<wgt id='1112'> -3.1171555e+02 </wgt>
<wgt id='1113'> -2.8781418e+02 </wgt>
<wgt id='1114'> -2.9062839e+02 </wgt>
<wgt id='1115'> -2.8741634e+02 </wgt>
<wgt id='1116'> -2.9684524e+02 </wgt>
<wgt id='1117'> -2.8979858e+02 </wgt>
<wgt id='1118'> -2.8982815e+02 </wgt>
<wgt id='1119'> -2.8888419e+02 </wgt>
<wgt id='1120'> -2.8258814e+02 </wgt>
<wgt id='1121'> -2.8124944e+02 </wgt>
<wgt id='1122'> -2.8961716e+02 </wgt>
<wgt id='1123'> -2.9716206e+02 </wgt>
<wgt id='1124'> -2.9076138e+02 </wgt>
<wgt id='1125'> -2.8473045e+02 </wgt>
<wgt id='1126'> -2.8404756e+02 </wgt>
<wgt id='1127'> -2.8641053e+02 </wgt>
<wgt id='1128'> -2.8679465e+02 </wgt>
<wgt id='1129'> -2.8946877e+02 </wgt>
<wgt id='1130'> -2.9026680e+02 </wgt>
<wgt id='1131'> -2.8451777e+02 </wgt>
<wgt id='1132'> -2.8468156e+02 </wgt>
<wgt id='1133'> -2.8564831e+02 </wgt>
<wgt id='1134'> -2.8281509e+02 </wgt>
<wgt id='1135'> -2.8234939e+02 </wgt>
<wgt id='1136'> -2.8417316e+02 </wgt>
<wgt id='1137'> -2.8455057e+02 </wgt>
<wgt id='1138'> -2.8376224e+02 </wgt>
<wgt id='1139'> -2.8473165e+02 </wgt>
<wgt id='1140'> -2.8918964e+02 </wgt>
<wgt id='1141'> -2.8095968e+02 </wgt>
<wgt id='1142'> -2.8961659e+02 </wgt>
<wgt id='1143'> -2.8924772e+02 </wgt>
<wgt id='1144'> -2.9400285e+02 </wgt>
<wgt id='1145'> -2.8506966e+02 </wgt>
<wgt id='1146'> -2.8576736e+02 </wgt>
<wgt id='1147'> -2.8856758e+02 </wgt>
<wgt id='1148'> -2.9341508e+02 </wgt>
<wgt id='1149'> -2.8595338e+02 </wgt>
<wgt id='1150'> -2.8451145e+02 </wgt>
<wgt id='1151'> -2.8793957e+02 </wgt>
<wgt id='1152'> -2.8819510e+02 </wgt>
<wgt id='1153'> -2.8684898e+02 </wgt>
<wgt id='1154'> -2.8841392e+02 </wgt>
<wgt id='1155'> -2.8725116e+02 </wgt>
<wgt id='1156'> -2.9063515e+02 </wgt>
<wgt id='1157'> -2.8975065e+02 </wgt>
<wgt id='1158'> -2.8845484e+02 </wgt>
<wgt id='1159'> -2.8786059e+02 </wgt>
<wgt id='1160'> -2.8718059e+02 </wgt>
<wgt id='1161'> -2.8652326e+02 </wgt>
<wgt id='1162'> -2.8889894e+02 </wgt>
<wgt id='1163'> -2.9094178e+02 </wgt>
<wgt id='1164'> -2.8739205e+02 </wgt>
<wgt id='1165'> -2.8338989e+02 </wgt>
<wgt id='1166'> -2.9172076e+02 </wgt>
<wgt id='1167'> -2.8605432e+02 </wgt>
<wgt id='1168'> -2.8600563e+02 </wgt>
<wgt id='1169'> -2.8606600e+02 </wgt>
<wgt id='1170'> -2.8353797e+02 </wgt>
<wgt id='1171'> -2.8846604e+02 </wgt>
<wgt id='1172'> -2.8757370e+02 </wgt>
<wgt id='1173'> -2.8582460e+02 </wgt>
<wgt id='1174'> -2.8584505e+02 </wgt>
<wgt id='1175'> -2.8922143e+02 </wgt>
<wgt id='1176'> -2.8434289e+02 </wgt>
<wgt id='1177'> -2.9113051e+02 </wgt>
<wgt id='1178'> -2.8236662e+02 </wgt>
<wgt id='1179'> -2.9197584e+02 </wgt>
<wgt id='1180'> -2.8727022e+02 </wgt>
<wgt id='1181'> -2.8618192e+02 </wgt>
<wgt id='1182'> -2.8588656e+02 </wgt>
<wgt id='1183'> -2.8811014e+02 </wgt>
<wgt id='1184'> -2.9079623e+02 </wgt>
<wgt id='1185'> -2.9083289e+02 </wgt>
<wgt id='1186'> -2.8790124e+02 </wgt>
<wgt id='1187'> -2.8818006e+02 </wgt>
<wgt id='1188'> -2.8974312e+02 </wgt>
<wgt id='1189'> -2.9601508e+02 </wgt>
<wgt id='1190'> -2.8889668e+02 </wgt>
<wgt id='1191'> -2.8800519e+02 </wgt>
<wgt id='1192'> -2.8805938e+02 </wgt>
<wgt id='1193'> -2.9356194e+02 </wgt>
<wgt id='1194'> -2.8808139e+02 </wgt>
<wgt id='1195'> -2.8946877e+02 </wgt>
<wgt id='1196'> -2.8927563e+02 </wgt>
<wgt id='1197'> -2.8576748e+02 </wgt>
<wgt id='1198'> -2.9187886e+02 </wgt>
<wgt id='1199'> -2.8928678e+02 </wgt>
<wgt id='1200'> -2.8634260e+02 </wgt>
<wgt id='1201'> -2.8991695e+02 </wgt>
<wgt id='1202'> -2.9360117e+02 </wgt>
<wgt id='1203'> -2.8613355e+02 </wgt>
<wgt id='1204'> -2.8683916e+02 </wgt>
<wgt id='1205'> -2.8908196e+02 </wgt>
<wgt id='1206'> -2.8823315e+02 </wgt>
<wgt id='1207'> -2.8891785e+02 </wgt>
<wgt id='1208'> -2.8083990e+02 </wgt>
<wgt id='1209'> -2.8767519e+02 </wgt>
<wgt id='1210'> -2.9338496e+02 </wgt>
<wgt id='1211'> -2.8817634e+02 </wgt>
<wgt id='1212'> -2.8314369e+02 </wgt>
<wgt id='1213'> -2.8463824e+02 </wgt>
<wgt id='1214'> -2.8767668e+02 </wgt>
<wgt id='1215'> -2.8741993e+02 </wgt>
<wgt id='1216'> -2.8782088e+02 </wgt>
<wgt id='1217'> -2.8767705e+02 </wgt>
<wgt id='1218'> -2.8825226e+02 </wgt>
<wgt id='1219'> -2.8748747e+02 </wgt>
<wgt id='1220'> -2.8694048e+02 </wgt>
<wgt id='1221'> -2.8708057e+02 </wgt>
<wgt id='1222'> -2.8698019e+02 </wgt>
<wgt id='1223'> -2.8812075e+02 </wgt>
<wgt id='1224'> -2.8756792e+02 </wgt>
<wgt id='1225'> -2.8719181e+02 </wgt>
<wgt id='1226'> -2.8786778e+02 </wgt>
<wgt id='1227'> -2.8760243e+02 </wgt>
<wgt id='1228'> -2.8803428e+02 </wgt>
<wgt id='1229'> -2.8783225e+02 </wgt>
<wgt id='1230'> -2.8794177e+02 </wgt>
<wgt id='1231'> -2.8755783e+02 </wgt>
<wgt id='1232'> -2.8779649e+02 </wgt>
<wgt id='1233'> -2.8777207e+02 </wgt>
<wgt id='1234'> -2.8811892e+02 </wgt>
<wgt id='1235'> -2.8756093e+02 </wgt>
<wgt id='1236'> -2.8771645e+02 </wgt>
<wgt id='1237'> -2.8805592e+02 </wgt>
<wgt id='1238'> -2.8744446e+02 </wgt>
<wgt id='1239'> -2.8763022e+02 </wgt>
<wgt id='1240'> -2.8779649e+02 </wgt>
<wgt id='1241'> -2.8731460e+02 </wgt>
<wgt id='1242'> -2.8757253e+02 </wgt>
<wgt id='1243'> -2.8888012e+02 </wgt>
<wgt id='1244'> -2.8811099e+02 </wgt>
<wgt id='1245'> -2.8763269e+02 </wgt>
<wgt id='1246'> -2.8853119e+02 </wgt>
<wgt id='1247'> -2.8807310e+02 </wgt>
<wgt id='1248'> -2.8688281e+02 </wgt>
<wgt id='1249'> -2.8743609e+02 </wgt>
<wgt id='1250'> -2.8732320e+02 </wgt>
<wgt id='1251'> -2.8720955e+02 </wgt>
<wgt id='1252'> -2.8777789e+02 </wgt>
<wgt id='1253'> -2.8868615e+02 </wgt>
<wgt id='1254'> -2.8819020e+02 </wgt>
<wgt id='1255'> -2.8756554e+02 </wgt>
<wgt id='1256'> -2.8628964e+02 </wgt>
<wgt id='1257'> -2.8800937e+02 </wgt>
<wgt id='1258'> -2.8773530e+02 </wgt>
<wgt id='1259'> -2.8754184e+02 </wgt>
<wgt id='1260'> -2.8793673e+02 </wgt>
<wgt id='1261'> -2.8807742e+02 </wgt>
<wgt id='1262'> -2.8724424e+02 </wgt>
<wgt id='1263'> -2.8758542e+02 </wgt>
<wgt id='1264'> -2.8782873e+02 </wgt>
<wgt id='1265'> -2.8804665e+02 </wgt>
<wgt id='1266'> -2.8766710e+02 </wgt>
<wgt id='1267'> -2.8788739e+02 </wgt>
<wgt id='1268'> -2.8782143e+02 </wgt>
<wgt id='1269'> -2.8774224e+02 </wgt>
<wgt id='1270'> -2.8762596e+02 </wgt>
<wgt id='1271'> -2.8769983e+02 </wgt>
<wgt id='1272'> -2.8760346e+02 </wgt>
<wgt id='1273'> -2.8756499e+02 </wgt>
<wgt id='1274'> -2.8773423e+02 </wgt>
<wgt id='1275'> -2.8742995e+02 </wgt>
<wgt id='1276'> -2.8755546e+02 </wgt>
<wgt id='1277'> -2.8776839e+02 </wgt>
<wgt id='1278'> -2.8757881e+02 </wgt>
<wgt id='1279'> -2.8799117e+02 </wgt>
<wgt id='1280'> -2.8772024e+02 </wgt>
<wgt id='1281'> -2.8769712e+02 </wgt>
<wgt id='1282'> -2.8778633e+02 </wgt>
<wgt id='1283'> -2.8770814e+02 </wgt>
<wgt id='1284'> -2.8753923e+02 </wgt>
<wgt id='1285'> -2.8762765e+02 </wgt>
<wgt id='1286'> -2.8767616e+02 </wgt>
<wgt id='1287'> -2.8766343e+02 </wgt>
<wgt id='1288'> -2.8765958e+02 </wgt>
<wgt id='1289'> -2.8769006e+02 </wgt>
<wgt id='1290'> -2.8766390e+02 </wgt>
<wgt id='1291'> -2.8760394e+02 </wgt>
<wgt id='1292'> -2.8765028e+02 </wgt>
<wgt id='1293'> -2.8775329e+02 </wgt>
<wgt id='1294'> -2.8768728e+02 </wgt>
<wgt id='1295'> -2.8776954e+02 </wgt>
<wgt id='1296'> -2.8774521e+02 </wgt>
<wgt id='1297'> -2.8774742e+02 </wgt>
<wgt id='1298'> -2.8768417e+02 </wgt>
<wgt id='1299'> -2.8769322e+02 </wgt>
<wgt id='1300'> -2.8765843e+02 </wgt>
<wgt id='1301'> -2.8765012e+02 </wgt>
<wgt id='1302'> -2.8772785e+02 </wgt>
<wgt id='1303'> -2.8754403e+02 </wgt>
<wgt id='1304'> -2.8765472e+02 </wgt>
<wgt id='1305'> -2.8779223e+02 </wgt>
<wgt id='1306'> -2.8776597e+02 </wgt>
<wgt id='1307'> -2.8763348e+02 </wgt>
<wgt id='1308'> -2.8774769e+02 </wgt>
<wgt id='1309'> -2.8776277e+02 </wgt>
<wgt id='1310'> -2.8764312e+02 </wgt>
<wgt id='1311'> -2.8777536e+02 </wgt>
<wgt id='1312'> -2.8763254e+02 </wgt>
<wgt id='1313'> -2.8768883e+02 </wgt>
<wgt id='1314'> -2.8768513e+02 </wgt>
<wgt id='1315'> -2.6579852e+02 </wgt>
<wgt id='1316'> -3.1171555e+02 </wgt>
<wgt id='1317'> -1.8885360e+02 </wgt>
<wgt id='1318'> -2.0612601e+02 </wgt>
<wgt id='1319'> -2.2549794e+02 </wgt>
<wgt id='1320'> -2.4459350e+02 </wgt>
<wgt id='1321'> -2.7634960e+02 </wgt>
<wgt id='1322'> -3.0026473e+02 </wgt>
<wgt id='1323'> -3.3660063e+02 </wgt>
<wgt id='1324'> -3.6446833e+02 </wgt>
<wgt id='1325'> -2.9459034e+02 </wgt>
<wgt id='1326'> -2.9493541e+02 </wgt>
<wgt id='1327'> -2.9458669e+02 </wgt>
<wgt id='1328'> -2.9457292e+02 </wgt>
<wgt id='1329'> -2.9521857e+02 </wgt>
<wgt id='1330'> -2.9501765e+02 </wgt>
<wgt id='1331'> -2.9451497e+02 </wgt>
<wgt id='1332'> -2.9505666e+02 </wgt>
<wgt id='1333'> -2.9430338e+02 </wgt>
<wgt id='1334'> -2.9508720e+02 </wgt>
<wgt id='1335'> -2.9391382e+02 </wgt>
<wgt id='1336'> -2.9428406e+02 </wgt>
<wgt id='1337'> -2.9502886e+02 </wgt>
<wgt id='1338'> -2.9467488e+02 </wgt>
<wgt id='1339'> -2.9489724e+02 </wgt>
<wgt id='1340'> -2.9416756e+02 </wgt>
<wgt id='1341'> -2.9491202e+02 </wgt>
<wgt id='1342'> -2.9494437e+02 </wgt>
<wgt id='1343'> -2.9509104e+02 </wgt>
<wgt id='1344'> -2.9384299e+02 </wgt>
<wgt id='1345'> -2.9418777e+02 </wgt>
<wgt id='1346'> -2.9421212e+02 </wgt>
<wgt id='1347'> -2.9439936e+02 </wgt>
<wgt id='1348'> -2.9406253e+02 </wgt>
<wgt id='1349'> -2.9415940e+02 </wgt>
<wgt id='1350'> -2.9449273e+02 </wgt>
<wgt id='1351'> -2.9455170e+02 </wgt>
<wgt id='1352'> -2.9473271e+02 </wgt>
<wgt id='1353'> -2.9425329e+02 </wgt>
<wgt id='1354'> -2.9468634e+02 </wgt>
<wgt id='1355'> -2.9520187e+02 </wgt>
<wgt id='1356'> -2.9483043e+02 </wgt>
<wgt id='1357'> -2.9410764e+02 </wgt>
<wgt id='1358'> -2.9396478e+02 </wgt>
<wgt id='1359'> -2.9460130e+02 </wgt>
<wgt id='1360'> -2.9318108e+02 </wgt>
<wgt id='1361'> -2.9467714e+02 </wgt>
<wgt id='1362'> -2.9533271e+02 </wgt>
<wgt id='1363'> -2.9461203e+02 </wgt>
<wgt id='1364'> -2.9489699e+02 </wgt>
<wgt id='1365'> -2.9547043e+02 </wgt>
<wgt id='1366'> -2.9490686e+02 </wgt>
<wgt id='1367'> -2.9387241e+02 </wgt>
<wgt id='1368'> -2.9387130e+02 </wgt>
<wgt id='1369'> -2.9484337e+02 </wgt>
<wgt id='1370'> -2.9475518e+02 </wgt>
<wgt id='1371'> -2.9527457e+02 </wgt>
<wgt id='1372'> -2.9446912e+02 </wgt>
<wgt id='1373'> -2.9499956e+02 </wgt>
<wgt id='1374'> -2.9453168e+02 </wgt>
<wgt id='1375'> -2.9411592e+02 </wgt>
<wgt id='1376'> -2.9502134e+02 </wgt>
<wgt id='1377'> -2.9426766e+02 </wgt>
<wgt id='1378'> -2.9452547e+02 </wgt>
<wgt id='1379'> -2.9470958e+02 </wgt>
<wgt id='1380'> -2.9420340e+02 </wgt>
<wgt id='1381'> -2.9457974e+02 </wgt>
<wgt id='1382'> -2.9453116e+02 </wgt>
<wgt id='1383'> -2.9440893e+02 </wgt>
<wgt id='1384'> -2.9446507e+02 </wgt>
<wgt id='1385'> -2.9480438e+02 </wgt>
<wgt id='1386'> -2.9458180e+02 </wgt>
<wgt id='1387'> -2.9474738e+02 </wgt>
<wgt id='1388'> -2.9447830e+02 </wgt>
<wgt id='1389'> -2.9441627e+02 </wgt>
<wgt id='1390'> -2.9434625e+02 </wgt>
<wgt id='1391'> -2.9457681e+02 </wgt>
<wgt id='1392'> -2.9416395e+02 </wgt>
<wgt id='1393'> -2.9475829e+02 </wgt>
<wgt id='1394'> -2.9449752e+02 </wgt>
<wgt id='1395'> -2.9455776e+02 </wgt>
<wgt id='1396'> -2.9439337e+02 </wgt>
<wgt id='1397'> -2.9462186e+02 </wgt>
<wgt id='1398'> -2.9453363e+02 </wgt>
<wgt id='1399'> -2.9468719e+02 </wgt>
<wgt id='1400'> -2.9465387e+02 </wgt>
<wgt id='1401'> -2.9459427e+02 </wgt>
<wgt id='1402'> -2.9462273e+02 </wgt>
<wgt id='1403'> -2.9473472e+02 </wgt>
<wgt id='1404'> -2.9453769e+02 </wgt>
<wgt id='1405'> -2.9456295e+02 </wgt>
<wgt id='1406'> -2.9459358e+02 </wgt>
<wgt id='1407'> -2.9466661e+02 </wgt>
<wgt id='1408'> -2.9443113e+02 </wgt>
<wgt id='1409'> -2.9445807e+02 </wgt>
<wgt id='1410'> -2.9471339e+02 </wgt>
<wgt id='1411'> -2.9443718e+02 </wgt>
<wgt id='1412'> -2.9446986e+02 </wgt>
<wgt id='1413'> -2.9454532e+02 </wgt>
<wgt id='1414'> -2.9461332e+02 </wgt>
<wgt id='1415'> -2.9472491e+02 </wgt>
<wgt id='1416'> -2.9465893e+02 </wgt>
<wgt id='1417'> -2.9455445e+02 </wgt>
<wgt id='1418'> -2.9461238e+02 </wgt>
<wgt id='1419'> -2.9466855e+02 </wgt>
<wgt id='1420'> -2.9460531e+02 </wgt>
<wgt id='1421'> -2.9458678e+02 </wgt>
<wgt id='1422'> -2.9455687e+02 </wgt>
<wgt id='1423'> -2.9452212e+02 </wgt>
<wgt id='1424'> -2.9463497e+02 </wgt>
<wgt id='1425'> -2.9464494e+02 </wgt>
<wgt id='1426'> -2.7213661e+02 </wgt>
<wgt id='1427'> -3.1941659e+02 </wgt>
<wgt id='1428'> -2.9520745e+02 </wgt>
<wgt id='1429'> -2.9559082e+02 </wgt>
<wgt id='1430'> -2.9673199e+02 </wgt>
<wgt id='1431'> -2.9514964e+02 </wgt>
<wgt id='1432'> -2.9617211e+02 </wgt>
<wgt id='1433'> -2.9333739e+02 </wgt>
<wgt id='1434'> -2.9345842e+02 </wgt>
<wgt id='1435'> -2.9478312e+02 </wgt>
<wgt id='1436'> -2.9634261e+02 </wgt>
<wgt id='1437'> -2.9387711e+02 </wgt>
<wgt id='1438'> -2.9513206e+02 </wgt>
<wgt id='1439'> -2.9730037e+02 </wgt>
<wgt id='1440'> -2.9402864e+02 </wgt>
<wgt id='1441'> -3.0221645e+02 </wgt>
<wgt id='1442'> -2.9336720e+02 </wgt>
<wgt id='1443'> -2.9365362e+02 </wgt>
<wgt id='1444'> -2.9957645e+02 </wgt>
<wgt id='1445'> -2.9170126e+02 </wgt>
<wgt id='1446'> -2.9893997e+02 </wgt>
<wgt id='1447'> -2.9664741e+02 </wgt>
<wgt id='1448'> -2.9355184e+02 </wgt>
<wgt id='1449'> -2.9418465e+02 </wgt>
<wgt id='1450'> -2.9586451e+02 </wgt>
<wgt id='1451'> -2.9388148e+02 </wgt>
<wgt id='1452'> -2.9671460e+02 </wgt>
<wgt id='1453'> -2.9686195e+02 </wgt>
<wgt id='1454'> -2.9384814e+02 </wgt>
<wgt id='1455'> -2.9475129e+02 </wgt>
<wgt id='1456'> -2.9594937e+02 </wgt>
<wgt id='1457'> -2.9721998e+02 </wgt>
<wgt id='1458'> -2.9396072e+02 </wgt>
<wgt id='1459'> -2.9549054e+02 </wgt>
<wgt id='1460'> -2.9479349e+02 </wgt>
<wgt id='1461'> -2.9439527e+02 </wgt>
<wgt id='1462'> -2.9609569e+02 </wgt>
<wgt id='1463'> -2.9768727e+02 </wgt>
<wgt id='1464'> -2.9292325e+02 </wgt>
<wgt id='1465'> -2.8942142e+02 </wgt>
<wgt id='1466'> -3.0180329e+02 </wgt>
<wgt id='1467'> -3.0017003e+02 </wgt>
<wgt id='1468'> -2.9236150e+02 </wgt>
<wgt id='1469'> -2.9569965e+02 </wgt>
<wgt id='1470'> -2.9512810e+02 </wgt>
<wgt id='1471'> -2.9718594e+02 </wgt>
<wgt id='1472'> -2.9702378e+02 </wgt>
<wgt id='1473'> -2.9484591e+02 </wgt>
<wgt id='1474'> -2.9057297e+02 </wgt>
<wgt id='1475'> -2.9356981e+02 </wgt>
<wgt id='1476'> -2.9286831e+02 </wgt>
<wgt id='1477'> -2.9552086e+02 </wgt>
<wgt id='1478'> -2.9462168e+02 </wgt>
<wgt id='1479'> -2.9521439e+02 </wgt>
<wgt id='1480'> -2.9475988e+02 </wgt>
<wgt id='1481'> -2.9121985e+02 </wgt>
<wgt id='1482'> -2.9625568e+02 </wgt>
<wgt id='1483'> -2.9357547e+02 </wgt>
<wgt id='1484'> -2.9820266e+02 </wgt>
<wgt id='1485'> -2.7172406e+02 </wgt>
<wgt id='1486'> -3.2049506e+02 </wgt>
<wgt id='1487'> -2.9166997e+02 </wgt>
<wgt id='1488'> -2.9120579e+02 </wgt>
<wgt id='1489'> -2.9180158e+02 </wgt>
<wgt id='1490'> -2.8936837e+02 </wgt>
<wgt id='1491'> -2.8982971e+02 </wgt>
<wgt id='1492'> -2.9091331e+02 </wgt>
<wgt id='1493'> -2.9245529e+02 </wgt>
<wgt id='1494'> -2.9127758e+02 </wgt>
<wgt id='1495'> -2.8925942e+02 </wgt>
<wgt id='1496'> -2.9349651e+02 </wgt>
<wgt id='1497'> -2.9205750e+02 </wgt>
<wgt id='1498'> -2.9501377e+02 </wgt>
<wgt id='1499'> -2.8890693e+02 </wgt>
<wgt id='1500'> -2.9470190e+02 </wgt>
<wgt id='1501'> -2.9043500e+02 </wgt>
<wgt id='1502'> -2.9666354e+02 </wgt>
<wgt id='1503'> -2.8811245e+02 </wgt>
<wgt id='1504'> -2.8767403e+02 </wgt>
<wgt id='1505'> -2.9636898e+02 </wgt>
<wgt id='1506'> -2.9182681e+02 </wgt>
<wgt id='1507'> -2.9152536e+02 </wgt>
<wgt id='1508'> -2.9196000e+02 </wgt>
<wgt id='1509'> -2.9114641e+02 </wgt>
<wgt id='1510'> -2.9225462e+02 </wgt>
<wgt id='1511'> -2.9121861e+02 </wgt>
<wgt id='1512'> -2.9634083e+02 </wgt>
<wgt id='1513'> -2.8720767e+02 </wgt>
<wgt id='1514'> -2.9284078e+02 </wgt>
<wgt id='1515'> -2.9013145e+02 </wgt>
<wgt id='1516'> -2.9308697e+02 </wgt>
<wgt id='1517'> -2.9119283e+02 </wgt>
<wgt id='1518'> -2.9205809e+02 </wgt>
<wgt id='1519'> -2.9117269e+02 </wgt>
<wgt id='1520'> -2.9060307e+02 </wgt>
<wgt id='1521'> -2.9401509e+02 </wgt>
<wgt id='1522'> -2.8668376e+02 </wgt>
<wgt id='1523'> -2.9650407e+02 </wgt>
<wgt id='1524'> -2.8977987e+02 </wgt>
<wgt id='1525'> -2.9468241e+02 </wgt>
<wgt id='1526'> -2.9109793e+02 </wgt>
<wgt id='1527'> -2.9293268e+02 </wgt>
<wgt id='1528'> -2.9049367e+02 </wgt>
<wgt id='1529'> -2.9273560e+02 </wgt>
<wgt id='1530'> -2.8799972e+02 </wgt>
<wgt id='1531'> -2.9545977e+02 </wgt>
<wgt id='1532'> -2.9644516e+02 </wgt>
<wgt id='1533'> -2.9157092e+02 </wgt>
<wgt id='1534'> -2.9101401e+02 </wgt>
<wgt id='1535'> -2.9137668e+02 </wgt>
<wgt id='1536'> -2.9163064e+02 </wgt>
<wgt id='1537'> -2.9116109e+02 </wgt>
<wgt id='1538'> -2.9298070e+02 </wgt>
<wgt id='1539'> -2.9193003e+02 </wgt>
<wgt id='1540'> -2.8356407e+02 </wgt>
<wgt id='1541'> -2.9484887e+02 </wgt>
<wgt id='1542'> -2.8998148e+02 </wgt>
<wgt id='1543'> -2.9428204e+02 </wgt>
<wgt id='1544'> -2.6914812e+02 </wgt>
<wgt id='1545'> -3.1606820e+02 </wgt>
<wgt id='1546'> -2.8917028e+02 </wgt>
<wgt id='1547'> -2.9448419e+02 </wgt>
<wgt id='1548'> -2.9457512e+02 </wgt>
<wgt id='1549'> -2.9438117e+02 </wgt>
<wgt id='1550'> -2.9479763e+02 </wgt>
<wgt id='1551'> -2.9427166e+02 </wgt>
<wgt id='1552'> -2.9596608e+02 </wgt>
<wgt id='1553'> -2.9310971e+02 </wgt>
<wgt id='1554'> -2.9370920e+02 </wgt>
<wgt id='1555'> -2.9535751e+02 </wgt>
<wgt id='1556'> -2.9446459e+02 </wgt>
<wgt id='1557'> -2.9449613e+02 </wgt>
<wgt id='1558'> -2.9457071e+02 </wgt>
<wgt id='1559'> -2.9428447e+02 </wgt>
<wgt id='1560'> -2.9448721e+02 </wgt>
<wgt id='1561'> -2.9447361e+02 </wgt>
<wgt id='1562'> -2.9428993e+02 </wgt>
<wgt id='1563'> -2.9458977e+02 </wgt>
<wgt id='1564'> -2.9398815e+02 </wgt>
<wgt id='1565'> -2.9506034e+02 </wgt>
<wgt id='1566'> -2.9458772e+02 </wgt>
<wgt id='1567'> -2.9439224e+02 </wgt>
<wgt id='1568'> -2.9422974e+02 </wgt>
<wgt id='1569'> -2.9481485e+02 </wgt>
<wgt id='1570'> -2.9357972e+02 </wgt>
<wgt id='1571'> -2.9507329e+02 </wgt>
<wgt id='1572'> -2.9573662e+02 </wgt>
<wgt id='1573'> -2.9327886e+02 </wgt>
<wgt id='1574'> -2.9445344e+02 </wgt>
<wgt id='1575'> -2.9431793e+02 </wgt>
<wgt id='1576'> -2.9307576e+02 </wgt>
<wgt id='1577'> -2.9621014e+02 </wgt>
<wgt id='1578'> -2.9145948e+02 </wgt>
<wgt id='1579'> -2.9794374e+02 </wgt>
<wgt id='1580'> -2.9559991e+02 </wgt>
<wgt id='1581'> -2.9341729e+02 </wgt>
<wgt id='1582'> -2.9500372e+02 </wgt>
<wgt id='1583'> -2.9293238e+02 </wgt>
<wgt id='1584'> -2.9463377e+02 </wgt>
<wgt id='1585'> -2.9440451e+02 </wgt>
<wgt id='1586'> -2.9393771e+02 </wgt>
<wgt id='1587'> -2.9511470e+02 </wgt>
<wgt id='1588'> -2.9236138e+02 </wgt>
<wgt id='1589'> -2.9687302e+02 </wgt>
<wgt id='1590'> -2.9572920e+02 </wgt>
<wgt id='1591'> -2.9360917e+02 </wgt>
<wgt id='1592'> -2.9413396e+02 </wgt>
<wgt id='1593'> -2.9533144e+02 </wgt>
<wgt id='1594'> -2.9550578e+02 </wgt>
<wgt id='1595'> -2.9323219e+02 </wgt>
<wgt id='1596'> -2.9478141e+02 </wgt>
<wgt id='1597'> -2.9435086e+02 </wgt>
<wgt id='1598'> -2.9185772e+02 </wgt>
<wgt id='1599'> -2.9171125e+02 </wgt>
<wgt id='1600'> -2.9204833e+02 </wgt>
<wgt id='1601'> -2.9265282e+02 </wgt>
<wgt id='1602'> -2.9106458e+02 </wgt>
<wgt id='1603'> -2.9270588e+02 </wgt>
<wgt id='1604'> -2.9151721e+02 </wgt>
<wgt id='1605'> -2.9184441e+02 </wgt>
<wgt id='1606'> -2.9187092e+02 </wgt>
<wgt id='1607'> -2.9193804e+02 </wgt>
<wgt id='1608'> -2.9177725e+02 </wgt>
<wgt id='1609'> -2.9169006e+02 </wgt>
<wgt id='1610'> -2.9193376e+02 </wgt>
<wgt id='1611'> -2.9183438e+02 </wgt>
<wgt id='1612'> -2.9188718e+02 </wgt>
<wgt id='1613'> -2.9195780e+02 </wgt>
<wgt id='1614'> -2.9174727e+02 </wgt>
<wgt id='1615'> -2.9235318e+02 </wgt>
<wgt id='1616'> -2.9157838e+02 </wgt>
<wgt id='1617'> -2.9192813e+02 </wgt>
<wgt id='1618'> -2.9175430e+02 </wgt>
<wgt id='1619'> -2.9145880e+02 </wgt>
<wgt id='1620'> -2.9213359e+02 </wgt>
<wgt id='1621'> -2.9304927e+02 </wgt>
<wgt id='1622'> -2.9073722e+02 </wgt>
<wgt id='1623'> -2.9220863e+02 </wgt>
<wgt id='1624'> -2.9094881e+02 </wgt>
<wgt id='1625'> -2.9170791e+02 </wgt>
<wgt id='1626'> -2.9153376e+02 </wgt>
<wgt id='1627'> -2.9301699e+02 </wgt>
<wgt id='1628'> -2.8910872e+02 </wgt>
<wgt id='1629'> -2.9063876e+02 </wgt>
<wgt id='1630'> -2.9432381e+02 </wgt>
<wgt id='1631'> -2.9234428e+02 </wgt>
<wgt id='1632'> -2.9076496e+02 </wgt>
<wgt id='1633'> -2.8986003e+02 </wgt>
<wgt id='1634'> -2.9261869e+02 </wgt>
<wgt id='1635'> -2.9173056e+02 </wgt>
<wgt id='1636'> -2.9171261e+02 </wgt>
<wgt id='1637'> -2.9111678e+02 </wgt>
<wgt id='1638'> -2.9243862e+02 </wgt>
<wgt id='1639'> -2.9285433e+02 </wgt>
<wgt id='1640'> -2.9024509e+02 </wgt>
<wgt id='1641'> -2.9204916e+02 </wgt>
<wgt id='1642'> -2.9073941e+02 </wgt>
<wgt id='1643'> -2.8975264e+02 </wgt>
<wgt id='1644'> -2.9320308e+02 </wgt>
<wgt id='1645'> -2.9275429e+02 </wgt>
<wgt id='1646'> -2.9143029e+02 </wgt>
<wgt id='1647'> -2.9128862e+02 </wgt>
<wgt id='1648'> -2.9198631e+02 </wgt>
<wgt id='1649'> -5.4063482e+02 </wgt>
<wgt id='1650'> -2.8711393e+02 </wgt>
<wgt id='1651'> -2.8700782e+02 </wgt>
<wgt id='1652'> -2.8717757e+02 </wgt>
<wgt id='1653'> -2.8711237e+02 </wgt>
<wgt id='1654'> -2.8710928e+02 </wgt>
<wgt id='1655'> -2.8680113e+02 </wgt>
<wgt id='1656'> -2.8742196e+02 </wgt>
<wgt id='1657'> -2.8774220e+02 </wgt>
<wgt id='1658'> -2.8754316e+02 </wgt>
<wgt id='1659'> -2.8785123e+02 </wgt>
<wgt id='1660'> -2.8684100e+02 </wgt>
<wgt id='1661'> -2.8717807e+02 </wgt>
<wgt id='1662'> -2.8624421e+02 </wgt>
<wgt id='1663'> -2.8633102e+02 </wgt>
<wgt id='1664'> -2.8768923e+02 </wgt>
<wgt id='1665'> -2.8688386e+02 </wgt>
<wgt id='1666'> -2.8737217e+02 </wgt>
<wgt id='1667'> -2.8677439e+02 </wgt>
<wgt id='1668'> -2.8792823e+02 </wgt>
<wgt id='1669'> -2.8682900e+02 </wgt>
<wgt id='1670'> -2.8764109e+02 </wgt>
<wgt id='1671'> -2.8671916e+02 </wgt>
<wgt id='1672'> -2.8799988e+02 </wgt>
<wgt id='1673'> -2.8649279e+02 </wgt>
<wgt id='1674'> -2.8575095e+02 </wgt>
<wgt id='1675'> -2.8622951e+02 </wgt>
<wgt id='1676'> -2.8722709e+02 </wgt>
<wgt id='1677'> -2.8759055e+02 </wgt>
<wgt id='1678'> -2.8716028e+02 </wgt>
<wgt id='1679'> -2.8965790e+02 </wgt>
<wgt id='1680'> -2.9484853e+02 </wgt>
<wgt id='1681'> -2.9287443e+02 </wgt>
<wgt id='1682'> -2.9604403e+02 </wgt>
<wgt id='1683'> -2.9563768e+02 </wgt>
<wgt id='1684'> -2.9372435e+02 </wgt>
<wgt id='1685'> -2.9445454e+02 </wgt>
<wgt id='1686'> -2.9563400e+02 </wgt>
<wgt id='1687'> -2.9255163e+02 </wgt>
<wgt id='1688'> -2.9203442e+02 </wgt>
<wgt id='1689'> -2.9585444e+02 </wgt>
<wgt id='1690'> -2.9553195e+02 </wgt>
<wgt id='1691'> -2.9402057e+02 </wgt>
<wgt id='1692'> -2.9551004e+02 </wgt>
<wgt id='1693'> -2.9529274e+02 </wgt>
<wgt id='1694'> -2.9415285e+02 </wgt>
<wgt id='1695'> -2.9590502e+02 </wgt>
<wgt id='1696'> -2.9449225e+02 </wgt>
<wgt id='1697'> -2.9567916e+02 </wgt>
<wgt id='1698'> -2.9336992e+02 </wgt>
<wgt id='1699'> -2.9297279e+02 </wgt>
<wgt id='1700'> -2.9349788e+02 </wgt>
<wgt id='1701'> -2.9300641e+02 </wgt>
<wgt id='1702'> -2.9664410e+02 </wgt>
<wgt id='1703'> -2.9391327e+02 </wgt>
<wgt id='1704'> -2.9480041e+02 </wgt>
<wgt id='1705'> -2.9532946e+02 </wgt>
<wgt id='1706'> -2.9531419e+02 </wgt>
<wgt id='1707'> -2.9484322e+02 </wgt>
<wgt id='1708'> -2.9472648e+02 </wgt>
<wgt id='1709'> -2.9425790e+02 </wgt>
<wgt id='1710'> -2.9490643e+02 </wgt>
<wgt id='1711'> -2.9486155e+02 </wgt>
<wgt id='1712'> -2.9477124e+02 </wgt>
<wgt id='1713'> -2.9445221e+02 </wgt>
<wgt id='1714'> -2.9503009e+02 </wgt>
<wgt id='1715'> -2.9562420e+02 </wgt>
<wgt id='1716'> -2.9477515e+02 </wgt>
<wgt id='1717'> -2.9493266e+02 </wgt>
<wgt id='1718'> -2.9496380e+02 </wgt>
<wgt id='1719'> -2.9511179e+02 </wgt>
<wgt id='1720'> -2.9515608e+02 </wgt>
<wgt id='1721'> -2.9516971e+02 </wgt>
<wgt id='1722'> -2.9506917e+02 </wgt>
<wgt id='1723'> -2.9440128e+02 </wgt>
<wgt id='1724'> -2.9531020e+02 </wgt>
<wgt id='1725'> -2.9495746e+02 </wgt>
<wgt id='1726'> -2.9526850e+02 </wgt>
<wgt id='1727'> -2.9461287e+02 </wgt>
<wgt id='1728'> -2.9478768e+02 </wgt>
<wgt id='1729'> -2.9484172e+02 </wgt>
<wgt id='1730'> -2.9453966e+02 </wgt>
<wgt id='1731'> -2.9463970e+02 </wgt>
<wgt id='1732'> -2.9455572e+02 </wgt>
<wgt id='1733'> -2.9442434e+02 </wgt>
<wgt id='1734'> -2.9465742e+02 </wgt>
<wgt id='1735'> -2.9484233e+02 </wgt>
<wgt id='1736'> -2.9478772e+02 </wgt>
<wgt id='1737'> -2.9498838e+02 </wgt>
<wgt id='1738'> -2.9533251e+02 </wgt>
<wgt id='1739'> -2.9479864e+02 </wgt>
<wgt id='1740'> -2.9441771e+02 </wgt>
<wgt id='1741'> -2.9504117e+02 </wgt>
<wgt id='1742'> -2.9460303e+02 </wgt>
<wgt id='1743'> -2.9487388e+02 </wgt>
<wgt id='1744'> -2.9469361e+02 </wgt>
<wgt id='1745'> -2.9493090e+02 </wgt>
<wgt id='1746'> -2.9500451e+02 </wgt>
<wgt id='1747'> -2.9481319e+02 </wgt>
<wgt id='1748'> -2.9513307e+02 </wgt>
<wgt id='1749'> -2.9506514e+02 </wgt>
<wgt id='1750'> -2.9472814e+02 </wgt>
<wgt id='1751'> -2.9458656e+02 </wgt>
<wgt id='1752'> -2.9454091e+02 </wgt>
<wgt id='1753'> -2.9471178e+02 </wgt>
<wgt id='1754'> -2.9465626e+02 </wgt>
<wgt id='1755'> -2.9480466e+02 </wgt>
<wgt id='1756'> -2.9483615e+02 </wgt>
<wgt id='1757'> -2.9462153e+02 </wgt>
<wgt id='1758'> -2.9476316e+02 </wgt>
<wgt id='1759'> -2.9507836e+02 </wgt>
<wgt id='1760'> -2.9479991e+02 </wgt>
<wgt id='1761'> -2.9504146e+02 </wgt>
<wgt id='1762'> -2.9462234e+02 </wgt>
<wgt id='1763'> -2.9497977e+02 </wgt>
<wgt id='1764'> -2.9509063e+02 </wgt>
<wgt id='1765'> -2.9498856e+02 </wgt>
<wgt id='1766'> -2.9521692e+02 </wgt>
<wgt id='1767'> -2.9498578e+02 </wgt>
<wgt id='1768'> -2.9488270e+02 </wgt>
<wgt id='1769'> -2.9481535e+02 </wgt>
<wgt id='1770'> -2.9490590e+02 </wgt>
<wgt id='1771'> -2.9465780e+02 </wgt>
<wgt id='1772'> -2.9482253e+02 </wgt>
<wgt id='1773'> -2.9475678e+02 </wgt>
<wgt id='1774'> -2.9476951e+02 </wgt>
<wgt id='1775'> -2.9482839e+02 </wgt>
<wgt id='1776'> -2.9479819e+02 </wgt>
<wgt id='1777'> -2.9493359e+02 </wgt>
<wgt id='1778'> -2.9493641e+02 </wgt>
<wgt id='1779'> -2.9489364e+02 </wgt>
<wgt id='1780'> -2.9486563e+02 </wgt>
<wgt id='1781'> -2.7835862e+02 </wgt>
<wgt id='1782'> -3.1225962e+02 </wgt>
<wgt id='1783'> -2.9305421e+02 </wgt>
<wgt id='1784'> -2.9374967e+02 </wgt>
<wgt id='1785'> -2.9321305e+02 </wgt>
<wgt id='1786'> -2.9280981e+02 </wgt>
<wgt id='1787'> -2.9389396e+02 </wgt>
<wgt id='1788'> -2.9478943e+02 </wgt>
<wgt id='1789'> -2.9318029e+02 </wgt>
<wgt id='1790'> -2.9130188e+02 </wgt>
<wgt id='1791'> -2.9232768e+02 </wgt>
<wgt id='1792'> -2.9358653e+02 </wgt>
<wgt id='1793'> -2.9273778e+02 </wgt>
<wgt id='1794'> -2.9412907e+02 </wgt>
<wgt id='1795'> -2.9459368e+02 </wgt>
<wgt id='1796'> -2.9414941e+02 </wgt>
<wgt id='1797'> -2.9288992e+02 </wgt>
<wgt id='1798'> -2.9122211e+02 </wgt>
<wgt id='1799'> -2.9346373e+02 </wgt>
<wgt id='1800'> -2.9270662e+02 </wgt>
<wgt id='1801'> -2.9435786e+02 </wgt>
<wgt id='1802'> -2.9395989e+02 </wgt>
<wgt id='1803'> -2.9510220e+02 </wgt>
<wgt id='1804'> -2.9046564e+02 </wgt>
<wgt id='1805'> -2.9319022e+02 </wgt>
<wgt id='1806'> -2.9180075e+02 </wgt>
<wgt id='1807'> -2.9248843e+02 </wgt>
<wgt id='1808'> -2.9405050e+02 </wgt>
<wgt id='1809'> -2.9299124e+02 </wgt>
<wgt id='1810'> -2.9244897e+02 </wgt>
<wgt id='1811'> -2.9310413e+02 </wgt>
<wgt id='1812'> -2.9335239e+02 </wgt>
<wgt id='1813'> -2.9265945e+02 </wgt>
<wgt id='1814'> -2.9269486e+02 </wgt>
<wgt id='1815'> -2.9333727e+02 </wgt>
<wgt id='1816'> -2.9324283e+02 </wgt>
<wgt id='1817'> -2.9327952e+02 </wgt>
<wgt id='1818'> -2.9316735e+02 </wgt>
<wgt id='1819'> -2.9327135e+02 </wgt>
<wgt id='1820'> -2.9309674e+02 </wgt>
<wgt id='1821'> -2.9329397e+02 </wgt>
<wgt id='1822'> -2.9296454e+02 </wgt>
<wgt id='1823'> -2.9295661e+02 </wgt>
<wgt id='1824'> -2.9317154e+02 </wgt>
<wgt id='1825'> -2.9307508e+02 </wgt>
<wgt id='1826'> -2.9266221e+02 </wgt>
<wgt id='1827'> -2.9311517e+02 </wgt>
<wgt id='1828'> -2.9323449e+02 </wgt>
<wgt id='1829'> -2.9265721e+02 </wgt>
<wgt id='1830'> -2.9328086e+02 </wgt>
<wgt id='1831'> -2.9320325e+02 </wgt>
<wgt id='1832'> -2.9293879e+02 </wgt>
<wgt id='1833'> -2.9306514e+02 </wgt>
<wgt id='1834'> -2.9325557e+02 </wgt>
<wgt id='1835'> -2.9330472e+02 </wgt>
<wgt id='1836'> -2.9301251e+02 </wgt>
<wgt id='1837'> -2.9302322e+02 </wgt>
<wgt id='1838'> -2.9288139e+02 </wgt>
<wgt id='1839'> -2.9326707e+02 </wgt>
<wgt id='1840'> -2.9320203e+02 </wgt>
<wgt id='1841'> -2.9259291e+02 </wgt>
<wgt id='1842'> -2.9280203e+02 </wgt>
<wgt id='1843'> -2.9288457e+02 </wgt>
<wgt id='1844'> -2.9307783e+02 </wgt>
<wgt id='1845'> -2.9309032e+02 </wgt>
<wgt id='1846'> -2.9309162e+02 </wgt>
<wgt id='1847'> -2.9303537e+02 </wgt>
<wgt id='1848'> -2.9297073e+02 </wgt>
<wgt id='1849'> -2.9304944e+02 </wgt>
<wgt id='1850'> -2.9320383e+02 </wgt>
<wgt id='1851'> -2.9303806e+02 </wgt>
<wgt id='1852'> -2.9337247e+02 </wgt>
<wgt id='1853'> -2.9292743e+02 </wgt>
<wgt id='1854'> -2.9333443e+02 </wgt>
<wgt id='1855'> -2.9337480e+02 </wgt>
<wgt id='1856'> -2.9300052e+02 </wgt>
<wgt id='1857'> -2.9310516e+02 </wgt>
<wgt id='1858'> -2.9304669e+02 </wgt>
<wgt id='1859'> -2.9303343e+02 </wgt>
<wgt id='1860'> -2.9317618e+02 </wgt>
<wgt id='1861'> -2.9305523e+02 </wgt>
<wgt id='1862'> -2.9310531e+02 </wgt>
<wgt id='1863'> -2.9343363e+02 </wgt>
<wgt id='1864'> -2.9310303e+02 </wgt>
<wgt id='1865'> -2.9322892e+02 </wgt>
<wgt id='1866'> -2.9294813e+02 </wgt>
<wgt id='1867'> -2.9291845e+02 </wgt>
<wgt id='1868'> -2.9283790e+02 </wgt>
<wgt id='1869'> -2.9320088e+02 </wgt>
<wgt id='1870'> -2.9267739e+02 </wgt>
<wgt id='1871'> -2.9287359e+02 </wgt>
<wgt id='1872'> -2.9288478e+02 </wgt>
<wgt id='1873'> -2.9308025e+02 </wgt>
<wgt id='1874'> -2.9296699e+02 </wgt>
<wgt id='1875'> -2.9301664e+02 </wgt>
<wgt id='1876'> -2.9295777e+02 </wgt>
<wgt id='1877'> -2.9296074e+02 </wgt>
<wgt id='1878'> -2.9311147e+02 </wgt>
<wgt id='1879'> -2.9302121e+02 </wgt>
<wgt id='1880'> -2.9308444e+02 </wgt>
<wgt id='1881'> -2.9302630e+02 </wgt>
<wgt id='1882'> -2.9292574e+02 </wgt>
<wgt id='1883'> -2.9309991e+02 </wgt>
<wgt id='1884'> -2.7617258e+02 </wgt>
<wgt id='1885'> -3.1038760e+02 </wgt>
<wgt id='1886'> -2.9479674e+02 </wgt>
<wgt id='1887'> -2.9539700e+02 </wgt>
<wgt id='1888'> -2.9293323e+02 </wgt>
<wgt id='1889'> -2.9477169e+02 </wgt>
<wgt id='1890'> -2.9232000e+02 </wgt>
<wgt id='1891'> -2.9465564e+02 </wgt>
<wgt id='1892'> -2.9327069e+02 </wgt>
<wgt id='1893'> -2.9461261e+02 </wgt>
<wgt id='1894'> -2.9484194e+02 </wgt>
<wgt id='1895'> -2.9338861e+02 </wgt>
<wgt id='1896'> -2.9515314e+02 </wgt>
<wgt id='1897'> -2.9284540e+02 </wgt>
<wgt id='1898'> -2.9432277e+02 </wgt>
<wgt id='1899'> -2.9517562e+02 </wgt>
<wgt id='1900'> -2.9456910e+02 </wgt>
<wgt id='1901'> -2.9499204e+02 </wgt>
<wgt id='1902'> -2.9423890e+02 </wgt>
<wgt id='1903'> -2.9695157e+02 </wgt>
<wgt id='1904'> -2.9537746e+02 </wgt>
<wgt id='1905'> -2.9109055e+02 </wgt>
<wgt id='1906'> -2.9441159e+02 </wgt>
<wgt id='1907'> -2.9481511e+02 </wgt>
<wgt id='1908'> -2.9521107e+02 </wgt>
<wgt id='1909'> -2.9508797e+02 </wgt>
<wgt id='1910'> -2.9455786e+02 </wgt>
<wgt id='1911'> -2.9464031e+02 </wgt>
<wgt id='1912'> -2.9536897e+02 </wgt>
<wgt id='1913'> -2.9513492e+02 </wgt>
<wgt id='1914'> -2.9704060e+02 </wgt>
<wgt id='1915'> -2.9497067e+02 </wgt>
<wgt id='1916'> -2.9449962e+02 </wgt>
<wgt id='1917'> -2.7835862e+02 </wgt>
<wgt id='1918'> -3.1225962e+02 </wgt>
<wgt id='1919'> -2.9299606e+02 </wgt>
<wgt id='1920'> -2.8949433e+02 </wgt>
<wgt id='1921'> -2.9278304e+02 </wgt>
<wgt id='1922'> -2.9310666e+02 </wgt>
<wgt id='1923'> -2.9172155e+02 </wgt>
<wgt id='1924'> -2.9382400e+02 </wgt>
<wgt id='1925'> -2.9317261e+02 </wgt>
<wgt id='1926'> -2.9311320e+02 </wgt>
<wgt id='1927'> -2.9327429e+02 </wgt>
<wgt id='1928'> -2.9300232e+02 </wgt>
<wgt id='1929'> -2.9099779e+02 </wgt>
<wgt id='1930'> -2.9249356e+02 </wgt>
<wgt id='1931'> -2.9274898e+02 </wgt>
<wgt id='1932'> -2.9329982e+02 </wgt>
<wgt id='1933'> -2.9274709e+02 </wgt>
<wgt id='1934'> -2.9222402e+02 </wgt>
<wgt id='1935'> -2.9336436e+02 </wgt>
<wgt id='1936'> -2.9366267e+02 </wgt>
<wgt id='1937'> -2.9308967e+02 </wgt>
<wgt id='1938'> -2.9315336e+02 </wgt>
<wgt id='1939'> -2.9325480e+02 </wgt>
<wgt id='1940'> -2.9343974e+02 </wgt>
<wgt id='1941'> -2.9395544e+02 </wgt>
<wgt id='1942'> -2.9312883e+02 </wgt>
<wgt id='1943'> -2.9206347e+02 </wgt>
<wgt id='1944'> -2.9277115e+02 </wgt>
<wgt id='1945'> -2.9299374e+02 </wgt>
<wgt id='1946'> -2.9354573e+02 </wgt>
<wgt id='1947'> -2.9269152e+02 </wgt>
<wgt id='1948'> -2.8957382e+02 </wgt>
<wgt id='1949'> -2.9311906e+02 </wgt>
<wgt id='1950'> -2.7617258e+02 </wgt>
<wgt id='1951'> -3.1038760e+02 </wgt>
<wgt id='1952'> -2.6313420e+02 </wgt>
<wgt id='1953'> -2.6292870e+02 </wgt>
<wgt id='1954'> -2.6333896e+02 </wgt>
<wgt id='1955'> -2.6306328e+02 </wgt>
<wgt id='1956'> -2.6320451e+02 </wgt>
<wgt id='1957'> -2.6328107e+02 </wgt>
<wgt id='1958'> -2.6298794e+02 </wgt>
<wgt id='1959'> -2.6397319e+02 </wgt>
<wgt id='1960'> -2.6231350e+02 </wgt>
<wgt id='1961'> -2.6265671e+02 </wgt>
<wgt id='1962'> -2.6361152e+02 </wgt>
<wgt id='1963'> -2.6207109e+02 </wgt>
<wgt id='1964'> -2.6435765e+02 </wgt>
<wgt id='1965'> -2.6266717e+02 </wgt>
<wgt id='1966'> -2.6360961e+02 </wgt>
<wgt id='1967'> -2.6410677e+02 </wgt>
<wgt id='1968'> -2.6182044e+02 </wgt>
<wgt id='1969'> -2.6410126e+02 </wgt>
<wgt id='1970'> -2.6252933e+02 </wgt>
<wgt id='1971'> -2.6368007e+02 </wgt>
<wgt id='1972'> -2.6244189e+02 </wgt>
<wgt id='1973'> -2.6278434e+02 </wgt>
<wgt id='1974'> -2.6357054e+02 </wgt>
<wgt id='1975'> -2.6143952e+02 </wgt>
<wgt id='1976'> -2.6496346e+02 </wgt>
<wgt id='1977'> -2.6189919e+02 </wgt>
<wgt id='1978'> -2.6444106e+02 </wgt>
<wgt id='1979'> -2.6606708e+02 </wgt>
<wgt id='1980'> -2.6037529e+02 </wgt>
<wgt id='1981'> -2.6313420e+02 </wgt>
<wgt id='1982'> -2.6467222e+02 </wgt>
<wgt id='1983'> -2.6094264e+02 </wgt>
<wgt id='1984'> -2.6480207e+02 </wgt>
<wgt id='1985'> -2.6164866e+02 </wgt>
<wgt id='1986'> -2.6146824e+02 </wgt>
<wgt id='1987'> -2.6674901e+02 </wgt>
<wgt id='1988'> -2.6329287e+02 </wgt>
<wgt id='1989'> -2.6312560e+02 </wgt>
<wgt id='1990'> -2.6488654e+02 </wgt>
<wgt id='1991'> -2.6144990e+02 </wgt>
<wgt id='1992'> -2.6218960e+02 </wgt>
<wgt id='1993'> -2.6230434e+02 </wgt>
<wgt id='1994'> -2.6543994e+02 </wgt>
<wgt id='1995'> -2.8259640e+02 </wgt>
<wgt id='1996'> -2.8231707e+02 </wgt>
<wgt id='1997'> -2.8280438e+02 </wgt>
<wgt id='1998'> -2.8238493e+02 </wgt>
<wgt id='1999'> -2.8273783e+02 </wgt>
<wgt id='2000'> -2.8266438e+02 </wgt>
<wgt id='2001'> -2.8245720e+02 </wgt>
<wgt id='2002'> -2.8379350e+02 </wgt>
<wgt id='2003'> -2.8136660e+02 </wgt>
<wgt id='2004'> -2.8147845e+02 </wgt>
<wgt id='2005'> -2.8368447e+02 </wgt>
<wgt id='2006'> -2.8305158e+02 </wgt>
<wgt id='2007'> -2.8207740e+02 </wgt>
<wgt id='2008'> -2.8226896e+02 </wgt>
<wgt id='2009'> -2.8282934e+02 </wgt>
<wgt id='2010'> -2.8263510e+02 </wgt>
<wgt id='2011'> -2.8182639e+02 </wgt>
<wgt id='2012'> -2.8221675e+02 </wgt>
<wgt id='2013'> -2.8293027e+02 </wgt>
<wgt id='2014'> -2.8242359e+02 </wgt>
<wgt id='2015'> -2.8272474e+02 </wgt>
<wgt id='2016'> -2.8490244e+02 </wgt>
<wgt id='2017'> -2.8038193e+02 </wgt>
<wgt id='2018'> -2.8077001e+02 </wgt>
<wgt id='2019'> -2.8451817e+02 </wgt>
<wgt id='2020'> -2.7930541e+02 </wgt>
<wgt id='2021'> -2.8603198e+02 </wgt>
<wgt id='2022'> -2.8098449e+02 </wgt>
<wgt id='2023'> -2.8416000e+02 </wgt>
<wgt id='2024'> -2.8255001e+02 </wgt>
<wgt id='2025'> -2.8403307e+02 </wgt>
<wgt id='2026'> -2.7925212e+02 </wgt>
<wgt id='2027'> -2.8409099e+02 </wgt>
<wgt id='2028'> -2.8141964e+02 </wgt>
<wgt id='2029'> -2.7747301e+02 </wgt>
<wgt id='2030'> -2.8356588e+02 </wgt>
<wgt id='2031'> -2.8255889e+02 </wgt>
<wgt id='2032'> -2.8292821e+02 </wgt>
<wgt id='2033'> -2.8431496e+02 </wgt>
<wgt id='2034'> -2.7505302e+02 </wgt>
<wgt id='2035'> -2.8293613e+02 </wgt>
<wgt id='2036'> -2.8202581e+02 </wgt>
<wgt id='2037'> -2.8514587e+02 </wgt>
<wgt id='2038'> -2.9045100e+02 </wgt>
<wgt id='2039'> -2.9041374e+02 </wgt>
<wgt id='2040'> -2.9037639e+02 </wgt>
<wgt id='2041'> -2.9033964e+02 </wgt>
<wgt id='2042'> -2.9030274e+02 </wgt>
<wgt id='2043'> -2.9026565e+02 </wgt>
<wgt id='2044'> -2.9022893e+02 </wgt>
<wgt id='2045'> -2.9019135e+02 </wgt>
<wgt id='2046'> -2.9015408e+02 </wgt>
<wgt id='2047'> -2.9011720e+02 </wgt>
<wgt id='2048'> -2.9008007e+02 </wgt>
<wgt id='2049'> -2.9004392e+02 </wgt>
<wgt id='2050'> -2.9000603e+02 </wgt>
<wgt id='2051'> -2.8996967e+02 </wgt>
<wgt id='2052'> -2.8993160e+02 </wgt>
<wgt id='2053'> -2.8989517e+02 </wgt>
<wgt id='2054'> -2.8985763e+02 </wgt>
<wgt id='2055'> -2.8982125e+02 </wgt>
<wgt id='2056'> -2.8978400e+02 </wgt>
<wgt id='2057'> -2.8974717e+02 </wgt>
<wgt id='2058'> -2.8970904e+02 </wgt>
<wgt id='2059'> -2.8967262e+02 </wgt>
<wgt id='2060'> -2.8963639e+02 </wgt>
<wgt id='2061'> -2.8959862e+02 </wgt>
<wgt id='2062'> -2.8956265e+02 </wgt>
<wgt id='2063'> -2.8952531e+02 </wgt>
<wgt id='2064'> -2.8948746e+02 </wgt>
<wgt id='2065'> -2.8945047e+02 </wgt>
<wgt id='2066'> -2.8941377e+02 </wgt>
<wgt id='2067'> -2.8937660e+02 </wgt>
<wgt id='2068'> -2.8934000e+02 </wgt>
<wgt id='2069'> -2.8995006e+02 </wgt>
<wgt id='2070'> -2.9062385e+02 </wgt>
<wgt id='2071'> -2.9009941e+02 </wgt>
<wgt id='2072'> -2.8971317e+02 </wgt>
<wgt id='2073'> -2.9077991e+02 </wgt>
<wgt id='2074'> -2.9167354e+02 </wgt>
<wgt id='2075'> -2.9008732e+02 </wgt>
<wgt id='2076'> -2.8822220e+02 </wgt>
<wgt id='2077'> -2.8923079e+02 </wgt>
<wgt id='2078'> -2.9048005e+02 </wgt>
<wgt id='2079'> -2.8963784e+02 </wgt>
<wgt id='2080'> -2.9103338e+02 </wgt>
<wgt id='2081'> -2.9147396e+02 </wgt>
<wgt id='2082'> -2.9103732e+02 </wgt>
<wgt id='2083'> -2.8977231e+02 </wgt>
<wgt id='2084'> -2.8810707e+02 </wgt>
<wgt id='2085'> -2.9037218e+02 </wgt>
<wgt id='2086'> -2.8960114e+02 </wgt>
<wgt id='2087'> -2.9123631e+02 </wgt>
<wgt id='2088'> -2.9085980e+02 </wgt>
<wgt id='2089'> -2.9198959e+02 </wgt>
<wgt id='2090'> -2.8737899e+02 </wgt>
<wgt id='2091'> -2.9008974e+02 </wgt>
<wgt id='2092'> -2.8870440e+02 </wgt>
<wgt id='2093'> -2.8937588e+02 </wgt>
<wgt id='2094'> -2.9092867e+02 </wgt>
<wgt id='2095'> -2.8987627e+02 </wgt>
<wgt id='2096'> -2.8936556e+02 </wgt>
<wgt id='2097'> -2.9000807e+02 </wgt>
<wgt id='2098'> -2.9023909e+02 </wgt>
<wgt id='2099'> -2.8955800e+02 </wgt>
<wgt id='2100'> -2.8960863e+02 </wgt>
<wgt id='2101'> -2.9022441e+02 </wgt>
<wgt id='2102'> -2.9013512e+02 </wgt>
<wgt id='2103'> -2.9017095e+02 </wgt>
<wgt id='2104'> -2.9006159e+02 </wgt>
<wgt id='2105'> -2.9016416e+02 </wgt>
<wgt id='2106'> -2.8999567e+02 </wgt>
<wgt id='2107'> -2.9018615e+02 </wgt>
<wgt id='2108'> -2.8985685e+02 </wgt>
<wgt id='2109'> -2.8985326e+02 </wgt>
<wgt id='2110'> -2.9006117e+02 </wgt>
<wgt id='2111'> -2.8996787e+02 </wgt>
<wgt id='2112'> -2.8957121e+02 </wgt>
<wgt id='2113'> -2.9001006e+02 </wgt>
<wgt id='2114'> -2.9012586e+02 </wgt>
<wgt id='2115'> -2.8956015e+02 </wgt>
<wgt id='2116'> -2.9017001e+02 </wgt>
<wgt id='2117'> -2.9009977e+02 </wgt>
<wgt id='2118'> -2.8983294e+02 </wgt>
<wgt id='2119'> -2.8996272e+02 </wgt>
<wgt id='2120'> -2.9014923e+02 </wgt>
<wgt id='2121'> -2.9019704e+02 </wgt>
<wgt id='2122'> -2.8991085e+02 </wgt>
<wgt id='2123'> -2.8992100e+02 </wgt>
<wgt id='2124'> -2.8978002e+02 </wgt>
<wgt id='2125'> -2.9015684e+02 </wgt>
<wgt id='2126'> -2.9009620e+02 </wgt>
<wgt id='2127'> -2.8949873e+02 </wgt>
<wgt id='2128'> -2.8970219e+02 </wgt>
<wgt id='2129'> -2.8978406e+02 </wgt>
<wgt id='2130'> -2.8997479e+02 </wgt>
<wgt id='2131'> -2.8998409e+02 </wgt>
<wgt id='2132'> -2.8998687e+02 </wgt>
<wgt id='2133'> -2.8993225e+02 </wgt>
<wgt id='2134'> -2.8986650e+02 </wgt>
<wgt id='2135'> -2.8994559e+02 </wgt>
<wgt id='2136'> -2.9009558e+02 </wgt>
<wgt id='2137'> -2.8993416e+02 </wgt>
<wgt id='2138'> -2.9026315e+02 </wgt>
<wgt id='2139'> -2.8982290e+02 </wgt>
<wgt id='2140'> -2.9023088e+02 </wgt>
<wgt id='2141'> -2.9026707e+02 </wgt>
<wgt id='2142'> -2.8989418e+02 </wgt>
<wgt id='2143'> -2.9000072e+02 </wgt>
<wgt id='2144'> -2.8994275e+02 </wgt>
<wgt id='2145'> -2.8993349e+02 </wgt>
<wgt id='2146'> -2.9007168e+02 </wgt>
<wgt id='2147'> -2.8995539e+02 </wgt>
<wgt id='2148'> -2.9000034e+02 </wgt>
<wgt id='2149'> -2.9032240e+02 </wgt>
<wgt id='2150'> -2.9000136e+02 </wgt>
<wgt id='2151'> -2.9012381e+02 </wgt>
<wgt id='2152'> -2.8984486e+02 </wgt>
<wgt id='2153'> -2.8981383e+02 </wgt>
<wgt id='2154'> -2.8973692e+02 </wgt>
<wgt id='2155'> -2.9009926e+02 </wgt>
<wgt id='2156'> -2.8957566e+02 </wgt>
<wgt id='2157'> -2.8976957e+02 </wgt>
<wgt id='2158'> -2.8978038e+02 </wgt>
<wgt id='2159'> -2.8997544e+02 </wgt>
<wgt id='2160'> -2.8986182e+02 </wgt>
<wgt id='2161'> -2.8991105e+02 </wgt>
<wgt id='2162'> -2.8985484e+02 </wgt>
<wgt id='2163'> -2.8985533e+02 </wgt>
<wgt id='2164'> -2.9000702e+02 </wgt>
<wgt id='2165'> -2.8991766e+02 </wgt>
<wgt id='2166'> -2.8997957e+02 </wgt>
<wgt id='2167'> -2.8992219e+02 </wgt>
<wgt id='2168'> -2.8982301e+02 </wgt>
<wgt id='2169'> -2.8999628e+02 </wgt>
<wgt id='2170'> -2.8994733e+02 </wgt>
<wgt id='2171'> -2.8993200e+02 </wgt>
<wgt id='2172'> -2.8995294e+02 </wgt>
<wgt id='2173'> -2.8995340e+02 </wgt>
<wgt id='2174'> -2.8995844e+02 </wgt>
<wgt id='2175'> -2.8995128e+02 </wgt>
<wgt id='2176'> -2.8993800e+02 </wgt>
<wgt id='2177'> -2.9851453e+02 </wgt>
<wgt id='2178'> -2.9046666e+02 </wgt>
<wgt id='2179'> -3.0050958e+02 </wgt>
<wgt id='2180'> -3.0118625e+02 </wgt>
<wgt id='2181'> -2.9056553e+02 </wgt>
<wgt id='2182'> -2.8386502e+02 </wgt>
<wgt id='2183'> -2.9576732e+02 </wgt>
<wgt id='2184'> -2.9902334e+02 </wgt>
<wgt id='2185'> -3.0358204e+02 </wgt>
<wgt id='2186'> -2.9714028e+02 </wgt>
<wgt id='2187'> -3.0016373e+02 </wgt>
<wgt id='2188'> -2.9313868e+02 </wgt>
<wgt id='2189'> -2.9734560e+02 </wgt>
<wgt id='2190'> -3.0249251e+02 </wgt>
<wgt id='2191'> -3.0458913e+02 </wgt>
<wgt id='2192'> -3.0026629e+02 </wgt>
<wgt id='2193'> -3.0221171e+02 </wgt>
<wgt id='2194'> -3.0484388e+02 </wgt>
<wgt id='2195'> -3.0352849e+02 </wgt>
<wgt id='2196'> -2.9708337e+02 </wgt>
<wgt id='2197'> -3.0119481e+02 </wgt>
<wgt id='2198'> -2.9337693e+02 </wgt>
<wgt id='2199'> -2.9475781e+02 </wgt>
<wgt id='2200'> -3.0701909e+02 </wgt>
<wgt id='2201'> -2.9284789e+02 </wgt>
<wgt id='2202'> -2.9798384e+02 </wgt>
<wgt id='2203'> -2.9139008e+02 </wgt>
<wgt id='2204'> -3.0808664e+02 </wgt>
<wgt id='2205'> -2.9854453e+02 </wgt>
<wgt id='2206'> -2.9919184e+02 </wgt>
<wgt id='2207'> -2.9556973e+02 </wgt>
<wgt id='2208'> -2.9361511e+02 </wgt>
<wgt id='2209'> -2.9563564e+02 </wgt>
<wgt id='2210'> -2.9743845e+02 </wgt>
<wgt id='2211'> -2.8864032e+02 </wgt>
<wgt id='2212'> -3.1107905e+02 </wgt>
<wgt id='2213'> -3.0257457e+02 </wgt>
<wgt id='2214'> -2.9995392e+02 </wgt>
<wgt id='2215'> -3.0407829e+02 </wgt>
<wgt id='2216'> -2.9318988e+02 </wgt>
<wgt id='2217'> -2.9690687e+02 </wgt>
<wgt id='2218'> -2.9879708e+02 </wgt>
<wgt id='2219'> -2.9205324e+02 </wgt>
<wgt id='2220'> -2.9249673e+02 </wgt>
<wgt id='2221'> -2.9419291e+02 </wgt>
<wgt id='2222'> -3.0149761e+02 </wgt>
<wgt id='2223'> -2.9788002e+02 </wgt>
<wgt id='2224'> -2.9860564e+02 </wgt>
<wgt id='2225'> -2.9804278e+02 </wgt>
<wgt id='2226'> -3.0265755e+02 </wgt>
<wgt id='2227'> -2.9839648e+02 </wgt>
<wgt id='2228'> -2.9538547e+02 </wgt>
<wgt id='2229'> -2.9794499e+02 </wgt>
<wgt id='2230'> -2.9341901e+02 </wgt>
<wgt id='2231'> -2.9838044e+02 </wgt>
<wgt id='2232'> -2.9848093e+02 </wgt>
<wgt id='2233'> -3.0020258e+02 </wgt>
<wgt id='2234'> -3.0257373e+02 </wgt>
<wgt id='2235'> -2.9734005e+02 </wgt>
<wgt id='2236'> -2.9906453e+02 </wgt>
<wgt id='2237'> -2.9873769e+02 </wgt>
<wgt id='2238'> -2.9974766e+02 </wgt>
<wgt id='2239'> -2.9833732e+02 </wgt>
<wgt id='2240'> -2.9732931e+02 </wgt>
<wgt id='2241'> -3.0181196e+02 </wgt>
<wgt id='2242'> -3.0022922e+02 </wgt>
<wgt id='2243'> -2.9570785e+02 </wgt>
<wgt id='2244'> -3.1188726e+02 </wgt>
<wgt id='2245'> -2.9813363e+02 </wgt>
<wgt id='2246'> -2.9667155e+02 </wgt>
<wgt id='2247'> -2.9637589e+02 </wgt>
<wgt id='2248'> -2.9839226e+02 </wgt>
<wgt id='2249'> -2.9514767e+02 </wgt>
<wgt id='2250'> -2.9807643e+02 </wgt>
<wgt id='2251'> -2.9380679e+02 </wgt>
<wgt id='2252'> -3.0176002e+02 </wgt>
<wgt id='2253'> -2.8856383e+02 </wgt>
<wgt id='2254'> -2.9241741e+02 </wgt>
<wgt id='2255'> -2.9830455e+02 </wgt>
<wgt id='2256'> -2.9931179e+02 </wgt>
<wgt id='2257'> -2.9733970e+02 </wgt>
<wgt id='2258'> -2.9891470e+02 </wgt>
<wgt id='2259'> -2.9843575e+02 </wgt>
<wgt id='2260'> -2.9612570e+02 </wgt>
<wgt id='2261'> -3.0212667e+02 </wgt>
<wgt id='2262'> -2.9833696e+02 </wgt>
<wgt id='2263'> -2.9918919e+02 </wgt>
<wgt id='2264'> -3.0156186e+02 </wgt>
<wgt id='2265'> -3.0144157e+02 </wgt>
<wgt id='2266'> -2.9904255e+02 </wgt>
<wgt id='2267'> -2.9437550e+02 </wgt>
<wgt id='2268'> -2.9855918e+02 </wgt>
<wgt id='2269'> -2.9865520e+02 </wgt>
<wgt id='2270'> -3.0161157e+02 </wgt>
<wgt id='2271'> -3.0045114e+02 </wgt>
<wgt id='2272'> -3.0431362e+02 </wgt>
<wgt id='2273'> -2.9874445e+02 </wgt>
<wgt id='2274'> -3.0013798e+02 </wgt>
<wgt id='2275'> -3.0160911e+02 </wgt>
<wgt id='2276'> -3.0357755e+02 </wgt>
<wgt id='2277'> -3.0501129e+02 </wgt>
<wgt id='2278'> -2.8713623e+02 </wgt>
<wgt id='2279'> -3.0924633e+02 </wgt>
<wgt id='2280'> -2.9172583e+02 </wgt>
<wgt id='2281'> -2.8651176e+02 </wgt>
<wgt id='2282'> -4.4704001e+02 </wgt>
<wgt id='2283'> -3.0257345e+02 </wgt>
<wgt id='2284'> -4.3327691e+02 </wgt>
</rwgt>
</event>
<event npLO=" -1 " npNLO=" 2 ">
 6      2 +2.8781417e+02 1.36876030e+01 7.54677110e-03 1.23585130e-01
        1 -1    0    0  504    0 +0.0000000000e+00 +0.0000000000e+00 +1.0708006000e+03 1.0708006000e+03 0.0000000000e+00 0.0000e+00 9.0000e+00
       21 -1    0    0  503  502 +0.0000000000e+00 +0.0000000000e+00 -2.1518316000e+02 2.1518316000e+02 0.0000000000e+00 0.0000e+00 9.0000e+00
       25  1    1    2    0    0 -7.0419765000e+01 +2.2501913000e+01 -1.9331702000e+02 2.2986245000e+02 1.0000000000e+02 0.0000e+00 9.0000e+00
        1  1    1    2  501    0 +3.6052437000e+01 -1.9580317000e+01 +2.2374719000e+02 2.2747741000e+02 0.0000000000e+00 0.0000e+00 9.0000e+00
       21  1    1    2  503  501 +2.0410774000e+01 -1.4757159000e+01 +9.6683256000e+01 9.9910087000e+01 0.0000000000e+00 0.0000e+00 9.0000e+00
       21  1    1    2  504  502 +1.3956554000e+01 +1.1835562000e+01 +7.2850399000e+02 7.2873378000e+02 0.0000000000e+00 0.0000e+00 9.0000e+00
#aMCatNLO 2  0  0  1  1 0.14671426E+03 0.00000000E+00 -9  6  0 0.00000000E+00 0.00000000E+00 0.00000000E+00 0.00000000E+00 0.00000000E+00
<rwgt>
<wgt id='1001'> +2.8781417e+02 </wgt>
<wgt id='1002'> +1.7106695e+02 </wgt>
<wgt id='1003'> +5.1621873e+02 </wgt>
<wgt id='1004'> +2.6776384e+02 </wgt>
<wgt id='1005'> +1.5914971e+02 </wgt>
<wgt id='1006'> +4.8025678e+02 </wgt>
<wgt id='1007'> +3.0931529e+02 </wgt>
<wgt id='1008'> +1.8384648e+02 </wgt>
<wgt id='1009'> +5.5478278e+02 </wgt>
<wgt id='1010'> +2.8781417e+02 </wgt>
<wgt id='1011'> +2.8939980e+02 </wgt>
<wgt id='1012'> +2.8771651e+02 </wgt>
<wgt id='1013'> +2.8823647e+02 </wgt>
<wgt id='1014'> +2.8789469e+02 </wgt>
<wgt id='1015'> +2.8919320e+02 </wgt>
<wgt id='1016'> +2.8764265e+02 </wgt>
<wgt id='1017'> +2.8706199e+02 </wgt>
<wgt id='1018'> +2.8782472e+02 </wgt>
<wgt id='1019'> +2.8705853e+02 </wgt>
<wgt id='1020'> +2.8798749e+02 </wgt>
<wgt id='1021'> +2.8679040e+02 </wgt>
<wgt id='1022'> +2.8826394e+02 </wgt>
<wgt id='1023'> +2.8804818e+02 </wgt>
<wgt id='1024'> +2.8817004e+02 </wgt>
<wgt id='1025'> +2.8736153e+02 </wgt>
<wgt id='1026'> +2.8699569e+02 </wgt>
<wgt id='1027'> +2.8855519e+02 </wgt>
<wgt id='1028'> +2.8680036e+02 </wgt>
<wgt id='1029'> +2.9021021e+02 </wgt>
<wgt id='1030'> +2.8738836e+02 </wgt>
<wgt id='1031'> +2.8814164e+02 </wgt>
<wgt id='1032'> +2.8726489e+02 </wgt>
<wgt id='1033'> +2.8687505e+02 </wgt>
<wgt id='1034'> +2.8899609e+02 </wgt>
<wgt id='1035'> +2.8782142e+02 </wgt>
<wgt id='1036'> +2.8846886e+02 </wgt>
<wgt id='1037'> +2.8685790e+02 </wgt>
<wgt id='1038'> +2.8878679e+02 </wgt>
<wgt id='1039'> +2.8935181e+02 </wgt>
<wgt id='1040'> +2.8713681e+02 </wgt>
<wgt id='1041'> +2.9023414e+02 </wgt>
<wgt id='1042'> +2.8854101e+02 </wgt>
<wgt id='1043'> +2.8889907e+02 </wgt>
<wgt id='1044'> +2.8869009e+02 </wgt>
<wgt id='1045'> +2.8748223e+02 </wgt>
<wgt id='1046'> +2.8589324e+02 </wgt>
<wgt id='1047'> +2.8988569e+02 </wgt>
<wgt id='1048'> +2.8685937e+02 </wgt>
<wgt id='1049'> +2.8718703e+02 </wgt>
<wgt id='1050'> +2.8791462e+02 </wgt>
<wgt id='1051'> +2.8815651e+02 </wgt>
<wgt id='1052'> +2.8825425e+02 </wgt>
<wgt id='1053'> +2.8744517e+02 </wgt>
<wgt id='1054'> +2.8763815e+02 </wgt>
<wgt id='1055'> +2.8872087e+02 </wgt>
<wgt id='1056'> +2.8769411e+02 </wgt>
<wgt id='1057'> +2.8804606e+02 </wgt>
<wgt id='1058'> +2.8759188e+02 </wgt>
<wgt id='1059'> +2.8687259e+02 </wgt>
<wgt id='1060'> +2.8690646e+02 </wgt>
<wgt id='1061'> +2.8747130e+02 </wgt>
<wgt id='1062'> +2.8721842e+02 </wgt>
<wgt id='1063'> +2.8808850e+02 </wgt>
<wgt id='1064'> +2.8776494e+02 </wgt>
<wgt id='1065'> +2.8880444e+02 </wgt>
<wgt id='1066'> +2.8674163e+02 </wgt>
<wgt id='1067'> +2.8774970e+02 </wgt>
<wgt id='1068'> +2.8874628e+02 </wgt>
<wgt id='1069'> +2.8758348e+02 </wgt>
<wgt id='1070'> +2.8762154e+02 </wgt>
<wgt id='1071'> +2.8861562e+02 </wgt>
<wgt id='1072'> +2.8865876e+02 </wgt>
<wgt id='1073'> +2.8783624e+02 </wgt>
<wgt id='1074'> +2.8789863e+02 </wgt>
<wgt id='1075'> +2.8771992e+02 </wgt>
<wgt id='1076'> +2.8738674e+02 </wgt>
<wgt id='1077'> +2.8784459e+02 </wgt>
<wgt id='1078'> +2.8850516e+02 </wgt>
<wgt id='1079'> +2.8795669e+02 </wgt>
<wgt id='1080'> +2.8764997e+02 </wgt>
<wgt id='1081'> +2.8813233e+02 </wgt>
<wgt id='1082'> +2.8768060e+02 </wgt>
<wgt id='1083'> +2.8784873e+02 </wgt>
<wgt id='1084'> +2.8797389e+02 </wgt>
<wgt id='1085'> +2.8728509e+02 </wgt>
<wgt id='1086'> +2.8754869e+02 </wgt>
<wgt id='1087'> +2.8830482e+02 </wgt>
<wgt id='1088'> +2.8781158e+02 </wgt>
<wgt id='1089'> +2.8742131e+02 </wgt>
<wgt id='1090'> +2.8790021e+02 </wgt>
<wgt id='1091'> +2.8781739e+02 </wgt>
<wgt id='1092'> +2.8785201e+02 </wgt>
<wgt id='1093'> +2.8794424e+02 </wgt>
<wgt id='1094'> +2.8777783e+02 </wgt>
<wgt id='1095'> +2.8784949e+02 </wgt>
<wgt id='1096'> +2.8785491e+02 </wgt>
<wgt id='1097'> +2.8797802e+02 </wgt>
<wgt id='1098'> +2.8795276e+02 </wgt>
<wgt id='1099'> +2.8783487e+02 </wgt>
<wgt id='1100'> +2.8777007e+02 </wgt>
<wgt id='1101'> +2.8783590e+02 </wgt>
<wgt id='1102'> +2.8798809e+02 </wgt>
<wgt id='1103'> +2.8777497e+02 </wgt>
<wgt id='1104'> +2.8806069e+02 </wgt>
<wgt id='1105'> +2.8784339e+02 </wgt>
<wgt id='1106'> +2.8774411e+02 </wgt>
<wgt id='1107'> +2.8771419e+02 </wgt>
<wgt id='1108'> +2.8765123e+02 </wgt>
<wgt id='1109'> +2.8787810e+02 </wgt>
<wgt id='1110'> +2.8781417e+02 </wgt>
<wgt id='1111'> +2.6373317e+02 </wgt>
<wgt id='1112'> +3.1124393e+02 </wgt>
<wgt id='1113'> +2.8781417e+02 </wgt>
<wgt id='1114'> +2.8567959e+02 </wgt>
<wgt id='1115'> +2.8872389e+02 </wgt>
<wgt id='1116'> +2.9424603e+02 </wgt>
<wgt id='1117'> +2.7579399e+02 </wgt>
<wgt id='1118'> +2.8760555e+02 </wgt>
<wgt id='1119'> +2.9561214e+02 </wgt>
<wgt id='1120'> +2.8549921e+02 </wgt>
<wgt id='1121'> +2.8779466e+02 </wgt>
<wgt id='1122'> +3.0277157e+02 </wgt>
<wgt id='1123'> +2.7186595e+02 </wgt>
<wgt id='1124'> +2.8255406e+02 </wgt>
<wgt id='1125'> +2.8824348e+02 </wgt>
<wgt id='1126'> +2.7841944e+02 </wgt>
<wgt id='1127'> +2.8738189e+02 </wgt>
<wgt id='1128'> +3.0094125e+02 </wgt>
<wgt id='1129'> +2.8981800e+02 </wgt>
<wgt id='1130'> +2.8745360e+02 </wgt>
<wgt id='1131'> +2.9416967e+02 </wgt>
<wgt id='1132'> +2.8614626e+02 </wgt>
<wgt id='1133'> +2.8699444e+02 </wgt>
<wgt id='1134'> +2.8952985e+02 </wgt>
<wgt id='1135'> +2.9489295e+02 </wgt>
<wgt id='1136'> +2.9145292e+02 </wgt>
<wgt id='1137'> +2.7970434e+02 </wgt>
<wgt id='1138'> +2.9255135e+02 </wgt>
<wgt id='1139'> +2.9147288e+02 </wgt>
<wgt id='1140'> +2.7050795e+02 </wgt>
<wgt id='1141'> +2.9258339e+02 </wgt>
<wgt id='1142'> +2.8191022e+02 </wgt>
<wgt id='1143'> +2.8838075e+02 </wgt>
<wgt id='1144'> +2.9238409e+02 </wgt>
<wgt id='1145'> +2.9184180e+02 </wgt>
<wgt id='1146'> +2.9971210e+02 </wgt>
<wgt id='1147'> +2.8456301e+02 </wgt>
<wgt id='1148'> +2.9071396e+02 </wgt>
<wgt id='1149'> +2.9634271e+02 </wgt>
<wgt id='1150'> +2.9125731e+02 </wgt>
<wgt id='1151'> +2.8277189e+02 </wgt>
<wgt id='1152'> +2.8420690e+02 </wgt>
<wgt id='1153'> +2.8909199e+02 </wgt>
<wgt id='1154'> +2.8401360e+02 </wgt>
<wgt id='1155'> +2.8665209e+02 </wgt>
<wgt id='1156'> +2.8428679e+02 </wgt>
<wgt id='1157'> +2.7828193e+02 </wgt>
<wgt id='1158'> +2.7282900e+02 </wgt>
<wgt id='1159'> +2.9070652e+02 </wgt>
<wgt id='1160'> +2.9325562e+02 </wgt>
<wgt id='1161'> +2.7787826e+02 </wgt>
<wgt id='1162'> +2.9302305e+02 </wgt>
<wgt id='1163'> +2.8890449e+02 </wgt>
<wgt id='1164'> +2.8686376e+02 </wgt>
<wgt id='1165'> +2.9219358e+02 </wgt>
<wgt id='1166'> +2.8910220e+02 </wgt>
<wgt id='1167'> +2.9247400e+02 </wgt>
<wgt id='1168'> +2.8729571e+02 </wgt>
<wgt id='1169'> +2.8543055e+02 </wgt>
<wgt id='1170'> +2.9380597e+02 </wgt>
<wgt id='1171'> +2.9642126e+02 </wgt>
<wgt id='1172'> +2.8845155e+02 </wgt>
<wgt id='1173'> +2.9843968e+02 </wgt>
<wgt id='1174'> +2.9223443e+02 </wgt>
<wgt id='1175'> +2.9456261e+02 </wgt>
<wgt id='1176'> +2.8083660e+02 </wgt>
<wgt id='1177'> +2.8816867e+02 </wgt>
<wgt id='1178'> +2.9156372e+02 </wgt>
<wgt id='1179'> +2.8001926e+02 </wgt>
<wgt id='1180'> +2.8191997e+02 </wgt>
<wgt id='1181'> +2.9185239e+02 </wgt>
<wgt id='1182'> +2.8608059e+02 </wgt>
<wgt id='1183'> +2.8255975e+02 </wgt>
<wgt id='1184'> +2.9659136e+02 </wgt>
<wgt id='1185'> +2.7679517e+02 </wgt>
<wgt id='1186'> +2.9310813e+02 </wgt>
<wgt id='1187'> +2.8771706e+02 </wgt>
<wgt id='1188'> +2.8710635e+02 </wgt>
<wgt id='1189'> +2.8868521e+02 </wgt>
<wgt id='1190'> +2.8832566e+02 </wgt>
<wgt id='1191'> +3.0177851e+02 </wgt>
<wgt id='1192'> +2.9677133e+02 </wgt>
<wgt id='1193'> +2.7605899e+02 </wgt>
<wgt id='1194'> +2.8702085e+02 </wgt>
<wgt id='1195'> +2.8981800e+02 </wgt>
<wgt id='1196'> +2.6754002e+02 </wgt>
<wgt id='1197'> +2.8631570e+02 </wgt>
<wgt id='1198'> +3.0141863e+02 </wgt>
<wgt id='1199'> +2.8296280e+02 </wgt>
<wgt id='1200'> +2.9768558e+02 </wgt>
<wgt id='1201'> +2.8525604e+02 </wgt>
<wgt id='1202'> +2.6754784e+02 </wgt>
<wgt id='1203'> +2.9065436e+02 </wgt>
<wgt id='1204'> +2.9174555e+02 </wgt>
<wgt id='1205'> +2.8765238e+02 </wgt>
<wgt id='1206'> +2.8255772e+02 </wgt>
<wgt id='1207'> +2.8665195e+02 </wgt>
<wgt id='1208'> +2.8393631e+02 </wgt>
<wgt id='1209'> +2.9320969e+02 </wgt>
<wgt id='1210'> +2.7464575e+02 </wgt>
<wgt id='1211'> +2.8619012e+02 </wgt>
<wgt id='1212'> +2.9491024e+02 </wgt>
<wgt id='1213'> +2.8572002e+02 </wgt>
<wgt id='1214'> +2.8761458e+02 </wgt>
<wgt id='1215'> +2.8707684e+02 </wgt>
<wgt id='1216'> +2.8793749e+02 </wgt>
<wgt id='1217'> +2.8832697e+02 </wgt>
<wgt id='1218'> +2.8755979e+02 </wgt>
<wgt id='1219'> +2.8706176e+02 </wgt>
<wgt id='1220'> +2.8767365e+02 </wgt>
<wgt id='1221'> +2.8631104e+02 </wgt>
<wgt id='1222'> +2.8668682e+02 </wgt>
<wgt id='1223'> +2.8743874e+02 </wgt>
<wgt id='1224'> +2.8809756e+02 </wgt>
<wgt id='1225'> +2.8690523e+02 </wgt>
<wgt id='1226'> +2.8730333e+02 </wgt>
<wgt id='1227'> +2.8792295e+02 </wgt>
<wgt id='1228'> +2.8810087e+02 </wgt>
<wgt id='1229'> +2.8836183e+02 </wgt>
<wgt id='1230'> +2.8783496e+02 </wgt>
<wgt id='1231'> +2.8755665e+02 </wgt>
<wgt id='1232'> +2.8839205e+02 </wgt>
<wgt id='1233'> +2.8687190e+02 </wgt>
<wgt id='1234'> +2.8819937e+02 </wgt>
<wgt id='1235'> +2.8668989e+02 </wgt>
<wgt id='1236'> +2.8878754e+02 </wgt>
<wgt id='1237'> +2.8710417e+02 </wgt>
<wgt id='1238'> +2.8920775e+02 </wgt>
<wgt id='1239'> +2.8857387e+02 </wgt>
<wgt id='1240'> +2.8827908e+02 </wgt>
<wgt id='1241'> +2.8904864e+02 </wgt>
<wgt id='1242'> +2.8830880e+02 </wgt>
<wgt id='1243'> +2.8337356e+02 </wgt>
<wgt id='1244'> +2.8582037e+02 </wgt>
<wgt id='1245'> +2.8709996e+02 </wgt>
<wgt id='1246'> +2.8624632e+02 </wgt>
<wgt id='1247'> +2.8744737e+02 </wgt>
<wgt id='1248'> +2.8783153e+02 </wgt>
<wgt id='1249'> +2.8771350e+02 </wgt>
<wgt id='1250'> +2.8775225e+02 </wgt>
<wgt id='1251'> +2.8843193e+02 </wgt>
<wgt id='1252'> +2.8765235e+02 </wgt>
<wgt id='1253'> +2.8767752e+02 </wgt>
<wgt id='1254'> +2.8762673e+02 </wgt>
<wgt id='1255'> +2.8750999e+02 </wgt>
<wgt id='1256'> +2.8717794e+02 </wgt>
<wgt id='1257'> +2.8793722e+02 </wgt>
<wgt id='1258'> +2.8836006e+02 </wgt>
<wgt id='1259'> +2.8704657e+02 </wgt>
<wgt id='1260'> +2.8742996e+02 </wgt>
<wgt id='1261'> +2.8786494e+02 </wgt>
<wgt id='1262'> +2.8674140e+02 </wgt>
<wgt id='1263'> +2.8828164e+02 </wgt>
<wgt id='1264'> +2.8908401e+02 </wgt>
<wgt id='1265'> +2.8918106e+02 </wgt>
<wgt id='1266'> +2.8715747e+02 </wgt>
<wgt id='1267'> +2.8774330e+02 </wgt>
<wgt id='1268'> +2.8818634e+02 </wgt>
<wgt id='1269'> +2.8768552e+02 </wgt>
<wgt id='1270'> +2.8717488e+02 </wgt>
<wgt id='1271'> +2.8704528e+02 </wgt>
<wgt id='1272'> +2.8756160e+02 </wgt>
<wgt id='1273'> +2.8716779e+02 </wgt>
<wgt id='1274'> +2.8699899e+02 </wgt>
<wgt id='1275'> +2.8756188e+02 </wgt>
<wgt id='1276'> +2.8655557e+02 </wgt>
<wgt id='1277'> +2.8750002e+02 </wgt>
<wgt id='1278'> +2.8837464e+02 </wgt>
<wgt id='1279'> +2.8733583e+02 </wgt>
<wgt id='1280'> +2.8790390e+02 </wgt>
<wgt id='1281'> +2.8736076e+02 </wgt>
<wgt id='1282'> +2.8723098e+02 </wgt>
<wgt id='1283'> +2.8782566e+02 </wgt>
<wgt id='1284'> +2.8744346e+02 </wgt>
<wgt id='1285'> +2.8716512e+02 </wgt>
<wgt id='1286'> +2.8744161e+02 </wgt>
<wgt id='1287'> +2.8810701e+02 </wgt>
<wgt id='1288'> +2.8769409e+02 </wgt>
<wgt id='1289'> +2.8787814e+02 </wgt>
<wgt id='1290'> +2.8775712e+02 </wgt>
<wgt id='1291'> +2.8741900e+02 </wgt>
<wgt id='1292'> +2.8755240e+02 </wgt>
<wgt id='1293'> +2.8840440e+02 </wgt>
<wgt id='1294'> +2.8722888e+02 </wgt>
<wgt id='1295'> +2.8742492e+02 </wgt>
<wgt id='1296'> +2.8721906e+02 </wgt>
<wgt id='1297'> +2.8747285e+02 </wgt>
<wgt id='1298'> +2.8730510e+02 </wgt>
<wgt id='1299'> +2.8766586e+02 </wgt>
<wgt id='1300'> +2.8767983e+02 </wgt>
<wgt id='1301'> +2.8769028e+02 </wgt>
<wgt id='1302'> +2.8787715e+02 </wgt>
<wgt id='1303'> +2.8745502e+02 </wgt>
<wgt id='1304'> +2.8746172e+02 </wgt>
<wgt id='1305'> +2.8784588e+02 </wgt>
<wgt id='1306'> +2.8814181e+02 </wgt>
<wgt id='1307'> +2.8739682e+02 </wgt>
<wgt id='1308'> +2.8784087e+02 </wgt>
<wgt id='1309'> +2.8764701e+02 </wgt>
<wgt id='1310'> +2.8779216e+02 </wgt>
<wgt id='1311'> +2.8774380e+02 </wgt>
<wgt id='1312'> +2.8735202e+02 </wgt>
<wgt id='1313'> +2.8756022e+02 </wgt>
<wgt id='1314'> +2.8768850e+02 </wgt>
<wgt id='1315'> +2.6373317e+02 </wgt>
<wgt id='1316'> +3.1124393e+02 </wgt>
<wgt id='1317'> +1.8615490e+02 </wgt>
<wgt id='1318'> +2.0272112e+02 </wgt>
<wgt id='1319'> +2.2370870e+02 </wgt>
<wgt id='1320'> +2.4498591e+02 </wgt>
<wgt id='1321'> +2.7647137e+02 </wgt>
<wgt id='1322'> +2.9948681e+02 </wgt>
<wgt id='1323'> +3.3718640e+02 </wgt>
<wgt id='1324'> +3.6254903e+02 </wgt>
<wgt id='1325'> +2.8731810e+02 </wgt>
<wgt id='1326'> +2.8800085e+02 </wgt>
<wgt id='1327'> +2.8659718e+02 </wgt>
<wgt id='1328'> +2.8805023e+02 </wgt>
<wgt id='1329'> +2.8709094e+02 </wgt>
<wgt id='1330'> +2.8842915e+02 </wgt>
<wgt id='1331'> +2.8780829e+02 </wgt>
<wgt id='1332'> +2.8887863e+02 </wgt>
<wgt id='1333'> +2.8795866e+02 </wgt>
<wgt id='1334'> +2.8861458e+02 </wgt>
<wgt id='1335'> +2.8753500e+02 </wgt>
<wgt id='1336'> +2.8676386e+02 </wgt>
<wgt id='1337'> +2.8708613e+02 </wgt>
<wgt id='1338'> +2.8751414e+02 </wgt>
<wgt id='1339'> +2.8776841e+02 </wgt>
<wgt id='1340'> +2.8726701e+02 </wgt>
<wgt id='1341'> +2.8809973e+02 </wgt>
<wgt id='1342'> +2.8753632e+02 </wgt>
<wgt id='1343'> +2.8760146e+02 </wgt>
<wgt id='1344'> +2.8603073e+02 </wgt>
<wgt id='1345'> +2.8631555e+02 </wgt>
<wgt id='1346'> +2.8667507e+02 </wgt>
<wgt id='1347'> +2.8719729e+02 </wgt>
<wgt id='1348'> +2.8673227e+02 </wgt>
<wgt id='1349'> +2.8699643e+02 </wgt>
<wgt id='1350'> +2.8691649e+02 </wgt>
<wgt id='1351'> +2.8784775e+02 </wgt>
<wgt id='1352'> +2.8645378e+02 </wgt>
<wgt id='1353'> +2.8775884e+02 </wgt>
<wgt id='1354'> +2.8796666e+02 </wgt>
<wgt id='1355'> +2.8298142e+02 </wgt>
<wgt id='1356'> +2.8653940e+02 </wgt>
<wgt id='1357'> +2.8852568e+02 </wgt>
<wgt id='1358'> +2.8764048e+02 </wgt>
<wgt id='1359'> +2.8705371e+02 </wgt>
<wgt id='1360'> +2.8838562e+02 </wgt>
<wgt id='1361'> +2.8730578e+02 </wgt>
<wgt id='1362'> +2.8646207e+02 </wgt>
<wgt id='1363'> +2.8713439e+02 </wgt>
<wgt id='1364'> +2.8744095e+02 </wgt>
<wgt id='1365'> +2.8673165e+02 </wgt>
<wgt id='1366'> +2.8802238e+02 </wgt>
<wgt id='1367'> +2.8705589e+02 </wgt>
<wgt id='1368'> +2.8717553e+02 </wgt>
<wgt id='1369'> +2.8759400e+02 </wgt>
<wgt id='1370'> +2.8802343e+02 </wgt>
<wgt id='1371'> +2.8690354e+02 </wgt>
<wgt id='1372'> +2.8709933e+02 </wgt>
<wgt id='1373'> +2.8830731e+02 </wgt>
<wgt id='1374'> +2.8612833e+02 </wgt>
<wgt id='1375'> +2.8711074e+02 </wgt>
<wgt id='1376'> +2.8932259e+02 </wgt>
<wgt id='1377'> +2.8763016e+02 </wgt>
<wgt id='1378'> +2.8825177e+02 </wgt>
<wgt id='1379'> +2.8815356e+02 </wgt>
<wgt id='1380'> +2.8671431e+02 </wgt>
<wgt id='1381'> +2.8749055e+02 </wgt>
<wgt id='1382'> +2.8703531e+02 </wgt>
<wgt id='1383'> +2.8732543e+02 </wgt>
<wgt id='1384'> +2.8678427e+02 </wgt>
<wgt id='1385'> +2.8820258e+02 </wgt>
<wgt id='1386'> +2.8752236e+02 </wgt>
<wgt id='1387'> +2.8775005e+02 </wgt>
<wgt id='1388'> +2.8716549e+02 </wgt>
<wgt id='1389'> +2.8804828e+02 </wgt>
<wgt id='1390'> +2.8671089e+02 </wgt>
<wgt id='1391'> +2.8693897e+02 </wgt>
<wgt id='1392'> +2.8739510e+02 </wgt>
<wgt id='1393'> +2.8697719e+02 </wgt>
<wgt id='1394'> +2.8693730e+02 </wgt>
<wgt id='1395'> +2.8765573e+02 </wgt>
<wgt id='1396'> +2.8778200e+02 </wgt>
<wgt id='1397'> +2.8761472e+02 </wgt>
<wgt id='1398'> +2.8745133e+02 </wgt>
<wgt id='1399'> +2.8705316e+02 </wgt>
<wgt id='1400'> +2.8729453e+02 </wgt>
<wgt id='1401'> +2.8691619e+02 </wgt>
<wgt id='1402'> +2.8754830e+02 </wgt>
<wgt id='1403'> +2.8692409e+02 </wgt>
<wgt id='1404'> +2.8725202e+02 </wgt>
<wgt id='1405'> +2.8717146e+02 </wgt>
<wgt id='1406'> +2.8716286e+02 </wgt>
<wgt id='1407'> +2.8777822e+02 </wgt>
<wgt id='1408'> +2.8738014e+02 </wgt>
<wgt id='1409'> +2.8747382e+02 </wgt>
<wgt id='1410'> +2.8752206e+02 </wgt>
<wgt id='1411'> +2.8725722e+02 </wgt>
<wgt id='1412'> +2.8714273e+02 </wgt>
<wgt id='1413'> +2.8767934e+02 </wgt>
<wgt id='1414'> +2.8774394e+02 </wgt>
<wgt id='1415'> +2.8723833e+02 </wgt>
<wgt id='1416'> +2.8737639e+02 </wgt>
<wgt id='1417'> +2.8741091e+02 </wgt>
<wgt id='1418'> +2.8744131e+02 </wgt>
<wgt id='1419'> +2.8725935e+02 </wgt>
<wgt id='1420'> +2.8779257e+02 </wgt>
<wgt id='1421'> +2.8733807e+02 </wgt>
<wgt id='1422'> +2.8754813e+02 </wgt>
<wgt id='1423'> +2.8697658e+02 </wgt>
<wgt id='1424'> +2.8765651e+02 </wgt>
<wgt id='1425'> +2.8718304e+02 </wgt>
<wgt id='1426'> +2.6444177e+02 </wgt>
<wgt id='1427'> +3.1204717e+02 </wgt>
<wgt id='1428'> +2.7578578e+02 </wgt>
<wgt id='1429'> +2.7507466e+02 </wgt>
<wgt id='1430'> +2.7766058e+02 </wgt>
<wgt id='1431'> +2.7565315e+02 </wgt>
<wgt id='1432'> +2.7658244e+02 </wgt>
<wgt id='1433'> +2.7130216e+02 </wgt>
<wgt id='1434'> +2.7528245e+02 </wgt>
<wgt id='1435'> +2.7537689e+02 </wgt>
<wgt id='1436'> +2.8215883e+02 </wgt>
<wgt id='1437'> +2.7800210e+02 </wgt>
<wgt id='1438'> +2.7261166e+02 </wgt>
<wgt id='1439'> +2.7728918e+02 </wgt>
<wgt id='1440'> +2.7358557e+02 </wgt>
<wgt id='1441'> +2.7600643e+02 </wgt>
<wgt id='1442'> +2.7674291e+02 </wgt>
<wgt id='1443'> +2.7732739e+02 </wgt>
<wgt id='1444'> +2.7174265e+02 </wgt>
<wgt id='1445'> +2.7433963e+02 </wgt>
<wgt id='1446'> +2.7723197e+02 </wgt>
<wgt id='1447'> +2.7744636e+02 </wgt>
<wgt id='1448'> +2.7420764e+02 </wgt>
<wgt id='1449'> +2.7946221e+02 </wgt>
<wgt id='1450'> +2.7362928e+02 </wgt>
<wgt id='1451'> +2.7602541e+02 </wgt>
<wgt id='1452'> +2.7546630e+02 </wgt>
<wgt id='1453'> +2.7730104e+02 </wgt>
<wgt id='1454'> +2.7456425e+02 </wgt>
<wgt id='1455'> +2.7732681e+02 </wgt>
<wgt id='1456'> +2.7320605e+02 </wgt>
<wgt id='1457'> +2.7240510e+02 </wgt>
<wgt id='1458'> +2.7791314e+02 </wgt>
<wgt id='1459'> +2.7387977e+02 </wgt>
<wgt id='1460'> +2.7865179e+02 </wgt>
<wgt id='1461'> +2.7792452e+02 </wgt>
<wgt id='1462'> +2.7376091e+02 </wgt>
<wgt id='1463'> +2.7758291e+02 </wgt>
<wgt id='1464'> +2.7416503e+02 </wgt>
<wgt id='1465'> +2.7587160e+02 </wgt>
<wgt id='1466'> +2.7539130e+02 </wgt>
<wgt id='1467'> +2.7858904e+02 </wgt>
<wgt id='1468'> +2.7303233e+02 </wgt>
<wgt id='1469'> +2.7264021e+02 </wgt>
<wgt id='1470'> +2.7671560e+02 </wgt>
<wgt id='1471'> +2.7828930e+02 </wgt>
<wgt id='1472'> +2.7304201e+02 </wgt>
<wgt id='1473'> +2.7866242e+02 </wgt>
<wgt id='1474'> +2.7313003e+02 </wgt>
<wgt id='1475'> +2.8466631e+02 </wgt>
<wgt id='1476'> +2.6921904e+02 </wgt>
<wgt id='1477'> +2.7681580e+02 </wgt>
<wgt id='1478'> +2.7616392e+02 </wgt>
<wgt id='1479'> +2.7265501e+02 </wgt>
<wgt id='1480'> +2.7590638e+02 </wgt>
<wgt id='1481'> +2.8086728e+02 </wgt>
<wgt id='1482'> +2.8316316e+02 </wgt>
<wgt id='1483'> +2.7600860e+02 </wgt>
<wgt id='1484'> +2.7809892e+02 </wgt>
<wgt id='1485'> +2.5477845e+02 </wgt>
<wgt id='1486'> +2.9745770e+02 </wgt>
<wgt id='1487'> +2.7759650e+02 </wgt>
<wgt id='1488'> +2.7690165e+02 </wgt>
<wgt id='1489'> +2.7482469e+02 </wgt>
<wgt id='1490'> +2.7898738e+02 </wgt>
<wgt id='1491'> +2.7485582e+02 </wgt>
<wgt id='1492'> +2.7709125e+02 </wgt>
<wgt id='1493'> +2.7835976e+02 </wgt>
<wgt id='1494'> +2.8147209e+02 </wgt>
<wgt id='1495'> +2.7342675e+02 </wgt>
<wgt id='1496'> +2.7915771e+02 </wgt>
<wgt id='1497'> +2.7401364e+02 </wgt>
<wgt id='1498'> +2.7652422e+02 </wgt>
<wgt id='1499'> +2.7784657e+02 </wgt>
<wgt id='1500'> +2.7052434e+02 </wgt>
<wgt id='1501'> +2.8432621e+02 </wgt>
<wgt id='1502'> +2.7901562e+02 </wgt>
<wgt id='1503'> +2.7521012e+02 </wgt>
<wgt id='1504'> +2.7821084e+02 </wgt>
<wgt id='1505'> +2.7663918e+02 </wgt>
<wgt id='1506'> +2.8216823e+02 </wgt>
<wgt id='1507'> +2.7297498e+02 </wgt>
<wgt id='1508'> +2.7934118e+02 </wgt>
<wgt id='1509'> +2.7480693e+02 </wgt>
<wgt id='1510'> +2.7472288e+02 </wgt>
<wgt id='1511'> +2.8088238e+02 </wgt>
<wgt id='1512'> +2.7891820e+02 </wgt>
<wgt id='1513'> +2.7619031e+02 </wgt>
<wgt id='1514'> +2.7594952e+02 </wgt>
<wgt id='1515'> +2.8007894e+02 </wgt>
<wgt id='1516'> +2.7838020e+02 </wgt>
<wgt id='1517'> +2.7732443e+02 </wgt>
<wgt id='1518'> +2.7778173e+02 </wgt>
<wgt id='1519'> +2.7734800e+02 </wgt>
<wgt id='1520'> +2.7556307e+02 </wgt>
<wgt id='1521'> +2.8212305e+02 </wgt>
<wgt id='1522'> +2.8000410e+02 </wgt>
<wgt id='1523'> +2.7525424e+02 </wgt>
<wgt id='1524'> +2.7743449e+02 </wgt>
<wgt id='1525'> +2.7748296e+02 </wgt>
<wgt id='1526'> +2.7520657e+02 </wgt>
<wgt id='1527'> +2.7915623e+02 </wgt>
<wgt id='1528'> +2.7624973e+02 </wgt>
<wgt id='1529'> +2.7927129e+02 </wgt>
<wgt id='1530'> +2.7796873e+02 </wgt>
<wgt id='1531'> +2.7873317e+02 </wgt>
<wgt id='1532'> +2.7607584e+02 </wgt>
<wgt id='1533'> +2.7914759e+02 </wgt>
<wgt id='1534'> +2.7577316e+02 </wgt>
<wgt id='1535'> +2.7987346e+02 </wgt>
<wgt id='1536'> +2.7506347e+02 </wgt>
<wgt id='1537'> +2.7889793e+02 </wgt>
<wgt id='1538'> +2.7892072e+02 </wgt>
<wgt id='1539'> +2.7598329e+02 </wgt>
<wgt id='1540'> +2.7350524e+02 </wgt>
<wgt id='1541'> +2.7932431e+02 </wgt>
<wgt id='1542'> +2.7755002e+02 </wgt>
<wgt id='1543'> +2.8000275e+02 </wgt>
<wgt id='1544'> +2.5612784e+02 </wgt>
<wgt id='1545'> +2.9985094e+02 </wgt>
<wgt id='1546'> +2.4826475e+02 </wgt>
<wgt id='1547'> +2.8428395e+02 </wgt>
<wgt id='1548'> +2.8425056e+02 </wgt>
<wgt id='1549'> +2.8432155e+02 </wgt>
<wgt id='1550'> +2.8461030e+02 </wgt>
<wgt id='1551'> +2.8406414e+02 </wgt>
<wgt id='1552'> +2.8511258e+02 </wgt>
<wgt id='1553'> +2.8352112e+02 </wgt>
<wgt id='1554'> +2.8340571e+02 </wgt>
<wgt id='1555'> +2.8527831e+02 </wgt>
<wgt id='1556'> +2.8467447e+02 </wgt>
<wgt id='1557'> +2.8390116e+02 </wgt>
<wgt id='1558'> +2.8383622e+02 </wgt>
<wgt id='1559'> +2.8525115e+02 </wgt>
<wgt id='1560'> +2.8565843e+02 </wgt>
<wgt id='1561'> +2.8183282e+02 </wgt>
<wgt id='1562'> +2.8543022e+02 </wgt>
<wgt id='1563'> +2.8362631e+02 </wgt>
<wgt id='1564'> +2.8442936e+02 </wgt>
<wgt id='1565'> +2.8412184e+02 </wgt>
<wgt id='1566'> +2.8318589e+02 </wgt>
<wgt id='1567'> +2.8522791e+02 </wgt>
<wgt id='1568'> +2.8572915e+02 </wgt>
<wgt id='1569'> +2.8235240e+02 </wgt>
<wgt id='1570'> +2.8654977e+02 </wgt>
<wgt id='1571'> +2.8281220e+02 </wgt>
<wgt id='1572'> +2.8362243e+02 </wgt>
<wgt id='1573'> +2.8498213e+02 </wgt>
<wgt id='1574'> +2.8272285e+02 </wgt>
<wgt id='1575'> +2.8352943e+02 </wgt>
<wgt id='1576'> +2.8546766e+02 </wgt>
<wgt id='1577'> +2.8280194e+02 </wgt>
<wgt id='1578'> +2.8623813e+02 </wgt>
<wgt id='1579'> +2.8197794e+02 </wgt>
<wgt id='1580'> +2.8352579e+02 </wgt>
<wgt id='1581'> +2.8497122e+02 </wgt>
<wgt id='1582'> +2.8447960e+02 </wgt>
<wgt id='1583'> +2.8370342e+02 </wgt>
<wgt id='1584'> +2.8495348e+02 </wgt>
<wgt id='1585'> +2.8382321e+02 </wgt>
<wgt id='1586'> +2.8319646e+02 </wgt>
<wgt id='1587'> +2.8532584e+02 </wgt>
<wgt id='1588'> +2.8039408e+02 </wgt>
<wgt id='1589'> +2.8852267e+02 </wgt>
<wgt id='1590'> +2.8488670e+02 </wgt>
<wgt id='1591'> +2.8346964e+02 </wgt>
<wgt id='1592'> +2.8298725e+02 </wgt>
<wgt id='1593'> +2.8751738e+02 </wgt>
<wgt id='1594'> +2.8499815e+02 </wgt>
<wgt id='1595'> +2.8112086e+02 </wgt>
<wgt id='1596'> +2.8504059e+02 </wgt>
<wgt id='1597'> +2.8234623e+02 </wgt>
<wgt id='1598'> +2.8699671e+02 </wgt>
<wgt id='1599'> +2.8682370e+02 </wgt>
<wgt id='1600'> +2.8721037e+02 </wgt>
<wgt id='1601'> +2.8739219e+02 </wgt>
<wgt id='1602'> +2.8660014e+02 </wgt>
<wgt id='1603'> +2.8774091e+02 </wgt>
<wgt id='1604'> +2.8669900e+02 </wgt>
<wgt id='1605'> +2.8663122e+02 </wgt>
<wgt id='1606'> +2.8736392e+02 </wgt>
<wgt id='1607'> +2.8763159e+02 </wgt>
<wgt id='1608'> +2.8638494e+02 </wgt>
<wgt id='1609'> +2.8782329e+02 </wgt>
<wgt id='1610'> +2.8663613e+02 </wgt>
<wgt id='1611'> +2.8717424e+02 </wgt>
<wgt id='1612'> +2.8678383e+02 </wgt>
<wgt id='1613'> +2.8899674e+02 </wgt>
<wgt id='1614'> +2.8482213e+02 </wgt>
<wgt id='1615'> +2.8757854e+02 </wgt>
<wgt id='1616'> +2.8666803e+02 </wgt>
<wgt id='1617'> +2.8705481e+02 </wgt>
<wgt id='1618'> +2.8692025e+02 </wgt>
<wgt id='1619'> +2.8413094e+02 </wgt>
<wgt id='1620'> +2.8897829e+02 </wgt>
<wgt id='1621'> +2.8595082e+02 </wgt>
<wgt id='1622'> +2.8795733e+02 </wgt>
<wgt id='1623'> +2.8648467e+02 </wgt>
<wgt id='1624'> +2.8829269e+02 </wgt>
<wgt id='1625'> +2.8632887e+02 </wgt>
<wgt id='1626'> +2.8516545e+02 </wgt>
<wgt id='1627'> +2.8580387e+02 </wgt>
<wgt id='1628'> +2.9032990e+02 </wgt>
<wgt id='1629'> +2.8799539e+02 </wgt>
<wgt id='1630'> +2.8453783e+02 </wgt>
<wgt id='1631'> +2.8699972e+02 </wgt>
<wgt id='1632'> +2.8669933e+02 </wgt>
<wgt id='1633'> +2.8670757e+02 </wgt>
<wgt id='1634'> +2.8679547e+02 </wgt>
<wgt id='1635'> +2.8676995e+02 </wgt>
<wgt id='1636'> +2.8502245e+02 </wgt>
<wgt id='1637'> +2.8570338e+02 </wgt>
<wgt id='1638'> +2.8776556e+02 </wgt>
<wgt id='1639'> +2.8912671e+02 </wgt>
<wgt id='1640'> +2.8266432e+02 </wgt>
<wgt id='1641'> +2.8651354e+02 </wgt>
<wgt id='1642'> +2.8617585e+02 </wgt>
<wgt id='1643'> +2.8404510e+02 </wgt>
<wgt id='1644'> +2.8891744e+02 </wgt>
<wgt id='1645'> +2.8963186e+02 </wgt>
<wgt id='1646'> +2.8578818e+02 </wgt>
<wgt id='1647'> +2.8574552e+02 </wgt>
<wgt id='1648'> +2.8743679e+02 </wgt>
<wgt id='1649'> +5.2220780e+02 </wgt>
<wgt id='1650'> +2.7831845e+02 </wgt>
<wgt id='1651'> +2.7820830e+02 </wgt>
<wgt id='1652'> +2.7837033e+02 </wgt>
<wgt id='1653'> +2.7824203e+02 </wgt>
<wgt id='1654'> +2.7831531e+02 </wgt>
<wgt id='1655'> +2.7816928e+02 </wgt>
<wgt id='1656'> +2.7814430e+02 </wgt>
<wgt id='1657'> +2.7875805e+02 </wgt>
<wgt id='1658'> +2.7889294e+02 </wgt>
<wgt id='1659'> +2.7732986e+02 </wgt>
<wgt id='1660'> +2.7872474e+02 </wgt>
<wgt id='1661'> +2.7883182e+02 </wgt>
<wgt id='1662'> +2.7879046e+02 </wgt>
<wgt id='1663'> +2.7776486e+02 </wgt>
<wgt id='1664'> +2.7861984e+02 </wgt>
<wgt id='1665'> +2.7783637e+02 </wgt>
<wgt id='1666'> +2.7764542e+02 </wgt>
<wgt id='1667'> +2.7740784e+02 </wgt>
<wgt id='1668'> +2.7811904e+02 </wgt>
<wgt id='1669'> +2.7896129e+02 </wgt>
<wgt id='1670'> +2.7754605e+02 </wgt>
<wgt id='1671'> +2.7754547e+02 </wgt>
<wgt id='1672'> +2.7784049e+02 </wgt>
<wgt id='1673'> +2.7957136e+02 </wgt>
<wgt id='1674'> +2.7905428e+02 </wgt>
<wgt id='1675'> +2.7850035e+02 </wgt>
<wgt id='1676'> +2.7930812e+02 </wgt>
<wgt id='1677'> +2.8023421e+02 </wgt>
<wgt id='1678'> +2.7609038e+02 </wgt>
<wgt id='1679'> +2.7561246e+02 </wgt>
<wgt id='1680'> +2.8308718e+02 </wgt>
<wgt id='1681'> +2.8312872e+02 </wgt>
<wgt id='1682'> +2.8452009e+02 </wgt>
<wgt id='1683'> +2.8360360e+02 </wgt>
<wgt id='1684'> +2.8262137e+02 </wgt>
<wgt id='1685'> +2.8210293e+02 </wgt>
<wgt id='1686'> +2.8342097e+02 </wgt>
<wgt id='1687'> +2.8142990e+02 </wgt>
<wgt id='1688'> +2.8313449e+02 </wgt>
<wgt id='1689'> +2.8438992e+02 </wgt>
<wgt id='1690'> +2.8612823e+02 </wgt>
<wgt id='1691'> +2.8250110e+02 </wgt>
<wgt id='1692'> +2.8148728e+02 </wgt>
<wgt id='1693'> +2.8155661e+02 </wgt>
<wgt id='1694'> +2.8094363e+02 </wgt>
<wgt id='1695'> +2.8315589e+02 </wgt>
<wgt id='1696'> +2.8208113e+02 </wgt>
<wgt id='1697'> +2.8214465e+02 </wgt>
<wgt id='1698'> +2.8454440e+02 </wgt>
<wgt id='1699'> +2.8210756e+02 </wgt>
<wgt id='1700'> +2.8391498e+02 </wgt>
<wgt id='1701'> +2.8332892e+02 </wgt>
<wgt id='1702'> +2.8298947e+02 </wgt>
<wgt id='1703'> +2.8584631e+02 </wgt>
<wgt id='1704'> +2.8174102e+02 </wgt>
<wgt id='1705'> +2.8271397e+02 </wgt>
<wgt id='1706'> +2.8250522e+02 </wgt>
<wgt id='1707'> +2.8366445e+02 </wgt>
<wgt id='1708'> +2.8352551e+02 </wgt>
<wgt id='1709'> +2.8221749e+02 </wgt>
<wgt id='1710'> +2.8290989e+02 </wgt>
<wgt id='1711'> +2.8192563e+02 </wgt>
<wgt id='1712'> +2.8464497e+02 </wgt>
<wgt id='1713'> +2.8348576e+02 </wgt>
<wgt id='1714'> +2.8139445e+02 </wgt>
<wgt id='1715'> +2.8514461e+02 </wgt>
<wgt id='1716'> +2.8273562e+02 </wgt>
<wgt id='1717'> +2.8375237e+02 </wgt>
<wgt id='1718'> +2.8190175e+02 </wgt>
<wgt id='1719'> +2.8211956e+02 </wgt>
<wgt id='1720'> +2.8181352e+02 </wgt>
<wgt id='1721'> +2.8374791e+02 </wgt>
<wgt id='1722'> +2.8286929e+02 </wgt>
<wgt id='1723'> +2.8281252e+02 </wgt>
<wgt id='1724'> +2.8319467e+02 </wgt>
<wgt id='1725'> +2.8270574e+02 </wgt>
<wgt id='1726'> +2.8412782e+02 </wgt>
<wgt id='1727'> +2.8230795e+02 </wgt>
<wgt id='1728'> +2.8323674e+02 </wgt>
<wgt id='1729'> +2.8260386e+02 </wgt>
<wgt id='1730'> +2.8228854e+02 </wgt>
<wgt id='1731'> +2.8212806e+02 </wgt>
<wgt id='1732'> +2.8273862e+02 </wgt>
<wgt id='1733'> +2.8299014e+02 </wgt>
<wgt id='1734'> +2.8381299e+02 </wgt>
<wgt id='1735'> +2.8331851e+02 </wgt>
<wgt id='1736'> +2.8303175e+02 </wgt>
<wgt id='1737'> +2.8331536e+02 </wgt>
<wgt id='1738'> +2.8411685e+02 </wgt>
<wgt id='1739'> +2.8363837e+02 </wgt>
<wgt id='1740'> +2.8270580e+02 </wgt>
<wgt id='1741'> +2.8337993e+02 </wgt>
<wgt id='1742'> +2.8271580e+02 </wgt>
<wgt id='1743'> +2.8327473e+02 </wgt>
<wgt id='1744'> +2.8319730e+02 </wgt>
<wgt id='1745'> +2.8288386e+02 </wgt>
<wgt id='1746'> +2.8350869e+02 </wgt>
<wgt id='1747'> +2.8279715e+02 </wgt>
<wgt id='1748'> +2.8341841e+02 </wgt>
<wgt id='1749'> +2.8295004e+02 </wgt>
<wgt id='1750'> +2.8287455e+02 </wgt>
<wgt id='1751'> +2.8296418e+02 </wgt>
<wgt id='1752'> +2.8292031e+02 </wgt>
<wgt id='1753'> +2.8336653e+02 </wgt>
<wgt id='1754'> +2.8307799e+02 </wgt>
<wgt id='1755'> +2.8281757e+02 </wgt>
<wgt id='1756'> +2.8305283e+02 </wgt>
<wgt id='1757'> +2.8294283e+02 </wgt>
<wgt id='1758'> +2.8296101e+02 </wgt>
<wgt id='1759'> +2.8318852e+02 </wgt>
<wgt id='1760'> +2.8299518e+02 </wgt>
<wgt id='1761'> +2.8339915e+02 </wgt>
<wgt id='1762'> +2.8301810e+02 </wgt>
<wgt id='1763'> +2.8313445e+02 </wgt>
<wgt id='1764'> +2.8328670e+02 </wgt>
<wgt id='1765'> +2.8330516e+02 </wgt>
<wgt id='1766'> +2.8337717e+02 </wgt>
<wgt id='1767'> +2.8322058e+02 </wgt>
<wgt id='1768'> +2.8302361e+02 </wgt>
<wgt id='1769'> +2.8294180e+02 </wgt>
<wgt id='1770'> +2.8317004e+02 </wgt>
<wgt id='1771'> +2.8305186e+02 </wgt>
<wgt id='1772'> +2.8320483e+02 </wgt>
<wgt id='1773'> +2.8308707e+02 </wgt>
<wgt id='1774'> +2.8312387e+02 </wgt>
<wgt id='1775'> +2.8311578e+02 </wgt>
<wgt id='1776'> +2.8303079e+02 </wgt>
<wgt id='1777'> +2.8312155e+02 </wgt>
<wgt id='1778'> +2.8313545e+02 </wgt>
<wgt id='1779'> +2.8316839e+02 </wgt>
<wgt id='1780'> +2.8310493e+02 </wgt>
<wgt id='1781'> +2.6671645e+02 </wgt>
<wgt id='1782'> +2.9922234e+02 </wgt>
<wgt id='1783'> +2.8239212e+02 </wgt>
<wgt id='1784'> +2.8317362e+02 </wgt>
<wgt id='1785'> +2.8373572e+02 </wgt>
<wgt id='1786'> +2.8005147e+02 </wgt>
<wgt id='1787'> +2.8233856e+02 </wgt>
<wgt id='1788'> +2.8343704e+02 </wgt>
<wgt id='1789'> +2.8120720e+02 </wgt>
<wgt id='1790'> +2.8110619e+02 </wgt>
<wgt id='1791'> +2.8196974e+02 </wgt>
<wgt id='1792'> +2.8134834e+02 </wgt>
<wgt id='1793'> +2.8109031e+02 </wgt>
<wgt id='1794'> +2.8422768e+02 </wgt>
<wgt id='1795'> +2.8306724e+02 </wgt>
<wgt id='1796'> +2.7940990e+02 </wgt>
<wgt id='1797'> +2.8202198e+02 </wgt>
<wgt id='1798'> +2.8597500e+02 </wgt>
<wgt id='1799'> +2.8313954e+02 </wgt>
<wgt id='1800'> +2.8247693e+02 </wgt>
<wgt id='1801'> +2.8240621e+02 </wgt>
<wgt id='1802'> +2.8069496e+02 </wgt>
<wgt id='1803'> +2.8229327e+02 </wgt>
<wgt id='1804'> +2.8348293e+02 </wgt>
<wgt id='1805'> +2.8012947e+02 </wgt>
<wgt id='1806'> +2.8260439e+02 </wgt>
<wgt id='1807'> +2.8434012e+02 </wgt>
<wgt id='1808'> +2.8290848e+02 </wgt>
<wgt id='1809'> +2.8226225e+02 </wgt>
<wgt id='1810'> +2.8219874e+02 </wgt>
<wgt id='1811'> +2.8142036e+02 </wgt>
<wgt id='1812'> +2.8130062e+02 </wgt>
<wgt id='1813'> +2.8268514e+02 </wgt>
<wgt id='1814'> +2.8094918e+02 </wgt>
<wgt id='1815'> +2.8394389e+02 </wgt>
<wgt id='1816'> +2.8188558e+02 </wgt>
<wgt id='1817'> +2.8180904e+02 </wgt>
<wgt id='1818'> +2.8243008e+02 </wgt>
<wgt id='1819'> +2.8246180e+02 </wgt>
<wgt id='1820'> +2.8413267e+02 </wgt>
<wgt id='1821'> +2.8455226e+02 </wgt>
<wgt id='1822'> +2.8275919e+02 </wgt>
<wgt id='1823'> +2.8278178e+02 </wgt>
<wgt id='1824'> +2.8171257e+02 </wgt>
<wgt id='1825'> +2.8169267e+02 </wgt>
<wgt id='1826'> +2.8215973e+02 </wgt>
<wgt id='1827'> +2.8127547e+02 </wgt>
<wgt id='1828'> +2.8320169e+02 </wgt>
<wgt id='1829'> +2.8073370e+02 </wgt>
<wgt id='1830'> +2.8353444e+02 </wgt>
<wgt id='1831'> +2.8276376e+02 </wgt>
<wgt id='1832'> +2.8182853e+02 </wgt>
<wgt id='1833'> +2.8241812e+02 </wgt>
<wgt id='1834'> +2.8229767e+02 </wgt>
<wgt id='1835'> +2.8190687e+02 </wgt>
<wgt id='1836'> +2.8288983e+02 </wgt>
<wgt id='1837'> +2.8233388e+02 </wgt>
<wgt id='1838'> +2.8189415e+02 </wgt>
<wgt id='1839'> +2.8242723e+02 </wgt>
<wgt id='1840'> +2.8326100e+02 </wgt>
<wgt id='1841'> +2.8205948e+02 </wgt>
<wgt id='1842'> +2.8132920e+02 </wgt>
<wgt id='1843'> +2.8199329e+02 </wgt>
<wgt id='1844'> +2.8261473e+02 </wgt>
<wgt id='1845'> +2.8235151e+02 </wgt>
<wgt id='1846'> +2.8269294e+02 </wgt>
<wgt id='1847'> +2.8266281e+02 </wgt>
<wgt id='1848'> +2.8243286e+02 </wgt>
<wgt id='1849'> +2.8251238e+02 </wgt>
<wgt id='1850'> +2.8235369e+02 </wgt>
<wgt id='1851'> +2.8213543e+02 </wgt>
<wgt id='1852'> +2.8246912e+02 </wgt>
<wgt id='1853'> +2.8252949e+02 </wgt>
<wgt id='1854'> +2.8279852e+02 </wgt>
<wgt id='1855'> +2.8261970e+02 </wgt>
<wgt id='1856'> +2.8253337e+02 </wgt>
<wgt id='1857'> +2.8260152e+02 </wgt>
<wgt id='1858'> +2.8248938e+02 </wgt>
<wgt id='1859'> +2.8235827e+02 </wgt>
<wgt id='1860'> +2.8237648e+02 </wgt>
<wgt id='1861'> +2.8231573e+02 </wgt>
<wgt id='1862'> +2.8252663e+02 </wgt>
<wgt id='1863'> +2.8264707e+02 </wgt>
<wgt id='1864'> +2.8255802e+02 </wgt>
<wgt id='1865'> +2.8249977e+02 </wgt>
<wgt id='1866'> +2.8234290e+02 </wgt>
<wgt id='1867'> +2.8236675e+02 </wgt>
<wgt id='1868'> +2.8222007e+02 </wgt>
<wgt id='1869'> +2.8239356e+02 </wgt>
<wgt id='1870'> +2.8221304e+02 </wgt>
<wgt id='1871'> +2.8218194e+02 </wgt>
<wgt id='1872'> +2.8234626e+02 </wgt>
<wgt id='1873'> +2.8238789e+02 </wgt>
<wgt id='1874'> +2.8228095e+02 </wgt>
<wgt id='1875'> +2.8247098e+02 </wgt>
<wgt id='1876'> +2.8231198e+02 </wgt>
<wgt id='1877'> +2.8226493e+02 </wgt>
<wgt id='1878'> +2.8244276e+02 </wgt>
<wgt id='1879'> +2.8224842e+02 </wgt>
<wgt id='1880'> +2.8238532e+02 </wgt>
<wgt id='1881'> +2.8238433e+02 </wgt>
<wgt id='1882'> +2.8230563e+02 </wgt>
<wgt id='1883'> +2.8244248e+02 </wgt>
<wgt id='1884'> +2.6631232e+02 </wgt>
<wgt id='1885'> +2.9832684e+02 </wgt>
<wgt id='1886'> +2.8307440e+02 </wgt>
<wgt id='1887'> +2.8437720e+02 </wgt>
<wgt id='1888'> +2.8080015e+02 </wgt>
<wgt id='1889'> +2.8301632e+02 </wgt>
<wgt id='1890'> +2.8112514e+02 </wgt>
<wgt id='1891'> +2.8613267e+02 </wgt>
<wgt id='1892'> +2.8906688e+02 </wgt>
<wgt id='1893'> +2.8280571e+02 </wgt>
<wgt id='1894'> +2.8343143e+02 </wgt>
<wgt id='1895'> +2.8273835e+02 </wgt>
<wgt id='1896'> +2.8382822e+02 </wgt>
<wgt id='1897'> +2.8244966e+02 </wgt>
<wgt id='1898'> +2.8371757e+02 </wgt>
<wgt id='1899'> +2.8312716e+02 </wgt>
<wgt id='1900'> +2.8215515e+02 </wgt>
<wgt id='1901'> +2.8303772e+02 </wgt>
<wgt id='1902'> +2.8263024e+02 </wgt>
<wgt id='1903'> +2.8413658e+02 </wgt>
<wgt id='1904'> +2.8306826e+02 </wgt>
<wgt id='1905'> +2.8315553e+02 </wgt>
<wgt id='1906'> +2.8301146e+02 </wgt>
<wgt id='1907'> +2.8283891e+02 </wgt>
<wgt id='1908'> +2.8278231e+02 </wgt>
<wgt id='1909'> +2.8313064e+02 </wgt>
<wgt id='1910'> +2.8256431e+02 </wgt>
<wgt id='1911'> +2.8303083e+02 </wgt>
<wgt id='1912'> +2.8201915e+02 </wgt>
<wgt id='1913'> +2.8342867e+02 </wgt>
<wgt id='1914'> +2.8474623e+02 </wgt>
<wgt id='1915'> +2.8316691e+02 </wgt>
<wgt id='1916'> +2.8313615e+02 </wgt>
<wgt id='1917'> +2.6671645e+02 </wgt>
<wgt id='1918'> +2.9922234e+02 </wgt>
<wgt id='1919'> +2.8236560e+02 </wgt>
<wgt id='1920'> +2.8259420e+02 </wgt>
<wgt id='1921'> +2.8630078e+02 </wgt>
<wgt id='1922'> +2.8204283e+02 </wgt>
<wgt id='1923'> +2.8480548e+02 </wgt>
<wgt id='1924'> +2.8032590e+02 </wgt>
<wgt id='1925'> +2.8251480e+02 </wgt>
<wgt id='1926'> +2.8129259e+02 </wgt>
<wgt id='1927'> +2.8335714e+02 </wgt>
<wgt id='1928'> +2.7924166e+02 </wgt>
<wgt id='1929'> +2.8074487e+02 </wgt>
<wgt id='1930'> +2.8258013e+02 </wgt>
<wgt id='1931'> +2.8275832e+02 </wgt>
<wgt id='1932'> +2.8298220e+02 </wgt>
<wgt id='1933'> +2.8227043e+02 </wgt>
<wgt id='1934'> +2.8280833e+02 </wgt>
<wgt id='1935'> +2.8239576e+02 </wgt>
<wgt id='1936'> +2.8143123e+02 </wgt>
<wgt id='1937'> +2.8217154e+02 </wgt>
<wgt id='1938'> +2.8290122e+02 </wgt>
<wgt id='1939'> +2.8232111e+02 </wgt>
<wgt id='1940'> +2.7908365e+02 </wgt>
<wgt id='1941'> +2.8522641e+02 </wgt>
<wgt id='1942'> +2.8223596e+02 </wgt>
<wgt id='1943'> +2.8276002e+02 </wgt>
<wgt id='1944'> +2.8214715e+02 </wgt>
<wgt id='1945'> +2.8150982e+02 </wgt>
<wgt id='1946'> +2.8297817e+02 </wgt>
<wgt id='1947'> +2.8118381e+02 </wgt>
<wgt id='1948'> +2.8351613e+02 </wgt>
<wgt id='1949'> +2.8188522e+02 </wgt>
<wgt id='1950'> +2.6631232e+02 </wgt>
<wgt id='1951'> +2.9832684e+02 </wgt>
<wgt id='1952'> +2.8432680e+02 </wgt>
<wgt id='1953'> +2.8419939e+02 </wgt>
<wgt id='1954'> +2.8445363e+02 </wgt>
<wgt id='1955'> +2.8426778e+02 </wgt>
<wgt id='1956'> +2.8438552e+02 </wgt>
<wgt id='1957'> +2.8456438e+02 </wgt>
<wgt id='1958'> +2.8409005e+02 </wgt>
<wgt id='1959'> +2.8463782e+02 </wgt>
<wgt id='1960'> +2.8402496e+02 </wgt>
<wgt id='1961'> +2.7899406e+02 </wgt>
<wgt id='1962'> +2.8959514e+02 </wgt>
<wgt id='1963'> +2.8587278e+02 </wgt>
<wgt id='1964'> +2.8286247e+02 </wgt>
<wgt id='1965'> +2.8444137e+02 </wgt>
<wgt id='1966'> +2.8421662e+02 </wgt>
<wgt id='1967'> +2.8514491e+02 </wgt>
<wgt id='1968'> +2.8315531e+02 </wgt>
<wgt id='1969'> +2.8477493e+02 </wgt>
<wgt id='1970'> +2.8409268e+02 </wgt>
<wgt id='1971'> +2.7882577e+02 </wgt>
<wgt id='1972'> +2.8941957e+02 </wgt>
<wgt id='1973'> +2.7929641e+02 </wgt>
<wgt id='1974'> +2.8924740e+02 </wgt>
<wgt id='1975'> +2.7747420e+02 </wgt>
<wgt id='1976'> +2.9129577e+02 </wgt>
<wgt id='1977'> +2.8888074e+02 </wgt>
<wgt id='1978'> +2.7983638e+02 </wgt>
<wgt id='1979'> +2.8361676e+02 </wgt>
<wgt id='1980'> +2.8525672e+02 </wgt>
<wgt id='1981'> +2.8432680e+02 </wgt>
<wgt id='1982'> +2.9009957e+02 </wgt>
<wgt id='1983'> +2.7898560e+02 </wgt>
<wgt id='1984'> +3.0688171e+02 </wgt>
<wgt id='1985'> +3.0253472e+02 </wgt>
<wgt id='1986'> +2.8790183e+02 </wgt>
<wgt id='1987'> +2.8266220e+02 </wgt>
<wgt id='1988'> +2.8401249e+02 </wgt>
<wgt id='1989'> +2.8468357e+02 </wgt>
<wgt id='1990'> +2.8493820e+02 </wgt>
<wgt id='1991'> +2.8379330e+02 </wgt>
<wgt id='1992'> +2.8354483e+02 </wgt>
<wgt id='1993'> +2.8409581e+02 </wgt>
<wgt id='1994'> +2.9861581e+02 </wgt>
<wgt id='1995'> +2.9904925e+02 </wgt>
<wgt id='1996'> +2.9888468e+02 </wgt>
<wgt id='1997'> +2.9918470e+02 </wgt>
<wgt id='1998'> +2.9892963e+02 </wgt>
<wgt id='1999'> +2.9914077e+02 </wgt>
<wgt id='2000'> +2.9921554e+02 </wgt>
<wgt id='2001'> +2.9885434e+02 </wgt>
<wgt id='2002'> +2.9975305e+02 </wgt>
<wgt id='2003'> +2.9833848e+02 </wgt>
<wgt id='2004'> +2.9747743e+02 </wgt>
<wgt id='2005'> +3.0061385e+02 </wgt>
<wgt id='2006'> +2.9415200e+02 </wgt>
<wgt id='2007'> +3.0382371e+02 </wgt>
<wgt id='2008'> +3.0005179e+02 </wgt>
<wgt id='2009'> +2.9799430e+02 </wgt>
<wgt id='2010'> +2.9844619e+02 </wgt>
<wgt id='2011'> +2.9915778e+02 </wgt>
<wgt id='2012'> +2.9821889e+02 </wgt>
<wgt id='2013'> +2.9981806e+02 </wgt>
<wgt id='2014'> +2.9269375e+02 </wgt>
<wgt id='2015'> +3.0514229e+02 </wgt>
<wgt id='2016'> +2.9959246e+02 </wgt>
<wgt id='2017'> +2.9841410e+02 </wgt>
<wgt id='2018'> +3.0199620e+02 </wgt>
<wgt id='2019'> +2.9634199e+02 </wgt>
<wgt id='2020'> +2.9649279e+02 </wgt>
<wgt id='2021'> +3.0249473e+02 </wgt>
<wgt id='2022'> +2.9515829e+02 </wgt>
<wgt id='2023'> +3.0346765e+02 </wgt>
<wgt id='2024'> +2.9891138e+02 </wgt>
<wgt id='2025'> +3.0270477e+02 </wgt>
<wgt id='2026'> +2.9344749e+02 </wgt>
<wgt id='2027'> +3.1149572e+02 </wgt>
<wgt id='2028'> +3.0589833e+02 </wgt>
<wgt id='2029'> +3.0949755e+02 </wgt>
<wgt id='2030'> +2.8809233e+02 </wgt>
<wgt id='2031'> +2.9869694e+02 </wgt>
<wgt id='2032'> +3.0040101e+02 </wgt>
<wgt id='2033'> +2.9101408e+02 </wgt>
<wgt id='2034'> +3.0430093e+02 </wgt>
<wgt id='2035'> +2.8818999e+02 </wgt>
<wgt id='2036'> +3.0426787e+02 </wgt>
<wgt id='2037'> +2.8778719e+02 </wgt>
<wgt id='2038'> +2.7646727e+02 </wgt>
<wgt id='2039'> +2.7642408e+02 </wgt>
<wgt id='2040'> +2.7638138e+02 </wgt>
<wgt id='2041'> +2.7633818e+02 </wgt>
<wgt id='2042'> +2.7629526e+02 </wgt>
<wgt id='2043'> +2.7625211e+02 </wgt>
<wgt id='2044'> +2.7620893e+02 </wgt>
<wgt id='2045'> +2.7616613e+02 </wgt>
<wgt id='2046'> +2.7612293e+02 </wgt>
<wgt id='2047'> +2.7608003e+02 </wgt>
<wgt id='2048'> +2.7603541e+02 </wgt>
<wgt id='2049'> +2.7599277e+02 </wgt>
<wgt id='2050'> +2.7594961e+02 </wgt>
<wgt id='2051'> +2.7590669e+02 </wgt>
<wgt id='2052'> +2.7586353e+02 </wgt>
<wgt id='2053'> +2.7582071e+02 </wgt>
<wgt id='2054'> +2.7577752e+02 </wgt>
<wgt id='2055'> +2.7573465e+02 </wgt>
<wgt id='2056'> +2.7569150e+02 </wgt>
<wgt id='2057'> +2.7564859e+02 </wgt>
<wgt id='2058'> +2.7560579e+02 </wgt>
<wgt id='2059'> +2.7556292e+02 </wgt>
<wgt id='2060'> +2.7551974e+02 </wgt>
<wgt id='2061'> +2.7547687e+02 </wgt>
<wgt id='2062'> +2.7543375e+02 </wgt>
<wgt id='2063'> +2.7539092e+02 </wgt>
<wgt id='2064'> +2.7534779e+02 </wgt>
<wgt id='2065'> +2.7530349e+02 </wgt>
<wgt id='2066'> +2.7526034e+02 </wgt>
<wgt id='2067'> +2.7521778e+02 </wgt>
<wgt id='2068'> +2.7517485e+02 </wgt>
<wgt id='2069'> +2.8042799e+02 </wgt>
<wgt id='2070'> +2.8119489e+02 </wgt>
<wgt id='2071'> +2.8175333e+02 </wgt>
<wgt id='2072'> +2.7811233e+02 </wgt>
<wgt id='2073'> +2.8037488e+02 </wgt>
<wgt id='2074'> +2.8146956e+02 </wgt>
<wgt id='2075'> +2.7926197e+02 </wgt>
<wgt id='2076'> +2.7915431e+02 </wgt>
<wgt id='2077'> +2.8000676e+02 </wgt>
<wgt id='2078'> +2.7939519e+02 </wgt>
<wgt id='2079'> +2.7913774e+02 </wgt>
<wgt id='2080'> +2.8226327e+02 </wgt>
<wgt id='2081'> +2.8110162e+02 </wgt>
<wgt id='2082'> +2.7747349e+02 </wgt>
<wgt id='2083'> +2.8005007e+02 </wgt>
<wgt id='2084'> +2.8396119e+02 </wgt>
<wgt id='2085'> +2.8118378e+02 </wgt>
<wgt id='2086'> +2.8051019e+02 </wgt>
<wgt id='2087'> +2.8043962e+02 </wgt>
<wgt id='2088'> +2.7875223e+02 </wgt>
<wgt id='2089'> +2.8034180e+02 </wgt>
<wgt id='2090'> +2.8149305e+02 </wgt>
<wgt id='2091'> +2.7818499e+02 </wgt>
<wgt id='2092'> +2.8063552e+02 </wgt>
<wgt id='2093'> +2.8235335e+02 </wgt>
<wgt id='2094'> +2.8093730e+02 </wgt>
<wgt id='2095'> +2.8028978e+02 </wgt>
<wgt id='2096'> +2.8024004e+02 </wgt>
<wgt id='2097'> +2.7946899e+02 </wgt>
<wgt id='2098'> +2.7934293e+02 </wgt>
<wgt id='2099'> +2.8070970e+02 </wgt>
<wgt id='2100'> +2.7900340e+02 </wgt>
<wgt id='2101'> +2.8196796e+02 </wgt>
<wgt id='2102'> +2.7992451e+02 </wgt>
<wgt id='2103'> +2.7984535e+02 </wgt>
<wgt id='2104'> +2.8046713e+02 </wgt>
<wgt id='2105'> +2.8049687e+02 </wgt>
<wgt id='2106'> +2.8215799e+02 </wgt>
<wgt id='2107'> +2.8257119e+02 </wgt>
<wgt id='2108'> +2.8079211e+02 </wgt>
<wgt id='2109'> +2.8081537e+02 </wgt>
<wgt id='2110'> +2.7974905e+02 </wgt>
<wgt id='2111'> +2.7973243e+02 </wgt>
<wgt id='2112'> +2.8020371e+02 </wgt>
<wgt id='2113'> +2.7931885e+02 </wgt>
<wgt id='2114'> +2.8122980e+02 </wgt>
<wgt id='2115'> +2.7878249e+02 </wgt>
<wgt id='2116'> +2.8155890e+02 </wgt>
<wgt id='2117'> +2.8079955e+02 </wgt>
<wgt id='2118'> +2.7986611e+02 </wgt>
<wgt id='2119'> +2.8045506e+02 </wgt>
<wgt id='2120'> +2.8033393e+02 </wgt>
<wgt id='2121'> +2.7994503e+02 </wgt>
<wgt id='2122'> +2.8092302e+02 </wgt>
<wgt id='2123'> +2.8037125e+02 </wgt>
<wgt id='2124'> +2.7993493e+02 </wgt>
<wgt id='2125'> +2.8046060e+02 </wgt>
<wgt id='2126'> +2.8128987e+02 </wgt>
<wgt id='2127'> +2.8010190e+02 </wgt>
<wgt id='2128'> +2.7937476e+02 </wgt>
<wgt id='2129'> +2.8003321e+02 </wgt>
<wgt id='2130'> +2.8065004e+02 </wgt>
<wgt id='2131'> +2.8038593e+02 </wgt>
<wgt id='2132'> +2.8072632e+02 </wgt>
<wgt id='2133'> +2.8069727e+02 </wgt>
<wgt id='2134'> +2.8046738e+02 </wgt>
<wgt id='2135'> +2.8054639e+02 </wgt>
<wgt id='2136'> +2.8038783e+02 </wgt>
<wgt id='2137'> +2.8017485e+02 </wgt>
<wgt id='2138'> +2.8050232e+02 </wgt>
<wgt id='2139'> +2.8056343e+02 </wgt>
<wgt id='2140'> +2.8083389e+02 </wgt>
<wgt id='2141'> +2.8065315e+02 </wgt>
<wgt id='2142'> +2.8056616e+02 </wgt>
<wgt id='2143'> +2.8063593e+02 </wgt>
<wgt id='2144'> +2.8052478e+02 </wgt>
<wgt id='2145'> +2.8039750e+02 </wgt>
<wgt id='2146'> +2.8041257e+02 </wgt>
<wgt id='2147'> +2.8035400e+02 </wgt>
<wgt id='2148'> +2.8056104e+02 </wgt>
<wgt id='2149'> +2.8067981e+02 </wgt>
<wgt id='2150'> +2.8059426e+02 </wgt>
<wgt id='2151'> +2.8053572e+02 </wgt>
<wgt id='2152'> +2.8037778e+02 </wgt>
<wgt id='2153'> +2.8040154e+02 </wgt>
<wgt id='2154'> +2.8025877e+02 </wgt>
<wgt id='2155'> +2.8043169e+02 </wgt>
<wgt id='2156'> +2.8024827e+02 </wgt>
<wgt id='2157'> +2.8021802e+02 </wgt>
<wgt id='2158'> +2.8038032e+02 </wgt>
<wgt id='2159'> +2.8042300e+02 </wgt>
<wgt id='2160'> +2.8031635e+02 </wgt>
<wgt id='2161'> +2.8050529e+02 </wgt>
<wgt id='2162'> +2.8034821e+02 </wgt>
<wgt id='2163'> +2.8029977e+02 </wgt>
<wgt id='2164'> +2.8047824e+02 </wgt>
<wgt id='2165'> +2.8028628e+02 </wgt>
<wgt id='2166'> +2.8042097e+02 </wgt>
<wgt id='2167'> +2.8041979e+02 </wgt>
<wgt id='2168'> +2.8034252e+02 </wgt>
<wgt id='2169'> +2.8047901e+02 </wgt>
<wgt id='2170'> +2.8042624e+02 </wgt>
<wgt id='2171'> +2.8041649e+02 </wgt>
<wgt id='2172'> +2.8042982e+02 </wgt>
<wgt id='2173'> +2.8043011e+02 </wgt>
<wgt id='2174'> +2.8043332e+02 </wgt>
<wgt id='2175'> +2.8042876e+02 </wgt>
<wgt id='2176'> +2.8042031e+02 </wgt>
<wgt id='2177'> +2.8654270e+02 </wgt>
<wgt id='2178'> +2.7848464e+02 </wgt>
<wgt id='2179'> +2.8793004e+02 </wgt>
<wgt id='2180'> +2.8816247e+02 </wgt>
<wgt id='2181'> +2.9271286e+02 </wgt>
<wgt id='2182'> +2.7206445e+02 </wgt>
<wgt id='2183'> +2.8664225e+02 </wgt>
<wgt id='2184'> +2.8763686e+02 </wgt>
<wgt id='2185'> +3.0079402e+02 </wgt>
<wgt id='2186'> +2.8718286e+02 </wgt>
<wgt id='2187'> +2.8843497e+02 </wgt>
<wgt id='2188'> +2.7846880e+02 </wgt>
<wgt id='2189'> +2.8706310e+02 </wgt>
<wgt id='2190'> +2.7459239e+02 </wgt>
<wgt id='2191'> +2.7859441e+02 </wgt>
<wgt id='2192'> +2.8863062e+02 </wgt>
<wgt id='2193'> +2.9516093e+02 </wgt>
<wgt id='2194'> +2.7593708e+02 </wgt>
<wgt id='2195'> +2.6676535e+02 </wgt>
<wgt id='2196'> +2.9237040e+02 </wgt>
<wgt id='2197'> +3.0114575e+02 </wgt>
<wgt id='2198'> +2.9195804e+02 </wgt>
<wgt id='2199'> +2.9086171e+02 </wgt>
<wgt id='2200'> +3.0392216e+02 </wgt>
<wgt id='2201'> +2.8087614e+02 </wgt>
<wgt id='2202'> +2.8083349e+02 </wgt>
<wgt id='2203'> +2.8071835e+02 </wgt>
<wgt id='2204'> +2.7950590e+02 </wgt>
<wgt id='2205'> +2.7480826e+02 </wgt>
<wgt id='2206'> +2.8486056e+02 </wgt>
<wgt id='2207'> +2.9243825e+02 </wgt>
<wgt id='2208'> +2.8757531e+02 </wgt>
<wgt id='2209'> +2.8644063e+02 </wgt>
<wgt id='2210'> +2.9088248e+02 </wgt>
<wgt id='2211'> +2.8734740e+02 </wgt>
<wgt id='2212'> +2.9731865e+02 </wgt>
<wgt id='2213'> +2.9146249e+02 </wgt>
<wgt id='2214'> +2.8226854e+02 </wgt>
<wgt id='2215'> +2.9218306e+02 </wgt>
<wgt id='2216'> +2.8842350e+02 </wgt>
<wgt id='2217'> +2.9058576e+02 </wgt>
<wgt id='2218'> +2.9167066e+02 </wgt>
<wgt id='2219'> +2.8761155e+02 </wgt>
<wgt id='2220'> +2.8766884e+02 </wgt>
<wgt id='2221'> +2.8576933e+02 </wgt>
<wgt id='2222'> +2.8802617e+02 </wgt>
<wgt id='2223'> +2.8301135e+02 </wgt>
<wgt id='2224'> +2.9033126e+02 </wgt>
<wgt id='2225'> +2.8588503e+02 </wgt>
<wgt id='2226'> +2.8734194e+02 </wgt>
<wgt id='2227'> +2.8506157e+02 </wgt>
<wgt id='2228'> +2.8807904e+02 </wgt>
<wgt id='2229'> +2.8318962e+02 </wgt>
<wgt id='2230'> +2.8715696e+02 </wgt>
<wgt id='2231'> +2.8601536e+02 </wgt>
<wgt id='2232'> +2.8291109e+02 </wgt>
<wgt id='2233'> +2.6856213e+02 </wgt>
<wgt id='2234'> +2.8145173e+02 </wgt>
<wgt id='2235'> +2.7846843e+02 </wgt>
<wgt id='2236'> +2.8914487e+02 </wgt>
<wgt id='2237'> +2.9374221e+02 </wgt>
<wgt id='2238'> +2.7062913e+02 </wgt>
<wgt id='2239'> +2.8470691e+02 </wgt>
<wgt id='2240'> +2.8156372e+02 </wgt>
<wgt id='2241'> +2.5883767e+02 </wgt>
<wgt id='2242'> +2.9350885e+02 </wgt>
<wgt id='2243'> +2.7589008e+02 </wgt>
<wgt id='2244'> +3.2469886e+02 </wgt>
<wgt id='2245'> +2.7887665e+02 </wgt>
<wgt id='2246'> +2.9207529e+02 </wgt>
<wgt id='2247'> +2.7941434e+02 </wgt>
<wgt id='2248'> +2.8808061e+02 </wgt>
<wgt id='2249'> +2.9082196e+02 </wgt>
<wgt id='2250'> +2.8851712e+02 </wgt>
<wgt id='2251'> +2.9026479e+02 </wgt>
<wgt id='2252'> +2.8571701e+02 </wgt>
<wgt id='2253'> +2.9462020e+02 </wgt>
<wgt id='2254'> +2.8614594e+02 </wgt>
<wgt id='2255'> +3.0049839e+02 </wgt>
<wgt id='2256'> +2.8547648e+02 </wgt>
<wgt id='2257'> +2.8715961e+02 </wgt>
<wgt id='2258'> +2.9237678e+02 </wgt>
<wgt id='2259'> +2.9377290e+02 </wgt>
<wgt id='2260'> +2.9285798e+02 </wgt>
<wgt id='2261'> +2.8729157e+02 </wgt>
<wgt id='2262'> +2.7675727e+02 </wgt>
<wgt id='2263'> +2.8848410e+02 </wgt>
<wgt id='2264'> +2.8305080e+02 </wgt>
<wgt id='2265'> +2.8388812e+02 </wgt>
<wgt id='2266'> +2.8214700e+02 </wgt>
<wgt id='2267'> +2.8707234e+02 </wgt>
<wgt id='2268'> +2.9734675e+02 </wgt>
<wgt id='2269'> +2.9771334e+02 </wgt>
<wgt id='2270'> +2.8226412e+02 </wgt>
<wgt id='2271'> +2.9628432e+02 </wgt>
<wgt id='2272'> +2.7203799e+02 </wgt>
<wgt id='2273'> +2.9833617e+02 </wgt>
<wgt id='2274'> +2.7857122e+02 </wgt>
<wgt id='2275'> +2.9059780e+02 </wgt>
<wgt id='2276'> +2.8634229e+02 </wgt>
<wgt id='2277'> +2.7436903e+02 </wgt>
<wgt id='2278'> +2.7501398e+02 </wgt>
<wgt id='2279'> +2.9717595e+02 </wgt>
<wgt id='2280'> +2.8400968e+02 </wgt>
<wgt id='2281'> +2.7683404e+02 </wgt>
<wgt id='2282'> +4.5105465e+02 </wgt>
<wgt id='2283'> +2.7581186e+02 </wgt>
<wgt id='2284'> +4.4092103e+02 </wgt>
</rwgt>
</event>
<event npLO=" -1 " npNLO=" 1 ">
 5      1 +2.8781417e+02 1.70154070e+01 7.54677110e-03 1.26690070e-01
       21 -1    0    0  503  501 +0.0000000000e+00 +0.0000000000e+00 +6.1101719000e+02 6.1101719000e+02 0.0000000000e+00 0.0000e+00 9.0000e+00
       21 -1    0    0  501  504 +0.0000000000e+00 +0.0000000000e+00 -6.7492783000e+01 6.7492783000e+01 0.0000000000e+00 0.0000e+00 9.0000e+00
       25  1    1    2    0    0 -3.5935373000e+00 -1.8509542000e+01 +6.0022395000e+02 6.0878921000e+02 1.0000000000e+02 0.0000e+00 9.0000e+00
       21  1    1    2  503  502 +2.6709301000e+00 +1.7888135000e-01 +4.8244993000e+00 5.5173961000e+00 0.0000000000e+00 0.0000e+00 9.0000e+00
       21  1    1    2  502  504 +9.2260717000e-01 +1.8330661000e+01 -6.1524041000e+01 6.4203364000e+01 0.0000000000e+00 0.0000e+00 9.0000e+00
#aMCatNLO 2  0  0  2  4 0.61540026E+01 0.00000000E+00 -9  5  0 0.00000000E+00 0.00000000E+00 0.00000000E+00 0.00000000E+00 0.00000000E+00
<rwgt>
<wgt id='1001'> +2.8781417e+02 </wgt>
<wgt id='1002'> +1.8786445e+02 </wgt>
<wgt id='1003'> +4.6540705e+02 </wgt>
<wgt id='1004'> +2.7538536e+02 </wgt>
<wgt id='1005'> +1.7975181e+02 </wgt>
<wgt id='1006'> +4.4530916e+02 </wgt>
<wgt id='1007'> +2.9795128e+02 </wgt>
<wgt id='1008'> +1.9448122e+02 </wgt>
<wgt id='1009'> +4.8179916e+02 </wgt>
<wgt id='1010'> +2.8781417e+02 </wgt>
<wgt id='1011'> +2.8723877e+02 </wgt>
<wgt id='1012'> +2.8733631e+02 </wgt>
<wgt id='1013'> +2.8882324e+02 </wgt>
<wgt id='1014'> +2.8836227e+02 </wgt>
<wgt id='1015'> +2.8767607e+02 </wgt>
<wgt id='1016'> +2.8851019e+02 </wgt>
<wgt id='1017'> +2.8848342e+02 </wgt>
<wgt id='1018'> +2.8848835e+02 </wgt>
<wgt id='1019'> +2.8771925e+02 </wgt>
<wgt id='1020'> +2.8769703e+02 </wgt>
<wgt id='1021'> +2.8760227e+02 </wgt>
<wgt id='1022'> +2.8798836e+02 </wgt>
<wgt id='1023'> +2.8775814e+02 </wgt>
<wgt id='1024'> +2.8791537e+02 </wgt>
<wgt id='1025'> +2.8789244e+02 </wgt>
<wgt id='1026'> +2.8779719e+02 </wgt>
<wgt id='1027'> +2.8818499e+02 </wgt>
<wgt id='1028'> +2.8843693e+02 </wgt>
<wgt id='1029'> +2.8593827e+02 </wgt>
<wgt id='1030'> +2.8843499e+02 </wgt>
<wgt id='1031'> +2.8753411e+02 </wgt>
<wgt id='1032'> +2.8821902e+02 </wgt>
<wgt id='1033'> +2.8869827e+02 </wgt>
<wgt id='1034'> +2.8704027e+02 </wgt>
<wgt id='1035'> +2.8762132e+02 </wgt>
<wgt id='1036'> +2.8714413e+02 </wgt>
<wgt id='1037'> +2.8709766e+02 </wgt>
<wgt id='1038'> +2.8831668e+02 </wgt>
<wgt id='1039'> +2.8675185e+02 </wgt>
<wgt id='1040'> +2.8798664e+02 </wgt>
<wgt id='1041'> +2.8657245e+02 </wgt>
<wgt id='1042'> +2.8791556e+02 </wgt>
<wgt id='1043'> +2.8735365e+02 </wgt>
<wgt id='1044'> +2.8708946e+02 </wgt>
<wgt id='1045'> +2.8780035e+02 </wgt>
<wgt id='1046'> +2.8847052e+02 </wgt>
<wgt id='1047'> +2.8781478e+02 </wgt>
<wgt id='1048'> +2.8751747e+02 </wgt>
<wgt id='1049'> +2.8761217e+02 </wgt>
<wgt id='1050'> +2.8773650e+02 </wgt>
<wgt id='1051'> +2.8762903e+02 </wgt>
<wgt id='1052'> +2.8822214e+02 </wgt>
<wgt id='1053'> +2.8749198e+02 </wgt>
<wgt id='1054'> +2.8813094e+02 </wgt>
<wgt id='1055'> +2.8776862e+02 </wgt>
<wgt id='1056'> +2.8783960e+02 </wgt>
<wgt id='1057'> +2.8780832e+02 </wgt>
<wgt id='1058'> +2.8779960e+02 </wgt>
<wgt id='1059'> +2.8757896e+02 </wgt>
<wgt id='1060'> +2.8770222e+02 </wgt>
<wgt id='1061'> +2.8771670e+02 </wgt>
<wgt id='1062'> +2.8806049e+02 </wgt>
<wgt id='1063'> +2.8778992e+02 </wgt>
<wgt id='1064'> +2.8779848e+02 </wgt>
<wgt id='1065'> +2.8786437e+02 </wgt>
<wgt id='1066'> +2.8756112e+02 </wgt>
<wgt id='1067'> +2.8793454e+02 </wgt>
<wgt id='1068'> +2.8790325e+02 </wgt>
<wgt id='1069'> +2.8776176e+02 </wgt>
<wgt id='1070'> +2.8782446e+02 </wgt>
<wgt id='1071'> +2.8775795e+02 </wgt>
<wgt id='1072'> +2.8803412e+02 </wgt>
<wgt id='1073'> +2.8784481e+02 </wgt>
<wgt id='1074'> +2.8784912e+02 </wgt>
<wgt id='1075'> +2.8808796e+02 </wgt>
<wgt id='1076'> +2.8775989e+02 </wgt>
<wgt id='1077'> +2.8787214e+02 </wgt>
<wgt id='1078'> +2.8784846e+02 </wgt>
<wgt id='1079'> +2.8784640e+02 </wgt>
<wgt id='1080'> +2.8783578e+02 </wgt>
<wgt id='1081'> +2.8778230e+02 </wgt>
<wgt id='1082'> +2.8780279e+02 </wgt>
<wgt id='1083'> +2.8784432e+02 </wgt>
<wgt id='1084'> +2.8780846e+02 </wgt>
<wgt id='1085'> +2.8775276e+02 </wgt>
<wgt id='1086'> +2.8774795e+02 </wgt>
<wgt id='1087'> +2.8799133e+02 </wgt>
<wgt id='1088'> +2.8785148e+02 </wgt>
<wgt id='1089'> +2.8775842e+02 </wgt>
<wgt id='1090'> +2.8787140e+02 </wgt>
<wgt id='1091'> +2.8777912e+02 </wgt>
<wgt id='1092'> +2.8785510e+02 </wgt>
<wgt id='1093'> +2.8792798e+02 </wgt>
<wgt id='1094'> +2.8784561e+02 </wgt>
<wgt id='1095'> +2.8783108e+02 </wgt>
<wgt id='1096'> +2.8773834e+02 </wgt>
<wgt id='1097'> +2.8786956e+02 </wgt>
<wgt id='1098'> +2.8779621e+02 </wgt>
<wgt id='1099'> +2.8777567e+02 </wgt>
<wgt id='1100'> +2.8786145e+02 </wgt>
<wgt id='1101'> +2.8780554e+02 </wgt>
<wgt id='1102'> +2.8788628e+02 </wgt>
<wgt id='1103'> +2.8775682e+02 </wgt>
<wgt id='1104'> +2.8781875e+02 </wgt>
<wgt id='1105'> +2.8788892e+02 </wgt>
<wgt id='1106'> +2.8778168e+02 </wgt>
<wgt id='1107'> +2.8785191e+02 </wgt>
<wgt id='1108'> +2.8780068e+02 </wgt>
<wgt id='1109'> +2.8786482e+02 </wgt>
<wgt id='1110'> +2.8781417e+02 </wgt>
<wgt id='1111'> +2.7075544e+02 </wgt>
<wgt id='1112'> +3.0647903e+02 </wgt>
<wgt id='1113'> +2.8781417e+02 </wgt>
<wgt id='1114'> +2.8386935e+02 </wgt>
<wgt id='1115'> +2.8273979e+02 </wgt>
<wgt id='1116'> +2.7999774e+02 </wgt>
<wgt id='1117'> +2.9148648e+02 </wgt>
<wgt id='1118'> +2.9262981e+02 </wgt>
<wgt id='1119'> +2.9229625e+02 </wgt>
<wgt id='1120'> +2.8485891e+02 </wgt>
<wgt id='1121'> +2.8664255e+02 </wgt>
<wgt id='1122'> +2.8623230e+02 </wgt>
<wgt id='1123'> +2.9437134e+02 </wgt>
<wgt id='1124'> +2.8774402e+02 </wgt>
<wgt id='1125'> +2.8729150e+02 </wgt>
<wgt id='1126'> +2.8365782e+02 </wgt>
<wgt id='1127'> +2.8688353e+02 </wgt>
<wgt id='1128'> +2.8541161e+02 </wgt>
<wgt id='1129'> +2.9001253e+02 </wgt>
<wgt id='1130'> +2.9406383e+02 </wgt>
<wgt id='1131'> +2.8733582e+02 </wgt>
<wgt id='1132'> +2.8438213e+02 </wgt>
<wgt id='1133'> +2.8807671e+02 </wgt>
<wgt id='1134'> +2.7929575e+02 </wgt>
<wgt id='1135'> +2.8298121e+02 </wgt>
<wgt id='1136'> +2.8404123e+02 </wgt>
<wgt id='1137'> +2.8928876e+02 </wgt>
<wgt id='1138'> +2.8500916e+02 </wgt>
<wgt id='1139'> +2.8570448e+02 </wgt>
<wgt id='1140'> +2.8505953e+02 </wgt>
<wgt id='1141'> +2.8413822e+02 </wgt>
<wgt id='1142'> +2.9181625e+02 </wgt>
<wgt id='1143'> +2.8874676e+02 </wgt>
<wgt id='1144'> +2.8395095e+02 </wgt>
<wgt id='1145'> +2.8637957e+02 </wgt>
<wgt id='1146'> +2.8533469e+02 </wgt>
<wgt id='1147'> +2.9321845e+02 </wgt>
<wgt id='1148'> +2.8479690e+02 </wgt>
<wgt id='1149'> +2.8489613e+02 </wgt>
<wgt id='1150'> +2.8415634e+02 </wgt>
<wgt id='1151'> +2.9047028e+02 </wgt>
<wgt id='1152'> +2.8110793e+02 </wgt>
<wgt id='1153'> +2.8985098e+02 </wgt>
<wgt id='1154'> +2.9168794e+02 </wgt>
<wgt id='1155'> +2.8927224e+02 </wgt>
<wgt id='1156'> +2.9045375e+02 </wgt>
<wgt id='1157'> +2.9025777e+02 </wgt>
<wgt id='1158'> +2.9076289e+02 </wgt>
<wgt id='1159'> +2.9051871e+02 </wgt>
<wgt id='1160'> +2.8465199e+02 </wgt>
<wgt id='1161'> +2.8916755e+02 </wgt>
<wgt id='1162'> +2.8127509e+02 </wgt>
<wgt id='1163'> +2.8670295e+02 </wgt>
<wgt id='1164'> +2.8378312e+02 </wgt>
<wgt id='1165'> +2.8337439e+02 </wgt>
<wgt id='1166'> +2.8816579e+02 </wgt>
<wgt id='1167'> +2.7938974e+02 </wgt>
<wgt id='1168'> +2.8953129e+02 </wgt>
<wgt id='1169'> +2.8847883e+02 </wgt>
<wgt id='1170'> +2.8394020e+02 </wgt>
<wgt id='1171'> +2.8895147e+02 </wgt>
<wgt id='1172'> +2.9264983e+02 </wgt>
<wgt id='1173'> +2.8594610e+02 </wgt>
<wgt id='1174'> +2.8519155e+02 </wgt>
<wgt id='1175'> +2.8673280e+02 </wgt>
<wgt id='1176'> +2.8889474e+02 </wgt>
<wgt id='1177'> +2.9104562e+02 </wgt>
<wgt id='1178'> +2.8539345e+02 </wgt>
<wgt id='1179'> +2.9242336e+02 </wgt>
<wgt id='1180'> +2.8269117e+02 </wgt>
<wgt id='1181'> +2.8808495e+02 </wgt>
<wgt id='1182'> +2.8850247e+02 </wgt>
<wgt id='1183'> +2.8638268e+02 </wgt>
<wgt id='1184'> +2.8813525e+02 </wgt>
<wgt id='1185'> +2.8301220e+02 </wgt>
<wgt id='1186'> +2.9146318e+02 </wgt>
<wgt id='1187'> +2.8744975e+02 </wgt>
<wgt id='1188'> +2.9182322e+02 </wgt>
<wgt id='1189'> +2.9291298e+02 </wgt>
<wgt id='1190'> +2.9068019e+02 </wgt>
<wgt id='1191'> +2.7985642e+02 </wgt>
<wgt id='1192'> +2.8838423e+02 </wgt>
<wgt id='1193'> +2.9243526e+02 </wgt>
<wgt id='1194'> +2.8777608e+02 </wgt>
<wgt id='1195'> +2.9001253e+02 </wgt>
<wgt id='1196'> +2.8977143e+02 </wgt>
<wgt id='1197'> +2.8824229e+02 </wgt>
<wgt id='1198'> +2.8052144e+02 </wgt>
<wgt id='1199'> +2.8804656e+02 </wgt>
<wgt id='1200'> +2.8761082e+02 </wgt>
<wgt id='1201'> +2.9305637e+02 </wgt>
<wgt id='1202'> +3.0288437e+02 </wgt>
<wgt id='1203'> +2.9193609e+02 </wgt>
<wgt id='1204'> +2.8904691e+02 </wgt>
<wgt id='1205'> +2.9298511e+02 </wgt>
<wgt id='1206'> +2.9131044e+02 </wgt>
<wgt id='1207'> +2.9045145e+02 </wgt>
<wgt id='1208'> +2.8847047e+02 </wgt>
<wgt id='1209'> +2.8472748e+02 </wgt>
<wgt id='1210'> +2.9321127e+02 </wgt>
<wgt id='1211'> +2.9272237e+02 </wgt>
<wgt id='1212'> +2.8681511e+02 </wgt>
<wgt id='1213'> +2.8912473e+02 </wgt>
<wgt id='1214'> +2.8810689e+02 </wgt>
<wgt id='1215'> +2.8794531e+02 </wgt>
<wgt id='1216'> +2.8875826e+02 </wgt>
<wgt id='1217'> +2.8850533e+02 </wgt>
<wgt id='1218'> +2.8887293e+02 </wgt>
<wgt id='1219'> +2.8785006e+02 </wgt>
<wgt id='1220'> +2.8735082e+02 </wgt>
<wgt id='1221'> +2.8790026e+02 </wgt>
<wgt id='1222'> +2.8784508e+02 </wgt>
<wgt id='1223'> +2.8836718e+02 </wgt>
<wgt id='1224'> +2.8781340e+02 </wgt>
<wgt id='1225'> +2.8803579e+02 </wgt>
<wgt id='1226'> +2.8833255e+02 </wgt>
<wgt id='1227'> +2.8825566e+02 </wgt>
<wgt id='1228'> +2.8784237e+02 </wgt>
<wgt id='1229'> +2.8798093e+02 </wgt>
<wgt id='1230'> +2.8794391e+02 </wgt>
<wgt id='1231'> +2.8784758e+02 </wgt>
<wgt id='1232'> +2.8778044e+02 </wgt>
<wgt id='1233'> +2.8817302e+02 </wgt>
<wgt id='1234'> +2.8734866e+02 </wgt>
<wgt id='1235'> +2.8850873e+02 </wgt>
<wgt id='1236'> +2.8695738e+02 </wgt>
<wgt id='1237'> +2.8816169e+02 </wgt>
<wgt id='1238'> +2.8745068e+02 </wgt>
<wgt id='1239'> +2.8705223e+02 </wgt>
<wgt id='1240'> +2.8813473e+02 </wgt>
<wgt id='1241'> +2.8764327e+02 </wgt>
<wgt id='1242'> +2.8785657e+02 </wgt>
<wgt id='1243'> +2.9037860e+02 </wgt>
<wgt id='1244'> +2.8821374e+02 </wgt>
<wgt id='1245'> +2.8824896e+02 </wgt>
<wgt id='1246'> +2.8831679e+02 </wgt>
<wgt id='1247'> +2.8835185e+02 </wgt>
<wgt id='1248'> +2.8890760e+02 </wgt>
<wgt id='1249'> +2.8776029e+02 </wgt>
<wgt id='1250'> +2.8779032e+02 </wgt>
<wgt id='1251'> +2.8889691e+02 </wgt>
<wgt id='1252'> +2.8790892e+02 </wgt>
<wgt id='1253'> +2.8742344e+02 </wgt>
<wgt id='1254'> +2.8770402e+02 </wgt>
<wgt id='1255'> +2.8758352e+02 </wgt>
<wgt id='1256'> +2.8764903e+02 </wgt>
<wgt id='1257'> +2.8826756e+02 </wgt>
<wgt id='1258'> +2.8863763e+02 </wgt>
<wgt id='1259'> +2.8787059e+02 </wgt>
<wgt id='1260'> +2.8878314e+02 </wgt>
<wgt id='1261'> +2.8867220e+02 </wgt>
<wgt id='1262'> +2.8789205e+02 </wgt>
<wgt id='1263'> +2.8802515e+02 </wgt>
<wgt id='1264'> +2.8853547e+02 </wgt>
<wgt id='1265'> +2.8843935e+02 </wgt>
<wgt id='1266'> +2.8784529e+02 </wgt>
<wgt id='1267'> +2.8808463e+02 </wgt>
<wgt id='1268'> +2.8828118e+02 </wgt>
<wgt id='1269'> +2.8826362e+02 </wgt>
<wgt id='1270'> +2.8810610e+02 </wgt>
<wgt id='1271'> +2.8798728e+02 </wgt>
<wgt id='1272'> +2.8817157e+02 </wgt>
<wgt id='1273'> +2.8804386e+02 </wgt>
<wgt id='1274'> +2.8817673e+02 </wgt>
<wgt id='1275'> +2.8812055e+02 </wgt>
<wgt id='1276'> +2.8824347e+02 </wgt>
<wgt id='1277'> +2.8795157e+02 </wgt>
<wgt id='1278'> +2.8800170e+02 </wgt>
<wgt id='1279'> +2.8816135e+02 </wgt>
<wgt id='1280'> +2.8799563e+02 </wgt>
<wgt id='1281'> +2.8817591e+02 </wgt>
<wgt id='1282'> +2.8822519e+02 </wgt>
<wgt id='1283'> +2.8809692e+02 </wgt>
<wgt id='1284'> +2.8806030e+02 </wgt>
<wgt id='1285'> +2.8784089e+02 </wgt>
<wgt id='1286'> +2.8813072e+02 </wgt>
<wgt id='1287'> +2.8812166e+02 </wgt>
<wgt id='1288'> +2.8788157e+02 </wgt>
<wgt id='1289'> +2.8812246e+02 </wgt>
<wgt id='1290'> +2.8807286e+02 </wgt>
<wgt id='1291'> +2.8800924e+02 </wgt>
<wgt id='1292'> +2.8815757e+02 </wgt>
<wgt id='1293'> +2.8820340e+02 </wgt>
<wgt id='1294'> +2.8803460e+02 </wgt>
<wgt id='1295'> +2.8815669e+02 </wgt>
<wgt id='1296'> +2.8814935e+02 </wgt>
<wgt id='1297'> +2.8807448e+02 </wgt>
<wgt id='1298'> +2.8807230e+02 </wgt>
<wgt id='1299'> +2.8800583e+02 </wgt>
<wgt id='1300'> +2.8813714e+02 </wgt>
<wgt id='1301'> +2.8811522e+02 </wgt>
<wgt id='1302'> +2.8813552e+02 </wgt>
<wgt id='1303'> +2.8820326e+02 </wgt>
<wgt id='1304'> +2.8814420e+02 </wgt>
<wgt id='1305'> +2.8804025e+02 </wgt>
<wgt id='1306'> +2.8809558e+02 </wgt>
<wgt id='1307'> +2.8810683e+02 </wgt>
<wgt id='1308'> +2.8806125e+02 </wgt>
<wgt id='1309'> +2.8807781e+02 </wgt>
<wgt id='1310'> +2.8808935e+02 </wgt>
<wgt id='1311'> +2.8819058e+02 </wgt>
<wgt id='1312'> +2.8805010e+02 </wgt>
<wgt id='1313'> +2.8819048e+02 </wgt>
<wgt id='1314'> +2.8807274e+02 </wgt>
<wgt id='1315'> +2.7075544e+02 </wgt>
<wgt id='1316'> +3.0647903e+02 </wgt>
<wgt id='1317'> +2.0882973e+02 </wgt>
<wgt id='1318'> +2.2346755e+02 </wgt>
<wgt id='1319'> +2.3766758e+02 </wgt>
<wgt id='1320'> +2.5278948e+02 </wgt>
<wgt id='1321'> +2.7950218e+02 </wgt>
<wgt id='1322'> +2.9748371e+02 </wgt>
<wgt id='1323'> +3.2524393e+02 </wgt>
<wgt id='1324'> +3.4477881e+02 </wgt>
<wgt id='1325'> +2.9340169e+02 </wgt>
<wgt id='1326'> +2.9400519e+02 </wgt>
<wgt id='1327'> +2.9268250e+02 </wgt>
<wgt id='1328'> +2.9350344e+02 </wgt>
<wgt id='1329'> +2.9433843e+02 </wgt>
<wgt id='1330'> +2.9360407e+02 </wgt>
<wgt id='1331'> +2.9335858e+02 </wgt>
<wgt id='1332'> +2.9350134e+02 </wgt>
<wgt id='1333'> +2.9310433e+02 </wgt>
<wgt id='1334'> +2.9346404e+02 </wgt>
<wgt id='1335'> +2.9276927e+02 </wgt>
<wgt id='1336'> +2.9332073e+02 </wgt>
<wgt id='1337'> +2.9403218e+02 </wgt>
<wgt id='1338'> +2.9286637e+02 </wgt>
<wgt id='1339'> +2.9344788e+02 </wgt>
<wgt id='1340'> +2.9362176e+02 </wgt>
<wgt id='1341'> +2.9344774e+02 </wgt>
<wgt id='1342'> +2.9335587e+02 </wgt>
<wgt id='1343'> +2.9326622e+02 </wgt>
<wgt id='1344'> +2.9407946e+02 </wgt>
<wgt id='1345'> +2.9439016e+02 </wgt>
<wgt id='1346'> +2.9433816e+02 </wgt>
<wgt id='1347'> +2.9341200e+02 </wgt>
<wgt id='1348'> +2.9382339e+02 </wgt>
<wgt id='1349'> +2.9411520e+02 </wgt>
<wgt id='1350'> +2.9386171e+02 </wgt>
<wgt id='1351'> +2.9250154e+02 </wgt>
<wgt id='1352'> +2.9367334e+02 </wgt>
<wgt id='1353'> +2.9373390e+02 </wgt>
<wgt id='1354'> +2.9252677e+02 </wgt>
<wgt id='1355'> +2.9548101e+02 </wgt>
<wgt id='1356'> +2.9445593e+02 </wgt>
<wgt id='1357'> +2.9294026e+02 </wgt>
<wgt id='1358'> +2.9361599e+02 </wgt>
<wgt id='1359'> +2.9313582e+02 </wgt>
<wgt id='1360'> +2.9479192e+02 </wgt>
<wgt id='1361'> +2.9396309e+02 </wgt>
<wgt id='1362'> +2.9328252e+02 </wgt>
<wgt id='1363'> +2.9353661e+02 </wgt>
<wgt id='1364'> +2.9416515e+02 </wgt>
<wgt id='1365'> +2.9289169e+02 </wgt>
<wgt id='1366'> +2.9332979e+02 </wgt>
<wgt id='1367'> +2.9289437e+02 </wgt>
<wgt id='1368'> +2.9267272e+02 </wgt>
<wgt id='1369'> +2.9392132e+02 </wgt>
<wgt id='1370'> +2.9385703e+02 </wgt>
<wgt id='1371'> +2.9384103e+02 </wgt>
<wgt id='1372'> +2.9330767e+02 </wgt>
<wgt id='1373'> +2.9353742e+02 </wgt>
<wgt id='1374'> +2.9318485e+02 </wgt>
<wgt id='1375'> +2.9301349e+02 </wgt>
<wgt id='1376'> +2.9415240e+02 </wgt>
<wgt id='1377'> +2.9331178e+02 </wgt>
<wgt id='1378'> +2.9331824e+02 </wgt>
<wgt id='1379'> +2.9341173e+02 </wgt>
<wgt id='1380'> +2.9347495e+02 </wgt>
<wgt id='1381'> +2.9352912e+02 </wgt>
<wgt id='1382'> +2.9340105e+02 </wgt>
<wgt id='1383'> +2.9323545e+02 </wgt>
<wgt id='1384'> +2.9345894e+02 </wgt>
<wgt id='1385'> +2.9348376e+02 </wgt>
<wgt id='1386'> +2.9365631e+02 </wgt>
<wgt id='1387'> +2.9344325e+02 </wgt>
<wgt id='1388'> +2.9352135e+02 </wgt>
<wgt id='1389'> +2.9336898e+02 </wgt>
<wgt id='1390'> +2.9347695e+02 </wgt>
<wgt id='1391'> +2.9348381e+02 </wgt>
<wgt id='1392'> +2.9324373e+02 </wgt>
<wgt id='1393'> +2.9340389e+02 </wgt>
<wgt id='1394'> +2.9318236e+02 </wgt>
<wgt id='1395'> +2.9322520e+02 </wgt>
<wgt id='1396'> +2.9343048e+02 </wgt>
<wgt id='1397'> +2.9357030e+02 </wgt>
<wgt id='1398'> +2.9338945e+02 </wgt>
<wgt id='1399'> +2.9354195e+02 </wgt>
<wgt id='1400'> +2.9349929e+02 </wgt>
<wgt id='1401'> +2.9341334e+02 </wgt>
<wgt id='1402'> +2.9334205e+02 </wgt>
<wgt id='1403'> +2.9354086e+02 </wgt>
<wgt id='1404'> +2.9334391e+02 </wgt>
<wgt id='1405'> +2.9328167e+02 </wgt>
<wgt id='1406'> +2.9334234e+02 </wgt>
<wgt id='1407'> +2.9334308e+02 </wgt>
<wgt id='1408'> +2.9344536e+02 </wgt>
<wgt id='1409'> +2.9336650e+02 </wgt>
<wgt id='1410'> +2.9346093e+02 </wgt>
<wgt id='1411'> +2.9348761e+02 </wgt>
<wgt id='1412'> +2.9338925e+02 </wgt>
<wgt id='1413'> +2.9334412e+02 </wgt>
<wgt id='1414'> +2.9343605e+02 </wgt>
<wgt id='1415'> +2.9338987e+02 </wgt>
<wgt id='1416'> +2.9335894e+02 </wgt>
<wgt id='1417'> +2.9337099e+02 </wgt>
<wgt id='1418'> +2.9342763e+02 </wgt>
<wgt id='1419'> +2.9341821e+02 </wgt>
<wgt id='1420'> +2.9343061e+02 </wgt>
<wgt id='1421'> +2.9333622e+02 </wgt>
<wgt id='1422'> +2.9333046e+02 </wgt>
<wgt id='1423'> +2.9336424e+02 </wgt>
<wgt id='1424'> +2.9343631e+02 </wgt>
<wgt id='1425'> +2.9343054e+02 </wgt>
<wgt id='1426'> +2.7569487e+02 </wgt>
<wgt id='1427'> +3.1188311e+02 </wgt>
<wgt id='1428'> +2.8788730e+02 </wgt>
<wgt id='1429'> +2.8801537e+02 </wgt>
<wgt id='1430'> +2.8833607e+02 </wgt>
<wgt id='1431'> +2.8770089e+02 </wgt>
<wgt id='1432'> +2.8742164e+02 </wgt>
<wgt id='1433'> +2.8494952e+02 </wgt>
<wgt id='1434'> +2.8291091e+02 </wgt>
<wgt id='1435'> +2.8543207e+02 </wgt>
<wgt id='1436'> +2.8882181e+02 </wgt>
<wgt id='1437'> +2.8651612e+02 </wgt>
<wgt id='1438'> +2.8784542e+02 </wgt>
<wgt id='1439'> +2.8939313e+02 </wgt>
<wgt id='1440'> +2.8661425e+02 </wgt>
<wgt id='1441'> +2.9187990e+02 </wgt>
<wgt id='1442'> +2.8832201e+02 </wgt>
<wgt id='1443'> +2.8772474e+02 </wgt>
<wgt id='1444'> +2.8792548e+02 </wgt>
<wgt id='1445'> +2.8427417e+02 </wgt>
<wgt id='1446'> +2.9167680e+02 </wgt>
<wgt id='1447'> +2.8902784e+02 </wgt>
<wgt id='1448'> +2.8659943e+02 </wgt>
<wgt id='1449'> +2.8722418e+02 </wgt>
<wgt id='1450'> +2.8829265e+02 </wgt>
<wgt id='1451'> +2.8623992e+02 </wgt>
<wgt id='1452'> +2.8968015e+02 </wgt>
<wgt id='1453'> +2.8905188e+02 </wgt>
<wgt id='1454'> +2.8692610e+02 </wgt>
<wgt id='1455'> +2.8909075e+02 </wgt>
<wgt id='1456'> +2.8580161e+02 </wgt>
<wgt id='1457'> +2.8669931e+02 </wgt>
<wgt id='1458'> +2.8854164e+02 </wgt>
<wgt id='1459'> +2.8635934e+02 </wgt>
<wgt id='1460'> +2.9006755e+02 </wgt>
<wgt id='1461'> +2.8664333e+02 </wgt>
<wgt id='1462'> +2.8904863e+02 </wgt>
<wgt id='1463'> +2.8819919e+02 </wgt>
<wgt id='1464'> +2.8738592e+02 </wgt>
<wgt id='1465'> +2.8197175e+02 </wgt>
<wgt id='1466'> +2.9456105e+02 </wgt>
<wgt id='1467'> +2.9481427e+02 </wgt>
<wgt id='1468'> +2.8423756e+02 </wgt>
<wgt id='1469'> +2.8757713e+02 </wgt>
<wgt id='1470'> +2.8795741e+02 </wgt>
<wgt id='1471'> +2.9099234e+02 </wgt>
<wgt id='1472'> +2.8588023e+02 </wgt>
<wgt id='1473'> +2.8786167e+02 </wgt>
<wgt id='1474'> +2.8318257e+02 </wgt>
<wgt id='1475'> +2.8556155e+02 </wgt>
<wgt id='1476'> +2.8788350e+02 </wgt>
<wgt id='1477'> +2.8786211e+02 </wgt>
<wgt id='1478'> +2.8793600e+02 </wgt>
<wgt id='1479'> +2.8814022e+02 </wgt>
<wgt id='1480'> +2.8743195e+02 </wgt>
<wgt id='1481'> +2.7840411e+02 </wgt>
<wgt id='1482'> +2.8489588e+02 </wgt>
<wgt id='1483'> +2.8532737e+02 </wgt>
<wgt id='1484'> +2.9233308e+02 </wgt>
<wgt id='1485'> +2.7004804e+02 </wgt>
<wgt id='1486'> +3.0657619e+02 </wgt>
<wgt id='1487'> +2.8763076e+02 </wgt>
<wgt id='1488'> +2.8721424e+02 </wgt>
<wgt id='1489'> +2.8818144e+02 </wgt>
<wgt id='1490'> +2.8393237e+02 </wgt>
<wgt id='1491'> +2.8580184e+02 </wgt>
<wgt id='1492'> +2.8798050e+02 </wgt>
<wgt id='1493'> +2.8758804e+02 </wgt>
<wgt id='1494'> +2.8719983e+02 </wgt>
<wgt id='1495'> +2.8609497e+02 </wgt>
<wgt id='1496'> +2.8653860e+02 </wgt>
<wgt id='1497'> +2.8929429e+02 </wgt>
<wgt id='1498'> +2.9225255e+02 </wgt>
<wgt id='1499'> +2.8416292e+02 </wgt>
<wgt id='1500'> +2.8450925e+02 </wgt>
<wgt id='1501'> +2.9000685e+02 </wgt>
<wgt id='1502'> +2.9357751e+02 </wgt>
<wgt id='1503'> +2.8365346e+02 </wgt>
<wgt id='1504'> +2.8230525e+02 </wgt>
<wgt id='1505'> +2.9395607e+02 </wgt>
<wgt id='1506'> +2.8966582e+02 </wgt>
<wgt id='1507'> +2.8534798e+02 </wgt>
<wgt id='1508'> +2.8833264e+02 </wgt>
<wgt id='1509'> +2.8619122e+02 </wgt>
<wgt id='1510'> +2.8754359e+02 </wgt>
<wgt id='1511'> +2.8764000e+02 </wgt>
<wgt id='1512'> +2.9092943e+02 </wgt>
<wgt id='1513'> +2.8433529e+02 </wgt>
<wgt id='1514'> +2.8831132e+02 </wgt>
<wgt id='1515'> +2.8669116e+02 </wgt>
<wgt id='1516'> +2.8766220e+02 </wgt>
<wgt id='1517'> +2.8762961e+02 </wgt>
<wgt id='1518'> +2.8849263e+02 </wgt>
<wgt id='1519'> +2.8651390e+02 </wgt>
<wgt id='1520'> +2.8619751e+02 </wgt>
<wgt id='1521'> +2.9077068e+02 </wgt>
<wgt id='1522'> +2.8446129e+02 </wgt>
<wgt id='1523'> +2.9073770e+02 </wgt>
<wgt id='1524'> +2.8716823e+02 </wgt>
<wgt id='1525'> +2.8814652e+02 </wgt>
<wgt id='1526'> +2.8689521e+02 </wgt>
<wgt id='1527'> +2.8849924e+02 </wgt>
<wgt id='1528'> +2.8687064e+02 </wgt>
<wgt id='1529'> +2.8845829e+02 </wgt>
<wgt id='1530'> +2.8490636e+02 </wgt>
<wgt id='1531'> +2.9140125e+02 </wgt>
<wgt id='1532'> +2.8868596e+02 </wgt>
<wgt id='1533'> +2.8758477e+02 </wgt>
<wgt id='1534'> +2.8678992e+02 </wgt>
<wgt id='1535'> +2.8436328e+02 </wgt>
<wgt id='1536'> +2.8432865e+02 </wgt>
<wgt id='1537'> +2.8648108e+02 </wgt>
<wgt id='1538'> +2.8816675e+02 </wgt>
<wgt id='1539'> +2.8764774e+02 </wgt>
<wgt id='1540'> +2.7714796e+02 </wgt>
<wgt id='1541'> +2.9063971e+02 </wgt>
<wgt id='1542'> +2.8552854e+02 </wgt>
<wgt id='1543'> +2.9122269e+02 </wgt>
<wgt id='1544'> +2.7003809e+02 </wgt>
<wgt id='1545'> +3.0620866e+02 </wgt>
<wgt id='1546'> +2.8394587e+02 </wgt>
<wgt id='1547'> +2.9274835e+02 </wgt>
<wgt id='1548'> +2.9294824e+02 </wgt>
<wgt id='1549'> +2.9252819e+02 </wgt>
<wgt id='1550'> +2.9299363e+02 </wgt>
<wgt id='1551'> +2.9257848e+02 </wgt>
<wgt id='1552'> +2.9426186e+02 </wgt>
<wgt id='1553'> +2.9134533e+02 </wgt>
<wgt id='1554'> +2.9152205e+02 </wgt>
<wgt id='1555'> +2.9412390e+02 </wgt>
<wgt id='1556'> +2.9340647e+02 </wgt>
<wgt id='1557'> +2.9209992e+02 </wgt>
<wgt id='1558'> +2.9319589e+02 </wgt>
<wgt id='1559'> +2.9176670e+02 </wgt>
<wgt id='1560'> +2.9253997e+02 </wgt>
<wgt id='1561'> +2.9310956e+02 </wgt>
<wgt id='1562'> +2.9212224e+02 </wgt>
<wgt id='1563'> +2.9309637e+02 </wgt>
<wgt id='1564'> +2.9119691e+02 </wgt>
<wgt id='1565'> +2.9457568e+02 </wgt>
<wgt id='1566'> +2.9292284e+02 </wgt>
<wgt id='1567'> +2.9259973e+02 </wgt>
<wgt id='1568'> +2.9204396e+02 </wgt>
<wgt id='1569'> +2.9368630e+02 </wgt>
<wgt id='1570'> +2.9062645e+02 </wgt>
<wgt id='1571'> +2.9419713e+02 </wgt>
<wgt id='1572'> +2.9262580e+02 </wgt>
<wgt id='1573'> +2.9269566e+02 </wgt>
<wgt id='1574'> +2.9314586e+02 </wgt>
<wgt id='1575'> +2.9268295e+02 </wgt>
<wgt id='1576'> +2.9229781e+02 </wgt>
<wgt id='1577'> +2.9331859e+02 </wgt>
<wgt id='1578'> +2.9001391e+02 </wgt>
<wgt id='1579'> +2.9579089e+02 </wgt>
<wgt id='1580'> +2.9415573e+02 </wgt>
<wgt id='1581'> +2.9135785e+02 </wgt>
<wgt id='1582'> +2.9316893e+02 </wgt>
<wgt id='1583'> +2.9191764e+02 </wgt>
<wgt id='1584'> +2.9315670e+02 </wgt>
<wgt id='1585'> +2.9262993e+02 </wgt>
<wgt id='1586'> +2.9196752e+02 </wgt>
<wgt id='1587'> +2.9362610e+02 </wgt>
<wgt id='1588'> +2.9062239e+02 </wgt>
<wgt id='1589'> +2.9518586e+02 </wgt>
<wgt id='1590'> +2.9603982e+02 </wgt>
<wgt id='1591'> +2.9118831e+02 </wgt>
<wgt id='1592'> +2.9232496e+02 </wgt>
<wgt id='1593'> +2.9381202e+02 </wgt>
<wgt id='1594'> +2.9460316e+02 </wgt>
<wgt id='1595'> +2.8981232e+02 </wgt>
<wgt id='1596'> +2.9344541e+02 </wgt>
<wgt id='1597'> +2.9236125e+02 </wgt>
<wgt id='1598'> +2.8494766e+02 </wgt>
<wgt id='1599'> +2.8486485e+02 </wgt>
<wgt id='1600'> +2.8505899e+02 </wgt>
<wgt id='1601'> +2.8597683e+02 </wgt>
<wgt id='1602'> +2.8392541e+02 </wgt>
<wgt id='1603'> +2.8573128e+02 </wgt>
<wgt id='1604'> +2.8463289e+02 </wgt>
<wgt id='1605'> +2.8440162e+02 </wgt>
<wgt id='1606'> +2.8549352e+02 </wgt>
<wgt id='1607'> +2.8533369e+02 </wgt>
<wgt id='1608'> +2.8457685e+02 </wgt>
<wgt id='1609'> +2.8327423e+02 </wgt>
<wgt id='1610'> +2.8568036e+02 </wgt>
<wgt id='1611'> +2.8490797e+02 </wgt>
<wgt id='1612'> +2.8499787e+02 </wgt>
<wgt id='1613'> +2.8457211e+02 </wgt>
<wgt id='1614'> +2.8535755e+02 </wgt>
<wgt id='1615'> +2.8451685e+02 </wgt>
<wgt id='1616'> +2.8518079e+02 </wgt>
<wgt id='1617'> +2.8486223e+02 </wgt>
<wgt id='1618'> +2.8506194e+02 </wgt>
<wgt id='1619'> +2.8456894e+02 </wgt>
<wgt id='1620'> +2.8520878e+02 </wgt>
<wgt id='1621'> +2.8763484e+02 </wgt>
<wgt id='1622'> +2.8237672e+02 </wgt>
<wgt id='1623'> +2.8591293e+02 </wgt>
<wgt id='1624'> +2.8254832e+02 </wgt>
<wgt id='1625'> +2.8542928e+02 </wgt>
<wgt id='1626'> +2.8453672e+02 </wgt>
<wgt id='1627'> +2.8542375e+02 </wgt>
<wgt id='1628'> +2.8382625e+02 </wgt>
<wgt id='1629'> +2.8374477e+02 </wgt>
<wgt id='1630'> +2.8744859e+02 </wgt>
<wgt id='1631'> +2.8520839e+02 </wgt>
<wgt id='1632'> +2.8446877e+02 </wgt>
<wgt id='1633'> +2.8350315e+02 </wgt>
<wgt id='1634'> +2.8562017e+02 </wgt>
<wgt id='1635'> +2.8491299e+02 </wgt>
<wgt id='1636'> +2.8500448e+02 </wgt>
<wgt id='1637'> +2.8391051e+02 </wgt>
<wgt id='1638'> +2.8572949e+02 </wgt>
<wgt id='1639'> +2.8533574e+02 </wgt>
<wgt id='1640'> +2.8412904e+02 </wgt>
<wgt id='1641'> +2.8524347e+02 </wgt>
<wgt id='1642'> +2.8325591e+02 </wgt>
<wgt id='1643'> +2.8139248e+02 </wgt>
<wgt id='1644'> +2.8714469e+02 </wgt>
<wgt id='1645'> +2.8627528e+02 </wgt>
<wgt id='1646'> +2.8433157e+02 </wgt>
<wgt id='1647'> +2.8379765e+02 </wgt>
<wgt id='1648'> +2.8543247e+02 </wgt>
<wgt id='1649'> +4.9409843e+02 </wgt>
<wgt id='1650'> +2.8710737e+02 </wgt>
<wgt id='1651'> +2.8700762e+02 </wgt>
<wgt id='1652'> +2.8720296e+02 </wgt>
<wgt id='1653'> +2.8711798e+02 </wgt>
<wgt id='1654'> +2.8709862e+02 </wgt>
<wgt id='1655'> +2.8645880e+02 </wgt>
<wgt id='1656'> +2.8733030e+02 </wgt>
<wgt id='1657'> +2.8749847e+02 </wgt>
<wgt id='1658'> +2.8780495e+02 </wgt>
<wgt id='1659'> +2.8845595e+02 </wgt>
<wgt id='1660'> +2.8682820e+02 </wgt>
<wgt id='1661'> +2.8713999e+02 </wgt>
<wgt id='1662'> +2.8611227e+02 </wgt>
<wgt id='1663'> +2.8644878e+02 </wgt>
<wgt id='1664'> +2.8767497e+02 </wgt>
<wgt id='1665'> +2.8687998e+02 </wgt>
<wgt id='1666'> +2.8741727e+02 </wgt>
<wgt id='1667'> +2.8703541e+02 </wgt>
<wgt id='1668'> +2.8788318e+02 </wgt>
<wgt id='1669'> +2.8716861e+02 </wgt>
<wgt id='1670'> +2.8704038e+02 </wgt>
<wgt id='1671'> +2.8682189e+02 </wgt>
<wgt id='1672'> +2.8692891e+02 </wgt>
<wgt id='1673'> +2.8674306e+02 </wgt>
<wgt id='1674'> +2.8616852e+02 </wgt>
<wgt id='1675'> +2.8690521e+02 </wgt>
<wgt id='1676'> +2.8751156e+02 </wgt>
<wgt id='1677'> +2.8724013e+02 </wgt>
<wgt id='1678'> +2.8733796e+02 </wgt>
<wgt id='1679'> +2.8751994e+02 </wgt>
<wgt id='1680'> +2.9244210e+02 </wgt>
<wgt id='1681'> +2.9040610e+02 </wgt>
<wgt id='1682'> +2.9437729e+02 </wgt>
<wgt id='1683'> +2.9362288e+02 </wgt>
<wgt id='1684'> +2.9101187e+02 </wgt>
<wgt id='1685'> +2.9202902e+02 </wgt>
<wgt id='1686'> +2.9333128e+02 </wgt>
<wgt id='1687'> +2.9093758e+02 </wgt>
<wgt id='1688'> +2.9001439e+02 </wgt>
<wgt id='1689'> +2.9335522e+02 </wgt>
<wgt id='1690'> +2.9528075e+02 </wgt>
<wgt id='1691'> +2.9191594e+02 </wgt>
<wgt id='1692'> +2.9227592e+02 </wgt>
<wgt id='1693'> +2.9247495e+02 </wgt>
<wgt id='1694'> +2.8991790e+02 </wgt>
<wgt id='1695'> +2.9420509e+02 </wgt>
<wgt id='1696'> +2.9186546e+02 </wgt>
<wgt id='1697'> +2.9214642e+02 </wgt>
<wgt id='1698'> +2.8996229e+02 </wgt>
<wgt id='1699'> +2.8928954e+02 </wgt>
<wgt id='1700'> +2.9170314e+02 </wgt>
<wgt id='1701'> +2.9135670e+02 </wgt>
<wgt id='1702'> +2.9361611e+02 </wgt>
<wgt id='1703'> +2.9115845e+02 </wgt>
<wgt id='1704'> +2.9327893e+02 </wgt>
<wgt id='1705'> +2.9280976e+02 </wgt>
<wgt id='1706'> +2.9199617e+02 </wgt>
<wgt id='1707'> +2.9250968e+02 </wgt>
<wgt id='1708'> +2.9192595e+02 </wgt>
<wgt id='1709'> +2.9245003e+02 </wgt>
<wgt id='1710'> +2.9240396e+02 </wgt>
<wgt id='1711'> +2.9238775e+02 </wgt>
<wgt id='1712'> +2.9242808e+02 </wgt>
<wgt id='1713'> +2.9193158e+02 </wgt>
<wgt id='1714'> +2.9256421e+02 </wgt>
<wgt id='1715'> +2.9300243e+02 </wgt>
<wgt id='1716'> +2.9208657e+02 </wgt>
<wgt id='1717'> +2.9247673e+02 </wgt>
<wgt id='1718'> +2.9224006e+02 </wgt>
<wgt id='1719'> +2.9258236e+02 </wgt>
<wgt id='1720'> +2.9255317e+02 </wgt>
<wgt id='1721'> +2.9269037e+02 </wgt>
<wgt id='1722'> +2.9258607e+02 </wgt>
<wgt id='1723'> +2.9224489e+02 </wgt>
<wgt id='1724'> +2.9285541e+02 </wgt>
<wgt id='1725'> +2.9261737e+02 </wgt>
<wgt id='1726'> +2.9276195e+02 </wgt>
<wgt id='1727'> +2.9214751e+02 </wgt>
<wgt id='1728'> +2.9220251e+02 </wgt>
<wgt id='1729'> +2.9259047e+02 </wgt>
<wgt id='1730'> +2.9225170e+02 </wgt>
<wgt id='1731'> +2.9230910e+02 </wgt>
<wgt id='1732'> +2.9231520e+02 </wgt>
<wgt id='1733'> +2.9212593e+02 </wgt>
<wgt id='1734'> +2.9229203e+02 </wgt>
<wgt id='1735'> +2.9245039e+02 </wgt>
<wgt id='1736'> +2.9236269e+02 </wgt>
<wgt id='1737'> +2.9250402e+02 </wgt>
<wgt id='1738'> +2.9276078e+02 </wgt>
<wgt id='1739'> +2.9238457e+02 </wgt>
<wgt id='1740'> +2.9212119e+02 </wgt>
<wgt id='1741'> +2.9256384e+02 </wgt>
<wgt id='1742'> +2.9228057e+02 </wgt>
<wgt id='1743'> +2.9244477e+02 </wgt>
<wgt id='1744'> +2.9234856e+02 </wgt>
<wgt id='1745'> +2.9250048e+02 </wgt>
<wgt id='1746'> +2.9253325e+02 </wgt>
<wgt id='1747'> +2.9244808e+02 </wgt>
<wgt id='1748'> +2.9261830e+02 </wgt>
<wgt id='1749'> +2.9256050e+02 </wgt>
<wgt id='1750'> +2.9236778e+02 </wgt>
<wgt id='1751'> +2.9222666e+02 </wgt>
<wgt id='1752'> +2.9228382e+02 </wgt>
<wgt id='1753'> +2.9229787e+02 </wgt>
<wgt id='1754'> +2.9235839e+02 </wgt>
<wgt id='1755'> +2.9238918e+02 </wgt>
<wgt id='1756'> +2.9242939e+02 </wgt>
<wgt id='1757'> +2.9230885e+02 </wgt>
<wgt id='1758'> +2.9243171e+02 </wgt>
<wgt id='1759'> +2.9262829e+02 </wgt>
<wgt id='1760'> +2.9239360e+02 </wgt>
<wgt id='1761'> +2.9255811e+02 </wgt>
<wgt id='1762'> +2.9228826e+02 </wgt>
<wgt id='1763'> +2.9254849e+02 </wgt>
<wgt id='1764'> +2.9260198e+02 </wgt>
<wgt id='1765'> +2.9253484e+02 </wgt>
<wgt id='1766'> +2.9269925e+02 </wgt>
<wgt id='1767'> +2.9249180e+02 </wgt>
<wgt id='1768'> +2.9243146e+02 </wgt>
<wgt id='1769'> +2.9243134e+02 </wgt>
<wgt id='1770'> +2.9245553e+02 </wgt>
<wgt id='1771'> +2.9232407e+02 </wgt>
<wgt id='1772'> +2.9241438e+02 </wgt>
<wgt id='1773'> +2.9235744e+02 </wgt>
<wgt id='1774'> +2.9241535e+02 </wgt>
<wgt id='1775'> +2.9243309e+02 </wgt>
<wgt id='1776'> +2.9239563e+02 </wgt>
<wgt id='1777'> +2.9250244e+02 </wgt>
<wgt id='1778'> +2.9250860e+02 </wgt>
<wgt id='1779'> +2.9247610e+02 </wgt>
<wgt id='1780'> +2.9244560e+02 </wgt>
<wgt id='1781'> +2.8010127e+02 </wgt>
<wgt id='1782'> +3.0511116e+02 </wgt>
<wgt id='1783'> +2.8702903e+02 </wgt>
<wgt id='1784'> +2.8724668e+02 </wgt>
<wgt id='1785'> +2.8772665e+02 </wgt>
<wgt id='1786'> +2.8569441e+02 </wgt>
<wgt id='1787'> +2.8753010e+02 </wgt>
<wgt id='1788'> +2.8873255e+02 </wgt>
<wgt id='1789'> +2.8738740e+02 </wgt>
<wgt id='1790'> +2.8639396e+02 </wgt>
<wgt id='1791'> +2.8699987e+02 </wgt>
<wgt id='1792'> +2.8715170e+02 </wgt>
<wgt id='1793'> +2.8618813e+02 </wgt>
<wgt id='1794'> +2.8915078e+02 </wgt>
<wgt id='1795'> +2.8711962e+02 </wgt>
<wgt id='1796'> +2.8657978e+02 </wgt>
<wgt id='1797'> +2.8665723e+02 </wgt>
<wgt id='1798'> +2.8543821e+02 </wgt>
<wgt id='1799'> +2.8856594e+02 </wgt>
<wgt id='1800'> +2.8518699e+02 </wgt>
<wgt id='1801'> +2.8802576e+02 </wgt>
<wgt id='1802'> +2.8811852e+02 </wgt>
<wgt id='1803'> +2.9017568e+02 </wgt>
<wgt id='1804'> +2.8653180e+02 </wgt>
<wgt id='1805'> +2.8756637e+02 </wgt>
<wgt id='1806'> +2.8521551e+02 </wgt>
<wgt id='1807'> +2.8585542e+02 </wgt>
<wgt id='1808'> +2.8845235e+02 </wgt>
<wgt id='1809'> +2.8706897e+02 </wgt>
<wgt id='1810'> +2.8667711e+02 </wgt>
<wgt id='1811'> +2.8744815e+02 </wgt>
<wgt id='1812'> +2.8706417e+02 </wgt>
<wgt id='1813'> +2.8696178e+02 </wgt>
<wgt id='1814'> +2.8691265e+02 </wgt>
<wgt id='1815'> +2.8730939e+02 </wgt>
<wgt id='1816'> +2.8742023e+02 </wgt>
<wgt id='1817'> +2.8698147e+02 </wgt>
<wgt id='1818'> +2.8734710e+02 </wgt>
<wgt id='1819'> +2.8708581e+02 </wgt>
<wgt id='1820'> +2.8732124e+02 </wgt>
<wgt id='1821'> +2.8722720e+02 </wgt>
<wgt id='1822'> +2.8713343e+02 </wgt>
<wgt id='1823'> +2.8666054e+02 </wgt>
<wgt id='1824'> +2.8703040e+02 </wgt>
<wgt id='1825'> +2.8722777e+02 </wgt>
<wgt id='1826'> +2.8671995e+02 </wgt>
<wgt id='1827'> +2.8712218e+02 </wgt>
<wgt id='1828'> +2.8719105e+02 </wgt>
<wgt id='1829'> +2.8663260e+02 </wgt>
<wgt id='1830'> +2.8703896e+02 </wgt>
<wgt id='1831'> +2.8723095e+02 </wgt>
<wgt id='1832'> +2.8688215e+02 </wgt>
<wgt id='1833'> +2.8706071e+02 </wgt>
<wgt id='1834'> +2.8719754e+02 </wgt>
<wgt id='1835'> +2.8723608e+02 </wgt>
<wgt id='1836'> +2.8702987e+02 </wgt>
<wgt id='1837'> +2.8683184e+02 </wgt>
<wgt id='1838'> +2.8686848e+02 </wgt>
<wgt id='1839'> +2.8721769e+02 </wgt>
<wgt id='1840'> +2.8701179e+02 </wgt>
<wgt id='1841'> +2.8675873e+02 </wgt>
<wgt id='1842'> +2.8685483e+02 </wgt>
<wgt id='1843'> +2.8691036e+02 </wgt>
<wgt id='1844'> +2.8703863e+02 </wgt>
<wgt id='1845'> +2.8707176e+02 </wgt>
<wgt id='1846'> +2.8710804e+02 </wgt>
<wgt id='1847'> +2.8706193e+02 </wgt>
<wgt id='1848'> +2.8697205e+02 </wgt>
<wgt id='1849'> +2.8698679e+02 </wgt>
<wgt id='1850'> +2.8713153e+02 </wgt>
<wgt id='1851'> +2.8706499e+02 </wgt>
<wgt id='1852'> +2.8725844e+02 </wgt>
<wgt id='1853'> +2.8696800e+02 </wgt>
<wgt id='1854'> +2.8722138e+02 </wgt>
<wgt id='1855'> +2.8722752e+02 </wgt>
<wgt id='1856'> +2.8696540e+02 </wgt>
<wgt id='1857'> +2.8706637e+02 </wgt>
<wgt id='1858'> +2.8698686e+02 </wgt>
<wgt id='1859'> +2.8701425e+02 </wgt>
<wgt id='1860'> +2.8710044e+02 </wgt>
<wgt id='1861'> +2.8705731e+02 </wgt>
<wgt id='1862'> +2.8699894e+02 </wgt>
<wgt id='1863'> +2.8729029e+02 </wgt>
<wgt id='1864'> +2.8704294e+02 </wgt>
<wgt id='1865'> +2.8711795e+02 </wgt>
<wgt id='1866'> +2.8695051e+02 </wgt>
<wgt id='1867'> +2.8692460e+02 </wgt>
<wgt id='1868'> +2.8690098e+02 </wgt>
<wgt id='1869'> +2.8709491e+02 </wgt>
<wgt id='1870'> +2.8676276e+02 </wgt>
<wgt id='1871'> +2.8691344e+02 </wgt>
<wgt id='1872'> +2.8692215e+02 </wgt>
<wgt id='1873'> +2.8706641e+02 </wgt>
<wgt id='1874'> +2.8697460e+02 </wgt>
<wgt id='1875'> +2.8699933e+02 </wgt>
<wgt id='1876'> +2.8695913e+02 </wgt>
<wgt id='1877'> +2.8697056e+02 </wgt>
<wgt id='1878'> +2.8705897e+02 </wgt>
<wgt id='1879'> +2.8697677e+02 </wgt>
<wgt id='1880'> +2.8706222e+02 </wgt>
<wgt id='1881'> +2.8700731e+02 </wgt>
<wgt id='1882'> +2.8695485e+02 </wgt>
<wgt id='1883'> +2.8703217e+02 </wgt>
<wgt id='1884'> +2.7510055e+02 </wgt>
<wgt id='1885'> +2.9927528e+02 </wgt>
<wgt id='1886'> +2.9229262e+02 </wgt>
<wgt id='1887'> +2.9363089e+02 </wgt>
<wgt id='1888'> +2.8997496e+02 </wgt>
<wgt id='1889'> +2.9225941e+02 </wgt>
<wgt id='1890'> +2.8905115e+02 </wgt>
<wgt id='1891'> +2.9449760e+02 </wgt>
<wgt id='1892'> +2.9068568e+02 </wgt>
<wgt id='1893'> +2.9233289e+02 </wgt>
<wgt id='1894'> +2.9272833e+02 </wgt>
<wgt id='1895'> +2.9079292e+02 </wgt>
<wgt id='1896'> +2.9291308e+02 </wgt>
<wgt id='1897'> +2.9035300e+02 </wgt>
<wgt id='1898'> +2.9143533e+02 </wgt>
<wgt id='1899'> +2.9251401e+02 </wgt>
<wgt id='1900'> +2.9219784e+02 </wgt>
<wgt id='1901'> +2.9264409e+02 </wgt>
<wgt id='1902'> +2.9139610e+02 </wgt>
<wgt id='1903'> +2.9342546e+02 </wgt>
<wgt id='1904'> +2.9309061e+02 </wgt>
<wgt id='1905'> +2.9017700e+02 </wgt>
<wgt id='1906'> +2.9140712e+02 </wgt>
<wgt id='1907'> +2.9194940e+02 </wgt>
<wgt id='1908'> +2.9172318e+02 </wgt>
<wgt id='1909'> +2.9263763e+02 </wgt>
<wgt id='1910'> +2.9219986e+02 </wgt>
<wgt id='1911'> +2.9202540e+02 </wgt>
<wgt id='1912'> +2.9360268e+02 </wgt>
<wgt id='1913'> +2.9281898e+02 </wgt>
<wgt id='1914'> +2.9642592e+02 </wgt>
<wgt id='1915'> +2.9248655e+02 </wgt>
<wgt id='1916'> +2.9214263e+02 </wgt>
<wgt id='1917'> +2.8010127e+02 </wgt>
<wgt id='1918'> +3.0511116e+02 </wgt>
<wgt id='1919'> +2.8686398e+02 </wgt>
<wgt id='1920'> +2.8165337e+02 </wgt>
<wgt id='1921'> +2.8698474e+02 </wgt>
<wgt id='1922'> +2.8678616e+02 </wgt>
<wgt id='1923'> +2.8659095e+02 </wgt>
<wgt id='1924'> +2.8607193e+02 </wgt>
<wgt id='1925'> +2.8685770e+02 </wgt>
<wgt id='1926'> +2.8672830e+02 </wgt>
<wgt id='1927'> +2.8675261e+02 </wgt>
<wgt id='1928'> +2.8630517e+02 </wgt>
<wgt id='1929'> +2.8672263e+02 </wgt>
<wgt id='1930'> +2.8602767e+02 </wgt>
<wgt id='1931'> +2.8681074e+02 </wgt>
<wgt id='1932'> +2.8744773e+02 </wgt>
<wgt id='1933'> +2.8637744e+02 </wgt>
<wgt id='1934'> +2.8634683e+02 </wgt>
<wgt id='1935'> +2.8695861e+02 </wgt>
<wgt id='1936'> +2.8801666e+02 </wgt>
<wgt id='1937'> +2.8695162e+02 </wgt>
<wgt id='1938'> +2.8697359e+02 </wgt>
<wgt id='1939'> +2.8701171e+02 </wgt>
<wgt id='1940'> +2.8747876e+02 </wgt>
<wgt id='1941'> +2.8922633e+02 </wgt>
<wgt id='1942'> +2.8681910e+02 </wgt>
<wgt id='1943'> +2.8639429e+02 </wgt>
<wgt id='1944'> +2.8630780e+02 </wgt>
<wgt id='1945'> +2.8682148e+02 </wgt>
<wgt id='1946'> +2.8713598e+02 </wgt>
<wgt id='1947'> +2.8667435e+02 </wgt>
<wgt id='1948'> +2.8543304e+02 </wgt>
<wgt id='1949'> +2.8692037e+02 </wgt>
<wgt id='1950'> +2.7510055e+02 </wgt>
<wgt id='1951'> +2.9927528e+02 </wgt>
<wgt id='1952'> +2.7615436e+02 </wgt>
<wgt id='1953'> +2.7573773e+02 </wgt>
<wgt id='1954'> +2.7656973e+02 </wgt>
<wgt id='1955'> +2.7652832e+02 </wgt>
<wgt id='1956'> +2.7578039e+02 </wgt>
<wgt id='1957'> +2.7658411e+02 </wgt>
<wgt id='1958'> +2.7572612e+02 </wgt>
<wgt id='1959'> +2.7753833e+02 </wgt>
<wgt id='1960'> +2.7480183e+02 </wgt>
<wgt id='1961'> +2.7598670e+02 </wgt>
<wgt id='1962'> +2.7633347e+02 </wgt>
<wgt id='1963'> +2.7431533e+02 </wgt>
<wgt id='1964'> +2.7816071e+02 </wgt>
<wgt id='1965'> +2.7523737e+02 </wgt>
<wgt id='1966'> +2.7708635e+02 </wgt>
<wgt id='1967'> +2.7717685e+02 </wgt>
<wgt id='1968'> +2.7469796e+02 </wgt>
<wgt id='1969'> +2.7744090e+02 </wgt>
<wgt id='1970'> +2.7518469e+02 </wgt>
<wgt id='1971'> +2.7672640e+02 </wgt>
<wgt id='1972'> +2.7542087e+02 </wgt>
<wgt id='1973'> +2.7676729e+02 </wgt>
<wgt id='1974'> +2.7542779e+02 </wgt>
<wgt id='1975'> +2.7337467e+02 </wgt>
<wgt id='1976'> +2.7818393e+02 </wgt>
<wgt id='1977'> +2.7482556e+02 </wgt>
<wgt id='1978'> +2.7771036e+02 </wgt>
<wgt id='1979'> +2.7975809e+02 </wgt>
<wgt id='1980'> +2.7293051e+02 </wgt>
<wgt id='1981'> +2.7615436e+02 </wgt>
<wgt id='1982'> +2.7709655e+02 </wgt>
<wgt id='1983'> +2.7458127e+02 </wgt>
<wgt id='1984'> +2.7709286e+02 </wgt>
<wgt id='1985'> +2.7510729e+02 </wgt>
<wgt id='1986'> +2.7549931e+02 </wgt>
<wgt id='1987'> +2.7840173e+02 </wgt>
<wgt id='1988'> +2.7590055e+02 </wgt>
<wgt id='1989'> +2.7657903e+02 </wgt>
<wgt id='1990'> +2.7760700e+02 </wgt>
<wgt id='1991'> +2.7483140e+02 </wgt>
<wgt id='1992'> +2.7457723e+02 </wgt>
<wgt id='1993'> +2.7602950e+02 </wgt>
<wgt id='1994'> +2.7643398e+02 </wgt>
<wgt id='1995'> +2.8572371e+02 </wgt>
<wgt id='1996'> +2.8537605e+02 </wgt>
<wgt id='1997'> +2.8599530e+02 </wgt>
<wgt id='1998'> +2.8575484e+02 </wgt>
<wgt id='1999'> +2.8561794e+02 </wgt>
<wgt id='2000'> +2.8617857e+02 </wgt>
<wgt id='2001'> +2.8519445e+02 </wgt>
<wgt id='2002'> +2.8751440e+02 </wgt>
<wgt id='2003'> +2.8390686e+02 </wgt>
<wgt id='2004'> +2.8457438e+02 </wgt>
<wgt id='2005'> +2.8683655e+02 </wgt>
<wgt id='2006'> +2.8676903e+02 </wgt>
<wgt id='2007'> +2.8461923e+02 </wgt>
<wgt id='2008'> +2.8512081e+02 </wgt>
<wgt id='2009'> +2.8623149e+02 </wgt>
<wgt id='2010'> +2.8564538e+02 </wgt>
<wgt id='2011'> +2.8509010e+02 </wgt>
<wgt id='2012'> +2.8559366e+02 </wgt>
<wgt id='2013'> +2.8577215e+02 </wgt>
<wgt id='2014'> +2.8556255e+02 </wgt>
<wgt id='2015'> +2.8583585e+02 </wgt>
<wgt id='2016'> +2.8645007e+02 </wgt>
<wgt id='2017'> +2.8476113e+02 </wgt>
<wgt id='2018'> +2.8384264e+02 </wgt>
<wgt id='2019'> +2.8753815e+02 </wgt>
<wgt id='2020'> +2.8177565e+02 </wgt>
<wgt id='2021'> +2.8916084e+02 </wgt>
<wgt id='2022'> +2.8418129e+02 </wgt>
<wgt id='2023'> +2.8746951e+02 </wgt>
<wgt id='2024'> +2.8554220e+02 </wgt>
<wgt id='2025'> +2.8636420e+02 </wgt>
<wgt id='2026'> +2.8298425e+02 </wgt>
<wgt id='2027'> +2.8617877e+02 </wgt>
<wgt id='2028'> +2.8491482e+02 </wgt>
<wgt id='2029'> +2.7984308e+02 </wgt>
<wgt id='2030'> +2.8560162e+02 </wgt>
<wgt id='2031'> +2.8507278e+02 </wgt>
<wgt id='2032'> +2.8675682e+02 </wgt>
<wgt id='2033'> +2.8658353e+02 </wgt>
<wgt id='2034'> +2.7789022e+02 </wgt>
<wgt id='2035'> +2.8528962e+02 </wgt>
<wgt id='2036'> +2.8684727e+02 </wgt>
<wgt id='2037'> +2.8737823e+02 </wgt>
<wgt id='2038'> +2.8696490e+02 </wgt>
<wgt id='2039'> +2.8693125e+02 </wgt>
<wgt id='2040'> +2.8689676e+02 </wgt>
<wgt id='2041'> +2.8686317e+02 </wgt>
<wgt id='2042'> +2.8682916e+02 </wgt>
<wgt id='2043'> +2.8679516e+02 </wgt>
<wgt id='2044'> +2.8676147e+02 </wgt>
<wgt id='2045'> +2.8672769e+02 </wgt>
<wgt id='2046'> +2.8669473e+02 </wgt>
<wgt id='2047'> +2.8666093e+02 </wgt>
<wgt id='2048'> +2.8662698e+02 </wgt>
<wgt id='2049'> +2.8659279e+02 </wgt>
<wgt id='2050'> +2.8655921e+02 </wgt>
<wgt id='2051'> +2.8652521e+02 </wgt>
<wgt id='2052'> +2.8649105e+02 </wgt>
<wgt id='2053'> +2.8645754e+02 </wgt>
<wgt id='2054'> +2.8642354e+02 </wgt>
<wgt id='2055'> +2.8638963e+02 </wgt>
<wgt id='2056'> +2.8635571e+02 </wgt>
<wgt id='2057'> +2.8632185e+02 </wgt>
<wgt id='2058'> +2.8628765e+02 </wgt>
<wgt id='2059'> +2.8625527e+02 </wgt>
<wgt id='2060'> +2.8622137e+02 </wgt>
<wgt id='2061'> +2.8618723e+02 </wgt>
<wgt id='2062'> +2.8615361e+02 </wgt>
<wgt id='2063'> +2.8611951e+02 </wgt>
<wgt id='2064'> +2.8608585e+02 </wgt>
<wgt id='2065'> +2.8605161e+02 </wgt>
<wgt id='2066'> +2.8601823e+02 </wgt>
<wgt id='2067'> +2.8598372e+02 </wgt>
<wgt id='2068'> +2.8595024e+02 </wgt>
<wgt id='2069'> +2.8381112e+02 </wgt>
<wgt id='2070'> +2.8404681e+02 </wgt>
<wgt id='2071'> +2.8447957e+02 </wgt>
<wgt id='2072'> +2.8252368e+02 </wgt>
<wgt id='2073'> +2.8432238e+02 </wgt>
<wgt id='2074'> +2.8551386e+02 </wgt>
<wgt id='2075'> +2.8416498e+02 </wgt>
<wgt id='2076'> +2.8315128e+02 </wgt>
<wgt id='2077'> +2.8377431e+02 </wgt>
<wgt id='2078'> +2.8394576e+02 </wgt>
<wgt id='2079'> +2.8300265e+02 </wgt>
<wgt id='2080'> +2.8589397e+02 </wgt>
<wgt id='2081'> +2.8389336e+02 </wgt>
<wgt id='2082'> +2.8338135e+02 </wgt>
<wgt id='2083'> +2.8341286e+02 </wgt>
<wgt id='2084'> +2.8221808e+02 </wgt>
<wgt id='2085'> +2.8531886e+02 </wgt>
<wgt id='2086'> +2.8200329e+02 </wgt>
<wgt id='2087'> +2.8479987e+02 </wgt>
<wgt id='2088'> +2.8488194e+02 </wgt>
<wgt id='2089'> +2.8692067e+02 </wgt>
<wgt id='2090'> +2.8329358e+02 </wgt>
<wgt id='2091'> +2.8436307e+02 </wgt>
<wgt id='2092'> +2.8199313e+02 </wgt>
<wgt id='2093'> +2.8264309e+02 </wgt>
<wgt id='2094'> +2.8522683e+02 </wgt>
<wgt id='2095'> +2.8385458e+02 </wgt>
<wgt id='2096'> +2.8345495e+02 </wgt>
<wgt id='2097'> +2.8422863e+02 </wgt>
<wgt id='2098'> +2.8385691e+02 </wgt>
<wgt id='2099'> +2.8375844e+02 </wgt>
<wgt id='2100'> +2.8368947e+02 </wgt>
<wgt id='2101'> +2.8409276e+02 </wgt>
<wgt id='2102'> +2.8420934e+02 </wgt>
<wgt id='2103'> +2.8376321e+02 </wgt>
<wgt id='2104'> +2.8413583e+02 </wgt>
<wgt id='2105'> +2.8386504e+02 </wgt>
<wgt id='2106'> +2.8410841e+02 </wgt>
<wgt id='2107'> +2.8400874e+02 </wgt>
<wgt id='2108'> +2.8391822e+02 </wgt>
<wgt id='2109'> +2.8344551e+02 </wgt>
<wgt id='2110'> +2.8380317e+02 </wgt>
<wgt id='2111'> +2.8399834e+02 </wgt>
<wgt id='2112'> +2.8350630e+02 </wgt>
<wgt id='2113'> +2.8390741e+02 </wgt>
<wgt id='2114'> +2.8396173e+02 </wgt>
<wgt id='2115'> +2.8341487e+02 </wgt>
<wgt id='2116'> +2.8381368e+02 </wgt>
<wgt id='2117'> +2.8400756e+02 </wgt>
<wgt id='2118'> +2.8365930e+02 </wgt>
<wgt id='2119'> +2.8384488e+02 </wgt>
<wgt id='2120'> +2.8398191e+02 </wgt>
<wgt id='2121'> +2.8401420e+02 </wgt>
<wgt id='2122'> +2.8382054e+02 </wgt>
<wgt id='2123'> +2.8361640e+02 </wgt>
<wgt id='2124'> +2.8365105e+02 </wgt>
<wgt id='2125'> +2.8400255e+02 </wgt>
<wgt id='2126'> +2.8379040e+02 </wgt>
<wgt id='2127'> +2.8354630e+02 </wgt>
<wgt id='2128'> +2.8363823e+02 </wgt>
<wgt id='2129'> +2.8369213e+02 </wgt>
<wgt id='2130'> +2.8382116e+02 </wgt>
<wgt id='2131'> +2.8385276e+02 </wgt>
<wgt id='2132'> +2.8389587e+02 </wgt>
<wgt id='2133'> +2.8383730e+02 </wgt>
<wgt id='2134'> +2.8375688e+02 </wgt>
<wgt id='2135'> +2.8377262e+02 </wgt>
<wgt id='2136'> +2.8391245e+02 </wgt>
<wgt id='2137'> +2.8384700e+02 </wgt>
<wgt id='2138'> +2.8404009e+02 </wgt>
<wgt id='2139'> +2.8374965e+02 </wgt>
<wgt id='2140'> +2.8400520e+02 </wgt>
<wgt id='2141'> +2.8401155e+02 </wgt>
<wgt id='2142'> +2.8374483e+02 </wgt>
<wgt id='2143'> +2.8384886e+02 </wgt>
<wgt id='2144'> +2.8376825e+02 </wgt>
<wgt id='2145'> +2.8379797e+02 </wgt>
<wgt id='2146'> +2.8388316e+02 </wgt>
<wgt id='2147'> +2.8384448e+02 </wgt>
<wgt id='2148'> +2.8378001e+02 </wgt>
<wgt id='2149'> +2.8406809e+02 </wgt>
<wgt id='2150'> +2.8382350e+02 </wgt>
<wgt id='2151'> +2.8389894e+02 </wgt>
<wgt id='2152'> +2.8373114e+02 </wgt>
<wgt id='2153'> +2.8370701e+02 </wgt>
<wgt id='2154'> +2.8368645e+02 </wgt>
<wgt id='2155'> +2.8387668e+02 </wgt>
<wgt id='2156'> +2.8354795e+02 </wgt>
<wgt id='2157'> +2.8369757e+02 </wgt>
<wgt id='2158'> +2.8370638e+02 </wgt>
<wgt id='2159'> +2.8384953e+02 </wgt>
<wgt id='2160'> +2.8375892e+02 </wgt>
<wgt id='2161'> +2.8378379e+02 </wgt>
<wgt id='2162'> +2.8374090e+02 </wgt>
<wgt id='2163'> +2.8375573e+02 </wgt>
<wgt id='2164'> +2.8384277e+02 </wgt>
<wgt id='2165'> +2.8375705e+02 </wgt>
<wgt id='2166'> +2.8384175e+02 </wgt>
<wgt id='2167'> +2.8379248e+02 </wgt>
<wgt id='2168'> +2.8373637e+02 </wgt>
<wgt id='2169'> +2.8381426e+02 </wgt>
<wgt id='2170'> +2.8380763e+02 </wgt>
<wgt id='2171'> +2.8378805e+02 </wgt>
<wgt id='2172'> +2.8381480e+02 </wgt>
<wgt id='2173'> +2.8381538e+02 </wgt>
<wgt id='2174'> +2.8382181e+02 </wgt>
<wgt id='2175'> +2.8381268e+02 </wgt>
<wgt id='2176'> +2.8379572e+02 </wgt>
<wgt id='2177'> +2.9787838e+02 </wgt>
<wgt id='2178'> +2.8867070e+02 </wgt>
<wgt id='2179'> +3.0267861e+02 </wgt>
<wgt id='2180'> +3.0448075e+02 </wgt>
<wgt id='2181'> +2.8810555e+02 </wgt>
<wgt id='2182'> +2.8227910e+02 </wgt>
<wgt id='2183'> +2.9709572e+02 </wgt>
<wgt id='2184'> +2.9966070e+02 </wgt>
<wgt id='2185'> +2.9665638e+02 </wgt>
<wgt id='2186'> +3.0146011e+02 </wgt>
<wgt id='2187'> +2.9726492e+02 </wgt>
<wgt id='2188'> +2.8834157e+02 </wgt>
<wgt id='2189'> +3.0054692e+02 </wgt>
<wgt id='2190'> +2.9166677e+02 </wgt>
<wgt id='2191'> +2.9900694e+02 </wgt>
<wgt id='2192'> +3.0146421e+02 </wgt>
<wgt id='2193'> +3.0521497e+02 </wgt>
<wgt id='2194'> +3.0083571e+02 </wgt>
<wgt id='2195'> +3.0180710e+02 </wgt>
<wgt id='2196'> +2.9771599e+02 </wgt>
<wgt id='2197'> +3.0923787e+02 </wgt>
<wgt id='2198'> +2.9617421e+02 </wgt>
<wgt id='2199'> +2.9617683e+02 </wgt>
<wgt id='2200'> +3.0816405e+02 </wgt>
<wgt id='2201'> +2.9602491e+02 </wgt>
<wgt id='2202'> +2.9712629e+02 </wgt>
<wgt id='2203'> +2.9314423e+02 </wgt>
<wgt id='2204'> +3.0268933e+02 </wgt>
<wgt id='2205'> +2.9712755e+02 </wgt>
<wgt id='2206'> +3.0339937e+02 </wgt>
<wgt id='2207'> +3.0514901e+02 </wgt>
<wgt id='2208'> +2.9302776e+02 </wgt>
<wgt id='2209'> +2.9054164e+02 </wgt>
<wgt id='2210'> +2.9678586e+02 </wgt>
<wgt id='2211'> +2.9638000e+02 </wgt>
<wgt id='2212'> +3.0852224e+02 </wgt>
<wgt id='2213'> +2.9941442e+02 </wgt>
<wgt id='2214'> +3.0194799e+02 </wgt>
<wgt id='2215'> +2.9450554e+02 </wgt>
<wgt id='2216'> +2.9113200e+02 </wgt>
<wgt id='2217'> +2.9514720e+02 </wgt>
<wgt id='2218'> +2.9543707e+02 </wgt>
<wgt id='2219'> +2.9786157e+02 </wgt>
<wgt id='2220'> +2.9434131e+02 </wgt>
<wgt id='2221'> +2.9890604e+02 </wgt>
<wgt id='2222'> +3.0411524e+02 </wgt>
<wgt id='2223'> +2.9915431e+02 </wgt>
<wgt id='2224'> +2.9462324e+02 </wgt>
<wgt id='2225'> +2.9519565e+02 </wgt>
<wgt id='2226'> +3.0215679e+02 </wgt>
<wgt id='2227'> +2.9632796e+02 </wgt>
<wgt id='2228'> +2.9567660e+02 </wgt>
<wgt id='2229'> +2.9800458e+02 </wgt>
<wgt id='2230'> +3.0283208e+02 </wgt>
<wgt id='2231'> +2.8878424e+02 </wgt>
<wgt id='2232'> +2.9475123e+02 </wgt>
<wgt id='2233'> +2.9744627e+02 </wgt>
<wgt id='2234'> +3.0067231e+02 </wgt>
<wgt id='2235'> +2.9445609e+02 </wgt>
<wgt id='2236'> +3.0765663e+02 </wgt>
<wgt id='2237'> +2.9614317e+02 </wgt>
<wgt id='2238'> +2.9904252e+02 </wgt>
<wgt id='2239'> +3.0422937e+02 </wgt>
<wgt id='2240'> +2.9309760e+02 </wgt>
<wgt id='2241'> +3.0106058e+02 </wgt>
<wgt id='2242'> +2.9736529e+02 </wgt>
<wgt id='2243'> +2.9694191e+02 </wgt>
<wgt id='2244'> +3.1247602e+02 </wgt>
<wgt id='2245'> +2.9601211e+02 </wgt>
<wgt id='2246'> +2.8946483e+02 </wgt>
<wgt id='2247'> +2.9238855e+02 </wgt>
<wgt id='2248'> +2.9803296e+02 </wgt>
<wgt id='2249'> +2.9613545e+02 </wgt>
<wgt id='2250'> +2.8699388e+02 </wgt>
<wgt id='2251'> +3.0134553e+02 </wgt>
<wgt id='2252'> +2.9633947e+02 </wgt>
<wgt id='2253'> +2.8831897e+02 </wgt>
<wgt id='2254'> +2.9308242e+02 </wgt>
<wgt id='2255'> +3.0044959e+02 </wgt>
<wgt id='2256'> +2.9634881e+02 </wgt>
<wgt id='2257'> +2.9493566e+02 </wgt>
<wgt id='2258'> +2.9844699e+02 </wgt>
<wgt id='2259'> +2.9159588e+02 </wgt>
<wgt id='2260'> +3.0451538e+02 </wgt>
<wgt id='2261'> +2.9854557e+02 </wgt>
<wgt id='2262'> +2.9668769e+02 </wgt>
<wgt id='2263'> +2.9653327e+02 </wgt>
<wgt id='2264'> +3.0183572e+02 </wgt>
<wgt id='2265'> +2.9843024e+02 </wgt>
<wgt id='2266'> +3.0374373e+02 </wgt>
<wgt id='2267'> +2.9417326e+02 </wgt>
<wgt id='2268'> +2.8985671e+02 </wgt>
<wgt id='2269'> +2.9878914e+02 </wgt>
<wgt id='2270'> +2.9962065e+02 </wgt>
<wgt id='2271'> +3.0790330e+02 </wgt>
<wgt id='2272'> +2.9966050e+02 </wgt>
<wgt id='2273'> +2.9901984e+02 </wgt>
<wgt id='2274'> +2.9935657e+02 </wgt>
<wgt id='2275'> +3.0113494e+02 </wgt>
<wgt id='2276'> +3.0166821e+02 </wgt>
<wgt id='2277'> +2.9939485e+02 </wgt>
<wgt id='2278'> +2.8843039e+02 </wgt>
<wgt id='2279'> +3.0456172e+02 </wgt>
<wgt id='2280'> +2.8917492e+02 </wgt>
<wgt id='2281'> +3.0183280e+02 </wgt>
<wgt id='2282'> +4.3193101e+02 </wgt>
<wgt id='2283'> +3.2124350e+02 </wgt>
<wgt id='2284'> +4.1722068e+02 </wgt>
</rwgt>
</event>
<event npLO=" -1 " npNLO=" 1 ">
 5      1 +2.8781417e+02 2.96800770e+01 7.54677110e-03 1.23164050e-01
       21 -1    0    0  503  504 +0.0000000000e+00 +0.0000000000e+00 +2.8680059000e+02 2.8680059000e+02 0.0000000000e+00 0.0000e+00 9.0000e+00
       21 -1    0    0  501  502 +0.0000000000e+00 +0.0000000000e+00 -6.2788793000e+02 6.2788793000e+02 0.0000000000e+00 0.0000e+00 9.0000e+00
       25  1    1    2    0    0 -2.8181742000e+01 -1.1008299000e+01 -6.2228154000e+02 6.3099105000e+02 1.0000000000e+02 0.0000e+00 9.0000e+00
       21  1    1    2  503  502 +4.4482043000e-01 -9.5630464000e-01 +1.8677792000e-01 1.0711068000e+00 0.0000000000e+00 0.0000e+00 9.0000e+00
       21  1    1    2  501  504 +2.7736922000e+01 +1.1964603000e+01 +2.8100742000e+02 2.8262636000e+02 0.0000000000e+00 0.0000e+00 9.0000e+00
#aMCatNLO 2  0  0  1  4 0.57285871E+01 0.00000000E+00 -9  5  0 0.00000000E+00 0.00000000E+00 0.00000000E+00 0.00000000E+00 0.00000000E+00
<rwgt>
<wgt id='1001'> +2.8781417e+02 </wgt>
<wgt id='1002'> +1.9009378e+02 </wgt>
<wgt id='1003'> +4.5847888e+02 </wgt>
<wgt id='1004'> +2.5710977e+02 </wgt>
<wgt id='1005'> +1.6981432e+02 </wgt>
<wgt id='1006'> +4.0956774e+02 </wgt>
<wgt id='1007'> +3.2364988e+02 </wgt>
<wgt id='1008'> +2.1376233e+02 </wgt>
<wgt id='1009'> +5.1556404e+02 </wgt>
<wgt id='1010'> +2.8781417e+02 </wgt>
<wgt id='1011'> +2.8739920e+02 </wgt>
<wgt id='1012'> +2.8710283e+02 </wgt>
<wgt id='1013'> +2.8810918e+02 </wgt>
<wgt id='1014'> +2.8827388e+02 </wgt>
<wgt id='1015'> +2.8745836e+02 </wgt>
<wgt id='1016'> +2.8836538e+02 </wgt>
<wgt id='1017'> +2.8738357e+02 </wgt>
<wgt id='1018'> +2.8791693e+02 </wgt>
<wgt id='1019'> +2.8771008e+02 </wgt>
<wgt id='1020'> +2.8770414e+02 </wgt>
<wgt id='1021'> +2.8826042e+02 </wgt>
<wgt id='1022'> +2.8777673e+02 </wgt>
<wgt id='1023'> +2.8874400e+02 </wgt>
<wgt id='1024'> +2.8896646e+02 </wgt>
<wgt id='1025'> +2.8842487e+02 </wgt>
<wgt id='1026'> +2.8868803e+02 </wgt>
<wgt id='1027'> +2.8895543e+02 </wgt>
<wgt id='1028'> +2.8683773e+02 </wgt>
<wgt id='1029'> +2.8652317e+02 </wgt>
<wgt id='1030'> +2.8796210e+02 </wgt>
<wgt id='1031'> +2.8687171e+02 </wgt>
<wgt id='1032'> +2.8760890e+02 </wgt>
<wgt id='1033'> +2.8863382e+02 </wgt>
<wgt id='1034'> +2.8695017e+02 </wgt>
<wgt id='1035'> +2.8779249e+02 </wgt>
<wgt id='1036'> +2.8697598e+02 </wgt>
<wgt id='1037'> +2.8667787e+02 </wgt>
<wgt id='1038'> +2.8865981e+02 </wgt>
<wgt id='1039'> +2.8643861e+02 </wgt>
<wgt id='1040'> +2.8799485e+02 </wgt>
<wgt id='1041'> +2.8623062e+02 </wgt>
<wgt id='1042'> +2.8780644e+02 </wgt>
<wgt id='1043'> +2.8733772e+02 </wgt>
<wgt id='1044'> +2.8690371e+02 </wgt>
<wgt id='1045'> +2.8786826e+02 </wgt>
<wgt id='1046'> +2.8866430e+02 </wgt>
<wgt id='1047'> +2.8774765e+02 </wgt>
<wgt id='1048'> +2.8738445e+02 </wgt>
<wgt id='1049'> +2.8762508e+02 </wgt>
<wgt id='1050'> +2.8765084e+02 </wgt>
<wgt id='1051'> +2.8753188e+02 </wgt>
<wgt id='1052'> +2.8823818e+02 </wgt>
<wgt id='1053'> +2.8745777e+02 </wgt>
<wgt id='1054'> +2.8825912e+02 </wgt>
<wgt id='1055'> +2.8780939e+02 </wgt>
<wgt id='1056'> +2.8782659e+02 </wgt>
<wgt id='1057'> +2.8778458e+02 </wgt>
<wgt id='1058'> +2.8776473e+02 </wgt>
<wgt id='1059'> +2.8751750e+02 </wgt>
<wgt id='1060'> +2.8761802e+02 </wgt>
<wgt id='1061'> +2.8772631e+02 </wgt>
<wgt id='1062'> +2.8819565e+02 </wgt>
<wgt id='1063'> +2.8779256e+02 </wgt>
<wgt id='1064'> +2.8780053e+02 </wgt>
<wgt id='1065'> +2.8782038e+02 </wgt>
<wgt id='1066'> +2.8750274e+02 </wgt>
<wgt id='1067'> +2.8796193e+02 </wgt>
<wgt id='1068'> +2.8797340e+02 </wgt>
<wgt id='1069'> +2.8778303e+02 </wgt>
<wgt id='1070'> +2.8783606e+02 </wgt>
<wgt id='1071'> +2.8771500e+02 </wgt>
<wgt id='1072'> +2.8810518e+02 </wgt>
<wgt id='1073'> +2.8787046e+02 </wgt>
<wgt id='1074'> +2.8784577e+02 </wgt>
<wgt id='1075'> +2.8818118e+02 </wgt>
<wgt id='1076'> +2.8770756e+02 </wgt>
<wgt id='1077'> +2.8787915e+02 </wgt>
<wgt id='1078'> +2.8784606e+02 </wgt>
<wgt id='1079'> +2.8784011e+02 </wgt>
<wgt id='1080'> +2.8785030e+02 </wgt>
<wgt id='1081'> +2.8775726e+02 </wgt>
<wgt id='1082'> +2.8780987e+02 </wgt>
<wgt id='1083'> +2.8786194e+02 </wgt>
<wgt id='1084'> +2.8776664e+02 </wgt>
<wgt id='1085'> +2.8775199e+02 </wgt>
<wgt id='1086'> +2.8774585e+02 </wgt>
<wgt id='1087'> +2.8799558e+02 </wgt>
<wgt id='1088'> +2.8789129e+02 </wgt>
<wgt id='1089'> +2.8773899e+02 </wgt>
<wgt id='1090'> +2.8786475e+02 </wgt>
<wgt id='1091'> +2.8778278e+02 </wgt>
<wgt id='1092'> +2.8785691e+02 </wgt>
<wgt id='1093'> +2.8797188e+02 </wgt>
<wgt id='1094'> +2.8783951e+02 </wgt>
<wgt id='1095'> +2.8783649e+02 </wgt>
<wgt id='1096'> +2.8774004e+02 </wgt>
<wgt id='1097'> +2.8787492e+02 </wgt>
<wgt id='1098'> +2.8778415e+02 </wgt>
<wgt id='1099'> +2.8774867e+02 </wgt>
<wgt id='1100'> +2.8788091e+02 </wgt>
<wgt id='1101'> +2.8779707e+02 </wgt>
<wgt id='1102'> +2.8790463e+02 </wgt>
<wgt id='1103'> +2.8774710e+02 </wgt>
<wgt id='1104'> +2.8785266e+02 </wgt>
<wgt id='1105'> +2.8790699e+02 </wgt>
<wgt id='1106'> +2.8777289e+02 </wgt>
<wgt id='1107'> +2.8787564e+02 </wgt>
<wgt id='1108'> +2.8778984e+02 </wgt>
<wgt id='1109'> +2.8787548e+02 </wgt>
<wgt id='1110'> +2.8781417e+02 </wgt>
<wgt id='1111'> +2.7022253e+02 </wgt>
<wgt id='1112'> +3.0815893e+02 </wgt>
<wgt id='1113'> +2.8781417e+02 </wgt>
<wgt id='1114'> +2.8913974e+02 </wgt>
<wgt id='1115'> +2.8358595e+02 </wgt>
<wgt id='1116'> +2.8805873e+02 </wgt>
<wgt id='1117'> +2.9228067e+02 </wgt>
<wgt id='1118'> +2.8849744e+02 </wgt>
<wgt id='1119'> +2.9967035e+02 </wgt>
<wgt id='1120'> +2.8544834e+02 </wgt>
<wgt id='1121'> +2.8480590e+02 </wgt>
<wgt id='1122'> +2.8652507e+02 </wgt>
<wgt id='1123'> +2.9496195e+02 </wgt>
<wgt id='1124'> +2.9002348e+02 </wgt>
<wgt id='1125'> +2.9321909e+02 </wgt>
<wgt id='1126'> +2.8141843e+02 </wgt>
<wgt id='1127'> +2.8845158e+02 </wgt>
<wgt id='1128'> +2.7975992e+02 </wgt>
<wgt id='1129'> +2.8864180e+02 </wgt>
<wgt id='1130'> +2.9365000e+02 </wgt>
<wgt id='1131'> +2.8877234e+02 </wgt>
<wgt id='1132'> +2.7886317e+02 </wgt>
<wgt id='1133'> +2.8153299e+02 </wgt>
<wgt id='1134'> +2.7925834e+02 </wgt>
<wgt id='1135'> +2.7688880e+02 </wgt>
<wgt id='1136'> +2.8066761e+02 </wgt>
<wgt id='1137'> +2.8753404e+02 </wgt>
<wgt id='1138'> +2.8337889e+02 </wgt>
<wgt id='1139'> +2.8211175e+02 </wgt>
<wgt id='1140'> +2.8036001e+02 </wgt>
<wgt id='1141'> +2.9047587e+02 </wgt>
<wgt id='1142'> +2.9129130e+02 </wgt>
<wgt id='1143'> +2.9121346e+02 </wgt>
<wgt id='1144'> +2.8781707e+02 </wgt>
<wgt id='1145'> +2.9147621e+02 </wgt>
<wgt id='1146'> +2.8484276e+02 </wgt>
<wgt id='1147'> +2.9626812e+02 </wgt>
<wgt id='1148'> +2.8135875e+02 </wgt>
<wgt id='1149'> +2.8506541e+02 </wgt>
<wgt id='1150'> +2.8159415e+02 </wgt>
<wgt id='1151'> +2.8799518e+02 </wgt>
<wgt id='1152'> +2.8406894e+02 </wgt>
<wgt id='1153'> +2.8982958e+02 </wgt>
<wgt id='1154'> +2.8868045e+02 </wgt>
<wgt id='1155'> +2.9501207e+02 </wgt>
<wgt id='1156'> +2.9098470e+02 </wgt>
<wgt id='1157'> +2.9346725e+02 </wgt>
<wgt id='1158'> +2.8943224e+02 </wgt>
<wgt id='1159'> +2.9031739e+02 </wgt>
<wgt id='1160'> +2.8987109e+02 </wgt>
<wgt id='1161'> +2.8875894e+02 </wgt>
<wgt id='1162'> +2.8198372e+02 </wgt>
<wgt id='1163'> +2.8750986e+02 </wgt>
<wgt id='1164'> +2.8737750e+02 </wgt>
<wgt id='1165'> +2.8199621e+02 </wgt>
<wgt id='1166'> +2.8660660e+02 </wgt>
<wgt id='1167'> +2.8600122e+02 </wgt>
<wgt id='1168'> +2.8723843e+02 </wgt>
<wgt id='1169'> +2.8824386e+02 </wgt>
<wgt id='1170'> +2.8352745e+02 </wgt>
<wgt id='1171'> +2.8537717e+02 </wgt>
<wgt id='1172'> +2.8700553e+02 </wgt>
<wgt id='1173'> +2.8644251e+02 </wgt>
<wgt id='1174'> +2.8736321e+02 </wgt>
<wgt id='1175'> +2.8743449e+02 </wgt>
<wgt id='1176'> +2.8215611e+02 </wgt>
<wgt id='1177'> +2.9124131e+02 </wgt>
<wgt id='1178'> +2.8351638e+02 </wgt>
<wgt id='1179'> +2.9332981e+02 </wgt>
<wgt id='1180'> +2.8506304e+02 </wgt>
<wgt id='1181'> +2.8641756e+02 </wgt>
<wgt id='1182'> +2.8935980e+02 </wgt>
<wgt id='1183'> +2.8919249e+02 </wgt>
<wgt id='1184'> +2.8573605e+02 </wgt>
<wgt id='1185'> +2.7818847e+02 </wgt>
<wgt id='1186'> +2.9001187e+02 </wgt>
<wgt id='1187'> +2.8410653e+02 </wgt>
<wgt id='1188'> +2.9266904e+02 </wgt>
<wgt id='1189'> +2.9202084e+02 </wgt>
<wgt id='1190'> +2.8873193e+02 </wgt>
<wgt id='1191'> +2.8272188e+02 </wgt>
<wgt id='1192'> +2.8506711e+02 </wgt>
<wgt id='1193'> +2.9612491e+02 </wgt>
<wgt id='1194'> +2.8840395e+02 </wgt>
<wgt id='1195'> +2.8864180e+02 </wgt>
<wgt id='1196'> +2.9144884e+02 </wgt>
<wgt id='1197'> +2.8616676e+02 </wgt>
<wgt id='1198'> +2.8781997e+02 </wgt>
<wgt id='1199'> +2.9325413e+02 </wgt>
<wgt id='1200'> +2.8748547e+02 </wgt>
<wgt id='1201'> +2.9722762e+02 </wgt>
<wgt id='1202'> +2.9967413e+02 </wgt>
<wgt id='1203'> +2.9617811e+02 </wgt>
<wgt id='1204'> +2.8875341e+02 </wgt>
<wgt id='1205'> +2.9016033e+02 </wgt>
<wgt id='1206'> +2.8793944e+02 </wgt>
<wgt id='1207'> +2.9111115e+02 </wgt>
<wgt id='1208'> +2.9201597e+02 </wgt>
<wgt id='1209'> +2.8432644e+02 </wgt>
<wgt id='1210'> +2.9355615e+02 </wgt>
<wgt id='1211'> +2.9210481e+02 </wgt>
<wgt id='1212'> +2.8298018e+02 </wgt>
<wgt id='1213'> +2.8447653e+02 </wgt>
<wgt id='1214'> +2.8846742e+02 </wgt>
<wgt id='1215'> +2.8824156e+02 </wgt>
<wgt id='1216'> +2.8850313e+02 </wgt>
<wgt id='1217'> +2.8828207e+02 </wgt>
<wgt id='1218'> +2.8938497e+02 </wgt>
<wgt id='1219'> +2.8846297e+02 </wgt>
<wgt id='1220'> +2.8778070e+02 </wgt>
<wgt id='1221'> +2.8839220e+02 </wgt>
<wgt id='1222'> +2.8786530e+02 </wgt>
<wgt id='1223'> +2.8880218e+02 </wgt>
<wgt id='1224'> +2.8837110e+02 </wgt>
<wgt id='1225'> +2.8714662e+02 </wgt>
<wgt id='1226'> +2.8774220e+02 </wgt>
<wgt id='1227'> +2.8689362e+02 </wgt>
<wgt id='1228'> +2.8810543e+02 </wgt>
<wgt id='1229'> +2.8829886e+02 </wgt>
<wgt id='1230'> +2.8899892e+02 </wgt>
<wgt id='1231'> +2.8821003e+02 </wgt>
<wgt id='1232'> +2.8778008e+02 </wgt>
<wgt id='1233'> +2.8866692e+02 </wgt>
<wgt id='1234'> +2.8805213e+02 </wgt>
<wgt id='1235'> +2.8873625e+02 </wgt>
<wgt id='1236'> +2.8800593e+02 </wgt>
<wgt id='1237'> +2.8889392e+02 </wgt>
<wgt id='1238'> +2.8754861e+02 </wgt>
<wgt id='1239'> +2.8855926e+02 </wgt>
<wgt id='1240'> +2.8938795e+02 </wgt>
<wgt id='1241'> +2.8770577e+02 </wgt>
<wgt id='1242'> +2.8757473e+02 </wgt>
<wgt id='1243'> +2.9099980e+02 </wgt>
<wgt id='1244'> +2.8854366e+02 </wgt>
<wgt id='1245'> +2.8891014e+02 </wgt>
<wgt id='1246'> +2.8850528e+02 </wgt>
<wgt id='1247'> +2.8872021e+02 </wgt>
<wgt id='1248'> +2.8938384e+02 </wgt>
<wgt id='1249'> +2.8807581e+02 </wgt>
<wgt id='1250'> +2.8824344e+02 </wgt>
<wgt id='1251'> +2.8932588e+02 </wgt>
<wgt id='1252'> +2.8832701e+02 </wgt>
<wgt id='1253'> +2.8791801e+02 </wgt>
<wgt id='1254'> +2.8817751e+02 </wgt>
<wgt id='1255'> +2.8792946e+02 </wgt>
<wgt id='1256'> +2.8769246e+02 </wgt>
<wgt id='1257'> +2.8886929e+02 </wgt>
<wgt id='1258'> +2.8912670e+02 </wgt>
<wgt id='1259'> +2.8821165e+02 </wgt>
<wgt id='1260'> +2.8921000e+02 </wgt>
<wgt id='1261'> +2.8915876e+02 </wgt>
<wgt id='1262'> +2.8825743e+02 </wgt>
<wgt id='1263'> +2.8842700e+02 </wgt>
<wgt id='1264'> +2.8894732e+02 </wgt>
<wgt id='1265'> +2.8889070e+02 </wgt>
<wgt id='1266'> +2.8811986e+02 </wgt>
<wgt id='1267'> +2.8838778e+02 </wgt>
<wgt id='1268'> +2.8862163e+02 </wgt>
<wgt id='1269'> +2.8866383e+02 </wgt>
<wgt id='1270'> +2.8848301e+02 </wgt>
<wgt id='1271'> +2.8833229e+02 </wgt>
<wgt id='1272'> +2.8861194e+02 </wgt>
<wgt id='1273'> +2.8842401e+02 </wgt>
<wgt id='1274'> +2.8864589e+02 </wgt>
<wgt id='1275'> +2.8841293e+02 </wgt>
<wgt id='1276'> +2.8850447e+02 </wgt>
<wgt id='1277'> +2.8835089e+02 </wgt>
<wgt id='1278'> +2.8825236e+02 </wgt>
<wgt id='1279'> +2.8845314e+02 </wgt>
<wgt id='1280'> +2.8824801e+02 </wgt>
<wgt id='1281'> +2.8853087e+02 </wgt>
<wgt id='1282'> +2.8862787e+02 </wgt>
<wgt id='1283'> +2.8855055e+02 </wgt>
<wgt id='1284'> +2.8846866e+02 </wgt>
<wgt id='1285'> +2.8820303e+02 </wgt>
<wgt id='1286'> +2.8851155e+02 </wgt>
<wgt id='1287'> +2.8848196e+02 </wgt>
<wgt id='1288'> +2.8834551e+02 </wgt>
<wgt id='1289'> +2.8841732e+02 </wgt>
<wgt id='1290'> +2.8851130e+02 </wgt>
<wgt id='1291'> +2.8831016e+02 </wgt>
<wgt id='1292'> +2.8851580e+02 </wgt>
<wgt id='1293'> +2.8859692e+02 </wgt>
<wgt id='1294'> +2.8839664e+02 </wgt>
<wgt id='1295'> +2.8855029e+02 </wgt>
<wgt id='1296'> +2.8854600e+02 </wgt>
<wgt id='1297'> +2.8837616e+02 </wgt>
<wgt id='1298'> +2.8842697e+02 </wgt>
<wgt id='1299'> +2.8832434e+02 </wgt>
<wgt id='1300'> +2.8850677e+02 </wgt>
<wgt id='1301'> +2.8846286e+02 </wgt>
<wgt id='1302'> +2.8850222e+02 </wgt>
<wgt id='1303'> +2.8858798e+02 </wgt>
<wgt id='1304'> +2.8849668e+02 </wgt>
<wgt id='1305'> +2.8836944e+02 </wgt>
<wgt id='1306'> +2.8841568e+02 </wgt>
<wgt id='1307'> +2.8847367e+02 </wgt>
<wgt id='1308'> +2.8838688e+02 </wgt>
<wgt id='1309'> +2.8842235e+02 </wgt>
<wgt id='1310'> +2.8844386e+02 </wgt>
<wgt id='1311'> +2.8857222e+02 </wgt>
<wgt id='1312'> +2.8839758e+02 </wgt>
<wgt id='1313'> +2.8855599e+02 </wgt>
<wgt id='1314'> +2.8842372e+02 </wgt>
<wgt id='1315'> +2.7022253e+02 </wgt>
<wgt id='1316'> +3.0815893e+02 </wgt>
<wgt id='1317'> +2.0606078e+02 </wgt>
<wgt id='1318'> +2.2144605e+02 </wgt>
<wgt id='1319'> +2.3684608e+02 </wgt>
<wgt id='1320'> +2.5217471e+02 </wgt>
<wgt id='1321'> +2.7926924e+02 </wgt>
<wgt id='1322'> +2.9829529e+02 </wgt>
<wgt id='1323'> +3.2721918e+02 </wgt>
<wgt id='1324'> +3.4791875e+02 </wgt>
<wgt id='1325'> +2.9450817e+02 </wgt>
<wgt id='1326'> +2.9460989e+02 </wgt>
<wgt id='1327'> +2.9450776e+02 </wgt>
<wgt id='1328'> +2.9404306e+02 </wgt>
<wgt id='1329'> +2.9536717e+02 </wgt>
<wgt id='1330'> +2.9423194e+02 </wgt>
<wgt id='1331'> +2.9415294e+02 </wgt>
<wgt id='1332'> +2.9466778e+02 </wgt>
<wgt id='1333'> +2.9467736e+02 </wgt>
<wgt id='1334'> +2.9518590e+02 </wgt>
<wgt id='1335'> +2.9430098e+02 </wgt>
<wgt id='1336'> +2.9371231e+02 </wgt>
<wgt id='1337'> +2.9410454e+02 </wgt>
<wgt id='1338'> +2.9561065e+02 </wgt>
<wgt id='1339'> +2.9408974e+02 </wgt>
<wgt id='1340'> +2.9364939e+02 </wgt>
<wgt id='1341'> +2.9459512e+02 </wgt>
<wgt id='1342'> +2.9393011e+02 </wgt>
<wgt id='1343'> +2.9472891e+02 </wgt>
<wgt id='1344'> +2.9529538e+02 </wgt>
<wgt id='1345'> +2.9485958e+02 </wgt>
<wgt id='1346'> +2.9500759e+02 </wgt>
<wgt id='1347'> +2.9450055e+02 </wgt>
<wgt id='1348'> +2.9448566e+02 </wgt>
<wgt id='1349'> +2.9423930e+02 </wgt>
<wgt id='1350'> +2.9494002e+02 </wgt>
<wgt id='1351'> +2.9424159e+02 </wgt>
<wgt id='1352'> +2.9475138e+02 </wgt>
<wgt id='1353'> +2.9385143e+02 </wgt>
<wgt id='1354'> +2.9321636e+02 </wgt>
<wgt id='1355'> +2.9684085e+02 </wgt>
<wgt id='1356'> +2.9570390e+02 </wgt>
<wgt id='1357'> +2.9443724e+02 </wgt>
<wgt id='1358'> +2.9502773e+02 </wgt>
<wgt id='1359'> +2.9445442e+02 </wgt>
<wgt id='1360'> +2.9587294e+02 </wgt>
<wgt id='1361'> +2.9508314e+02 </wgt>
<wgt id='1362'> +2.9450974e+02 </wgt>
<wgt id='1363'> +2.9466448e+02 </wgt>
<wgt id='1364'> +2.9510201e+02 </wgt>
<wgt id='1365'> +2.9426073e+02 </wgt>
<wgt id='1366'> +2.9454291e+02 </wgt>
<wgt id='1367'> +2.9369305e+02 </wgt>
<wgt id='1368'> +2.9354841e+02 </wgt>
<wgt id='1369'> +2.9508174e+02 </wgt>
<wgt id='1370'> +2.9512041e+02 </wgt>
<wgt id='1371'> +2.9501295e+02 </wgt>
<wgt id='1372'> +2.9433370e+02 </wgt>
<wgt id='1373'> +2.9489485e+02 </wgt>
<wgt id='1374'> +2.9425870e+02 </wgt>
<wgt id='1375'> +2.9419098e+02 </wgt>
<wgt id='1376'> +2.9548219e+02 </wgt>
<wgt id='1377'> +2.9439437e+02 </wgt>
<wgt id='1378'> +2.9431801e+02 </wgt>
<wgt id='1379'> +2.9445600e+02 </wgt>
<wgt id='1380'> +2.9464920e+02 </wgt>
<wgt id='1381'> +2.9464217e+02 </wgt>
<wgt id='1382'> +2.9436948e+02 </wgt>
<wgt id='1383'> +2.9434317e+02 </wgt>
<wgt id='1384'> +2.9451902e+02 </wgt>
<wgt id='1385'> +2.9458096e+02 </wgt>
<wgt id='1386'> +2.9469706e+02 </wgt>
<wgt id='1387'> +2.9450747e+02 </wgt>
<wgt id='1388'> +2.9468338e+02 </wgt>
<wgt id='1389'> +2.9446870e+02 </wgt>
<wgt id='1390'> +2.9461386e+02 </wgt>
<wgt id='1391'> +2.9458491e+02 </wgt>
<wgt id='1392'> +2.9437726e+02 </wgt>
<wgt id='1393'> +2.9448020e+02 </wgt>
<wgt id='1394'> +2.9426141e+02 </wgt>
<wgt id='1395'> +2.9435000e+02 </wgt>
<wgt id='1396'> +2.9457358e+02 </wgt>
<wgt id='1397'> +2.9465726e+02 </wgt>
<wgt id='1398'> +2.9447542e+02 </wgt>
<wgt id='1399'> +2.9474777e+02 </wgt>
<wgt id='1400'> +2.9460921e+02 </wgt>
<wgt id='1401'> +2.9452037e+02 </wgt>
<wgt id='1402'> +2.9446550e+02 </wgt>
<wgt id='1403'> +2.9466843e+02 </wgt>
<wgt id='1404'> +2.9440375e+02 </wgt>
<wgt id='1405'> +2.9436897e+02 </wgt>
<wgt id='1406'> +2.9442794e+02 </wgt>
<wgt id='1407'> +2.9440649e+02 </wgt>
<wgt id='1408'> +2.9459730e+02 </wgt>
<wgt id='1409'> +2.9449082e+02 </wgt>
<wgt id='1410'> +2.9457715e+02 </wgt>
<wgt id='1411'> +2.9460694e+02 </wgt>
<wgt id='1412'> +2.9450657e+02 </wgt>
<wgt id='1413'> +2.9444184e+02 </wgt>
<wgt id='1414'> +2.9454263e+02 </wgt>
<wgt id='1415'> +2.9448563e+02 </wgt>
<wgt id='1416'> +2.9443504e+02 </wgt>
<wgt id='1417'> +2.9446842e+02 </wgt>
<wgt id='1418'> +2.9455362e+02 </wgt>
<wgt id='1419'> +2.9454141e+02 </wgt>
<wgt id='1420'> +2.9454008e+02 </wgt>
<wgt id='1421'> +2.9440275e+02 </wgt>
<wgt id='1422'> +2.9441930e+02 </wgt>
<wgt id='1423'> +2.9444956e+02 </wgt>
<wgt id='1424'> +2.9455751e+02 </wgt>
<wgt id='1425'> +2.9454922e+02 </wgt>
<wgt id='1426'> +2.7578363e+02 </wgt>
<wgt id='1427'> +3.1357631e+02 </wgt>
<wgt id='1428'> +2.8862451e+02 </wgt>
<wgt id='1429'> +2.8954977e+02 </wgt>
<wgt id='1430'> +2.8960589e+02 </wgt>
<wgt id='1431'> +2.8942522e+02 </wgt>
<wgt id='1432'> +2.8709241e+02 </wgt>
<wgt id='1433'> +2.8623444e+02 </wgt>
<wgt id='1434'> +2.7782181e+02 </wgt>
<wgt id='1435'> +2.8358374e+02 </wgt>
<wgt id='1436'> +2.9183769e+02 </wgt>
<wgt id='1437'> +2.8492603e+02 </wgt>
<wgt id='1438'> +2.8927533e+02 </wgt>
<wgt id='1439'> +2.9076415e+02 </wgt>
<wgt id='1440'> +2.8740942e+02 </wgt>
<wgt id='1441'> +2.9664614e+02 </wgt>
<wgt id='1442'> +2.9166065e+02 </wgt>
<wgt id='1443'> +2.8754454e+02 </wgt>
<wgt id='1444'> +2.9159858e+02 </wgt>
<wgt id='1445'> +2.8203223e+02 </wgt>
<wgt id='1446'> +2.9564005e+02 </wgt>
<wgt id='1447'> +2.9289098e+02 </wgt>
<wgt id='1448'> +2.8456555e+02 </wgt>
<wgt id='1449'> +2.8726965e+02 </wgt>
<wgt id='1450'> +2.8947408e+02 </wgt>
<wgt id='1451'> +2.8660431e+02 </wgt>
<wgt id='1452'> +2.9085505e+02 </wgt>
<wgt id='1453'> +2.9088938e+02 </wgt>
<wgt id='1454'> +2.8676452e+02 </wgt>
<wgt id='1455'> +2.8895217e+02 </wgt>
<wgt id='1456'> +2.8801683e+02 </wgt>
<wgt id='1457'> +2.8902926e+02 </wgt>
<wgt id='1458'> +2.8837075e+02 </wgt>
<wgt id='1459'> +2.8779551e+02 </wgt>
<wgt id='1460'> +2.8984664e+02 </wgt>
<wgt id='1461'> +2.8861823e+02 </wgt>
<wgt id='1462'> +2.8869294e+02 </wgt>
<wgt id='1463'> +2.9291121e+02 </wgt>
<wgt id='1464'> +2.8478942e+02 </wgt>
<wgt id='1465'> +2.7875388e+02 </wgt>
<wgt id='1466'> +2.9995939e+02 </wgt>
<wgt id='1467'> +2.9679968e+02 </wgt>
<wgt id='1468'> +2.8422092e+02 </wgt>
<wgt id='1469'> +2.9038788e+02 </wgt>
<wgt id='1470'> +2.8806803e+02 </wgt>
<wgt id='1471'> +2.9079476e+02 </wgt>
<wgt id='1472'> +2.9009678e+02 </wgt>
<wgt id='1473'> +2.8757802e+02 </wgt>
<wgt id='1474'> +2.8044337e+02 </wgt>
<wgt id='1475'> +2.8703240e+02 </wgt>
<wgt id='1476'> +2.8578948e+02 </wgt>
<wgt id='1477'> +2.8874308e+02 </wgt>
<wgt id='1478'> +2.8805273e+02 </wgt>
<wgt id='1479'> +2.8831821e+02 </wgt>
<wgt id='1480'> +2.8835769e+02 </wgt>
<wgt id='1481'> +2.7814692e+02 </wgt>
<wgt id='1482'> +2.8054871e+02 </wgt>
<wgt id='1483'> +2.8571958e+02 </wgt>
<wgt id='1484'> +2.9510092e+02 </wgt>
<wgt id='1485'> +2.6891799e+02 </wgt>
<wgt id='1486'> +3.0993532e+02 </wgt>
<wgt id='1487'> +2.8245974e+02 </wgt>
<wgt id='1488'> +2.8180435e+02 </wgt>
<wgt id='1489'> +2.8258436e+02 </wgt>
<wgt id='1490'> +2.7379884e+02 </wgt>
<wgt id='1491'> +2.8029213e+02 </wgt>
<wgt id='1492'> +2.8169098e+02 </wgt>
<wgt id='1493'> +2.8343909e+02 </wgt>
<wgt id='1494'> +2.8158636e+02 </wgt>
<wgt id='1495'> +2.7947435e+02 </wgt>
<wgt id='1496'> +2.8457016e+02 </wgt>
<wgt id='1497'> +2.8060443e+02 </wgt>
<wgt id='1498'> +2.8814046e+02 </wgt>
<wgt id='1499'> +2.7787970e+02 </wgt>
<wgt id='1500'> +2.8427274e+02 </wgt>
<wgt id='1501'> +2.8217891e+02 </wgt>
<wgt id='1502'> +2.9045917e+02 </wgt>
<wgt id='1503'> +2.7707179e+02 </wgt>
<wgt id='1504'> +2.7571371e+02 </wgt>
<wgt id='1505'> +2.9048458e+02 </wgt>
<wgt id='1506'> +2.8435704e+02 </wgt>
<wgt id='1507'> +2.8049264e+02 </wgt>
<wgt id='1508'> +2.8340800e+02 </wgt>
<wgt id='1509'> +2.8063100e+02 </wgt>
<wgt id='1510'> +2.8266673e+02 </wgt>
<wgt id='1511'> +2.8228102e+02 </wgt>
<wgt id='1512'> +2.9095128e+02 </wgt>
<wgt id='1513'> +2.7446036e+02 </wgt>
<wgt id='1514'> +2.8382616e+02 </wgt>
<wgt id='1515'> +2.8062803e+02 </wgt>
<wgt id='1516'> +2.8330349e+02 </wgt>
<wgt id='1517'> +2.8219516e+02 </wgt>
<wgt id='1518'> +2.8373347e+02 </wgt>
<wgt id='1519'> +2.8081483e+02 </wgt>
<wgt id='1520'> +2.7984208e+02 </wgt>
<wgt id='1521'> +2.8827709e+02 </wgt>
<wgt id='1522'> +2.7556285e+02 </wgt>
<wgt id='1523'> +2.8941078e+02 </wgt>
<wgt id='1524'> +2.8086710e+02 </wgt>
<wgt id='1525'> +2.8498954e+02 </wgt>
<wgt id='1526'> +2.8192024e+02 </wgt>
<wgt id='1527'> +2.8369605e+02 </wgt>
<wgt id='1528'> +2.8021971e+02 </wgt>
<wgt id='1529'> +2.8488537e+02 </wgt>
<wgt id='1530'> +2.7878666e+02 </wgt>
<wgt id='1531'> +2.8907691e+02 </wgt>
<wgt id='1532'> +2.8365162e+02 </wgt>
<wgt id='1533'> +2.8405529e+02 </wgt>
<wgt id='1534'> +2.8328794e+02 </wgt>
<wgt id='1535'> +2.7433024e+02 </wgt>
<wgt id='1536'> +2.7509667e+02 </wgt>
<wgt id='1537'> +2.8370574e+02 </wgt>
<wgt id='1538'> +2.8356711e+02 </wgt>
<wgt id='1539'> +2.8307799e+02 </wgt>
<wgt id='1540'> +2.7210506e+02 </wgt>
<wgt id='1541'> +2.8639152e+02 </wgt>
<wgt id='1542'> +2.8021337e+02 </wgt>
<wgt id='1543'> +2.8747088e+02 </wgt>
<wgt id='1544'> +2.6419784e+02 </wgt>
<wgt id='1545'> +3.0227918e+02 </wgt>
<wgt id='1546'> +2.6474303e+02 </wgt>
<wgt id='1547'> +2.8963407e+02 </wgt>
<wgt id='1548'> +2.8988262e+02 </wgt>
<wgt id='1549'> +2.8936344e+02 </wgt>
<wgt id='1550'> +2.8998255e+02 </wgt>
<wgt id='1551'> +2.8939964e+02 </wgt>
<wgt id='1552'> +2.9157178e+02 </wgt>
<wgt id='1553'> +2.8783883e+02 </wgt>
<wgt id='1554'> +2.8846285e+02 </wgt>
<wgt id='1555'> +2.9095273e+02 </wgt>
<wgt id='1556'> +2.9003570e+02 </wgt>
<wgt id='1557'> +2.8923966e+02 </wgt>
<wgt id='1558'> +2.8992779e+02 </wgt>
<wgt id='1559'> +2.8898230e+02 </wgt>
<wgt id='1560'> +2.8951629e+02 </wgt>
<wgt id='1561'> +2.8983371e+02 </wgt>
<wgt id='1562'> +2.8922801e+02 </wgt>
<wgt id='1563'> +2.8986700e+02 </wgt>
<wgt id='1564'> +2.8827849e+02 </wgt>
<wgt id='1565'> +2.9123106e+02 </wgt>
<wgt id='1566'> +2.8964935e+02 </wgt>
<wgt id='1567'> +2.8962252e+02 </wgt>
<wgt id='1568'> +2.8895655e+02 </wgt>
<wgt id='1569'> +2.9051844e+02 </wgt>
<wgt id='1570'> +2.8766939e+02 </wgt>
<wgt id='1571'> +2.9095153e+02 </wgt>
<wgt id='1572'> +2.9131170e+02 </wgt>
<wgt id='1573'> +2.8802050e+02 </wgt>
<wgt id='1574'> +2.8978401e+02 </wgt>
<wgt id='1575'> +2.8950074e+02 </wgt>
<wgt id='1576'> +2.8791861e+02 </wgt>
<wgt id='1577'> +2.9170708e+02 </wgt>
<wgt id='1578'> +2.8529252e+02 </wgt>
<wgt id='1579'> +2.9455871e+02 </wgt>
<wgt id='1580'> +2.9143743e+02 </wgt>
<wgt id='1581'> +2.8788478e+02 </wgt>
<wgt id='1582'> +2.9037852e+02 </wgt>
<wgt id='1583'> +2.8776117e+02 </wgt>
<wgt id='1584'> +2.8990407e+02 </wgt>
<wgt id='1585'> +2.8949988e+02 </wgt>
<wgt id='1586'> +2.8862693e+02 </wgt>
<wgt id='1587'> +2.9077189e+02 </wgt>
<wgt id='1588'> +2.8672662e+02 </wgt>
<wgt id='1589'> +2.9294969e+02 </wgt>
<wgt id='1590'> +2.9235233e+02 </wgt>
<wgt id='1591'> +2.8832936e+02 </wgt>
<wgt id='1592'> +2.8918542e+02 </wgt>
<wgt id='1593'> +2.9075904e+02 </wgt>
<wgt id='1594'> +2.9418715e+02 </wgt>
<wgt id='1595'> +2.8412837e+02 </wgt>
<wgt id='1596'> +2.9159059e+02 </wgt>
<wgt id='1597'> +2.8867995e+02 </wgt>
<wgt id='1598'> +2.8482943e+02 </wgt>
<wgt id='1599'> +2.8476336e+02 </wgt>
<wgt id='1600'> +2.8492039e+02 </wgt>
<wgt id='1601'> +2.8589578e+02 </wgt>
<wgt id='1602'> +2.8377589e+02 </wgt>
<wgt id='1603'> +2.8579692e+02 </wgt>
<wgt id='1604'> +2.8444461e+02 </wgt>
<wgt id='1605'> +2.8468927e+02 </wgt>
<wgt id='1606'> +2.8497546e+02 </wgt>
<wgt id='1607'> +2.8510912e+02 </wgt>
<wgt id='1608'> +2.8457392e+02 </wgt>
<wgt id='1609'> +2.8399754e+02 </wgt>
<wgt id='1610'> +2.8519788e+02 </wgt>
<wgt id='1611'> +2.8476994e+02 </wgt>
<wgt id='1612'> +2.8491289e+02 </wgt>
<wgt id='1613'> +2.8478561e+02 </wgt>
<wgt id='1614'> +2.8489164e+02 </wgt>
<wgt id='1615'> +2.8485227e+02 </wgt>
<wgt id='1616'> +2.8482364e+02 </wgt>
<wgt id='1617'> +2.8495585e+02 </wgt>
<wgt id='1618'> +2.8466013e+02 </wgt>
<wgt id='1619'> +2.8420958e+02 </wgt>
<wgt id='1620'> +2.8526618e+02 </wgt>
<wgt id='1621'> +2.8733331e+02 </wgt>
<wgt id='1622'> +2.8247879e+02 </wgt>
<wgt id='1623'> +2.8562643e+02 </wgt>
<wgt id='1624'> +2.8283996e+02 </wgt>
<wgt id='1625'> +2.8485282e+02 </wgt>
<wgt id='1626'> +2.8448249e+02 </wgt>
<wgt id='1627'> +2.8625986e+02 </wgt>
<wgt id='1628'> +2.8133477e+02 </wgt>
<wgt id='1629'> +2.8301422e+02 </wgt>
<wgt id='1630'> +2.8858203e+02 </wgt>
<wgt id='1631'> +2.8545666e+02 </wgt>
<wgt id='1632'> +2.8356008e+02 </wgt>
<wgt id='1633'> +2.8221255e+02 </wgt>
<wgt id='1634'> +2.8594887e+02 </wgt>
<wgt id='1635'> +2.8469137e+02 </wgt>
<wgt id='1636'> +2.8486344e+02 </wgt>
<wgt id='1637'> +2.8342742e+02 </wgt>
<wgt id='1638'> +2.8591131e+02 </wgt>
<wgt id='1639'> +2.8552718e+02 </wgt>
<wgt id='1640'> +2.8370238e+02 </wgt>
<wgt id='1641'> +2.8514571e+02 </wgt>
<wgt id='1642'> +2.8304141e+02 </wgt>
<wgt id='1643'> +2.8008792e+02 </wgt>
<wgt id='1644'> +2.8835726e+02 </wgt>
<wgt id='1645'> +2.8708069e+02 </wgt>
<wgt id='1646'> +2.8385820e+02 </wgt>
<wgt id='1647'> +2.8262278e+02 </wgt>
<wgt id='1648'> +2.8640002e+02 </wgt>
<wgt id='1649'> +4.5069837e+02 </wgt>
<wgt id='1650'> +2.8413088e+02 </wgt>
<wgt id='1651'> +2.8405413e+02 </wgt>
<wgt id='1652'> +2.8422935e+02 </wgt>
<wgt id='1653'> +2.8413072e+02 </wgt>
<wgt id='1654'> +2.8412255e+02 </wgt>
<wgt id='1655'> +2.8355726e+02 </wgt>
<wgt id='1656'> +2.8461385e+02 </wgt>
<wgt id='1657'> +2.8503487e+02 </wgt>
<wgt id='1658'> +2.8492428e+02 </wgt>
<wgt id='1659'> +2.8560244e+02 </wgt>
<wgt id='1660'> +2.8367415e+02 </wgt>
<wgt id='1661'> +2.8427545e+02 </wgt>
<wgt id='1662'> +2.8270877e+02 </wgt>
<wgt id='1663'> +2.8318647e+02 </wgt>
<wgt id='1664'> +2.8517888e+02 </wgt>
<wgt id='1665'> +2.8393313e+02 </wgt>
<wgt id='1666'> +2.8455276e+02 </wgt>
<wgt id='1667'> +2.8413642e+02 </wgt>
<wgt id='1668'> +2.8531561e+02 </wgt>
<wgt id='1669'> +2.8407246e+02 </wgt>
<wgt id='1670'> +2.8442509e+02 </wgt>
<wgt id='1671'> +2.8371537e+02 </wgt>
<wgt id='1672'> +2.8460535e+02 </wgt>
<wgt id='1673'> +2.8346089e+02 </wgt>
<wgt id='1674'> +2.8243350e+02 </wgt>
<wgt id='1675'> +2.8339473e+02 </wgt>
<wgt id='1676'> +2.8445039e+02 </wgt>
<wgt id='1677'> +2.8460949e+02 </wgt>
<wgt id='1678'> +2.8434341e+02 </wgt>
<wgt id='1679'> +2.8502172e+02 </wgt>
<wgt id='1680'> +2.9181654e+02 </wgt>
<wgt id='1681'> +2.8918681e+02 </wgt>
<wgt id='1682'> +2.9352969e+02 </wgt>
<wgt id='1683'> +2.9242520e+02 </wgt>
<wgt id='1684'> +2.9010982e+02 </wgt>
<wgt id='1685'> +2.9175502e+02 </wgt>
<wgt id='1686'> +2.9419883e+02 </wgt>
<wgt id='1687'> +2.8746927e+02 </wgt>
<wgt id='1688'> +2.8449200e+02 </wgt>
<wgt id='1689'> +2.9490350e+02 </wgt>
<wgt id='1690'> +2.9461210e+02 </wgt>
<wgt id='1691'> +2.9102198e+02 </wgt>
<wgt id='1692'> +2.9267133e+02 </wgt>
<wgt id='1693'> +2.9188913e+02 </wgt>
<wgt id='1694'> +2.8719181e+02 </wgt>
<wgt id='1695'> +2.9462375e+02 </wgt>
<wgt id='1696'> +2.9042144e+02 </wgt>
<wgt id='1697'> +2.9078827e+02 </wgt>
<wgt id='1698'> +2.8903661e+02 </wgt>
<wgt id='1699'> +2.8834419e+02 </wgt>
<wgt id='1700'> +2.9042945e+02 </wgt>
<wgt id='1701'> +2.9068574e+02 </wgt>
<wgt id='1702'> +2.9345182e+02 </wgt>
<wgt id='1703'> +2.9014202e+02 </wgt>
<wgt id='1704'> +2.9261826e+02 </wgt>
<wgt id='1705'> +2.9246890e+02 </wgt>
<wgt id='1706'> +2.9149617e+02 </wgt>
<wgt id='1707'> +2.9182140e+02 </wgt>
<wgt id='1708'> +2.9148045e+02 </wgt>
<wgt id='1709'> +2.9168567e+02 </wgt>
<wgt id='1710'> +2.9185736e+02 </wgt>
<wgt id='1711'> +2.9177718e+02 </wgt>
<wgt id='1712'> +2.9175023e+02 </wgt>
<wgt id='1713'> +2.9135740e+02 </wgt>
<wgt id='1714'> +2.9194370e+02 </wgt>
<wgt id='1715'> +2.9237762e+02 </wgt>
<wgt id='1716'> +2.9148880e+02 </wgt>
<wgt id='1717'> +2.9181366e+02 </wgt>
<wgt id='1718'> +2.9174472e+02 </wgt>
<wgt id='1719'> +2.9201445e+02 </wgt>
<wgt id='1720'> +2.9201372e+02 </wgt>
<wgt id='1721'> +2.9212663e+02 </wgt>
<wgt id='1722'> +2.9194759e+02 </wgt>
<wgt id='1723'> +2.9157201e+02 </wgt>
<wgt id='1724'> +2.9227781e+02 </wgt>
<wgt id='1725'> +2.9194177e+02 </wgt>
<wgt id='1726'> +2.9215695e+02 </wgt>
<wgt id='1727'> +2.9153257e+02 </wgt>
<wgt id='1728'> +2.9165490e+02 </wgt>
<wgt id='1729'> +2.9197465e+02 </wgt>
<wgt id='1730'> +2.9148883e+02 </wgt>
<wgt id='1731'> +2.9172285e+02 </wgt>
<wgt id='1732'> +2.9156590e+02 </wgt>
<wgt id='1733'> +2.9137506e+02 </wgt>
<wgt id='1734'> +2.9163787e+02 </wgt>
<wgt id='1735'> +2.9181443e+02 </wgt>
<wgt id='1736'> +2.9170245e+02 </wgt>
<wgt id='1737'> +2.9194088e+02 </wgt>
<wgt id='1738'> +2.9216098e+02 </wgt>
<wgt id='1739'> +2.9178657e+02 </wgt>
<wgt id='1740'> +2.9146418e+02 </wgt>
<wgt id='1741'> +2.9201605e+02 </wgt>
<wgt id='1742'> +2.9167680e+02 </wgt>
<wgt id='1743'> +2.9181416e+02 </wgt>
<wgt id='1744'> +2.9169103e+02 </wgt>
<wgt id='1745'> +2.9192460e+02 </wgt>
<wgt id='1746'> +2.9200430e+02 </wgt>
<wgt id='1747'> +2.9182678e+02 </wgt>
<wgt id='1748'> +2.9203940e+02 </wgt>
<wgt id='1749'> +2.9196308e+02 </wgt>
<wgt id='1750'> +2.9170618e+02 </wgt>
<wgt id='1751'> +2.9155132e+02 </wgt>
<wgt id='1752'> +2.9161709e+02 </wgt>
<wgt id='1753'> +2.9167020e+02 </wgt>
<wgt id='1754'> +2.9163393e+02 </wgt>
<wgt id='1755'> +2.9175459e+02 </wgt>
<wgt id='1756'> +2.9182716e+02 </wgt>
<wgt id='1757'> +2.9161476e+02 </wgt>
<wgt id='1758'> +2.9176748e+02 </wgt>
<wgt id='1759'> +2.9203163e+02 </wgt>
<wgt id='1760'> +2.9176113e+02 </wgt>
<wgt id='1761'> +2.9197880e+02 </wgt>
<wgt id='1762'> +2.9167342e+02 </wgt>
<wgt id='1763'> +2.9190426e+02 </wgt>
<wgt id='1764'> +2.9203478e+02 </wgt>
<wgt id='1765'> +2.9192124e+02 </wgt>
<wgt id='1766'> +2.9215311e+02 </wgt>
<wgt id='1767'> +2.9190418e+02 </wgt>
<wgt id='1768'> +2.9183663e+02 </wgt>
<wgt id='1769'> +2.9179778e+02 </wgt>
<wgt id='1770'> +2.9185103e+02 </wgt>
<wgt id='1771'> +2.9164663e+02 </wgt>
<wgt id='1772'> +2.9177923e+02 </wgt>
<wgt id='1773'> +2.9174811e+02 </wgt>
<wgt id='1774'> +2.9174867e+02 </wgt>
<wgt id='1775'> +2.9177948e+02 </wgt>
<wgt id='1776'> +2.9178863e+02 </wgt>
<wgt id='1777'> +2.9188806e+02 </wgt>
<wgt id='1778'> +2.9188304e+02 </wgt>
<wgt id='1779'> +2.9184299e+02 </wgt>
<wgt id='1780'> +2.9182269e+02 </wgt>
<wgt id='1781'> +2.7950030e+02 </wgt>
<wgt id='1782'> +3.0479235e+02 </wgt>
<wgt id='1783'> +2.8815094e+02 </wgt>
<wgt id='1784'> +2.8789760e+02 </wgt>
<wgt id='1785'> +2.8863761e+02 </wgt>
<wgt id='1786'> +2.8727463e+02 </wgt>
<wgt id='1787'> +2.8899572e+02 </wgt>
<wgt id='1788'> +2.8998305e+02 </wgt>
<wgt id='1789'> +2.8859746e+02 </wgt>
<wgt id='1790'> +2.8630640e+02 </wgt>
<wgt id='1791'> +2.8737864e+02 </wgt>
<wgt id='1792'> +2.8844159e+02 </wgt>
<wgt id='1793'> +2.8642396e+02 </wgt>
<wgt id='1794'> +2.9022952e+02 </wgt>
<wgt id='1795'> +2.9137536e+02 </wgt>
<wgt id='1796'> +2.8831910e+02 </wgt>
<wgt id='1797'> +2.8962949e+02 </wgt>
<wgt id='1798'> +2.8650272e+02 </wgt>
<wgt id='1799'> +2.9145019e+02 </wgt>
<wgt id='1800'> +2.8511654e+02 </wgt>
<wgt id='1801'> +2.8887821e+02 </wgt>
<wgt id='1802'> +2.8950064e+02 </wgt>
<wgt id='1803'> +2.9182474e+02 </wgt>
<wgt id='1804'> +2.8735759e+02 </wgt>
<wgt id='1805'> +2.8888198e+02 </wgt>
<wgt id='1806'> +2.8562827e+02 </wgt>
<wgt id='1807'> +2.8685644e+02 </wgt>
<wgt id='1808'> +2.8955455e+02 </wgt>
<wgt id='1809'> +2.8805225e+02 </wgt>
<wgt id='1810'> +2.8774383e+02 </wgt>
<wgt id='1811'> +2.8857472e+02 </wgt>
<wgt id='1812'> +2.8827664e+02 </wgt>
<wgt id='1813'> +2.8803183e+02 </wgt>
<wgt id='1814'> +2.8788637e+02 </wgt>
<wgt id='1815'> +2.8847440e+02 </wgt>
<wgt id='1816'> +2.8848836e+02 </wgt>
<wgt id='1817'> +2.8825431e+02 </wgt>
<wgt id='1818'> +2.8838266e+02 </wgt>
<wgt id='1819'> +2.8828197e+02 </wgt>
<wgt id='1820'> +2.8841080e+02 </wgt>
<wgt id='1821'> +2.8845300e+02 </wgt>
<wgt id='1822'> +2.8824323e+02 </wgt>
<wgt id='1823'> +2.8786335e+02 </wgt>
<wgt id='1824'> +2.8823087e+02 </wgt>
<wgt id='1825'> +2.8841225e+02 </wgt>
<wgt id='1826'> +2.8777095e+02 </wgt>
<wgt id='1827'> +2.8824464e+02 </wgt>
<wgt id='1828'> +2.8839253e+02 </wgt>
<wgt id='1829'> +2.8776785e+02 </wgt>
<wgt id='1830'> +2.8828432e+02 </wgt>
<wgt id='1831'> +2.8836741e+02 </wgt>
<wgt id='1832'> +2.8799199e+02 </wgt>
<wgt id='1833'> +2.8815875e+02 </wgt>
<wgt id='1834'> +2.8836875e+02 </wgt>
<wgt id='1835'> +2.8842705e+02 </wgt>
<wgt id='1836'> +2.8812281e+02 </wgt>
<wgt id='1837'> +2.8796706e+02 </wgt>
<wgt id='1838'> +2.8794939e+02 </wgt>
<wgt id='1839'> +2.8832170e+02 </wgt>
<wgt id='1840'> +2.8817460e+02 </wgt>
<wgt id='1841'> +2.8779568e+02 </wgt>
<wgt id='1842'> +2.8795429e+02 </wgt>
<wgt id='1843'> +2.8800924e+02 </wgt>
<wgt id='1844'> +2.8814924e+02 </wgt>
<wgt id='1845'> +2.8819858e+02 </wgt>
<wgt id='1846'> +2.8821803e+02 </wgt>
<wgt id='1847'> +2.8820149e+02 </wgt>
<wgt id='1848'> +2.8806963e+02 </wgt>
<wgt id='1849'> +2.8810310e+02 </wgt>
<wgt id='1850'> +2.8825461e+02 </wgt>
<wgt id='1851'> +2.8817976e+02 </wgt>
<wgt id='1852'> +2.8841877e+02 </wgt>
<wgt id='1853'> +2.8807111e+02 </wgt>
<wgt id='1854'> +2.8836901e+02 </wgt>
<wgt id='1855'> +2.8837881e+02 </wgt>
<wgt id='1856'> +2.8808946e+02 </wgt>
<wgt id='1857'> +2.8819198e+02 </wgt>
<wgt id='1858'> +2.8811546e+02 </wgt>
<wgt id='1859'> +2.8812579e+02 </wgt>
<wgt id='1860'> +2.8824061e+02 </wgt>
<wgt id='1861'> +2.8816846e+02 </wgt>
<wgt id='1862'> +2.8811901e+02 </wgt>
<wgt id='1863'> +2.8847258e+02 </wgt>
<wgt id='1864'> +2.8816735e+02 </wgt>
<wgt id='1865'> +2.8825533e+02 </wgt>
<wgt id='1866'> +2.8806134e+02 </wgt>
<wgt id='1867'> +2.8801608e+02 </wgt>
<wgt id='1868'> +2.8798170e+02 </wgt>
<wgt id='1869'> +2.8824103e+02 </wgt>
<wgt id='1870'> +2.8782696e+02 </wgt>
<wgt id='1871'> +2.8800943e+02 </wgt>
<wgt id='1872'> +2.8802073e+02 </wgt>
<wgt id='1873'> +2.8819166e+02 </wgt>
<wgt id='1874'> +2.8807270e+02 </wgt>
<wgt id='1875'> +2.8810790e+02 </wgt>
<wgt id='1876'> +2.8807047e+02 </wgt>
<wgt id='1877'> +2.8807142e+02 </wgt>
<wgt id='1878'> +2.8818080e+02 </wgt>
<wgt id='1879'> +2.8809494e+02 </wgt>
<wgt id='1880'> +2.8819015e+02 </wgt>
<wgt id='1881'> +2.8811632e+02 </wgt>
<wgt id='1882'> +2.8806795e+02 </wgt>
<wgt id='1883'> +2.8815886e+02 </wgt>
<wgt id='1884'> +2.7573810e+02 </wgt>
<wgt id='1885'> +3.0145511e+02 </wgt>
<wgt id='1886'> +2.9169626e+02 </wgt>
<wgt id='1887'> +2.9334700e+02 </wgt>
<wgt id='1888'> +2.8756324e+02 </wgt>
<wgt id='1889'> +2.9148525e+02 </wgt>
<wgt id='1890'> +2.8458316e+02 </wgt>
<wgt id='1891'> +2.9116847e+02 </wgt>
<wgt id='1892'> +2.8914879e+02 </wgt>
<wgt id='1893'> +2.9166870e+02 </wgt>
<wgt id='1894'> +2.9251272e+02 </wgt>
<wgt id='1895'> +2.8967280e+02 </wgt>
<wgt id='1896'> +2.9290617e+02 </wgt>
<wgt id='1897'> +2.8893125e+02 </wgt>
<wgt id='1898'> +2.9116701e+02 </wgt>
<wgt id='1899'> +2.9221803e+02 </wgt>
<wgt id='1900'> +2.9113794e+02 </wgt>
<wgt id='1901'> +2.9173864e+02 </wgt>
<wgt id='1902'> +2.8988473e+02 </wgt>
<wgt id='1903'> +2.9549115e+02 </wgt>
<wgt id='1904'> +2.9264180e+02 </wgt>
<wgt id='1905'> +2.8947929e+02 </wgt>
<wgt id='1906'> +2.9017551e+02 </wgt>
<wgt id='1907'> +2.9113132e+02 </wgt>
<wgt id='1908'> +2.9099201e+02 </wgt>
<wgt id='1909'> +2.9201854e+02 </wgt>
<wgt id='1910'> +2.9129362e+02 </wgt>
<wgt id='1911'> +2.9132105e+02 </wgt>
<wgt id='1912'> +2.9385325e+02 </wgt>
<wgt id='1913'> +2.9282298e+02 </wgt>
<wgt id='1914'> +2.9793705e+02 </wgt>
<wgt id='1915'> +2.9185345e+02 </wgt>
<wgt id='1916'> +2.9155381e+02 </wgt>
<wgt id='1917'> +2.7950030e+02 </wgt>
<wgt id='1918'> +3.0479235e+02 </wgt>
<wgt id='1919'> +2.8802080e+02 </wgt>
<wgt id='1920'> +2.7967920e+02 </wgt>
<wgt id='1921'> +2.8831332e+02 </wgt>
<wgt id='1922'> +2.8799989e+02 </wgt>
<wgt id='1923'> +2.8808945e+02 </wgt>
<wgt id='1924'> +2.8868750e+02 </wgt>
<wgt id='1925'> +2.8821081e+02 </wgt>
<wgt id='1926'> +2.8787886e+02 </wgt>
<wgt id='1927'> +2.8812110e+02 </wgt>
<wgt id='1928'> +2.8772872e+02 </wgt>
<wgt id='1929'> +2.8628886e+02 </wgt>
<wgt id='1930'> +2.8764569e+02 </wgt>
<wgt id='1931'> +2.8791139e+02 </wgt>
<wgt id='1932'> +2.8828380e+02 </wgt>
<wgt id='1933'> +2.8773982e+02 </wgt>
<wgt id='1934'> +2.8755184e+02 </wgt>
<wgt id='1935'> +2.8818315e+02 </wgt>
<wgt id='1936'> +2.8878800e+02 </wgt>
<wgt id='1937'> +2.8792278e+02 </wgt>
<wgt id='1938'> +2.8803312e+02 </wgt>
<wgt id='1939'> +2.8865808e+02 </wgt>
<wgt id='1940'> +2.8833400e+02 </wgt>
<wgt id='1941'> +2.8940519e+02 </wgt>
<wgt id='1942'> +2.8820978e+02 </wgt>
<wgt id='1943'> +2.8792673e+02 </wgt>
<wgt id='1944'> +2.8802256e+02 </wgt>
<wgt id='1945'> +2.8803719e+02 </wgt>
<wgt id='1946'> +2.8833415e+02 </wgt>
<wgt id='1947'> +2.8817979e+02 </wgt>
<wgt id='1948'> +2.8683391e+02 </wgt>
<wgt id='1949'> +2.8802155e+02 </wgt>
<wgt id='1950'> +2.7573810e+02 </wgt>
<wgt id='1951'> +3.0145511e+02 </wgt>
<wgt id='1952'> +2.6290757e+02 </wgt>
<wgt id='1953'> +2.6249421e+02 </wgt>
<wgt id='1954'> +2.6331988e+02 </wgt>
<wgt id='1955'> +2.6302804e+02 </wgt>
<wgt id='1956'> +2.6278679e+02 </wgt>
<wgt id='1957'> +2.6332613e+02 </wgt>
<wgt id='1958'> +2.6249099e+02 </wgt>
<wgt id='1959'> +2.6464139e+02 </wgt>
<wgt id='1960'> +2.6121133e+02 </wgt>
<wgt id='1961'> +2.6238664e+02 </wgt>
<wgt id='1962'> +2.6344068e+02 </wgt>
<wgt id='1963'> +2.6039915e+02 </wgt>
<wgt id='1964'> +2.6566845e+02 </wgt>
<wgt id='1965'> +2.6209128e+02 </wgt>
<wgt id='1966'> +2.6374054e+02 </wgt>
<wgt id='1967'> +2.6403405e+02 </wgt>
<wgt id='1968'> +2.6129530e+02 </wgt>
<wgt id='1969'> +2.6448716e+02 </wgt>
<wgt id='1970'> +2.6196494e+02 </wgt>
<wgt id='1971'> +2.6388898e+02 </wgt>
<wgt id='1972'> +2.6166318e+02 </wgt>
<wgt id='1973'> +2.6320083e+02 </wgt>
<wgt id='1974'> +2.6265189e+02 </wgt>
<wgt id='1975'> +2.5957462e+02 </wgt>
<wgt id='1976'> +2.6591036e+02 </wgt>
<wgt id='1977'> +2.6084757e+02 </wgt>
<wgt id='1978'> +2.6508379e+02 </wgt>
<wgt id='1979'> +2.6829576e+02 </wgt>
<wgt id='1980'> +2.5795831e+02 </wgt>
<wgt id='1981'> +2.6290757e+02 </wgt>
<wgt id='1982'> +2.6441912e+02 </wgt>
<wgt id='1983'> +2.6054360e+02 </wgt>
<wgt id='1984'> +2.6445762e+02 </wgt>
<wgt id='1985'> +2.6132742e+02 </wgt>
<wgt id='1986'> +2.6210072e+02 </wgt>
<wgt id='1987'> +2.6665431e+02 </wgt>
<wgt id='1988'> +2.6305912e+02 </wgt>
<wgt id='1989'> +2.6304269e+02 </wgt>
<wgt id='1990'> +2.6539768e+02 </wgt>
<wgt id='1991'> +2.6058842e+02 </wgt>
<wgt id='1992'> +2.6091944e+02 </wgt>
<wgt id='1993'> +2.6207149e+02 </wgt>
<wgt id='1994'> +2.6354140e+02 </wgt>
<wgt id='1995'> +2.8352490e+02 </wgt>
<wgt id='1996'> +2.8310588e+02 </wgt>
<wgt id='1997'> +2.8385100e+02 </wgt>
<wgt id='1998'> +2.8330049e+02 </wgt>
<wgt id='1999'> +2.8365809e+02 </wgt>
<wgt id='2000'> +2.8382148e+02 </wgt>
<wgt id='2001'> +2.8313671e+02 </wgt>
<wgt id='2002'> +2.8566413e+02 </wgt>
<wgt id='2003'> +2.8135555e+02 </wgt>
<wgt id='2004'> +2.8165160e+02 </wgt>
<wgt id='2005'> +2.8536360e+02 </wgt>
<wgt id='2006'> +2.8476669e+02 </wgt>
<wgt id='2007'> +2.8221327e+02 </wgt>
<wgt id='2008'> +2.8311463e+02 </wgt>
<wgt id='2009'> +2.8380950e+02 </wgt>
<wgt id='2010'> +2.8347638e+02 </wgt>
<wgt id='2011'> +2.8252736e+02 </wgt>
<wgt id='2012'> +2.8356195e+02 </wgt>
<wgt id='2013'> +2.8342924e+02 </wgt>
<wgt id='2014'> +2.8329896e+02 </wgt>
<wgt id='2015'> +2.8371796e+02 </wgt>
<wgt id='2016'> +2.8565905e+02 </wgt>
<wgt id='2017'> +2.8133272e+02 </wgt>
<wgt id='2018'> +2.8094777e+02 </wgt>
<wgt id='2019'> +2.8607036e+02 </wgt>
<wgt id='2020'> +2.7804441e+02 </wgt>
<wgt id='2021'> +2.8872499e+02 </wgt>
<wgt id='2022'> +2.8117459e+02 </wgt>
<wgt id='2023'> +2.8601351e+02 </wgt>
<wgt id='2024'> +2.8342790e+02 </wgt>
<wgt id='2025'> +2.8474502e+02 </wgt>
<wgt id='2026'> +2.7993867e+02 </wgt>
<wgt id='2027'> +2.8455134e+02 </wgt>
<wgt id='2028'> +2.8243664e+02 </wgt>
<wgt id='2029'> +2.7608901e+02 </wgt>
<wgt id='2030'> +2.8244596e+02 </wgt>
<wgt id='2031'> +2.8326056e+02 </wgt>
<wgt id='2032'> +2.8450684e+02 </wgt>
<wgt id='2033'> +2.8532158e+02 </wgt>
<wgt id='2034'> +2.7229807e+02 </wgt>
<wgt id='2035'> +2.8316504e+02 </wgt>
<wgt id='2036'> +2.8450268e+02 </wgt>
<wgt id='2037'> +2.8663211e+02 </wgt>
<wgt id='2038'> +2.8226932e+02 </wgt>
<wgt id='2039'> +2.8224290e+02 </wgt>
<wgt id='2040'> +2.8221611e+02 </wgt>
<wgt id='2041'> +2.8218925e+02 </wgt>
<wgt id='2042'> +2.8216266e+02 </wgt>
<wgt id='2043'> +2.8213558e+02 </wgt>
<wgt id='2044'> +2.8210911e+02 </wgt>
<wgt id='2045'> +2.8208259e+02 </wgt>
<wgt id='2046'> +2.8205607e+02 </wgt>
<wgt id='2047'> +2.8202952e+02 </wgt>
<wgt id='2048'> +2.8200237e+02 </wgt>
<wgt id='2049'> +2.8197602e+02 </wgt>
<wgt id='2050'> +2.8194941e+02 </wgt>
<wgt id='2051'> +2.8192229e+02 </wgt>
<wgt id='2052'> +2.8189579e+02 </wgt>
<wgt id='2053'> +2.8186890e+02 </wgt>
<wgt id='2054'> +2.8184223e+02 </wgt>
<wgt id='2055'> +2.8181569e+02 </wgt>
<wgt id='2056'> +2.8178884e+02 </wgt>
<wgt id='2057'> +2.8176205e+02 </wgt>
<wgt id='2058'> +2.8173523e+02 </wgt>
<wgt id='2059'> +2.8170936e+02 </wgt>
<wgt id='2060'> +2.8168262e+02 </wgt>
<wgt id='2061'> +2.8165576e+02 </wgt>
<wgt id='2062'> +2.8162894e+02 </wgt>
<wgt id='2063'> +2.8160211e+02 </wgt>
<wgt id='2064'> +2.8157575e+02 </wgt>
<wgt id='2065'> +2.8154896e+02 </wgt>
<wgt id='2066'> +2.8152205e+02 </wgt>
<wgt id='2067'> +2.8149559e+02 </wgt>
<wgt id='2068'> +2.8146848e+02 </wgt>
<wgt id='2069'> +2.8484181e+02 </wgt>
<wgt id='2070'> +2.8461427e+02 </wgt>
<wgt id='2071'> +2.8528687e+02 </wgt>
<wgt id='2072'> +2.8402447e+02 </wgt>
<wgt id='2073'> +2.8570133e+02 </wgt>
<wgt id='2074'> +2.8667455e+02 </wgt>
<wgt id='2075'> +2.8529668e+02 </wgt>
<wgt id='2076'> +2.8299037e+02 </wgt>
<wgt id='2077'> +2.8407467e+02 </wgt>
<wgt id='2078'> +2.8515027e+02 </wgt>
<wgt id='2079'> +2.8316933e+02 </wgt>
<wgt id='2080'> +2.8686956e+02 </wgt>
<wgt id='2081'> +2.8802108e+02 </wgt>
<wgt id='2082'> +2.8504810e+02 </wgt>
<wgt id='2083'> +2.8627454e+02 </wgt>
<wgt id='2084'> +2.8317243e+02 </wgt>
<wgt id='2085'> +2.8807869e+02 </wgt>
<wgt id='2086'> +2.8184603e+02 </wgt>
<wgt id='2087'> +2.8556229e+02 </wgt>
<wgt id='2088'> +2.8617556e+02 </wgt>
<wgt id='2089'> +2.8847999e+02 </wgt>
<wgt id='2090'> +2.8404503e+02 </wgt>
<wgt id='2091'> +2.8559048e+02 </wgt>
<wgt id='2092'> +2.8231879e+02 </wgt>
<wgt id='2093'> +2.8355063e+02 </wgt>
<wgt id='2094'> +2.8621897e+02 </wgt>
<wgt id='2095'> +2.8474514e+02 </wgt>
<wgt id='2096'> +2.8444411e+02 </wgt>
<wgt id='2097'> +2.8526388e+02 </wgt>
<wgt id='2098'> +2.8498114e+02 </wgt>
<wgt id='2099'> +2.8474847e+02 </wgt>
<wgt id='2100'> +2.8457780e+02 </wgt>
<wgt id='2101'> +2.8516439e+02 </wgt>
<wgt id='2102'> +2.8518777e+02 </wgt>
<wgt id='2103'> +2.8494179e+02 </wgt>
<wgt id='2104'> +2.8508303e+02 </wgt>
<wgt id='2105'> +2.8496859e+02 </wgt>
<wgt id='2106'> +2.8510878e+02 </wgt>
<wgt id='2107'> +2.8514068e+02 </wgt>
<wgt id='2108'> +2.8493377e+02 </wgt>
<wgt id='2109'> +2.8455716e+02 </wgt>
<wgt id='2110'> +2.8490561e+02 </wgt>
<wgt id='2111'> +2.8508228e+02 </wgt>
<wgt id='2112'> +2.8447064e+02 </wgt>
<wgt id='2113'> +2.8493805e+02 </wgt>
<wgt id='2114'> +2.8506595e+02 </wgt>
<wgt id='2115'> +2.8445972e+02 </wgt>
<wgt id='2116'> +2.8496186e+02 </wgt>
<wgt id='2117'> +2.8505180e+02 </wgt>
<wgt id='2118'> +2.8467601e+02 </wgt>
<wgt id='2119'> +2.8485295e+02 </wgt>
<wgt id='2120'> +2.8506285e+02 </wgt>
<wgt id='2121'> +2.8511231e+02 </wgt>
<wgt id='2122'> +2.8482499e+02 </wgt>
<wgt id='2123'> +2.8466361e+02 </wgt>
<wgt id='2124'> +2.8464307e+02 </wgt>
<wgt id='2125'> +2.8501522e+02 </wgt>
<wgt id='2126'> +2.8486022e+02 </wgt>
<wgt id='2127'> +2.8449751e+02 </wgt>
<wgt id='2128'> +2.8464851e+02 </wgt>
<wgt id='2129'> +2.8470260e+02 </wgt>
<wgt id='2130'> +2.8484117e+02 </wgt>
<wgt id='2131'> +2.8488792e+02 </wgt>
<wgt id='2132'> +2.8491610e+02 </wgt>
<wgt id='2133'> +2.8488292e+02 </wgt>
<wgt id='2134'> +2.8476393e+02 </wgt>
<wgt id='2135'> +2.8479900e+02 </wgt>
<wgt id='2136'> +2.8494306e+02 </wgt>
<wgt id='2137'> +2.8487183e+02 </wgt>
<wgt id='2138'> +2.8510854e+02 </wgt>
<wgt id='2139'> +2.8476136e+02 </wgt>
<wgt id='2140'> +2.8506301e+02 </wgt>
<wgt id='2141'> +2.8507324e+02 </wgt>
<wgt id='2142'> +2.8477571e+02 </wgt>
<wgt id='2143'> +2.8488354e+02 </wgt>
<wgt id='2144'> +2.8480498e+02 </wgt>
<wgt id='2145'> +2.8482073e+02 </wgt>
<wgt id='2146'> +2.8493272e+02 </wgt>
<wgt id='2147'> +2.8486789e+02 </wgt>
<wgt id='2148'> +2.8480909e+02 </wgt>
<wgt id='2149'> +2.8515586e+02 </wgt>
<wgt id='2150'> +2.8485756e+02 </wgt>
<wgt id='2151'> +2.8494594e+02 </wgt>
<wgt id='2152'> +2.8474900e+02 </wgt>
<wgt id='2153'> +2.8470623e+02 </wgt>
<wgt id='2154'> +2.8467727e+02 </wgt>
<wgt id='2155'> +2.8493204e+02 </wgt>
<wgt id='2156'> +2.8452205e+02 </wgt>
<wgt id='2157'> +2.8470215e+02 </wgt>
<wgt id='2158'> +2.8471354e+02 </wgt>
<wgt id='2159'> +2.8488415e+02 </wgt>
<wgt id='2160'> +2.8476601e+02 </wgt>
<wgt id='2161'> +2.8480136e+02 </wgt>
<wgt id='2162'> +2.8476101e+02 </wgt>
<wgt id='2163'> +2.8476542e+02 </wgt>
<wgt id='2164'> +2.8487424e+02 </wgt>
<wgt id='2165'> +2.8478309e+02 </wgt>
<wgt id='2166'> +2.8487847e+02 </wgt>
<wgt id='2167'> +2.8481108e+02 </wgt>
<wgt id='2168'> +2.8475830e+02 </wgt>
<wgt id='2169'> +2.8484975e+02 </wgt>
<wgt id='2170'> +2.8483836e+02 </wgt>
<wgt id='2171'> +2.8481911e+02 </wgt>
<wgt id='2172'> +2.8484541e+02 </wgt>
<wgt id='2173'> +2.8484599e+02 </wgt>
<wgt id='2174'> +2.8485233e+02 </wgt>
<wgt id='2175'> +2.8484334e+02 </wgt>
<wgt id='2176'> +2.8482665e+02 </wgt>
<wgt id='2177'> +3.0466740e+02 </wgt>
<wgt id='2178'> +3.0676758e+02 </wgt>
<wgt id='2179'> +3.0722546e+02 </wgt>
<wgt id='2180'> +3.1416715e+02 </wgt>
<wgt id='2181'> +2.9421449e+02 </wgt>
<wgt id='2182'> +3.0019521e+02 </wgt>
<wgt id='2183'> +3.0863801e+02 </wgt>
<wgt id='2184'> +3.0314127e+02 </wgt>
<wgt id='2185'> +3.0815228e+02 </wgt>
<wgt id='2186'> +3.1144032e+02 </wgt>
<wgt id='2187'> +3.0146904e+02 </wgt>
<wgt id='2188'> +2.8489034e+02 </wgt>
<wgt id='2189'> +3.0761945e+02 </wgt>
<wgt id='2190'> +2.9850469e+02 </wgt>
<wgt id='2191'> +3.0670343e+02 </wgt>
<wgt id='2192'> +3.1310259e+02 </wgt>
<wgt id='2193'> +3.1120276e+02 </wgt>
<wgt id='2194'> +3.1142300e+02 </wgt>
<wgt id='2195'> +3.1283357e+02 </wgt>
<wgt id='2196'> +3.0670555e+02 </wgt>
<wgt id='2197'> +3.2226629e+02 </wgt>
<wgt id='2198'> +3.0328446e+02 </wgt>
<wgt id='2199'> +2.9953821e+02 </wgt>
<wgt id='2200'> +3.1338936e+02 </wgt>
<wgt id='2201'> +3.0360716e+02 </wgt>
<wgt id='2202'> +3.0027639e+02 </wgt>
<wgt id='2203'> +3.0407002e+02 </wgt>
<wgt id='2204'> +3.1181596e+02 </wgt>
<wgt id='2205'> +3.0218364e+02 </wgt>
<wgt id='2206'> +3.1579153e+02 </wgt>
<wgt id='2207'> +3.1407556e+02 </wgt>
<wgt id='2208'> +2.9810098e+02 </wgt>
<wgt id='2209'> +2.9619828e+02 </wgt>
<wgt id='2210'> +2.9459138e+02 </wgt>
<wgt id='2211'> +3.0039668e+02 </wgt>
<wgt id='2212'> +3.1413068e+02 </wgt>
<wgt id='2213'> +3.0215254e+02 </wgt>
<wgt id='2214'> +3.1066805e+02 </wgt>
<wgt id='2215'> +3.0824458e+02 </wgt>
<wgt id='2216'> +3.0359436e+02 </wgt>
<wgt id='2217'> +2.9790730e+02 </wgt>
<wgt id='2218'> +3.0557240e+02 </wgt>
<wgt id='2219'> +2.9919138e+02 </wgt>
<wgt id='2220'> +2.9713400e+02 </wgt>
<wgt id='2221'> +3.0585824e+02 </wgt>
<wgt id='2222'> +3.0327203e+02 </wgt>
<wgt id='2223'> +3.0931330e+02 </wgt>
<wgt id='2224'> +3.0305955e+02 </wgt>
<wgt id='2225'> +3.0580409e+02 </wgt>
<wgt id='2226'> +3.0445823e+02 </wgt>
<wgt id='2227'> +3.0010622e+02 </wgt>
<wgt id='2228'> +3.0044452e+02 </wgt>
<wgt id='2229'> +3.0127147e+02 </wgt>
<wgt id='2230'> +3.0716510e+02 </wgt>
<wgt id='2231'> +2.9646182e+02 </wgt>
<wgt id='2232'> +2.9737866e+02 </wgt>
<wgt id='2233'> +3.0782327e+02 </wgt>
<wgt id='2234'> +3.0376427e+02 </wgt>
<wgt id='2235'> +2.9840121e+02 </wgt>
<wgt id='2236'> +3.1621587e+02 </wgt>
<wgt id='2237'> +3.0305887e+02 </wgt>
<wgt id='2238'> +3.0358048e+02 </wgt>
<wgt id='2239'> +3.1175326e+02 </wgt>
<wgt id='2240'> +2.9525054e+02 </wgt>
<wgt id='2241'> +3.0648875e+02 </wgt>
<wgt id='2242'> +3.0270266e+02 </wgt>
<wgt id='2243'> +3.0148083e+02 </wgt>
<wgt id='2244'> +3.2622385e+02 </wgt>
<wgt id='2245'> +3.0313520e+02 </wgt>
<wgt id='2246'> +2.9430346e+02 </wgt>
<wgt id='2247'> +2.9389325e+02 </wgt>
<wgt id='2248'> +2.9824834e+02 </wgt>
<wgt id='2249'> +3.0647020e+02 </wgt>
<wgt id='2250'> +3.0181297e+02 </wgt>
<wgt id='2251'> +3.0753847e+02 </wgt>
<wgt id='2252'> +3.0434996e+02 </wgt>
<wgt id='2253'> +2.9333499e+02 </wgt>
<wgt id='2254'> +2.9655545e+02 </wgt>
<wgt id='2255'> +3.0396317e+02 </wgt>
<wgt id='2256'> +3.0299954e+02 </wgt>
<wgt id='2257'> +2.9873419e+02 </wgt>
<wgt id='2258'> +3.0390863e+02 </wgt>
<wgt id='2259'> +2.9608488e+02 </wgt>
<wgt id='2260'> +3.1919725e+02 </wgt>
<wgt id='2261'> +3.0339033e+02 </wgt>
<wgt id='2262'> +3.0578442e+02 </wgt>
<wgt id='2263'> +3.0149021e+02 </wgt>
<wgt id='2264'> +3.0839270e+02 </wgt>
<wgt id='2265'> +3.0472254e+02 </wgt>
<wgt id='2266'> +3.1651648e+02 </wgt>
<wgt id='2267'> +2.9870337e+02 </wgt>
<wgt id='2268'> +3.0232428e+02 </wgt>
<wgt id='2269'> +3.0037925e+02 </wgt>
<wgt id='2270'> +3.0958690e+02 </wgt>
<wgt id='2271'> +3.1283910e+02 </wgt>
<wgt id='2272'> +3.0611690e+02 </wgt>
<wgt id='2273'> +3.0629329e+02 </wgt>
<wgt id='2274'> +3.0533089e+02 </wgt>
<wgt id='2275'> +3.0322783e+02 </wgt>
<wgt id='2276'> +3.0733589e+02 </wgt>
<wgt id='2277'> +3.1309200e+02 </wgt>
<wgt id='2278'> +2.9558193e+02 </wgt>
<wgt id='2279'> +3.1188101e+02 </wgt>
<wgt id='2280'> +2.9243135e+02 </wgt>
<wgt id='2281'> +2.7484713e+02 </wgt>
<wgt id='2282'> +3.9357777e+02 </wgt>
<wgt id='2283'> +3.1181027e+02 </wgt>
<wgt id='2284'> +3.8224893e+02 </wgt>
</rwgt>
</event>
<event npLO=" -1 " npNLO=" 1 ">
 4      1 +2.8781417e+02 1.35591200e+01 7.54677110e-03 1.20267810e-01
       21 -1    0    0  502  501 +0.0000000000e+00 +0.0000000000e+00 +2.3826829000e+02 2.3826829000e+02 0.0000000000e+00 0.0000e+00 9.0000e+00
       21 -1    0    0  503  502 +0.0000000000e+00 +0.0000000000e+00 -1.5415507000e+02 1.5415507000e+02 0.0000000000e+00 0.0000e+00 9.0000e+00
       25  1    1    2    0    0 -9.7726255000e+00 -9.3992298000e+00 +2.2724823000e+02 2.4864755000e+02 1.0000000000e+02 0.0000e+00 9.0000e+00
       21  1    1    2  503  501 +9.7726255000e+00 +9.3992298000e+00 -1.4313501000e+02 1.4377580000e+02 0.0000000000e+00 0.0000e+00 9.0000e+00
#aMCatNLO 1  0  0  1  4 0.33867195E+00 0.00000000E+00 -9  5  0 0.00000000E+00 0.00000000E+00 0.00000000E+00 0.00000000E+00 0.00000000E+00
<rwgt>
<wgt id='1001'> +2.8781417e+02 </wgt>
<wgt id='1002'> +2.1812050e+02 </wgt>
<wgt id='1003'> +3.8994311e+02 </wgt>
<wgt id='1004'> +2.8065512e+02 </wgt>
<wgt id='1005'> +2.1247523e+02 </wgt>
<wgt id='1006'> +3.8079913e+02 </wgt>
<wgt id='1007'> +2.9138659e+02 </wgt>
<wgt id='1008'> +2.2105933e+02 </wgt>
<wgt id='1009'> +3.9419824e+02 </wgt>
<wgt id='1010'> +2.8781417e+02 </wgt>
<wgt id='1011'> +2.8851528e+02 </wgt>
<wgt id='1012'> +2.8692505e+02 </wgt>
<wgt id='1013'> +2.8712850e+02 </wgt>
<wgt id='1014'> +2.8850323e+02 </wgt>
<wgt id='1015'> +2.8861319e+02 </wgt>
<wgt id='1016'> +2.8874366e+02 </wgt>
<wgt id='1017'> +2.8931972e+02 </wgt>
<wgt id='1018'> +2.9026574e+02 </wgt>
<wgt id='1019'> +2.8722901e+02 </wgt>
<wgt id='1020'> +2.8767233e+02 </wgt>
<wgt id='1021'> +2.8530315e+02 </wgt>
<wgt id='1022'> +2.8908535e+02 </wgt>
<wgt id='1023'> +2.8809463e+02 </wgt>
<wgt id='1024'> +2.8861256e+02 </wgt>
<wgt id='1025'> +2.8836518e+02 </wgt>
<wgt id='1026'> +2.8758016e+02 </wgt>
<wgt id='1027'> +2.8699437e+02 </wgt>
<wgt id='1028'> +2.8838465e+02 </wgt>
<wgt id='1029'> +2.9031736e+02 </wgt>
<wgt id='1030'> +2.8648294e+02 </wgt>
<wgt id='1031'> +2.8844993e+02 </wgt>
<wgt id='1032'> +2.8688667e+02 </wgt>
<wgt id='1033'> +2.8798364e+02 </wgt>
<wgt id='1034'> +2.8788983e+02 </wgt>
<wgt id='1035'> +2.8757181e+02 </wgt>
<wgt id='1036'> +2.8743670e+02 </wgt>
<wgt id='1037'> +2.8696791e+02 </wgt>
<wgt id='1038'> +2.8838523e+02 </wgt>
<wgt id='1039'> +2.8693249e+02 </wgt>
<wgt id='1040'> +2.8771617e+02 </wgt>
<wgt id='1041'> +2.8693663e+02 </wgt>
<wgt id='1042'> +2.8797696e+02 </wgt>
<wgt id='1043'> +2.8742041e+02 </wgt>
<wgt id='1044'> +2.8742036e+02 </wgt>
<wgt id='1045'> +2.8781157e+02 </wgt>
<wgt id='1046'> +2.8827299e+02 </wgt>
<wgt id='1047'> +2.8782033e+02 </wgt>
<wgt id='1048'> +2.8779609e+02 </wgt>
<wgt id='1049'> +2.8785139e+02 </wgt>
<wgt id='1050'> +2.8772494e+02 </wgt>
<wgt id='1051'> +2.8791307e+02 </wgt>
<wgt id='1052'> +2.8795160e+02 </wgt>
<wgt id='1053'> +2.8758753e+02 </wgt>
<wgt id='1054'> +2.8800331e+02 </wgt>
<wgt id='1055'> +2.8786394e+02 </wgt>
<wgt id='1056'> +2.8790504e+02 </wgt>
<wgt id='1057'> +2.8776172e+02 </wgt>
<wgt id='1058'> +2.8770383e+02 </wgt>
<wgt id='1059'> +2.8763573e+02 </wgt>
<wgt id='1060'> +2.8774351e+02 </wgt>
<wgt id='1061'> +2.8778267e+02 </wgt>
<wgt id='1062'> +2.8797303e+02 </wgt>
<wgt id='1063'> +2.8773784e+02 </wgt>
<wgt id='1064'> +2.8781108e+02 </wgt>
<wgt id='1065'> +2.8791710e+02 </wgt>
<wgt id='1066'> +2.8773724e+02 </wgt>
<wgt id='1067'> +2.8792413e+02 </wgt>
<wgt id='1068'> +2.8781822e+02 </wgt>
<wgt id='1069'> +2.8787830e+02 </wgt>
<wgt id='1070'> +2.8783408e+02 </wgt>
<wgt id='1071'> +2.8778066e+02 </wgt>
<wgt id='1072'> +2.8803251e+02 </wgt>
<wgt id='1073'> +2.8786542e+02 </wgt>
<wgt id='1074'> +2.8788867e+02 </wgt>
<wgt id='1075'> +2.8802487e+02 </wgt>
<wgt id='1076'> +2.8786000e+02 </wgt>
<wgt id='1077'> +2.8790855e+02 </wgt>
<wgt id='1078'> +2.8784839e+02 </wgt>
<wgt id='1079'> +2.8784397e+02 </wgt>
<wgt id='1080'> +2.8783924e+02 </wgt>
<wgt id='1081'> +2.8785469e+02 </wgt>
<wgt id='1082'> +2.8782359e+02 </wgt>
<wgt id='1083'> +2.8787706e+02 </wgt>
<wgt id='1084'> +2.8778234e+02 </wgt>
<wgt id='1085'> +2.8776505e+02 </wgt>
<wgt id='1086'> +2.8777935e+02 </wgt>
<wgt id='1087'> +2.8797251e+02 </wgt>
<wgt id='1088'> +2.8783100e+02 </wgt>
<wgt id='1089'> +2.8776490e+02 </wgt>
<wgt id='1090'> +2.8783116e+02 </wgt>
<wgt id='1091'> +2.8776458e+02 </wgt>
<wgt id='1092'> +2.8785655e+02 </wgt>
<wgt id='1093'> +2.8788812e+02 </wgt>
<wgt id='1094'> +2.8784922e+02 </wgt>
<wgt id='1095'> +2.8779988e+02 </wgt>
<wgt id='1096'> +2.8775962e+02 </wgt>
<wgt id='1097'> +2.8785406e+02 </wgt>
<wgt id='1098'> +2.8779640e+02 </wgt>
<wgt id='1099'> +2.8780304e+02 </wgt>
<wgt id='1100'> +2.8785420e+02 </wgt>
<wgt id='1101'> +2.8781851e+02 </wgt>
<wgt id='1102'> +2.8784893e+02 </wgt>
<wgt id='1103'> +2.8776858e+02 </wgt>
<wgt id='1104'> +2.8780388e+02 </wgt>
<wgt id='1105'> +2.8783990e+02 </wgt>
<wgt id='1106'> +2.8778841e+02 </wgt>
<wgt id='1107'> +2.8782730e+02 </wgt>
<wgt id='1108'> +2.8781558e+02 </wgt>
<wgt id='1109'> +2.8785102e+02 </wgt>
<wgt id='1110'> +2.8781417e+02 </wgt>
<wgt id='1111'> +2.7176736e+02 </wgt>
<wgt id='1112'> +3.0327569e+02 </wgt>
<wgt id='1113'> +2.8781417e+02 </wgt>
<wgt id='1114'> +2.8253477e+02 </wgt>
<wgt id='1115'> +2.8666128e+02 </wgt>
<wgt id='1116'> +2.9773942e+02 </wgt>
<wgt id='1117'> +2.9074099e+02 </wgt>
<wgt id='1118'> +2.8636604e+02 </wgt>
<wgt id='1119'> +2.9146858e+02 </wgt>
<wgt id='1120'> +2.8478256e+02 </wgt>
<wgt id='1121'> +2.8360313e+02 </wgt>
<wgt id='1122'> +2.9581760e+02 </wgt>
<wgt id='1123'> +2.9451752e+02 </wgt>
<wgt id='1124'> +2.9405068e+02 </wgt>
<wgt id='1125'> +2.8578274e+02 </wgt>
<wgt id='1126'> +2.8446563e+02 </wgt>
<wgt id='1127'> +2.8182513e+02 </wgt>
<wgt id='1128'> +2.9796935e+02 </wgt>
<wgt id='1129'> +2.9606240e+02 </wgt>
<wgt id='1130'> +2.9451904e+02 </wgt>
<wgt id='1131'> +2.8656690e+02 </wgt>
<wgt id='1132'> +2.8368718e+02 </wgt>
<wgt id='1133'> +2.8844192e+02 </wgt>
<wgt id='1134'> +2.8116418e+02 </wgt>
<wgt id='1135'> +2.8312643e+02 </wgt>
<wgt id='1136'> +2.8299139e+02 </wgt>
<wgt id='1137'> +2.7975908e+02 </wgt>
<wgt id='1138'> +2.8206342e+02 </wgt>
<wgt id='1139'> +2.8754732e+02 </wgt>
<wgt id='1140'> +2.8550210e+02 </wgt>
<wgt id='1141'> +2.8374446e+02 </wgt>
<wgt id='1142'> +2.9369941e+02 </wgt>
<wgt id='1143'> +2.9696701e+02 </wgt>
<wgt id='1144'> +2.9087757e+02 </wgt>
<wgt id='1145'> +2.9135247e+02 </wgt>
<wgt id='1146'> +2.8427063e+02 </wgt>
<wgt id='1147'> +2.8283502e+02 </wgt>
<wgt id='1148'> +2.9483366e+02 </wgt>
<wgt id='1149'> +2.8362243e+02 </wgt>
<wgt id='1150'> +2.8997103e+02 </wgt>
<wgt id='1151'> +2.8685383e+02 </wgt>
<wgt id='1152'> +2.9152113e+02 </wgt>
<wgt id='1153'> +2.8634841e+02 </wgt>
<wgt id='1154'> +2.8993144e+02 </wgt>
<wgt id='1155'> +2.8093149e+02 </wgt>
<wgt id='1156'> +2.8670875e+02 </wgt>
<wgt id='1157'> +2.8328454e+02 </wgt>
<wgt id='1158'> +2.8861622e+02 </wgt>
<wgt id='1159'> +2.9002549e+02 </wgt>
<wgt id='1160'> +2.7774128e+02 </wgt>
<wgt id='1161'> +2.7709884e+02 </wgt>
<wgt id='1162'> +2.9433426e+02 </wgt>
<wgt id='1163'> +2.9221495e+02 </wgt>
<wgt id='1164'> +2.8804247e+02 </wgt>
<wgt id='1165'> +2.8211490e+02 </wgt>
<wgt id='1166'> +2.8754988e+02 </wgt>
<wgt id='1167'> +2.8994597e+02 </wgt>
<wgt id='1168'> +2.7840055e+02 </wgt>
<wgt id='1169'> +2.8495250e+02 </wgt>
<wgt id='1170'> +2.8594774e+02 </wgt>
<wgt id='1171'> +2.7943547e+02 </wgt>
<wgt id='1172'> +2.9884111e+02 </wgt>
<wgt id='1173'> +2.8865250e+02 </wgt>
<wgt id='1174'> +2.8862345e+02 </wgt>
<wgt id='1175'> +2.8615269e+02 </wgt>
<wgt id='1176'> +2.7857140e+02 </wgt>
<wgt id='1177'> +2.8420093e+02 </wgt>
<wgt id='1178'> +2.8529383e+02 </wgt>
<wgt id='1179'> +2.8805428e+02 </wgt>
<wgt id='1180'> +2.7950114e+02 </wgt>
<wgt id='1181'> +2.9375884e+02 </wgt>
<wgt id='1182'> +2.8378011e+02 </wgt>
<wgt id='1183'> +2.7890857e+02 </wgt>
<wgt id='1184'> +2.9759729e+02 </wgt>
<wgt id='1185'> +2.9582240e+02 </wgt>
<wgt id='1186'> +2.9300024e+02 </wgt>
<wgt id='1187'> +2.9832981e+02 </wgt>
<wgt id='1188'> +2.9370861e+02 </wgt>
<wgt id='1189'> +2.9630424e+02 </wgt>
<wgt id='1190'> +2.8240201e+02 </wgt>
<wgt id='1191'> +2.9454698e+02 </wgt>
<wgt id='1192'> +2.8827179e+02 </wgt>
<wgt id='1193'> +2.8286102e+02 </wgt>
<wgt id='1194'> +2.7751875e+02 </wgt>
<wgt id='1195'> +2.9606240e+02 </wgt>
<wgt id='1196'> +2.8666566e+02 </wgt>
<wgt id='1197'> +2.8909648e+02 </wgt>
<wgt id='1198'> +3.0227380e+02 </wgt>
<wgt id='1199'> +2.7569151e+02 </wgt>
<wgt id='1200'> +2.9366399e+02 </wgt>
<wgt id='1201'> +2.9068927e+02 </wgt>
<wgt id='1202'> +2.9942149e+02 </wgt>
<wgt id='1203'> +2.8263656e+02 </wgt>
<wgt id='1204'> +2.8322915e+02 </wgt>
<wgt id='1205'> +2.9467291e+02 </wgt>
<wgt id='1206'> +2.9244592e+02 </wgt>
<wgt id='1207'> +2.8626419e+02 </wgt>
<wgt id='1208'> +2.8406998e+02 </wgt>
<wgt id='1209'> +2.8576912e+02 </wgt>
<wgt id='1210'> +2.7950675e+02 </wgt>
<wgt id='1211'> +2.9061002e+02 </wgt>
<wgt id='1212'> +2.8581923e+02 </wgt>
<wgt id='1213'> +2.8697373e+02 </wgt>
<wgt id='1214'> +2.8786642e+02 </wgt>
<wgt id='1215'> +2.8747480e+02 </wgt>
<wgt id='1216'> +2.8852555e+02 </wgt>
<wgt id='1217'> +2.8857533e+02 </wgt>
<wgt id='1218'> +2.8844116e+02 </wgt>
<wgt id='1219'> +2.8718700e+02 </wgt>
<wgt id='1220'> +2.8683055e+02 </wgt>
<wgt id='1221'> +2.8608080e+02 </wgt>
<wgt id='1222'> +2.8617238e+02 </wgt>
<wgt id='1223'> +2.8861639e+02 </wgt>
<wgt id='1224'> +2.8806508e+02 </wgt>
<wgt id='1225'> +2.8774680e+02 </wgt>
<wgt id='1226'> +2.8880569e+02 </wgt>
<wgt id='1227'> +2.8925655e+02 </wgt>
<wgt id='1228'> +2.8969079e+02 </wgt>
<wgt id='1229'> +2.8894792e+02 </wgt>
<wgt id='1230'> +2.8788395e+02 </wgt>
<wgt id='1231'> +2.8783156e+02 </wgt>
<wgt id='1232'> +2.8936659e+02 </wgt>
<wgt id='1233'> +2.8776218e+02 </wgt>
<wgt id='1234'> +2.9003749e+02 </wgt>
<wgt id='1235'> +2.8674913e+02 </wgt>
<wgt id='1236'> +2.8941284e+02 </wgt>
<wgt id='1237'> +2.8879530e+02 </wgt>
<wgt id='1238'> +2.8797086e+02 </wgt>
<wgt id='1239'> +2.8939315e+02 </wgt>
<wgt id='1240'> +2.8882390e+02 </wgt>
<wgt id='1241'> +2.8744002e+02 </wgt>
<wgt id='1242'> +2.8726619e+02 </wgt>
<wgt id='1243'> +2.8819659e+02 </wgt>
<wgt id='1244'> +2.8807560e+02 </wgt>
<wgt id='1245'> +2.8815016e+02 </wgt>
<wgt id='1246'> +2.8786033e+02 </wgt>
<wgt id='1247'> +2.8797565e+02 </wgt>
<wgt id='1248'> +2.8799145e+02 </wgt>
<wgt id='1249'> +2.8783055e+02 </wgt>
<wgt id='1250'> +2.8784418e+02 </wgt>
<wgt id='1251'> +2.8796369e+02 </wgt>
<wgt id='1252'> +2.8792056e+02 </wgt>
<wgt id='1253'> +2.8782572e+02 </wgt>
<wgt id='1254'> +2.8778412e+02 </wgt>
<wgt id='1255'> +2.8769518e+02 </wgt>
<wgt id='1256'> +2.8755683e+02 </wgt>
<wgt id='1257'> +2.8801718e+02 </wgt>
<wgt id='1258'> +2.8805609e+02 </wgt>
<wgt id='1259'> +2.8783917e+02 </wgt>
<wgt id='1260'> +2.8808593e+02 </wgt>
<wgt id='1261'> +2.8799981e+02 </wgt>
<wgt id='1262'> +2.8785626e+02 </wgt>
<wgt id='1263'> +2.8786784e+02 </wgt>
<wgt id='1264'> +2.8803940e+02 </wgt>
<wgt id='1265'> +2.8795498e+02 </wgt>
<wgt id='1266'> +2.8772243e+02 </wgt>
<wgt id='1267'> +2.8784054e+02 </wgt>
<wgt id='1268'> +2.8792059e+02 </wgt>
<wgt id='1269'> +2.8788585e+02 </wgt>
<wgt id='1270'> +2.8789142e+02 </wgt>
<wgt id='1271'> +2.8784285e+02 </wgt>
<wgt id='1272'> +2.8791391e+02 </wgt>
<wgt id='1273'> +2.8781686e+02 </wgt>
<wgt id='1274'> +2.8789044e+02 </wgt>
<wgt id='1275'> +2.8782766e+02 </wgt>
<wgt id='1276'> +2.8792262e+02 </wgt>
<wgt id='1277'> +2.8782039e+02 </wgt>
<wgt id='1278'> +2.8781936e+02 </wgt>
<wgt id='1279'> +2.8795733e+02 </wgt>
<wgt id='1280'> +2.8784733e+02 </wgt>
<wgt id='1281'> +2.8785894e+02 </wgt>
<wgt id='1282'> +2.8793453e+02 </wgt>
<wgt id='1283'> +2.8785965e+02 </wgt>
<wgt id='1284'> +2.8782142e+02 </wgt>
<wgt id='1285'> +2.8775999e+02 </wgt>
<wgt id='1286'> +2.8788431e+02 </wgt>
<wgt id='1287'> +2.8789216e+02 </wgt>
<wgt id='1288'> +2.8780450e+02 </wgt>
<wgt id='1289'> +2.8785354e+02 </wgt>
<wgt id='1290'> +2.8786065e+02 </wgt>
<wgt id='1291'> +2.8782523e+02 </wgt>
<wgt id='1292'> +2.8786704e+02 </wgt>
<wgt id='1293'> +2.8790277e+02 </wgt>
<wgt id='1294'> +2.8786979e+02 </wgt>
<wgt id='1295'> +2.8788652e+02 </wgt>
<wgt id='1296'> +2.8789176e+02 </wgt>
<wgt id='1297'> +2.8786801e+02 </wgt>
<wgt id='1298'> +2.8787399e+02 </wgt>
<wgt id='1299'> +2.8784042e+02 </wgt>
<wgt id='1300'> +2.8786164e+02 </wgt>
<wgt id='1301'> +2.8785689e+02 </wgt>
<wgt id='1302'> +2.8787988e+02 </wgt>
<wgt id='1303'> +2.8787375e+02 </wgt>
<wgt id='1304'> +2.8787207e+02 </wgt>
<wgt id='1305'> +2.8785988e+02 </wgt>
<wgt id='1306'> +2.8787062e+02 </wgt>
<wgt id='1307'> +2.8785906e+02 </wgt>
<wgt id='1308'> +2.8787247e+02 </wgt>
<wgt id='1309'> +2.8787211e+02 </wgt>
<wgt id='1310'> +2.8785436e+02 </wgt>
<wgt id='1311'> +2.8789147e+02 </wgt>
<wgt id='1312'> +2.8783936e+02 </wgt>
<wgt id='1313'> +2.8787876e+02 </wgt>
<wgt id='1314'> +2.8786389e+02 </wgt>
<wgt id='1315'> +2.7176736e+02 </wgt>
<wgt id='1316'> +3.0327569e+02 </wgt>
<wgt id='1317'> +2.1863215e+02 </wgt>
<wgt id='1318'> +2.3083927e+02 </wgt>
<wgt id='1319'> +2.4521703e+02 </wgt>
<wgt id='1320'> +2.5989842e+02 </wgt>
<wgt id='1321'> +2.8100619e+02 </wgt>
<wgt id='1322'> +2.9647045e+02 </wgt>
<wgt id='1323'> +3.1770897e+02 </wgt>
<wgt id='1324'> +3.3421359e+02 </wgt>
<wgt id='1325'> +2.9177495e+02 </wgt>
<wgt id='1326'> +2.9246971e+02 </wgt>
<wgt id='1327'> +2.9130658e+02 </wgt>
<wgt id='1328'> +2.9256949e+02 </wgt>
<wgt id='1329'> +2.9245073e+02 </wgt>
<wgt id='1330'> +2.9324603e+02 </wgt>
<wgt id='1331'> +2.9192219e+02 </wgt>
<wgt id='1332'> +2.9311607e+02 </wgt>
<wgt id='1333'> +2.9120833e+02 </wgt>
<wgt id='1334'> +2.9281168e+02 </wgt>
<wgt id='1335'> +2.9079344e+02 </wgt>
<wgt id='1336'> +2.9152149e+02 </wgt>
<wgt id='1337'> +2.9337927e+02 </wgt>
<wgt id='1338'> +2.9065573e+02 </wgt>
<wgt id='1339'> +2.9313856e+02 </wgt>
<wgt id='1340'> +2.9170091e+02 </wgt>
<wgt id='1341'> +2.9209983e+02 </wgt>
<wgt id='1342'> +2.9322065e+02 </wgt>
<wgt id='1343'> +2.9289757e+02 </wgt>
<wgt id='1344'> +2.8987018e+02 </wgt>
<wgt id='1345'> +2.9035774e+02 </wgt>
<wgt id='1346'> +2.8985058e+02 </wgt>
<wgt id='1347'> +2.9163618e+02 </wgt>
<wgt id='1348'> +2.9074322e+02 </wgt>
<wgt id='1349'> +2.9054633e+02 </wgt>
<wgt id='1350'> +2.9173820e+02 </wgt>
<wgt id='1351'> +2.9259077e+02 </wgt>
<wgt id='1352'> +2.9189042e+02 </wgt>
<wgt id='1353'> +2.9054736e+02 </wgt>
<wgt id='1354'> +2.9163162e+02 </wgt>
<wgt id='1355'> +2.9217778e+02 </wgt>
<wgt id='1356'> +2.9192481e+02 </wgt>
<wgt id='1357'> +2.9204921e+02 </wgt>
<wgt id='1358'> +2.9200438e+02 </wgt>
<wgt id='1359'> +2.9198535e+02 </wgt>
<wgt id='1360'> +2.9202660e+02 </wgt>
<wgt id='1361'> +2.9185556e+02 </wgt>
<wgt id='1362'> +2.9176359e+02 </wgt>
<wgt id='1363'> +2.9175209e+02 </wgt>
<wgt id='1364'> +2.9191781e+02 </wgt>
<wgt id='1365'> +2.9174374e+02 </wgt>
<wgt id='1366'> +2.9171773e+02 </wgt>
<wgt id='1367'> +2.9149647e+02 </wgt>
<wgt id='1368'> +2.9150005e+02 </wgt>
<wgt id='1369'> +2.9194826e+02 </wgt>
<wgt id='1370'> +2.9198551e+02 </wgt>
<wgt id='1371'> +2.9185163e+02 </wgt>
<wgt id='1372'> +2.9169435e+02 </wgt>
<wgt id='1373'> +2.9190474e+02 </wgt>
<wgt id='1374'> +2.9168093e+02 </wgt>
<wgt id='1375'> +2.9174300e+02 </wgt>
<wgt id='1376'> +2.9206234e+02 </wgt>
<wgt id='1377'> +2.9173019e+02 </wgt>
<wgt id='1378'> +2.9173413e+02 </wgt>
<wgt id='1379'> +2.9171989e+02 </wgt>
<wgt id='1380'> +2.9183911e+02 </wgt>
<wgt id='1381'> +2.9185215e+02 </wgt>
<wgt id='1382'> +2.9173833e+02 </wgt>
<wgt id='1383'> +2.9168766e+02 </wgt>
<wgt id='1384'> +2.9181727e+02 </wgt>
<wgt id='1385'> +2.9181891e+02 </wgt>
<wgt id='1386'> +2.9193129e+02 </wgt>
<wgt id='1387'> +2.9181758e+02 </wgt>
<wgt id='1388'> +2.9181991e+02 </wgt>
<wgt id='1389'> +2.9176118e+02 </wgt>
<wgt id='1390'> +2.9179652e+02 </wgt>
<wgt id='1391'> +2.9183092e+02 </wgt>
<wgt id='1392'> +2.9166572e+02 </wgt>
<wgt id='1393'> +2.9177749e+02 </wgt>
<wgt id='1394'> +2.9168721e+02 </wgt>
<wgt id='1395'> +2.9168439e+02 </wgt>
<wgt id='1396'> +2.9176681e+02 </wgt>
<wgt id='1397'> +2.9184118e+02 </wgt>
<wgt id='1398'> +2.9176516e+02 </wgt>
<wgt id='1399'> +2.9182578e+02 </wgt>
<wgt id='1400'> +2.9180592e+02 </wgt>
<wgt id='1401'> +2.9178175e+02 </wgt>
<wgt id='1402'> +2.9177342e+02 </wgt>
<wgt id='1403'> +2.9183161e+02 </wgt>
<wgt id='1404'> +2.9177303e+02 </wgt>
<wgt id='1405'> +2.9173816e+02 </wgt>
<wgt id='1406'> +2.9176590e+02 </wgt>
<wgt id='1407'> +2.9175264e+02 </wgt>
<wgt id='1408'> +2.9176232e+02 </wgt>
<wgt id='1409'> +2.9173649e+02 </wgt>
<wgt id='1410'> +2.9178897e+02 </wgt>
<wgt id='1411'> +2.9176836e+02 </wgt>
<wgt id='1412'> +2.9175945e+02 </wgt>
<wgt id='1413'> +2.9175860e+02 </wgt>
<wgt id='1414'> +2.9177827e+02 </wgt>
<wgt id='1415'> +2.9179199e+02 </wgt>
<wgt id='1416'> +2.9178667e+02 </wgt>
<wgt id='1417'> +2.9177340e+02 </wgt>
<wgt id='1418'> +2.9176859e+02 </wgt>
<wgt id='1419'> +2.9181031e+02 </wgt>
<wgt id='1420'> +2.9178604e+02 </wgt>
<wgt id='1421'> +2.9176613e+02 </wgt>
<wgt id='1422'> +2.9174449e+02 </wgt>
<wgt id='1423'> +2.9177232e+02 </wgt>
<wgt id='1424'> +2.9179844e+02 </wgt>
<wgt id='1425'> +2.9179290e+02 </wgt>
<wgt id='1426'> +2.7648820e+02 </wgt>
<wgt id='1427'> +3.0830455e+02 </wgt>
<wgt id='1428'> +2.7883911e+02 </wgt>
<wgt id='1429'> +2.7831627e+02 </wgt>
<wgt id='1430'> +2.7915707e+02 </wgt>
<wgt id='1431'> +2.7739297e+02 </wgt>
<wgt id='1432'> +2.7858820e+02 </wgt>
<wgt id='1433'> +2.6974872e+02 </wgt>
<wgt id='1434'> +2.7832192e+02 </wgt>
<wgt id='1435'> +2.7821981e+02 </wgt>
<wgt id='1436'> +2.7613200e+02 </wgt>
<wgt id='1437'> +2.8099041e+02 </wgt>
<wgt id='1438'> +2.7690313e+02 </wgt>
<wgt id='1439'> +2.7846469e+02 </wgt>
<wgt id='1440'> +2.7932610e+02 </wgt>
<wgt id='1441'> +2.7502027e+02 </wgt>
<wgt id='1442'> +2.8306573e+02 </wgt>
<wgt id='1443'> +2.8076606e+02 </wgt>
<wgt id='1444'> +2.7328603e+02 </wgt>
<wgt id='1445'> +2.7587611e+02 </wgt>
<wgt id='1446'> +2.8190826e+02 </wgt>
<wgt id='1447'> +2.8245152e+02 </wgt>
<wgt id='1448'> +2.7541196e+02 </wgt>
<wgt id='1449'> +2.7942742e+02 </wgt>
<wgt id='1450'> +2.7845662e+02 </wgt>
<wgt id='1451'> +2.7801197e+02 </wgt>
<wgt id='1452'> +2.7967382e+02 </wgt>
<wgt id='1453'> +2.7975090e+02 </wgt>
<wgt id='1454'> +2.7807436e+02 </wgt>
<wgt id='1455'> +2.8148586e+02 </wgt>
<wgt id='1456'> +2.7438335e+02 </wgt>
<wgt id='1457'> +2.7356872e+02 </wgt>
<wgt id='1458'> +2.8208202e+02 </wgt>
<wgt id='1459'> +2.7549220e+02 </wgt>
<wgt id='1460'> +2.8376764e+02 </wgt>
<wgt id='1461'> +2.7792548e+02 </wgt>
<wgt id='1462'> +2.7951139e+02 </wgt>
<wgt id='1463'> +2.7890004e+02 </wgt>
<wgt id='1464'> +2.7842309e+02 </wgt>
<wgt id='1465'> +2.7365562e+02 </wgt>
<wgt id='1466'> +2.8445898e+02 </wgt>
<wgt id='1467'> +2.8595375e+02 </wgt>
<wgt id='1468'> +2.7500364e+02 </wgt>
<wgt id='1469'> +2.7702689e+02 </wgt>
<wgt id='1470'> +2.7880710e+02 </wgt>
<wgt id='1471'> +2.8134185e+02 </wgt>
<wgt id='1472'> +2.7324383e+02 </wgt>
<wgt id='1473'> +2.9166808e+02 </wgt>
<wgt id='1474'> +2.6965096e+02 </wgt>
<wgt id='1475'> +2.8485805e+02 </wgt>
<wgt id='1476'> +2.7505894e+02 </wgt>
<wgt id='1477'> +2.7949197e+02 </wgt>
<wgt id='1478'> +2.7841510e+02 </wgt>
<wgt id='1479'> +2.7909027e+02 </wgt>
<wgt id='1480'> +2.7882649e+02 </wgt>
<wgt id='1481'> +2.7933742e+02 </wgt>
<wgt id='1482'> +2.8394349e+02 </wgt>
<wgt id='1483'> +2.7657132e+02 </wgt>
<wgt id='1484'> +2.8299951e+02 </wgt>
<wgt id='1485'> +2.6352609e+02 </wgt>
<wgt id='1486'> +2.9390412e+02 </wgt>
<wgt id='1487'> +2.7765254e+02 </wgt>
<wgt id='1488'> +2.7778313e+02 </wgt>
<wgt id='1489'> +2.7807384e+02 </wgt>
<wgt id='1490'> +2.8177874e+02 </wgt>
<wgt id='1491'> +2.7197963e+02 </wgt>
<wgt id='1492'> +2.7711760e+02 </wgt>
<wgt id='1493'> +2.7812791e+02 </wgt>
<wgt id='1494'> +2.8299723e+02 </wgt>
<wgt id='1495'> +2.7258370e+02 </wgt>
<wgt id='1496'> +2.7379258e+02 </wgt>
<wgt id='1497'> +2.7890501e+02 </wgt>
<wgt id='1498'> +2.8525234e+02 </wgt>
<wgt id='1499'> +2.7263074e+02 </wgt>
<wgt id='1500'> +2.7043358e+02 </wgt>
<wgt id='1501'> +2.8191928e+02 </wgt>
<wgt id='1502'> +2.8299278e+02 </wgt>
<wgt id='1503'> +2.7396962e+02 </wgt>
<wgt id='1504'> +2.7286964e+02 </wgt>
<wgt id='1505'> +2.8330636e+02 </wgt>
<wgt id='1506'> +2.8263090e+02 </wgt>
<wgt id='1507'> +2.7237957e+02 </wgt>
<wgt id='1508'> +2.7919366e+02 </wgt>
<wgt id='1509'> +2.7462954e+02 </wgt>
<wgt id='1510'> +2.7567903e+02 </wgt>
<wgt id='1511'> +2.7958724e+02 </wgt>
<wgt id='1512'> +2.7916215e+02 </wgt>
<wgt id='1513'> +2.7599878e+02 </wgt>
<wgt id='1514'> +2.7711145e+02 </wgt>
<wgt id='1515'> +2.7842090e+02 </wgt>
<wgt id='1516'> +2.7565807e+02 </wgt>
<wgt id='1517'> +2.7835901e+02 </wgt>
<wgt id='1518'> +2.7880538e+02 </wgt>
<wgt id='1519'> +2.7615513e+02 </wgt>
<wgt id='1520'> +2.7566034e+02 </wgt>
<wgt id='1521'> +2.8198391e+02 </wgt>
<wgt id='1522'> +2.7853381e+02 </wgt>
<wgt id='1523'> +2.7687374e+02 </wgt>
<wgt id='1524'> +2.7974326e+02 </wgt>
<wgt id='1525'> +2.7448979e+02 </wgt>
<wgt id='1526'> +2.7823715e+02 </wgt>
<wgt id='1527'> +2.7724266e+02 </wgt>
<wgt id='1528'> +2.7901412e+02 </wgt>
<wgt id='1529'> +2.7663296e+02 </wgt>
<wgt id='1530'> +2.8123570e+02 </wgt>
<wgt id='1531'> +2.7638652e+02 </wgt>
<wgt id='1532'> +2.7281474e+02 </wgt>
<wgt id='1533'> +2.7815092e+02 </wgt>
<wgt id='1534'> +2.7429557e+02 </wgt>
<wgt id='1535'> +2.7571238e+02 </wgt>
<wgt id='1536'> +2.7437494e+02 </wgt>
<wgt id='1537'> +2.7228987e+02 </wgt>
<wgt id='1538'> +2.7772826e+02 </wgt>
<wgt id='1539'> +2.7751631e+02 </wgt>
<wgt id='1540'> +2.7180388e+02 </wgt>
<wgt id='1541'> +2.8175513e+02 </wgt>
<wgt id='1542'> +2.7451400e+02 </wgt>
<wgt id='1543'> +2.8229183e+02 </wgt>
<wgt id='1544'> +2.6237377e+02 </wgt>
<wgt id='1545'> +2.9309448e+02 </wgt>
<wgt id='1546'> +2.3976686e+02 </wgt>
<wgt id='1547'> +2.8697502e+02 </wgt>
<wgt id='1548'> +2.8710181e+02 </wgt>
<wgt id='1549'> +2.8685478e+02 </wgt>
<wgt id='1550'> +2.8727262e+02 </wgt>
<wgt id='1551'> +2.8677998e+02 </wgt>
<wgt id='1552'> +2.8851699e+02 </wgt>
<wgt id='1553'> +2.8555530e+02 </wgt>
<wgt id='1554'> +2.8558662e+02 </wgt>
<wgt id='1555'> +2.8853518e+02 </wgt>
<wgt id='1556'> +2.8750137e+02 </wgt>
<wgt id='1557'> +2.8646552e+02 </wgt>
<wgt id='1558'> +2.8743057e+02 </wgt>
<wgt id='1559'> +2.8599029e+02 </wgt>
<wgt id='1560'> +2.8678562e+02 </wgt>
<wgt id='1561'> +2.8731680e+02 </wgt>
<wgt id='1562'> +2.8621345e+02 </wgt>
<wgt id='1563'> +2.8740855e+02 </wgt>
<wgt id='1564'> +2.8552793e+02 </wgt>
<wgt id='1565'> +2.8868554e+02 </wgt>
<wgt id='1566'> +2.8738577e+02 </wgt>
<wgt id='1567'> +2.8662436e+02 </wgt>
<wgt id='1568'> +2.8630496e+02 </wgt>
<wgt id='1569'> +2.8787583e+02 </wgt>
<wgt id='1570'> +2.8501723e+02 </wgt>
<wgt id='1571'> +2.8832572e+02 </wgt>
<wgt id='1572'> +2.8425741e+02 </wgt>
<wgt id='1573'> +2.8974327e+02 </wgt>
<wgt id='1574'> +2.8744552e+02 </wgt>
<wgt id='1575'> +2.8690482e+02 </wgt>
<wgt id='1576'> +2.8767028e+02 </wgt>
<wgt id='1577'> +2.8620123e+02 </wgt>
<wgt id='1578'> +2.8554412e+02 </wgt>
<wgt id='1579'> +2.8853201e+02 </wgt>
<wgt id='1580'> +2.8801076e+02 </wgt>
<wgt id='1581'> +2.8594464e+02 </wgt>
<wgt id='1582'> +2.8707810e+02 </wgt>
<wgt id='1583'> +2.8694726e+02 </wgt>
<wgt id='1584'> +2.8738083e+02 </wgt>
<wgt id='1585'> +2.8687645e+02 </wgt>
<wgt id='1586'> +2.8649495e+02 </wgt>
<wgt id='1587'> +2.8751066e+02 </wgt>
<wgt id='1588'> +2.8531525e+02 </wgt>
<wgt id='1589'> +2.8887750e+02 </wgt>
<wgt id='1590'> +2.9011332e+02 </wgt>
<wgt id='1591'> +2.8524766e+02 </wgt>
<wgt id='1592'> +2.8669693e+02 </wgt>
<wgt id='1593'> +2.8768086e+02 </wgt>
<wgt id='1594'> +2.8955226e+02 </wgt>
<wgt id='1595'> +2.8114393e+02 </wgt>
<wgt id='1596'> +2.8825693e+02 </wgt>
<wgt id='1597'> +2.8615823e+02 </wgt>
<wgt id='1598'> +2.8041431e+02 </wgt>
<wgt id='1599'> +2.8024646e+02 </wgt>
<wgt id='1600'> +2.8063310e+02 </wgt>
<wgt id='1601'> +2.8139474e+02 </wgt>
<wgt id='1602'> +2.7943934e+02 </wgt>
<wgt id='1603'> +2.8127763e+02 </wgt>
<wgt id='1604'> +2.8006445e+02 </wgt>
<wgt id='1605'> +2.7970529e+02 </wgt>
<wgt id='1606'> +2.8111890e+02 </wgt>
<wgt id='1607'> +2.8072745e+02 </wgt>
<wgt id='1608'> +2.8011164e+02 </wgt>
<wgt id='1609'> +2.7877819e+02 </wgt>
<wgt id='1610'> +2.8111858e+02 </wgt>
<wgt id='1611'> +2.8042235e+02 </wgt>
<wgt id='1612'> +2.8040763e+02 </wgt>
<wgt id='1613'> +2.8003254e+02 </wgt>
<wgt id='1614'> +2.8082536e+02 </wgt>
<wgt id='1615'> +2.8086579e+02 </wgt>
<wgt id='1616'> +2.8015646e+02 </wgt>
<wgt id='1617'> +2.8028929e+02 </wgt>
<wgt id='1618'> +2.8058174e+02 </wgt>
<wgt id='1619'> +2.7988401e+02 </wgt>
<wgt id='1620'> +2.8078190e+02 </wgt>
<wgt id='1621'> +2.8439132e+02 </wgt>
<wgt id='1622'> +2.7667851e+02 </wgt>
<wgt id='1623'> +2.8173680e+02 </wgt>
<wgt id='1624'> +2.7713977e+02 </wgt>
<wgt id='1625'> +2.8125663e+02 </wgt>
<wgt id='1626'> +2.7973860e+02 </wgt>
<wgt id='1627'> +2.7985778e+02 </wgt>
<wgt id='1628'> +2.8206865e+02 </wgt>
<wgt id='1629'> +2.7972054e+02 </wgt>
<wgt id='1630'> +2.8185231e+02 </wgt>
<wgt id='1631'> +2.8032670e+02 </wgt>
<wgt id='1632'> +2.8058829e+02 </wgt>
<wgt id='1633'> +2.8002804e+02 </wgt>
<wgt id='1634'> +2.8059386e+02 </wgt>
<wgt id='1635'> +2.8043765e+02 </wgt>
<wgt id='1636'> +2.8033479e+02 </wgt>
<wgt id='1637'> +2.7977474e+02 </wgt>
<wgt id='1638'> +2.8089319e+02 </wgt>
<wgt id='1639'> +2.8002885e+02 </wgt>
<wgt id='1640'> +2.8053950e+02 </wgt>
<wgt id='1641'> +2.8072157e+02 </wgt>
<wgt id='1642'> +2.7865820e+02 </wgt>
<wgt id='1643'> +2.7609934e+02 </wgt>
<wgt id='1644'> +2.8262101e+02 </wgt>
<wgt id='1645'> +2.8166482e+02 </wgt>
<wgt id='1646'> +2.7975775e+02 </wgt>
<wgt id='1647'> +2.7860989e+02 </wgt>
<wgt id='1648'> +2.8087626e+02 </wgt>
<wgt id='1649'> +4.3714745e+02 </wgt>
<wgt id='1650'> +2.8055199e+02 </wgt>
<wgt id='1651'> +2.8045926e+02 </wgt>
<wgt id='1652'> +2.8064739e+02 </wgt>
<wgt id='1653'> +2.8056814e+02 </wgt>
<wgt id='1654'> +2.8054343e+02 </wgt>
<wgt id='1655'> +2.7989267e+02 </wgt>
<wgt id='1656'> +2.8067749e+02 </wgt>
<wgt id='1657'> +2.8079429e+02 </wgt>
<wgt id='1658'> +2.8123196e+02 </wgt>
<wgt id='1659'> +2.8186618e+02 </wgt>
<wgt id='1660'> +2.8032395e+02 </wgt>
<wgt id='1661'> +2.8053040e+02 </wgt>
<wgt id='1662'> +2.7965133e+02 </wgt>
<wgt id='1663'> +2.8002869e+02 </wgt>
<wgt id='1664'> +2.8095304e+02 </wgt>
<wgt id='1665'> +2.8035504e+02 </wgt>
<wgt id='1666'> +2.8074018e+02 </wgt>
<wgt id='1667'> +2.8039350e+02 </wgt>
<wgt id='1668'> +2.8099902e+02 </wgt>
<wgt id='1669'> +2.8107249e+02 </wgt>
<wgt id='1670'> +2.7970981e+02 </wgt>
<wgt id='1671'> +2.8049079e+02 </wgt>
<wgt id='1672'> +2.7895384e+02 </wgt>
<wgt id='1673'> +2.8072095e+02 </wgt>
<wgt id='1674'> +2.8054071e+02 </wgt>
<wgt id='1675'> +2.8130043e+02 </wgt>
<wgt id='1676'> +2.8118462e+02 </wgt>
<wgt id='1677'> +2.8035321e+02 </wgt>
<wgt id='1678'> +2.8083919e+02 </wgt>
<wgt id='1679'> +2.7825527e+02 </wgt>
<wgt id='1680'> +2.8571655e+02 </wgt>
<wgt id='1681'> +2.8496311e+02 </wgt>
<wgt id='1682'> +2.8940482e+02 </wgt>
<wgt id='1683'> +2.8750927e+02 </wgt>
<wgt id='1684'> +2.8469133e+02 </wgt>
<wgt id='1685'> +2.8405852e+02 </wgt>
<wgt id='1686'> +2.8684751e+02 </wgt>
<wgt id='1687'> +2.8359412e+02 </wgt>
<wgt id='1688'> +2.8458975e+02 </wgt>
<wgt id='1689'> +2.8603848e+02 </wgt>
<wgt id='1690'> +2.9130750e+02 </wgt>
<wgt id='1691'> +2.8565532e+02 </wgt>
<wgt id='1692'> +2.8192703e+02 </wgt>
<wgt id='1693'> +2.8649108e+02 </wgt>
<wgt id='1694'> +2.8138119e+02 </wgt>
<wgt id='1695'> +2.8672673e+02 </wgt>
<wgt id='1696'> +2.8600095e+02 </wgt>
<wgt id='1697'> +2.8431181e+02 </wgt>
<wgt id='1698'> +2.8475530e+02 </wgt>
<wgt id='1699'> +2.8489052e+02 </wgt>
<wgt id='1700'> +2.8534754e+02 </wgt>
<wgt id='1701'> +2.8426205e+02 </wgt>
<wgt id='1702'> +2.8634391e+02 </wgt>
<wgt id='1703'> +2.8495338e+02 </wgt>
<wgt id='1704'> +2.8560009e+02 </wgt>
<wgt id='1705'> +2.8568540e+02 </wgt>
<wgt id='1706'> +2.8556182e+02 </wgt>
<wgt id='1707'> +2.8571922e+02 </wgt>
<wgt id='1708'> +2.8522958e+02 </wgt>
<wgt id='1709'> +2.8545876e+02 </wgt>
<wgt id='1710'> +2.8570159e+02 </wgt>
<wgt id='1711'> +2.8563488e+02 </wgt>
<wgt id='1712'> +2.8570430e+02 </wgt>
<wgt id='1713'> +2.8530456e+02 </wgt>
<wgt id='1714'> +2.8586404e+02 </wgt>
<wgt id='1715'> +2.8627631e+02 </wgt>
<wgt id='1716'> +2.8555452e+02 </wgt>
<wgt id='1717'> +2.8578458e+02 </wgt>
<wgt id='1718'> +2.8558645e+02 </wgt>
<wgt id='1719'> +2.8582597e+02 </wgt>
<wgt id='1720'> +2.8586335e+02 </wgt>
<wgt id='1721'> +2.8592913e+02 </wgt>
<wgt id='1722'> +2.8595012e+02 </wgt>
<wgt id='1723'> +2.8545380e+02 </wgt>
<wgt id='1724'> +2.8607803e+02 </wgt>
<wgt id='1725'> +2.8589191e+02 </wgt>
<wgt id='1726'> +2.8596776e+02 </wgt>
<wgt id='1727'> +2.8550086e+02 </wgt>
<wgt id='1728'> +2.8551447e+02 </wgt>
<wgt id='1729'> +2.8575084e+02 </wgt>
<wgt id='1730'> +2.8560181e+02 </wgt>
<wgt id='1731'> +2.8545472e+02 </wgt>
<wgt id='1732'> +2.8565492e+02 </wgt>
<wgt id='1733'> +2.8547089e+02 </wgt>
<wgt id='1734'> +2.8553686e+02 </wgt>
<wgt id='1735'> +2.8574027e+02 </wgt>
<wgt id='1736'> +2.8567292e+02 </wgt>
<wgt id='1737'> +2.8570981e+02 </wgt>
<wgt id='1738'> +2.8604646e+02 </wgt>
<wgt id='1739'> +2.8560850e+02 </wgt>
<wgt id='1740'> +2.8538431e+02 </wgt>
<wgt id='1741'> +2.8575766e+02 </wgt>
<wgt id='1742'> +2.8554339e+02 </wgt>
<wgt id='1743'> +2.8571491e+02 </wgt>
<wgt id='1744'> +2.8563917e+02 </wgt>
<wgt id='1745'> +2.8574697e+02 </wgt>
<wgt id='1746'> +2.8576578e+02 </wgt>
<wgt id='1747'> +2.8569881e+02 </wgt>
<wgt id='1748'> +2.8586096e+02 </wgt>
<wgt id='1749'> +2.8581077e+02 </wgt>
<wgt id='1750'> +2.8562871e+02 </wgt>
<wgt id='1751'> +2.8556075e+02 </wgt>
<wgt id='1752'> +2.8562336e+02 </wgt>
<wgt id='1753'> +2.8560992e+02 </wgt>
<wgt id='1754'> +2.8565363e+02 </wgt>
<wgt id='1755'> +2.8567501e+02 </wgt>
<wgt id='1756'> +2.8572362e+02 </wgt>
<wgt id='1757'> +2.8563481e+02 </wgt>
<wgt id='1758'> +2.8570222e+02 </wgt>
<wgt id='1759'> +2.8590214e+02 </wgt>
<wgt id='1760'> +2.8571916e+02 </wgt>
<wgt id='1761'> +2.8580558e+02 </wgt>
<wgt id='1762'> +2.8557237e+02 </wgt>
<wgt id='1763'> +2.8579202e+02 </wgt>
<wgt id='1764'> +2.8583895e+02 </wgt>
<wgt id='1765'> +2.8576497e+02 </wgt>
<wgt id='1766'> +2.8591661e+02 </wgt>
<wgt id='1767'> +2.8572267e+02 </wgt>
<wgt id='1768'> +2.8569411e+02 </wgt>
<wgt id='1769'> +2.8571787e+02 </wgt>
<wgt id='1770'> +2.8571344e+02 </wgt>
<wgt id='1771'> +2.8562900e+02 </wgt>
<wgt id='1772'> +2.8570039e+02 </wgt>
<wgt id='1773'> +2.8564591e+02 </wgt>
<wgt id='1774'> +2.8570427e+02 </wgt>
<wgt id='1775'> +2.8570815e+02 </wgt>
<wgt id='1776'> +2.8567890e+02 </wgt>
<wgt id='1777'> +2.8576407e+02 </wgt>
<wgt id='1778'> +2.8577350e+02 </wgt>
<wgt id='1779'> +2.8574138e+02 </wgt>
<wgt id='1780'> +2.8571609e+02 </wgt>
<wgt id='1781'> +2.7504767e+02 </wgt>
<wgt id='1782'> +2.9599801e+02 </wgt>
<wgt id='1783'> +2.8192112e+02 </wgt>
<wgt id='1784'> +2.8171880e+02 </wgt>
<wgt id='1785'> +2.8365344e+02 </wgt>
<wgt id='1786'> +2.7916512e+02 </wgt>
<wgt id='1787'> +2.8139337e+02 </wgt>
<wgt id='1788'> +2.8398410e+02 </wgt>
<wgt id='1789'> +2.8043856e+02 </wgt>
<wgt id='1790'> +2.7959179e+02 </wgt>
<wgt id='1791'> +2.8132576e+02 </wgt>
<wgt id='1792'> +2.8190552e+02 </wgt>
<wgt id='1793'> +2.7998082e+02 </wgt>
<wgt id='1794'> +2.8607067e+02 </wgt>
<wgt id='1795'> +2.8170479e+02 </wgt>
<wgt id='1796'> +2.7708664e+02 </wgt>
<wgt id='1797'> +2.7965619e+02 </wgt>
<wgt id='1798'> +2.8172222e+02 </wgt>
<wgt id='1799'> +2.8608487e+02 </wgt>
<wgt id='1800'> +2.8112329e+02 </wgt>
<wgt id='1801'> +2.8132538e+02 </wgt>
<wgt id='1802'> +2.8162963e+02 </wgt>
<wgt id='1803'> +2.8353041e+02 </wgt>
<wgt id='1804'> +2.8119820e+02 </wgt>
<wgt id='1805'> +2.8246522e+02 </wgt>
<wgt id='1806'> +2.8094428e+02 </wgt>
<wgt id='1807'> +2.8153009e+02 </wgt>
<wgt id='1808'> +2.8230027e+02 </wgt>
<wgt id='1809'> +2.8194639e+02 </wgt>
<wgt id='1810'> +2.8147238e+02 </wgt>
<wgt id='1811'> +2.8211818e+02 </wgt>
<wgt id='1812'> +2.8230229e+02 </wgt>
<wgt id='1813'> +2.8190771e+02 </wgt>
<wgt id='1814'> +2.8172505e+02 </wgt>
<wgt id='1815'> +2.8218948e+02 </wgt>
<wgt id='1816'> +2.8222348e+02 </wgt>
<wgt id='1817'> +2.8184137e+02 </wgt>
<wgt id='1818'> +2.8225532e+02 </wgt>
<wgt id='1819'> +2.8193720e+02 </wgt>
<wgt id='1820'> +2.8217963e+02 </wgt>
<wgt id='1821'> +2.8202488e+02 </wgt>
<wgt id='1822'> +2.8193409e+02 </wgt>
<wgt id='1823'> +2.8169506e+02 </wgt>
<wgt id='1824'> +2.8186564e+02 </wgt>
<wgt id='1825'> +2.8191736e+02 </wgt>
<wgt id='1826'> +2.8168000e+02 </wgt>
<wgt id='1827'> +2.8202495e+02 </wgt>
<wgt id='1828'> +2.8196274e+02 </wgt>
<wgt id='1829'> +2.8156041e+02 </wgt>
<wgt id='1830'> +2.8186982e+02 </wgt>
<wgt id='1831'> +2.8204246e+02 </wgt>
<wgt id='1832'> +2.8175569e+02 </wgt>
<wgt id='1833'> +2.8198989e+02 </wgt>
<wgt id='1834'> +2.8206010e+02 </wgt>
<wgt id='1835'> +2.8201681e+02 </wgt>
<wgt id='1836'> +2.8192737e+02 </wgt>
<wgt id='1837'> +2.8177606e+02 </wgt>
<wgt id='1838'> +2.8185277e+02 </wgt>
<wgt id='1839'> +2.8218490e+02 </wgt>
<wgt id='1840'> +2.8192815e+02 </wgt>
<wgt id='1841'> +2.8165265e+02 </wgt>
<wgt id='1842'> +2.8178033e+02 </wgt>
<wgt id='1843'> +2.8180053e+02 </wgt>
<wgt id='1844'> +2.8196128e+02 </wgt>
<wgt id='1845'> +2.8196725e+02 </wgt>
<wgt id='1846'> +2.8204634e+02 </wgt>
<wgt id='1847'> +2.8186670e+02 </wgt>
<wgt id='1848'> +2.8189505e+02 </wgt>
<wgt id='1849'> +2.8194892e+02 </wgt>
<wgt id='1850'> +2.8202322e+02 </wgt>
<wgt id='1851'> +2.8202598e+02 </wgt>
<wgt id='1852'> +2.8208988e+02 </wgt>
<wgt id='1853'> +2.8188072e+02 </wgt>
<wgt id='1854'> +2.8210756e+02 </wgt>
<wgt id='1855'> +2.8210418e+02 </wgt>
<wgt id='1856'> +2.8184254e+02 </wgt>
<wgt id='1857'> +2.8196787e+02 </wgt>
<wgt id='1858'> +2.8191103e+02 </wgt>
<wgt id='1859'> +2.8188436e+02 </wgt>
<wgt id='1860'> +2.8196668e+02 </wgt>
<wgt id='1861'> +2.8192654e+02 </wgt>
<wgt id='1862'> +2.8186503e+02 </wgt>
<wgt id='1863'> +2.8215562e+02 </wgt>
<wgt id='1864'> +2.8189164e+02 </wgt>
<wgt id='1865'> +2.8200315e+02 </wgt>
<wgt id='1866'> +2.8182358e+02 </wgt>
<wgt id='1867'> +2.8182390e+02 </wgt>
<wgt id='1868'> +2.8182031e+02 </wgt>
<wgt id='1869'> +2.8197400e+02 </wgt>
<wgt id='1870'> +2.8170386e+02 </wgt>
<wgt id='1871'> +2.8184107e+02 </wgt>
<wgt id='1872'> +2.8183666e+02 </wgt>
<wgt id='1873'> +2.8196251e+02 </wgt>
<wgt id='1874'> +2.8187451e+02 </wgt>
<wgt id='1875'> +2.8190122e+02 </wgt>
<wgt id='1876'> +2.8187037e+02 </wgt>
<wgt id='1877'> +2.8188538e+02 </wgt>
<wgt id='1878'> +2.8195139e+02 </wgt>
<wgt id='1879'> +2.8186675e+02 </wgt>
<wgt id='1880'> +2.8194312e+02 </wgt>
<wgt id='1881'> +2.8190838e+02 </wgt>
<wgt id='1882'> +2.8185858e+02 </wgt>
<wgt id='1883'> +2.8191796e+02 </wgt>
<wgt id='1884'> +2.7198849e+02 </wgt>
<wgt id='1885'> +2.9146736e+02 </wgt>
<wgt id='1886'> +2.8574669e+02 </wgt>
<wgt id='1887'> +2.8791903e+02 </wgt>
<wgt id='1888'> +2.8388611e+02 </wgt>
<wgt id='1889'> +2.8564575e+02 </wgt>
<wgt id='1890'> +2.8193999e+02 </wgt>
<wgt id='1891'> +2.9334370e+02 </wgt>
<wgt id='1892'> +2.8480565e+02 </wgt>
<wgt id='1893'> +2.8565129e+02 </wgt>
<wgt id='1894'> +2.8634332e+02 </wgt>
<wgt id='1895'> +2.8487158e+02 </wgt>
<wgt id='1896'> +2.8645534e+02 </wgt>
<wgt id='1897'> +2.8462754e+02 </wgt>
<wgt id='1898'> +2.8591075e+02 </wgt>
<wgt id='1899'> +2.8602550e+02 </wgt>
<wgt id='1900'> +2.8526822e+02 </wgt>
<wgt id='1901'> +2.8555313e+02 </wgt>
<wgt id='1902'> +2.8479081e+02 </wgt>
<wgt id='1903'> +2.8778709e+02 </wgt>
<wgt id='1904'> +2.8602450e+02 </wgt>
<wgt id='1905'> +2.8546073e+02 </wgt>
<wgt id='1906'> +2.8521713e+02 </wgt>
<wgt id='1907'> +2.8554179e+02 </wgt>
<wgt id='1908'> +2.8551577e+02 </wgt>
<wgt id='1909'> +2.8579724e+02 </wgt>
<wgt id='1910'> +2.8543116e+02 </wgt>
<wgt id='1911'> +2.8554470e+02 </wgt>
<wgt id='1912'> +2.8660109e+02 </wgt>
<wgt id='1913'> +2.8633739e+02 </wgt>
<wgt id='1914'> +2.8835836e+02 </wgt>
<wgt id='1915'> +2.8587297e+02 </wgt>
<wgt id='1916'> +2.8567876e+02 </wgt>
<wgt id='1917'> +2.7504767e+02 </wgt>
<wgt id='1918'> +2.9599801e+02 </wgt>
<wgt id='1919'> +2.8192301e+02 </wgt>
<wgt id='1920'> +2.7875616e+02 </wgt>
<wgt id='1921'> +2.8374450e+02 </wgt>
<wgt id='1922'> +2.8169066e+02 </wgt>
<wgt id='1923'> +2.8408171e+02 </wgt>
<wgt id='1924'> +2.7861565e+02 </wgt>
<wgt id='1925'> +2.8208735e+02 </wgt>
<wgt id='1926'> +2.8111358e+02 </wgt>
<wgt id='1927'> +2.8151094e+02 </wgt>
<wgt id='1928'> +2.8049356e+02 </wgt>
<wgt id='1929'> +2.7965175e+02 </wgt>
<wgt id='1930'> +2.8040574e+02 </wgt>
<wgt id='1931'> +2.8229957e+02 </wgt>
<wgt id='1932'> +2.8276235e+02 </wgt>
<wgt id='1933'> +2.8098338e+02 </wgt>
<wgt id='1934'> +2.8161720e+02 </wgt>
<wgt id='1935'> +2.8148711e+02 </wgt>
<wgt id='1936'> +2.8462998e+02 </wgt>
<wgt id='1937'> +2.8164534e+02 </wgt>
<wgt id='1938'> +2.8163000e+02 </wgt>
<wgt id='1939'> +2.8310935e+02 </wgt>
<wgt id='1940'> +2.8272519e+02 </wgt>
<wgt id='1941'> +2.8851593e+02 </wgt>
<wgt id='1942'> +2.8210397e+02 </wgt>
<wgt id='1943'> +2.8216684e+02 </wgt>
<wgt id='1944'> +2.8213604e+02 </wgt>
<wgt id='1945'> +2.8195276e+02 </wgt>
<wgt id='1946'> +2.8183609e+02 </wgt>
<wgt id='1947'> +2.8216075e+02 </wgt>
<wgt id='1948'> +2.8228653e+02 </wgt>
<wgt id='1949'> +2.8188294e+02 </wgt>
<wgt id='1950'> +2.7198849e+02 </wgt>
<wgt id='1951'> +2.9146736e+02 </wgt>
<wgt id='1952'> +2.9246349e+02 </wgt>
<wgt id='1953'> +2.9198729e+02 </wgt>
<wgt id='1954'> +2.9293827e+02 </wgt>
<wgt id='1955'> +2.9290585e+02 </wgt>
<wgt id='1956'> +2.9202152e+02 </wgt>
<wgt id='1957'> +2.9307094e+02 </wgt>
<wgt id='1958'> +2.9185798e+02 </wgt>
<wgt id='1959'> +2.9405743e+02 </wgt>
<wgt id='1960'> +2.9090688e+02 </wgt>
<wgt id='1961'> +2.9250098e+02 </wgt>
<wgt id='1962'> +2.9243437e+02 </wgt>
<wgt id='1963'> +2.9098670e+02 </wgt>
<wgt id='1964'> +2.9413572e+02 </wgt>
<wgt id='1965'> +2.9115105e+02 </wgt>
<wgt id='1966'> +2.9379714e+02 </wgt>
<wgt id='1967'> +2.9238156e+02 </wgt>
<wgt id='1968'> +2.9188562e+02 </wgt>
<wgt id='1969'> +2.9395579e+02 </wgt>
<wgt id='1970'> +2.9139596e+02 </wgt>
<wgt id='1971'> +2.9141442e+02 </wgt>
<wgt id='1972'> +2.9326996e+02 </wgt>
<wgt id='1973'> +2.9348700e+02 </wgt>
<wgt id='1974'> +2.9127872e+02 </wgt>
<wgt id='1975'> +2.9063751e+02 </wgt>
<wgt id='1976'> +2.9313741e+02 </wgt>
<wgt id='1977'> +2.9286674e+02 </wgt>
<wgt id='1978'> +2.9236356e+02 </wgt>
<wgt id='1979'> +2.9410423e+02 </wgt>
<wgt id='1980'> +2.9110652e+02 </wgt>
<wgt id='1981'> +2.9246349e+02 </wgt>
<wgt id='1982'> +2.9292392e+02 </wgt>
<wgt id='1983'> +2.9160632e+02 </wgt>
<wgt id='1984'> +2.9291093e+02 </wgt>
<wgt id='1985'> +2.9188898e+02 </wgt>
<wgt id='1986'> +2.9361570e+02 </wgt>
<wgt id='1987'> +2.9082173e+02 </wgt>
<wgt id='1988'> +2.9153226e+02 </wgt>
<wgt id='1989'> +2.9341810e+02 </wgt>
<wgt id='1990'> +2.9301391e+02 </wgt>
<wgt id='1991'> +2.9200832e+02 </wgt>
<wgt id='1992'> +2.9219541e+02 </wgt>
<wgt id='1993'> +2.9181908e+02 </wgt>
<wgt id='1994'> +2.8861237e+02 </wgt>
<wgt id='1995'> +2.7743586e+02 </wgt>
<wgt id='1996'> +2.7710054e+02 </wgt>
<wgt id='1997'> +2.7771270e+02 </wgt>
<wgt id='1998'> +2.7746790e+02 </wgt>
<wgt id='1999'> +2.7734699e+02 </wgt>
<wgt id='2000'> +2.7798436e+02 </wgt>
<wgt id='2001'> +2.7683075e+02 </wgt>
<wgt id='2002'> +2.7927472e+02 </wgt>
<wgt id='2003'> +2.7559149e+02 </wgt>
<wgt id='2004'> +2.7661743e+02 </wgt>
<wgt id='2005'> +2.7823204e+02 </wgt>
<wgt id='2006'> +2.7842545e+02 </wgt>
<wgt id='2007'> +2.7639600e+02 </wgt>
<wgt id='2008'> +2.7671110e+02 </wgt>
<wgt id='2009'> +2.7807780e+02 </wgt>
<wgt id='2010'> +2.7672793e+02 </wgt>
<wgt id='2011'> +2.7731175e+02 </wgt>
<wgt id='2012'> +2.7756040e+02 </wgt>
<wgt id='2013'> +2.7723820e+02 </wgt>
<wgt id='2014'> +2.7656080e+02 </wgt>
<wgt id='2015'> +2.7827036e+02 </wgt>
<wgt id='2016'> +2.7590373e+02 </wgt>
<wgt id='2017'> +2.7869010e+02 </wgt>
<wgt id='2018'> +2.7721994e+02 </wgt>
<wgt id='2019'> +2.7760562e+02 </wgt>
<wgt id='2020'> +2.7522176e+02 </wgt>
<wgt id='2021'> +2.7908839e+02 </wgt>
<wgt id='2022'> +2.7677214e+02 </wgt>
<wgt id='2023'> +2.7829907e+02 </wgt>
<wgt id='2024'> +2.7722980e+02 </wgt>
<wgt id='2025'> +2.7790536e+02 </wgt>
<wgt id='2026'> +2.7558791e+02 </wgt>
<wgt id='2027'> +2.7778746e+02 </wgt>
<wgt id='2028'> +2.7659554e+02 </wgt>
<wgt id='2029'> +2.7611720e+02 </wgt>
<wgt id='2030'> +2.7500946e+02 </wgt>
<wgt id='2031'> +2.7640143e+02 </wgt>
<wgt id='2032'> +2.7879986e+02 </wgt>
<wgt id='2033'> +2.7712741e+02 </wgt>
<wgt id='2034'> +2.7515859e+02 </wgt>
<wgt id='2035'> +2.7610751e+02 </wgt>
<wgt id='2036'> +2.7963644e+02 </wgt>
<wgt id='2037'> +2.7593204e+02 </wgt>
<wgt id='2038'> +2.7710876e+02 </wgt>
<wgt id='2039'> +2.7707299e+02 </wgt>
<wgt id='2040'> +2.7703804e+02 </wgt>
<wgt id='2041'> +2.7700293e+02 </wgt>
<wgt id='2042'> +2.7696794e+02 </wgt>
<wgt id='2043'> +2.7693273e+02 </wgt>
<wgt id='2044'> +2.7689759e+02 </wgt>
<wgt id='2045'> +2.7686196e+02 </wgt>
<wgt id='2046'> +2.7682696e+02 </wgt>
<wgt id='2047'> +2.7679184e+02 </wgt>
<wgt id='2048'> +2.7675665e+02 </wgt>
<wgt id='2049'> +2.7672174e+02 </wgt>
<wgt id='2050'> +2.7668675e+02 </wgt>
<wgt id='2051'> +2.7665162e+02 </wgt>
<wgt id='2052'> +2.7661702e+02 </wgt>
<wgt id='2053'> +2.7658182e+02 </wgt>
<wgt id='2054'> +2.7654688e+02 </wgt>
<wgt id='2055'> +2.7651183e+02 </wgt>
<wgt id='2056'> +2.7647666e+02 </wgt>
<wgt id='2057'> +2.7644173e+02 </wgt>
<wgt id='2058'> +2.7640604e+02 </wgt>
<wgt id='2059'> +2.7637104e+02 </wgt>
<wgt id='2060'> +2.7633580e+02 </wgt>
<wgt id='2061'> +2.7630067e+02 </wgt>
<wgt id='2062'> +2.7626577e+02 </wgt>
<wgt id='2063'> +2.7623079e+02 </wgt>
<wgt id='2064'> +2.7619504e+02 </wgt>
<wgt id='2065'> +2.7616005e+02 </wgt>
<wgt id='2066'> +2.7612484e+02 </wgt>
<wgt id='2067'> +2.7609002e+02 </wgt>
<wgt id='2068'> +2.7605493e+02 </wgt>
<wgt id='2069'> +2.7841470e+02 </wgt>
<wgt id='2070'> +2.7820642e+02 </wgt>
<wgt id='2071'> +2.8012068e+02 </wgt>
<wgt id='2072'> +2.7570097e+02 </wgt>
<wgt id='2073'> +2.7789388e+02 </wgt>
<wgt id='2074'> +2.8046062e+02 </wgt>
<wgt id='2075'> +2.7695954e+02 </wgt>
<wgt id='2076'> +2.7611398e+02 </wgt>
<wgt id='2077'> +2.7782108e+02 </wgt>
<wgt id='2078'> +2.7840329e+02 </wgt>
<wgt id='2079'> +2.7649741e+02 </wgt>
<wgt id='2080'> +2.8253384e+02 </wgt>
<wgt id='2081'> +2.7820627e+02 </wgt>
<wgt id='2082'> +2.7364134e+02 </wgt>
<wgt id='2083'> +2.7616361e+02 </wgt>
<wgt id='2084'> +2.7819371e+02 </wgt>
<wgt id='2085'> +2.8254898e+02 </wgt>
<wgt id='2086'> +2.7762921e+02 </wgt>
<wgt id='2087'> +2.7782532e+02 </wgt>
<wgt id='2088'> +2.7813850e+02 </wgt>
<wgt id='2089'> +2.8001470e+02 </wgt>
<wgt id='2090'> +2.7766122e+02 </wgt>
<wgt id='2091'> +2.7895933e+02 </wgt>
<wgt id='2092'> +2.7743772e+02 </wgt>
<wgt id='2093'> +2.7801647e+02 </wgt>
<wgt id='2094'> +2.7879554e+02 </wgt>
<wgt id='2095'> +2.7842925e+02 </wgt>
<wgt id='2096'> +2.7796462e+02 </wgt>
<wgt id='2097'> +2.7861765e+02 </wgt>
<wgt id='2098'> +2.7879443e+02 </wgt>
<wgt id='2099'> +2.7838091e+02 </wgt>
<wgt id='2100'> +2.7822815e+02 </wgt>
<wgt id='2101'> +2.7868349e+02 </wgt>
<wgt id='2102'> +2.7871498e+02 </wgt>
<wgt id='2103'> +2.7833289e+02 </wgt>
<wgt id='2104'> +2.7874714e+02 </wgt>
<wgt id='2105'> +2.7842962e+02 </wgt>
<wgt id='2106'> +2.7867393e+02 </wgt>
<wgt id='2107'> +2.7851772e+02 </wgt>
<wgt id='2108'> +2.7842745e+02 </wgt>
<wgt id='2109'> +2.7818844e+02 </wgt>
<wgt id='2110'> +2.7835747e+02 </wgt>
<wgt id='2111'> +2.7841269e+02 </wgt>
<wgt id='2112'> +2.7818216e+02 </wgt>
<wgt id='2113'> +2.7851955e+02 </wgt>
<wgt id='2114'> +2.7845725e+02 </wgt>
<wgt id='2115'> +2.7805808e+02 </wgt>
<wgt id='2116'> +2.7836127e+02 </wgt>
<wgt id='2117'> +2.7853604e+02 </wgt>
<wgt id='2118'> +2.7824883e+02 </wgt>
<wgt id='2119'> +2.7848482e+02 </wgt>
<wgt id='2120'> +2.7855242e+02 </wgt>
<wgt id='2121'> +2.7850841e+02 </wgt>
<wgt id='2122'> +2.7842158e+02 </wgt>
<wgt id='2123'> +2.7827037e+02 </wgt>
<wgt id='2124'> +2.7834812e+02 </wgt>
<wgt id='2125'> +2.7867357e+02 </wgt>
<wgt id='2126'> +2.7842008e+02 </wgt>
<wgt id='2127'> +2.7815333e+02 </wgt>
<wgt id='2128'> +2.7827620e+02 </wgt>
<wgt id='2129'> +2.7829566e+02 </wgt>
<wgt id='2130'> +2.7845434e+02 </wgt>
<wgt id='2131'> +2.7845836e+02 </wgt>
<wgt id='2132'> +2.7853871e+02 </wgt>
<wgt id='2133'> +2.7836244e+02 </wgt>
<wgt id='2134'> +2.7838867e+02 </wgt>
<wgt id='2135'> +2.7844193e+02 </wgt>
<wgt id='2136'> +2.7851474e+02 </wgt>
<wgt id='2137'> +2.7851972e+02 </wgt>
<wgt id='2138'> +2.7858056e+02 </wgt>
<wgt id='2139'> +2.7837415e+02 </wgt>
<wgt id='2140'> +2.7860065e+02 </wgt>
<wgt id='2141'> +2.7859554e+02 </wgt>
<wgt id='2142'> +2.7833503e+02 </wgt>
<wgt id='2143'> +2.7846159e+02 </wgt>
<wgt id='2144'> +2.7840409e+02 </wgt>
<wgt id='2145'> +2.7838058e+02 </wgt>
<wgt id='2146'> +2.7845932e+02 </wgt>
<wgt id='2147'> +2.7842191e+02 </wgt>
<wgt id='2148'> +2.7835799e+02 </wgt>
<wgt id='2149'> +2.7864578e+02 </wgt>
<wgt id='2150'> +2.7838652e+02 </wgt>
<wgt id='2151'> +2.7849639e+02 </wgt>
<wgt id='2152'> +2.7831742e+02 </wgt>
<wgt id='2153'> +2.7831748e+02 </wgt>
<wgt id='2154'> +2.7831606e+02 </wgt>
<wgt id='2155'> +2.7846939e+02 </wgt>
<wgt id='2156'> +2.7819809e+02 </wgt>
<wgt id='2157'> +2.7833445e+02 </wgt>
<wgt id='2158'> +2.7832976e+02 </wgt>
<wgt id='2159'> +2.7845503e+02 </wgt>
<wgt id='2160'> +2.7836740e+02 </wgt>
<wgt id='2161'> +2.7839429e+02 </wgt>
<wgt id='2162'> +2.7836427e+02 </wgt>
<wgt id='2163'> +2.7837738e+02 </wgt>
<wgt id='2164'> +2.7844424e+02 </wgt>
<wgt id='2165'> +2.7836209e+02 </wgt>
<wgt id='2166'> +2.7843567e+02 </wgt>
<wgt id='2167'> +2.7840151e+02 </wgt>
<wgt id='2168'> +2.7835323e+02 </wgt>
<wgt id='2169'> +2.7841239e+02 </wgt>
<wgt id='2170'> +2.7841121e+02 </wgt>
<wgt id='2171'> +2.7839174e+02 </wgt>
<wgt id='2172'> +2.7841836e+02 </wgt>
<wgt id='2173'> +2.7841895e+02 </wgt>
<wgt id='2174'> +2.7842535e+02 </wgt>
<wgt id='2175'> +2.7841626e+02 </wgt>
<wgt id='2176'> +2.7839939e+02 </wgt>
<wgt id='2177'> +2.9197532e+02 </wgt>
<wgt id='2178'> +2.7386671e+02 </wgt>
<wgt id='2179'> +2.8856892e+02 </wgt>
<wgt id='2180'> +2.9038618e+02 </wgt>
<wgt id='2181'> +2.9017883e+02 </wgt>
<wgt id='2182'> +2.5613238e+02 </wgt>
<wgt id='2183'> +2.9917927e+02 </wgt>
<wgt id='2184'> +2.9308569e+02 </wgt>
<wgt id='2185'> +2.9746765e+02 </wgt>
<wgt id='2186'> +2.9487646e+02 </wgt>
<wgt id='2187'> +2.7488276e+02 </wgt>
<wgt id='2188'> +2.7089852e+02 </wgt>
<wgt id='2189'> +2.9925845e+02 </wgt>
<wgt id='2190'> +2.9899560e+02 </wgt>
<wgt id='2191'> +2.7968362e+02 </wgt>
<wgt id='2192'> +2.9612759e+02 </wgt>
<wgt id='2193'> +2.9686819e+02 </wgt>
<wgt id='2194'> +2.8889456e+02 </wgt>
<wgt id='2195'> +2.9394785e+02 </wgt>
<wgt id='2196'> +3.0096508e+02 </wgt>
<wgt id='2197'> +3.0331892e+02 </wgt>
<wgt id='2198'> +2.9397628e+02 </wgt>
<wgt id='2199'> +2.8449971e+02 </wgt>
<wgt id='2200'> +3.1569265e+02 </wgt>
<wgt id='2201'> +2.9002096e+02 </wgt>
<wgt id='2202'> +2.9388851e+02 </wgt>
<wgt id='2203'> +2.9180027e+02 </wgt>
<wgt id='2204'> +2.9072324e+02 </wgt>
<wgt id='2205'> +2.8801787e+02 </wgt>
<wgt id='2206'> +2.9164068e+02 </wgt>
<wgt id='2207'> +3.0045925e+02 </wgt>
<wgt id='2208'> +2.8879664e+02 </wgt>
<wgt id='2209'> +2.8054117e+02 </wgt>
<wgt id='2210'> +2.9056580e+02 </wgt>
<wgt id='2211'> +2.9164435e+02 </wgt>
<wgt id='2212'> +2.9844813e+02 </wgt>
<wgt id='2213'> +3.0225689e+02 </wgt>
<wgt id='2214'> +2.9770101e+02 </wgt>
<wgt id='2215'> +3.0078067e+02 </wgt>
<wgt id='2216'> +2.8652524e+02 </wgt>
<wgt id='2217'> +2.9426844e+02 </wgt>
<wgt id='2218'> +2.9720716e+02 </wgt>
<wgt id='2219'> +2.9123172e+02 </wgt>
<wgt id='2220'> +2.9257658e+02 </wgt>
<wgt id='2221'> +2.8826168e+02 </wgt>
<wgt id='2222'> +2.8750886e+02 </wgt>
<wgt id='2223'> +2.9977060e+02 </wgt>
<wgt id='2224'> +2.8927066e+02 </wgt>
<wgt id='2225'> +2.9091296e+02 </wgt>
<wgt id='2226'> +2.8949071e+02 </wgt>
<wgt id='2227'> +2.9048380e+02 </wgt>
<wgt id='2228'> +2.9073646e+02 </wgt>
<wgt id='2229'> +2.8584807e+02 </wgt>
<wgt id='2230'> +2.9477422e+02 </wgt>
<wgt id='2231'> +2.9422639e+02 </wgt>
<wgt id='2232'> +2.9007336e+02 </wgt>
<wgt id='2233'> +2.8535954e+02 </wgt>
<wgt id='2234'> +3.0537513e+02 </wgt>
<wgt id='2235'> +2.8593510e+02 </wgt>
<wgt id='2236'> +2.9544650e+02 </wgt>
<wgt id='2237'> +2.9257461e+02 </wgt>
<wgt id='2238'> +2.9549657e+02 </wgt>
<wgt id='2239'> +2.9180059e+02 </wgt>
<wgt id='2240'> +2.9641239e+02 </wgt>
<wgt id='2241'> +2.8327968e+02 </wgt>
<wgt id='2242'> +2.9832471e+02 </wgt>
<wgt id='2243'> +2.8987520e+02 </wgt>
<wgt id='2244'> +3.1343021e+02 </wgt>
<wgt id='2245'> +2.8751042e+02 </wgt>
<wgt id='2246'> +2.8209994e+02 </wgt>
<wgt id='2247'> +2.8838491e+02 </wgt>
<wgt id='2248'> +2.9553439e+02 </wgt>
<wgt id='2249'> +2.9378926e+02 </wgt>
<wgt id='2250'> +2.7199384e+02 </wgt>
<wgt id='2251'> +2.9288822e+02 </wgt>
<wgt id='2252'> +2.9092552e+02 </wgt>
<wgt id='2253'> +2.7996826e+02 </wgt>
<wgt id='2254'> +2.9068602e+02 </wgt>
<wgt id='2255'> +3.0241291e+02 </wgt>
<wgt id='2256'> +2.9173187e+02 </wgt>
<wgt id='2257'> +2.9127226e+02 </wgt>
<wgt id='2258'> +2.9229815e+02 </wgt>
<wgt id='2259'> +2.8639127e+02 </wgt>
<wgt id='2260'> +3.0321428e+02 </wgt>
<wgt id='2261'> +2.9242419e+02 </wgt>
<wgt id='2262'> +2.8331436e+02 </wgt>
<wgt id='2263'> +2.8839227e+02 </wgt>
<wgt id='2264'> +2.8825286e+02 </wgt>
<wgt id='2265'> +2.9262366e+02 </wgt>
<wgt id='2266'> +3.0770728e+02 </wgt>
<wgt id='2267'> +2.8691299e+02 </wgt>
<wgt id='2268'> +2.9160525e+02 </wgt>
<wgt id='2269'> +2.9744675e+02 </wgt>
<wgt id='2270'> +2.9316768e+02 </wgt>
<wgt id='2271'> +2.9569879e+02 </wgt>
<wgt id='2272'> +2.8332081e+02 </wgt>
<wgt id='2273'> +2.9990706e+02 </wgt>
<wgt id='2274'> +2.9391965e+02 </wgt>
<wgt id='2275'> +3.0411958e+02 </wgt>
<wgt id='2276'> +3.0352242e+02 </wgt>
<wgt id='2277'> +2.9437017e+02 </wgt>
<wgt id='2278'> +2.8455276e+02 </wgt>
<wgt id='2279'> +2.9850407e+02 </wgt>
<wgt id='2280'> +2.8629928e+02 </wgt>
<wgt id='2281'> +2.8590603e+02 </wgt>
<wgt id='2282'> +3.9956103e+02 </wgt>
<wgt id='2283'> +3.0033649e+02 </wgt>
<wgt id='2284'> +3.8390279e+02 </wgt>
</rwgt>
</event>
<event npLO=" -1 " npNLO=" 1 ">
 4      1 +2.8781417e+02 4.26661920e+01 7.54677110e-03 1.18869430e-01
       21 -1    0    0  503  501 +0.0000000000e+00 +0.0000000000e+00 +9.7897236000e+00 9.7897236000e+00 0.0000000000e+00 0.0000e+00 9.0000e+00
       21 -1    0    0  501  502 +0.0000000000e+00 +0.0000000000e+00 -1.0704081000e+03 1.0704081000e+03 0.0000000000e+00 0.0000e+00 9.0000e+00
       25  1    1    2    0    0 +1.8041829000e+01 +5.3583797000e+01 -9.3990790000e+02 9.4690210000e+02 1.0000000000e+02 0.0000e+00 9.0000e+00
       21  1    1    2  503  502 -1.8041829000e+01 -5.3583797000e+01 -1.2071051000e+02 1.3329575000e+02 0.0000000000e+00 0.0000e+00 9.0000e+00
#aMCatNLO 1  0  0  1  4 0.44953308E+02 0.00000000E+00 -9  5  0 0.00000000E+00 0.00000000E+00 0.00000000E+00 0.00000000E+00 0.00000000E+00
<rwgt>
<wgt id='1001'> +2.8781417e+02 </wgt>
<wgt id='1002'> +2.2838377e+02 </wgt>
<wgt id='1003'> +3.6763586e+02 </wgt>
<wgt id='1004'> +3.2422505e+02 </wgt>
<wgt id='1005'> +2.5261066e+02 </wgt>
<wgt id='1006'> +4.2494540e+02 </wgt>
<wgt id='1007'> +2.5262243e+02 </wgt>
<wgt id='1008'> +2.0442734e+02 </wgt>
<wgt id='1009'> +3.1349873e+02 </wgt>
<wgt id='1010'> +2.8781417e+02 </wgt>
<wgt id='1011'> +2.8784215e+02 </wgt>
<wgt id='1012'> +2.8732754e+02 </wgt>
<wgt id='1013'> +2.8741243e+02 </wgt>
<wgt id='1014'> +2.8881186e+02 </wgt>
<wgt id='1015'> +2.8675286e+02 </wgt>
<wgt id='1016'> +2.8735263e+02 </wgt>
<wgt id='1017'> +2.8675304e+02 </wgt>
<wgt id='1018'> +2.8617735e+02 </wgt>
<wgt id='1019'> +2.8871368e+02 </wgt>
<wgt id='1020'> +2.8794553e+02 </wgt>
<wgt id='1021'> +2.8961674e+02 </wgt>
<wgt id='1022'> +2.8829458e+02 </wgt>
<wgt id='1023'> +2.8760448e+02 </wgt>
<wgt id='1024'> +2.8759983e+02 </wgt>
<wgt id='1025'> +2.8837153e+02 </wgt>
<wgt id='1026'> +2.8753516e+02 </wgt>
<wgt id='1027'> +2.8762609e+02 </wgt>
<wgt id='1028'> +2.8683140e+02 </wgt>
<wgt id='1029'> +2.8648490e+02 </wgt>
<wgt id='1030'> +2.8684475e+02 </wgt>
<wgt id='1031'> +2.8818064e+02 </wgt>
<wgt id='1032'> +2.8751029e+02 </wgt>
<wgt id='1033'> +2.8765432e+02 </wgt>
<wgt id='1034'> +2.8600217e+02 </wgt>
<wgt id='1035'> +2.8886647e+02 </wgt>
<wgt id='1036'> +2.8823805e+02 </wgt>
<wgt id='1037'> +2.8967751e+02 </wgt>
<wgt id='1038'> +2.8597013e+02 </wgt>
<wgt id='1039'> +2.8705819e+02 </wgt>
<wgt id='1040'> +2.8828623e+02 </wgt>
<wgt id='1041'> +2.8662712e+02 </wgt>
<wgt id='1042'> +2.8742532e+02 </wgt>
<wgt id='1043'> +2.8710425e+02 </wgt>
<wgt id='1044'> +2.8660912e+02 </wgt>
<wgt id='1045'> +2.8800208e+02 </wgt>
<wgt id='1046'> +2.8821779e+02 </wgt>
<wgt id='1047'> +2.8716591e+02 </wgt>
<wgt id='1048'> +2.8755834e+02 </wgt>
<wgt id='1049'> +2.8736020e+02 </wgt>
<wgt id='1050'> +2.8722718e+02 </wgt>
<wgt id='1051'> +2.8738143e+02 </wgt>
<wgt id='1052'> +2.8845519e+02 </wgt>
<wgt id='1053'> +2.8786397e+02 </wgt>
<wgt id='1054'> +2.8808558e+02 </wgt>
<wgt id='1055'> +2.8784912e+02 </wgt>
<wgt id='1056'> +2.8745848e+02 </wgt>
<wgt id='1057'> +2.8794242e+02 </wgt>
<wgt id='1058'> +2.8770203e+02 </wgt>
<wgt id='1059'> +2.8753719e+02 </wgt>
<wgt id='1060'> +2.8742698e+02 </wgt>
<wgt id='1061'> +2.8741363e+02 </wgt>
<wgt id='1062'> +2.8836475e+02 </wgt>
<wgt id='1063'> +2.8777835e+02 </wgt>
<wgt id='1064'> +2.8771498e+02 </wgt>
<wgt id='1065'> +2.8757804e+02 </wgt>
<wgt id='1066'> +2.8759083e+02 </wgt>
<wgt id='1067'> +2.8796549e+02 </wgt>
<wgt id='1068'> +2.8805388e+02 </wgt>
<wgt id='1069'> +2.8783026e+02 </wgt>
<wgt id='1070'> +2.8770996e+02 </wgt>
<wgt id='1071'> +2.8757064e+02 </wgt>
<wgt id='1072'> +2.8816933e+02 </wgt>
<wgt id='1073'> +2.8781871e+02 </wgt>
<wgt id='1074'> +2.8785182e+02 </wgt>
<wgt id='1075'> +2.8809226e+02 </wgt>
<wgt id='1076'> +2.8764394e+02 </wgt>
<wgt id='1077'> +2.8762622e+02 </wgt>
<wgt id='1078'> +2.8809714e+02 </wgt>
<wgt id='1079'> +2.8778356e+02 </wgt>
<wgt id='1080'> +2.8788407e+02 </wgt>
<wgt id='1081'> +2.8772475e+02 </wgt>
<wgt id='1082'> +2.8771876e+02 </wgt>
<wgt id='1083'> +2.8789238e+02 </wgt>
<wgt id='1084'> +2.8772753e+02 </wgt>
<wgt id='1085'> +2.8774417e+02 </wgt>
<wgt id='1086'> +2.8776943e+02 </wgt>
<wgt id='1087'> +2.8801604e+02 </wgt>
<wgt id='1088'> +2.8786431e+02 </wgt>
<wgt id='1089'> +2.8772417e+02 </wgt>
<wgt id='1090'> +2.8786402e+02 </wgt>
<wgt id='1091'> +2.8774232e+02 </wgt>
<wgt id='1092'> +2.8788918e+02 </wgt>
<wgt id='1093'> +2.8804668e+02 </wgt>
<wgt id='1094'> +2.8778780e+02 </wgt>
<wgt id='1095'> +2.8787740e+02 </wgt>
<wgt id='1096'> +2.8777357e+02 </wgt>
<wgt id='1097'> +2.8784227e+02 </wgt>
<wgt id='1098'> +2.8778130e+02 </wgt>
<wgt id='1099'> +2.8775059e+02 </wgt>
<wgt id='1100'> +2.8790781e+02 </wgt>
<wgt id='1101'> +2.8785946e+02 </wgt>
<wgt id='1102'> +2.8796558e+02 </wgt>
<wgt id='1103'> +2.8769386e+02 </wgt>
<wgt id='1104'> +2.8781965e+02 </wgt>
<wgt id='1105'> +2.8791414e+02 </wgt>
<wgt id='1106'> +2.8773831e+02 </wgt>
<wgt id='1107'> +2.8790436e+02 </wgt>
<wgt id='1108'> +2.8782595e+02 </wgt>
<wgt id='1109'> +2.8787372e+02 </wgt>
<wgt id='1110'> +2.8781419e+02 </wgt>
<wgt id='1111'> +2.7450990e+02 </wgt>
<wgt id='1112'> +3.0145255e+02 </wgt>
<wgt id='1113'> +2.8781419e+02 </wgt>
<wgt id='1114'> +2.9825511e+02 </wgt>
<wgt id='1115'> +2.8759283e+02 </wgt>
<wgt id='1116'> +2.8959297e+02 </wgt>
<wgt id='1117'> +2.8843110e+02 </wgt>
<wgt id='1118'> +2.8767893e+02 </wgt>
<wgt id='1119'> +2.8410286e+02 </wgt>
<wgt id='1120'> +2.8091292e+02 </wgt>
<wgt id='1121'> +2.7946732e+02 </wgt>
<wgt id='1122'> +2.8319900e+02 </wgt>
<wgt id='1123'> +3.0266775e+02 </wgt>
<wgt id='1124'> +2.9191024e+02 </wgt>
<wgt id='1125'> +2.8257380e+02 </wgt>
<wgt id='1126'> +2.9010229e+02 </wgt>
<wgt id='1127'> +2.8728288e+02 </wgt>
<wgt id='1128'> +2.7927042e+02 </wgt>
<wgt id='1129'> +2.8462192e+02 </wgt>
<wgt id='1130'> +2.8395869e+02 </wgt>
<wgt id='1131'> +2.8117175e+02 </wgt>
<wgt id='1132'> +2.8360403e+02 </wgt>
<wgt id='1133'> +2.8363115e+02 </wgt>
<wgt id='1134'> +2.8456179e+02 </wgt>
<wgt id='1135'> +2.8361924e+02 </wgt>
<wgt id='1136'> +2.8419277e+02 </wgt>
<wgt id='1137'> +2.9058943e+02 </wgt>
<wgt id='1138'> +2.8153904e+02 </wgt>
<wgt id='1139'> +2.8514970e+02 </wgt>
<wgt id='1140'> +2.9522822e+02 </wgt>
<wgt id='1141'> +2.7863445e+02 </wgt>
<wgt id='1142'> +2.8301260e+02 </wgt>
<wgt id='1143'> +2.8356045e+02 </wgt>
<wgt id='1144'> +3.0121945e+02 </wgt>
<wgt id='1145'> +2.8322446e+02 </wgt>
<wgt id='1146'> +2.8037632e+02 </wgt>
<wgt id='1147'> +2.9140494e+02 </wgt>
<wgt id='1148'> +2.9347622e+02 </wgt>
<wgt id='1149'> +2.8970559e+02 </wgt>
<wgt id='1150'> +2.8624531e+02 </wgt>
<wgt id='1151'> +2.8398728e+02 </wgt>
<wgt id='1152'> +2.8702372e+02 </wgt>
<wgt id='1153'> +2.8644026e+02 </wgt>
<wgt id='1154'> +2.8395148e+02 </wgt>
<wgt id='1155'> +2.9263431e+02 </wgt>
<wgt id='1156'> +2.9275321e+02 </wgt>
<wgt id='1157'> +2.8999407e+02 </wgt>
<wgt id='1158'> +2.8680524e+02 </wgt>
<wgt id='1159'> +2.8684592e+02 </wgt>
<wgt id='1160'> +2.9443815e+02 </wgt>
<wgt id='1161'> +3.0094501e+02 </wgt>
<wgt id='1162'> +2.8995806e+02 </wgt>
<wgt id='1163'> +2.9545771e+02 </wgt>
<wgt id='1164'> +2.8408296e+02 </wgt>
<wgt id='1165'> +2.8496691e+02 </wgt>
<wgt id='1166'> +2.9181723e+02 </wgt>
<wgt id='1167'> +2.8418091e+02 </wgt>
<wgt id='1168'> +2.9029274e+02 </wgt>
<wgt id='1169'> +2.8637404e+02 </wgt>
<wgt id='1170'> +2.8904217e+02 </wgt>
<wgt id='1171'> +2.9453691e+02 </wgt>
<wgt id='1172'> +2.7191463e+02 </wgt>
<wgt id='1173'> +2.8634778e+02 </wgt>
<wgt id='1174'> +2.9114085e+02 </wgt>
<wgt id='1175'> +2.9277985e+02 </wgt>
<wgt id='1176'> +2.8519662e+02 </wgt>
<wgt id='1177'> +2.9509362e+02 </wgt>
<wgt id='1178'> +2.7970237e+02 </wgt>
<wgt id='1179'> +2.9152784e+02 </wgt>
<wgt id='1180'> +2.8966061e+02 </wgt>
<wgt id='1181'> +2.8287285e+02 </wgt>
<wgt id='1182'> +2.8656031e+02 </wgt>
<wgt id='1183'> +2.9874368e+02 </wgt>
<wgt id='1184'> +2.8399217e+02 </wgt>
<wgt id='1185'> +2.9001203e+02 </wgt>
<wgt id='1186'> +2.8465575e+02 </wgt>
<wgt id='1187'> +2.8067426e+02 </wgt>
<wgt id='1188'> +2.8659724e+02 </wgt>
<wgt id='1189'> +2.9110709e+02 </wgt>
<wgt id='1190'> +2.9528263e+02 </wgt>
<wgt id='1191'> +2.8314526e+02 </wgt>
<wgt id='1192'> +2.8515638e+02 </wgt>
<wgt id='1193'> +2.9906913e+02 </wgt>
<wgt id='1194'> +2.9683023e+02 </wgt>
<wgt id='1195'> +2.8462192e+02 </wgt>
<wgt id='1196'> +2.8844837e+02 </wgt>
<wgt id='1197'> +2.8470564e+02 </wgt>
<wgt id='1198'> +2.8913030e+02 </wgt>
<wgt id='1199'> +3.0064649e+02 </wgt>
<wgt id='1200'> +2.8100871e+02 </wgt>
<wgt id='1201'> +2.8744799e+02 </wgt>
<wgt id='1202'> +2.8772793e+02 </wgt>
<wgt id='1203'> +2.8416865e+02 </wgt>
<wgt id='1204'> +2.8120886e+02 </wgt>
<wgt id='1205'> +2.8577680e+02 </wgt>
<wgt id='1206'> +2.8559235e+02 </wgt>
<wgt id='1207'> +2.9115986e+02 </wgt>
<wgt id='1208'> +2.8746100e+02 </wgt>
<wgt id='1209'> +2.8566016e+02 </wgt>
<wgt id='1210'> +3.0703079e+02 </wgt>
<wgt id='1211'> +2.8572849e+02 </wgt>
<wgt id='1212'> +2.8669953e+02 </wgt>
<wgt id='1213'> +2.8581901e+02 </wgt>
<wgt id='1214'> +2.8666512e+02 </wgt>
<wgt id='1215'> +2.8631435e+02 </wgt>
<wgt id='1216'> +2.8640973e+02 </wgt>
<wgt id='1217'> +2.8573250e+02 </wgt>
<wgt id='1218'> +2.8709998e+02 </wgt>
<wgt id='1219'> +2.8730421e+02 </wgt>
<wgt id='1220'> +2.8645657e+02 </wgt>
<wgt id='1221'> +2.8790948e+02 </wgt>
<wgt id='1222'> +2.8806001e+02 </wgt>
<wgt id='1223'> +2.8623509e+02 </wgt>
<wgt id='1224'> +2.8554212e+02 </wgt>
<wgt id='1225'> +2.8679091e+02 </wgt>
<wgt id='1226'> +2.8691920e+02 </wgt>
<wgt id='1227'> +2.8559247e+02 </wgt>
<wgt id='1228'> +2.8587725e+02 </wgt>
<wgt id='1229'> +2.8632046e+02 </wgt>
<wgt id='1230'> +2.8747617e+02 </wgt>
<wgt id='1231'> +2.8648677e+02 </wgt>
<wgt id='1232'> +2.8582141e+02 </wgt>
<wgt id='1233'> +2.8696176e+02 </wgt>
<wgt id='1234'> +2.8643132e+02 </wgt>
<wgt id='1235'> +2.8705131e+02 </wgt>
<wgt id='1236'> +2.8602363e+02 </wgt>
<wgt id='1237'> +2.8713142e+02 </wgt>
<wgt id='1238'> +2.8623995e+02 </wgt>
<wgt id='1239'> +2.8602690e+02 </wgt>
<wgt id='1240'> +2.8663757e+02 </wgt>
<wgt id='1241'> +2.8605575e+02 </wgt>
<wgt id='1242'> +2.8648794e+02 </wgt>
<wgt id='1243'> +2.8889248e+02 </wgt>
<wgt id='1244'> +2.8745048e+02 </wgt>
<wgt id='1245'> +2.8664782e+02 </wgt>
<wgt id='1246'> +2.8782802e+02 </wgt>
<wgt id='1247'> +2.8727658e+02 </wgt>
<wgt id='1248'> +2.8535458e+02 </wgt>
<wgt id='1249'> +2.8648954e+02 </wgt>
<wgt id='1250'> +2.8662847e+02 </wgt>
<wgt id='1251'> +2.8561512e+02 </wgt>
<wgt id='1252'> +2.8678497e+02 </wgt>
<wgt id='1253'> +2.8838276e+02 </wgt>
<wgt id='1254'> +2.8825656e+02 </wgt>
<wgt id='1255'> +2.8718392e+02 </wgt>
<wgt id='1256'> +2.8455801e+02 </wgt>
<wgt id='1257'> +2.8647130e+02 </wgt>
<wgt id='1258'> +2.8649808e+02 </wgt>
<wgt id='1259'> +2.8651792e+02 </wgt>
<wgt id='1260'> +2.8705057e+02 </wgt>
<wgt id='1261'> +2.8742685e+02 </wgt>
<wgt id='1262'> +2.8549064e+02 </wgt>
<wgt id='1263'> +2.8623267e+02 </wgt>
<wgt id='1264'> +2.8673376e+02 </wgt>
<wgt id='1265'> +2.8732261e+02 </wgt>
<wgt id='1266'> +2.8695570e+02 </wgt>
<wgt id='1267'> +2.8717026e+02 </wgt>
<wgt id='1268'> +2.8691690e+02 </wgt>
<wgt id='1269'> +2.8666207e+02 </wgt>
<wgt id='1270'> +2.8657695e+02 </wgt>
<wgt id='1271'> +2.8696113e+02 </wgt>
<wgt id='1272'> +2.8652053e+02 </wgt>
<wgt id='1273'> +2.8639187e+02 </wgt>
<wgt id='1274'> +2.8661418e+02 </wgt>
<wgt id='1275'> +2.8621725e+02 </wgt>
<wgt id='1276'> +2.8650064e+02 </wgt>
<wgt id='1277'> +2.8692572e+02 </wgt>
<wgt id='1278'> +2.8653455e+02 </wgt>
<wgt id='1279'> +2.8710889e+02 </wgt>
<wgt id='1280'> +2.8691440e+02 </wgt>
<wgt id='1281'> +2.8661165e+02 </wgt>
<wgt id='1282'> +2.8675594e+02 </wgt>
<wgt id='1283'> +2.8679927e+02 </wgt>
<wgt id='1284'> +2.8617973e+02 </wgt>
<wgt id='1285'> +2.8643524e+02 </wgt>
<wgt id='1286'> +2.8671112e+02 </wgt>
<wgt id='1287'> +2.8642020e+02 </wgt>
<wgt id='1288'> +2.8641932e+02 </wgt>
<wgt id='1289'> +2.8662011e+02 </wgt>
<wgt id='1290'> +2.8665477e+02 </wgt>
<wgt id='1291'> +2.8638694e+02 </wgt>
<wgt id='1292'> +2.8671477e+02 </wgt>
<wgt id='1293'> +2.8673587e+02 </wgt>
<wgt id='1294'> +2.8675136e+02 </wgt>
<wgt id='1295'> +2.8674416e+02 </wgt>
<wgt id='1296'> +2.8683493e+02 </wgt>
<wgt id='1297'> +2.8669065e+02 </wgt>
<wgt id='1298'> +2.8668008e+02 </wgt>
<wgt id='1299'> +2.8674448e+02 </wgt>
<wgt id='1300'> +2.8667486e+02 </wgt>
<wgt id='1301'> +2.8655997e+02 </wgt>
<wgt id='1302'> +2.8677553e+02 </wgt>
<wgt id='1303'> +2.8654281e+02 </wgt>
<wgt id='1304'> +2.8685788e+02 </wgt>
<wgt id='1305'> +2.8672262e+02 </wgt>
<wgt id='1306'> +2.8666707e+02 </wgt>
<wgt id='1307'> +2.8671704e+02 </wgt>
<wgt id='1308'> +2.8660713e+02 </wgt>
<wgt id='1309'> +2.8672864e+02 </wgt>
<wgt id='1310'> +2.8658641e+02 </wgt>
<wgt id='1311'> +2.8689435e+02 </wgt>
<wgt id='1312'> +2.8651888e+02 </wgt>
<wgt id='1313'> +2.8682786e+02 </wgt>
<wgt id='1314'> +2.8662129e+02 </wgt>
<wgt id='1315'> +2.7450990e+02 </wgt>
<wgt id='1316'> +3.0145255e+02 </wgt>
<wgt id='1317'> +2.2168668e+02 </wgt>
<wgt id='1318'> +2.3417258e+02 </wgt>
<wgt id='1319'> +2.4697083e+02 </wgt>
<wgt id='1320'> +2.5812196e+02 </wgt>
<wgt id='1321'> +2.7897456e+02 </wgt>
<wgt id='1322'> +2.9473951e+02 </wgt>
<wgt id='1323'> +3.1667519e+02 </wgt>
<wgt id='1324'> +3.3414668e+02 </wgt>
<wgt id='1325'> +3.0186250e+02 </wgt>
<wgt id='1326'> +3.0187599e+02 </wgt>
<wgt id='1327'> +3.0208039e+02 </wgt>
<wgt id='1328'> +3.0095952e+02 </wgt>
<wgt id='1329'> +3.0248205e+02 </wgt>
<wgt id='1330'> +3.0078381e+02 </wgt>
<wgt id='1331'> +3.0142121e+02 </wgt>
<wgt id='1332'> +3.0035145e+02 </wgt>
<wgt id='1333'> +3.0171211e+02 </wgt>
<wgt id='1334'> +2.9990800e+02 </wgt>
<wgt id='1335'> +3.0116619e+02 </wgt>
<wgt id='1336'> +3.0223771e+02 </wgt>
<wgt id='1337'> +3.0184747e+02 </wgt>
<wgt id='1338'> +3.0262945e+02 </wgt>
<wgt id='1339'> +3.0105557e+02 </wgt>
<wgt id='1340'> +3.0120546e+02 </wgt>
<wgt id='1341'> +3.0231736e+02 </wgt>
<wgt id='1342'> +3.0125695e+02 </wgt>
<wgt id='1343'> +3.0225079e+02 </wgt>
<wgt id='1344'> +3.0200683e+02 </wgt>
<wgt id='1345'> +3.0195229e+02 </wgt>
<wgt id='1346'> +3.0209735e+02 </wgt>
<wgt id='1347'> +3.0148641e+02 </wgt>
<wgt id='1348'> +3.0129728e+02 </wgt>
<wgt id='1349'> +3.0162075e+02 </wgt>
<wgt id='1350'> +3.0195530e+02 </wgt>
<wgt id='1351'> +3.0158049e+02 </wgt>
<wgt id='1352'> +3.0212254e+02 </wgt>
<wgt id='1353'> +3.0159652e+02 </wgt>
<wgt id='1354'> +3.0193226e+02 </wgt>
<wgt id='1355'> +3.0314523e+02 </wgt>
<wgt id='1356'> +3.0226621e+02 </wgt>
<wgt id='1357'> +3.0108474e+02 </wgt>
<wgt id='1358'> +3.0106737e+02 </wgt>
<wgt id='1359'> +3.0184511e+02 </wgt>
<wgt id='1360'> +2.9936876e+02 </wgt>
<wgt id='1361'> +3.0184318e+02 </wgt>
<wgt id='1362'> +3.0333019e+02 </wgt>
<wgt id='1363'> +3.0184101e+02 </wgt>
<wgt id='1364'> +3.0143607e+02 </wgt>
<wgt id='1365'> +3.0352682e+02 </wgt>
<wgt id='1366'> +3.0284037e+02 </wgt>
<wgt id='1367'> +3.0111661e+02 </wgt>
<wgt id='1368'> +3.0113267e+02 </wgt>
<wgt id='1369'> +3.0181607e+02 </wgt>
<wgt id='1370'> +3.0168441e+02 </wgt>
<wgt id='1371'> +3.0353021e+02 </wgt>
<wgt id='1372'> +3.0192438e+02 </wgt>
<wgt id='1373'> +3.0205835e+02 </wgt>
<wgt id='1374'> +3.0192969e+02 </wgt>
<wgt id='1375'> +3.0062940e+02 </wgt>
<wgt id='1376'> +3.0242897e+02 </wgt>
<wgt id='1377'> +3.0108361e+02 </wgt>
<wgt id='1378'> +3.0199688e+02 </wgt>
<wgt id='1379'> +3.0225708e+02 </wgt>
<wgt id='1380'> +3.0097416e+02 </wgt>
<wgt id='1381'> +3.0163034e+02 </wgt>
<wgt id='1382'> +3.0197287e+02 </wgt>
<wgt id='1383'> +3.0140520e+02 </wgt>
<wgt id='1384'> +3.0163208e+02 </wgt>
<wgt id='1385'> +3.0244032e+02 </wgt>
<wgt id='1386'> +3.0192886e+02 </wgt>
<wgt id='1387'> +3.0220299e+02 </wgt>
<wgt id='1388'> +3.0148257e+02 </wgt>
<wgt id='1389'> +3.0180726e+02 </wgt>
<wgt id='1390'> +3.0139071e+02 </wgt>
<wgt id='1391'> +3.0195786e+02 </wgt>
<wgt id='1392'> +3.0111320e+02 </wgt>
<wgt id='1393'> +3.0202996e+02 </wgt>
<wgt id='1394'> +3.0162244e+02 </wgt>
<wgt id='1395'> +3.0174968e+02 </wgt>
<wgt id='1396'> +3.0158865e+02 </wgt>
<wgt id='1397'> +3.0199732e+02 </wgt>
<wgt id='1398'> +3.0179828e+02 </wgt>
<wgt id='1399'> +3.0219045e+02 </wgt>
<wgt id='1400'> +3.0204049e+02 </wgt>
<wgt id='1401'> +3.0196443e+02 </wgt>
<wgt id='1402'> +3.0191692e+02 </wgt>
<wgt id='1403'> +3.0206223e+02 </wgt>
<wgt id='1404'> +3.0158682e+02 </wgt>
<wgt id='1405'> +3.0171471e+02 </wgt>
<wgt id='1406'> +3.0176618e+02 </wgt>
<wgt id='1407'> +3.0177394e+02 </wgt>
<wgt id='1408'> +3.0165712e+02 </wgt>
<wgt id='1409'> +3.0165200e+02 </wgt>
<wgt id='1410'> +3.0206441e+02 </wgt>
<wgt id='1411'> +3.0175924e+02 </wgt>
<wgt id='1412'> +3.0161643e+02 </wgt>
<wgt id='1413'> +3.0166593e+02 </wgt>
<wgt id='1414'> +3.0177913e+02 </wgt>
<wgt id='1415'> +3.0189928e+02 </wgt>
<wgt id='1416'> +3.0178351e+02 </wgt>
<wgt id='1417'> +3.0183900e+02 </wgt>
<wgt id='1418'> +3.0192714e+02 </wgt>
<wgt id='1419'> +3.0195989e+02 </wgt>
<wgt id='1420'> +3.0188998e+02 </wgt>
<wgt id='1421'> +3.0177167e+02 </wgt>
<wgt id='1422'> +3.0179075e+02 </wgt>
<wgt id='1423'> +3.0176961e+02 </wgt>
<wgt id='1424'> +3.0190265e+02 </wgt>
<wgt id='1425'> +3.0197537e+02 </wgt>
<wgt id='1426'> +2.8804934e+02 </wgt>
<wgt id='1427'> +3.1792750e+02 </wgt>
<wgt id='1428'> +3.0634423e+02 </wgt>
<wgt id='1429'> +3.0670448e+02 </wgt>
<wgt id='1430'> +3.0706963e+02 </wgt>
<wgt id='1431'> +3.0634059e+02 </wgt>
<wgt id='1432'> +3.0875828e+02 </wgt>
<wgt id='1433'> +3.1281877e+02 </wgt>
<wgt id='1434'> +3.0771279e+02 </wgt>
<wgt id='1435'> +3.0692904e+02 </wgt>
<wgt id='1436'> +3.0941964e+02 </wgt>
<wgt id='1437'> +3.0484856e+02 </wgt>
<wgt id='1438'> +3.0729058e+02 </wgt>
<wgt id='1439'> +3.1114458e+02 </wgt>
<wgt id='1440'> +3.0137068e+02 </wgt>
<wgt id='1441'> +3.1572046e+02 </wgt>
<wgt id='1442'> +2.9760727e+02 </wgt>
<wgt id='1443'> +3.0240571e+02 </wgt>
<wgt id='1444'> +3.1665015e+02 </wgt>
<wgt id='1445'> +3.0444338e+02 </wgt>
<wgt id='1446'> +3.0836519e+02 </wgt>
<wgt id='1447'> +3.0113425e+02 </wgt>
<wgt id='1448'> +3.1096726e+02 </wgt>
<wgt id='1449'> +3.0385886e+02 </wgt>
<wgt id='1450'> +3.0790086e+02 </wgt>
<wgt id='1451'> +3.0372155e+02 </wgt>
<wgt id='1452'> +3.0933653e+02 </wgt>
<wgt id='1453'> +3.0682745e+02 </wgt>
<wgt id='1454'> +3.0595716e+02 </wgt>
<wgt id='1455'> +3.0474492e+02 </wgt>
<wgt id='1456'> +3.0894655e+02 </wgt>
<wgt id='1457'> +3.1209295e+02 </wgt>
<wgt id='1458'> +3.0267052e+02 </wgt>
<wgt id='1459'> +3.0822879e+02 </wgt>
<wgt id='1460'> +3.0347903e+02 </wgt>
<wgt id='1461'> +3.0319809e+02 </wgt>
<wgt id='1462'> +3.0949885e+02 </wgt>
<wgt id='1463'> +3.0344457e+02 </wgt>
<wgt id='1464'> +3.0891648e+02 </wgt>
<wgt id='1465'> +3.0230078e+02 </wgt>
<wgt id='1466'> +3.1117694e+02 </wgt>
<wgt id='1467'> +3.1143531e+02 </wgt>
<wgt id='1468'> +3.0390661e+02 </wgt>
<wgt id='1469'> +3.0824224e+02 </wgt>
<wgt id='1470'> +3.0640046e+02 </wgt>
<wgt id='1471'> +3.0750636e+02 </wgt>
<wgt id='1472'> +3.0962271e+02 </wgt>
<wgt id='1473'> +2.9673063e+02 </wgt>
<wgt id='1474'> +3.1136215e+02 </wgt>
<wgt id='1475'> +2.9612790e+02 </wgt>
<wgt id='1476'> +3.1134581e+02 </wgt>
<wgt id='1477'> +3.0552286e+02 </wgt>
<wgt id='1478'> +3.0659282e+02 </wgt>
<wgt id='1479'> +3.0656071e+02 </wgt>
<wgt id='1480'> +3.0536258e+02 </wgt>
<wgt id='1481'> +2.9606741e+02 </wgt>
<wgt id='1482'> +3.0249004e+02 </wgt>
<wgt id='1483'> +3.0525106e+02 </wgt>
<wgt id='1484'> +3.0776607e+02 </wgt>
<wgt id='1485'> +2.8970522e+02 </wgt>
<wgt id='1486'> +3.2464531e+02 </wgt>
<wgt id='1487'> +3.1258873e+02 </wgt>
<wgt id='1488'> +3.1168020e+02 </wgt>
<wgt id='1489'> +3.1288133e+02 </wgt>
<wgt id='1490'> +3.0750810e+02 </wgt>
<wgt id='1491'> +3.1747719e+02 </wgt>
<wgt id='1492'> +3.1303558e+02 </wgt>
<wgt id='1493'> +3.1196803e+02 </wgt>
<wgt id='1494'> +3.0691756e+02 </wgt>
<wgt id='1495'> +3.1664061e+02 </wgt>
<wgt id='1496'> +3.1561845e+02 </wgt>
<wgt id='1497'> +3.1409262e+02 </wgt>
<wgt id='1498'> +3.1221695e+02 </wgt>
<wgt id='1499'> +3.1255518e+02 </wgt>
<wgt id='1500'> +3.1636793e+02 </wgt>
<wgt id='1501'> +3.1078966e+02 </wgt>
<wgt id='1502'> +3.1824776e+02 </wgt>
<wgt id='1503'> +3.0911299e+02 </wgt>
<wgt id='1504'> +3.0774752e+02 </wgt>
<wgt id='1505'> +3.1839808e+02 </wgt>
<wgt id='1506'> +3.0776279e+02 </wgt>
<wgt id='1507'> +3.1748439e+02 </wgt>
<wgt id='1508'> +3.1132572e+02 </wgt>
<wgt id='1509'> +3.1503636e+02 </wgt>
<wgt id='1510'> +3.1676463e+02 </wgt>
<wgt id='1511'> +3.0829984e+02 </wgt>
<wgt id='1512'> +3.1328732e+02 </wgt>
<wgt id='1513'> +3.1192427e+02 </wgt>
<wgt id='1514'> +3.1515095e+02 </wgt>
<wgt id='1515'> +3.0895942e+02 </wgt>
<wgt id='1516'> +3.1543766e+02 </wgt>
<wgt id='1517'> +3.1158654e+02 </wgt>
<wgt id='1518'> +3.1218514e+02 </wgt>
<wgt id='1519'> +3.1312768e+02 </wgt>
<wgt id='1520'> +3.1354411e+02 </wgt>
<wgt id='1521'> +3.1058440e+02 </wgt>
<wgt id='1522'> +3.0651573e+02 </wgt>
<wgt id='1523'> +3.1809958e+02 </wgt>
<wgt id='1524'> +3.0723066e+02 </wgt>
<wgt id='1525'> +3.2020669e+02 </wgt>
<wgt id='1526'> +3.0887631e+02 </wgt>
<wgt id='1527'> +3.1583907e+02 </wgt>
<wgt id='1528'> +3.1169626e+02 </wgt>
<wgt id='1529'> +3.1258905e+02 </wgt>
<wgt id='1530'> +3.0397227e+02 </wgt>
<wgt id='1531'> +3.1751356e+02 </wgt>
<wgt id='1532'> +3.2325989e+02 </wgt>
<wgt id='1533'> +3.0997068e+02 </wgt>
<wgt id='1534'> +3.1378400e+02 </wgt>
<wgt id='1535'> +3.1696101e+02 </wgt>
<wgt id='1536'> +3.1701683e+02 </wgt>
<wgt id='1537'> +3.1703095e+02 </wgt>
<wgt id='1538'> +3.1353702e+02 </wgt>
<wgt id='1539'> +3.1247169e+02 </wgt>
<wgt id='1540'> +3.0030517e+02 </wgt>
<wgt id='1541'> +3.1093257e+02 </wgt>
<wgt id='1542'> +3.1267552e+02 </wgt>
<wgt id='1543'> +3.1264021e+02 </wgt>
<wgt id='1544'> +2.9606920e+02 </wgt>
<wgt id='1545'> +3.3079937e+02 </wgt>
<wgt id='1546'> +4.1003776e+02 </wgt>
<wgt id='1547'> +3.0481330e+02 </wgt>
<wgt id='1548'> +3.0534547e+02 </wgt>
<wgt id='1549'> +3.0423807e+02 </wgt>
<wgt id='1550'> +3.0495967e+02 </wgt>
<wgt id='1551'> +3.0471124e+02 </wgt>
<wgt id='1552'> +3.0521577e+02 </wgt>
<wgt id='1553'> +3.0443006e+02 </wgt>
<wgt id='1554'> +3.0423905e+02 </wgt>
<wgt id='1555'> +3.0544806e+02 </wgt>
<wgt id='1556'> +3.0623573e+02 </wgt>
<wgt id='1557'> +3.0341082e+02 </wgt>
<wgt id='1558'> +3.0542564e+02 </wgt>
<wgt id='1559'> +3.0346994e+02 </wgt>
<wgt id='1560'> +3.0447702e+02 </wgt>
<wgt id='1561'> +3.0541007e+02 </wgt>
<wgt id='1562'> +3.0437143e+02 </wgt>
<wgt id='1563'> +3.0505452e+02 </wgt>
<wgt id='1564'> +3.0284756e+02 </wgt>
<wgt id='1565'> +3.0711845e+02 </wgt>
<wgt id='1566'> +3.0453626e+02 </wgt>
<wgt id='1567'> +3.0504824e+02 </wgt>
<wgt id='1568'> +3.0402054e+02 </wgt>
<wgt id='1569'> +3.0587094e+02 </wgt>
<wgt id='1570'> +3.0239047e+02 </wgt>
<wgt id='1571'> +3.0649174e+02 </wgt>
<wgt id='1572'> +3.0910282e+02 </wgt>
<wgt id='1573'> +2.9937569e+02 </wgt>
<wgt id='1574'> +3.0537716e+02 </wgt>
<wgt id='1575'> +3.0487208e+02 </wgt>
<wgt id='1576'> +3.0280906e+02 </wgt>
<wgt id='1577'> +3.0722079e+02 </wgt>
<wgt id='1578'> +3.0074351e+02 </wgt>
<wgt id='1579'> +3.0937011e+02 </wgt>
<wgt id='1580'> +3.0660761e+02 </wgt>
<wgt id='1581'> +3.0303814e+02 </wgt>
<wgt id='1582'> +3.0571017e+02 </wgt>
<wgt id='1583'> +3.0317907e+02 </wgt>
<wgt id='1584'> +3.0521863e+02 </wgt>
<wgt id='1585'> +3.0477605e+02 </wgt>
<wgt id='1586'> +3.0357865e+02 </wgt>
<wgt id='1587'> +3.0619900e+02 </wgt>
<wgt id='1588'> +3.0251416e+02 </wgt>
<wgt id='1589'> +3.0751860e+02 </wgt>
<wgt id='1590'> +3.0863784e+02 </wgt>
<wgt id='1591'> +3.0400066e+02 </wgt>
<wgt id='1592'> +3.0419008e+02 </wgt>
<wgt id='1593'> +3.0642102e+02 </wgt>
<wgt id='1594'> +3.0360534e+02 </wgt>
<wgt id='1595'> +3.0853041e+02 </wgt>
<wgt id='1596'> +3.0362829e+02 </wgt>
<wgt id='1597'> +3.0557470e+02 </wgt>
<wgt id='1598'> +2.9560436e+02 </wgt>
<wgt id='1599'> +2.9600827e+02 </wgt>
<wgt id='1600'> +2.9506023e+02 </wgt>
<wgt id='1601'> +2.9637518e+02 </wgt>
<wgt id='1602'> +2.9483426e+02 </wgt>
<wgt id='1603'> +2.9600870e+02 </wgt>
<wgt id='1604'> +2.9543672e+02 </wgt>
<wgt id='1605'> +2.9496953e+02 </wgt>
<wgt id='1606'> +2.9622422e+02 </wgt>
<wgt id='1607'> +2.9632085e+02 </wgt>
<wgt id='1608'> +2.9490260e+02 </wgt>
<wgt id='1609'> +2.9275202e+02 </wgt>
<wgt id='1610'> +2.9683070e+02 </wgt>
<wgt id='1611'> +2.9548740e+02 </wgt>
<wgt id='1612'> +2.9574211e+02 </wgt>
<wgt id='1613'> +2.9483342e+02 </wgt>
<wgt id='1614'> +2.9642283e+02 </wgt>
<wgt id='1615'> +2.9218199e+02 </wgt>
<wgt id='1616'> +2.9746758e+02 </wgt>
<wgt id='1617'> +2.9535675e+02 </wgt>
<wgt id='1618'> +2.9593898e+02 </wgt>
<wgt id='1619'> +2.9591539e+02 </wgt>
<wgt id='1620'> +2.9535839e+02 </wgt>
<wgt id='1621'> +2.9524217e+02 </wgt>
<wgt id='1622'> +2.9563194e+02 </wgt>
<wgt id='1623'> +2.9585967e+02 </wgt>
<wgt id='1624'> +2.9497448e+02 </wgt>
<wgt id='1625'> +2.9577323e+02 </wgt>
<wgt id='1626'> +2.9595878e+02 </wgt>
<wgt id='1627'> +2.9762653e+02 </wgt>
<wgt id='1628'> +2.9002093e+02 </wgt>
<wgt id='1629'> +2.9380285e+02 </wgt>
<wgt id='1630'> +2.9948837e+02 </wgt>
<wgt id='1631'> +2.9638904e+02 </wgt>
<wgt id='1632'> +2.9437090e+02 </wgt>
<wgt id='1633'> +2.9291473e+02 </wgt>
<wgt id='1634'> +2.9706742e+02 </wgt>
<wgt id='1635'> +2.9554269e+02 </wgt>
<wgt id='1636'> +2.9614084e+02 </wgt>
<wgt id='1637'> +2.9401789e+02 </wgt>
<wgt id='1638'> +2.9678447e+02 </wgt>
<wgt id='1639'> +2.9790809e+02 </wgt>
<wgt id='1640'> +2.9246304e+02 </wgt>
<wgt id='1641'> +2.9587028e+02 </wgt>
<wgt id='1642'> +2.9408229e+02 </wgt>
<wgt id='1643'> +2.9599105e+02 </wgt>
<wgt id='1644'> +2.9610851e+02 </wgt>
<wgt id='1645'> +2.9605251e+02 </wgt>
<wgt id='1646'> +2.9551788e+02 </wgt>
<wgt id='1647'> +2.9765350e+02 </wgt>
<wgt id='1648'> +2.9502574e+02 </wgt>
<wgt id='1649'> +6.0682451e+02 </wgt>
<wgt id='1650'> +2.8814192e+02 </wgt>
<wgt id='1651'> +2.8805036e+02 </wgt>
<wgt id='1652'> +2.8822564e+02 </wgt>
<wgt id='1653'> +2.8814471e+02 </wgt>
<wgt id='1654'> +2.8813264e+02 </wgt>
<wgt id='1655'> +2.8747472e+02 </wgt>
<wgt id='1656'> +2.8828569e+02 </wgt>
<wgt id='1657'> +2.8827775e+02 </wgt>
<wgt id='1658'> +2.8869502e+02 </wgt>
<wgt id='1659'> +2.8929170e+02 </wgt>
<wgt id='1660'> +2.8798596e+02 </wgt>
<wgt id='1661'> +2.8818312e+02 </wgt>
<wgt id='1662'> +2.8750019e+02 </wgt>
<wgt id='1663'> +2.8767047e+02 </wgt>
<wgt id='1664'> +2.8852998e+02 </wgt>
<wgt id='1665'> +2.8784369e+02 </wgt>
<wgt id='1666'> +2.8860593e+02 </wgt>
<wgt id='1667'> +2.8846529e+02 </wgt>
<wgt id='1668'> +2.8912886e+02 </wgt>
<wgt id='1669'> +2.8723636e+02 </wgt>
<wgt id='1670'> +2.8954985e+02 </wgt>
<wgt id='1671'> +2.8753146e+02 </wgt>
<wgt id='1672'> +2.9069717e+02 </wgt>
<wgt id='1673'> +2.8689400e+02 </wgt>
<wgt id='1674'> +2.8595301e+02 </wgt>
<wgt id='1675'> +2.8628380e+02 </wgt>
<wgt id='1676'> +2.8802819e+02 </wgt>
<wgt id='1677'> +2.8863724e+02 </wgt>
<wgt id='1678'> +2.8823193e+02 </wgt>
<wgt id='1679'> +2.9471669e+02 </wgt>
<wgt id='1680'> +3.0621205e+02 </wgt>
<wgt id='1681'> +3.0313352e+02 </wgt>
<wgt id='1682'> +3.0405376e+02 </wgt>
<wgt id='1683'> +3.0696703e+02 </wgt>
<wgt id='1684'> +3.0554895e+02 </wgt>
<wgt id='1685'> +3.0785837e+02 </wgt>
<wgt id='1686'> +3.0475150e+02 </wgt>
<wgt id='1687'> +3.0753340e+02 </wgt>
<wgt id='1688'> +3.0591747e+02 </wgt>
<wgt id='1689'> +3.0629144e+02 </wgt>
<wgt id='1690'> +3.0346737e+02 </wgt>
<wgt id='1691'> +3.0462476e+02 </wgt>
<wgt id='1692'> +3.0966429e+02 </wgt>
<wgt id='1693'> +3.0702799e+02 </wgt>
<wgt id='1694'> +3.0856646e+02 </wgt>
<wgt id='1695'> +3.0713891e+02 </wgt>
<wgt id='1696'> +3.0590113e+02 </wgt>
<wgt id='1697'> +3.0878655e+02 </wgt>
<wgt id='1698'> +3.0409851e+02 </wgt>
<wgt id='1699'> +3.0378920e+02 </wgt>
<wgt id='1700'> +3.0312517e+02 </wgt>
<wgt id='1701'> +3.0239977e+02 </wgt>
<wgt id='1702'> +3.0963866e+02 </wgt>
<wgt id='1703'> +3.0400080e+02 </wgt>
<wgt id='1704'> +3.0598072e+02 </wgt>
<wgt id='1705'> +3.0655864e+02 </wgt>
<wgt id='1706'> +3.0651462e+02 </wgt>
<wgt id='1707'> +3.0650047e+02 </wgt>
<wgt id='1708'> +3.0540942e+02 </wgt>
<wgt id='1709'> +3.0499813e+02 </wgt>
<wgt id='1710'> +3.0623126e+02 </wgt>
<wgt id='1711'> +3.0628282e+02 </wgt>
<wgt id='1712'> +3.0612029e+02 </wgt>
<wgt id='1713'> +3.0532559e+02 </wgt>
<wgt id='1714'> +3.0629170e+02 </wgt>
<wgt id='1715'> +3.0737834e+02 </wgt>
<wgt id='1716'> +3.0594263e+02 </wgt>
<wgt id='1717'> +3.0630921e+02 </wgt>
<wgt id='1718'> +3.0607728e+02 </wgt>
<wgt id='1719'> +3.0626400e+02 </wgt>
<wgt id='1720'> +3.0647189e+02 </wgt>
<wgt id='1721'> +3.0638529e+02 </wgt>
<wgt id='1722'> +3.0611435e+02 </wgt>
<wgt id='1723'> +3.0574084e+02 </wgt>
<wgt id='1724'> +3.0657270e+02 </wgt>
<wgt id='1725'> +3.0641555e+02 </wgt>
<wgt id='1726'> +3.0680531e+02 </wgt>
<wgt id='1727'> +3.0590761e+02 </wgt>
<wgt id='1728'> +3.0587641e+02 </wgt>
<wgt id='1729'> +3.0630797e+02 </wgt>
<wgt id='1730'> +3.0609821e+02 </wgt>
<wgt id='1731'> +3.0622176e+02 </wgt>
<wgt id='1732'> +3.0610114e+02 </wgt>
<wgt id='1733'> +3.0587576e+02 </wgt>
<wgt id='1734'> +3.0617270e+02 </wgt>
<wgt id='1735'> +3.0617784e+02 </wgt>
<wgt id='1736'> +3.0608989e+02 </wgt>
<wgt id='1737'> +3.0626646e+02 </wgt>
<wgt id='1738'> +3.0651004e+02 </wgt>
<wgt id='1739'> +3.0610684e+02 </wgt>
<wgt id='1740'> +3.0589612e+02 </wgt>
<wgt id='1741'> +3.0633791e+02 </wgt>
<wgt id='1742'> +3.0603484e+02 </wgt>
<wgt id='1743'> +3.0623752e+02 </wgt>
<wgt id='1744'> +3.0612132e+02 </wgt>
<wgt id='1745'> +3.0630721e+02 </wgt>
<wgt id='1746'> +3.0628450e+02 </wgt>
<wgt id='1747'> +3.0625331e+02 </wgt>
<wgt id='1748'> +3.0640286e+02 </wgt>
<wgt id='1749'> +3.0632959e+02 </wgt>
<wgt id='1750'> +3.0621154e+02 </wgt>
<wgt id='1751'> +3.0589756e+02 </wgt>
<wgt id='1752'> +3.0601941e+02 </wgt>
<wgt id='1753'> +3.0598463e+02 </wgt>
<wgt id='1754'> +3.0628825e+02 </wgt>
<wgt id='1755'> +3.0611637e+02 </wgt>
<wgt id='1756'> +3.0614567e+02 </wgt>
<wgt id='1757'> +3.0608300e+02 </wgt>
<wgt id='1758'> +3.0628835e+02 </wgt>
<wgt id='1759'> +3.0644845e+02 </wgt>
<wgt id='1760'> +3.0606961e+02 </wgt>
<wgt id='1761'> +3.0635813e+02 </wgt>
<wgt id='1762'> +3.0594492e+02 </wgt>
<wgt id='1763'> +3.0640873e+02 </wgt>
<wgt id='1764'> +3.0640567e+02 </wgt>
<wgt id='1765'> +3.0637224e+02 </wgt>
<wgt id='1766'> +3.0649993e+02 </wgt>
<wgt id='1767'> +3.0622563e+02 </wgt>
<wgt id='1768'> +3.0614233e+02 </wgt>
<wgt id='1769'> +3.0620324e+02 </wgt>
<wgt id='1770'> +3.0617002e+02 </wgt>
<wgt id='1771'> +3.0612134e+02 </wgt>
<wgt id='1772'> +3.0617058e+02 </wgt>
<wgt id='1773'> +3.0605776e+02 </wgt>
<wgt id='1774'> +3.0624621e+02 </wgt>
<wgt id='1775'> +3.0624945e+02 </wgt>
<wgt id='1776'> +3.0611069e+02 </wgt>
<wgt id='1777'> +3.0628950e+02 </wgt>
<wgt id='1778'> +3.0633069e+02 </wgt>
<wgt id='1779'> +3.0626433e+02 </wgt>
<wgt id='1780'> +3.0619785e+02 </wgt>
<wgt id='1781'> +2.9460888e+02 </wgt>
<wgt id='1782'> +3.1884591e+02 </wgt>
<wgt id='1783'> +2.9825428e+02 </wgt>
<wgt id='1784'> +2.9981563e+02 </wgt>
<wgt id='1785'> +2.9663942e+02 </wgt>
<wgt id='1786'> +3.0079648e+02 </wgt>
<wgt id='1787'> +3.0015145e+02 </wgt>
<wgt id='1788'> +2.9869850e+02 </wgt>
<wgt id='1789'> +3.0092485e+02 </wgt>
<wgt id='1790'> +2.9989999e+02 </wgt>
<wgt id='1791'> +2.9852393e+02 </wgt>
<wgt id='1792'> +2.9921266e+02 </wgt>
<wgt id='1793'> +2.9975456e+02 </wgt>
<wgt id='1794'> +2.9764761e+02 </wgt>
<wgt id='1795'> +2.9851496e+02 </wgt>
<wgt id='1796'> +3.0334333e+02 </wgt>
<wgt id='1797'> +2.9833605e+02 </wgt>
<wgt id='1798'> +2.9459780e+02 </wgt>
<wgt id='1799'> +2.9592438e+02 </wgt>
<wgt id='1800'> +2.9826358e+02 </wgt>
<wgt id='1801'> +3.0082424e+02 </wgt>
<wgt id='1802'> +3.0000766e+02 </wgt>
<wgt id='1803'> +3.0070693e+02 </wgt>
<wgt id='1804'> +2.9308153e+02 </wgt>
<wgt id='1805'> +2.9865312e+02 </wgt>
<wgt id='1806'> +2.9530532e+02 </wgt>
<wgt id='1807'> +2.9675868e+02 </wgt>
<wgt id='1808'> +2.9929162e+02 </wgt>
<wgt id='1809'> +2.9778177e+02 </wgt>
<wgt id='1810'> +2.9772538e+02 </wgt>
<wgt id='1811'> +2.9847280e+02 </wgt>
<wgt id='1812'> +2.9906273e+02 </wgt>
<wgt id='1813'> +2.9804007e+02 </wgt>
<wgt id='1814'> +2.9739547e+02 </wgt>
<wgt id='1815'> +2.9859603e+02 </wgt>
<wgt id='1816'> +2.9859990e+02 </wgt>
<wgt id='1817'> +2.9888443e+02 </wgt>
<wgt id='1818'> +2.9893061e+02 </wgt>
<wgt id='1819'> +2.9855583e+02 </wgt>
<wgt id='1820'> +2.9836305e+02 </wgt>
<wgt id='1821'> +2.9852609e+02 </wgt>
<wgt id='1822'> +2.9808933e+02 </wgt>
<wgt id='1823'> +2.9797101e+02 </wgt>
<wgt id='1824'> +2.9821007e+02 </wgt>
<wgt id='1825'> +2.9821050e+02 </wgt>
<wgt id='1826'> +2.9758981e+02 </wgt>
<wgt id='1827'> +2.9841836e+02 </wgt>
<wgt id='1828'> +2.9816963e+02 </wgt>
<wgt id='1829'> +2.9776529e+02 </wgt>
<wgt id='1830'> +2.9846019e+02 </wgt>
<wgt id='1831'> +2.9835520e+02 </wgt>
<wgt id='1832'> +2.9807607e+02 </wgt>
<wgt id='1833'> +2.9819092e+02 </wgt>
<wgt id='1834'> +2.9853872e+02 </wgt>
<wgt id='1835'> +2.9857352e+02 </wgt>
<wgt id='1836'> +2.9838274e+02 </wgt>
<wgt id='1837'> +2.9812185e+02 </wgt>
<wgt id='1838'> +2.9804796e+02 </wgt>
<wgt id='1839'> +2.9843612e+02 </wgt>
<wgt id='1840'> +2.9822929e+02 </wgt>
<wgt id='1841'> +2.9785994e+02 </wgt>
<wgt id='1842'> +2.9808847e+02 </wgt>
<wgt id='1843'> +2.9821810e+02 </wgt>
<wgt id='1844'> +2.9817541e+02 </wgt>
<wgt id='1845'> +2.9836785e+02 </wgt>
<wgt id='1846'> +2.9832436e+02 </wgt>
<wgt id='1847'> +2.9835560e+02 </wgt>
<wgt id='1848'> +2.9812501e+02 </wgt>
<wgt id='1849'> +2.9814257e+02 </wgt>
<wgt id='1850'> +2.9830217e+02 </wgt>
<wgt id='1851'> +2.9825546e+02 </wgt>
<wgt id='1852'> +2.9859187e+02 </wgt>
<wgt id='1853'> +2.9822081e+02 </wgt>
<wgt id='1854'> +2.9840593e+02 </wgt>
<wgt id='1855'> +2.9846946e+02 </wgt>
<wgt id='1856'> +2.9820342e+02 </wgt>
<wgt id='1857'> +2.9834266e+02 </wgt>
<wgt id='1858'> +2.9818157e+02 </wgt>
<wgt id='1859'> +2.9824998e+02 </wgt>
<wgt id='1860'> +2.9835477e+02 </wgt>
<wgt id='1861'> +2.9837085e+02 </wgt>
<wgt id='1862'> +2.9816424e+02 </wgt>
<wgt id='1863'> +2.9852996e+02 </wgt>
<wgt id='1864'> +2.9828658e+02 </wgt>
<wgt id='1865'> +2.9830547e+02 </wgt>
<wgt id='1866'> +2.9817608e+02 </wgt>
<wgt id='1867'> +2.9810757e+02 </wgt>
<wgt id='1868'> +2.9806200e+02 </wgt>
<wgt id='1869'> +2.9830462e+02 </wgt>
<wgt id='1870'> +2.9791881e+02 </wgt>
<wgt id='1871'> +2.9811344e+02 </wgt>
<wgt id='1872'> +2.9814102e+02 </wgt>
<wgt id='1873'> +2.9831686e+02 </wgt>
<wgt id='1874'> +2.9822043e+02 </wgt>
<wgt id='1875'> +2.9823107e+02 </wgt>
<wgt id='1876'> +2.9816467e+02 </wgt>
<wgt id='1877'> +2.9820445e+02 </wgt>
<wgt id='1878'> +2.9828682e+02 </wgt>
<wgt id='1879'> +2.9816517e+02 </wgt>
<wgt id='1880'> +2.9829393e+02 </wgt>
<wgt id='1881'> +2.9823961e+02 </wgt>
<wgt id='1882'> +2.9816815e+02 </wgt>
<wgt id='1883'> +2.9824066e+02 </wgt>
<wgt id='1884'> +2.8650498e+02 </wgt>
<wgt id='1885'> +3.1083971e+02 </wgt>
<wgt id='1886'> +3.0622074e+02 </wgt>
<wgt id='1887'> +3.0452601e+02 </wgt>
<wgt id='1888'> +3.0403436e+02 </wgt>
<wgt id='1889'> +3.0606325e+02 </wgt>
<wgt id='1890'> +3.0770208e+02 </wgt>
<wgt id='1891'> +3.0228020e+02 </wgt>
<wgt id='1892'> +3.0325852e+02 </wgt>
<wgt id='1893'> +3.0575226e+02 </wgt>
<wgt id='1894'> +3.0517958e+02 </wgt>
<wgt id='1895'> +3.0518662e+02 </wgt>
<wgt id='1896'> +3.0545070e+02 </wgt>
<wgt id='1897'> +3.0449130e+02 </wgt>
<wgt id='1898'> +3.0382014e+02 </wgt>
<wgt id='1899'> +3.0638579e+02 </wgt>
<wgt id='1900'> +3.0668543e+02 </wgt>
<wgt id='1901'> +3.0784670e+02 </wgt>
<wgt id='1902'> +3.0686988e+02 </wgt>
<wgt id='1903'> +3.0390705e+02 </wgt>
<wgt id='1904'> +3.0712469e+02 </wgt>
<wgt id='1905'> +2.9900539e+02 </wgt>
<wgt id='1906'> +3.0601828e+02 </wgt>
<wgt id='1907'> +3.0604262e+02 </wgt>
<wgt id='1908'> +3.0770585e+02 </wgt>
<wgt id='1909'> +3.0654745e+02 </wgt>
<wgt id='1910'> +3.0612644e+02 </wgt>
<wgt id='1911'> +3.0601535e+02 </wgt>
<wgt id='1912'> +3.0667050e+02 </wgt>
<wgt id='1913'> +3.0636974e+02 </wgt>
<wgt id='1914'> +3.0755159e+02 </wgt>
<wgt id='1915'> +3.0649001e+02 </wgt>
<wgt id='1916'> +3.0611894e+02 </wgt>
<wgt id='1917'> +2.9460888e+02 </wgt>
<wgt id='1918'> +3.1884591e+02 </wgt>
<wgt id='1919'> +2.9825175e+02 </wgt>
<wgt id='1920'> +2.9537822e+02 </wgt>
<wgt id='1921'> +2.9566687e+02 </wgt>
<wgt id='1922'> +2.9844203e+02 </wgt>
<wgt id='1923'> +2.9304516e+02 </wgt>
<wgt id='1924'> +3.0182041e+02 </wgt>
<wgt id='1925'> +2.9849157e+02 </wgt>
<wgt id='1926'> +2.9915947e+02 </wgt>
<wgt id='1927'> +2.9814618e+02 </wgt>
<wgt id='1928'> +2.9923673e+02 </wgt>
<wgt id='1929'> +3.0080033e+02 </wgt>
<wgt id='1930'> +2.9809814e+02 </wgt>
<wgt id='1931'> +2.9729717e+02 </wgt>
<wgt id='1932'> +2.9818430e+02 </wgt>
<wgt id='1933'> +2.9802925e+02 </wgt>
<wgt id='1934'> +2.9611001e+02 </wgt>
<wgt id='1935'> +2.9927030e+02 </wgt>
<wgt id='1936'> +2.9874417e+02 </wgt>
<wgt id='1937'> +2.9854223e+02 </wgt>
<wgt id='1938'> +2.9933177e+02 </wgt>
<wgt id='1939'> +2.9831461e+02 </wgt>
<wgt id='1940'> +2.9913126e+02 </wgt>
<wgt id='1941'> +2.9595180e+02 </wgt>
<wgt id='1942'> +2.9841859e+02 </wgt>
<wgt id='1943'> +2.9610909e+02 </wgt>
<wgt id='1944'> +2.9746721e+02 </wgt>
<wgt id='1945'> +2.9827038e+02 </wgt>
<wgt id='1946'> +2.9988090e+02 </wgt>
<wgt id='1947'> +2.9779309e+02 </wgt>
<wgt id='1948'> +2.9135519e+02 </wgt>
<wgt id='1949'> +2.9829954e+02 </wgt>
<wgt id='1950'> +2.8650498e+02 </wgt>
<wgt id='1951'> +3.1083971e+02 </wgt>
<wgt id='1952'> +2.5250535e+02 </wgt>
<wgt id='1953'> +2.5222714e+02 </wgt>
<wgt id='1954'> +2.5278297e+02 </wgt>
<wgt id='1955'> +2.5299208e+02 </wgt>
<wgt id='1956'> +2.5201886e+02 </wgt>
<wgt id='1957'> +2.5251049e+02 </wgt>
<wgt id='1958'> +2.5250104e+02 </wgt>
<wgt id='1959'> +2.5302079e+02 </wgt>
<wgt id='1960'> +2.5200240e+02 </wgt>
<wgt id='1961'> +2.5231057e+02 </wgt>
<wgt id='1962'> +2.5271902e+02 </wgt>
<wgt id='1963'> +2.5103385e+02 </wgt>
<wgt id='1964'> +2.5396210e+02 </wgt>
<wgt id='1965'> +2.5241745e+02 </wgt>
<wgt id='1966'> +2.5259294e+02 </wgt>
<wgt id='1967'> +2.5430735e+02 </wgt>
<wgt id='1968'> +2.5101803e+02 </wgt>
<wgt id='1969'> +2.5324463e+02 </wgt>
<wgt id='1970'> +2.5164378e+02 </wgt>
<wgt id='1971'> +2.5521847e+02 </wgt>
<wgt id='1972'> +2.4995147e+02 </wgt>
<wgt id='1973'> +2.5270060e+02 </wgt>
<wgt id='1974'> +2.5219632e+02 </wgt>
<wgt id='1975'> +2.4933436e+02 </wgt>
<wgt id='1976'> +2.5544020e+02 </wgt>
<wgt id='1977'> +2.4939407e+02 </wgt>
<wgt id='1978'> +2.5581635e+02 </wgt>
<wgt id='1979'> +2.5701782e+02 </wgt>
<wgt id='1980'> +2.4861060e+02 </wgt>
<wgt id='1981'> +2.5250535e+02 </wgt>
<wgt id='1982'> +2.5369853e+02 </wgt>
<wgt id='1983'> +2.5068445e+02 </wgt>
<wgt id='1984'> +2.5370605e+02 </wgt>
<wgt id='1985'> +2.5130251e+02 </wgt>
<wgt id='1986'> +2.4918349e+02 </wgt>
<wgt id='1987'> +2.6081134e+02 </wgt>
<wgt id='1988'> +2.5288705e+02 </wgt>
<wgt id='1989'> +2.5242862e+02 </wgt>
<wgt id='1990'> +2.5414801e+02 </wgt>
<wgt id='1991'> +2.5107037e+02 </wgt>
<wgt id='1992'> +2.5065243e+02 </wgt>
<wgt id='1993'> +2.5302173e+02 </wgt>
<wgt id='1994'> +2.5789282e+02 </wgt>
<wgt id='1995'> +2.9052913e+02 </wgt>
<wgt id='1996'> +2.9027498e+02 </wgt>
<wgt id='1997'> +2.9071795e+02 </wgt>
<wgt id='1998'> +2.9092677e+02 </wgt>
<wgt id='1999'> +2.9006613e+02 </wgt>
<wgt id='2000'> +2.9086697e+02 </wgt>
<wgt id='2001'> +2.9012741e+02 </wgt>
<wgt id='2002'> +2.9156092e+02 </wgt>
<wgt id='2003'> +2.8945047e+02 </wgt>
<wgt id='2004'> +2.8948280e+02 </wgt>
<wgt id='2005'> +2.9152653e+02 </wgt>
<wgt id='2006'> +2.9140790e+02 </wgt>
<wgt id='2007'> +2.8961106e+02 </wgt>
<wgt id='2008'> +2.9027386e+02 </wgt>
<wgt id='2009'> +2.9073322e+02 </wgt>
<wgt id='2010'> +2.9164802e+02 </wgt>
<wgt id='2011'> +2.8963272e+02 </wgt>
<wgt id='2012'> +2.8963817e+02 </wgt>
<wgt id='2013'> +2.9135470e+02 </wgt>
<wgt id='2014'> +2.9224268e+02 </wgt>
<wgt id='2015'> +2.8879059e+02 </wgt>
<wgt id='2016'> +2.9495147e+02 </wgt>
<wgt id='2017'> +2.8605065e+02 </wgt>
<wgt id='2018'> +2.8590559e+02 </wgt>
<wgt id='2019'> +2.9510053e+02 </wgt>
<wgt id='2020'> +2.8483840e+02 </wgt>
<wgt id='2021'> +2.9571210e+02 </wgt>
<wgt id='2022'> +2.8807801e+02 </wgt>
<wgt id='2023'> +2.9328817e+02 </wgt>
<wgt id='2024'> +2.9051221e+02 </wgt>
<wgt id='2025'> +2.9127707e+02 </wgt>
<wgt id='2026'> +2.8753494e+02 </wgt>
<wgt id='2027'> +2.9128180e+02 </wgt>
<wgt id='2028'> +2.9017191e+02 </wgt>
<wgt id='2029'> +2.7760385e+02 </wgt>
<wgt id='2030'> +2.9792633e+02 </wgt>
<wgt id='2031'> +2.9056558e+02 </wgt>
<wgt id='2032'> +2.9083592e+02 </wgt>
<wgt id='2033'> +2.9265629e+02 </wgt>
<wgt id='2034'> +2.7586806e+02 </wgt>
<wgt id='2035'> +2.9199370e+02 </wgt>
<wgt id='2036'> +2.8933033e+02 </wgt>
<wgt id='2037'> +2.9784394e+02 </wgt>
<wgt id='2038'> +3.1120234e+02 </wgt>
<wgt id='2039'> +3.1116352e+02 </wgt>
<wgt id='2040'> +3.1112606e+02 </wgt>
<wgt id='2041'> +3.1108856e+02 </wgt>
<wgt id='2042'> +3.1104980e+02 </wgt>
<wgt id='2043'> +3.1101114e+02 </wgt>
<wgt id='2044'> +3.1097366e+02 </wgt>
<wgt id='2045'> +3.1093506e+02 </wgt>
<wgt id='2046'> +3.1089625e+02 </wgt>
<wgt id='2047'> +3.1085799e+02 </wgt>
<wgt id='2048'> +3.1081966e+02 </wgt>
<wgt id='2049'> +3.1078045e+02 </wgt>
<wgt id='2050'> +3.1074330e+02 </wgt>
<wgt id='2051'> +3.1070652e+02 </wgt>
<wgt id='2052'> +3.1066783e+02 </wgt>
<wgt id='2053'> +3.1063003e+02 </wgt>
<wgt id='2054'> +3.1059155e+02 </wgt>
<wgt id='2055'> +3.1055277e+02 </wgt>
<wgt id='2056'> +3.1051558e+02 </wgt>
<wgt id='2057'> +3.1047685e+02 </wgt>
<wgt id='2058'> +3.1043811e+02 </wgt>
<wgt id='2059'> +3.1039937e+02 </wgt>
<wgt id='2060'> +3.1036126e+02 </wgt>
<wgt id='2061'> +3.1032482e+02 </wgt>
<wgt id='2062'> +3.1028599e+02 </wgt>
<wgt id='2063'> +3.1024847e+02 </wgt>
<wgt id='2064'> +3.1020980e+02 </wgt>
<wgt id='2065'> +3.1017126e+02 </wgt>
<wgt id='2066'> +3.1013343e+02 </wgt>
<wgt id='2067'> +3.1009521e+02 </wgt>
<wgt id='2068'> +3.1005623e+02 </wgt>
<wgt id='2069'> +2.9438500e+02 </wgt>
<wgt id='2070'> +2.9582673e+02 </wgt>
<wgt id='2071'> +2.9275577e+02 </wgt>
<wgt id='2072'> +2.9691264e+02 </wgt>
<wgt id='2073'> +2.9624053e+02 </wgt>
<wgt id='2074'> +2.9482861e+02 </wgt>
<wgt id='2075'> +2.9710122e+02 </wgt>
<wgt id='2076'> +2.9607608e+02 </wgt>
<wgt id='2077'> +2.9465529e+02 </wgt>
<wgt id='2078'> +2.9534568e+02 </wgt>
<wgt id='2079'> +2.9585376e+02 </wgt>
<wgt id='2080'> +2.9389223e+02 </wgt>
<wgt id='2081'> +2.9468447e+02 </wgt>
<wgt id='2082'> +2.9945686e+02 </wgt>
<wgt id='2083'> +2.9443849e+02 </wgt>
<wgt id='2084'> +2.9061789e+02 </wgt>
<wgt id='2085'> +2.9219368e+02 </wgt>
<wgt id='2086'> +2.9434883e+02 </wgt>
<wgt id='2087'> +2.9689334e+02 </wgt>
<wgt id='2088'> +2.9618561e+02 </wgt>
<wgt id='2089'> +2.9689098e+02 </wgt>
<wgt id='2090'> +2.8922492e+02 </wgt>
<wgt id='2091'> +2.9477354e+02 </wgt>
<wgt id='2092'> +2.9149259e+02 </wgt>
<wgt id='2093'> +2.9285687e+02 </wgt>
<wgt id='2094'> +2.9533442e+02 </wgt>
<wgt id='2095'> +2.9384175e+02 </wgt>
<wgt id='2096'> +2.9394500e+02 </wgt>
<wgt id='2097'> +2.9464068e+02 </wgt>
<wgt id='2098'> +2.9514542e+02 </wgt>
<wgt id='2099'> +2.9413817e+02 </wgt>
<wgt id='2100'> +2.9363011e+02 </wgt>
<wgt id='2101'> +2.9469408e+02 </wgt>
<wgt id='2102'> +2.9470255e+02 </wgt>
<wgt id='2103'> +2.9500587e+02 </wgt>
<wgt id='2104'> +2.9503693e+02 </wgt>
<wgt id='2105'> +2.9468530e+02 </wgt>
<wgt id='2106'> +2.9450120e+02 </wgt>
<wgt id='2107'> +2.9464266e+02 </wgt>
<wgt id='2108'> +2.9419256e+02 </wgt>
<wgt id='2109'> +2.9410586e+02 </wgt>
<wgt id='2110'> +2.9431724e+02 </wgt>
<wgt id='2111'> +2.9432606e+02 </wgt>
<wgt id='2112'> +2.9377546e+02 </wgt>
<wgt id='2113'> +2.9454046e+02 </wgt>
<wgt id='2114'> +2.9428731e+02 </wgt>
<wgt id='2115'> +2.9392452e+02 </wgt>
<wgt id='2116'> +2.9456867e+02 </wgt>
<wgt id='2117'> +2.9449990e+02 </wgt>
<wgt id='2118'> +2.9419750e+02 </wgt>
<wgt id='2119'> +2.9433083e+02 </wgt>
<wgt id='2120'> +2.9465763e+02 </wgt>
<wgt id='2121'> +2.9469590e+02 </wgt>
<wgt id='2122'> +2.9451773e+02 </wgt>
<wgt id='2123'> +2.9426519e+02 </wgt>
<wgt id='2124'> +2.9419307e+02 </wgt>
<wgt id='2125'> +2.9453600e+02 </wgt>
<wgt id='2126'> +2.9436095e+02 </wgt>
<wgt id='2127'> +2.9402224e+02 </wgt>
<wgt id='2128'> +2.9423528e+02 </wgt>
<wgt id='2129'> +2.9436521e+02 </wgt>
<wgt id='2130'> +2.9431501e+02 </wgt>
<wgt id='2131'> +2.9449012e+02 </wgt>
<wgt id='2132'> +2.9444444e+02 </wgt>
<wgt id='2133'> +2.9449322e+02 </wgt>
<wgt id='2134'> +2.9425366e+02 </wgt>
<wgt id='2135'> +2.9427190e+02 </wgt>
<wgt id='2136'> +2.9441614e+02 </wgt>
<wgt id='2137'> +2.9439098e+02 </wgt>
<wgt id='2138'> +2.9470522e+02 </wgt>
<wgt id='2139'> +2.9434770e+02 </wgt>
<wgt id='2140'> +2.9454509e+02 </wgt>
<wgt id='2141'> +2.9459137e+02 </wgt>
<wgt id='2142'> +2.9432477e+02 </wgt>
<wgt id='2143'> +2.9447336e+02 </wgt>
<wgt id='2144'> +2.9431591e+02 </wgt>
<wgt id='2145'> +2.9439884e+02 </wgt>
<wgt id='2146'> +2.9448857e+02 </wgt>
<wgt id='2147'> +2.9451500e+02 </wgt>
<wgt id='2148'> +2.9429425e+02 </wgt>
<wgt id='2149'> +2.9464007e+02 </wgt>
<wgt id='2150'> +2.9443076e+02 </wgt>
<wgt id='2151'> +2.9444073e+02 </wgt>
<wgt id='2152'> +2.9430700e+02 </wgt>
<wgt id='2153'> +2.9423130e+02 </wgt>
<wgt id='2154'> +2.9420037e+02 </wgt>
<wgt id='2155'> +2.9445516e+02 </wgt>
<wgt id='2156'> +2.9404855e+02 </wgt>
<wgt id='2157'> +2.9423747e+02 </wgt>
<wgt id='2158'> +2.9426617e+02 </wgt>
<wgt id='2159'> +2.9444396e+02 </wgt>
<wgt id='2160'> +2.9434006e+02 </wgt>
<wgt id='2161'> +2.9435310e+02 </wgt>
<wgt id='2162'> +2.9430072e+02 </wgt>
<wgt id='2163'> +2.9432252e+02 </wgt>
<wgt id='2164'> +2.9441907e+02 </wgt>
<wgt id='2165'> +2.9430048e+02 </wgt>
<wgt id='2166'> +2.9442549e+02 </wgt>
<wgt id='2167'> +2.9436817e+02 </wgt>
<wgt id='2168'> +2.9430381e+02 </wgt>
<wgt id='2169'> +2.9437458e+02 </wgt>
<wgt id='2170'> +2.9438142e+02 </wgt>
<wgt id='2171'> +2.9436151e+02 </wgt>
<wgt id='2172'> +2.9438873e+02 </wgt>
<wgt id='2173'> +2.9438934e+02 </wgt>
<wgt id='2174'> +2.9439588e+02 </wgt>
<wgt id='2175'> +2.9438659e+02 </wgt>
<wgt id='2176'> +2.9436933e+02 </wgt>
<wgt id='2177'> +3.0153829e+02 </wgt>
<wgt id='2178'> +2.8688093e+02 </wgt>
<wgt id='2179'> +3.0584570e+02 </wgt>
<wgt id='2180'> +3.0481119e+02 </wgt>
<wgt id='2181'> +2.8515171e+02 </wgt>
<wgt id='2182'> +2.9091657e+02 </wgt>
<wgt id='2183'> +2.9879455e+02 </wgt>
<wgt id='2184'> +3.0311024e+02 </wgt>
<wgt id='2185'> +3.0643892e+02 </wgt>
<wgt id='2186'> +2.9587315e+02 </wgt>
<wgt id='2187'> +3.1330474e+02 </wgt>
<wgt id='2188'> +3.1385195e+02 </wgt>
<wgt id='2189'> +2.9912901e+02 </wgt>
<wgt id='2190'> +3.0967115e+02 </wgt>
<wgt id='2191'> +3.2409077e+02 </wgt>
<wgt id='2192'> +3.0681151e+02 </wgt>
<wgt id='2193'> +3.0245349e+02 </wgt>
<wgt id='2194'> +3.1598242e+02 </wgt>
<wgt id='2195'> +3.0416299e+02 </wgt>
<wgt id='2196'> +2.9483908e+02 </wgt>
<wgt id='2197'> +2.9415392e+02 </wgt>
<wgt id='2198'> +2.9597798e+02 </wgt>
<wgt id='2199'> +3.0217020e+02 </wgt>
<wgt id='2200'> +3.0318646e+02 </wgt>
<wgt id='2201'> +2.9080137e+02 </wgt>
<wgt id='2202'> +3.0152868e+02 </wgt>
<wgt id='2203'> +2.8607426e+02 </wgt>
<wgt id='2204'> +3.1567758e+02 </wgt>
<wgt id='2205'> +3.0738986e+02 </wgt>
<wgt id='2206'> +3.0294521e+02 </wgt>
<wgt id='2207'> +2.9224557e+02 </wgt>
<wgt id='2208'> +2.9762412e+02 </wgt>
<wgt id='2209'> +3.0414892e+02 </wgt>
<wgt id='2210'> +2.9890624e+02 </wgt>
<wgt id='2211'> +2.8582546e+02 </wgt>
<wgt id='2212'> +3.1719058e+02 </wgt>
<wgt id='2213'> +2.9990220e+02 </wgt>
<wgt id='2214'> +3.0871768e+02 </wgt>
<wgt id='2215'> +3.0173938e+02 </wgt>
<wgt id='2216'> +2.9151215e+02 </wgt>
<wgt id='2217'> +2.9834557e+02 </wgt>
<wgt id='2218'> +2.9539191e+02 </wgt>
<wgt id='2219'> +2.9145936e+02 </wgt>
<wgt id='2220'> +2.9193134e+02 </wgt>
<wgt id='2221'> +2.9642305e+02 </wgt>
<wgt id='2222'> +3.1063046e+02 </wgt>
<wgt id='2223'> +2.9352205e+02 </wgt>
<wgt id='2224'> +3.0330661e+02 </wgt>
<wgt id='2225'> +3.0136224e+02 </wgt>
<wgt id='2226'> +3.0992576e+02 </wgt>
<wgt id='2227'> +3.0427576e+02 </wgt>
<wgt id='2228'> +2.9862976e+02 </wgt>
<wgt id='2229'> +3.0334279e+02 </wgt>
<wgt id='2230'> +2.8717995e+02 </wgt>
<wgt id='2231'> +3.0199464e+02 </wgt>
<wgt id='2232'> +3.0183565e+02 </wgt>
<wgt id='2233'> +3.1034518e+02 </wgt>
<wgt id='2234'> +3.0008250e+02 </wgt>
<wgt id='2235'> +3.0600615e+02 </wgt>
<wgt id='2236'> +3.0129901e+02 </wgt>
<wgt id='2237'> +3.0051682e+02 </wgt>
<wgt id='2238'> +3.0301389e+02 </wgt>
<wgt id='2239'> +3.0106966e+02 </wgt>
<wgt id='2240'> +2.9616497e+02 </wgt>
<wgt id='2241'> +3.1355865e+02 </wgt>
<wgt id='2242'> +2.9322185e+02 </wgt>
<wgt id='2243'> +3.0383577e+02 </wgt>
<wgt id='2244'> +3.0550987e+02 </wgt>
<wgt id='2245'> +3.0500033e+02 </wgt>
<wgt id='2246'> +3.0233298e+02 </wgt>
<wgt id='2247'> +3.0506175e+02 </wgt>
<wgt id='2248'> +2.9617242e+02 </wgt>
<wgt id='2249'> +2.9768728e+02 </wgt>
<wgt id='2250'> +3.0157270e+02 </wgt>
<wgt id='2251'> +2.9259985e+02 </wgt>
<wgt id='2252'> +3.0616896e+02 </wgt>
<wgt id='2253'> +2.9479696e+02 </wgt>
<wgt id='2254'> +2.9796786e+02 </wgt>
<wgt id='2255'> +2.9924178e+02 </wgt>
<wgt id='2256'> +2.9965487e+02 </wgt>
<wgt id='2257'> +3.0214648e+02 </wgt>
<wgt id='2258'> +3.0317852e+02 </wgt>
<wgt id='2259'> +3.0303966e+02 </wgt>
<wgt id='2260'> +2.8913772e+02 </wgt>
<wgt id='2261'> +3.0710527e+02 </wgt>
<wgt id='2262'> +3.0721397e+02 </wgt>
<wgt id='2263'> +3.0678439e+02 </wgt>
<wgt id='2264'> +3.1211072e+02 </wgt>
<wgt id='2265'> +3.0532098e+02 </wgt>
<wgt id='2266'> +2.9617045e+02 </wgt>
<wgt id='2267'> +3.0043881e+02 </wgt>
<wgt id='2268'> +2.9977806e+02 </wgt>
<wgt id='2269'> +2.9454071e+02 </wgt>
<wgt id='2270'> +3.0630131e+02 </wgt>
<wgt id='2271'> +3.0093037e+02 </wgt>
<wgt id='2272'> +3.2327300e+02 </wgt>
<wgt id='2273'> +2.9601179e+02 </wgt>
<wgt id='2274'> +2.9844662e+02 </wgt>
<wgt id='2275'> +2.9779819e+02 </wgt>
<wgt id='2276'> +3.0269916e+02 </wgt>
<wgt id='2277'> +3.1579301e+02 </wgt>
<wgt id='2278'> +2.9336461e+02 </wgt>
<wgt id='2279'> +3.0880758e+02 </wgt>
<wgt id='2280'> +2.9259452e+02 </wgt>
<wgt id='2281'> +3.4786004e+02 </wgt>
<wgt id='2282'> +4.7008067e+02 </wgt>
<wgt id='2283'> +3.7415919e+02 </wgt>
<wgt id='2284'> +4.6819371e+02 </wgt>
</rwgt>
</event>
<event npLO=" -1 " npNLO=" 2 ">
 6      2 +2.8781417e+02 4.01135290e+01 7.54677110e-03 1.18944000e-01
       21 -1    0    0  502  501 +0.0000000000e+00 +0.0000000000e+00 +5.4244468000e+02 5.4244468000e+02 0.0000000000e+00 0.0000e+00 9.0000e+00
       21 -1    0    0  505  502 +0.0000000000e+00 +0.0000000000e+00 -1.2739355000e+02 1.2739355000e+02 0.0000000000e+00 0.0000e+00 9.0000e+00
       25  1    1    2    0    0 -7.6899389000e+01 +7.9409539000e+01 +2.8284576000e+02 3.1972037000e+02 1.0000000000e+02 0.0000e+00 9.0000e+00
       21  1    1    2  503  501 +1.6501324000e+01 -4.2661032000e+00 +6.8226929000e+01 7.0323589000e+01 0.0000000000e+00 0.0000e+00 9.0000e+00
       21  1    1    2  504  503 +2.4897523000e+01 -4.4050144000e+01 +1.6269264000e+02 1.7037957000e+02 0.0000000000e+00 0.0000e+00 9.0000e+00
       21  1    1    2  505  504 +3.5500542000e+01 -3.1093293000e+01 -9.8714209000e+01 1.0941470000e+02 0.0000000000e+00 0.0000e+00 9.0000e+00
#aMCatNLO 2  0  0  2  1 0.46115855E+02 0.00000000E+00 -9  6  0 0.00000000E+00 0.00000000E+00 0.00000000E+00 0.00000000E+00 0.00000000E+00
<rwgt>
<wgt id='1001'> +2.8781417e+02 </wgt>
<wgt id='1002'> +1.7442148e+02 </wgt>
<wgt id='1003'> +5.0373983e+02 </wgt>
<wgt id='1004'> +2.6937906e+02 </wgt>
<wgt id='1005'> +1.6324941e+02 </wgt>
<wgt id='1006'> +4.7147421e+02 </wgt>
<wgt id='1007'> +3.0598042e+02 </wgt>
<wgt id='1008'> +1.8543060e+02 </wgt>
<wgt id='1009'> +5.3553486e+02 </wgt>
<wgt id='1010'> +2.8781417e+02 </wgt>
<wgt id='1011'> +2.8758366e+02 </wgt>
<wgt id='1012'> +2.8710754e+02 </wgt>
<wgt id='1013'> +2.8814875e+02 </wgt>
<wgt id='1014'> +2.8839502e+02 </wgt>
<wgt id='1015'> +2.8781371e+02 </wgt>
<wgt id='1016'> +2.8839150e+02 </wgt>
<wgt id='1017'> +2.8832941e+02 </wgt>
<wgt id='1018'> +2.8887137e+02 </wgt>
<wgt id='1019'> +2.8735343e+02 </wgt>
<wgt id='1020'> +2.8754517e+02 </wgt>
<wgt id='1021'> +2.8704984e+02 </wgt>
<wgt id='1022'> +2.8815338e+02 </wgt>
<wgt id='1023'> +2.8809698e+02 </wgt>
<wgt id='1024'> +2.8841303e+02 </wgt>
<wgt id='1025'> +2.8833517e+02 </wgt>
<wgt id='1026'> +2.8804652e+02 </wgt>
<wgt id='1027'> +2.8819018e+02 </wgt>
<wgt id='1028'> +2.8817821e+02 </wgt>
<wgt id='1029'> +2.8709432e+02 </wgt>
<wgt id='1030'> +2.8793426e+02 </wgt>
<wgt id='1031'> +2.8746288e+02 </wgt>
<wgt id='1032'> +2.8830040e+02 </wgt>
<wgt id='1033'> +2.8866099e+02 </wgt>
<wgt id='1034'> +2.8726404e+02 </wgt>
<wgt id='1035'> +2.8725134e+02 </wgt>
<wgt id='1036'> +2.8732412e+02 </wgt>
<wgt id='1037'> +2.8683725e+02 </wgt>
<wgt id='1038'> +2.8821806e+02 </wgt>
<wgt id='1039'> +2.8642403e+02 </wgt>
<wgt id='1040'> +2.8793294e+02 </wgt>
<wgt id='1041'> +2.8665969e+02 </wgt>
<wgt id='1042'> +2.8820724e+02 </wgt>
<wgt id='1043'> +2.8737112e+02 </wgt>
<wgt id='1044'> +2.8718568e+02 </wgt>
<wgt id='1045'> +2.8774046e+02 </wgt>
<wgt id='1046'> +2.8854965e+02 </wgt>
<wgt id='1047'> +2.8783210e+02 </wgt>
<wgt id='1048'> +2.8758689e+02 </wgt>
<wgt id='1049'> +2.8773596e+02 </wgt>
<wgt id='1050'> +2.8769297e+02 </wgt>
<wgt id='1051'> +2.8767843e+02 </wgt>
<wgt id='1052'> +2.8811842e+02 </wgt>
<wgt id='1053'> +2.8751141e+02 </wgt>
<wgt id='1054'> +2.8808651e+02 </wgt>
<wgt id='1055'> +2.8779964e+02 </wgt>
<wgt id='1056'> +2.8787614e+02 </wgt>
<wgt id='1057'> +2.8776712e+02 </wgt>
<wgt id='1058'> +2.8772151e+02 </wgt>
<wgt id='1059'> +2.8755811e+02 </wgt>
<wgt id='1060'> +2.8767686e+02 </wgt>
<wgt id='1061'> +2.8770974e+02 </wgt>
<wgt id='1062'> +2.8805465e+02 </wgt>
<wgt id='1063'> +2.8778172e+02 </wgt>
<wgt id='1064'> +2.8782708e+02 </wgt>
<wgt id='1065'> +2.8789927e+02 </wgt>
<wgt id='1066'> +2.8758766e+02 </wgt>
<wgt id='1067'> +2.8793187e+02 </wgt>
<wgt id='1068'> +2.8786191e+02 </wgt>
<wgt id='1069'> +2.8776351e+02 </wgt>
<wgt id='1070'> +2.8782304e+02 </wgt>
<wgt id='1071'> +2.8773082e+02 </wgt>
<wgt id='1072'> +2.8804093e+02 </wgt>
<wgt id='1073'> +2.8787856e+02 </wgt>
<wgt id='1074'> +2.8786058e+02 </wgt>
<wgt id='1075'> +2.8809411e+02 </wgt>
<wgt id='1076'> +2.8777789e+02 </wgt>
<wgt id='1077'> +2.8789497e+02 </wgt>
<wgt id='1078'> +2.8784951e+02 </wgt>
<wgt id='1079'> +2.8782712e+02 </wgt>
<wgt id='1080'> +2.8783526e+02 </wgt>
<wgt id='1081'> +2.8781274e+02 </wgt>
<wgt id='1082'> +2.8781082e+02 </wgt>
<wgt id='1083'> +2.8786487e+02 </wgt>
<wgt id='1084'> +2.8778292e+02 </wgt>
<wgt id='1085'> +2.8775680e+02 </wgt>
<wgt id='1086'> +2.8774854e+02 </wgt>
<wgt id='1087'> +2.8798781e+02 </wgt>
<wgt id='1088'> +2.8784965e+02 </wgt>
<wgt id='1089'> +2.8775588e+02 </wgt>
<wgt id='1090'> +2.8786767e+02 </wgt>
<wgt id='1091'> +2.8778596e+02 </wgt>
<wgt id='1092'> +2.8785908e+02 </wgt>
<wgt id='1093'> +2.8791616e+02 </wgt>
<wgt id='1094'> +2.8783875e+02 </wgt>
<wgt id='1095'> +2.8782274e+02 </wgt>
<wgt id='1096'> +2.8775325e+02 </wgt>
<wgt id='1097'> +2.8786477e+02 </wgt>
<wgt id='1098'> +2.8779018e+02 </wgt>
<wgt id='1099'> +2.8777927e+02 </wgt>
<wgt id='1100'> +2.8786330e+02 </wgt>
<wgt id='1101'> +2.8781583e+02 </wgt>
<wgt id='1102'> +2.8787923e+02 </wgt>
<wgt id='1103'> +2.8776214e+02 </wgt>
<wgt id='1104'> +2.8782906e+02 </wgt>
<wgt id='1105'> +2.8787482e+02 </wgt>
<wgt id='1106'> +2.8778452e+02 </wgt>
<wgt id='1107'> +2.8785347e+02 </wgt>
<wgt id='1108'> +2.8779963e+02 </wgt>
<wgt id='1109'> +2.8786053e+02 </wgt>
<wgt id='1110'> +2.8781418e+02 </wgt>
<wgt id='1111'> +2.6664148e+02 </wgt>
<wgt id='1112'> +3.1072760e+02 </wgt>
<wgt id='1113'> +2.8781418e+02 </wgt>
<wgt id='1114'> +2.8554646e+02 </wgt>
<wgt id='1115'> +2.8299745e+02 </wgt>
<wgt id='1116'> +2.8167691e+02 </wgt>
<wgt id='1117'> +2.9187573e+02 </wgt>
<wgt id='1118'> +2.8982727e+02 </wgt>
<wgt id='1119'> +2.9490325e+02 </wgt>
<wgt id='1120'> +2.8541693e+02 </wgt>
<wgt id='1121'> +2.8568028e+02 </wgt>
<wgt id='1122'> +2.8878004e+02 </wgt>
<wgt id='1123'> +2.9461090e+02 </wgt>
<wgt id='1124'> +2.8803909e+02 </wgt>
<wgt id='1125'> +2.8932649e+02 </wgt>
<wgt id='1126'> +2.8439898e+02 </wgt>
<wgt id='1127'> +2.8624117e+02 </wgt>
<wgt id='1128'> +2.8798950e+02 </wgt>
<wgt id='1129'> +2.9107287e+02 </wgt>
<wgt id='1130'> +2.9461376e+02 </wgt>
<wgt id='1131'> +2.8709365e+02 </wgt>
<wgt id='1132'> +2.8273176e+02 </wgt>
<wgt id='1133'> +2.8646153e+02 </wgt>
<wgt id='1134'> +2.8082983e+02 </wgt>
<wgt id='1135'> +2.8121416e+02 </wgt>
<wgt id='1136'> +2.8287465e+02 </wgt>
<wgt id='1137'> +2.8637824e+02 </wgt>
<wgt id='1138'> +2.8398949e+02 </wgt>
<wgt id='1139'> +2.8527701e+02 </wgt>
<wgt id='1140'> +2.8318047e+02 </wgt>
<wgt id='1141'> +2.8410264e+02 </wgt>
<wgt id='1142'> +2.9281486e+02 </wgt>
<wgt id='1143'> +2.9229762e+02 </wgt>
<wgt id='1144'> +2.8748257e+02 </wgt>
<wgt id='1145'> +2.9111791e+02 </wgt>
<wgt id='1146'> +2.8536683e+02 </wgt>
<wgt id='1147'> +2.9162305e+02 </wgt>
<wgt id='1148'> +2.8697501e+02 </wgt>
<wgt id='1149'> +2.8539401e+02 </wgt>
<wgt id='1150'> +2.8231671e+02 </wgt>
<wgt id='1151'> +2.8699026e+02 </wgt>
<wgt id='1152'> +2.8686219e+02 </wgt>
<wgt id='1153'> +2.8935795e+02 </wgt>
<wgt id='1154'> +2.9073328e+02 </wgt>
<wgt id='1155'> +2.8894965e+02 </wgt>
<wgt id='1156'> +2.9007307e+02 </wgt>
<wgt id='1157'> +2.8975727e+02 </wgt>
<wgt id='1158'> +2.9015055e+02 </wgt>
<wgt id='1159'> +2.9054329e+02 </wgt>
<wgt id='1160'> +2.8061914e+02 </wgt>
<wgt id='1161'> +2.8550565e+02 </wgt>
<wgt id='1162'> +2.8481713e+02 </wgt>
<wgt id='1163'> +2.8734111e+02 </wgt>
<wgt id='1164'> +2.8658427e+02 </wgt>
<wgt id='1165'> +2.8281651e+02 </wgt>
<wgt id='1166'> +2.8751835e+02 </wgt>
<wgt id='1167'> +2.8431692e+02 </wgt>
<wgt id='1168'> +2.8571269e+02 </wgt>
<wgt id='1169'> +2.8773991e+02 </wgt>
<wgt id='1170'> +2.8438425e+02 </wgt>
<wgt id='1171'> +2.8511227e+02 </wgt>
<wgt id='1172'> +2.9351841e+02 </wgt>
<wgt id='1173'> +2.8681907e+02 </wgt>
<wgt id='1174'> +2.8647547e+02 </wgt>
<wgt id='1175'> +2.8658528e+02 </wgt>
<wgt id='1176'> +2.8352815e+02 </wgt>
<wgt id='1177'> +2.8939636e+02 </wgt>
<wgt id='1178'> +2.8506130e+02 </wgt>
<wgt id='1179'> +2.9162061e+02 </wgt>
<wgt id='1180'> +2.8254069e+02 </wgt>
<wgt id='1181'> +2.8952793e+02 </wgt>
<wgt id='1182'> +2.8824020e+02 </wgt>
<wgt id='1183'> +2.8517517e+02 </wgt>
<wgt id='1184'> +2.9020524e+02 </wgt>
<wgt id='1185'> +2.8370985e+02 </wgt>
<wgt id='1186'> +2.9189989e+02 </wgt>
<wgt id='1187'> +2.8955675e+02 </wgt>
<wgt id='1188'> +2.9294406e+02 </wgt>
<wgt id='1189'> +2.9393701e+02 </wgt>
<wgt id='1190'> +2.8795003e+02 </wgt>
<wgt id='1191'> +2.8450151e+02 </wgt>
<wgt id='1192'> +2.8756395e+02 </wgt>
<wgt id='1193'> +2.9085084e+02 </wgt>
<wgt id='1194'> +2.8512244e+02 </wgt>
<wgt id='1195'> +2.9107287e+02 </wgt>
<wgt id='1196'> +2.8983019e+02 </wgt>
<wgt id='1197'> +2.8820547e+02 </wgt>
<wgt id='1198'> +2.8321252e+02 </wgt>
<wgt id='1199'> +2.8586689e+02 </wgt>
<wgt id='1200'> +2.8898970e+02 </wgt>
<wgt id='1201'> +2.9408039e+02 </wgt>
<wgt id='1202'> +3.0163052e+02 </wgt>
<wgt id='1203'> +2.9129839e+02 </wgt>
<wgt id='1204'> +2.8764052e+02 </wgt>
<wgt id='1205'> +2.9325387e+02 </wgt>
<wgt id='1206'> +2.9096348e+02 </wgt>
<wgt id='1207'> +2.8963560e+02 </wgt>
<wgt id='1208'> +2.8937249e+02 </wgt>
<wgt id='1209'> +2.8492393e+02 </wgt>
<wgt id='1210'> +2.8937976e+02 </wgt>
<wgt id='1211'> +2.9250237e+02 </wgt>
<wgt id='1212'> +2.8555022e+02 </wgt>
<wgt id='1213'> +2.8717516e+02 </wgt>
<wgt id='1214'> +2.8817488e+02 </wgt>
<wgt id='1215'> +2.8795360e+02 </wgt>
<wgt id='1216'> +2.8864081e+02 </wgt>
<wgt id='1217'> +2.8850083e+02 </wgt>
<wgt id='1218'> +2.8898546e+02 </wgt>
<wgt id='1219'> +2.8787422e+02 </wgt>
<wgt id='1220'> +2.8736459e+02 </wgt>
<wgt id='1221'> +2.8755189e+02 </wgt>
<wgt id='1222'> +2.8736876e+02 </wgt>
<wgt id='1223'> +2.8863114e+02 </wgt>
<wgt id='1224'> +2.8809633e+02 </wgt>
<wgt id='1225'> +2.8762581e+02 </wgt>
<wgt id='1226'> +2.8827588e+02 </wgt>
<wgt id='1227'> +2.8810579e+02 </wgt>
<wgt id='1228'> +2.8844983e+02 </wgt>
<wgt id='1229'> +2.8837341e+02 </wgt>
<wgt id='1230'> +2.8829903e+02 </wgt>
<wgt id='1231'> +2.8794101e+02 </wgt>
<wgt id='1232'> +2.8822303e+02 </wgt>
<wgt id='1233'> +2.8823298e+02 </wgt>
<wgt id='1234'> +2.8832151e+02 </wgt>
<wgt id='1235'> +2.8811311e+02 </wgt>
<wgt id='1236'> +2.8789478e+02 </wgt>
<wgt id='1237'> +2.8855111e+02 </wgt>
<wgt id='1238'> +2.8760291e+02 </wgt>
<wgt id='1239'> +2.8788677e+02 </wgt>
<wgt id='1240'> +2.8860279e+02 </wgt>
<wgt id='1241'> +2.8769761e+02 </wgt>
<wgt id='1242'> +2.8780625e+02 </wgt>
<wgt id='1243'> +2.9010828e+02 </wgt>
<wgt id='1244'> +2.8830486e+02 </wgt>
<wgt id='1245'> +2.8831582e+02 </wgt>
<wgt id='1246'> +2.8830590e+02 </wgt>
<wgt id='1247'> +2.8839187e+02 </wgt>
<wgt id='1248'> +2.8902309e+02 </wgt>
<wgt id='1249'> +2.8794326e+02 </wgt>
<wgt id='1250'> +2.8786194e+02 </wgt>
<wgt id='1251'> +2.8894426e+02 </wgt>
<wgt id='1252'> +2.8790892e+02 </wgt>
<wgt id='1253'> +2.8729239e+02 </wgt>
<wgt id='1254'> +2.8768283e+02 </wgt>
<wgt id='1255'> +2.8772960e+02 </wgt>
<wgt id='1256'> +2.8797224e+02 </wgt>
<wgt id='1257'> +2.8801259e+02 </wgt>
<wgt id='1258'> +2.8864144e+02 </wgt>
<wgt id='1259'> +2.8789138e+02 </wgt>
<wgt id='1260'> +2.8879568e+02 </wgt>
<wgt id='1261'> +2.8862127e+02 </wgt>
<wgt id='1262'> +2.8787217e+02 </wgt>
<wgt id='1263'> +2.8803220e+02 </wgt>
<wgt id='1264'> +2.8850851e+02 </wgt>
<wgt id='1265'> +2.8857959e+02 </wgt>
<wgt id='1266'> +2.8811104e+02 </wgt>
<wgt id='1267'> +2.8834567e+02 </wgt>
<wgt id='1268'> +2.8841887e+02 </wgt>
<wgt id='1269'> +2.8819820e+02 </wgt>
<wgt id='1270'> +2.8819219e+02 </wgt>
<wgt id='1271'> +2.8830268e+02 </wgt>
<wgt id='1272'> +2.8821288e+02 </wgt>
<wgt id='1273'> +2.8805356e+02 </wgt>
<wgt id='1274'> +2.8818270e+02 </wgt>
<wgt id='1275'> +2.8812274e+02 </wgt>
<wgt id='1276'> +2.8833634e+02 </wgt>
<wgt id='1277'> +2.8807532e+02 </wgt>
<wgt id='1278'> +2.8809907e+02 </wgt>
<wgt id='1279'> +2.8833156e+02 </wgt>
<wgt id='1280'> +2.8809915e+02 </wgt>
<wgt id='1281'> +2.8822761e+02 </wgt>
<wgt id='1282'> +2.8828881e+02 </wgt>
<wgt id='1283'> +2.8815899e+02 </wgt>
<wgt id='1284'> +2.8808980e+02 </wgt>
<wgt id='1285'> +2.8796409e+02 </wgt>
<wgt id='1286'> +2.8820004e+02 </wgt>
<wgt id='1287'> +2.8820334e+02 </wgt>
<wgt id='1288'> +2.8801895e+02 </wgt>
<wgt id='1289'> +2.8819621e+02 </wgt>
<wgt id='1290'> +2.8814153e+02 </wgt>
<wgt id='1291'> +2.8812650e+02 </wgt>
<wgt id='1292'> +2.8820996e+02 </wgt>
<wgt id='1293'> +2.8825713e+02 </wgt>
<wgt id='1294'> +2.8811964e+02 </wgt>
<wgt id='1295'> +2.8821004e+02 </wgt>
<wgt id='1296'> +2.8819750e+02 </wgt>
<wgt id='1297'> +2.8817375e+02 </wgt>
<wgt id='1298'> +2.8816061e+02 </wgt>
<wgt id='1299'> +2.8811976e+02 </wgt>
<wgt id='1300'> +2.8817135e+02 </wgt>
<wgt id='1301'> +2.8817470e+02 </wgt>
<wgt id='1302'> +2.8821945e+02 </wgt>
<wgt id='1303'> +2.8822443e+02 </wgt>
<wgt id='1304'> +2.8821506e+02 </wgt>
<wgt id='1305'> +2.8812388e+02 </wgt>
<wgt id='1306'> +2.8817597e+02 </wgt>
<wgt id='1307'> +2.8816805e+02 </wgt>
<wgt id='1308'> +2.8814541e+02 </wgt>
<wgt id='1309'> +2.8816540e+02 </wgt>
<wgt id='1310'> +2.8815912e+02 </wgt>
<wgt id='1311'> +2.8826375e+02 </wgt>
<wgt id='1312'> +2.8810205e+02 </wgt>
<wgt id='1313'> +2.8824921e+02 </wgt>
<wgt id='1314'> +2.8814991e+02 </wgt>
<wgt id='1315'> +2.6664148e+02 </wgt>
<wgt id='1316'> +3.1072760e+02 </wgt>
<wgt id='1317'> +1.9450998e+02 </wgt>
<wgt id='1318'> +2.1121870e+02 </wgt>
<wgt id='1319'> +2.2850514e+02 </wgt>
<wgt id='1320'> +2.4666163e+02 </wgt>
<wgt id='1321'> +2.7779107e+02 </wgt>
<wgt id='1322'> +2.9955931e+02 </wgt>
<wgt id='1323'> +3.3341476e+02 </wgt>
<wgt id='1324'> +3.5788396e+02 </wgt>
<wgt id='1325'> +2.9312723e+02 </wgt>
<wgt id='1326'> +2.9359413e+02 </wgt>
<wgt id='1327'> +2.9266275e+02 </wgt>
<wgt id='1328'> +2.9323298e+02 </wgt>
<wgt id='1329'> +2.9405270e+02 </wgt>
<wgt id='1330'> +2.9349699e+02 </wgt>
<wgt id='1331'> +2.9298439e+02 </wgt>
<wgt id='1332'> +2.9360308e+02 </wgt>
<wgt id='1333'> +2.9288994e+02 </wgt>
<wgt id='1334'> +2.9376211e+02 </wgt>
<wgt id='1335'> +2.9256078e+02 </wgt>
<wgt id='1336'> +2.9275737e+02 </wgt>
<wgt id='1337'> +2.9366349e+02 </wgt>
<wgt id='1338'> +2.9292731e+02 </wgt>
<wgt id='1339'> +2.9338929e+02 </wgt>
<wgt id='1340'> +2.9300750e+02 </wgt>
<wgt id='1341'> +2.9322356e+02 </wgt>
<wgt id='1342'> +2.9329535e+02 </wgt>
<wgt id='1343'> +2.9340607e+02 </wgt>
<wgt id='1344'> +2.9322018e+02 </wgt>
<wgt id='1345'> +2.9338468e+02 </wgt>
<wgt id='1346'> +2.9331336e+02 </wgt>
<wgt id='1347'> +2.9310833e+02 </wgt>
<wgt id='1348'> +2.9316782e+02 </wgt>
<wgt id='1349'> +2.9325236e+02 </wgt>
<wgt id='1350'> +2.9353094e+02 </wgt>
<wgt id='1351'> +2.9269669e+02 </wgt>
<wgt id='1352'> +2.9334064e+02 </wgt>
<wgt id='1353'> +2.9292134e+02 </wgt>
<wgt id='1354'> +2.9230486e+02 </wgt>
<wgt id='1355'> +2.9505204e+02 </wgt>
<wgt id='1356'> +2.9409604e+02 </wgt>
<wgt id='1357'> +2.9294109e+02 </wgt>
<wgt id='1358'> +2.9359370e+02 </wgt>
<wgt id='1359'> +2.9300351e+02 </wgt>
<wgt id='1360'> +2.9474818e+02 </wgt>
<wgt id='1361'> +2.9362473e+02 </wgt>
<wgt id='1362'> +2.9282137e+02 </wgt>
<wgt id='1363'> +2.9321179e+02 </wgt>
<wgt id='1364'> +2.9377991e+02 </wgt>
<wgt id='1365'> +2.9240129e+02 </wgt>
<wgt id='1366'> +2.9308784e+02 </wgt>
<wgt id='1367'> +2.9280772e+02 </wgt>
<wgt id='1368'> +2.9255165e+02 </wgt>
<wgt id='1369'> +2.9352388e+02 </wgt>
<wgt id='1370'> +2.9345309e+02 </wgt>
<wgt id='1371'> +2.9352660e+02 </wgt>
<wgt id='1372'> +2.9314410e+02 </wgt>
<wgt id='1373'> +2.9304635e+02 </wgt>
<wgt id='1374'> +2.9294954e+02 </wgt>
<wgt id='1375'> +2.9272469e+02 </wgt>
<wgt id='1376'> +2.9366346e+02 </wgt>
<wgt id='1377'> +2.9297145e+02 </wgt>
<wgt id='1378'> +2.9313191e+02 </wgt>
<wgt id='1379'> +2.9321374e+02 </wgt>
<wgt id='1380'> +2.9292954e+02 </wgt>
<wgt id='1381'> +2.9326232e+02 </wgt>
<wgt id='1382'> +2.9323965e+02 </wgt>
<wgt id='1383'> +2.9285165e+02 </wgt>
<wgt id='1384'> +2.9326175e+02 </wgt>
<wgt id='1385'> +2.9327204e+02 </wgt>
<wgt id='1386'> +2.9346304e+02 </wgt>
<wgt id='1387'> +2.9326044e+02 </wgt>
<wgt id='1388'> +2.9321892e+02 </wgt>
<wgt id='1389'> +2.9303420e+02 </wgt>
<wgt id='1390'> +2.9311399e+02 </wgt>
<wgt id='1391'> +2.9323439e+02 </wgt>
<wgt id='1392'> +2.9287347e+02 </wgt>
<wgt id='1393'> +2.9320556e+02 </wgt>
<wgt id='1394'> +2.9295733e+02 </wgt>
<wgt id='1395'> +2.9302020e+02 </wgt>
<wgt id='1396'> +2.9307019e+02 </wgt>
<wgt id='1397'> +2.9325672e+02 </wgt>
<wgt id='1398'> +2.9306681e+02 </wgt>
<wgt id='1399'> +2.9319776e+02 </wgt>
<wgt id='1400'> +2.9318573e+02 </wgt>
<wgt id='1401'> +2.9311633e+02 </wgt>
<wgt id='1402'> +2.9310618e+02 </wgt>
<wgt id='1403'> +2.9323117e+02 </wgt>
<wgt id='1404'> +2.9311180e+02 </wgt>
<wgt id='1405'> +2.9305381e+02 </wgt>
<wgt id='1406'> +2.9309753e+02 </wgt>
<wgt id='1407'> +2.9310775e+02 </wgt>
<wgt id='1408'> +2.9312138e+02 </wgt>
<wgt id='1409'> +2.9305639e+02 </wgt>
<wgt id='1410'> +2.9319929e+02 </wgt>
<wgt id='1411'> +2.9315775e+02 </wgt>
<wgt id='1412'> +2.9311750e+02 </wgt>
<wgt id='1413'> +2.9307197e+02 </wgt>
<wgt id='1414'> +2.9315593e+02 </wgt>
<wgt id='1415'> +2.9316632e+02 </wgt>
<wgt id='1416'> +2.9310804e+02 </wgt>
<wgt id='1417'> +2.9308972e+02 </wgt>
<wgt id='1418'> +2.9314315e+02 </wgt>
<wgt id='1419'> +2.9316051e+02 </wgt>
<wgt id='1420'> +2.9313523e+02 </wgt>
<wgt id='1421'> +2.9305746e+02 </wgt>
<wgt id='1422'> +2.9307142e+02 </wgt>
<wgt id='1423'> +2.9305968e+02 </wgt>
<wgt id='1424'> +2.9315443e+02 </wgt>
<wgt id='1425'> +2.9315239e+02 </wgt>
<wgt id='1426'> +2.7155933e+02 </wgt>
<wgt id='1427'> +3.1560762e+02 </wgt>
<wgt id='1428'> +2.8492021e+02 </wgt>
<wgt id='1429'> +2.8512996e+02 </wgt>
<wgt id='1430'> +2.8550910e+02 </wgt>
<wgt id='1431'> +2.8471570e+02 </wgt>
<wgt id='1432'> +2.8406990e+02 </wgt>
<wgt id='1433'> +2.8018282e+02 </wgt>
<wgt id='1434'> +2.7898997e+02 </wgt>
<wgt id='1435'> +2.8200636e+02 </wgt>
<wgt id='1436'> +2.8554744e+02 </wgt>
<wgt id='1437'> +2.8373147e+02 </wgt>
<wgt id='1438'> +2.8455446e+02 </wgt>
<wgt id='1439'> +2.8602774e+02 </wgt>
<wgt id='1440'> +2.8425883e+02 </wgt>
<wgt id='1441'> +2.8794486e+02 </wgt>
<wgt id='1442'> +2.8755944e+02 </wgt>
<wgt id='1443'> +2.8512274e+02 </wgt>
<wgt id='1444'> +2.8412238e+02 </wgt>
<wgt id='1445'> +2.8042371e+02 </wgt>
<wgt id='1446'> +2.8965049e+02 </wgt>
<wgt id='1447'> +2.8799672e+02 </wgt>
<wgt id='1448'> +2.8191907e+02 </wgt>
<wgt id='1449'> +2.8440599e+02 </wgt>
<wgt id='1450'> +2.8523337e+02 </wgt>
<wgt id='1451'> +2.8340754e+02 </wgt>
<wgt id='1452'> +2.8655501e+02 </wgt>
<wgt id='1453'> +2.8641340e+02 </wgt>
<wgt id='1454'> +2.8368537e+02 </wgt>
<wgt id='1455'> +2.8628711e+02 </wgt>
<wgt id='1456'> +2.8257128e+02 </wgt>
<wgt id='1457'> +2.8296406e+02 </wgt>
<wgt id='1458'> +2.8608829e+02 </wgt>
<wgt id='1459'> +2.8303404e+02 </wgt>
<wgt id='1460'> +2.8766720e+02 </wgt>
<wgt id='1461'> +2.8424279e+02 </wgt>
<wgt id='1462'> +2.8551681e+02 </wgt>
<wgt id='1463'> +2.8659662e+02 </wgt>
<wgt id='1464'> +2.8321783e+02 </wgt>
<wgt id='1465'> +2.7780618e+02 </wgt>
<wgt id='1466'> +2.9292676e+02 </wgt>
<wgt id='1467'> +2.9236680e+02 </wgt>
<wgt id='1468'> +2.8093193e+02 </wgt>
<wgt id='1469'> +2.8483418e+02 </wgt>
<wgt id='1470'> +2.8475373e+02 </wgt>
<wgt id='1471'> +2.8759323e+02 </wgt>
<wgt id='1472'> +2.8296547e+02 </wgt>
<wgt id='1473'> +2.8829562e+02 </wgt>
<wgt id='1474'> +2.7750906e+02 </wgt>
<wgt id='1475'> +2.8537245e+02 </wgt>
<wgt id='1476'> +2.8274248e+02 </wgt>
<wgt id='1477'> +2.8515904e+02 </wgt>
<wgt id='1478'> +2.8461295e+02 </wgt>
<wgt id='1479'> +2.8498113e+02 </wgt>
<wgt id='1480'> +2.8467068e+02 </wgt>
<wgt id='1481'> +2.7782420e+02 </wgt>
<wgt id='1482'> +2.8239776e+02 </wgt>
<wgt id='1483'> +2.8228770e+02 </wgt>
<wgt id='1484'> +2.9006813e+02 </wgt>
<wgt id='1485'> +2.6326792e+02 </wgt>
<wgt id='1486'> +3.0783517e+02 </wgt>
<wgt id='1487'> +2.8235850e+02 </wgt>
<wgt id='1488'> +2.8202553e+02 </wgt>
<wgt id='1489'> +2.8273285e+02 </wgt>
<wgt id='1490'> +2.7911164e+02 </wgt>
<wgt id='1491'> +2.7914749e+02 </wgt>
<wgt id='1492'> +2.8206987e+02 </wgt>
<wgt id='1493'> +2.8283451e+02 </wgt>
<wgt id='1494'> +2.8350718e+02 </wgt>
<wgt id='1495'> +2.7918382e+02 </wgt>
<wgt id='1496'> +2.8149857e+02 </wgt>
<wgt id='1497'> +2.8270710e+02 </wgt>
<wgt id='1498'> +2.8829918e+02 </wgt>
<wgt id='1499'> +2.7798824e+02 </wgt>
<wgt id='1500'> +2.7962967e+02 </wgt>
<wgt id='1501'> +2.8443553e+02 </wgt>
<wgt id='1502'> +2.8885113e+02 </wgt>
<wgt id='1503'> +2.7796199e+02 </wgt>
<wgt id='1504'> +2.7668204e+02 </wgt>
<wgt id='1505'> +2.8909315e+02 </wgt>
<wgt id='1506'> +2.8533741e+02 </wgt>
<wgt id='1507'> +2.7917211e+02 </wgt>
<wgt id='1508'> +2.8343119e+02 </wgt>
<wgt id='1509'> +2.8024399e+02 </wgt>
<wgt id='1510'> +2.8173957e+02 </wgt>
<wgt id='1511'> +2.8294725e+02 </wgt>
<wgt id='1512'> +2.8700885e+02 </wgt>
<wgt id='1513'> +2.7781052e+02 </wgt>
<wgt id='1514'> +2.8289730e+02 </wgt>
<wgt id='1515'> +2.8164061e+02 </wgt>
<wgt id='1516'> +2.8203263e+02 </wgt>
<wgt id='1517'> +2.8248905e+02 </wgt>
<wgt id='1518'> +2.8348052e+02 </wgt>
<wgt id='1519'> +2.8090693e+02 </wgt>
<wgt id='1520'> +2.8029228e+02 </wgt>
<wgt id='1521'> +2.8690129e+02 </wgt>
<wgt id='1522'> +2.7907042e+02 </wgt>
<wgt id='1523'> +2.8565272e+02 </wgt>
<wgt id='1524'> +2.8234169e+02 </wgt>
<wgt id='1525'> +2.8235405e+02 </wgt>
<wgt id='1526'> +2.8213920e+02 </wgt>
<wgt id='1527'> +2.8293441e+02 </wgt>
<wgt id='1528'> +2.8167373e+02 </wgt>
<wgt id='1529'> +2.8324930e+02 </wgt>
<wgt id='1530'> +2.8120867e+02 </wgt>
<wgt id='1531'> +2.8566296e+02 </wgt>
<wgt id='1532'> +2.8159111e+02 </wgt>
<wgt id='1533'> +2.8309333e+02 </wgt>
<wgt id='1534'> +2.8132336e+02 </wgt>
<wgt id='1535'> +2.7757806e+02 </wgt>
<wgt id='1536'> +2.7746294e+02 </wgt>
<wgt id='1537'> +2.8069775e+02 </wgt>
<wgt id='1538'> +2.8295681e+02 </wgt>
<wgt id='1539'> +2.8254115e+02 </wgt>
<wgt id='1540'> +2.7330203e+02 </wgt>
<wgt id='1541'> +2.8607715e+02 </wgt>
<wgt id='1542'> +2.7986695e+02 </wgt>
<wgt id='1543'> +2.8683306e+02 </wgt>
<wgt id='1544'> +2.6130463e+02 </wgt>
<wgt id='1545'> +3.0481885e+02 </wgt>
<wgt id='1546'> +2.6184786e+02 </wgt>
<wgt id='1547'> +2.8969554e+02 </wgt>
<wgt id='1548'> +2.8987603e+02 </wgt>
<wgt id='1549'> +2.8949341e+02 </wgt>
<wgt id='1550'> +2.8999603e+02 </wgt>
<wgt id='1551'> +2.8949079e+02 </wgt>
<wgt id='1552'> +2.9138257e+02 </wgt>
<wgt id='1553'> +2.8813235e+02 </wgt>
<wgt id='1554'> +2.8842454e+02 </wgt>
<wgt id='1555'> +2.9111734e+02 </wgt>
<wgt id='1556'> +2.9020526e+02 </wgt>
<wgt id='1557'> +2.8919271e+02 </wgt>
<wgt id='1558'> +2.9008335e+02 </wgt>
<wgt id='1559'> +2.8883622e+02 </wgt>
<wgt id='1560'> +2.8952136e+02 </wgt>
<wgt id='1561'> +2.8998102e+02 </wgt>
<wgt id='1562'> +2.8910026e+02 </wgt>
<wgt id='1563'> +2.9001922e+02 </wgt>
<wgt id='1564'> +2.8825599e+02 </wgt>
<wgt id='1565'> +2.9139087e+02 </wgt>
<wgt id='1566'> +2.8989749e+02 </wgt>
<wgt id='1567'> +2.8953283e+02 </wgt>
<wgt id='1568'> +2.8901918e+02 </wgt>
<wgt id='1569'> +2.9059787e+02 </wgt>
<wgt id='1570'> +2.8768130e+02 </wgt>
<wgt id='1571'> +2.9106243e+02 </wgt>
<wgt id='1572'> +2.8934987e+02 </wgt>
<wgt id='1573'> +2.9002068e+02 </wgt>
<wgt id='1574'> +2.9001390e+02 </wgt>
<wgt id='1575'> +2.8961072e+02 </wgt>
<wgt id='1576'> +2.8916092e+02 </wgt>
<wgt id='1577'> +2.9036909e+02 </wgt>
<wgt id='1578'> +2.8679330e+02 </wgt>
<wgt id='1579'> +2.9294328e+02 </wgt>
<wgt id='1580'> +2.9112355e+02 </wgt>
<wgt id='1581'> +2.8829318e+02 </wgt>
<wgt id='1582'> +2.9013478e+02 </wgt>
<wgt id='1583'> +2.8874274e+02 </wgt>
<wgt id='1584'> +2.9005885e+02 </wgt>
<wgt id='1585'> +2.8957884e+02 </wgt>
<wgt id='1586'> +2.8893228e+02 </wgt>
<wgt id='1587'> +2.9055083e+02 </wgt>
<wgt id='1588'> +2.8742894e+02 </wgt>
<wgt id='1589'> +2.9228054e+02 </wgt>
<wgt id='1590'> +2.9272031e+02 </wgt>
<wgt id='1591'> +2.8816699e+02 </wgt>
<wgt id='1592'> +2.8930567e+02 </wgt>
<wgt id='1593'> +2.9066437e+02 </wgt>
<wgt id='1594'> +2.9274542e+02 </wgt>
<wgt id='1595'> +2.8494589e+02 </wgt>
<wgt id='1596'> +2.9101753e+02 </wgt>
<wgt id='1597'> +2.8896520e+02 </wgt>
<wgt id='1598'> +2.8311317e+02 </wgt>
<wgt id='1599'> +2.8299101e+02 </wgt>
<wgt id='1600'> +2.8326290e+02 </wgt>
<wgt id='1601'> +2.8413049e+02 </wgt>
<wgt id='1602'> +2.8209759e+02 </wgt>
<wgt id='1603'> +2.8398411e+02 </wgt>
<wgt id='1604'> +2.8275283e+02 </wgt>
<wgt id='1605'> +2.8265801e+02 </wgt>
<wgt id='1606'> +2.8355742e+02 </wgt>
<wgt id='1607'> +2.8341930e+02 </wgt>
<wgt id='1608'> +2.8280178e+02 </wgt>
<wgt id='1609'> +2.8177996e+02 </wgt>
<wgt id='1610'> +2.8369384e+02 </wgt>
<wgt id='1611'> +2.8307492e+02 </wgt>
<wgt id='1612'> +2.8314968e+02 </wgt>
<wgt id='1613'> +2.8285879e+02 </wgt>
<wgt id='1614'> +2.8338387e+02 </wgt>
<wgt id='1615'> +2.8316745e+02 </wgt>
<wgt id='1616'> +2.8306972e+02 </wgt>
<wgt id='1617'> +2.8308626e+02 </wgt>
<wgt id='1618'> +2.8313221e+02 </wgt>
<wgt id='1619'> +2.8259130e+02 </wgt>
<wgt id='1620'> +2.8346910e+02 </wgt>
<wgt id='1621'> +2.8616085e+02 </wgt>
<wgt id='1622'> +2.8022576e+02 </wgt>
<wgt id='1623'> +2.8412502e+02 </wgt>
<wgt id='1624'> +2.8056284e+02 </wgt>
<wgt id='1625'> +2.8353249e+02 </wgt>
<wgt id='1626'> +2.8262550e+02 </wgt>
<wgt id='1627'> +2.8359361e+02 </wgt>
<wgt id='1628'> +2.8203722e+02 </wgt>
<wgt id='1629'> +2.8184923e+02 </wgt>
<wgt id='1630'> +2.8570609e+02 </wgt>
<wgt id='1631'> +2.8338090e+02 </wgt>
<wgt id='1632'> +2.8255521e+02 </wgt>
<wgt id='1633'> +2.8158290e+02 </wgt>
<wgt id='1634'> +2.8378071e+02 </wgt>
<wgt id='1635'> +2.8305870e+02 </wgt>
<wgt id='1636'> +2.8310488e+02 </wgt>
<wgt id='1637'> +2.8206491e+02 </wgt>
<wgt id='1638'> +2.8389750e+02 </wgt>
<wgt id='1639'> +2.8334428e+02 </wgt>
<wgt id='1640'> +2.8250447e+02 </wgt>
<wgt id='1641'> +2.8341429e+02 </wgt>
<wgt id='1642'> +2.8136670e+02 </wgt>
<wgt id='1643'> +2.7883734e+02 </wgt>
<wgt id='1644'> +2.8581828e+02 </wgt>
<wgt id='1645'> +2.8476147e+02 </wgt>
<wgt id='1646'> +2.8234770e+02 </wgt>
<wgt id='1647'> +2.8132420e+02 </wgt>
<wgt id='1648'> +2.8398941e+02 </wgt>
<wgt id='1649'> +5.2150425e+02 </wgt>
<wgt id='1650'> +2.8458606e+02 </wgt>
<wgt id='1651'> +2.8447377e+02 </wgt>
<wgt id='1652'> +2.8468319e+02 </wgt>
<wgt id='1653'> +2.8459442e+02 </wgt>
<wgt id='1654'> +2.8457753e+02 </wgt>
<wgt id='1655'> +2.8396113e+02 </wgt>
<wgt id='1656'> +2.8487432e+02 </wgt>
<wgt id='1657'> +2.8512117e+02 </wgt>
<wgt id='1658'> +2.8531584e+02 </wgt>
<wgt id='1659'> +2.8597285e+02 </wgt>
<wgt id='1660'> +2.8425438e+02 </wgt>
<wgt id='1661'> +2.8464767e+02 </wgt>
<wgt id='1662'> +2.8346282e+02 </wgt>
<wgt id='1663'> +2.8379902e+02 </wgt>
<wgt id='1664'> +2.8527059e+02 </wgt>
<wgt id='1665'> +2.8437057e+02 </wgt>
<wgt id='1666'> +2.8489801e+02 </wgt>
<wgt id='1667'> +2.8437759e+02 </wgt>
<wgt id='1668'> +2.8543317e+02 </wgt>
<wgt id='1669'> +2.8473260e+02 </wgt>
<wgt id='1670'> +2.8439937e+02 </wgt>
<wgt id='1671'> +2.8432205e+02 </wgt>
<wgt id='1672'> +2.8416457e+02 </wgt>
<wgt id='1673'> +2.8429281e+02 </wgt>
<wgt id='1674'> +2.8365836e+02 </wgt>
<wgt id='1675'> +2.8450497e+02 </wgt>
<wgt id='1676'> +2.8504183e+02 </wgt>
<wgt id='1677'> +2.8474301e+02 </wgt>
<wgt id='1678'> +2.8482582e+02 </wgt>
<wgt id='1679'> +2.8427259e+02 </wgt>
<wgt id='1680'> +2.9016584e+02 </wgt>
<wgt id='1681'> +2.8832198e+02 </wgt>
<wgt id='1682'> +2.9262324e+02 </wgt>
<wgt id='1683'> +2.9133438e+02 </wgt>
<wgt id='1684'> +2.8872988e+02 </wgt>
<wgt id='1685'> +2.8948299e+02 </wgt>
<wgt id='1686'> +2.9174005e+02 </wgt>
<wgt id='1687'> +2.8740358e+02 </wgt>
<wgt id='1688'> +2.8631938e+02 </wgt>
<wgt id='1689'> +2.9167676e+02 </wgt>
<wgt id='1690'> +2.9394352e+02 </wgt>
<wgt id='1691'> +2.8968415e+02 </wgt>
<wgt id='1692'> +2.8919002e+02 </wgt>
<wgt id='1693'> +2.9041461e+02 </wgt>
<wgt id='1694'> +2.8626445e+02 </wgt>
<wgt id='1695'> +2.9205894e+02 </wgt>
<wgt id='1696'> +2.8958176e+02 </wgt>
<wgt id='1697'> +2.8929252e+02 </wgt>
<wgt id='1698'> +2.8799824e+02 </wgt>
<wgt id='1699'> +2.8747669e+02 </wgt>
<wgt id='1700'> +2.8934766e+02 </wgt>
<wgt id='1701'> +2.8907402e+02 </wgt>
<wgt id='1702'> +2.9133885e+02 </wgt>
<wgt id='1703'> +2.8895698e+02 </wgt>
<wgt id='1704'> +2.9084709e+02 </wgt>
<wgt id='1705'> +2.9057155e+02 </wgt>
<wgt id='1706'> +2.8976716e+02 </wgt>
<wgt id='1707'> +2.9011957e+02 </wgt>
<wgt id='1708'> +2.8977276e+02 </wgt>
<wgt id='1709'> +2.9013907e+02 </wgt>
<wgt id='1710'> +2.9028797e+02 </wgt>
<wgt id='1711'> +2.9009917e+02 </wgt>
<wgt id='1712'> +2.9016390e+02 </wgt>
<wgt id='1713'> +2.8964762e+02 </wgt>
<wgt id='1714'> +2.9028556e+02 </wgt>
<wgt id='1715'> +2.9071788e+02 </wgt>
<wgt id='1716'> +2.8989210e+02 </wgt>
<wgt id='1717'> +2.9018754e+02 </wgt>
<wgt id='1718'> +2.9001027e+02 </wgt>
<wgt id='1719'> +2.9031661e+02 </wgt>
<wgt id='1720'> +2.9031233e+02 </wgt>
<wgt id='1721'> +2.9041559e+02 </wgt>
<wgt id='1722'> +2.9033176e+02 </wgt>
<wgt id='1723'> +2.8994774e+02 </wgt>
<wgt id='1724'> +2.9058037e+02 </wgt>
<wgt id='1725'> +2.9032706e+02 </wgt>
<wgt id='1726'> +2.9045469e+02 </wgt>
<wgt id='1727'> +2.8988916e+02 </wgt>
<wgt id='1728'> +2.8996830e+02 </wgt>
<wgt id='1729'> +2.9030846e+02 </wgt>
<wgt id='1730'> +2.8994842e+02 </wgt>
<wgt id='1731'> +2.9001003e+02 </wgt>
<wgt id='1732'> +2.9001061e+02 </wgt>
<wgt id='1733'> +2.8982487e+02 </wgt>
<wgt id='1734'> +2.8999581e+02 </wgt>
<wgt id='1735'> +2.9017604e+02 </wgt>
<wgt id='1736'> +2.9008163e+02 </wgt>
<wgt id='1737'> +2.9023206e+02 </wgt>
<wgt id='1738'> +2.9049435e+02 </wgt>
<wgt id='1739'> +2.9010803e+02 </wgt>
<wgt id='1740'> +2.8982730e+02 </wgt>
<wgt id='1741'> +2.9029952e+02 </wgt>
<wgt id='1742'> +2.9001491e+02 </wgt>
<wgt id='1743'> +2.9016254e+02 </wgt>
<wgt id='1744'> +2.9006479e+02 </wgt>
<wgt id='1745'> +2.9023188e+02 </wgt>
<wgt id='1746'> +2.9028025e+02 </wgt>
<wgt id='1747'> +2.9016615e+02 </wgt>
<wgt id='1748'> +2.9034892e+02 </wgt>
<wgt id='1749'> +2.9028513e+02 </wgt>
<wgt id='1750'> +2.9006714e+02 </wgt>
<wgt id='1751'> +2.8995076e+02 </wgt>
<wgt id='1752'> +2.9001743e+02 </wgt>
<wgt id='1753'> +2.9003169e+02 </wgt>
<wgt id='1754'> +2.9004405e+02 </wgt>
<wgt id='1755'> +2.9011139e+02 </wgt>
<wgt id='1756'> +2.9016795e+02 </wgt>
<wgt id='1757'> +2.9001951e+02 </wgt>
<wgt id='1758'> +2.9013754e+02 </wgt>
<wgt id='1759'> +2.9035805e+02 </wgt>
<wgt id='1760'> +2.9013166e+02 </wgt>
<wgt id='1761'> +2.9028647e+02 </wgt>
<wgt id='1762'> +2.9002597e+02 </wgt>
<wgt id='1763'> +2.9025256e+02 </wgt>
<wgt id='1764'> +2.9033769e+02 </wgt>
<wgt id='1765'> +2.9025040e+02 </wgt>
<wgt id='1766'> +2.9043695e+02 </wgt>
<wgt id='1767'> +2.9022236e+02 </wgt>
<wgt id='1768'> +2.9016755e+02 </wgt>
<wgt id='1769'> +2.9015304e+02 </wgt>
<wgt id='1770'> +2.9018432e+02 </wgt>
<wgt id='1771'> +2.9003819e+02 </wgt>
<wgt id='1772'> +2.9013906e+02 </wgt>
<wgt id='1773'> +2.9009298e+02 </wgt>
<wgt id='1774'> +2.9012471e+02 </wgt>
<wgt id='1775'> +2.9014406e+02 </wgt>
<wgt id='1776'> +2.9012956e+02 </wgt>
<wgt id='1777'> +2.9022728e+02 </wgt>
<wgt id='1778'> +2.9022824e+02 </wgt>
<wgt id='1779'> +2.9019454e+02 </wgt>
<wgt id='1780'> +2.9016987e+02 </wgt>
<wgt id='1781'> +2.7525918e+02 </wgt>
<wgt id='1782'> +3.0551676e+02 </wgt>
<wgt id='1783'> +2.8561410e+02 </wgt>
<wgt id='1784'> +2.8550934e+02 </wgt>
<wgt id='1785'> +2.8657961e+02 </wgt>
<wgt id='1786'> +2.8392727e+02 </wgt>
<wgt id='1787'> +2.8591282e+02 </wgt>
<wgt id='1788'> +2.8749006e+02 </wgt>
<wgt id='1789'> +2.8543123e+02 </wgt>
<wgt id='1790'> +2.8402034e+02 </wgt>
<wgt id='1791'> +2.8515944e+02 </wgt>
<wgt id='1792'> +2.8572047e+02 </wgt>
<wgt id='1793'> +2.8410280e+02 </wgt>
<wgt id='1794'> +2.8836883e+02 </wgt>
<wgt id='1795'> +2.8670036e+02 </wgt>
<wgt id='1796'> +2.8400704e+02 </wgt>
<wgt id='1797'> +2.8529776e+02 </wgt>
<wgt id='1798'> +2.8440579e+02 </wgt>
<wgt id='1799'> +2.8854151e+02 </wgt>
<wgt id='1800'> +2.8361864e+02 </wgt>
<wgt id='1801'> +2.8609654e+02 </wgt>
<wgt id='1802'> +2.8642341e+02 </wgt>
<wgt id='1803'> +2.8853213e+02 </wgt>
<wgt id='1804'> +2.8514013e+02 </wgt>
<wgt id='1805'> +2.8623309e+02 </wgt>
<wgt id='1806'> +2.8380579e+02 </wgt>
<wgt id='1807'> +2.8457714e+02 </wgt>
<wgt id='1808'> +2.8679266e+02 </wgt>
<wgt id='1809'> +2.8564796e+02 </wgt>
<wgt id='1810'> +2.8531384e+02 </wgt>
<wgt id='1811'> +2.8598860e+02 </wgt>
<wgt id='1812'> +2.8568834e+02 </wgt>
<wgt id='1813'> +2.8568033e+02 </wgt>
<wgt id='1814'> +2.8545841e+02 </wgt>
<wgt id='1815'> +2.8583485e+02 </wgt>
<wgt id='1816'> +2.8595803e+02 </wgt>
<wgt id='1817'> +2.8559594e+02 </wgt>
<wgt id='1818'> +2.8589165e+02 </wgt>
<wgt id='1819'> +2.8568096e+02 </wgt>
<wgt id='1820'> +2.8589827e+02 </wgt>
<wgt id='1821'> +2.8581206e+02 </wgt>
<wgt id='1822'> +2.8568353e+02 </wgt>
<wgt id='1823'> +2.8530783e+02 </wgt>
<wgt id='1824'> +2.8562919e+02 </wgt>
<wgt id='1825'> +2.8578395e+02 </wgt>
<wgt id='1826'> +2.8531205e+02 </wgt>
<wgt id='1827'> +2.8569770e+02 </wgt>
<wgt id='1828'> +2.8577597e+02 </wgt>
<wgt id='1829'> +2.8523120e+02 </wgt>
<wgt id='1830'> +2.8564182e+02 </wgt>
<wgt id='1831'> +2.8581289e+02 </wgt>
<wgt id='1832'> +2.8545710e+02 </wgt>
<wgt id='1833'> +2.8565337e+02 </wgt>
<wgt id='1834'> +2.8578133e+02 </wgt>
<wgt id='1835'> +2.8581200e+02 </wgt>
<wgt id='1836'> +2.8559591e+02 </wgt>
<wgt id='1837'> +2.8542502e+02 </wgt>
<wgt id='1838'> +2.8545975e+02 </wgt>
<wgt id='1839'> +2.8581542e+02 </wgt>
<wgt id='1840'> +2.8561567e+02 </wgt>
<wgt id='1841'> +2.8532411e+02 </wgt>
<wgt id='1842'> +2.8544061e+02 </wgt>
<wgt id='1843'> +2.8547967e+02 </wgt>
<wgt id='1844'> +2.8563235e+02 </wgt>
<wgt id='1845'> +2.8565524e+02 </wgt>
<wgt id='1846'> +2.8569980e+02 </wgt>
<wgt id='1847'> +2.8563624e+02 </wgt>
<wgt id='1848'> +2.8555714e+02 </wgt>
<wgt id='1849'> +2.8558638e+02 </wgt>
<wgt id='1850'> +2.8572338e+02 </wgt>
<wgt id='1851'> +2.8566766e+02 </wgt>
<wgt id='1852'> +2.8583330e+02 </wgt>
<wgt id='1853'> +2.8555207e+02 </wgt>
<wgt id='1854'> +2.8581458e+02 </wgt>
<wgt id='1855'> +2.8581299e+02 </wgt>
<wgt id='1856'> +2.8554576e+02 </wgt>
<wgt id='1857'> +2.8565410e+02 </wgt>
<wgt id='1858'> +2.8557715e+02 </wgt>
<wgt id='1859'> +2.8559410e+02 </wgt>
<wgt id='1860'> +2.8568201e+02 </wgt>
<wgt id='1861'> +2.8562785e+02 </wgt>
<wgt id='1862'> +2.8557757e+02 </wgt>
<wgt id='1863'> +2.8588958e+02 </wgt>
<wgt id='1864'> +2.8562007e+02 </wgt>
<wgt id='1865'> +2.8570840e+02 </wgt>
<wgt id='1866'> +2.8552810e+02 </wgt>
<wgt id='1867'> +2.8550474e+02 </wgt>
<wgt id='1868'> +2.8548447e+02 </wgt>
<wgt id='1869'> +2.8568511e+02 </wgt>
<wgt id='1870'> +2.8533682e+02 </wgt>
<wgt id='1871'> +2.8549667e+02 </wgt>
<wgt id='1872'> +2.8550384e+02 </wgt>
<wgt id='1873'> +2.8565097e+02 </wgt>
<wgt id='1874'> +2.8555104e+02 </wgt>
<wgt id='1875'> +2.8558119e+02 </wgt>
<wgt id='1876'> +2.8554281e+02 </wgt>
<wgt id='1877'> +2.8554931e+02 </wgt>
<wgt id='1878'> +2.8564017e+02 </wgt>
<wgt id='1879'> +2.8556434e+02 </wgt>
<wgt id='1880'> +2.8564429e+02 </wgt>
<wgt id='1881'> +2.8559096e+02 </wgt>
<wgt id='1882'> +2.8554593e+02 </wgt>
<wgt id='1883'> +2.8561899e+02 </wgt>
<wgt id='1884'> +2.7110674e+02 </wgt>
<wgt id='1885'> +3.0065564e+02 </wgt>
<wgt id='1886'> +2.9024257e+02 </wgt>
<wgt id='1887'> +2.9204011e+02 </wgt>
<wgt id='1888'> +2.8741945e+02 </wgt>
<wgt id='1889'> +2.9014693e+02 </wgt>
<wgt id='1890'> +2.8533687e+02 </wgt>
<wgt id='1891'> +2.9320186e+02 </wgt>
<wgt id='1892'> +2.8851821e+02 </wgt>
<wgt id='1893'> +2.9026619e+02 </wgt>
<wgt id='1894'> +2.9091299e+02 </wgt>
<wgt id='1895'> +2.8873650e+02 </wgt>
<wgt id='1896'> +2.9112090e+02 </wgt>
<wgt id='1897'> +2.8826610e+02 </wgt>
<wgt id='1898'> +2.8983239e+02 </wgt>
<wgt id='1899'> +2.9061330e+02 </wgt>
<wgt id='1900'> +2.8985402e+02 </wgt>
<wgt id='1901'> +2.9028081e+02 </wgt>
<wgt id='1902'> +2.8896089e+02 </wgt>
<wgt id='1903'> +2.9266312e+02 </wgt>
<wgt id='1904'> +2.9095747e+02 </wgt>
<wgt id='1905'> +2.8873873e+02 </wgt>
<wgt id='1906'> +2.8925446e+02 </wgt>
<wgt id='1907'> +2.8986055e+02 </wgt>
<wgt id='1908'> +2.8969566e+02 </wgt>
<wgt id='1909'> +2.9051486e+02 </wgt>
<wgt id='1910'> +2.8995716e+02 </wgt>
<wgt id='1911'> +2.8999979e+02 </wgt>
<wgt id='1912'> +2.9173146e+02 </wgt>
<wgt id='1913'> +2.9099867e+02 </wgt>
<wgt id='1914'> +2.9480666e+02 </wgt>
<wgt id='1915'> +2.9036226e+02 </wgt>
<wgt id='1916'> +2.9009143e+02 </wgt>
<wgt id='1917'> +2.7525918e+02 </wgt>
<wgt id='1918'> +3.0551676e+02 </wgt>
<wgt id='1919'> +2.8568164e+02 </wgt>
<wgt id='1920'> +2.7986893e+02 </wgt>
<wgt id='1921'> +2.8640146e+02 </wgt>
<wgt id='1922'> +2.8559432e+02 </wgt>
<wgt id='1923'> +2.8634867e+02 </wgt>
<wgt id='1924'> +2.8457788e+02 </wgt>
<wgt id='1925'> +2.8577808e+02 </wgt>
<wgt id='1926'> +2.8533367e+02 </wgt>
<wgt id='1927'> +2.8555375e+02 </wgt>
<wgt id='1928'> +2.8492722e+02 </wgt>
<wgt id='1929'> +2.8432034e+02 </wgt>
<wgt id='1930'> +2.8479556e+02 </wgt>
<wgt id='1931'> +2.8574368e+02 </wgt>
<wgt id='1932'> +2.8621396e+02 </wgt>
<wgt id='1933'> +2.8512456e+02 </wgt>
<wgt id='1934'> +2.8528103e+02 </wgt>
<wgt id='1935'> +2.8560668e+02 </wgt>
<wgt id='1936'> +2.8715760e+02 </wgt>
<wgt id='1937'> +2.8560158e+02 </wgt>
<wgt id='1938'> +2.8561746e+02 </wgt>
<wgt id='1939'> +2.8627701e+02 </wgt>
<wgt id='1940'> +2.8625180e+02 </wgt>
<wgt id='1941'> +2.8901448e+02 </wgt>
<wgt id='1942'> +2.8575572e+02 </wgt>
<wgt id='1943'> +2.8560822e+02 </wgt>
<wgt id='1944'> +2.8555154e+02 </wgt>
<wgt id='1945'> +2.8566686e+02 </wgt>
<wgt id='1946'> +2.8584414e+02 </wgt>
<wgt id='1947'> +2.8571658e+02 </wgt>
<wgt id='1948'> +2.8497673e+02 </wgt>
<wgt id='1949'> +2.8568968e+02 </wgt>
<wgt id='1950'> +2.7110674e+02 </wgt>
<wgt id='1951'> +3.0065564e+02 </wgt>
<wgt id='1952'> +2.7648445e+02 </wgt>
<wgt id='1953'> +2.7604961e+02 </wgt>
<wgt id='1954'> +2.7691817e+02 </wgt>
<wgt id='1955'> +2.7677935e+02 </wgt>
<wgt id='1956'> +2.7618952e+02 </wgt>
<wgt id='1957'> +2.7696936e+02 </wgt>
<wgt id='1958'> +2.7600146e+02 </wgt>
<wgt id='1959'> +2.7807734e+02 </wgt>
<wgt id='1960'> +2.7492734e+02 </wgt>
<wgt id='1961'> +2.7624165e+02 </wgt>
<wgt id='1962'> +2.7673769e+02 </wgt>
<wgt id='1963'> +2.7448156e+02 </wgt>
<wgt id='1964'> +2.7869737e+02 </wgt>
<wgt id='1965'> +2.7547720e+02 </wgt>
<wgt id='1966'> +2.7750936e+02 </wgt>
<wgt id='1967'> +2.7724042e+02 </wgt>
<wgt id='1968'> +2.7519383e+02 </wgt>
<wgt id='1969'> +2.7794235e+02 </wgt>
<wgt id='1970'> +2.7550263e+02 </wgt>
<wgt id='1971'> +2.7671863e+02 </wgt>
<wgt id='1972'> +2.7601900e+02 </wgt>
<wgt id='1973'> +2.7710250e+02 </wgt>
<wgt id='1974'> +2.7579564e+02 </wgt>
<wgt id='1975'> +2.7376551e+02 </wgt>
<wgt id='1976'> +2.7848489e+02 </wgt>
<wgt id='1977'> +2.7539446e+02 </wgt>
<wgt id='1978'> +2.7777854e+02 </wgt>
<wgt id='1979'> +2.8019339e+02 </wgt>
<wgt id='1980'> +2.7313598e+02 </wgt>
<wgt id='1981'> +2.7648445e+02 </wgt>
<wgt id='1982'> +2.7750096e+02 </wgt>
<wgt id='1983'> +2.7481528e+02 </wgt>
<wgt id='1984'> +2.7751009e+02 </wgt>
<wgt id='1985'> +2.7536981e+02 </wgt>
<wgt id='1986'> +2.7633370e+02 </wgt>
<wgt id='1987'> +2.7806077e+02 </wgt>
<wgt id='1988'> +2.7618270e+02 </wgt>
<wgt id='1989'> +2.7695568e+02 </wgt>
<wgt id='1990'> +2.7807322e+02 </wgt>
<wgt id='1991'> +2.7502599e+02 </wgt>
<wgt id='1992'> +2.7510010e+02 </wgt>
<wgt id='1993'> +2.7595065e+02 </wgt>
<wgt id='1994'> +2.7566546e+02 </wgt>
<wgt id='1995'> +2.8235217e+02 </wgt>
<wgt id='1996'> +2.8198141e+02 </wgt>
<wgt id='1997'> +2.8264595e+02 </wgt>
<wgt id='1998'> +2.8228492e+02 </wgt>
<wgt id='1999'> +2.8234394e+02 </wgt>
<wgt id='2000'> +2.8278078e+02 </wgt>
<wgt id='2001'> +2.8184811e+02 </wgt>
<wgt id='2002'> +2.8429319e+02 </wgt>
<wgt id='2003'> +2.8038994e+02 </wgt>
<wgt id='2004'> +2.8104070e+02 </wgt>
<wgt id='2005'> +2.8363169e+02 </wgt>
<wgt id='2006'> +2.8345478e+02 </wgt>
<wgt id='2007'> +2.8118885e+02 </wgt>
<wgt id='2008'> +2.8177457e+02 </wgt>
<wgt id='2009'> +2.8282655e+02 </wgt>
<wgt id='2010'> +2.8207798e+02 </wgt>
<wgt id='2011'> +2.8174191e+02 </wgt>
<wgt id='2012'> +2.8237417e+02 </wgt>
<wgt id='2013'> +2.8225903e+02 </wgt>
<wgt id='2014'> +2.8191794e+02 </wgt>
<wgt id='2015'> +2.8274507e+02 </wgt>
<wgt id='2016'> +2.8283248e+02 </wgt>
<wgt id='2017'> +2.8167697e+02 </wgt>
<wgt id='2018'> +2.8077278e+02 </wgt>
<wgt id='2019'> +2.8388059e+02 </wgt>
<wgt id='2020'> +2.7840977e+02 </wgt>
<wgt id='2021'> +2.8584471e+02 </wgt>
<wgt id='2022'> +2.8080340e+02 </wgt>
<wgt id='2023'> +2.8407627e+02 </wgt>
<wgt id='2024'> +2.8232831e+02 </wgt>
<wgt id='2025'> +2.8328330e+02 </wgt>
<wgt id='2026'> +2.7971347e+02 </wgt>
<wgt id='2027'> +2.8310791e+02 </wgt>
<wgt id='2028'> +2.8156391e+02 </wgt>
<wgt id='2029'> +2.7754245e+02 </wgt>
<wgt id='2030'> +2.8117932e+02 </wgt>
<wgt id='2031'> +2.8185045e+02 </wgt>
<wgt id='2032'> +2.8361726e+02 </wgt>
<wgt id='2033'> +2.8331235e+02 </wgt>
<wgt id='2034'> +2.7521067e+02 </wgt>
<wgt id='2035'> +2.8178110e+02 </wgt>
<wgt id='2036'> +2.8393135e+02 </wgt>
<wgt id='2037'> +2.8360958e+02 </wgt>
<wgt id='2038'> +2.8201102e+02 </wgt>
<wgt id='2039'> +2.8198006e+02 </wgt>
<wgt id='2040'> +2.8194710e+02 </wgt>
<wgt id='2041'> +2.8191617e+02 </wgt>
<wgt id='2042'> +2.8188441e+02 </wgt>
<wgt id='2043'> +2.8185245e+02 </wgt>
<wgt id='2044'> +2.8182179e+02 </wgt>
<wgt id='2045'> +2.8179009e+02 </wgt>
<wgt id='2046'> +2.8175787e+02 </wgt>
<wgt id='2047'> +2.8172626e+02 </wgt>
<wgt id='2048'> +2.8169527e+02 </wgt>
<wgt id='2049'> +2.8166305e+02 </wgt>
<wgt id='2050'> +2.8163090e+02 </wgt>
<wgt id='2051'> +2.8159961e+02 </wgt>
<wgt id='2052'> +2.8156711e+02 </wgt>
<wgt id='2053'> +2.8153666e+02 </wgt>
<wgt id='2054'> +2.8150454e+02 </wgt>
<wgt id='2055'> +2.8147280e+02 </wgt>
<wgt id='2056'> +2.8144182e+02 </wgt>
<wgt id='2057'> +2.8141022e+02 </wgt>
<wgt id='2058'> +2.8137787e+02 </wgt>
<wgt id='2059'> +2.8134629e+02 </wgt>
<wgt id='2060'> +2.8131512e+02 </wgt>
<wgt id='2061'> +2.8128322e+02 </wgt>
<wgt id='2062'> +2.8125209e+02 </wgt>
<wgt id='2063'> +2.8122070e+02 </wgt>
<wgt id='2064'> +2.8118830e+02 </wgt>
<wgt id='2065'> +2.8115705e+02 </wgt>
<wgt id='2066'> +2.8112645e+02 </wgt>
<wgt id='2067'> +2.8109329e+02 </wgt>
<wgt id='2068'> +2.8106270e+02 </wgt>
<wgt id='2069'> +2.8228773e+02 </wgt>
<wgt id='2070'> +2.8221222e+02 </wgt>
<wgt id='2071'> +2.8322104e+02 </wgt>
<wgt id='2072'> +2.8065463e+02 </wgt>
<wgt id='2073'> +2.8260255e+02 </wgt>
<wgt id='2074'> +2.8416218e+02 </wgt>
<wgt id='2075'> +2.8210530e+02 </wgt>
<wgt id='2076'> +2.8067873e+02 </wgt>
<wgt id='2077'> +2.8183111e+02 </wgt>
<wgt id='2078'> +2.8240700e+02 </wgt>
<wgt id='2079'> +2.8081944e+02 </wgt>
<wgt id='2080'> +2.8498534e+02 </wgt>
<wgt id='2081'> +2.8335068e+02 </wgt>
<wgt id='2082'> +2.8071813e+02 </wgt>
<wgt id='2083'> +2.8195068e+02 </wgt>
<wgt id='2084'> +2.8108145e+02 </wgt>
<wgt id='2085'> +2.8515937e+02 </wgt>
<wgt id='2086'> +2.8032700e+02 </wgt>
<wgt id='2087'> +2.8276935e+02 </wgt>
<wgt id='2088'> +2.8307855e+02 </wgt>
<wgt id='2089'> +2.8516766e+02 </wgt>
<wgt id='2090'> +2.8179903e+02 </wgt>
<wgt id='2091'> +2.8292111e+02 </wgt>
<wgt id='2092'> +2.8047020e+02 </wgt>
<wgt id='2093'> +2.8125727e+02 </wgt>
<wgt id='2094'> +2.8346347e+02 </wgt>
<wgt id='2095'> +2.8232795e+02 </wgt>
<wgt id='2096'> +2.8197608e+02 </wgt>
<wgt id='2097'> +2.8265983e+02 </wgt>
<wgt id='2098'> +2.8237785e+02 </wgt>
<wgt id='2099'> +2.8236367e+02 </wgt>
<wgt id='2100'> +2.8212202e+02 </wgt>
<wgt id='2101'> +2.8251598e+02 </wgt>
<wgt id='2102'> +2.8264121e+02 </wgt>
<wgt id='2103'> +2.8226775e+02 </wgt>
<wgt id='2104'> +2.8257378e+02 </wgt>
<wgt id='2105'> +2.8235206e+02 </wgt>
<wgt id='2106'> +2.8257725e+02 </wgt>
<wgt id='2107'> +2.8248703e+02 </wgt>
<wgt id='2108'> +2.8236330e+02 </wgt>
<wgt id='2109'> +2.8198323e+02 </wgt>
<wgt id='2110'> +2.8229425e+02 </wgt>
<wgt id='2111'> +2.8244802e+02 </wgt>
<wgt id='2112'> +2.8198819e+02 </wgt>
<wgt id='2113'> +2.8237515e+02 </wgt>
<wgt id='2114'> +2.8243992e+02 </wgt>
<wgt id='2115'> +2.8190466e+02 </wgt>
<wgt id='2116'> +2.8230858e+02 </wgt>
<wgt id='2117'> +2.8248014e+02 </wgt>
<wgt id='2118'> +2.8212614e+02 </wgt>
<wgt id='2119'> +2.8232792e+02 </wgt>
<wgt id='2120'> +2.8245861e+02 </wgt>
<wgt id='2121'> +2.8248257e+02 </wgt>
<wgt id='2122'> +2.8227820e+02 </wgt>
<wgt id='2123'> +2.8210039e+02 </wgt>
<wgt id='2124'> +2.8213363e+02 </wgt>
<wgt id='2125'> +2.8249100e+02 </wgt>
<wgt id='2126'> +2.8228422e+02 </wgt>
<wgt id='2127'> +2.8200241e+02 </wgt>
<wgt id='2128'> +2.8211503e+02 </wgt>
<wgt id='2129'> +2.8215215e+02 </wgt>
<wgt id='2130'> +2.8230533e+02 </wgt>
<wgt id='2131'> +2.8232779e+02 </wgt>
<wgt id='2132'> +2.8237990e+02 </wgt>
<wgt id='2133'> +2.8230316e+02 </wgt>
<wgt id='2134'> +2.8223395e+02 </wgt>
<wgt id='2135'> +2.8226397e+02 </wgt>
<wgt id='2136'> +2.8239642e+02 </wgt>
<wgt id='2137'> +2.8234085e+02 </wgt>
<wgt id='2138'> +2.8250823e+02 </wgt>
<wgt id='2139'> +2.8222602e+02 </wgt>
<wgt id='2140'> +2.8248936e+02 </wgt>
<wgt id='2141'> +2.8248957e+02 </wgt>
<wgt id='2142'> +2.8221634e+02 </wgt>
<wgt id='2143'> +2.8232816e+02 </wgt>
<wgt id='2144'> +2.8224881e+02 </wgt>
<wgt id='2145'> +2.8226834e+02 </wgt>
<wgt id='2146'> +2.8235705e+02 </wgt>
<wgt id='2147'> +2.8230651e+02 </wgt>
<wgt id='2148'> +2.8224986e+02 </wgt>
<wgt id='2149'> +2.8255949e+02 </wgt>
<wgt id='2150'> +2.8229134e+02 </wgt>
<wgt id='2151'> +2.8238075e+02 </wgt>
<wgt id='2152'> +2.8220044e+02 </wgt>
<wgt id='2153'> +2.8217980e+02 </wgt>
<wgt id='2154'> +2.8216194e+02 </wgt>
<wgt id='2155'> +2.8235709e+02 </wgt>
<wgt id='2156'> +2.8201497e+02 </wgt>
<wgt id='2157'> +2.8217326e+02 </wgt>
<wgt id='2158'> +2.8218062e+02 </wgt>
<wgt id='2159'> +2.8232597e+02 </wgt>
<wgt id='2160'> +2.8222838e+02 </wgt>
<wgt id='2161'> +2.8225804e+02 </wgt>
<wgt id='2162'> +2.8221624e+02 </wgt>
<wgt id='2163'> +2.8222752e+02 </wgt>
<wgt id='2164'> +2.8231595e+02 </wgt>
<wgt id='2165'> +2.8223611e+02 </wgt>
<wgt id='2166'> +2.8231620e+02 </wgt>
<wgt id='2167'> +2.8226748e+02 </wgt>
<wgt id='2168'> +2.8221819e+02 </wgt>
<wgt id='2169'> +2.8229173e+02 </wgt>
<wgt id='2170'> +2.8228424e+02 </wgt>
<wgt id='2171'> +2.8226484e+02 </wgt>
<wgt id='2172'> +2.8229135e+02 </wgt>
<wgt id='2173'> +2.8229194e+02 </wgt>
<wgt id='2174'> +2.8229833e+02 </wgt>
<wgt id='2175'> +2.8228926e+02 </wgt>
<wgt id='2176'> +2.8227245e+02 </wgt>
<wgt id='2177'> +2.9866611e+02 </wgt>
<wgt id='2178'> +2.9122238e+02 </wgt>
<wgt id='2179'> +3.0012605e+02 </wgt>
<wgt id='2180'> +3.0395423e+02 </wgt>
<wgt id='2181'> +2.9129762e+02 </wgt>
<wgt id='2182'> +2.8086469e+02 </wgt>
<wgt id='2183'> +3.0207632e+02 </wgt>
<wgt id='2184'> +2.9900661e+02 </wgt>
<wgt id='2185'> +2.9923161e+02 </wgt>
<wgt id='2186'> +3.0352624e+02 </wgt>
<wgt id='2187'> +2.9195815e+02 </wgt>
<wgt id='2188'> +2.8157300e+02 </wgt>
<wgt id='2189'> +3.0317416e+02 </wgt>
<wgt id='2190'> +2.9570861e+02 </wgt>
<wgt id='2191'> +2.9561763e+02 </wgt>
<wgt id='2192'> +3.0392844e+02 </wgt>
<wgt id='2193'> +3.0528748e+02 </wgt>
<wgt id='2194'> +3.0089101e+02 </wgt>
<wgt id='2195'> +3.0360441e+02 </wgt>
<wgt id='2196'> +3.0218303e+02 </wgt>
<wgt id='2197'> +3.1283415e+02 </wgt>
<wgt id='2198'> +2.9858811e+02 </wgt>
<wgt id='2199'> +2.9399160e+02 </wgt>
<wgt id='2200'> +3.1233869e+02 </wgt>
<wgt id='2201'> +2.9732150e+02 </wgt>
<wgt id='2202'> +2.9747169e+02 </wgt>
<wgt id='2203'> +2.9711895e+02 </wgt>
<wgt id='2204'> +3.0236421e+02 </wgt>
<wgt id='2205'> +2.9665172e+02 </wgt>
<wgt id='2206'> +3.0429254e+02 </wgt>
<wgt id='2207'> +3.0764852e+02 </wgt>
<wgt id='2208'> +2.9375660e+02 </wgt>
<wgt id='2209'> +2.8946292e+02 </wgt>
<wgt id='2210'> +2.9500811e+02 </wgt>
<wgt id='2211'> +2.9720507e+02 </wgt>
<wgt id='2212'> +3.0660415e+02 </wgt>
<wgt id='2213'> +3.0171006e+02 </wgt>
<wgt id='2214'> +3.0403899e+02 </wgt>
<wgt id='2215'> +2.9849334e+02 </wgt>
<wgt id='2216'> +2.9401881e+02 </wgt>
<wgt id='2217'> +2.9573141e+02 </wgt>
<wgt id='2218'> +2.9981828e+02 </wgt>
<wgt id='2219'> +2.9730848e+02 </wgt>
<wgt id='2220'> +2.9507941e+02 </wgt>
<wgt id='2221'> +2.9860072e+02 </wgt>
<wgt id='2222'> +2.9984266e+02 </wgt>
<wgt id='2223'> +3.0282409e+02 </wgt>
<wgt id='2224'> +2.9602893e+02 </wgt>
<wgt id='2225'> +2.9771891e+02 </wgt>
<wgt id='2226'> +2.9980744e+02 </wgt>
<wgt id='2227'> +2.9605274e+02 </wgt>
<wgt id='2228'> +2.9618957e+02 </wgt>
<wgt id='2229'> +2.9575247e+02 </wgt>
<wgt id='2230'> +3.0281394e+02 </wgt>
<wgt id='2231'> +2.9277562e+02 </wgt>
<wgt id='2232'> +2.9482455e+02 </wgt>
<wgt id='2233'> +2.9746956e+02 </wgt>
<wgt id='2234'> +3.0379481e+02 </wgt>
<wgt id='2235'> +2.9346986e+02 </wgt>
<wgt id='2236'> +3.0771896e+02 </wgt>
<wgt id='2237'> +2.9766375e+02 </wgt>
<wgt id='2238'> +3.0014615e+02 </wgt>
<wgt id='2239'> +3.0365816e+02 </wgt>
<wgt id='2240'> +2.9508668e+02 </wgt>
<wgt id='2241'> +2.9775990e+02 </wgt>
<wgt id='2242'> +3.0010921e+02 </wgt>
<wgt id='2243'> +2.9646378e+02 </wgt>
<wgt id='2244'> +3.1650400e+02 </wgt>
<wgt id='2245'> +2.9663319e+02 </wgt>
<wgt id='2246'> +2.8872162e+02 </wgt>
<wgt id='2247'> +2.9183785e+02 </wgt>
<wgt id='2248'> +2.9797964e+02 </wgt>
<wgt id='2249'> +2.9924954e+02 </wgt>
<wgt id='2250'> +2.8487701e+02 </wgt>
<wgt id='2251'> +3.0156079e+02 </wgt>
<wgt id='2252'> +2.9739767e+02 </wgt>
<wgt id='2253'> +2.8767352e+02 </wgt>
<wgt id='2254'> +2.9383137e+02 </wgt>
<wgt id='2255'> +3.0282352e+02 </wgt>
<wgt id='2256'> +2.9750139e+02 </wgt>
<wgt id='2257'> +2.9526695e+02 </wgt>
<wgt id='2258'> +2.9862817e+02 </wgt>
<wgt id='2259'> +2.9116591e+02 </wgt>
<wgt id='2260'> +3.1012769e+02 </wgt>
<wgt id='2261'> +2.9860107e+02 </wgt>
<wgt id='2262'> +2.9591770e+02 </wgt>
<wgt id='2263'> +2.9588575e+02 </wgt>
<wgt id='2264'> +3.0013854e+02 </wgt>
<wgt id='2265'> +2.9902630e+02 </wgt>
<wgt id='2266'> +3.1023693e+02 </wgt>
<wgt id='2267'> +2.9346588e+02 </wgt>
<wgt id='2268'> +2.9427584e+02 </wgt>
<wgt id='2269'> +2.9946186e+02 </wgt>
<wgt id='2270'> +3.0129988e+02 </wgt>
<wgt id='2271'> +3.0655384e+02 </wgt>
<wgt id='2272'> +2.9683945e+02 </wgt>
<wgt id='2273'> +3.0209194e+02 </wgt>
<wgt id='2274'> +3.0046637e+02 </wgt>
<wgt id='2275'> +3.0268952e+02 </wgt>
<wgt id='2276'> +3.0480190e+02 </wgt>
<wgt id='2277'> +3.0201352e+02 </wgt>
<wgt id='2278'> +2.8776563e+02 </wgt>
<wgt id='2279'> +3.0771297e+02 </wgt>
<wgt id='2280'> +2.8928171e+02 </wgt>
<wgt id='2281'> +2.9068658e+02 </wgt>
<wgt id='2282'> +4.4998384e+02 </wgt>
<wgt id='2283'> +3.1414019e+02 </wgt>
<wgt id='2284'> +4.3337103e+02 </wgt>
</rwgt>
</event>
</LesHouchesEvents>
